# vtk DataFile Version 2.0
Really cool data
ASCII
DATASET POLYDATA
POINTS 5355 float
-5.5995917 29.175991 57.491043
-5.734567 29.766275 57.409508
-5.7483974 29.905014 58.13034
-6.063609 30.871552 57.590755
-6.076661 30.848145 58.382107
-5.8790584 30.892775 58.840183
-5.8456087 31.614227 57.208847
-6.149628 31.512566 57.82445
-6.190729 31.492146 58.30866
-5.980255 31.579111 58.899998
-5.840613 31.976578 57.209812
-5.8693132 32.2855 57.63009
-6.000052 32.183548 58.503647
-5.7325635 32.37505 58.982555
-5.6681466 32.787064 58.397488
-4.561796 25.686241 54.86416
-4.665187 25.54462 55.45372
-4.6737204 26.445745 55.484394
-4.5576406 27.09144 55.70819
-4.7516713 27.804209 56.736717
-4.726186 27.782244 57.561584
-5.228358 28.686869 56.826714
-5.4267755 28.841265 57.701492
-5.2388706 28.838177 58.030277
-5.0616326 29.51726 55.83937
-5.3715773 29.56089 56.579945
-4.7398033 29.17367 59.309986
-4.86545 30.44859 55.727894
-5.375021 30.400208 56.619324
-5.498684 30.666008 59.08287
-4.876478 31.397804 56.14331
-5.287826 31.527496 56.577667
-5.4572377 31.586187 59.360138
-5.2414236 32.30806 56.95223
-5.5126657 32.60678 57.53905
-5.352291 32.541363 59.201794
-5.0228615 31.995173 59.599724
-5.1982837 33.077034 57.8387
-5.233699 33.13953 58.506855
-5.1427007 33.008984 58.976585
-3.72519 17.228357 41.77499
-3.7593465 17.04677 42.339153
-3.7584922 17.144775 42.960186
-3.7494085 18.050533 41.209953
-3.9904103 17.856142 41.64521
-4.1413894 17.703192 42.389885
-3.9299932 17.68297 43.17632
-3.8559327 18.467379 41.317
-4.1401706 18.509556 41.691074
-4.287029 18.538324 42.389767
-4.0417757 18.452093 43.177658
-3.6880882 18.85313 43.719753
-3.7133558 19.336235 53.7101
-4.0201993 19.117323 41.768307
-4.098131 19.181007 42.34855
-3.827692 19.181242 43.306683
-3.6122327 18.986563 43.801327
-3.786176 19.84242 52.754917
-3.9398663 19.670254 53.63952
-3.934477 19.797085 54.28222
-3.8339844 19.9579 54.721844
-3.7826421 19.697693 42.153534
-3.9165099 20.496838 52.77596
-4.1683106 20.413116 53.5404
-4.121299 20.453094 54.33118
-3.7968736 20.376602 54.86945
-3.713237 21.338083 52.64372
-3.990283 21.282803 53.522465
-4.0797234 21.016659 54.3091
-3.681684 22.499146 52.86957
-3.6093955 22.865479 53.395576
-3.6792607 24.06691 53.36941
-3.7257645 23.98618 54.30633
-3.6165876 24.624176 52.986816
-3.950283 24.61189 53.67335
-4.4344254 25.08535 54.890602
-4.385336 24.889677 55.340363
-4.0765424 24.727564 56.15763
-3.7411537 24.99842 56.950703
-3.6376817 25.23035 53.115818
-3.7951353 25.443563 53.346886
-4.4670954 25.277122 54.800102
-4.4432597 25.485075 56.268894
-4.0320263 25.910122 57.282455
-3.9088047 26.137848 53.898594
-4.3328943 26.10477 54.478943
-4.4168706 26.67612 56.65356
-4.338889 26.628225 57.366074
-3.9393659 26.65125 58.16876
-4.058281 26.96925 54.574436
-4.2120137 27.458853 55.26017
-3.939368 27.660305 59.54822
-3.8993156 27.983896 60.117153
-3.9176438 28.47841 55.04732
-4.554232 28.326729 55.90225
-4.390377 28.518904 59.42781
-3.983274 28.427874 60.213543
-4.3543077 29.757845 55.257683
-4.658565 29.753124 55.428627
-4.16156 29.323265 59.950817
-4.2233047 30.283806 55.26855
-4.4246693 30.456905 55.433388
-4.3303657 31.415049 55.89806
-4.8302684 31.59696 59.56464
-4.2542577 31.815199 56.114265
-4.359192 32.37468 56.51599
-4.4911437 32.614944 59.453346
-4.49272 32.841423 57.05559
-4.564055 33.240005 57.71247
-4.5606403 33.362804 58.441025
-4.46677 33.11467 59.096172
-2.6276305 0.7635089 60.656494
-2.7922993 0.9171913 61.50391
-2.7678394 0.95991176 62.45289
-2.68645 1.162122 63.19763
-2.7654505 1.5053234 60.714348
-2.9875214 1.4634572 61.495605
-2.9928725 1.5884889 62.40233
-2.8320754 1.4657079 63.04116
-2.8646574 2.5598893 60.859814
-3.0947764 2.5708086 61.468758
-3.0479317 2.572723 62.31375
-2.7739038 2.287888 63.13657
-2.7892783 3.2086406 61.05651
-2.9189138 3.2970257 61.550755
-2.8965297 3.195201 62.180187
-2.729581 2.8852499 62.885326
-3.4719663 17.003424 41.764355
-3.4121 16.694506 42.305153
-3.5013685 17.02538 43.11838
-2.857135 16.868057 43.790333
-3.3467498 17.683525 41.20604
-3.5985184 17.471796 41.430767
-3.5569227 17.376925 43.45284
-3.2577863 17.454334 43.846874
-3.5699978 18.606121 41.11822
-3.4587579 18.193834 44.017784
-2.6842632 18.604328 44.68409
-2.801653 19.13782 51.98876
-3.2033293 19.101969 52.749462
-3.3088627 19.11014 53.48439
-3.3358047 19.244646 54.248592
-3.4686632 19.204063 41.288765
-3.6030965 19.342213 41.521687
-3.163622 19.449823 44.17375
-3.2186267 19.720716 51.862373
-3.5694373 19.572443 52.725166
-3.5764866 19.450134 54.47224
-3.3586729 19.642052 54.847748
-3.576884 19.725883 41.95257
-3.1276646 20.252186 42.58953
-3.2168205 20.239872 43.435192
-2.7139463 20.332523 44.241467
-3.5051718 20.441479 51.93013
-3.4026213 20.430868 55.10151
-2.8537762 20.692764 43.12279
-3.3183873 21.401558 51.90681
-3.3282266 21.377327 54.86987
-3.112536 22.322018 51.768616
-3.4579597 22.3049 52.449356
-3.3728092 22.92797 53.599304
-2.9961061 23.505423 51.72478
-3.3866467 23.338646 52.31096
-3.3428495 23.538883 54.23987
-3.187902 23.675694 55.452145
-3.2522316 24.15573 56.270397
-2.8394706 24.499392 52.113453
-3.4056814 24.531565 52.72092
-3.1076307 24.849321 57.142517
-2.9258797 24.874018 52.17897
-3.3876667 25.288422 52.702995
-3.4507422 25.641157 57.567486
-3.4639313 26.00334 53.07622
-3.444997 26.334585 53.42873
-3.4408534 26.5475 58.460434
-3.3655496 26.965761 59.168346
-3.4393344 27.620756 54.180508
-3.2194114 27.842224 60.498135
-2.9571998 28.024836 60.798424
-2.9780402 28.277819 54.307045
-3.6809397 28.892515 60.54602
-3.3446276 28.543486 60.796463
-3.7358212 29.298496 54.99057
-3.6547194 29.22838 60.52
-3.5425715 29.19459 60.646202
-3.682697 30.304688 55.14295
-2.8433816 30.109476 60.589905
-3.904578 30.86555 55.36206
-3.7434394 31.28129 55.672577
-3.456317 32.066963 56.173603
-3.6810186 32.337406 59.414307
-3.629099 32.92849 57.030987
-3.6119564 33.203793 57.795258
-3.692321 33.226753 58.33156
-3.929458 33.051804 59.04397
-1.6145691 -0.9653804 61.41302
-1.9748753 -0.14000078 60.00899
-2.130615 -0.18732595 60.65997
-2.0354617 -0.38523686 61.53328
-1.9682391 -0.23528564 62.39775
-2.3087795 0.56061614 59.968616
-2.3853924 0.3283217 60.35053
-2.5305395 0.30575716 61.599926
-2.4117258 0.9024618 63.467392
-2.178526 1.0619423 63.909035
-2.344162 1.5156859 59.963825
-2.525638 1.6224471 60.30422
-2.5254998 1.3959401 63.603897
-2.3669963 1.5860322 63.86518
-2.234512 2.357424 60.11264
-2.6342378 2.5072937 60.45752
-2.49445 2.4814367 63.44731
-2.3115244 2.1834788 63.84827
-2.1228445 3.0024593 60.31679
-2.4325745 3.3863246 60.83792
-2.5922303 3.4871304 62.443375
-2.2597575 3.0990698 63.139774
-2.1534715 3.703319 60.961617
-2.446414 3.798371 61.513645
-2.2945838 3.7825344 62.146286
-2.0733614 16.318699 43.7982
-2.7143655 16.705383 41.715504
-1.9174644 17.024277 45.101788
-2.5573971 17.831627 41.018467
-2.119895 17.591015 45.210793
-1.8379304 17.979 45.62892
-2.2784872 18.432753 41.091507
-2.2671463 18.170216 45.25773
-2.4605353 19.050406 51.861866
-2.480268 18.799397 52.535404
-2.2386265 18.878653 53.15206
-2.4674485 19.00716 54.28956
-2.360192 19.315306 54.903027
-2.721808 19.421818 41.302055
-2.220645 19.019293 45.101635
-2.7343557 19.397795 51.635323
-2.734119 19.525375 54.850876
-2.2526414 20.411095 42.0179
-2.4278157 20.444038 44.39306
-1.7586328 20.607906 55.846622
-2.2996314 20.951517 43.503204
-2.6320534 20.670044 43.883556
-2.072228 21.230816 55.814198
-2.2991526 22.656004 50.926033
-2.2079942 23.032728 51.038868
-1.8622932 24.69043 51.20053
-2.2071912 25.37092 51.902138
-1.6004823 26.598904 51.798336
-2.3071148 26.39202 52.617046
-2.7103062 27.388285 60.315754
-1.8850548 27.23719 52.879025
-2.7130735 27.244104 53.552364
-2.5693882 27.581823 60.575653
-2.1174557 27.841808 61.371845
-1.8818657 28.178139 61.864433
-2.7261903 27.991934 53.977043
-2.4442513 28.757198 61.504738
-2.193477 28.402306 61.710243
-2.3543835 28.867804 54.41951
-2.4455688 29.50554 61.357395
-1.8260229 29.390074 61.986706
-2.2026799 30.014793 61.283134
-1.938634 29.95984 61.82552
-2.7097006 32.16121 56.21577
-2.4752254 32.546974 56.67711
-2.7348506 32.814693 56.958176
-2.6851783 32.92945 57.38553
-3.1522713 32.8025 58.729855
-0.9267094 -2.1587749 59.884907
-1.104984 -1.9595276 60.383602
-0.64706564 -1.217431 58.63947
-0.9331224 -1.6582234 59.355503
-1.2593803 -1.7455277 60.39221
-1.4009941 -1.342896 61.65314
-1.148734 -1.2964948 62.569496
-0.8420001 -1.4262315 63.26594
-0.5989078 -1.38495 63.83091
-1.3279893 -0.80394673 59.627647
-1.3463762 0.8768841 59.195145
-0.9765241 0.7310789 64.271996
-0.6511693 0.91124636 66.48817
-1.496431 1.1934589 59.180504
-1.5946254 1.6459603 59.49668
-0.61684394 1.1390748 66.77408
-1.5051022 2.121524 59.58898
-1.66377 2.176512 64.09336
-1.7517211 3.1910458 60.344833
-1.1702983 3.5162394 62.665733
-1.744893 3.3344522 63.115887
-1.865724 3.7251375 60.9187
-1.7100848 3.9124873 61.552433
-1.7548566 3.7749653 62.322083
-0.67605567 13.183872 43.73177
-0.7797942 13.148552 44.493534
-0.7759977 13.259569 44.929565
-0.82746124 13.727299 43.72265
-0.9981377 13.624979 44.562305
-0.91185415 13.711462 45.22173
-0.74542797 13.950136 45.659344
-0.5244505 14.228897 41.825176
-1.2369747 14.232457 44.568985
-1.0741584 14.521327 45.349903
-0.8041651 14.939914 45.787426
-0.8589624 15.289182 42.32112
-1.3687367 16.031284 44.565285
-0.67239535 16.392458 40.81881
-0.90131795 16.350262 41.290497
-1.5736016 17.035723 45.474655
-1.3194388 17.06084 45.585255
-0.7058527 17.240881 40.67053
-1.3604753 17.469814 45.6779
-0.76966864 18.351006 54.06571
-0.5920588 18.178324 55.763336
-1.3324006 18.623652 40.74469
-1.8889697 18.925251 51.96496
-1.7553048 18.71924 52.757595
-0.89447725 18.634724 54.550507
-0.710955 18.469965 55.96822
-1.3239911 19.127295 45.55759
-0.60885566 20.139359 48.11215
-1.9264151 20.084808 51.132
-0.9422877 19.395649 56.417274
-0.742471 19.729513 56.925224
-0.59625137 20.72496 47.527252
-0.72278404 20.589008 48.5794
-0.78797877 20.8558 56.928837
-0.5899658 21.691462 46.679367
-0.80404854 21.124311 48.173325
-0.64676905 22.37929 42.282707
[...]
POINT_DATA 5355
SCALARS features_00 float 1
LOOKUP_TABLE default
0.46007407 0.54485595 0.538322 0.7146685 0.72436833 0.7132559 0.7430818 0.8103027 0.8273113 0.8329735 0.7715241 0.8543385 0.89299935 0.89762866 0.9328233 0.38368052 0.43028176 0.40533715 0.36639374 0.3523272 0.31736264 0.40282178 0.39845723 0.36826444 0.41717193 0.4945854 0.36771655 0.4371673 0.5690155 0.61253965 0.5164391 0.598155 0.7944019 0.71364236 0.85183513 0.9017571 0.83209145 0.91392 0.9522322 0.93433815 0.7705425 0.76628816 0.72218454 0.7677815 0.80208683 0.81570554 0.73620987 0.78890395 0.8214068 0.8749196 0.7857325 0.664876 0.6920482 0.8108466 0.84350693 0.7479049 0.64485955 0.6996263 0.7228832 0.69795895 0.67021525 0.76889473 0.65023327 0.71950436 0.71632946 0.6550462 0.44595116 0.54314476 0.68576086 0.2652077 0.24158427 0.24728157 0.2958185 0.24292667 0.27870268 0.38889545 0.42785627 0.4415665 0.37512755 0.25274742 0.27601606 0.38087645 0.44361773 0.34804943 0.301346 0.34718162 0.38509598 0.33089954 0.28892806 0.28923815 0.28982735 0.32631588 0.34668308 0.22921884 0.33374256 0.35984138 0.36212587 0.3532812 0.37318194 0.3524193 0.37877268 0.40902102 0.48286003 0.740459 0.5219092 0.61238635 0.88126904 0.7411655 0.8834505 0.93118167 0.9142044 0.516452 0.54689646 0.5539765 0.55823374 0.6021525 0.64370036 0.65483856 0.6041355 0.73409176 0.82805693 0.81515574 0.6793299 0.82760614 0.9016143 0.90157914 0.79278964 0.7309473 0.7028686 0.669676 0.46802467 0.7035855 0.7479261 0.6474685 0.5502593 0.7456447 0.58557004 0.46653932 0.585158 0.6313454 0.6445206 0.6305224 0.7356603 0.7584891 0.5700222 0.6228775 0.68439186 0.6531843 0.61364186 0.7463151 0.6467454 0.6161475 0.5222618 0.6090598 0.5806173 0.5132519 0.39973837 0.5286923 0.27518845 0.28050113 0.23737186 0.21684954 0.22647795 0.260652 0.38534686 0.3965053 0.16118398 0.21982308 0.28728396 0.15771726 0.20455007 0.27916154 0.211115 0.2178821 0.26272783 0.2871473 0.17290315 0.3598892 0.38105366 0.116334744 0.37870365 0.38441375 0.2596 0.3684555 0.37456924 0.32094723 0.37133816 0.39187014 0.43263358 0.5367277 0.7800402 0.64649576 0.7222456 0.786238 0.8701651 0.30267155 0.39368486 0.38451043 0.3587818 0.3574715 0.48349762 0.46063936 0.45838165 0.48531216 0.4680819 0.5457065 0.58105993 0.56021786 0.5459753 0.6211924 0.67738307 0.66959673 0.5824317 0.6946112 0.80497867 0.8915608 0.788376 0.82914233 0.90851575 0.90011036 0.33203632 0.5729867 0.305596 0.5554517 0.34538698 0.30306634 0.5169201 0.3608304 0.5461198 0.54663074 0.49620187 0.48222974 0.4291247 0.61495054 0.40727013 0.56789744 0.52478147 0.50838256 0.47089607 0.2366888 0.3972894 0.47895873 0.215097 0.21313864 0.20537339 0.082091905 0.104918994 0.0922441 0.09704723 0.33786392 0.053261235 0.092069976 0.361783 0.42397457 0.47299147 0.07831672 0.43262833 0.4490621 0.06464999 0.43987045 0.51692 0.46952015 0.51323104 0.50402176 0.4862054 0.5310179 0.5299678 0.65383726 0.27149478 0.27044523 0.26083794 0.27222744 0.27794993 0.27107126 0.22709739 0.12241422 0.05981873 0.30106124 0.37825492 0.1506044 0.3829129 0.40683413 0.4743296 0.42428643 0.51162636 0.52198577 0.691164 0.7662139 0.77271736 0.8033136 0.8467866 0.84705377 0.44915953 0.49013796 0.5088358 0.428101 0.4824412 0.52530396 0.5536783 0.33648136 0.45646617 0.49678582 0.48884013 0.24069656 0.24785751 0.20312665 0.1511654 0.2793206 0.26051366 0.17976981 0.27527595 0.16672432 0.27782333 0.1617886 0.45766288 0.4311922 0.17739144 0.28613946 0.2389764 0.23062195 0.4718179 0.29779407 0.3502205 0.23770666 0.24036464 0.2613481 0.28559548 0.24214722 0.21354677 0.040834215 0.24724543 0.28061455 0.006669387 0.1429365 -0.028663408 0.56413084 0.5125644 0.46196258 0.22179037 0.25597325 -0.118135855 0.60251045 0.5979847 -0.11503675 0.21886964 0.07135983 0.07846317 0.22072798 0.11774985 0.04415766 0.17461988 0.4048816 0.21612242 0.12515059 0.5160663 0.11580644 0.5355616 0.57524943 0.045007825 0.57109356 0.3536725 0.47570252 0.58672214 0.39936608 0.38303655 0.2819909 0.44779027 0.4286205 0.39374334 0.5357737 0.5350482 0.52940273 0.5282587 0.50256944 0.42387784 0.48611724 0.5160837 0.46189016 0.41804555 0.27538142 0.4773878 0.38316086 0.3726301 0.24854884 0.1872077 0.31330317 0.24619922 0.24379863 0.23943266 0.10591453 0.27498293 0.25257406 0.25608286 0.018064238 0.36546612 0.34135687 0.27121067 0.25570056 0.13436042 0.36142108 0.44469646 0.3980109 0.3627762 0.21066463 0.1861316 0.17194687 0.45047724 0.48239374 0.38330272 0.13031015 0.46068352 0.46337715 0.23571499 0.4560262 0.45442525 0.4406225 0.56314206 0.62381494 0.65170085 0.6839467 0.6942682 0.18678376 0.25290406 0.39145818 0.7776129 0.4656125 0.47407424 0.37449965 0.39424872 0.43580943 0.45920056 0.48492715 0.51237243 0.35063073 0.35221434 0.36763713 0.3698169 0.5314596 0.576271 0.33674914 0.32601982 0.35544398 0.39752704 0.33711863 0.29067278 0.50052536 0.40511274 0.31822437 0.2750923 0.3689056 0.23883606 0.20865974 0.19908813 0.2657755 0.3357929 0.32481986 0.26979852 0.011624269 0.34990382 0.36953908 0.30434275 0.23039986 0.13344255 0.17528269 0.26326862 0.2784867 0.20832133 0.37418395 0.3657595 0.13936706 0.12046683 -0.086020134 0.15369104 0.5253166 -0.08901598 0.18141095 0.2196038 0.5945936 0.58118844 0.3135119 0.28271896 0.054059707 0.15785208 0.20855628 0.1970392 0.19443485 0.3624584 0.62638867 0.6243999 0.6027485 0.5497316 0.121892765 0.15956597 0.19393304 0.032955192 0.6408678 0.6246793 0.57385325 0.18688457 0.18430474 0.19476227 0.2514261 0.26033032 -0.10590422 0.44461358 0.47932717 0.25792015 0.30161256 0.27691114 0.5457784 0.28666878 0.2408556 0.19698918 0.5827981 0.21146971 0.18978003 0.15885584 0.618844 0.6043439 0.114531144 0.64087534 0.12967277 0.3834479 0.55888546 0.24957196 0.5248872 0.51036406 0.47730654 0.29035962 0.4575132 0.4844358 0.42306268 0.34401545 0.35689944 0.34678373 0.34143066 0.23822376 0.11622679 0.3894113 0.2915698 0.261759 0.2374968 0.2904541 0.2945245 0.28621677 0.46339428 0.49158412 0.35896766 0.3457353 0.4989683 0.5075224 0.5123928 0.47880834 0.4380173 0.39108232 0.5018157 0.48961896 0.47304213 0.42017564 0.41406146 0.32625437 0.18797298 0.46041185 0.466397 0.473467 0.4414005 0.41563225 0.38788915 0.28423357 0.16651703 0.015923038 0.2638438 0.3941829 0.46055984 0.44881696 0.3705948 0.3196504 0.35587925 0.3546455 0.33567908 0.4349411 0.48592925 0.5009185 0.5052545 0.35903683 0.36539742 0.4146786 0.48765844 0.5415887 0.35429168 0.36140758 0.62376916 0.39745215 0.352837 0.5754728 0.4809724 0.44960773 0.20175977 0.34617662 0.460652 0.44541842 0.18268493 0.30936748 0.37275004 0.45993337 0.41354984 0.09161708 0.16966647 0.36534983 0.3701908 0.36779633 0.15603171 0.1766617 0.06627538 0.13586088 0.36256033 0.3421036 0.2849457 0.32759923 0.13834116 0.26353925 0.3661623 0.36353105 0.551929 0.46842074 0.4211234 0.60028815 0.5941529 0.026551163 0.41331977 0.42223614 0.6419729 0.62947416 0.070567116 0.052627005 0.2803935 0.388676 0.6397188 0.65344614 0.64195335 0.578634 0.38675573 0.08894091 0.18406618 0.22862522 0.0846138 0.39340454 0.24318658 0.27450252 0.49429274 0.24920374 0.23541266 0.57004565 0.20821925 0.21981923 0.21627429 0.23151438 0.60094726 0.6055565 0.25918987 0.20673208 0.626503 0.19316506 0.46114534 0.5259004 0.31322137 0.44472465 0.45403343 0.39850935 0.29046628 0.3542062 0.44813102 0.40728933 0.24505237 0.14868976 0.2089201 0.053977862 0.30422664 0.30306458 0.32908672 0.30597687 0.48609328 0.52006656 0.50046444 0.34817183 0.5044348 0.5235356 0.5578243 0.5380162 0.48301083 0.52127767 0.55805653 0.52370703 0.39366782 0.46355003 0.5396061 0.51368475 0.4713236 0.3653698 0.54341763 0.50437826 0.47721303 0.39851516 0.27528384 0.18524611 0.031719603 -0.2834211 0.27398196 0.5525783 0.5336356 0.4967658 0.4447949 0.3176307 0.02499719 0.40356266 0.5144117 0.4953857 0.41695037 0.44654173 0.5100261 0.37471265 0.3972743 0.5080774 0.58255017 0.62215424 0.53178585 0.6072171 0.6320819 0.3825611 0.44608378 0.5026705 0.52172804 0.5311787 0.5391266 0.35593474 0.36504963 0.3478327 0.52258074 0.3184237 0.3219467 0.4957809 0.4039975 0.28665304 0.26388225 0.29068214 0.31273165 0.5158211 0.26045668 0.19979367 0.24013183 0.25782642 0.30274183 0.38864094 0.4295326 0.43665957 0.50737685 0.25021154 -0.039665096 0.17142805 0.13552088 0.41770655 0.41627306 0.4819883 -0.05507698 0.36945742 0.4358412 0.06358483 0.0127685 0.13020808 0.29936078 0.35669872 0.27089158 0.19403055 0.15544468 0.21378024 0.55061215 0.37219986 0.4055813 0.6593971 0.41832078 0.6677197 0.6561444 0.34300482 0.37543404 0.64064527 0.62164927 0.5437864 0.2863667 0.17753865 -0.041062236 -0.061485082 0.27070522 0.24111721 0.52082396 0.18428792 0.56278 0.58133686 0.16743192 0.18197495 0.20731394 0.59542525 0.21918455 0.27928925 0.25730783 0.5960415 0.6195328 0.26409996 0.22174455 0.3994413 0.4722789 0.50282097 0.5318662 0.39605403 0.44357103 0.48649466 0.14936599 0.37732717 0.4674681 0.22484072 0.54611766 0.22040324 0.5473587 0.19322939 0.41786736 0.17339626 0.053783968 0.2589206 0.21708019 -0.045724496 -0.12016259 0.08240166 0.22980823 0.28174835 0.20463051 0.3498805 0.5192889 0.5483394 0.51322585 0.48521858 0.55477077 0.5986116 0.5567102 0.5916351 0.56939006 0.4784235 0.5513934 -0.20531766 0.32889414 0.53411186 0.55921715 0.2626935 0.55111927 0.30891997 0.19423841 -0.08806835 0.34551358 0.36328968 0.5283732 0.5009327 0.46449405 0.04757171 0.07302844 0.59715736 0.5415606 0.07522603 0.23296326 0.6427869 0.6049228 0.17868146 0.30034986 0.35220808 0.5150501 0.6157377 0.64750266 0.2833752 0.4208308 0.5328147 0.6078719 0.38159084 0.4197774 0.458981 0.5031064 0.5239814 0.46722412 0.46813706 0.33500066 0.35351703 0.48588163 0.41522092 0.40962106 0.42153585 0.41699034 0.31635445 0.29833573 0.21882956 0.39458984 0.3414651 0.3468226 0.34972715 0.3685339 0.35540766 0.4648196 0.29858202 0.29686368 0.34360644 0.4065111 0.43023312 0.5131407 0.14436314 0.15190333 0.17452137 0.43723273 0.43459415 0.5147587 -0.06509442 -0.07471162 0.41711804 0.4920869 -0.043899946 -0.05115488 0.38760138 0.33548135 0.01429607 0.27325433 0.2333449 0.21959826 0.14413522 0.06463753 0.22499056 0.046415947 0.09130439 0.5651046 0.27757034 0.6483339 0.38747442 0.3983518 0.66701937 0.6432882 0.30432725 0.6253278 0.5502991 0.4279514 0.22479531 -0.048103757 -0.06778081 0.13913003 -0.12344785 0.12076182 0.49713242 0.17334157 0.18110779 0.14572564 0.5857934 0.1686644 0.6122562 0.61032796 0.21362722 0.26967305 0.2909795 0.26339245 0.25087726 0.2317111 0.42021376 0.5465188 0.57331765 0.2564833 0.23044719 0.44016775 0.50524664 0.51961887 0.54374117 0.6793102 0.69171786 0.7415916 0.7243931 0.6451417 0.65737 0.71876645 0.7510747 0.7270126 0.59094834 0.6162126 0.6411173 0.45214677 0.4973781 0.17420447 0.5540403 0.57688975 0.57058656 0.5752955 0.14000449 0.19334944 0.5537985 0.16714513 0.16751677 0.29030693 0.39497736 0.057484526 0.3018651 -0.19334173 0.14243463 -0.35145363 0.38449347 0.20746806 0.037751317 -0.15336639 0.47718626 0.5775524 0.47338337 0.35464838 0.59606946 0.6206416 0.5191214 0.62182057 0.5004245 0.4886347 0.4661312 -0.4887309 0.29720345 0.4617773 -0.040708214 -0.42297393 0.26811826 0.44553673 0.45136583 0.08668531 -0.43736786 -0.24594958 -0.026561797 0.38501596 0.4877597 0.41932124 0.30723137 0.10536091 0.4439857 0.26874825 0.13821788 0.13207291 0.09391122 0.5912273 0.4625461 0.36147848 0.3383265 0.2426695 0.28793967 0.23635937 0.15400851 0.190846 0.6230994 0.61665946 0.5254911 0.4762156 0.3130313 0.22728084 0.321718 0.43164122 0.54976285 0.59385026 0.5467365 0.571565 0.59187984 0.39646935 0.40355095 0.39937264 0.3847009 0.34965426 0.52916265 0.53087664 0.5152922 0.49874768 0.54612607 0.3829523 0.32812804 0.45989877 0.47997123 0.46447533 0.4386388 0.2059187 0.34630436 0.32072604 0.261952 0.34747472 0.076659195 0.27743417 0.34797865 0.40896028 0.0627113 -0.03507048 0.39646393 0.40484443 0.47877848 0.36776906 0.43261963 0.33788043 0.33217078 0.24267717 0.0097101 0.2026298 0.075256445 0.45467308 0.106839396 0.21002457 0.62752366 0.2681272 0.60935706 0.31589136 0.5865319 0.48058957 0.14646725 0.00057498366 0.13209271 -0.083715595 0.13260227 0.19725937 0.1567551 0.0638067 0.16395535 0.15354176 0.123005114 0.1817241 0.010824494 0.19456153 0.28857297 0.4699047 0.2751573 0.28735957 0.21008044 0.40471017 0.4475659 0.5087202 0.7455044 0.7550994 0.7445238 0.69805247 0.7234831 0.6974694 0.7093266 0.7077927 0.68171465 0.62490237 0.66947216 0.53677356 0.3627202 0.39859334 0.38011044 0.44696704 0.53905994 0.24208546 0.5726332 0.1435959 0.570787 0.13722247 0.54217875 0.54282916 -0.017766915 -0.22817504 0.11948155 -0.03647244 0.30152607 0.50714636 0.5915266 0.39459342 0.294128 0.61546504 0.6320547 0.3418872 0.632809 0.37358755 0.5793396 0.21075912 0.27520618 -0.4454751 0.26054093 0.35552436 0.32396805 -0.43373865 0.34815183 0.2588915 0.07197108 -0.28112188 -0.09186415 0.42391798 0.2844251 0.10637227 0.11939707 0.45855165 0.41888475 0.44388378 0.25975284 -0.017008834 0.23044664 0.308542 0.52101094 0.5584844 0.6162639 0.5865582 0.5016737 0.38198158 0.29408023 0.32226825 0.34584907 0.37588364 0.33261442 0.17000142 0.107469566 0.1973384 0.29934657 0.41897255 0.7097938 0.59919035 0.54587984 0.4083811 0.4027892 0.370242 0.09935054 0.1553066 0.624342 0.6477251 0.73217964 0.7180402 0.45168585 0.42747402 0.34693787 0.19869764 0.50275654 0.53831583 0.58126444 0.5133136 0.44523248 0.3953438 0.33754882 0.3867097 -0.40777913 0.24840218 -0.33901566 0.12705767 0.23636034 0.28474867 0.09861161 0.16286533 0.3340166 0.28282315 0.25245845 0.18407293 0.19665825 0.4917156 0.18821314 0.4539373 0.18507141 0.3103714 0.116974786 0.3409087 0.32062086 -0.022510584 0.28121734 0.4882832 0.040816057 0.15971139 0.32553044 0.51542306 0.5021101 0.44166067 0.4084918 0.24512058 0.1421946 -0.3003383 0.12424472 0.4257587 0.392564 0.31060886 0.20226425 0.120553724 -0.27021587 0.13076523 0.14880401 0.12554626 0.25617388 0.23073874 0.7554835 0.77209145 0.777372 0.72932595 0.67984515 0.7308053 0.6627147 0.6223283 0.6264794 0.58416724 0.4822948 0.4705884 0.4139806 0.28093138 0.39095435 0.33508337 0.11560973 0.37552592 0.5235972 0.3009739 0.54216975 0.19069387 0.53378123 -0.012844851 -0.01389553 0.5167415 -0.037216507 0.43613714 -0.12786521 0.37993357 -0.27259943 0.30203283 -0.2225634 0.20033053 -0.34540772 0.45892164 0.4693659 0.39694786 -0.08060138 0.6196264 0.6299988 0.50597584 0.6306117 0.48572063 0.56808233 0.39912674 0.2391598 0.37883678 0.19422705 0.032813415 -0.03612299 -0.006651447 -0.044732057 0.33817908 0.1951066 0.19426179 0.4049568 0.21973622 0.22046247 0.4462639 0.5105455 0.10297063 0.115148194 0.69051766 0.41039494 0.41713214 0.4004236 0.32977697 0.20866075 0.09525819 0.13299882 0.112035304 0.28707027 0.2576949 0.57842934 0.53834575 0.5234556 0.7423818 0.69607925 0.56679344 0.36862835 0.44505006 0.41766623 0.35209024 0.23028415 0.47033948 0.49997097 0.46627945 0.44078323 -0.004191518 -0.09856081 0.37093174 -0.2562053 -0.29784334 -0.0137730315 0.24590766 0.2748443 0.20232256 0.14005776 0.025620349 0.097881414 0.09974085 0.57757115 0.03665188 0.10600459 0.6046736 0.12514007 0.5375924 0.097740434 0.5087756 0.47414643 0.38932592 0.2759248 -0.10894758 0.13261649 -0.11478801 0.21452335 0.23674415 0.35484302 0.33132926 0.33316272 0.4511349 0.43948305 0.32030812 0.322172 0.3288769 0.32314613 0.47085094 0.45582592 -0.3501112 -0.42737585 -0.4036517 0.42688292 0.4354983 0.41189313 0.3537174 0.11085679 -0.18488649 -0.25260156 0.24080238 0.122777805 0.093727194 0.08050051 -0.04142221 0.4842273 0.58751476 0.6626943 0.64776886 0.6789988 0.7383813 0.73428154 0.64581585 0.7200836 0.58236986 0.5760455 0.46050498 0.4472818 0.43116117 0.34382915 0.0933011 0.25224862 0.26541173 0.46543345 0.1124304 0.03039437 0.29833034 -0.020560509 0.26278755 -0.1985459 0.20509535 -0.32516527 0.25941414 -0.28056714 0.181144 0.5000181 0.37556827 0.3178805 0.09769542 -0.35007995 0.3115934 0.40199178 0.69204503 0.4843951 0.44832668 -0.3395012 0.011421766 -0.012593925 0.5105875 0.5162574 0.4931401 0.4937237 0.4512431 0.39870912 -0.025946502 0.2331818 -0.014948331 0.077478275 -0.20327692 0.2456525 0.18990837 0.34819007 0.44294673 0.10368644 0.14555837 0.44896656 0.4066691 0.20184667 0.3532513 0.29795378 0.11167294 0.081374265 0.069451876 0.347054 0.34254536 0.28370422 0.3339816 0.4244036 0.43806463 0.6658101 0.4448833 0.40054882 0.30421463 0.24382406 -0.0047099665 0.06633313 0.13081968 0.121326685 0.40171486 0.3721776 0.1596981 0.28998572 0.14626598 0.36985436 0.30810627 0.31847492 0.2668259 0.27880397 0.4277284 0.22331935 0.26451525 0.35105106 0.19994335 0.21687576 0.27408177 0.20993909 0.11367506 -0.06904671 -0.10039289 0.54814434 -0.030244756 0.5775739 0.027684033 0.09223007 0.5494058 0.07384904 0.5205878 0.48019433 -0.030742677 0.43027848 0.49916252 0.46033663 0.37689993 -0.14872667 -0.028893098 0.32256705 0.4775681 0.5686039 0.6560419 0.46541345 0.6310158 0.39799064 0.5429149 0.3348965 0.29231954 0.3173187 0.43064538 -0.43268558 -0.12493601 0.10041153 0.23974413 0.4562226 0.44735947 0.42384928 0.41305938 -0.35672888 -0.07597914 0.3319771 0.40095454 0.3842617 0.2872244 0.05436582 0.063852325 -0.07882406 0.2659651 0.39006314 0.51222414 0.67388165 0.38737798 0.57003826 0.6459216 0.70749825 0.7049942 0.5957362 0.68165255 0.71088237 0.688777 0.6643834 0.59821784 0.6107302 0.6423036 0.6302502 0.57036823 0.54813564 0.5300367 0.5726148 0.4699394 0.47888884 0.31563893 0.25923383 0.27013564 0.44063923 0.16911176 0.44426286 0.15240675 0.083500266 0.18773751 0.19979045 0.1600613 -0.23063852 0.13564864 0.21370043 0.26486742 -0.34373513 0.42559987 0.53674996 0.72350204 0.76247185 0.35219228 -0.30051288 0.1886643 0.71884763 0.47634697 0.42724818 0.65798473 0.4972502 0.50003135 0.45572054 0.56025887 0.48217285 0.42714128 0.25913057 -0.0083544515 -0.0014833435 -0.15234466 0.16873407 0.22982267 0.102950975 0.3514322 -0.09731592 0.1615424 0.2485588 0.65706563 0.23061073 0.170367 0.17276981 0.2189299 0.46777934 0.5175454 0.5911106 0.5567635 0.5659776 0.1380693 -0.08936585 0.16761218 0.077744484 0.3819653 0.3818219 0.38500565 0.4728741 0.5379365 0.4461167 0.3807608 0.17177315 0.056228813 -0.1283916 -0.020481333 0.2222513 0.13335907 0.40205032 0.36585933 0.077969074 0.18944715 0.12389041 0.24045534 0.25591192 0.33890656 0.274991 0.3919359 0.08826136 0.20615086 0.4680154 0.41596228 0.34805667 0.22857647 0.26847726 0.33285278 0.14070457 -0.0119412765 0.23708215 -0.19026381 0.4938449 0.41006833 -0.29690012 0.55475503 0.48542574 0.019746806 0.08048768 0.53184927 0.50805825 0.05671108 0.030849297 0.4645707 0.5126462 0.56140065 0.5090142 0.46057034 -0.11607008 0.31141084 0.44382167 0.5282571 0.60244197 0.64290977 0.67007315 0.657572 0.6992296 0.68101233 0.7133274 0.021646589 0.56569856 0.6614363 0.07267603 0.43129727 0.57222426 0.39355117 -0.16636162 0.40514112 0.39129364 -0.13498333 -0.13105771 -0.036286704 0.039722387 0.21551758 0.35450315 0.3913424 0.39277023 0.33351862 0.21796313 -0.061510134 0.1311017 0.39371136 0.23798347 0.60242724 0.3387633 0.43739033 0.678219 0.49256587 0.60719526 0.6999475 0.7192129 0.7132126 0.55994165 0.6203151 0.579507 0.5347725 0.5252184 0.53056157 0.47543734 0.4296465 0.45270914 0.6550752 0.71928704 0.7700989 0.7799358 0.15704581 0.6151856 0.7183338 0.1902034 0.5327125 0.21496555 0.17912097 0.46252307 0.21407533 0.16889577 0.4494341 0.26959154 0.21639425 0.29484752 0.1105673 0.2967027 0.29978645 0.055684067 0.6093308 0.64339364 0.2845456 0.5103328 0.70121634 0.69766605 0.13961303 -0.07479522 0.70060253 0.43652117 0.38867605 0.63974977 0.44493425 0.4539582 0.49337983 0.43887007 0.40523902 0.34939566 -0.08082253 0.108936384 0.5455301 0.28517872 0.5296141 0.37229457 0.39450246 0.43530822 0.55195725 0.3281147 0.4372605 0.46961805 0.2436859 0.36203143 0.6690533 0.7093388 0.67609024 0.20624097 0.33808655 0.48204145 0.47998604 0.5732739 0.6661963 -0.079551265 0.029405892 0.46442086 0.5723517 0.1829378 -0.12002942 -0.17625122 -0.27060243 0.459968 -0.06552105 -0.03772729 -0.027921382 -0.018537626 0.005570829 -0.059345476 0.24324846 0.33451888 0.43650955 0.2251656 0.38625348 0.45626515 0.36182478 0.37445205 0.21910596 0.52212834 0.5406098 0.48654526 0.43052214 0.33951962 0.3555671 0.2012559 0.5801921 0.600