# vtk DataFile Version 2.0
Really cool data
ASCII
DATASET POLYDATA
POINTS 5289 float
-11.650168 14.425721 67.988625
-11.910586 15.637443 67.55247
-11.80877 15.449063 68.82639
-11.893187 15.831166 69.161736
-11.686857 16.27136 66.77397
-11.945279 16.246588 67.38416
-12.096947 16.23318 68.238976
-11.936285 16.558376 68.89666
-11.762094 17.126747 67.447136
-11.892437 16.985554 68.302444
-11.674983 17.082129 69.10923
-10.812092 13.368146 67.2998
-10.916163 13.419764 67.959274
-11.171748 13.889807 66.88458
-10.954312 13.579956 67.34063
-11.2093115 13.738053 67.945755
-11.144386 14.085942 68.72875
-11.1508665 14.793296 66.14841
-10.904886 14.865841 69.52688
-10.640915 15.279992 65.10451
-10.815829 15.768787 65.46813
-11.46246 15.21045 66.62471
-11.3116865 15.679518 69.74857
-10.982329 16.058372 65.98734
-11.516387 16.605186 69.57686
-11.094617 16.54134 69.87512
-11.018802 17.072588 66.445305
-11.566341 17.452145 67.52908
-11.471037 17.58888 68.7585
-11.222812 17.403833 69.41246
-11.1181965 17.163591 69.70232
-10.751267 18.376972 68.30391
-10.96425 17.858557 69.36048
-10.496348 13.414301 66.754715
-10.366639 13.235473 67.48122
-10.382201 13.381344 68.21178
-10.146451 13.792265 65.58101
-10.540571 13.481487 68.34189
-10.726656 14.06687 68.98938
-10.313342 14.651248 64.99446
-10.708776 14.536581 69.3855
-10.258119 15.320718 64.87141
-9.973041 15.528249 69.98821
-10.467213 16.026752 65.15284
-10.473643 16.418686 70.09605
-9.958882 16.83817 65.5323
-10.597407 17.74092 66.80449
-10.310135 18.354738 67.5372
-10.5729475 18.406584 68.423836
-9.989908 18.02218 69.918755
-10.001524 18.703653 69.22259
-9.441327 13.268636 65.80365
-9.130514 13.046243 66.867226
-9.538189 13.229673 68.26583
-9.316018 13.733884 65.13547
-9.739254 13.633315 65.34817
-9.23017 13.489872 68.71968
-9.419505 13.890623 69.21103
-9.4546585 14.743685 64.61509
-9.177695 14.392351 69.58133
-9.254271 15.9059925 70.25147
-9.351964 16.710226 70.34262
-9.597819 17.29952 66.193756
-9.269253 17.543152 70.24038
-9.72213 18.143719 67.15359
-9.528543 18.589233 69.610565
-9.3343315 18.32344 69.82586
-9.419527 18.91661 68.76287
-9.484891 18.781876 69.23062
-8.753619 13.218064 65.69035
-8.658307 13.0912285 66.273766
-8.650528 13.406216 68.66939
-8.449274 13.701771 65.12215
-8.335884 13.878453 69.22189
-8.074057 15.654215 64.29745
-8.712931 15.413992 70.15979
-8.258173 16.569746 70.26489
-8.093371 17.325 65.16571
-8.858871 17.572447 70.23221
-8.674766 18.452568 67.35914
-8.457016 18.41933 69.40309
-9.005435 18.081459 70.03091
-8.622941 18.783854 68.52598
-8.71473 18.68942 69.1745
-7.7391176 13.265852 65.96981
-7.4691052 13.19813 66.77602
-8.121058 13.729986 65.18858
-7.933649 13.6042 65.34017
-7.4130116 14.064273 69.392365
-7.510482 14.286737 69.74382
-7.768324 14.306921 64.78294
-7.264629 14.925564 70.078384
-7.0817475 15.774621 70.13767
-7.598859 16.142326 64.3665
-8.016373 16.321503 70.14008
-7.732615 17.253912 69.98462
-7.0074735 17.957853 66.18972
-7.780829 18.266127 68.78113
-7.9924135 18.125317 69.286804
-8.186491 17.8178 69.81614
-6.484326 13.326099 66.31241
-6.6297717 13.544901 65.84817
-6.8811483 14.006324 69.361275
-7.028868 14.18967 69.668396
-6.546132 15.018772 64.63421
-6.5639033 14.776716 69.89228
-6.4132843 15.587613 70.01959
-6.875085 16.32416 64.43381
-6.314701 16.624998 69.69055
-6.617578 16.99639 69.60139
-6.6751404 16.959929 69.70004
-5.7171035 13.368143 66.01027
-5.5652246 13.2891 67.321335
-5.1280656 14.283934 64.56112
-5.434791 13.799799 65.36674
-5.5575666 14.591788 69.38829
-6.1046815 14.683272 69.82503
-5.258486 15.864281 63.838795
-5.909115 15.401362 69.858475
-5.792973 17.140251 68.90111
-4.8036904 18.106474 62.878937
-4.6402593 18.657187 63.69984
-5.844558 17.855644 67.479065
-4.53989 19.26879 63.34398
-4.220037 13.5915985 65.03175
-4.362119 14.760145 63.430588
-5.3188887 14.86343 69.38623
-5.1244707 15.410079 69.26318
-3.5099623 17.989225 58.77088
-3.632265 18.00531 59.282417
-3.8296993 17.739458 61.04541
-4.7105403 17.309738 67.807335
-3.5924764 18.311226 58.850494
-3.6253822 18.17473 59.475945
-3.657679 18.640852 60.133446
-3.9108908 18.39024 61.23967
-3.6595693 19.170166 60.321877
-3.8591864 19.416729 61.5743
-4.349543 19.612736 62.808266
-4.2525454 20.250952 64.17145
-3.631894 21.338808 62.684055
-3.7391891 21.24901 63.814995
-3.9236457 20.851927 63.971737
-2.6909063 12.194859 57.720448
-2.7797632 12.204254 58.199253
-2.9231827 12.710216 57.81023
-2.984553 12.559593 58.39189
-3.0555236 12.585688 58.910034
-3.0603502 13.025621 64.52726
-3.0125701 12.659383 66.01937
-3.539024 13.114859 66.88541
-2.7639892 13.190926 57.150867
-2.9104137 13.484227 57.59049
-3.03593 13.446391 58.376766
-3.24085 13.65196 64.04725
-2.628074 14.292758 58.547752
-3.3630085 15.190354 62.486404
-3.2697964 15.399483 62.435856
-3.4794807 15.170498 68.03101
-3.2797358 16.710728 67.6911
-3.145248 17.656706 57.983543
-3.3892508 17.652071 58.605545
-3.1307523 18.46807 57.733955
-3.4520204 18.286488 58.382263
-3.0027726 19.085945 57.796547
-3.1419811 19.343723 58.421047
-3.151087 19.549013 65.75954
-2.7694938 19.88147 58.441628
-2.8748686 19.78032 59.08161
-3.0795233 20.04582 60.23486
-3.470408 20.705992 61.657818
-3.2480695 21.10453 61.60396
-3.516784 21.549631 62.759842
-3.412493 21.304995 64.10469
-3.292368 21.150894 64.871994
-3.0671048 21.700056 62.081406
-3.0331752 21.930927 62.636677
-3.3249056 21.680162 63.38958
-1.8921555 11.414586 58.611046
-2.0165346 11.993117 57.090527
-2.1919928 11.8333025 57.56803
-2.299895 11.676119 58.064247
-2.2276723 11.929618 59.18437
-2.163408 12.44091 56.908096
-2.428185 12.625469 66.568565
-2.272765 12.925139 67.04214
-2.1956139 13.50686 56.714214
-2.3532062 13.749869 67.66018
-2.0556061 14.13979 56.87381
-2.5858316 14.173733 57.51181
-1.9216006 15.828278 60.371765
-2.814231 16.354412 67.78577
-2.3287742 17.970228 57.265255
-2.683037 18.482357 57.35864
-2.2275794 18.207312 66.61783
-2.2670264 18.945074 57.25415
-2.4366364 19.38033 57.59153
-2.3181136 19.799286 57.899883
-2.507448 20.064003 58.39188
-2.481078 20.110533 59.470318
-2.2508714 20.12413 65.94927
-1.8378972 20.838774 60.461803
-2.5129693 21.56354 61.56303
-2.8099852 21.237362 65.062004
-2.7174237 21.851263 61.964508
-2.3648508 22.219875 62.50445
-2.18784 22.30006 63.22895
-2.4816837 21.742996 64.32101
-1.5747676 11.39537 57.62866
-1.5285141 11.258076 58.578976
-1.1228701 11.189348 60.19124
-1.483363 11.968469 56.959145
-1.4420992 11.515845 57.36532
-1.5940601 11.443564 59.560772
-1.1559061 11.792514 64.2339
-1.3125342 11.949578 65.26407
-1.3921714 12.233522 66.01933
-1.4689907 12.6347885 56.63344
-1.0225756 12.661011 62.1036
-1.9754659 12.887788 67.107834
-1.6525735 13.63077 56.463055
-1.5936376 13.407238 56.556007
-1.6661896 13.595096 67.48575
-1.3271097 14.09632 56.683277
-1.2538027 14.630444 67.46511
-1.3647215 15.804451 58.146553
-2.0421183 15.510627 67.72269
-1.476054 17.75535 57.129574
-2.1751199 16.95092 67.13899
-1.4133583 18.487377 57.035683
-1.7072934 18.75867 66.36676
-1.6666907 19.172935 57.20576
-1.632076 19.541693 57.414078
-1.3077586 19.453535 66.467995
-1.5821383 20.000889 57.854202
-1.6903721 20.35535 58.461914
-1.3153731 20.305916 66.13058
-1.6087903 20.534166 58.823055
-1.4957058 20.539494 59.18117
-1.4505014 21.49132 65.40899
-1.0980345 21.281263 65.62847
-1.8916974 22.303865 62.558784
-1.707135 22.207676 63.558273
-1.7659314 21.908752 64.161446
-1.446148 21.769705 65.038605
0.3745169 9.557571 63.49832
-0.46481165 11.441017 58.145275
-0.3777416 11.092352 58.71498
-0.2737121 10.748685 59.633766
-0.046496212 11.089189 61.73203
0.030766368 10.365816 63.823277
0.08288124 11.173894 64.87636
-0.8733906 11.807063 57.12527
-0.77613413 11.606393 57.352634
-0.13534802 11.52473 65.44359
-0.38819605 11.977518 65.81809
-0.2713093 12.893075 56.845825
-0.6120306 12.957487 66.867485
-1.0960414 13.191129 56.49365
-0.24553442 14.743151 67.25152
-0.61774164 16.473629 66.64547
-0.63303894 18.662403 57.251534
-0.7810363 19.294706 57.524017
-0.8890045 19.97099 66.24452
-0.43579376 21.53504 65.20956
0.032105476 22.214073 60.48669
0.165519 22.521225 61.69767
-0.7721457 21.956848 63.54807
-0.755504 21.709047 65.09789
0.2981711 22.740446 60.760002
0.9554781 9.249286 62.173115
0.94792855 9.195118 62.312862
1.1169055 8.965083 63.95545
0.4796451 9.468854 63.4578
0.55599326 10.83624 58.979244
0.7303723 10.7641115 59.803448
0.7068106 10.375852 65.05461
0.08863503 11.724833 57.848946
0.22278062 11.413578 58.40341
0.6800041 12.729538 66.77114
0.15970294 13.303918 57.01978
0.10568295 13.726084 67.10501
0.2962343 14.736052 67.05316
0.021111488 17.184 57.826675
-0.09467535 18.940275 57.81272
0.29126123 19.97237 58.713997
0.21957539 21.468513 59.560173
0.46278065 20.968708 65.05417
0.79084176 22.215559 59.86665
0.69874024 22.247252 63.069115
0.93439853 22.874779 60.25213
0.84683144 22.95836 60.645954
0.5370685 22.936056 61.446125
0.55193233 22.824913 62.04987
2.2476642 7.862143 63.910522
1.839419 8.233321 64.12341
1.4993529 8.612264 62.810783
1.5410279 8.601344 64.132706
1.7659072 8.587392 64.77318
2.3205452 9.4205265 59.619427
1.5855484 9.540966 65.272705
2.2682967 9.36314 65.75453
2.1323674 10.95084 66.40174
1.5843465 11.920844 66.39146
1.7952628 11.788984 66.6484
1.2301798 12.809599 57.683693
1.0667956 13.543187 57.3642
0.78195953 14.043818 57.373844
1.0751317 15.918581 58.64992
1.0194952 15.224083 66.48656
1.9794308 17.824572 58.376595
1.4831775 18.46076 66.97315
1.0473818 18.874123 58.47137
1.5243722 19.008709 66.79715
1.7671753 20.32045 65.38956
1.0572199 19.844416 66.163826
1.3763636 21.16952 59.31582
1.5559952 21.501078 59.518345
1.5289373 22.081846 59.69235
1.3848106 22.728605 60.095592
1.5914706 23.097858 60.786575
1.5419757 23.179379 61.450844
1.582244 22.879913 62.347137
2.9531162 7.912244 62.972595
2.580381 7.7319813 63.571983
2.747138 7.738448 64.277374
2.7921119 8.007105 64.94717
3.0297902 9.100486 58.721436
2.6971033 9.128309 59.43775
2.3692229 8.50614 62.337185
2.551931 8.390552 65.332634
2.487277 9.077503 65.698105
3.1183136 9.895118 58.053654
2.602911 9.551109 58.726166
[...]
POINT_DATA 5289
SCALARS features_00 float 1
LOOKUP_TABLE default
0.6567911 0.7001194 0.7336068 0.70554787 0.6164015 0.6677039 0.6946096 0.6827953 0.6748544 0.6811782 0.6783623 0.5663365 0.5577912 0.6254637 0.5730171 0.5601169 0.59222496 0.6394347 0.67171 0.58893436 0.56302273 0.63297725 0.7108562 0.5593076 0.67850477 0.68454176 0.5746008 0.6861681 0.68365556 0.69124746 0.68692493 0.753459 0.7237015 0.5938039 0.55251503 0.5472346 0.6454437 0.54891384 0.5715832 0.6347068 0.6147133 0.5874861 0.6300163 0.52549535 0.699301 0.47571522 0.59742486 0.6942071 0.76735264 0.6828573 0.6989008 0.52510464 0.52261305 0.5325665 0.5277444 0.582569 0.49926347 0.4878324 0.60990906 0.4741044 0.5706695 0.6035713 0.487754 0.5912801 0.62054455 0.6196952 0.59721076 0.6463332 0.6278331 0.43013445 0.4083057 0.44267273 0.4163563 0.41340253 0.49237442 0.50445443 0.51408046 0.5490021 0.55371106 0.6333235 0.55429196 0.5680786 0.58496636 0.5709829 0.29187852 0.2430386 0.37202713 0.3425613 0.39595616 0.42510366 0.3633386 0.45876276 0.5007717 0.41410172 0.50400364 0.48770028 0.3864814 0.48278648 0.5109569 0.52058107 0.18189281 0.1907517 0.38392603 0.4261021 0.23659791 0.46664903 0.49808055 0.34774077 0.46766326 0.43472484 0.44593945 0.15158497 0.19570711 0.101657405 0.11843464 0.442229 0.46875405 0.11771917 0.4849831 0.35593662 0.2015304 0.27125174 0.30093157 0.32521844 0.11835374 0.20377244 0.45753676 0.43728358 0.49059433 0.41004556 0.19974914 0.262442 0.49299788 0.40041894 0.32925522 0.22641143 0.3315406 0.272051 0.3465219 0.45764643 0.48614547 0.51639867 0.49767548 0.7356391 0.7046972 0.75493 0.709244 0.65644836 0.254996 0.29209343 0.31210324 0.8093315 0.7867275 0.72697973 0.123761065 0.68136716 0.22462662 0.21679148 0.19292252 0.11752078 0.5746912 0.46757716 0.65296173 0.56076664 0.6549975 0.60072684 0.39119744 0.5660969 0.5089084 0.348832 0.35415232 0.37798685 0.50402117 0.5229257 0.5130599 0.46598902 0.51272 0.53084326 0.6049702 0.755865 0.71866083 0.67789364 0.57599205 0.79594004 0.27241465 0.30846822 0.79144746 0.38337559 0.72134185 0.7478173 0.10396594 0.14441633 0.6531259 0.67209446 0.08796908 0.65801424 0.6455908 0.61099803 0.55654645 0.42207903 0.4017985 0.18460059 0.36780763 0.51968634 0.45203823 0.50061923 0.51749206 0.5132734 0.65312487 0.57348686 0.36925137 0.7359097 0.66992337 0.48772323 0.06714538 0.13053244 0.21261731 0.7721592 0.24747491 0.30607724 0.75478387 0.7636254 0.34958968 0.6415278 0.3599971 0.39772776 0.2357083 0.60007966 0.054844778 0.6208855 0.1934559 0.6356952 0.62185836 0.24890228 0.58110285 0.5131384 0.3842692 0.44291922 0.37436333 0.47571713 0.45150447 0.45573658 0.4635699 0.4698584 0.45945352 0.3646645 0.5357355 0.46950135 0.36767334 0.1961229 0.21305868 0.088930175 0.6666187 0.62795687 0.08600947 0.12882741 0.6510471 0.28411755 0.7257671 0.2971053 0.1682637 0.5377282 0.55136716 0.31197438 0.3885355 0.49328923 0.49950945 0.33041808 0.41121727 0.58659565 0.3783853 0.40889695 0.43921596 0.38279504 0.32001957 0.20589958 0.20110473 0.5377986 0.4580518 0.15235426 0.53466874 0.27162945 0.27823424 0.26687792 0.41593826 0.28461027 0.3926759 0.26026052 0.55153096 0.35270268 0.63356924 0.6467064 0.6094352 0.54855156 0.6277733 0.55900663 0.51411843 0.4988852 0.4951736 0.395804 0.36496437 0.42984372 0.35369384 0.20599094 0.2669821 0.36263114 0.32703882 0.30335513 -0.14450344 0.20196536 -0.11722255 0.36025313 0.11994435 0.4083212 0.16679733 0.29553244 0.36116356 0.44910914 0.5506015 0.6342451 0.6712976 0.6606231 0.6136522 0.63323855 0.66157603 0.6661712 0.62030375 0.56787586 0.5377567 0.47215992 0.5498509 0.47444743 0.51508963 0.4922621 0.4480738 0.46233764 0.4889511 0.36508384 0.37304032 0.50968945 0.4525837 0.23768339 -0.22451884 -0.11018802 0.4100575 0.23738623 -0.021098323 0.1818332 0.36273485 0.6250915 0.554302 0.6468257 0.62643456 0.6006957 0.6300013 0.6907552 0.69723463 0.62479293 0.5587491 0.5287769 0.46392363 0.5001956 0.5034869 0.54081666 0.5246191 0.44659913 0.53359663 0.30221885 0.462524 0.50021 0.42991543 0.4660558 0.086958915 0.20756295 0.3449301 -0.16024297 0.055062883 0.055858634 0.21265805 0.14095905 0.22530049 0.28939992 0.10906482 0.50637215 0.5581451 0.5686163 0.55185914 0.4979809 0.609184 0.59143674 0.6674713 0.6580542 0.56438386 0.49990934 0.47620213 0.32154155 0.5293507 0.55387926 0.47595114 0.49872178 0.47663212 0.48617476 0.52737415 0.5518227 0.54286623 0.3334421 0.5176611 0.21881032 0.4706577 0.33811486 0.120510146 0.18924049 0.0764204 -0.06265706 0.34128392 0.27926582 0.36261424 0.6561267 0.34761718 0.6323965 0.6694078 0.60630214 0.6723531 0.6907432 0.40161204 0.39409536 0.30755675 0.20746759 0.5554044 0.5714642 0.4527018 0.36474767 0.45684493 0.36032596 0.4544118 0.510308 0.35232848 0.53330946 0.49737898 0.5305283 0.5128385 0.43646103 0.45844132 0.23772636 0.31149006 0.03622845 0.48276937 0.43544856 0.4774969 0.40431106 0.39036375 0.25501975 0.55436015 0.19803895 0.08556764 -0.10998351 0.69094557 0.42908227 0.69814193 0.7397047 0.6483311 0.70502096 0.7272008 0.2758234 0.24235749 0.43935817 0.5801379 0.49433225 0.4381634 0.47063547 0.59521174 0.58494943 0.48450464 0.5609936 0.46517742 0.49908084 0.3312709 0.15208082 0.030552156 0.49161887 0.051021233 0.5258716 0.07990444 0.52957535 0.4691128 0.4882695 0.42193604 0.53907955 0.6290302 0.31441936 0.23972681 0.19963637 0.6911752 0.6699343 0.517543 0.74186635 0.6113908 0.7037656 0.8037366 0.24033803 0.26407647 0.589128 0.33863062 0.17291898 0.22319335 0.2399348 0.18203154 0.23072591 0.31394875 0.66445035 0.64255273 0.28537208 0.40239662 0.6583836 0.42732975 0.6224723 0.39197508 0.53652513 0.1540011 0.023776092 0.03716588 0.4883936 0.5461829 0.5488197 0.55159485 0.5633294 0.52525103 0.48863888 0.6040642 0.6463866 0.5100957 0.4830326 0.36177972 0.33684304 0.69402146 0.6750996 0.48506963 0.6184968 0.7886431 0.7324451 0.6771564 0.6290532 0.5703386 0.44986814 0.25601867 0.20326634 0.19217497 0.6781914 0.64501595 0.19581874 0.21342829 0.7134166 0.29073498 0.6691793 0.3574901 0.5538492 0.22407645 0.29579902 0.10293943 0.19311485 0.4632008 -0.013128169 0.55720204 0.5925534 0.4756472 0.5239966 0.5936314 0.58082277 0.6142585 0.54305756 0.45941353 0.3779952 0.6320682 0.65535396 0.6933108 0.21907665 0.67770797 0.7518731 0.72616667 0.6082186 0.5639602 0.2524587 0.26712006 0.23277809 0.6783309 0.6340822 0.56624126 0.25544652 0.19760074 0.19907306 0.22916584 0.7062367 0.2686166 0.6523822 0.30774707 0.24052197 0.173362 -0.08101319 0.37836793 -0.14482528 0.54068905 0.5516577 0.5953033 0.59389377 0.5914023 0.5732372 0.545935 0.50661325 0.13072777 0.25075686 0.62930566 0.49961567 0.3541385 0.25830734 0.24121681 0.2491145 0.2507934 0.58748585 0.49932545 0.2387907 0.5813033 0.5190444 0.42091691 -0.028625652 -0.11677892 0.5394801 0.2703322 0.5825623 0.5314412 0.44223398 0.18139647 0.113948956 0.5846821 0.5743109 0.51644784 0.30924445 0.32210344 0.27416492 0.33487308 0.23352218 0.5015064 0.46065074 0.3474711 0.26804465 0.23152512 0.22385071 0.4573017 0.42446986 0.35528848 0.13401434 0.3085685 0.2577332 0.041908845 0.1877644 0.23674065 0.19922256 0.060059033 0.024774686 0.24012546 0.36021224 0.5043451 0.5004574 0.5294696 0.25889352 0.26247498 0.17872502 0.27558342 0.26900482 0.2583201 0.17686695 0.27149114 0.3693982 0.2281308 0.22438377 0.27106526 0.13002844 0.19036457 0.19303806 0.16737556 0.36618292 0.4963255 0.6522608 0.48783943 0.41364986 0.58237123 0.5000835 0.36813557 0.47023472 0.25831336 0.22464147 0.1458632 0.40638176 0.27503762 0.27072075 0.26108015 0.2268728 0.37379825 0.26924145 0.26332003 0.23546216 0.13884772 0.108961254 0.08476116 0.26847672 0.23609355 0.37588936 0.39628628 0.49533355 0.55870986 0.32753277 0.544208 0.6467538 0.6270659 0.5395149 0.4350378 0.62408084 0.60247564 0.55316985 0.5380832 0.59597427 0.45296112 0.53912324 0.5150461 0.47079813 0.47987193 0.25821522 0.40233612 0.422555 0.00032110512 0.20665449 -0.049269475 0.06577969 0.0031846985 0.11264537 0.3967926 0.5026653 0.5669016 0.56980383 0.62725127 0.61980623 0.5162717 0.45146227 0.5172434 0.5498934 0.5786101 0.51708376 0.54612386 0.5988577 0.6189324 0.59910417 0.46338063 0.49207273 0.5691085 0.52417374 0.37041217 0.5000613 0.45753407 0.3834882 0.12404232 -0.018029213 0.04640764 -0.0071917847 0.058137476 0.32110608 0.45770848 0.43439043 0.40344048 0.5686195 0.5410373 0.40560952 0.49792928 0.5454333 0.56010175 0.57999015 0.52837527 0.55201024 0.55421484 0.59827554 0.60667574 0.6130022 0.58890355 0.4141786 0.4806735 0.55303687 0.3570566 0.46865624 0.26394317 0.27985033 0.36470306 0.20506097 0.19267495 0.18604079 0.105385765 0.081819355 0.19711503 0.24449608 0.27080515 0.33997852 0.24953803 0.3184969 0.5046467 0.4977088 0.5118015 0.56374395 0.57774687 0.54126 0.5532421 0.55785346 0.57844526 0.5987722 0.60425967 0.39729315 0.55514836 0.3276595 0.22100314 0.24853694 0.16737688 0.1915617 0.1700041 0.12561217 0.13213094 0.10983704 0.2141977 0.24889857 0.16146916 0.30828294 0.27559617 0.5689932 0.52049446 0.5386275 0.5585967 0.5720439 0.55738413 0.5576792 0.08560549 0.25735152 0.22530034 0.19211665 0.2278847 0.16877115 0.18128593 0.19341795 0.091349445 0.22768615 0.23506492 0.26332784 0.26886654 0.45286036 0.3604779 0.26279402 0.14140925 0.23187673 0.27656028 0.2711923 0.03315063 0.26858675 -0.10208074 0.22922966 -0.005875483 0.18675862 0.027747221 0.1507208 0.18286425 0.4018857 0.40864238 0.38810223 0.20870584 0.22528619 0.30361655 0.299087 0.29965848 0.7244687 0.7680015 0.19069439 0.29217988 0.7986098 0.8358277 0.84415615 0.80405474 0.10731285 0.09268871 0.28399286 0.84152603 0.87065375 0.85585487 0.1407283 0.54929435 0.11725114 -0.14189377 0.30255786 0.58318555 0.69781137 0.70018274 0.6782185 0.61634666 0.58565515 0.5404973 0.51818216 0.49842548 0.46200168 0.45773143 0.4571684 0.47352648 0.44164386 0.5121706 0.32925752 0.37567076 0.3300662 0.28987855 0.47238567 0.4272241 0.29102594 0.2842593 0.25516 0.39985403 0.27675343 0.5206383 0.4844466 0.39497316 0.17471576 0.29111055 0.28968707 0.67012703 0.6403184 0.5270598 0.47516865 0.3986088 0.101484686 0.28342974 0.6581415 0.734137 0.708901 0.044559672 0.25325847 0.7957449 0.7912623 0.7026795 0.20862533 0.72827935 0.7769152 0.7407067 0.43365723 0.4841825 0.50996506 0.5576328 0.5761318 0.5636955 0.5410592 0.32439888 0.49896833 0.48210865 0.55375546 0.612751 0.6041753 0.72867787 0.7603527 0.76282024 0.7659236 0.7539428 0.7021848 0.7487879 0.7488711 0.7099908 0.65743697 0.52657545 0.71819305 0.62083745 0.48089188 0.5753764 0.51752543 0.42778325 0.36452627 0.43677163 0.36791587 0.3222572 0.6034911 0.33429262 0.41236675 0.42940933 0.35250965 0.30577517 0.63702583 0.6056993 0.49652675 0.26682925 0.2716333 0.2623881 0.6105738 0.59750587 0.54854524 0.41834563 0.23942441 0.19541219 0.2599519 0.29272082 0.12099897 0.15788114 0.49797398 0.17850879 0.20931914 0.3234328 0.3729816 0.38302258 0.52855146 0.52033234 0.4546661 0.3538341 0.08395593 0.27870136 0.35237175 0.41280448 0.41745868 0.20960027 0.36307466 0.38943708 0.3811767 0.53341526 0.52942604 0.3478823 0.30560055 0.34743583 0.52471817 0.53047174 0.32816386 0.40097895 0.49912056 0.47775576 0.50447655 0.51627856 0.40230793 0.6085633 0.64483404 0.64601177 0.6247026 0.6032934 0.36665046 0.4486753 0.24254106 0.610821 0.5970798 0.60050964 0.5144563 0.47537792 0.5650549 0.5752055 0.5628018 0.4972474 0.42064917 0.5195674 0.56902754 0.5700972 0.5460936 0.52712935 0.534197 0.5662935 0.5797154 0.6914152 0.62265205 0.71956384 0.83317983 0.8405072 0.801822 0.5823614 0.60467494 0.5849957 0.48522854 0.51082003 0.5263294 0.5500572 0.4795719 0.3881485 0.75853586 0.75117993 0.41131848 0.47521606 0.43152255 0.35459852 0.7467345 0.7587662 0.73963106 0.52150637 0.37534595 0.33567587 0.31133664 0.19918722 0.718421 0.74160665 0.5873707 0.1859608 0.68245023 0.35407215 0.20841995 0.22314066 0.6254532 0.299419 0.23978238 0.2433087 0.26887083 0.2514857 0.17102769 0.6523957 0.645069 0.58761144 0.17806792 0.15231566 0.6395232 0.6482091 0.22891442 0.2229902 0.21054327 0.6190767 0.34809405 0.15113422 0.07259247 0.06426772 0.09068781 0.089826256 0.55095506 0.2773939 0.49977982 0.50231445 0.11009477 0.14650072 0.4596938 0.49905312 0.52172244 0.5158886 0.32244158 0.5187403 0.5012796 0.4183482 0.31590122 0.29543686 0.49658787 0.5086781 0.49663007 0.3668651 0.1728554 0.18628931 0.4752555 0.40979138 0.36076283 0.38678533 0.45651618 0.33070743 0.39471447 0.52202463 0.54676616 0.47549134 0.17303936 0.33002797 0.553445 0.5635068 0.53500444 0.53342456 0.6354892 0.52942044 0.6587521 0.55595315 0.53608215 0.54672796 0.29023105 0.4328276 0.6394227 0.5543833 0.726657 0.6729714 0.61865944 0.7644911 0.8660413 0.84156287 0.7910743 0.24735677 0.56236637 0.5696618 0.53923404 0.5070528 0.22111225 0.24709561 0.25414792 0.57084984 0.35832146 0.20293237 0.24782245 0.25938395 0.39572895 0.5353613 0.23844926 0.17666398 0.23474228 0.28837335 0.39816946 0.73599374 0.73184896 0.6951329 0.403999 0.19806595 0.30418363 0.40654504 0.70212555 0.65273225 0.49900004 0.37147278 0.10599424 0.06539012 0.10262475 0.2675756 0.3387081 0.6829045 0.29322612 0.19375889 0.15107147 0.092769235 0.046241626 0.2101185 0.31346023 0.5549792 0.17640364 -0.15752552 0.20486133 0.30595946 0.16561598 0.2023853 0.18365304 0.25622183 0.075953856 0.11584777 0.17000473 0.1994099 0.6167388 0.5635649 0.4416871 0.26262292 0.14624739 0.01462166 0.25792763 0.60734653 0.63862395 0.17166466 0.19803299 0.08193214 0.049596198 0.06356334 0.158692 0.23012868 0.3989038 0.55282295 0.57671463 -0.003096575 0.13748422 0.17042969 0.18966012 0.078111224 0.03578373 0.10446748 0.54363596 0.12878478 0.21059726 0.4682864 0.5698538 0.6200174 0.51595235 0.25182438 0.14923437 0.3737929 0.56622803 0.5953581 0.21456423 0.21695152 0.44678867 0.56608486 0.35203162 0.3633063 0.5291121 0.30717194 0.081324294 0.01633473 0.35326552 0.25949007 0.59086835 0.45717767 0.39928588 0.2611729 0.6708982 0.45604005 0.46996057 0.42331225 0.031585127 0.7059121 0.4508162 0.44276983 0.7178105 0.5895255 0.62485385 0.75840425 0.71202207 0.8039324 0.8062474 0.78815347 0.7305714 0.69511163 0.5847898 0.70258987 0.7435011 0.7734246 0.63651425 0.49193525 0.6790769 0.7125667 0.7767186 0.5629594 0.5004364 0.67012143 0.4937572 0.39616787 0.5948019 0.18191373 0.1897349 0.16643034 0.19166318 0.2811255 0.28010297 0.23017213 0.22449908 0.20965372 0.23823532 0.24178764 0.2394749 0.2156296 0.50481033 0.4863562 0.46579474 0.19620879 0.25395203 0.23684955 0.29108056 0.51744384 0.37381446 0.39702475 0.45989576 0.3345124 0.4777952 0.64814675 0.32646292 0.35918903 0.45322785 0.553143 0.22400513 0.118386306 0.3158431 0.11756423 0.0058482923 0.14563228 0.30288687 0.3818404 0.42772943 -0.030893743 0.2831272 0.15092987 0.13614188 0.11212741 0.021014422 0.5796777 0.52020603 0.09908818 -0.08324544 0.36354905 0.54291993 0.49758318 0.010653164 -0.016040407 -0.14964223 -0.02861391 0.47080082 0.3666579 0.48237067 0.05314681 0.2700966 0.5138875 0.49233449 -0.012263406 0.28313598 0.191572 0.53640676 0.6312045 0.66953015 0.49885613 -0.03214668 0.66035724 0.6455003 0.44858178 0.12623778 0.1145984 0.2451674 0.63012516 0.37262082 0.06565928 0.11512614 0.2633707 0.24528748 0.5871119 0.26471356 0.25751048 0.07149137 0.01404345 0.24706382 -0.047744013 0.41698354 0.18894282 0.21940401 0.28523403 0.26312327 0.09888938 0.17656013 0.53391993 0.6003239 0.37522164 0.31555283 0.12096415 0.5627441 0.6623329 0.5940155 0.6158414 0.6495563 0.71411335 0.6597849 0.65809655 0.7146013 0.74440396 0.7340088 0.7592156 0.6318282 0.51472914 0.4198759 0.32705802 0.6857431 0.7153655 0.63067317 0.5093887 0.41266644 0.67809117 0.41349974 0.62466574 0.6433411 0.3364216 0.2675066 0.2205356 0.2998584 0.3412239 0.5758062 0.6053128 0.16815136 0.128823 0.1872023 0.32829916 0.38631728 0.41232145 0.5871752 0.5615201 0.39128217 0.024291359 0.010492498 0.10349008 0.13903761 0.19697282 0.30854774 0.376669 0.41028476 0.13313882 0.17163761 0.17728797 0.190965 0.37397635 0.16612959 0.17200081 0.075213835 0.17405859 0.5461098 0.5631141 0.4637673 0.35871518 -0.03433223 0.25714967 0.13712841 0.50308245 0.35236865 0.23037666 0.27780083 0.3610409 0.45299122 0.51733553 0.18500093 0.40335712 0.45165098 0.24725744 0.18866894 -0.012186445 0.52711844 0.13336919 0.2546476 0.5668522 0.4840011 0.5602409 0.4287703 0.02372773 0.20331058 0.34516826 0.45254707 0.48200983 -0.19410828 0.31966543 0.47797757 0.44297066 0.45497063 0.28200668 0.4429992 0.4182306 0.43441406 0.29915357 0.038276736 0.070862174 0.19210716 0.30963227 0.40070415 0.15865996 0.17126328 0.38732564 0.57127714 0.63052857 0.66357803 0.41775724 -0.13844448 -0.11530373 0.14418136 0.6171363 0.6480993 0.28473762 -0.017488107 -0.13117819 0.012608327 0.12814248 0.62424487 0.10278709 0.033604443 0.42090034 0.56788707 0.19054757 0.24265485 0.25283426 0.3506996 0.29973012 0.13883084 0.06576169 -0.00586766 0.14020395 0.12043175 0.03521518 0.2846824 0.34218216 0.24111275 0.17577623 0.038036987 0.16583215 0.17095871 0.52015054 0.2820785 0.16121322 0.06404561 0.08803689 -0.010428708 0.3387419 0.5270951 0.48521507 0.38421503 0.24509175 0.14890307 0.26417086 0.230914 0.43272376 0.5131508 0.45331776 0.38038298 0.3416059 0.29439682 0.25216883 0.24502295 0.21464434 0.4258377 0.24011317 0.19347984 0.6487064 0.20038982 0.58979744 0.06752241 0.12607405 0.17550504 0.23015252 0.53808045 0.04383065 0.035442457 0.17045584 0.37253416 0.3867768 0.52536374 0.41551024 0.43334094 0.4987288 0.49574018 0.41440675 0.442276 0.29225773 0.41774958 0.44802302 0.26658097 0.5909603 0.6182362 0.58729935 0.10533664 0.49432522 0.54862773 0.49064356 0.36672416 0.1578989 -0.08658404 0.45066 0.225967 0.099541254 0.049730286 0.37656975 0.12952605 -0.2070972 0.4050737 0.474514 0.5369555 0.032661773 0.5669651 -0.10700663 0.5606466 0.51723313 0.053321026 0.48914224 0.0573151 0.40452954 -0.06424807 -0.3909917 0.33776236 0.3898898 0.43048072 0.4148408 0.23217481 0.38086152 -0.42743376 0.31531984 0.2940972 -0.043390926 0.10205255 0.39465243 0.51019496 0.5780503 0.6090623 0.1366303 0.16749685 0.19407572 0.45590317 0.5474228 0.59135604 -0.14959055 0.29875308 0.32973796 0.5279673 0.5316422 0.26391545 0.39212796 0.16588214 0.5578305 0.5405511 -0.03541644 0.2536447 0.27437603 0.28627115 0.35027462 0.3202175 0.24770844 0.25571734 0.3881694 0.56878066 0.54722404 0.113192745 -0.029112093 0.3154857 0.3135416 0.3354395 0.33270574 0.27657124 0.22985394 -0.064566314 0.08783212 0.6081944 0.54321516 0.18595077 0.1767702 0.35844105 0.35169774 0.32379627 0.2964981 0.4188453 0.50087285 0.53442204 0.6566534 0.5719985 0.5056087 0.40729225 0.29729638 0.26596642 0.70603716 0.64333105 0.543301 0.42881507 0.62595695 0.30453002 0.30304313 0.2987876 0.2750859 0.30752337 0.30490988 0.2891345 0.25760525 0.37125432 0.26637632 0.24794842 0.32397825 0.085585535 0.24085584 0.31686446 0.50587463 0.0710275 -0.021795701 0.051660724 0.22196028 0.29500243 0.27472752 0.32708532 0.22167772 0.3463984 0.39673012 0.42556876 0.4678201 0.4678493 0.4992371 0.26251107 0.48096162 0.49417382 0.6836102 0.7253065 0.7010238 0.5837178 0.42019373 0.46120942 0.52500415 0.5976647 0.35149798 0.1440163 -0.26318496 -0.3187284 0.26080844 0.5072335 0.06514225 0.13904272 0.31613034 0.2748301 0.28782445 0.38818675 -0.00934118 0.043911435 0.52510285 0.5358166 0.4811196 0.35872227 0.047356106 0.42302644 0.01496233 0.024073161 0.47362012 0.006236851 0.3334025 0.3164503 -0.13088383 -0.09014645 0.31478998 0.38304928 -0.15190074 0.34576178 0.3528379 -0.6244754 0.28037167 -0.1405291 0.14251606 -0.031876173 0.0886487 0.5371293 0.48598146 0.32892254 0.5391727 0.24870098 0.17192067 0.3740797 0.34429407 -0.029859766 0.47437 0.5154504 0.5779716 0.5741637 0.025226386 0.1414039 0.31936416 0.30615798 0.2293362 0.016137287 0.09695666 0.33809614 0.58339936 0.6884455 0.15695637 0.33775282 0.40343598 0.42419952 0.3768225 0.5148722 0.5728096 0.58390915 0.771081 0.28891695 0.17587477 0.797107 0.78744256 0.46137857 0.32625234 0.80311203 0.793062 0.73744094 0.65960056 0.5267028 0.4011811 0.29947788 0.44503844 0.48526865 0.41002733 0.3401507 0.27648884 0.27550077 0.21631664 0.31949776 0.41841823 0.53399867 0.50406575 0.40649098 0.25631082 0.06785433 0.14615119 0.24908566 0.33003518 0.41883767 0.18686943 0.164