# vtk DataFile Version 2.0
Really cool data
ASCII
DATASET POLYDATA
POINTS 7149 float
42.13378 0.9424696 52.856564
42.03708 0.70015854 53.59302
42.050552 0.81826764 54.248524
42.238342 1.1121198 55.535614
41.97165 1.655319 52.62427
41.722004 1.6970991 53.532055
41.7271 1.7934153 54.184273
41.905117 1.6455348 55.42772
42.190113 1.6471995 56.228893
42.190544 2.155973 52.304935
41.95686 2.3607183 52.66126
41.634125 2.0598876 53.393875
41.62078 2.520161 54.55001
41.634388 2.56536 55.422623
41.840973 2.7620978 56.228264
42.216457 2.9750416 52.926662
41.98645 3.0585861 53.500164
41.68502 3.412026 54.822678
41.71784 3.393022 55.689148
41.902313 3.2797399 56.16169
42.246265 3.8940084 54.28786
42.086105 4.0899925 55.323162
42.27138 4.0738115 56.060112
42.908333 0.2615713 52.7725
42.913372 0.015383065 53.334293
42.869377 -0.024824202 54.170147
43.022038 0.37770677 55.328876
42.968052 0.97296345 52.081074
42.59005 0.6839595 52.574936
42.45446 0.39312467 54.72048
42.63648 0.8154743 55.29878
42.839798 1.5752627 51.95008
42.5983 1.6822301 56.73768
42.616615 2.3840759 52.131004
42.38659 2.6771538 52.403717
42.6939 2.4897506 56.977528
42.711407 2.7709503 52.22605
42.642044 3.0256038 52.552174
42.391758 3.7114086 56.555664
42.589546 3.2828383 56.885437
42.92378 4.160799 54.12636
42.310593 4.1843786 54.94769
42.35428 4.2987633 55.298405
42.76772 4.112583 56.36228
44.39124 -2.6491241 54.137226
44.33915 -2.7706816 54.44173
44.30705 -2.6114984 55.173267
44.242535 -1.8621362 54.519478
43.68613 0.0206891 52.868084
43.54099 -0.12733021 53.428333
44.03677 0.30226412 55.929394
43.532375 0.824685 52.028305
43.596546 0.5690115 55.95303
43.5626 1.461996 51.759212
43.283646 1.5356877 56.937325
43.507473 2.3297753 51.907433
43.388943 2.8483076 52.164883
43.85284 3.3438563 52.691975
43.408833 3.6247556 57.124523
43.498028 3.8454316 53.211338
43.81002 4.3780265 54.507103
43.553444 4.5207906 55.38057
44.260242 8.699825 52.89317
44.1077 8.751156 53.527023
44.258545 8.753753 54.168537
44.295166 9.292799 52.897663
44.196842 9.4402485 53.5142
44.191956 9.271506 54.02434
44.38084 9.864696 53.582993
44.374092 9.859453 54.09895
45.04808 -4.084668 54.68743
44.943428 -4.300626 55.663918
44.953743 -4.1329393 56.331547
45.201458 -4.0525017 56.926113
44.912476 -3.1096065 53.834564
44.581684 -3.3714337 54.585995
44.540535 -3.2869096 55.77666
44.72288 -3.6068401 56.361214
44.946384 -3.4355278 56.932083
44.812267 -2.7070396 53.72708
44.6272 -2.5682952 56.32069
45.368248 -2.329337 57.275307
45.027576 -1.9465709 53.592762
45.267273 -1.9496481 56.842934
44.43294 0.17831913 52.899803
44.23177 -0.36940268 54.0855
44.749916 -0.6598716 56.101044
45.356308 0.2031762 61.100018
44.308594 1.1159105 51.87598
44.549454 0.34467548 56.382164
45.395096 0.26810068 58.508213
45.105717 0.8951205 60.540615
45.14333 0.5266055 61.32168
45.135597 1.0005304 62.18783
44.30496 1.4110242 51.812996
45.058937 1.5294974 60.914185
44.99445 1.3781229 61.54084
45.24729 1.3472134 62.366917
44.309326 2.711616 52.145596
45.174656 2.1017902 61.420395
45.37811 1.9827969 62.33753
44.50757 3.5445108 52.69881
44.58624 4.7187824 54.018738
45.10647 4.999056 55.453316
44.43253 8.092508 53.29564
45.156082 8.062513 54.984524
44.981514 8.828945 52.375458
44.655773 8.578835 52.62845
44.666378 8.322366 54.44581
44.95343 8.953863 55.215393
45.047943 9.1944895 52.300163
44.646843 9.466011 52.692192
44.8951 9.486194 55.221657
45.275215 9.56388 55.671116
44.863827 10.068472 52.929432
44.711205 10.225177 53.340603
44.740818 10.2760105 54.396294
45.111294 10.313215 55.28032
45.123592 10.869646 53.74123
45.210827 10.87983 54.34625
45.18541 10.75217 54.97168
46.46313 -11.072435 70.637024
46.470055 -10.4740095 70.719025
45.68007 -4.7463403 54.867332
45.60482 -4.839898 55.42821
45.84207 -4.918616 56.35204
45.88262 -4.699136 57.0217
45.78482 -4.1944923 54.118073
45.43086 -4.404034 54.58023
45.32988 -4.517065 56.70078
45.90964 -4.2920356 57.380882
45.5975 -3.2780716 53.591965
45.60065 -3.6197832 57.51365
46.10071 -3.727203 57.869267
45.35543 -2.3530648 53.466537
45.69029 -2.4647336 57.539665
45.623325 -1.7942556 57.736465
45.81993 -1.6201721 58.19001
45.956642 -0.9810156 59.638023
46.03515 -0.9561018 60.481316
45.724667 -0.67809683 59.25158
45.475277 -0.24506043 60.043755
45.60754 -0.10588771 61.357414
45.836216 -0.03858885 62.256046
46.19477 0.12834278 62.845528
45.52922 0.15689579 59.925175
45.577084 0.6180165 62.54195
45.98477 0.71059835 63.012302
45.648556 1.7028346 59.596313
45.46803 1.4040282 62.6243
45.828587 1.4254693 62.993713
44.870956 1.9655725 52.103886
46.240128 2.4484048 59.84622
45.686306 2.3604023 60.497578
45.465145 2.3921022 61.583485
45.843143 2.4599137 62.38392
45.92971 2.048978 62.914677
46.319973 2.6616073 59.60959
46.126453 2.79308 60.804993
46.10444 2.862937 62.335693
46.3078 5.8273444 53.397163
45.74116 5.718167 56.637466
45.800446 5.0927634 57.22673
46.066174 6.636566 53.780758
46.054 6.630759 55.234093
45.923782 6.077208 56.37994
46.11331 7.6889186 52.405537
45.398125 7.9090786 52.543743
45.242973 7.5595565 53.258274
45.495804 7.5682874 54.493427
45.890636 8.173717 55.398983
46.364788 7.470812 55.84541
45.658432 8.507419 52.211426
45.39075 8.997992 55.62118
45.96154 8.547898 55.799076
45.45261 9.310839 52.293907
45.671047 9.708967 55.867966
45.636215 9.911334 52.340134
45.613106 10.208351 52.555885
45.502087 10.555311 55.550697
45.660873 10.28995 55.773808
45.719276 10.967494 53.017193
45.736866 11.281865 53.596954
45.64905 11.249228 54.38035
45.669556 10.838923 55.25563
47.308514 -12.017954 69.003624
47.037216 -12.083744 69.631096
46.982 -12.1593 70.26691
46.952698 -11.822151 71.024605
46.96301 -11.668363 69.25221
46.711063 -11.439441 69.69558
46.5305 -11.268119 70.47595
46.73869 -11.3162565 71.12534
47.19187 -11.1327 71.74915
47.202335 -10.664757 68.90064
46.575592 -10.651952 69.874825
46.55531 -10.417792 70.61648
46.756767 -10.502548 71.19196
46.83341 -10.055789 69.82766
46.879593 -9.846237 70.49203
46.69581 -10.090717 70.97996
47.106224 -5.8257556 56.973118
47.192223 -6.1267676 57.65633
47.05305 -5.971264 58.230385
46.42622 -4.949824 54.681828
46.20755 -5.154907 55.70638
47.138756 -5.625694 56.829506
46.844288 -5.4483647 58.381233
46.446785 -4.158122 53.84659
46.6281 -4.8583 58.197933
46.820602 -2.9328413 53.45671
46.333965 -3.8075645 57.674953
46.58152 -0.90646017 61.285603
46.660286 -0.68398726 62.069168
46.76009 -0.3799306 62.546783
46.622208 0.011617452 62.94092
47.298542 0.56889415 52.212765
46.61597 0.6562365 63.257877
47.092148 1.8282865 52.058628
46.624126 1.3216683 63.36846
46.578117 2.305591 63.147636
47.244717 3.0109081 51.943676
46.465557 3.557786 52.8669
46.973362 3.3032415 58.84205
46.966877 3.2050333 60.064045
46.577305 2.9411027 62.526196
46.591118 2.7349033 62.862724
46.30449 4.7732806 53.258514
46.645798 4.146269 57.81931
46.463833 5.660167 57.323784
46.816162 6.5159535 56.99154
46.620953 7.683571 52.181858
47.04954 8.200473 56.4222
46.95654 9.680903 52.117268
46.630108 9.58427 56.1567
46.58645 10.279369 52.269608
46.265297 10.553683 52.45934
46.590244 10.353664 55.962727
46.555035 11.245583 52.885475
46.252384 11.47637 53.536667
46.70896 11.438871 54.52925
46.252182 10.80373 55.627617
46.20116 10.753719 55.73717
46.701485 11.58835 53.396957
46.430874 11.583664 54.297237
47.991177 -12.980233 69.72432
48.037193 -13.132824 70.40727
48.25375 -13.265209 71.06364
48.279808 -12.011988 66.84345
48.344402 -12.381864 67.080315
47.691517 -12.176184 68.8049
47.432068 -12.504385 69.56497
47.58806 -12.328269 71.23994
48.337326 -11.321238 66.15845
48.255287 -11.576946 66.68316
48.0603 -11.74496 67.439384
47.900574 -11.282598 72.383675
48.40724 -10.992186 66.08715
48.294235 -10.875461 66.515976
47.444843 -10.882792 72.010925
48.282326 -11.013674 72.70075
47.917797 -10.036484 68.519424
47.313072 -9.463664 70.38237
47.608807 -9.825659 71.50282
48.0857 -9.33259 69.30547
47.63625 -9.266456 70.43934
47.904285 -9.305329 70.88813
47.862717 -6.901877 57.967804
48.04194 -6.9841037 58.47214
48.144646 -6.8877864 58.827362
47.674995 -6.3252096 56.9791
47.44587 -6.4821377 57.94401
47.637554 -6.6182017 58.744686
47.788143 -6.3532467 59.306824
48.015087 -5.913095 60.150425
47.193264 -5.3326573 55.301563
47.55835 -5.4288197 59.729767
47.905773 -5.305042 60.565388
48.145214 -5.355968 60.892895
47.17755 -4.1776867 53.88819
47.750553 -4.6042533 60.625668
48.055706 -4.811081 60.968487
47.619846 -3.7633648 53.705494
47.963963 -3.892172 60.087414
48.11726 -4.205406 60.898872
47.732788 -1.695551 60.657173
47.89078 -1.246246 52.619076
47.514606 -1.496 60.892933
47.488914 -0.75863016 61.789806
47.696865 -0.645292 52.131607
47.6375 -0.09215176 62.776676
48.105206 0.30503985 51.3703
47.89576 0.6095765 51.581062
47.514214 0.7207048 63.310463
48.10633 1.5737437 51.217247
47.182995 1.2537683 63.39414
48.126377 2.4823816 51.274723
47.733505 2.410003 51.499977
47.24572 2.4501169 63.133743
47.728436 3.4888895 51.941998
47.4074 3.3232155 61.41782
47.33872 3.074523 62.39341
47.24399 2.8231893 62.855045
47.897736 3.844582 51.996204
48.07557 4.4453297 59.26912
48.32242 4.4525743 59.975044
47.475864 5.212443 52.542328
48.22531 5.344663 59.19272
47.76691 6.4480186 52.265285
47.43467 6.290353 52.449924
47.364418 6.129217 57.473625
47.677048 6.2773733 57.829967
48.369125 5.870159 58.94907
47.50891 7.4879313 51.848003
47.382042 8.402954 51.8289
47.234516 8.398781 56.543533
47.77248 9.652382 51.879227
47.449 9.458592 56.37385
47.19673 10.500712 52.125565
47.25618 10.281926 56.02772
48.123524 11.645643 52.33409
47.411896 11.540152 54.51709
47.86408 11.099291 55.40717
47.783756 11.804759 52.86331
47.742832 11.906957 53.886406
49.3122 -16.013966 59.12672
49.251625 -16.06403 59.635124
49.24957 -15.917318 60.06294
49.267532 -15.443654 58.965687
49.121655 -15.627281 59.5221
49.19657 -15.493994 60.215458
49.021828 -14.381749 59.458553
49.054707 -14.186522 60.33156
48.77735 -13.682669 69.830734
48.890335 -13.809188 70.39159
49.110752 -13.801306 71.58736
49.27267 -13.711012 58.78484
48.924244 -13.513199 59.763992
[...]
POINT_DATA 7149
SCALARS features_00 float 1
LOOKUP_TABLE default
0.8138679 0.7544093 0.6645056 0.5118357 0.7862969 0.77714175 0.7200383 0.62208605 0.58659256 0.72907597 0.726706 0.7653692 0.7290573 0.71551776 0.6961871 0.6607178 0.7003079 0.7045668 0.6906593 0.68214345 0.6345061 0.66035926 0.65790737 0.7228105 0.66708136 0.5858787 0.41172418 0.7832391 0.7869586 0.54336596 0.46280476 0.7572001 0.56678826 0.690959 0.67718494 0.6704861 0.650081 0.623037 0.6601763 0.6568658 0.54606426 0.62745804 0.62851965 0.6212568 0.5339564 0.55865425 0.5719847 0.40027395 0.6465145 0.59054965 0.2343685 0.7570103 0.3107311 0.7372259 0.45396218 0.658556 0.6113181 0.5326877 0.57011265 0.52957714 0.45902526 0.49088335 0.7937249 0.85082567 0.8297719 0.79106975 0.82861227 0.8349844 0.80843204 0.8089714 0.6259524 0.5884858 0.48192197 0.38208374 0.5594272 0.6099572 0.5742459 0.4626779 0.36099923 0.5310249 0.3893808 0.22378848 0.40204242 0.18542701 0.5991335 0.38185108 -0.037415694 0.5626303 0.72203684 0.05718665 0.07475205 0.5721903 0.63080734 0.7341113 0.70735097 0.6694486 0.71378064 0.7512733 0.56770164 0.70353514 0.7523724 0.42069772 0.35456672 0.23338707 0.826611 0.49758506 0.68138033 0.73783946 0.724699 0.6122459 0.66885734 0.7493291 0.6828574 0.60826564 0.7373456 0.7712513 0.7712654 0.70229536 0.74058384 0.7230767 0.70825636 0.698392 0.7086755 0.5776781 0.54185283 0.39700544 0.32500258 0.56430817 0.6041479 0.40739715 0.30903715 0.5250954 0.31011695 0.26469463 0.46830875 0.21931313 0.06840963 -0.010332119 0.20835453 0.41510534 0.13773529 0.3545129 0.5774694 0.6781019 0.7075166 0.36815298 0.73548734 0.7493551 0.49280947 0.7614127 0.76830465 0.5613612 0.3667519 0.5369484 0.7000271 0.73943996 0.76267827 0.29117227 0.5081594 0.6974659 0.13333601 0.043436453 0.09834614 0.47721982 0.1658096 0.0020484924 0.41877097 0.5941708 0.67644095 0.5310149 0.41164902 0.18976837 0.5487255 0.5387107 0.4418667 0.6047153 0.57996297 0.6001742 0.6257967 0.66808486 0.63169026 0.6544139 0.6810326 0.68464017 0.6689029 0.41773945 0.5503665 0.60755956 0.6657231 0.54558414 0.6482529 0.6901811 0.68979263 0.67470676 0.6154809 0.6932595 0.710116 0.7003683 0.69972396 0.6947539 0.6980805 0.26089478 0.31051174 0.31797868 0.5203201 0.4341684 0.25500306 0.2729489 0.47446024 0.23257452 0.29619685 0.2680674 0.49616337 0.54775333 0.59725505 0.676545 0.34660816 0.7334512 0.27466792 0.7648591 0.7334994 0.20943305 -0.07177392 -0.08813612 0.20684701 0.6580555 0.69488037 -0.102186665 -0.040485326 0.070052005 -0.00713668 0.30071384 0.28869227 0.38054362 0.47838095 0.4749551 0.53708184 0.51972365 0.5239991 0.61328804 0.6031662 0.60331964 0.6007362 0.54398495 0.61824596 0.4330786 0.4869151 0.5111556 0.35742706 0.32907766 0.34132215 0.46089292 0.6151036 0.41404688 0.37109923 0.3069488 0.56988305 0.417613 0.3678311 0.6607028 0.52448046 0.55459154 0.66069174 0.6826016 0.5307006 0.6343185 0.6184399 0.33342123 0.36655986 0.3950994 0.2549581 0.33331478 0.38386196 0.43823624 0.5265573 0.35854346 0.46812838 0.56187016 0.5899954 0.32952002 0.5643325 0.5991138 0.1777441 0.51803875 0.5971731 0.26454034 0.24164602 0.33227128 0.41505128 0.35242087 0.5706824 0.40987867 0.39864773 0.6824238 0.39574775 0.73550826 0.3508342 0.321092 0.6597241 0.21413693 0.45040697 0.56261754 0.6144972 0.18615097 0.14700139 0.2523432 0.042107493 0.27979448 0.19917044 0.19263256 0.033858202 0.12352451 0.3211916 0.1970355 0.2650767 0.3128067 0.22654814 0.36535203 0.3751181 0.42539424 0.28772673 0.5400348 0.46966463 0.36813632 0.46267116 0.82418084 0.8673415 0.8718531 0.7593037 0.8275883 0.8487898 0.732558 0.7483566 0.4529389 0.49164775 0.53053284 0.5884894 0.671872 0.66846573 0.61695194 0.35245603 0.30575073 0.3662213 0.3777238 0.5233041 0.5211128 0.55616254 0.6212505 0.6298105 0.4342992 0.36477914 0.4345703 0.40100908 0.47962165 0.51850975 0.45975018 0.49675778 0.56374437 0.56196153 0.40969923 0.57090086 0.55300057 0.5125196 0.28251043 0.31629547 0.36332896 0.35561296 0.5011579 0.5436271 0.59446573 0.5104054 0.5557107 0.16923839 0.6146372 0.5537753 0.052428987 0.62479424 -0.031120362 0.30525026 0.25592756 0.30203462 0.40655065 0.44640148 0.43348837 0.6000099 0.42425138 0.5610266 0.38050634 0.5429182 0.3382068 0.38796908 0.47642815 0.22911352 0.36952192 0.4416758 0.42882875 0.4384675 0.4605515 0.42277706 0.42831954 0.14527372 0.18670766 0.19035666 0.09726327 0.2884447 0.29909438 0.29445717 0.2435862 0.39965016 0.27707946 0.19900759 0.24976844 0.30053014 0.19334728 0.85529137 0.90188646 0.91146195 0.68436056 0.81725556 0.87575233 0.8915421 0.8739015 0.60067904 0.70479333 0.8641033 0.8533307 0.48804182 0.5759383 0.8071799 0.4088742 0.4579348 0.514136 0.5322202 0.52580494 0.40974826 0.42880332 0.50628597 0.6063321 0.5512564 0.45705235 0.44675004 0.34861884 0.40515748 0.60364556 0.6162874 0.47484142 0.39963824 0.49434763 0.57824373 0.62135494 0.5827291 0.51696503 0.5706396 0.6233927 0.3327548 0.27632296 0.20320933 0.19930169 0.2710073 0.54949343 0.42315722 0.3696695 -0.08331869 -0.07216732 0.52475107 0.35389045 0.34696323 0.34372848 0.24744624 0.29577273 0.31994832 0.36843356 0.45551026 0.36542755 0.531518 0.5549595 0.34871775 0.4284981 0.62827855 0.56446034 0.584221 0.6489765 0.5050891 0.56166995 0.5875755 0.6036824 0.61970675 -0.035591554 0.6073304 0.55106103 0.57436705 0.58768916 -0.08227938 0.38733852 0.028126016 -0.10948259 0.31375903 0.23150158 0.38559833 0.40892702 0.43608814 0.4366894 0.4513765 0.42838395 0.46432424 0.84604084 0.9185362 0.940611 0.39158064 0.29190803 0.40030044 0.74850476 0.8305596 0.93436754 0.899776 0.7851598 0.10175007 0.021839961 0.728072 0.8083658 0.94579864 0.8601303 0.7608323 0.1127488 0.05810669 0.504113 0.75778747 0.8305459 0.80367154 0.19306014 0.4828566 0.5046612 0.32383382 0.41446647 0.46884042 0.21218029 0.07137203 0.24352962 0.21403491 0.38608292 0.30692437 0.23006222 0.44936547 0.1740052 0.33816585 0.2031526 0.19471616 0.22519532 0.27680385 0.79608953 0.8645232 0.93099165 0.930768 0.7429536 0.7993351 0.89370424 0.8682216 0.56462276 0.7366858 0.313929 0.35740644 0.505867 0.5314677 0.53389305 0.5052098 0.22660975 0.26391977 0.4950419 0.4735499 0.50944734 0.5013241 0.26690775 0.4888578 0.37281096 0.6285072 0.46678892 0.6268095 0.6667826 0.6926014 0.24353509 0.1697532 0.070201635 0.66078436 0.7033976 0.2425803 0.072924376 -0.108124584 -0.048796564 0.7099336 0.34053415 0.3119388 -0.047766156 0.066348664 0.63086057 0.3369012 0.26523885 0.28244382 0.28257275 0.28000215 0.22147363 0.09463971 0.040581904 0.6255934 0.31556338 0.11359207 0.6615139 0.22964434 0.4326222 0.63499236 0.6783879 0.50094926 0.5151114 0.54878986 0.5816866 0.6266748 -0.08023579 0.231951 0.44839278 0.04956422 0.21661475 0.20464581 0.2987214 0.36054766 0.37979648 0.36341786 0.3919054 0.40247402 0.4020636 0.68911076 0.776916 0.87509716 0.82886016 0.6934059 0.35515475 0.28514692 0.17992757 0.32052416 0.69577324 0.7732083 0.68934745 0.62673914 0.27852052 0.3410278 0.37879497 0.6580977 0.73386794 0.68201005 0.6264404 0.5239866 0.60901344 0.65532595 0.7195439 0.7508419 0.713506 0.6767611 -0.19012138 0.51767504 0.5413388 0.67706317 0.62602806 0.6185789 0.40524614 0.43690404 0.47639686 0.25475088 -0.07372534 0.3189545 0.28790313 0.16651349 0.39636937 0.14216869 0.5122323 0.48428404 0.39410776 0.25658363 0.38977724 0.2752462 0.2967561 0.37815237 0.3955137 0.39337724 0.4107741 0.8929945 0.9464487 0.92826676 0.71598744 0.73574114 0.8392817 0.4145912 0.5505196 0.6633321 0.23909391 0.53942466 0.3291422 0.4941892 0.5190858 0.49499726 0.4723489 0.15562959 0.18000036 0.46564475 0.41801977 0.47636044 0.16215104 0.5089759 0.18023968 0.62362933 0.6299209 0.6037425 0.6690141 0.7161405 -0.029415166 0.052097432 0.48436713 0.3732016 0.762417 0.8239425 0.29345554 0.84891075 0.2846511 0.82424366 0.30064613 0.18133816 0.15377311 -0.044198744 0.69330454 0.18516994 0.1956701 0.14612177 0.1077683 0.013744608 -0.019995436 0.021252159 0.032896616 0.67556554 0.13481438 0.081227496 0.2315251 0.67591804 0.12263718 0.32553923 0.4279481 0.52106273 0.5729624 0.6508887 0.36655354 0.2621885 0.04998662 0.5740089 0.43287352 0.30773202 0.61502725 0.27909982 0.39572775 0.5271182 0.5899344 0.7410361 0.012896404 0.6504966 -0.096318774 -0.008278906 0.37700477 0.28482056 0.33136603 0.13651064 0.30962437 0.63985914 0.70355904 0.72626686 0.6672256 0.6072541 0.5265498 0.56830084 0.57845175 0.2902243 0.5546523 0.58643407 0.57687366 -0.4202482 -0.12721255 0.30624413 0.43762398 0.43595 0.57090396 0.6124171 0.58950293 -0.23053521 0.16981506 0.5044308 0.51550907 0.6122444 0.60306233 0.5611695 0.48097444 0.50131136 0.1112614 0.54063684 0.47746688 0.41068244 0.22257298 0.1508009 -0.0988239 0.28554872 0.3816842 0.49463272 0.47751063 0.20808479 0.4002436 0.28214836 0.34460014 0.3908154 0.33143526 0.40932947 0.450177 0.54295003 0.5220992 0.46533632 0.49739164 0.54204166 0.5597373 0.85437334 0.7488952 0.78429675 0.71756476 0.71687007 0.56463 0.54937536 0.5352075 0.37318927 0.44560617 0.48984998 0.49179804 0.10228398 0.29120114 0.4795212 0.22026637 0.37012172 0.434202 0.4201894 0.30546194 0.43986034 0.077534184 0.3709482 0.5325402 0.6177627 0.6865344 0.013039507 -0.035933837 0.77532107 0.81298816 0.0037771165 0.25915134 0.28964284 0.8235786 0.11946051 0.23098333 0.32297698 0.772807 0.62839603 0.6728182 -0.102238946 0.085705176 -0.013760444 -0.0012872592 0.5681421 -0.17407203 0.003076146 -0.0438779 0.13024223 0.11919228 0.56520367 0.593656 0.36705586 0.2733258 0.006329178 0.14575347 0.22879939 0.3898523 0.50848657 0.52358824 0.6053537 0.47401875 0.36146873 0.68604577 0.4977606 0.69410294 0.6771584 0.3899085 0.6699775 0.31450206 0.1235355 0.619646 -0.19131231 0.37928903 0.4735367 -0.05262084 0.01989419 0.42736804 0.4996841 0.4806115 0.48582026 0.44605455 0.2828332 0.44117367 -0.08329324 0.4769576 0.40260223 0.45946568 0.30716783 0.40429842 0.41236317 -0.13659167 0.14736146 0.3489079 -0.058036476 -0.10842818 0.041495845 0.09014775 0.13363726 0.50527084 0.12512897 -0.056792945 0.5199099 0.55174154 0.3524981 0.2565793 0.13008198 0.46502462 0.48519516 0.42822778 0.38594192 0.2711174 0.18631588 -0.025758535 0.30715543 -0.120835364 0.07249053 0.3938066 0.43956813 0.1844298 0.22329694 0.41991127 0.20294827 0.2698058 0.19051006 0.26872975 0.2752487 0.29835626 0.3506879 0.303879 0.35305643 0.40321702 0.48601383 0.46157727 0.4958809 0.5274238 0.56574506 0.53931683 0.53110224 0.55441254 0.58032364 0.4652991 0.4301378 0.46127033 0.33791244 0.03170799 -0.037699364 0.24902591 0.30138224 0.42534772 0.40600732 0.3883159 0.53125423 0.43979186 0.26256406 -0.04820635 0.00021095015 0.048379853 0.49777442 0.24513066 0.2606282 0.3566055 0.31122243 0.56218624 0.53118926 0.46360016 0.24392049 -0.058026984 0.33371806 0.49790823 0.4569471 0.45734817 0.40578258 0.28370804 0.63813365 0.76244444 0.357799 0.25857565 0.0059378855 0.23013574 0.7426478 0.78089243 0.1269252 0.6910156 0.7318697 0.4743907 0.4913371 0.47198325 -0.08822499 -0.08100232 0.6045269 0.679242 0.5015019 0.5147016 0.5184969 -0.072989844 -0.07617305 0.04809647 0.3734039 0.4848491 0.53718764 0.514523 0.49690026 -0.12857194 0.04448708 0.0022572372 -0.031041505 -0.009071919 0.1487097 0.40181032 0.4890079 0.5069637 0.33869275 0.02004899 0.17868292 0.31036514 0.4325632 0.43163973 0.62711227 0.64971197 0.29704908 0.33589888 0.6278599 0.27367747 0.5518669 0.17577669 0.49836528 0.56707656 0.08629587 0.2867109 0.34124893 0.38218504 0.4492735 -0.21878122 0.15830842 0.3615077 0.34740132 0.16901162 0.26165316 0.2770115 0.4454846 0.3838923 0.32338193 -0.70454586 -0.15812525 0.103842795 0.17265062 0.15871778 0.3457708 0.38850594 0.37899426 -0.06777417 0.29967162 0.3491205 0.37413728 0.36544082 0.008187685 0.25722587 0.3996227 0.07198544 -0.034271017 0.3081473 0.15964967 0.1383823 0.10911551 0.10234651 0.34539148 0.13207823 0.1325944 0.23816943 -0.3794741 0.3638014 0.36916435 0.31581467 0.3245085 0.3338669 0.28082037 0.1385209 0.26798326 -0.11725411 0.33999977 0.3373507 0.33362198 0.2968817 0.32149667 0.03671275 0.17004806 0.26719564 0.23581009 0.637738 0.5596056 0.3302167 0.19790594 0.83699816 0.8020711 0.7486459 0.70364743 0.26308122 0.12536974 0.20593399 0.8951771 0.85958827 0.75118685 0.2379055 0.8972498 0.87367046 0.8180896 0.3567957 0.4276694 0.4773708 0.44024754 0.4561568 0.46224636 0.5504919 0.52768797 0.4893996 0.523315 0.5474 0.5085636 0.5237603 0.48231637 0.43339455 0.278117 0.04542324 0.31204548 -0.23714834 0.29032582 0.09859939 0.36492142 0.43731913 0.4033795 0.09330935 0.012116224 0.106325164 0.43606606 0.36184558 0.3504048 0.353337 0.52016646 0.48476413 -0.25455397 0.32926247 0.23728634 0.12618871 0.30063796 0.31338626 0.31950578 0.33508164 0.55987597 0.08028665 0.26424083 0.28768122 0.30754894 0.4289798 0.00991619 -0.10682138 0.26248464 0.3119067 0.3436721 0.20680533 0.21683589 0.33014193 0.2500844 0.552858 0.69595104 0.25680912 0.38716215 0.37649876 0.009909115 0.2499708 0.36254698 0.5525652 0.63610095 0.40561008 0.44632787 0.456568 0.47211277 0.265239 -0.20026809 0.37847465 0.703193 0.45865056 0.48673394 0.49056077 0.3350726 -0.11194842 0.404581 0.44536063 0.49951392 0.50628257 0.022521824 -0.15204863 -0.05579184 0.070373185 0.32056275 0.38416895 0.285805 0.40006194 0.12957188 0.118739374 0.25846997 0.44453174 0.4945351 0.45559412 0.4371284 0.056609377 0.3711083 0.2837161 0.24260993 0.352961 0.41093716 0.14371349 0.032424234 0.39363682 0.2915346 0.29844618 0.27690932 -0.22662354 0.03542681 0.093831465 0.18033381 0.276411 0.29919493 0.33566484 0.3553556 0.21718982 0.15303366 -0.3674294 0.15357736 0.14522937 0.28903395 0.18144765 0.087738685 0.27863917 0.045214325 -0.3494159 0.14915182 0.15449874 0.2517087 0.11360709 0.23609933 0.24793461 0.15166175 0.29384255 0.2596767 0.1746405 0.35206047 0.32548806 -0.2252049 -0.19428055 -0.21129051 0.30822885 0.29232436 -0.033367626 0.19417837 -0.2904175 0.3150705 0.31487414 0.311401 0.35147166 0.2889443 0.27922314 -0.012206085 -0.07114367 -0.11336511 -0.0531694 0.3112744 -0.44503915 0.31370693 0.3492794 0.3649364 0.1555918 0.06432535 0.33000007 -0.01579918 0.28829598 0.32253012 0.31680307 0.2773471 0.28765956 0.28407368 0.23645316 0.27530712 0.07568426 0.38013744 0.30531698 0.30486098 0.2368721 0.1367918 0.23764625 0.16120736 0.16143852 0.70758843 0.6508187 0.39418375 0.4381078 0.23209915 0.1479184 0.23997465 0.23787372 0.23665644 0.81978333 0.54346585 0.23782957 0.22391799 0.18750791 0.8702495 0.89908385 0.6369439 0.5139352 0.104120955 0.8754034 0.8839652 0.86558616 0.7990754 0.15850528 0.0742185 0.36182553 0.8553028 0.8459019 0.42919093 0.430995 0.47053802 0.45265907 0.46105385 0.46845078 0.49654698 0.4677219 0.53278923 0.54414415 0.50620776 0.4539625 0.498497 0.23812598 0.35034043 0.59012246 0.6130676 0.63488555 0.34723386 0.19403467 0.47466952 0.6211246 0.63354254 0.66806245 0.11725502 0.5003562 0.5615981 0.35333598 0.2228759 0.120458215 0.42744777 0.33053136 0.43496978 -0.0691592 0.28152603 0.31410402 0.32596767 -0.04061245 0.2267085 0.122987196 0.21418801 0.19651538 0.1401 0.17827336 0.09517348 0.0401814 -0.031719208 -0.008181721 0.14791006 0.10814499 0.08152942 0.033882238 0.121450976 0.050229874 0.107874215 0.1137974 0.115734205 0.018055875 0.052113235 0.21620125 0.6697379 0.60516125 0.027073994 0.07787764 0.22238755 0.21724355 0.10591234 0.6794013 0.6389087 0.5696289 0.4422052 0.15494995 0.33279666 -0.44036096 0.71452093 0.7154105 0.65031004 0.57040495 0.4166467 0.2986029 -0.044143647 0.36403266 0.745353 0.7667034 0.71913815 0.6032554 0.5452647 0.38369238 0.034877047 0.012595236 0.42545134 0.7783753 0.7235552 0.6699302 0.27336967 0.29053998 0.43310314 0.5125498 0.46847636 0.13950679 0.08427365 0.10187851 0.5118673 -0.009690897 0.069718696 0.04744182 0.18857986 -0.005656842 0.2188983 0.22134715 0.00055427756 -0.084871426 0.08191568 0.32779405 0.24694204 0.27885637 0.26402217 0.27699617 0.21957758 0.1863622 0.10698812 -0.39166808 0.026183655 0.14095671 0.20281325 0.20981126 0.107388414 -0.40562558 -0.40554434 0.11484358 0.24257204 0.22789046 0.20519444 0.14774112 0.108945444 0.10650097 -0.34274077 -0.004243985 0.06872144 0.35896057 0.30030116 0.27729356 0.25507957 0.22213483 -0.018223628 -0.07986829 0.09528734 0.5286544 0.47318026 0.3810838 0.31090933 0.005277288 0.16490316 0.2568705 0.52052236 0.4846645 0.345666 -0.15978901 -0.10800917 0.48536602 0.44598663 0.38547027 -0.19570395 -0.17038094 -0.20227484 -0.23903415 0.092813276 0.26841313 0.045899134 -0.06526721 -0.14807081 -0.1876568 -0.12846112 -0.07184711 -0.07221143 0.20663862 0.20650712 0.12317792 0.2456842 0.2622674 0.23802406 0.10294508 -0.014434654 0.062072273 0.278945 0.11141881 0.09403303 0.018963315 0.1759287 0.20675442 0.15750302 0.2981087 0.58336776 0.10817635 0.07453612 0.04793278 0.22832534 0.3447672 0.6954043 0.24172398 0.112285055 0.22775382 0.14536546 0.42136073 0.8109243 0.44191533 0.38800174 0.4473852 0.8191504 0.8099343 0.7101455 0.61203927 0.0071166195 0.7987176 0.7954564 0.7524904 -0.03966701 0.36805922 0.42442653 0.4044888 0.41650698 0.5710734 0.41615176 0.4401691 0.591645 0.59860295 0.519348 0.51476413 0.47260872 0.3856818 0.26456654 0.5956604 0.6477694 0.6602033 0.4394222 0.113187745 0.39092577 0.5939787 0.63187265 0.65980995 0.29924366 0.049457535 -0.034067594 0.34371665 0.33315387 0.18518557 0.6165671 0.31936455 0.33585006 0.3446447 0.33958027 0.29432786 0.32322404 0.2413982 0.19899923 0.2585548 0.29658872 0.32388756 0.3032906 0.04700704 0.07878737 0.17712893 0.104319185 0.09072736 0.6957184 0.5686184 0.46631026 0.043428823 0.079465754 0.0901727 0.06963249 0.12637743 0.11416942 0.10245626 0.09439812 0.7313942 0.69894946 0.53943837 0.49885914 -0.23238346 0.15574013 0.18004525 0.16985078 0.7187558 0.7013252 0.6963145 0.7027483 0.1892927 -0.19199538 -0.78669167 0.4302071 0.7148051 0.57597876 -0.028098386 0.09182304 0.52678144 0.45503435 0.69980836 0.7435514 0.7282274 0.64022267 0.50990313 0.008448882 0.13279277 0.50411665 0.5255764 0.52942383 0.7048578 0.0077180625 0.12514256 0.4908473 -0.079523906 -0.015504736 -0.26699054 -0.011405498 -0.3013861 0.08115183 -0.42756027 0.20359515 0.1747971 0.19192126 0.13142736 0.1013941 -0.45939633 -0.35071322 -0.083532065 0.1816988 0.21827763 0.12864488 -0.4282845 -0.3872986 -0.4003001 0.19337517 0.12585275 -0.42533758 0.22579703 0.22300199 0.1990287 0.17617393 0.18679844 0.15948805 0.084181786 -0.1423616 -0.08915993 -0.34910244 0.41332126 0.25333512 0.53799117 0.504938 0.17719111 0.5270233 0.52322894 0.14490214 0.49548322 0.463374 0.03686019 0.097600624 0.35529974 -0.24233714 -0.12894602 -0.11073863 -0.031055704 0.20743857 0.24872202 -0.0425288 0.25229916 0.10323252 0.007836875 0.029411402 0.4140321 0.34665006 0.05722459 0.042970873 -0.054497637 0.3663084 0.16215107 0.20643532 0.48976028 0.510114 0.025351487 0.15359585 0.35808927 0.39350888 0.40945435 0.048037514 -0.014789027 0.5024934 0.5510678 0.64812696 0.20310071 0.26721096 0.30201274 0.34728044 0.38428193 0.41669956 0.492642 0.54179513 0.6839697 0.52761644 0.23883116 0.27186286 0.3170595 0.36012852 0.4015324 0.36965567 0.7213315 0.6475835 0.58225656 0.27883878 0.18228781 0.43497646 0.31904593 0.35995454 0.5506194 0.5093067 0.5616175 0.60543084 0.6468693 0.6418152 0.6864356 0.6677042 0.3536111 0.4629761 0.41170856 0.44111708 0.5841373 0.6447729 0.66601527 0.35442147 0.036776766 0.45957908 0.68489635 0.7192511 0.7431522 -0.07117519 0.763927 0.24096441 0.25541443 0.32488438 -0.07392433 0.7287965 0.22338256 0.19170906 0.28959537 0.30068746 0.18749368 0.018907437 0.5412487 0.17354296 0.5590411 0.2458871 0.14900108 0.7542993 0.69985795 0.5270835 -0.20702174 0.015448132 0.076961115 0.09581829 0.10248283 0.09810565 0.7254659 0.7368787 -0.40558752 -0.38916153 -0.31487867 -0.10139249 0.085147455 0.17911947 0.2289523 0.2606563 0.71048975 0.70497334 0.11494763 0.31208807 0.31767872 0.3686111 0.6707686 0.49480158 0.5249776 0.63556564 0.6385212 -0.11123186 0.46334964 0.5328271 0.5417584 0.6596532 0.6812309 0.60995746 -0.1602548 0.48493564 0.5232325 0.6628548 -0.08694739 -0.07951385 -0.19155729 0.0043886006 -0.3370391 -0.06311404 -0.1169189 0.11150698 0.52531797 0.54512274 0.5396813 -0.0047900006 -0.24481377 -0.4621666 0.14432794 0.52038884 0.5364747