# vtk DataFile Version 2.0
Really cool data
ASCII
DATASET POLYDATA
POINTS 7088 float
29.386522 -23.841776 41.582058
29.335047 -23.763144 41.964893
29.32605 -23.31473 40.62533
29.216545 -23.379114 41.30364
29.171526 -23.102484 42.238277
28.9868 -22.169346 40.94123
28.89941 -22.419405 41.500538
29.046268 -22.494728 42.311394
29.074137 -21.338276 40.500435
28.818268 -21.645191 41.322163
28.81728 -21.562756 42.399094
29.090586 -21.37654 42.936275
29.31865 -20.476212 39.886845
28.926659 -20.731483 40.930416
28.862844 -20.688028 41.52548
28.949486 -20.768465 42.3978
29.28517 -20.768394 42.89677
29.329607 -20.068697 39.976418
29.22108 -19.951492 40.619274
29.855284 -23.93648 40.70448
29.722063 -24.041647 41.42913
29.799488 -23.915497 42.474808
29.968737 -23.808767 42.820618
29.706636 -23.148151 40.09298
29.569519 -23.555237 40.50635
29.473286 -23.404797 42.552444
29.950994 -23.429363 42.995174
29.777098 -22.498835 39.879425
29.779554 -22.355497 43.256897
30.16612 -21.106867 39.35084
29.699963 -21.294518 39.683605
29.731003 -21.695267 43.383595
30.020163 -20.350666 39.266823
29.658802 -20.476877 39.56548
29.773605 -19.693993 39.625053
29.585787 -19.372047 41.82052
29.97887 -20.086292 42.960026
30.156399 -19.164358 39.69722
29.906666 -18.844538 40.47223
30.568413 -23.781464 40.27745
30.461002 -24.091194 40.631042
30.604456 -24.363129 41.584064
30.464968 -24.207855 42.473034
30.534365 -23.956116 42.819065
30.437569 -23.17014 39.880157
30.548862 -23.55965 43.168446
30.454224 -22.487186 39.600727
30.51403 -21.5136 39.32923
30.725285 -20.823454 39.026096
30.684551 -19.672945 39.19777
30.35256 -19.288816 39.407574
31.324875 -19.373713 45.109303
31.306826 -18.627777 45.52705
30.805677 -18.116833 40.185287
30.877285 -17.844057 40.538837
30.76708 -17.823769 41.19184
30.985353 -18.21595 42.455757
31.477804 -23.917126 40.718666
31.316254 -24.25943 41.529804
31.336693 -24.12877 42.177826
31.19855 -23.950598 42.7537
31.43683 -23.39351 40.120777
31.738672 -23.594086 40.437214
31.649448 -23.585129 42.611362
31.315811 -23.575993 42.89652
31.351257 -22.00234 39.339233
31.172167 -22.576944 39.6674
31.477829 -21.431871 39.076454
31.559067 -20.350409 38.98142
31.71887 -20.027798 44.513466
31.99063 -20.276196 45.22015
32.064884 -20.2474 46.213055
31.29738 -19.521088 39.23699
31.481903 -19.624256 45.708935
31.922966 -19.769176 46.405678
32.126507 -19.367311 46.800194
31.756344 -18.527668 39.31081
31.26233 -18.509266 39.499752
31.783245 -18.63935 46.28155
31.406328 -18.045809 39.831253
31.279276 -17.629631 40.544834
31.750021 -18.126802 43.23031
32.08888 -17.102606 41.710724
32.39159 -16.33488 43.687515
31.97985 -16.66206 45.365208
32.376858 -16.349836 46.11964
32.363445 -15.692158 45.63102
32.326107 -9.807503 26.996645
32.268715 -9.876309 27.393282
32.22403 -9.42493 26.924532
32.079067 -9.41434 27.448814
32.069717 -9.216017 28.398697
31.974169 -8.8074255 29.029932
32.2578 -8.824545 26.8963
32.05795 -8.757599 27.411612
31.893673 -8.478664 28.539318
31.926332 -8.381108 29.417038
32.179996 -8.237115 30.001379
32.09924 -7.9485064 28.063095
31.97159 -7.713519 28.794022
31.97466 -7.6340394 29.413013
32.19169 -7.6469846 29.963375
32.20139 -7.2200108 29.235756
31.91368 -23.83021 40.90547
31.969362 -23.898489 41.49359
31.778782 -23.9917 41.882782
31.933338 -23.049603 40.194233
32.11588 -23.504961 40.799747
32.49577 -23.256407 41.695927
32.139038 -23.366804 42.208675
31.870228 -23.33511 42.754814
31.908844 -22.758583 40.027966
32.351727 -22.810087 40.56689
32.238213 -22.554823 42.617455
32.08494 -21.376417 39.282578
32.69338 -20.936672 39.42807
33.020493 -21.077456 46.20174
32.47029 -20.439276 46.726143
32.904835 -20.384966 47.082764
32.322807 -19.415417 38.9615
32.77736 -19.49948 47.222496
32.77769 -18.358511 39.145172
32.65934 -18.71283 47.138233
33.035786 -17.918524 39.382053
32.36258 -18.03259 46.738068
32.890938 -17.345226 40.11572
32.857178 -16.862568 40.685444
32.641056 -16.623924 46.599693
33.04363 -16.765442 47.120697
33.21711 -16.038576 41.996475
32.683033 -16.179174 42.758816
32.5202 -15.5383625 44.545467
32.71994 -15.723434 46.16954
32.927845 -14.950257 44.696556
32.688824 -15.148074 45.31779
33.01876 -15.054138 45.853374
33.038216 -9.894712 26.336845
32.716896 -10.014127 26.725332
32.607796 -10.198889 27.376305
32.6257 -10.105871 28.038237
32.906544 -9.360433 26.235321
32.46698 -9.355549 26.590761
32.464798 -9.253371 29.44225
32.760937 -8.981075 30.069048
32.978516 -8.840842 26.278164
32.569923 -8.642528 26.6178
32.79458 -8.4608965 30.413488
32.966328 -8.091369 26.746891
32.676434 -7.599879 27.714415
32.629307 -7.490152 30.324589
33.020927 -7.6921096 30.704762
32.935043 -7.225542 27.978771
32.655376 -7.05362 28.57719
32.757725 -6.8666534 29.555038
32.827873 -7.0780435 30.17109
32.63894 -22.962646 41.788116
33.455723 -21.009726 39.681786
33.668373 -21.502687 41.00005
33.642307 -21.341743 43.126175
33.09838 -21.149797 44.441414
33.519135 -21.101076 45.547646
33.431355 -21.049673 46.394283
33.289856 -20.874727 46.86698
33.12795 -20.38013 39.115795
33.421135 -20.381924 47.237007
34.345222 -18.770084 29.406418
34.209415 -18.763235 29.967558
33.31034 -19.486794 38.816113
33.62743 -19.396862 47.46654
34.23577 -18.363354 28.8465
33.930332 -18.266548 29.593267
34.103073 -18.236929 30.256855
33.090603 -18.799152 38.86804
34.294704 -17.44882 28.341337
33.90558 -17.538248 28.8872
33.78992 -17.41762 29.529474
33.97755 -17.498428 30.137444
34.30379 -17.351503 30.693724
33.834267 -17.490427 47.719513
34.10029 -16.879581 28.781565
34.008434 -16.798876 29.515406
34.106606 -16.94552 30.032377
33.31543 -17.169477 40.10255
33.80513 -16.36918 47.403294
34.00364 -16.91886 47.72255
34.054672 -16.205725 40.613083
33.539036 -15.844006 41.850666
33.389046 -15.554186 42.526127
33.837 -15.945088 47.169296
34.007225 -15.305636 42.215816
33.72837 -15.044536 43.10644
33.41499 -14.932577 43.678364
33.55137 -14.61417 44.491795
33.674603 -14.567006 45.521187
33.74232 -14.843591 46.148937
33.82232 -14.422302 44.85756
33.936497 -14.423873 45.501465
33.597187 -10.66621 26.992395
33.43972 -10.650735 27.65391
33.395348 -9.986934 26.190063
33.569145 -10.429191 26.493427
34.096924 -10.352801 29.02424
33.729774 -9.451913 25.934372
33.604843 -9.349523 30.045557
33.677837 -8.819288 26.033857
33.39859 -8.35284 26.403019
33.618214 -8.184288 30.78782
33.597363 -8.001221 26.635174
33.211727 -7.396399 27.463112
33.56424 -7.599519 30.779495
33.690395 -7.028017 27.913864
33.590744 -6.6951594 28.744785
33.544968 -6.616065 29.642956
33.488087 -6.860341 30.298151
33.477894 -7.1251016 30.65515
35.264946 -26.7217 24.870281
35.269207 -26.78507 25.421368
35.27891 -25.993528 24.187128
35.14289 -26.404715 24.786846
35.024746 -26.313038 25.4523
35.21886 -26.270548 25.960644
35.25265 -25.655785 24.186203
34.88256 -25.49078 24.741432
34.83804 -25.449242 25.3366
35.03139 -25.612844 25.933014
35.26693 -24.672455 24.210052
34.98594 -24.68801 24.72214
34.94989 -24.649874 25.339611
35.002384 -24.928137 25.821146
35.140358 -24.036274 24.93469
35.324265 -23.73117 25.12487
34.52689 -20.911474 40.0155
33.889175 -21.38998 41.4095
34.368435 -21.252777 43.236454
34.246693 -20.95562 45.6465
34.19326 -20.9029 46.33111
34.012848 -20.713284 46.870464
35.037033 -19.719566 30.388186
35.12934 -19.704376 30.91272
34.151375 -20.350092 47.068077
34.531982 -19.05727 29.726488
34.713516 -19.387175 30.358982
35.020184 -19.447672 31.103046
34.357136 -18.201052 28.565079
34.650455 -18.540657 31.070637
34.447227 -18.581318 47.49753
34.713837 -17.894686 47.761543
34.65448 -17.287508 28.011879
34.390095 -17.1872 30.630114
34.51107 -17.94149 30.880257
34.43592 -17.309462 47.798847
35.375893 -16.151596 25.150309
35.454956 -16.15126 25.959795
35.23976 -16.46485 27.835215
34.434097 -16.540771 28.48566
34.63312 -16.446272 30.298738
34.968037 -17.153057 31.079943
35.276707 -16.2797 39.05545
34.39814 -16.35472 47.510742
34.554317 -16.724623 47.70898
35.405136 -15.086253 24.052937
35.389862 -15.335406 24.733456
35.18255 -15.812155 28.076168
34.902725 -15.90852 28.60409
34.715656 -16.037785 29.248013
35.11837 -16.147718 39.24575
34.89761 -15.735057 40.03897
34.62664 -15.652416 40.756115
34.5657 -15.964245 47.290165
35.459404 -14.66882 23.88945
35.387604 -14.531306 24.54493
34.451073 -14.879644 43.133865
34.632587 -14.560081 43.90838
34.822506 -14.491537 45.651245
34.34185 -14.72873 46.191998
34.199623 -14.373414 44.802845
34.43536 -14.3788595 45.485737
34.617546 -10.847872 26.956614
35.322323 -11.702213 29.065401
34.70469 -9.947786 25.952717
34.312016 -9.47938 25.836487
34.795826 -8.4127035 26.092196
34.312126 -8.409813 30.807863
34.350853 -8.2275 26.314285
34.637978 -7.938777 26.64345
34.62526 -7.739793 30.7249
34.304783 -7.0971694 27.720816
34.471508 -6.7696257 28.724564
34.19395 -6.611093 29.530693
34.151688 -6.93606 30.449991
36.106518 -26.742174 24.052591
35.711494 -27.035118 24.73187
35.650055 -27.00607 25.496136
35.635494 -26.80227 25.89505
35.67009 -26.207767 24.023497
35.397205 -26.572535 24.464989
35.652287 -26.397755 26.168781
35.705486 -25.533167 23.839144
35.624336 -25.530645 26.40598
35.9179 -25.265713 26.585215
35.85074 -24.618317 23.705631
35.624916 -24.73043 26.302942
35.92156 -23.49376 23.73248
35.59119 -23.318777 24.652748
35.480427 -23.526049 25.29015
35.794662 -23.892017 26.097555
36.00766 -22.697084 23.7197
35.77596 -22.83644 24.500069
35.928585 -22.65117 25.146605
36.25546 -22.642761 25.79978
36.19801 -22.065176 24.495865
34.88155 -20.990334 41.008778
35.301537 -20.909355 41.15136
34.875153 -20.960274 43.94478
35.581635 -19.87995 29.943018
35.653538 -19.969688 30.221893
35.650894 -19.767643 31.179823
35.222557 -20.192759 39.856117
35.486004 -20.261734 45.467
35.22664 -20.182495 46.260838
35.61684 -19.270658 28.933086
35.52661 -19.559713 31.409369
35.686764 -19.157478 31.725368
35.643246 -19.622065 46.37097
36.139755 -17.959797 23.719755
36.259094 -18.173391 24.28093
35.543255 -18.792465 31.829227
35.32779 -18.29525 47.383163
36.205925 -17.353561 22.979736
35.96245 -17.235807 23.566046
[...]
POINT_DATA 7088
SCALARS features_00 float 1
LOOKUP_TABLE default
0.86621416 0.8481188 0.8394979 0.8253615 0.7768117 0.71398705 0.7349961 0.72870344 0.6257205 0.67045 0.67846155 0.65165544 0.5888558 0.6124588 0.63924086 0.6417752 0.6174024 0.5737616 0.57485217 0.91666627 0.91370493 0.87241507 0.8679867 0.804759 0.87232476 0.8118291 0.8216771 0.6933964 0.684219 0.56325006 0.59428626 0.5990834 0.5617797 0.5811739 0.5528896 0.5981463 0.52979445 0.5094805 0.5031902 0.8422004 0.9329585 0.9764783 0.88332176 0.8789116 0.7414981 0.82127863 0.6329078 0.5514907 0.5380188 0.51790893 0.5144761 0.46778485 0.4726472 0.41166818 0.38082486 0.3824486 0.33361024 0.8027514 0.8475548 0.79907835 0.8192461 0.7057538 0.7351248 0.74266744 0.7701416 0.51910615 0.6019684 0.4882542 0.50753427 0.456004 0.55759156 0.62147605 0.4810574 0.5208839 0.5897713 0.6012815 0.40661502 0.42199755 0.52055824 0.3799889 0.33413386 0.22610807 0.21576409 0.3810755 0.50974274 0.57722676 0.60105884 0.72160083 0.70755833 0.73728776 0.73514533 0.7610842 0.8308658 0.7525478 0.77175605 0.8361981 0.87336165 0.8759459 0.8338078 0.88945466 0.9066683 0.8980715 0.90852857 0.7535294 0.7503458 0.75839496 0.6330309 0.7051462 0.6589225 0.6908175 0.6860732 0.58030057 0.57083714 0.5205167 0.44447964 0.44263983 0.69226044 0.69864404 0.72443795 0.46333754 0.6726209 0.390088 0.5984571 0.33503723 0.5279971 0.24768095 0.15854426 0.58106863 0.58799016 0.18001124 0.26562482 0.5564317 0.62684023 0.58439416 0.6172792 0.63729745 0.72280335 0.7146186 0.6837076 0.67142725 0.7319845 0.7379689 0.8014006 0.81600845 0.7239604 0.74131835 0.83345175 0.7026513 0.756637 0.880245 0.8448407 0.74456006 0.840799 0.8940642 0.8816692 0.5973024 0.37254936 0.21338028 0.13628355 0.45105523 0.5826578 0.6801797 0.7138858 0.47885156 0.7279394 0.75539905 0.7687953 0.45517632 0.7015605 0.7386128 0.7729949 0.74912405 0.42007127 0.61504555 0.72284603 0.742291 0.71448743 0.63172793 0.5786983 0.6231898 0.6839751 0.6736026 0.17398821 0.6042427 0.5908793 0.096772715 0.16633292 0.28140265 0.63738245 0.23997313 0.3979991 0.47839284 0.5721997 0.6295228 0.6623976 0.59936416 0.62959564 0.64760184 0.6310364 0.71334517 0.68243694 0.50862813 0.69436944 0.7051482 0.6692494 0.6700171 0.78785896 0.6246155 0.670758 0.8202983 0.6554973 0.7738304 0.855921 0.8573619 0.8437252 0.8076342 0.85819715 0.7329093 0.8068283 0.8780792 0.8971489 0.7321271 0.8127569 0.87786293 0.9059617 0.6921464 0.7509992 0.79732203 0.8543192 0.6700064 0.62035286 0.18705714 0.1255497 0.22691405 0.52062035 0.6081338 0.6679378 0.7359303 0.72887015 0.6729938 0.7521528 0.7524438 0.7282829 0.6959155 0.7211374 0.6146786 0.61049604 0.48806608 0.6156104 0.66684914 0.60417217 0.31544793 0.24087219 0.25433803 0.49728316 0.5610971 0.48658842 0.1705012 0.6138724 0.6127869 0.43012112 0.37670588 0.20449749 0.3372082 0.49049672 0.204869 0.23174576 0.17346993 0.6315361 0.46307364 0.4362367 0.4122384 0.5370547 0.6385933 0.66888785 0.5956893 0.62931633 0.507853 0.105606124 0.59622425 0.63433266 0.5224795 0.70035565 0.55629015 0.502887 0.7291476 0.5658714 0.64572275 0.7828452 0.8117448 0.7061429 0.7826085 0.85254097 0.86847043 0.6960116 0.7581625 0.86389 0.6541672 0.8158906 0.73929757 0.6102726 0.7639627 0.5645436 0.54899776 0.58375233 0.64739704 0.5313468 0.5057918 0.48428065 0.47616473 0.4661551 0.13550687 0.10390481 0.27059722 0.70042473 0.70086277 0.69574213 0.09312641 0.3509908 0.4562729 0.6281444 0.69780654 0.6522305 0.43323052 0.33727688 0.284294 0.62218124 0.6344108 0.35449994 0.35430172 0.32223684 0.2889157 0.1912836 0.22152475 0.32028836 0.30875963 0.28840345 0.61880136 0.3567689 0.3598267 0.3320698 0.21170165 0.22172599 0.074659005 0.22032969 0.2813411 0.15713824 0.0012240112 0.6431028 0.6206312 0.38984978 0.42309996 0.37950814 0.1713943 0.044201985 0.09914183 0.1904374 0.24250932 0.11315113 0.21989933 0.18023208 0.64590824 0.4809477 0.47678345 0.47525385 0.3695966 0.13806412 0.009726375 0.07389612 0.13637933 0.2104857 0.23920132 0.29829645 0.24853013 0.27864543 0.21782564 0.3563289 0.52339506 0.59696454 0.63572544 0.67868686 0.6871589 0.47803798 0.48624173 0.47520694 0.42541182 0.2446073 0.0551458 0.25556374 0.24026465 0.24182884 0.30848175 0.14793628 0.1685915 0.3100744 0.31202638 0.38628548 0.4586976 0.45160344 0.21616258 0.34087825 0.4384593 0.40665275 0.17158033 0.5094288 0.3838626 0.43520582 0.44068843 0.42239746 0.5571405 0.44733286 0.5652745 0.88654464 0.8913783 0.9089267 0.7662178 0.82891387 0.86788803 0.8395976 0.65899456 0.7932838 0.6854837 0.6043713 0.65937316 0.4856913 0.61128616 0.63375926 0.4746048 0.52955496 0.4833577 0.45369402 0.42595866 0.412993 0.4319479 0.44281736 0.10195321 0.6090226 0.67177856 0.6459218 0.63979924 0.091108955 0.12878257 0.16146828 0.21385504 0.33544615 0.38120022 0.24819194 0.090278074 -0.01481472 0.005464159 0.081531405 0.56380004 0.58480865 0.15281254 0.18636455 0.34131032 0.45343202 0.28736752 0.3096692 0.11322799 0.29423758 0.29383406 0.1308688 0.60447234 0.31785932 0.33808717 0.20581499 0.12498354 0.6111138 0.6284496 0.32008213 0.61594296 0.63197917 0.35914195 0.18830213 0.58143795 0.6185745 0.6312823 0.6409179 0.45772564 0.21163127 0.19067177 0.17420399 0.21709211 0.6154673 0.38190204 0.4507817 0.35067028 0.39048618 0.3701908 -0.017531201 0.5223223 -0.0801616 -0.021085676 0.42688978 0.5020828 0.017238572 0.21203826 0.29711714 0.4494217 0.4825301 0.3290026 0.071312234 0.38341728 0.29453793 0.37838787 0.4501043 0.41282928 0.4385833 0.4843871 0.915758 0.97600234 0.94986975 0.89854205 0.8494874 0.8345684 0.61817205 0.6695671 0.6634762 0.494453 0.5354742 0.3779215 0.4489681 0.3935325 0.382451 0.40141058 0.3567015 0.37885654 0.3268076 0.5578257 0.51260626 0.52162015 0.18507925 0.42283934 0.46524525 0.54140264 0.4403495 0.10683112 0.16968898 0.26276693 0.26967868 0.21474881 0.23979273 0.27635604 0.27371523 0.5530901 0.5962789 0.32068482 0.27740198 0.28523797 0.11902681 0.15512797 0.22683284 0.24048474 0.17194264 0.50437164 0.49775732 0.041027907 0.108642556 0.36032876 0.37859488 0.23456042 0.24557629 0.34999117 0.37825313 0.29328114 0.3431285 0.37460485 0.3947532 0.26331246 0.3135261 0.36546984 0.25530827 0.26179513 0.9949999 1.0 0.9506477 0.8928064 0.78250724 0.917284 0.8816565 0.82863224 0.6737497 0.67060566 0.44935697 0.5570104 0.34596094 0.33465847 0.31818554 0.3540854 0.21958168 0.4013996 0.095600486 0.20122387 0.03496968 0.45525372 0.21049887 0.21664208 0.38110447 0.47239548 0.1636709 0.1336175 0.3630852 0.36267802 0.38952285 0.40990746 0.0811103 0.14156784 0.2120104 0.21721382 0.3324677 -0.046910524 0.057235558 0.14718169 0.5269983 0.2777127 0.33218274 0.32650083 0.36248958 0.33347243 0.3016252 0.22724439 0.10705386 0.19369182 0.14062048 0.046439752 0.2594401 0.15450862 0.008915242 0.40073878 0.40668032 0.0476658 0.3139341 0.26123163 0.047510788 0.32675648 0.4050104 0.14382228 0.16656885 0.20576835 0.40725368 0.4733786 0.15326694 0.25615376 0.40661657 0.5038122 0.5208248 0.18431407 0.1282756 0.076164976 0.34384555 0.4277923 0.48816657 0.51881754 0.15259443 0.19958241 0.22922666 0.35862607 0.49749225 0.15321627 0.2120935 0.2028661 0.31261173 0.36484742 0.54693717 0.50142187 0.5327289 0.45141292 0.44887692 0.52301997 0.6148267 0.5913396 0.5161997 0.5435097 0.6207705 0.5909321 0.5170456 0.9490708 0.913153 0.88253236 0.8765114 0.8347567 0.8170226 0.69561374 0.74467194 0.7127038 0.5337916 0.53493416 0.37048283 0.33384293 0.303977 0.28386253 0.28868845 0.2412076 -0.039663076 0.034097034 -0.07079814 0.2948292 0.437235 0.47368994 0.518012 0.5779668 0.11361665 0.053561132 0.13352524 0.31429768 0.36254 0.06067703 0.07751183 0.14949487 0.5797342 0.20897922 0.1654892 0.078327656 0.23400348 0.058761045 0.5542118 0.5355885 0.28061658 -0.33973268 -0.10685187 0.5089817 0.37158424 -0.37266874 0.4881791 0.78615123 0.77076316 0.42220622 0.49492294 0.77292407 0.7426152 0.23356585 0.17393985 0.31299818 0.34015492 0.7201476 0.6861727 0.141992 -0.013461992 0.10671217 -0.040349133 -0.03629428 0.25537452 0.34362835 0.36817068 0.35370266 0.40785465 0.36990672 0.012120134 0.45363992 0.46184987 0.06430386 -0.067225225 0.49273837 0.50991255 0.26476175 0.20926821 0.180482 0.11078849 0.49804342 0.03983499 0.41121417 0.20290795 0.25643355 0.3466639 0.3251883 0.42563784 0.34084317 0.4108802 0.47740173 0.37832385 0.3969369 0.49484378 0.5387625 0.464528 0.5622903 0.8046938 0.8209331 0.8120276 0.71547943 0.74193096 0.7442714 0.3931012 0.4882303 0.5784607 0.22814415 0.26221955 0.24260427 0.21992493 0.24549168 0.098551445 -0.051249392 0.47928023 0.5392417 0.08354613 0.07297879 0.1791247 0.23128417 0.37464374 0.5001049 0.5555804 0.5736028 0.14427404 -0.023766965 0.02275864 0.5611208 0.2263345 -0.14075764 -0.043766156 0.5600216 0.54229224 0.76901245 0.74750704 0.75229824 -0.1893521 -0.2717762 -0.43714145 0.54836166 0.8104862 0.79436433 0.75854343 0.7088362 0.38506603 -0.47471038 0.3929546 0.49626327 0.4958493 0.7429501 0.5982252 0.42369205 0.064411424 0.08348403 0.6340999 0.6342287 0.6759603 0.5502814 0.4647122 0.075262785 -0.074142076 0.57138574 0.5683105 0.46262896 -0.009566723 -0.49354774 0.13511606 0.18258259 0.34814793 0.16307941 0.119769044 0.2848791 0.41631716 0.3671102 0.42151892 0.4030734 0.34179965 0.2623448 0.026292384 0.45353812 0.42014664 0.11599859 0.1805438 0.21624678 0.72115123 0.7617376 0.039351106 0.48779702 0.68620884 0.76440513 0.2567266 0.086511806 0.12166263 0.62008977 0.3166282 0.20608681 0.22956127 0.31633115 0.3713922 0.22808692 0.36916953 0.0073023513 0.24037373 0.32655865 0.59769034 0.69950473 0.5525901 0.5369764 0.45203096 0.69731635 0.74643064 0.7019536 0.59556663 0.74285364 0.73020566 0.6673609 0.64868855 0.7457413 0.69989014 0.64643645 0.19297078 0.7320155 0.25003377 0.2696559 0.25188947 0.08875114 -0.1289004 0.40303722 0.43230116 0.42962116 0.031802304 0.31505558 0.27718285 0.45984554 0.52685285 -0.023599196 0.17158055 0.30770102 0.32865977 0.52929246 0.5450746 0.55148864 0.51399964 -0.12763053 -0.016932137 0.5432679 0.5615103 0.71876645 0.673415 0.5491571 0.48257762 0.0633848 -0.2468443 -0.3508385 0.5338203 0.5524648 0.7419665 -0.4125826 -0.494473 0.31820935 0.4744736 0.6641222 0.10883383 0.12625185 0.567338 0.5798286 0.29017663 -0.20291811 -0.18799391 -0.4222952 -0.06261161 0.09851717 0.52815217 0.545048 0.5223439 0.3706488 0.19331014 -0.19118614 0.515316 0.46632895 0.29244015 -0.21396564 0.13645074 0.2676109 0.41116473 -0.055904306 0.13335289 -0.010423785 0.16931012 0.39574265 0.3004222 0.063018076 0.35431027 0.4695034 0.41657728 0.24196944 0.39824787 0.34076768 0.22547321 -0.024896815 -0.024645627 0.065240726 0.69767904 0.13119212 0.16139536 0.66620517 0.7528354 0.792151 -0.042046122 0.7917986 0.8334842 -0.035412088 0.8294117 0.015136674 0.61964244 0.70491016 0.76073825 0.24273397 0.027460914 0.13079096 0.3248902 0.51500416 0.26716793 0.124462724 0.23484814 0.07960951 0.47505128 0.25211203 0.54805565 0.567006 0.39239365 0.61039096 0.655566 0.5475042 0.53169423 0.7062155 0.73549235 0.7239145 0.70293516 0.66349185 0.7338525 0.721967 0.75812227 0.7039526 0.6408948 0.56370753 0.8159609 0.7733427 0.7103707 0.6546494 0.5685001 0.48152792 0.8184727 0.7920437 0.5930392 0.82190317 0.80565023 0.7440058 0.6393926 0.54242927 0.22203594 0.21469264 0.18599765 0.82277 0.8174336 0.7849622 0.6975912 0.26750332 0.10119544 -0.029056042 -0.09373571 0.07063611 0.43751788 0.46240395 0.45861214 0.44111836 0.41949356 -0.12088988 0.010078549 0.36561587 -0.16065404 -0.03071709 0.23948765 0.48297918 0.26864272 -0.031871073 0.21228932 0.48087418 0.5346957 0.6427097 0.5139797 0.46446016 0.28773755 -0.2905321 0.05973366 0.559322 -0.35669482 0.10929593 0.5340675 0.14487915 0.54032433 0.20146793 0.5115101 -0.20337203 0.2609851 0.5392516 0.46482077 0.31929922 0.07615684 -0.011502981 -0.06816845 -0.0865775 0.55279696 0.19913884 0.15577912 -0.029454209 0.53091604 0.59881127 0.24133557 0.22198461 0.19628802 0.1311973 -0.078971975 0.17948732 0.5754444 0.40487647 0.21833506 0.10711636 -0.10281802 0.019248046 0.26613212 0.48177546 0.69249403 0.79194725 0.036634102 -0.042527325 0.8728609 0.020418692 0.85343945 0.6429715 0.7118954 0.10541323 0.51840824 0.5920906 0.19820668 0.077325895 0.4381749 0.37615454 0.21581888 0.25786614 0.54376507 0.44609496 0.5916207 0.6301422 0.51602256 0.47987694 0.69170964 0.7100309 0.71273196 0.64836955 0.70743394 0.7351029 0.72754824 0.6816361 0.63199836 0.57030106 0.81588316 0.5971216 0.4052468 0.8291726 0.38665354 0.32699728 0.816617 0.39492184 0.29960254 0.8094141 0.36639932 0.8046849 0.8115916 0.49406773 0.38550776 0.16114523 0.041839406 -0.0019854978 0.23543453 0.78883076 0.7557614 0.71228015 0.07032881 0.13209735 -0.09018123 0.14867367 0.20225683 -0.0728388 0.0077124834 0.003757313 0.10275006 0.46272498 0.47673726 0.4450839 0.43156213 0.40365648 -0.12985614 0.009001523 0.4061669 0.39677942 0.14655283 0.057922617 -0.08634193 -0.04495266 0.20522866 0.16370451 0.15645729 -0.0673038 -0.12713152 0.102375045 0.18749617 0.40905768 0.2750382 -0.31393135 0.09618018 0.44717968 -0.46229404 0.4790283 0.09710905 0.49167538 0.493787 0.476372 0.5110029 0.4396915 0.5880301 0.3962441 0.29705095 0.61383545 0.24853587 0.23794132 0.23018438 0.1523529 0.14538895 0.055108413 0.12134512 0.57070875 0.22495456 0.09747659 0.16909742 0.12557141 -0.091681436 0.43445912 0.52477324 0.36129355 0.20874003 0.14608286 0.6755772 0.6523557 0.75591016 0.8071779 0.116822354 0.766261 0.14290424 0.59810734 0.6747366 0.18422705 0.16278188 0.46014792 0.5369293 0.11399243 0.33017796 0.24245259 0.44820452 0.2782803 0.38439465 0.5685814 0.6082499 0.5688546 0.51316106 0.6240591 0.5870286 0.6519673 0.6590774 0.63639605 0.71367764 0.72662497 0.6962359 0.8946045 0.8071774 0.9111562 0.8828696 0.77972996 0.69373 0.8544735 0.8795066 0.882213 0.79697275 0.65772504 0.83595985 0.8161126 0.768613 0.539057 0.665763 0.5481915 0.79369307 0.19499221 0.25997666 0.8073436 0.7334952 0.2546322 0.20483558 0.77065426 0.27460855 0.38881266 0.74492764 0.2675436 0.33020133 0.3459387 0.41672257 0.75288266 0.7306967 0.24109638 0.1827173 0.07178114 0.17312507 0.035642825 -0.15036115 -0.21137007 0.07019355 0.2451163 0.30620515 0.35750604 0.71658117 0.6801737 0.5024686 -0.09998521 -0.14710109 0.26653367 0.38747633 0.6044023 -0.11898759 0.4563411 0.4490547 0.39545804 0.41045102 0.009917602 0.016683051 0.41889137 0.35483044 0.18475309 0.07782528 -0.12050358 -0.21834816 0.1667067 0.16711673 -0.16831917 -0.19317663 -0.18739791 0.10554809 0.07108794 0.29978532 0.19281355 0.1488469 0.005250588 0.42617586 0.37779093 0.0025783554 0.48183638 0.49320155 0.49090672 0.17557012 0.4841243 0.4820562 0.3300666 0.4718449 0.4497448 0.5230668 0.4089585 0.32226235 0.55966914 0.2967516 0.24649559 0.22326547 0.5234172 0.20030305 0.13481407 0.2617789 -0.1565247 0.22031799 0.29519063 0.34433973 0.17514037 -0.061615314 -0.07525933 0.36185795 0.3766769 0.39984208 0.37906617 0.04436102 -0.065281965 0.5128868 0.051483054 0.028585805 0.5369171 0.6299417 0.008024495 0.68324596 0.122005895 0.5928799 0.69402903 0.19606057 0.55409956 0.63906217 0.20630513 0.4617008 0.18599027 0.18676177 0.03736233 0.21146552 0.46479595 0.4069847 0.4804287 0.5420817 0.5033453 0.50633323 0.53519416 0.61503506 0.59385693 0.6777867 0.70316446 0.6878606 0.90973216 0.8512953 0.7376512 0.6413679 0.8718904 0.9084521 0.7642027 0.62854165 0.8188107 0.5666488 0.73163575 0.7733008 0.6318324 0.30574074 0.5905282 0.61958826 0.50657564 0.5209218 0.31834838 0.48649424 0.4068959 0.23924005 0.3191927 0.34787542 0.25040728 0.36582834 0.35342288 0.19930303 0.3124154 0.3743675 0.15007979 0.08391743 0.07358367 0.07563495 0.16714248 0.5740895 0.169637 0.06109281 0.3872649 0.46420556 0.5008478 0.6630708 0.2835859 0.38599923 0.4595143 0.5146367 0.6874099 0.5978081 -0.03780894 -0.18013524 0.080088146 0.008777551 -0.04768519 -0.03481133 0.27699187 0.4472458 0.5132898 0.5818094 -0.14961356 -0.1599867 0.43417406 0.44958115 0.6424399 0.5743877 0.38531235 0.41450512 0.5018177 -0.18357253 0.36895362 0.31597534 0.26363334 -0.06217204 0.26261452 0.2022364 0.18860355 0.12822857 -0.21004269 0.204566 0.17499177 0.18005592 0.10475468 -0.029200517 0.4573115 0.29453403 0.021078631 0.48739973 0.06780112 0.48557246 0.48772395 0.15907305 0.475281 0.4712254 0.25449535 0.46096253 0.2382428 0.29140103 0.4175183 0.34474546 0.26316136 0.3346413 0.24603921 0.2059927 0.09217836 0.27881926 0.006803736 0.12565222 0.2215763 0.14288624 0.13958412 0.27261764 0.3742085 0.40396154 0.3973499 0.2821737 0.044792987 0.41266137 0.3307587 0.37518775 0.4129398 0.41657043 0.38696194 0.09475466 0.040954493 0.39988458 0.45628196 0.04245106 -0.023720395 0.42764783 0.54395324 0.15190071 0.21213165 0.21507625 0.2366763 0.3808373 0.22866237 -0.04037248 0.17294842 0.29518387 0.30236322 0.2977731 0.0028383606 0.37768644 0.09608329 0.2523187 0.21789004 0.2770045 0.33586672 0.32398844 0.5580898 0.4412315 0.5823342 0.66140544 0.65092885 0.8490459 0.8601166 0.81062716 0.68031466 0.56714094 0.8295331 0.41336507 0.7691214 0.46994585 0.32316044 0.2870913 0.6402367 0.25911912 0.54006046 0.25718144 0.17308773 0.43149275 0.34455413 0.26283443 0.19386704 0.13082823 0.231046 0.2183599 0.15502003 0.2961291 0.19435397 0.19520737 0.18940714 0.106477186 0.0747343 0.058106527 -0.1952751 0.060714033 0.5548225 0.64151394 0.66127574 -0.043591693 0.40877762 0.49070656 0.55789787 0.62707865 0.6199756 0.34807324 0.003976986 -0.13951406 0.08930768 0.13228191 0.11007809 0.066135265 0.116224185 0.5878843 0.42487696 0.35212862 -0.17827491 0.040474985 0.03589972 0.5414007 0.44312117 0.38891396 0.27248126 0.44452193 0.49962214 0.0968107 0.3044242 0.31040204 0.24377349 0.27246195 0.3236537 0.29567796 0.12579662 0.12360729 0.1241566 0.25338987 0.08237177 0.4577778 0.44956756 0.44561782 0.09426567 0.4434867 0.12644225 0.40739265 0.1568081 0.37478954 -0.029006645 0.12037847 0.1993216 -0.016262917 0.014723446 0.15044169 0.027259685 0.22080585 0.048951242 0.2654656 0.30223602 0.30601034 0.3585313 0.3982806 0.38657343 0.049611628 0.37558013 0.047040477 0.15159154 0.31847033 0.37004054 0.07289288 0.09259008 0.30776733 0.35851628 0.20705801 0.2699151 0.28263026 -0.07633024 0.4030024 -0.028152794 0.26576287 0.08706488 -0.012515217 0.001793459 0.16701883 0.28511158 0.46276373 0.7329241 0.7052853 0.5726464 0.564923 0.7153436 0.6680195 0.44983184 0.33422226 0.67113596 0.34563136 0.28507936 0.56375426 0.4939924 0.22263034 0.36849856 0.40287447 0.33019263 0.18197665 0.33082277 0.40487343 0.431092 0.21218774 0.20875046 0.3321313 0.40922356 0.2184624 0.22592753 0.27275872 0.22031166 0.16371885 0.08436238 0.058703948 0.6027313 0.6618825 0.68323344 0.67280835 -0.18613248 -0.12118663 0.12369017 0.16013768 0.17138535 0.65924037 0.6511372 0.62410617 -0.16061756 -0.118851535 0.057947945 0.61515445 0.60230803 0.15762082 0.41169798 0.36776066 0.033067428 -0.28001454 0.22894667 0.3521521 -0.2927728 -0.29233035 0.079018086 0.24423382 0.39569148 -0.46663314 0.31996396 0.14302789 0.28072324 0.24131787 0.17730157 0.20658244 0.18321866 -0.42815387 0.14340053 0.36796048 0.21164452 0.11378968 -0.048138782 0.31106383 0.2394866 -0.17476787 0.15069562 0.12388246 0.5178658 0.08672745 0.6466094 0.55383915 0.14652753 0.6792686 0.60176206 0.10072089 0.14317112 0.54939246 0.5032804 0.48053414 0.5461404 0.3959699 0.2908022 0.29421437 0.3936473 0.3236215 -0.08825891 -0.12167758 0.5706089 -0.04293997 -0.072595984 0.26665753 0.3371024 0.3743955 -0.0995262 0.43162975 -0.027404789 0.38302657 0.30367514 0.023059543 0.10840933 0.09367385 0.23182534 0.25382674 0.12960836 0.042329162 0.5820963 0.5138093 0.42742878 0.4850523 0.5905436 0.3804653 0.3505813 0.5876987 0.3086406 0.5004955 0.19824536 0.41384488 0.2636984 0.35907304 0.442072 0.322522 0.4478438 0.436043 0.19629726 0.41027904 0.27390486 0.3208621 0.28617877 0.25449875 0.1602734 0.2346591 -0.05279637 -0.074535884 0.35421824 0.55054146 0.69442874 0.69450605 0.67367756 -0.3084529 -0.016640447 0.008744419 0.071207136 0.006797091 -0.068917945 0.64282525 0.5779905 0.39595568 0.4248222 -0.32112908 0.21605112 0.121580124 -0.054217964 -0.38785148 0.33696732 0.4290333 0.44819045 0.4464324 0.075806916 -0.1755144 0.43254715 0.27651125 0.1201975 -0.02152