# vtk DataFile Version 2.0
Really cool data
ASCII
DATASET POLYDATA
POINTS 10309 float
160.43983 69.55628 32.026978
160.3954 69.81792 32.384895
160.43234 69.9366 32.597862
160.45642 70.06645 32.916298
161.30289 68.16043 30.818657
161.21504 67.90691 31.490458
161.00923 68.03094 32.626534
161.30786 68.09901 34.366158
161.48215 67.49934 35.45177
161.16325 68.602425 30.760607
160.73831 68.71501 31.616657
160.6911 68.58026 32.47149
160.78035 68.61235 33.394596
161.3965 68.77134 34.620724
161.0997 69.391106 30.767216
160.5906 69.60404 31.561209
160.63203 69.44847 33.328125
160.95665 69.7165 34.18608
161.30853 69.713036 34.977028
161.26065 70.09849 30.769608
160.74976 70.37701 31.83831
160.5623 70.3546 32.456837
160.58777 70.132095 33.311207
161.07819 70.578575 34.214584
161.30879 70.6079 35.264236
161.2481 71.12138 31.889025
161.04962 71.04669 32.443974
160.99858 70.82349 33.32006
161.31735 71.69197 34.865505
161.33913 71.31716 35.232
161.3911 74.02458 34.471035
161.17332 73.957886 35.490917
161.3297 74.15197 36.22379
161.29471 74.674225 33.71733
160.85167 74.8538 34.88143
160.9076 74.663284 35.33126
161.0429 74.81083 36.156834
161.19646 75.69889 32.96266
160.96342 75.77437 33.45465
160.77061 75.49342 34.7892
160.74551 75.320206 35.249073
161.06395 75.31275 36.27445
161.28868 75.62944 36.66134
161.06508 76.4566 32.977455
160.85454 76.11835 33.764465
160.857 76.47166 34.310123
160.9933 76.481995 35.775715
161.18607 76.946526 36.39733
161.13445 77.35647 32.999664
161.10553 77.32764 33.282303
161.06062 77.2777 34.274208
161.31618 77.23526 35.508343
161.05151 77.90262 36.709183
161.27888 77.23918 37.018238
161.36734 77.98964 37.814095
161.25128 78.79015 32.748775
161.24187 78.52032 33.54079
161.35968 78.55446 34.79177
161.33298 78.49619 35.760902
161.01944 78.40294 36.535072
161.11664 78.395294 37.413956
161.35338 78.77681 37.926678
161.1803 79.47794 32.6401
161.03398 79.42526 33.330017
161.31119 79.35892 34.644547
161.37268 79.72102 35.92126
161.19022 79.24417 36.59389
161.27194 79.31345 37.333363
161.39984 79.18746 37.87166
161.2529 80.27348 32.684124
161.20335 80.485695 33.41857
161.28763 80.01131 33.955193
161.40778 79.759415 37.082615
161.4209 80.99176 32.928196
161.36424 81.14131 33.38818
161.4102 80.9911 34.099968
162.21236 65.32536 34.964523
162.08888 65.2354 35.717754
161.9282 65.77065 34.975163
161.82417 65.68686 35.4874
161.88007 65.8944 36.357426
161.98032 66.11385 37.407818
161.94322 67.32274 30.670753
161.96562 67.17934 31.277634
161.92401 67.28257 32.308853
162.16899 66.87355 33.848873
161.89601 66.4691 34.576225
161.66342 66.37911 35.37517
161.65158 66.54735 36.14654
161.91136 66.74037 37.474014
162.17476 66.837296 37.99168
161.96083 67.969635 30.086504
161.66669 67.72992 30.643923
161.56242 67.51798 31.22377
161.9807 67.31624 37.59368
162.24991 67.327736 38.075306
161.89095 68.68679 29.853863
161.4577 68.39564 30.440773
161.69653 68.02447 35.864857
161.72372 68.3222 36.33635
162.1403 68.36604 37.447346
162.31758 68.13366 37.947327
161.69301 69.30637 29.962784
161.72215 69.38023 36.10805
162.15614 69.67566 37.277622
161.86902 69.945114 30.039133
161.51804 70.28794 30.641487
161.59325 70.6126 35.64547
161.83093 70.48009 36.49535
162.21788 70.224106 37.199833
161.58293 70.76724 31.265554
161.62634 71.114815 31.5875
161.51292 71.4796 32.87249
161.57202 71.60801 35.909824
161.93631 72.265564 32.792797
161.69398 72.160904 33.14209
161.84517 72.31531 35.13394
162.23695 73.38503 33.207985
161.546 73.52345 34.321598
161.79518 73.74467 36.33267
161.82278 74.864845 32.68596
161.536 74.70689 33.30943
161.63417 74.47708 36.61662
161.71634 74.62798 36.810688
161.92363 75.77507 32.086327
161.55354 75.57937 32.53639
161.67361 75.55327 36.90758
161.7831 76.42642 32.101368
161.53558 76.83649 32.370804
161.97319 76.63518 37.362366
162.13362 77.4344 32.340538
161.56702 77.371574 32.46889
161.53227 77.90742 35.444637
161.80518 77.81032 38.231087
161.73178 78.921364 32.063503
161.75168 78.587875 38.319496
162.25287 79.60913 31.379086
161.60045 79.55575 32.00601
161.43073 79.68279 37.35358
161.68756 79.36241 38.12354
161.78809 80.417206 31.94248
161.4786 80.593475 32.37804
161.6629 80.27806 35.400944
161.6891 80.17299 36.570553
161.82884 80.11946 37.27505
161.88664 79.79913 38.059483
162.05469 81.161804 32.03705
161.7581 81.39281 32.637875
161.57762 81.49756 33.452366
161.68277 81.45123 34.17302
161.98459 81.20978 34.805214
162.1018 81.98421 32.96152
161.92583 81.93495 33.494617
162.03236 81.926704 34.120144
163.105 64.29799 36.71605
163.18884 64.33795 37.63134
162.6453 65.07402 34.94861
162.61157 64.92705 35.645607
162.48888 65.201485 36.87679
162.83588 64.754005 37.487057
163.28963 65.15362 38.538548
163.10909 65.37837 34.290054
162.37906 65.554825 34.443043
162.55998 65.2528 37.71502
162.62642 65.62987 38.098083
163.2331 66.04435 38.748417
162.51328 67.04332 30.698563
162.6593 66.84548 31.16251
162.61914 66.89544 32.1334
162.38228 66.822014 38.247265
162.88109 66.68121 38.67443
162.54784 67.677155 30.047806
162.5534 67.6159 38.318596
162.82574 67.167496 38.63751
162.51012 68.598755 29.661118
163.2084 68.38887 38.67385
162.5115 69.47525 29.608568
162.82555 69.79455 38.16376
162.60638 70.37306 29.956947
162.46075 69.925514 37.626125
162.99236 70.42305 38.10919
162.69601 70.652885 30.229876
162.86783 70.94459 30.608778
162.34879 71.66497 31.582
162.60997 71.140396 37.086494
163.0517 71.13723 37.71112
162.37096 72.178955 36.527615
163.03568 73.92987 31.862152
162.73425 73.54663 37.04727
162.84375 74.65219 31.744905
162.98206 75.51723 31.418518
162.4979 75.4765 31.76407
162.97455 75.754196 38.487656
163.26262 75.96387 39.18621
162.46304 76.556496 31.79039
162.49345 77.05476 38.666374
162.76176 76.66876 38.915718
162.73766 77.46499 31.738043
162.73578 77.66087 39.03423
162.32336 79.12762 31.505392
162.56343 78.4299 38.879642
162.85057 79.570694 31.09874
162.32341 79.677704 38.55415
162.72084 79.27299 38.85779
162.81734 80.41704 30.96371
162.37552 80.37241 31.40056
162.25778 80.49398 36.82878
162.32623 80.38347 37.456112
162.63976 80.165855 38.13043
162.9383 81.21689 31.14307
162.62717 81.33356 31.590366
162.55728 80.698524 36.434383
162.6184 81.78934 31.970755
162.67155 82.200005 32.692593
162.55489 82.30413 33.47345
162.55522 82.12306 34.194843
164.46228 63.992615 31.201267
163.32837 64.25177 36.215157
163.74924 63.901207 37.524403
164.3082 63.889046 39.313545
164.32578 64.65273 31.03256
163.44649 64.747986 34.94546
163.35431 64.46851 35.879868
163.45946 64.58209 38.335255
163.62717 64.9727 38.66158
164.37541 65.41218 29.859243
164.40935 65.450226 30.377117
163.67148 65.84459 33.095123
163.92099 65.58579 39.152176
163.77254 66.54574 39.091602
163.63152 67.75608 29.840014
163.47336 67.3148 38.87312
163.75624 68.762115 29.528437
163.65202 68.880936 38.76115
163.03981 69.49383 29.46114
163.58243 69.535484 29.61495
163.57968 69.26405 38.545876
163.69284 69.62693 38.716366
163.53488 70.16523 29.774372
163.54309 70.39176 38.629543
163.84929 70.3967 38.88889
163.67085 71.30915 30.581387
163.48485 71.35679 38.091778
163.8363 71.96898 31.120728
164.08618 72.370766 38.54709
164.10191 73.62505 31.240103
164.13539 74.00781 39.19502
163.5647 74.44441 31.19935
163.77371 74.40609 39.038506
164.09477 74.85896 40.10361
163.68793 75.410805 31.091568
163.60487 75.47295 39.54067
163.96864 75.66229 40.132713
163.81161 76.09945 31.256254
163.62064 76.33942 39.65015
163.93091 76.38124 40.00379
163.39528 77.53795 39.411045
164.11847 77.17546 39.89838
164.13097 78.06363 39.56736
164.20361 78.406555 39.719646
163.81036 79.983 30.46286
163.65106 79.71861 30.603043
164.2717 79.87789 39.53994
163.85008 80.41506 30.459414
163.55995 80.594055 30.542763
164.04964 80.28324 38.888264
163.6288 81.18484 30.727823
163.39505 81.48829 35.17132
163.31914 80.772354 37.271717
164.32788 81.10844 38.712418
163.78247 82.159294 31.708574
163.35365 82.47348 32.87238
163.46901 82.45098 33.30696
163.25365 82.1467 34.279392
163.83162 81.65844 34.837746
163.82736 82.657745 32.897
164.08711 82.67002 33.18525
165.3649 61.125027 33.78781
165.3585 61.12201 34.089756
165.17056 62.28787 31.02565
165.15549 61.659393 33.69673
165.15262 61.54002 34.504505
165.29121 61.61331 34.93621
165.23819 62.04693 39.08084
165.08217 62.11497 39.734596
165.24861 61.91786 40.564297
165.39445 61.939144 41.048573
165.09735 62.99902 29.67555
164.84729 62.8199 30.794361
164.87556 62.95301 31.578371
165.2602 62.528336 32.655697
165.02412 62.541206 33.62932
165.08676 62.98026 34.193375
164.99834 62.456955 35.42612
164.99825 62.91231 36.427193
164.79575 63.30986 37.866043
165.24756 62.761295 38.88678
164.88472 62.765053 39.57813
164.92943 62.655823 40.382576
165.32256 62.5416 41.364315
165.22754 63.86901 29.008492
164.89662 63.48661 29.679976
164.62634 63.662155 30.341642
164.67119 63.697365 31.316158
164.85727 63.51481 34.8417
164.78099 63.448208 35.333416
164.66798 63.570904 38.971073
164.7114 63.507416 39.09207
164.71309 63.438816 40.58079
165.1184 63.4659 41.27216
165.03925 64.78284 28.847702
164.64119 64.52756 29.733208
164.53802 64.52575 30.426584
164.59308 64.385376 31.534039
164.87927 64.51199 32.4331
164.99785 64.20402 33.885727
164.90877 64.64602 40.59188
165.09206 64.292366 41.134186
165.42825 65.95593 22.002447
165.37117 65.97399 22.460814
165.41888 65.97824 23.116589
164.638 65.15857 29.21557
164.57378 65.18155 29.510662
164.62917 64.99062 40.126617
165.13118 64.869705 40.984833
165.3371 66.56442 21.885374
165.26921 66.518974 22.401749
165.32698 66.5217 23.36361
165.33731 66.747505 24.338066
165.13455 66.359764 28.933073
165.39587 67.1866 21.81983
165.28136 67.38096 22.568499
165.24954 67.59364 23.281761
165.30577 67.51012 24.274355
164.31131 67.486145 39.008602
165.39885 67.95541 22.535955
165.24446 67.90668 23.301245
165.35324 68.06124 23.943802
164.71535 68.65995 29.158068
164.62318 68.32811 39.191185
164.85126 69.3486 29.249765
164.4704 69.95612 39.24369
164.9674 70.23901 29.167204
164.95085 70.31161 39.48332
164.90833 71.21773 29.880993
164.72983 71.47365 39.266994
[...]
POINT_DATA 10309
SCALARS features_00 float 1
LOOKUP_TABLE default
0.56403744 0.5157062 0.48893917 0.45015 0.57684433 0.5303459 0.48163128 0.2443923 0.3151937 0.6161295 0.60329735 0.53699195 0.4051164 0.19536832 0.6470443 0.602003 0.40785116 0.26912066 0.17762455 0.58615744 0.5145703 0.47739437 0.39990532 0.25822917 0.16297024 0.44064 0.4263608 0.37169772 0.15567166 0.15637441 0.31048116 0.3421955 0.33370417 0.3442091 0.38915843 0.3898872 0.36334622 0.38540024 0.3933072 0.3860171 0.38914806 0.35359758 0.31298977 0.37740138 0.38822624 0.3501357 0.31369603 0.30382866 0.3278539 0.32665288 0.2752752 0.26181576 0.3780626 0.332562 0.4296326 0.34543347 0.28030074 0.2252906 0.30572683 0.39682198 0.4653694 0.4876806 0.4376052 0.40160578 0.2917563 0.37295008 0.43790486 0.4814126 0.4917662 0.5151306 0.5007875 0.41599572 0.46011218 0.55951 0.5514598 0.49045685 0.35586753 0.40733874 0.37601742 0.41359925 0.4801734 0.44433796 0.51236504 0.46341985 0.36332828 0.23595722 0.35542396 0.4189238 0.4633673 0.40825087 0.37515327 0.5703819 0.5448368 0.50321615 0.36052597 0.33966243 0.61419606 0.60255 0.25785714 0.2521173 0.28021947 0.29000264 0.6296706 0.17834437 0.20690383 0.56457746 0.55220646 0.16271764 0.17736258 0.18853623 0.48304433 0.43846464 0.35288587 0.14267913 0.19805273 0.20677693 0.11612532 0.029331952 0.19873579 0.25062135 0.32641405 0.33241922 0.2982505 0.27167147 0.33212164 0.36268044 0.25771946 0.3347879 0.3405831 0.22774053 0.2906995 0.31452212 0.24947535 0.3752099 0.34957016 0.45589054 0.43929303 0.4418053 0.47184306 0.48103917 0.5264509 0.5405576 0.33875394 0.4080242 0.43609732 0.458883 0.5780513 0.58941984 0.57217675 0.5226896 0.4406718 0.6030291 0.5872568 0.55134815 0.34455487 0.322627 0.33212364 0.37750858 0.45555955 0.40083224 0.34638798 0.22481757 0.30327177 0.42624485 0.40667176 0.3634678 0.46864223 0.38908643 0.28789696 0.36334908 0.3489625 0.551245 0.307141 0.3167991 0.5638722 0.2503134 0.5070849 0.21202907 0.42292607 0.20462477 0.19446771 0.38866264 0.34059715 0.33141738 0.16599204 0.163399 0.06985085 0.2166912 0.010930859 0.26144367 0.25355986 0.2903059 0.13997822 0.17396829 0.28544593 0.21863757 0.17958006 0.22404693 0.23396382 0.36255348 0.32621735 0.41777295 0.42028052 0.34120935 0.49782354 0.5127778 0.3594213 0.38580883 0.368858 0.5444951 0.57628506 0.28497887 0.5968032 0.5814509 0.55662733 0.51966476 0.24904352 0.27201286 0.17665447 0.2302699 0.2451216 0.2073387 0.2721246 0.28961295 0.2974953 0.24333695 0.22848216 -0.09515933 0.2575079 0.27851635 0.4175443 0.2730092 0.2979328 0.2125665 0.398041 0.2820156 0.20945717 0.19236505 0.24993618 0.17938745 0.16851774 0.14580403 0.13318752 -0.00065844133 -0.023751907 0.10392762 0.060965348 0.21846245 0.1255825 0.19617335 0.20351854 0.1921906 0.21201465 0.1887334 0.17676803 0.18474877 0.16605805 0.14947592 0.113785475 0.094684064 0.3749631 0.3669673 0.17282255 0.3994246 0.4407754 0.20426187 0.47462505 0.31899375 0.195271 0.2729667 0.51566213 0.4889446 0.4429687 0.42200148 0.31337628 0.42479205 0.37244755 0.15524322 0.1648459 0.2236718 0.1492573 0.1660052 0.16117111 0.23379073 0.33917934 0.44977254 0.5028168 0.30108395 0.27237785 0.17676508 0.07776021 0.109960854 0.117310725 0.1387451 0.0026341826 -0.026635274 0.1763387 0.30342203 0.43826097 0.54375684 0.23141807 0.2952094 0.29414314 0.23209232 0.058549855 0.03855934 0.16523063 0.19342561 0.48059535 0.52774775 0.20675167 0.28110772 0.2851186 0.20233285 0.030046288 -0.058377665 0.40614915 0.4611469 0.6856579 0.6521696 0.5875507 0.23803157 0.25447136 0.3098929 0.39210495 0.7109134 0.6678909 0.5902576 0.5246981 0.12704657 0.71569794 0.65884817 0.61866266 0.56537384 0.17894912 0.64693993 0.6137636 0.57598037 0.03421937 0.11811359 0.042019628 0.13198948 0.07114677 0.06355389 0.099293 0.048975408 0.13710922 -0.060391873 -0.06499843 -0.032479733 0.10383566 0.10146105 0.1383518 0.30336642 0.34333938 0.10815683 0.29826182 0.3659071 0.082013726 0.28308856 0.34978122 0.02959865 0.123935685 0.18091166 0.032536857 0.2757613 0.21941236 0.15498939 0.34148565 0.28509152 0.2818934 0.41338563 0.2367554 0.31473416 0.3474285 0.338016 0.42986476 0.43466806 0.26051056 0.20151386 0.32173023 0.36328724 0.39118004 0.39657342 0.43917745 0.38031814 0.28022075 0.1007713 0.093427524 0.15008616 0.13677664 0.14762394 0.31564978 0.41057462 0.50291353 0.54995656 0.20412457 0.11850291 0.13586229 0.09124231 -0.054924034 0.42489398 0.5287008 0.56145287 0.20945807 0.044718772 0.5547166 0.55913585 0.14654116 0.52621776 0.6179848 0.5916449 0.35855573 0.278291 0.07104511 0.168583 0.46313378 0.44746315 0.6981096 0.6858928 0.6355474 0.55537546 0.43046215 0.34579253 0.08645299 -0.025639713 0.23118007 0.344841 0.7743762 0.7428484 0.5351565 0.4629777 0.2005299 0.047955528 -0.041089207 0.7736937 0.72206247 0.6757736 0.4677726 0.009110048 -0.086163245 -0.062130153 0.7344471 0.68828785 0.63238406 0.5838053 0.5262004 0.32960576 0.2340981 -0.027442455 -0.012230448 0.6074972 0.561911 0.5088009 -0.032369994 -0.014139704 0.009169411 0.15041822 -0.11626001 0.2336227 0.2654072 -0.06373095 -0.07920876 0.24594755 0.23137265 0.08233328 0.18168071 0.27522215 0.28121588 0.36520976 0.011568576 0.40367943 0.03402708 0.38370886 0.19978657 0.007089531 0.1888279 0.16955516 0.2448067 0.33167404 0.33357617 0.37662032 0.21570037 0.2950281 0.40553015 0.39808187 0.3972848 0.3378456 0.14541127 0.24584103 0.30688518 0.37287712 0.41344786 0.4373627 0.43163788 0.4067596 0.27591494 0.20992611 0.22460589 0.32710922 0.3703974 0.42198816 0.33729547 0.41541982 0.45906794 0.45847687 0.23561132 0.31274518 0.38134342 0.42071876 0.41141406 0.42092842 0.27382502 0.27202564 0.30796412 0.3032934 0.16109613 0.09102604 0.10491271 0.12911917 0.22217762 -0.017514952 0.15986687 0.16530597 0.09509754 0.043315705 0.030256867 0.027221156 -0.03344407 -0.060528323 -0.11532011 0.10688531 0.034254946 0.010490887 -0.016673306 0.13541596 0.40772492 0.50545526 0.55255246 0.015806492 0.004797956 0.5612824 0.55198437 -0.08839594 0.54575396 0.5284299 -0.20473267 0.4827727 0.50405276 0.5567522 0.44978574 0.35466626 0.21613714 0.09883606 -0.12518485 0.42402178 0.63013077 0.5912106 0.06374824 0.30742496 0.7577224 0.082158834 0.78192973 -0.16996533 0.7255341 0.66987985 0.6232319 0.20690942 0.6133954 0.5650021 0.5325633 0.4277814 0.3002832 0.21813062 -0.2146528 -0.25918373 0.16129522 -0.20325795 -0.17590225 -0.011231378 0.28557593 0.08836076 0.13435304 0.3156927 0.11327998 0.26662078 0.22757725 0.24593942 -0.057864785 0.3882969 -0.041844413 0.38101757 0.32987145 0.34547865 -0.012462396 0.20953947 0.00927813 0.008497138 0.3994589 0.4057623 0.4757052 0.1349563 0.421861 0.48146808 0.19127572 0.46928096 0.46166354 0.14630115 -0.028476816 0.4809692 0.49797997 0.5288223 0.3085274 0.20307507 0.073406085 0.01236151 0.2928691 0.38711187 0.41978854 0.4578061 0.1402624 0.8365772 0.7455963 0.81662655 0.87571526 0.8943968 0.67664146 0.80521667 0.8564074 0.87542593 0.67359686 0.76493883 0.8058189 0.83652437 0.7268492 0.702797 0.6625804 0.6964314 0.6676173 0.63948834 0.59224737 0.6271257 0.6253207 0.6026734 0.54407823 0.49439323 0.26246336 0.37526068 0.554707 0.5585377 0.5290681 0.4568203 0.2992907 0.21591915 0.28944635 0.39903417 0.45879543 0.46500054 0.44188905 0.5339154 0.51087606 0.4672548 0.31490907 0.13663721 0.22547466 0.4718141 0.46786308 0.44959176 0.3582067 0.54371583 0.49190843 0.38542998 0.30159396 0.1467827 0.113001406 0.40984285 0.3473921 0.28648272 0.3105822 0.32917225 0.350489 0.36215317 0.53697807 0.47402212 0.3970076 0.303456 -0.018578138 0.005225688 0.01879081 0.07683925 0.20859078 -0.029483095 0.14130408 0.18297748 0.18031375 0.2857558 0.3006347 0.34609267 0.3381396 0.49778083 0.45081306 0.39958498 0.29550296 0.09020275 -0.05414316 -0.08921877 0.13408183 0.18987013 0.31525698 0.3259727 0.41268948 0.37334585 0.1994748 0.026128262 0.06557855 -0.02087069 0.062919766 0.25633264 0.012992118 0.46966743 0.27453548 0.06459643 -0.02676227 0.5118775 0.5373868 -0.1658662 0.4715966 0.26181123 -0.19827938 0.38262758 0.3335777 0.17290388 0.18535022 0.19433115 0.47331804 0.6395342 -0.066121966 0.7057804 -0.27735683 0.5979845 -0.3572429 -0.033751607 0.118180245 0.4827423 0.4029723 0.2787313 0.21644689 0.126103 0.30352435 0.032177188 0.33813736 0.13316436 0.14654686 0.31131807 0.17155834 0.15517814 0.27738494 0.2283728 0.18895994 0.14037369 0.074413866 -0.2574378 0.24310958 -0.12336506 -0.13228479 0.26431447 -0.11435036 0.33070752 -0.068245016 0.53567207 -0.05978597 0.59987825 0.34771317 0.07850893 0.5931425 0.33885092 0.40243116 0.3875337 0.11104281 0.58891416 0.35427278 0.45893586 0.43728268 -0.0709905 -0.007109469 0.05370994 0.1898501 0.52554166 0.58405143 0.37147826 0.45444012 0.43519792 0.18810911 0.045231164 0.19816959 0.2689549 0.33740848 0.41560602 0.5030954 0.40280837 0.2250976 0.068412945 0.038255416 0.740828 0.83717465 0.88579047 0.9151211 0.48568743 0.46087813 0.3828056 0.22686549 0.6255433 0.6982202 0.80512494 0.90037876 0.90988183 0.5276298 0.57834595 0.6524766 0.8808105 0.48979467 0.5416318 0.68200314 0.77287334 0.8086779 0.51102376 0.56774354 0.64995676 0.6813806 0.70102465 0.5304277 0.5479586 0.78275514 0.7702379 0.52375335 0.554782 0.5682509 0.56837386 0.7800195 0.7719811 0.7467133 0.68895805 0.43307152 0.4867484 0.49645567 0.528245 0.70328295 0.7385131 0.56871474 0.30315316 0.30485925 0.33596665 0.45122194 0.65902174 -0.005510712 0.025280917 0.08198669 0.4038664 0.35524306 0.4394235 0.457346 0.5917602 0.3088889 -0.010935541 0.11149266 0.440249 0.39272156 0.42748228 0.44740188 0.41639584 0.37344843 0.3334521 0.33262813 0.4262721 0.4537801 0.44995093 0.54845047 0.01866106 -0.16539851 0.3988035 0.20242426 0.3106718 0.38715437 0.40044022 0.37369126 0.3594215 0.357074 0.37552828 0.4075783 0.40142986 0.5476482 0.29865003 0.11147641 0.27668613 0.34931976 0.34280828 0.3051641 0.5234724 0.052440472 -0.19722262 -0.030003086 0.3387435 0.30077603 0.28739598 0.4869672 0.47542912 0.31142467 0.2982095 0.2734488 0.39689118 0.3995045 0.24275312 0.27007222 0.35589138 0.35684448 0.32330406 0.10270943 0.39220467 -0.05366747 0.3893233 0.36932582 0.2714714 0.038099453 -0.015824545 0.03017774 0.14890622 0.3959778 0.33718365 0.2123045 0.100825995 0.13034564 -0.09322255 0.39984354 0.32624653 -0.061358232 0.0026363283 0.33436677 0.32012004 0.003002679 0.07152418 0.17220184 0.5058596 0.13583009 0.21543355 0.2626365 0.30109462 0.057150893 0.15382281 0.24073389 0.30939728 0.3398357 0.3643661 0.2701333 0.12057753 0.03450671 -0.064471036 0.09930954 0.1843175 0.26483712 0.34413898 -0.03649938 -0.07831086 0.14823619 0.20336094 0.2643683 0.32376534 -0.095607005 -0.013666671 0.14387678 0.18537727 0.056636304 0.18495461 0.23993123 -0.027886122 0.346098 0.1131241 -0.21500175 0.15948936 0.10725259 0.17780311 0.13368352 0.08826423 0.5515962 0.4523001 0.36642012 0.11344136 -0.011881806 0.03320405 0.33964333 0.64623094 0.5849753 0.4887609 0.38353705 0.27412447 0.040214118 0.38899258 0.505309 0.6298038 0.5905359 0.4927206 0.37042537 0.20428303 0.2533617 0.19263579 -0.06411375 -0.16811639 0.64085144 0.57835406 0.51396936 0.36125255 0.24471729 0.19362023 0.24737069 0.30389884 0.2794478 0.1872668 0.3677272 0.27816334 0.1606878 0.19080034 0.28056115 0.19938362 0.078632675 0.6304905 0.100440934 0.06182989 0.21841387 0.28120008 0.086809576 -0.10191547 -0.11908928 0.22954912 0.28071892 0.2728175 0.47618452 0.59644556 0.24614978 0.16134132 0.21803331 0.34587815 0.41660276 0.3426656 -0.052201822 0.044512376 0.11042691 0.080410205 0.009877281 0.19375408 0.35413176 0.34734684 0.35403147 0.27231827 0.31655377 0.395617 0.40865666 0.36413744 0.21267523 0.28821912 0.33951068 0.045632925 0.02544706 0.6655456 0.84057873 0.9108484 0.9052073 0.44034177 0.4036919 0.35677516 0.49294597 0.5372752 0.4523093 0.30272967 0.57788384 0.8757113 0.8697977 0.60336095 0.59113216 0.5575174 0.468203 0.4850036 0.8473278 0.61708915 0.5912527 0.43316776 0.7830063 0.8058445 0.38706973 0.4978824 0.61120236 0.6557836 0.47512555 0.49691933 0.5204537 0.546316 0.4675429 0.4875185 0.54507923 0.58351505 0.60189366 0.6412102 0.7909985 0.78632945 0.7667544 0.7465265 0.5303744 0.5722778 0.6005025 0.61238253 0.6041118 0.7945474 0.6087326 0.5482712 0.5391145 0.73461884 0.035696946 0.13345365 0.40557572 0.413983 0.3832823 0.6741986 0.4851033 0.4665343 0.41309428 0.33981976 0.35680753 0.41614532 0.4477625 0.43491608 0.6276067 0.34436506 0.31841063 0.37935585 0.45811388 0.4680011 0.45200926 0.38899946 0.35904792 0.43982005 0.37807345 0.5837525 0.16383894 0.27443784 0.34583664 0.27681735 0.5281056 0.3659913 0.25893086 0.31022844 0.23612702 0.45110357 0.24769232 0.25642878 0.2553097 0.24334577 0.4124674 0.35841158 0.21858639 0.29919046 0.43713772 -0.14413066 -0.16189426 -0.04005608 -0.14426933 0.4427171 0.39859048 0.22445592 0.44129813 -0.10118009 0.40101904 -0.005577985 0.24550396 0.06829418 0.10530642 0.16608655 0.21288078 0.105783805 0.21793377 0.27161485 0.26649767 0.12318434 0.3414413 0.32744294 0.20211843 0.036043175 0.028832138 0.013873026 -0.117001176 -0.15238339 -0.37547088 0.37293655 0.3312142 -0.20672199 0.22904512 0.370916 -0.05468546 -0.30411103 -0.3442318 0.028822422 0.12109901 0.28407723 0.35427597 -0.04974157 -0.023281813 0.15007365 0.3167593 0.45364642 0.63113105 0.31360343 -0.08756501 0.21112502 0.43674317 0.5884409 0.6873625 0.24955933 -0.025927596 -0.07205377 0.49188536 0.5550272 0.64231443 0.7126725 0.43460292 0.44080722 0.44894823 0.21530506 0.24397396 -0.060923673 -0.05420309 -0.0140129365 0.43981555 0.4215158 0.40574977 0.40518343 0.37699646 0.32127076 0.1896361 0.16691731 -0.08275115 0.57540196 0.5208452 0.44053823 0.3833467 0.3425696 0.29492658 0.23342548 0.18929279 0.16167954 0.62760204 0.24039923 0.11321965 0.080439255 0.088451914 -0.0054481477 0.3884539 0.6165748 0.16150072 0.1251475 0.027523689 0.011768132 -0.04937836 0.56598395 0.17671816 0.063693404 -0.18765774 -0.14704902 0.57662463 0.3936561 0.3389916 0.15458009 0.115716375 -0.15442039 -0.2364291 0.030149966 0.5947333 0.17146072 0.119639084 0.030484132 -0.07309601 -0.06477696 -0.045541413 0.038910486 0.39434892 0.4701545 0.37972754 0.23331395 0.20578173 -0.018098783 0.56629354 0.46454298 0.4187014 0.39752072 0.017750736 0.55925244 0.39072317 0.8565513 0.87712157 0.842729 0.58917904 0.5452237 0.48285332 0.462299 0.4129404 0.28154632 0.32432684 0.38152823 0.34131953 0.582219 0.12513192 0.031389512 0.64223385 0.5587243 0.50730336 0.43463182 0.25653127 0.48789817 0.8163253 0.7989982 0.5532448 0.52334416 0.50022197 0.45353985 0.649963 0.6419128 0.48703864 0.35841623 0.55564845 0.49668133 0.48497707 0.46827698 0.41535693 0.33419707 0.20642206 0.71146184 0.78662527 0.5356817 0.52368677 0.6499208 0.64291036 0.6031521 0.5298912 0.50242925 0.47959352 0.4410888 0.41910762 0.39759815 0.36569938 0.1133874 0.2760688 0.6708802 0.47015452 0.4602816 0.42115605 0.39851788 0.3720002 0.1874758 0.25286815 0.51857656 0.29171395 0.51528513 0.41585273 0.39394528 0.42661923 0.48336017 0.38020873 0.5401143 0.5969125 0.62610555 0.50738233 0.5450132 0.6037422 0.6481033 0.64068794 0.7637849 0.7565367 0.45452034 0.60556424 0.5446141 0.76511896 0.7593291 0.7143439 0.20651624 0.32961392 0.5052829 0.47437477 0.32862023 0.33062008 0.69345975 0.71788543 0.35966992 0.3053745 0.3445167 0.35804665 0.38797086 0.32866386 0.29950115 0.2816757 0.6445601 -0.063524194 0.47965878 0.4870574 0.4271132 0.38353175 0.35291386 0.36328492 0.31830022 0.28749424 0.28017083 0.615492 -0.087253004 0.03643498 0.38406348 0.42171347 0.46892908 0.27609137 0.25138023 0.49849403 0.035801712 0.24608257 0.22069559 0.26720572 0.33350837 0.38075694 0.42768222 0.16535336 0.14846241 0.36377102 0.39186922 0.38417664 0.10069737 0.26417047 0.34722567 0.42430282 0.44882703 0.3004645 0.27214625 0.18718633 0.20575677 -0.018738538 0.25985804 0.18151022 0.27999094 0.30836844 0.34604293 -0.2103629 0.22402209 0.33964765 0.37967357 0.4047742 0.4039891 0.4807605 0.40657496 0.3566833 0.1377056 -0.27156132 0.33222905 0.39362758 0.43271524 0.42581898 0.39744738 0.49705756 0.47255552 0.31364048 0.41120613 0.4290191 0.39694 0.35458252 0.5100976 -0.098759346 0.2557014 0.39423615 0.34818667 0.31383246 0.49392992 0.035441257 0.11083848 0.04017382 0.2077973 0.2295767 0.14086033 0.1820302 0.38537624 0.048610546 0.2700469 0.3988486 0.43896505 -0.039726824 0.2734739 0.24623379 0.42465043 0.0677139 -0.08994475 -0.28198573 -0.36183333 -0.5745925 0.21187128 0.1285507 0.17870563 0.20093131 0.12756044 0.23371789 -0.11381258 -0.10707397 0.49117386 0.16358459 0.08519011 0.6350356 0.27047497 0.7075065 0.47777453 0.49676973 0.49876994 0.3377677 0.3331936 0.7151605 0.73365766 0.45249766 0.47691432 0.43157405 0.30646744 -0.043953296 0.45478773 0.61129326 0.7021721 0.7341305 0.45021373 0.42477712 0.3003777 0.2286084 0.22493137 -0.10804741 -0.10487807 0.5640033 0.5214031 0.17979829 0.06629546 0.11987927 -0.44313097 0.5758585 0.595219 -0.33507624 0.5522238 0.031167034 0.5232195 0.5515306 0.4696738 0.4514612 -0.45824024 0.14881541 0.23909175 0.40067598 0.48458526 0.55302036 -0.35054654 -0.13756937 -0.14817834 0.03772223 0.10793194 0.22848573 0.23403236 0.18227094 0.26205504 0.41975582 0.5068644 0.4784221 0.29323238 -0.16684365 0.1852106 0.13750903 0.1754824 0.3059674 0.44440448 0.47959366 0.4587137 0.12580839 0.6304234 0.52084386 0.08709459 -0.034903016 0.2260723 0.3689377 0.30956858 0.28512508 0.581251 0.096851245 0.14884222 0.6551124 0.37556368 0.09991657 0.05030388 0.036868826 0.001352394 0.20446992 0.24382818 0.23545215 0.67925364 0.7959946 0.61817396 0.6181245 0.1717083 0.20803277 0.24884084 0.17601949 0.06080813 0.100718595 0.12367855 0.69542044 0.14733513 0.10349883 0.07820637 0.7456781 0.73848104 0.6013676 0.5690868 0.5404895 0.4669341 0.21816337 0.16974708 0.5853268 0.43347627 0.32982594 0.5874722 0.54610217 -0.043210298 0.6627705 0.54691976 0.54087424 0.51775455 0.45829248 0.6399611 0.6637023 0.61695844 0.52125615 0.5277726 0.48626983 0.20955554 0.038620934 0.5270092 0.504581 0.4726692 0.44959122 0.42802358 0.385926 0.35488108 0.28975606 0.19765647 0.46255207 0.37804097 0.09837039 0.42502934 0.45294368 0.087781094 0.38745964 0.33164102 0.3380866 0.3488792 0.49371815 0.53341717 0.60722667 0.63963425 0.41567975 0.44638228 0.63841534 0.23619127 0.5521564 0.34161252 0.7256272 0.69556177 0.44990802 0.32451043 0.34431306 0.33577323 0.6504055 0.42496246 0.16454315 0.26939744 0.24617967 0.28570783 0.30664963 0.28015107 0.2661999 0.2819212 0.6051557 0.51352644 0.47702068 0.3419159 0.15255296 -0.07019195 0.40385574 0.3287402 0.3238802 0.27697617 0.28957206 0.5738933 -0.23623823 0.40572476 0.3753883 0.37064636 0.2459191 0.264161 0.29753911 0.32397634 0.43025687 -0.21579319 -0.16758993 -0.10754236 0.35419682 0.36592978 0.39332414 0.3142541 -0.13852444 0.41944218 0.4682722 0.2539435 0.1953142 -0.115073 0.06874582 0.18107796 0.45892328 0.49420607 0.14690489 -0.0044332817 0.18172285 0.29418683 0.4285309 0.47372815 0.50758755 0.12842318 0.119630404 0.097094715 0.074998125 0.317823 0.3809306 0.4348619 0.40117246 -0.28385723 -0.25057498 -0.24638125 0.36708918 0.40510827 0.43359017 0.4455041 0.31254226 -0.11739564 -0.33164838 -0.33785808 0.1844201 0.36976406 0.3373533 0.26680768 0.39538765 -0.24780315 -0.04826863 0.34064794 0.2932208 -0.16605568 -0.1391212 0.25612596 0.24083713 0.6585133 0.6137596 0.18266584 0.2775482 0.6221969 0.58753407 0.49387074 0.36598516 0.43231806 0.56980854 0.5130853 0.42659253 -0.058071766 0.47361666 0.49111274 -0.016587581 0.010847179 0.25821352 0.41641343 0.47765338 0.15840614 0.14294393 -0.057219546 -0.5751375 0.09678865 0.3411309 0.22826172 0.27438465 0.24304315 0.1337277 0.041157484 0.18093756 0.112776116 0.116418034 0.049692243 0.3566173 0.38396662 0.3082596 0.2274523 0.16087794 -0.043159828 0.3255639 0.4501649 0.065370046 0.60886776 0.4663103 0.14103267 0.16566229 0.70319813 0.47863692 0.48098278 0.3513168 0.1286701 0.7110072 0.50896364 0.19991708 0.12411235 0.3867753 0.52676934 0.7024398 0.71291727 0.14192884 0.009276405 -0.15168843 -0.05455251 0.4882117 0.6439364 0.49834353 0.15878077 -0.29774952 -0.16080165 0.54061615 0.5210069 0.017821565 0.46462327 0.12639661 0.23854026 0.5417701 0.6076383 0.6490656 0.6