# vtk DataFile Version 2.0
Really cool data
ASCII
DATASET POLYDATA
POINTS 10406 float
113.30039 49.99862 32.56907
113.32262 50.032116 33.127934
113.32879 50.576157 31.951393
113.16436 50.622337 32.513493
113.273315 50.593056 33.28569
113.3165 51.083508 32.022594
113.24366 51.219624 32.532974
113.290436 51.1251 33.12419
113.45335 61.519123 29.646395
113.427155 61.53469 30.172646
113.23964 63.25547 22.946085
113.27073 63.264362 23.149582
113.40286 62.50248 29.708265
113.427734 62.39811 30.492313
113.30244 63.83702 22.00436
113.166115 63.66484 22.57875
113.110794 63.713505 23.498219
113.155846 63.790737 23.936153
113.4597 62.935154 29.978207
113.46005 62.907562 30.302517
113.17989 64.65341 21.923471
112.96442 64.539215 22.621334
112.888794 64.47394 23.418856
113.10527 64.72391 24.170069
113.182205 65.33094 22.086697
112.92096 65.48555 22.698612
112.90054 65.59848 23.448006
113.18931 65.58982 24.253294
113.30605 66.08292 22.285034
113.12839 66.34515 22.750866
112.979576 66.45185 23.470043
113.17174 66.47923 24.04295
113.22355 66.798035 22.916805
113.207375 66.89691 23.49776
113.32355 66.87947 24.022114
114.156975 45.90173 35.86858
114.072945 45.868122 36.483105
114.18425 45.907776 36.951706
114.17825 46.76325 35.21249
113.88109 46.561493 35.720913
113.751335 46.626183 36.414444
114.03113 46.47668 37.09587
114.204865 47.743355 35.126945
113.70156 47.3698 35.859375
113.691414 47.40569 36.27966
114.05717 47.312973 37.165077
114.240524 49.16981 32.0064
114.00733 49.129345 32.497112
113.887825 49.218227 33.0841
114.08842 49.308895 33.841377
113.87172 48.10113 35.7631
113.92284 48.145603 36.227028
114.28825 48.027782 37.044125
114.084305 50.156044 31.238398
113.64902 49.891712 31.858015
113.58732 49.600704 32.47494
113.57403 49.787727 33.507385
113.805046 50.052418 34.13601
113.93653 50.404285 31.268524
113.51645 50.482094 31.682383
113.443146 50.719936 33.635498
113.71524 50.614594 34.04456
114.10685 51.240963 30.928831
113.57014 51.54493 31.835634
113.46117 51.521057 32.475143
113.52136 51.4029 33.22767
113.891754 51.13948 34.03993
114.09297 52.250427 31.86973
113.70721 51.95482 32.567936
113.90035 51.997044 33.15839
114.28238 51.906704 33.867016
114.37241 56.055573 26.829712
114.33155 56.082623 27.338186
114.31423 56.483307 26.82722
114.3101 56.42156 27.517588
114.42746 56.650253 27.864002
114.40639 57.00598 26.849556
114.34807 57.023945 27.276005
114.44315 57.16856 27.96723
113.93852 60.022278 29.70438
113.94357 60.09073 30.150148
113.959274 60.57547 28.84738
113.68906 60.543922 29.555532
113.78989 60.473053 30.339725
114.047935 60.62808 30.89286
114.46625 61.03858 40.712242
114.33043 62.06354 21.803326
114.20175 61.89674 22.670023
114.207726 61.954895 23.121462
114.32307 61.50113 27.809269
113.6734 61.641495 28.921877
113.53135 61.411995 29.209515
113.59595 61.48246 30.59878
113.79706 61.653896 31.0755
114.41913 61.60848 40.662224
114.41537 61.57382 41.320686
114.11921 62.633606 21.70067
113.75932 62.6865 22.612564
113.635544 62.93636 23.554548
114.22867 62.400875 28.145496
113.9156 62.47454 28.730246
113.49225 62.30384 29.329987
113.50697 62.43468 30.706942
113.8253 62.448174 31.240366
114.40598 62.52046 40.87419
114.37579 62.45616 41.402046
113.9252 63.736942 21.270927
113.59482 63.808895 21.621002
113.48224 63.84994 24.294054
114.11604 63.6199 24.680498
114.03943 63.10865 28.8997
113.68719 63.17903 29.622482
113.611046 63.14243 30.511444
113.87986 63.167942 31.026299
114.41942 62.9122 41.239933
113.76942 64.47421 21.283339
113.53799 64.47992 21.492554
113.76938 64.65607 24.790455
114.15945 63.740513 29.859999
114.03934 63.65004 30.37126
113.92461 65.00862 21.31362
113.55596 65.27756 21.683514
113.42277 65.38735 24.548456
113.79694 65.56886 24.804638
113.64788 66.32588 22.12923
113.44915 66.58048 22.436531
113.510506 66.52526 24.431759
113.85442 66.4171 24.755083
113.65595 67.047356 22.729498
113.5981 67.206825 23.521763
113.72538 67.05804 24.1392
114.792885 45.382576 36.107216
114.79688 45.320866 36.516533
114.90874 45.307713 37.02449
114.742 46.07864 35.247486
114.598915 45.672256 35.770687
114.430466 45.509106 36.465084
114.65162 45.710052 37.21115
115.07033 46.023815 37.81364
114.66122 46.57691 35.088806
114.45214 46.29073 37.496483
114.552216 46.62206 37.684586
114.66717 47.31608 37.766033
114.70694 49.173172 31.584599
114.65699 48.85071 32.374695
114.43094 49.005333 33.526848
114.74327 48.55646 37.15337
115.17569 48.258324 37.71113
114.93791 49.483845 31.014582
114.413124 49.495277 31.440273
114.688614 49.626423 34.62853
115.023224 50.663834 29.890705
114.370834 50.353218 30.939386
114.37953 50.417774 34.709072
115.491234 51.53029 22.316355
114.94461 51.446575 29.774197
114.49801 51.07868 34.50864
115.001595 52.285294 29.878798
114.5264 52.491283 30.565443
114.46957 52.597046 31.568525
114.37865 52.625324 32.94092
114.889534 52.322803 34.04383
115.01924 53.122364 30.61032
114.981804 53.15221 31.52305
115.09461 53.17024 32.173782
114.85406 52.841213 33.444115
115.18281 54.732887 25.546759
115.02235 54.908028 26.568623
114.948135 55.261803 27.566353
115.03639 55.16088 27.956516
115.291504 55.9518 24.745243
114.768654 55.750595 25.831505
114.649345 55.61686 26.495302
114.574234 55.522194 27.400457
114.66061 56.01297 28.28543
115.159546 56.70045 24.36432
114.70507 56.40196 25.756773
114.56329 56.13615 26.2873
114.57907 56.33415 28.156511
115.09382 56.669567 28.902296
115.33033 57.10146 35.668045
115.3426 56.720715 36.509342
115.360344 56.91803 37.038143
115.255745 57.159515 24.08948
115.109184 57.61751 24.71144
114.91157 57.479515 25.555786
114.6265 57.452778 26.58702
114.55113 57.43857 27.384943
114.8116 57.4038 28.315441
115.07048 56.975628 29.04721
115.28237 58.15524 34.044056
115.36702 57.93563 34.393646
115.218025 57.546444 35.76634
115.22341 57.47125 36.42293
115.28436 57.66886 37.25836
115.27062 58.011036 24.58223
115.13786 58.217617 25.324835
114.90803 58.176125 26.3897
115.15611 58.591343 27.104876
115.00809 59.218052 29.270033
115.39519 58.783993 32.7636
115.24468 58.578583 33.43856
115.21832 58.36242 34.573742
115.28921 58.252197 35.683945
115.36118 58.06514 36.599964
115.26764 58.34218 37.52267
115.36435 58.173874 38.011974
115.41875 59.718975 21.983644
115.449066 59.39097 25.372879
115.44075 59.67537 26.24867
114.94484 59.98826 27.721144
114.67386 59.852837 28.512018
114.58941 59.580498 29.345667
114.465164 59.809456 30.523136
115.30372 59.510227 32.854347
115.23912 59.810894 33.22481
115.10827 59.649944 34.703056
115.388756 59.58666 35.594692
115.13221 60.094494 39.905098
114.99884 60.00462 40.603123
114.97834 60.162025 41.2031
115.12416 60.642197 21.662836
115.05106 60.72956 22.529129
115.331314 60.666714 23.663748
114.90744 60.58669 27.407814
114.723114 60.515743 31.398607
114.87907 60.548058 32.2857
114.782875 60.37746 33.70922
114.63996 60.778164 34.532166
114.94545 60.532585 35.263157
115.167435 60.723766 35.771957
114.83902 60.876644 39.780533
114.59267 60.701252 40.626232
114.7375 60.599396 41.335384
114.95294 60.88687 41.9051
115.16559 61.945805 20.8645
114.58939 61.73434 21.660358
114.56886 61.32418 22.517643
114.48632 61.99061 23.643692
115.10973 61.534954 26.785574
114.44901 61.820564 27.882019
114.61438 61.416454 33.825863
114.62048 61.339993 34.5246
114.89739 61.520744 35.281025
115.35864 61.71097 35.96367
114.696175 61.3871 39.906902
114.51747 61.670563 40.31964
114.77375 61.703896 42.10594
115.11856 62.08267 42.62412
114.830894 62.466347 20.869081
114.61935 62.690674 24.302471
114.552666 62.179623 27.556587
114.31753 62.35946 31.518784
114.98329 62.440804 32.69491
114.7761 62.136387 33.395348
114.86481 62.32731 34.567654
115.10817 62.30798 35.31365
115.33649 62.26068 35.939037
115.13603 62.468945 39.06358
114.67511 62.50811 39.951607
114.53225 62.46439 40.43467
114.6934 62.523846 42.189415
115.05109 62.390244 42.568016
114.73 63.249153 20.93712
114.51122 63.82157 24.913448
115.13087 63.16561 27.284693
115.20397 63.318695 27.332018
114.59278 63.29148 31.453648
115.32436 63.152355 33.596786
115.28368 63.272743 34.482193
115.19602 62.859615 35.005356
115.32237 63.180058 38.968872
115.06071 63.240517 39.88331
114.79484 63.269367 40.766895
114.723785 63.27085 41.4877
114.88065 63.222687 42.094925
114.291336 64.931335 24.936546
114.984924 63.828922 28.774734
114.60143 63.84366 29.516348
114.723366 63.919388 30.80175
114.40448 63.743935 31.003555
115.0694 63.6658 41.34807
114.50339 65.058556 21.128893
114.8092 65.30775 25.166576
114.63885 65.88365 21.552305
114.58845 66.3722 25.058851
114.58283 67.0576 22.177805
114.40778 67.359245 22.794306
114.4769 67.46877 23.515038
114.47069 67.21511 24.317421
114.66044 66.84742 24.804752
114.62349 67.515945 23.065773
114.516525 67.512695 23.426304
115.26236 45.343758 35.95898
115.46937 45.13638 36.626118
115.61441 45.213203 37.402924
116.141594 45.25624 37.929813
115.27217 45.91126 35.297874
115.45397 45.606476 35.58421
115.74804 45.698387 38.01648
115.573006 46.582294 35.05128
115.62921 46.59116 38.245773
116.035 47.873318 38.15087
115.4513 49.07779 31.618177
115.56672 48.946598 33.511185
115.78063 48.555904 38.06151
116.316216 49.82028 21.806736
116.22957 49.83406 22.54872
116.41372 49.75742 23.346876
115.87888 49.911232 29.193901
115.70683 49.869984 29.61323
116.008255 49.27004 37.90506
116.22854 50.83737 21.273096
116.06219 50.667557 21.621614
115.854774 50.667137 22.526897
115.99205 50.822994 23.307724
115.74559 50.61923 29.146723
115.96141 49.96492 37.150322
116.03572 51.636223 21.306234
115.72546 51.595867 21.738024
115.5965 51.53168 22.556889
115.736244 51.489445 23.13292
116.13122 51.281086 23.809385
115.12703 50.988834 34.58715
115.70858 52.279583 21.767447
115.59272 52.243088 22.406782
115.626396 52.252655 22.9237
115.1985 52.362583 34.11265
116.0982 52.713326 21.599867
116.20612 53.003414 22.932205
115.60551 54.05551 25.515484
115.78527 53.909863 26.609526
116.28042 54.207355 27.670813
116.23912 54.097954 28.663044
116.10444 53.403515 30.127254
116.02062 53.483112 32.562214
115.65949 53.19415 33.602848
115.2463 52.71057 33.93361
[...]
POINT_DATA 10406
SCALARS features_00 float 1
LOOKUP_TABLE default
0.74600226 0.7577901 0.7179127 0.74082315 0.74040276 0.7101307 0.7134099 0.71125007 0.58680797 0.5835533 0.5281383 0.5325736 0.61790454 0.60255885 0.5652656 0.5681861 0.6042622 0.61935985 0.6250231 0.6175324 0.6294737 0.66746986 0.7140949 0.72831005 0.67712474 0.7376446 0.81852925 0.81351805 0.7395128 0.8036449 0.85056657 0.87328327 0.8511548 0.8852265 0.8982321 0.8372586 0.8448572 0.8237574 0.8470046 0.8777001 0.8825793 0.83240527 0.692598 0.85224813 0.8487438 0.7956961 0.63029605 0.690454 0.73364997 0.72655773 0.71537924 0.7407727 0.7080524 0.5803119 0.6795317 0.7230383 0.75172067 0.71901333 0.60683763 0.68907344 0.72068137 0.70250726 0.5817553 0.66664016 0.6837651 0.67981577 0.6514105 0.5876536 0.63484967 0.6223651 0.5901922 0.4344383 0.43548828 0.42193532 0.43090463 0.42292604 0.3917584 0.4059825 0.39789346 0.41944307 0.38709438 0.47278932 0.5059572 0.44031277 0.3778247 0.63684183 0.372237 0.3463202 0.3456724 0.340223 0.53549504 0.5590664 0.5523379 0.5119486 0.6578373 0.7718079 0.42702663 0.44329458 0.49139392 0.45864695 0.5455012 0.59764224 0.5905225 0.5335711 0.73003185 0.8391465 0.5019939 0.5394917 0.6189779 0.5850267 0.5838717 0.6226649 0.6056427 0.56628674 0.8120011 0.5595441 0.5859077 0.66475296 0.5671402 0.5762527 0.58535945 0.6406049 0.77345026 0.769468 0.73966205 0.79743886 0.8822249 0.871271 0.8621669 0.90353566 0.9151921 0.8036892 0.8098965 0.79573476 0.77550983 0.8056132 0.8244176 0.7915684 0.73639786 0.7860874 0.7782991 0.749135 0.6713527 0.5291889 0.6172412 0.7422503 0.51514214 0.47516376 0.43631417 0.55610275 0.6556446 0.33859873 0.5099981 0.6356878 0.6450746 0.39086783 0.58204037 0.44677576 0.51506174 0.54252195 0.5662342 0.5217149 0.45213255 0.48527306 0.5063197 0.5297735 0.37318256 0.38195336 0.3881804 0.35753265 0.28997073 0.39867723 0.42656383 0.42334363 0.40402216 0.27277142 0.38161033 0.41591763 0.41456687 0.3294403 0.31028003 0.39225623 0.39468884 0.21596244 0.23629516 0.27447665 0.3277378 0.37208194 0.34729308 0.29298598 0.20246078 0.23653695 0.27672172 0.30870748 0.33476156 0.14766352 0.12792271 0.1737554 0.06635537 0.20415036 0.00041294843 0.12099078 0.21399727 0.22563165 0.26029217 0.26696575 0.30034417 0.10770379 -0.091247015 -0.120700836 0.11514528 0.355842 0.33538622 0.23503007 0.0181198 0.09172483 0.223331 0.15272158 0.43062654 0.54444075 0.61478263 0.24347517 0.17589276 0.0019192919 0.12956275 0.15568033 0.0072844625 0.21784319 0.27667296 0.22865103 0.18608536 0.47069466 0.60495484 0.68608415 0.7973248 0.29972512 0.33763522 0.26919398 0.32239985 0.13010295 0.36391497 0.27865568 0.27727407 0.25066417 0.2132838 0.520412 0.60311675 0.90065587 0.85281396 0.3477732 0.45613128 0.35512492 0.4541751 0.133636 0.20611013 0.2522382 0.24304825 0.22212175 0.4652002 0.5838279 0.6479292 0.9199804 0.87871766 0.38679317 0.57327116 0.39333653 0.3879935 0.44094613 0.19236815 0.23164299 0.2359616 0.48203617 0.594135 0.71912026 0.83856404 0.8823964 0.65477526 0.39794177 0.48519015 0.45575893 0.5102725 0.7691244 0.5314667 0.66781116 0.6416343 0.8309448 0.8401413 0.8789308 0.9146413 0.9283556 0.8905814 0.890884 0.9100274 0.7688681 0.7940978 0.78384113 0.77017593 0.72108895 0.72795045 0.733925 0.6181134 0.64831185 0.43581003 0.43314683 0.63380396 0.3871106 0.50068337 0.47561425 0.37012488 0.22270203 0.25829092 0.34539467 0.5593472 0.5701905 0.5799561 0.550048 0.21731706 0.29337454 0.6058282 0.6417998 0.63606054 0.60043156 0.53214264 0.50116813 0.66396403 0.6386907 0.5977855 0.481175 0.65744615 0.4881733 0.30736637 0.1955902 0.091100566 -0.015931252 0.3074209 0.43332875 0.46468616 0.48845726 0.568369 0.20339814 0.26481545 0.24736938 0.4569491 0.5833192 0.5876565 0.45205063 0.085603654 0.18944657 0.14881785 0.4733619 0.4676557 0.45240092 0.5407179 0.55898416 0.56314504 0.53127784 0.2785894 -0.0509495 0.14996956 0.0041148164 -0.047781438 0.36268046 0.45249814 0.4334988 0.5100472 0.5189976 0.4992512 0.41484165 -0.014407817 0.06477577 -0.1659144 0.27351654 0.35885778 0.3285258 0.4258808 0.434769 0.46219105 0.027643561 -0.016660184 0.015190828 -0.15381294 -0.18781033 -0.08313567 0.23345488 0.1483686 0.0756205 0.06882165 -0.10091391 -0.087465286 -0.08305239 -0.0099692345 -0.10574519 0.050795496 0.057334557 0.100410715 0.15225534 0.41000745 0.51484716 0.13713212 0.2132317 -0.16865611 -0.1597032 -0.104795 -0.020037867 0.07346414 0.18193546 0.25074893 -0.09825742 0.21207634 0.18285395 0.7693475 0.57889426 0.59908867 0.60557175 0.19984788 0.2835577 0.16363573 0.29884157 0.81508255 0.5987332 0.6186597 0.6550199 0.64479756 0.2200745 0.45007664 0.29719472 0.2287474 0.14657909 0.47010368 0.8350186 0.862211 0.5921675 0.6122897 0.6622408 0.67406297 0.43859863 0.5814395 0.26186156 0.2073695 0.21900068 0.24623348 0.1286465 0.1665621 0.26459673 0.28137976 0.26179922 0.42610246 0.49045932 0.60561705 0.7310117 0.8210676 0.54716265 0.5440275 0.56565905 0.59096074 0.536339 0.53544366 0.6290791 0.26608577 0.32220912 0.32989666 0.27947593 0.7267777 0.32616544 0.33539337 0.8405905 0.8465525 0.8322236 0.8047421 0.82359636 0.8264245 0.83168375 0.799267 0.5290286 0.6544954 0.7492591 0.6945497 0.4777897 0.3824159 0.6556003 0.3935802 0.35554537 0.38338146 0.38780594 0.44925925 0.4376858 0.485616 0.46688217 0.42793298 0.299021 0.23848253 0.2654537 0.28427845 0.1261821 0.20796154 0.2752463 0.4393242 0.35947943 0.368151 0.49344286 0.4837785 0.07573262 0.09275258 0.014317617 0.13213877 0.18788972 0.33335242 0.503878 0.52233577 -0.07692672 -0.024383172 0.25952232 0.32816163 0.5397186 -0.12103833 -0.08927265 0.20857954 0.5594936 0.5028373 0.44942123 -0.11407088 -0.1740084 0.5119135 -0.17341599 0.100417 -0.127678 -0.23547761 0.3752769 0.34993288 0.49736607 0.5353694 0.5168492 0.426877 0.32074487 -0.15344593 -0.044053525 0.32875094 0.3644653 0.40759927 0.40403873 0.36736363 0.5358777 0.58282465 0.6502799 0.53266007 0.56656724 0.5166442 -0.06594886 -0.17526093 -0.002685178 -0.012249246 0.21619661 0.29118425 0.40042406 0.6086595 0.6595297 0.78213876 0.73216367 0.49632767 -0.014588356 -0.08978201 -0.12267198 -0.013608752 -0.016787514 0.21945278 0.37942016 0.7324984 0.8001854 0.84599185 0.8183236 0.3460678 0.44976395 0.013399795 0.32188228 0.77427024 0.8133022 0.86321336 0.8382233 0.3273566 0.406182 0.4042923 0.37309808 0.1955961 0.17774986 0.82890415 0.8542677 0.29446632 0.25428843 0.22056562 0.35809126 0.45657712 0.5471778 0.38029623 -0.12761748 0.016804084 0.12212139 0.63514376 0.4930085 0.53391665 0.5232741 0.52737683 0.6028459 0.6668876 0.53910416 0.5335824 -0.025845796 0.1465691 0.18699332 0.763233 0.4848879 0.5401895 0.072254606 0.482178 -0.012851403 0.018670779 0.08119966 0.040404692 0.20988256 0.21342646 0.36409473 0.43351322 0.5329718 0.56638205 0.72784775 0.48595253 0.49240875 0.43598896 0.4198689 0.13702253 0.13922378 0.086623445 0.09016262 0.52701616 0.6012708 -0.038704783 0.07023771 0.13131838 0.4097169 0.41939682 0.41930363 0.07231277 0.0357538 0.55607164 0.5792101 0.20745268 0.2878927 0.33400306 0.32021606 0.27782443 0.103924826 0.7574146 0.56722045 0.5889121 0.63901496 0.30909106 0.32827538 0.32100195 0.37259042 0.36284274 0.29808262 0.41010663 0.4145662 0.41330284 0.4411949 0.6917654 0.79057205 0.8470112 0.8325883 0.5726203 0.58090526 0.578997 0.56071675 0.5602607 0.78526616 0.7443846 0.50474286 0.48701915 0.4870215 0.5335414 0.54172826 0.5241939 0.67045647 0.49351346 0.49425915 0.44488674 0.37567526 0.3246166 0.13962017 0.48408455 0.47415698 0.48190397 0.08781159 0.020749986 0.03120903 -0.14813128 0.37570575 0.446109 0.3526147 0.4368223 0.33732632 0.3486879 0.18463863 0.3238863 0.017232824 0.44840157 0.43054497 0.2067593 0.30846262 0.32898355 0.47586662 0.5358249 0.56953967 0.2988552 0.41889152 0.47553414 0.44260272 0.3833304 0.2035098 -0.10874765 -0.23279658 -0.25646326 -0.48724335 0.37120196 0.35229805 0.24859041 0.122244954 0.18809041 0.40633896 0.49138957 0.56682754 0.6446362 0.6315473 -0.091938 -0.34769985 -0.1994128 0.0843941 0.29093477 0.49833855 0.6939579 0.7025752 0.61006474 0.5540467 0.51972806 0.4576034 0.36358902 0.28684735 0.6837907 0.76585674 0.7477723 0.60462284 0.5697863 0.49801737 0.33297706 0.2141862 -0.2335218 -0.2027935 0.74490404 0.80518985 0.76046616 0.50045514 0.40050524 0.20961745 -0.015489832 -0.009816926 -0.026839271 0.7445235 0.8147923 0.8591906 0.8285942 0.14668855 0.18279094 -0.13601756 0.38009292 0.14594209 0.042926595 -0.21556059 0.036188662 0.28962266 0.36228472 0.37864515 0.36611608 -0.09637602 0.3955299 -0.177605 0.60259 0.8358396 0.81917876 0.72889906 0.6307122 0.31992093 -0.105545804 0.0027040173 -0.06942238 -0.09897813 0.13492255 0.31829295 0.4415624 0.49278656 0.8452611 0.8582014 0.817268 0.28723264 0.32560444 0.28744525 -0.28789487 0.011206787 0.010440928 0.82613266 0.8137927 0.75339234 0.49128097 0.2893904 0.28782046 0.31822175 0.16367432 0.024766933 0.054365255 0.09510654 0.09105082 0.08890789 0.0945496 0.069298476 0.18116473 0.3835075 0.10561262 0.16894285 0.025120374 0.77285475 0.73521364 0.6831722 0.048410863 0.12008697 0.16776961 0.08736589 0.0957453 0.10345377 0.21754055 0.28877562 0.305543 0.04111665 0.24132858 0.35008693 0.40300775 0.3372907 0.35725442 0.4447441 0.45018226 0.4258665 0.37894514 0.48453742 0.47307992 0.44387203 0.44627923 0.43674892 0.40967837 0.42613417 0.43086562 0.4271726 0.4118824 0.5778265 0.7207686 0.79535663 0.58192956 0.58899856 0.5774219 0.5361188 0.43308938 0.56915814 0.67788833 0.800403 0.49825618 0.51481473 0.5278731 0.4924901 0.39683732 0.3255508 0.46722507 0.7363359 0.4866197 -0.05830447 -0.012997076 -0.032268845 0.09537597 0.5944221 0.50595784 0.5864923 0.451222 0.014219098 -0.22825725 0.39451382 0.5113808 0.4980139 0.33464494 0.33641887 0.40432543 0.41802108 0.44594318 0.47233278 0.3090226 0.31610548 0.29137808 0.37262923 0.3685878 0.4010471 0.44182128 0.15665111 0.0043655895 0.18145949 0.19198635 0.19666651 0.33653763 0.32931358 0.3064807 0.12908086 -0.23414297 0.05408078 0.15207732 0.20318708 0.20356363 0.12969314 0.39303565 0.5145902 0.5377964 0.5458607 0.1945821 0.25165302 -0.50994635 0.25680548 0.13088435 0.06909992 0.31493327 0.5709982 0.5975785 0.5923829 0.52463526 0.3803841 0.21119273 0.20089087 -0.45108837 -0.20588964 0.100294724 0.18152998 0.31246376 0.66267943 0.6148808 0.6131463 0.5603096 0.7075996 0.6145429 0.62193215 0.74742013 0.73404324 0.5900542 0.5584045 0.076491386 -0.17612927 0.8276799 0.8543213 0.77306414 0.45611537 0.31057456 0.15474889 0.12261574 -0.18637577 -0.22308217 0.03230694 0.20320883 -0.1864421 -0.17839032 -0.24114066 -0.2648229 -0.005802747 -0.004731171 -0.063046284 -0.05606089 -0.10478459 -0.28985518 -0.13251147 0.74241966 0.73104507 0.6473537 0.35721165 0.23844728 0.78383374 0.79318917 0.5323963 -0.30627012 0.23870501 0.2988276 0.80303425 0.21283986 0.21647273 -0.14437863 -0.18632275 -0.10464664 -0.072415724 -0.16243508 -0.2787307 -0.23039684 -0.29166654 0.2783254 0.33282757 0.3586977 0.7925116 0.350587 0.1248375 -0.037236746 0.02810629 -0.12658858 -0.1791906 0.4574812 0.74960047 0.69984347 0.58941257 0.48546094 0.39035785 0.12454793 0.15972413 0.08627727 0.21142714 0.060149055 0.22442523 -0.0063620135 0.6184355 0.5228592 0.6304142 0.5178071 0.5649504 0.26959038 0.34261867 0.056428716 0.334095 0.45457238 0.28436962 0.5164559 0.50419176 0.746421 0.713074 0.6923318 0.6871227 0.43260422 0.22659451 0.418388 0.5997684 0.66222805 0.6865409 0.6803297 0.7971351 0.78249264 0.78470826 0.74256027 0.46835852 0.4871995 0.2758907 0.5223203 0.63389397 0.69451165 0.7215237 0.8126167 0.46199983 0.45436385 0.40016198 0.37418622 0.3907255 0.34538472 0.25815374 0.7021764 0.7234819 0.3379002 0.34770817 0.29137585 0.5667874 0.5648955 0.47281098 0.54382867 0.56487983 0.5456599 0.5033364 0.4801427 0.60197544 0.6434838 0.6437824 0.4865933 0.4929818 0.44054243 0.3744836 0.056878947 0.3822894 0.48795682 0.47325328 0.11074569 0.28528678 0.2196465 0.42963326 0.6434014 0.6297244 0.4710036 0.3622318 -0.09575914 0.36046827 0.6388328 0.6427274 0.60758793 0.54330015 0.5094279 0.39376143 -0.2245272 0.41567585 0.48789203 0.46412998 0.48446286 0.38197193 0.4968369 0.5085896 0.03926435 0.15534727 0.07184446 -0.18096331 0.33380836 0.3179506 0.32771844 0.49446154 0.50050426 -0.054666817 0.14318833 0.19823477 0.023327895 0.009932235 0.13891691 -0.19051644 0.4452423 0.512917 0.16361958 0.14347014 -0.26745087 0.5083428 0.47155458 0.25083494 0.14812475 0.1467534 0.51998323 0.563238 0.5738028 0.42077124 0.2856915 0.18064255 0.56924766 0.5212078 0.5685276 0.6299119 0.47046754 0.5400781 0.6789975 0.667233 0.5099794 0.7249739 0.43690962 -0.023883656 0.05656738 -0.013355594 -0.18505281 -0.115063876 0.08319332 0.6805433 0.46173468 0.05015696 0.2630879 0.26534584 0.7284951 0.7199524 0.28865802 0.29850537 0.72127026 0.74920964 -0.33848122 -0.33094418 0.19888692 0.35866946 0.3723159 0.7250563 0.7448633 0.05001131 -0.0041251555 -0.03039366 -0.05141312 0.0786107 -0.25282112 -0.20977838 0.3148721 0.44367814 0.49052504 0.53489363 0.7221012 0.64387476 0.38869256 0.018832624 0.15550657 0.21520816 0.21938205 0.2209568 -0.058441132 0.5155599 0.56883 0.58105326 0.6022319 0.51250935 0.46551278 0.3980692 0.27838576 -0.054794386 0.2992998 0.28443426 0.15625823 0.6817171 0.68920255 0.6718079 0.3510223 0.4128229 0.0041075423 0.30582824 0.29028624 0.37180474 0.7008089 0.7985951 0.8175191 0.7834985 0.40504438 0.13050553 0.123955175 0.4825954 0.5847428 0.7188076 0.71485204 0.901718 0.8940327 0.8928584 0.8654315 0.39553234 0.36829844 0.19106948 0.2079884 0.62682456 0.6986054 0.71837664 0.7080745 0.35522696 0.24732265 0.3187794 0.3694632 0.29767126 0.54652196 0.4850563 0.51887476 0.45634764 0.7034369 0.6789844 0.60422426 0.70839995 0.73382854 0.7205141 0.3936316 0.44783634 0.5052289 0.48877347 0.4041329 0.6155639 0.6420658 0.6525073 0.56930375 0.40983957 0.38492268 0.19112451 0.4971184 0.62322104 0.5838058 0.5974706 0.5820925 0.42144322 0.43495297 0.035178542 0.10081644 0.057945386 0.509543 0.50741494 0.5134089 0.272374 -0.061551973 0.4828089 0.5036322 0.16919464 0.092475526 0.4962716 0.4956832 0.1358859 0.09950916 -0.03449213 0.45086426 0.46487162 0.1388802 0.10557142 0.38634548 0.028539278 0.0931076 -0.071277656 0.3789001 0.5195874 0.48206753 0.2942161 0.14148258 0.44877744 0.5375662 0.55701315 0.44091755 0.49613994 0.5041125 0.49059457 0.44765833 0.40241456 0.2784409 -0.27400503 0.34900415 0.42107165 0.019934617 -0.12454932 -0.009440795 -0.09521638 0.6685114 0.6281487 0.23048148 0.682098 0.63200325 0.29124376 0.6836635 0.659634 0.3510119 0.6545656 -0.06429182 -0.09525008 0.089252576 0.46799815 0.5195632 0.5792604 -0.08581047 -0.1406173 -0.038159095 0.17114066 -0.20604573 0.593956 0.49779034 0.49377194 0.1495847 0.059207194 -0.11298619 0.2789186 0.30449307 -0.03392591 0.7162208 0.7197578 0.4626308 0.40448678 -0.104580276 -0.11162952 0.3090103 0.28424683 0.20232575 0.134279 0.080734506 -0.034852482 0.8596982 0.85188836 0.8148961 0.31199443 0.035509944 0.27110553 0.19759311 0.20572753 0.07514797 0.35831976 0.6575545 1.0 1.0 0.9620439 0.90770054 0.26603496 0.27792227 0.23521212 0.57964456 0.6827078 0.68347645 0.6223326 0.26086923 0.22069311 0.3624968 0.5855175 0.52708054 0.4880486 0.7484514 0.76063764 0.7213439 0.6693736 0.5785346 0.81715775 0.8360704 0.8004075 0.74924564 0.6394199 0.7031418 0.7068157 0.67277855 0.5446244 0.34785178 0.3669837 0.39007115 0.4050461 0.5382041 0.50198555 0.33020997 0.30639327 0.306812 0.42159837 0.45259234 0.49756294 0.5038612 0.50475574 0.5146028 0.5287522 0.2784977 0.24543345 -0.09484604 0.34091675 0.5181973 0.53354686 0.5474905 0.30989957 -0.30165517 0.52045417 0.5320828 0.30865765 0.21422505 0.49629548 0.23662424 0.24769266 0.45316124 0.17898902 0.0051235408 0.10241496 0.11375442 0.05050343 -0.127323 0.18848608 0.50772107 0.41832262 0.2594096 0.12433653 0.07205538 0.34119692 0.525427 0.29162005 0.3823109 0.45596695 0.23599717 0.38495877 -0.21743026 0.0019456297 -0.30297273 -0.03252533 0.031496808 -0.08730906 0.09268188 0.042751126 -0.035269838 0.044933263 0.22831233 0.27741745 0.5348813 0.47264975 0.5817965 0.4890917 -0.10747553 -0.12371223 -0.12662333 -0.1515913 0.31499356 0.36581042 0.67734563 0.46634886 -0.14621048 -0.22072086 0.057171706 0.6002735 0.78522277 0.38399774 0.30110407 0.23857945 -0.08356018 0.094145015 -0.15711743 0.27425763 0.2842534 0.29796398 0.8513915 0.81561446 0.120184764 0.0673374 -0.0214796 -0.045847367 0.2378666 0.22029985 0.23435543 0.2338222 0.3223736 0.46717536 0.9609084 0.8918202 0.89865893 0.87198293 0.08711623 0.2261438 0.25911167 0.2879123 0.2722918 0.21713647 -0.015750468 0.64098 0.40517402 0.35908955 0.3043311 0.3200697 0.2882745 0.5728072 0.5004625 0.7320074 0.663877 0.59369653 0.83252513 0.91065395 0.8849104 0.7957551 0.612064 0.6477531 0.63835096 0.56121 0.4526637 0.5171506 0.51415956 0.47990417 0.42602664 0.17363507 0.16641062 -0.011993408 0.2267768 0.38337225 0.37487522 0.38108346 0.40536776 0.42150748 0.43296427 0.48096463 0.52224886 0.54455864 0.08738766 -0.0013678297 -0.013480641 0.25157753 0.5530021 0.55624723 0.40357482 0.27078745 0.07288815 -0.117779985 0.54574096 0.38427776 0.3799966 0.50466514 0.2547187 0.3221743 0.06815198 0.2013159 0.19658649 -0.20193715 0.075968444 0.4167352 0.30998498 0.26427138 0.15272394 0.49815792 0.36249316 0.18307492 0.3686469 -0.014866054 0.442289 0.31537023 -0.07568779 0.5396117 0.48269826 0.33379805 0.5492054 0.50750387 0.41143644 0.03105809 0.56424516 0.5016974 -0.10363116 0.12004049 0.097503535 0.09991878 0.07177244 -0.12517036 0.12772882 0.1755227 0.22317451 0.24658397 0.53073484 -0.40017065 -0.28298026 0.2140531 0.59589934 0.6746837 0.23541515 -0.21122268 0.49611175 0.5641843 0.63787305 0.63700575 0.009813905 -0.1915214 -0.054669194 -0.04698362 0.19337994 0.71886325 0.6777596 0.70498645 0.76525974 -0.0060444996 -0.012385212 -0.16883488 0.038845673 0.08323949 0.050707743 0.21530405 0.13912714 0.21021989 0.2750584 0.8149642 0.7931694 0.78817767 0.028665744 -0.071811885 0.21569334 0.2657595 0.26444697 -0.039100304 0.16229028 0.26440865 0.3217092 0.3645995 0.38677227 0.40383866 0.5457641 0.47600317 0.4095266 0.6372977 0.71779823 0.66127074 0.7827977 0.8662157 0.8915931 0.79699004 0.59420586 0.5728626 0.5464708 0.5430507 0.49074632 0.47657284 0.43399543 0.41613066 0.06091594 0.11375174 0.41665894 0.39775687 0.36253178 0.28281087 0.36258447 0.37736452 0.43968055 0.49698508 -0.13784507 -0.031305403 0.039965957 -0.016909033 0.19219087 0.18149418 0.12132126 0.29114184 0.2800658 0.29873034 0.32671136 0.3660211 0.43574786 0.52111226 0.5335124 0.35743532 0.23430519 -0.047880568 -0.08530954 0.075766705 0.52786714 0.40724587 0.39731845 0.35709018 0.16976088 0.16682935 -0.11500019 0.16878891 0.17990908 0.040851727 -0.1610378 0.10349556 -0.0031790063 -0.34402186 0.21578276 0.0436548 0.01871242 -0.13753928 0.36629963 0.33095926 0.23595926 0.001993671 0.4905644 0.44388402 0.3342777 -0.049254086 -0.02180928 0.119216554 0.58670235 0.5472953 -0.10566691 0.5899465 0.5725405 0.60734475 0.58429134 0.13674417 0.14032288 0.40721577 0.12335922 0.17212863 0.06007385 0.33828393 -0.19274385 0.084668815 -0.075649254 0.15169446 0.08812639 -0.33586758 -0.0964472 0.28632897 0.5140719 -0.38547266 0.16043893 0.5418397 0.558659 -0.09140193 -0.19998267 0.510883 0.58107615 0.60092723 -0.12699522 -0.1463877 0.050727326 0.043857418 0.09224548 0.08495649 0.0056794807 -0.0067836344 0.0730191 0.080095656 0.07238716 0.044180375 0.06545516 0.102150895 0.3193756 0.23553535 -0.14989367 -0.029082844 0.2030304 0.2550084 0.3155684 0.47182494 0.43576908 0.35485992 0.42474934 0.41652673 0.4770249 0.50178075 0.51725876 0.54538673 0.5075091 0.6001642 0.73041093 0.6731949 0.7606543 0.8058348 0.81542647 0.779317 0.1307197 0.13603495 0.13824841 -0.061896663 0.3369088 0.5423907 0.52824926 0.45535243 -0.020710215 0.08510953 -0.16084073 -0.100600995 0.3178886 0.34581724 0.17349675 0.1883985 0.2432818 0.23982856 0.34104866 0.39731276 0.45030692 0.16512528 0.10600044 -0.14220788 -0.10957092 -0.06007801 0.17087802 0.21348976 0.22589776 0.3307159 0.29307318 0.17749155 -0.09523511 0.36311927 0.27371532 0.27687854 0.26977816 0.013241783 0.18009242 0.36254013 0.28083283 0.2256