# vtk DataFile Version 2.0
Really cool data
ASCII
DATASET POLYDATA
POINTS 2737 float
3.4107323 10.569765 9.685517
3.4261937 10.570138 10.2665205
3.4763048 10.966884 9.433182
3.4456453 11.263667 10.048821
3.478649 19.9154 10.628647
3.3702164 20.072277 11.082157
3.427607 20.301704 9.886106
3.429556 20.457588 10.557343
3.367245 20.379463 11.270625
3.339943 20.839043 12.478715
3.3778424 20.93716 13.043735
3.329325 21.47685 12.639755
3.3841023 21.479113 13.214729
3.416623 21.878515 12.7405
3.4210782 21.948965 13.047788
4.195908 10.066813 7.773553
4.0656376 9.976845 8.318154
3.7633998 9.903391 9.702175
3.7672923 9.924098 10.365465
3.8528843 10.010301 10.859656
4.1956534 10.69746 7.2488756
3.9642916 10.664771 7.6594143
3.7272947 10.576578 8.5623665
3.5127957 10.528835 9.528375
3.5108483 10.448006 10.572639
3.820091 10.581056 11.136526
4.2568293 11.067411 7.1470823
4.008795 11.257997 7.6145597
3.732421 11.335566 8.554482
3.5535316 11.401348 9.766758
3.6486542 11.520739 10.478012
3.7483153 11.195559 11.137271
4.346339 11.6131735 11.76736
4.378934 12.185706 18.712585
4.2160892 11.923828 7.9514327
4.0110574 11.908509 8.424664
3.8960366 11.95022 9.78091
3.9978986 12.080061 10.479108
4.1838865 11.968294 11.225609
4.2353864 12.746426 17.13565
4.0903354 12.678248 17.65326
4.162702 12.591922 18.365942
4.31592 12.728395 19.054216
4.214774 13.418438 17.070034
4.0222774 13.410657 17.648521
4.0767198 13.437263 18.317926
4.319797 13.464488 18.972525
4.2868705 13.8080435 17.187243
4.2383437 13.963392 17.65644
4.2293963 14.01268 18.100117
4.070045 19.174362 9.302584
3.845818 19.266764 10.723793
3.9626591 19.262897 11.161332
4.1847234 19.939392 7.192312
4.034213 19.717285 7.702813
3.6973274 19.922556 8.540349
3.6905208 19.680328 9.580203
3.6154244 19.570206 10.451623
3.5885534 19.854177 11.561765
3.7333958 20.073137 12.492832
4.079207 20.170513 13.170931
4.2030687 20.540596 7.0000253
3.895604 20.356579 7.6274776
3.6803153 20.549482 8.651086
3.5749984 20.543596 9.561056
3.554039 20.779856 10.257461
3.571854 20.649214 11.744391
3.4840927 20.629644 12.505312
3.6680834 20.761381 13.394288
3.951621 20.932905 13.842218
4.164515 21.392572 7.0742345
3.9708457 21.396343 7.5499115
3.8393383 21.463696 8.464274
3.9203694 21.488008 9.356276
3.6787686 21.259151 10.523606
3.5397303 21.51918 11.577941
3.5694995 21.431137 13.557585
3.8339171 21.496704 13.912411
4.1636705 21.939789 7.2029867
4.218462 22.309458 7.5884624
4.187337 22.431137 8.292706
4.335479 21.933674 9.641599
3.7789867 21.77186 10.963226
3.852403 22.06507 11.684794
3.5778937 22.081808 12.553426
3.7209668 22.144283 13.367967
4.089982 22.078518 14.07305
4.1832247 22.779522 12.681115
4.494438 28.902811 12.058256
4.8253446 9.416961 9.719483
4.735931 9.44282 10.489308
4.8068714 10.114664 7.160947
4.591538 9.916956 7.6198626
4.5581193 9.642271 8.5006275
4.4046903 9.536923 9.647702
4.369816 9.560369 10.457253
4.585907 9.814796 11.225466
4.754118 10.1385 11.77247
4.5793185 10.592216 6.9890404
4.3464923 10.2713375 11.517267
4.559984 10.461075 11.868237
4.633285 11.22622 6.9154716
5.283146 11.665538 16.927864
4.781614 11.776073 17.794346
4.767159 11.807425 18.479527
4.530503 12.137579 18.969608
4.652596 11.893296 7.2099414
4.667334 12.204105 7.532701
4.586821 12.574743 8.744198
4.6566687 12.334388 11.518125
4.976869 12.238791 12.258108
5.3127947 12.585587 16.013988
4.5077186 12.919435 16.71017
4.4359636 12.352848 17.199955
4.651793 12.553748 19.389914
4.9153595 12.632651 19.696688
4.7866135 12.881195 8.847018
4.7340474 12.841582 9.767515
5.3762903 12.81172 12.4761715
4.704313 13.339389 16.46919
4.570664 13.57066 19.260937
4.8208942 13.231412 19.658558
4.709253 14.122999 16.984428
4.6112175 14.45281 17.705004
4.6497345 14.380253 18.556637
4.872763 14.185284 19.208965
4.682836 14.651017 18.00061
5.0703325 14.848598 18.307648
4.6155114 19.161736 7.625752
4.6248755 18.90698 8.596838
4.3727756 18.981476 9.47222
4.5578275 18.767765 10.470336
4.3021374 19.006563 11.067397
4.6757207 19.894842 6.800391
4.4805365 19.67323 12.49933
4.6890335 19.859152 13.165245
5.198114 20.341494 6.1192985
4.5213513 20.58455 6.594589
4.663139 20.698612 14.116769
5.013185 21.564598 6.1218815
4.715749 21.483524 6.382639
4.405229 21.542881 14.511418
4.773133 21.496685 14.736681
4.7371225 22.362581 6.7764916
4.607367 22.384888 14.5248575
5.1224985 22.261013 15.004929
5.002671 22.822334 6.753827
4.7002215 23.022665 7.7254715
4.7270455 23.016909 8.258647
4.760157 22.807346 11.724651
4.585704 23.158123 12.967938
4.6606407 23.068043 13.446198
5.0107865 23.178822 14.289156
5.1112103 22.929941 14.86549
5.2262278 28.20596 10.944929
5.0215707 28.001585 11.479613
4.8279424 27.98344 12.381714
5.0868335 27.879147 12.9419365
4.7002187 28.553093 11.649791
4.610597 28.662882 12.407339
4.8317156 28.63255 13.308288
4.9475803 28.975107 14.257933
5.100618 29.538738 10.715387
4.7032213 29.516603 11.602027
4.532917 29.353355 12.312747
4.626195 29.60584 13.473537
4.8273816 29.582937 14.427234
5.177412 29.55285 14.964564
5.324687 30.437283 10.146197
4.9634204 30.203821 10.940404
4.761111 30.071508 11.668757
4.657971 30.343494 12.480805
4.694151 30.32597 13.474129
4.9042664 30.448925 14.393393
5.136358 30.350475 14.831123
5.488723 31.970942 3.9137762
5.2792573 31.393858 10.521128
5.1431804 31.399136 11.438355
5.1326013 31.251081 12.485314
5.1170993 31.22759 13.583214
5.140592 30.938713 14.354801
5.4662404 32.25238 3.9222832
5.1987944 9.486669 9.144959
5.5473137 10.10613 7.1099553
5.39287 9.720749 7.7376237
5.3851337 9.599346 8.241932
5.7444434 9.61678 9.321406
5.412946 9.864227 11.835183
6.0803685 9.962933 13.516897
5.8858733 11.0758705 6.467506
5.5089245 10.56941 6.7329383
6.190403 10.669937 13.950465
5.920166 11.1748085 16.581467
5.815387 11.130299 17.556118
5.6284876 11.252736 18.676157
5.5183616 11.254686 6.568634
5.3881016 12.015654 16.31523
5.5426383 11.470121 18.799833
5.6002493 11.581722 19.315742
5.855356 11.931384 19.793634
5.633153 12.165254 6.773948
5.600899 12.527894 13.447925
6.1195316 12.906162 14.822472
5.392544 12.5008135 19.858067
5.8048973 13.239883 7.5830417
5.6542673 13.443993 8.474154
5.5313234 13.102724 11.624249
6.226371 13.33775 14.809519
5.2656875 13.54589 19.785656
5.868026 13.758933 8.480873
6.2138557 14.078213 10.021706
6.093971 13.70621 11.642722
6.319765 14.030227 12.291469
5.761258 13.9646635 15.924395
5.233652 14.190755 19.603155
5.961416 14.713134 16.728493
5.869747 15.004085 17.487488
5.4783072 14.993269 18.331842
5.3452673 14.791624 18.961338
5.744159 19.175423 6.805937
5.3745594 19.033306 7.285369
5.833074 18.690481 10.462497
5.404793 19.220392 11.940529
5.76886 19.763903 5.9064064
5.1337457 20.15402 13.743696
5.720487 20.57097 14.233514
5.606863 20.782658 14.663806
6.023906 21.7591 5.242003
5.773398 21.646133 5.633192
5.5404124 21.421387 14.958045
5.8759513 22.244694 5.7447896
5.526154 22.394506 15.2256775
5.9079247 23.457392 6.623745
5.4470096 23.500925 7.4682255
5.5107045 23.420979 8.2757635
5.4517465 23.388828 14.636074
5.5172515 22.944738 15.106906
5.705397 23.643991 7.3491936
6.202135 23.73082 9.149122
6.0255713 23.932732 11.473977
6.0954757 24.43802 12.91952
5.807451 23.868166 13.469886
5.901324 24.074316 14.014809
6.483529 25.892488 0.8893571
6.473256 25.376009 1.46334
6.2843523 25.010529 11.090706
6.0376053 27.322256 11.173987
5.798795 27.365316 11.721974
6.4730225 27.422695 -0.006253368
5.345639 28.117502 10.918746
5.6224856 27.543041 11.399847
5.48012 28.303572 14.125917
5.9513416 28.778187 10.135416
5.5113053 28.635702 14.655611
5.5066814 28.956919 14.941209
6.140121 30.203526 9.312677
5.497346 29.67006 10.129165
5.443896 29.574839 15.156448
5.915511 30.912418 3.0600834
5.8989472 30.865171 3.5115316
6.3599906 31.041796 5.200105
6.025066 30.815899 9.198954
5.5706835 30.5488 9.839288
5.640929 30.416363 15.184176
5.8542085 31.485456 2.8412764
5.6055713 31.666561 3.4792655
5.737199 31.388489 4.14132
5.9158773 31.581215 9.1725645
5.572359 31.457476 9.822677
5.4577484 31.541685 13.31046
5.536918 31.359537 14.493562
5.8478665 31.183472 14.999901
6.2044525 32.142654 2.316123
5.8607445 32.291782 2.797179
5.60228 32.48507 3.5002847
5.65969 32.515224 4.2988553
5.9439826 32.368973 4.8000736
5.9574885 32.420094 9.584378
5.750083 32.427925 10.521575
5.6265597 32.213398 11.590131
5.7120852 32.210266 12.567086
5.831326 31.928022 13.664824
5.8239717 31.760088 14.120818
6.049904 32.975876 2.8807378
5.9580665 33.270172 3.6448016
5.9014735 33.116295 4.200957
6.116559 33.034443 4.7174325
6.207621 33.27976 10.33957
6.064271 32.719345 11.810256
6.262011 32.794827 11.975418
6.9258523 9.27879 12.107305
6.828888 8.978281 12.971883
6.8468213 9.058523 13.500071
6.1180716 10.204286 7.173479
6.0718055 9.658792 9.8405075
6.5567007 9.598654 14.10532
7.158959 9.978351 15.200584
6.344159 10.789976 6.7878776
6.4297614 10.768347 14.296328
6.859593 10.449465 14.84716
6.535576 10.692744 17.346146
6.730672 10.869581 18.459951
6.5597467 11.219902 19.328777
6.2870827 11.143969 6.6057596
7.185525 11.465011 19.958033
6.1172028 12.329403 6.6632824
6.3338823 12.566338 20.06078
6.7237988 13.758586 20.139326
6.793207 14.103934 7.6597533
6.6190453 14.50808 8.36914
6.5913334 14.243489 10.613913
6.7462945 14.293117 11.385665
6.739679 14.87444 12.818781
6.6841855 14.922272 11.973555
6.7705092 15.516703 13.686825
6.7860875 15.00314 13.927498
6.6945095 14.972836 15.084725
6.455878 15.003082 16.626762
6.557318 15.298752 17.711834
6.5150876 15.37034 18.754715
6.501405 14.987926 19.582273
7.3111534 15.111413 20.172628
7.377825 16.15339 24.820086
7.272072 15.990444 9.64473
7.2335744 16.172474 10.85387
7.1289687 16.994665 11.191042
6.8128133 16.157635 12.214447
7.260001 16.137085 14.658363
7.38624 16.116785 16.213032
7.176188 15.784114 17.5088
7.1563754 16.780046 24.570702
7.1159606 16.82251 25.370842
7.3444366 17.05737 26.07745
7.1998186 17.824348 2.1306612
7.1775813 17.800499 2.3967938
7.171633 17.887482 3.4236133
7.354677 17.221117 4.071741
7.262205 17.618032 10.43593
7.4065866 17.135763 23.730017
7.133969 17.55963 24.506886
7.051586 17.519001 25.369778
[...]
POINT_DATA 2737
SCALARS features_00 float 1
LOOKUP_TABLE default
0.73540175 0.74371827 0.696686 0.6781689 0.46352422 0.4705149 0.44699934 0.4431164 0.47509122 0.5563139 0.5937516 0.56968313 0.61264956 0.57367885 0.597533 0.8138324 0.8056162 0.78304744 0.77024674 0.7514107 0.8085744 0.79171693 0.7611101 0.74154687 0.7536579 0.7430534 0.79321957 0.75130165 0.68507767 0.65368253 0.65390533 0.7065234 0.60203475 0.7685707 0.653131 0.6257818 0.57967 0.54865396 0.5461296 0.7172118 0.77859634 0.80923367 0.77960306 0.70523316 0.76529974 0.7931204 0.77471256 0.69348216 0.7236997 0.7418424 0.49965453 0.47226965 0.4757467 0.4938807 0.5192544 0.51125044 0.47997195 0.46874502 0.48969245 0.54508865 0.59298074 0.4863751 0.5091161 0.47648537 0.43742836 0.41759813 0.50603956 0.55818254 0.6135514 0.63481474 0.48357773 0.49313843 0.45840895 0.3878383 0.39633188 0.48271754 0.6326078 0.6469142 0.48125833 0.47514552 0.45148247 0.33457696 0.40899083 0.47286338 0.5526367 0.6172041 0.63887405 0.5191873 0.53239465 0.6919605 0.6713403 0.80295026 0.8083676 0.77247167 0.75242865 0.7244843 0.6642024 0.60341454 0.81190467 0.6926116 0.63740766 0.79329914 0.5975069 0.69139063 0.70532715 0.7413939 0.7301774 0.65296364 0.4818725 0.36478895 0.23221254 0.49854445 0.6543903 0.70486987 0.7356545 0.7018052 0.41483733 0.3691826 0.067617275 0.6048579 0.7484809 0.71784955 0.6141074 0.6389837 0.6890695 0.68469745 0.6271286 0.56319153 0.48420608 0.5052247 0.48705003 0.45275956 0.46904445 0.45855343 0.5312815 0.56740487 0.4278162 0.46474 0.6012342 0.42156786 0.44459122 0.63698083 0.6049044 0.4365936 0.6029855 0.55159473 0.4003871 0.41379118 0.3864491 0.34824517 0.4665119 0.50571495 0.47786468 0.5006967 0.4674638 0.4974211 0.5360338 0.5323683 0.5195816 0.5456829 0.5755986 0.6246593 0.44962564 0.49448258 0.52664447 0.61198545 0.65938324 0.6631791 0.42093718 0.4470063 0.4740495 0.50500107 0.6075619 0.67289144 0.69205976 0.680534 0.4365279 0.41941974 0.43242702 0.5381477 0.6470276 0.69056046 0.65856135 0.7319336 0.74723876 0.70846486 0.56147003 0.4269671 0.24931127 0.674968 0.7373886 0.24856578 0.39533368 0.49820477 0.5089488 0.7356369 0.5373795 0.54668534 0.54232156 0.515206 0.73408747 -7.417798e-05 0.033827752 0.63266695 0.40847266 0.2816463 0.09764241 -0.0051340163 0.6545584 0.22006837 0.05800527 -0.020308599 -0.064385675 0.34418628 0.6330597 0.32845694 0.34849006 0.47195625 0.5611878 0.31234452 0.38306257 0.32942778 0.4454257 0.33681104 0.53506356 0.43915343 0.46000737 0.28567404 0.35016304 0.5007172 0.309219 0.48842365 0.2547841 0.29369307 0.24997339 0.39686993 0.44045794 0.24197105 0.07561503 0.04883223 0.09042574 0.24017286 0.2255426 0.32717356 0.32031947 0.027440295 0.29753786 0.4035316 0.41155666 0.45706415 0.43767607 0.53962857 0.3908607 0.57405424 0.60495484 0.4035121 0.41077536 0.6501417 0.5994221 0.60125566 0.49956667 0.43194306 0.4216355 0.6851144 0.6383834 0.6709938 0.62871367 0.4549888 0.4425336 0.4709515 0.6385297 0.67179906 0.6581098 0.68815154 0.70377827 0.66101396 0.59696245 0.42328742 0.39001325 0.33972356 0.34700614 0.4820184 0.5731802 0.71213555 0.70630264 0.6608231 0.5908864 0.34376135 0.3121426 0.29632017 0.2535181 0.31584382 0.33099052 0.620486 0.46687043 0.29493845 0.17263226 0.5915775 0.23056774 0.19371529 0.2721304 0.28318003 0.34399328 0.60873616 0.26867488 0.68258613 0.464301 0.44606614 0.10164807 0.080084294 -0.06869371 -0.097995974 -0.06951907 -0.11129636 -0.0294119 -0.0012001246 -0.0065544695 0.16333503 0.18839203 0.24550647 0.38889253 0.21438056 0.6298077 -0.1639992 -0.16176397 -0.16082595 -0.072592154 -0.03131781 -0.076256156 -0.030847754 0.61664337 0.65645635 0.67367774 0.5622433 0.5507656 0.45126176 0.3738953 -0.2692235 0.48362416 0.55518615 0.6221853 0.6497835 0.5350854 0.48596466 0.44006523 0.010922894 0.2449092 0.5309238 0.5973612 0.62406754 0.45512643 0.38840082 0.25013363 0.19031854 0.22929917 0.24194258 0.36300647 0.349211 0.25271076 0.16605361 0.3928066 0.32325265 0.34453857 0.3126577 0.27690116 0.21605411 0.1969967 0.26605842 0.31598908 0.32354805 0.31611288 0.28143662 0.2593279 0.06777498 0.15443522 0.2959883 0.30836818 0.30422294 0.31099886 0.22496973 0.06364563 0.13118783 0.0010932144 0.038358323 0.090370804 0.0702261 0.31331223 0.318021 0.30163425 0.005233489 0.020675488 0.0078419 -0.017071165 -0.07222386 0.49497628 0.43401548 0.3471161 0.3259226 0.31446618 0.21452814 0.004302591 -0.008688919 -0.038334817 -0.039649896 0.5179192 0.47694123 0.40883213 0.33169764 0.22119263 0.5363405 0.50272745 0.3984145 0.35434812 0.4883399 0.41019982 0.4200529 0.34080595 0.3858296 0.43533385 0.43641335 0.54029006 0.38821346 0.31058073 0.63240874 0.57964396 0.367835 0.6675757 0.65190923 0.47406152 0.36327887 0.5850024 0.65729773 0.7035154 0.60689473 0.50229275 0.4082424 0.35341984 0.35742652 0.3255362 0.30650747 0.23745827 0.65553373 0.34316313 0.31928977 0.28304023 0.6137928 0.6372293 0.63525915 0.6711786 0.20298219 0.2785861 0.3016348 0.28920424 0.15129076 0.10898575 0.22254592 0.1943808 0.06674582 0.105511725 0.1180321 0.37037778 0.35729653 0.20592746 0.21376546 0.30671087 0.33883208 0.23593487 0.3681615 0.5440241 0.62474966 0.45002103 0.43451735 -0.024794646 -0.031908263 0.49840105 0.55139184 0.66098803 0.6947272 0.5032226 0.42975748 -0.21071233 -0.04778119 -0.09353624 -0.045174785 0.054794587 0.69573414 0.7000223 0.5106025 0.55593157 -0.3224761 -0.3732 -0.07067271 -0.13055067 -0.07263671 0.010157414 0.22035833 0.28578818 0.66598064 0.6878965 0.5190748 -0.08221203 -0.16313651 -0.071996786 0.1022806 0.56121093 0.6117225 0.33207485 0.27305803 0.39381874 0.50909084 0.5448167 0.24209543 0.21266018 0.06937363 0.2056549 0.07229825 0.2813127 0.36230177 0.34009072 0.2151635 0.10532671 0.2561506 0.016715378 0.19103806 0.29575533 0.3309297 0.25284687 0.39524978 0.33368188 0.066982746 0.24161392 0.29501504 0.2085782 0.38822007 0.02595324 0.16748896 0.22544757 0.18491165 0.15102531 -0.07720117 -0.038982965 -0.021601606 0.009852633 0.053231798 0.06675972 0.072904535 0.13458136 0.37306848 -0.080547914 -0.10666054 -0.068808295 -0.08461247 -0.07507947 -0.08236973 0.040944546 0.10288787 0.13575597 0.25531363 0.42006058 0.46354645 -0.03681165 -0.045094118 -0.027447063 -0.015634097 -0.19227982 0.020842759 0.09614773 0.12907334 0.12269067 0.105238765 0.19774222 0.36574942 0.5165336 0.4956532 0.029574573 -0.074422054 -0.11224147 0.022770008 0.013658889 0.06125232 0.07286402 0.08271961 0.5195204 0.5397294 -0.13540268 -0.08320252 -0.016039615 0.002713971 0.50162727 0.5127431 0.17533801 0.31990778 0.26254153 0.11371467 -0.11655347 0.43023857 0.3939033 0.5572628 0.5900359 0.60910356 0.547811 0.60956013 0.62619615 0.21630448 0.29680562 0.25201097 0.55462664 0.48359656 0.54540455 0.628326 0.65435547 0.4849649 0.49752992 0.3101586 0.56620413 0.6181593 0.699255 0.7130673 0.73896515 0.5293525 0.54771507 0.5371431 0.47318774 0.5925438 0.65139383 0.71909314 0.75816154 0.7649027 0.60956573 0.6322963 0.59193146 0.6588732 0.69447076 0.7414762 0.7001449 0.70128894 0.68506974 0.21053734 0.24228728 0.27060208 0.090893954 0.21207786 0.17615753 0.25752762 0.039199434 0.1360224 0.072986715 0.08300559 0.1841592 -0.012080245 0.063736424 0.014948286 0.4852302 0.57793766 0.66001695 0.6573022 0.43697283 0.3752115 0.680235 0.6903558 0.44869393 0.6862808 0.46026072 0.4665767 -0.17060173 -0.19341163 -0.12652601 0.6789832 0.41209748 -0.18027373 -0.23655951 -0.17913502 -0.025907092 0.5708219 0.6188691 0.3132996 -0.4702779 -0.25144207 0.19216964 0.27014384 -0.14569473 0.50068367 0.4232176 0.31415498 0.134012 0.14170349 -0.04112094 0.27797094 0.38774717 0.4417622 0.45664984 0.44367033 0.3821138 0.14657462 0.4412338 0.4232812 0.06361363 -0.04361452 0.41799 0.36125037 0.12193166 0.1192184 0.20446113 0.32068533 0.24230286 0.43806726 0.28266886 -0.13103393 -0.11107063 -0.12330267 0.477772 0.46935308 0.39984947 -0.16091397 -0.15239294 -0.092471324 -0.054226182 0.033498496 0.15415505 0.28166002 0.4360116 0.48787355 0.4913633 0.47680312 0.49353862 -0.10681114 -0.18280497 -0.06778176 -0.20792337 -0.0010159835 0.14339888 0.33868802 0.37737522 0.43614352 0.49702877 0.50813854 -0.14423518 -0.035041384 -0.023760714 0.12433314 0.3184008 0.3436761 0.3816458 0.29328394 0.49015573 0.46778917 0.03558956 -0.04613942 -0.13432226 0.40256837 0.4292286 0.41620594 0.46358073 0.40487325 -0.102256104 0.012036913 0.4621825 0.4296601 -0.02189096 0.0849013 -0.19949596 0.03518295 0.102480106 0.107189715 0.10625933 0.029097691 0.5222021 0.19751969 0.021113202 0.36403638 0.019602567 0.3191062 0.6369841 0.7221103 0.50993735 0.41962904 0.30355743 0.5231235 0.7513752 0.59940755 0.6126653 0.500899 0.6604413 0.4626491 0.50797784 0.60481405 0.62344694 0.68550825 0.7351259 0.709672 0.7332051 0.77203155 0.7701898 0.7524451 0.54419136 0.58744985 0.61931854 0.8421026 0.8535884 0.8760252 0.1592816 0.21447662 0.28230083 0.29569745 0.3228024 0.32332647 0.31997886 0.45731992 0.55478406 0.586808 0.13303176 0.08746822 0.09345715 0.12849332 0.05795026 0.019365214 0.026424093 0.035455767 0.040258262 -0.0051217186 0.2437366 0.5871847 0.61731803 0.37010336 0.30954573 0.6077831 0.62098986 0.33732092 0.65191984 0.31009644 0.31158686 0.65572023 0.28168476 0.56019586 0.21826887 0.39160568 0.40097293 0.3365442 0.32564497 0.46898192 0.4545591 0.09309457 0.39716217 0.27885044 0.25554383 0.3642013 0.38781172 0.16057979 -0.22701268 0.42591965 0.37524152 -0.14922975 0.45747054 0.4245376 -0.367148 -0.5339164 -0.18157753 -0.048392937 0.3920746 0.4368515 0.48057073 0.4942645 -0.27749062 -0.33398023 0.28997374 0.34340662 0.48328024 -0.1572073 0.32469112 0.44847983 -0.12605806 0.41405374 0.41061667 0.3398579 0.37682188 0.4309901 0.4039262 0.13588001 0.10516168 0.094838396 0.38918275 0.32642114 0.09442037 0.08805673 0.026101679 0.4608199 0.59097373 0.5992894 0.6297097 0.6230725 0.56476045 0.24723858 0.16887456 0.40764743 0.7090856 0.7581464 0.73680806 0.659788 0.6665726 0.44878078 0.31217366 -0.009507963 0.62883186 0.84020686 0.83453333 0.8251946 0.61081433 0.17737664 0.1499778 0.29977 0.7193857 0.8385593 0.85055864 0.84828746 0.63977075 0.39396793 0.6302104 0.65573025 0.774593 0.818474 0.42230755 0.49105752 0.5386516 0.5940633 0.96300805 0.9688325 0.9286542 0.39602 0.42050242 0.65955204 0.68468416 0.11173179 0.103914484 0.22437653 0.36124912 0.35028547 0.3600335 0.6423385 0.66904944 0.70522547 0.1648671 0.12894557 0.104336925 0.6403881 0.6852293 0.15638587 0.55551386 0.09551462 0.041962318 0.23069558 0.05106697 0.053413846 0.004827673 0.11520435 0.19713148 -0.0045692734 0.26741612 0.47077113 0.5112182 0.1709166 0.53662366 0.26177576 0.22849053 0.533223 0.5060901 0.2707339 0.255801 0.36799073 0.14113556 0.25749063 0.43738496 0.3819004 0.46460354 0.120282225 0.4570688 -0.0049612373 0.4193918 0.30174848 0.29153872 0.08730522 0.35112944 0.2048974 0.39777732 0.364413 0.2203702 0.46907777 0.29670858 0.41630697 0.390113 0.2688319 0.3271979 0.067215465 0.23154981 0.26008877 0.032198306 0.059470788 0.002431728 0.42643774 -0.06418543 -0.15692216 0.31173968 0.31166795 0.56286484 0.56919086 -0.13768327 0.07763704 0.4758446 0.487971 0.54299325 0.6548976 0.65059054 -0.016432451 0.2222654 0.3853423 0.48405075 0.6814772 0.68611175 0.387978 0.102507345 0.21360287 0.7192217 0.8067024 0.6996256 0.68941474 0.65110445 0.5746873 0.5471066 0.47815612 0.07409856 0.10760899 0.74993 0.82179177 0.8331021 0.83854055 0.67819697 0.11617548 0.26468366 0.4350189 0.538559 0.5683286 0.79967 0.7910365 0.8222449 0.83015716 0.37258005 0.4058488 0.4671276 0.88768697 0.88453186 0.9165268 0.88250065 0.38563052 0.50615907 0.6020455 0.7036493 0.7222864 0.124418825 0.3872885 0.43024597 0.40282467 0.7256593 0.765916 0.17528534 0.1951347 0.8175682 0.7321515 0.16480792 0.2764659 0.22790425 0.26825547 0.14320682 0.12134397 0.17660868 0.11927296 0.16868009 0.2260119 0.26679435 0.34502786 0.021171309 0.29353693 0.42408776 0.43425095 0.13062392 0.29543588 0.293339 0.1530069 0.22859089 0.27643007 0.42305344 0.1596017 0.44618547 0.25482905 0.18151227 0.15747157 0.1938994 0.17955965 0.10091448 0.37964264 0.3274369 0.45322663 0.44224703 0.4703148 0.4023097 0.45281076 0.056304038 -0.07232514 0.2591701 0.37721545 -0.2703347 -0.09977866 0.16635099 0.24469373 0.33411288 0.36331946 0.2733118 0.32178083 0.51471806 0.4061311 0.27887547 0.6267899 -0.111958414 0.6071058 0.61547214 0.681587 0.6974367 0.41193092 0.7228109 0.70509565 0.6941849 0.6527983 0.66943777 0.67410725 0.571469 0.7526339 0.6702781 0.66368186 0.68107164 0.21851176 0.17079717 0.1950013 0.3369596 0.66890156 0.736237 0.73603916 0.7193961 0.70692647 0.6802547 0.58332646 0.627584 0.26864058 0.7444016 0.7527878 0.7461448 0.4491592 0.67730796 0.7575961 0.7873434 0.39271563 0.34958646 0.2874769 0.49742007 0.38144195 0.3862394 0.45421818 0.8207731 0.84274304 0.34246048 0.46050838 0.83285505 0.29743838 0.3099156 0.7303241 0.15452912 0.6542616 0.3788454 0.1011234 0.3829007 0.3328111 -0.31922382 0.3450176 0.030760704 -0.14386523 0.15484563 0.2876317 -0.08436547 -0.03701288 0.10778506 0.19813523 0.22809334 0.12502755 0.16039528 0.17834781 0.18260801 -0.00797214 0.009507693 0.3980022 0.5079535 0.48882326 0.29030755 0.01614932 0.34652355 0.34253657 0.20203963 0.27855307 0.44725913 0.13900179 0.43742576 -0.016304381 0.056589518 0.297148 0.16599971 -0.010825835 -0.022516035 -0.014702568 0.29538032 0.42538342 0.45186782 0.4800614 0.48193407 0.45163253 0.4666279 0.062261943 0.41357762 0.34813225 0.2866569 0.1864045 0.35726455 0.39453042 0.55564326 0.10533272 0.3191659 0.40085632 0.39525405 0.59259003 0.61471915 0.6569374 0.23783603 0.029585559 -0.064532496 0.653811 0.652456 0.6681187 0.65668064 0.11314414 0.32159835 -0.03745354 -0.07003921 0.39676738 0.5815829 0.69143295 0.701054 0.72001874 0.57755053 0.47474426 0.5004437 0.43380338 -0.20548262 0.011684693 0.02249454 0.0039620474 0.093306184 0.18762726 0.5459577 0.4981223 0.572489 0.5724548 0.6192031 0.5422772 0.18013948 0.63114417 0.701928 0.5114734 0.5454246 0.5956821 0.41592097 0.5268641 0.6288001 0.6952382 0.8236761 0.44684172 0.5092348 0.77478594 0.7928344 0.2386654 0.21711896 0.64689356 0.70209587 0.53333354 0.4420401 0.45925713 0.5236575 0.60931695 0.50243837 0.47776186 0.44225526 0.27149752 0.44467953 0.4258846 0.09956972 0.15172872 0.40983367 -0.0803673 0.14196278 0.33407015 -0.22216949 -0.03132123 0.01744067 -0.04272842 0.11100611 0.15355922 0.11002607 0.26516858 0.008052573 0.11389486 0.120976746 0.15822999 0.16081902 0.13548286 -0.042629294 -0.0049951896 -0.007880994 0.055447206 0.039829124 0.07795957 0.119430184 -0.1282439 0.038652003 -0.12704301 0.017157644 0.059766844 0.11089408 0.32971415 0.43940064 0.55641174 0.57234836 0.15260781 0.06989771 0.5248053 0.39383978 0.2840844 0.44398135 0.4355694 0.2461469 0.2667253 0.44841176 0.14531508 0.41452163 0.05874233 0.46618617 0.41953388 0.43512183 0.4918564 0.4616464 0.45066082 0.47314662 0.43464637 0.49928832 0.5213072 0.5011933 0.5263776 0.5987526 0.369551 0.46729708 0.5006959 0.5361923 0.6182435 0.59513974 0.5318155 -0.28718817 0.0043313885 0.2965276 0.62189156 0.66033006 0.6858709 0.69198096 0.61149865 -0.012147695 0.2411922 0.39078707 0.26547053 0.68678147 0.70778036 0.7135287 0.04611029 0.25825182 0.22759804 0.3792727 0.3997119 0.15799665 0.18607885 0.044287704 0.39165333 0.30807614 0.6015444 0.62016535 0.5933697 0.5825399 0.66431904 0.6498035 0.6079267 0.6298537 0.6815481 0.5367739 0.61594045 0.6965203 0.7408582 0.55505407 0.47052765 0.46437138 0.581125 0.6023853 0.6284654 0.5885446 0.5713381 0.5334352 0.25855112 0.012871958 0.37831473 0.4945207 0.5119797 0.5243317 0.5436101 0.57922465 0.31397215 0.38879716 0.40501344 0.46336392 0.405465 0.46647066 0.35681608 0.18051808 0.1786251 -0.22210374 -0.03776686 -0.048396144 0.18590446 -0.21806139 -0.12302424 -0.108077 0.1253618 0.193381 -0.15850426 -0.28501073 -0.4883401 -0.25863892 -0.15595366 -0.14596951 -0.09807872 0.0049483553 0.09698422 0.1273137 0.34271884 0.5158603 0.5540687 -0.07799264 0.046227418 -0.047359467 0.1313377 0.5939463 -0.046526052 0.07610783 0.6156038 0.36770517 0.20761736 0.53598815 0.4326402 0.3949346 0.42633647 0.4429162 0.40708202 0.24644251 0.44753882 0.43496376 0.19485943 0.6901603 0.3827395 0.74280274 0.34593943 0.38206568 0.703524 0.64764905 0.37217844 0.5812887 0.33642468 0.52074254 0.46157837 0.34659386 0.37228784 0.11642821 0.5043099 0.0026696175 0.5538401 0.5674052 0.28369987 0.4475404 0.56805325 0.53908175 0.5678099 0.5473757 0.44171005 -0.19842903 0.6036861 0.57469356 0.62288016 0.6271798 0.5743525 -0.3970635 0.557416 0.57834154 0.6493654 0.6674377 0.64408386 0.5949109 -0.005819597 0.00079854205 0.16759731 0.15080228 0.17324564 0.17964804 0.49929607 0.06630816 0.31376636 0.4151298 0.47320288 0.47895145 0.4762083 0.36507338 0.32669067 0.27138722 0.49200046 0.49168438 0.6509082 0.64409226 0.690549 0.6703641 0.6282844 0.61246324 0.60250825 0.6324235 0.5838333 0.6124565 0.6101361 0.60294306 0.52880895 0.61839885 0.40509114 0.39609754 0.6045202 0.35005885 0.60587215 0.2832188 0.26905155 0.0917256 0.016227722 -0.12867305 0.013222601 0.010962585 0.6502304 0.59164214 0.021078773 0.59019583 0.49854657 0.15177314 0.15454356 0.29709962 0.32906604 0.20017636 0.42279923 0.4708136 0.5499209 0.6149446 0.30274054 0.15913264 -0.5176013 0.1687167 0.068778075 0.20732084 0.32475787 0.5908066 0.62735367 -0.017566156 -0.27574444 0.119612575 0.64661026 0.57145673 0.48609018 0.3723926 0.1286965 0.24674623 0.76111984 0.7408668 0.61491907 0.787269 0.3161099 0.7689129 0.20635971 0.31690565 0.64850533 0.18186069 0.24603453 0.55460024 0.46320206 0.22257324 0.3859145 0.31818444 0.2927144 0.28050902 0.1356323 -0.1655896 0.486502 0.52131236 0.55603224 0.15144096 0.037899576 0.5878931 0.57935864 0.13724652 -0.13623399 -0.39708874 0.6033683 -0.26724574 0.53413504 0.5580462 -0.019526042 0.10560917 0.15625826 0.19152945 0.21978854 0.4350984 0.5029402 0.1757338 0.43231973 0.38434345 0.48845965 0.4830432 0.45589092 0.45413032 0.38261563 0.48435003 0.4858998 0.7081791 0.63536817 0.63564825 0.6419672 0.66975725 0.7096321 0.54390824 0.5646627 0.58891857 0.6050235 0.6232518 0.63024247 0.6768682 0.43491432 0.5368328 0.5362684 0.62329006 0.628114 0.42943048 0.45372754 0.62470466 0.33160716 0.37813425 0.49403334 0.08455448 0.26419902 0.25325847 0.4172618 0.042170793 0.11560841 0.16476871 0.045038447 -0.293031 0.07265766 0.71947664 0.6796129 0.58477116 -0.35633224 0.098184176 0.7476069 0.71384776 0.62533104 0.4209271 0.122385696 0.7671726 0.72101855 -0.28469998 0.2828924 0.31907073 0.33571362 0.33826557 0.42341837 0.53081155 0.5630877 0.72770244 0.29734722 0.32171124 0.33736485 0.32516217 0.2657174 0.4574433 0.56495106 0.60792327 0.6438449 0.050597332 0.6448735 0.6509423 0.09164762 -0.0012559369 -0.21045844 -0.107946806 0.5850983 0.46934685 0.51406205 0.033911567 0.35116568 0.14825413 0.20546211 0.7873608 0.7499871 0.64715254 0.8127427 0.052711647 0.79271996 0.072439015 0.68699837 0.058369696 0.5674578 0.5073653 0.4212296 0.38504386 0.2958585 0.14284533 0.3706356 0.3357128 0.31637394 0.25665325 0.44144657 0.50386584 0.53613025 0.24153838 0.5658137 0.20226197 0.16629049 0.023333017 -0.068747886 0.5286415 0.5702521 0.47429317 0.5102096 0.18188578 0.20997456 0.22177045 0.2891633 0.38372594 0.47829038 0.38765317 0.46946335 0.23320128 0.4141639 0.41387132 0.45568317 0.45736217 0.6007147 0.5728861 0.506809 0.5131655 0.48421043 0.4380855 0.4697824 0.61180216 0.57965934 0.6850312 0.74022794 0.7673055 0.75161016 0.5177964 0.5196773 0.6444349 0.693599 0.6394148 0.36748284 0.49227315 0.5034113 0.6512284 0.37193173 0.39785528 0.61953974 0.51771057 0.38113743 0.43696278 0.25124365 0.3264776 0.33805394 0.3688419 0.056238234 0.14587577 0.6759644 0.039854757 0.20057791 0.14270154 0.7537103 0.71473134 0.5466164 0.22711848 -0.31142938 0.16324306 0.1327433 0.7773159 0.7628565 0.2798163 0.4362536 0.78416955 0.05531524 0.7645242 0.7331602 0.33642036 0.2961117 0.5090178 0.5503124 0.68721175 -0.06614916 0.26728028 0.28670308 0.23734854 0.31883812 0.50815654 0.5834213 0.6290555 0.4199046 -0.028354919 0.1807782 0.11180493 -0.0643515 -0.121175766 0.14468941 0.5193758 0.59219295 -0.0742186 -0.2983469 -0.1027177 0.27981573 0.46638215 0.1883