# vtk DataFile Version 2.0
Really cool data
ASCII
DATASET POLYDATA
POINTS 7641 float
-17.513592 -5.2229214 14.632766
-17.52878 -4.359045 13.715486
-17.599693 -4.3953557 14.502097
-17.529043 -4.2688046 15.428055
-17.597874 -3.3110445 14.570845
-17.536814 -3.758773 15.53246
-17.544857 -2.9961123 14.520686
-17.5398 -3.020061 15.256739
-16.617231 -7.066112 14.583477
-16.702454 -6.944358 15.1990795
-16.779957 -5.9167094 12.947998
-16.958961 -6.2330456 13.855026
-17.076347 -6.2677813 14.520625
-16.95602 -6.3928337 15.274688
-16.763796 -5.0661116 11.820114
-16.913876 -5.3310204 12.386791
-17.285036 -5.360519 13.550322
-17.44675 -5.4964824 14.398316
-17.329613 -5.3299007 15.313126
-16.812744 -5.373602 16.148743
-16.836185 -4.393904 11.83613
-17.235273 -4.507853 12.697874
-17.416698 -4.396309 13.519758
-17.364212 -4.4795537 15.409758
-17.18979 -4.312581 16.066942
-16.92345 -3.8667734 12.108848
-17.041636 -3.6815498 12.567533
-17.38993 -3.469322 13.562632
-17.482983 -3.6080275 15.507788
-17.136868 -3.5807157 16.120453
-16.835997 -3.0162132 12.870763
-17.148062 -2.7200243 13.629682
-17.387672 -2.6814058 14.506824
-17.232065 -2.7163093 15.444602
-16.959957 -2.68587 16.001505
-16.916807 -2.2100701 13.929319
-17.057383 -2.1960962 14.400424
-16.893467 -2.223955 15.248872
-15.894069 -8.155886 14.74956
-15.97762 -8.141105 15.37013
-15.967739 -8.021589 16.47062
-15.869031 -8.029969 17.824509
-15.7456045 -7.9281135 18.389103
-16.183193 -7.285014 13.923953
-16.319963 -7.315931 14.691828
-16.361132 -7.539945 15.362641
-16.15834 -7.5493565 16.90453
-16.08184 -7.501637 17.724272
-16.007074 -7.351305 18.285114
-15.6799965 -7.455072 18.84367
-16.085997 -5.9967947 11.912763
-16.46672 -6.056026 12.651664
-16.452541 -6.599345 13.608402
-16.397686 -6.5826006 16.59432
-16.300888 -6.7345877 17.13407
-15.893926 -6.7139373 18.450079
-16.108004 -5.2147636 11.135935
-16.404165 -5.202762 11.522486
-16.545628 -5.681325 12.339863
-16.229748 -5.7123413 16.688679
-15.942168 -5.9997067 17.69522
-15.708406 -5.763977 18.378014
-16.097616 -4.571604 11.022445
-16.602304 -4.798831 11.542497
-16.201385 -4.422784 16.841232
-15.9511795 -3.969209 11.052315
-16.363964 -3.881554 11.400021
-16.353615 -3.3813496 16.782097
-15.872361 -2.766358 11.909702
-16.392902 -2.648369 12.902066
-16.623468 -2.827446 16.435003
-16.180164 -2.8825648 16.721395
-16.427477 -2.0104492 13.754263
-16.466122 -1.8700564 14.57218
-16.411974 -1.9486883 15.217544
-16.272089 -2.051125 15.870514
-15.515044 1.5757638 5.2898335
-15.042794 -8.663444 14.710638
-15.108211 -8.781507 15.4685755
-14.943407 -8.792273 16.790953
-15.079465 -8.695628 17.426495
-15.013986 -8.581042 18.018616
-14.984489 -7.6493397 13.229073
-15.175194 -8.240337 14.065069
-15.500277 -8.406013 14.584746
-15.634165 -8.436797 15.396462
-15.534213 -8.3764305 16.649656
-15.519291 -8.393102 17.649063
-15.312489 -8.30431 18.395952
-15.192241 -8.123144 18.85202
-14.657496 -7.0198164 11.026498
-15.017718 -6.7855325 11.453586
-15.443601 -7.096613 13.012506
-15.259254 -7.514593 19.093077
-14.746406 -6.163428 10.256139
-15.236555 -6.0766783 10.863434
-15.631898 -6.626579 12.195017
-15.401915 -6.4107065 19.043484
-15.047903 -5.2820883 10.13698
-15.551224 -5.3858414 10.668241
-15.469953 -5.5186243 18.375792
-15.0173 -5.8133125 19.123344
-15.106405 -4.6351657 10.12076
-15.626026 -4.913616 10.508648
-15.392503 -4.2241545 17.342897
-14.771684 -4.014682 20.41232
-14.891959 -3.6641579 22.195269
-15.189936 -3.6575365 10.573448
-14.920743 -3.2628002 18.319754
-14.819416 -3.6117687 19.543236
-14.976109 -3.277322 20.621864
-15.18634 -3.3079293 21.6651
-15.079338 -3.2976987 22.394623
-14.796744 -3.226078 23.080408
-15.225013 -2.7587981 17.089119
-14.878261 -2.963617 18.746277
-15.264875 -2.4109538 20.915447
-15.37891 -2.5449216 21.718569
-15.414285 -2.4039156 22.45747
-15.023578 -2.4471588 23.383423
-14.855584 -2.1606703 23.842728
-14.64379 -1.3521678 11.019189
-15.144949 -2.2471774 11.877589
-15.5647335 -2.248248 12.603768
-15.620136 -1.6557583 14.523814
-15.526066 -1.8571582 15.440942
-15.717981 -2.0487418 16.095211
-14.865274 -1.5792931 19.768555
-15.016995 -1.364949 20.57859
-15.373751 -1.6240612 22.35043
-15.230377 -1.4022894 23.219193
-14.9997 -1.2462134 24.021069
-14.736505 0.24410734 4.9786706
-14.913287 0.2810281 5.513796
-14.755094 0.025501937 6.1405644
-14.841242 -0.720374 20.690622
-15.138689 -0.82376873 21.770546
-15.217239 -0.7337546 22.570435
-15.041205 -0.52561635 23.479464
-14.799344 -0.7945939 24.166658
-15.032268 0.8971154 4.854652
-15.219397 0.73222196 5.521057
-15.176995 0.7118645 6.097176
-14.737417 0.7604886 6.8778276
-14.842479 0.06969783 21.703817
-14.852911 0.329407 22.433252
-14.732836 0.20266156 23.241478
-14.684033 -0.070631996 23.828358
-14.861819 1.6476729 4.2890487
-15.193508 1.5401089 4.728341
-15.420325 1.5604252 5.400429
-15.340651 1.5262593 6.231016
-14.911755 1.5165584 6.9885073
-14.79354 2.0981858 4.3025007
-15.047044 2.2762012 4.718053
-15.272711 2.3025837 5.4334908
-15.17044 2.327555 6.275827
-14.953481 2.1749516 6.8263984
-14.851899 2.711645 4.941825
-14.932057 2.7896864 5.46383
-14.806744 2.7437844 6.400652
-14.396162 -8.747585 14.788915
-14.503868 -8.946288 15.548757
-14.30726 -9.074547 16.498314
-14.482375 -8.864626 17.442383
-14.453171 -8.65533 18.326948
-13.736418 -7.8055105 10.776136
-13.8636 -7.9669104 12.024213
-14.321923 -8.293892 14.03968
-14.651134 -8.45952 18.613298
-14.53761 -8.107804 19.14014
-14.080318 -7.412642 10.686654
-14.294364 -7.5108657 11.803258
-14.675051 -7.308827 19.423874
-14.57179 -7.2786417 19.617065
-14.370858 -6.240547 9.995063
-14.503056 -6.8235 19.625546
-13.824126 -5.5168104 9.387461
-14.337311 -5.457453 9.682737
-13.917426 -4.777261 21.163242
-14.450273 -4.652581 9.741903
-14.475652 -4.3585906 20.71742
-14.58309 -3.9717405 21.687616
-14.330361 -3.9826274 22.454447
-14.092858 -3.7295086 9.580478
-14.5060005 -3.2550113 23.329123
-14.043202 -2.714435 23.964766
-14.423696 -2.350728 10.457929
-14.43721 -2.3977878 17.18057
-14.544781 -2.5807097 18.090464
-14.162227 -2.1733963 24.466242
-14.221545 -1.8693128 24.71458
-14.116135 -1.6262425 10.153893
-14.414445 -1.4976032 10.530236
-14.731372 -1.4219577 13.520312
-14.644231 -1.5596513 14.63189
-14.928677 -1.8287283 15.413745
-14.358709 -2.0092564 16.163084
-14.242182 -1.9561921 17.503744
-14.553714 -1.4818935 24.576706
-14.232589 -1.4527366 24.813797
-14.287255 0.0025694966 5.0599685
-14.310401 -0.14959237 5.5397034
-14.488062 0.06708014 6.4253254
-13.855467 -0.799864 10.274539
-14.0264635 -0.9838168 10.408438
-14.028193 -0.5477351 11.883641
-14.130123 -0.8775815 12.293899
-13.978663 -0.86006856 13.3565445
-14.030289 -1.3176097 14.523141
-14.410714 -0.89405966 19.664917
-14.524911 -0.7131355 24.531279
-14.264606 -0.6851442 24.736368
-14.6003 1.03428 4.3170114
-14.532167 0.62071234 4.598614
-13.880567 0.14021856 20.191277
-14.245083 0.3479505 20.730593
-14.459987 0.5058222 21.265257
-14.300536 0.5667629 23.583176
-14.258414 -0.15936053 24.361048
-13.918512 -0.27048737 24.748331
-14.505246 1.5628569 4.1262546
-14.512931 1.490305 7.396257
-14.080264 0.8810661 21.200377
-14.386468 1.0232657 21.787968
-14.31922 1.0970209 22.492876
-14.253576 0.99947625 23.150278
-13.876534 0.7635355 23.692661
-14.417933 2.2385983 4.1844745
-14.526865 2.6029654 4.4743066
-14.513277 2.328332 7.1606574
-14.40349 2.8625305 4.7566857
-14.397085 3.097333 5.5353355
-14.335819 3.0317643 6.363952
-14.284651 2.7960382 6.888775
-13.966015 7.0282497 25.81276
-13.945795 7.0920544 26.510973
-13.816347 7.202782 26.888407
-13.67125 7.7143655 24.090225
-13.911257 7.550474 24.842234
-14.242526 7.584882 25.793242
-14.230359 7.57585 26.436722
-13.955792 7.6895013 27.012224
-13.71185 8.251762 24.05105
-13.942571 8.340434 24.657564
-14.260264 8.384932 25.80182
-14.251463 8.390102 26.37139
-13.880809 8.315107 27.14135
-13.726892 8.830729 24.556307
-13.906923 9.18594 25.635553
-13.88743 9.196245 26.400204
-13.822363 9.013347 26.909489
-13.782453 -8.771076 15.055886
-13.553826 -9.01863 15.698239
-13.517508 -9.162153 16.559809
-13.518268 -9.028593 17.36377
-13.633102 -8.747256 18.130302
-13.038456 -7.713789 9.954447
-13.141211 -8.151167 10.847313
-13.3697195 -8.234734 11.447525
-13.387557 -8.076915 12.470582
-12.967699 -8.181106 13.384165
-13.021586 -8.493798 14.688646
-13.665099 -8.454711 18.643898
-13.534025 -8.095731 19.184963
-13.140207 -6.8744245 9.2435
-13.40738 -7.306319 9.882307
-13.874272 -7.4635787 19.690924
-12.857812 -6.178512 8.735493
-13.551024 -6.6221633 9.484322
-13.165649 -6.785384 19.873724
-13.601547 -5.1204853 9.277399
-13.179306 -5.3069324 21.192987
-13.624581 -4.646393 21.964651
-13.630995 -4.7141237 9.225615
-13.6691 -4.5873384 21.359913
-13.64171 -4.1603804 22.55198
-13.610523 -3.9957366 23.094236
-13.582636 -3.8385904 9.2540865
-13.62531 -3.5823348 9.431053
-13.551828 -3.323481 23.65229
-13.389524 -2.628464 24.095572
-12.911326 -0.5629902 5.712373
-13.2438135 -1.7484744 9.608895
-13.204575 -1.4790556 16.67671
-13.575743 -1.5063171 18.05979
-13.612437 -1.4570805 25.03286
-13.22807 0.0045470893 4.6941366
-13.616633 -0.24276412 6.4487553
-13.068711 -1.0720536 9.741161
-13.4410095 -0.51231456 12.316485
-12.797599 -1.1790842 14.824871
-12.962683 -1.2831112 15.848014
-13.588472 -1.3285718 18.355701
-13.368606 -0.6941804 24.911058
-13.377214 0.77278763 4.0337377
-13.1330595 0.3376931 7.7411623
-13.025793 0.80448955 11.359537
-13.047504 0.09409204 12.315822
-13.416732 -0.16664693 19.726562
-13.597949 0.5403551 20.500128
-13.600752 0.20915854 24.244537
-13.54003 1.4014015 3.9098353
-12.743467 1.2850579 8.494375
-12.952735 1.0213909 10.6095495
-12.856184 1.2649972 11.31438
-12.70992 1.242821 11.871767
-13.464426 1.0390233 20.890633
-13.531756 1.3399863 23.193302
-13.262544 2.292435 3.9700956
-13.21863 1.6153096 22.518854
-13.327353 2.8828015 4.2647524
-13.413805 3.2211826 4.7977095
-13.421523 3.4138343 5.6501203
-13.395274 3.3179972 6.261272
-13.415672 2.8320904 7.1682916
-12.965918 3.5381088 5.5414524
-12.875996 6.3925467 24.71188
[...]
POINT_DATA 7641
SCALARS features_00 float 1
LOOKUP_TABLE default
0.4538182 0.51682264 0.5134201 0.49663952 0.58896685 0.5416436 0.60768044 0.6044252 0.36897647 0.37801853 0.36501065 0.36759156 0.38297945 0.3762523 0.405029 0.40882742 0.4357811 0.43791032 0.4162593 0.35340294 0.43824726 0.47877932 0.50988567 0.47326887 0.45391944 0.47059226 0.49879485 0.5578236 0.55567384 0.5269519 0.4920054 0.56808865 0.6211576 0.61385155 0.58428025 0.58054554 0.6133412 0.6069317 0.41431484 0.43373448 0.48140252 0.5772384 0.6073996 0.3439547 0.37869638 0.40205154 0.4883263 0.54968554 0.575786 0.61691177 0.32127398 0.335759 0.33251214 0.380013 0.425678 0.5300275 0.36019263 0.37739846 0.36546636 0.3038433 0.36032817 0.3646622 0.3706338 0.40220582 0.32539004 0.37279075 0.4119134 0.43500817 0.3572106 0.45136565 0.52690035 0.42655623 0.5157202 0.54280186 0.5350287 0.49118084 0.9056632 0.41797984 0.4638574 0.5171299 0.55268186 0.58618206 0.247138 0.36979586 0.41680604 0.4532673 0.5082456 0.57040405 0.609973 0.6259472 0.33837736 0.2934721 0.24854758 0.6300812 0.3239562 0.32361087 0.2570633 0.55369747 0.30763674 0.3342234 0.29381192 0.41994703 0.2950707 0.3335352 0.12804036 0.3014359 0.39283586 0.29631463 0.023483664 0.2041101 0.35080945 0.41816354 0.45354128 0.47290993 0.1658293 0.0937766 0.43544847 0.49686384 0.5598259 0.5752119 0.5945002 0.3332656 0.29506955 0.34626612 0.3614094 0.32770264 0.35473815 0.25581345 0.40257478 0.58687186 0.6300324 0.631269 0.8023974 0.81862116 0.7824346 0.3856532 0.52238476 0.6056175 0.6237179 0.6244012 0.852005 0.86084723 0.871482 0.8129586 0.5283012 0.63537836 0.6334083 0.6179597 0.8585514 0.87435293 0.91359687 0.9401143 0.8686262 0.86041105 0.8757576 0.910166 0.9066372 0.8692945 0.86552286 0.8779957 0.850932 0.3807959 0.44823754 0.4951735 0.54265255 0.5820098 0.38449997 0.3148383 0.2964027 0.60539323 0.6182536 0.37728038 0.31032708 0.6181143 0.6085559 0.31881836 0.5679605 0.23852222 0.27452987 0.1669042 0.25761655 0.26542738 0.32843253 0.33646676 0.218433 0.45885703 0.4861461 0.25628787 -0.010443196 0.015590519 0.5539025 0.5790988 0.2792918 0.3101145 0.16070995 0.111974865 0.17546509 -0.009294793 -0.05920565 0.6108446 0.59336853 0.7455379 0.72680545 0.7490599 0.32302922 0.325028 0.17493248 0.123295195 -0.05599218 -0.051885765 0.21764788 0.61133444 0.5955812 0.82720745 0.8081821 0.25558645 0.36021468 0.45771092 0.63324964 0.5960164 0.5710806 0.8350758 0.76719415 0.4366582 0.6051316 0.705101 0.67402774 0.60878986 0.83743757 0.8432971 0.7890141 0.83044493 0.8136471 0.774691 0.75832534 0.8647938 0.91836584 0.9239534 0.64953846 0.73442507 0.8786 0.9246702 0.9260571 0.6223081 0.71353066 0.88732475 0.92126083 0.9093218 0.67631435 0.8012044 0.84454715 0.8632996 0.34663 0.3843518 0.44816586 0.48047125 0.5087603 0.35275656 0.38499472 0.3689137 0.25805852 0.13882853 0.22910173 0.5353167 0.5502479 0.2788656 0.34645733 0.56915677 0.22816184 0.2908497 0.38215965 0.20421663 -0.05678566 0.15716766 0.19022201 0.1709573 0.23931071 0.27797148 0.17842317 0.19863454 0.36084768 0.42026323 0.4863798 0.24319673 -0.15339516 -0.0923485 0.54741925 0.6693041 0.58025134 0.22971839 0.017158642 -0.17760217 -0.14699423 -0.07013438 0.52639705 0.7434817 0.45726874 0.18193348 0.047351576 0.117855564 0.23181051 0.5504091 0.7767818 0.30035737 0.23286673 0.22807454 0.21006432 0.29793411 0.60113704 0.7570839 0.57891804 0.73743224 0.7093757 0.650625 0.6017501 0.5788328 0.5827142 0.7462137 0.57699317 0.58187574 0.5935338 0.56195015 0.6414577 0.6859355 0.79603803 0.90070724 0.9056505 0.60703486 0.64848423 0.65644014 0.59729135 0.6048298 0.9130746 0.9029929 0.61277103 0.6558037 0.67936945 0.64940655 0.4860959 0.8877952 0.891745 0.63851726 0.5985731 0.5664265 0.45260286 0.5695288 0.81456697 0.8200139 0.5201564 0.48392206 0.4269668 0.57144153 0.72806597 0.749532 0.7648431 0.28756443 0.3484159 0.34563106 0.33181757 0.37519938 0.32621172 0.28427914 0.12848616 0.28661656 0.36523783 0.4481181 0.49818006 0.38227725 0.3094936 0.34944898 0.14058359 0.50790846 0.41388625 0.09050615 0.41149318 0.3360568 0.2450442 -0.11322117 0.0030751452 0.3631133 0.28677738 -0.07060084 0.3313628 0.13439 0.346264 0.20068237 0.19600356 0.21081944 0.41641706 0.3485186 0.60557705 0.64498365 0.4481961 0.12970081 -0.15647422 -0.12589775 -0.111077584 -0.090088025 0.41684338 0.67681885 0.12960708 -0.09663318 -0.1219022 -0.10096 0.3785632 0.66837996 0.19498351 0.2608377 0.23943228 0.17793007 -0.11479993 0.11918231 0.4058181 0.43518564 0.6644466 0.2902454 0.27661967 0.25724894 0.19438833 0.2338095 0.21837637 0.482687 0.59279704 0.5673125 0.43845564 0.26872185 0.5277004 0.5163925 0.4659363 0.49085775 0.74725425 0.75871325 0.8015274 0.4542594 0.48626673 0.509017 0.46498102 0.6385199 0.82319105 0.8689678 0.5238594 0.5559275 0.88854337 0.5891192 0.3035428 0.8548645 0.5879891 0.5880177 0.18747722 0.2465843 0.7695148 0.82740784 0.50738174 0.48948252 0.43866614 0.33399022 0.21556014 0.26895806 0.30055562 0.44750023 0.65936196 0.728189 0.43648374 0.33393738 0.15065023 0.13276058 0.5262811 0.23880668 0.29048786 0.12562847 0.13743763 0.26510555 0.23606071 0.42853403 0.5693802 0.53109646 0.40233737 0.2898309 0.31365085 0.27229878 0.56573623 0.558027 0.112267755 0.46328446 0.4304649 -0.013780311 -0.046331573 0.15430886 0.2594373 0.3718178 0.3585328 0.3580989 -0.12903917 -0.005504489 0.29208484 0.4346197 0.4822375 0.26539075 0.3212404 0.44700772 0.55701464 0.6015954 0.38643742 0.54297954 0.6066639 0.63600016 0.1250405 0.12794624 0.1475115 0.4224037 0.5220517 0.59795284 0.16957518 0.3257675 0.42924184 0.54276145 -0.16409552 -0.13331056 -0.109461725 -0.11566572 -0.053179692 0.5822864 -0.13778901 -0.12701827 0.25955597 0.087580666 0.5792599 0.124150865 0.2550603 0.23263197 0.18431924 0.18620378 0.23319332 0.18428922 0.27265498 0.5762241 0.45504484 0.42981926 0.37269405 0.32526952 0.06968791 0.25920713 0.22599484 0.19714318 0.20042248 0.23342317 0.28756574 0.45493555 0.43311283 0.17950782 0.20088826 0.27715775 0.27290827 0.12880492 0.339296 0.63076645 0.69426775 0.7480649 0.46256667 0.7686417 0.85007775 0.514629 0.7714187 0.83344114 0.5325178 0.57777804 0.6400577 0.479389 0.44640914 0.4430232 0.46828538 0.526304 0.6351182 0.42237473 0.4205652 0.4011143 0.35219258 0.23463431 0.24758165 0.30390185 0.35902908 0.42068484 0.40492955 0.120943256 0.5490385 0.4984473 0.46122903 0.31271422 0.11408878 0.099694155 0.13248621 0.11510324 0.06767137 0.41028965 0.45957738 0.47962174 0.47552067 0.4696023 0.5748186 0.57142264 0.08581373 0.048445135 -0.029357087 0.32228202 0.526934 0.09461471 0.23873179 0.27003348 0.4096014 -0.012918866 0.18451253 0.33586335 0.34305486 0.31603986 0.44131768 0.44803444 0.21884474 0.5544282 0.6221475 0.044785984 0.13811913 0.5283024 0.61211485 0.062295213 0.09661302 0.34705073 0.42830563 0.54174215 -0.0036499724 0.27211806 0.08322957 -0.02507607 -0.10738561 -0.123915374 0.39992353 0.040998608 -0.062430546 0.38067645 0.23604864 0.0589827 0.037838038 0.1393427 0.12582462 0.121960655 0.1575728 0.18814868 0.10120958 0.052279346 0.004692957 0.16600546 0.18408197 -0.03542097 0.1429887 0.06111799 0.51156116 -0.084833995 0.11561553 0.12822083 0.3116065 0.40589407 0.49298167 0.5066386 0.286201 0.59236556 0.6811626 0.33624622 0.4461819 0.6287814 0.53631884 0.5528773 0.4199497 0.41093022 0.42777207 0.47370565 0.39352667 0.41757944 0.24041694 0.21034132 0.24827693 0.30968067 0.37808132 0.42420208 0.40859735 0.36170748 0.20439577 0.16898397 0.5322256 0.5821578 0.61061543 0.51257384 0.47641313 0.3837524 0.0032351203 0.020344995 0.12909964 0.140183 0.17760761 0.13137718 0.39277738 0.49055216 0.5141556 0.5412242 0.55195624 0.5001657 0.536 0.10729575 -0.07891441 -0.2381689 0.25341764 0.20110059 0.450935 0.22000591 0.17136209 0.17275876 0.21837363 0.2892859 0.4115873 0.23837903 0.22060108 0.2128438 0.33223888 0.16791615 0.14033481 0.45791972 0.19625078 0.11718702 0.51590025 0.21524487 0.5444864 0.5238256 0.2053493 0.3737242 0.47929215 0.17698468 0.17997484 -0.030470774 0.2028411 0.09090432 0.1058096 -0.13690405 0.016744226 0.018383786 -0.058555022 -0.07608171 0.1088572 0.11062569 -0.040271893 -0.21181649 0.11410205 0.07065382 0.009778321 -0.027818173 -0.04052201 0.02575253 0.01425533 -0.00066800416 -0.076881066 -0.06021224 0.059301943 -0.076534115 0.14094439 0.1861426 0.38346964 0.4795214 0.008626778 -0.011777332 -0.0680688 0.377913 0.50552166 0.5348712 0.35498512 0.53449535 0.35225338 0.292557 0.42712438 0.40620896 0.23296812 0.2468121 0.42018956 0.3360762 0.23982503 0.081204236 0.14725856 -0.004188955 -0.056443185 0.18086721 0.4683166 0.5141007 0.61311305 0.64672285 0.612867 -0.13787466 -0.10947709 -0.012919471 -0.04967679 0.007863574 0.1563779 0.17646454 0.2023605 0.18448043 0.17051275 0.4088279 0.43119693 0.55703086 0.46892458 0.44697958 0.3926314 0.22268926 -0.08485237 0.24224272 0.3952159 0.35639787 0.096737534 0.036167532 0.15287907 0.19635686 0.26482874 0.19164227 0.12915966 0.29426926 0.37125877 0.1190968 -0.046415582 -0.027796328 0.39984772 0.40494013 0.15057848 0.38153112 0.1647914 0.29406902 0.2790574 0.17109662 0.20970353 0.37645507 0.20316239 0.26674187 0.17437035 0.17290393 0.09930875 -0.12451635 0.019596845 -0.1719475 0.11049891 -0.08344984 -0.1129277 -0.11040485 -0.013373481 0.105622865 0.122607365 0.12658614 -0.10202889 0.08226141 0.075666204 0.10228912 -0.42422912 0.33021367 0.12421253 0.069324926 0.20244904 0.3366769 0.15298326 0.09099818 0.47656333 0.19562815 0.23846829 0.17528789 0.21528785 0.14800069 0.21011497 0.3112433 0.15356344 0.009220857 0.038345307 0.5466522 0.56245947 0.49839938 0.4578993 0.524838 0.54587257 0.4969618 0.39566296 0.40649307 0.40241963 0.40642583 0.32024938 0.28506964 0.22483803 0.2415264 -0.04842171 -0.065795735 0.2345443 0.44965506 0.51124364 0.5517908 0.6321943 0.61825097 0.3731539 0.19973172 0.08918447 -0.020551391 0.21377291 0.2402173 0.250599 0.24034145 0.40233836 0.46292314 0.46723652 0.50945383 0.47054267 0.64544857 0.39769715 0.3954059 0.35811314 0.2712558 -0.04630093 0.19840246 0.3213076 0.3519087 0.13927214 -0.0141904205 0.003638588 0.105790675 0.429825 0.5763792 0.6743554 0.7241633 0.38898504 0.36986545 0.32953578 0.13327563 0.22356927 -0.0075747967 0.07096323 0.12407148 0.12797305 0.60466814 0.68952197 0.7059635 0.31567943 0.2448976 0.15966153 -0.17792475 0.58643365 0.63767207 0.65334386 0.32499453 0.22913378 0.12175963 0.33392245 0.30426386 0.32374334 0.54985577 0.37503046 0.25210416 0.14537963 0.28516078 0.21434294 0.41661942 0.26868474 0.14679688 0.124078564 0.1795525 0.16567647 0.12776054 0.12479705 -0.29281762 -0.22751409 -0.12656805 0.12728126 0.16955057 0.25353768 0.11907932 -0.42791146 -0.067439236 0.10851346 0.15634361 0.4271612 0.24833095 -0.1514808 -0.19866803 0.58161473 0.5690017 0.44266567 0.23659989 -0.17385839 -0.034867454 -0.21859603 0.62400615 0.6096053 0.50288415 0.39631963 0.07389822 0.13067633 -0.09269835 0.6182592 0.16733551 0.09902786 0.16940996 0.1953798 0.10030399 0.24545541 0.34519577 0.3631634 0.2347253 0.008503363 0.6084348 0.5458449 0.37728763 0.37766433 0.07774384 0.046711147 0.7083646 0.7128256 0.6374443 -0.027542777 0.029186284 0.6749505 0.055877596 0.021444932 -0.0037588086 0.5130304 0.63085663 0.5877811 0.65901315 0.44593686 0.5055797 0.48746854 0.42805666 0.501325 0.54676867 0.4978169 0.37974977 0.26582617 0.3981582 0.32807675 0.36920345 0.23202823 0.050493598 -0.02919751 0.13165477 0.11097884 0.582113 0.6522972 0.6333043 0.5703523 0.26669815 0.23247099 0.23423758 0.30629826 -0.110258095 -0.08131108 -0.014686118 0.44779092 0.5422013 0.54440427 0.5133307 0.50694144 0.57310486 0.3128119 0.29719347 0.31559134 0.28663677 0.2273407 0.16619101 -0.13077453 0.17653053 0.23411642 0.21146086 0.17706595 0.35029554 0.3628776 0.33339146 0.55768126 0.18229195 0.10088613 0.29358682 0.32385156 0.60579693 0.6547949 0.31889844 0.3460616 0.25183657 -0.08847855 0.15354833 0.06318991 0.27929357 0.44487676 -0.27284774 -0.014863454 0.052618146 0.04617876 0.052241236 0.72665226 0.7275257 0.30234116 -0.15240693 0.72011995 0.31037694 0.65339 0.6857311 0.4462821 0.40591663 0.29749036 0.47602698 0.5737299 0.46092403 0.41931796 0.17567265 0.21433842 0.41315168 0.4852174 0.46269828 0.08486101 0.17474239 0.17748678 0.40237904 0.17358251 -0.28684333 -0.0434395 0.0134927705 0.014652379 0.059389934 0.2282306 -0.0068994015 0.2831124 0.30109698 0.2809617 0.14913818 -0.13112187 0.15295993 0.21376684 0.27673984 0.30770487 0.44585598 -0.034034286 0.13162944 0.2489441 0.5694592 0.57167876 -0.2706575 -0.39418504 0.5817559 0.6160538 0.5178189 0.11679334 0.03878643 -0.1990941 -0.032868154 -0.14179766 -0.05377954 0.6222089 0.6158818 0.48240972 0.24805541 -0.038187824 0.11848325 0.14753641 0.14731085 -0.068294734 0.07488948 0.043989718 0.15190178 0.12713353 0.18272571 0.12466156 0.107499085 0.09625249 0.515241 0.12016292 0.6363132 0.5866237 0.049632892 0.7301225 0.75669044 0.5252789 -0.07700573 0.7822795 0.7538512 0.68028116 0.5727234 0.46466598 0.73080766 -0.030259877 0.0076709613 0.4454777 0.52785164 0.028683309 0.22025417 0.40418297 0.52783406 0.63899577 0.6277024 0.4396485 0.68381655 0.68067527 0.50401425 0.62936085 0.665511 0.67287517 0.5932483 0.6236223 0.3597039 0.4014287 0.40924886 0.37474582 0.38523555 0.27698004 0.28436065 0.13942079 0.17225845 0.2897768 0.25378898 -0.06712383 0.1108827 0.18925464 0.33616647 0.40925926 0.44616783 0.58212423 0.67924285 0.65353787 0.5410357 0.25976622 0.10965815 0.11035723 0.14387363 0.16172421 0.2686321 0.39966553 0.42796808 0.5024556 0.57031345 0.6110345 0.5420393 0.37070453 0.2581756 0.21224687 0.1768526 0.023946894 0.15900615 0.3144188 0.45561096 0.47973806 0.33374423 0.45255607 0.56026316 0.60343814 0.4633299 0.3033371 0.17191109 0.081615 0.12443122 0.07064522 0.6005564 0.6306567 0.65116143 0.4554444 0.21923167 -0.17095712 0.07992155 0.0915635 -0.24881178 -0.067053795 0.05226803 -0.011782933 0.0252821 0.6881604 -0.41990462 -0.2978891 0.6961593 0.38297993 0.31308892 0.6427794 0.44353473 0.56546056 0.47714671 0.30189788 0.38522938 0.51314527 0.07091249 0.09135548 0.17209978 0.221437 0.36528945 -0.11678116 -0.1909306 0.07583292 0.025993377 -0.09349101 0.22191042 0.21332066 0.26878726 0.3074323 0.29091775 0.35967678 0.36940926 0.1914832 0.2940338 0.26322246 0.2650127 0.445463 -0.237474 0.058197603 0.5463786 0.5851909 -0.24141598 -0.10566729 -0.09900963 0.5722955 0.5723534 -0.117550895 -0.214878 -0.008097917 0.10055942 0.057048842 -0.065953985 -0.009474508 0.60670614 0.75394136 0.8023902 0.48780763 -0.16853988 -0.09380375 0.10449926 0.028022371 0.73412037 0.80103874 0.83203936 0.8491341 0.075858295 0.71380943 0.8110205 0.8507079 0.86785114 0.33417246 0.08107251 0.55470264 0.08916178 0.13781348 0.6798927 0.019033656 0.14870057 0.21112145 0.7474569 0.014578238 -0.13975455 0.778955 0.7788787 0.75693023 0.5937237 0.29054874 0.13156581 0.73015726 0.71341515 0.6386292 -0.032476317 -0.028194547 0.4050113 0.078944094 -0.014673813 0.47880024 0.40468788 0.2532744 0.05171298 -0.004199153 0.1844728 0.638173 0.55876017 0.42417556 0.42201808 0.21753716 0.11642365 0.2894577 0.617314 0.5237175 0.58981276 0.5443661 0.54717505 0.31257313 0.3119949 0.4497911 0.41936523 0.2660787 0.0697915 0.00660434 0.22931248 0.14978875 0.17365253 0.1618662 -0.026706122 0.37240276 0.4008357 0.36515912 0.24825889 0.1889439 -0.07510736 -0.05427874 0.044475272 0.23287243 0.34835237 0.4193275 0.38263956 0.21676147 0.3746609 0.44350404 0.45341408 0.50783515 0.5567521 0.6351982 0.60459214 0.513247 0.47714165 0.30287087 0.191372 0.4352799 0.37280732 0.46664155 0.41969383 0.6851436 0.58784556 0.30449638 0.34100497 0.13002583 0.4409252 0.55927324 0.58925974 0.68625325 0.57787377 -0.30275297 -0.37111527 0.11007908 -0.06249718 0.0045813723 0.11978088 0.5733087 0.5867114 0.66374326 0.52486926 -0.3607319 -0.02645533 0.029729564 0.034783427 0.5946792 0.5172547 0.5917107 0.28052655 0.545146 0.27097055 0.41063628 0.5272741 0.48568743 0.28490722 0.30625105 0.34764844 0.47144246 0.16039513 0.22781068 0.24925765 0.30107522 -0.0858057 -0.07034421 -0.005510837 -0.11456782 0.05641392 0.23707184 0.13734037 0.26613626 0.23755577 0.24519059 0.38685244 0.17197749 0.4502499 -0.13735932 -0.08929595 -0.06899047 -0.14199537 0.414958 0.4985222 0.6592693 0.69459367 0.4732957 -0.09369749 -0.1297063 -0.016858637 -0.19015105 -0.24123658 -0.1192078 -0.1145955 0.38434857 0.4860224 0.56863457 0.6765105 0.75836253 0.7751187 0.22048217 0.22240719 0.06692186 0.012265027 -0.12685436 -0.17162277 -0.09090498 -0.12368847 0.3905258 0.52094615 0.8257899 0.84555566 0.23671031 0.28023502 0.295957 0.21532458 -0.014579102 -0.005794212 0.041422594 -0.18187815 0.44714087 0.58389914 0.8532729 0.8701515 0.34949395 0.38608372 0.35952312 0.06026923 0.5229018 0.7121977 0.8058318 0.84431934 0.3976897 0.18762213 0.15417299 0.6509136 0.24715824 0.21573941 0.71282375 0.7305566 -0.098712415 0.123446226 0.14577977 0.1987702 0.7413695 0.45579693 -0.15781134 0.04503701 -0.039251905 0.07334437 0.73209834 0.6809685 0.58791745 -0.059418667 -0.06884546 -0.16462624 0.30270216 0.16489483 0.3087143 0.5284077 0.43949997 0.6069775 0.55521333 0.29890704 0.13407816 0.6033588 0.53508705 0.4019215 -0.07679639 0.04606301 0.320319 0.3524199 0.40793806 0.20570418 0.20704867 0.23799711 0.35062647 0.46674883 0.4702813 0.5684612 0.6218872 0.70238173 0.70831394 0.6828536 0.55758786 0.5865184 0.6094681 0.6105676 0.36568633 0.45806733 0.39855516 0.37691307 0.38872474 0.43736854 0.39943212 0.29248255 0.1532321 -0.08161262 0.114644654 0.08624936 0.28416657 0.35475555 0.21347202 0.31642395 0.40593266 0.39423722 0.5791397 0.5104482 0.41031152 0.37981796 0.44179666 0.48749632 0.48539943 0.50380296 0.63446695 0.54051125 0.3585708 0.3929023 0.26001838 0.7355261 0.67642796 0.10160685 0.12905319 -0.015415162 0.16138586 0.043175355 0.34936213 0.37944508 0.5376005 0.74075735 -0.3395197 -0.39091814 0.09361545 0.12084538 0.5013862 0.43543467 0.74048376 -0.097687446 0.05521936 0.09897213 0.49284002 0.6719219 0.50458753 0.4860014 0.148776 0.35267803 0.10590026 0.19388846 0.22699565 0.29471532 0.44787103 0.11203247 0.48595148 0.4138282 0.17285292 -0.16719826 0.453687 0.415452 0.28803885 -0.029197305 -0.008982018 0.12726955 -0.16970456 -0.035450026 0.14222682 0.022880055 0.16592005 0.13798141 -0.0373885 0.24368767 0.29646713 0.1840477 0.35028636 0.45974845 0.5638715 0.60705876 0.10837223 -0.3529558 0.68647444 0.7522239 0.20176706 -0.28682506 -0.27641642 0.8290129 0.23964533 0.28007662 0.12226287 0.10794695 -0.074176244 0.12643315 0.8118694 0.35555816 0.411523 0.43257445 0.3727703 0.29667658 0.010375418 -0.032698803 -0.13926078 0.194624 0.32003132 0.44307083 0.7130393 0.73233944 0.46208227 0.5088227 0.47231367 0.38646972 0.3397502 0.09205735 -0.00076016784 0.25093004 0.41558647 0.57243186 -0.09097108 0.6973076 0.10564658 0.69648635 0.6271094 0.4559515 -0.2544612 -0.04546777 0.29314196 0.02523116 -0.13791545 0.35876876 -0.0073665828 0.55943054 0.5651418 0.2758869 0.6198697 0.37172726 0.6257316 0.6053365 -0.037027497 0.20001239 0.57590854 0.5325577 0.39721155 0.112566024 0.20262797 0.39072245 0.22060257 0.32651615 0.3357751 0.39221108 0.29556254 0.49735713 0.4534737 0.41852418 0.61279976 0.64801574 0.673224 0.5404381 0.515627 0.6024784 0.6593858 0.69952685 0.72231936 0.7442019 0.7231059 0.515319 0.5917126 0.70500267 0.7356535 0.6868565 0.45412448 0.46361428 0.5991514 0.513989 0.23359746 0.3825599 0.3052372 0.3816905 0.21518886 0.15285112 0.046274066 0.48943323 0.40215546 0.28291258 0.27246332 0.23243102 0.20529425 0.33182037 0.5981307 0.5641128 0.26206666 0.3349155 0.36006397 0.6598066 0.611188 0.18830253 0.09524861 0.10444597 0.15248698 0.16479664 0.15259694 0.17690521 0.31738746 0.20027173 0.14105149 0.7082175 -0.036163684 -0.30145925 -0.051824152 0.08540102 0.12935671 0.15301481 -0.00748861 0.076816395 0.7436613 -0.13676977 -0.059065424 0.7352781 0.2961483 0.38115233 0.3895657 -0.038652066 0.27605325 0.21745086 0.30205253 0.4550045 0.40361342 -0.011384793 0.527093 0.5043261 0.44139215 -0.10422558 0.5498395 0.5082568 0.023497716 0.5555881 0.5069924 0.40708876 0.09010651 0.49678004 0.38170227 0.21872352 -0.26005918 -0.004362067 -0.1062228 -0.24861488 -0