# vtk DataFile Version 2.0
Really cool data
ASCII
DATASET POLYDATA
POINTS 4299 float
3.4635017 -22.335817 7.5135617
3.4655962 -21.862492 7.5047517
4.1840177 -23.637566 7.6901236
3.9123425 -23.144526 7.0362782
3.7925406 -23.176973 7.549661
3.9391944 -23.184519 8.117577
4.1537075 -22.056765 6.3419967
3.798901 -22.429935 6.7750325
3.5459867 -22.525236 7.49271
3.7098322 -22.39509 8.236676
4.199784 -22.692587 8.669419
4.1195927 -21.914904 6.383709
3.858059 -21.472336 6.7902484
3.59788 -21.474924 7.4873896
3.7796733 -21.548618 8.220056
4.0235577 -20.943018 6.9519935
3.9160225 -20.869776 7.4968467
4.062173 -20.930798 8.1755085
4.789277 -23.83896 6.7878923
4.626578 -23.930393 7.6043935
4.5811367 -23.861038 7.8988543
4.5191503 -23.28586 6.5307045
4.5301714 -23.380518 8.482872
4.5049634 -23.004452 8.663837
4.533781 -22.622595 6.2460504
4.476709 -22.590118 8.784155
4.657612 -21.571398 6.1338596
4.4497886 -21.916075 8.831127
4.4053802 -20.62307 6.8399634
4.5060034 -20.804146 8.462004
4.9858522 -20.264835 8.02686
5.826381 -24.78915 6.967897
5.7902813 -24.821169 7.5045433
5.808552 -24.741106 7.9806404
5.7911077 -24.094751 6.2644243
5.747654 -24.496653 6.645479
5.426903 -24.612862 7.702387
5.556226 -24.438942 8.104339
5.330048 -23.284948 6.096707
5.47274 -22.23611 5.8867
6.0669446 -22.791504 9.014239
5.2708225 -20.791365 6.282949
5.2195554 -20.805992 8.621686
5.45589 -20.072544 7.0513706
6.201585 -19.059984 11.105071
6.2469945 -18.061142 9.8566475
6.138973 -18.226156 10.3995285
6.2967334 -18.892744 11.666902
6.1334243 -17.653961 10.600727
6.314566 -17.452564 11.318808
6.3514833 -17.87024 12.100302
6.441542 -11.965767 4.910399
6.4008203 -12.456837 5.546197
6.285419 -12.0193205 6.107913
6.3888154 -11.687191 5.015855
6.274462 -11.553108 5.6814294
6.344364 -11.617335 6.2486477
6.466754 -11.610304 18.026987
6.3808265 -11.024578 5.5324054
6.446077 -11.138566 6.1200266
6.6174364 -24.820892 6.7729855
6.4607544 -24.99227 7.408628
6.3463635 -24.830332 8.000798
6.49095 -24.284683 6.2243795
6.480159 -24.547155 6.441318
6.238066 -24.553349 8.393999
6.535399 -24.24237 8.645181
6.917539 -23.703943 5.868916
6.656432 -23.176317 9.128656
6.8757143 -22.760492 5.735043
6.5799637 -22.176249 9.229392
6.431809 -21.645477 5.631473
6.9080567 -21.166836 9.66421
6.6701756 -20.566246 5.90074
6.9139547 -20.058508 11.313516
7.203229 -20.321117 12.371294
7.2788067 -20.09124 12.910958
6.8763757 -19.60799 6.5673075
6.6818843 -19.348202 9.196402
6.535032 -19.414274 11.594529
7.1728497 -19.808506 12.675652
6.665721 -18.715763 8.782809
6.9393106 -17.99899 13.244611
6.465711 -17.736242 9.615739
6.615619 -17.426422 12.631504
6.8113155 -17.749702 13.0213375
6.7206144 -17.074327 9.61934
6.819277 -16.718374 10.212044
6.6044364 -16.776958 11.325934
7.3895802 -16.271841 12.859532
7.2622404 -16.663805 13.342435
7.304396 -15.99325 13.784066
7.095336 -13.97772 6.900628
7.3145213 -14.331678 7.271181
7.3965592 -14.257205 8.000898
7.3977337 -14.11525 12.107637
7.0749097 -14.417122 13.903395
7.095337 -14.466425 14.14341
7.311145 -13.726619 16.150642
6.9046655 -13.061832 4.922444
6.820843 -13.190764 5.329247
6.7950215 -13.382642 6.413858
7.385803 -13.229532 8.150909
7.0898066 -13.3675165 13.038934
6.909961 -13.588654 13.591246
6.82749 -13.227729 14.288374
6.956915 -13.090743 15.62451
7.072048 -13.248916 16.206068
7.1475005 -13.046547 17.124985
7.2218356 -12.658012 18.312082
7.010885 -12.290531 4.193592
6.518154 -12.220829 4.8587723
6.4951067 -12.753896 5.260989
6.7386417 -12.7195425 6.7990837
6.7364516 -12.383141 7.226117
7.184068 -12.542722 8.1875305
7.2028236 -12.589746 12.898078
7.034178 -12.331869 13.599656
6.8962226 -12.452624 14.534235
6.7788997 -12.515003 15.580189
6.8442383 -12.650546 16.675312
6.814233 -12.340755 17.524189
6.8493037 -12.109913 18.402561
6.998007 -11.900594 18.86007
6.7587333 -11.538333 4.5759015
6.6917925 -11.458077 7.163501
7.083394 -11.535304 7.9831076
7.2745337 -12.069639 13.423666
7.1499777 -12.012391 14.721362
7.0774293 -11.684939 15.556263
6.7675943 -11.452845 16.76584
6.5801167 -11.415097 17.617693
6.6473064 -11.44816 18.341583
6.934894 -11.484573 18.90043
6.9302583 -10.681898 5.016459
6.6530347 -10.646962 5.6190014
6.596741 -10.948351 6.397204
7.209113 -10.625693 7.2975917
7.294934 -11.098545 8.092327
7.1857944 -11.211963 16.04194
7.124136 -10.738101 16.995457
6.8505597 -10.803998 17.661074
6.8866587 -10.783662 18.396486
7.115512 -10.851628 18.943169
7.2336106 -9.129376 -1.3672819
7.126124 -9.163434 -0.76407045
7.3177385 -9.380803 0.032534212
6.9744816 -10.30532 5.9710054
7.1741967 -10.379413 17.85592
7.2152276 -10.344892 18.09833
7.2144365 -8.528496 -1.3853936
7.052654 -8.47524 -0.30484816
7.109372 -8.691786 -0.033555746
7.1433005 -8.152622 -0.90756303
7.2087626 -7.950474 -0.3067559
7.231013 -7.963088 -0.016075544
7.2119837 -24.733316 6.8435545
7.30167 -24.848064 7.420584
7.1324973 -24.75935 7.9169936
7.3822803 -24.352505 6.305111
7.614903 -24.441015 6.5100327
7.228089 -24.490126 8.314712
7.4293876 -23.399796 5.8889704
7.509277 -23.43768 9.039301
7.6641026 -22.244526 5.578131
7.5412474 -22.541536 9.530815
7.5219254 -21.590874 5.5532017
7.8003407 -21.206045 11.670294
7.6159587 -21.018267 12.2772455
8.34224 -21.111925 13.641598
7.4806523 -20.861681 5.602793
7.4354253 -20.618666 12.649195
7.6670094 -20.246855 13.277623
7.8055315 -19.781912 6.090734
8.0312605 -19.570597 13.949487
7.4650893 -18.183252 8.672725
7.840158 -17.878965 14.23041
7.9494176 -18.079147 8.1882715
7.801243 -17.474728 14.208213
7.7882867 -16.52154 8.818294
7.6344123 -16.312534 14.190061
8.095586 -15.099604 6.424361
7.518615 -15.842224 9.85197
7.8147845 -15.594899 10.343451
7.5402594 -15.630495 14.234953
7.4273596 -13.950384 5.490318
7.970038 -14.738196 8.872581
7.621152 -14.625824 12.4155445
7.414633 -14.650731 14.897055
7.766873 -13.853517 16.21032
7.5226126 -12.975938 4.275342
7.506577 -13.556059 4.7718334
7.4532814 -13.003436 8.438975
8.408133 -13.778868 10.373158
7.6409225 -13.745095 11.730582
7.635658 -13.414645 17.010405
7.543445 -12.639651 18.547905
7.832474 -12.639639 9.151153
7.455011 -12.8053665 12.539
7.331247 -12.492083 18.629309
7.75628 -12.121685 19.24999
7.9091115 -11.538371 8.891837
7.6885996 -11.625909 13.60774
7.4697566 -11.658836 19.366632
7.9345856 -11.351142 19.650257
7.720872 -9.958223 -1.2923827
7.7383833 -9.954917 -0.2959354
8.072175 -10.278445 0.35800236
7.9005623 -11.209789 14.849054
8.005474 -10.867407 15.601437
7.406413 -10.462522 17.113667
7.322214 -10.448919 18.756588
7.595291 -10.671488 19.247198
8.021552 -10.855901 19.650242
7.7647166 -9.242574 -2.1544502
7.482072 -9.4355755 -1.5892668
7.4909267 -9.083743 0.48196974
7.7319884 -9.235442 0.8563671
8.060765 -10.204784 5.4818597
7.785357 -10.021668 6.70781
8.013279 -10.2409525 17.161554
7.5040474 -10.270008 17.705374
7.5014906 -10.262792 18.42308
7.831662 -10.278101 18.983814
7.7778525 -8.622747 -2.2028897
7.410344 -8.227961 -1.6844015
7.7091255 -8.582065 0.8318502
7.787436 -7.932619 -1.8960276
7.5402737 -7.844104 -1.4160187
7.446865 -8.02141 0.54644835
7.9595876 -7.329532 -1.1792679
7.9081926 -7.2584176 -0.45321044
8.298301 -6.3168135 4.655007
8.29077 -6.6666865 5.087961
8.356849 -5.823005 4.833282
8.243564 -5.6430283 5.16325
8.330706 -5.207752 6.227647
8.45772 -5.0466805 3.9888875
8.345661 -4.7087445 4.55832
8.205839 -4.4852333 5.51909
8.283247 -4.533677 6.3785143
8.365126 -4.8285403 6.784628
8.292263 -4.013656 5.708693
8.328429 -3.9448075 6.1374316
7.86643 -24.623167 6.998097
7.9234934 -24.619783 7.452235
8.099083 -24.049118 6.401211
8.027627 -24.547258 7.29704
8.491247 -24.088243 7.998342
8.184919 -23.520153 6.105065
8.2616625 -22.915205 9.4742985
8.346061 -22.762102 9.669037
8.651946 -22.074863 5.476832
8.729344 -22.422764 5.5997453
8.71957 -21.877989 11.433258
9.246097 -21.803255 14.54912
8.665068 -20.861963 14.027093
9.310771 -21.18016 15.132359
8.838311 -20.560171 14.448507
9.081351 -20.684292 14.944414
9.175376 -19.696177 14.721902
9.005401 -18.076572 6.2972407
8.76157 -16.983677 15.100514
9.0549755 -15.337267 15.477507
8.3282995 -13.618812 17.090212
9.355814 -13.452458 1.3441964
8.387641 -13.499147 17.451855
8.373401 -12.950201 18.497103
8.818928 -12.702752 18.997053
8.898854 -12.353056 9.969176
8.398844 -12.164883 19.41879
8.839159 -10.765608 -1.8899487
8.794734 -11.151199 -0.35787854
9.197651 -11.579373 1.1550947
8.234394 -11.867591 4.0548368
8.404835 -12.105357 9.3401165
8.82324 -11.930896 11.94958
8.692292 -11.608293 12.753262
8.480086 -11.369278 19.728327
8.937262 -10.375947 -2.4854593
9.10745 -10.043966 3.1082642
8.710818 -10.698158 8.970247
8.553946 -11.369303 13.568933
8.728474 -10.923971 14.628672
8.802019 -10.585607 16.171572
8.424303 -10.499772 19.46569
8.453233 -10.809295 19.654331
8.979001 -9.5538645 -2.809236
8.89636 -8.993825 1.50559
9.317811 -9.419263 2.2312112
8.822786 -9.006784 3.8078656
8.713344 -9.866599 4.405776
8.715379 -9.812156 8.472267
8.965194 -9.653655 9.05831
9.085252 -8.870509 9.97181
8.445714 -10.241351 16.867773
8.596009 -10.020575 17.609068
8.489668 -10.003844 18.406368
8.518418 -10.271916 19.189198
8.6513 -8.4890995 1.2357053
8.879543 -8.273353 5.0753527
9.330063 -8.221332 6.7186055
9.16341 -9.052018 7.5084734
9.117104 -8.038583 10.273219
8.346945 -7.756559 -2.0280828
8.58811 -7.5804343 0.60476696
8.398902 -7.5784235 0.9577972
8.675903 -7.5756893 2.9256697
9.097417 -7.5672946 6.2427583
8.878204 -8.013042 8.721905
8.846568 -7.756856 9.671924
9.121459 -7.59114 10.243402
9.379162 -7.3352623 10.739802
8.67967 -7.131816 -1.3522
8.787439 -6.9503417 -0.7276933
8.611536 -6.7861166 5.781634
8.579127 -6.470008 5.8238125
9.023646 -6.789928 9.568951
9.314082 -6.5023713 10.410132
8.882863 -5.435409 3.0669334
8.988253 -5.5706115 3.342794
8.671464 -5.620774 6.5681915
8.711837 -5.6235642 6.794608
9.440158 -5.767666 8.649951
9.308824 -5.990406 9.55702
8.872529 -5.021176 3.2015052
8.791275 -4.410556 3.661237
8.521348 -4.308752 6.8226004
8.9643955 -3.9153519 3.8252847
8.671908 -3.775312 4.762103
8.585956 -3.4774065 5.4273934
8.625814 -3.6636186 6.521226
[...]
POINT_DATA 4299
SCALARS features_00 float 1
LOOKUP_TABLE default
0.9064379 0.8971658 0.8280469 0.8763515 0.87871706 0.8508054 0.8051044 0.8604163 0.90559494 0.8863796 0.8305783 0.8056359 0.83353186 0.88547516 0.89597595 0.8278276 0.8663798 0.8768127 0.80329615 0.7936374 0.7862289 0.82701206 0.76721853 0.77417576 0.7894783 0.7898237 0.72927094 0.8257599 0.79988766 0.85139775 0.8036938 0.77220035 0.77025104 0.7529056 0.72907776 0.764611 0.7615386 0.73110604 0.7309909 0.6429007 0.43908393 0.6632185 0.7576661 0.691543 0.40994835 0.3604161 0.42438 0.38266394 0.4103818 0.4050387 0.3732077 0.5849906 0.5704013 0.5642179 0.58635396 0.58311677 0.5606446 0.8760742 0.5733825 0.5617064 0.729761 0.7554238 0.7509984 0.6834669 0.71210563 0.71457785 0.6567592 0.5872805 0.37073064 0.49590892 0.25058258 0.48598194 0.09648133 0.44684106 0.23433885 0.27247918 0.2534694 0.3367858 0.2777346 0.3149946 0.26379973 0.24120758 0.25470474 0.31847122 0.26752698 0.24926 0.2979151 0.3071187 0.33830833 0.14905013 0.17503886 0.13490595 0.4014081 0.3316964 0.24099445 0.23813224 0.24953158 0.2354358 0.4297134 0.5409127 0.53760993 0.48772544 0.3086265 0.3761034 0.36352688 0.38261884 0.46798775 0.4743783 0.5534217 0.7118337 0.5644671 0.5796133 0.56315315 0.48518032 0.4574197 0.3494588 0.4150451 0.4350033 0.45296875 0.547393 0.5915713 0.7218103 0.8366988 0.9041188 0.5866456 0.4865028 0.3730008 0.45247653 0.48874885 0.55820805 0.72067744 0.8355155 0.90958536 0.9412377 0.55270684 0.55193996 0.5405096 0.44050193 0.32515848 0.5882571 0.68821096 0.80442137 0.8934387 0.9410047 0.7155448 0.7102467 0.6550782 0.5212021 0.79812235 0.82621413 0.72910595 0.7279446 0.7057389 0.7385947 0.7372203 0.7267194 0.69390225 0.70645344 0.7158359 0.6373497 0.63494974 0.6839609 0.5211847 0.37124297 0.41046047 0.18961525 0.4014153 0.2446379 0.26024228 0.24696934 0.39754325 0.26139462 0.23373237 0.29186618 0.20132962 0.23746642 0.23182288 0.1509284 0.23224035 0.15324742 0.16726595 0.31184474 0.09887204 0.0033113575 0.1367881 0.4555273 -0.06969477 0.20782468 0.22789234 0.39577043 0.5078401 0.46114165 0.29206663 -0.1701896 0.16676651 0.4982347 0.73002726 0.20510206 0.3907452 0.7743536 0.88366425 0.19708934 0.46221894 0.9355817 0.9221058 0.6642102 0.6039108 0.435528 0.46767282 0.488554 0.67645675 0.90796894 0.9441725 0.9274711 0.6938733 0.7020943 0.6240129 0.55184174 0.4090193 0.407731 0.63656545 0.75254226 0.8528845 0.9062656 0.70022583 0.7230235 0.62156487 0.69963586 0.7217387 0.6825288 0.6975258 0.71174896 0.33833435 0.24984777 0.420849 0.43029532 0.46142876 0.49481314 0.53556764 0.5545007 0.54361904 0.48962682 0.5989214 0.6085452 0.6359435 0.6340983 0.5467784 0.61514485 0.51508427 0.4793635 0.20348865 0.11748871 0.3481663 0.35073262 0.122836374 0.36227298 0.26309162 0.36001384 0.2766114 0.3159132 0.24894163 -0.014840867 0.26634467 0.10835421 0.4221295 0.22915196 0.46813807 0.6707623 0.7850212 0.05879325 0.86175907 0.47603202 0.3688316 -0.08183406 0.44092697 0.14343098 0.43860996 0.43789488 0.88191295 0.49386197 -0.20017162 0.1035353 0.42439908 0.4195057 0.4727602 0.9004444 0.90308106 0.5587414 0.31080216 -0.14831331 -0.094667196 -0.08249131 0.13376997 0.16913164 0.32956588 0.5735212 0.66649055 0.82619464 0.89100504 0.50277394 0.03405106 -0.06495484 -0.039656684 0.4334513 0.6607968 0.607151 0.5826659 0.04949094 0.054852553 0.24502546 0.4042388 0.4714089 0.52346826 0.65054953 0.64936996 0.2216312 0.2742085 0.46300268 0.54123145 0.39371508 0.40231073 0.37685138 0.3500062 0.3113216 0.47059137 0.43596733 0.49496928 0.5596335 0.5127229 0.59246266 0.63051367 0.62988216 0.6031451 0.6067374 0.6423385 0.64910704 0.26671004 0.21455538 0.122253895 0.25905806 0.30780593 0.1355333 0.41004682 0.4285286 0.46122235 0.23455958 0.43806005 0.367728 0.42256767 0.39825055 0.26736206 0.47438496 0.447207 0.34948397 0.2912505 0.11819662 -0.12551329 0.12754545 0.2493071 0.18303733 0.47913736 0.44128948 0.38660893 0.3077051 0.19111583 0.21335761 0.45511 0.4356328 0.02102188 0.3778907 -0.04127756 -0.015753888 0.786199 0.38810137 0.3231628 -0.15594397 0.31249762 0.7954149 0.83128285 0.43422323 -0.18428464 0.39116612 0.4732831 0.8311807 0.8502468 0.2916135 0.49190745 0.6834791 0.7534899 0.55491114 0.40449458 0.46693957 0.5604517 0.5712832 0.5344203 0.48560774 0.041481942 0.5830646 0.083428025 0.47405052 0.527182 0.59172624 0.4372626 0.4061252 0.40507433 0.41370744 0.439415 0.44787782 0.51806754 0.6058359 0.60536206 0.5973866 0.14673196 0.13379522 0.13960011 0.2213921 0.17921636 0.12926105 0.19097593 0.27689767 0.43734044 0.46279493 0.50591004 0.46682557 0.5014447 0.4949197 0.51736736 0.27842256 0.41818863 0.4863047 0.36760297 0.4323366 0.41024768 0.28885537 0.0917662 0.5265157 0.49093473 0.41104668 0.3394286 0.017117068 0.50783664 0.4914974 0.44563928 0.5792598 0.6295159 0.6838089 0.31286442 0.7071535 0.38606042 0.11154701 0.32694548 0.75268173 0.42587805 0.19632667 0.42310748 0.7661555 0.771809 0.46824148 0.54801446 0.78368443 0.8212112 0.43252236 0.61095285 0.6305052 0.5997787 0.043713655 0.48535693 0.25992018 0.35693777 0.39556754 0.31239527 0.43661648 0.54916304 0.24593538 0.17566134 0.141985 0.12871008 0.16569959 0.15151516 0.17273864 0.382692 0.46533838 0.50109965 0.5204654 0.53776634 0.0649471 0.5317842 0.24691632 0.48282427 0.3194247 0.36628014 0.22900975 0.33451608 0.5300882 0.5163112 -0.22568612 0.49630564 0.5274324 0.44219705 0.60161996 0.5341053 0.6202684 0.6771668 0.2853594 -0.21049185 0.40208942 0.7197734 0.72360146 0.36650223 -0.36384326 0.2706839 0.40064842 0.7451806 0.7459571 -0.089214906 0.5029394 0.6827326 0.8172438 0.7536626 0.7603859 0.46382913 0.45949122 0.41161168 0.41814935 0.34375498 0.5116339 0.28324926 0.24717912 0.5809257 0.04244425 -0.18685353 -0.09343691 -0.16638008 0.21352118 0.7838682 0.08238892 0.06428155 0.07419178 0.016908035 0.16091357 0.14840129 0.31363553 0.14141464 0.046995267 0.25416237 0.26322487 0.28828442 0.24957275 0.23983946 0.1313905 0.13302846 0.44161296 0.4966154 0.49255317 0.52137387 0.45228124 0.22744639 0.43716687 0.21463643 0.3898187 0.15579645 0.38250583 0.19174615 0.12727097 0.36914515 0.42357117 0.311974 0.25173533 0.45224792 0.5018156 0.47212124 0.12565513 0.46336675 0.50340945 0.3417402 0.062201574 0.68223757 0.27041277 0.7742649 0.7420125 0.39120147 0.782645 0.37161827 0.36339346 0.35111693 0.21962398 0.24984613 0.22164318 0.20243236 0.38404548 0.7275158 0.8279461 0.8631426 0.0838371 -0.04944479 0.4659104 0.5694485 0.84048617 0.87710947 0.20863146 0.093270004 0.25020632 0.49688444 0.63410723 0.7659056 0.79330975 0.23029804 0.15211356 0.12691945 0.2921272 0.40502912 0.53041697 0.649209 0.70874125 0.26616886 -0.03376504 0.29060555 0.24061367 0.33800477 0.4853242 0.5630915 0.5354308 0.49353695 0.615281 0.6201458 0.6164521 0.595296 0.29285163 0.292101 0.25541338 0.23235635 0.4225442 0.36814028 0.25050473 0.12420736 0.24081427 0.3738826 0.44188142 0.44863424 0.34141058 0.4456733 0.15220177 0.17156921 0.37569016 0.23264515 0.22327468 0.3669979 0.19524913 0.3931162 0.14306927 0.46966696 0.2673094 0.1533409 0.49073312 0.3455153 0.40960318 0.38105834 0.21888034 -0.16219498 -0.004203096 0.2084403 0.30988428 0.05622172 0.32679617 0.017804198 -0.013974838 0.32563597 0.0036571994 0.089304954 0.27964103 0.17619947 0.21173988 0.6040182 0.72986704 0.14691433 0.62326854 0.75711703 0.8485211 0.15617645 0.8831428 0.86864567 0.18299699 0.8127297 0.28831336 0.28946507 0.62272227 0.7247192 0.7701843 0.27928704 0.27286595 0.32536066 0.18279506 0.2661758 0.33940533 0.4405613 0.5897181 0.6751742 0.31583458 0.31822026 0.33405393 0.3008319 0.44285393 0.43875635 0.29091135 0.6142959 0.6530118 0.5999049 0.666718 0.6770773 0.6720196 0.6419982 0.5591494 0.6374619 0.28777808 0.41486675 0.50550914 0.59685373 0.5070102 0.26223814 0.2811465 0.2812297 0.40320444 0.45936868 0.30566064 0.21578589 0.4083047 0.116950765 0.48278624 0.4983613 0.2573973 0.29934287 0.44751012 0.034229904 0.01877468 -0.061773565 0.048849866 0.06871954 0.20743926 -0.059539773 0.16181453 0.11199178 0.1912046 0.38610882 0.24488932 0.18958777 0.28299385 0.624298 0.7528441 0.19321479 0.840205 0.19782022 0.2316128 0.786042 0.27557084 0.7405977 0.32325265 0.3206658 0.55664915 0.64802164 0.64175797 0.40300748 0.3653712 0.34150708 0.60854185 0.35444748 0.15567729 0.2378952 0.29780006 0.43462592 0.45029843 0.41818383 0.6707529 0.6094685 0.6939546 0.7075684 0.68900836 0.6311995 0.54604644 0.63720715 0.6910238 0.64511204 0.6248156 0.45975855 0.5730666 0.46506917 0.3980867 0.23648553 0.17884454 0.110919654 0.4631328 0.51333725 0.4852723 0.4820119 0.073446915 0.3787848 0.0798371 0.40673935 0.42909533 0.4579193 0.31026763 -0.14842854 0.07465814 -0.25211522 0.27947178 0.21527302 -0.011112675 0.24485563 0.042052627 0.055288017 0.15546337 0.054109186 0.39190143 0.17301999 0.23449005 0.289748 0.4214015 0.43173456 0.33654922 0.3606419 0.49654102 0.43469852 0.35804182 0.764547 0.2684212 0.69185036 0.64209265 0.30259916 0.26546833 0.31019777 0.4429469 0.5810423 0.44413197 0.44862437 0.41108608 0.1506536 0.4919193 0.48252362 0.45962662 0.6843686 0.70864105 0.541459 0.5219321 0.50646156 0.7200173 0.7029526 0.50804627 0.6318787 0.6970207 0.64380705 0.61041796 0.5361908 0.5063304 0.48755324 0.38347185 0.19142295 0.48229232 0.5261661 0.5218173 0.5278497 0.13780205 0.41445363 -0.0032178499 0.219198 -0.023214519 0.10500448 -0.008552119 -0.11980243 0.05433695 0.31124827 -0.24527617 0.4438856 0.4878262 0.37931055 0.41211635 0.41761816 -0.005320836 0.33338636 0.048937887 0.056448676 0.13858275 0.12324014 0.3077022 0.08288933 0.11144914 0.39799893 0.43973064 0.28800815 0.3761909 0.44321358 0.5023853 0.21014231 0.17081027 0.54749656 0.6271566 0.16792643 0.19572026 0.20778728 0.31175247 0.37851724 0.15824582 0.1792587 0.22223747 0.49476033 0.22183898 0.25068024 0.51023126 0.42572603 0.43610662 0.3401252 0.23504604 0.47324842 0.25620073 0.21478948 0.25681564 0.54242647 0.41416258 0.5220222 0.44580236 0.12281334 0.1047218 0.6447903 0.5932302 0.45484567 0.62811625 0.5475824 0.70313203 0.68681455 0.6214394 0.6435542 0.5488945 0.6069548 0.64701164 0.6099016 0.56937706 0.47177184 0.5460364 0.51542753 0.065819666 0.44470268 0.53466564 0.53258765 0.5281502 0.5079907 0.07481616 0.5366324 0.5393425 0.51048106 0.24391586 -0.041237894 0.13537478 0.04492919 -0.12773462 -0.072543606 -0.10501486 0.6054821 0.12638357 -0.020803355 0.5617049 -0.16188534 0.43377566 0.47186857 -0.15898529 0.36738902 0.2232272 0.36806154 0.34890366 0.5687697 0.32541966 0.3325423 0.6981255 0.7481306 0.26363415 0.1796906 0.43604147 0.6968745 0.76224995 0.76460505 0.13006258 0.6481067 0.59616554 0.66345453 0.48323438 0.5683025 0.58939165 -0.0031081252 0.14809489 0.11442192 0.56475353 0.5670063 0.52519304 0.41716245 0.4672475 0.3754014 0.1498082 0.43799815 0.4405669 0.3237395 0.35042685 -0.06558184 0.371356 0.7481178 0.47069865 0.45327365 0.38636047 0.2947401 -0.03232874 -0.035144843 0.26290017 0.81616145 0.6302966 0.5776387 0.5202611 0.56206274 0.86572707 0.84724957 0.83672607 0.7668277 0.71246195 0.49853498 0.5769696 0.5986579 0.5516781 0.572107 0.5855764 0.6010296 0.55210686 0.567533 0.5883924 0.54795194 0.5705369 0.5954001 0.53105736 0.4865783 0.52174073 0.53460974 0.49885684 0.46143416 0.40842572 0.43930772 0.34796456 0.54157835 0.54408187 0.49508715 0.38748628 0.5023643 0.3542745 0.00332354 -0.11822231 -0.17510298 0.22313833 -0.06534888 0.30159366 0.5616517 0.5625724 0.43348557 0.5213994 0.47714144 0.41155007 0.7537112 0.7355896 0.36078018 0.36541122 0.7185651 0.30922452 0.73740137 0.7403066 0.29035792 0.76846594 0.7615949 -0.17133899 0.12077436 0.6972154 0.76656115 0.7831075 0.42658263 0.77272487 0.5906168 0.6190407 0.61788857 0.019972054 0.6116935 0.61478716 0.47186396 -0.07613953 -0.060036786 0.48019427 0.5355515 0.280617 0.033107996 0.4782389 0.22164294 0.31894934 0.18194555 0.4273287 0.42988527 0.42826736 -0.15358996 0.41209936 0.7879871 0.56610346 -0.13367715 0.17533726 0.89936954 0.33617193 0.5468459 0.9209707 0.93249655 0.94668543 0.8618966 0.8194649 0.43204868 0.60043985 0.38561332 0.61026627 0.61533463 0.52258265 0.5257064 0.54222 0.5735643 0.5029931 0.51117694 0.5469888 0.5123855 0.5199005 0.510571 0.44495058 0.46175835 0.39508763 0.36680567 0.34213936 0.22162244 0.23255327 0.30803442 0.21527614 0.43452024 0.033703327 0.35900623 0.49879915 0.6719289 -0.0133527815 0.41678593 0.5370848 0.54410756 0.49364308 0.3093549 -0.029025927 0.5732413 0.49865347 0.5067231 0.5641053 0.47352415 0.7058158 0.4214387 0.7490645 0.34303796 0.7378546 0.7442633 0.32698506 0.7580466 0.14839433 0.037070125 0.768687 0.75864774 0.13167651 0.028392239 -0.035315946 0.3640712 0.4841634 0.741317 0.7861293 0.786232 0.24107693 -0.09365228 0.5759485 0.53686106 0.37740347 0.58733547 0.5451721 0.4860571 0.4197904 -0.367942 -0.24312475 -0.05146663 -0.05783142 0.22429882 0.41758555 0.58160615 -0.23012695 0.4720548 0.48657966 0.42617154 0.29926434 0.25571716 0.3726552 0.57298315 0.52773017 0.47628736 0.3149001 0.3629297 0.78669214 0.77694476 0.61751497 0.84573275 0.8401201 0.34654605 0.3596807 0.2869199 0.18380705 0.91338265 0.88018113 0.88087004 0.86889815 0.8202262 -0.003600005 0.92377603 0.9134922 0.88559365 0.32422146 0.50698894 0.17719615 0.5869379 0.23148602 0.38909438 0.5588969 0.4544736 0.44511503 0.30618003 0.26087433 0.3198997 0.2523745 0.39765573 0.26558557 0.052455 0.3326828 0.4933828 0.55400085 0.7509092 0.7566426 0.8148421 0.51921237 0.53191245 0.48226428 -0.017906351 -0.02892106 0.77180994 0.81082654 0.4808622 0.49672914 0.5190469 0.6710491 0.45175105 0.45800453 0.42343 0.77028215 0.7795043 0.38335592 0.37775105 0.76579475 0.7494613 0.33306703 0.27931592 0.060622927 0.77465373 0.7661064 0.22966596 0.15361486 0.17057079 0.11075623 0.3146886 0.62695324 0.71014595 0.77401054 -0.18408608 -0.05453591 0.2573405 0.4513816 0.63772357 0.7230079 -0.0068471283 0.1622318 0.3633217 0.43569317 0.13024719 0.3984776 0.29589173 0.31768656 0.26066527 0.12143867 0.2698542 0.2279884 0.2057696 -0.099250495 0.19569325 0.06333822 0.08479525 0.10860754 0.31217307 0.3170835 0.3531325 0.35612905 0.4646069 0.519995 0.22043388 0.35720336 0.35689253 0.234151 0.38580495 0.39772648 0.3441011 0.23155563 0.4944547 0.43930513 0.5756773 0.65006524 0.50107443 0.6929306 0.7731525 0.4919911 0.84213674 0.8524496 0.8570776 0.52902865 0.52190375 0.51334274 0.41629195 0.8150114 0.8381792 0.52315545 0.54609543 0.4910025 -0.01028887 0.66600776 0.7164791 0.4667381 0.5026256 0.5418719 0.03376174 0.3995265 0.4770631 0.14479366 0.582584 0.37814724 0.32752323 0.061914418 0.10981598 0.3897485 0.58074176 0.704288 0.3001932 0.27225623 0.18561262 0.005785553 0.20475292 0.27977592 0.5093825 0.5952233 0.69653225 0.7550248 0.31148764 0.3896292 0.48779267 0.5939895 0.7142993 0.74428535 0.44350833 0.037206843 0.1574037 -0.06783411 -0.23683278 0.1311091 0.14098792 0.30784994 0.33826143 0.24654484 0.13095652 0.3162978 0.311837 0.25948176 0.22422977 0.2662971 0.31785294 0.31932244 0.2088426 0.25578314 0.30102646 0.2571862 0.1556015 0.23497958 0.24214858 0.16686067 0.18231457 0.17228115 0.0986108 -0.0755177 0.022473022 0.14895535 -0.10265643 0.07766617 0.036508918 0.079809524 0.015466146 0.14569612 0.18862295 0.19652802 0.22193696 0.20639572 0.24431312 0.33482057 0.5464088 0.41135836 0.5004512 0.5706531 0.60085857 0.57672775 0.46272707 0.52706975 0.6065242 0.635443 0.4884643 0.41304666 0.2890909 0.3824596 0.37531716 0.37528515 0.45172065 0.33001631 0.30362538 0.48448247 0.44904155 0.41157302 0.38620746 0.5165024 0.7343704 0.7336825 0.48991656 0.47014126 0.7838875 0.8229921 0.45868766 0.901356 0.8907857 0.356699 0.13525322 0.8708677 0.88163555 0.17728876 -0.040830433 0.68911177 0.80071783 0.5613965 0.5711982 0.52108335 0.15111373 -0.0073264614 0.040036775 0.38411742 0.49206704 0.5907791 0.5553183 0.5685924 0.48894545 0.02515255 0.017739974 0.30792797 0.4854611 0.46338642 0.39920285 0.16108489 0.059390083 0.09021146 0.18081722 0.078830875 0.097018994 0.10732202 0.21352029 0.36641675 0.020767212 -0.025621146 -0.03597945 -0.0062205046 0.08069937 0.053746648 0.031435333 0.5425693 -0.03379166 -0.09921235 0.37864566 0.3139462 -0.32866627 -0.16892605 0.1440506 0.22036739 0.33582968 0.25063786 0.3254853 0.30381912 0.2880705 0.3030348 0.26281023 0.18713811 0.094657555 0.18785256 0.1730932 0.19001827 0.18802622 0.18197335 0.13596115 -0.07868615 0.20705102 0.1862365 -0.040923245 0.38403422 0.19401972 0.21046175 0.24192934 0.4962057 0.27348986 0.36414385 0.5524714 0.42378014 0.5334083 0.6089025 0.6190895 0.60468894 0.4909655 0.5555227 0.57456356 0.4058099 0.49699038 0.5772979 0.5364002 0.7419601 0.37963697 0.37587762 0.43773204 0.39784575 0.7092829 0.77256405 0.80505186 0.84409404 0.4095164 0.3199805 0.3194816 0.41485214 0.3644019 0.13605925 0.6303845 0.805585 0.87930167 0.30174705 0.23590887 0.12230597 0.1573058 0.4069329 0.50943005 0.604597 0.7427746 0.86562574 0.40078917 0.40471834 0.2452155 0.036631633 0.18168084 0.30394998 0.47255868 0.58360386 0.6720627 0.7476362 0.42477858 0.18614468 0.15397063 0.50468045 0.5589315 0.44603246 0.25148854 0.037548997 0.28216714 0.37327135 0.33563262 0.27854586 0.29040402 0.406824 0.34391278 0.3742224 0.22136837 0.20805761 0.10051626 -0.01728633 0.077676356 -0.077335835 -0.06041777 0.17598501 0.22768083 0.55099857 0.10297938 0.5336333 0.008874692 0.45857528 -0.11161707 0.071178034 0.16173998 0.41244894 0.10084279 0.187739 0.31416628 0.35426432 0.33430582 0.3063323 0.21649063 0.26849785 0.24466395 0.1620836 0.12766771 0.0822078 0.22410637 0.1984019 0.17779404 0.23078634 0.22654483 0.14455374 -0.039796896 0.048451632 0.23666194 0.21006928 0.120965645 0.308563 0.37537467 0.17576574 0.20503011 0.47711554 0.22072133 0.23399779 0.5150791 0.49705595 0.34224343 0.42893296 0.5782003 0.5421884 0.50298285 0.5642445 0.5248781 0.5648806 0.5724647 0.5098146 0.5218331 0.5323709 0.7612198 0.68067145 0.7264137 0.7590746 0.6010188 0.64252424 0.7100439 0.36748582 0.50427836 0.53288573 0.48024094 0.37287456 0.3161426 0.4893639 0.52347267 0.45709068 0.3947692 0.41761678 0.47580454 0.49180073 0.39818692 0.43015897 0.067275316 0.060202062 -0.019499246 0.16021931 0.41383862 0.31698072 0.16175282 -0.026838422 0.38103998 0.4250269 0.18809997 0.23301715 0.4909684 0.13687034 0.40735036 -0.018730417 0.3965077 -0.12859802 0.18172437 0.4056229 0.21172123 0.23644416 0.41403285 0.35277808 0.30619153 0.26544198 0.26572067 0.15304841 -0.09298457 0.021244798 -0.12298496 0.14601925 -0.14458372 0.21771163 0.25373062 0.3762017 0.2549532 0.23698667 0.2052966 0.117231056 0.47186232 0.078394175 0.4676692 0.48007387 0.17520246 0.2316378 0.3723734 0.44823116 0.44724357 0.2710896 0.45338392 0.27265865 0.4658822 0.47705647 0.46630895 0.02339749 0.11876163 0.3779375 0.40637672 0.29659206 0.1705609 0.34664476 0.3929987 0.39671522 0.23097435 0.3646099 0.36048585 -0.06958254 -0.10608695 -0.07168724 0.058318608 0.39615184 -0.09086709 0.21396494 0.252549 0.3979479 0.2700706 0.3113063 0.3420142 0.29279378 0.25020784 0.16607124 -0.12973842 0.2233676 0.035455815 0.18268554 0.0074704513 -0.17216653 0.43158495 0.18325888 0.07693741 0.03617724 -0.18761216 0.41382945 0.43612882 0.020485625 0.13442746 0.2917744 0.54549366 0.55162525 0.5041816 0.4024539 0.32499385 0.5759934 0.5559747 0.52224535 0.46071538 0.5593114 0.53454983 0.2887112 0.44013047 0.51780224 0.5196594 0.48370612 0.4290818 0.045681924 0.027316298 0.354338 0.3498636 0.22415616 0.26865774 0.35510942 0.35900885 0.03973031 0.006350249 0.35363472 -0.09836808 -0.098642275 0.35687375 -0.11459617 0.14238343 0.24756277 0.31256035 0.3566314 0.34089947 0.37136054 0.31516594 0.37213427 0.37847495 0.23113254 0.33305293 0.24110378 0.13721284 0.2769912 0.29091418 0.28838915 0.28179383 0.27081585 -0.18083644 0.2592741 0.18778996 0.21222134 0.10206744 -0.05982279 -0.17269295 -0.11734246 0.47330055 0.2614799 -0.011684068 -0.07048918 0.45608264 0.5438179 0.41446602 0.12929921 0.14532074 0.58443975 0.5097167 0.4811691 0.41759938 0.55922073 0.55534285 0.5304072 0.4974686 0.5449985 0.5433049 0.5231681 0.3190335 0.39038026 0.5097481 0.13550943 0.21797849 0.5202373 0.113555714 0.032701224 0.40131944 0.35440907 0.31603146 0.43937892 0.42993632 0.39