# vtk DataFile Version 2.0
Really cool data
ASCII
DATASET POLYDATA
POINTS 4045 float
-11.5468645 -14.139295 -10.762207
-11.5672035 -13.714178 -11.057946
-11.611364 -13.672756 -10.589933
-11.543998 -12.748097 -10.969002
-11.583167 -13.075887 -10.446686
-11.536832 -12.911384 -10.095492
-10.911087 -14.664011 -12.011463
-10.860439 -14.791167 -11.210555
-11.000848 -14.723609 -10.489255
-10.858574 -14.697693 -9.992174
-10.657635 -14.136306 -13.69439
-10.783742 -14.241252 -13.283618
-11.032039 -14.223719 -12.515322
-11.214127 -14.3658695 -11.3021345
-11.381029 -14.315186 -10.464276
-11.0621 -14.255542 -9.737674
-10.642247 -13.555919 -13.74172
-10.890973 -13.643089 -13.270604
-11.246481 -13.631757 -12.315931
-11.48361 -13.66775 -11.708199
-11.331659 -13.343606 -9.598726
-10.8459835 -13.329414 -8.992533
-10.893122 -12.763035 -13.011528
-11.059935 -12.234541 -12.3932295
-11.3136 -12.243629 -11.482801
-11.324258 -12.493539 -10.33697
-11.185667 -12.651226 -9.65144
-10.845421 -12.928704 -9.0513525
-10.759809 -12.173842 -12.894346
-10.954107 -11.742284 -12.1867285
-10.845625 -11.519907 -10.999642
-11.013834 -12.097193 -9.943918
-10.735534 -11.323566 -12.135303
-10.263956 -14.823218 -13.390041
-10.321834 -14.995854 -12.692222
-9.960522 -15.245683 -11.378663
-10.311917 -14.998298 -10.321649
-10.243686 -14.178478 -13.887392
-10.56903 -14.599423 -13.357474
-9.831511 -14.441241 -8.826549
-10.310554 -13.660242 -13.962399
-10.5390625 -13.453461 -8.841494
-10.065489 -13.095373 -14.144225
-10.35877 -12.555306 -8.864076
-10.072488 -11.817286 -13.222007
-10.389362 -11.694348 -9.566078
-10.200226 -11.1084585 -12.275944
-10.383703 -11.057287 -11.606726
-10.4742985 -11.175134 -10.921092
-8.7452 -17.223764 -6.1258006
-8.617627 -17.418678 -5.5708494
-8.761451 -16.150394 -7.23867
-8.743084 -16.397049 -6.66977
-8.757814 -16.394114 -5.696783
-9.323243 -14.822662 -13.760425
-9.450371 -15.098199 -13.306289
-9.483747 -15.327399 -12.808636
-9.758567 -15.150645 -10.394496
-9.069402 -15.16831 -8.379409
-8.847899 -15.698454 -7.52373
-8.660909 -15.995298 -5.654165
-9.467234 -14.2929325 -14.115939
-9.482801 -14.484494 -8.642433
-9.306084 -13.4228 -14.384675
-8.762508 -13.594412 -6.492178
-9.250879 -12.54446 -14.226238
-8.627421 -12.946393 -6.4457884
-9.422909 -12.124107 -13.8131895
-9.580818 -11.406356 -13.123259
-9.482166 -11.656711 -9.0837345
-9.439765 -10.578379 -11.935726
-9.189971 -11.085298 -9.724084
-7.7529373 -19.14634 -5.3164525
-7.7618275 -19.313347 -4.545713
-7.7062893 -19.110367 -3.8021426
-8.005009 -18.229376 -6.305548
-8.258442 -18.24108 -5.3094373
-8.019851 -18.552006 -4.503066
-7.7514534 -18.45529 -3.7485147
-8.171681 -17.062426 -7.3669753
-8.553069 -17.730423 -5.758994
-8.23946 -17.580353 -4.6130033
-7.56641 -17.403982 0.67217445
-7.5586796 -17.39934 1.1382225
-7.967942 -16.127184 -9.016571
-8.114443 -16.556751 -7.8436165
-8.539893 -16.730907 -5.0539594
-7.5428824 -17.029564 0.18875465
-7.5580106 -16.85997 1.260989
-8.459008 -14.990003 -13.347656
-8.692721 -15.3708105 -12.430207
-8.217475 -15.224143 -11.259972
-8.557574 -15.853539 -5.5197916
-8.199745 -15.991681 -5.015994
-8.667076 -14.179454 -14.121378
-8.2579565 -14.560109 -5.5282073
-8.769918 -13.348927 -14.421664
-8.1689415 -13.3394575 -5.5624166
-7.8453298 -13.615299 -5.1088595
-8.615474 -12.611857 -14.230799
-8.087391 -12.7196865 -5.7467303
-8.494133 -12.083253 -13.885873
-8.01944 -11.992281 -6.3806276
-7.965935 -12.218021 -6.1443615
-8.617489 -11.163276 -13.114016
-8.802992 -10.622318 -12.469465
-8.5053425 -10.576841 -9.848917
-8.076862 -10.262879 -12.1641445
-8.2508 -10.124717 -11.474208
-8.68012 -10.275714 -10.602618
-6.7341933 -20.764906 -4.2313933
-6.7342124 -20.71618 -3.5300264
-6.948188 -19.714355 -5.7951055
-6.980043 -20.021065 -5.3983607
-7.167873 -20.17075 -4.5183616
-6.858836 -20.484316 -3.4192
-6.631008 -20.66441 -3.0302224
-7.1178565 -19.158327 -6.3890333
-7.5865293 -19.539175 -4.91847
-7.067255 -19.376513 -3.0150115
-7.107321 -18.339195 -7.28988
-7.104759 -18.095003 0.0036026835
-7.3319144 -17.97576 0.74242365
-7.0761266 -18.135374 1.3628774
-6.9208193 -17.910093 2.108214
-7.1417494 -16.89234 -8.546948
-7.3225183 -17.509926 -0.10512179
-7.50739 -17.579655 0.3883258
-7.4258575 -17.494413 1.4825683
-7.207302 -17.302408 2.2931023
-6.925402 -17.123106 2.8916054
-7.2316256 -15.913331 -9.966682
-7.504801 -16.637281 -8.539899
-7.5633926 -17.014683 -4.066097
-7.1393957 -16.859352 -0.16637269
-7.395436 -16.617386 0.42275676
-7.404503 -16.591858 1.6012244
-7.199366 -16.574734 2.5027049
-6.898924 -16.626684 3.0044308
-7.5649824 -14.885188 -12.867305
-7.768718 -15.530723 -10.094919
-7.726834 -15.602769 -4.747762
-7.08531 -16.112438 0.76346457
-6.9423327 -15.894821 1.4949151
-6.9474826 -15.960514 2.30983
-6.8257833 -16.11157 2.8674088
-7.5932837 -14.185182 -13.411484
-7.392532 -14.989494 -4.822806
-7.722334 -13.327858 -13.8998995
-7.3734636 -13.586477 -4.8984895
-7.9470778 -12.794903 -14.058869
-7.428773 -12.890977 -5.140793
-7.636866 -11.888584 -13.373352
-7.188687 -11.800891 -6.2045436
-7.566751 -10.937798 -13.015642
-7.6257114 -11.265565 -8.509896
-6.913917 -11.0265665 -7.3744993
-7.3040075 -10.200782 -12.1963005
-7.554951 -10.087581 -11.552436
-7.651866 -10.317249 -9.952427
-6.6422176 -9.7388525 -7.717235
-6.192836 -20.806953 -5.236399
-6.164412 -21.142723 -4.3466654
-6.34531 -21.012732 -3.324795
-6.205519 -20.95454 -2.8025062
-5.8790665 -20.837656 -2.3500228
-6.410355 -19.904823 -6.167724
-6.412989 -20.651707 -2.6898923
-6.0250826 -20.401337 -2.1970546
-6.4234896 -19.126226 -7.0846167
-6.5790935 -19.591059 -6.4429383
-5.817937 -19.138708 -1.3225502
-5.6968694 -19.203894 -0.35329494
-6.2244053 -18.71937 0.5616883
-6.3097286 -18.656548 1.2992288
-6.62429 -18.01437 -7.887561
-6.7129316 -18.55931 -7.431352
-6.4748635 -18.504839 -2.5645509
-6.7379208 -18.480598 1.4002802
-6.4667845 -18.11368 2.332488
-6.252876 -17.813023 2.8489094
-6.1160297 -16.643785 -9.335865
-6.42587 -17.294838 3.1053848
-6.5417905 -16.40092 -9.251538
-6.6393886 -16.544928 -0.46728688
-6.325222 -16.607147 3.3065505
-6.193095 -16.113102 -0.28116068
-6.6615405 -15.82031 0.83031327
-6.4277234 -15.574545 1.8470582
-6.568566 -15.765437 2.5720272
-6.4443336 -15.993515 3.0125415
-6.876038 -14.022265 -12.800703
-6.6795077 -14.266004 -4.6861625
-6.109197 -15.450267 1.4478917
-6.549938 -13.707715 -4.654818
-6.539081 -11.507081 -13.064237
-6.2800546 -11.451851 -5.759469
-6.9309006 -10.878019 -12.8326845
-6.4742036 -10.269655 -12.104387
-5.9817786 -9.435153 -10.083732
-6.4731593 -9.6279125 -7.37868
-6.3686333 -9.960824 -6.808435
-6.0820513 -8.722677 -9.204058
-6.256978 -8.623958 -8.338404
-6.028639 -8.601665 -7.462937
-5.9111247 -8.891631 -6.902269
-5.772526 -8.295338 -7.57905
-5.7228165 -8.300392 -7.174188
-5.3507824 -20.84207 -5.921285
-5.542737 -21.450241 -4.2765512
-5.06025 -21.406244 -3.073561
-5.172188 -21.018976 -2.3130703
-5.5509515 -20.06549 -6.6060524
-5.721771 -19.618399 -7.072379
-5.092623 -19.395613 0.7063726
-5.279031 -19.079178 1.3676448
-5.318352 -18.670797 -7.8379197
-5.5678644 -18.336065 2.6082377
-5.2068095 -18.111807 2.8826249
-5.0940533 -17.457506 -8.883661
-5.554376 -17.239466 3.2710223
-5.4251847 -16.441963 -3.3603053
-5.687618 -16.57342 3.349636
-4.927156 -15.56914 -3.5827656
-5.6834373 -16.34531 -0.8653566
-5.438074 -15.684316 0.11769406
-5.7557025 -15.582963 0.7816708
-5.5781913 -15.578303 2.4218953
-5.716428 -15.877318 3.0024855
-5.597648 -14.546404 -4.2935357
-5.6504846 -15.419778 2.091293
-5.398318 -11.953732 -12.789954
-5.257081 -13.152018 -4.450865
-5.548616 -11.654301 -12.887759
-5.5769978 -11.076716 -12.889228
-5.8080792 -9.780642 -11.664451
-5.212825 -9.420036 -6.306501
-5.3814363 -8.50293 -6.749877
-5.2711406 -8.130022 -9.282325
-5.355871 -7.986193 -8.427154
-5.394776 -8.117596 -7.348918
-5.1820784 -8.200999 -6.911143
-3.726525 -27.023788 -1.983594
-3.8234382 -26.890436 -1.5467094
-3.779095 -26.02573 -3.0042138
-3.9442725 -26.443428 -2.0999653
-4.0091987 -26.42106 -1.4533889
-3.788664 -26.371523 -0.5851344
-3.6574068 -26.388468 -0.15045351
-3.543825 -25.653519 -4.0830054
-3.5538754 -25.607262 -3.4870331
-4.043072 -25.223461 -2.3403869
-4.122991 -25.77411 -1.6179491
-3.8166916 -25.425907 -0.57040894
-3.67112 -25.698439 0.062682346
-3.6117067 -24.647387 -3.6153076
-3.8761363 -24.68663 -1.5272597
-3.8100235 -25.075085 -0.51237714
-4.9016137 -21.5914 -4.4563
-4.7741995 -21.572779 -3.693328
-4.442767 -21.197031 -5.7727857
-4.716312 -19.809443 -0.26458713
-4.227017 -19.654253 0.8586834
-4.8587832 -18.708288 -8.032277
-4.373296 -18.839586 -7.663086
-4.8336525 -19.118227 1.5265939
-4.469687 -18.791899 2.3235493
-4.6050167 -18.597982 2.5043976
-4.85402 -18.168203 2.9139755
-3.7495718 -17.344454 -11.9232855
-4.0285797 -17.297237 -11.375256
-4.1597543 -17.022532 -10.294091
-4.595131 -17.403555 3.1391482
-4.5121408 -15.440777 -0.33390525
-4.1776915 -14.4426 -2.938891
-3.786374 -14.903683 -1.8760908
-4.378734 -15.3209505 1.2127736
-4.562801 -13.237257 -3.8974535
-4.2785916 -13.711141 -3.187399
-4.789449 -12.490448 -12.226863
-4.6015205 -12.645374 -4.5108013
-4.04795 -11.825007 -5.498271
-4.701488 -10.498788 -5.943078
-4.162308 -8.553427 -6.5567064
-4.7065926 -8.889782 -6.219925
-4.1903787 -7.5395007 -8.276285
-4.655408 -7.7808886 -7.615512
-4.44723 -8.0013485 -7.0359116
-2.973929 -27.578856 -2.104653
-3.1345952 -27.593664 -1.5543003
-2.9717612 -26.883028 -3.3535306
-3.396179 -27.211407 -2.2552967
-3.367574 -27.323149 -1.5453628
-3.1139553 -27.250109 -0.52740306
-3.0196505 -26.940073 0.21231829
-2.9948747 -26.699524 0.74166226
-2.7988982 -25.945852 -4.9816723
-3.1142726 -26.10731 -4.442091
-3.2425823 -26.496468 -3.4510543
-3.6145518 -26.718477 -2.622485
-3.3366706 -26.332632 0.55165637
-3.0200276 -26.248682 0.9424151
-2.989166 -25.42509 -5.0915604
-3.3244145 -25.64411 -4.4416
-3.4525914 -25.598278 0.5068326
-3.1752954 -25.75866 0.9403913
-3.2388391 -24.628757 -4.855375
-3.4941947 -24.315247 -3.5747077
-3.3468068 -24.931326 0.24665022
-2.6411169 -23.426855 -4.93328
-3.344641 -23.79531 -3.61868
[...]
POINT_DATA 4045
SCALARS features_00 float 1
LOOKUP_TABLE default
0.6368193 0.6402876 0.6514446 0.6343329 0.649263 0.6427778 0.6149527 0.59363073 0.600134 0.59344226 0.69084203 0.6677818 0.63367033 0.6153054 0.6318533 0.62705255 0.6914214 0.6603261 0.6321822 0.62769806 0.6429722 0.6261536 0.66803443 0.62859845 0.6148052 0.6219151 0.62172484 0.6183648 0.6534928 0.6065478 0.58906746 0.59820664 0.59760666 0.68959457 0.65357065 0.5520363 0.5402976 0.716462 0.67648804 0.46392584 0.72223735 0.61131656 0.7484307 0.57213914 0.64023435 0.57595265 0.5828854 0.57481754 0.5733789 0.43534058 0.44160146 0.36138692 0.44382685 0.44167653 0.74792767 0.7200819 0.6773561 0.46928376 0.19982903 0.2556519 0.42064077 0.76500523 0.38327676 0.78235984 0.3039441 0.7036059 0.32659012 0.6551454 0.5808846 0.42922592 0.53644276 0.4091717 0.41143122 0.43173146 0.4253134 0.40346438 0.42930007 0.4181822 0.410332 0.3352304 0.43449026 0.41872415 0.7590634 0.7762307 0.10349399 0.2531488 0.4153697 0.7532577 0.8169842 0.73602045 0.62261033 0.32308972 0.39716846 0.3513726 0.802216 0.28275633 0.76055515 0.33744812 0.3085429 0.6526656 0.3500783 0.55626136 0.26509237 0.31333596 0.49245024 0.48975706 0.33319527 0.4313336 0.43945026 0.4595869 0.47104463 0.46872377 0.36425367 0.40271115 0.45603198 0.45363617 0.44978902 0.32183433 0.4297959 0.3832637 0.24684876 0.6690456 0.7151235 0.7218185 0.7901832 0.096040584 0.7219173 0.74066067 0.7921368 0.87811494 0.9190799 -0.0038092062 0.11908003 0.36608434 0.74234307 0.76244473 0.867635 0.93488944 0.94525504 0.6624578 0.05006577 0.28319907 0.7724805 0.821689 0.88534325 0.9233711 0.7023908 0.25763822 0.6572275 0.27552855 0.6025528 0.30864003 0.4309625 0.23256105 0.41185454 0.03838788 0.06472334 0.38645533 0.37465695 0.2740792 0.32244137 0.44257033 0.50149786 0.48053345 0.45766333 0.404432 0.3203019 0.42726418 0.35244262 0.23458955 0.2977792 0.16261159 0.28013846 0.5069704 0.59050745 0.14278486 0.21161506 0.32593888 0.66469085 0.73615456 0.7807283 -0.02961661 0.8783738 0.0022832751 0.68117154 0.93251216 0.58975756 0.7145915 0.77140045 0.8634042 0.9057417 0.53901947 0.18698084 0.67839503 0.17505644 0.35869518 0.1599763 0.39008608 0.36819947 0.24072343 0.36770308 0.31605485 0.44740444 0.47013724 0.46915308 0.45279402 0.47934455 0.47942632 0.3860768 0.5345541 0.4734096 0.37948054 0.25434318 0.21640325 0.36817116 0.47082967 0.15811607 0.6137867 0.60152555 -0.030391602 0.77196527 -0.16852467 0.89093447 -0.2104603 0.429717 0.46093628 0.55716884 0.7111753 0.82769954 -0.017906185 0.6774183 0.24610193 0.036535047 0.27456492 0.31374726 0.25927103 0.4343363 0.46821815 0.479438 0.48355603 0.48164576 0.47730067 0.59020746 0.6315524 0.52903146 0.5836016 0.6462401 0.7114117 0.7295438 0.50312483 0.50923514 0.55600524 0.6267946 0.67968524 0.7232747 0.49527198 0.60679555 0.67194307 0.5303728 0.46243978 0.38206 0.22824283 0.32137895 0.14612384 0.13351521 0.44961855 0.48909423 0.5116489 0.55613625 0.39987004 0.32551065 0.1243477 0.5414939 0.20228526 -0.17906857 -0.3227486 0.49294084 -0.05556389 -0.12079024 0.091134995 -0.032584324 -0.16275018 0.18218803 0.4465084 0.44761273 0.46217424 0.46837938 0.46733117 0.57347965 0.6137991 0.5187263 0.5687769 0.62295246 0.7259389 0.7742939 0.7964649 0.51076674 0.5030888 0.5152144 0.55010456 0.767931 0.79830587 0.509321 0.5027379 0.74711967 0.77682304 0.508225 0.4916639 0.73713803 0.43097356 0.45932102 0.5625307 -0.029366903 0.044297248 0.16302994 0.6109158 0.58775234 0.51631266 0.26199996 0.44433665 0.61465776 0.5047732 0.40378702 0.41429967 0.4514532 0.62079036 0.5397168 0.47302225 0.34531286 0.4865207 0.34841835 0.49601927 -0.029020827 0.5437874 0.40077886 0.4337426 -0.11032662 -0.14854534 -0.13259184 0.16921477 0.39596695 0.3771571 0.44376862 0.45159066 0.43920195 0.43906432 0.44733834 0.43918335 0.56287265 0.60798067 0.4994961 0.5230061 0.54172707 0.7444806 0.8025124 0.8337574 0.51153564 0.500388 0.8309274 0.51464474 0.5217595 0.86378825 0.47822702 0.8197851 0.52617073 0.65322614 0.29309517 0.15698366 -0.3061881 -0.24563135 0.5639386 -0.26073933 -0.13728969 0.6734476 0.64198375 0.58742577 0.4306099 0.27522162 -0.062696815 -0.06935814 -0.15138693 0.6745846 0.2776323 0.6224834 0.08685206 0.2645346 0.18931594 0.14877513 0.07891454 0.45422155 -0.0004923716 0.4776156 0.5076595 0.054397188 0.03846241 -0.040931333 0.2703059 0.46033403 0.5260993 0.20615041 0.05945127 0.063886665 -0.10107686 0.015331052 0.13589358 0.16882668 0.135721 0.021988042 0.22532961 0.20457196 0.32116178 0.36566833 0.39977527 0.41544557 0.4099915 0.42756295 0.43545592 0.4323448 0.54187083 0.5777248 0.7386211 0.5318839 0.5277622 0.77284205 0.81327724 0.84119785 0.5080203 0.50480485 0.863911 0.49284577 0.90696555 0.45659894 0.8963859 0.41399908 0.51678467 0.6246684 0.11184098 0.47018206 -0.07030526 -0.1167831 0.6155286 0.5893024 0.43060046 -0.25176966 0.11445366 0.6721096 0.64509845 0.10587845 -0.09357022 -0.20880008 0.691915 -0.060626186 0.5989375 0.6156926 -0.024058862 0.42085594 0.30021355 0.5329827 0.04193017 0.09902873 0.5594106 0.56423956 0.18948752 0.52853674 0.5505863 0.3236667 0.102367036 0.14371236 0.4283303 0.48915017 0.52673435 0.33023706 0.31888473 0.20182413 0.21922457 0.2195647 0.21630807 0.25459945 0.27282453 0.22951211 0.15285534 0.4048689 0.28250906 0.4294489 0.4823271 0.54511935 0.56825686 0.67475843 0.7626199 0.47173345 0.72656107 0.7757069 0.47164732 0.82903755 0.4561147 0.37994072 0.19585249 0.21322036 -0.009153374 0.20798694 0.6015274 0.545843 0.5036129 0.093802914 -0.062103067 0.24056374 0.27909425 0.63124925 0.6087414 0.22695479 0.6665734 0.062203042 -0.115450576 0.07756384 0.10871082 0.16726716 0.46360236 0.5310449 0.56055325 0.23891386 0.55651724 0.32295316 0.5380283 0.5421978 0.3422436 0.365973 0.46483922 0.5002618 0.32349572 0.32494336 0.14728066 0.23278251 0.38320252 0.42578822 0.2986188 0.28388545 0.25774866 0.17265013 0.09901261 0.11923074 0.36946365 0.4013906 0.33698893 0.2926564 0.4806925 0.44015807 0.6263365 0.42942053 0.41448328 0.38137722 0.3398196 0.42396384 0.6092951 0.4095958 0.54160273 0.61191344 0.32595795 0.20719051 0.12138444 -0.22317238 0.20188753 0.1691827 0.3193266 0.35611993 0.25258347 0.3609432 0.5254197 0.39900345 0.31082916 0.5461168 -0.24690346 -0.11195597 0.38890368 0.30648106 0.45106357 0.5322404 0.34501874 0.52948064 0.39151677 0.528523 0.3824371 0.40805477 0.48292714 0.32483655 0.31287864 0.052593663 0.23241645 0.3181842 0.3961738 0.3011158 0.259129 0.25156808 0.12554678 0.14873616 0.16626076 0.165933 0.11384861 0.094397575 0.063366115 0.087389424 0.093217075 0.46095353 0.45083326 0.7289995 0.71556544 0.6654426 0.5341033 0.34506917 0.32015857 0.17020397 0.24329889 0.30710497 0.21431424 0.16238686 0.19174501 0.28466848 0.20009416 0.29340002 0.31894583 0.40205932 0.3065297 0.33326706 0.3537637 0.34802803 0.28743666 0.2877853 0.32092884 0.22879964 0.25856882 0.5664027 0.41709298 0.14897463 0.5583701 0.4436379 0.5440614 0.48762006 -0.0026189834 0.15785533 0.43550205 0.4115717 0.324196 0.4563094 0.43797088 0.31994992 0.4121793 0.35924467 0.3098157 0.24918729 0.2651425 0.26067853 0.27903667 0.26058364 0.19864844 0.16071093 0.09429019 0.17195338 0.14298634 0.0112204105 0.029351793 0.04704599 -0.01540108 0.6608231 0.6988615 0.8143741 0.7547709 0.69046974 0.5540334 -0.021272834 0.15227656 0.44713822 0.5252819 0.13833159 0.08104914 0.1783109 0.20830561 0.19321904 0.33317852 0.23080143 0.25936028 0.39100638 0.35798913 0.27367163 0.39747268 0.26647735 0.3791489 0.23867336 0.18158486 0.13822584 0.5845071 0.5776227 0.43393803 0.3192639 0.06417007 0.5804381 0.56811523 0.04843524 0.37448204 0.56913006 -0.048606873 0.35146096 0.4536255 0.52965987 0.42686212 0.48501295 0.49943608 0.41652572 0.47377896 0.46210086 0.30235896 0.3928092 0.42746443 0.2519439 0.28887177 0.38967347 0.35473844 0.30909026 0.24646506 0.2546847 0.32822213 0.19513649 0.23477753 -0.013658084 -0.01781597 -0.020682096 0.011617925 0.3366925 0.5545283 0.7037685 0.77372545 0.8057828 0.78793883 0.6706432 0.7011627 0.20621967 0.5048552 0.5790973 0.6363373 0.71933705 0.6994394 -0.005381152 0.029528491 -0.053149447 0.32477853 0.6724218 0.58837146 0.02675138 0.24949335 0.3764206 0.08836931 0.088462055 0.19838749 0.15440919 0.37800208 0.1438693 0.3865503 0.3732108 0.2058339 0.29429448 0.19058573 0.088655725 0.58912295 0.5691656 0.53761554 0.3899715 0.22181904 0.26190063 0.58891433 0.585163 0.27815577 0.41825473 0.5837576 0.48639488 0.51370674 0.50530076 0.50435567 0.5288706 0.48443407 0.4808764 0.52085257 0.47352362 0.44609264 0.4485511 0.40190035 -0.45735586 0.36055416 0.41935405 -0.3258685 -0.30344644 0.2363906 0.2485501 0.57486266 0.23702666 0.3852441 0.045457385 -0.023425736 0.013417266 0.56420225 0.6798423 0.6949266 0.7696024 0.7172072 0.797482 0.6254149 0.53944874 0.53930026 0.6641596 0.6922424 0.691246 0.3799308 0.3995347 0.5403204 0.66993487 0.62177396 0.09086606 0.5833356 0.022626486 0.048641562 0.034285344 0.273317 0.1701705 0.2420983 0.29481435 0.27073428 0.22203217 0.18986744 0.31957006 0.2408047 0.2206234 0.096918665 0.5603017 0.51897824 -0.1030681 -0.1007084 0.30275035 0.5766094 0.55402243 0.3830145 0.45028257 0.48059103 0.57184744 0.49000126 0.51934767 0.45856744 0.39983055 0.53961986 0.43872482 0.4053913 0.5119227 0.52811915 0.40150002 0.48287663 -0.5964396 -0.2641148 0.39430588 0.433057 0.62412727 0.26680297 0.3510291 0.6663899 0.29753426 0.3483987 0.34798998 0.34532654 0.6632459 0.6348493 0.24458727 0.12525794 0.13841851 0.5249584 0.39218205 0.32952642 0.19668369 0.6292176 0.6515918 0.6660568 0.60415345 0.48640588 0.55498004 0.62222713 0.64983356 0.33756918 0.5390848 0.616011 0.5782355 0.45700717 0.33975965 0.39376047 0.103439435 0.35259673 0.24062827 0.19309421 0.29909277 0.24515161 0.20624334 0.30436373 0.29702255 -0.026627079 -0.105628796 -0.0848242 0.26796705 0.28481364 0.1711331 0.24538086 0.4124653 0.5029367 0.5155676 0.25825307 0.48820388 0.5085114 0.47036934 0.03420137 0.35708123 0.4310193 0.60901964 0.066047154 0.09011199 0.34466514 0.64430904 0.20587288 0.28238967 0.4759822 0.47926533 0.43907413 0.65659547 0.65340674 0.16464488 0.21458754 0.64635706 0.61486393 0.42263463 0.34774196 0.22650677 0.19037545 0.18245335 0.43814564 0.6306081 0.62211776 0.5939884 0.527102 0.32165992 0.38487747 0.2869069 0.29791164 0.34393054 0.12176945 0.12506318 0.43067807 0.46799067 0.21070921 0.14175999 0.31939706 0.104260646 0.26118875 0.35980174 0.4043883 0.38296297 0.043768365 0.34268963 0.331138 0.31095952 -0.1058661 -0.11289803 -0.07054499 0.3275348 0.31245762 0.3802473 0.15134212 0.36313924 0.44922274 0.42684704 0.3834021 0.44943097 0.44840038 0.4058714 0.46801004 0.39921236 0.34378093 0.4489385 0.12229072 0.44224668 0.40293348 0.5782021 0.09478997 0.10674724 0.09356876 0.46749997 0.6217169 0.123041704 0.08586098 0.36967638 0.4593076 0.5250003 0.53486884 0.5060762 0.6468604 0.64935446 0.6491047 0.639871 0.44622263 0.3420602 0.262873 0.20057583 0.19297628 0.21803859 0.35852137 0.5082956 0.48537752 0.30827224 0.32397938 0.26632753 -0.17557812 -0.16187492 0.2111122 -0.04648421 0.14209782 0.23304713 0.34342378 0.37906992 0.14963396 0.3369642 0.36829293 0.13775808 0.35308152 0.071954176 0.077744246 0.33215272 0.3375568 0.072956 0.3577551 0.3681398 0.17184685 0.37247932 0.3473567 0.3820512 0.29999644 0.27024513 0.27834103 0.45874822 0.45132136 0.28807354 0.45643026 0.4631017 0.31589016 0.31619418 0.41471496 0.40831953 0.32926318 0.35125417 0.122118615 0.27478877 0.23070487 0.44159684 0.36405283 0.38278037 0.5217273 0.49170634 0.53368366 0.56854147 0.46495566 0.53845865 0.536874 0.5272754 0.61797 0.63435066 0.16496572 0.12862179 0.639544 0.58192503 0.41711035 0.35965818 0.26112968 0.23478532 0.19955882 0.66176087 0.46466184 0.37676448 0.3149138 0.297926 0.31387752 0.054532252 0.27473226 0.19215894 -0.20208699 -0.092912816 -0.014410492 0.18328653 0.22231534 0.29135263 0.18087286 0.2824778 0.29097074 0.31280917 0.08344405 0.30109626 0.42493302 0.3136209 0.33473387 0.36131904 0.4074741 0.37915683 0.31349346 0.3464185 0.25776556 0.2798761 0.3242924 0.08615202 0.25031266 0.4759745 0.27412537 0.4664604 0.46607518 0.28975865 0.30159432 0.41338712 0.37875998 -0.14236292 0.11893929 0.28725505 0.30317882 0.12621461 0.18446977 0.19758013 0.12677424 0.079989515 0.14894618 0.22167268 0.43676966 0.40206146 0.2678558 0.15534568 0.35385415 0.39446306 0.495964 0.52472305 0.51253796 0.5148637 0.05225287 0.53405726 0.5364868 0.13244145 0.44368795 0.2949316 0.26152888 0.19401792 0.69438136 0.64927363 0.6489742 0.6937232 0.59270114 0.45469236 0.40073544 0.5819829 0.33298093 0.3897701 0.2946381 0.045352347 0.11700492 0.008948345 0.0656182 0.17584407 0.1912447 0.27146447 0.49936754 0.19167273 0.26681292 0.53762054 0.5016929 0.22850627 0.43152082 0.27421567 0.32930076 0.12585294 0.23143661 0.044891357 0.17875558 0.18222257 0.3126359 0.25011525 0.23471278 0.027665261 0.06625623 0.1715422 0.2705588 0.27850416 0.23526764 -0.16277547 -0.029001642 -0.006413959 0.17247093 -0.15216292 -0.03572309 -0.10457997 0.5012946 0.26224753 0.011307031 -0.01306518 0.7019548 0.6655115 0.59440887 0.6770029 0.7020005 0.54996336 0.4159009 0.542922 0.5905159 0.34336573 0.30372632 0.4198765 0.1935154 0.18453379 0.3504122 0.14456965 0.2687894 0.08259069 0.17155725 0.21479775 0.031338163 0.12613775 0.6247748 0.5988069 0.5066227 -0.15078428 0.37964857 0.05905043 0.15040234 0.16872874 0.1610023 0.14243102 0.05694243 -0.34734207 0.025118273 0.17009051 0.19510803 0.04478153 -0.11142063 -0.014476854 0.088235244 0.11751873 0.14561483 -0.12697561 0.26715368 0.36783972 -0.11244779 -0.082098104 0.4956798 0.35940894 -0.006512452 0.23170307 0.04949133 0.31963697 0.30301616 0.23339376 0.16337395 0.11153235 0.40548885 0.3472127 0.31246573 0.27983797 0.40237078 0.35391378 0.6822179 0.6606978 0.59704113 0.67290986 0.6740249 0.52691704 0.4551307 0.3577243 0.6304556 0.3298735 0.25589958 0.49695608 0.2004726 0.15881702 0.37777478 0.14369221 0.10813133 0.34639204 0.18943204 0.20154798 0.22926566 0.24648587 0.18232927 0.24041197 0.046157256 0.17068273 0.53938866 0.4440726 0.28670716 -0.034859024 0.40327418 0.28711402 0.13826308 -0.01624227 0.17919189 -0.75525486 0.17599541 0.1392753 -0.0148851415 0.19439228 0.23868725 0.16444464 0.10480316 0.15949832 0.1974675 0.2807303 0.4064211 -0.051121376 0.099585585 0.5000608 -0.020936929 0.5253085 -0.01008328 -0.028095586 0.5191306 0.49208486 0.42394018 0.023403952 0.06028481 0.49793273 0.24447577 0.5215159 0.48134544 0.40805417 0.46746087 0.591116 0.41944253 0.42636937 0.50352746 0.60716426 0.65540063 0.49334157 0.57794607 0.6667737 0.6868704 0.66264904 0.6518756 0.6207477 0.6265804 0.6422419 0.6392525 0.5650398 0.4830239 0.34842125 0.5828673 0.57159907 0.3310082 0.28629738 0.2260421 0.36019003 0.17697741 0.15184614 0.47205216 0.067615315 0.07911534 0.4604691 0.14943233 0.22075081 0.40945485 0.23865576 0.3197635 0.20072685 0.14159685 -0.017035075 0.35053492 0.30199423 0.27894354 -0.033841006 -0.089245394 0.33558625 0.19875094 0.20180458 0.16937825 0.08758498 -0.3776807 -0.27427414 0.04645632 0.09172097 0.0858585 0.17994046 0.25228083 0.20153253 0.42282712 0.105917335 0.19116995 0.5140345 0.086081974 0.52400386 0.0436504 0.52329546 0.50958323 0.026813388 0.03670496 0.47632635 0.5344493 0.53726804 0.57183874 0.5490233 0.53122354 0.53543395 0.48557472 0.68150926 0.6590643 0.50874275 0.5089303 0.62178284 0.7052945 0.7247075 0.6564766 0.7355107 0.60700977 0.60733694 0.59198153 0.4588681 0.5053318 0.49866945 0.35284317 0.28590354 0.4025489 0.15772584 0.39510727 0.33871377 0.07731954 0.51550174 -0.0077900365 -0.05934343 0.5326538 0.022700667 0.1246899 0.51989955 0.24740225 0.46246725 0.23507716 0.27648062 0.19840334 0.23971337 0.10997289 0.15047398 -0.10443273 -0.05342831 -0.1368269 0.38828808 0.107824534 0.05240055 -0.0037070066 0.18920712 0.4113505 0.36886376 0.18098037 -0.07160142 0.225979 0.34495816 0.12918633 0.11857914 0.20943648 0.2366246 0.21100865 0.41370368 0.22139943 0.48835486 0.18620178 0.4944582 0.38595304 0.1286638 0.41953892 0.28506857 0.02615929 0.013718404 -0.021960385 0.48141444 0.45458174 0.50054544 0.2895893 0.546339 0.50966364 0.62654805 0.5446856 0.5545515 0.7271844 0.68060255 0.5848463 0.6956841 0.7486858 0.75025904 0.47299242 0.34573045 0.32127306 0.121957496 0.43959337 0.3854214 0.32394537 0.077843085 0.029885478 0.52742183 0.46305448 0.07363345 0.16885546 0.5446519 0.1460748 0.52585244 0.26077837 0.44953036 0.2582599 0.36819974 0.18878269 -0.070809014 0.109861255 0.1476939 -0.17512465 0.023854347 0.154345 -0.13957247 0.26052448 0.40798977 0.38852912 0.28555062 -0.03245931 0.48476762 0.51856285 0.3982088 0.4592927 0.4686243 0.25935605 0.33906096 0.4011689 0.31313068 0.08091907 0.1698042 0.09481294 0.21976936 0.21276133 0.31278762 0.18296005 0.2738671 0.1808885 0.13743594 0.14737162 0.04028861 0.08182782 0.13227253 0.15278392 -0.033439882 0.37051976 -0.011073045 -0.07252374 0.46516076 0.20236377 0.30956593 0.46332008 0.48769143 0.5978944 0.5138421 0.537673 0.6738238 0.6344437 0.54218554 0.5654284 0.59155214 0.70576346 0.71065307 0.1993514 0.17265946 0.20056158 0.39503434 0.23882031 0.22749996 0.36280066 0.50555646 0.49216524 0.23724258 0.2940247 0.5107273 0.48327297 0.25962856 0.44155222 0.26096654 0.34257793 0.33314335 0.23167333 0.26058394 0.02614361 0.15269946 0.30834067 0.22588208 0.4482554 0.39540693 0.28034067 -0.014900405 0.027732402 0.036780886 0.41424084 0.3219558 0.7921222 0.66738 0.5066345 0.0061861696 0.48744422 0.75485927 0.6046937 0.47861075 0.49510226 0.6236105 0.5065866 0.25909105 0.4069488 0.50677603 0.08101079 0.11165448 0.14691128 0.18196477 0.03597001 0.046743765 -0.2076261 0.15309912 0.018110968 -0.0972022 0.14170384 0.098152235 0.09133457 -0.001741685 0.06764225 0.33562362 0.2653152 0.4274119 0.4374727 0.47903255 0.39220735 0.49680486 0.52205324 0.49809477 0.53416413 0.51589215 0.5221906 0.5862657 0.10708043 0.37699038 0.12638295 0.42021978 0.43301958 0.42436412 0.3679161 0.3977868 0.33826065 0.46167773 0.38608328 0.32901585 0.4205799 0.3721008 0.20932207 0.38311267 0.37521327 0.20841555 0.3521691 0.2719401 0.22416 0.10620855 -0.043571107 -0.013774611 0.22908749 0.6929703 0.54044753 0.39501756 0.06723347 0.03164752 0.045213416 0.33571488 0.8508855 0.72836137 0.4172429 0.908025 0.4444189 0.46044612 0.7796203 0.30812374 0.3953576 0.64714825 0.5620061 -0.002329275 0.5069709 0.2529729 0.07571123 0.0032035187 0.025220502 0.10049413 0.08207183 -0.0797626 0.06208219 -0.03919629 0.02939516 0.39686662 0.44047165 0.410715 0.37332606 0.48801234 0.48131552 0.45501122 0.40305823 0.49912918 0.48200256 0.454656 0.1616558 0.19165121 0.40139943 0.45121717 0.19629881 0.16376574 0.463001 0.4591719 0.20162354 0.42986667 0.40533257 0.2016198 0.23743154 0.30971965 0.31009263 0.2356089 0.32172877 0.123420894 0.29111806 0.21953592 0.096042655 0.1535557 -0.06726216 -0.13795023 0.07786191 0.10017605 0.007510431 -0.05659937 0.055478364 0.06415347 0.0956158 0.75550836 0.58529913 0.44927853 0.27352852 0.91670513 0.8027315 0.6285917 0.31546044 0.9909003 0.21941681 0.32813698 0.35590416 0.8793116 -0.12791981 0.6964678 0.6241324 0.55817986 0.38693473 0.34353334 0.17373556 -0.055138987 -0.15598638 -0.027673438 -0.16610831 0.06963512 -0.13649924 0.026011772 -0.079153396 -0.048603684 -0.011915043 0.05028878 0.45261315 0.53987384 0.3776462 0.44746178 0.57675797 0.59633005 0.28353554 0.34402376 0.20433804 0.18862036 0.3530301 0.43833172 0.45149726 0.41652167 0.37090626 0.0985222 0.08893919 0.18870454 0.40789336 0.4413901 0.043749295 0.44085264 0.28415254 0.41123623 -0.0031574443 0.21517897 0.25763392 0.004044242 0.0022327602 0.13445461 0.91320777 0.8078807 0.6847249 0.5349382 0.12090616 0.065932795 0.06744763 0.052812487 0.9485687 0.8658663 0.037759885 0.8901335 0.7542695 0.7352565 0.6822202 -0.12051723 0.61033845 0.56920284 0.36723447 0.15148786 -0.0497748 -0.07047397 0.037939355 0.10608158 0.68386513 0.15799084 0.6422932 0.6636595 -0.022682574 0.6986008 0.6791855 0.090522826 0.045705285 -0.065023534 0.40748358 0.45816195 0.45240313 0.6462497 0.630666 0.60745287 0.63514173 0.6821502 0.67036474 0.6765097 0.69949305 0.30804366 0.21671289 0.18116751 0.1752553 0