# vtk DataFile Version 2.0
Really cool data
ASCII
DATASET POLYDATA
POINTS 4719 float
26.343348 3.9942133 38.10138
26.267855 3.858959 38.546715
26.248844 3.738084 39.397446
26.346527 3.9449935 39.975513
26.340307 4.5462365 37.94707
26.182348 4.348241 38.43145
26.0986 4.2654314 39.339428
26.298876 4.374667 40.031204
26.29976 4.975247 38.124428
26.249552 5.230437 38.646194
26.239756 5.2312 39.344425
26.357548 4.9529905 39.988693
26.999414 3.3592243 37.98124
26.825659 3.2734146 38.55346
26.840551 3.2311711 39.46395
26.98912 4.073623 37.409523
26.716064 3.7754388 37.83176
26.457659 3.5061924 38.62712
26.479317 3.501669 39.616028
26.677465 3.747337 40.183094
26.967016 4.4222617 37.3274
26.550642 4.422996 37.671772
26.612251 4.7141614 40.48286
26.966372 4.623037 40.858143
26.659657 5.3440557 37.819584
26.649479 5.6099825 40.40843
27.091549 5.5337567 41.16273
27.177357 5.9944267 37.26863
27.159954 6.4249296 37.857117
26.615007 6.0073915 38.572937
26.642855 6.1912346 39.17435
26.92871 6.134587 40.38849
27.145725 6.143904 41.04981
27.214462 6.788934 38.528946
27.220087 6.798688 40.391953
27.455265 9.938228 32.869373
27.357424 3.3647757 37.998642
27.642826 3.1534705 38.603714
27.324335 3.1768117 39.54659
27.552649 3.3905919 40.0945
27.383636 3.9896088 37.334152
27.314133 3.595439 37.64208
27.504204 3.6234472 40.37407
27.532873 4.150197 40.94688
27.437275 4.28708 37.129097
27.675692 4.693151 41.391872
27.889666 4.9564123 41.67089
27.658356 5.5196238 36.846848
27.407272 5.4732914 41.558376
27.796114 5.574915 41.806915
28.232588 6.655634 36.137302
27.610708 6.404091 41.426285
27.852684 6.2425156 41.71132
28.39548 7.6753297 35.735764
27.54155 7.625123 38.625637
27.525106 7.428189 39.260174
27.528252 7.1860986 40.32557
27.826454 6.9168887 41.200592
28.111385 9.219809 31.038708
28.029222 8.79951 31.817907
27.84506 8.763393 32.55743
27.858795 8.8443165 33.295097
28.082907 8.15026 36.767937
28.053278 8.331541 37.54451
27.912077 8.203116 38.769676
27.970087 8.034336 39.451347
28.15604 10.088359 30.086756
28.002884 9.839314 30.706417
27.642284 9.520071 31.88507
27.57509 9.501674 32.572323
27.619896 9.693225 33.467518
28.192793 10.464199 30.079796
27.934065 10.4939165 30.67186
27.697676 10.335697 31.67522
27.548456 10.282382 32.538483
27.720188 10.553802 33.506836
27.977287 10.6003065 34.253025
28.458517 10.6502075 35.402534
28.2601 11.0858 30.11793
28.145391 11.276912 30.717741
28.044907 11.204566 31.560741
27.8581 11.019164 32.46052
27.889605 11.037333 33.266342
28.152267 11.217898 33.95979
28.378195 11.039881 35.118725
28.318178 11.6971855 31.65375
27.960157 3.309738 38.37612
28.030758 3.259507 39.28148
27.958809 3.4045408 39.829563
28.275414 3.8276956 40.34015
27.949648 4.013038 40.78109
28.41062 4.6245475 37.069344
28.521769 4.7235775 41.44259
28.355808 5.007699 41.7392
28.46473 5.6833 41.898716
28.383507 6.303881 36.224922
28.457355 6.3140755 41.81886
28.486292 8.121783 32.34987
28.683548 7.822938 35.4971
28.477129 7.2117662 41.204075
28.55584 6.813367 41.607826
28.71011 8.65849 31.266048
28.875261 8.395137 31.44437
28.64373 8.478268 39.545933
28.53166 7.8445406 40.323437
28.494528 7.606444 40.79228
28.664782 9.491171 36.39051
28.762613 9.110255 38.369736
28.843912 8.833024 39.18565
28.951962 10.415475 29.289791
28.518415 10.696393 35.515503
28.807991 10.416866 36.372692
29.22032 10.621775 36.924847
29.1929 9.839905 38.095577
28.999321 11.031568 29.375439
28.688242 11.235597 29.725271
28.636501 11.461329 34.491924
28.905718 11.580701 35.411793
29.019543 11.355796 35.978596
29.173908 12.315034 29.828562
29.059746 12.466392 30.574636
28.496231 11.921751 31.191368
28.76243 11.929151 32.31013
28.796883 11.733867 33.328144
28.892157 11.739837 34.46471
29.0482 11.773257 35.225895
29.370806 12.804747 29.959494
29.285149 12.835837 30.41523
29.275574 12.741982 31.139545
30.232416 3.175312 28.849802
30.15172 3.228482 29.459194
30.052292 3.974044 27.731169
30.035576 3.5505319 28.61639
29.874437 3.583512 29.48855
30.092424 3.7513478 30.126698
28.727226 3.817941 37.98454
29.06306 4.1211357 38.40335
29.046427 4.0243635 39.650074
30.021923 4.720591 26.75557
29.881784 4.4912677 27.322453
29.70471 4.532791 28.626667
29.683216 4.281301 29.439754
29.943762 4.443237 30.06007
29.363274 4.783662 37.165573
28.832129 4.482 37.40506
29.478132 4.4084916 39.618183
29.503057 4.7426744 40.366913
29.130314 4.8233056 41.132572
30.196184 5.4044113 26.260935
29.866879 5.3645277 26.766691
29.730045 5.361497 27.338444
29.683739 5.0352325 28.838226
30.077112 5.7246265 29.38605
30.22405 5.4944944 29.878723
29.281105 5.9782877 36.221745
29.308645 5.5012617 41.49162
28.910892 5.630726 41.802723
30.158154 6.200725 26.865383
29.943396 6.051329 27.465115
30.306671 6.22747 29.794123
29.284428 6.850862 35.676258
29.497942 6.3041153 41.48662
29.111832 6.2458215 41.715946
29.963764 7.94215 32.47578
29.21779 7.2573 41.176205
29.024797 6.8361855 41.57076
29.444168 8.3271265 39.934338
29.733248 9.83652 29.235676
30.13809 10.998962 28.272194
29.458527 10.460706 37.290474
29.71694 10.13304 38.159897
30.277048 11.446943 28.080486
29.662306 11.5323105 28.852697
29.41177 11.092415 36.55238
30.053753 12.339511 28.833559
29.415518 12.473626 29.661283
29.295637 12.07944 34.735905
29.488604 12.037267 35.33949
30.15186 13.029551 29.08401
29.86747 13.362011 29.906647
29.714415 13.300076 30.523853
30.050713 13.481548 31.513197
30.088129 13.123844 32.074524
30.167347 13.769063 30.515764
30.324886 13.951178 31.161156
30.657906 2.905363 28.844221
30.698668 2.877069 29.429577
30.47054 3.0954416 29.895609
31.153227 4.181363 26.255362
30.420351 4.030892 27.05661
30.57735 4.663125 26.166553
30.440865 4.4809513 26.425049
30.75321 4.788841 30.844465
30.099958 4.920335 38.62366
30.083027 5.116045 39.50257
29.647047 5.0102587 40.728497
30.761711 5.444128 25.856668
30.569023 6.2727003 35.843494
30.382263 5.4791703 39.197437
29.978128 5.568629 40.575825
29.830782 5.710236 40.976494
30.587511 6.664193 26.580458
30.556206 7.185909 34.744053
30.223934 6.306423 40.589367
29.763783 6.497618 41.218407
30.93326 7.230425 27.386192
30.708757 7.35071 28.724768
30.675144 7.5732384 29.407305
30.407328 7.9201455 31.786943
30.659637 7.840943 32.639774
30.462053 7.5324383 33.75392
30.492107 7.5941305 39.96896
30.477499 9.21319 29.079174
30.549862 8.267432 39.741737
30.865757 9.9969 27.863075
31.102448 9.217359 28.5037
30.063763 9.453899 38.999542
30.719183 10.688358 27.701115
30.357056 10.352306 38.286484
30.741362 11.636805 27.818546
30.742756 10.767455 37.937588
30.710365 11.894048 27.841257
30.73062 12.018235 36.10542
30.68147 13.389252 28.821627
30.779842 13.518064 32.508198
30.707718 13.048348 32.938065
30.692158 12.56006 34.65156
31.068377 13.890428 28.848328
30.566505 13.932009 29.767233
31.005796 14.40887 30.559862
30.773003 14.193169 31.317265
30.993132 14.075373 32.039513
31.234304 14.655222 31.093222
32.231064 -0.07901026 34.92414
32.118732 -0.019850954 35.543518
32.27657 0.134873 36.196857
32.11928 0.64700073 34.472267
31.946636 0.77912515 35.18952
32.071987 0.6859524 36.495552
32.21548 1.0006738 37.048344
31.913483 2.4702902 29.190535
32.31647 1.5183257 34.178654
32.059586 1.3983877 34.656048
31.799784 1.3010675 35.510323
31.920643 1.755479 36.508926
32.1347 1.7245924 36.907276
31.308748 2.6343532 28.946486
31.486938 2.5818205 29.361055
31.5158 2.9137266 30.353985
32.040073 2.3573933 35.114197
31.84551 2.3476486 35.598812
31.980215 2.5129132 36.132347
32.273968 2.3785706 36.751266
31.37314 4.1686797 26.048422
31.323112 3.4884264 30.91062
32.19252 2.8890133 35.356205
31.396017 4.748934 25.707495
31.404297 4.5214105 31.292952
32.194794 6.1588154 22.845598
32.12455 6.1145954 23.322071
32.33941 6.0419292 24.62902
31.600433 5.366986 31.114021
30.706594 5.7185984 37.337006
30.771759 6.0468407 39.338787
32.221413 7.0257025 21.926441
32.018177 6.456734 22.725702
31.9675 6.487266 23.26656
31.591337 6.534387 30.950216
31.016464 7.3596735 34.941776
31.462978 6.4932213 36.10929
31.05947 6.4347544 39.290203
32.06649 8.227472 20.59787
32.119152 7.838502 21.575863
31.946623 7.427089 22.811022
32.09371 7.574205 23.195513
31.263697 7.678395 33.52396
31.315325 7.459362 39.341606
30.859493 7.5953364 39.789642
32.034298 8.7450905 19.987532
31.735477 8.86121 20.51936
31.690636 8.654522 21.282286
32.291973 8.133613 23.47156
31.193312 8.425101 39.241253
31.954247 9.566401 19.911646
31.701813 9.488171 20.45678
31.690998 9.392134 21.325838
32.179543 9.408785 22.316807
31.384174 9.634548 38.715145
32.061546 10.014235 19.99807
31.960398 10.187347 20.566301
32.04801 10.218861 21.204336
32.126102 9.963233 21.891312
31.6453 10.460862 27.224693
31.15672 9.847949 38.769554
31.402073 11.46247 27.361416
31.20817 11.702751 27.528387
31.398184 10.970511 37.974792
31.817242 12.471007 27.665243
31.377455 12.003624 36.802616
31.744427 13.424185 28.096987
32.004078 13.392553 34.44688
31.720749 13.383088 36.407387
32.230347 13.88188 37.867073
32.189655 14.209238 27.999283
31.694904 14.3303 28.539415
31.39621 14.548405 29.655802
31.310823 14.304692 32.13916
31.541985 13.992845 32.777843
32.241173 14.294858 35.51592
32.030296 14.308658 36.45949
32.326653 14.760814 37.85982
32.023483 14.758391 28.693039
31.880068 14.811213 29.424225
31.785452 14.862159 30.451136
31.555319 14.806002 31.105434
31.985739 14.6915 31.915068
32.41036 15.137267 38.35681
33.270565 -1.819499 35.217476
33.23949 -1.9963119 36.38127
33.241043 -0.94338775 34.121502
32.86368 -0.94341916 34.663166
32.867474 -1.2583314 35.393738
32.995907 -1.4793532 36.33056
33.3015 -0.9441989 37.254772
32.987488 -0.5030968 33.816742
32.531693 -0.45406097 34.421436
32.49283 -0.54954344 35.73782
32.50967 -0.538557 36.173286
32.645805 -0.23099987 36.982655
32.43959 0.82950383 33.857704
32.599934 0.6896887 37.361496
33.07321 0.609879 37.58966
32.46898 2.4240634 28.848684
32.94986 1.6375062 33.64167
32.536423 1.4325248 37.36024
33.06372 2.9796007 27.056587
32.16121 2.761422 27.945427
32.18232 2.5630805 28.506582
32.751842 2.6144683 29.835724
32.848335 2.1717796 34.03371
[...]
POINT_DATA 4719
SCALARS features_00 float 1
LOOKUP_TABLE default
0.8153515 0.8618885 0.9297763 0.91987175 0.7630441 0.8197448 0.8808838 0.8780299 0.7353201 0.7446948 0.7838844 0.81525815 0.83021575 0.89468575 0.95678306 0.7632686 0.8074553 0.888456 0.9525688 0.92126095 0.7305738 0.75312287 0.8432864 0.85092944 0.6783225 0.7599112 0.8138918 0.595329 0.5386882 0.6237049 0.6128646 0.70526314 0.77378464 0.48239875 0.6381121 0.50948495 0.8296727 0.9024726 0.93796074 0.8911357 0.7610749 0.7922349 0.8777615 0.8545656 0.7342588 0.8533793 0.86042464 0.6113492 0.8449265 0.8596207 0.39931202 0.80068713 0.8313124 0.36985758 0.38483194 0.4583022 0.5969447 0.74572587 0.5453814 0.5521283 0.5389081 0.5167227 0.405454 0.34077537 0.36592436 0.43565303 0.47046834 0.52152467 0.54252183 0.5310317 0.49220443 0.46891585 0.49558517 0.5128361 0.5008325 0.42497063 0.32562947 0.26341873 0.43660408 0.43005678 0.4412602 0.44582537 0.39722657 0.3241518 0.27063522 0.38164818 0.8611158 0.9003382 0.8707602 0.8031242 0.8320206 0.6959811 0.82796955 0.8532268 0.855013 0.42337412 0.83625525 0.5382551 0.3589542 0.7407445 0.80356294 0.53375375 0.5334389 0.41569963 0.5548989 0.6487074 0.24304315 0.30719158 0.3759287 0.39740872 0.264862 0.26372942 0.24102089 0.2634527 0.39821565 0.41195875 0.28489107 0.26023144 0.24483597 0.36953935 0.3522085 0.3674616 0.31042716 0.2885375 0.27497435 0.2617517 0.3624586 0.35185826 0.3261097 0.60463715 0.6299589 0.5859257 0.6242175 0.6445664 0.6820329 0.7592027 0.7070956 0.6988529 0.5415997 0.5695032 0.62664175 0.6467477 0.6679449 0.6023025 0.6938113 0.57465655 0.61181885 0.7657679 0.5367008 0.5580739 0.5703947 0.59503174 0.51605856 0.57902336 0.43004537 0.7894487 0.83445734 0.54439795 0.5345318 0.50684077 0.33921126 0.7766856 0.819935 0.20779018 0.73560125 0.7960633 0.53403556 0.34220383 0.36401728 0.23925623 0.27716213 0.37002295 0.37080586 0.22514875 0.36952546 0.36774766 0.2512178 0.25235176 0.3789597 0.37434843 0.35858253 0.345503 0.30245554 0.37919986 0.37246025 0.5558231 0.5861786 0.624267 0.43796617 0.51083475 0.49025038 0.5022069 0.6104243 0.48561186 0.49369818 0.6422919 0.4663558 0.3327055 0.46937156 0.5884546 0.6733975 0.4824648 0.15847178 0.583772 0.72161424 0.38094607 0.25968766 0.16302389 0.19930774 0.08251016 0.07308578 0.52847695 0.20583841 0.46615323 0.3291329 0.20355082 0.38032195 0.35247666 0.3202866 0.3600512 0.31942332 0.36078116 0.22211635 0.4008003 0.29012668 0.1862985 0.069956645 0.43590498 0.4069921 0.416035 0.38261154 0.35381913 0.41708958 0.5577955 0.57040954 0.5992844 0.58324146 0.6148336 0.65916085 0.69060504 0.4319052 0.5751859 0.6083705 0.675563 0.7309121 0.7153655 0.48952922 0.4980323 0.5920838 0.66641104 0.7294804 0.73933667 0.7057103 0.41891918 0.7543306 0.67910075 0.35512954 0.5314309 0.48064464 0.473894 0.3333665 0.38187802 0.4243322 0.47693926 0.49615854 0.49949327 0.48926985 0.2587297 0.15769199 0.2884519 0.48065877 0.6390102 0.53853154 0.5472263 0.52552277 0.0669406 0.4283815 0.47651303 0.7427758 0.7842075 0.7306212 0.43880597 0.39301473 0.8245026 0.84044224 0.80971676 0.57063967 0.34527406 0.8018544 0.7636188 0.6990526 0.6259967 0.2830891 0.34253728 0.3020398 0.32529548 0.31354612 0.288449 0.20419645 0.37800956 -0.08452703 0.14199759 0.38288486 0.42508277 0.46726894 0.44814512 0.35846597 0.2620381 0.25162336 0.30152017 0.41692108 0.48358446 0.47559583 0.4623622 0.43301192 0.3965123 0.43232703 0.5360315 0.6304542 0.43692678 0.49610883 0.53619325 0.61441123 0.59983516 0.46093148 0.51896036 0.5484575 0.56570315 0.6048671 0.56335324 0.6556308 0.61645234 0.32689238 0.5081946 0.6837388 0.12466621 0.2598032 0.3259666 0.41320437 0.51115716 0.5814353 0.35783902 0.19636191 0.67199326 0.66571766 0.6100844 0.41785622 0.46465036 0.45162266 0.41778576 0.3423605 0.27619326 0.45479333 0.48043442 0.23847336 0.35239026 0.42255035 0.61297774 0.5518873 0.5237431 0.46939015 0.2672575 -0.4040753 0.19910993 0.23699492 0.22179681 0.6488744 0.7123053 0.33142206 0.29170704 0.12859403 -0.032553487 0.36622083 0.74967813 0.79159194 0.270848 -0.025791055 0.35148257 0.7452019 0.7070854 0.62608945 0.545959 0.32406396 0.6555801 0.6580396 0.5958811 0.523854 0.1767351 0.20538673 0.15844142 0.29912657 0.07659514 0.40043348 0.41784424 0.4012653 0.32006305 0.19658196 0.42326218 0.43955094 0.4862652 0.48672083 0.45894867 0.38263154 0.31896445 0.3488701 0.40317234 0.43428826 0.4533791 0.48604396 0.43355343 0.44145152 0.44999522 0.4894899 0.52232164 0.50821066 0.5666485 0.56496495 0.6040298 0.50116193 0.59162676 0.62406933 0.6094018 0.5725008 0.38310835 0.5890938 0.56716377 0.2638595 0.37718022 0.536633 0.26039124 0.43737903 0.57259434 -0.115012124 0.5230227 0.09192075 0.029139988 0.11647816 0.18468891 0.5599416 0.3797155 0.38952935 0.5023346 0.2594763 0.42871562 0.41670486 0.4493683 0.32689878 0.24344511 0.23196279 0.52615595 0.43104208 0.117400646 0.60343343 0.15344667 0.21997657 0.63495195 -0.21863091 0.14459424 0.23352203 0.36097628 0.6790321 0.21709815 0.71335554 0.6607933 0.078791276 0.60474527 0.573339 0.5148033 0.46434608 -0.16931729 0.28831 -0.119285636 0.15610906 0.49587214 0.5646714 0.2638245 0.12817355 0.55631125 0.39108697 0.3475748 0.35985905 0.24207257 0.29963142 0.54494506 0.6404619 0.3939091 0.5648445 0.652673 0.5734979 0.65074277 0.6653166 0.6771001 0.6153531 0.6692035 0.72791886 0.72011685 0.5800719 0.5928471 0.5837894 0.43617636 0.5567846 0.5883019 0.5562779 0.36432534 0.3281103 0.25852466 0.23346913 0.50834215 0.3300057 0.3252783 0.3221193 0.04883904 0.47058058 0.3521473 0.22163974 0.40958044 0.24373975 0.073243506 0.03786447 0.098576054 0.28665993 0.34976062 0.21018732 0.13673273 0.30317277 0.18475458 0.24860458 0.42029595 0.35855007 0.3183004 0.115592 0.58478904 0.5235768 0.036489956 0.59993494 -0.052009866 0.6314635 0.6140753 -0.06856154 0.08467932 0.6350134 -0.10185453 0.012872651 0.6522402 -0.05415213 -0.16482055 0.5461143 0.4861986 0.47025788 0.20710273 -0.019680753 -0.34644654 0.1715568 -0.022748351 0.3283841 0.44980243 0.013109788 -0.0607997 0.63645625 0.75056386 0.029399965 0.008601713 -0.016691774 0.12924922 -0.18560296 0.124822855 0.75580984 0.8400305 0.24082474 0.04596562 0.11292207 0.22364698 0.2258633 0.16851258 0.29007876 0.7476202 0.8473873 0.53086007 0.5537182 0.4845912 0.3024623 0.408199 0.72553885 0.7996055 0.5868185 0.5869304 0.55896103 0.50292724 0.5364999 0.73397607 0.80283993 0.59070826 0.58699584 0.5726025 0.53678507 0.50043905 0.64406013 0.7355671 0.7710223 0.75444484 0.7483697 0.5688044 0.56904995 0.5623652 0.541769 0.4948781 0.79023933 0.7812037 0.5729902 0.5688881 0.36964792 0.5383756 0.5303079 0.5236006 0.45482248 0.38928494 0.26281625 0.12065023 0.52614355 0.4968172 0.6128036 0.6101208 0.5835303 0.3429681 0.38319653 0.16517541 0.4348287 0.5644798 0.5729657 0.52225614 0.39635366 0.27780598 0.30538717 0.36906797 0.39554858 0.4538542 0.20878373 0.26102167 0.19607846 0.15804636 0.17977557 0.1355727 0.13243239 0.022074008 0.025972057 -0.045664925 0.19902308 0.51091814 -0.030109435 0.57792073 -0.054410443 -0.010731641 0.61377186 0.56739956 -0.073138595 -0.20116916 0.5118563 0.4041444 0.2290861 0.22945897 0.32480404 0.36649275 0.49331093 0.57292074 0.009927899 0.6544201 0.80730736 0.8742578 0.2853077 -0.04398417 -0.28359425 0.102823436 0.06817803 0.9120276 0.4102387 -0.10466705 0.15377882 0.2692835 0.30945587 0.93776834 0.48600948 0.092450924 0.39234164 0.9212583 0.5545014 0.5564568 0.38671416 0.5559147 0.83285224 0.8489666 0.58508 0.5853092 0.3939327 0.8767134 0.77925515 0.77463627 0.56795406 0.5728966 0.518569 0.47895807 0.44686666 0.41652042 0.5209217 0.78755116 0.5791836 0.57749945 0.57062024 0.54152495 0.49410367 0.45154053 0.56506586 0.57630736 0.5464221 0.55579174 0.5842358 0.581967 0.57979155 0.5271039 0.45598996 0.3508447 0.51157486 0.5380829 0.2782516 0.21556896 -0.09009499 0.6290927 0.6314199 0.6163912 0.16049893 0.5435906 0.599471 0.17378157 0.16187853 0.46591127 0.22357753 0.23190118 0.0988566 0.24421576 0.01454135 0.08050035 -0.07042724 0.3056684 0.005324114 0.13039252 0.2869473 0.09100519 0.14605007 0.21499822 0.21759582 0.54938525 0.5001579 -0.12973166 0.5042654 0.2852394 0.36416584 0.43123746 0.14819053 0.30213073 0.35244963 0.54587257 0.6172107 0.8247122 0.23996183 -0.37405586 -0.101373695 0.13329665 0.22079483 0.2228721 0.8650502 0.91496515 0.3641115 -0.21688673 -0.19521463 -0.19722235 0.27982628 0.9323585 0.4442408 0.43914372 0.6047487 0.9070647 0.92893004 0.50479245 -0.04361039 0.21366514 0.65050817 0.7146441 0.8642142 0.87396777 0.63171613 0.12927003 0.2620777 0.36304837 0.45153534 0.4569682 0.79393846 0.86289454 0.638865 0.5909291 0.12869292 0.15093371 0.20296434 0.31047678 0.43108732 0.46903223 0.5430721 0.4429851 0.42836025 0.6499906 0.63362837 0.59675014 0.57308227 0.563632 0.48520687 0.4153933 0.26689956 0.27234095 0.37316543 0.553897 0.4498344 0.43273088 0.595824 0.595716 0.33791295 0.36996648 0.5299049 0.572881 0.56339276 0.54140997 0.6373972 0.6845912 0.536554 0.55416346 0.5630883 0.5149614 0.4226901 0.5398115 0.71386003 0.7100494 0.50673956 0.57845545 0.65422857 0.69068587 0.58363634 0.63010514 0.13588548 0.20196848 0.5733774 0.5852589 0.45436057 0.3561254 0.043009114 0.02539272 0.13847089 0.20667057 0.5336387 0.1119027 0.06536758 0.61191165 0.641826 0.5103557 0.44964314 0.2449418 0.07528404 0.5052929 0.5351045 -0.009094417 -0.1312371 0.06969503 0.5221646 0.03951388 0.6019349 0.43137097 0.5700493 -0.05849704 -0.10623031 0.43537936 0.26929724 0.24722394 -0.015968572 0.1918213 0.13971245 0.05514598 0.092637494 -0.061183326 0.13597521 0.01917686 0.16208863 0.14253642 0.10000613 0.6020565 0.54112184 -0.014493264 -0.030005008 0.6265218 0.59508 -0.17043416 0.6809422 0.6477001 0.58831245 0.51713145 0.42587274 0.13830295 0.19671513 -0.010993153 0.6906874 0.64866173 0.5829879 0.01077956 0.1302075 0.11629425 0.28578675 0.083624765 0.30732557 0.38031384 0.5098166 0.77892596 0.87280613 0.32666594 0.4687425 0.79498684 0.85799706 0.89373064 -0.24134484 -0.2321653 -0.18126757 -0.042022973 -0.024417445 0.64435077 0.883718 -0.29594165 -0.08454953 0.16044658 0.24272278 0.6662489 0.654065 0.64924264 -0.2888834 0.082781985 0.26607785 0.281755 0.68490374 0.68863946 0.3531789 0.6933963 0.67210996 0.625129 0.56962216 0.5031531 0.5933471 0.6646403 0.64528525 0.6202463 0.44763273 0.41228116 0.34400925 0.6459741 0.62786216 0.5018495 0.48238733 0.5038681 0.52853763 0.42065537 0.30673522 0.67425925 0.4995496 0.5020485 0.5320681 0.6698257 0.65936553 0.49469608 0.5478213 0.58502066 0.6294288 0.6023067 0.5946904 0.58341026 0.544278 0.45861053 0.46325573 0.413134 0.28718358 0.1847368 0.04581 0.13080248 0.2765266 0.32757014 0.5919007 0.10191996 0.32456833 0.51370233 0.50047153 0.17568946 0.20384598 0.1465896 0.51586664 0.5171495 0.36226642 0.40725788 0.31092325 -0.038143717 0.5494565 0.3731926 0.5911933 0.60008276 -0.08061093 -0.016857656 0.6021147 0.0006929692 0.55241024 0.45019343 0.1377056 0.1276437 0.33956757 0.13087586 0.20031798 0.13133246 0.06407358 0.11119784 -0.12151738 -0.018201485 0.24511012 0.47257116 -0.16713874 -0.5870087 0.107973866 0.347 0.4379847 0.5956619 0.072058454 0.16006216 0.33884436 0.46584398 0.66939116 0.3471107 0.20108062 0.046688706 0.55732656 0.6271491 -0.18703544 0.3121947 0.7084165 0.6816301 -0.14485681 0.74881643 0.72018707 0.30903924 0.13684286 0.72185004 0.6618036 0.6153732 0.48902816 0.29222474 0.14377768 -0.60096914 0.050136164 0.04650058 -0.1504952 -0.12046385 0.47262967 -0.011560276 -0.04075558 0.6420412 0.59504056 0.110430375 0.11746837 0.22835273 0.6761942 0.6602818 0.2728958 0.13997824 0.68983126 0.69585013 0.5765089 0.36340076 0.6807512 0.65289605 0.6171572 0.4542075 0.6405536 0.6529628 0.49177492 0.47971135 0.37752354 0.63510185 0.27995652 0.3238737 0.40064523 0.6054335 0.5977997 0.28173643 0.45913374 0.5137849 0.5533289 0.56979764 0.47350422 0.51970124 0.53404546 0.6003407 0.55469555 0.65211684 0.6323615 0.5742303 0.5016508 0.43201262 0.618133 0.62212944 0.4506438 0.3976863 0.39114136 0.17726715 0.27443263 0.3571347 0.41480452 0.3543052 0.03788592 0.34978646 0.3854046 -0.034724608 0.33307844 0.34536138 0.15110454 0.2343665 0.24006374 0.03151133 -0.1312615 0.048334338 -0.03171036 0.1236624 0.20789623 0.00071515143 -0.22174537 -0.16631517 0.5220392 0.35926205 0.5756177 0.00649623 0.57422626 0.11752783 0.48674637 0.1409313 0.23520961 0.23031205 0.1324603 0.09821039 0.47569343 0.64688826 0.74227625 -0.24408887 -0.49663058 0.6922413 0.77635956 0.18727686 0.11405215 0.7302424 0.8023397 0.3346569 0.20510913 0.54043686 0.73418975 0.7814999 0.6002675 -0.1897403 -0.008854348 0.18507734 0.34381682 0.45387456 0.67679965 0.7377968 -0.22716728 0.25905567 0.82598233 0.15275641 -0.012423869 0.8042054 0.75662935 0.39709926 0.26837587 0.034649014 -0.20602864 -0.36992493 0.69391024 0.6738737 0.19380094 -0.06995191 -0.3172178 0.34763688 -0.271998 0.48100114 -0.32828128 -0.020304635 0.543296 0.16309835 0.13890393 0.5962502 0.58355534 0.0947933 0.10826633 0.20353958 0.64470077 0.6625081 0.56459033 0.5704006 0.51330614 0.49342513 0.6129948 0.57955784 0.30741486 0.6621392 0.38914785 0.38255152 0.3016992 0.25200674 0.6440806 0.25578612 0.22608295 0.61359787 0.21782197 0.26413384 0.5197603 0.56346166 0.31006408 0.40511176 0.47028774 0.49603385 0.59270096 0.5235469 0.643204 0.52817404 0.48207292 0.39452875 0.6400888 0.2265838 0.37340596 0.41657424 0.43812817 0.4171645 0.4088626 0.3168695 0.1399679 0.33711725 0.33221447 0.2746042 0.16603042 -0.11252854 -0.15090342 0.01194758 0.45836443 0.23847483 0.09927928 0.337116 0.4771068 0.39729965 0.23123643 -0.16245155 0.36483136 0.4826712 0.5047804 0.48817864 0.44320303 0.4936397 0.07849318 0.4578339 0.362679 0.30866918 0.21022505 0.22794977 0.54129976 0.7249432 0.10985979 0.76048076 0.75321054 0.247524 0.19815901 0.78086674 0.7682606 0.48160398 0.33938897 0.76178443 0.6504613 0.5620682 0.62334955 0.6899797 0.83606386 -0.24926394 0.19832675 0.8769257 -0.005334839 -0.04573288 0.07201221 0.76929903 0.73166615 0.4978238 0.3645439 0.2507565 -0.31095976 -0.48847216 -0.27967137 -0.015410103 0.042221557 0.2066669 0.6852599 0.6398903 0.54688597 -0.14237122 -0.2669552 -0.03673455 0.105147704 0.263681 -0.36915842 -0.3262031 0.15659012 0.3201187 0.3847344 -0.4289696 -0.3605076 0.2615022 0.48318964 0.46614844 -0.38115907 -0.22217575 -0.30493373 0.4962153 0.49348694 0.5526267 0.5321634 0.4898515 0.32236797 0.06182801 0.057807364 0.13769981 0.52221704 0.4838974 0.24005786 0.41117412 0.5546448 0.31584603 0.34379467 0.6502495 0.340138 0.27858436 0.25159344 0.2113694 0.16934654 0.6433241 0.14483286 0.19529097 0.5822914 0.19016941 0.52968717 0.26852843 0.31857195 0.354909 0.4122759 0.42767534 0.46083874 0.4178142 0.52790606 0.38627052 0.42075622 0.5993275 0.45697892 0.38649458 0.14431551 0.41530874 0.44722125 0.33528876 0.45026547 0.4440673 0.3718411 0.14337558 0.24773878 0.37956512 0.15904486 0.5045824 0.5606334 0.35962176 0.385385 0.38240665 0.26602328 0.11307585 0.028823275 -0.5472011 0.29992843 0.48561436 0.5631677 0.30184415 0.5520277 0.35243234 0.4867591 0.42885417 0.3989851 0.37697324 0.42124182 0.43307889 0.17614502 0.3931563 -0.008456752 0.30823523 0.08557658 0.28544074 0.55157274 0.6427556 0.17325665 0.6961379 0.7227359 0.3025244 0.70341086 0.72134304 0.54327714 0.48917237 0.6833628 0.71686757 0.5995821 0.40519613 0.61999524 0.65294516 0.81482095 0.072778895 0.2984218 0.8678851 0.10355556 0.031718343 0.04008465 0.046093468 -0.19897564 -0.03657788 -0.011723012 0.7754744 0.711028 0.6170907 0.5296216 0.39817846 -0.3457806 0.22007364 0.6828791 0.63313425 -0.2961124 0.34947404 0.40047526 0.20658816 -0.35450083 0.38659313 0.40728122 0.4534592 0.45907307 0.36721697 -0.00040088594 0.43414417 0.0028854758 0.014052659 0.37048164 0.0167722 -0.00016888231 0.62701625 0.3858078 0.3738141 0.346897 0.26859242 0.0705108 -0.02298674 0.1505233 0.5304984 0.23243892 0.40505248 0.26250473 0.32899964 0.37080634 0.4093722 0.38899305 0.41031557 0.23574257 0.22860087 0.20905152 0.20834778 0.05911112 0.11731479 0.36157143 0.43621522 0.3934507 -0.08347071 0.54497755 0.57555145 -0.14332706 -0.12357107 0.4809655 0.59148395 0.5973216 0.33199754 0.35562444 0.35993683 0.1659801 0.12679343 -0.0204025 -0.27086347 0.5959481 0.5933462 0.30065554 0.52435315 0.23887715 0.19622445 0.47294986 0.45242587 0.3597541 0.32771862 0.4100226 0.34547397 0.287184 0.37112314 0.306871 0.06423593 0.22863314 0.26828796 0.57609165 0.11227339 0.60057724 0.39579016 0.32119584 0.17086893 0.62720037 0.62719876 0.54498565 0.5262085 0.655861 0.7468914 0.7066914 0.57992864 0.8206619 0.845993 0.79314876 0.13044184 0.06825648 0.116236 0.058354497 -0.062033474 -0.06570109 0.76723963 0.715526 0.67160034 0.6101908 0.49598578 0.1342739 0.08328655 0.087088585 -0.12608136 0.24561541 0.3312262 0.31570148 0.32284954 0.3542469 0.30650064 0.26677734 0.20081294 0.1391239 0.089366496 -0.060017303 0.11331771 0.14266486 0.29258317 -0.29105744 -0.050968878 0.14653338 0.3844535 0.14400837 0.056764163 -0.0981317 -0.21321908 -0.19561188 0.39966214 0.39417988 0.3267988 0.4902673 0.102956936 0.13743868 0.18821649 0.29045412 0.2407859 0.340664 0.35195583 0.39960182 0.4064566 0.5105725 0.5024415 0.3991308 0.09792425 0.13665816 0.2809233 0.33253324 0.36307698 0.5284893 0.49537987 0.4230653 0.27305877 0.26152247 0.10110991 -0.08816336 0.29912537 0.21949053 -0.048945144 -0.026513845 0.40035495 0.5353236 0.5766552 -0.26223543 0.57987684 0.584435 0.2852881 0.25524887 0.20849176 0.16274442 0.5525488 0.2034397 0.24696484 0.5179349 0.12652524 0.35977238 0.11370494 0.32031938 0.28312418 0.30123526 0.1764876 0.20487821 -0.23231356 -0.08575646 0.10190062 0.45106292 0.059714485 0.005615972 0.35597798 0.6144271 0.5433206 0.38142022 0.110916026 0.7516684 0.69772744 0.04896553 0.8122914 0.8073523 0.59130734 -0.01919976 -0.0005583996 0.81256187 0.7528177 0.67738634 0.47769946 0.19182721 0.16756766 -0.04899784 0.75649726 0.6897289 0.16383609 0.019177899 0.31879222 0.05943486 0.20719914 0.38091487 0.1790562 0.37673876 0.2131207 0.3648114 0.1730119 0.16736078 0.06362605 -0.3865154 0.0068466477 0.19988516 -0.114247635 -0.39513263 0.25753373 0.61041725 0.33588502 0.1861136 0.17904058 -0.0077942014 0.6900982 0.28831178 0.64163375 0.70823115 0.09809488 0.684342 0.059001736 0.43810695 0.6597539 0.21768466 0.31276986 0.34223592 0.3133933 0.31222183 0.5597486 0.5485636 0.5221263 0.4450904 0.40432358 0.44235444 0.47002912 0.55740035 0.5412295 0.2897143 0.3963903 0.4556768 0.5518346 0.39530787 0.5150614 0.28793615 0.27850366 -0.0689357 0.20805252 0.34231216 0.39531234 0.45689127 0.059203207 0.023004215 0.4774173 0.4867944 0.15653044 0.1082428 0.104729064 0.08512298 0.3560391 0.47070277 0.061157905 0.41283244 -0.050397478 0.3023131 0.11329404 0.03183677 0.2988361 0.10449815 0.0031659603 0.29470572 0.20605215 0.29963964 0.26551908 -0.18306696 0.2182887 -0.26072758 -0.08286252 -0.13272521 -0.03987693 -0.019353379 -0.054693945 -0.02897501 0.7274314 0.6007751 0.38019657 0.24507748 0.05261589 0.7707217 0.6951328 0.5482728 0.0058647506 0.7846889 0.69346726 0.17269298 0.15163215 -0.07813341 0.16238965 -0.046231583 -0.053512827 -0.11893998 -0.052624583 0.35598314 0.10440575 0.39767152 0.4020146 0.05514065 0.077470034 0.39589524 0.09057765 0.3745076 0.29079917 0.0024157986 0.22431189 0.058282968 -0.4678703 0.054528847 0.25779694 0.49961135 0.15226388 -0.16227908 -0.4413518 0.12938584 0.57040304 0.75139177 0.21212992 0.07830085 -0.060182065 0.75064516 0.7848748 0.23054424 0.24461439 0.7389541 0.2936123 0.70954716 0.7307068 0.6110356 0.680274 0.7169813 0.25874048 0.33745426 0.3801862 0.47175062 0.57712007 0.5515088 0.5137861 0.4417467 0.38725245 0.47057366 0.49785265 0.5064737 0.61085826 0.5850595 0.49339184 0.46110392 0.5952793 0.40972972 0.57446015 0.25300613 0.44169432 0.49300218 0.5015861 0.46878886 0.32939973 0.0066230185 0.009188293 -0.009925087 -0.07854021 0.10982066 0.331704 0.02444245 0.020051798 0.29520273 0.08290939 0.19439816 0.23069826 0.1299237 0.2374978 0.20838128 0.18344773 0.1431954 0.2990674 0.2535233 0.27646396 0.329344 0.28457952 0.26015395 0.29564476 0.22725612 0.2664517 0.22742394 0.029811349 0.19544964 0.08861772 0.105189644 -0.12766