# vtk DataFile Version 2.0
Really cool data
ASCII
DATASET POLYDATA
POINTS 4780 float
29.332247 35.47 34.069603
29.194418 35.604866 34.510025
29.188433 35.754383 35.46803
29.310493 35.839756 36.02411
29.106495 37.000767 32.881298
29.10758 36.599564 33.397602
28.80512 36.852768 34.35864
29.016518 36.65365 35.288467
29.266563 36.35603 36.172615
28.907373 37.64852 32.800606
28.642878 37.643143 33.469162
28.629047 37.698544 34.46077
28.952389 37.55447 35.19622
29.160744 37.1346 35.91692
28.911692 38.34204 32.88905
28.626408 38.347824 33.547153
28.601622 38.457096 34.28915
28.900389 38.363857 35.20825
28.944199 38.901836 33.126163
29.06849 39.249866 33.638615
28.97521 39.197334 34.29636
29.21409 39.297672 34.885616
30.296331 28.055477 21.232964
30.263327 27.698748 21.617573
30.239338 27.623425 22.319075
30.139782 28.310917 21.690502
30.127308 28.309845 22.329916
30.235167 28.372808 22.957048
29.548845 35.13862 34.100822
29.726578 34.903126 34.567204
29.741098 34.93797 35.40185
29.765839 35.12406 35.93798
29.450523 36.207844 33.25518
29.656527 35.604214 33.583275
29.418056 35.27192 34.1839
29.611937 35.654644 36.30599
29.651842 36.755566 32.67311
29.562037 36.78348 36.490185
29.76643 36.479576 36.770416
29.783945 37.42498 32.25052
29.591768 36.94612 36.428192
30.087385 37.25425 36.87756
29.7972 38.234154 32.179497
29.772905 38.495647 36.145454
30.16308 39.514725 32.190197
29.34901 38.90391 32.693058
29.770903 39.13104 35.5494
30.018253 39.11238 36.044132
30.379301 40.77985 28.592419
30.053364 39.78323 32.435146
29.971556 40.07216 33.118977
29.846668 40.019577 34.58953
29.890001 39.755642 35.253304
30.357002 41.382435 28.485748
30.39305 41.316612 29.440634
30.431267 41.87828 29.370531
30.776829 27.073793 21.657787
30.63789 27.012402 22.444233
30.827145 27.034025 23.411203
31.255142 26.860718 24.297392
31.101955 28.122269 20.35851
30.589542 27.67681 21.056131
30.425001 27.323862 21.531092
30.572882 27.591406 23.415411
31.030102 27.515705 24.389122
31.286495 27.380348 24.895193
30.597279 28.495945 20.726625
30.428709 28.626057 22.971853
30.610703 28.210886 23.788303
31.037714 29.973776 18.291245
30.930828 29.82731 18.596329
30.70626 29.24692 20.532177
30.514334 29.116743 21.578218
30.418758 29.019081 22.6792
31.058748 29.668224 24.677382
30.989153 29.832373 25.3902
31.149302 30.182468 26.26024
31.0493 30.6824 18.031326
30.677458 30.49173 18.679792
30.554256 30.745974 19.300783
30.942892 30.447264 20.426445
30.996788 30.66467 21.027048
30.918388 30.710068 24.565973
30.721132 30.79076 25.646154
31.010708 30.676554 26.251867
31.217531 30.750868 26.779701
31.27957 31.137718 17.753881
30.840605 31.34109 18.619997
30.564543 31.029758 19.386354
30.768448 31.344048 20.175741
31.215649 31.605297 21.19353
31.157207 31.256075 23.919455
30.77628 31.322498 24.742693
30.625301 31.375523 25.388018
30.850697 31.642012 26.284878
31.370407 31.761402 26.98513
31.171833 32.048786 18.79472
31.200077 32.374695 19.698647
31.355822 32.592426 20.588144
31.288479 32.08593 21.508066
30.904823 32.069347 24.736599
30.822182 32.15336 25.593464
30.984049 32.169994 26.306145
30.492939 34.418217 34.60339
30.374247 34.87228 33.830894
30.243402 34.662895 34.25257
30.312372 34.556267 35.283447
30.977175 34.560314 36.557545
30.675146 35.948097 32.927513
31.392008 35.841793 38.207973
30.475916 36.51213 37.133232
31.398693 36.469215 38.373913
31.023933 37.410385 32.19411
30.578766 37.37858 37.168575
31.312235 37.354248 38.173122
31.302376 38.770767 22.777483
31.18915 38.83478 23.570408
31.267136 38.869247 24.057558
31.228762 39.08311 30.148733
30.692469 38.235046 31.929516
31.22909 38.097996 37.478775
31.18824 39.55467 22.93135
31.07471 39.55971 23.536758
31.203754 39.501343 24.194365
31.140842 39.98425 28.14268
30.919481 40.02324 28.664291
30.87531 39.954605 29.353407
30.811514 39.86764 30.47794
30.543125 39.090603 36.525524
31.097046 39.334248 37.00304
31.274626 40.05838 23.05398
31.220575 40.10191 23.518747
31.358038 40.295536 24.156647
30.639038 40.863594 27.793873
30.586609 40.40227 28.291885
30.726068 40.61661 31.55291
30.648989 40.44619 34.571484
31.337837 40.38593 37.016613
30.709105 41.329475 27.688368
30.47373 41.733868 28.27108
30.650745 41.50481 30.234632
30.810799 41.35 31.374313
30.68181 41.167835 32.654057
31.228605 41.18426 34.814533
30.974012 40.83519 35.744186
31.37746 41.226627 36.24059
30.951193 42.27666 28.072153
30.773191 42.28854 28.466942
30.71168 42.30932 29.382977
31.07184 42.483593 30.591953
30.910545 42.069748 32.01852
31.012167 42.113567 32.535706
31.385937 42.05413 34.988873
31.117441 42.82464 28.604652
31.226784 43.026356 29.552551
31.224329 42.837658 30.241577
32.357582 24.935883 35.60973
32.197113 25.169392 36.11859
32.026665 26.325745 21.938885
31.862217 26.283888 22.848896
31.935041 26.209663 23.532898
32.147083 25.780043 34.81304
31.955696 25.727407 35.679207
32.08135 25.636988 36.34911
32.287193 25.661594 36.803204
32.11936 26.99433 20.77964
31.659338 26.632816 21.885574
31.527048 26.500572 22.540262
31.714226 26.488708 24.33882
32.329712 26.969687 29.812893
32.394287 26.78587 30.34892
32.390015 26.942846 33.81113
32.058937 26.380444 34.605083
31.754992 26.617125 35.5626
31.777117 26.52205 36.261528
32.07613 26.742907 37.030434
31.539104 27.555576 25.315628
32.18206 27.552767 29.771769
32.29613 27.503208 30.292871
32.125507 27.215517 34.557587
31.735863 27.366793 35.878284
31.762363 27.36984 36.445267
32.00181 27.431063 36.971928
31.331785 28.936516 19.938223
31.610964 28.210476 25.420527
32.314 28.304989 29.685604
32.361828 28.433807 30.378214
32.16634 27.897146 35.15136
31.991362 28.024115 35.653534
31.978848 28.02442 36.484882
31.610096 29.926605 18.011766
31.4665 29.46208 18.53099
31.615486 29.85315 26.36742
31.851881 30.66449 17.536472
31.685034 30.726648 27.131123
31.834919 30.967323 28.051428
32.297634 30.788572 28.986786
31.500746 31.086678 17.678598
31.624 31.590555 27.30285
32.095764 31.308506 28.316885
31.96824 32.05939 17.744358
31.84084 32.603157 18.632109
31.618807 32.232677 23.752913
31.443626 32.695126 26.446947
31.788324 32.179825 27.27485
32.258682 32.38109 27.8376
32.388424 32.95012 36.58132
31.817282 33.00477 19.66248
31.522556 32.979202 20.5077
31.833193 32.78526 21.589231
31.990395 33.43521 25.048532
31.882036 33.589584 25.454258
31.947668 33.683384 26.157896
32.261414 33.54761 27.088812
32.007996 33.638298 36.660675
31.957603 33.6504 37.587666
31.93734 33.750835 38.026154
32.398808 34.9022 15.023216
32.404636 34.421974 15.405252
32.472507 34.723724 16.315287
32.287086 34.041203 25.947138
32.334023 33.87532 26.928526
31.620039 34.988255 33.87906
31.949295 34.319664 38.370346
32.46747 34.963085 15.0562
32.383633 35.407627 15.939823
31.766502 35.749504 32.957226
31.458017 36.089317 37.918625
31.96872 35.506744 39.474354
32.265324 35.718075 40.141617
32.13017 36.748875 21.929754
32.259563 36.47363 22.862053
31.90868 37.201584 23.185722
31.964745 36.567924 39.44405
32.21441 36.36299 40.019245
31.947752 37.217876 21.987837
31.70442 37.52448 22.590588
31.581413 37.856045 23.279781
31.975111 37.985836 24.028542
31.622341 37.622368 38.342705
32.096905 37.284904 39.231075
32.328186 37.122948 39.8365
31.888895 38.34128 21.836672
31.535292 38.17576 22.751213
31.527672 38.319004 23.778757
31.574516 39.04077 29.77433
31.634619 38.928764 30.224075
31.921143 38.0902 38.42063
32.181576 37.971928 38.75122
31.839626 39.547066 22.055182
31.405973 39.547012 22.52613
31.826387 39.667717 24.98812
31.374313 39.6276 28.656858
31.630991 40.233524 22.75623
31.434597 40.459507 23.515675
31.600784 40.518322 24.42436
31.786041 40.138245 24.814213
31.668327 40.66061 27.386269
31.700298 40.5871 37.25525
31.871214 40.813282 23.103495
31.878845 40.964085 23.565842
31.955826 41.048878 24.08798
31.202215 41.52265 27.263094
31.609426 41.401646 36.538525
31.871534 41.020428 37.229996
31.584864 41.966698 27.3567
31.555626 42.47199 27.828335
31.420773 42.419006 33.89597
31.526636 42.512432 34.534206
31.815039 42.41931 35.397785
31.888157 42.09549 36.048733
31.770245 43.088436 28.29207
31.642685 43.288284 28.773893
31.574844 43.34218 29.549616
31.930386 43.256332 30.442688
31.772806 42.92967 31.609303
31.94868 42.792797 32.499813
31.950193 42.936108 33.60463
32.0582 43.020695 34.44608
32.132652 42.882236 35.288227
32.002716 43.639694 29.046467
32.05484 43.63842 29.205097
33.220375 23.791204 28.732279
33.192295 23.750978 29.48295
33.088737 24.191519 30.505991
33.142548 24.352102 34.988544
32.991295 24.361792 35.628437
32.99561 24.398449 36.07923
33.198536 24.307331 28.17928
32.80219 24.749126 28.78132
32.708256 24.836798 29.504677
32.92599 24.830748 30.325335
33.10202 25.043854 31.608507
33.305477 24.724045 32.383766
33.228844 24.782927 33.535397
32.53365 24.954895 34.974487
32.58189 24.715603 35.534477
32.754776 24.720604 36.42278
32.949802 24.86226 36.811947
32.939163 26.409927 21.134548
32.934708 26.249212 21.840357
32.779675 26.11748 22.479635
32.68872 26.000425 23.716932
32.7049 26.191097 24.935926
33.277294 25.613693 27.055387
33.102123 25.79023 27.353601
32.66204 25.312485 28.785383
32.63175 25.5456 29.737785
32.737343 25.5994 30.562374
32.86974 25.525772 31.24177
33.01487 25.443768 32.10924
32.91949 25.569544 33.67136
32.539867 25.334953 34.54606
32.379677 25.267416 36.60881
32.68274 25.563843 37.068523
32.59308 26.778019 20.829916
32.8328 26.607536 25.881704
32.600166 26.37418 29.289902
32.63683 26.643133 30.865847
32.83357 26.72726 32.697987
32.589596 26.938229 33.217567
32.5269 26.587278 37.38913
32.64907 27.774652 20.006691
32.506924 27.425808 25.84045
32.520283 27.452232 31.203537
32.51641 27.437021 33.55074
32.81782 28.531797 26.8627
32.59488 29.105106 28.084377
32.48437 28.106913 30.975878
33.138355 28.059525 32.84823
32.59537 27.81926 33.6236
32.867825 28.372324 34.48853
32.430946 28.360685 35.799675
32.51102 28.42658 36.56147
32.464317 27.997248 37.378304
33.177654 28.657 38.553642
33.349304 28.76182 39.203575
32.185528 29.58478 18.111542
32.597286 29.586733 30.249767
33.005783 29.41055 30.935204
[...]
POINT_DATA 4780
SCALARS features_00 float 1
LOOKUP_TABLE default
0.5478543 0.56832725 0.57545084 0.51110274 0.59836584 0.5766275 0.6161396 0.55084264 0.45605552 0.6297514 0.6554816 0.6390888 0.53741586 0.4483024 0.6006385 0.6330416 0.6283976 0.52732414 0.556617 0.5303642 0.547348 0.4691548 0.56230974 0.59875655 0.6111727 0.55803156 0.5718714 0.531695 0.5380861 0.553028 0.5663238 0.5447223 0.5319173 0.50448596 0.54771304 0.4738533 0.53652203 0.37723994 0.34075487 0.568886 0.37234968 0.26439887 0.56805927 0.33917338 0.35412115 0.5320442 0.3555721 0.28958523 0.6704922 0.3275959 0.32766098 0.34273082 0.30916706 0.6992022 0.6147551 0.59131634 0.60878336 0.62464666 0.5623623 0.46732146 0.47495073 0.5620154 0.6091407 0.53244716 0.40467405 0.36240652 0.5079546 0.4816628 0.3859142 0.48370194 0.4909994 0.45353854 0.45495278 0.43556917 0.27413353 0.3263778 0.34863907 0.5232177 0.5572417 0.55832386 0.4169743 0.3648788 0.41530752 0.434142 0.39655346 0.35048229 0.5183107 0.5826926 0.55638736 0.4623676 0.39702892 0.38940144 0.46441394 0.4702255 0.41524857 0.3135768 0.51373494 0.41524225 0.35395533 0.32468927 0.47178978 0.4670109 0.39395636 0.5319994 0.47827893 0.5224658 0.5355608 0.28590745 0.39157188 0.23631136 0.2411457 0.22276366 0.34336528 0.1993587 0.18429145 0.60485256 0.61156857 0.59682924 0.16723624 0.42567268 0.15337195 0.61981726 0.61808956 0.60087097 0.49242586 0.4790461 0.42346203 0.35919625 0.21210286 0.1700733 0.58874524 0.59199995 0.5649379 0.68960404 0.61791456 0.14288372 0.23680574 0.2949663 0.6862938 0.6785479 0.44792277 0.23386474 0.14852318 0.26905173 0.26347035 0.35580474 0.5942141 0.61148894 0.56269556 0.39836633 0.25736713 0.26455343 0.37168083 0.5467925 0.4960286 0.4370911 0.5597518 0.59923923 0.39274934 0.41282994 0.41761094 0.5212244 0.6049111 0.6233629 0.61972415 0.45882636 0.47434124 0.48422176 0.43722552 0.19873518 0.17805567 0.36006168 0.50085795 0.61699593 0.65041494 0.6222602 0.29193664 0.20269948 0.17741859 0.4380007 0.57423884 0.5933391 0.56180835 0.42250428 0.20268038 0.1937154 0.15999547 0.41074044 0.4432965 0.48393443 0.4034103 0.40159506 0.25911066 0.40771222 0.28355873 0.17853966 0.08933853 0.48981136 0.2687521 0.14598641 0.4520216 0.34742436 0.296613 0.33535486 0.25272736 0.18346678 0.07887151 0.27682692 0.31441978 0.21622711 0.33187675 0.34311682 0.31016818 0.25460196 0.072287746 0.1305695 0.18412091 0.5504685 0.5119109 0.40027723 0.2715853 0.25247324 0.2791702 0.27639073 0.5498647 0.45585558 0.13297734 0.2176841 0.35149476 0.42523694 0.37487954 0.33779967 0.39699376 0.31672168 0.38948917 0.41683114 0.454687 0.49443412 0.44774196 0.18843853 0.27453727 0.34162033 0.52702725 0.53901696 0.54536927 0.17733702 0.102137305 0.16882174 0.19690351 0.53518593 0.5969393 0.5051974 0.3412549 0.5399202 0.55950516 0.5203515 0.51017404 0.5871829 0.3390932 0.493858 0.47614732 0.42763746 0.5912018 0.4067011 0.39276063 0.47311443 0.48627847 0.3523075 0.40039593 0.44984078 0.45296347 0.45608443 0.47362196 0.45470127 0.34758082 0.26208872 0.2748879 0.38383555 0.46059027 0.49571246 0.41175675 0.40096062 0.46827945 0.48113504 0.30561835 0.41859892 0.5069938 0.5443698 0.38368636 0.34022668 0.30310267 0.24703999 0.15899113 0.13420883 0.2182297 0.48950735 0.5372366 0.5797281 0.57830155 0.35180038 0.32820475 0.3091046 0.3136566 0.3138747 0.18515864 0.20489234 0.2894583 0.23723769 0.19101933 0.15648746 0.12251505 0.30377215 0.4499559 0.6089015 0.5876571 0.3948425 0.16595988 0.21967822 0.14780265 0.14251053 0.26148218 0.5703366 0.42497057 0.24782357 0.10225032 0.30323592 0.03142709 0.083572514 0.11175503 0.13160834 0.29357275 0.2930213 0.35247412 0.35960603 0.41945451 0.37676182 0.4497475 0.29579628 0.07994755 0.08819818 0.1764178 0.21115518 0.30804884 0.42224288 0.35654324 0.09387974 0.024368593 0.043104343 0.04659717 0.01973354 0.04372618 0.03063704 0.022543669 0.042943574 0.510921 0.39490187 0.13550363 0.0492198 0.031505022 0.06763188 0.04074423 0.06858638 0.04824151 0.13654573 0.6014344 0.5412843 0.36767757 0.04777259 -0.002392061 0.15536237 -0.07128462 0.23960817 -0.05140605 0.28748798 0.47455144 0.5083573 0.62691003 0.59212375 0.36478847 0.26320168 0.1276514 -0.27632084 0.22716236 0.24105385 0.19187129 -0.11506578 -0.09227382 0.4704181 0.5235114 0.6393296 0.6061889 0.40165228 0.23959282 0.018034175 0.048898708 0.18143371 0.10818759 0.16385859 -0.1796341 0.4711235 0.5075311 0.707903 0.65853775 0.5767981 0.44987118 0.41237235 0.3220318 0.35673457 0.3274066 0.31710383 0.1911495 -0.16801016 -0.21010722 0.4292636 0.4716957 0.7400265 0.73377275 0.67002285 0.68531287 0.432999 0.3896137 0.2200824 -0.06208881 -0.11827932 0.38085335 0.7485759 0.74121386 0.43730775 0.24430543 0.07413019 0.1283859 0.25700054 0.38363615 0.4495414 0.07060873 0.12701717 0.13378288 0.40572268 0.33720598 0.31880522 0.3655854 0.33043098 0.033725716 0.014170922 0.38112447 0.3467203 -0.00428015 0.49111283 0.43071258 0.2843455 0.22378701 0.17277731 0.22431174 0.3664981 0.48768723 0.5267209 0.5106878 0.36151987 0.31968293 0.48395354 0.5494957 0.56621605 0.517975 0.4577999 0.3410071 0.44906265 0.2835295 0.17964312 0.28668338 0.3979345 0.52941537 0.31004086 0.15396509 0.5377341 0.27792004 0.25449172 0.23422061 0.21758695 0.076481566 0.10429981 0.52063 0.3262816 0.3679937 0.4413445 0.33960325 0.48764318 0.5314304 0.43848023 0.46886373 0.49310124 0.5379957 0.46690577 0.47620007 0.07257114 0.0420058 0.21644029 -0.12562671 0.018283099 0.45975202 0.50882876 0.5006872 0.51147187 0.16605626 0.0077459943 -0.11943642 -0.1017665 -0.07245436 0.15703948 0.20465094 0.38416272 0.4846826 0.11125027 -0.08037787 -0.009582575 0.0052302033 -0.021489426 -0.17196989 -0.06473385 0.48381522 0.5120317 0.5938784 0.6275919 0.0013272241 -0.006647408 -0.03741754 0.49800187 0.5368351 0.59886354 -0.31841138 0.10647194 -0.057404682 -0.07068729 -0.1235362 0.53960055 0.62392974 -0.08666891 0.029936023 -0.1702316 -0.12102142 -0.13043557 -0.23504353 0.51730543 0.5202365 0.6921206 0.45912325 0.24697429 -0.14598835 -0.26039028 -0.4305884 -0.14328334 -0.14404175 -0.18007757 0.47853148 0.7327017 0.6133045 -0.20147534 -0.13132042 0.38222158 0.42657486 0.74494123 0.7426144 0.7229911 0.7048162 -0.008949546 0.18636662 0.2794819 0.28808665 -0.34668434 0.38775766 0.2923386 0.23610266 0.37598437 0.42799357 0.39174265 0.3743586 0.20751333 -0.014160339 0.0006933734 -0.00898695 0.44591978 0.37776268 0.42916936 0.43712237 0.41581917 0.35933262 -0.02699266 0.002657123 0.13635543 0.08673178 0.059235577 0.11733685 0.37696767 0.48268452 0.529477 0.4940182 0.4803669 0.50038 0.5013412 0.1317099 0.16113707 0.5475278 0.54698 0.67855215 0.7392149 0.69670415 0.58803374 0.6865572 0.6733821 0.5768448 0.51399446 0.49062508 0.6385137 0.59799355 0.50279605 0.44190863 0.31828678 0.28237468 0.50503147 0.5251993 0.50079477 0.6021688 0.5316506 0.41385174 0.32881 0.24301884 0.46497214 0.5167688 0.5045053 0.42914563 0.27651417 0.31178162 0.29642928 0.36230475 0.29071116 0.25464305 0.22513607 0.21777128 0.3728584 0.14291108 0.17926806 0.21093568 0.399327 0.23110813 0.21775173 0.23088515 0.23050493 0.05376765 0.43165648 0.47074354 0.20651972 0.1955939 0.14344764 0.20816943 0.48418126 0.47150308 0.42076463 0.38430828 0.22885123 0.3998608 0.4164136 0.43101722 0.32196927 0.17708531 0.15830624 0.46773505 0.5003494 0.4075547 0.30165583 0.54681176 0.4733916 0.32824594 0.5719766 0.52963054 0.50722134 0.5619471 0.47141 0.519105 0.5428465 0.54553837 0.4516992 0.5331793 0.577016 0.5098677 0.5898525 -0.4013401 0.42451796 0.4227105 0.70980114 0.37293416 0.72284466 0.7076942 0.61740977 -0.14230457 -0.3985737 -0.45866156 0.06404854 0.2338787 0.6754439 0.6537597 -0.07474312 0.02645126 0.023097131 0.21114956 0.14424422 0.06232924 0.40396023 0.2270002 0.4837066 0.4506568 0.36706847 0.32382578 0.46689245 0.46119362 0.09250874 -0.014488649 -0.0154313 0.029527456 0.18610635 0.27050704 0.44947797 0.47232378 0.3951931 0.50678843 0.5189354 0.54445827 0.14172041 0.2289222 0.19586843 0.21248676 0.584519 0.57545865 0.59352696 0.60106885 0.30552292 0.31100386 0.7767514 0.7970154 0.812413 0.8191813 0.7197696 0.7010644 0.6503379 0.7700863 0.7758908 0.5981437 0.6323973 0.5426745 0.71367913 0.71280473 0.43998572 0.42176473 0.6873246 0.6825246 0.46630257 0.46117446 0.6566175 0.23672767 0.26662323 0.29868537 0.36075088 0.42460835 0.2842798 0.37892592 0.3827847 0.38046306 0.26141325 0.27786154 0.27200803 0.16848965 0.3583598 0.21764189 0.24606025 0.21416514 -0.21772856 0.1702914 0.5551463 0.53576756 0.590345 0.52619666 0.07004072 0.39793092 0.35668606 0.58025074 0.53161025 0.03921369 -0.24080427 -0.32582378 0.45206845 0.6803657 0.6037495 0.48528016 0.7854166 0.522352 0.740801 0.43123704 0.3098339 0.1773194 0.2729174 0.3558517 0.49368674 0.37813342 0.49857697 0.48024967 0.45284927 0.40786323 0.5327966 0.3411032 0.6678519 0.24862635 0.63777554 0.5200427 0.30620745 0.12771925 -0.1252509 0.1449255 0.2255556 0.15040275 0.16447762 0.4738236 0.0874289 0.1803357 0.58392465 0.5404484 0.08761599 0.19653323 0.6285347 0.19152513 0.5956956 0.5711393 0.4412155 0.26269943 0.63426244 0.6514325 0.6484497 0.5785717 0.41610768 0.34419623 0.36028925 0.3771021 0.3446278 0.30436933 0.36900324 0.86623216 0.8096665 0.7684797 0.7977495 0.82441854 0.7330656 0.7230503 0.7680743 0.64279896 0.6106374 0.7143747 0.73869985 0.5425335 0.6826868 0.323168 0.32379246 0.41631418 0.30895352 0.24116102 0.29670808 0.24356043 0.19348022 0.3536464 0.30567676 0.36075407 0.40889588 0.4329127 0.4253243 0.2888068 0.16142358 0.36830395 0.34356984 0.28408873 0.59487945 -0.18657747 0.2361699 0.22457683 0.6154186 0.20986314 0.6204895 0.6015684 0.17114867 0.69206965 0.3367973 0.8039124 0.31068328 0.8552908 0.74932355 0.3284143 0.2526769 0.048047803 0.14548658 0.26941395 0.21673176 0.30938694 0.32377645 0.30419108 0.43769598 0.019792065 0.60764194 0.27832058 0.23519385 0.11072213 0.044175137 -0.06384422 0.20139432 0.20479777 0.5281611 0.44116217 0.1385507 0.18365687 0.57260776 -0.04516805 -0.18243337 0.08470224 0.66907525 0.6596632 0.098846726 0.1659875 0.64870083 0.671943 0.33440062 0.07954444 0.17175263 0.11542727 0.6417798 0.64780164 0.59173524 0.48296192 0.34362954 0.35927823 0.38827455 0.33173078 0.39043218 0.38522923 0.37250492 0.355904 0.8471942 0.81259227 0.786048 0.78098667 0.80328757 0.8439251 0.7619932 0.7288566 0.751503 0.67179316 0.5952723 0.7114802 0.42042443 0.66291356 0.2765936 0.35027498 0.38423604 0.37557656 0.33392686 0.41361123 0.6214665 0.27533874 0.23095563 0.32057744 0.2558337 -0.10693876 -0.12097122 0.33210653 0.40374476 0.4329787 0.42143545 0.38595518 0.5777523 0.015029453 0.11365995 0.34865212 0.29664487 0.6180731 0.5795137 -0.069193654 0.27240875 0.2515242 0.6201644 0.23378986 0.64036536 0.6327951 0.25636396 0.7468098 0.20362978 0.8367163 0.17680989 0.85359377 0.16628592 0.7937712 0.6368496 0.14880422 -0.49270603 -0.110150486 -0.34268028 -0.058956012 -0.03369668 -0.1459502 -0.029529214 -0.04001452 0.045169055 0.073742 0.20785189 0.03862776 0.17649348 0.05156891 0.06873709 -0.03127218 0.13857564 0.16398588 0.19187635 0.5371885 0.11418505 0.12528707 0.647783 0.08011452 0.08484113 0.6957296 0.17084825 0.2782734 0.7053777 0.52969074 0.26993215 0.19868587 0.043455437 0.0062876865 0.16047223 0.31787255 0.35894096 0.5459258 0.50538677 0.46320364 0.3610495 0.24303502 0.25319126 0.21796717 0.37877062 0.80288994 0.7792686 0.78867674 0.76232016 0.7137328 0.6973309 0.7101853 0.6243894 0.71793 0.6618664 0.62502295 0.62066597 0.6623565 0.49441588 0.5593438 0.40502566 0.38648784 0.51440823 0.31482774 0.27893296 0.061100796 0.2349981 0.26267368 0.32334685 0.40208814 0.37287343 0.32859015 0.31826857 0.20793474 0.17570461 -0.13043451 -0.11334154 0.3376618 0.39170188 0.37346 0.17351115 -0.04856717 0.31270912 0.273339 0.5617393 0.014888771 0.25964728 0.57954234 0.4872634 0.2941642 0.29825985 0.5947503 0.2948476 0.6856141 0.54949224 0.2577353 0.7725109 0.6216017 0.14109348 0.7182963 0.59934264 0.71796083 -0.2173549 0.06145589 -0.1970222 -0.078162126 0.15431982 0.107836604 -0.17424858 -0.047119245 -0.008837998 0.16389404 0.01006113 0.19187358 0.13562101 0.1642137 0.14225328 0.17272079 0.18483047 0.04903052 0.21442243 0.25134674 0.049890846 0.3454451 0.3271756 0.09149758 0.025342824 0.39872268 0.42504507 0.4443971 0.54403853 0.37626696 0.091589905 0.37604034 0.45735848 0.5554214 0.0601502 0.058359377 0.65667176 0.5456381 0.26707408 0.18436633 0.5079998 0.35177687 0.2439223 0.28749576 0.16340818 0.06144114 0.34483412 0.35586548 0.31588972 0.7338164 0.80381 0.12516029 0.118988015 0.13505569 0.28875953 0.34351715 0.81455904 0.82016146 0.86463696 0.25972503 0.87793005 0.9011378 0.9111341 0.90306306 0.59104466 0.6436764 0.5104295 0.49535888 0.55996215 0.48532733 0.5334482 0.38904685 0.40874943 0.36391586 0.29089192 0.32574973 0.19977847 0.2093945 0.30552807 0.34909657 0.35649696 0.32129693 0.21398039 0.14254126 0.11138459 -0.17035404 0.24498487 0.32534435 -0.074453086 -0.011396676 0.27909052 -0.10558523 0.20162952 0.23021494 0.31356555 0.33233592 0.46231568 0.39369327 0.18245178 0.3209582 0.40217465 0.28271142 0.59891737 0.35413402 0.088544525 0.6416236 -0.1106225 -0.5228935 -0.16273408 -0.08011432 -0.06012652 -0.04843344 0.46229902 0.24662387 0.2275313 -0.039736584 -0.040322162 0.36720765 0.43327752 0.4608935 0.07954509 0.4167531 0.42277908 0.29898024 0.11806052 0.4808089 0.12800635 0.10490092 0.5100116 0.48481733 0.14813228 0.571348 0.5957665 0.53883904 0.08564846 0.018718243 0.18410431 0.6050714 0.60097796 0.56026876 0.41657308 0.31762612 0.28553134 0.5827759 0.35817063 0.1455526 0.44517243 0.42161292 0.25961733 0.22418515 0.4542582 0.48092848 0.47381443 0.45921522 0.44756645 0.22635847 0.12717763 0.03190489 0.5243849 0.3928483 0.3893252 0.22437458 0.18553464 0.11848962 0.07720656 -0.077478305 0.22095823 0.5978931 0.55136925 0.5522801 0.60603976 0.15413874 0.12341373 -0.049032 -0.11513828 0.34014785 0.30021578 0.6509799 0.65709585 0.8160504 -0.04892621 0.0720636 0.25695992 0.33687297 0.7743983 0.8398508 0.5344589 0.43658328 0.84187365 0.8727734 0.9092592 0.86968017 0.88968813 0.90131783 0.88204545 0.31328833 0.37429672 0.40615726 0.37700677 0.6784321 0.2582313 0.2550327 0.14230978 0.24036485 0.25713593 0.3423324 0.30297756 0.5463239 0.61176735 0.5886216 0.10130786 0.14515118 -0.23511434 -0.16794056 0.46242815 0.22773156 -0.027593933 -0.05464907 0.1594602 -0.13173026 -0.055228278 0.082871035 0.20297962 -0.035257295 0.17854849 0.32047796 -0.06723049 0.3045233 0.14818254 0.18012625 -0.15674494 -0.21004239 -0.17694212 -0.081384376 -0.07207634 -0.00985384 0.43553898 0.4750558 0.4546277 0.2783837 0.27267987 -0.00864955 0.29208633 0.44752932 0.5004784 0.52273977 0.26304772 0.23867948 0.50435734 0.5139965 0.48397914 0.2679906 0.2750252 0.46028474 0.47103858 0.39973444 -0.076600276 0.30119053 0.23095162 0.49645594 0.482972 0.016961426 -0.089989066 -0.018657707 0.5118171 0.51321113 0.07437088 0.52450573 0.54954255 0.14936596 0.10951009 0.14569537 0.5828078 0.17034397 0.28731665 0.2245117 0.5970247 0.59203434 0.54776347 0.29334715 0.17086466 0.14611953 0.07226491 0.37977928 0.56229895 0.22562598 0.13600618 0.21979573 0.3013183 0.08764418 0.048299655 0.17946869 0.38159364 0.4478737 0.47829163 0.44889098 0.22838122 0.3838201 -0.15373823 -0.023832023 0.48923546 0.47636002 0.50958955 0.3675393 -0.07649131 -0.22303435 0.19663587 0.14036691 0.5482161 0.37289974 -0.12534384 0.30652964 0.27537835 0.60228354 0.44007313 0.27004564 0.22906817 0.29004127 0.3224128 0.78676116 0.4575588 0.5573505 0.4979095 0.36597914 0.8303338 0.8107356 0.7414289 0.6314688 0.6321347 0.5778766 0.8570558 0.85826766 0.857298 0.8218254 0.8271567 0.83266544 0.85353255 0.8362044 0.7808026 0.36001107 0.3765188 0.33486974 0.6328144 0.759185 0.77171457 0.7182344 0.608359 0.22844511 0.19020054 0.10904308 0.17519967 0.2400608 0.29437473 0.24447474 0.62637997 0.5658693 0.5549548 0.1781081 0.2452625 -0.21554917 -0.19554245 0.2512124 0.10006954 0.17749424 -0.20448127 0.050694507 0.0007882551 -0.045683585 -0.061001778 -0.29906353 -0.06854361 0.22641826 -0.12433982 0.05053334 0.030999906 -0.056169387 -0.2596577 -0.21022356 0.40055874 0.39075646 0.4239368 0.45635134 0.29624164 0.18207735 -0.06971613 0.24315342 0.31711867 0.4173023 0.3448208 0.34002995 0.429635 0.29590356 0.29948306 0.40444148 0.29659235 0.2897426 0.3717902 0.3893465 0.40447846 0.32698226 0.46461934 0.43189108 0.49188703 0.2344872 0.27294627 0.5026305 0.48871017 0.31948936 0.42251182 0.51719546 0.5190703 -0.037931725 -0.22098446 0.22032619 0.37522593 0.50077546 0.5546203 0.08512061 0.0004898887 -0.081141196 0.2134584 0.43302876 0.49776644 0.55261046 -0.11391436 0.21490796 0.39104852 0.45012853 0.42783278 0.38148737 0.07195181 -0.0067972094 0.43823534 0.3705371 0.050384745 0.47634625 0.36713243 -0.023521408 0.06662837 0.25361758 0.24635825 0.5539747 0.3991436 0.418897 0.22012164 0.30658215 0.09987736 0.1690882 0.5779834 0.54080296 0.486996 0.4403712 0.29721236 0.74825835 0.6718126 0.5607024 0.63484764 0.63990104 0.5386084 0.7917206 0.7889335 0.76822156 0.75469846 0.78439105 0.7861413 0.77463436 0.77411795 0.84905636 0.8619045 0.793821 0.67668724 0.7236715 0.62447894 0.1395792 0.19645993 0.31135035 0.11637851 0.27487585 0.44619283 0.34977034 0.09646489 -0.0023839157 -0.07059692 -0.12947562 0.23761751 0.14517643 0.07588783 0.07694758 0.017318621 0.068428785 -0.03999938 -0.25984508 -0.34314626 -0.2551628 0.044943824 0.15419841 -0.36629942 0.1700776 0.27081287 0.06427114 -0.019519925 0.13772604 0.20472038 0.26135927 0.00032781065 -0.023959912 0.15637709 -0.021140028 -0.10803024 0.3826339 0.43617696 0.5348398 0.553182 0.58140326 -0.2021334 -0.16410205 0.2605367 0.43962848 0.5096668 0.5574505 0.35109586 0.052520365 0.4273177 0.4467277 0.5261622 0.35915512 0.29756403 0.33787978 0.30836815 0.31457445 0.30566424 0.2733795 0.34026855 0.23868346 0.37852046 0.44649267 0.41414636 0.25250897 0.36902064 -0.37553 -0.06892651 0.4423529 0.48474976 0.4626295 0.02518183 0.059002485 0.52677697 0.5056014 0.46512568 0.19800097 0.023457542 0.3056271 0.22558951 0.41731626 0.48660767 0.5258577 0.52947664 0.10020402 -0.425651 -0.24437514 0.06405355 0.37723807 0.47378004 0.50551903 0.20495999 0.39128 0.13766678 0.16315296 -0.23449683 0.3434229 0.17306516 0.3909475 0.16443633 0.1331642 0.107093126 0.40174884 0.39055753 0.064363025 0.13000485 0.45529553 0.44724727 0.3079901 0.14087464 0.03869734 0.52232647 0.5192551 0.391436 0.4609728 0.533353 0.4105365 0.23894507 0.6362026 0.7208667 0.6028717 0.58897364 0.47965205 0.7834691 0.8041112 0.7918934 0.7745822 0.79062605 0.7932246 0.75275505 0.760538 0.7824818 0.7741126 0.3873956 0.40676638 0.6559308 0.6736607 0.67480516 0.25629935 0.21563609 0.096314296 0.21571144 0.4949341 -0.09496238 -0.11203225 0.28402117 0.22533472 0.33394018 0.3211019 0.08882023 0.03163071 -0.14458461 -0.14943819 0.13311407 0.099000566 0.5058214 0.4190302 0.2528086 0.27589244 0.07560113 0.08713247 0.085011125 0.581159 0.50584996 0.33068994 0.19350575 0.05829957 -0.25350365 -0.3284709 0.17450607 0.36193752 0.5746866 0.51963514 0.12157579 0.33688015 0.37778205 0.48772734 0.1321806 0.34932384 -0.011623865 0.24566746 0.58909166 0.59451973 0.58177614 0.049564365 -0.1621118 0.24741825 0.38474494 0.5832375 0.5902054 0.5918541 0.085760936 -0.17632794 0.2654858 0.5781098 0.6006412 0.41124994 0.54523194 0.57843614 0.38605064 0.49283275 0.35164225 0.42411262 0.3034786 0.31942448 0.30709752 -0.032393906 0.30886126 0.30839682 0.24803594 0.2642331 0.35810742 0.4091149 0.39447403 -0.080837876 0.06478682 0.19037202 0.48094863 0.43098745 0.39074188 0.23480555 0.24336 0.17711797 0.109641224 0.5113771 0.5035566 0.32367036 0.21523768 0.24559806 0.35761222 0.446478 0.47794777 0.19334483 0.33590835 0.1448799 0.07261965 -0.15233961 0.4294569 0.47032833 0.21724781 0.41404206 0.15599437 0.13745578 -0.004268106 0.34809482 0.391963 0.49964458 0.49528524 0.30532733 0.43254423 0.120103344 0.10950387 0.13179319 0.039549995 -0.051167484 0.42863172 0.50512856 0.53348625 0.5413306 0.42010933 0.43978694 0.27545816 0.01940139 0.5275842 0.58623314 0.649878 0.3838699 0.4517693 0.43306154 0.42283362 0.34802634 0.27264762 0.68142927 0.7131181 0.775