# vtk DataFile Version 2.0
Really cool data
ASCII
DATASET POLYDATA
POINTS 5809 float
17.416412 41.014645 25.770966
17.352112 41.585617 25.505924
17.409737 41.4507 26.114733
17.397558 42.14681 25.100323
17.3257 42.379684 25.641008
17.400316 42.28766 26.122889
17.383755 42.919174 25.642069
18.209051 40.23808 24.95462
18.004099 40.333282 25.470276
18.081951 40.370804 25.894644
17.947203 40.701656 24.85247
17.671614 40.71831 25.58268
17.819489 40.831837 26.277199
18.080484 41.153225 24.204096
17.682018 41.410225 24.751923
17.641333 41.286976 26.39516
17.833931 41.461372 26.674585
17.583145 42.496315 24.727026
17.652573 42.720757 26.498827
18.056768 42.37594 26.904987
18.129107 43.420998 24.086716
17.803638 43.315647 24.733294
17.524818 43.347645 25.450697
17.597637 42.958797 26.230627
18.334831 43.85238 26.836948
18.310963 44.52345 24.084219
18.061651 44.491318 24.792204
18.053242 44.41938 25.398962
18.377682 44.770153 26.276009
18.345251 44.878918 24.392275
18.305561 45.0343 25.476809
18.379698 44.965153 25.974583
19.144835 39.840576 23.998978
18.81091 39.80557 24.629875
19.130648 39.421062 25.128765
18.485838 40.155037 25.94874
19.189661 40.75481 23.333355
18.727074 40.707497 23.864265
19.189045 41.76087 23.230955
18.599773 41.575184 23.712849
18.607147 41.375866 26.990936
19.076849 42.77567 23.19282
18.419437 42.268524 23.713942
19.039347 43.9264 23.361906
18.60218 43.70835 23.54578
18.47254 43.56561 27.025394
18.669024 44.28559 23.592924
18.99487 44.45303 27.310015
18.960546 45.290386 23.913153
18.592167 45.31296 24.504467
18.518635 45.349678 25.686926
18.69047 45.534912 26.031963
18.876457 45.098335 26.956478
19.096977 45.793823 24.436611
19.044258 46.022522 25.584505
19.10961 45.992767 26.415964
19.222445 45.860073 26.97991
19.797686 39.27945 24.063646
19.57646 39.213295 24.457531
19.640493 39.043842 25.155817
20.094664 38.97027 26.543049
20.356241 39.138767 27.406527
19.658506 39.605553 23.751707
19.727419 39.615726 26.397608
20.31152 39.451336 27.732727
19.79633 40.745514 23.08578
19.458492 40.30083 23.473476
19.370134 41.047775 27.103865
19.768957 41.623287 22.84758
20.383755 42.13778 28.605827
19.501955 42.334736 22.984232
20.1822 42.954414 33.898987
20.142534 42.776924 34.478638
20.106316 43.075684 35.184048
19.861828 43.165268 22.95599
19.982914 43.17218 27.954897
20.198326 43.74918 29.161228
20.140362 43.35091 33.761772
19.956879 43.484226 34.430897
20.115606 43.541206 35.28866
19.582212 44.667057 23.169943
19.533127 44.507324 28.015036
20.220787 44.16686 29.10398
20.119904 44.144745 33.877937
20.050537 44.713295 34.354042
20.13435 44.37309 35.341118
19.624178 45.059685 23.28556
19.643671 45.429043 23.47028
19.587505 45.74567 27.434238
19.646563 45.29028 27.774202
20.32263 45.398266 33.730247
20.199259 45.530823 34.423225
20.300993 45.46258 35.274166
19.732407 45.88618 23.929321
19.641994 46.20846 24.692923
19.645908 46.454582 25.37852
19.522995 46.409897 26.444048
19.503145 46.13054 26.98946
20.115055 45.989784 27.833311
20.32307 45.81658 34.02677
20.278809 45.90955 34.384388
20.423876 45.855026 34.988335
19.730516 46.609398 25.802568
19.933662 46.703915 26.278708
20.12965 46.62477 27.078804
21.175346 38.036545 26.501194
21.061874 38.162086 27.348545
21.17536 38.244854 27.880743
20.537508 39.237766 23.851406
20.541498 38.820892 24.895016
20.56238 38.724743 25.634665
20.69072 38.501442 27.287254
20.983616 38.651485 28.086258
21.077383 39.912506 22.89879
20.522135 39.627777 23.449945
20.576473 39.625797 28.116613
21.225698 39.789803 29.02356
20.905394 40.889286 22.389456
20.749613 40.570778 22.770937
20.597118 40.357876 28.450583
21.310272 40.719296 29.657686
21.124075 41.276203 22.097868
20.406328 41.547894 27.680546
21.045467 42.08444 33.46093
20.878082 42.0588 34.55571
20.989288 42.146942 35.13601
21.25237 42.6634 21.714933
21.036259 42.62069 30.344072
20.573132 42.568584 35.346386
20.726934 42.963158 35.939987
20.912016 43.60081 22.296185
21.280365 43.109882 30.955107
20.78747 43.557503 32.7764
20.845959 43.607025 36.140717
20.49623 44.265564 22.916952
20.538893 43.91977 29.718206
20.918358 44.166378 30.07797
20.426453 44.246677 33.341103
20.713318 44.43614 36.08384
20.395744 45.195477 23.161177
20.482307 45.64395 23.452295
20.524704 45.019573 33.21717
20.505308 45.54306 35.64201
20.717825 45.29892 36.089195
20.267986 46.01422 23.84814
20.335543 46.320988 24.488024
20.285414 46.479733 27.304869
20.886696 46.228294 28.273384
20.877184 46.1469 33.633274
20.637554 46.270287 34.43493
20.791746 46.155415 35.368576
20.450937 46.751614 25.840456
20.518023 46.7974 26.224617
20.454113 46.609154 27.079073
21.227375 46.742157 35.03869
21.52209 38.310787 25.500826
21.61072 37.871933 26.647974
21.696545 37.846855 27.43566
21.70236 38.11573 28.07859
21.970427 39.319256 23.774784
21.29412 39.184986 24.255877
22.004543 38.599022 28.584488
22.0754 40.035873 22.23433
21.447292 39.915066 23.145725
22.047314 39.594185 29.308357
22.218752 40.142357 30.515743
21.929905 40.707108 21.699371
22.002987 40.352688 30.404734
22.044516 41.422184 33.447742
22.243706 41.399666 21.124302
22.066483 41.18519 21.389915
21.666195 41.18565 30.496424
21.780863 41.832268 32.763165
21.689274 41.6011 33.62086
21.727938 41.665417 34.331654
21.901472 41.79277 35.02463
21.814804 42.11062 21.295774
21.64775 42.836582 21.389349
21.54501 42.415085 31.350624
21.571077 42.685074 36.14863
21.710014 43.27256 21.637644
21.344427 44.32503 30.122469
21.823662 44.510048 32.01197
21.579002 45.235275 23.33115
21.885834 44.76205 32.08962
21.25736 46.162098 24.360975
21.394873 46.531895 28.312775
21.774822 46.377323 28.969645
21.488935 46.163517 33.061096
21.425068 46.716866 25.467642
21.561182 46.938667 26.578615
21.45998 46.849976 27.458296
21.872938 46.78692 28.26508
21.94317 46.6438 28.832363
21.599728 46.74303 33.757687
21.759289 46.959732 34.2354
21.567726 46.828663 35.210194
22.230423 50.0499 41.588055
22.356709 50.230976 42.916656
22.01433 50.85056 41.61318
22.086288 50.602554 42.51577
22.254578 50.57179 43.094242
22.273525 51.328865 40.951668
22.077473 51.492226 41.62048
22.03267 51.293037 42.582336
22.214842 51.41442 43.00864
22.354979 52.068207 41.104492
22.320398 52.114098 41.493866
22.234766 52.035725 42.361847
22.37266 51.844482 43.02757
22.893002 38.113148 24.929893
22.620268 37.933933 25.570686
22.795494 37.60611 26.677074
22.581259 37.7048 27.393848
22.167437 38.099922 28.202047
22.569054 38.92394 24.58005
22.442665 39.316425 29.351952
22.702429 40.025852 21.877705
22.478323 39.59363 22.819937
22.356628 39.649742 29.700607
22.729925 39.950996 31.315393
23.162079 40.218323 32.179157
22.792934 40.829327 21.075474
22.476543 40.43738 21.442982
22.51898 40.971596 32.535713
22.443136 41.229073 33.295555
22.399488 41.434612 34.194664
23.13069 41.271076 40.91122
23.129377 41.327972 41.43289
22.846588 41.719147 20.68177
22.47483 41.565388 34.670372
22.189625 41.89545 35.367287
22.361353 42.33004 35.969257
22.843298 41.683987 40.829224
22.776062 41.68882 41.515476
22.97314 41.78859 42.033447
23.22541 42.439636 20.351292
22.382446 42.190235 20.879515
22.874012 42.713005 36.338856
23.14229 42.665565 39.854877
22.859274 42.841625 40.24766
22.584215 42.177956 41.506702
22.850967 42.52639 42.275547
22.65011 43.46075 21.184704
22.446283 43.643402 21.510996
22.582397 43.517525 41.624302
22.845201 43.467197 42.353752
23.096565 43.596294 42.883244
22.86832 43.79238 21.18777
22.91647 43.856792 21.49538
22.711021 44.44792 36.86996
23.26986 44.460697 40.147305
22.770842 44.070656 41.026196
22.72316 44.208504 41.50232
22.79823 44.283787 42.31823
23.137445 44.31789 42.89462
21.942686 45.01578 23.360762
22.86847 44.782036 23.34177
22.541847 45.38916 31.793932
23.113203 45.745296 41.265293
22.929537 45.982197 24.342896
22.534105 46.60185 29.25753
22.865616 46.29716 30.14962
22.635834 46.74167 37.49773
22.890572 46.864193 38.681572
22.979107 46.421635 40.01386
23.06997 46.388847 41.2425
23.362642 46.697437 41.762604
22.722738 47.049538 27.029942
22.229937 46.93825 28.448816
23.17577 46.659954 29.65528
22.58642 47.16151 33.468758
22.522146 47.620052 34.889023
22.54461 47.867565 37.77192
22.540823 47.770016 38.382732
22.809443 47.944897 39.595833
22.952766 47.97941 41.686794
22.90606 48.282536 36.820965
22.826403 48.585617 37.70482
22.808636 48.581482 39.731304
22.892303 48.228065 40.443623
22.700857 48.70684 41.177826
22.960217 49.101334 42.7449
23.366148 49.490566 35.69984
23.299286 49.217743 36.258934
23.263727 49.33346 36.96906
22.670002 49.188675 40.970345
22.534191 49.214363 41.440956
22.565279 49.367615 42.25223
22.580582 50.09131 43.175537
22.876074 50.907475 40.239635
22.552156 50.334526 40.68558
22.628277 50.55616 43.468548
22.798689 50.74995 43.689114
22.818268 51.420856 40.39691
22.65749 51.699417 40.57609
22.427732 51.544617 43.269085
22.755955 51.532524 43.620205
22.857407 52.15388 40.821335
22.580164 52.453403 41.63797
22.592445 52.50222 42.423603
22.910559 52.37958 43.19857
22.972132 51.84475 43.601326
22.923687 52.62378 41.16046
22.94293 52.806335 41.883904
22.936806 52.849625 42.325825
23.05173 52.735504 42.91086
23.786985 37.40743 26.430717
23.531015 37.999413 24.875671
23.546038 37.659588 25.628475
23.593714 37.652504 27.395884
23.492268 38.071655 28.282381
23.520994 38.487072 24.394382
23.794939 39.23329 30.776531
23.791359 40.065422 21.640675
23.64778 39.548603 23.110405
23.536694 39.5694 23.580189
23.60818 39.482628 31.306232
23.474838 40.1995 32.186802
23.930367 41.12548 20.365217
23.70064 40.78234 20.773314
23.25343 41.25402 33.963036
23.762157 41.23547 39.92133
23.644127 41.101776 40.742752
23.545197 41.120407 41.386547
23.541325 41.283737 41.88717
23.868979 41.336147 20.339926
23.506779 41.529263 34.596478
23.176786 42.174194 35.482418
23.906874 41.679527 39.25751
23.75998 41.501717 39.693676
23.473866 41.643097 42.26257
23.766449 42.003273 42.618988
23.627363 42.554634 20.258844
23.579916 42.77269 42.907326
23.86232 43.183865 20.272655
23.57165 43.894634 37.324673
23.50101 43.091667 39.244526
23.593887 43.535786 43.157997
[...]
POINT_DATA 5809
SCALARS features_00 float 1
LOOKUP_TABLE default
0.64705896 0.64677024 0.6482356 0.63119006 0.62374413 0.6194751 0.5822642 0.57263184 0.5920831 0.581807 0.6049983 0.6316046 0.6179013 0.5741751 0.6355939 0.633965 0.6092994 0.60284245 0.5602973 0.5311348 0.523049 0.5604247 0.5518472 0.55327034 0.4007418 0.5739087 0.55388707 0.5155231 0.45173615 0.5869669 0.5266334 0.4828408 0.4917493 0.5226214 0.47206777 0.5275365 0.41152412 0.49811435 0.3587612 0.45464867 0.4985339 0.362149 0.45331377 0.46537915 0.48252934 0.3766104 0.53440833 0.34638584 0.58406126 0.59647876 0.52237105 0.5006549 0.42270535 0.59101903 0.5411308 0.4825599 0.45048612 0.43607786 0.4552433 0.44155055 0.40385342 0.36866564 0.4417818 0.3896122 0.32227677 0.35892802 0.42532456 0.3109952 0.30435002 0.104500204 0.30688304 0.6443801 0.6843325 0.69670457 0.2980031 0.20290136 0.20751196 0.60333294 0.645692 0.6740807 0.4806884 0.2832383 0.21936437 0.5668317 0.559438 0.6085254 0.51042753 0.5313375 0.4144628 0.36873585 0.50862545 0.5204279 0.52558213 0.5462531 0.566682 0.54043853 0.4722703 0.44535446 0.36250716 0.49973628 0.5028935 0.50732785 0.50613886 0.46025157 0.4005242 0.4429496 0.4391153 0.41545957 0.36236763 0.38725108 0.41553608 0.41987866 0.37553966 0.30422252 0.35997957 0.2943861 0.23563784 0.2906725 0.30924746 0.19925667 0.1302267 0.2942653 0.100634426 0.47220486 0.5716177 0.5947126 0.30237657 0.08665412 0.6782392 0.6837752 0.22833343 0.043866977 0.4529282 0.658352 0.34767532 0.21464789 0.21877408 0.5099095 0.595917 0.4385988 0.45438498 0.48182034 0.5144655 0.50625306 0.4955138 0.5141903 0.38013053 0.25330192 0.44488934 0.47505507 0.47819033 0.45907557 0.42292675 0.37614027 0.435351 0.37645835 0.46517724 0.46309912 0.42548516 0.20772189 0.28652367 0.36866224 0.30828312 0.28240263 0.21727994 0.15289533 0.33938652 0.14851885 0.3076804 0.39385766 0.36858958 0.11588059 0.25956172 0.35602152 0.4119932 0.44471145 0.36701334 0.33720338 0.077562 0.5847094 0.2906198 0.18197738 0.25829658 0.2904001 0.26576167 0.38041648 0.20852195 0.10886608 0.3428376 0.39987877 0.28533775 0.24490242 0.15505935 0.11096715 0.356488 0.35642147 0.39276844 0.5494162 0.58046556 0.715644 0.6409663 0.6221324 0.73114896 0.7763356 0.7211293 0.69731414 0.75094885 0.7690354 0.7572603 0.7097763 0.3460154 0.42921388 0.51059484 0.48146126 0.4293209 0.21780574 0.23457806 0.36819258 0.25305802 0.18324354 0.11800446 0.0831003 0.43137586 0.3870173 0.13349634 0.25101018 0.3403813 0.77770686 0.7852229 0.44811234 0.3703112 0.435442 0.4442289 0.777057 0.7859307 0.7926435 0.45380175 0.40892884 0.38125312 0.7182518 0.7209006 0.8068354 0.8095256 0.34401906 0.27996108 0.7008413 0.74915564 0.7336924 0.30287838 0.24313138 0.3823151 0.41916493 0.5110724 0.5115823 0.5934522 0.6456679 0.20587121 -0.0037593246 0.023485668 0.24268198 -0.08665343 0.030931287 -0.0707799 0.1481751 0.12976082 0.11940115 0.1875833 0.23516193 0.07423192 0.09978415 -0.045245282 0.13425383 0.17959417 0.18818082 0.16795038 0.09466608 0.19178109 0.18703756 0.24875762 0.15421815 0.101714134 0.22620937 0.39059496 0.37648594 0.33239207 0.33735266 0.30790836 0.36526898 0.44975713 0.5392504 0.6596323 0.6090058 0.5777 0.5723462 0.6913697 0.7115991 0.6833651 0.63454247 0.7225709 0.76158214 0.74267995 0.68609595 0.6264913 0.736053 0.7409433 0.7327544 0.7073252 0.5291915 0.4050684 0.49858215 0.46713728 0.387098 0.28049096 0.15871838 0.40198165 0.2039094 0.16739835 0.13839623 0.09058988 0.46426868 0.46076596 0.24713254 0.7703564 0.7755213 0.780221 0.7813647 0.4665775 0.29521424 0.3467042 0.7332921 0.7650714 0.7825464 0.76262355 0.4597091 0.757389 0.40512916 0.29535472 0.6184372 0.70861137 0.29353696 0.6474588 -0.027659997 0.543197 0.116401196 -0.14380479 -0.19547479 0.28909442 0.48175347 0.41554436 0.056907 0.044357028 0.089601584 0.05663661 -0.21431386 -0.10750844 0.231971 0.5962452 0.08365522 0.101050794 0.123930484 0.013846578 0.31305593 0.3123411 0.35961774 0.39986974 0.2543655 0.34726354 0.4685464 0.4873976 0.46435672 0.46784937 0.16311726 0.50514466 0.5161546 0.6441258 0.695572 0.6431147 0.70587194 0.70675486 0.67686826 0.54197764 0.5363585 0.51262486 0.47855377 0.53559816 0.53395796 0.41275817 0.2575093 0.40111905 0.11538106 0.09741403 0.43077457 0.35239792 0.28794068 0.08653739 0.45380566 0.4404484 0.07250718 0.7169248 0.74946034 0.7595328 0.76125014 0.7517075 0.43520492 0.22256106 0.69780076 0.7144351 0.7042064 0.68423295 0.6313261 0.5673079 0.53283346 0.5157288 0.44839185 -0.077192046 0.47121227 0.48818028 0.45365804 0.40814248 0.16532749 0.30043596 0.24305505 0.4375069 0.43592447 -0.032911956 0.20524028 0.522283 0.6058907 0.1947499 0.025132252 0.12329289 0.16505527 0.14100395 -0.030788086 -0.0428412 -0.085640445 -0.059943028 0.13177592 0.17598936 0.2402871 0.58074665 0.59851205 0.52276075 0.19111754 0.21358576 0.17953786 0.108307734 0.25474697 0.31281933 0.2778766 0.43898937 0.4591709 0.533237 0.57040924 0.5608091 0.40220308 0.54885316 0.32822818 0.65036035 0.6054367 0.60961574 0.6361657 0.5103374 0.5190632 0.51686954 0.47897983 0.46440363 0.44006458 0.3537569 0.03143947 0.3035017 0.27835712 0.32712057 0.3385321 0.2786735 0.1538392 0.4244718 0.3763389 0.43060845 0.68005013 0.7258793 0.7119942 0.6928884 0.43834168 0.5861919 0.60536194 0.63430566 -0.04131209 -0.10712072 -0.01589384 0.3252985 0.50423145 0.5955492 0.4876093 0.43269455 0.3078505 -0.060806997 -0.0653248 0.5181507 0.53506684 0.5522213 0.52557147 0.40663671 0.3343142 0.059328385 0.47433752 0.44199687 0.5082116 0.53526163 0.3805493 0.29960343 0.34934142 0.4023002 0.47180325 0.49796146 0.48475963 0.38066617 0.28372428 0.014384612 0.14470217 0.29910386 0.41881597 0.4628427 0.43684688 0.42033488 0.38178906 0.1713204 0.14550981 0.15312827 0.38142818 0.3603723 0.46308503 0.10930677 0.15256178 0.18829462 0.29178452 0.47860175 0.5099043 0.5061758 0.47378814 0.39015794 0.1740181 0.27229017 0.24531323 0.13254115 0.46823192 0.48152953 0.1766098 0.16839185 0.14206934 0.32363993 0.54498607 0.5133506 0.5509979 0.52026343 0.37852773 0.36731505 0.323587 0.3454164 0.3272453 0.38171893 0.5873223 0.6048143 0.59830755 0.578666 0.4452393 0.49843168 0.5078823 0.62618923 0.7035594 0.69326615 0.6390475 0.4509125 0.44985932 0.43053937 0.41650924 0.4606107 0.5185642 0.6651797 0.73248875 0.7321727 0.68752503 0.25993654 0.31174636 0.5231707 0.6952034 0.72009385 0.7365336 0.7048091 0.4306233 0.06042199 -0.11099054 -0.19280759 0.4227207 0.43363065 0.66885424 0.24498028 0.19136672 0.59337896 0.6022888 0.64577687 0.57629263 0.3142939 -0.039297022 0.15235713 0.48634082 0.4745462 0.45162296 0.3758353 0.3738845 0.2868957 0.057866286 -0.004438512 -0.10775609 -0.05275648 0.39213988 0.4594717 0.5169201 0.38209736 0.39996254 0.36102802 0.13272412 0.33451647 0.38040423 0.3542471 0.15449594 0.50516427 0.5017431 0.46509293 0.25971946 0.29923922 0.32060373 0.2725244 0.41053826 0.318676 0.620208 0.6442905 0.6186881 0.3932073 0.4111477 0.43025637 0.38026318 0.24824305 0.2043726 0.28296196 -0.01616992 0.28552747 0.6996401 0.69399107 0.63114524 0.50944304 0.41347373 0.42295426 0.29493383 0.3190071 0.30425078 0.23253998 0.18638352 0.18796928 0.2762522 0.090248376 0.2914378 0.20084774 0.44567287 0.49776915 0.48706347 0.2854403 0.49376443 0.50500757 0.29217938 0.2739934 0.31697473 0.48024327 0.35896778 0.5353604 0.50754726 0.48026767 0.4603976 0.54100347 0.5500673 0.5809868 0.56791097 0.50939524 0.504982 0.46349084 0.1460631 0.31890696 0.4536301 0.5200664 0.5374202 0.5425123 0.5579413 0.59019625 0.5632255 0.5656395 0.3468693 0.3503053 -0.012107268 0.05821377 0.55044484 0.54715466 0.61636263 0.62123024 0.5678917 0.3971502 0.39636567 0.35764146 0.2764685 -0.05169999 0.49860764 0.5850295 0.6911854 0.6425022 0.3766175 0.44617844 0.4503122 0.16368547 -0.16234104 -0.28970125 -0.3395751 0.39198688 0.66751873 0.27345654 0.4546476 0.37683988 0.33055815 0.18008661 0.11581427 0.18289 -0.16104615 -0.13270289 0.10544945 0.19544241 0.28007475 0.46460354 0.49897873 0.42309093 0.34254092 0.3528706 0.1666356 0.3301767 0.4682306 0.40302908 0.34976834 0.22483802 -0.17746985 0.33269018 0.40117466 0.32948047 0.3261477 0.1865395 0.17365025 0.34692034 0.20499955 0.073585615 0.36458737 0.36585066 0.08496776 0.46155137 0.4174313 0.10666501 0.14750023 0.06697154 -0.022582926 0.033620358 0.13008198 0.30606046 0.31060869 0.5912061 0.6352088 0.28675112 0.009797454 0.32709306 0.32623017 0.33026466 0.29292315 0.08677014 -0.015415549 0.24405284 0.095967814 0.13254339 0.29460514 0.24956706 0.67779595 0.7096933 0.7157848 0.61422056 0.43696207 0.3593811 0.34982014 0.26480237 0.30441704 0.2978626 0.12714311 0.17700547 0.17485939 0.19325183 0.2225385 0.19366145 0.24353722 0.36761054 0.7417128 0.72082895 0.6166153 0.5039032 0.19164559 0.25429654 0.23632345 0.296593 0.3070663 0.38999346 0.4507322 0.31854534 0.51028025 0.5731865 0.57532245 0.61069036 0.24446303 0.3085468 0.35193497 0.658623 0.41716784 0.51986307 0.6123361 0.51879793 0.52393323 0.48549178 0.4445719 0.44101083 0.43080088 0.5130348 0.54087704 0.45196772 0.43356824 0.41883886 0.53017867 0.3953495 0.3280089 0.23990437 0.11700885 0.24441554 0.40571088 0.5049262 0.5452082 0.5219169 0.49971086 0.20571992 0.33375868 0.2874702 0.30326515 0.030032992 0.07999046 0.5409347 0.5411006 0.49485224 0.47750473 0.45762044 0.3736192 -0.026336089 0.4994684 0.5099856 0.47535533 0.43773937 0.07732851 0.29462817 0.31356728 0.10671653 -0.20133431 0.3182873 0.35089338 0.18453188 0.16174605 0.1395692 -0.06677579 0.15962543 -0.4064358 0.26915056 0.46003294 0.31291008 0.23813263 -0.03916358 -0.1941967 0.10190424 0.3446062 0.40588176 0.41225576 0.738132 0.7301837 0.46862897 0.25565746 -0.11110473 0.13420777 0.1734795 0.36383107 0.34487498 0.7439407 0.74032915 0.4296733 0.40960902 0.37982014 0.19443479 -0.00012211129 0.35944012 -0.0028942488 0.500244 -0.22316925 0.077048585 0.60285366 0.10982826 0.1559729 0.06739182 0.06400404 0.09126435 -0.005692958 -0.046075117 -0.22451872 0.069356434 0.024064958 0.11699355 0.13216588 0.2258664 0.19941115 0.7070691 0.7321232 0.4148671 0.3540963 0.253575 0.30899698 0.2644784 0.14416154 0.21144296 0.2872159 0.21823275 0.11693275 0.12484041 0.14713776 0.30258754 0.23404351 0.7416436 0.71563184 0.56026816 0.43544453 0.39035943 0.27714306 0.3098388 0.27889255 0.2152487 0.4618408 0.27850193 0.5948202 0.2814782 0.6555553 0.27844235 0.30572388 0.7163065 0.7167828 0.54039836 0.62920624 0.70695746 0.4851791 0.44518942 0.39983255 0.3732516 0.63927937 0.5992991 0.5607542 0.49972987 0.5008484 0.43537202 0.4021478 0.4072836 0.64290774 0.6507438 0.5882007 0.5224434 0.47151944 0.4435249 0.472666 0.3825457 0.4828716 0.55543447 0.50722134 0.46539164 0.4012045 0.40463358 0.41450977 0.35001138 0.36066097 0.3551787 0.33579856 0.13398 0.16143253 0.1658102 0.29382113 0.41356975 0.2560534 0.22050145 0.18399078 0.13856967 0.015845098 0.11403042 0.45576635 0.35228106 -0.04501394 -0.10662309 0.32194173 0.07323638 -0.13728157 0.15479845 -0.09164774 -0.19410534 -0.3562324 -0.20117566 0.24604315 -0.07466538 0.053797 -0.10600339 -0.1418893 -0.29654074 0.02734574 0.07314717 0.6602632 0.6636113 0.09718496 0.2759118 0.09287405 -0.16895245 -0.19167632 -0.17869833 -0.20178387 0.2853012 0.38263118 0.42804748 0.41358134 0.73065615 0.73573923 0.6969131 0.6653796 0.3527641 -0.22665207 0.18471977 0.38820246 0.3830216 0.7176813 0.7321271 0.7321999 0.7231041 0.36995262 -0.38637313 0.3676714 0.6746167 0.70196617 0.686748 0.38851658 0.25698796 0.6159502 0.027632058 0.06299492 0.10012652 -0.07790427 -0.19924414 -0.30053276 -0.0705063 -0.16921793 -0.23742929 0.14244437 0.66834265 0.11545869 0.17252381 0.32295525 0.23628172 -0.09246984 0.022754341 0.17046888 0.047216333 0.24204966 0.34383687 0.6603769 0.36201018 0.2889851 0.3362224 0.4056711 0.4032982 0.2398485 0.27792132 0.3473647 0.36272544 0.20562997 0.57493794 0.21873435 0.6610509 0.26633975 0.710338 0.27787194 0.73525155 0.33751178 0.44589093 0.68747747 0.72925484 0.4959686 0.5570408 0.62294614 0.6090521 0.5929981 0.56991297 0.44686663 0.4552368 0.395871 0.3630457 0.6350011 0.63038486 0.5941467 0.5660857 0.50521 0.4650725 0.33049792 0.3280249 0.46125397 0.41667634 0.39930904 0.29427534 0.48941797 0.37764508 0.2913933 -0.07712076 0.25401944 0.123554826 0.21652588 0.20316638 0.18991505 0.2128723 -0.060571186 -0.035208274 0.1019952 -0.04527929 -0.084390156 0.058954895 -0.1254765 -0.010585243 -0.21710959 0.09920403 -0.020857468 -0.2006314 -0.21371485 0.33769214 -0.04354261 -0.1837542 -0.052812085 -0.010549113 0.4358827 0.5670631 0.49251398 0.3482046 0.03197781 0.23276874 0.4031538 0.40017176 0.5091166 0.62052226 0.20155722 0.14658497 0.38571578 0.36024845 0.6293343 0.68042535 0.5960348 0.2843271 0.6356325 0.6165883 0.5071589 0.5988637 0.5614306 0.4627632 0.12601857 -0.07642086 0.08441626 -0.079438426 -0.22589496 -0.27378425 -0.25211546 -0.5227493 -0.16577107 0.1147007 -0.054503813 -0.107579656 -0.12653928 -0.14773735 -0.20507786 -0.12680972 0.08083047 0.075053364 0.012487367 0.08296634 0.120618865 0.26950496 0.20914239 0.14985177 0.2397645 0.13698387 0.22049674 0.2080882 0.2255227 0.25446382 0.14832705 0.05007073 0.37551957 0.43377924 0.49715856 0.449566 0.34153998 0.2958654 0.1401871 0.23683636 0.33402067 0.5207165 0.5205031 0.53389215 0.2894314 0.6042665 0.17784742 0.66983664 0.22356746 0.25616986 0.7037159 0.31092343 0.3625577 0.45570064 0.69279647 0.71972764 0.50680786 0.55854595 0.6222812 0.58791476 0.57543045 0.5490633 0.43782085 0.44622678 0.45672587 0.41477317 0.4118613 0.37932557 0.57823455 0.5431542 0.47688895 0.3985535 0.44050062 0.4502241 0.45557964 0.38481632 0.4085226 0.26385644 0.21605778 0.11091927 0.19525757 0.32164225 0.38105297 0.29474494 0.37478122 0.41866553 0.43056464 0.43472746 0.30438286 0.30564058 -0.07303186 0.08140947 0.2752927 0.19297665 0.2031922 0.2745245 0.34157407 0.3818323 0.21700199 0.26842952 0.29143345 -0.08693025 -0.09941942 -0.019001687 -0.23024878 0.18385841 0.18756014 0.26391947 0.24295935 0.055464983 -0.12801155 -0.09290379 -0.10451062 -0.123945415 -0.065409005 0.12262153 0.10209948 -0.3665994 0.023136422 0.17077999 -0.15182967 0.0020147562 0.2431535 0.14602849 -0.086116895 0.33781722 0.06796159 0.13359252 0.16935429 0.34849185 0.37807226 0.41501027 0.35935777 0.5450446 0.551119 0.49837196 0.15881436 0.12637869 0.19523147 0.14936945 0.08496466 -0.03198419 0.06796725 -0.028441846 -0.07290554 -0.07989789 -0.4963832 -0.046288006 0.11018826 -0.16754223 -0.0014802665 -0.087825984 -0.17234665 0.0092915 -0.039393444 -0.5704908 -0.0015468784 0.010865118 0.09000796 0.1065528 0.06248188 0.06832009 0.110037014 0.0054834187 0.30881843 0.20693856 0.25302672 0.1505466 0.2374226 0.09090195 0.1421245 0.066062346 0.44004846 0.37699884 0.368627 0.32488555 -0.15442467 0.14703724 0.23990421 0.33192462 0.26418883 0.04831934 0.438699 0.6485779 0.67361426 0.65528864 0.4857801 0.5269396 0.5777862 0.53181124 0.3735646 0.33350778 0.20450115 0.25319025 0.21302533 0.51353824 0.55178535 0.7306293 0.7751366 0.7523459 0.5766654 0.7678915 0.8430146 0.8175707 0.23736872 0.6489851 0.66246784 0.3710179 0.47058928 0.5279274 0.6091167 0.6727277 0.50960094 0.55025804 0.6087978 0.5306321 0.48866034 0.46094286 0.47058374 0.5055983 0.4114316 0.40898287 0.36562377 0.5187679 0.49520686 0.4862116 0.46521825 0.45598808 0.45411104 0.4742533 0.46229854 0.38445574 0.3995846 0.39673033 0.37186015 0.21986338 0.21950258 0.34015262 0.3496026 0.3003226 0.23451318 0.46897936 0.4766751 0.3416217 0.3606212 0.46104366 0.43932295 0.3557666 -0.0026515722 0.09008014 0.37775695 0.050285697 0.22938171 0.2178998 0.4431712 0.40600526 0.2941803 0.31166 -0.20875365 -0.39512417 -0.15908466 -0.035653878 0.3485263 0.2842764 -0.29624858 -0.2826771 -0.15827683 -0.035089444 0.113134496 0.26142192 0.07934712 0.024811149 0.18052408 0.13071309 0.25261483 0.22606276 -0.002202034 -0.06844989 0.2490844 0.22767349 -0.13669425 0.24930306 0.0496342 0.8428297 0.21507691 0.79677665 0.82138026 0.25421387 0.44339043 0.0019193292 0.36348745 0.25786272 -0.17428225 0.16997896 0.026488557 0.15380904 0.1103462 0.07957962 -0.08161031 -0.06816522 0.023477778 -0.10056008 -0.18003045 -0.12132495 -0.13698776 -0.22959375 -0.2244221 0.39454287 -0.07626716 0.319576 0.24510805 0.07663425 0.04055798 -0.034093045 0.13708825 0.29425955 0.49001706 0.41107565 -0.014105678 -0.1695739 -0.08099622 -0.16286919 0.3375728 0.39657325 -0.043117084 -0.3127607 0.24687123 0.1804986 0.15760347 0.58619237 0.4141616 0.5025449 0.5530336 0.5685811 0.50153214 0.44205618 0.3272705 0.29234558 0.24598932 0.1166926 0.3395809 0.33628434 0.37611005 0.31176165 0.24620165 0.41406915 0.6593276 0.6632208 0.5694562 0.26556358 0.33875313 0.2878654 0.24844065 0.1634624 0.5389815 0.7136997 0.7723667 0.73196995 0.6072312 0.3827843 0.2853371 0.25700533 0.61899865 0.79007214 0.8478707 0.721938 0.40911716 0.5723833 0.5180818 0.53158855 0.5727511 0.6941764 0.6849694 0.6648524 0.5535635 0.5657289 0.52044684 0.44110423 0.5475567 0.5385698 0.5045738 0.5081973 0.53161347 0.5560214 0.55985737 0.62460864 0.714937 0.69975525 0.656549 0.6086819 0.4720692 0.48549554 0.476627 0.37182343 0.23763818 0.5024602 0.49822104 0.49822885 0.62610555 0.66827023 0.6871667 0.63783365 0.59496236 0.33163318 0.36720276 0.3770973 0.3093828 0.29601374 0.06688598 -0.050239697 0.22095692 0.35237247 0.35842645 0.5490335 0.5722796 0.572822 0.3067506 0.30539235 -0.17024931 0.27988777 0.10186517 0.12352889 0.29763916 0.30154604 0.062054873 -0.23772106 0.28805587 -0.20294091 -0.20317078 0.1474093 -0.17803279 0.037125703 0.12539083 0.19510683 0.32058257 0.2171609 0.070964895 0.22661012 0.31330785 0.3520597 0.23478523 0.29685214 0.31839597 0.3619147 0.24780184 0.25913593 0.26848903 0.2399852 0.8662303 0.8610487 0.29045576 -0.04832401 -0.06575435 -0.25611368 0.84147066 0.8496751 0.8580947 0.8411541 0.26059827 0.7285192 0.78185624 0.8345952 0.83218837 -0.15024975 0.6806699 0.7532583 0.8051683 0.8028149 -0.09253182 0.68451226 0.7362051 0.08989173 -0.04934493 -0.051200524 0.23845139 0.48962724 -0.3814742 -0.033028573 0.29737753 0.50263953 0.54128957 0.5962379 -0.18331522 0.15228862 0.5107967 0.5870173 0.5935708 -0.28416884 0.10785855 0.55511296 0.13827336 -0.16185187 -0.20630386 -0.14971553 0.3490209 0.15395297 -0.2810443 0.025588162 0.4328243 0.28002113 0.3958756 0.5028417 0.42553735 0.23836412 0.12464152 0.30466393 0.3826434 0.4081617 0.40457395 0.40042233 0.26904896 0.57415056 0.4862668 0.4548387 0.2050222 0.21363622 0.26369298 0.27831548 0.32770044 0.46005642 0.47407448 0.46026167 0.27999902 0.22638378 0.09336672 0.6215132 0.5123827 0.48571593 0.32012343 0.46510097 0.45413142 0.50064766 0.47993708 0.11349659 0.24579884 0.49850303 0.6805761 0.73363024 0.75451034 0.66262347 0.5614507 0.5109937 0.555141 0.58226806 0.71119857 0.5878545 0.607072 0.64838773 0.65063083 0.629774 0.5462816 0.5257823 0.5286412 0.5300783 0.55100214 0.5994325 0.6124571 0.54435104 0.6112501 0.6690006 0.66830343 0.6385001 0.61453545 0.5594146 0.57220614 0.5339447 0.47523153 0.53909147 0.5358449 0.5993368 0.6003592 0.4976689 0.5986215 0.63642406 0.5882448 0.56831497 0.50981283 0.39464194 0.26710057 0.43652016 0.5342672 0.5032298 0.5988464 0.57130384 0.55770916 0.29523343 0.26750657 -0.2210805 0.24805562 0.009335641 0.10174004 0.061823357 0.26756316 0.32848337 0.22181773 0.37818038 0.44201106 0.5433308 0.55381846 0.53333783 0.2554865 0.23738384 0.24990906 0.13221623 0.20650578 0.1781494 0.07413225 0.061258882 0.023484444 0.013120905 0.17189372 0.3158791 0.47878146 0.5217691 0.18383376 0.095043585 0.09525535 0.071008116 0.040434405 -0.02513244 0.009508914 0.032742932 0.084496014 0.3596266 0.33557487 0.22681853 0.40508124 0.35548723 0.25500238 0.24046601 0.24528053 0.83810866 0.82376087 0.8008539 0.7908256 0.1714476 0.7294942 0.79744786 0.18621804 -0.26823485 0.65350187 0.7847956 0.045313813 0.7663994 -0.05781271 -0.016097419 -0.008246541 0.08896133 0.7288557 -0.071091495 -0.022608593 -0.10503696 0.50290364 0.58750117 0.5951373 0.43745923 -0.3900859 -0.6981771 0.59819627 0.5226357 0.44532114 0.018664386 0.047684953 -0.20993596 0.5614756 0.5288166 0.50384307 0.429595 0.046250753 0.017442964 0.5100961 0.5251294 0.49374735 0.38256696 0.20827988 