# vtk DataFile Version 2.0
Really cool data
ASCII
DATASET POLYDATA
POINTS 5526 float
1.3557032 54.720417 46.75628
1.3113172 54.68444 47.397823
1.3760501 54.806767 48.072956
1.4307947 55.520382 46.059856
1.3039997 55.379242 46.610115
1.2423453 55.318607 47.547596
1.332396 55.38134 47.990322
1.359195 56.062767 46.758377
1.3644964 56.061543 47.368145
1.4824227 60.418373 48.287308
2.3109126 53.136986 46.939716
2.2253206 53.160778 47.37467
2.381903 53.188904 47.851112
2.0399709 54.04285 46.10069
1.8778073 53.86009 46.628532
1.6418903 54.005844 47.44983
1.9317114 53.90279 48.10446
2.222885 54.140488 48.77956
1.8156023 54.64065 45.8574
1.5181769 54.427402 46.564754
1.488009 54.260784 47.640373
1.6840934 54.466515 48.375057
1.9405432 54.70189 48.761963
2.249503 55.58925 45.053032
1.6391041 55.448803 45.826893
1.5550163 55.49845 48.390984
2.1307344 55.602333 49.087124
2.229939 56.84391 44.726807
1.7129043 56.566 45.787792
1.596191 56.424023 46.48928
1.5515523 56.449284 47.463478
1.7025626 56.449802 48.154366
2.2762074 56.400528 49.267902
2.2328732 57.16528 44.780415
2.0732243 57.538227 45.266445
1.8888068 57.534775 47.326347
2.217237 57.351204 48.639103
2.2474887 57.44398 48.92446
2.3440843 58.07738 45.046024
2.1428194 58.252636 45.65195
1.9991496 58.45087 46.49416
1.8192383 59.09934 47.521816
1.8388873 58.738136 48.35238
1.9479477 58.74263 49.318344
2.2251928 58.70755 50.29474
2.2206235 59.374325 46.060104
1.9292989 59.43845 46.830902
1.600179 59.812153 47.647503
1.6539814 59.455364 48.59401
1.7889585 59.577545 49.4849
1.9702526 59.661797 50.341755
2.2232468 59.49002 51.041523
2.0320756 60.51613 46.992474
1.7012081 60.471916 47.63367
1.6074705 60.51108 48.4829
1.7260554 60.35058 49.39686
2.0253353 60.525234 50.413845
2.2465897 60.2996 51.02255
2.201248 60.868294 47.159855
2.0240166 60.992825 47.519245
2.0209188 61.39193 48.764267
2.0517921 61.467735 49.513428
2.2037401 61.487026 50.353302
2.3492355 62.208252 49.8709
2.3458865 62.09106 50.331253
3.4420526 51.156715 57.76998
3.0937629 52.294853 46.911655
3.0412338 52.263462 47.264694
3.1918547 52.346622 47.967457
3.4085073 51.91277 57.071854
3.2973058 51.675236 57.588585
3.3678474 51.62295 58.403503
3.4290266 51.635216 58.824356
2.9710524 52.990314 46.17393
2.869106 52.66128 46.608955
2.6889927 52.59266 47.52829
2.9619396 52.67941 48.140285
3.4077308 52.239845 57.11116
3.3101292 52.233757 57.77387
3.3746667 52.230736 58.34069
2.5912786 53.590786 45.995914
2.6167872 53.46014 48.510044
2.9331784 53.59121 48.7375
2.5005057 54.658157 49.04864
3.0727055 55.925293 44.391346
2.2327106 55.200867 49.0699
2.8614736 56.641426 44.098404
2.468607 56.56415 44.466873
3.1042771 57.036373 50.830425
2.8599494 57.719376 44.27055
2.5062532 57.51421 44.518387
2.504259 57.260696 49.265713
2.825552 57.60368 50.371586
3.0784676 57.459698 51.28879
2.6740308 58.43146 44.822826
2.4786067 58.584564 45.398617
2.5774019 58.32778 50.336826
2.6691809 58.45525 51.014824
3.1767085 59.07587 51.805298
2.5483737 59.39671 45.395298
2.5983107 59.731506 51.44232
3.0052576 59.32915 51.772182
3.1452394 60.12773 45.207024
2.5114737 59.97356 45.8462
2.553783 60.750717 51.34045
3.0276308 60.307526 51.900455
2.9332266 60.82056 46.15085
2.617515 61.133347 46.765156
2.833811 61.4471 47.568573
2.4547274 61.840607 50.71996
2.651946 61.478783 51.33244
3.203833 61.59667 51.947754
2.9380138 61.80881 48.08055
3.1387007 62.041374 48.38263
2.583073 62.509533 49.394962
2.552319 62.382504 50.38734
2.8506186 62.159634 51.279106
3.2644055 63.173214 49.596645
3.0047295 62.95908 50.228935
4.2216625 50.216766 57.628845
4.0855837 50.353336 58.10706
3.9082365 50.86073 56.957104
3.8213959 50.685192 57.59969
3.716716 50.86097 58.531494
3.9179678 50.902435 58.968224
3.5970373 52.101845 46.780785
3.3835328 52.112106 47.523495
3.5917492 52.221767 48.05554
4.1031456 51.4661 56.174526
3.6339622 51.60948 56.795925
3.4387152 51.3348 57.218056
3.5046515 51.43168 58.68373
3.7533524 51.507263 59.09265
3.4956036 52.66768 46.04939
3.4284465 52.570854 48.357895
3.62108 52.844273 48.620647
4.2162175 52.00066 56.096775
3.6053493 52.22157 56.778625
3.4726617 52.621292 57.406635
3.557539 52.349983 58.61993
3.7962382 52.284676 59.030266
3.9295943 53.605717 44.907536
3.5871544 53.763256 48.9679
3.8715396 52.910946 56.922832
3.7428222 52.99395 57.651215
3.907136 53.05124 58.388485
4.227681 53.03774 58.943398
4.339452 55.4556 43.063213
4.020195 55.25122 43.76392
3.378837 55.44281 44.484722
3.9596038 56.029778 50.692215
3.4572158 56.841652 51.213997
3.4353716 57.58884 43.87914
3.9021254 57.3841 52.186337
3.783985 58.369923 44.064922
4.3436117 58.610947 53.19129
3.6667767 59.480167 44.518997
3.6950736 59.77339 52.126884
3.4838831 60.128475 44.61084
3.5043497 60.5995 52.150097
4.250808 61.152077 44.091198
3.8384452 61.502808 44.74621
3.445276 61.449005 46.554604
3.4301617 61.379494 52.09969
4.0900207 62.814495 44.528053
3.8938403 62.56141 45.380074
4.051273 62.108837 46.0829
3.8856103 62.181297 47.595108
3.6610851 62.35497 52.06391
4.3558645 63.56964 44.158455
4.1660795 63.574142 44.621387
4.081588 63.66818 45.241444
4.2267075 63.37365 46.16329
3.6882899 63.250343 48.768616
3.474687 63.28779 49.805862
3.7578342 63.253666 51.36394
4.0885854 62.995895 51.706635
4.351894 63.896267 44.241985
4.268492 64.16881 44.731003
4.1925645 64.094185 45.259617
4.1722636 64.44677 49.616547
4.250458 64.51224 50.19589
4.2363563 64.19703 51.072704
4.3179536 64.700745 49.86376
4.942479 49.82946 56.7195
4.7438507 49.86706 57.543785
4.7144094 50.053104 58.28929
4.8739314 50.640373 55.95225
4.3987556 50.465786 56.48125
4.466781 50.747402 59.187897
4.8807592 52.08674 45.986717
4.6740003 51.87813 46.52631
4.5894985 51.904575 47.485847
4.5439534 52.154877 48.1687
5.1696796 51.581985 55.13128
4.4433947 51.421024 56.026268
4.333891 51.5599 59.492775
4.468001 51.732162 59.593285
4.9655404 52.63092 44.850376
4.35089 52.46694 45.539402
4.1507864 52.416477 48.47671
4.5538106 53.081028 48.954018
5.148665 52.350376 55.183765
4.7567406 52.205467 55.589638
4.3762274 52.220524 59.567024
5.2568054 54.053646 42.695698
4.7704983 53.594147 43.624626
5.0952725 53.01029 55.79712
4.3768573 53.076645 56.57494
4.472053 53.490616 57.53297
4.300925 53.231018 58.76346
4.630956 53.11614 59.23363
5.181521 55.006454 42.34276
4.55981 54.50805 43.219086
4.489629 54.23058 49.061287
4.8421855 53.711407 57.578003
4.6482744 53.66377 58.144314
5.040158 55.227005 42.27457
4.750019 55.66486 42.495808
4.655892 55.67757 50.51252
5.0160265 55.75404 51.690727
5.076286 56.023212 52.365185
4.9907575 56.468796 42.20116
4.782876 56.36903 42.469833
4.525649 56.31853 52.104057
4.8212547 56.700863 52.902977
5.1696424 57.128094 53.846886
4.881993 57.131966 42.624794
4.598503 57.81532 53.67913
4.8824034 57.773674 54.2167
4.4277825 58.72738 43.831596
4.5170717 58.77412 53.66949
4.815934 58.572647 54.39637
5.091345 58.456146 54.64032
4.8916907 59.81614 43.63962
4.7252665 59.6666 53.670628
4.832987 59.527218 54.118366
4.5994325 60.431602 43.723972
5.121056 60.3798 54.410835
4.5422792 61.453053 43.843807
4.380786 61.63269 52.437706
4.4397664 61.39311 52.890682
5.366424 61.15175 54.548058
4.6968365 62.611717 43.7543
5.1412377 62.020958 53.358463
5.1407743 63.28079 43.39612
4.588482 63.523262 43.902317
4.69537 63.393513 46.98813
4.714967 63.496758 52.26758
4.836958 64.23155 43.99566
4.5552926 64.392 44.514423
4.460122 64.54676 45.3081
4.789447 64.407234 46.258156
4.506752 64.60745 48.902424
4.372574 64.66177 50.46657
4.675068 64.370964 51.356728
5.2730613 63.88509 52.45403
4.897189 64.79328 44.678955
4.890349 64.84644 45.213852
4.9663644 64.789154 45.95308
4.976232 64.99962 48.738342
4.7415133 65.07291 49.527428
4.779896 64.98155 50.33749
5.0128508 64.960594 50.971554
5.673939 49.42371 56.810066
5.783824 49.391403 57.250233
5.734393 49.78695 56.00306
5.5001783 49.62781 56.45597
5.418671 49.517525 57.401596
5.575658 49.654964 58.159393
5.8934937 51.466724 46.504322
5.4707403 51.02391 55.071766
5.5915346 50.351017 55.647476
5.4012036 50.789833 59.25404
5.848731 51.04277 59.567505
5.6893015 51.864326 44.948463
5.5771375 51.677208 45.479885
5.5657444 51.671665 46.306076
5.681084 51.657116 47.391586
5.548481 51.90723 48.034885
6.24378 51.617886 54.310703
5.50108 51.499954 54.880978
5.423826 51.589138 59.812565
6.401216 52.68302 42.529297
5.5773516 52.6465 43.957935
5.6548047 52.718105 48.9531
5.531108 52.17537 54.75252
6.0035005 52.60329 60.589985
6.2227235 53.012142 60.841736
5.6349707 53.653713 42.896393
5.5441365 53.11829 55.42876
6.130951 53.729233 60.578606
6.2942843 53.657597 61.51224
5.285204 54.97825 42.327744
5.316076 55.18628 49.564846
5.37634 54.88774 49.91411
6.059468 53.609917 55.761642
5.810769 53.783356 56.46467
5.5491295 53.910362 57.831013
5.8053055 53.83482 58.888096
6.3228407 54.49814 59.158264
5.8464837 53.867382 60.035156
6.22802 54.140087 61.334766
5.869185 55.503963 41.826504
5.6930933 55.663296 52.1571
5.5945144 56.129288 52.90336
5.603326 56.572098 41.872494
5.5926137 56.62712 53.378296
5.383914 57.21022 54.16267
5.631898 57.05559 42.03261
5.713413 57.785706 54.78736
5.7026043 58.26686 43.053314
5.904745 58.565296 55.328262
5.6190195 59.356663 55.114895
5.8085976 60.693886 43.261787
5.5416455 60.462414 55.033012
5.5269604 61.564938 43.248573
5.49015 61.73859 54.468437
6.005832 61.545486 55.206585
5.298796 62.5534 43.412064
5.9407344 62.38993 54.58638
5.9770684 62.29436 54.882366
5.530726 63.607853 43.317863
6.0536485 63.613922 53.067783
5.5731544 63.992477 43.36032
5.414387 64.43375 43.732773
5.7409654 64.65748 52.122524
5.790515 63.82471 53.060608
5.6765294 64.776245 43.953472
5.627233 65.09229 44.592102
5.6050644 65.17403 45.41603
5.4565105 64.90284 46.050137
5.73907 64.79419 48.299904
5.4328923 65.08692 48.68485
5.802347 65.4989 50.528294
5.7795916 65.31202 51.575382
5.3665442 64.88347 51.828796
5.7555637 65.70587 49.618298
6.071967 65.9316 50.31341
6.2596416 65.776024 51.53954
6.1691165 49.37742 56.74233
6.3241215 49.370342 57.328396
6.9467125 49.421074 57.972225
6.7709074 50.225662 54.50807
[...]
POINT_DATA 5526
SCALARS features_00 float 1
LOOKUP_TABLE default
0.5590943 0.57290375 0.5610613 0.4924527 0.5282651 0.5401647 0.52322084 0.47681168 0.47395563 0.43038046 0.5622853 0.5775409 0.579376 0.5214262 0.55585057 0.58089024 0.57563245 0.54380035 0.50705147 0.5576946 0.58232796 0.56167966 0.5313584 0.3877102 0.47661042 0.49075758 0.41679794 0.32368287 0.38079882 0.4217071 0.41639215 0.37798324 0.24301444 0.3076063 0.28720966 0.27306423 0.19292158 0.1617762 0.25992528 0.2543831 0.2580375 0.3374409 0.27343857 0.23882331 0.26102996 0.24306023 0.31142616 0.38901785 0.36920208 0.3575763 0.3570592 0.3329472 0.31252953 0.38154295 0.43634698 0.42514372 0.4042793 0.3695733 0.29883444 0.3329559 0.41593206 0.42642254 0.41935292 0.39987475 0.41255277 0.7606938 0.5428436 0.5627351 0.56161267 0.7300514 0.7613429 0.7796066 0.7735379 0.47618204 0.5269345 0.5776944 0.56264085 0.73507386 0.7699296 0.77242696 0.47814202 0.5526347 0.5190069 0.48563063 0.27803296 0.46141458 0.28599963 0.31941676 0.17160071 0.2645556 0.28521657 0.1371368 0.15631574 0.20056394 0.23780149 0.2364138 0.21848881 0.2575528 0.23273477 0.20779541 0.31849432 0.2595321 0.1800018 0.21839574 0.36317354 0.28666294 0.17634438 0.21598753 0.23319477 0.41364723 0.38483983 0.315781 0.25599703 0.26182997 0.3618855 0.40432099 0.3925531 0.3241969 0.37425175 0.6951786 0.74397457 0.68831897 0.7375165 0.77535903 0.76039946 0.5119535 0.5560683 0.54153997 0.6055187 0.69261396 0.73083985 0.7771832 0.7562877 0.43877375 0.53180015 0.49147093 0.59584546 0.6967114 0.75423694 0.76217186 0.73999596 0.2638802 0.4210676 0.6971341 0.74811625 0.7221997 0.6522014 0.26262137 0.22913435 0.253209 0.20335546 0.21442151 0.22721323 0.24702203 0.18182737 0.22131637 0.17101702 0.17836049 0.1635615 0.23680238 0.24276164 0.2365106 0.092321 0.27895224 0.4507466 0.32977253 0.13307236 0.05571869 0.27977857 0.5656952 0.5408862 0.51318204 0.38410085 0.21263659 0.32650554 0.3319285 0.28325093 0.60045564 0.6061234 0.564574 0.3019995 0.3040961 0.28879973 0.30610377 0.55266726 0.59769654 0.6594916 0.5416867 0.62428594 0.71389174 0.3506579 0.40117565 0.46395046 0.4668236 0.4426152 0.56752354 0.6894027 0.6611856 0.2539444 0.3464396 0.47521248 0.33128604 0.45768577 0.51667845 0.6485574 0.175555 0.16642576 0.5143771 0.6228435 0.6092591 0.6310936 0.54478264 0.29313794 0.22084537 0.18332937 0.49581045 0.5424804 0.30480084 0.3044812 0.11826983 0.23410363 0.2805544 0.3312863 0.31699234 0.26911873 0.30130517 0.34070247 0.28134006 0.34957016 0.36152178 0.10273638 0.26380357 0.3280327 0.3382827 0.118507236 0.15604448 0.22000404 0.18058103 0.13798696 0.289156 0.16339722 0.09660594 0.08786849 0.45502076 0.045027934 0.5603558 0.57536685 0.19115119 0.19883716 0.65573275 0.6510757 0.62091297 0.51927215 0.28055137 0.29732585 0.26748407 0.17535064 0.6903514 0.6688044 0.59660983 0.2832954 0.30546957 0.29121417 0.2705242 0.40648222 0.3882412 0.41507336 0.45009834 0.45700768 0.46396285 0.26661545 0.4042302 0.44641227 0.5730894 0.4200066 0.23828761 0.26608354 0.29935214 0.30457017 0.34013247 0.29863942 0.39336467 0.44002867 0.21729052 0.13863377 0.24225493 0.3926311 0.3140601 0.3885988 0.10965173 0.45774293 0.42057234 0.44340223 0.29379922 -0.050733905 -0.062371105 0.40889806 0.39531767 0.31446347 0.28218237 0.20752218 0.3504322 0.44827896 0.32313424 0.2613478 0.30324984 0.31838858 0.31293774 0.33922234 0.29969063 0.340307 0.15237921 0.27965003 0.2559567 0.17890692 0.14983533 0.29010344 0.069856815 0.0768332 0.4451155 0.040824775 0.047947846 0.589623 0.057538915 0.6267302 0.6722337 0.19968186 0.08144176 0.6920573 0.7099773 0.6646882 0.582422 0.18941078 0.27449092 0.23683769 0.20966655 0.23140734 0.2584943 0.21157008 0.16204233 0.31565037 0.29998377 0.18713829 0.24748367 0.22868638 0.29454535 0.38924077 0.17205524 0.1953314 0.18017417 0.23519787 0.17588893 0.43453857 0.39939058 0.33240345 0.16357629 0.21007232 0.22590719 0.22871867 0.24175316 0.447009 0.45620865 0.361226 0.18562987 0.11657418 0.16972649 0.25962442 0.36028934 0.3851592 0.416533 0.40948665 0.26446512 -0.020749629 0.32846805 0.43869334 0.43375725 0.33793637 0.2631532 0.085595064 0.3236347 0.43244717 0.45976388 0.24617566 0.26364452 0.30396068 -0.111137524 0.069918364 0.2842106 0.40850297 0.38686478 0.115013264 0.28671628 0.27723715 0.013006639 0.12787515 0.14002936 0.25654182 -0.08097292 -0.031604677 -0.0074871704 -0.007891187 -0.0073166806 0.07324872 -0.06720067 0.010871917 0.0068522505 0.026409708 -0.08409044 0.01686047 0.06015666 0.11116869 0.49325398 -0.048656143 -0.017259274 0.058160335 0.12237416 0.10771172 0.5265113 0.5999497 -0.104947 0.05930621 0.089317285 0.101295106 0.6077756 0.65771633 0.5881288 0.53985643 0.10981796 0.34075668 0.34401762 0.16434896 0.18731296 0.17793858 0.14323643 0.101410285 0.062644735 0.38215163 0.45011693 0.45688432 0.43667382 0.40859395 0.16065463 0.16228315 0.15812261 0.50376254 0.49137214 0.5221014 0.53476137 0.49302864 0.46316803 0.53583837 0.56255186 0.5852009 0.57534194 0.5343291 0.49291867 0.5925018 0.60146856 0.6101835 0.5804837 0.5388426 0.63185936 0.62371796 0.59199274 0.36553586 0.30108255 0.33359402 0.24045016 0.036003515 -0.032127474 0.057695135 0.12611163 0.2433653 0.23539764 0.25172803 0.25594705 0.24239372 0.14575344 0.14877385 0.15436175 0.4384957 0.36573476 0.26392397 0.05045314 0.11865514 0.21618298 0.21550858 0.0778777 0.489532 0.468533 -0.040496416 0.029208183 0.09700199 0.10236363 0.009167239 0.10356804 0.23111296 0.45375174 0.47074163 0.04969202 -0.008011118 0.114782184 0.3213936 0.4081842 0.41718104 -0.219513 -0.07891114 0.36822572 0.35570973 0.30493343 -0.17690691 0.24753001 0.26442593 -0.08265997 0.33925265 0.073460035 0.014392413 0.01422213 -0.04784643 0.002644904 0.030840047 0.46395603 0.06732405 0.002589129 -0.05616401 0.050923273 0.10089488 0.10679758 0.52419484 0.49384773 0.4152885 -0.26032373 -0.046910804 0.0013304362 -0.011786082 0.07170902 -0.08787565 -0.018235438 -0.007555003 -0.014288319 0.0824642 0.12349949 0.1722815 0.14302278 0.035370633 -0.011702284 -0.016873987 0.25172624 0.22404137 0.022764113 0.04490749 0.044798054 0.21640158 0.21539205 0.21398197 0.091776356 0.098394215 0.08709038 -0.019704401 -0.039544255 0.104244016 0.10459598 0.06943305 0.26062563 0.051442392 0.16282682 0.21958438 0.17753005 0.37511802 -0.18455842 0.05905524 0.103420004 0.13124688 0.11684636 0.10520579 0.2163904 0.28569764 0.32899863 0.24765584 0.10390426 0.07804005 0.1934545 0.21149734 0.15235874 0.10048428 0.35011214 0.30270398 0.38211405 0.37784296 0.24434745 0.2105174 0.17641957 0.16951843 0.16637063 0.13373445 0.09195838 0.2939684 0.2660548 0.32949045 0.29548022 0.44083583 0.44526422 0.41199076 0.36718863 0.35517448 0.5360392 0.47013438 0.46036464 0.58846307 0.6240976 0.52919215 0.48950976 0.47584218 0.6565273 0.65600634 0.6098967 0.5453552 0.5013644 0.6631262 0.6510594 0.42696202 0.43908376 0.43414438 0.4228272 0.38524812 0.41546214 0.38499656 0.32014763 0.33287573 0.19056422 0.2962576 0.37409684 0.4003173 0.2694696 0.022737727 0.1849271 0.2624106 0.312536 0.31984627 0.24067602 0.19134337 0.4145238 0.35966486 0.14955197 -0.04525799 -0.21234624 -0.1429061 -0.05198467 0.009867407 -0.061089307 -0.07711592 0.06344081 0.45141518 -0.05707758 -0.09545967 0.10244264 0.43805695 -0.17956042 0.15547073 0.37505484 -0.32350814 0.04536372 0.33855712 -0.3723704 0.24199246 0.04712113 0.2449958 -0.39913017 -0.43401772 -0.056145288 0.23678347 0.44169128 0.33764794 0.34993172 0.04000836 0.070305 0.25575933 0.37749118 0.42466277 0.46754986 0.4807006 0.4627251 0.38054773 -0.10873684 0.1164476 0.3242898 0.39414272 0.43945998 0.4807467 0.52092195 -0.06322476 -0.24627517 0.40614486 0.47315603 0.5087755 0.47020078 0.051334903 0.084874414 0.44840324 0.4366383 0.45079798 0.24370174 0.11225007 -0.023367576 0.33524787 0.2640555 0.0076901168 -0.009159997 0.066411406 0.18485618 0.3174739 0.20513673 0.18410674 0.18026647 0.20149371 0.14652175 0.13238297 0.025218368 -0.1272133 -0.09449701 0.027303666 0.19372727 0.20132814 -0.19245699 -0.13280456 0.02439437 0.25843436 0.3271209 0.3853489 0.2179481 0.37242925 0.44335234 0.2832842 0.30120835 0.2279411 0.22040865 0.17988995 0.1663222 0.122050434 0.2240775 0.20782098 0.46104354 0.4667942 0.325144 0.29036412 0.20273995 0.15783417 0.3430568 0.3879413 0.42063075 0.4070787 0.48505768 0.5127454 0.4117503 0.42591506 0.63615835 0.47955656 0.6944329 0.5707536 0.48209825 0.4768551 0.6812885 0.6623487 0.49556 0.4363592 0.44753766 0.43751156 0.19915144 0.06676817 0.42832956 0.4479624 0.4412892 0.40907145 0.30539015 0.24433085 0.3521549 0.42291832 0.26513645 0.18028046 0.08332173 0.056858577 0.033726804 0.032061458 0.28398067 0.32538608 0.17928807 0.24889812 0.32356045 0.42673895 0.4365953 0.3151778 0.2519565 0.07108178 -0.005188871 -0.031672012 0.023419984 0.0005810708 0.13824475 0.34224427 0.3695404 0.24072279 0.008530587 -0.042319566 -0.07976334 -0.107045636 -0.08426773 -0.10312982 -0.13341568 0.040604725 0.32174855 0.29474598 0.20485042 -0.102625206 -0.037860245 -0.14279933 -0.11401003 0.3579714 0.33848393 -0.018003754 0.11884661 0.36619318 0.060614713 0.36192685 0.3729329 0.0956257 0.1454952 0.055258423 0.21166791 0.113079384 0.030286565 0.15692565 0.25706357 0.34660876 0.36712882 0.28076267 0.28206873 0.39220887 0.4452836 0.39612514 -0.05624941 0.46322268 0.41926742 -0.100069806 0.4104334 0.4560097 0.40092617 0.4464113 0.2318244 0.3760262 0.40616667 0.41599828 -0.0062811747 0.14550391 0.38783044 0.36596704 0.20204207 0.23869917 0.34828383 0.3332473 0.29088458 0.2692377 0.21390936 0.19708829 0.17971596 0.24382974 0.2333602 0.14599852 0.10074865 -0.090075165 -0.10394904 0.13547033 0.29796392 0.28746372 0.26867855 -0.11117762 0.52974916 0.22386491 0.5276177 0.6651511 0.3223647 0.6512642 0.35106096 0.35419354 0.3467688 0.3287303 0.26483756 0.15151608 0.09188539 0.07978341 0.08778885 0.15851937 0.5470065 0.65873754 0.35108534 0.23201668 0.41094172 0.415125 0.3611491 0.41643572 0.5156001 0.53463924 0.7222018 0.6471951 0.61564696 0.5029224 0.48742515 0.70814013 0.7469108 0.5289779 0.5115592 0.44779897 0.60123086 0.5333067 0.53304285 0.47316602 0.38248223 0.47173256 0.56983626 0.6141034 0.6200437 0.5029067 0.5037111 0.43397567 0.38377482 0.28777587 0.40027893 0.5238433 0.5966679 0.61564827 0.57428956 0.43006358 0.36280096 0.322481 0.30985028 0.33741167 0.44488955 0.15164445 0.16668564 0.2644148 0.3894238 0.47627118 0.5035709 0.54360425 0.49708468 0.3551189 0.338072 0.2471202 0.27702808 0.3738922 0.47092927 0.5589897 0.18516037 0.16790083 0.15623155 0.19717622 0.36869186 0.49660596 0.3981038 0.3905195 0.37085253 0.2674299 0.5195403 0.60777235 0.61099553 0.61127377 0.27725995 0.2699401 0.22728302 0.22076708 0.09451989 0.09073421 0.2855439 0.28751308 0.35887665 -0.07568337 0.08058572 0.19123201 0.39701217 0.42990857 0.45167452 0.6166351 0.6621665 0.6555109 0.64145637 0.32206085 0.31101006 0.20279762 -0.069516 0.42311147 0.6657679 0.68041 0.66420823 0.33456475 0.30367392 0.022891402 -0.032457918 0.08349419 0.37753487 0.3153243 0.24612483 -0.15226278 0.22403076 0.06637537 -0.120473094 -0.019941904 0.3011365 0.18298395 0.16986094 0.5959635 0.28422624 0.28725505 0.15218973 0.19831257 0.20945713 0.55924046 0.54278195 0.4150135 0.46140224 0.42920524 0.24940212 0.24542409 0.3074165 0.23649663 0.36046913 0.21964003 0.42760858 0.23781796 0.4587037 0.32038385 0.45728913 0.46372545 0.40016666 0.42876476 0.42975536 0.38904476 0.3497203 0.36346108 0.21446347 0.33943707 0.31185463 0.26295167 0.2923311 0.27074948 0.24777173 0.26172492 0.2771944 0.4809163 0.30566195 0.31138977 0.6911308 0.6840551 0.31532073 0.32869574 0.32670766 0.29034823 0.22808348 -0.017540433 0.12317946 0.7178669 0.74686134 0.29564267 0.25655612 0.3107292 0.7342123 0.7538225 0.33507 0.3551504 0.36142242 0.36064282 0.2826067 0.11380774 0.026802853 -0.0512835 -0.03890469 0.07949869 0.008712418 -0.12114171 0.7304008 0.35771364 0.35944417 0.34339446 0.20155898 0.35772765 0.24175236 0.5242271 0.6359682 0.6882993 0.6584586 0.5520484 0.5591858 0.61192465 0.4696771 0.5191177 0.6216192 0.6718599 0.5011277 0.60937345 0.69084287 0.7271366 0.71304655 0.50387883 0.6428301 0.7517589 0.76272106 0.69263583 0.65564716 0.71549964 0.7379286 0.7176512 0.6347605 0.661639 0.6795218 0.47439626 0.46417433 0.4079863 0.4963162 0.51509714 0.4842921 0.4267521 0.34872156 0.24221405 0.56418836 0.5888083 0.5765097 0.49461848 0.5262672 0.2986101 0.31029284 0.18577197 0.44702753 0.5470395 0.6040169 0.58002204 0.5382305 0.47059125 0.48500076 0.28476393 0.14634928 0.16614121 0.2953496 0.5461843 0.47978497 0.3717308 0.36655807 0.404333 0.46876714 0.1387573 0.14685115 0.14625368 0.45502323 0.3032268 0.2560353 0.15419184 0.523845 0.51403385 0.10534564 0.14144066 0.30677214 -0.042569313 -0.14567858 -0.04734405 0.11081785 0.5841645 0.25311342 0.20754373 0.34728456 0.29343337 0.21534315 -0.18476364 0.2870445 0.31324685 0.618508 0.29249358 -0.3411492 0.065476924 0.2718075 0.65079165 0.64995503 0.26214898 0.30435303 -0.10260033 0.25555682 0.5551545 0.603665 0.6194187 0.17253771 0.63368523 0.62976444 0.58994985 -0.012228094 0.19779082 0.592348 0.57727146 0.1482708 0.52006733 0.49217594 0.1446168 0.43770093 0.35781136 0.22445035 0.35410208 0.270157 0.31421012 0.28878945 0.4075458 0.42023557 0.28968382 0.40703517 0.28739494 0.32973936 0.3270181 0.31998324 0.31428427 0.21567538 0.2989296 0.26365778 0.16997863 0.24103184 0.2665745 0.6854273 0.72842926 0.7539239 0.30519572 0.7619033 0.7681519 0.2963451 0.25231272 0.19704479 -0.32964736 0.7946094 0.76241523 0.31892723 0.32391846 0.22644539 -0.1265679 -0.18743452 0.04173273 0.79878855 0.3436549 0.3598005 0.34324673 0.25160465 -0.2001967 0.009237912 0.08307128 0.110799536 0.14859511 0.43750116 0.7215787 0.7454972 0.7021066 0.6783004 0.67546725 0.36903688 0.42680827 0.42778763 0.31038052 0.40958613 0.49454573 0.5267619 0.58823144 0.31509858 0.4204294 0.62356097 0.3386248 0.402422 0.6354091 0.53177553 0.6298041 0.5530307 0.6019329 0.6331128 0.39219648 0.38244063 0.3273897 0.3930927 0.43346715 0.4216777 0.35782441 0.22187546 0.35284334 0.4493804 0.44336316 0.43163508 0.2721508 0.20459108 0.35371882 0.42004645 0.45338133 0.5062771 0.5352812 0.41640347 0.1554286 0.101359725 0.124967024 0.364161 0.47917265 0.32716954 0.31478345 0.24462064 0.31185496 0.10486194 0.46504653 0.40895253 0.279756 0.28806803 0.2830366 0.108762816 0.32149643 0.43582144 0.10596993 0.37756026 0.28685227 0.19303611 0.0007498339 0.26144606 0.16615911 0.0750036 0.025632272 -0.17433926 -0.17652735 0.46742633 0.1886223 0.07453394 0.08894016 0.28827307 0.23396088 0.2773796 0.16805126 -0.039158177 -0.0784456 -0.07909998 -0.21442544 0.49457568 0.22088593 -0.33890247 -0.0014613271 -0.0956109 -0.13643768 0.18967903 0.5425396 0.21762249 -0.1278166 0.26732284 0.6133124 0.16971388 0.024957903 0.36039203 0.60101014 0.62365365 0.12128487 0.11029734 -0.09919471 0.4308297 0.5501317 0.54943 -0.22942525 -0.035430677 0.517315 0.31432325 -0.31138226 0.14872462 0.16253816 0.6742257 0.6171105 0.45018694 0.28906143 0.16546044 0.65275484 0.06912006 0.5648768 0.07302365 0.48083606 0.12066335 0.40699974 0.2128307 0.3563712 0.34028137 0.30939454 0.3709364 0.103949815 0.36026773 0.19974582 0.30995905 0.1433425 0.30696282 0.2393964 0.06666954 0.20140623 0.6866834 0.75731206 0.7698848 0.7746291 0.78115046 0.7921149 0.16418678 0.15334544 0.1141182 0.11200707 -0.011703749 -0.37687135 -0.112571806 0.541745 0.83350384 0.8188976 0.11264585 0.21148327 0.08226281 0.08326031 -0.12268819 -0.19850364 0.13213822 0.4241746 0.86287236 0.8446349 0.21556969 0.291931 0.32154948 -0.17716973 -0.09555757 0.010451574 -0.06433232 0.6647666 0.78144777 0.79156446 -0.16223066 0.040330037 0.1197146 0.0019546002 0.061660476 0.091039434 0.31889796 0.3760537 0.4383983 0.13828446 0.15900396 0.4830439 0.22375715 0.20901279 0.5953732 0.58602566 0.23527983 0.56021965 0.3585 0.25107935 0.52739644 0.5456176 0.30005983 0.4486609 0.44959533 0.57142675 0.7370285 0.34147757 0.29343596 0.7537901 0.6948082 0.6050885 0.35622445 0.3666178 0.36276022 0.18149063 0.27636144 0.44244707 0.5331285 0.5598541 0.7304349 0.6592448 0.33880067 0.48097533 0.54037493 0.3832622 0.39730918 0.12096588 0.48187697 0.3445027 0.3988176 0.44243848 0.45333967 0.2130609 0.4058323 0.4933164 0.45691234 0.22121558 0.068454295 0.24541694 0.43345147 0.378956 0.25063556 0.32810476 0.3169763 0.071153715 0.2949777 0.48652232 0.48941162 0.44336617 0.30589306 0.07107124 0.36665243 0.13342649 0.21624506 0.29459828 0.45272914 0.43494964 0.40405256 0.36357003 0.054089643 0.39451733 0.4280966 0.3609473 0.2783206 0.2614304 0.08599908 0.35977572 0.12500878 0.43531823 0.070638455 0.4889009 -0.29305193 -0.5036049 0.20572008 0.4222731 -0.2805012 0.078327715 0.50240874 0.3992598 0.24005458 -0.32753685 0.05456491 0.6463535 0.5867483 0.5524515 0.1654995 -0.3299212 0.14321665 0.5941235 0.5419675 0.57040054 0.019582693 0.48816895 0.46348453 0.09590152 0.183813 0.44430047 0.39923155 0.25661606 0.33846092 0.2573149 0.34573337 0.028093535 0.3012656 -0.08477404 -0.1945113 0.15081517 -0.06851746 0.13751867 0.2362352 0.20939794 0.25242266 0.25399143 0.16629145 0.15275468 0.21234246 0.38178638 -0.04598181 0.37843633 0.26191005 -0.13850458 0.7950575 0.39475453 0.27897924 0.17899118 0.0014597503 -0.3818733 0.7481595 0.39639226 0.3482676 0.09485095 -0.22948116 -0.035106063 -0.23084593 -0.45002976 -0.03137754 0.8701731 -0.08006325 -0.14142539 -0.17767012 -0.10893862 -0.22878747 0.0018848181 -0.038075723 -0.21015713 -0.19832914 -0.05028469 0.31231058 0.37417826 0.39852297 0.12513043 0.51985407 0.21910371 0.6025821 0.3457237 0.57591456 0.4051932 0.48498052 0.4360938 0.44006032 0.5413216 0.58490264 0.54026455 0.51420134 0.42061183 0.2718045 0.6180353 0.5909855 0.4517882 0.8110579 0.72864485 0.6364118 0.8778988 0.8176875 0.7451369 0.63675517 0.5143138 0.32966256 0.34547713 0.31543693 0.26807043 0.15331274 0.5222968 0.60155064 0.6934325 0.8796412 0.8169333 0.66074914 0.43080458 0.37764615 0.34709802 0.32341525 0.47530687 0.57913065 0.6750674 0.68985105 0.8377562 0.74555314 0.6115588 0.44239727 0.36472 0.3322572 0.28094423 0.61336637 0.68176585 0.3523704 0.35453904 0.70347154 0.55178726 0.4144207 0.30669296 0.21531725 0.17374331 0.06295821 0.49521172 0.55694664 0.39711922 0.28273237 0.31742495 0.32736713 0.35614765 0.37659988 0.10147171 0.16068691 -0.4127382 -0.07729772 0.38678008 0.36458468 0.50833213 0.48835725 0.43526185 0.3682725 0.027120024 0.16312002 0.30162162 0.31337982 0.057092972 0.21947397 0.25510198 0.28405458 0.2409449 0.2777972 0.4832213 0.50397015 0.5064343 -0.017765423 -0.04815302 0.026087143 0.11744961 0.19039224 0.47924596 0.47134793 0.17739843 0.4793562 0.45032352 0.37449136 0.29261 0.40804487 0.32383496 0.35198683 0.009334978 0.3860538 0.4822616 -0.15773849 0.040992737 -0.26389226 0.09369537 0.08768144 -0.29574442 -0.2846954 0.5466049 0.43709636 0.3587317 0.17155568 0.5402237 0.16340068 0.5064186 0.49225754 0.13674587 0.4799399 0.43643677 0.21670666 0.4179763 0.281522 0.3391903 0.32636356 0.23337644 0.15184376 0.29238117 0.12984759 0.05744099 0.2533244 0.30066228 0.032496266 -0.12337398 0.21677732 -0.21492654 -0.23960374 0.2286253 0.27746835 -0.0042427424 0.40871716 0.139604 0.46733 0.47257122 -0.009626299 0.48743385 0.4461667 0.005485639 0.4696269 0.43809658 0.3663749 -0.42553878 -0.39973986 0.11795667 0.051711187 0.28720275 0.21346109 0.041275904 -0.08458189 -0.018225782 -0.46830344 -0.11591074 -0.15392318 -0.10663464 -0.022960655 0.06616115 0.12635183 0.023946054 0.0056342334 -0.038714267 -0.057960942 0.024729282 0.27951828 0.31671685 0.36199185 0.1677173 0.04046738 0.025299668 -0.004266694 0.22769427 0.36167374 0.42013475 0.39327562 0.0010825321 0.0041075014 -0.043495815 0.38568676 0.5193865 0.48465198 0.4521832 0.39750317 0.34229922 0.07903054 0.577466 0.5972098 0.27730167 0.5984888 0.35657015 0.34016156 0.58384883 0.4360746 0.57815796 0.50281584 0.56274235 0.58146447 0.5805491 0.6294228 0.66556597 0.67194617 0.64907193 0.5816228 0.57071054 0.69393814 0.705302 0.8525853 0.80931187 0.6973845 0.59570247 0.3175682 0.33283988 0.35350424 0.33520827 0.29417264 0.88170356 0.51445407 0.44770736 0.41222087 0.2