# vtk DataFile Version 2.0
Really cool data
ASCII
DATASET POLYDATA
POINTS 6786 float
-7.6165314 60.005165 17.9554
-7.6762447 59.89839 18.572294
-7.63712 59.81166 19.356337
-7.6733017 60.520927 17.889364
-7.7794037 60.44832 18.388212
-7.7277465 60.458263 19.119507
-7.576296 60.591312 19.942337
-7.6320677 61.190536 17.896822
-7.7224755 61.13768 18.491808
-7.6251745 61.327564 19.249933
-6.8719583 57.94543 19.804531
-6.7791853 57.8285 20.392223
-7.054972 59.292305 18.034998
-6.975249 58.9709 18.444492
-7.1907196 58.667 19.623644
-7.1478915 58.560406 20.374538
-6.9678793 58.662342 20.880434
-6.9161243 59.988 17.266872
-7.3781223 59.696747 17.901197
-7.461383 59.473286 18.638374
-7.4019084 59.410027 19.58649
-7.2521486 59.630543 20.47151
-6.9726624 59.558617 20.967255
-6.9801083 60.550545 17.150478
-7.4330463 60.375202 17.548092
-7.4131145 60.467335 20.299858
-6.9163103 60.638542 21.228699
-7.1859503 61.254723 17.290558
-7.3995333 61.430912 17.694368
-7.525618 61.69153 18.130968
-7.4758487 61.55126 19.26811
-7.235249 61.572598 20.415934
-6.8846025 61.428516 21.18718
-7.1414943 62.081367 17.764166
-7.2169223 62.177456 18.416592
-7.048915 62.218666 19.39111
-6.942001 61.99886 20.613821
-6.8116994 62.020668 20.9952
-6.7760525 62.65847 18.29159
-6.8552246 62.631344 19.065218
-6.51924 65.78254 12.921341
-6.5432706 66.11401 12.377583
-5.5368896 56.021393 19.058332
-5.645532 56.326023 18.931858
-5.6324906 56.631905 19.333689
-5.8866186 57.171574 20.959223
-5.7168784 57.896297 18.124811
-5.89646 57.329414 19.04909
-6.358184 57.625423 19.4431
-6.200817 57.831306 21.297861
-6.4274 59.129505 17.703949
-6.33266 58.73219 18.335196
-6.5039682 58.596523 21.333387
-5.956981 58.68745 21.842854
-6.443054 60.145462 16.992552
-6.764885 59.3362 17.637875
-6.615345 59.09935 21.314322
-6.1419883 59.111103 21.74766
-6.3977118 60.5323 16.829575
-5.9281135 60.85084 22.037773
-6.4063168 61.31981 16.84656
-6.08794 61.62729 22.091446
-6.6375437 61.878105 17.057045
-6.466337 62.442844 21.161604
-5.963069 62.320354 22.18462
-5.7496066 64.3518 13.213529
-6.0920844 62.94292 17.66416
-6.112901 62.968864 18.681316
-6.1286592 63.143463 20.276817
-5.8524895 63.31567 21.44259
-5.8054795 62.938084 22.111195
-6.0832024 65.110725 11.879269
-6.131832 64.84357 12.568946
-6.171418 64.86703 13.188302
-5.9771338 65.08576 14.284529
-5.916095 65.82277 11.183542
-6.1940675 65.67945 11.603521
-6.4119954 65.52249 12.562687
-6.376553 65.5802 13.269708
-5.9536176 65.494774 14.291209
-5.854204 66.43945 11.159957
-6.235031 66.37192 11.7067
-6.3928566 66.40206 12.497796
-6.338631 66.48668 13.080404
-6.0857725 66.12707 14.229949
-5.8294115 66.309235 15.130269
-5.7839327 66.81134 11.289926
-5.985066 66.951355 11.708403
-6.051421 67.16356 12.530434
-5.99715 67.204346 13.313029
-5.7709866 67.29182 14.30956
-5.616424 67.12993 15.205521
-5.6990213 67.769455 12.622841
-5.646344 67.85563 13.295999
-4.6936507 51.212013 20.012314
-4.7557683 51.11306 20.412352
-4.717284 51.194202 21.279526
-4.817079 51.5491 19.839571
-5.0574985 51.6825 20.592436
-4.938031 51.637672 21.337448
-4.7583966 51.830296 21.767809
-4.8569045 52.280464 19.682415
-5.1082277 52.390617 20.52316
-5.021724 52.319897 21.322916
-4.748453 52.29009 21.772823
-4.851981 53.180466 20.01565
-4.8229995 53.289547 20.7518
-4.9255505 55.023262 18.577864
-4.956018 55.06857 19.240824
-4.9562073 55.556904 17.874737
-5.226901 55.542255 18.513319
-5.369248 55.95638 19.22573
-4.9100695 55.79211 20.092606
-4.8502007 56.00492 21.188314
-4.8643546 56.86177 5.495671
-4.9886613 57.04123 6.2135262
-4.7685027 57.15883 7.116438
-4.9513817 56.729652 16.944239
-5.2450895 57.01475 17.876251
-5.441619 56.787926 21.355732
-4.6475015 58.192417 1.6774212
-5.0798426 57.558598 5.140827
-5.2195406 57.616932 5.703015
-5.2047505 57.61168 6.441147
-4.979813 57.698074 7.1763864
-4.7074733 57.777985 7.8786654
-4.9600954 57.408123 16.70582
-5.3104534 57.092884 17.937283
-5.550001 57.325603 21.714285
-5.3967805 57.49008 21.953436
-4.6470056 57.818035 22.959799
-4.826366 58.897232 1.0018486
-4.927403 58.742367 1.4815909
-4.895414 58.824757 2.361113
-4.5072722 58.318203 3.4780009
-4.894038 58.414597 4.822833
-5.2425427 58.336098 5.689578
-5.2632036 58.392357 6.279364
-4.959028 58.23366 7.3639154
-4.7007437 58.52706 8.023817
-5.048173 58.37591 17.163374
-5.144494 58.02138 17.336815
-5.2573338 58.29655 22.165607
-4.676767 58.32648 22.759792
-4.863406 59.48669 0.9305864
-5.1446023 59.4917 1.5097656
-5.1021485 59.61526 2.202478
-4.804573 59.359695 2.80563
-4.8750725 58.968567 4.9667034
-4.838906 59.330902 6.389644
-4.7853465 59.255577 7.418307
-4.7671905 59.02542 7.9410076
-5.0833006 59.542847 16.78209
-5.596854 59.41526 22.068464
-4.822422 60.05703 1.0292913
-5.027349 60.104652 1.6205959
-4.912828 60.19612 2.2267296
-5.4316483 60.607506 16.65318
-5.077419 61.52387 16.246029
-5.4843173 61.796143 22.573421
-5.247563 61.775383 22.741152
-4.8641706 63.32755 14.620931
-4.664208 62.614864 15.662456
-5.479285 62.4335 16.986809
-5.5826507 62.500942 22.6115
-5.2932534 62.48014 22.781652
-5.5061874 64.33131 12.535495
-5.5620856 64.242226 13.475845
-4.981644 63.917397 15.705853
-5.1041656 63.569736 17.98365
-5.5883317 63.36068 21.387802
-5.431494 63.462997 22.23216
-5.08629 62.990902 22.778084
-5.332432 65.17665 11.281391
-5.569758 64.84859 11.735566
-4.980298 64.111145 17.416065
-4.6389394 64.375916 18.265814
-4.9335494 64.79362 19.311357
-5.3828416 64.25935 20.325377
-5.2567725 64.529366 21.411034
-4.8799295 64.77473 21.818876
-5.41388 65.70084 11.004813
-4.9298134 65.36049 16.416203
-5.044856 65.34658 20.826654
-4.856717 65.283714 21.481272
-4.7977037 65.122406 21.75852
-5.3374233 66.467155 10.977497
-5.2853837 66.44807 15.892098
-4.740653 65.81617 20.65661
-4.6795588 65.92611 20.977427
-5.396507 66.97775 11.186881
-5.5140414 67.38102 11.614946
-5.569109 67.642334 14.245639
-5.213083 67.46373 15.423722
-5.2550416 66.9665 15.875177
-4.983052 68.05427 11.840979
-5.33844 68.12213 12.560213
-5.2779565 68.17522 13.360732
-5.1598363 68.03879 14.468356
-5.169617 67.68462 15.041845
-3.8464835 50.428867 20.506996
-3.9751515 51.195465 19.098818
-4.2764716 50.976498 19.72626
-4.2115903 50.64194 20.574457
-4.3516846 50.936543 21.35073
-4.283094 51.1479 21.730871
-4.18048 51.648785 19.05107
-4.529418 51.467693 19.407896
-4.628564 51.3628 21.56419
-4.390844 51.659645 21.934595
-4.396551 52.462643 19.108505
-4.523156 52.3359 21.952604
-4.2650547 53.263363 19.03241
-4.563779 53.49442 21.147284
-4.1615386 53.593124 21.860998
-4.603252 55.056747 17.879229
-4.4509797 54.52185 18.668224
-4.288505 54.26877 20.560074
-3.8074281 55.824966 3.6204476
-3.9073486 55.82223 4.531782
-4.085348 55.939224 5.360149
-4.121847 56.192757 6.5324674
-4.195473 56.058235 16.790918
-4.4822154 55.465702 20.60778
-3.7977655 55.66238 22.069834
-3.753557 57.26721 1.6507224
-3.8681943 56.78872 2.678883
-4.1062956 56.33316 3.7652786
-4.443106 56.449474 5.6797466
-4.480692 56.616726 6.530798
-4.4053707 56.897724 7.1472015
-4.063449 57.19645 8.308915
-4.438654 56.930805 16.278418
-4.603338 56.643394 16.559362
-4.314299 56.639664 22.56967
-3.8810036 56.719387 23.165
-4.2099705 58.071033 1.001701
-4.329157 57.918446 1.458151
-4.5577087 58.07739 2.0344055
-4.2534776 57.667072 3.6218395
-4.575693 57.33201 7.653682
-4.361697 57.608524 8.298834
-4.045978 57.841507 8.815323
-4.3906775 57.430782 16.174484
-4.4358172 57.62579 23.10794
-4.1000247 58.772984 0.37842917
-4.3778977 58.570015 0.707464
-4.603488 58.375767 1.2101502
-4.296019 58.19712 2.8474803
-4.517416 58.475147 8.447104
-3.9311206 58.21034 8.9455595
-4.0285077 58.65866 16.183224
-4.422089 58.396175 23.054926
-4.011586 58.36093 23.723839
-3.9875858 59.479214 0.3304
-4.479294 59.482376 0.56402564
-4.605358 59.83198 3.0140743
-4.580461 59.520863 6.021549
-4.494979 59.70539 7.6067486
-4.287407 59.461422 8.298131
-3.907172 59.48242 8.905536
-3.7895017 59.352264 15.948989
-4.3499756 59.332367 22.871548
-3.7463012 58.86246 23.719965
-4.3521338 60.322094 0.7875955
-4.530193 60.463646 2.7348013
-4.3222075 59.790813 5.787966
-4.3326163 59.95823 6.6126294
-4.2667403 60.03867 7.4135914
-3.8918216 60.051525 8.457957
-3.700749 59.980766 8.809122
-3.6834764 60.65779 15.080253
-4.841632 61.148373 22.695555
-4.074155 60.860622 0.99474996
-4.2056923 61.13299 1.644755
-4.083545 61.299732 2.3172855
-3.907786 60.81337 3.2873843
-3.707732 61.486908 14.946515
-3.7977598 61.664413 1.9458218
-3.693695 61.681305 2.4478617
-4.513945 62.686954 15.572974
-4.4796352 62.34361 23.013264
-4.6334157 64.076614 12.697715
-4.064437 63.505283 13.809223
-4.755075 63.609447 22.500883
-4.6716523 63.236557 22.813643
-4.423266 64.79702 11.658787
-4.3222857 64.617714 22.3347
-4.199243 64.017975 22.653023
-4.6530237 65.50327 11.025642
-4.3796053 65.12449 18.465094
-4.5886245 65.665474 19.61524
-4.618974 65.57874 21.567314
-4.2918096 65.38015 21.965607
-4.6301565 66.53607 11.032809
-4.136364 65.82647 18.979395
-4.0847926 65.894005 19.356848
-4.1863484 66.141174 20.517885
-4.29896 65.94385 21.419777
-4.016028 65.80807 21.82246
-4.413565 67.45607 11.321214
-4.3752623 67.42757 16.049938
-4.541233 68.17782 11.669819
-4.7451353 68.48248 13.770482
-4.187432 68.458015 14.047861
-4.234654 68.10921 15.184508
-4.492896 67.69989 15.823122
-4.301379 68.7112 12.120579
-4.3281546 68.812 12.564446
-4.232091 68.7124 13.682466
-3.4019127 50.317146 20.613338
-3.3884254 50.359074 21.182707
-3.5784943 50.963173 19.177588
-3.5786035 50.603855 19.668734
-3.37503 50.556038 21.465694
-3.504838 50.898308 21.828192
-2.7966697 51.63225 18.359867
-3.6431773 51.555054 18.764977
-3.4706469 51.801044 22.297989
-3.4098215 52.452396 22.50483
-3.1649356 52.74428 22.560476
-3.6582935 53.221325 22.326294
-3.0788414 53.533405 22.705368
-2.983088 55.25362 3.1140022
-3.2199926 55.267056 3.6148398
-3.211512 55.24621 4.483541
-3.231607 55.290962 5.436628
-3.195249 55.299774 6.004241
-2.5604208 54.796997 12.828223
-3.4716797 54.038868 22.278757
-3.3488948 55.72769 2.8714836
-3.4999735 55.560287 3.3352363
-3.4912152 55.553333 4.520197
[...]
POINT_DATA 6786
SCALARS features_00 float 1
LOOKUP_TABLE default
0.57318944 0.5654688 0.53605807 0.6065144 0.6015926 0.57540727 0.5108153 0.6248857 0.61163044 0.5631473 0.38817763 0.400504 0.46321172 0.41857868 0.4523278 0.4476476 0.4133494 0.5038028 0.53399575 0.51948714 0.50400186 0.46449608 0.4139595 0.5565331 0.58584815 0.47831577 0.39733177 0.6062435 0.6216252 0.6108662 0.55059016 0.44616038 0.40377575 0.58653593 0.559834 0.4803893 0.40711606 0.396549 0.48075414 0.44732216 0.70427287 0.7634189 0.25885877 0.25609177 0.24615788 0.3063457 0.18076909 0.23028928 0.29053918 0.31943065 0.34481263 0.29337728 0.34351033 0.26046216 0.44393754 0.42206037 0.35607946 0.2718167 0.46424967 0.3193231 0.51277447 0.39020908 0.5632237 0.38445628 0.4125404 0.5869894 0.3883047 0.3099606 0.3236447 0.3908405 0.41756058 0.81128263 0.7233808 0.6618352 0.5400871 0.8380147 0.835912 0.7494458 0.6680678 0.56156534 0.79640937 0.8002331 0.7395621 0.66056824 0.5728303 0.48411876 0.757278 0.7464666 0.6905999 0.5994104 0.52234113 0.48867983 0.63729304 0.5671309 0.7118918 0.7470775 0.7460216 0.69077235 0.76106566 0.7443621 0.70435023 0.64686674 0.73831403 0.7216996 0.6793169 0.56073684 0.6183299 0.22870114 0.2120059 0.2836644 0.25772363 0.2548264 0.19705981 0.18782489 0.45733383 0.501421 0.4987045 0.26897317 0.24767673 0.24262822 0.5611447 0.4576285 0.518631 0.5367996 0.53318036 0.5219013 0.22347966 0.23959541 0.24795592 0.24003431 0.28913173 0.67688215 0.64851 0.57931244 0.32060644 0.41709548 0.54692554 0.58490413 0.56091666 0.5435117 0.15063968 0.18580508 0.23159106 0.27256694 0.73215765 0.73750997 0.698411 0.575836 0.42762214 0.5697428 0.56214386 0.5442426 0.10034396 0.19427238 0.78335595 0.79639643 0.7402822 0.24803165 0.069823205 0.3995394 0.39162767 0.049870566 -0.17675728 0.35824904 0.43056783 0.43163842 0.6488501 0.51559114 0.13228482 0.07486341 0.39686137 0.4351483 0.44347608 0.7999371 0.79098994 -0.10294382 0.036635634 0.28826943 0.3784513 0.46334934 0.50288373 0.80421066 0.29522374 0.52427626 0.5430874 0.53289187 0.74452734 0.44364333 0.5785327 0.5954065 0.70970464 0.6875646 0.50928473 0.46824777 0.45227695 0.6277739 0.62196887 0.55055535 0.4795541 0.47379816 0.7182286 0.52457076 0.6560238 0.7345084 0.73254824 0.7029594 0.52007574 0.6152866 0.7300655 0.6735972 0.5166546 0.64948833 0.3537535 0.5724379 0.512745 0.2667607 0.16179293 0.23705913 0.36442593 0.36046293 0.37230703 0.41733718 0.27155674 0.10499572 0.105072476 0.40567935 0.3660464 0.36141932 0.42373163 0.45707282 0.46609434 0.44302693 0.20585486 0.25096858 0.23324156 0.2731569 0.55789244 0.52612674 0.5136657 0.2847269 0.49444348 0.48817968 0.46680897 0.16465378 0.31069458 0.6173831 0.6248666 0.6100951 0.42428333 0.5219816 0.47299236 0.0100430995 0.31280404 0.36862296 0.66155195 0.7070808 0.5826633 0.5269036 0.51683855 0.49227265 0.42763177 -0.08295778 0.26650387 0.3606838 0.7584003 0.65701056 0.44732198 0.47484416 0.48015162 0.4285267 0.38528198 -0.1267684 0.29822832 0.7323428 0.7060143 0.6285042 0.51430494 -0.1231726 0.63332975 0.5863055 -0.16942179 0.3916353 0.4625352 0.0077614933 0.45309448 0.44279414 0.6122332 0.50320613 0.46183848 0.70244324 0.17569879 0.49143964 0.57620335 0.56546926 0.6472503 0.41954744 0.51287985 0.63066053 0.6135866 0.60385746 0.57843506 0.35704982 0.5944978 0.5044229 0.4381376 0.3845583 0.38733745 0.59589624 0.59883815 0.4909576 0.686447 0.67714524 0.48767126 0.5920118 0.6595393 0.6454017 0.20301624 0.40708345 0.5556309 0.48183835 0.41286892 0.47246885 0.29344833 0.3117574 0.33343738 0.32661945 0.32291457 0.32590705 0.24632794 0.28183946 0.3265053 0.3479108 0.34597078 0.34410363 0.35281694 0.35684526 0.23422633 0.010991372 -0.0790763 0.18663234 0.319494 0.3673448 0.35112143 -0.034621574 0.1132099 0.2109037 0.4758505 0.37075493 -0.12274534 0.06219818 0.36208555 0.5601462 0.42841822 -0.112762205 0.36923766 0.60443795 0.121915504 -0.074040726 -0.118167795 -0.11137874 0.3129805 0.34788305 0.64166015 0.30941033 0.19367564 0.05935349 -0.010664985 -0.16881146 0.16298236 0.6404196 0.66101825 0.5437146 0.4431866 0.13549829 0.2561281 0.29208162 0.09634049 0.087018885 -0.14881869 0.6169249 0.6225574 0.557837 0.5195741 0.17709775 0.13537526 0.10979049 -0.18197739 0.37951028 0.19434096 0.15342438 -0.11231181 0.3942092 0.1035039 0.49755123 0.4552362 0.53473854 0.56204104 0.53674626 0.62567604 0.66490215 0.6529813 0.6146039 0.40205714 0.2776788 0.13858745 0.116402864 0.4979866 0.24021928 0.2894049 0.22536044 0.5291232 0.4511679 0.58218324 0.12788357 0.32770222 -0.008112691 0.38547367 0.19018027 0.16956899 0.15631963 0.11418693 0.124418765 0.21417099 0.23538823 0.21901065 0.20802681 0.1357719 0.019275658 0.10631342 0.23799296 0.25229514 0.27889854 0.25399488 0.2910368 0.2544799 0.21236698 0.27367395 0.2603279 0.21031234 0.14536244 0.14544892 0.3502407 0.40132937 0.23359993 0.2793368 0.117443845 0.19311142 0.23585644 0.27607456 0.41726753 0.23288102 0.076871045 0.103850126 0.1451226 0.3141523 0.3846264 0.34094906 0.37319604 0.25011358 -0.1569204 0.3035614 0.3106014 0.34809396 -0.1370162 -0.12339807 0.36307147 0.40801784 -0.15079418 -0.15152413 0.3157412 0.46818405 0.045897663 0.44503355 0.48879677 0.09584063 0.011411317 0.10557981 0.16623855 -0.17163329 0.042136382 0.503917 0.57922447 0.5314055 0.46346062 0.22814104 0.1810546 0.18323019 0.30347824 0.19980301 0.42334795 0.38081902 -0.042860474 0.53850657 -0.017502498 0.6265123 0.6003505 0.58848286 -0.045780286 -0.06643744 -0.13809198 0.30161214 0.1882355 0.0075541725 0.43817198 0.34500945 0.28924114 -0.10658561 0.46910763 0.41563603 0.51567847 0.47069755 0.47462755 0.56046104 0.64358914 0.6555024 0.59866166 0.67276454 0.6700555 0.30955172 0.040324725 0.15110016 0.07306141 0.056264143 -0.008648559 0.012674116 0.033245035 0.05323296 0.08701111 0.07161527 -0.034068376 -0.08895849 0.22976501 0.34872493 0.2720459 0.15550879 0.08343623 0.13509887 0.07223811 0.2651682 0.18962263 0.089679316 0.051730856 0.28627396 0.35225064 0.022417426 0.15632203 0.15415312 -0.0200818 -0.076795794 0.38476488 0.41247255 0.047530606 0.121160306 0.17392762 -0.23987229 0.41817674 0.41680408 0.16480686 0.16469751 -0.11652314 -0.017658785 0.3905662 0.20807143 -0.45668286 -0.14029768 0.2773916 0.34463486 0.23894668 -0.27489617 -0.11508296 0.16550852 0.3354321 0.27354288 0.16999888 0.3284243 -0.03239159 0.27551907 0.38106048 0.015895214 0.48454297 0.42181122 0.1558447 0.026701123 -0.051824376 -0.11823437 0.039516002 0.09729035 0.11968909 0.10859947 0.15663174 0.10766809 0.36639854 0.03272324 -0.0048717484 0.42909205 0.5096407 -0.024182953 0.49963275 0.49637073 0.21518147 0.01298409 0.31062326 -0.0010587126 0.078683935 0.12342654 0.41986823 0.52653307 0.544314 0.3476994 0.65205085 0.6415914 0.63104534 0.63704383 0.5837648 0.7175776 0.74312556 0.72854155 0.7020607 0.6758328 0.590747 0.6292294 0.59048533 0.5530766 0.6176994 0.6537466 0.6192901 0.6144059 0.6565215 0.616321 0.51225835 0.587725 0.537375 0.33646655 0.3665285 0.36728176 0.3312451 0.42077386 -0.06497912 -0.039209407 0.060640704 0.33128613 0.30231005 0.3205062 0.3305564 0.32593864 -0.01435128 0.026311506 -0.023179226 -0.030220345 0.24857387 0.32356992 -0.027975082 0.03244885 0.059652448 0.17264146 0.36377114 0.3748144 0.33146328 0.17736301 0.01116379 -0.027745847 -0.05599636 0.37108618 0.3841838 0.20772031 0.02668487 -0.023432927 -0.013282536 0.1735043 0.16161022 0.10207873 0.016384035 0.18100518 0.30061704 0.45136496 0.2566382 0.12228876 0.1132647 0.07898947 -0.03949727 -0.026418947 -0.09072086 -0.083293796 0.36152747 0.38836443 0.6049231 0.5644026 0.19155803 0.10820815 0.06424491 0.08298519 0.40760937 0.61314976 0.57848835 0.48260564 -0.09021016 0.37140757 0.07876368 0.18116195 0.09834374 0.08319391 0.12876251 0.13877258 0.19496454 0.2234377 0.048368845 0.139446 0.145416 0.12510538 0.089943506 -0.07529272 0.17616628 0.020601176 0.023022123 -0.02088876 0.14695905 0.100702226 0.21441609 0.24830982 0.29987395 0.1802457 0.299045 0.372751 0.39739734 0.11432568 0.21370016 0.26614794 0.6074766 0.7122137 0.6336628 0.7437363 0.76096535 0.78268623 0.75486374 0.7220509 0.69781315 0.7509874 0.737154 0.8547359 0.82295823 0.7822128 0.75479054 0.75386274 0.7344943 0.6654799 0.4550245 0.4918567 0.48600113 0.43521246 0.4816658 0.5025613 0.48336694 0.3997147 0.40358207 0.4390794 0.50968826 0.50690305 0.13233705 0.4726119 0.4972672 0.3951009 0.4763186 0.51520497 0.3776187 0.32286984 0.36945134 0.3204688 0.30688643 0.43431228 0.5098895 0.29628047 -0.095585436 -0.094526336 0.10609448 0.30571282 0.36024308 0.33123592 0.32611275 0.32228127 0.30510044 0.42738175 0.23868784 -0.048031893 -0.070723325 0.032471284 0.33020034 0.32832602 0.33480337 0.1898352 -0.083614364 0.3223858 0.2618672 0.101567134 0.24951592 0.3123168 0.13814513 0.15047207 0.13189283 0.13487235 0.095454425 0.008405691 0.20484248 0.31546956 0.029387351 0.2331051 0.16412796 0.13514093 0.14573011 0.13537955 0.02968688 -0.10948324 -0.15025786 -0.24779469 0.20602521 0.5547997 0.55824435 0.5079372 0.30949846 0.17343934 0.26101768 0.5984607 0.6123649 0.30041376 0.2979696 0.43693677 0.5894543 0.6112845 0.51851785 0.31229997 0.16369435 0.427284 0.4473836 0.5810939 0.54355466 0.4725463 0.46764165 0.027698863 -0.2929247 0.062359765 -0.14094807 -0.25878173 0.057836503 -0.007195648 0.059633255 0.07359372 0.063913256 0.15005791 0.06143406 0.020445496 0.0039007775 0.18940388 0.07140728 0.2982683 -0.11284608 -0.0842354 0.14635006 0.256527 -0.047845256 -0.34504312 -0.11129747 0.2233623 0.15884736 0.32225108 0.21339661 0.3992538 0.35710075 0.36020732 0.579947 0.3656336 0.38180012 0.4344773 0.70774823 0.6111207 0.31608027 0.43395162 0.44930884 0.7514123 0.758654 0.7491791 0.694729 0.6983552 0.9024693 0.93066704 0.89175546 0.8171183 0.878894 0.90640426 0.836691 0.76829183 0.7264753 0.8177476 0.7220893 0.69140625 0.645416 0.6679812 0.59687364 0.5872318 0.5778552 0.4253493 0.36857188 0.34325734 0.42257392 0.42311814 0.4401121 0.36211044 0.12020958 0.46354458 0.47465146 0.2536215 0.43860045 0.26218998 0.15870064 0.2008057 0.32250988 0.25847375 0.16440135 0.44737855 0.42142373 0.097003564 0.11652077 0.46078393 0.06713697 -0.021035584 0.4555335 0.13273527 -0.087429635 0.27576613 0.32691622 0.28881258 0.2799219 0.2874939 0.39548594 -0.19032307 -0.11506513 -0.11174931 -0.13747126 0.27856928 0.29349628 0.9521733 0.9413291 0.89792573 0.32554877 0.9339071 0.9432218 0.9007914 0.7612966 -0.03971398 0.29165065 0.35455585 0.8914725 0.87436724 0.83213264 0.65101767 0.2147158 0.251295 0.23696598 0.15905805 0.02184841 0.27634835 0.8061303 0.7780324 0.7491337 0.100538686 0.15989257 0.1818779 0.17103067 0.14861515 0.18329525 0.2266201 0.2118593 0.14534342 0.22463879 -0.13409013 0.07950355 0.13161552 0.15046296 0.14036849 0.054878727 0.15429224 0.1004697 0.044795737 0.10716275 0.37765503 0.18844144 0.33076796 0.5085275 0.44467467 0.46535826 0.5200275 0.4648292 0.46838397 0.52178305 0.44532067 0.24039774 0.18957707 0.29218256 0.48742718 0.46922088 -0.067369156 -0.09930895 -0.2763119 0.26827854 0.45775086 0.4966628 0.48152116 0.011512771 -0.23738733 0.43013704 0.16451827 0.08281115 0.16656847 0.057991616 0.050077993 -0.121656105 0.2540109 0.022756109 -0.19813612 0.3262019 0.30285102 0.19463043 0.19846666 -0.2709168 -0.26490065 0.1878154 0.29828694 0.3370465 0.042692684 -0.15801701 0.3003552 -0.34158498 0.3531217 -0.056217898 0.09944318 0.40844178 0.24423833 0.5097869 0.5015036 0.7044556 0.67882764 0.50488496 0.32336667 0.25689456 0.4318915 0.49534172 0.5647963 0.73331904 0.6910813 0.83606935 0.90016997 0.9109533 0.8289429 0.74689907 0.7002007 0.80421597 0.6854131 0.63001204 0.61239386 0.6090561 0.5711895 0.45621777 0.4649123 0.5450324 0.38431764 0.42268777 0.24604496 0.3566259 0.4315557 0.39509907 0.3921755 0.1266936 0.20998468 0.24151435 0.3095747 0.14570427 0.121513404 0.34407645 0.4125828 0.38337296 0.02871 0.42749995 0.43622613 -0.0031051934 -0.06465989 0.16850653 0.1699292 0.41512132 0.033249795 0.21266797 0.24286646 0.1753795 0.34711885 0.36205053 0.80084336 0.3422346 0.1742116 0.2574638 0.33750504 0.31947044 0.928725 0.91270244 0.8357338 0.7269958 0.59954596 0.2386064 0.23883988 0.34897885 0.38741148 0.33749524 0.91482484 0.6690397 0.56922364 0.42862514 0.4297672 0.8610315 0.45608664 0.27860478 0.22572549 0.26138708 0.2814778 0.31614515 0.26655495 0.2511543 0.04431063 0.30589134 0.38564304 0.41500953 0.76471364 0.55947137 0.25173822 0.23101774 0.16378172 0.10372599 0.20256183 0.2669556 0.4108327 0.28300482 0.042592168 -0.4754495 -0.117793895 0.16170448 0.12530932 0.22723842 0.2248553 0.41751808 0.3442418 0.45613 0.32669657 0.4375177 0.20179366 0.44462425 0.05534678 -0.123113625 0.03903196 0.48597464 0.4557852 -0.038198426 -0.031570606 -0.09824002 0.3504063 0.44553936 0.46672475 0.45747387 0.16266453 -0.10458398 0.16657999 0.15985174 0.16063316 0.1096562 0.21093066 0.07230502 0.058054276 0.26242656 0.2807544 0.15502237 0.20298536 0.21406943 -0.03975373 -0.18430069 0.12799498 0.29024208 0.21760061 0.21477747 0.15822211 -0.3063914 -0.18853325 -0.18059748 0.050329745 0.23749302 0.17814264 0.23949748 0.36574775 0.2643991 0.2463397 0.047789596 0.43878427 0.25030905 0.20292825 0.12435055 0.59376615 -0.07981898 0.03704983 0.6321989 0.6501789 -0.11691338 0.08135006 0.20057476 0.4966394 0.61289924 0.6418746 0.6877259 0.7540374 0.80234563 0.83436924 0.74870384 0.68625814 0.6227216 0.69199216 0.6601026 0.63534653 0.51961696 0.6124562 0.4719608 0.537835 0.43790412 0.4051637 0.31138927 0.3243047 0.353784 0.2746836 0.27524412 0.31774235 0.13171521 0.1771499 0.21736103 0.19550787 0.05932664 0.3455266 0.33066216 0.35948074 -0.077247016 0.36702234 -0.10977793 -0.074723884 0.07683669 0.081108235 0.083614245 0.37463218 0.36847237 -0.14965305 0.110997215 0.29045588 0.36386275 0.35929322 0.33474118 0.8083067 0.76126724 0.6529176 0.29513445 0.3487051 0.31848675 0.84908825 0.8188083 0.66948277 0.56274116 0.49318862 0.22806282 0.29517037 0.3157544 0.8483074 0.31532165 0.35888055 0.3366619 0.24506474 0.2817873 0.34344983 0.83345926 0.7976959 0.17402972 0.31177473 0.29235423 -0.2949494 0.33870396 0.2465208 0.6988526 0.2016182 0.13849485 0.2846968 0.25418502 0.3959914 0.120971546 0.17645402 0.18432318 0.21949181 0.24571049 0.22101113 0.2893481 0.25550726 0.050757516 0.24651887 0.25916696 0.49398944 0.4196061 0.42486453 0.56690615 0.45132118 0.3536154 0.56316996 0.4977905 0.2903564 0.13680187 0.26374596 0.27155775 0.08572668 -0.08361057 0.32912982 -0.09862954 0.08114459 -0.2508521 0.32648116 0.41403267 0.38590717 0.008359443 -0.1285506 0.11891265 0.1268747 -0.020749152 0.05777653 0.123371825 0.098115064 0.043521285 -0.06260588 0.043215327 0.020475723 0.22360975 0.11236212 -0.28146443 0.18432742 0.17956989 0.16967839 0.0008150134 -0.22027823 -0.23544027 -0.013931163 0.07984322 0.07329953 0.04104639 -0.056185827 0.08693951 0.10738573 0.21165362 0.0029135272 0.08854752 0.13564554 0.3174148 0.17798533 0.1945871 0.22129492 0.24225491 0.51447356 0.21649894 0.23047289 0.23166223 0.2420114 0.1593341 -0.16220091 0.68154156 0.20456527 0.1953061 -0.08075808 0.7163697 0.06330784 0.08745946 0.16002762 0.19434059 0.39603758 0.7012646 0.73662245 0.74720037 0.64683455 0.6394156 0.60632133 0.5721649 0.5780374 0.6151217 0.6273105 0.639009 0.51237357 0.5118768 0.63586223 0.62228656 0.47414875 0.604004 0.38296437 0.48105168 0.072328486 0.38027692 0.15480462 0.3161381 0.06389765 0.26837054 0.2771635 0.045323722 -0.039268084 0.18551494 0.28500044 -0.16974752 -0.039343175 0.021809448 -0.06084176 0.07647155 0.2046597 0.25553897 0.25993812 0.04510327 0.36270764 0.31649163 0.6780298 0.6182198 0.22083327 0.2841389 0.2817718 0.24382341 0.73491 0.70928365 0.66080177 0.611005 0.53417456 0.3348316 0.12990329 0.30011436 0.41706043 0.56896937 0.70271206 0.30332485 0.32501525 0.34718904 0.3434699 0.27889118 0.14699122 0.23059596 0.28122386 0.015298449 0.06938248 0.4349622 0.6472794 0.18646893 0.26194838 0.5650891 0.25621513 0.41321665 0.27013373 0.35243648 0.1893985 0.43624538 0.43607774 0.30355406 0.50776225 0.5538898 0.5061362 0.6300342 0.35030988 0.46798742 0.59871316 0.540306 0.1642067 0.33110237 0.43039864 0.18619096 0.14086619 0.09229131 -0.038970113 -0.107664265 0.11737897 0.24117556 0.22445324 -0.08876751 -0.067612156 0.37196112 0.31268352 0.00448706 -0.01712351 0.35051334 0.29513147 0.16580372 0.2320874 0.1157873 -0.037782438 0.12285434 0.24627522 0.20632401 0.0927365 -0.030047774 -0.29889137 -0.06077168 -0.0059108716 -0.016121805 0.31767032 0.24204184 0.16215757 0.3884694 0.33018303 0.18288152 0.010318756 0.02256233 0.061580386 0.4686401 0.47980574 0.4591349 0.35593063 0.007936964 0.021980494 0.101320304 0.22238147 0.28878826 0.5099808 0.49356794 0.37838334 0.1500435 0.492446 0.14763287 0.2203688 0.23387377 0.23106731 0.64876604 0.23366585 0.22293976 0.18237813 0.14658424 0.115304954 -0.086868 -0.009437442 0.74787086 0.7425087 0.09057108 0.16073185 0.20029922 0.20871489 0.2239775 0.5767813 0.7012074 0.764751 0.76388294 0.47523922 0.49005064 0.52902186 0.59078026 0.6208857 0.48324 0.4553676 0.4259343 0.6243127 0.6210626 0.45951724 0.61446965 0.374597 0.36111718 0.56478345 0.15687159 0.4443791 -0.045202345 -0.15593916 0.37123337 0.8021995 0.78856015 0.29290625 0.5445712 0.6913577 0.7449131 0.72588664 0.10550164 0.37994725 0.4565371 0.5719554 0.63631916 0.12666792 0.07860879 -0.0021522194 0.24563041 0.16682564 0.30755365 0.3514269 0.4437993 0.14504583 0.09842773 0.32071137 0.16329591 0.24949358 0.11398098 0.1198293 0.24368507 0.39818236 0.6004586 0.66699386 0.57163996 0.5825678 0.54130363 0.46817824 0.07057051 0.63620675 0.67488694 0.54470974 0.50700545 0.2876426 0.29201782 0.31291154 0.31051522 -0.032351196 0.07160931 -0.10982737 -0.11492386 0.51588535 0.6049167 0.45917118 0.41363406 0.20923372 0.49650234 0.4133837 0.32562888 0.41843382 0.49720085 0.46450633 0.49403793 0.49826035 0.63712585 0.5034391 0.5020602 0.6710005 0.46909034 0.48454866 0.6666069 0.034915164 0.18949027 0.39672235 0.56811404 0.35457975 0.041405357 0.1731226 0.33733225 0.28498966 -0.19666255 0.34193245 0.41589338 0.38582987 0.36235523 0.2242191 0.1979157 0.3306076 -0.22926301 -0.10314765 0.22721046 0.3140174 0.32713833 0.28277105 0.2675257 -0.5819727 0.12481816 0.2310459 0.28382453 -0.2516428 0.34885627 0.36827365 -0.1998153 0.3917843 0.46041477 0.014949596 -0.111888595 0.53012055 0.533112 0.50812757 0.45143202 0.20423914 0.03662642 0.43917626 0.5282439 0.54143023 0.5104567 0.13461348 0.21119034 0.24148946 0.44374114 0.62205255 0.6242188 0.20544614 0.21874386 0.14697349 0.110017926 -0.04258727 -0.12102162 0.16972731 0.44100246 0.69115615 0.6964827 0.15748283 0.08789819 0.06454257 0.017635848 -0.074388206 0.0016907305 0.11682294 0.21242583 0.21200356 0.51267564 0.63536394 0.45503333 0.5106382 0.56506944 0.40974048 0.40448266 0.47278693 0.5420885 0.61134964 0.40691113 0.37025344 0.3829448 0.607311 0.6063548 0.22309552 0.3174423 0.5399816 -0.100843035 0.08777399 0.4448393 0.18495595 -0.13033134 0.33867025 0.8528528 0.84108543 0.79989415 0.7672961 0.17005172 0.12606837 0.22158605 0.39781573 0.62744886 0.75675994 0.72702575 0.010396935 0.36074936 0.6446824 0.10353566 0.3632952 0.5029326 0.14324877 0.107029706 0.00955908 0.048911136 0.12255742 0.46409723 0.6335905 0.6952388 0.7135003 0.44607365 -0.012319922 -0.07835316 0.7122444 0.3981444 0.34683484 0.33323908 0.31504044 0.30974126 0.2862296 0.23015177 -0.034038708 -0.03738394 -0.1355846 0.68228924 0.3699669 0.3604635 0.02396439 0.057753347 -0.18658221 0.5510906 0.3160872 0.38084182 0.28596503 0.30945817 0.3511795 0.35450757 0.39384097 0.53030014 0.43099487 0.6028422 0.43663484 0.4643326 0.6677573 0.41112703 0.637928 0.5891285 0.21384928 0.3945313 0.2865362 0.16131788 0.0592478 -0.018669337 0.29831886 0.26558486 0.22531486 0.4585665 0.4277305 0.33559066 0.35810465 0.43928885 0.48385268 0.46684864 0.36485788 0.26328877 0.2925375 -0.40741217 0.053973444 0.33286732 0.3168648 0.25468904 -0.0096693225 0.16353732 0.3124972 0.32468665 0.2498919 -0.15606746 0.29774487 0.45919025 0.5062395 0.5536945 0.35126537 0.5642464 0.524059 0.45912915 0.36302254 0.029632634 0.12077859 0.077803284 0.073029175 0.08082657 -0.04118696 -0.0016935