# vtk DataFile Version 2.0
Really cool data
ASCII
DATASET POLYDATA
POINTS 1652 float
8.348868 42.21799 4.7913046
8.282835 42.157475 5.2623043
8.340786 42.911846 4.2110863
8.223556 42.622272 4.733401
8.16344 42.636333 5.4545727
8.280891 42.73766 5.937148
8.364397 43.378166 4.1446123
8.174341 43.34945 4.664498
8.141727 43.372334 5.457258
8.268432 43.213066 5.887473
8.363669 44.0106 4.690505
8.309067 43.96098 5.2632203
9.360079 36.16229 4.142785
9.366787 35.82369 4.6330557
9.413171 35.77546 5.4444504
9.367931 36.58245 3.834105
9.196973 36.495525 4.6396484
9.32093 36.3925 5.4846582
9.210069 37.470707 3.8880777
9.160589 37.535217 4.493791
9.301338 37.441517 5.1116285
9.332266 37.94253 3.850261
9.256012 37.926136 4.195064
9.298615 37.880085 4.960548
9.101843 42.16941 3.8957129
8.716429 41.83167 4.6485944
8.65179 41.928604 5.4361186
8.815012 42.18627 6.1597395
8.688631 42.714523 3.9115543
8.50059 42.453056 4.2753234
8.596018 42.60334 6.183482
9.11249 42.563602 6.6180177
9.318278 43.968456 -6.978098
9.234305 43.83667 -6.5262303
9.255247 43.947796 -5.421124
8.64784 43.445133 3.8306723
8.634083 43.39689 6.2256184
9.271721 44.49034 -6.979494
9.077386 44.668407 -6.421816
9.060782 44.652706 -5.545474
9.287714 44.719612 -4.931069
8.852921 44.078594 3.9331088
8.605233 44.219944 4.578081
8.702675 44.37092 5.4763603
8.871227 44.162952 6.0964813
9.330853 45.059887 -6.891482
9.175165 45.303444 -6.2468634
9.193065 45.410645 -5.558247
9.268441 45.29136 -5.0814095
9.226575 44.797596 5.3563786
9.323532 45.75661 -6.0305834
9.223039 45.74058 -5.6269326
10.080724 35.085236 4.040069
9.920268 35.009747 4.782705
9.853024 35.14045 5.4891677
9.9439335 35.200203 5.8231792
9.495374 35.959164 3.9868584
9.543231 35.506054 4.7433553
9.5357485 35.599125 5.423863
9.792007 35.64623 6.0277085
9.977839 36.643112 3.0633385
9.670122 36.32282 3.512377
9.427051 36.763622 5.6905627
9.857649 36.42641 6.1842637
9.563228 37.11755 3.4097924
9.470969 37.365147 5.4035244
9.955777 37.102596 6.0207615
9.711273 38.22269 3.732259
9.918862 37.875698 5.4582024
10.385589 41.268867 -6.968921
9.384241 41.32509 5.4686255
10.046278 41.18803 6.257647
10.195844 42.03662 -7.816333
10.205246 41.768555 -7.4447637
10.241431 41.488903 -6.691417
10.155329 42.21357 -5.853354
10.132446 41.896164 3.419567
10.051208 41.78945 3.545115
9.797261 41.607864 6.325284
10.09173 42.10272 6.8140135
10.275367 42.24301 -7.9175453
10.015994 42.65638 -7.59309
9.886777 42.698483 -6.568859
9.83982 42.958744 -5.756608
10.196279 42.9927 -4.776306
9.460558 42.418503 6.6516995
9.631655 43.649746 -7.3076696
9.425571 43.524193 -5.5210342
9.764524 43.521755 -4.9280066
9.472127 43.30814 3.2832742
9.230027 43.40359 6.700274
9.853228 44.326153 -7.6341224
9.55559 44.460674 -7.38931
9.567284 44.706894 -4.456499
10.181729 44.59664 -3.5170174
9.730965 44.156517 6.533287
9.681807 45.216053 -7.0905046
9.55502 45.546158 -6.6567254
9.412919 45.69168 -5.234674
9.517655 45.337074 -4.7013755
10.163395 45.33552 -3.7664452
9.295732 44.75405 5.7785435
9.364406 44.789055 5.8672504
10.007458 45.664684 -6.8517504
9.675137 45.839752 -6.2579865
9.627367 45.95641 -5.603897
9.699548 45.88845 -5.052324
10.928448 34.19857 3.1910079
11.043323 34.17381 4.423498
11.062909 34.804523 1.9259627
10.748163 34.53839 2.850719
10.476973 34.678993 3.2595606
10.428922 34.609974 4.636453
10.38812 34.78878 5.464088
10.484432 35.0843 5.99981
10.814528 35.246033 1.9897813
10.57634 35.594944 6.3432503
10.527892 36.21724 6.46567
10.253093 37.33606 2.9124348
10.447581 37.00991 6.2029996
10.534497 38.425262 5.1151357
10.182187 38.763298 3.8736906
11.230903 40.811577 -8.17414
10.606796 41.038536 -7.1812778
10.480561 41.21531 -6.3013783
10.902399 40.815567 4.0201893
10.697577 40.647892 5.265407
10.744182 40.838337 6.0060325
11.184835 41.878513 -8.75016
10.752044 41.592712 -8.176045
10.677383 41.524754 -5.9314933
11.167659 41.968895 -2.8551207
11.208002 41.821148 -1.4295309
10.584528 41.782635 6.882673
10.52754 42.81913 -8.292408
10.844252 42.746655 -4.151837
10.691379 42.900707 -2.711325
10.806105 42.52833 -1.7125517
11.264103 42.524376 -0.8807124
10.283174 42.815228 3.1894236
10.461523 42.649487 6.9767056
10.491027 43.476353 -8.25333
10.730816 43.35796 -2.5147328
10.8885975 43.446236 -1.7414849
10.213059 43.41437 6.8289437
10.275416 44.592686 -7.7218533
10.483147 44.447117 -3.0067945
10.863546 43.799717 -1.8567392
11.028929 44.266796 6.649083
10.876821 44.876328 -7.645951
10.533606 45.292427 -7.3427467
10.415798 45.38832 -3.3490734
10.748123 45.036213 -2.876793
10.820289 45.048717 6.0446353
10.242029 45.756958 -6.83126
10.321404 46.12667 -6.160441
10.462816 46.226463 -5.8347445
10.780669 46.03492 -3.8381932
10.953973 45.83869 -3.1904554
11.347044 47.673397 6.39199
11.32304 47.999462 6.1583934
12.432057 31.63138 -0.7981111
12.330381 33.07728 -4.4996924
12.369935 32.20648 -0.014809601
12.292371 32.365135 0.7452239
12.056844 32.92716 1.3141619
11.870251 33.291492 3.4066012
12.183135 33.87601 -4.3097534
12.163556 33.371304 -3.7748234
12.381577 33.740948 -2.353537
11.647523 33.75867 2.3966825
11.621204 33.926174 4.646684
12.458699 34.6859 -9.278546
11.922118 34.379135 -3.7184474
11.822098 34.92995 -2.5078454
12.336537 34.126083 -0.85705775
11.325918 34.687595 5.53798
11.37731 35.137333 5.9980392
12.2245655 35.577 -4.9544845
12.008312 35.464046 -4.267545
11.767487 35.560024 -3.6237113
11.74304 35.51712 -2.64966
11.907301 35.803017 -1.3599157
11.083528 35.73959 6.3773613
12.264741 36.57316 -5.155911
11.893804 36.23709 -4.359806
11.750217 36.581997 -3.6727798
11.800201 36.504753 -2.3823693
11.997778 36.26744 -0.6875828
11.215818 36.328766 6.4310994
11.984468 37.08567 -4.873804
11.802656 37.811375 -4.310016
11.803799 37.269108 -3.5848613
11.776648 37.00365 -2.673534
12.218424 37.47179 -1.4858545
11.985868 37.170994 2.1695068
11.335001 37.177177 6.1321507
12.17598 38.15086 -5.3280044
11.289855 37.967133 2.9918146
11.871945 38.466385 5.1757994
12.192383 39.156597 -3.7115514
11.097305 38.780052 4.0811195
12.134629 40.749977 -8.985277
11.56019 40.805195 -8.494824
11.767283 41.145813 -3.456889
11.486884 41.193794 -2.0538497
11.88561 40.75759 -1.4380127
11.585408 41.7386 -8.957651
11.422054 41.269836 -1.9251702
11.595715 41.96373 -0.7953778
12.0223 41.58387 3.387236
11.4381275 42.59738 -8.924148
11.515466 42.266262 -0.76815915
11.559703 42.595985 3.0659628
11.074154 42.54566 7.020624
11.420789 43.466316 -0.9628698
11.664019 44.509045 -7.922256
11.864422 43.87622 -1.0227362
11.920139 44.09923 3.10916
11.87835 45.38696 -7.0477595
11.133876 45.900673 -6.343873
11.038618 46.164402 -5.144314
11.6503725 46.189365 -3.3357613
12.223766 46.36688 3.8311372
11.970835 46.728477 7.3266954
11.873526 47.37238 4.115735
11.494924 47.64313 6.644048
11.878579 47.360645 7.163496
11.955878 48.670216 -0.5842005
11.764074 48.869522 0.09487265
11.604315 48.426395 5.711101
11.664812 48.34771 6.313797
11.805729 48.22773 6.7689223
12.115855 49.71336 -2.1368685
11.688523 49.308247 -1.0106022
11.620708 49.282646 -0.32915506
12.125571 49.601227 1.2042692
12.113002 48.906227 5.5609264
12.048712 48.748783 6.3397055
12.133893 50.11701 -2.2912397
11.925932 50.54768 -1.7433033
11.646803 50.573643 -0.41958702
11.689335 50.352097 0.5052997
11.800334 50.395382 0.943532
12.30662 51.18373 -2.0872464
12.170008 51.478153 -1.1516954
11.865524 51.4778 -0.35061115
11.790298 51.540104 0.4766602
12.104207 51.583576 1.3307321
12.2602415 51.400734 1.7256157
12.139742 52.102703 -0.12889238
12.002756 52.005554 0.43927383
12.173505 51.975346 1.0366755
13.035689 30.168465 -2.9069533
13.053444 29.930006 -2.386039
12.983077 30.00975 -1.7706616
13.026995 30.198614 -0.6730885
13.057771 30.596846 -3.2203155
12.696151 30.671951 -2.3877923
12.563612 30.850872 -1.2265226
12.828125 30.714453 -0.49677855
12.928983 30.93274 0.44563398
12.968369 32.18966 -4.6591277
12.636424 31.220821 -2.3024943
12.64172 31.590778 -1.2088171
12.654156 32.055096 1.1904975
13.090188 33.331573 -9.293709
13.292614 33.18118 -8.798591
12.894326 32.49621 -4.6520066
12.66717 32.466938 2.6084416
12.359231 32.82443 3.1789763
13.023634 34.101425 -10.700307
12.870554 33.906982 -10.391562
12.724978 33.758045 -9.6887045
12.7724 33.834114 -8.664553
12.887453 33.82885 -7.661871
12.623583 33.78393 -5.3823986
12.757756 33.912807 5.1838036
12.974466 34.485825 -10.717328
12.692968 34.516758 -10.362607
12.517105 34.258156 -9.73947
12.573213 34.674347 -8.493751
12.802139 34.36792 -7.7341657
12.689433 35.0881 -5.8812647
12.179109 34.388905 5.3595176
12.357464 35.061176 5.900244
13.045104 34.890312 -10.781735
12.792558 35.08892 -10.258927
12.658268 35.242813 -9.6535225
12.730952 35.479885 -8.863074
12.945365 35.404472 -7.2958145
12.837297 35.418964 -6.346815
12.284454 36.050568 6.112653
13.096774 35.982845 -8.525752
13.429691 36.609207 -7.4864902
12.495991 36.46255 -5.8724265
12.095037 36.79239 6.148682
13.05578 37.4639 -6.403721
12.781907 37.127525 0.3838461
11.999507 37.50993 5.7330337
12.6814165 38.375458 -6.1169596
13.152934 38.271336 0.70137864
12.469027 38.443584 3.6812792
11.963298 37.815163 5.3619647
12.590892 40.310013 -8.787586
12.930781 41.08594 -9.521959
12.326801 40.986496 -0.50652355
12.276635 40.668434 3.8169818
12.31028 41.04721 6.213149
12.840143 41.83705 -9.722905
12.254782 41.898617 -0.297826
12.396205 41.387043 6.716365
12.605617 42.22944 -9.688142
12.530596 42.871525 -9.551981
12.966627 42.3834 -0.08958617
12.991374 42.33543 7.176024
12.62307 43.52707 -9.265669
12.2231245 43.01542 -0.3830779
12.7585945 43.05278 7.0028257
12.952778 43.725292 -9.283997
12.674442 44.100254 -0.7857679
12.08478 44.00892 3.044216
12.079498 45.267334 -6.9040885
12.42847 45.39136 -6.6044273
12.163933 44.826405 3.7121015
12.4107895 45.920174 7.3909807
12.630197 46.15233 -5.935521
12.30931 46.143158 -2.6614037
12.292237 46.62549 7.528243
12.699423 46.584724 7.5770397
12.930189 47.14512 -4.476033
13.121689 47.8409 -2.2392228
12.31479 47.486168 7.380614
12.970041 48.279125 -3.9064798
13.061845 48.34939 -2.7209156
12.585106 48.69512 1.2013673
12.782378 48.654995 2.7684233
[...]
POINT_DATA 1652
SCALARS features_00 float 1
LOOKUP_TABLE default
0.7756939 0.7977209 0.75183177 0.78018355 0.81516147 0.82397115 0.75213504 0.782846 0.8251967 0.83380735 0.79276896 0.81796646 0.6608509 0.68445563 0.7847847 0.676214 0.74688184 0.828562 0.73701274 0.7818457 0.81898355 0.7537329 0.7794693 0.8083635 0.684031 0.74661016 0.7845452 0.7607351 0.70970464 0.74171007 0.79556614 0.71302253 0.66436046 0.6756239 0.6479994 0.7204717 0.81351274 0.70797086 0.72838974 0.7014756 0.62492704 0.71990716 0.7743571 0.8035948 0.78562737 0.7281284 0.73490185 0.7147023 0.6634243 0.72521317 0.73469424 0.7232705 0.52896404 0.6212088 0.7253371 0.7663877 0.60765815 0.6612161 0.76708543 0.84098756 0.58397174 0.591339 0.85849 0.898369 0.67896056 0.83765423 0.8771161 0.7651103 0.82241887 0.4398732 0.71658945 0.6096723 0.46358243 0.45941 0.433262 0.3857555 0.5304704 0.54650414 0.635095 0.59254956 0.46277627 0.4883842 0.4893007 0.45041034 0.31638616 0.66896373 0.6057573 0.57264686 0.46099687 0.6350894 0.7277676 0.65732825 0.6851461 0.55046386 0.36030757 0.6714366 0.7147373 0.7294693 0.687859 0.6084834 0.43016124 0.73244727 0.7190365 0.69821626 0.72505015 0.70992565 0.6572887 0.36691123 0.48196915 0.28709146 0.3611275 0.41848624 0.567792 0.6745645 0.73263836 0.33236727 0.7871484 0.83740103 0.6668551 0.85591495 0.9094895 0.8189477 0.42613766 0.44157103 0.38871947 0.46089345 0.6504382 0.54745233 0.41589817 0.45145866 0.34315613 0.34744608 0.46758115 0.5314186 0.44170314 0.21763553 0.36660838 0.48478246 0.4856452 0.517967 0.54895645 0.49162874 0.380792 0.4537146 0.5893631 0.6508559 0.30715293 0.39970687 0.4443481 0.5920162 0.6431277 0.36274952 0.2877363 0.4572252 0.6785197 0.68534684 0.68006015 0.44788134 0.3490224 0.504678 0.50537467 0.17399713 0.22586533 0.12985352 0.13776788 0.15391016 0.31995264 0.20777589 0.23168635 0.18636304 0.26725793 0.4081438 0.7404579 0.21487843 0.2208697 0.13343534 0.552234 0.5859181 0.14288002 0.18709826 0.21699771 0.22975162 0.21944422 0.6892626 0.14573553 0.18798593 0.21629164 0.23356022 0.1897647 0.6858995 0.17278779 0.20212552 0.2113068 0.22994237 0.18407968 0.42619646 0.6811557 0.16836596 0.65322304 0.74587107 0.15833168 0.8701982 0.39416498 0.41095462 0.17246784 0.40688568 0.3954504 0.40261647 0.42325175 0.44942248 0.28428757 0.39426547 0.46152496 0.41756448 0.47467357 0.491745 0.39730504 0.45698157 0.050882727 0.40512007 0.57105565 0.6336759 0.35735416 -0.14506777 0.45418176 0.20363533 0.516727 0.51980346 0.32701787 0.43674424 0.48891777 0.51792204 0.52178264 0.3104086 0.3960805 0.45746225 0.42539915 0.46749306 0.5004418 0.32371208 0.40994358 0.5109794 0.52891344 0.520391 0.37044758 0.44239056 0.49928725 0.5200423 0.5022318 0.48015964 0.4766338 0.4988276 0.49123028 0.21744572 0.22495988 0.22977073 0.22026783 0.21114714 0.23123685 0.22150946 0.19577567 0.17257918 0.19753206 0.22991548 0.19349834 0.18124534 0.6953182 0.59506154 0.20946376 0.21053717 0.2387796 0.7712999 0.7797076 0.7813467 0.6484014 0.46382982 0.15483963 0.27027297 0.78473365 0.8034166 0.8021547 0.5754236 0.43327957 0.05898483 0.36178702 0.40393552 0.783013 0.80057347 0.75877607 0.5709866 0.20097399 0.053186424 0.4985441 0.4030047 0.056174055 0.09421542 0.5434132 0.039616257 -0.019395737 0.5351365 0.06812929 -0.057204112 0.69619936 0.57229996 0.34675127 0.35670298 0.3420769 0.1682702 0.36717305 0.36622387 0.368759 0.37729472 0.3771412 0.35577095 0.2723224 0.2840694 0.2946469 0.39873344 0.2172962 0.25452498 0.35842597 0.030158296 0.35040477 0.25050926 -0.24355595 0.30170298 0.24360223 0.17240673 0.45482895 0.44363356 -0.04806441 0.1625095 0.5242585 0.013915934 0.21137717 0.33328432 0.11768762 0.5303467 0.16975036 0.41658813 0.41305473 0.510152 0.12678021 0.32376796 0.39733538 0.30378878 0.43198884 0.46440208 0.46017444 0.39756486 0.40575272 0.44127798 0.6893208 0.74780834 0.79516065 0.7901521 0.5555398 0.6035799 0.7057551 0.7306031 0.7393889 0.4881729 0.47139725 0.5452194 0.6567186 0.60474104 0.34730986 0.22673091 0.48570788 0.19445227 0.1922192 0.25609764 0.22115305 0.17356716 0.17897876 0.19236296 0.17208761 0.71755135 0.6606186 0.5297538 0.40543008 0.11572372 0.20926577 0.23661584 0.27042204 0.7322367 0.744376 0.26717374 0.26734447 0.7415011 0.28622708 0.7408949 0.37095875 0.7269269 0.65152836 0.35589135 -0.038078107 -0.098425634 -0.09389322 -0.21904922 0.13520935 0.22665538 0.28451598 0.12436342 0.013107836 -0.39152426 0.21919815 -0.066329226 0.1840743 -0.567701 -0.18712258 -0.0067220107 0.06388654 0.28046104 -0.25499052 -0.3032595 0.10024633 0.034970358 -0.016185738 0.52907324 0.30206427 0.036657628 0.1496777 0.22356898 0.26157045 0.4240301 0.34118092 0.17213556 0.080744565 0.5960381 0.5809074 0.31428015 0.14585187 0.22461572 0.65183496 0.63371885 0.5271526 0.18903983 0.24446991 0.35082507 0.38613522 0.39967653 0.6848606 0.6895859 0.635422 0.5635682 0.692096 0.661679 0.78619087 0.803908 0.6644676 0.69006974 0.7760024 0.80709183 0.8012796 0.51556027 0.58333457 0.72497815 0.6961988 0.4773329 0.60646963 0.32414088 0.23461273 0.17720786 0.1908976 0.18803836 0.16944216 0.34587705 0.12472544 0.55136335 0.42647505 0.387423 0.259862 0.6601209 0.6092275 0.28443497 0.29987726 0.6533483 0.24376446 0.54071224 0.12128581 -0.17843132 -0.15854481 -0.24013576 -0.16284826 0.12434959 -0.09904362 0.1440247 0.14320427 -0.2759893 0.22258334 0.14241523 0.12839277 0.15457006 0.09179984 0.15891011 0.15958092 0.017980607 0.10191448 0.063952655 0.33864212 -0.014600784 0.3835333 0.40090248 0.29587683 0.13717975 0.24270958 0.46325198 0.0357823 0.5992904 0.5912927 0.037061863 0.6399132 0.6751232 0.4882514 0.11679557 0.16826907 0.19283201 0.2506864 0.29483122 0.33660626 0.3481383 0.713658 0.70475006 0.72446555 0.64425695 0.62542 0.7649962 0.7288047 0.6858816 0.6244737 0.7672435 0.7905197 0.66962934 0.7052294 0.7465683 0.7940589 0.7917533 0.5984633 0.7723533 0.428872 0.3269809 0.19057713 0.29781398 0.2604866 0.14806676 0.32339123 0.16533464 0.22054805 0.30360326 0.27995723 0.33269155 0.3195191 0.18411765 0.28194642 0.18429677 0.34748977 0.4338554 0.1210417 0.51758385 0.459287 0.20680478 -0.12853146 -0.068638444 0.47552305 0.4398178 0.32806295 0.052707218 0.11339249 0.349846 0.20459309 0.09584076 0.11619246 0.12986062 0.098150045 -0.24527866 0.042478405 0.21379364 0.25394425 0.24914882 0.21337387 0.21795332 0.31484133 0.11284224 0.4617982 0.5916774 0.18753937 0.6787052 0.29775885 0.20900849 0.73721147 0.78888357 0.8267704 0.73353213 0.6181594 0.6316991 0.63593924 0.7162577 0.7609345 0.766359 0.5189321 0.5628987 0.7248566 0.71671915 0.376864 0.39974943 0.008454572 0.20921054 0.1578636 0.40664655 0.38089645 0.24613403 0.034597643 0.41486177 0.30978388 0.24581069 0.32706553 0.28243026 0.24486406 0.11644546 0.24567877 0.24667163 0.4400921 0.3373183 0.13719408 0.1944872 0.5161654 0.4749735 0.10798462 0.59389853 0.012446314 0.58417624 0.1333528 0.5671915 0.5307741 0.14827515 0.46254855 0.41040584 0.15629657 0.27213454 0.09122669 0.17296427 0.114779845 0.17894068 0.13104038 0.20207044 0.10130191 0.12180044 -0.029991202 0.13950045 0.20769283 0.19838329 0.14235069 0.11348274 0.30551958 0.2168698 0.19249624 0.24391897 0.21778315 0.2186779 0.4510519 0.20413806 0.53906167 0.5628021 0.31022793 0.32886323 0.1550502 0.057412542 0.28797746 0.35979632 0.6628731 0.7125851 0.831956 0.7464499 0.33014736 0.5866244 0.64323413 0.51342124 0.5059897 0.7156035 0.70622206 0.42960578 0.42416412 0.41454244 0.44554842 0.41743854 0.14529893 0.031538732 0.3823451 0.3846817 0.43269444 0.4480309 0.41382098 0.05437505 0.35251004 -0.34013212 0.22000667 0.29929826 0.21108685 0.49564385 0.43906695 0.34466046 0.13777408 0.54259855 -0.051939733 0.5689571 0.5697985 0.13875888 0.57959646 0.18420607 0.55041003 0.5196862 0.21273065 0.5113595 0.48164308 0.16811451 0.3527023 0.18030843 0.11826093 0.20059434 0.2281464 0.13162564 0.22001618 0.1553986 0.14651158 0.26443595 0.32977742 0.2791536 0.34434587 0.2195798 0.29354215 0.21676996 0.28156766 0.29393652 0.19315816 0.24097851 0.34417668 0.4540125 0.6005453 0.35871097 0.33240724 0.24992874 0.3934596 0.7204013 0.4454292 0.43365723 0.4221695 0.49593186 0.59888303 0.62739646 0.35471988 0.38383037 0.31691772 0.579943 0.6153622 0.6285844 0.36022288 0.20010385 0.088076144 0.47928476 0.5697886 0.43368015 0.41597915 0.38768172 0.3060541 0.4446107 0.38047606 0.37903488 0.46783328 0.4259701 0.4350088 0.30773452 0.39709765 0.2894278 0.13395412 0.18499972 0.19623247 0.1984429 0.1585247 0.49070722 0.44514513 0.51322424 -0.08013842 0.55983365 0.5395111 0.10478367 0.55621517 0.29298887 0.5350031 0.49581724 0.4325977 0.3166039 0.21603209 0.057146795 0.123745516 0.13331532 0.09530721 0.128483 0.11118399 0.2910369 0.30720603 0.17998606 0.15533575 0.26251495 0.37601134 0.21391769 0.1813073 0.43744355 0.18621375 0.2117193 0.39450353 0.20976189 0.23209979 0.1668163 0.18228832 0.405543 0.2422401 0.26023632 0.09075266 0.2241847 0.38115206 0.41287583 0.3514608 0.56089675 0.43919832 0.5071659 0.44508928 0.57665336 0.5315383 0.51140696 0.49731386 0.6709952 0.6755285 0.6221998 0.60765743 0.612157 0.61630785 0.6301779 0.64764583 0.6563331 0.66686606 0.43843687 0.64030445 0.6507859 0.4117173 0.41228136 0.42369103 0.35950714 0.018420696 -0.045229793 0.6108373 0.40292922 -0.22795613 -0.2543059 -0.22331053 0.36106497 0.33990708 0.27396703 0.07826538 -0.07406532 0.21554855 0.22523102 0.0013573393 0.20606562 0.35336772 0.24062043 0.28598446 0.48884964 0.35143328 0.47063622 0.5290892 0.4949007 0.37107867 0.5180712 0.4609549 0.38353685 0.18992022 0.20528917 0.1449924 0.11650734 0.45327395 0.09411194 0.5566201 0.62896085 0.0793644 0.58232844 0.4097851 0.4234566 0.063744776 0.26740107 0.0859855 0.18983804 -0.15330671 0.1367565 0.18163079 0.037544753 0.16326961 0.19568896 0.2812723 0.18242429 0.19625977 0.2430993 0.28175884 0.20023373 0.22647527 0.15429345 0.46274045 0.26169604 0.45671982 0.6920239 0.71310973 0.58664894 0.7739452 0.7108279 0.7217895 0.690341 0.84619665 0.8112643 0.77426004 0.605004 0.63366044 0.48763007 0.59603876 0.6530431 0.70354235 0.39065772 0.6872545 0.694027 0.43731284 0.39439934 0.3414216 0.6523241 0.4047472 0.43337417 0.22087476 0.59954834 0.62316227 0.37229496 0.14202026 0.53405964 0.21146056 0.0036616027 0.2779907 -0.058131445 0.3902657 0.13458198 0.089451015 0.46936357 0.41949913 0.33061677 0.35556117 0.36607623 0.38957247 0.22504315 0.6138334 0.13265695 0.5203593 0.6905936 0.10892175 0.69393057 0.088283405 0.0469668 0.0119023025 0.50360894 0.62594426 0.08108724 0.01685366 0.013159122 0.55605525 0.56656545 0.09848393 0.018383667 0.3095311 0.33398575 0.3736642 0.38329977 -0.013235077 0.17917307 0.031178415 0.21198247 0.22002065 0.20014554 0.2127237 0.19342537 0.27821207 0.267418 0.10363664 0.4070928 0.40400308 0.4213282 0.5583338 0.45855358 0.44850862 0.74341303 0.52720535 0.79793936 0.619357 0.8515052 0.8676958 0.7107032 0.6894607 0.8936409 0.92398745 0.87147784 0.87341416 0.5765661 0.59990525 0.6461606 0.41341764 0.50244546 0.5496696 0.67937696 0.71702325 0.36984068 0.71498466 0.6462029 0.43111312 0.4073773 0.36523572 0.2490747 0.27967706 0.5287193 0.3832807 0.47767654 0.3073714 0.2602393 0.16443694 0.35337076 0.5056022 0.008794896 0.54850817 0.12096388 0.5726665 0.5787809 0.13896565 0.54540235 0.58320105 0.16233742 0.24401107 0.20971638 0.18730497 0.32950833 0.23548393 -0.24897796 -0.0846284 0.10107769 0.2716391 0.22995767 -0.21013077 0.17681232 0.6368139 0.16633137 0.7528035 0.7332946 0.76344043 0.12620468 0.7224294 0.77221954 0.29881173 0.26355836 0.27003494 0.6666665 0.6885348 0.07150469 0.045753393 0.109815374 0.31847245 0.33154282 0.24989691 0.3285306 0.3744339 0.11008846 0.033607777 0.20191327 0.05887918 0.30934206 0.3622162 0.40206495 0.40110233 0.36797935 0.5117579 0.45271948 0.7532525 0.45054677 0.81588006 0.533435 0.70176613 0.6703868 0.8691329 0.89712524 0.8301312 0.92043304 0.94968885 0.94191664 0.87329775 0.43698245 0.5967715 0.59489346 0.6563928 0.69557655 0.4271271 0.7121447 0.3727435 0.64554787 0.38262302 0.37421167 0.29715312 0.28462797 0.3113421 0.5590205 0.38608587 0.38892198 0.4960503 0.38299912 0.4460141 0.4573344 0.3277002 0.25519472 0.50437284 0.5699099 0.59614766 0.10144942 0.6051309 0.5978315 0.11505521 0.0607144 0.26484606 0.5714971 0.6076456 0.2059671 0.22022998 0.22302324 -0.038187042 0.22386168 -9.915233e-05 0.15760523 0.18041028 0.16197118 0.045971982 0.25920442 0.48699045 0.5655515 0.70463455 0.7372993 0.14564234 0.30235404 0.72673273 0.76319265 0.23380876 0.09721369 0.7850801 0.7823173 0.27469024 0.0644847 0.17043349 0.23170018 0.35351932 0.33079287 0.41884726 0.5397412 0.764731 0.24152376 0.34667134 0.22166438 0.086346164 0.13534537 0.2600385 0.3209223 0.33387253 0.37933365 0.46678144 0.59987926 0.68103015 0.7317541 0.22019793 -0.01584652 0.17094709 0.19373378 0.112425014 0.2496137 0.36718568 0.37822846 0.5150325 0.47438306 0.65164 0.5969317 0.45470446 0.5142297 0.5979702 0.5292851 0.6034226 0.5319518 0.6161523 0.7540654 0.69401276 0.7613385 0.6557323 0.87642765 0.87259555 0.85826504 0.8333399 0.7895942 0.90419465 0.90857625 0.8778391 0.8408015 0.9205267 0.93134856 0.9334173 0.63379616 0.6393894 0.65138876 0.65630406 0.5178239 0.54815245 0.65143716 0.64110976 0.46159273 0.59347975 0.3239587 0.35217646 0.38103378 0.37726933 0.3676422 0.36324364 0.5361812 0.5259682 0.3763243 0.33309492 0.12723322 0.5055857 0.3909509 0.36043853 0.36410624 0.25469285 0.33528966 0.14021525 0.2789366 0.24862096 0.5381968 0.55863774 0.32192114 0.56939536 -0.11999466 0.561159 0.6000523 0.35758975 0.5919133 0.2898294 0.28267485 0.16487856 0.10354924 0.16041458 -0.028000193 0.03536054 0.03371144 -0.026334904 0.012596369 -0.10565386 -0.019444063 0.048440754 -0.057692327 -0.19866037 -0.0799168 0.13093488 0.2686773 0.27596277 0.2950161 0.49427044 0.66975796 0.7422184 0.37633404 -0.03527788 -0.089191936 0.035442084 0.0819003 0.36912704 0.507638 0.6537279 0.75862086 0.7739176 0.3367452 0.15511626 0.16189636 0.19790925 0.29706198 0.36060435 0.37796992 0.54273874 0.63686436 0.71781063 0.33066812 -0.094663054 0.6218058 0.6690211 0.2600054 0.0057499334 0.2545189 0.19008985 0.5298964 0.4737082 0.6294712 0.5135888 0.516544 0.70690995 0.50146717 0.54004735 0.6958711 0.7206644 0.84514475 0.8209996 0.6652028 0.6959909 0.68786013 0.5883404 0.64725053 0.7047008 0.70149654 0.6675154 0.574046 0.62900984 0.65356284 0.6341975 0.3330062 0.36226037 0.38334125 0.38416022 0.36405775 0.33589476 0.49488777 0.61624265 0.58465624 0.36359647 0.35102296 0.11972751 0.18167315 0.39355165 0.44676456 0.52139664 0.39030907 0.37312973 0.3507871 0.25171444 0.22914875 0.22263312 0.26061743 0.37431133 0.16342542 0.18908696 0.34708375 0.11006726 -0.15379463 0.1555554 0.27072743 0.43063733 0.2114617 0.35533306 0.42146483 0.35718367 0.14748396 0.41114518 -0.12259214 -0.05105246 0.07192151 0.15407968 0.18993497 0.22611263 0.28978455 0.0281974 0.108952776 0.118034646 0.09580732 0.19122331 0.14725032 0.056291945 0.2215789 0.3498158 0.30860594 0.37346584 0.3696991 -0.029249605 0.3662198 0.3743526 0.34279168 0.00392065 -0.017314017 0.19013262 0.07226371 0.2910824 0.39871025 0.577585 0.4470231 0.51724803 0.52354157 0.71403635 0.7146234 0.5227299 0.53299564 0.61552095 0.68683213 0.70244825 0.71224445 0.7120969 0.6816881 0.698483 0.6825759 0.37574196 0.37210804 0.598277 0.6010804 0.33788985 0.3547516 0.3571626 0.33493105 0.35623276 0.29513538 0.3054279 0.32032973 0.28110877 0.23632517 0.24460712 0.23513937 0.19060835 -0.0023075715 0.105746746 0.2641077 0.3963071 0.42774412 0.20710185 0.25522542 0.3736274 0.4436382 0.47975433 0.46324623 0.4433798 0.14722814 0.22739172 0.3193156 0.38598484 0.45318964 0.480204 0.40295523 0.08982244 0.3243343 0.22216848 0.15283644 0.24476108 0.30023485 0.45090044 0.2294993 0.3940701 0.38073534 0.36632723 0.36676544 0.116881095 0.35761467 0.3656938 0.093657434 0.09664422 0.2453421 0.23901649 0.32861757 0.3182159 0.49490905 0.5971125 0.512111 0.59304106 0.5127904 0.5197621 0.51872873 0.6526251 0.67126036 0.5280963 0.66258276 0.26851922 0.22036396 0.22589803 0.1827477 0.14789519 0.13954142 0.05802625 0.058535255 0.09704921 0.11053304 0.66679555 0.5013318 0.49261737 0.11676535 0.4842286 0.4950703 0.4482342 0.30609533 0.27546316 0.456509 0.3711569 0.3754357 0.34996104 0.5144933 0.5465902 0.47018597 0.38249314 0.22076273 0.38008952 0.2422823 0.3458389 0.19503671 0.28231752 0.14551657 0.20589456 0.3102729 0.16736227 0.4114303 0.48453584 0.52431136 0.3598464 0.19976224 0.7275585 0.77037334 0.33624038 0.7131131 0.3826158 0.64202034 0.4452229 0.5850948 0.6037176 0.397446 0.50928223 0.43720648 0.42063797 0.4243822 0.5391085 0.5287997 0.5862658 0.55226624 0.49341246 0.5586473 0.40994313 0.46214736 0.34443527 0.4187854 0.3293364 0.42010763 0.31931403 0.45690894 0.49766493 0.48384774 0.7465184 0.77893436 0.3758409 0.8077735 0.81954396 0.47299668 0.4050781 0.8189049 0.45826814 0.42891765 0.78766954 0.71907353 0.509156 0.46126926 0.74581707 0.7377738 0.5365076 0.5047277 0.4988717 0.541749 0.4974735 0.5902622 0.59636426 0.55074775 0.59476936 0.6072363 0.51225746 0.49372053 0.531096 0.49560195 0.5595515 0.5250114 0.5928918 0.6031909 0.64449286 0.6338163 0.6678617 0.7166028 0.7762951 0.80094665 0.7223436 0.8540059 0.8475201 0.8234958 0.74887 0.656548 0.514884 0.48488683 0.85218114 0.866086 0.6015848 0.5404014 0.48489136 0.8393047 0.83806926 0.6163868 0.5376512 0.5172402 0.80819154 0.8049799 0.7509078 0.5680755 0.55970335 0.5834781 0.6081012 0.5634668 0.61573607 0.655279 0.6171346 0.6900174 0.7318089 0.6786827 0.72114563 0.7560282 0.7126396 0.74485236 0.79322094 0.77675086 0.731186 0.7149832 0.7917289 0.82060945 0.7946763 0.86195505 0.8414829 0.79709023 0.7201092 0.86833465 0.853873 0.8092439 0.6834855 0.85730743 0.85561526 0.8135284 0.73627025 0.7428877 0.75444007 0.76216215 0.75961614 0.80105126 0.80878234 0.78126675 0.8107643 0.8327786 0.803802 0.830405
SCALARS features_01 float 1
LOOKUP_TABLE default