# vtk DataFile Version 2.0
Really cool data
ASCII
DATASET POLYDATA
POINTS 9688 float
20.47384 29.930605 -0.37432963
21.414364 18.599157 -2.253108
21.342611 18.546043 -1.5870932
21.43409 18.494146 -0.7075875
21.357128 19.43964 -2.1299577
21.220545 19.578459 -1.3638759
21.247568 19.39216 -0.52631533
21.190739 20.132517 2.7107925
21.31371 19.815575 3.257872
21.384548 20.138369 3.9708369
21.400032 20.178782 -1.9489849
21.335188 20.382069 -1.5048065
21.293669 20.078413 -0.23103367
21.371367 20.673565 1.8650528
21.07786 20.692038 2.7062185
21.147089 20.499641 3.3527951
21.289377 20.919992 4.109926
21.333809 21.300108 2.0043
21.22223 21.201527 2.3483713
21.131996 21.178059 3.3266318
21.317104 21.10996 4.1991467
21.390238 24.289663 6.4454846
21.442238 24.691229 -0.39532867
21.462694 24.104658 0.16939482
21.256725 24.680815 5.6368785
21.15621 24.827602 7.6460156
21.259567 24.831285 8.40979
21.423296 25.761606 1.2724503
21.334967 25.916107 4.6296782
20.929302 25.716599 6.648662
20.930454 25.52435 7.6026335
21.078064 25.547012 8.393557
21.288973 25.597239 8.922319
21.333752 26.47005 0.736299
21.375738 26.85311 3.9821813
21.253843 26.940498 4.6470885
21.100832 26.157938 5.5331206
20.919458 26.266068 6.5772552
20.97609 26.44632 7.521361
21.165447 26.500202 8.420635
21.339579 26.340687 8.863028
21.213284 27.934746 -0.12632993
21.171356 27.358938 0.6847181
21.0472 27.924124 1.550648
21.210424 27.679749 2.2701864
21.2283 27.381031 5.56927
21.157244 27.031553 7.4932246
21.362864 27.100895 8.291736
20.785603 28.980383 -0.46027827
20.851496 28.703743 0.30167857
21.061485 28.43667 2.1255875
21.351778 28.458569 2.844815
21.304504 29.563759 -1.7752883
20.8832 29.576462 -1.1426518
20.647558 29.594519 -0.51666445
20.586123 29.464973 0.22249067
20.941309 29.732018 1.3995001
21.255154 29.368801 2.0131452
21.177555 30.535975 -1.8284432
20.858524 30.455385 -1.1618816
20.642317 30.42779 -0.5531665
20.61145 30.38273 0.27435142
21.00563 30.363718 1.1310754
21.163216 31.448269 -1.5070193
20.777418 31.101593 -0.43597552
20.87697 31.172287 0.36650038
21.13211 31.290192 0.87824345
21.262936 32.879124 -5.117587
21.175518 32.95146 -4.6778464
21.422657 32.807682 -3.589748
21.213037 32.342358 -1.1770298
21.119972 32.36865 -0.6028264
21.236574 32.008614 0.6457428
21.259949 33.43201 -5.2240644
21.140804 33.479855 -4.589747
21.278677 33.380623 -3.938345
21.305355 33.991077 -5.0861907
21.259392 33.988373 -4.550151
21.363895 33.92936 -3.9484978
22.229338 17.279427 -1.4938266
22.242424 17.131905 -0.6509491
22.005987 18.06144 -2.8363395
21.832502 17.913248 -2.3913517
21.73501 17.749613 -1.527363
21.747131 17.792274 -0.45624572
22.01151 17.657818 0.09005581
22.154972 17.841877 0.86427414
21.889488 18.5388 -2.9587936
21.591946 18.34964 -2.513908
21.4786 18.44863 -0.5881223
21.814468 18.290808 0.30390993
21.810139 19.015133 2.591193
21.934616 19.038927 3.4455717
22.062866 19.307613 4.095062
21.883692 19.271172 -2.9479318
21.54879 19.49601 -2.4799876
21.65039 19.882587 1.7835127
21.58008 19.433376 2.7045138
21.50411 19.54798 3.4007435
21.808313 19.891367 4.3081713
22.246893 19.893938 4.928842
21.82425 20.230967 -2.3598833
21.503325 20.5031 -1.6579149
21.673227 20.52418 4.677135
21.901894 20.769993 5.31195
22.154087 21.372961 -1.9144661
21.694818 21.344826 -1.1594062
21.88598 21.385622 0.2907348
21.50413 21.435583 4.541472
21.67333 21.151365 4.9455876
22.157131 22.3742 -1.5138204
21.719772 22.907955 -0.7978548
21.926044 22.918509 1.2701828
21.671843 22.395975 3.4972653
21.487865 21.943356 4.209356
22.14885 23.14463 5.9418077
21.90275 23.401197 -1.4350382
21.522404 23.667957 -0.12087193
21.942333 23.573818 1.3676482
21.662264 23.972498 5.803072
21.695799 24.101183 7.39442
21.948046 24.13571 8.346505
21.787788 24.522667 -1.363871
21.513702 24.078426 -0.61921275
21.737995 24.673815 1.2140331
21.939724 24.476171 2.1199312
22.23079 24.731134 3.4785142
21.66642 24.208767 4.816611
21.543339 24.518612 8.4539795
21.713402 24.816622 8.973758
22.467257 25.615423 -8.139226
22.429136 25.938818 -7.803047
22.074291 25.783625 -1.769232
21.631807 25.530928 -1.0572702
21.526281 25.857838 -0.11133241
21.50065 25.287914 0.43977326
21.687963 26.067644 2.477703
21.61107 26.112165 3.860059
21.597017 25.32948 4.7264147
21.647757 25.545338 9.264028
22.4286 26.29617 -8.284451
22.414574 26.509714 -7.545138
22.419134 26.945803 -6.2844334
22.435163 26.334677 -5.900458
22.256397 26.66539 -1.751031
21.530418 25.97472 -0.50827676
21.60335 26.505102 0.5080515
21.58377 27.0111 2.9349391
21.75207 26.641277 3.1477823
21.709242 26.47676 9.176946
22.199562 26.15811 9.638182
22.45738 27.285725 -7.0648627
22.421299 27.161787 -6.994328
22.110209 27.622663 -1.311207
21.503393 27.586275 0.15101257
21.514677 27.805605 4.100318
21.466496 27.470592 7.5745816
21.74633 27.384169 8.475292
22.009579 26.888578 9.252664
22.187399 28.837223 -2.0878038
21.589596 28.5234 3.0182374
21.5599 28.094706 4.610633
21.628925 28.188196 5.483825
21.968155 28.328701 5.858654
22.18049 27.93155 7.517573
21.889887 27.707584 8.131035
21.894253 29.216492 -2.1342657
21.548645 29.534763 2.3240802
22.164831 30.450321 -4.808491
21.490393 30.117834 -2.1408062
22.122503 31.481003 -6.047317
21.716045 31.905268 -5.440172
21.679527 31.517603 -4.8950377
21.520151 31.586102 1.4312195
21.858717 31.327646 2.0148332
22.092335 32.46177 -6.1246867
21.535095 32.514256 -5.465119
21.507545 32.383286 -4.09577
21.517542 32.70578 -3.7268913
21.944857 32.152702 1.8944436
21.729956 33.41342 -5.8700023
21.48627 33.44199 -5.6038456
21.44396 33.821438 -3.857182
21.92727 33.183975 -2.3946064
21.665392 33.377007 0.75671715
21.908367 33.42414 1.6347498
22.099178 33.608475 1.9886744
22.00233 34.049515 -5.8965664
21.69738 34.21857 -5.4774427
21.498644 34.432285 -4.626249
21.809982 34.420765 -3.7436607
22.35416 34.358852 -0.5032836
22.07682 34.238525 0.4852122
22.246569 34.93211 -5.0145893
22.159857 35.10371 -4.279814
22.48785 35.55349 1.4551343
22.401827 36.76171 1.6990318
22.384146 36.701008 1.9801755
22.255714 37.74231 1.8094565
22.306082 37.889942 2.5899181
22.270811 38.50977 1.6599462
22.241795 38.547047 2.4379613
22.313602 39.17727 1.9597126
22.271612 39.100937 2.298128
22.3603 38.971504 2.7664115
22.697311 17.27883 -1.9911437
22.715967 16.937256 -1.196771
22.732294 16.766027 -0.52120054
22.82576 16.885475 0.25888845
22.523481 17.859362 -2.8591456
22.56932 17.598646 -2.5065024
22.450947 17.795675 1.2119342
22.721413 18.2727 1.9318442
22.404251 18.587564 -3.2256413
22.700933 18.514614 2.230139
22.463036 18.658762 3.3189223
22.509314 18.961874 3.9798052
22.340342 19.345013 -3.1358037
22.36949 19.467386 4.608777
22.700377 19.982225 5.3494244
22.319195 20.522184 5.692383
22.710447 20.631958 5.990711
23.443993 21.88448 -9.588531
22.316189 21.43613 -2.0709655
22.518799 21.440422 6.299877
23.436522 22.80441 -11.136935
23.378235 22.536427 -10.334915
23.461637 22.060892 -8.89526
22.363369 22.366154 -1.8727897
22.393423 22.357904 6.238658
23.374693 23.372 -11.291947
23.212866 23.517807 -10.31908
23.366068 23.545504 -9.154926
23.170324 24.279623 -7.876308
22.455364 23.954353 -2.209431
22.418053 24.019676 8.107991
23.445623 24.040318 -11.516372
23.230656 24.284777 -10.500412
22.965105 24.838428 -9.51936
22.970753 24.625425 -8.471922
22.98326 25.05578 -6.7593307
23.286211 25.182652 -5.523862
23.02681 24.639717 -2.5216603
22.452623 24.831793 9.382981
22.724709 25.100285 9.706455
23.333431 24.939415 -10.239029
22.787355 25.582994 -9.215905
22.559402 25.491022 -8.3742285
22.673248 25.647541 -6.730461
22.875813 25.63571 -5.9843793
23.250427 26.054457 -4.4211116
23.201523 25.106014 -2.7546268
22.864265 25.044369 -2.3721724
22.589062 25.67655 9.834182
23.184467 26.210112 -9.692118
22.826494 26.43899 -9.19925
22.495506 26.780718 -8.249574
22.508625 26.419357 -7.6432395
22.597332 26.953382 -6.2801065
22.872522 26.546244 -4.7094064
23.437819 26.868547 -3.0694263
22.849337 26.314463 -2.2220051
22.386839 26.690762 9.561151
22.779268 26.445927 9.893188
23.074371 27.678911 -8.945237
22.720339 27.462614 -8.373052
22.545204 27.75131 -7.800615
22.520304 27.057278 -6.3798447
22.66406 27.235981 -5.294308
23.049704 27.547672 -4.3345966
23.386808 27.102924 -3.4206157
22.703365 26.945038 -1.7751232
23.09735 27.464884 8.997423
22.85415 26.890976 9.766193
23.199814 28.123356 -8.852911
22.980574 28.165989 -8.57111
22.623968 28.053354 -7.4866433
22.714548 28.157188 -6.9579344
23.081196 28.136925 -5.332735
23.138021 28.163515 -4.4799223
22.608097 28.223034 6.670583
22.334942 27.718817 8.581648
22.925745 29.62914 -6.077962
22.898252 29.882744 -5.170578
22.822935 29.998407 -4.739824
23.39113 29.244274 -3.1739638
23.279331 29.515205 4.2318783
22.447449 28.854319 5.085667
23.137249 29.150345 6.314106
22.552908 30.596106 -6.234533
22.367329 30.398363 2.3750062
23.317944 29.664715 4.345717
22.878038 31.226665 -6.7120423
22.450756 31.530415 -6.378812
22.979334 32.618412 -6.702235
22.465197 32.33982 -6.3658094
22.829823 32.353516 2.7910101
22.834362 33.269318 -6.613862
22.59 33.469902 -6.4704285
22.396236 33.014362 2.4645872
22.882633 33.13042 2.9552133
22.50821 34.383465 -6.1038527
22.430408 33.87285 2.2801557
22.425173 34.94318 -5.2582517
22.564272 34.975777 -2.7358773
22.847324 35.05672 -0.860612
22.676706 35.600563 0.2458042
22.592585 34.949184 1.4863023
22.802631 35.836617 2.4129188
23.235708 36.75344 -3.905585
22.893892 36.561962 -2.9080062
22.517935 36.617577 1.4708414
22.491196 36.73138 2.1047904
22.82329 36.74955 2.8947937
23.040716 37.738926 -4.0638413
22.868986 37.490982 -3.4929273
22.774593 37.512455 -2.5689049
22.825075 37.47538 -1.4266169
22.850775 37.223206 -0.5468698
22.464434 37.367294 2.657821
22.736519 37.730064 3.108455
23.27384 38.216286 -4.2016935
22.94049 38.165356 -3.2702353
23.044714 38.207222 -2.4265888
22.61254 38.723858 1.0715921
22.715254 38.53777 3.177527
23.301567 38.793205 -2.9611378
22.84178 38.899227 0.94157386
22.591505 39.406704 1.6487182
22.54643 39.46733 2.5083287
22.83323 39.2455 3.0477462
22.89019 39.78802 1.8393332
22.826935 39.755787 2.3370621
[...]
POINT_DATA 9688
SCALARS features_00 float 1
LOOKUP_TABLE default
0.4023954 0.71583366 0.6787502 0.594593 0.5964321 0.545354 0.50504535 0.45869046 0.47083563 0.474037 0.44573784 0.39443818 0.37382853 0.35678878 0.43804228 0.46182173 0.46412233 0.2949202 0.36307138 0.43101108 0.45823658 0.39164728 0.21940124 0.20867912 0.3095504 0.59532887 0.6718853 0.08434093 0.16129486 0.48841935 0.6208912 0.6794959 0.7082939 0.080307744 0.1071842 0.20045285 0.30235896 0.47075877 0.59049237 0.6435834 0.66993576 0.20387486 0.12000579 0.19916584 0.1350281 0.34452003 0.5267828 0.59557414 0.35233387 0.32148337 0.20992205 0.13897382 0.32563296 0.36563542 0.39038783 0.3895487 0.3015442 0.24610594 0.3635622 0.39098012 0.4008387 0.3865365 0.29901686 0.31771737 0.3859911 0.3507986 0.28690287 0.5542334 0.54454553 0.42226195 0.1969685 0.26707864 0.2726088 0.5632736 0.5441503 0.48741335 0.5653015 0.5428169 0.48469588 0.7014741 0.63934577 0.75940424 0.7624302 0.7135155 0.5992273 0.5401636 0.41912943 0.74214417 0.7504457 0.58095837 0.4482988 0.4147541 0.44155 0.45762083 0.6423218 0.5923891 0.38595006 0.449035 0.46819597 0.47400904 0.47026396 0.41262305 0.37078425 0.47421217 0.46368775 0.18489587 0.19386438 0.11855683 0.43387467 0.44838458 0.08990384 0.16488355 0.082042545 0.27169248 0.37789786 0.23033911 0.1589069 0.2223377 0.104286924 0.26013845 0.5208848 0.64101756 0.225784 0.23414758 0.1281306 0.018446608 -0.047848307 0.15818018 0.66682935 0.7118569 0.36395752 0.35758555 0.17235634 0.20611429 0.15256783 0.15713468 0.013112985 0.057983723 0.17033851 0.73015416 0.3983854 0.3581671 0.28933784 0.28285864 0.03761118 0.16112608 0.08996714 0.047770604 0.025904208 0.67292607 0.72010803 0.32924944 0.32663608 0.055254266 0.14534742 0.14634684 0.4754203 0.5808579 0.6451994 0.06814973 0.120429814 0.22026226 0.28441286 0.24162066 0.35515767 0.50498986 0.17961314 0.20874803 0.28368288 0.3110338 0.41189253 0.48917216 0.46605945 0.2246841 0.19167322 0.44110245 0.529409 0.4806358 0.43931568 0.22581828 0.5233811 0.5525116 0.46977684 0.13726366 0.22870204 0.23304619 0.23169681 0.51444983 0.5608593 0.5427191 0.43129653 0.059964504 0.1326823 0.4944063 0.41365516 0.1084965 0.33094525 0.3670187 0.5537495 0.6417985 0.6678828 0.720128 0.7291316 0.7389416 0.7387414 0.68182105 0.66235787 0.63388944 0.5742018 0.71690845 0.7077646 0.38403296 0.3176302 0.7151434 0.32839566 0.39404422 0.42502654 0.62666965 0.4542114 0.46027693 0.47221208 0.46750498 0.29718736 0.1631219 0.46579194 0.28961393 0.25448635 0.2698197 0.07187167 0.40345937 0.2968645 0.24527687 0.20434417 0.20972575 0.15036066 0.5866463 0.28619355 0.23712215 0.29140484 0.29193798 0.23889047 0.18096584 0.13770509 0.7241709 0.7456796 0.21608496 0.37178445 0.3694753 0.30153668 0.26980945 0.10822734 0.06014676 0.15189946 0.7638993 0.33154815 0.40856737 0.41208577 0.36296248 0.28650594 0.1537469 -0.20688859 -0.024871737 0.6716938 0.7177259 0.44984776 0.44642037 0.41207373 0.28956696 0.184389 0.0038788058 -0.16738844 -0.06343906 0.5556338 0.66374105 0.46475932 0.4760291 0.38031092 0.29024437 0.07942846 -0.05836516 0.18387187 0.53713983 0.13105601 0.110023975 0.06959357 -0.3463192 0.059780866 0.17273125 0.101185836 0.36617643 0.14467998 0.053386632 0.34294498 0.37689218 0.31607705 0.3848834 0.26703465 0.32248253 0.36482108 0.27070984 0.31538296 0.42168885 0.23792444 0.47035134 0.084573634 -0.001657404 0.058430288 0.09167772 0.2071338 0.16036633 0.15818456 0.2575712 0.39048165 0.47288632 0.25313324 0.27163038 0.27301046 0.1858691 0.10631095 0.5608919 0.63129807 0.25527444 0.3114298 0.3108982 0.6162952 0.6996933 0.3240288 0.5965916 0.69940186 0.72817904 0.7010019 0.6756528 0.7027107 0.68590975 0.6056051 0.5987896 0.601207 0.6130244 0.56876886 0.48606128 0.5848214 0.5480455 0.32159367 0.32636452 0.63597775 0.36393398 0.40605092 0.4401983 0.4645247 0.45465755 0.5653356 0.41364694 0.38400307 0.43049026 0.4433682 0.45759988 0.40474403 0.30361557 0.43017685 0.23943165 0.27382475 0.29384476 0.3210774 0.35572082 0.3383661 0.17886992 -0.3230367 0.0018559694 0.110077366 0.3392126 0.32778394 0.31412414 0.013914401 -0.09505479 -0.011998702 0.28619644 0.25458825 0.3080547 0.3268245 0.06462993 -0.10699778 -0.26354644 0.4266663 0.46077672 0.2780859 0.28296638 0.23680559 -0.05003247 0.6136103 0.69414735 0.23049632 0.2356223 0.16620423 0.7478764 0.21609738 0.73610735 0.34484076 0.37379766 -0.19856915 0.65186954 0.44641566 0.4727852 0.5017988 0.45218918 0.1165958 0.1798237 0.3051831 0.055831764 0.1054876 0.18706957 0.3235057 0.38245386 0.2898933 0.048996232 0.30361965 0.23397754 0.31816384 0.278988 0.12908551 0.1538474 0.3818463 0.263645 0.12332684 0.44295272 0.42698374 0.21487293 0.058674518 0.49657726 0.5381677 0.43766475 0.38004023 0.18506205 0.5800284 0.502833 0.57843935 0.49697503 0.32777202 0.18180346 0.5006703 0.5233507 0.55547464 0.50039667 0.38710964 0.15239379 0.20853332 0.27671328 0.2939645 0.583103 0.46444947 0.182393 0.15859598 0.62202597 0.6322313 0.5643394 0.44247082 0.5172141 0.5372628 0.51500714 0.43497235 0.4635774 0.44432235 0.39806628 0.36747557 0.46024686 0.280465 0.25731182 0.37724087 0.3170888 0.3413339 0.39713073 0.44080406 0.39573812 0.3985064 0.017780721 0.16822939 0.2218804 0.2076903 0.40370333 0.31493628 0.32322377 0.24639982 -0.04399883 0.2096619 0.2768035 0.22225949 0.22031033 0.24781081 0.2818687 0.2270505 0.43629426 0.16510408 0.24658157 0.46295458 0.12158804 0.18561831 0.15332559 0.16135737 0.5415059 0.6605081 0.019901857 0.6953129 0.40476745 0.33321407 0.1254075 0.5183423 0.6371274 0.4860912 0.44338834 0.37224722 0.37475166 0.4188979 0.48542666 0.40824953 0.3630718 0.28146234 0.48922262 0.12182696 0.31119335 0.4592265 0.5129954 0.15506013 0.19618389 0.27441627 0.3811449 0.16082269 0.2629955 0.13964842 0.2340926 0.31207412 0.2157438 0.4647519 0.39501536 0.06787053 0.5504607 0.28504562 0.3558158 0.60719496 0.57738566 0.3505113 0.624184 0.6049744 0.33343178 0.59893537 0.55989003 0.4732175 0.15468039 0.21275495 0.3251366 0.3207656 0.51417065 0.4166015 0.26581597 0.17448887 0.31415215 0.47672307 0.28629172 0.323814 0.36278406 0.34944633 0.35127693 0.33342272 0.3578456 0.3948626 0.44019666 0.46466416 0.46076375 0.42843422 0.37089878 0.37176284 0.4885071 0.5362915 0.5267331 0.4829652 0.43412635 0.42005572 0.45378202 0.4306665 0.4336785 0.74774224 0.72033304 0.5976126 0.51033115 0.37976936 0.16174372 0.66351694 0.5886664 0.48406833 0.4283527 0.38895226 0.22708297 0.3218724 0.36441797 0.2704403 0.55496407 0.43325597 0.38488144 0.18418634 0.36022174 0.22182174 0.10849296 0.117373675 0.043201033 0.21148285 0.42664474 0.30708092 0.23180026 0.3029108 0.20069575 0.2955917 0.25019744 0.19748154 0.22187327 0.1810238 0.19826607 0.24838498 0.14071688 0.277904 0.4722278 0.5693672 0.4871677 0.4501539 0.26024646 0.21475555 0.0007715523 0.35676327 0.60355735 0.6206231 0.58609366 0.5189931 0.26148784 -0.04412929 -0.15427251 0.64845175 0.6213827 0.5675473 0.3498953 0.23172171 0.07509829 0.15315278 -0.029950514 0.46950698 0.586949 0.53813744 0.45970142 0.39973003 0.2376083 0.26060534 0.14418791 0.080034494 0.5277144 0.5010077 0.5407564 0.5037863 0.467015 0.38611785 0.32235044 0.34797487 0.35678765 0.5355674 0.37995508 0.38754034 0.43087703 0.43126068 0.035785645 -0.10939545 0.2059378 0.33996266 0.43263155 0.46961802 0.47127408 0.030761436 0.1771531 0.17768598 0.15815549 0.41023642 0.47513592 0.5330494 0.6190136 0.27223614 0.2532354 0.6405271 0.2703935 0.24013218 0.5964811 0.5485841 0.25376132 0.23226644 0.49869353 0.4111511 0.2935956 0.33664736 0.2821296 0.05371383 0.05642317 0.3817896 0.40931743 0.39269927 0.29329753 0.467421 0.5268928 0.57061243 0.48570153 0.44672507 0.41820118 0.3962752 0.61299115 0.6158844 0.5703556 0.49262238 0.4485168 0.4388293 0.80374545 0.7732841 0.6894026 0.36509863 0.38087016 0.34114885 0.28346497 0.7798555 0.7890826 0.7319654 0.63505554 0.51695555 0.40647757 0.33947656 0.3510506 0.20850071 0.08113862 0.06560059 0.6914499 0.7212169 0.1222851 0.08962974 0.28538093 0.5783056 0.11455551 0.15408343 0.17073166 0.41926444 0.4425667 0.20037477 0.1889965 0.015880778 0.16509706 0.04637953 0.1501166 0.1915415 0.09543497 0.33362406 0.22187985 -0.012896977 0.023740046 0.5615496 0.51416725 0.4335337 0.08232613 0.18524192 0.6177293 0.5691438 0.40173835 0.6630969 0.49573892 0.49749973 0.65249866 0.598852 0.241268 0.0002412945 -0.13622566 0.54783046 0.58789206 0.5392956 0.473511 0.45358187 0.5639595 0.43863636 0.40679216 0.31766206 0.38835856 0.45835933 0.41866934 -0.08972956 0.37876123 0.5098467 0.5328197 0.40395677 0.4578367 0.47388056 0.44443715 0.05690925 -0.05278006 -0.31465578 -0.038564518 0.06355305 0.15800516 0.28172785 0.07538314 0.08503302 0.4049437 0.008665785 -0.028846985 0.3557086 0.17874327 0.4453639 0.5164953 0.21294579 0.5918635 0.5327503 0.20808367 0.22211051 0.45991445 0.39418834 0.12583494 0.18119667 0.3321542 0.13272062 0.3928485 0.4284113 0.485717 0.60108536 0.36113712 0.65592265 0.65316427 0.59973955 0.5133402 0.4528185 0.43267748 0.38167644 0.65626204 0.6218288 0.79776984 0.77593446 0.6591285 0.57008004 0.57621396 0.60896575 0.59550357 0.77416974 0.79428005 0.48292994 0.3305223 0.21533981 0.26833323 0.19693889 0.17480227 0.013699725 0.31522742 0.60594845 0.5756989 0.66385055 0.15379621 0.010473972 0.07130323 0.06657403 0.113223 0.5190736 0.15096588 0.15674831 0.041048244 -0.051694203 0.49743193 0.5066011 0.35047072 0.46060395 0.26779795 -0.06902048 0.032791983 0.1323977 -0.051848322 0.07619996 0.13714738 0.03825295 -0.004058227 0.42894286 0.3096912 0.54003894 0.46164387 -0.06366357 0.081296705 0.16508064 0.59383076 0.5902139 0.26508597 0.36516446 0.6246825 0.64758044 0.52894676 0.6292294 -0.11522542 0.5782368 0.5091471 0.43707117 0.21761626 -0.19663806 0.53397274 0.38375765 0.2898193 0.4208423 0.2944874 0.45402044 0.30106613 -0.1608159 0.30352464 0.427413 0.44988275 -0.07759851 0.1857925 0.3058037 0.08325465 0.055508368 0.14751357 0.22448254 0.2659003 0.26743132 0.1696783 0.21014112 0.107402235 0.29476112 0.38568676 0.17000747 0.42191264 0.40019372 0.32958153 0.12116044 0.28659615 0.359857 0.16040312 0.19801141 0.52841663 0.62246764 0.24026391 0.22337939 0.68432915 0.6924119 0.5846301 0.53161395 0.42945296 0.42128515 0.34731182 0.2539822 0.6800708 0.63480616 0.8120321 0.4981126 0.64331436 0.66696477 0.6523464 0.7747472 0.7506305 0.51305556 0.26568863 0.3750292 0.58265007 0.5713631 0.76061165 0.7340375 0.3676209 0.21714038 0.030912394 0.058750007 0.5664295 0.5627765 0.70401216 -0.0021045655 0.0031585805 0.078077696 0.09030891 0.5100546 0.5243407 0.066662796 0.057509754 -0.10333045 0.5079543 0.13937077 -0.17701948 -0.11405699 0.4889497 0.09516818 -0.22263779 0.095708184 -0.021973819 -0.0052611344 -0.09745522 0.27026466 0.013184838 0.4855746 0.42123678 0.0017895028 0.12168213 0.5406317 0.5065305 0.09932345 0.29428715 0.3814807 0.55869025 0.49196655 0.46398902 0.4893912 0.5654209 0.5761132 -0.42057323 0.44685173 0.48075575 0.544506 0.40881076 -0.1342056 0.3892703 0.4427781 0.2207531 0.23777482 -0.19141345 -0.24492806 0.37997377 0.42199662 0.08276849 0.33248818 0.22641382 -0.12460273 0.35224155 -0.028435774 0.2963208 0.27174348 0.038389277 0.1464299 0.21886992 0.097749606 0.28914836 0.03853126 0.3401311 0.3126645 0.049998205 0.21918231 0.19770825 0.13646583 0.23887132 0.19868203 0.24614634 0.2650957 0.38877898 0.19193839 0.24018459 0.2759375 0.5681591 0.53577995 0.24159893 0.2353164 0.67507577 0.6773089 0.6432075 0.39402503 0.34972635 0.26522073 0.26503217 0.27388704 0.6685096 0.89069986 0.89823526 0.7484872 0.8154659 0.8671224 0.85189426 0.5297726 0.60500765 0.6933643 0.60366696 0.5720049 0.643559 0.53345424 0.43982303 0.07835438 0.118357375 0.33105063 0.31645575 0.5463435 0.5909363 0.02878191 0.1849987 0.27109283 0.07456473 0.097340725 0.5187537 0.5223205 0.61863357 0.6200719 0.6122137 0.10278994 0.052784603 0.5010966 0.6100456 0.60511184 0.53061485 -0.06449595 0.03824825 0.41147956 0.49233824 0.5712296 0.3326367 -0.28923362 -0.282853 0.29318696 0.060528263 0.0957526 0.0643623 0.13611871 0.1979264 0.36445865 0.006480191 0.39664954 -0.013978001 0.46541074 0.2705939 0.39292854 0.44891778 0.4189583 0.4151773 0.45887434 0.3256724 0.37950864 0.17451318 0.040046763 0.27865103 -0.05771833 0.28604245 0.10859848 -0.131201 -0.18645512 0.35669178 0.3496807 0.010166377 0.34088928 0.0014665276 0.25520167 0.6604587 -0.1599974 0.13355102 0.6925802 0.7303355 0.70602524 -0.07729158 0.049883455 0.6913115 0.74552155 0.7237159 0.661579 0.025817804 0.71798855 0.6901684 0.20214108 0.10715312 0.17221771 0.1827779 0.19811606 0.19134851 0.30669767 0.34375396 0.2812128 0.20059855 0.1396249 0.13287407 0.3220496 0.36304933 0.39147305 0.3498906 0.2761686 0.32390386 0.18672568 0.3273687 0.35148954 0.3719631 0.41687843 0.8775466 0.91992325 0.92068994 0.9064398 0.7442229 0.82194006 0.87192607 0.6702906 0.7591653 0.4137377 0.30776232 0.40356326 0.49093363 0.5444661 0.5247646 0.59896904 0.59224266 0.52893436 0.5220932 0.48136038 0.29233772 -0.13378465 0.08994322 0.23536924 0.32542118 0.42072225 0.5063714 0.44240236 0.26497427 0.53671587 0.52991647 0.5790819 0.5691216 0.32834384 0.13696775 -0.1687633 -0.08290909 0.3476488 0.5134193 0.59862095 0.25834194 0.08039947 0.08095345 0.49392164 0.52757967 0.5694494 -0.06100505 0.34497404 0.40466285 0.52338016 -0.28596336 -0.35657275 -0.24216808 -0.04151596 0.27967656 0.3406146 0.48528683 0.49146265 0.41989815 -0.32643038 -0.08464551 0.32807934 0.20608066 0.26692083 0.12747988 0.08898276 0.25816 0.14132941 0.35113513 0.36726514 0.3881982 0.37151885 0.2022134 0.3197055 0.0385484 0.23629256 0.13472831 -0.11795473 0.26868725 0.22301832 0.15535218 0.124415815 0.3201805 0.260314 0.23452526 -0.027866565 -0.21734181 -0.24137211 0.32283473 0.23314613 0.17244382 -0.22485046 -0.3150065 -0.42112476 0.21993284 0.42983449 0.3331214 0.47663736 -0.1049559 0.13403623 0.19377342 0.45557183 0.58748615 0.5771361 -0.25355864 -0.19492343 0.13189384 0.6091294 0.5456847 0.106765404 0.08876671 0.64924324 0.70189375 0.6033088 0.55433846 0.16189839 0.25281107 0.29358837 0.50983596 0.16947284 0.143092 -0.08611034 -0.07392836 0.37565792 0.48125142 0.07092812 0.43697432 0.51045895 0.4696562 0.52198267 0.423446 0.41873038 0.49201268 0.47683138 0.44526124 0.6240461 0.62793493 0.6105689 0.4921012 0.6808022 0.6744549 0.9058821 0.9285615 0.91741616 0.81751204 0.87154174 0.8856978 0.85915405 0.77518916 0.7461176 0.45226264 0.41804463 0.31155282 0.34033418 0.4272005 0.52785033 0.55114514 0.5625737 0.60460055 0.48656085 0.4493811 0.080548994 0.032184258 0.0076214634 -0.084465705 0.08619156 0.50420976 0.42268458 0.519233 0.50390786 0.5342381 0.48254973 -0.13034502 -0.19666767 0.3379389 0.36206788 0.47893196 0.50124663 0.52885747 0.3045692 0.0666437 0.24193968 0.4358151 0.49711746 0.08127367 0.10174826 0.18061237 0.28079557 0.41701883 0.44598716 0.4474311 -0.22380114 -0.16417956 0.0038467646 -0.014885157 0.049749687 -0.0017404556 0.41437858 0.29022148 -0.29243726 -0.24447237 -0.19040562 -0.13163339 0.11607055 0.34207627 0.15970957 -0.14116861 0.29301822 0.052226238 -0.08424752 0.32456082 0.36538878 0.3562154 -0.08848315 0.3110017 0.1356935 0.21768677 0.2829311 0.3048905 0.16351813 0.18328321 0.37371275 0.19936818 0.4093072 0.33305857 0.23443785 0.35091382 0.29041868 0.26175523 0.341749 0.3026715 0.22785538 0.2301963 0.29180124 0.18658042 0.20439228 -0.20761564 -0.16727756 -0.17370272 0.19730762 0.4809573 0.5492573 0.4113437 0.396227 0.3093559 0.49767563 0.5553442 0.4262426 0.38935918 0.10866766 -0.27657872 0.48115712 0.5590664 0.6102251 0.5285414 0.41559666 0.3721875 -0.251455 0.56344765 0.59510595 0.5300741 0.5797471 0.5211152 0.4079999 0.4822514 0.5604456 0.45329437 0.4115672 0.59230936 0.68431044 0.6937767 0.65049416 0.6548208 0.711887 0.6972269 0.9207045 0.9224438 0.90626025 0.91068566 0.8834632 0.8585017 0.8170286 0.89250463 0.79956734 0.7593086 0.75353146 0.34785712 0.3130641 0.23390825 0.08070034 0.05604439 0.049691767 0.23115726 0.4372669 0.50704396 0.5262388 0.64107335 0.7521358 0.6376321 0.6348845 0.3796374 0.3290197 0.028263986 -0.015652874 0.0693775 0.4288022 0.385946 0.5670276 0.5312887 0.38640356 0.26370367 0.5223964 0.56926006 0.5726116 0.5584331 0.4743953 0.43474677 0.2145393 0.4891514 0.47385883 0.39490357 0.35768837 0.05555712 0.24934074 0.3518296 -0.3158161 -0.26168117 0.3628762 -0.28791904 -0.16496286 -0.10544272 -0.14769061 -0.11119059 -0.053684965 -0.036220856 0.28656155 0.13259272 0.26123273 0.23692903 0.14763719 0.08897295 -0.012386993 0.0956403 0.27421618 0.114016175 -0.0008195378 0.3194932 -0.022163067 0.297363 0.21082501 0.2487884 0.41377157 0.36709064 0.051183373 0.4521538 0.4238109 -0.11300265 0.46413553 0.43978757 -0.06577554 0.11695513 0.4664717 0.44894868 0.43443453 0.3986848 0.33788168 0.19416857 0.22122294 0.37607217 0.3127492 0.25785345 0.21573907 0.4121719 0.13127328 -0.0374069 -0.21011701 -0.37181225 -0.29174438 0.36055246 0.44618887 0.15035954 0.10639556 0.50191253 0.45640373 0.47713035 0.50508964 0.4546219 0.32536852 0.2843151 0.19490954 0.20906004 0.607072 0.2316925 0.27250278 0.28756976 0.6199647 0.29399937 0.34190837 0.3491769 0.45143783 0.54443616 0.59916186 0.36513293 0.37262788 0.6197505 0.5082149 0.43020615 0.7241734 0.7434256 0.732532 0.6820253 0.728679 0.7267486 0.58325225 0.62063825 0.059095953 0.061770357 0.88792276 0.82041144 0.19859982 0.16272412 0.10912676 0.07722192 0.0331324 0.05450197 0.0573232 0.07477016 0.06295347 -0.06903969 0.8266971 0.7538122 0.2063024 -0.1793871 -0.008524537 0.28823185 0.67624986 0.6747479 0.24718231 0.06791755 0.05726231 0.559372 0.030939765 0.1169005 0.1440985 0.08639941 0.23048909 0.20087877 -0.28272954 -0.5100927 -0.3284984 -0.033410028 -0.008615896 0.001825437 0.032985322 0.026983466 0.13114339 -0.111316115 0.16806853 0.053377166 0.23621693 0.1957149 0.43745175 0.45853096 0.18640664 0.42596608 0.15737148 0.363753 0.10346077 0.23494667 0.2581487 0.0553329 0.20583504 0.41440994 -0.04133796 0.45442826 -0.1749985 -0.09076852 0.46471542 -0.026523765 0.46621585 0.45903856 0.46348333 0.45563626 0.19062664 0.43504536 0.41777563 0.2756186 0.09466359 0.1735566 0.23023541 0.29531983 -0.21716143 -0.20047443 0.34107184 0.3203848 -0.029794622 0.022820434 0.4493576 0.39258033 0.12328255 0.5066243 0.5865547 0.3422822 0.19129485 0.1517114 0.23175344 0.24027115 0.54012215 0.59170806 0.25252748 0.28414693 0.31340572 0.12547798 0.3293787 0.41725197 0.5115813 0.32627314 0.43426234 0.15719059 0.3161714 0.36926338 0.3370119 0.35972318 0.49703896 0.66092646 0.512081 0.52296394 0.734197 0.7470209 0.71824324 0.6624408 0.5765366 0.621189 0.6520797 0.64529335 0.47443503 0.54829025 0.6247931 0.67779756 0.69324195 0.42052475 0.46265653 0.5150609 0.5705494 0.5608243 0.5934491 0.6013459 0.39987898 0.43443805 0.46971202 0.44101858 0.46080035 0.34430507 0.3379123 0.31817845 0.30556083 0.047853895 0.049176313 0.033590138 0.39551425 0.3262059 0.3947804 0.34996542 0.2563172 0.19167374 -0.028822603 -0.2558428 -0.124658704 0.13927078 0.4314013 0.09956913 -0.070772074 0.43122947 0.4097116 0.014210597 0.09570113 0.07563457 0.3612795 0.25920194 0.11656882 0.0988888 0.1989026 0.16665897 -0.14160192 0.05670601 0.17575674 0.1338382 -0.3652383 0.035754308 0.05566317 0.09765575 0.053647682 0.07555449 0.052281417 0.06818885 0.15486038 0.17394093 0.022097021 0.21181437 0.34898365 0.44001842 0.19867523 0.4672532 0.46793824 0.2372813 0.23756038 0.22159602 0.35521007 0.18802999 0.1656309 0.3230185 -0.010188587 0.058186844 0.39999402 -0.12782618 0.41116244 0.4208138 0.44452518 0.45045608 0.4545572 -0.111980654 0.44059488 0.39059728 0.06466746 0.028279983 -0.019731969 0.18066972 0.22577736 0.16361792 0.005565077 -0.02936259 0.2487137 0.31634706 0.22327057 0.08082244 0.013065746 0.13862464 0.024598733 -0.094146304 0.13787155 0.43257838 0.1979772 0.20351195 0.20875709 0.056282952 0.0021425653 0.19797549 0.20842981 0.13203353 0.014076725 0.14780436 0.35968024 0.45568442 0.49748066 0.19959097 0.21278547 0.29011518 0.3571974 0.10819842 0.2279734 0.243783 0.2921029 0.05013901 0.06353256 0.0647446 0.32152304 0.38314027 0.42609188 0.42676115 0.31296694 0.33116952 0.3684822 0.2698285 0.2022449 0.3120638 0.4021