# vtk DataFile Version 2.0
Really cool data
ASCII
DATASET POLYDATA
POINTS 9670 float
43.018837 33.130657 22.759258
43.212757 32.85926 24.555233
43.281693 32.988285 25.21004
43.195442 33.579933 21.934961
42.877735 33.6298 22.56161
42.751995 33.706547 23.309065
42.8804 33.776318 24.569014
43.082806 33.658543 25.27358
42.98918 34.152016 22.148787
42.801376 34.372192 22.636152
42.711662 34.301254 23.262175
42.9226 34.399254 24.457424
43.184006 34.39637 25.329538
43.084824 35.039177 22.502615
43.169865 35.510414 23.292032
43.178394 35.086853 24.167282
43.22695 34.77503 24.934437
44.147022 31.886263 21.989105
44.136852 31.701822 23.55077
43.928535 32.08131 24.53519
44.00934 32.23522 25.137987
43.75713 32.700424 21.797848
43.473064 32.606937 22.579044
43.38839 32.62765 23.339409
43.553596 32.43563 24.58121
43.59459 32.765884 25.361631
43.70184 33.039 25.730818
44.075138 33.309628 21.100065
43.46736 33.79978 21.571392
43.394344 33.341476 25.64605
43.58654 33.73721 25.948954
43.474854 34.506134 25.657593
43.841095 34.388523 25.993229
44.18726 35.062572 21.166208
43.81932 35.319706 21.77389
43.44581 35.563313 24.330183
43.7549 35.331547 25.037132
43.787243 34.7724 25.89845
44.37787 36.56255 21.789112
43.89127 36.3424 22.5522
43.812172 36.206055 23.62813
44.10576 36.27359 24.10082
44.14606 35.81854 24.87224
44.695747 31.189758 22.368525
45.010376 31.32185 23.747658
45.171623 31.940449 21.065887
44.620182 31.558107 21.714848
44.388615 31.435513 22.28489
44.38616 31.814783 24.782713
44.648987 31.977253 25.18329
44.76764 32.555984 20.912613
44.496193 32.71661 25.854649
45.049664 33.48863 20.402071
44.702454 33.591488 20.564476
44.24578 33.79212 26.218729
44.987316 34.665306 20.404081
44.541637 34.53638 20.591625
44.504475 34.139717 26.265684
44.37229 34.988182 25.952774
44.491802 35.91395 21.2108
44.453365 36.472393 21.68032
44.68635 36.2615 24.545065
44.374092 35.949898 24.847178
45.46455 36.303955 26.601402
45.182262 37.955345 20.008596
44.68724 37.497185 21.513926
44.46175 37.070366 23.630661
44.767788 36.832485 24.207958
45.225872 38.494038 19.938435
44.870068 38.40304 20.675728
44.62172 38.196526 21.463898
44.752033 38.083435 22.410437
44.95494 37.929646 23.349815
45.01601 39.126335 20.755331
45.031097 39.29831 21.598148
45.03564 39.22303 22.04906
45.224464 38.799103 22.903284
45.355255 39.722477 20.70468
46.324493 20.715185 19.674397
46.306385 20.661257 20.435896
46.366352 20.800444 21.247145
46.44043 21.133486 19.168913
46.339012 21.358303 19.711254
46.267406 21.598965 20.55068
46.310062 21.345543 21.38874
46.32007 21.901644 20.64324
46.388138 22.038553 21.269608
45.44216 31.110687 21.739174
45.64328 30.920559 22.613747
45.286716 31.234924 23.78377
46.28071 31.277487 31.72075
45.601215 31.719088 21.058094
45.701553 31.687115 24.48497
46.115414 31.644995 30.721714
45.89697 31.782358 31.647472
45.92939 31.91439 32.33465
46.093155 32.10618 32.879856
45.638096 33.00047 20.404873
45.329514 32.66775 20.63107
45.683243 32.459423 25.720203
45.81076 32.47863 30.62214
45.64363 32.503548 31.625868
45.70016 32.673965 32.335594
45.98177 32.445778 32.933857
45.627506 33.54353 20.26162
45.283405 33.947132 26.384258
46.17703 33.996994 29.285667
45.836002 33.50591 30.506502
45.570293 33.144802 31.11652
45.722385 33.367058 32.328564
46.03723 33.655205 33.170467
45.76307 34.667244 20.192396
46.403877 34.306076 28.262445
45.892147 34.28029 29.91523
45.723907 34.6953 30.426683
45.7826 34.059822 31.83995
45.71708 34.346645 32.202118
45.968475 34.712666 33.147068
46.353485 34.87443 33.88704
45.804195 35.278576 20.435194
45.735794 35.436207 27.515171
46.102184 35.63336 29.305632
45.752003 35.409683 30.982744
45.802902 35.562096 31.602827
45.84069 35.400867 32.298157
46.115635 35.533913 33.304638
45.980354 36.484104 20.002762
45.76011 36.65652 27.357546
45.929016 36.472984 28.234652
45.912914 36.44582 30.840635
45.844173 36.534695 31.515026
45.944283 36.48444 32.505943
46.148766 36.793137 33.025
45.974476 37.94796 19.451668
45.59571 37.783043 19.743284
45.387608 37.377403 20.346546
45.28281 37.385426 24.36088
46.050568 37.423702 26.352491
46.22769 36.915348 28.299591
46.422497 37.21941 29.164612
46.014275 37.106987 30.528587
46.046673 37.458145 31.516653
46.145664 37.465256 32.292892
46.26149 36.881596 33.304844
45.98372 38.38549 19.41841
45.617947 38.550804 19.6018
45.82594 38.440193 23.534496
46.42207 38.253124 30.918242
46.36854 38.396526 31.580769
46.433475 38.12364 32.419224
46.09578 38.91948 19.444508
45.744705 39.20757 19.746342
45.400734 39.411907 20.355442
45.93352 39.383923 23.121563
46.004456 39.862274 20.065407
46.029488 40.340107 20.655193
45.82034 40.259655 21.37796
45.954853 40.350315 22.033295
46.317978 40.76183 21.043152
46.299824 40.826992 21.275063
47.28222 19.284513 20.266125
46.969646 20.265314 18.902346
46.892254 19.934065 19.515621
46.767113 19.837612 20.49643
46.84195 19.961746 21.252083
47.063274 20.157965 21.925016
46.72005 20.67461 18.928465
46.486637 20.423002 19.460407
46.43814 20.313133 20.120398
46.512817 20.754377 21.57301
46.703053 20.908514 21.968935
46.73054 21.186598 18.88924
46.5321 21.635454 19.385958
46.65374 21.504023 22.02711
47.075985 21.86105 19.057549
46.728195 21.933018 19.554335
46.52831 22.168308 20.503271
46.673103 22.364466 21.437521
46.885513 22.184256 22.017298
46.93561 22.640888 20.887432
47.041634 22.630636 21.383287
46.457767 31.170443 21.63229
46.719276 31.046726 22.437092
46.43695 31.12029 23.24639
46.7801 31.269016 30.011427
46.754406 31.191837 30.443085
46.93291 30.690262 31.530527
46.73696 30.990528 32.31925
46.594856 31.776798 20.981401
46.42151 31.700632 24.282583
46.1198 32.094498 24.859747
46.980648 31.99253 29.193628
46.90625 31.632711 29.674698
46.33228 31.39798 32.600266
46.857433 31.531977 33.39308
47.21542 31.65955 33.81329
46.43297 32.533966 20.630741
46.4641 32.86445 25.974525
46.591072 32.62058 33.51189
46.430157 33.558254 20.386635
46.557556 33.833885 27.644009
46.447285 33.40173 33.49419
46.982925 34.078312 34.460567
46.59847 35.865498 34.168797
46.762363 36.581642 19.672298
46.80439 36.56946 34.17403
46.41678 37.667965 19.425817
46.622604 37.315727 28.371807
46.56238 37.695442 33.13184
46.82018 37.176117 33.970284
46.41338 38.447777 19.342686
46.43959 38.759926 23.861925
47.066128 39.02292 25.197618
46.80991 38.18217 26.678247
46.78723 38.23241 27.242367
46.518997 38.490067 31.05665
46.458637 38.473976 31.263481
46.90867 38.114754 33.26963
46.33431 39.087364 19.418291
46.606796 39.48306 19.596123
46.95396 39.488766 25.073294
47.150444 39.92338 26.447134
47.292953 39.778675 27.593445
46.791767 39.016205 31.586136
46.917614 39.17182 32.23512
47.111584 38.977543 32.964237
46.66078 40.242344 19.973507
46.424725 40.518124 20.418516
46.456482 40.198547 22.726908
47.099197 40.592247 24.12253
46.926075 40.49963 25.628635
46.845802 40.430237 26.772675
47.04195 40.46546 27.33283
47.076836 40.983246 20.299372
46.843426 41.111374 20.652454
46.81244 41.288147 21.241302
47.087177 41.30962 22.269056
47.14605 41.19486 23.641422
46.938656 41.39749 25.55645
46.966335 41.459526 26.72327
47.11378 41.249054 27.350107
47.283806 41.406044 27.701506
47.303932 41.712173 22.934578
47.31507 42.15152 25.397614
47.230927 42.0962 26.30155
47.25857 41.79477 27.04766
47.726715 19.15458 19.937988
47.461502 19.081812 20.937101
47.86702 18.879097 21.413925
48.05474 18.959347 21.891079
47.53474 20.017141 18.89924
47.578026 19.518003 19.492516
47.961353 19.428085 22.220173
47.312675 20.616995 18.600325
47.608505 20.732763 22.50443
47.54803 21.297468 18.638983
47.258667 21.270111 22.503017
47.701015 21.59248 22.54687
48.15249 21.710129 28.884754
48.16315 21.781755 29.424456
48.228844 21.976852 29.883541
47.52039 21.854927 18.974472
47.51528 22.359367 19.724934
47.43805 22.176424 22.29334
48.245197 22.687729 28.025002
48.025284 22.529476 28.675104
48.006702 22.398985 29.421581
48.207996 22.40544 29.921822
47.48434 22.586641 20.135635
47.580967 22.689821 20.534185
47.386173 22.728659 21.41273
48.192886 23.605223 28.627327
48.1339 23.433313 29.418951
48.2937 23.37243 29.94045
48.417942 24.16197 28.043833
48.18356 23.958887 28.657759
48.31323 24.187418 29.32584
48.02784 30.367075 29.94584
47.96244 30.20959 30.57153
47.77922 30.02901 31.55875
48.216946 29.859293 33.02126
47.235558 31.23537 22.326368
48.143394 30.783735 28.812254
47.84476 30.705124 29.570484
47.86248 30.440445 30.406448
47.62895 30.359102 32.68702
47.51035 30.725765 33.333748
48.022404 30.45182 34.40708
47.778248 30.837973 35.470142
48.010654 30.79992 36.368526
48.28077 30.90676 37.156017
47.379917 32.12903 21.112957
47.204887 31.670559 21.355003
47.39165 31.562729 22.769148
47.33681 31.60427 23.404526
47.227383 32.156933 24.390188
47.445114 31.382126 29.0921
47.700626 31.18023 34.892506
47.56637 31.725765 35.512367
47.697384 31.535389 36.362144
48.091476 31.624811 37.337494
48.38419 31.736353 37.80513
47.26265 32.41778 20.990871
47.59434 32.25088 21.363356
48.002415 33.387794 26.71438
47.555286 32.03495 34.914055
47.599243 32.182026 35.75912
47.67196 32.174908 36.28771
48.081924 32.61436 37.07306
48.32939 32.348557 37.805664
47.51069 33.626865 20.731071
48.178947 33.09245 36.745575
46.956806 34.39175 20.280403
47.045044 35.405354 20.006615
47.156616 36.850536 19.561289
47.662437 36.314266 34.674347
47.28899 37.6623 19.439772
47.606495 37.009308 34.570366
47.116875 38.573505 19.398201
47.53442 38.67288 19.590132
47.445736 38.30573 33.737778
46.996117 39.365704 19.461546
47.440742 39.581345 19.620338
47.568657 39.469955 31.539062
47.357925 39.364124 32.660786
47.545334 40.308067 19.829601
47.951843 40.23125 28.210968
47.389805 39.560818 31.493189
48.468586 40.25211 35.557716
47.49541 41.044792 20.233566
47.553875 41.4195 20.683289
47.26731 41.533768 21.093657
47.457848 41.56193 27.593634
47.697113 41.40019 27.849669
47.72415 41.654293 21.09016
47.669273 41.717747 21.485851
47.499947 41.803444 22.852243
47.75364 42.20222 23.607052
47.59634 42.36704 24.85739
47.507515 42.483555 25.597376
47.589523 42.452282 26.504517
47.7181 42.194935 27.110556
[...]
POINT_DATA 9670
SCALARS features_00 float 1
LOOKUP_TABLE default
0.5899883 0.64158463 0.6453223 0.56792575 0.5911371 0.6397847 0.6781318 0.65793407 0.56646687 0.5867028 0.62557435 0.6161604 0.59587556 0.55487776 0.5008997 0.49886435 0.5313729 0.61181104 0.60950565 0.5876396 0.5873172 0.56928825 0.5756973 0.6061175 0.608652 0.627076 0.6321476 0.5372001 0.5508059 0.6500282 0.6378186 0.57739097 0.5833149 0.45111746 0.4527117 0.40115714 0.41948408 0.5282257 0.34948972 0.4064085 0.3243896 0.27840552 0.31540543 0.7021104 0.6248545 0.63597524 0.66065025 0.6597212 0.56714505 0.5509061 0.5613564 0.60798943 0.4802774 0.48501766 0.61107886 0.43022782 0.46295094 0.5727124 0.42991486 0.35569113 0.3473497 0.20121898 0.2679485 0.0630515 0.5658592 0.43006876 0.21521953 0.16030484 0.59245527 0.57011247 0.5049083 0.3796984 0.18675841 0.6013166 0.5426837 0.47408605 0.2674003 0.5973309 0.8917222 0.8573955 0.8389449 0.9425385 0.92221946 0.8981285 0.87038875 0.8939383 0.88635635 0.7846334 0.7958016 0.61725956 0.44576865 0.68371105 0.5167234 0.47817135 0.46420938 0.40769726 0.35334274 0.5108636 0.5484953 0.4825136 0.453738 0.44651982 0.4036767 0.35342002 0.46455842 0.5216776 0.14259453 0.3135618 0.39013195 0.37428766 0.32464206 0.39255404 0.11612514 0.20095262 0.22818425 0.32658097 0.31352806 0.30369264 0.2905668 0.35607624 0.07953653 0.12965544 0.24391416 0.27430403 0.29337272 0.31623134 0.39266437 0.11819121 0.10244397 0.2284399 0.29527605 0.33269846 0.35898894 0.53791654 0.54525506 0.50323915 0.05266809 0.050428353 0.09322204 0.098447844 0.20807649 0.3456775 0.3832989 0.3655895 0.5607543 0.5840845 0.10869193 0.36295503 0.4329961 0.42978346 0.5818546 0.6030933 0.61051196 0.21251246 0.611337 0.5829888 0.5223079 0.43106455 0.5340688 0.5049746 0.6653087 0.87879527 0.7989867 0.7553096 0.7240362 0.69116294 0.9294232 0.874913 0.8332054 0.81185603 0.79686695 0.9590424 0.9386456 0.84785676 0.9329419 0.917342 0.88120604 0.8775574 0.8731121 0.8332144 0.8397587 0.76787865 0.667633 0.5920001 0.3731259 0.40253198 0.41470474 0.37128708 0.6509156 0.47282273 0.4391113 0.3038176 0.3543462 0.36502314 0.25915074 0.19173205 0.5595259 0.21512404 0.2593423 0.4542426 0.026110575 0.2877993 0.20050219 0.31605643 0.4088624 0.338072 0.5025999 0.09222117 0.40508282 0.368493 0.5417641 -0.016263843 -0.027428543 -0.0056632906 0.038940933 0.41268635 0.42774922 0.41992134 0.58032006 0.59163046 0.086023286 0.30025563 0.41028565 0.49373555 0.49318206 0.46762353 0.60851157 0.5920027 0.29476982 0.21566957 0.36570087 0.45227402 0.51877576 0.5833229 0.5576459 0.4911214 0.4035895 0.3152616 0.4942065 0.5827532 0.5994581 0.6222621 0.38895994 0.54266477 0.6179979 0.6308392 0.61149496 0.6252678 0.57648045 0.54942113 0.8305011 0.6939889 0.55886805 0.9443127 0.66688186 0.93584955 0.7776724 0.76477826 0.6304492 0.6147337 0.60703236 0.8952796 0.82518065 0.840797 0.6272838 0.6604271 0.647637 0.6215143 0.7878543 0.74337435 0.79089713 0.63179624 0.66290325 0.6398662 0.5845757 0.62649095 0.6539562 0.31032163 0.34046033 0.37768692 0.35702968 0.57146895 0.26604486 0.30305493 0.33609998 0.33491752 0.26161203 0.28434542 0.35870522 0.4679472 0.5490656 0.51364976 0.59305125 0.48223191 0.42749947 0.3260696 0.28925914 0.26792982 0.34205455 0.45866388 0.5517748 0.583639 0.49004203 0.4739362 -0.22989917 0.20948264 0.36328828 0.45021048 0.5369943 0.5780325 0.3709761 0.50276864 0.37799057 0.33478242 0.42331398 0.23111239 0.4648802 0.27858952 0.51080674 0.48904765 0.362443 0.5653517 0.5554256 0.42845088 0.4705876 0.5880723 0.5654205 0.44752455 0.44791967 0.5811626 0.54600775 0.5045661 0.6358155 0.63301885 0.49985364 0.46592146 0.40262836 0.4009177 0.49696606 0.6001619 0.6651296 0.6692321 0.5448709 0.6621077 0.71116996 0.7198367 0.4446062 0.5013591 0.6001357 0.50555706 0.49580264 0.5031184 0.5964223 0.47961047 0.39306703 0.8543513 0.512218 0.5159715 0.50911427 0.7258663 0.47957212 0.54627615 0.57511264 0.56291175 0.5396935 0.6556932 0.6321033 0.57298034 0.5876411 0.5240823 0.6034268 0.56776834 0.5584322 0.5924852 0.5298061 0.48404032 0.5548446 0.5941198 0.65334076 0.58006716 0.52548647 0.5589942 0.583835 0.6267245 0.54074574 0.39780623 0.3844977 0.28310674 0.35180944 0.37474898 0.3565681 0.39169788 0.48693416 0.57061565 0.15359002 0.23641795 0.49046373 0.587133 0.6008404 0.60327804 0.42075995 0.35854715 0.12142139 0.60204697 0.6086981 0.42414975 0.32405582 0.18337452 0.22184777 -0.16443995 -0.290483 -0.20485213 0.60031253 0.6134784 0.25713032 0.56611645 0.59659815 0.61235434 0.27056128 0.5355964 0.26821554 0.23223522 0.08223289 0.25979474 0.067803904 0.3563737 0.16404599 0.21410547 0.1853299 0.24943036 0.18882726 0.51907647 0.2941717 0.23040631 0.30326158 0.32059795 0.3124957 0.5532421 0.22034505 0.2378582 0.45835304 0.40302563 0.5513595 0.5325597 0.6330353 0.48708916 0.49941224 0.5195873 0.48296487 0.39485136 0.38075295 0.39761612 0.6944517 0.50228035 0.52544487 0.53074193 0.40718603 0.5788864 0.6874646 0.754931 0.74835414 0.3543756 0.39961112 0.38992962 0.32207125 0.32138067 0.46899682 0.3177302 0.39168304 0.3784262 0.4173275 0.42494315 0.49456292 0.5046563 0.48528144 0.21251225 0.33148155 0.5047081 0.29656124 0.4453805 0.37428457 0.43509075 0.43417156 0.50016916 0.53118396 0.56817377 0.47584465 0.501979 0.46866062 0.3621174 0.39262092 0.40006852 0.3976114 0.2474046 0.3493393 0.393246 0.38762957 0.5236006 0.58888805 0.5980694 0.1498994 0.60043883 0.60281646 -0.35160327 -0.37882704 -0.098589376 0.60746676 0.16689572 0.031854734 -0.35094655 0.61893964 0.19930075 0.18257795 0.105554946 0.37581748 0.11586194 0.041316822 0.10730983 0.09385162 0.7172596 0.762465 0.7955214 0.15343928 0.14040062 0.70865405 0.7589916 0.7917136 0.18163465 0.19879898 0.17369884 0.7148311 0.4376847 0.0723271 0.28379244 0.20907259 0.48150733 0.035012916 0.052006952 0.25401783 0.45943108 0.36184773 0.6531361 0.38107938 0.537872 0.53538054 0.3017465 0.3232365 0.6468121 0.49561143 0.5257486 0.55890846 0.57289803 0.57099885 0.30217102 0.35214046 0.5711155 0.7257842 0.7448963 0.7478014 0.29619747 0.3291821 0.22444859 0.23150194 0.2624011 0.14591292 0.38374534 0.36461186 0.30856183 0.32616886 0.29982632 0.34475127 0.018519105 0.23184279 0.28328508 0.31101042 0.3297674 0.3439104 0.31749892 0.26820868 0.26780984 0.30720326 0.256981 0.27855653 0.19776337 0.38357362 0.29137775 0.22443786 0.17139734 0.22646932 0.09724073 -0.0045149475 -0.04821554 0.36184105 0.3117475 0.37589055 0.41907382 0.36397225 0.419909 0.33367613 0.31456766 0.35787764 0.36255553 0.3164007 0.13797839 0.5348207 0.48423612 0.39138877 0.38852513 0.3910027 0.574907 0.5389577 0.38537186 0.18434812 -0.076468304 0.078461654 0.0646589 0.2745257 0.32769728 0.55530524 0.59455395 0.5696995 0.38183373 0.06316417 -0.05431828 0.59214115 0.5925852 0.5469264 0.5940156 0.018090568 0.629273 0.570873 -0.3675945 0.5377501 -0.15754703 0.6612462 0.751655 0.79993826 0.096207194 0.17796144 0.5627581 0.65825325 0.75959367 0.8102803 0.8203255 -0.08766958 -0.22863242 0.14737526 0.13936855 0.58541036 0.8029958 0.8091212 0.18278965 0.67146164 0.7442279 0.76307553 0.7879585 0.203105 0.6425077 0.67669034 0.7288308 -0.059632283 0.30489123 0.21842563 0.1550642 -0.086325794 -0.009388159 0.020489262 0.06137492 0.3188537 0.5606342 0.5331324 0.20173542 0.24704495 0.23401117 0.2676637 0.60360307 0.41127554 0.47905308 0.53039813 0.5697332 0.58678806 0.5810716 0.5632524 0.30356568 0.4324649 0.67252386 0.6678139 0.5408506 0.5932294 0.6075177 0.59929585 0.7190924 0.74240124 0.734519 0.56848115 0.60869634 0.6835829 0.70838845 0.517679 0.517493 0.5925386 0.64171803 0.4706728 0.3968892 0.3332155 0.35526904 0.3805084 0.38355076 0.30570433 0.4047682 0.4760685 0.16983844 -0.033297364 0.41361773 0.33475417 0.35926312 0.4502137 0.4827264 0.21955362 -0.06652343 0.40264407 0.39628705 0.26707703 0.2595876 0.22190166 0.2203857 0.20112714 0.2147834 0.21814567 0.14615257 0.24728855 0.13023998 0.17156914 0.13100749 0.33173 0.18065563 0.14751968 0.069511004 0.37966228 0.39960426 0.15232396 0.0069722533 -0.2626241 0.23879306 0.22819258 0.36852098 0.06677872 0.14632337 0.39120233 0.41849196 0.5031503 -0.18139811 0.3790424 0.23219663 0.1353055 0.34607655 0.5393398 0.52741724 0.4539079 0.59768665 0.09282061 0.096265174 0.14015575 -0.107689895 0.55658185 -0.097403735 -0.053430073 0.3950395 0.72072244 0.74875796 0.7844523 -0.24454728 0.8035605 -0.08235623 0.7962947 -0.049756393 0.4216868 0.7371235 0.75490344 0.12381531 0.16136383 0.6551609 0.6947182 0.18378401 0.19685167 0.190168 -0.14886425 0.1937674 0.23093987 0.5019542 0.12995517 0.11256868 0.41695294 0.4973384 0.58617127 0.55895853 0.6009078 0.61641073 0.60670125 0.8655751 0.8417093 0.7961491 0.8072672 0.8584348 0.8009647 0.75089335 0.6763503 0.74882066 0.7496387 0.72179025 0.5471395 0.5044184 0.44169694 0.40959018 0.40595943 0.4068709 0.43472046 0.4349388 0.43685704 0.40537435 0.16210178 0.5518522 0.54859865 0.5604856 0.58203727 0.54547507 0.5722877 0.3928076 0.517333 0.5462855 0.5146559 0.23159686 0.35541108 0.21819194 0.22223315 0.13477632 0.17863297 0.15263064 0.2167733 0.18902671 0.28561836 0.22748527 0.19754714 0.39557156 0.4970355 0.47345567 0.43840215 0.43146992 0.44577354 0.11086652 0.12566787 0.12703039 0.38304418 0.34106943 -0.040623114 0.3677402 0.19784832 -0.21466894 -0.053842664 -0.12693807 -0.2918504 0.037669614 0.111965805 0.11285344 -0.41404423 0.049014732 -0.21926732 0.20671389 0.5542184 0.6824976 0.7186973 0.7268162 0.45966616 0.37356076 -0.004252225 -0.17014332 0.74353516 0.53353196 0.17347415 0.74223936 0.0640081 0.71920145 0.48479486 0.63867605 -0.17279673 0.25193745 0.20040908 0.10224196 0.10437796 -0.0015078783 -0.20932423 -0.11376113 -0.046015523 0.17940284 0.43217337 0.16427355 0.18554625 -0.004286766 -0.03220202 0.1351023 0.07775413 0.49462193 0.5458463 0.38326997 0.6017804 0.5935204 0.7823417 0.8550159 0.8413863 0.78156334 0.67352355 0.77571505 0.72726566 0.6899147 0.66776884 0.67534757 0.5655514 0.64289373 0.4947513 0.4714826 0.43539274 0.44674206 0.43344304 0.3736354 0.20355335 0.41755968 0.66393805 0.6681838 0.06923161 0.07810747 0.6361188 0.63997895 0.6320312 0.61231405 0.58476114 0.02519999 0.56918967 0.060944483 0.5351281 0.5023041 0.39593828 0.07641916 0.21358414 0.19650023 0.174456 0.21140483 0.46130395 0.4570474 0.3497027 0.051885605 0.21557456 0.48864174 0.4969927 0.49304137 0.4556464 0.41939554 0.4699726 0.49136847 0.4742552 0.44407868 0.36426067 0.43700802 0.4344622 0.38113004 0.37613666 0.46246007 0.19188225 0.16203962 0.40871865 0.3043909 0.28079295 0.2950343 0.27897257 0.12929668 0.08018514 0.36982873 0.4852674 0.54209536 0.61056626 0.17113644 0.030906714 0.13869107 0.014373653 0.037960462 0.19840874 0.32099783 0.4848653 0.5855764 0.6942883 0.78666705 -0.04240969 -0.25321865 -0.25882185 0.02814585 0.13722621 0.28479478 0.48633176 0.6628836 0.79573756 0.8080333 0.058073044 0.043453313 0.10253893 0.70604813 0.7828971 0.088144705 -0.0012730509 0.049687695 0.076602995 0.68952596 0.74028015 0.055456907 0.10998087 0.031072754 0.0017449791 0.17775172 -0.07224182 0.64056575 0.6853188 0.8026444 0.72186565 0.61024064 0.6466829 0.8586323 0.7436228 0.6449313 0.82412857 0.70914745 0.50539094 0.6283629 0.44583392 0.23134518 0.43559366 0.59867024 0.12362498 0.18445677 0.25927576 0.37530154 0.08879538 0.15745762 0.050050415 0.16223103 0.1980749 0.12461658 0.18785715 0.1174805 0.04378651 0.029395774 0.21366076 0.36475328 0.39677337 0.35211402 0.38236117 0.1842883 0.3320163 0.36884767 0.43485206 0.45215267 0.45093226 0.50637746 0.7392291 0.8068588 0.81326973 0.7668989 0.64946866 0.67974025 0.69387746 0.6202123 0.59695345 0.6160941 0.55868024 0.58866817 0.5164117 0.51525235 0.31765205 0.5110109 0.4908737 0.37402266 0.48783815 0.46399063 0.4053472 0.66743314 0.6488622 0.63782203 0.64510924 0.44086063 0.36459956 0.17028287 0.2607354 0.6661478 0.63496256 0.6118343 0.03533899 0.25019222 0.3040968 0.56226325 0.035948835 -0.103144966 0.52322394 0.24735011 0.31687784 0.1746283 0.4087096 -0.1089602 -0.006587889 -0.0068121552 0.36131936 0.43094838 0.39893872 0.3177603 0.35620612 0.2454927 0.39007527 0.38868794 0.27724543 0.24108423 0.26128346 0.1687034 0.3679688 0.42826936 0.18718332 0.22839102 0.17364642 0.39966738 0.45914876 0.4925355 0.5419977 0.14888456 0.53697383 0.63205945 0.7616898 0.134344 -0.029267354 -0.19916414 0.793591 0.8232151 -0.14708772 0.839596 0.8356595 -0.17637517 0.8022039 0.84790283 0.07837085 0.6269272 0.71307826 0.76725006 0.07389908 0.10250961 0.13057718 0.006056821 -0.15419398 0.78731894 0.7368332 0.5324821 0.35517648 -0.03779632 -0.13118976 0.5260296 0.92590463 0.8653686 0.75306463 0.54690516 0.9475826 0.90522015 0.56294835 0.93082833 0.85753083 0.5732285 0.7472049 0.59408605 0.46652395 0.10321988 0.07035574 0.22836876 0.43528426 0.08389254 0.11751647 0.06323467 -0.016857415 -0.084287606 0.04001488 0.16888347 0.21246052 -0.06868672 0.31194654 0.403791 0.4583016 0.48814756 0.51670337 0.49130765 0.5675835 0.5607088 0.53944427 0.5062801 0.6052631 0.6141554 0.62523776 0.6840583 0.70809007 0.7628622 0.6212944 0.63753307 0.64555204 0.6521454 0.5926142 0.47987252 0.5391991 0.5294588 0.5197883 0.33449978 0.38201627 0.47275537 0.46472284 0.31653208 0.6328558 0.62511456 0.43148842 0.35157204 0.62796086 0.61736083 0.60507655 0.5996423 0.103619136 0.5557039 0.502089 0.5330432 0.026390351 -0.039345622 0.089151084 0.39650756 0.3625913 0.024306647 0.09945369 -0.0683659 -0.1454063 -0.0030829348 -0.11941301 -0.1570584 -0.16695657 -0.21100119 -0.23757608 -0.24551822 -0.24816374 -0.009993106 0.1594256 0.2837033 0.21383017 0.13831964 0.2683077 0.17887193 0.17311727 0.28070292 0.3737785 0.1725564 0.28918102 0.36045605 0.4361799 0.47454727 0.15963006 0.49304134 0.5501706 0.13804008 0.12943129 0.648437 0.77548003 -0.17223147 0.80545497 0.8208189 0.8366637 0.82947004 -0.25429326 -0.19304284 0.8400891 0.76136494 0.8018774 0.3488928 0.26692334 0.16921923 0.7024073 0.73080474 0.1246031 -0.023852684 0.09408599 0.83339524 0.6406998 0.516714 0.12982202 -0.08887397 0.09437151 0.95752686 0.88704574 0.47296607 0.9929559 0.4152717 0.9339675 0.8708694 0.4182161 0.7964204 0.5458675 0.3854231 0.32010388 0.4704566 0.27168196 0.1264213 0.030757997 -0.031633075 0.03369702 -0.15386164 -0.018290311 0.063005544 0.40744472 -0.017471764 -0.015141711 0.08033676 0.42267293 0.29428688 0.30039793 0.37988606 0.4872446 0.5648359 0.49362516 0.57269955 0.6475818 0.6757481 0.6522589 0.58775866 0.6055803 0.5962491 0.56440544 0.5956178 0.51777095 0.2611996 0.5152666 0.21311694 0.17208064 0.50987405 0.17562242 0.2123662 0.50172955 0.22519419 0.25202358 0.44379798 0.4357757 0.29915097 0.3508073 0.28449503 0.5633564 0.56599045 0.15418006 0.24377292 0.5195954 0.5199764 0.061519623 0.010593697 -0.0070319623 0.34394482 0.016283214 0.1670227 0.096898206 -0.046375193 -0.12585056 -0.22299 0.029624268 -0.18523742 -0.05543545 -0.09373978 -0.15570869 0.24387111 -0.42430297 -0.21559758 0.04185688 0.1406263 0.11509712 0.12460245 0.19495945 0.15765066 0.27597916 0.37206796 0.41142258 0.43197596 0.4495834 -0.034447715 0.45274308 0.058657788 0.60259414 0.76312137 0.76981544 0.8010272 -0.2553867 0.7681144 0.8067663 0.61882985 0.76828784 0.40867376 0.26821923 0.6402384 0.7173413 0.4311606 0.43150914 0.37693155 0.40278223 0.20062423 -0.082207024 0.1802823 0.7853501 0.70988214 0.5128464 0.07483031 -0.07658656 0.10706282 0.92685306 0.8543056 0.33378944 0.92984116 0.3048386 0.38666797 0.88958406 0.78941715 0.35347342 0.40385163 0.76368093 0.58265674 0.43461722 0.32608944 0.13209476 -0.08964527 -0.041250154 -0.19898003 0.5162584 -0.022952698 0.26940215 -0.20603614 -0.06885132 -0.049414977 0.005828947 0.3241687 0.59927607 0.24174756 0.4130867 0.43603778 0.06384712 0.19761187 0.28524625 0.30688244 0.4525177 0.52409357 0.5525683 0.38229918 0.49823707 0.55441636 0.45428252 0.29300848 0.28054824 0.28846803 0.3188513 0.40514594 0.4642917 0.49547938 0.5473534 0.65999496 0.67805374 0.6413429 0.56921315 0.2840603 0.3196923 0.4636401 0.21698791 0.44886613 0.16257446 0.18135396 0.20219 0.43477768 0.2307756 0.37398523 0.35300836 0.25915262 0.28959048 0.2774993 0.22187158 0.0943632 0.039095633 0.3537233 0.3564536 0.44528115 0.46702796 0.46685028 0.4644609 -0.005572021 -0.11650546 0.12693109 0.16013354 0.35174307 0.43104517 0.43571568 0.44963068 -0.16688395 0.16186394 -0.12114587 -0.0153148025 0.036894917 0.31407166 0.26700306 0.36299047 0.043308944 0.19057578 0.22293943 0.22476338 -0.026493773 0.0767076 0.31860036 0.26453224 0.2947049 -0.13813803 0.016595475 -0.12593141 0.05587108 0.15374005 0.25133675 0.2624782 0.20604497 0.3364959 0.3588378 0.2567803 0.17712969 0.36933663 0.4014183 0.42119712 0.38040036 0.02652122 -0.04940179 0.48149282 0.66936344 -0.09443101 0.3682137 0.5496163 0.6514293 0.057411864 0.41133878 0.6327522 0.47321194 0.37457246 0.38294482 0.45927218 0.41216373 0.20456354 0.1927699 0.21837525 0.5028539 0.06549165 0.8599944 0.76273626 0.5813191 0.2279979 -0.034738854 0.8447801 0.7711139 -0.41916934 0.8169276 0.7460091 0.6781552 0.60152376 0.21619143 0.4107781 0.2388646 -0.07023481 -0.27709085 0.4781687 0.5130328 0.521835 0.03163881 -0.05834716 0.059849672 -0.13743564 -0.08171885 0.5464935 0.572836 0.06566916 0.34759563 0.33305424 0.14005056 0.5148944 0.50899595 0.3918929 0.527254 0.48537382 0.43752557 0.24287906 0.26489225 0.26495457 0.39441806 0.45048344 0.46209478 0.46252856 0.57437336 0.6572201 0.59111345 0.22260946 0.27347386 0.3018452 0.3350351 0.40898338 0.26468214 0.17272955 0.15757376 0.15558545 0.15771466 0.15850185 0.16061604 0.19200787 0.20676005 0.361053 0.31086156 0.2569732 0.27525538 0.1603906 0.22676775 0.41383618 0.41795194 0.43709308 0.465805 0.47262534 0.48204032 -0.13434434 0.30326277 0.32913607 0.47660118 0.47615167 0.4792747 0.49065578 -0.048807994 0.043755576 0.2443724 0.1406694 -0.19010611 0.08652355 0.16326164 0.4497041 0.41614497 0.43171033 0.1631752 -0.09264836 0.05555941 0.1793185 -0.19151801 0.3286518 0.29634345 0.36536083 -0.054123357 0.1697268 0.38534248 0.11669307 0.10910608 0.34673464 0.20713419 0.3319424 0.28950024 0.21928857 0.24087659 0.22897011 0.2568175 0.23252943 0.13710572 0.14667495 0.279725 0.11172634 0.2769478 0.0155997425 0.28424102 0.03766033 0.15572183 0.39258313 0.32417935 0.080097616 0.43832245 0.17100081 0.3896553 0.36736128 0.22831056 0.2095691 0.0045835227 -0.04200434 0.17062393 0.5584523 0.389938 -0.0118872225 0.667621 0.5694993 0.6690168 0.6179831 -0.3247751 -0.15705046 0.5809884 0.53435403 0.41840225 0.3804052 0.38247374 0.37914148 0.28550968 0.53750634 0.6274837 0.14715685 0.10674967 0.07858421 -0.29935467 -0.31127316 -0.19457042 -0.1657214 0.55990607 0.6055049 0.07327099 0.08122645 0.085635655 -0.14461412 -0.03973537 0.48117894 0.51139003 0.24404582 0.33797103 0.5463185 0.15698622 0.18956417 0.4183959 0.42460018 0.172928 0.1933763 0.24941204 0.25944093 0.27771965 0.35131305 0.38477504 0.39870942 0.47322336 0.34728268 0.48703086 0.08257179 0.5388667 0.046723902 0.15973952 0.4642657 0.17945655 0.20407169 0.36355677 0.22612137 0.41358435 0.39552325 0.3752665 0.40843242 0.4686473 0.5229275 0.5384062 0.088321105 0.26138598 0.33974865 0.30582848 0.28477895 0.24010555 0.364945 0.52510655 0.4842847 0.042053618 -0.0050807446 0.2304922 0.28012124 0.29710302 0.1602995 -0.0085869115 -0.15733393 0.061273016 0.36190617 -0.088687 -0.18030787 0.27934298 0.2525633 0.30600032 0.21262005 0.12417186 0.3800846 0.3743509 0.3699804 0.098117664 0.33142734 0.04372459 0.29585943 0.28271028 0.051383432 0.12358861 0.2505966 0.012793183 0.22080813 0.20682395 -0.008138627 0.11515069 0.25625765 0.20158541 0.17299022 0.30092376 0.22177383 0.18753347 0.20636494 -0.14753678 -0.03905338 0.16729626 0.13214879 -0.14139543 0.42608738 0.15095939 -0.09173668 0.5659835 0.5160772 -0.04441041 0.48796812 0.4644199 0.31473163 0.40314296 0.4522012 0.42805606 0.6397029 0.3898118 0.2912578 0.18289754 0.5942872 0.12820348 0.123610124 0.11223116 -0.021095783 -0.08604721 -0.07068046 0.08308935 -0.025658894 0.53733754 0.54403096 0.1060099 0.098894574 0.2047456 0.1553362 0.19416614 -0.047444105 0.46285233 0.44413197 0.36295635 0.2908114 0.30729616 -0.044399023 0.09869773 0.12681013 0.2511195 0.30746853 0.391