# vtk DataFile Version 2.0
Really cool data
ASCII
DATASET POLYDATA
POINTS 7927 float
99.285065 35.030724 95.88987
99.29237 34.834755 96.47201
99.4438 34.731903 97.71549
99.44976 34.94029 98.153854
99.236725 35.531265 95.742165
99.142685 35.576637 96.26717
99.27804 35.473194 97.16447
99.47482 35.20182 98.0448
99.30099 36.22374 95.7865
99.24292 36.220177 96.39978
99.2373 35.956028 96.99657
100.46263 24.02843 82.51704
100.438126 24.392076 82.37528
100.41642 24.373034 83.0171
100.39064 24.734728 86.52829
100.351944 24.99854 87.31941
100.357346 25.100803 87.94608
100.195175 25.51072 86.68211
100.17561 25.684237 87.50315
100.29296 25.471203 88.112015
100.34904 25.972935 89.16682
100.247025 26.397411 86.69493
100.11383 26.492386 87.49159
100.17075 26.512093 88.468575
100.26136 26.67742 89.2456
100.43809 26.674051 89.8502
100.2345 26.856516 86.94373
100.239784 27.021963 87.44411
100.21342 27.269104 88.51662
100.34454 27.343596 89.29193
100.10298 33.307686 97.62285
100.17326 33.320232 98.124504
100.021576 34.38322 95.72584
99.70206 34.094486 96.88499
99.838104 33.725464 97.64385
99.9365 33.67356 98.29482
100.12542 33.955082 98.90962
99.96205 34.976547 95.1894
99.65012 34.743042 95.740585
99.60232 34.48488 96.379616
99.50552 34.302845 97.68482
99.65994 34.51789 98.52274
100.01264 34.55853 99.112686
99.83105 35.564106 95.06696
99.4355 35.56686 95.39432
99.56121 35.586514 97.56036
99.62586 35.424915 98.47201
99.99197 35.40033 99.13556
99.85484 36.425793 95.17425
99.54195 36.365906 95.54493
99.46812 36.618275 96.26462
99.59089 36.44978 97.25841
99.85294 36.079124 98.438126
99.93913 35.90213 98.88113
100.221375 36.7696 95.1882
99.847824 36.871445 95.70043
99.74543 36.96139 96.40445
99.9867 37.115627 96.97217
100.32573 37.03539 98.104034
100.49345 38.785835 83.55184
101.40241 20.973328 81.79835
101.46785 21.082361 81.98599
101.361176 22.187115 79.891945
101.350105 21.696856 80.60974
101.264824 21.7127 81.39647
101.387314 21.138662 82.17457
101.218254 22.669596 79.76532
101.07616 22.64436 80.47082
101.08378 22.611645 81.5234
101.27979 22.53809 82.44828
100.90869 23.173998 85.70337
101.099396 23.212212 86.48557
101.361015 23.76774 79.15842
101.159325 23.524038 79.562096
100.89521 23.516048 80.51059
100.67594 23.74545 81.92929
100.5863 23.6953 82.5828
100.62103 23.71423 83.15124
101.12108 23.364595 84.50344
100.73469 23.589457 85.59167
100.73426 23.731974 86.55383
101.016426 23.896263 87.46358
100.91971 24.031914 87.93003
101.24086 24.219225 89.18178
101.22686 24.259586 79.68567
101.15901 24.56168 80.38624
100.63869 24.352703 81.718445
100.56182 24.72775 82.5582
100.56505 24.558859 83.35339
100.53553 24.519968 86.644035
100.68843 24.489567 87.39282
100.88522 24.48289 88.56385
101.03708 24.810266 89.436035
101.3151 24.99785 90.39889
101.22599 24.927485 80.63161
100.964 25.130665 81.76894
100.847565 25.253216 82.45688
100.54327 24.885794 83.19962
100.93003 25.638584 84.75303
100.50891 25.175186 86.813545
100.680305 25.55766 89.48999
100.95355 25.88453 90.52281
101.30323 25.829653 91.389465
101.162445 25.815708 83.78225
100.85489 26.275484 85.58571
100.681175 26.700602 90.402115
101.11323 26.578928 91.389534
101.33842 26.652315 91.87595
101.26766 26.71312 85.580154
100.762764 27.327724 86.78463
100.525314 27.527523 87.67608
100.57411 27.61895 89.62024
100.8496 27.227158 90.40782
101.30142 27.227514 91.49033
100.76453 27.930983 87.903755
100.6701 28.042585 88.54183
100.74893 28.059355 89.20622
100.784676 33.349674 96.99556
100.48698 33.186317 97.65382
100.48654 33.14805 98.022865
100.964714 33.342422 98.83227
100.279976 34.17675 95.99342
100.74427 33.699627 96.53033
100.40847 33.430183 98.65811
100.64767 33.76257 99.09944
100.603546 34.848248 95.09209
100.364876 34.616882 99.46291
101.06838 34.805313 99.75579
100.374626 35.449245 94.882065
100.804955 35.636066 99.61535
100.379875 36.159904 94.84488
100.59068 36.68209 98.46495
100.577156 35.957867 99.379005
100.981735 37.98403 82.94752
100.77129 38.02568 83.582695
100.84221 38.00338 84.15682
101.38487 37.27444 85.088104
101.33417 37.621727 94.45783
100.7826 37.529015 95.66369
100.56559 37.554104 96.52343
100.47563 36.814316 98.652145
100.966095 36.93179 98.84798
101.112526 38.79099 82.25753
100.75867 38.582813 82.85114
100.57316 38.572556 83.47108
100.68329 38.616714 84.17948
101.13879 38.40823 85.01425
101.379974 38.778408 90.74222
101.42296 38.697212 91.63628
101.374306 38.937584 92.398415
101.448814 38.886772 93.154434
101.22286 38.025303 96.058075
101.00101 38.03663 96.456436
100.99711 38.079212 97.50005
101.44894 38.529175 98.99652
101.1931 39.500343 81.96185
100.82273 39.4625 82.670204
100.63842 39.33283 83.520905
100.71885 39.271004 84.11025
101.23079 39.269432 84.96764
101.34537 39.59102 90.49457
101.11632 39.65948 91.51913
101.25764 39.632725 92.46058
101.43458 39.37079 98.25226
101.39886 39.666363 99.39033
101.32739 40.239395 81.85085
101.12746 40.30514 82.54968
101.01008 40.17059 83.507545
101.13564 40.107098 84.33248
101.225426 40.338806 91.12958
101.16648 40.318295 91.63986
101.24241 40.31427 92.148544
101.28083 40.28184 98.75843
101.3376 40.652546 99.47989
101.42558 40.253204 99.83461
101.34486 40.691883 83.15794
101.37524 40.808353 91.618645
101.37395 41.056618 98.766335
101.39336 41.150364 99.45799
102.042274 20.26258 80.95211
102.06889 20.020342 81.609344
102.07771 20.08309 82.179474
101.996 21.221949 80.081825
101.817184 20.734386 80.74565
101.56171 20.742535 81.60498
101.72422 20.708967 82.39192
102.118454 20.731445 83.07987
102.09291 21.98758 79.07257
101.657616 21.893265 79.76167
101.45376 21.302713 80.85769
101.50561 21.404156 82.53641
101.79537 21.645674 83.06694
102.08317 22.369535 85.452995
102.236885 22.902193 78.38572
101.75641 22.641733 78.98096
101.699104 22.83874 84.54552
101.53611 22.820894 85.15306
101.656654 22.674505 86.180725
101.838646 22.939877 87.36352
101.95701 23.145693 88.30674
102.138405 23.33052 89.01199
101.613594 23.532173 78.92267
101.62629 23.64434 88.74521
101.72582 24.003159 89.430244
101.89038 24.142881 90.15746
101.75514 24.268335 78.953064
101.48471 24.700758 79.45028
101.55269 24.331268 89.784004
101.57202 24.316671 89.972595
101.5718 25.189915 91.03949
101.92999 25.325016 91.80483
102.015755 24.807695 78.9955
101.64044 25.013697 79.731476
101.72558 25.261217 80.54989
101.66224 25.423485 91.507675
101.812675 25.87624 92.14666
102.134125 25.590128 80.81165
101.64407 25.690071 81.76201
101.96241 25.922533 82.22478
101.44087 26.105057 83.63868
101.37705 26.59081 84.67076
101.66459 26.404703 92.247894
102.139084 26.31886 92.649124
102.131584 27.060774 85.037735
101.5327 27.10794 85.77353
101.68263 27.48755 86.28825
102.00911 27.203135 92.38584
102.37231 27.521177 111.61606
102.3226 27.567205 112.48546
102.344345 27.948654 113.00974
101.321335 27.772556 86.925316
101.33134 28.238214 87.84686
101.597206 28.413399 88.396255
101.24207 28.43876 89.12633
101.70443 28.132626 90.07257
101.71083 27.887234 91.232735
102.40768 28.851929 95.5656
102.36348 28.937681 95.99072
102.42173 28.11251 111.05473
102.29965 28.125494 111.48059
102.094894 28.748566 112.34301
102.3609 28.609957 113.55977
101.60368 28.578407 88.70501
102.46354 29.300467 95.07871
102.41858 29.395147 95.68373
102.44313 29.363684 96.05267
102.179756 29.511404 111.67481
101.90113 29.777008 112.59138
101.93219 29.839727 113.42451
102.15246 29.878582 113.916534
102.04147 30.506006 111.872635
101.7483 30.707872 112.55977
101.69515 30.697142 113.37121
102.0499 30.652018 114.032486
102.15374 31.339422 111.9743
101.853065 31.241932 112.62247
101.82422 31.274315 113.45295
102.051735 31.171934 113.95956
101.196365 33.286034 96.887146
101.67126 33.12111 97.47436
101.49412 33.158455 98.35768
101.54631 33.325752 98.92712
102.32201 31.73159 112.155624
102.131615 31.822285 112.81999
102.13729 31.777979 113.3806
101.24881 34.22797 95.48566
101.807846 33.600616 96.263245
101.21234 33.864906 99.38295
102.29145 35.060867 85.82426
101.255104 34.655186 95.21055
101.77476 34.795044 99.712296
102.149574 35.738255 84.64012
101.847824 35.82334 85.4279
101.87123 35.978046 86.33507
102.17904 35.846855 86.73506
101.25813 35.301186 94.988716
101.18845 35.107372 99.757614
101.94062 36.2151 103.8597
102.10188 36.054775 104.42579
102.262535 36.088524 105.2728
101.98546 37.015846 83.816505
101.73527 36.566525 84.68579
101.57403 36.465816 85.52147
101.67627 36.56002 86.228355
102.05281 36.578438 86.83177
102.0839 36.582645 93.65108
101.55994 36.409225 99.457504
101.992645 36.85416 103.21758
101.85453 36.599354 103.65259
101.86051 36.58023 104.51513
102.11873 36.66739 105.36601
102.2957 36.73579 105.88287
102.00783 38.095222 82.15071
101.36287 37.949917 82.68448
101.56961 37.55621 85.48614
102.045975 38.20637 89.93255
102.00229 38.033985 90.32005
101.87415 37.746616 91.74521
101.68962 37.81317 93.83692
101.52738 37.348045 99.34934
101.84321 37.589054 99.702835
102.05793 37.281532 103.15038
101.83247 37.33106 103.72566
101.82598 37.38142 104.45977
102.16948 37.335228 105.4816
102.28996 37.005375 105.80199
101.682465 38.761967 81.82084
101.50139 38.91206 85.50249
101.9746 38.528942 86.16935
101.74631 38.697712 89.99288
101.50748 38.66051 90.672676
101.56178 38.35661 91.32843
101.586426 38.204353 92.61722
101.550575 38.156826 93.59828
101.6303 38.26639 94.35292
101.65314 38.59917 99.046844
102.386154 38.6523 102.742355
102.143074 38.05395 103.533
101.96925 37.936134 104.1542
101.88099 39.798645 81.226006
101.5041 39.5146 81.56965
101.579994 39.531094 85.40894
102.052895 39.43269 86.00595
102.174446 39.291298 89.29973
101.6997 39.476555 89.9806
101.73266 39.687325 93.17519
102.05905 39.39849 94.45825
101.90107 39.204967 96.44138
101.44681 38.82044 97.1513
101.81978 39.63918 100.23203
102.286545 39.6128 101.45142
102.27235 38.90216 103.34545
102.4636 39.10975 103.95913
101.95919 40.28985 81.23795
101.58419 40.41256 81.61056
101.551315 40.476967 84.45801
101.95142 39.91551 85.766235
101.887764 40.11433 89.999794
101.55153 40.422153 90.60083
101.483185 40.454727 92.48601
102.217606 40.170353 94.08434
[...]
POINT_DATA 7927
SCALARS features_00 float 1
LOOKUP_TABLE default
0.7755668 0.7558217 0.7053056 0.6853941 0.77004844 0.7497189 0.68187404 0.6568525 0.71168727 0.68461835 0.6585102 0.37257302 0.39122742 0.37716895 0.3550996 0.37069914 0.37322998 0.41982323 0.43961826 0.40851352 0.4502099 0.5152258 0.5387878 0.54041094 0.53271997 0.49865884 0.5492014 0.5818633 0.6158142 0.59780395 0.73837006 0.75167596 0.6979445 0.7392312 0.75131816 0.7611346 0.76376724 0.72506535 0.7532525 0.7495227 0.7324998 0.7348318 0.74975204 0.7537951 0.76810384 0.6316401 0.62848055 0.63628256 0.67457306 0.6913942 0.62529063 0.5675844 0.5409116 0.5573251 0.55724275 0.57164794 0.5428427 0.47786433 0.3914848 0.6610167 0.38424954 0.37692714 0.4463059 0.38775724 0.3594951 0.36776742 0.49748552 0.42460275 0.33601528 0.28906384 0.3158709 0.35328174 0.5672411 0.5588236 0.48794597 0.3867904 0.33971238 0.29518566 0.23330578 0.30920103 0.34752268 0.34015667 0.33539605 0.3247293 0.5267941 0.47212225 0.4304732 0.38320565 0.38369685 0.34841663 0.34221315 0.33366928 0.32884976 0.33844417 0.43236607 0.42001486 0.37710112 0.38628182 0.26502824 0.38804471 0.38747907 0.4014154 0.39373553 0.26399744 0.37210327 0.47391063 0.4359081 0.42194277 0.27546042 0.4943875 0.5923526 0.5996228 0.51322746 0.4538889 0.57872665 0.6264883 0.63929915 0.6625507 0.7168608 0.7296878 0.72676456 0.66685665 0.636387 0.7490397 0.7496489 0.61443704 0.74225485 0.6823046 0.68862236 0.5382931 0.6617976 0.39529616 0.49615848 0.662117 0.59953225 0.5372529 0.46724874 0.10123244 0.27144846 0.35606474 0.37663096 0.28877312 0.76991564 0.72726494 0.6595477 0.56722033 0.46380717 0.5907952 0.51372623 0.43839028 0.32753563 0.12911788 0.20357247 0.19949342 0.13474089 0.81634176 0.7794945 0.68162215 0.5970491 0.48748225 0.64535433 0.5937254 0.48747414 0.25898257 0.28807616 0.8422984 0.796523 0.68050706 0.55420095 0.6299069 0.6064116 0.5547961 0.38428074 0.40922797 0.346033 0.70836955 0.5909501 0.44464707 0.449085 0.39797932 0.4189042 0.41692019 0.37593168 0.38811153 0.3954473 0.38239324 0.33361393 0.44692004 0.42856026 0.38589942 0.33373225 0.25827128 0.21695225 0.5265789 0.52715343 0.17097794 0.2479572 0.31434757 0.3676521 0.3645838 0.35460055 0.56856716 0.34060866 0.328592 0.33056536 0.5294117 0.48466387 0.32524753 0.32556343 0.35035998 0.34020036 0.45342222 0.43028384 0.3698821 0.3593377 0.36634147 0.30280945 0.33925122 0.26240814 0.21606486 0.17386606 0.39563575 0.35705376 0.120594725 0.2516507 0.28596133 0.42260998 0.50474477 0.5122073 0.49605063 0.41626757 0.48099923 0.48026213 0.59686434 0.49629915 0.4367151 0.5067869 0.51290846 0.45392832 0.494583 0.5330181 0.4649039 0.50413716 0.5290373 0.5406855 0.5427909 0.54339325 0.6901655 0.6719042 0.62016773 0.66925025 0.8194109 0.87394917 0.7721235 0.7054114 0.8302604 0.9067111 0.85706174 0.6206902 0.61221814 0.6831709 0.69899774 0.73442423 0.8515055 0.90007174 0.4819074 0.48131663 0.7236427 0.5800297 0.46588024 0.60904956 0.54539406 0.52773863 0.48024943 0.43391654 0.46579492 0.61843646 0.5067841 0.4904214 0.4725542 0.44730228 0.47198194 0.49511397 0.4742291 0.40621862 0.18790123 0.3031742 0.48532218 0.5145377 0.52786756 0.50228363 0.46769464 0.63927025 0.65782756 0.44671023 0.5735282 0.5348339 0.4322669 0.19058925 0.12474744 0.056960963 0.43340337 0.44980186 0.47730744 0.46911937 0.4679389 0.7445018 0.43095568 0.3821328 0.61814386 0.58653796 0.5211226 0.35721076 0.2279596 0.10615143 0.14313366 0.19714886 0.33114854 0.3822514 0.8229892 0.81573844 0.429669 0.35989064 0.6200856 0.63806444 0.38193604 0.17364237 -0.019074023 0.1059318 0.22093835 0.11346433 0.21539637 0.22840366 0.844763 0.85239327 0.49896553 0.36237937 0.59148526 0.6179793 0.5016011 0.22300366 0.161585 0.3029434 0.36346906 0.27870393 0.8430462 0.76592964 0.6579714 0.47221532 0.5343288 0.5526 0.42445165 0.16610613 0.37959212 0.4530064 0.46038342 0.43300885 0.3673091 0.4340793 0.4598899 0.44317767 0.39177948 0.402628 0.4113505 0.33210105 0.3950451 0.4169511 0.41735956 0.40946263 0.33778745 0.299102 0.43047386 0.4238876 0.030244574 0.08418317 0.47848046 0.477285 0.32178414 0.33934164 0.35701114 0.36910066 0.52721417 0.3304592 0.269875 0.49999383 0.5026277 0.2762888 0.3592803 0.32689285 0.23453394 0.22498024 0.42196319 0.44630623 0.25274402 0.21594113 0.15742978 0.29105383 0.08753594 0.22854988 0.2816335 0.4142102 0.47152287 0.49735057 0.46037674 0.42519057 0.020415822 0.054775365 0.07951213 0.2799538 0.28749865 0.32758656 0.39707613 0.44050217 0.50487375 0.48207602 0.391927 0.0697534 0.2502949 0.23156926 0.3789326 0.09421818 0.18621647 0.46416497 0.4686327 0.4795651 0.3876705 0.45782447 0.42688227 0.41540432 0.4590314 0.51862407 0.5523693 0.5464488 0.54001397 0.383659 0.5464187 0.4484757 0.30189377 0.46543616 0.54322606 0.5681868 0.47496757 0.72010434 0.62746763 0.39695537 0.5092458 0.5232873 0.61461794 0.80973685 0.4937218 0.5758449 0.5170642 0.67318666 0.7953456 0.8833252 0.8558668 0.6247895 0.5921072 0.2115403 0.56484854 0.5027471 0.5990756 0.5202938 0.1888639 0.5247183 0.23750879 0.45435706 0.37945557 0.0020093843 -0.027313862 0.44600695 0.4123063 0.38953266 0.34627366 0.3542767 0.348269 0.34496337 0.24542053 -0.0020853803 0.10267995 0.3922418 0.33031884 0.5734136 0.5247161 0.5725832 0.4138605 0.024608413 0.26871085 0.37684286 0.71767807 0.6548644 0.6178347 0.24436335 0.30243063 0.3249097 0.75863814 0.24106589 0.10921736 0.16596898 0.23140422 0.19171217 0.81371474 0.2916149 0.50234324 0.20143121 0.13460103 0.15438578 0.1449153 0.8184478 0.8194897 0.7507385 0.3099995 0.18682581 0.48750973 0.4389039 0.22736084 0.19667324 0.2787984 0.2770148 0.1621372 0.73884135 0.6518537 0.53535086 0.11925453 0.16838293 0.3214987 0.41122252 0.43993962 0.40808505 0.35776764 0.31938595 0.35514712 0.32967228 0.35501862 0.38918966 0.40593082 0.44007266 0.2976789 0.3008517 0.33673924 0.41142404 0.43285874 0.32819176 0.3084884 0.3468045 0.35326192 0.3857357 0.2266104 0.2739488 0.44335827 0.29313046 0.33670646 0.35254085 0.3249001 0.45656717 0.27843305 0.24413249 0.17313755 0.4444006 0.42205012 0.34227884 0.33638737 0.21161672 0.15916869 0.44040805 0.4545842 0.42203188 0.38969466 0.354931 0.33830148 0.2755021 0.13760167 0.08174684 0.105083585 0.13429081 0.4347403 0.4250589 0.4387711 0.44616526 0.36902416 0.24665222 0.31333044 0.34569296 0.37154573 0.4256794 0.28358096 0.2641697 0.1590665 0.15754586 0.261492 0.3073892 0.45074043 0.45257932 0.4214254 0.38635364 0.27676415 0.36887106 0.36881316 0.37441933 0.3101102 -0.00066963583 0.4039333 0.35768303 0.3728864 0.37958008 0.36421 0.22696464 0.29240352 0.350409 0.40904036 0.34949803 0.18624753 -0.0026440844 -0.005226679 -0.03693848 0.060739353 -0.20403355 0.3688289 0.28571522 0.2877681 0.36893547 0.37482035 -0.0134762 0.012417011 0.027674599 -0.042685367 -0.1268837 0.09520057 0.43846646 0.24046566 0.33723122 0.35791814 0.3410526 0.16225098 0.42379287 0.0638405 0.07784636 -0.019695297 0.19115672 0.53435683 0.340442 0.31923494 0.30401972 0.24778391 0.3767891 0.6676767 0.5729141 0.15008105 0.4487458 0.54311514 0.29680416 0.30337712 0.26181364 0.29125267 0.47333443 0.720646 -0.14583805 -0.09096387 0.03374345 0.4383697 0.53533554 0.7510503 0.7737349 0.77817327 0.48028475 0.61237967 0.5293975 -0.21362194 -0.11265288 0.08005641 0.1201044 0.120880604 0.50781095 -0.101678014 -0.15733933 -0.13355532 -0.045782894 0.15290076 0.19685864 0.19983384 0.2245371 0.4002964 0.23228289 0.0052060783 0.27685368 0.15213251 0.12208782 0.15574832 0.04683026 0.27101985 0.45886594 0.35493195 0.49250138 0.64659756 0.56173205 0.35322505 0.45953366 0.50617206 0.52302927 0.67763627 0.538808 0.23695247 0.103852764 0.22863504 0.41330624 0.47818586 0.70986134 -0.04807578 -0.0723968 0.10752851 0.7179776 0.72471285 0.16857661 0.033890218 0.22269936 0.21828583 -0.115605645 0.12294383 0.09362939 0.22472912 0.35156506 0.6515045 0.59919953 0.53056353 0.35119432 0.33713365 0.39473593 0.29058695 0.08685465 0.14120439 0.20520538 0.18835036 0.26907486 0.33327398 0.36492586 0.32012108 0.1888673 0.16643175 0.3488089 0.45981127 0.47470278 0.37241948 0.2549758 0.2305327 0.24088533 0.29815271 0.29426557 0.3465857 0.39240628 0.1807155 0.26506504 0.30819795 0.3851627 0.26991165 0.42025715 0.45195788 0.44398594 0.31189746 0.39823765 0.29529238 0.28626803 0.34282997 -0.0538233 0.2732608 0.3976582 -0.013142988 0.15900326 0.24720219 0.32131103 0.3039291 0.39708874 0.35453212 0.31870008 0.2740922 0.2072756 0.26195848 0.29869047 0.36856043 0.120906055 0.1295857 0.4071895 0.4224543 0.39776284 0.33278784 0.31183904 0.24508949 0.15932229 0.073514506 0.19635543 0.19578905 0.35630676 0.13740772 0.08258018 0.32750294 0.39386088 0.27421883 0.26543665 0.10233386 0.12235241 0.13159484 0.15866493 0.13408005 0.18597859 0.20620908 0.035603598 0.3140764 0.049851377 0.05916881 0.08117687 0.14985521 0.27249372 0.2590501 0.4660551 0.2060759 -0.13762218 -0.015481959 0.22022925 0.46954858 0.4423396 0.21109672 0.3021258 0.13793935 0.1300461 0.16668199 0.24803367 0.46185195 0.42887998 0.3620829 0.13774942 -0.17504133 -0.27780423 -0.35783607 0.015830904 0.26852942 0.16363971 -0.0018043481 0.22919619 0.21852913 0.29491526 0.23854259 0.3001666 0.43099102 0.32675648 0.24752775 0.16871539 -0.023828862 -0.051515166 -0.09129939 -0.14103271 0.10202184 0.012443544 0.1552817 0.00030630827 -0.25618306 0.27354544 0.03674346 0.16037174 0.13841493 0.07985814 0.09710249 0.0091563165 -0.19099626 -0.19676682 -0.040552504 0.15679684 0.24511792 0.23363426 0.0919107 0.36803302 0.4089245 0.49264365 0.026528984 0.05795446 0.12186149 0.075801335 0.056208186 -0.16750336 -0.4258419 -0.24636316 -0.33281353 -0.09522176 -0.15118271 -0.16396114 -0.1856607 -0.04875542 -0.014690287 0.09986775 0.38578808 0.6657571 0.5167078 0.54135466 0.37696856 -0.03171599 -0.027456924 0.04669058 0.068534285 -0.06071931 -0.20558757 -0.27540064 -0.30164176 -0.30049986 -0.27375454 -0.08534767 0.006243717 -0.023414075 0.3883105 0.37846828 -0.03142385 -0.05380426 0.001836624 -0.17158248 -0.081893474 -0.07634269 0.3473331 -0.040064722 -0.06013207 -0.06519628 0.07494896 0.18919954 -0.025992468 -0.14359288 -0.028653916 0.14519441 0.34058177 0.19046614 0.4878356 0.49232507 0.47113168 0.5250912 0.6115932 0.5281069 0.48982114 0.4942733 0.6454557 0.61763245 0.20345049 0.36247718 0.43197924 0.61361796 0.32191113 0.34242502 0.5796609 0.51469266 0.45004815 0.3812167 0.15813653 0.357404 -0.01039787 0.2755854 0.3696469 0.4533615 0.49551976 0.48911104 0.44972992 0.48697567 0.30925798 0.25166285 0.11213894 0.15511796 0.22163112 0.15390426 0.25793183 0.2837515 0.5680499 0.6312494 0.6148871 0.5542715 0.5250551 0.5137736 0.464808 0.41455138 0.26318458 0.4366631 0.46068662 0.4714396 0.4030127 0.6975372 0.4320293 0.4911802 0.5086545 0.5046308 0.7589687 0.7415526 0.8056663 0.83994436 0.8089684 0.78104246 0.8654574 0.88934934 0.8485632 0.7832017 0.85097545 0.8183584 0.7762542 0.61384404 0.64930534 0.62892723 0.65901744 0.27542353 0.1429833 0.16192576 0.35497004 0.63152313 0.20521109 0.44452792 0.33524135 0.3345058 0.25735334 0.23768252 0.29969397 0.14897637 0.20706959 -0.013040981 0.04755284 0.15684831 0.23238948 0.27380362 0.26666725 0.30961528 -0.09360431 0.29758868 0.3003882 0.28040472 0.21080655 0.111221746 0.19527248 0.26480964 0.3522315 0.41410613 0.15822764 0.19572133 0.18599108 0.15885314 0.12251378 0.22983404 0.35111484 0.11580839 -0.054621093 -0.009509064 0.21241443 0.35465837 0.3732038 0.3870201 0.359364 0.074937604 -0.08633107 -0.022648823 0.091343656 0.08460233 -0.079068676 0.22331738 0.49494666 -0.043008022 -0.09711584 -0.004885167 0.14619543 0.54721034 0.1287077 0.25536263 0.53943354 0.5153037 -0.11559144 0.064519405 -0.13211715 0.28195825 0.4031213 0.45276475 0.35882324 0.16102669 0.085481405 -0.037378293 -0.0402103 -0.10676359 -0.16706325 -0.191703 -0.34789842 -0.34023678 -0.27723905 -0.29165724 -0.19030869 0.1276063 -0.09175444 -0.18368204 -0.21211025 -0.19695391 -0.21370363 -0.11856412 -0.07830406 0.14304715 0.26646575 0.031172559 -0.16234416 -0.15878384 -0.17993844 -0.2511459 0.1629706 0.09074215 -0.15807596 -0.1818757 -0.19758889 -0.2836602 0.37491894 -0.16281618 0.33676448 -0.11738706 0.14655375 0.3671601 0.41568515 0.20909128 -0.016260259 0.3835466 0.4086564 0.17713693 0.27178067 -0.20758453 0.40725797 0.4835281 0.37186065 0.43781152 0.45539397 0.5177041 0.3803764 0.52170473 0.43712914 0.26968235 0.5241268 0.44956678 0.3422612 0.25813252 0.25040346 0.48352286 0.4502514 0.39184207 0.44767386 0.2595289 0.48147288 0.6494125 0.6772548 0.60579354 0.5321088 0.48614138 0.5076113 0.4862108 0.454405 0.40717867 0.2914738 0.42045552 0.6653068 0.7403929 0.7466841 0.6793755 0.42825532 0.50570524 0.52925795 0.50784004 0.61441755 0.59157807 0.6779635 0.6885562 0.6850177 0.65055287 0.740142 0.725206 0.6892551 0.555135 0.68152404 0.7869494 0.7311517 0.53794366 0.43971103 0.5192373 0.5318152 0.5517239 0.5850338 0.695789 0.73876214 0.72932494 0.6863049 0.5891991 0.5468457 0.5063026 0.50436735 0.5368421 0.52673876 0.6690301 0.4738762 0.29876143 0.5042767 0.5477698 0.61321616 0.65993655 0.62078995 0.5733557 0.505872 0.44644082 0.4600641 0.41520554 0.43344498 0.46433046 0.59122384 0.64771485 0.6765347 0.69552445 0.6508484 0.62460744 0.5461012 0.40765297 0.3402052 0.32269672 0.29125792 0.25485298 0.13059708 0.5523013 0.6711926 0.6810629 0.6968881 0.66110206 0.66400105 0.6286905 0.3601416 0.34094542 0.26111242 0.18042406 0.11589197 0.2660881 0.19738533 0.59646153 0.6543975 0.6751765 0.65245456 0.65406096 0.641831 0.37350565 0.24764922 0.2784839 0.3475744 0.35865164 0.31454393 0.5318179 0.3507669 0.08282097 0.29770803 0.29666397 0.26074243 0.24949795 0.16413726 0.33056533 0.027863879 0.3249003 0.25063995 0.21629936 0.19742852 0.1651524 0.26010323 -0.1136826 0.27548257 0.2805984 0.1961284 -0.0027111322 0.09738549 0.28074297 0.41737655 0.48971364 0.5286513 -0.11456373 0.17269166 0.15642333 0.23438469 -0.100135684 -0.103517264 0.06984213 0.19119841 0.3289382 0.49892923 0.4852926 -0.24691212 0.14554328 0.16909562 0.14862275 0.08543335 -0.015487451 -0.11573349 0.03128396 0.14997101 -0.011019494 0.4089666 0.41664535 -0.30338 -0.013646558 0.018772572 -0.059314404 0.26287138 0.51399136 0.54646075 0.17646798 0.33330214 0.51856935 0.50993586 0.40322787 0.45604116 0.48589823 0.45065975 0.46837896 0.49645567 0.45491248 0.24455097 0.058704436 -0.16404118 -0.1841209 -0.20149243 0.28357705 0.38609886 0.34659344 0.17993347 0.103478976 -0.0069001764 -0.10277629 0.09850945 0.41072556 0.3512644 0.19347692 -0.06404463 0.40504622 0.30791184 0.36953214 0.43207324 0.43584067 0.13571948 0.43990237 0.4433527 0.17552266 0.37916416 0.42004454 0.13602582 0.0996144 0.4426065 0.11241187 0.43514788 0.23704836 0.34971502 0.42297402 0.2677752 0.24631102 0.29717296 0.27978083 0.2332374 0.0977761 -0.19942385 -0.15647173 0.3926935 0.41024512 0.24793382 0.6206242 0.4501381 0.4617169 0.41923684 0.38129407 0.35899058 0.3040641 0.0652168 0.39804783 0.556858 0.6855708 0.75436425 0.73614407 0.6948018 0.32693112 0.42868337 0.5114805 0.4946703 0.5981393 0.57290053 0.4918403 0.43120137 0.45016932 0.58742535 0.6287049 0.5595264 0.47824514 0.38244435 0.3901059 0.31708023 0.56508994 0.60413414 0.510421 0.42846692 0.42836013 0.43734705 0.3917001 0.30847096 0.5947541 0.5355453 0.55143005 0.5743922 0.5973662 0.5713376 0.4685219 0.31688774 0.40721667 0.4285483 0.47481924 0.48636758 0.5923536 0.5222507 0.62680584 0.58395714 0.5249902 0.53676987 0.56344515 0.61315286 0.5413796 0.17277136 0.25750756 0.41304052 0.5486594 0.6111407 0.598174 0.6416774 0.5815617 0.52699995 0.28450105 0.4776427 0.5565257 0.62169003 0.64609027 0.62022305 0.5634435 0.54150486 0.3611794 0.42172348 0.27702928 0.3476555 0.28362113 0.14697015 0.41587707 0.55039895 0.61685836 0.6198262 0.573132 0.5002995 0.4215933 0.28098446 0.31454974 0.5285697 0.57341677 0.6521759 0.69889045 0.65396684 0.6455057 0.39753318 0.4357183 0.5184941 0.3400197 0.33805513 0.3278729 0.33134258 0.046919834 0.33209628 0.43582577 0.46123326 0.44364494 0.54196405 0.58120096 0.4057756 0.19350708 0.12970576 0.6874201 0.70918095 0.6701784 0.4064765 0.35867554 0.35648203 0.34571397 0.2616846 0.10151953 0.37494138 0.47413284 0.499897 0.46382993 0.0600627 0.69964695 0.6567652 0.6567719 0.4064656 0.37945008 0.3582353 0.017756104 0.34454185 0.4735487 0.44115323 0.2514337 0.23028453 0.66308725 0.6314725 0.63080883 0.5995777 0.46777278 0.38835448 -0.2331736 0.3047984 0.5642443 0.5854019 0.5669775 0.34948236 -0.13921177 0.2761035 0.3123668 0.17020512 0.18130566 0.32376313 -0.3011014 0.1639172 0.34450564 0.34280849 0.2619927 0.46104127 0.5563275 0.7121582 0.68328595 0.20367219 -0.257108 0.008410439 0.17862178 0.2526728 0.31642586 0.040905975 -0.06668304 0.047965147 0.18304336 0.59040076 0.6134523 0.6143453 0.062792584 0.16836733 0.10378324 -0.04409586 -0.06554641 0.074331954 0.13025455 -0.12857851 -0.1714122 0.5345744 0.57959443 -0.06428401 0.08412576 0.034789436 -0.01919312 -0.059372403 -0.078089915 -0.027056143 0.38764697 0.44233543 0.24219711 0.10456682 -0.42182952 -0.03528124 0.42865762 0.48721915 0.40382612 0.45835844 0.4316449 0.44753903 0.38119185 0.19901457 0.47398755 0.44841284 0.46936002 0.25790223 -0.105311505 -0.27153528 0.3770859 0.30029154 -0.077532895 -0.3687404 -0.58704877 -0.113167584 0.26932374 0.30606657 0.018004388 -0.5788731 0.25311494 0.24706271 0.28763422 0.18327904 -0.13209312 -0.06188177 0.41718897 0.43085766 0.11947541 0.29237142 0.05079717 0.31044203 0.04355994 0.37467575 0.38684046 0.049485702 0.3799943 0.11709021 0.29406077 0.37633044 0.23632044 0.1855483 0.117505535 -0.061737083 0.14567062 0.22109002 0.13798042 0.22393297 0.2582673 0.28501195 -0.047329046 0.5717889 0.3646971 0.32165527 0.27900344 0.103590935 0.28828436 0.32825965 0.60183614 0.6745908 0.6675658 0.63647103 0.18444955 0.24086791 0.2892207 0.38078618 0.38251132 0.35892576 0.5217875 0.6172672 0.6468406 0.45009327 0.5478915 0.64059585 0.66417515 0.63839686 0.42064548 0.49387074 0.59855914 0.61811143 0.62335753 0.50711566 0.52656436 0.45508337 0.4103133 0.3895511 0.24818721 0.36075997 0.49025562 0.40132523 0.48540998 0.35446388 0.24311048 0.26083326 0.29365063 0.35364938 0.33251652 0.29825845 0.5109519 0.56250376 0.5767303 0.5740976 0.5108586 0.2350546 0.21473654 0.53585863 0.4850014 0.59350044 0.5354421 0.58935475 0.60038984 0.43962207 0.26084036 0.14409985 0.6427268 0.58469343 0.49133527 0.42537218 0.30909413 0.6233376 0.62726486 0.63804466 0.13502635 0.63806105 0.66668904 0.39518484 0.2539468 0.38551486 0.52962744 0.59753156 0.6308433 0.56880546 0.2832757 0.28759253 0.31168094 0.30623376 -0.061037295 0.21139048 0.059756353 0.198327 0.42645407 0.57247853 0.52845514 0.5141526 0.7033744 0.6415833 0.29923743 0.32243335 0.31830376 0.19932164 0.054511137 0.0060105883 0.016716603 0.19654527 0.31556928 0.455666 0.5359613 0.5735214 0.2780592 0.7166916 0.6733868 0.30973142 0.35223344 0.1663186 -0.05710538 0.065960184 0.06768627 0.053701874 0.034405004 0.36306933 0.3243748 0.098905705 0.70528036 0.65371025 0.25051543 0.37731546 -0.21938644 0.02454458 0.004290618 0.039799806 0.21474318 0.26255766 0.39543146 0.399859 0.33122897 0.06351193 0.14794633 0.67947245 0.6021766 0.5786722 0.3721494 -0.15384568 -0.2003957 -0.23594508 0.090193905 0.24261928 0.31190586 0.37023622 0.11139019 0.17194054 0.31770402 0.5062805 0.34080327 0.3395111 -0.22040097 -0.20976184 0.050456557 0.04243979 0.08773336 0.13949922 0.27402735 -0.27124128 0.07667306 0.15358466 0.14252749 0.07631711 0.28777045 0.32364926 0.26451433 0.16722569 0.5377531 0.710073 0.78308535 0.76140296 0.2132906 0.21005595 0.023161896 0.26822752 -0.076550886 -0.12829274 0.69721866 0.6964123 -0.038225636 0.13335718 -0.07976243 -0.032435857 -0.024273293 -0.05263039 0.0119327605 0.6120223 -0.10414443 0.08549918 -0.4634331 -0.1680255 -0.112828664 0.50898194 0.02073592 -0.22203435 0.19793165 0.21042426 0.16769895 0.30335778 0.29846343 0.19972713 0.14523299 0.37180394 0.43564132 -0.0258619 0.44405138 0.24407774 0.34234732 0.21443327 -0.6028012 0.036005966 0.22482872 0.20123556 0.17725909 0.15651323 0.12701166 0.25777596 -0.0761949 0.31081545 -0.003639754 0.2299278 -0.030043349 0.06253315 0.34336025 0.16667387 0.24516268 0