# vtk DataFile Version 2.0
Really cool data
ASCII
DATASET POLYDATA
POINTS 12636 float
60.373165 65.77082 65.530785
60.40107 65.7344 66.3918
60.419617 66.59065 64.73412
60.324116 66.35604 65.54283
60.406013 66.23695 66.512695
61.098804 65.00667 63.885044
60.899925 64.94093 64.58898
60.878258 64.93859 65.33969
60.83239 65.06892 66.51547
60.981186 65.19475 66.97845
61.224617 65.75055 63.044212
60.893852 65.50759 63.711617
60.544495 65.505905 64.63363
60.50398 65.4316 65.46179
60.52795 65.492325 66.57055
60.733128 65.76803 67.11236
61.204464 66.061005 63.233334
60.71455 66.42638 63.851086
60.558304 66.54959 64.35554
60.506245 66.50519 65.61889
60.537952 66.50927 66.68604
60.708645 66.28098 67.03562
61.4753 67.774506 61.31876
61.004288 67.323906 63.747196
60.68729 67.33137 64.56682
60.687416 67.35407 65.38404
60.890465 67.06488 66.47505
60.943447 66.77211 66.99217
61.227623 68.88848 59.64231
61.157368 68.72893 60.464127
61.05519 69.041016 61.38315
60.871044 67.70268 64.992966
61.271923 69.42532 59.253555
61.08387 69.53966 59.613987
60.914124 69.77691 60.17607
61.31146 69.15019 61.995636
61.337257 69.97686 59.314293
61.175667 70.404366 59.749153
61.023113 70.40299 60.603714
61.123676 70.28964 61.419674
61.094482 70.76398 60.622726
61.269398 70.8586 60.96859
62.380962 40.672146 87.599945
62.29635 40.95803 88.34498
62.24528 41.76859 86.79757
62.058254 41.616932 87.50179
62.13958 41.646435 88.15728
62.12072 42.43018 86.8079
61.96949 42.464058 87.53105
62.12975 42.202694 88.2739
62.357353 42.09555 88.78117
62.31179 43.171852 87.02757
62.144257 43.01301 87.34754
62.24926 43.019413 88.00603
62.197536 49.292458 83.000786
62.292484 49.971775 81.86044
61.901463 49.941048 82.888855
61.922585 49.715904 83.465706
62.053326 49.809326 84.35982
61.980236 50.81701 81.90731
61.740757 50.71642 82.511925
61.6555 50.551132 83.60727
61.867596 50.426647 84.28493
62.282364 51.534847 81.28947
61.899353 51.5825 81.75497
61.62062 51.575542 82.458
61.654873 51.524338 83.350716
61.991116 51.21669 84.18854
62.304264 52.47457 81.26804
61.823242 52.327854 81.89053
61.64554 52.28673 82.54452
61.812347 52.382107 83.26014
62.122223 52.48056 83.68215
62.176754 53.091076 81.787
61.973484 53.12366 82.51531
61.990864 53.01028 82.97402
62.361977 53.773636 82.51977
61.747868 64.44556 64.65698
62.17934 65.16187 61.776115
62.062817 64.74841 62.731693
61.55376 64.74607 63.730698
61.463623 64.57635 64.510284
61.47933 64.59973 65.65899
61.4041 64.73157 66.211235
61.38952 64.91308 66.87814
62.353065 66.16881 60.72894
62.078335 65.39323 61.905064
61.392277 65.53017 67.41205
61.534073 65.83514 67.53346
62.16109 66.926506 59.985195
62.26322 66.44498 60.50545
61.827084 66.73153 61.478607
61.48876 66.39227 67.414856
61.659042 66.22399 67.536766
61.595116 67.92109 60.085007
61.741493 67.526184 61.110336
61.26146 67.31568 66.59375
61.313717 67.14668 66.892265
61.708084 68.87294 59.162434
61.442493 68.810684 59.373146
61.645115 68.55263 62.593967
61.60208 68.224434 63.482513
61.439754 68.09641 64.11208
61.574852 68.123985 65.38173
61.880276 67.97964 66.10808
61.699005 69.46065 58.999924
61.72409 70.3176 59.186836
61.456406 70.57543 59.561485
61.704403 70.4366 62.086887
61.787666 70.80538 59.29553
61.868706 71.23608 59.770763
61.74205 71.36582 60.500015
61.912903 71.3032 61.127407
61.94447 70.76642 61.931953
62.088806 71.60721 60.43923
62.090267 71.576965 60.88704
62.822403 40.09321 87.0843
62.76244 39.987038 87.59842
62.780323 39.89605 88.149445
63.15838 39.79007 89.08305
63.057575 40.854786 86.39592
62.684505 40.746197 86.784805
62.516514 40.330284 87.68393
62.52179 40.35063 88.199425
62.86815 40.722466 89.23084
63.23585 40.718853 90.00952
62.84644 41.657177 86.29799
62.427887 41.699337 86.55449
62.735546 41.568798 89.232056
63.22005 41.40728 89.932556
62.619404 42.44018 86.29901
62.432663 42.60308 86.434685
62.642628 42.269436 89.030106
63.306763 42.105858 89.78465
62.913006 43.056183 86.35382
62.42502 43.252064 86.88654
62.368916 43.253407 87.13161
62.54747 43.104362 88.35504
63.075825 43.0744 88.95133
62.77207 43.663643 87.33781
63.02236 43.610653 88.31205
63.43867 47.51207 86.23902
63.17716 48.721466 81.732025
62.7961 48.947037 82.48064
62.94557 48.840866 83.66828
62.6854 48.95521 83.89971
63.33758 48.33761 86.72758
63.441154 48.67499 86.96529
63.137966 49.381386 81.16831
62.5637 49.626137 81.72991
62.40618 49.396362 82.7126
62.852997 50.38854 81.00796
62.62306 50.58197 84.87108
62.748848 51.479527 80.771324
62.363903 51.255577 84.53194
62.384777 52.047607 81.22609
62.881687 52.440456 84.12458
63.281567 53.463844 80.77324
62.683456 53.75764 81.4051
62.5446 53.30712 83.41057
62.78717 53.07934 83.78607
63.12462 54.552925 81.19752
62.77297 54.36438 81.62412
62.917862 54.735165 82.22021
63.15698 55.265446 81.77262
63.095585 55.450943 82.486275
63.270794 55.58311 83.252304
63.34037 55.79381 82.03557
63.357635 56.011017 82.58795
63.356876 56.004547 83.066826
63.475452 57.505566 70.6138
63.488735 58.32332 70.411934
62.9523 64.31445 62.542336
62.776646 64.34658 63.191654
62.696987 64.45239 64.52797
62.903286 65.256325 61.016632
62.588448 64.73405 61.847378
62.435978 64.53416 62.562
62.259422 64.567154 63.3161
62.17781 64.65363 66.18408
62.44453 65.14576 66.9676
62.598846 65.77002 60.78862
62.148605 65.73117 67.43649
62.022728 65.97558 67.582405
62.231552 66.60116 67.38122
62.153625 66.386284 67.55429
62.62512 67.60119 59.2319
62.09273 67.09549 67.13008
62.585484 68.50108 58.965992
62.250237 68.34507 65.04747
62.469006 67.748726 66.69706
62.51114 69.53025 58.773994
62.52131 68.83181 63.73594
62.483536 68.63662 65.588005
62.605812 70.267624 58.935173
62.83352 69.862564 62.715897
62.410675 70.90988 59.242714
62.45034 71.36686 59.652424
62.55013 71.39031 61.450512
62.659275 71.09414 62.008217
62.276722 71.59272 60.042538
62.551247 71.70261 60.501144
62.52452 71.63956 61.044964
64.25073 38.264877 88.447876
64.29202 38.21457 89.25762
63.96761 38.763805 87.864456
64.06493 38.52212 88.57354
63.999264 38.708286 89.37942
64.2709 38.756718 89.94378
63.49469 39.850243 86.933365
63.341724 39.433884 87.72252
63.45579 39.62228 89.288605
63.80781 39.81029 90.079285
63.843407 40.58458 86.24586
63.62021 40.45553 90.33482
64.035385 40.605854 90.71769
63.4921 41.735687 85.97491
63.61434 41.14935 90.46077
64.04195 41.300217 90.80767
63.75489 42.57811 86.051445
63.865227 42.310165 90.1551
64.49301 43.485813 83.13388
64.42527 43.96931 85.113976
64.423805 44.372173 85.09172
63.759937 43.62344 86.9468
64.36142 45.108448 85.8416
64.33333 45.860256 87.48257
63.811947 47.00878 85.67712
63.939163 46.685192 86.712105
63.801704 47.126534 87.41758
63.936153 47.96426 81.70672
63.72284 48.07479 82.21682
64.26585 47.954113 83.2497
63.96294 47.298714 84.90134
63.724655 47.83327 85.21942
63.60372 47.761215 87.28444
64.30675 47.54527 88.08871
64.05137 48.51326 81.119415
63.411114 48.59746 81.623505
63.32003 48.42997 83.298805
63.63164 48.316574 87.29029
64.10327 48.29078 87.839775
64.10082 50.016926 80.02207
63.506996 49.231834 80.94565
64.04016 49.264507 87.24186
64.14361 50.73735 78.8592
63.75639 51.00496 79.30269
63.736626 50.297527 85.50364
64.32977 51.41675 78.254105
64.05792 51.37927 78.72619
63.613697 51.6848 79.70655
63.93015 51.345036 84.76249
64.19898 52.35124 78.87211
63.7423 52.211403 79.67253
63.523624 52.543964 84.3131
63.76833 53.194588 80.31329
63.385166 53.399586 83.99365
64.1427 54.223843 80.308685
63.672115 54.581287 80.6545
63.81678 54.59273 83.99196
64.1196 56.103638 70.43133
64.18535 56.07462 71.01257
63.646748 55.133755 81.01312
63.43876 55.615677 81.60691
63.45082 55.754837 83.52793
63.906322 55.636158 84.0413
63.89053 56.746086 69.88745
63.694107 56.69188 70.49076
63.91767 56.710373 71.35747
64.15043 56.86877 71.80307
63.76052 56.144417 81.8499
63.550907 56.328613 82.53509
63.81043 56.46246 83.393654
63.9719 56.107155 83.870735
63.684025 57.672115 69.862015
63.55057 57.473053 70.65073
63.727432 57.528164 71.33903
64.05062 57.554905 71.878395
64.01188 56.793697 82.75784
63.981697 56.76151 83.14189
64.14679 58.44886 69.10111
63.699398 58.53555 69.84112
63.601532 58.36183 70.47796
63.916115 58.63299 71.52748
64.10953 58.548893 71.8779
64.14653 59.15607 69.13539
63.851818 59.270668 69.75103
63.72199 59.24233 70.53658
63.90272 59.30135 71.18582
64.06132 59.022133 71.72828
64.047935 59.79518 69.74106
64.31734 60.20148 70.16639
64.29966 60.06774 71.40811
63.77781 64.27289 61.88897
63.35552 64.27623 62.490368
63.47144 64.40847 63.72155
63.341396 64.37108 64.23372
64.19403 65.206116 60.07055
63.445766 64.89935 61.006966
63.37346 64.48856 61.462757
63.91969 66.07537 59.287918
63.666977 66.15105 59.479233
64.029854 66.77553 58.781036
63.417072 66.40722 59.511387
63.189693 66.60306 67.260284
63.95211 67.55808 58.685795
63.795483 67.471214 67.115395
63.273315 68.58829 58.85789
63.879025 68.32646 67.06661
63.95886 69.74449 58.717884
63.385235 69.39782 64.22302
63.499977 69.5368 65.43577
63.939827 69.55982 66.260475
63.44001 70.5807 59.12099
64.111595 70.63456 62.93467
64.293335 70.301025 65.15714
64.19995 69.90535 66.2718
63.03384 70.935486 59.24873
63.581715 71.198 59.68011
63.533062 71.5075 60.18782
64.02118 71.405365 62.093353
63.288 71.63024 60.658157
63.93045 71.634315 61.30848
64.86869 37.884796 87.76259
64.693085 37.729347 88.68433
64.80872 37.847954 89.492226
64.89538 38.017498 89.8093
64.68 38.701828 90.15263
65.00995 39.278725 86.90704
65.0434 39.206367 90.551445
64.67177 40.04108 90.74031
64.36015 40.542595 90.95301
65.12171 42.0473 82.683495
65.03455 42.09401 83.52766
64.99835 41.442642 91.37681
65.02777 42.757202 81.94319
64.71151 42.79834 82.46301
64.633835 42.839874 83.36837
64.84767 42.924095 84.55721
64.77691 41.919487 91.15312
64.95977 43.38463 81.93377
64.61543 43.580585 82.59569
64.55889 43.641895 83.244415
64.75559 42.873966 90.65355
65.19317 43.246758 90.965546
65.04185 44.168438 81.979385
64.72494 44.28549 82.9063
64.616714 44.34274 83.581474
64.60482 44.239285 84.547874
65.072815 44.377663 90.274704
65.3905 44.195915 91.51481
65.40409 45.193626 82.119865
[...]
POINT_DATA 12636
SCALARS features_00 float 1
LOOKUP_TABLE default
0.78968334 0.88632524 0.67390406 0.76858354 0.8703191 0.5475504 0.64301753 0.74522555 0.90123 0.9338007 0.4521848 0.57434607 0.68728644 0.78401184 0.9087455 0.91396594 0.49033597 0.61325216 0.64547825 0.76812434 0.85805476 0.8778175 0.42150116 0.49457648 0.57915246 0.6618436 0.76717585 0.8104385 0.6363786 0.61214095 0.62809473 0.5585868 0.70466197 0.7161137 0.75775826 0.52059424 0.74819165 0.7833649 0.79287094 0.73662615 0.7807199 0.7489711 0.63615656 0.6258747 0.7198944 0.7452247 0.7046731 0.7318243 0.76646125 0.7162366 0.62248874 0.72110283 0.7438395 0.73289883 0.4503033 0.422748 0.5274397 0.56095195 0.6378343 0.4864664 0.5612277 0.66464376 0.66947436 0.41300339 0.5026115 0.5983993 0.64851046 0.6023825 0.41231173 0.53552926 0.60482645 0.6033716 0.53340507 0.49653012 0.5733376 0.58480597 0.51635426 0.531342 0.3361758 0.399091 0.48596466 0.5554749 0.722363 0.8277957 0.9171035 0.2962918 0.3315704 0.8773674 0.8264086 0.34364542 0.3071644 0.26871538 0.7733592 0.7658037 0.48480156 0.3896737 0.7066225 0.72360384 0.63171685 0.6300185 0.2847163 0.2566778 0.3615783 0.4628939 0.5252511 0.6883637 0.7628553 0.7893373 0.6047772 0.78918326 0.7880543 0.7523223 0.6890408 0.59783435 0.73342574 0.69560623 0.5564235 0.545017 0.5220506 0.48421603 0.59190273 0.6240881 0.5923697 0.5745566 0.5190192 0.4406522 0.6386876 0.68995994 0.5241278 0.4247553 0.66182464 0.68417424 0.56591904 0.40222573 0.60778165 0.70020473 0.71944034 0.69253397 0.5363866 0.6693748 0.64115155 0.44187033 0.30452847 0.36648142 0.341353 0.38969737 0.5097403 0.48235476 0.27655274 0.37948602 0.42729002 0.3214261 0.4824078 0.31654066 0.4951608 0.39634815 0.36229944 0.302054 0.40022382 0.49269888 0.40911955 0.4170105 0.42888254 0.48459888 0.5400746 0.60528994 0.6702605 0.65412056 0.7263025 0.7455236 0.62175626 0.5907189 0.35869396 0.37376708 0.40998304 0.2860073 0.3474229 0.38041902 0.41149503 0.75757027 0.8035113 0.28497854 0.73258936 0.72783506 0.62421334 0.66272587 0.42857432 0.59819686 0.5521046 0.28133026 0.4717163 0.6789253 0.10497751 0.25282377 0.7262825 0.22439413 0.76881146 0.7625172 0.59874487 0.5134232 0.7485794 0.6946343 0.6466284 0.38379824 0.43519753 0.3873874 0.41091383 0.45528844 0.44205242 0.48249707 0.47037217 0.4668445 0.42834067 0.47335762 0.41312903 0.37701046 0.5442902 0.38706863 0.35883838 0.4749678 0.32758355 0.33627218 -0.0020787977 -0.0044645234 0.49175447 -0.08086673 0.23278065 0.18008883 0.38649783 0.4190957 0.23807801 0.27689156 0.08445984 -0.047646448 0.09217689 0.46591938 0.3678338 0.19208315 0.28021365 0.272295 0.4747628 0.43326756 0.1867471 0.22099212 0.41883 0.33415124 0.31883174 0.115189165 0.39416337 0.36686411 0.2926095 0.12610866 0.33600962 0.2703754 0.23662356 0.23161304 0.30187327 0.26983464 0.36763525 0.46029574 0.6254589 0.6330208 0.47499037 0.5958102 0.71516126 0.6811265 0.61951315 0.64168835 0.64407897 0.6224467 0.7193506 0.7732218 0.8245792 0.7777429 0.58451784 0.6239679 0.6192498 0.6023593 0.8488487 0.8530389 0.4794212 0.5640081 0.5896791 0.55781054 0.5452597 0.44117665 0.52152395 0.55290234 0.5295224 0.52104396 0.46863228 0.4300984 0.43348855 0.29908776 0.3364732 0.33200413 0.33970994 0.203904 0.27017897 0.31550917 0.32346654 0.30725583 0.39604068 0.31516197 0.38168043 0.44167635 0.09954906 0.5362996 0.15858042 0.53027093 0.017089447 0.1437829 0.2973212 0.64654016 0.13488992 0.24785408 0.32992113 0.7150595 0.66428804 0.6559356 0.4330147 0.6373905 0.5453106 0.30160758 0.37954533 0.41031247 0.41001773 0.41791308 0.2982713 0.36972237 0.36039692 0.35825628 0.5445151 0.45472798 0.35189646 0.53834033 0.50505555 0.39642924 0.20200819 0.3406815 0.49380344 0.3999384 0.29997385 0.280497 0.32888007 0.40802467 0.25834966 0.16489455 0.09044393 0.2750043 0.47874725 0.2510888 0.09609284 0.02751366 0.040535487 0.13480766 0.14746808 0.31474563 0.4276389 0.008339331 -0.12715217 -0.13997123 0.14642969 0.09692316 0.16531761 0.344778 0.12385403 0.41307586 0.33373815 0.28046316 0.18345506 0.13096604 0.38480192 0.4005918 0.39829513 0.3529444 0.2741348 0.3403582 0.43794754 0.42880318 0.026867032 0.44579446 0.4181839 0.3829784 0.12541944 0.33211008 0.28405774 0.21382807 0.30452424 0.51411986 0.53476036 0.22675912 0.45735022 0.5071044 0.54314244 0.59464943 0.5981269 0.5716609 0.40012187 0.63161635 0.5440743 0.4102043 0.49910772 0.56799555 0.63392305 0.73491335 0.77790576 0.545548 0.8087723 0.852563 0.870649 0.32007125 0.5101366 0.15478203 0.44956198 0.3140812 0.29554316 0.36357617 0.15728524 0.06055662 0.093007505 0.26921883 0.44158137 0.5048344 0.051265925 0.08284415 0.18169045 0.30161455 0.44197014 0.5231574 0.06759693 0.24842748 0.27780625 0.057625987 0.080699004 0.22758001 0.38940808 0.48983717 0.5094524 0.18787886 0.12312071 0.22296679 0.3159692 0.41119438 0.36338812 0.27214366 0.40960836 0.41175228 0.06282692 0.06033109 0.4562911 0.09319016 0.1257247 0.4562245 0.26148355 0.47642282 0.14267094 0.22941148 0.2937694 0.5752724 0.6040819 0.19087584 0.2992555 0.3806555 0.39060396 0.5048322 0.37222937 0.4034173 0.32251406 0.3707674 0.3637066 0.3410081 0.3232014 0.29849246 0.28177124 0.3339314 0.34638938 0.33863938 0.41148296 0.41573396 0.28287768 0.23436388 0.36579198 0.36909574 0.4011951 0.40633297 0.3400178 0.3624167 0.34906924 0.33410555 0.3167527 0.10719564 0.33059192 0.33305266 0.5550685 0.46908855 0.37077248 0.5314568 0.54671997 0.5126846 0.51699686 0.54198337 0.36438876 0.5991131 0.19081402 0.5542854 0.6068069 0.0014782026 0.3860943 0.035960175 0.24788213 0.012381241 0.0848715 0.35431087 0.33438033 0.18709852 0.30885598 0.41879657 0.3821897 0.33255455 0.44221374 0.0084898025 0.43105644 0.39560306 0.27009016 0.47809708 0.5028558 0.5385092 0.5274909 0.30453098 0.2100614 0.17875528 0.4162011 0.4368528 0.46967217 0.4718285 0.24851316 0.5246009 0.51310146 0.387284 0.43484354 0.49362618 0.5890821 0.6392331 0.68194884 0.684907 0.17971426 0.28345996 0.43408036 0.71539867 0.79600513 0.8094644 0.30422774 0.27971688 0.35459518 0.3488552 0.35796186 0.2991174 0.17483862 0.3318879 0.29731745 0.22310323 0.25112998 0.5183497 0.23989975 0.22456163 0.13159667 -0.010520283 -0.029085167 0.09970197 0.08485216 0.08320272 0.06473903 0.52918303 0.5218476 0.22334006 -0.04200936 -0.0033099502 0.047454927 0.5040647 0.5028222 0.07439401 -0.29001102 -0.06277782 0.03616218 0.45650223 0.46816212 0.33459643 -0.21461944 0.3677417 0.41409424 0.42936027 0.38599557 0.28407654 0.33579165 0.42815375 0.033095106 0.3933975 0.15266258 0.37468046 0.23207086 0.18825486 0.38496912 0.4107677 0.28445625 0.52528286 0.47437677 0.39696866 0.3505934 0.5190778 0.4068651 0.42955488 0.4424117 0.760108 0.7737965 0.73361784 0.65679216 0.6456444 0.562546 0.37000057 0.30201948 0.32520586 0.32843032 0.36901328 0.40248612 0.37367445 0.26462933 0.35681462 0.3571323 0.35987926 0.33428192 0.3413455 0.34763438 0.31613022 0.3064279 0.27571034 0.13490114 0.3322849 0.4027189 0.3974765 0.41523483 0.40135553 0.46887806 0.6008692 0.24476133 0.63809574 0.597909 0.63204706 0.025605224 0.48020226 0.5787313 0.6055389 0.6693816 0.67719823 0.6643055 0.1452967 0.18652631 0.7214134 0.73692524 0.70687425 0.59689796 0.25864467 0.22271512 0.2816286 0.67317504 0.7247867 0.71074986 0.5239595 0.3818773 0.39104038 0.6121373 0.61752033 0.5356039 0.3881237 0.31360018 0.0990738 0.43670136 0.5486814 0.55669236 0.28986233 0.33697197 0.2795152 0.4376775 0.5181464 0.4797336 0.2872172 0.23714778 0.1110386 0.39474297 0.39107466 0.2596204 0.45393175 0.45916396 0.07995785 0.3829109 0.3153244 0.47575086 0.57477283 0.61960196 0.50757277 0.16390635 0.30633572 0.26889706 0.6416472 0.5683619 0.43859094 0.35524806 0.24473248 -0.004463006 0.6275479 0.5157515 0.4005459 0.27666417 0.19059642 0.3540118 0.6173082 0.5606166 0.3909619 0.20588645 0.18634975 0.13782358 0.009247581 -0.093046665 0.053039946 0.047391523 0.4958763 0.42470562 0.21922377 -0.03013254 -0.24524574 -0.06161201 0.06401861 0.08047907 0.48529774 0.26821652 0.4746275 0.19800875 -0.29005906 0.43362212 0.06718051 0.40221298 0.37472177 0.31279036 0.13078456 0.17331442 0.26614514 0.36625493 0.34072 0.07044684 0.10291366 0.21163213 0.3239984 0.2688125 0.01713162 -0.03275064 0.06376611 0.1423446 0.27287304 0.32264873 0.38895366 0.34814173 0.46605274 0.48540443 0.44011974 0.8619181 0.8817955 0.8902967 0.8221804 0.8288336 0.82616687 0.7971723 0.74734235 0.61127424 0.75200033 0.7199837 0.5052519 0.2764494 0.5143215 0.22034743 0.32532474 0.3624874 0.36874124 0.28906655 0.3929227 0.43607545 0.20230536 0.41679433 0.44894767 0.19099252 0.39446205 0.03867806 0.26325086 0.0037992746 0.33538345 0.10343018 0.37401515 0.33310592 0.40772963 0.28912744 0.5411415 0.27302495 0.6072713 0.31488577 0.28884602 0.13116553 0.6132895 0.20665154 0.5566598 0.6031054 0.5869278 0.5897971 0.5336938 0.3809214 0.6099497 0.6169672 0.63284504 0.5958149 0.5730572 -0.123520546 0.6509408 0.49063367 0.57122827 0.6136596 0.103166394 0.48827052 0.18961638 0.008471794 0.2938158 0.12069148 0.22284798 0.10301617 0.26644287 0.34892175 0.44353977 0.53590786 0.19432154 0.24482559 0.21777806 0.15215284 0.30776408 0.23525503 0.14443925 0.10473387 0.34421894 0.087240644 0.35366583 0.28266212 0.1699287 0.28351706 0.38914788 0.3814627 0.36337402 0.41816974 0.43705678 0.66802156 0.60686016 0.48915654 -0.029393965 0.14644144 0.14678474 0.68512523 0.6667681 0.6161498 0.49682486 0.30170077 -0.104924336 0.061235085 -0.06643471 0.6833409 0.66795933 0.20796648 0.046032928 -0.08078632 -0.089234926 -0.10287842 0.66304564 0.08089756 -0.030323341 -0.07958561 -0.06551331 0.31240836 0.59255844 0.61329997 -0.104683325 -0.16966093 0.3997751 0.51150167 -0.16919968 -0.04314126 0.03252797 0.44710612 0.36476818 -0.43524015 0.34772265 0.1952681 -0.28114435 0.3523558 0.078167126 0.037879698 0.2536251 0.27462757 0.0014360043 0.29328007 0.07389416 0.19630086 0.3304353 0.086850405 0.13121802 0.31589067 0.37243545 0.14382333 0.05218976 0.089222364 0.1761081 0.2869426 0.3442892 0.4319658 0.517005 0.3965399 0.25770074 0.86773276 0.7602799 0.8717124 0.90729773 0.9139077 0.77199566 0.6583811 0.5756319 0.8412616 0.5876467 0.49565786 0.76984584 0.21715716 0.65429884 0.15342355 0.2903793 0.34349087 0.41466802 0.4570537 0.48532313 0.498325 0.52596533 0.08828965 0.49021733 0.025341872 0.46209016 0.19552019 0.3289613 0.19876216 0.2114023 0.3664005 0.1086595 -0.06730549 0.42940903 0.46220237 0.4019556 0.52024555 0.38424805 0.5351279 0.5690667 0.32354817 0.5621763 0.49747482 0.5142338 0.4502316 0.41672087 0.22763477 0.094022885 0.1914559 0.047184274 0.4865587 0.53835416 -0.0028696954 -0.2943432 0.13605042 0.5445464 0.20975335 0.17378125 0.17861241 0.39354306 0.33150706 0.19927844 0.12533516 0.06336052 0.14722624 0.26809314 0.38079497 0.039518423 0.060800724 0.13926384 0.21799535 0.4218856 0.3832932 0.29979247 0.20897707 0.026570678 0.10678683 0.17172146 0.1517015 0.098975495 -0.08431128 -0.045709442 0.28695717 0.4203121 0.38416028 0.33079416 0.23834568 0.14922795 0.228059 0.36055976 0.34423357 0.33688003 0.33700234 0.29809535 0.048667036 0.38904017 0.670016 0.6591393 0.60880935 0.45843259 0.2899494 0.07090716 0.09598699 0.6807437 0.19159678 0.13642168 -0.1385571 0.6745323 0.68053234 0.029127296 -0.0966669 -0.11891593 -0.08543759 0.6462807 0.5602798 0.48895282 0.4705164 0.28496507 0.367758 0.26407748 0.21054263 0.11177113 0.23314676 0.2901122 -0.10284551 0.42479327 0.43299323 0.057967924 0.4503337 0.49815166 0.18483815 -0.100027405 0.014332779 0.17389578 0.38179272 0.500549 0.52687645 0.017198315 0.06975116 0.35447693 0.1915693 0.025181666 0.12540112 0.2637812 0.27195105 0.80035913 0.7394295 0.693419 0.8466674 0.85663205 0.8408874 0.6638097 0.59463704 0.7865182 0.5045851 0.65196186 0.1763214 0.48252338 0.3712303 0.12603304 0.13555045 0.45416734 0.23608634 0.47225958 0.52756333 0.12051207 0.5656047 0.5652036 0.05428314 0.06388077 0.5413371 0.4525503 0.10448097 0.0073517766 -0.062727675 0.35604626 0.5529586 0.35571218 0.25370508 0.3470163 0.38716307 0.48612404 0.5399999 0.4106655 0.48084602 0.39042825 0.39784324 0.44231838 0.43521327 0.3676436 0.38159215 0.45594054 0.42424905 0.36241043 0.16825053 -0.06350863 -0.22583869 0.02252455 0.5652922 0.32174677 -0.038270064 0.10854623 0.60801065 0.5560504 0.44264168 0.26545197 0.46123695 0.40414414 0.31998664 0.24899387 0.373985 0.2582639 0.1248351 0.047960915 0.2186202 0.10956124 0.004720606 -0.058477603 0.05024724 0.44814146 0.30715942 0.23481081 -0.18951747 -0.020413257 -0.083541855 0.19123046 0.4687546 0.45748347 0.3846702 0.3055169 0.22319254 -0.0048487186 0.10803771 -0.03678037 -0.22625272 -0.1928852 0.2181963 0.2497941 0.44040048 0.4322721 0.16317922 0.31192237 0.27775124 0.5998858 0.51578593 0.34746024 0.6038679 0.6072246 0.21166891 -0.22706851 0.079255715 0.6545563 0.6258771 -0.030778099 -0.20422849 -0.16498974 -0.16088405 -0.038879365 0.61529434 0.09983035 0.18545121 0.5533607 -0.039743304 0.23171213 0.46120554 0.022287033 0.12624244 0.2052938 0.39178145 0.29373267 0.07375722 0.15633358 0.0120720565 -0.038417377 0.2810442 0.34722307 0.448656 0.38275647 -0.2083939 0.4749857 0.4287986 0.39895594 0.38269755 0.26521295 0.51873326 0.52615 0.4156857 0.36932337 0.35192853 0.51447695 0.543428 0.54022354 0.22016002 0.053500842 0.14792539 0.36216822 0.46846807 0.21735406 -0.18156406 -0.28286788 -0.050757855 0.16694313 0.16895027 0.14945255 0.22677654 0.71599805 0.77074033 0.75368905 0.69146144 0.6305703 0.6876933 0.6856595 0.51059264 0.51716125 0.20770767 0.41581228 0.09452546 0.049633536 0.37041104 0.17970644 0.3377084 0.516364 0.19405308 0.5355008 0.57081175 0.13160534 0.548099 0.5149807 0.14420217 0.4073769 0.42912555 0.15162995 0.29322934 -0.09216255 0.5234871 0.48474008 0.40210626 0.17378762 0.5407004 0.50182146 0.35600257 0.393964 0.4090805 0.34399495 0.4334606 -0.090560645 0.5856202 0.5257106 0.38045716 0.24657664 0.3124264 -0.0925218 0.6724338 0.6270174 0.5838821 0.44585437 0.23921923 0.68389976 0.64017665 0.66146284 0.50156444 0.28364757 0.46604878 0.19879563 0.24707556 0.31937802 0.17418303 0.1272058 0.16255271 0.41722536 0.36391222 0.36141402 0.2932237 0.16037044 0.6209067 0.48559153 0.45021272 0.4564656 -0.3634854 -0.23111618 -0.27932486 -0.01540865 0.47315854 0.3875597 -0.34894294 -0.2603758 -0.21012491 -0.19686235 -0.2248722 -0.2678802 -0.26574558 0.37156317 0.32868534 0.21334235 0.120481536 0.22230087 -0.35753366 -0.29834545 -0.16629854 -0.13582613 0.46507448 0.4481932 -0.19096275 -0.23064502 -0.114355505 -0.015865138 0.53108835 0.021247134 0.11036139 0.13148348 0.512643 0.45737854 0.2002539 0.21405861 0.44463766 0.26184383 0.27321175 0.24813235 0.42744452 0.31518802 0.15229575 0.19899014 0.26836485 0.32280874 -0.23301384 -0.016651914 0.20964493 0.09236544 -0.040573977 -0.02898243 0.07083993 0.21267758 -0.2758423 -0.36639127 0.23883536 0.26389 0.42102504 0.31491065 0.46183878 0.46751356 0.44355327 0.48438868 0.46428794 0.51192033 0.51896614 0.46833354 0.5188079 0.5036181 0.52708113 0.46180612 0.42367786 0.35917807 0.2269098 -0.22962251 0.12355462 -0.32026094 0.084303826 0.32103962 0.46539903 0.4975509 0.4944669 0.42210084 0.3788912 0.20575418 0.03313264 -0.14074957 -0.4721852 0.20002314 0.13001636 0.20866278 0.2588091 -0.040650353 0.12915319 0.10651067 0.12192315 0.18287688 0.1118758 0.52063316 0.49800637 0.4320642 0.5581237 0.6767745 0.5460353 0.5783712 0.63946855 0.5950112 0.582677 0.704906 0.6572088 0.6346278 0.63598394 0.5785953 0.5962148 0.5660819 0.4690066 0.47331488 0.18282051 0.41001564 0.39449424 0.2683855 0.4916761 0.198461 0.51179785 0.1609015 0.17655337 0.36305577 0.16378048 0.12203753 0.14100066 -0.18330419 -0.05658324 -0.07852171 0.5150155 0.42258108 0.42903972 0.24279618 -0.07515378 0.45034507 0.42949146 -0.051391557 0.36994225 0.3720882 -0.016006604 -0.1480858 0.6013129 0.5281304 0.42155594 0.17835054 0.2785039 0.26494902 -0.05700852 -0.05494432 0.6711513 0.63589466 0.035016626 -0.020995615 0.6736984 0.6812757 0.5488527 0.31086826 0.7516664 0.7514466 0.3077112 0.26070908 0.16295907 0.23710999 0.32603642 0.75531626 0.74237055 0.6759262 0.32675835 0.29958236 0.26282573 0.06689472 0.72267807 0.70827496 0.5596498 0.42274246 0.31914836 0.32866526 -0.07076282 0.051776983 0.08502351 0.58156043 0.58100724 0.2542657 0.18984595 0.06685892 -0.20870881 -0.24617198 -0.104973555 0.009847743 0.31676242 0.05385607 -0.03812956 -0.085582316 -0.053161822 -0.07144746 0.33773163 -0.048657198 -0.022807132 0.0059755147 0.018250447 0.44701105 0.053434476 0.03475092 0.053330373 0.39791924 0.14450034 0.35372517 0.18291287 0.22645149 0.30766708 0.21839218 0.16615795 0.19934858 -0.1245012 -0.1702449 -0.25023335 0.1576078 -0.6370077 0.22801569 0.348323 0.16798872 0.2759277 0.42137632 0.39679232 0.48703063 0.45566678 0.4187863 0.5401032 0.5471353 0.46714243 0.5660393 0.28873456 0.5646069 0.5338773 0.39191753 0.1869522 -0.37577444 -0.14406832 -0.136466 0.16062188 0.25546488 -0.124796785 -0.19670385 0.2717821 0.21032277 0.08155778 -0.074891165 0.012373973 -0.12660101 -0.11903871 -0.09896208 0.1298153 0.15648586 0.256731 0.19632675 0.3621629 0.3128838 -0.055123195 0.13934577 0.11668722 0.12385549 0.1731697 0.18212724 0.57718873 0.10722087 0.35084128 0.40997225 0.26578003 0.6431293 0.5180353 0.13678563 0.2716009 0.28343263 0.67807496 0.61370766 0.4143192 0.46305493 0.5358989 0.46167552 0.46915403 0.54017425 0.5085765 0.49956024 0.5130457 0.4555798 0.36610425 0.29293102 0.25338072 0.39580822 0.35819858 0.16634786 0.3635674 0.37277365 0.348217 0.15420645 0.21098533 0.13459806 0.1305916 -0.14508595 -0.0049256533 -0.032674745 0.15468849 0.19594535 0.30011526 0.36065906 0.046372287 0.30679783 0.049733356 -0.14418788 -0.12321109 -0.023679215 -0.1698043 -0.28845358 0.5857073 0.54328626 0.4098516 0.21537998 0.12231641 -0.005052954 0.09650385 -0.1266144 -0.1755975 0.5892673 0.57034194 -0.011193104 0.024780557 0.5640689 0.21349157 0.58132327 0.46654108 0.44027478 0.4928988 0.7240304 0.73649037 0.7388681 0.712978 -0.04996867 0.19899741 0.2968635 0.41316825 0.48015928 0.7260835 0.74204654 0.6844803 0.18451817 0.16074392 0.08511808 0.013497248 0.6172219 0.6735183 0.36214268 0.09293005 0.08108339 0.019007739 0.5317353 0.036172554 -0.056623086 -0.022017358 0.0617162 0.35239 0.37349916 -0.055549983 -0.05919665 0.05826475 0.21687776 0.16888873 0.0069144224 -0.037023373 0.09021857 0.16872749 0.1820488 0.28982905 0.01773459 -0.025103537 0.21036652 0.24980459 0.31698644 0.035421878 0.11059915 -0.018604636 0.12744738 -0.008244928 0.13232708 0.16364524 0.16498591 0.07620758 0.14584467 0.16193314 -0.28410918 0.093266055 0.12919474 0.010941111 -0.035436526 0.1993832 -0.07731807 0.29576707 0.14392617 0.46523833 0.19538948 0.16549256 0.51131105 0.51348436 0.14347418 0.22284007 0.53097117 0.5454581 0.52393085 0.52761894 -0.2953419 0.1485768 0.10310345 0.488333 0.4448184 0.29782557 0.12403056 -0.0065666884 -0.1825724 -0.2729124 -0.28416866 -0.21857452 0.20426841 0.17845136 0.029425442 -0.009216927 -0.0728673 -0.07777558 0.49325824 0.4972679 0.32474574 0.17995042 0.2184859 0.6565132 0.6268992 0.43732202 0.043413516 0.29892504 0.085534416 0.19233271 0.21994714 0.7755705 0.68708265 0.479048 0.15336767 0.07768346 0.34989896 0.34065998 0.41560957 0.36830282 0.8102788 0.7232238 0.57979757 0.27354884 0.07984512 0.19901355 0.22643884 0.4383308 0.8076062 0.7526672 0.662387 0.37660116 0.24449465 0.38215804 0.49744913 0.4975371 0.46758634 0.39234382 0.5075449 0.24496767 0.2773515 0.33529493 0.23301476 0.3537719 0.36120176 0.18210593 0.34706634 -0.011012852 0.0828214 0.20643616 -0.020863235 -0.010641158 0.081037834 0.5752579 0.04449053 -0.04921903 0.020413473 0.58445513 0.5647343 0.52310634 -0.052606516 0.1289286 0.5744005 0.5681846 0.5141115 -0.09884351 0.21612427 0.53734374 0.552069 0.47488832 0.39077914 0.24027601 0.3621255 -0.14212298 0.12340766 -0.37101746 -0.110009916 -0.008515194 0.040414255 -0.25009808 -0.29301918 -0.18617432 0.41055468 -0.12236468 -0.14348543 -0.28994906 -0.25661215 0.45165327 0.3240581 -0.034045555 0.045250624 0.19325057 0.36946434 0.08034416 0.06512079 0.4456498 0.5179347 0.7034855 0.7079712 0.7067157 0.6835464 -0.14046805 0.059378117 0.288728 0.46282232 0.69405866 0.67883015 0.002