# vtk DataFile Version 2.0
Really cool data
ASCII
DATASET POLYDATA
POINTS 6084 float
-15.547024 34.888348 126.76274
-15.549634 35.580574 125.47428
-15.788838 35.855484 126.512566
-15.739533 35.41152 127.22504
-15.726316 35.98628 128.07974
-15.568407 36.198505 125.77722
-15.7065 36.51708 126.78671
-15.773131 36.375767 127.63344
-15.650683 36.375294 128.11833
-14.863567 33.179417 124.69433
-14.965798 33.1561 125.40732
-14.907707 33.22884 126.02033
-15.069109 33.80085 124.11374
-15.170454 33.742977 124.57416
-15.251907 33.690853 125.47666
-14.988635 33.5818 126.18244
-14.892076 34.40244 123.78526
-15.376781 34.65642 124.77053
-15.414297 34.58901 125.20563
-15.318422 34.841877 127.80042
-14.8934555 34.854343 128.4437
-15.019385 35.11712 124.02107
-15.276538 35.197052 124.64588
-15.402087 35.758987 128.38031
-14.86226 35.599262 128.83905
-15.082233 36.292233 124.83841
-15.418117 36.503735 125.66318
-15.458776 36.40311 128.32272
-14.8530855 36.11966 128.92154
-15.177736 36.79083 125.42103
-15.034171 37.023735 126.26499
-15.27424 37.25843 127.61332
-15.137863 37.038715 128.26921
-14.766813 37.818695 127.35123
-14.23795 33.25906 123.89321
-14.3388405 32.907803 124.71482
-14.454045 32.862896 125.254814
-14.124552 32.998596 126.11237
-14.553956 33.54353 123.78729
-14.434731 34.217823 127.8376
-14.294488 34.619183 123.287834
-14.582102 34.494446 123.47787
-14.47268 34.6596 128.43672
-14.275725 34.81037 128.65123
-14.32784 34.905796 123.39872
-14.398847 35.793774 129.19276
-14.620313 36.567867 129.05374
-14.598404 36.967014 124.789116
-14.09992 37.597675 129.06877
-14.255129 38.18449 127.62723
-14.113687 38.271156 128.25668
-13.90046 37.81251 129.1486
-13.829553 33.25387 123.758705
-13.345065 32.90624 124.57375
-13.526987 32.733986 125.331474
-13.466708 32.889423 125.940765
-13.657962 33.918793 123.25113
-13.87937 34.738747 123.20207
-13.662819 34.536175 128.56529
-13.191973 34.824646 128.90944
-12.995084 36.17517 123.58783
-13.633653 36.213657 129.52808
-13.572508 36.23141 129.56287
-12.821134 37.696224 123.10334
-12.737425 37.879223 123.67929
-13.665877 37.198124 124.45712
-13.668887 37.489788 125.26224
-12.694355 38.67221 123.155426
-13.10728 38.105385 125.94086
-13.758663 38.469826 128.65361
-13.431075 38.257748 129.02216
-12.63501 39.564903 121.528915
-12.745461 39.053467 122.166756
-13.319922 38.814964 127.873116
-13.352423 38.694603 128.50179
-13.17473 38.62312 128.84747
-12.57792 40.060696 121.7054
-12.398978 33.014793 125.61845
-12.057774 33.651733 127.93358
-12.422308 34.81273 128.9741
-12.071225 35.34166 129.21538
-11.7432785 36.607212 122.34071
-11.662622 36.776306 132.43123
-12.273275 37.328568 122.2348
-11.996742 37.185352 131.81053
-11.77225 37.47298 132.54941
-12.031141 38.889503 120.8768
-11.7193985 38.294937 131.3271
-12.306708 39.65319 120.87902
-12.526926 39.871292 121.2582
-12.064208 39.301495 124.50156
-12.189988 39.09889 126.7261
-12.175916 40.263714 120.94344
-12.355701 40.527916 121.59052
-12.272386 40.4658 122.551155
-11.991763 40.44712 123.4282
-11.684243 40.464714 124.11855
-11.884722 40.801975 121.089386
-11.982255 40.925724 121.607544
-11.838079 41.119392 122.65847
-10.760346 31.161053 117.94464
-10.84287 31.043167 118.50774
-10.787622 30.90576 119.227585
-10.7980175 31.2298 119.825806
-10.764494 30.859531 126.79572
-10.662833 30.896038 127.457054
-10.926571 31.656849 117.83018
-11.147038 31.627802 118.562836
-11.120631 31.581163 119.386566
-10.910005 31.546947 120.078026
-10.801581 31.697777 125.87794
-11.051646 31.486736 127.157455
-10.853574 31.821392 127.924095
-10.728543 32.225677 117.339455
-10.9501915 32.27793 117.71584
-11.187973 32.252544 118.43442
-11.110394 32.374863 119.48995
-10.704057 32.325886 120.563934
-10.532376 32.981876 121.080605
-10.889626 32.537586 128.28505
-10.787845 32.894417 117.84295
-10.8092985 33.292355 118.773155
-10.807184 33.270657 119.14661
-10.771757 33.37444 122.2346
-10.992272 33.585926 128.7321
-10.666061 34.567673 121.58642
-11.073352 34.67406 122.30107
-10.836037 35.405422 130.59062
-11.439845 36.082176 131.87828
-11.046201 36.714657 133.254
-11.631018 37.771137 121.48463
-11.579376 37.636738 132.74481
-11.401548 37.454308 133.04796
-11.411596 38.873978 120.48299
-11.451386 38.602737 131.74011
-11.237645 38.550446 132.32149
-11.033025 38.075573 133.14914
-11.183465 39.595623 120.232666
-11.405055 38.685486 131.27496
-11.043408 38.77392 132.32515
-11.526579 39.937454 120.36706
-11.271194 40.61989 120.51575
-11.525912 40.302418 124.51019
-10.810488 40.64129 125.01136
-10.930971 39.912666 127.06835
-11.430864 39.839973 127.56848
-11.368718 39.74782 128.1895
-11.313199 41.116142 120.900566
-11.206755 41.466293 121.32881
-11.514423 41.412983 122.22745
-11.386615 41.26399 123.31944
-11.078112 40.862713 124.51918
-11.113698 41.719055 121.66238
-10.9557085 41.62928 122.74747
-9.963056 30.371702 118.74844
-10.055809 30.410044 119.10284
-10.0435095 30.364834 126.67561
-9.984159 30.327988 127.201195
-10.291983 30.892084 117.85143
-10.300364 30.584705 118.66967
-10.265619 30.608356 119.360085
-10.387041 31.053154 120.14127
-10.331132 30.947666 125.942
-10.38975 30.601883 126.629456
-10.429322 30.692894 127.47819
-10.034076 30.817184 128.1844
-10.083706 31.719185 117.11286
-10.643891 31.485552 117.531876
-10.608477 31.769405 120.472496
-10.067493 31.54245 120.6652
-10.210682 32.290012 123.10497
-10.281854 31.458933 125.460266
-9.849058 31.22334 128.578
-10.350289 32.296608 117.133934
-10.590748 32.65203 117.41608
-10.677311 32.72251 123.389885
-10.159374 32.8024 129.0396
-10.353126 33.269028 117.62248
-10.553786 33.57304 118.43672
-9.861962 33.42927 129.53807
-9.859347 34.167503 118.012825
-9.99147 34.30888 118.38201
-10.278634 34.07606 119.623215
-10.390738 34.142822 120.091354
-9.903006 34.725204 132.42812
-10.214891 35.500572 133.40196
-9.839178 35.37583 133.875
-10.507488 36.156483 133.60748
-10.326848 36.61174 133.73782
-10.557579 37.588364 121.03971
-10.575569 37.82052 133.49664
-10.191791 37.65909 133.64886
-10.306237 38.37237 120.49988
-10.302473 38.35409 133.27808
-10.268698 39.833656 120.13245
-10.315895 39.33558 131.36572
-10.544605 38.992672 132.70584
-10.450617 38.810703 132.94691
-10.431894 40.09962 120.19965
-10.803479 40.728306 120.44805
-10.578901 40.711273 124.75853
-10.212875 40.01753 127.46824
-10.37412 39.95589 128.60896
-10.347354 39.574287 129.41711
-9.982957 41.196606 125.28211
-10.416416 41.90716 121.56431
-10.286157 42.219078 122.692085
-10.016105 42.54573 123.47712
-10.182537 42.30017 124.10742
-9.871958 42.679264 123.01949
-9.92396 42.68043 123.694855
-9.344264 30.3949 118.0733
-9.497356 30.293177 118.65113
-9.551728 30.319714 119.21406
-9.419679 30.236414 126.81076
-9.376961 30.232185 127.40164
-9.418099 30.368969 127.99756
-9.830626 31.084927 117.37904
-9.383776 30.835842 117.55209
-9.429321 30.50026 119.68513
-9.52595 30.701801 120.02091
-9.484846 30.760796 125.75263
-9.616574 30.487297 126.24279
-9.453844 30.597546 128.29005
-9.4677305 31.026922 128.80357
-9.686525 31.513103 117.10236
-8.947846 31.408215 121.06515
-9.42218 32.11218 122.025696
-9.641131 32.17599 123.75
-9.467856 31.90839 124.24635
-9.534222 31.483667 128.9689
-8.788277 32.060463 129.75436
-9.204932 32.17074 116.90656
-9.317986 33.4638 116.99234
-9.2669525 34.200104 131.16762
-8.986756 34.237816 132.07385
-8.905636 34.27076 117.101685
-9.51366 34.24874 117.641945
-9.475237 34.64868 132.63792
-9.204234 34.703823 133.42458
-9.297438 35.120636 133.98615
-8.806664 35.01871 117.73409
-9.554677 35.2724 119.779434
-9.259359 35.594288 134.2484
-9.2660055 36.267254 134.38972
-8.657902 37.722305 114.05176
-8.614718 37.859127 114.615685
-8.775997 37.864124 134.1034
-8.614861 38.46636 113.839386
-8.603392 38.38709 114.51717
-8.605023 38.30963 115.031
-8.597838 39.28095 113.814705
-8.5709505 39.383442 114.30118
-9.842162 39.4572 131.02505
-9.195098 39.340893 132.4532
-9.506345 38.823357 133.25575
-8.547878 39.891415 114.16284
-10.064591 39.979534 120.21326
-9.572484 40.082344 127.82498
-9.355589 39.95626 128.48657
-9.354321 39.64588 131.47716
-9.804431 41.276516 120.82874
-9.234347 40.8151 125.66566
-9.086321 42.00706 121.22014
-9.223436 42.60573 124.6173
-9.068165 42.568024 124.79008
-8.677762 42.964756 121.280685
-8.68155 43.392628 121.73402
-9.057621 43.241394 123.42446
-9.402387 42.89555 124.13357
-8.78658 43.68588 122.61485
-8.798903 30.319416 118.55515
-8.754102 30.354658 119.22877
-8.737248 30.317032 126.57435
-8.743987 30.247143 127.28474
-8.781905 30.369692 128.03664
-8.678099 31.188707 117.170586
-8.937441 30.685787 117.70782
-8.398185 30.533041 118.3213
-8.448996 30.581669 119.64161
-8.520519 30.797373 120.38547
-7.930161 31.048584 121.408356
-8.563251 30.694761 125.86056
-8.272238 30.475172 126.662636
-8.671936 30.63077 128.49977
-8.647125 30.960451 128.92308
-8.297936 31.889538 116.57605
-8.53737 31.797497 122.561325
-8.358494 31.66773 124.556366
-8.467935 31.563776 129.40736
-8.244051 31.976004 129.8558
-8.145773 32.7853 116.00572
-7.9198503 32.482883 130.57593
-7.6942906 33.343433 115.31627
-7.8632817 33.800644 115.438484
-8.819424 34.148354 131.58592
-8.576168 34.359077 132.87163
-8.629042 34.450275 133.22217
-8.06762 34.56571 115.9411
-8.110473 34.70405 133.6146
-8.538735 34.965176 134.02542
-7.8874087 36.05624 113.92035
-7.859252 35.703194 114.47915
-7.931145 35.631702 115.46376
-8.072332 35.165894 116.75389
-8.373128 35.548965 118.371155
-8.467814 35.46538 134.41264
-8.046963 36.63573 113.793335
-8.425194 37.15302 114.33232
-7.807374 36.13828 116.7776
-8.308578 35.76797 118.051384
-8.13864 36.307976 119.6949
-8.607614 36.45138 134.51141
-7.8277416 37.11973 135.08438
-8.094953 37.698555 112.94288
-8.335294 37.67847 113.321045
-8.384541 37.367752 114.15306
-8.374981 37.615158 115.28591
-7.984334 37.859356 135.09842
-8.050393 38.422684 112.80799
-8.422345 38.55606 113.366714
-8.287257 38.47062 115.415825
-8.137871 38.100773 115.72622
-7.9768734 38.500065 135.22734
-7.9099755 39.225075 112.8821
-8.373476 39.469166 113.497025
-8.499099 39.231716 114.79995
[...]
POINT_DATA 6084
SCALARS features_00 float 1
LOOKUP_TABLE default
0.6240537 0.523752 0.5801747 0.6437713 0.62631017 0.5102355 0.5968971 0.6423314 0.6290365 0.7173031 0.6940286 0.6612522 0.709604 0.713837 0.69442046 0.65531135 0.67479223 0.6416198 0.63520586 0.6026733 0.5303012 0.5923761 0.5798738 0.5940406 0.53863907 0.4504462 0.4882294 0.6169927 0.5622437 0.45275047 0.50649774 0.6244494 0.61703116 0.5735598 0.7251384 0.6959361 0.67058015 0.5959058 0.71488345 0.4688999 0.6358505 0.6626755 0.47467533 0.45666754 0.59092015 0.50825524 0.586154 0.3934625 0.5439445 0.48686087 0.46851206 0.49069375 0.7175459 0.61977535 0.5942435 0.54638773 0.65671086 0.57731473 0.3527646 0.32781798 0.21251252 0.48373878 0.47866374 0.2678 0.17096908 0.23638514 0.3083692 0.410003 0.3035276 0.43849015 0.39903402 0.6077597 0.5394367 0.3557995 0.38734215 0.36006367 0.5976254 0.3831476 0.030699704 0.15339012 0.11687444 0.15422249 0.5634835 0.3704938 0.548846 0.54577005 0.64685917 0.47105575 0.6559507 0.6357707 0.29391286 0.26234576 0.64980316 0.6049402 0.5234972 0.40916157 0.34259373 0.6270528 0.58936274 0.47152603 0.80724883 0.81231946 0.75934327 0.705869 0.6017597 0.6160555 0.79427445 0.8214032 0.75961643 0.67531765 0.41146463 0.5737806 0.5114052 0.7314148 0.7399991 0.77918553 0.73377097 0.5721111 0.3697557 0.30580097 0.6294558 0.551649 0.5620535 0.067542255 0.03283877 0.09259132 -0.027626634 0.16650987 0.5517333 0.5467912 0.50376385 0.53331596 0.5347042 0.65627253 0.4799813 0.48709583 0.50558525 0.65321064 0.43701074 0.46816647 0.6642683 0.63121134 0.31087852 0.27526608 0.14140616 0.21952426 0.20346504 0.6044483 0.55635226 0.48839658 0.37937817 0.3363804 0.5049168 0.3991831 0.7348625 0.7171266 0.62326825 0.638057 0.7850363 0.7696196 0.7141882 0.6532769 0.53831977 0.61119413 0.62565124 0.59694934 0.70235795 0.77762467 0.6137587 0.5545739 0.060055222 0.40416032 0.52677786 0.693527 0.66340923 0.083937034 0.28727192 0.5306055 0.477668 0.15008959 0.3523857 0.33149856 0.36505163 0.34264946 0.37185323 0.5238274 0.5010374 0.5371753 0.51684666 0.51067305 0.49868304 0.47775942 0.57909095 0.46853447 0.5353906 0.30239776 0.44083077 0.45224273 0.5556517 0.58179426 0.32399073 0.15147202 0.17068473 0.1327158 0.32188013 0.44166285 0.36004588 0.37820977 0.39309075 0.36070108 0.39474538 0.7050178 0.6981915 0.6620543 0.628695 0.6374202 0.6184169 0.7168375 0.6882967 0.61075854 0.5929286 0.5244879 0.59178764 0.59088445 0.51378894 0.6606865 0.36533442 0.15478885 0.10860796 0.21623895 0.4570299 0.34470916 0.5625631 0.43210393 0.17069161 0.2841741 0.24472657 0.32114506 0.37612844 0.43247506 0.46846586 0.16664849 0.20863912 0.46013528 0.4356438 0.5598639 0.5979314 0.41214645 0.6346846 0.6526948 0.65817463 0.7576178 0.7766341 0.17694256 0.32119924 0.4081688 0.8569131 0.49332654 0.10753776 0.09273497 0.2138346 0.41792512 0.21494354 0.37525684 0.39706922 0.3779127 0.47585532 0.50632244 0.44332615 0.42126024 0.5144123 0.6200025 0.5667862 0.5896918 0.61817276 0.59453374 0.54252434 0.63630986 0.5503934 0.47874695 0.420996 0.2471034 0.49746513 0.5545169 0.5407596 0.48487192 0.38009858 0.13368848 0.20320246 0.4111302 0.34595352 0.27548832 0.213635 0.22869116 0.2413198 0.21705791 0.33201048 0.36952403 0.20527847 0.3600837 0.42180339 0.27679488 0.22252385 0.20241189 0.13149525 0.0720652 0.407838 0.373724 0.47838706 0.08056912 0.048560977 -0.0025907531 0.39454556 0.40088657 0.49206987 0.5126727 0.5063864 0.5594621 0.4760635 0.587417 0.6293933 0.66981035 0.61571944 0.5390737 0.7365613 0.79496056 0.74849427 0.82562965 0.6688242 0.24432898 0.55527365 0.56235415 0.83524114 0.8866911 0.9139089 0.87739336 0.21087337 -0.074952945 0.29705593 0.29586628 0.47524068 0.50097716 0.58105206 0.9060781 0.91329134 0.33407584 0.25796455 0.54501545 0.62539333 0.43465126 0.33637196 0.52003056 0.51247734 0.4073601 0.54369503 0.5523298 0.5475301 0.5195385 0.46929908 0.5729735 0.3806794 0.36707628 0.4346656 0.25158262 0.23681463 0.38311607 0.54349816 0.53284705 0.5424222 0.42323434 0.73012495 0.7837996 0.8117176 0.77098334 0.24479154 0.08784083 0.024209142 0.1033103 0.3677258 0.7560817 0.84807706 0.9161298 0.7964646 0.19452104 0.7589487 0.83194256 0.9006228 0.84981716 0.17610936 0.1998418 0.08255813 0.78774333 0.8600219 0.17072351 0.19479151 0.3130409 0.160009 0.1867451 0.369738 0.32422167 -0.031954974 0.40269673 0.35962218 0.41312563 0.26145583 -0.16799858 -0.20561498 0.46474266 0.47049862 0.5372343 0.5714288 0.5889034 0.6602199 0.7198334 0.028268022 0.60788625 0.80247444 0.86255974 0.82517564 0.02651523 0.019598745 -0.07833365 -0.06466571 0.4196612 0.4661268 0.6236657 0.61389875 0.8735994 0.906014 0.89975667 0.2545923 0.5592602 0.67337066 0.69261736 0.66766596 0.380469 0.24887246 0.27340573 0.51364565 0.3282606 0.5487925 0.5516618 0.5391775 0.5183697 0.44418442 0.53165835 0.5222342 0.63205504 0.6043968 0.6273381 0.18135868 0.19084495 0.20099336 0.15206763 0.68555784 0.6830777 0.69337374 0.73937094 0.6872675 0.20093419 0.20377211 0.1888509 0.10904835 0.03888339 -0.04890382 0.16761908 0.35693988 0.378156 0.41468468 0.6842587 0.7059012 0.6924953 0.6740103 0.1847995 0.19343527 0.14275454 0.17152937 0.08115791 0.6719923 0.69579786 0.7942823 0.73508596 0.1567896 0.17721593 0.09448402 0.6476941 0.67786086 0.7428323 0.79962397 0.8011528 0.5811206 0.5051786 0.42663887 0.13692619 0.13268504 0.19835556 0.6184441 0.5531097 0.4062121 0.25368923 0.5786108 0.5339023 0.3536016 0.37367448 0.5055155 0.4237145 -0.09105584 -0.29869783 0.5145836 0.3916123 0.31825158 0.40398055 -0.45467648 0.595294 0.5844595 0.49838156 0.507643 0.46801567 -0.09480779 0.61225885 0.71034145 0.7954614 0.7573166 0.026559085 0.49089107 0.63465935 0.61548793 0.80038965 0.84171915 0.8565327 0.20255324 0.1128235 0.6243762 0.7134652 0.7641039 0.72767293 0.68175596 0.41007793 0.122729026 0.4929135 0.25780246 0.51106447 0.52172107 0.5019415 0.36601752 0.5102197 0.5078569 0.4923293 0.39402995 0.30871558 0.6793442 0.59897906 0.48544902 0.4874835 0.31057653 0.33253998 0.051317617 0.7137575 0.7049142 0.57946515 0.3877292 0.25342953 0.32800448 0.15443133 0.15090191 0.09241529 0.036708333 0.06297812 0.111817926 -0.06710367 0.21353337 0.7078489 0.6994473 0.36064956 0.17424849 0.17789051 -0.1340077 -0.13254015 0.08847369 0.13804813 0.042782225 0.6750555 0.654722 0.619712 0.4240934 0.27156767 0.045249403 0.10876902 0.16292943 0.22148243 0.25781396 0.63500434 0.5984946 0.6064745 0.5826819 0.5887983 0.5696015 0.434357 0.37204954 0.5346575 0.62505716 0.26984227 0.32304627 0.5860761 0.6005386 -0.21969208 -0.29521796 0.48289126 0.48780105 0.39538097 0.35212204 0.08435436 0.5461412 0.31754017 0.21205549 0.49831253 0.313814 0.5301808 0.5606945 0.5327933 0.6169963 0.7466985 -0.06362885 -0.04166337 0.45408905 0.572644 0.59035337 0.73928016 0.6655671 0.67157364 0.67787254 0.6509902 0.1659745 0.15153216 0.19947064 0.10566406 0.46312106 0.4321388 0.2553152 0.49983793 0.503084 0.4658545 0.6118523 0.67935574 0.693391 0.5421201 0.58184284 0.5824722 0.6165654 0.707106 0.7413646 0.5108559 0.57122374 0.5788971 0.552465 0.5887493 0.7087631 0.79276395 0.3570287 0.2921784 0.44201237 0.5100018 0.5266595 0.47282904 0.41949946 0.39306074 0.34619784 0.24642569 0.1694357 0.29263216 0.3399544 0.35123536 0.4634963 0.4122976 0.5701047 0.5851673 0.33495992 0.03465177 -0.09972854 0.64964294 0.32034862 -0.113937765 0.115735084 -0.21661991 -0.22259088 -0.028820656 0.11265298 0.67401266 0.12029136 0.116164245 0.17656791 0.083025455 -0.2234972 -0.04022914 -0.2665131 0.086035736 0.21574754 0.26627243 0.27901295 0.639308 0.12746198 0.072144315 0.29767329 0.27511373 0.29295206 0.3164384 0.5614909 0.3287105 0.40823796 0.4275782 0.14433075 0.43202427 0.4235663 0.27519366 0.56676173 0.4676351 -0.30529115 0.4247973 -0.2532029 0.41480494 0.39951754 0.33546552 -0.09514625 -0.2483545 -0.22712241 0.4168116 0.46648937 0.27819854 0.142208 0.08021553 0.09200688 -0.19702767 -0.061958484 -0.11566881 0.28649306 0.27187833 0.40519637 0.2981 -0.21137159 -0.22166735 0.31345963 0.43106857 0.45043537 0.48919702 -0.046902403 -0.1412985 0.5123816 0.5077096 -0.004841894 0.01808197 0.031446204 0.08084798 0.29100364 0.2555275 0.12710033 0.49183854 0.4766016 0.32045278 0.56771827 0.17292714 0.35780087 0.5192871 0.6298535 0.6505941 0.65924215 0.34831426 0.43095547 0.5268065 0.5422268 0.4803084 0.24884042 0.351516 0.718311 0.72816 0.27508566 0.5174237 0.39230838 0.48214298 0.75546134 0.32562155 0.33135337 0.32072616 0.41308293 0.40650582 0.6243601 0.82526195 0.7348734 0.38485172 0.24897829 -0.04092055 -0.07646988 0.48298755 0.27712184 -0.040687203 -0.039653122 -0.10067022 -0.12070664 -0.1430969 -0.21024618 -0.042736933 -0.034270145 0.53279895 0.34635103 0.115235254 -0.071510196 -0.06698994 -0.16799878 -0.26102063 -0.25589386 -0.040660676 -0.046685703 -0.14535142 -0.20162871 0.0794676 0.16697359 0.26690316 0.45575696 0.21201485 -0.0036798045 -0.19314843 -0.0895635 -0.23733108 -0.12601444 0.27350348 0.30641288 0.34064978 -0.05807538 -0.048786663 0.10263425 0.16978742 -0.15348679 0.33609486 0.3526106 0.40363038 0.13638791 -0.17110226 0.0213788 -0.037708744 -0.081022084 0.23758915 0.38271165 0.51805866 0.26949766 0.20957711 0.022955574 0.024524301 0.18487293 0.1870777 -0.13452949 0.5011103 0.18377577 0.22559664 0.21574298 -0.36857662 0.3972293 0.22225806 0.28823125 0.29776943 0.06811795 -0.43860525 -0.5299394 -0.22321922 0.35329744 0.26636305 0.12007694 -0.40405422 -0.25525868 -0.24470228 -0.20621268 -0.0047165975 0.052271545 0.13067557 0.35477316 0.172195 -0.26640722 -0.24261366 0.31249142 0.31980702 0.37762314 0.25885695 -0.1700606 0.07855588 0.040085703 -0.10398951 0.029634297 0.3811857 0.12776278 0.1539607 0.17947374 -0.06590966 0.15958235 0.117732584 0.030113168 0.22201496 0.100232735 0.096508786 0.09156495 0.15335952 0.11749399 0.071440846 0.5354913 0.5108466 0.56202984 0.53517455 0.50306463 0.4654618 0.5008881 0.44776744 0.42858228 0.64133424 0.69224894 0.42652392 0.39851928 0.38640305 0.35782978 0.59640115 0.6724068 0.3569308 0.3145234 0.56920195 0.5744328 0.28224918 0.2445396 0.15823856 0.1569702 0.70525235 0.71225727 0.704023 0.15450066 0.15971622 0.18018232 0.17071876 0.65616035 0.64761364 0.59813946 0.47528845 0.27051046 0.13818666 0.1623689 0.20914428 0.22346805 0.56816673 0.50335395 0.38582003 0.26275963 0.073457874 0.12499383 0.13885519 0.20129393 0.41527003 0.27339432 -0.043989383 0.04803763 0.05928565 0.11125587 0.20682849 0.3561975 0.36613327 0.39654177 0.14363778 -0.041416056 0.19790909 -0.07210843 0.10207885 0.52748424 0.5588155 0.13280322 0.41032365 -0.09139694 -0.047819927 0.0869669 0.64111274 0.56479895 -0.06868104 -0.09752955 0.08963785 0.6292192 0.56316555 0.5810623 0.58214974 0.23084238 0.119960636 0.17614833 -0.08092517 -0.09260246 0.1689521 0.45687085 0.24164715 0.38892156 0.5092641 0.55088234 0.5527952 0.24584511 0.27205926 0.06415638 -0.22325899 -0.05448515 -0.06508117 -0.17599578 -0.26850826 0.07132992 0.17088094 0.4757139 0.53054684 0.2100401 -0.055688117 -0.039551746 -0.23978254 -0.26808313 -0.12825412 -0.051437885 0.26790679 0.19498625 0.21829559 -0.08917606 -0.09045055 -0.28579688 -0.37985706 -0.34553164 -0.20607278 -0.09753947 0.089582786 0.2608531 -0.011684582 -0.18758862 0.31694245 -0.3287415 -0.11503594 -0.20992497 0.37783983 0.44632834 -0.10147632 0.411542 0.4846897 0.5228438 0.18533915 -0.037727587 0.43457288 0.519369 0.5255996 0.48596227 0.350334 0.044515774 0.28791156 0.52049303 0.46906167 0.42421407 0.16704458 0.12940857 0.15851092 0.11799911 0.19332807 -0.014478896 0.06004174 0.112318516 0.06099662 0.15413254 -0.29477346 0.11871432 0.27471572 -0.15647346 -0.28755385 0.32657665 0.3815875 0.3998569 0.36851048 0.14711198 -0.014607888 0.114534706 0.21061137 0.38095087 0.079497844 0.07484698 0.09797611 0.26299563 0.06978447 0.038368635 0.10971324 0.11113192 0.21773314 0.13563178 0.17882678 0.12578091 0.25871867 0.3670311 0.30652198 0.25538144 0.24113363 0.3581595 0.34211195 0.31885415 0.54747355 0.5077858 0.49645782 0.6152935 0.5609023 0.51814306 0.48847413 0.71282065 0.6365057 0.47231597 0.62997943 0.65862596 0.64128613 0.4187194 0.29258573 0.65686995 0.7130619 0.72800595 0.60572916 0.5461949 0.1843197 0.227819 0.47798043 0.694973 0.72565037 0.34146208 0.04361881 0.5209248 0.5477189 0.6203729 0.22812743 0.13060963 0.052205306 0.18331021 0.4682799 0.53581536 0.7449719 0.7629954 0.7604971 0.61311483 0.15578265 0.16930342 0.13233697 0.13724858 0.06667845 0.16474405 0.7185229 0.73949814 0.55814207 0.44915277 0.36115807 0.122777805 0.16691881 0.1422933 0.07789315 0.6572016 0.29536045 0.08416525 0.06336078 0.09205158 0.46448815 0.08706394 -0.068879165 -0.107163005 -0.0435992 0.018724661 0.12925959 0.13277039 0.29699197 0.3857804 0.012384753 -0.08522667 -0.1328175 0.0029007355 0.21995875 0.27702236 0.27004197 0.21499002 -0.13043769 -0.1645962 -0.06343705 0.37897563 0.3849 0.3496468 0.029059343 -0.20769052 -0.2311576 -0.11744448 0.3697012 0.20752954 0.09336498 -0.10240485 -0.10698866 0.44276276 0.3195486 0.40562356 0.44185275 0.5485785 0.55623996 0.087642714 0.10194008 0.02342602 0.17173794 0.3695491 0.55481124 0.5102137 0.015193574 -0.33314896 -0.3768624 -0.42655325 -0.22489686 -0.13124447 -0.020693675 0.38039243 -0.011904359 -0.38769042 -0.43615738 -0.1599291 0.042610884 -0.047079697 0.016355999 0.1533453 0.053985234 0.29547963 0.36197442 0.42436793 0.34158832 0.43250275 0.20587 0.41507456 0.45346004 0.49086335 0.20631513 -0.08307278 0.13552934 0.18276846 0.49375457 0.4453559 0.40035567 -0.30052364 -0.11479632 0.10592677 0.43511996 0.41158956 0.37726426 0.066426605 0.00561158 -0.03868809 -0.26403847 0.15510824 0.118577406 -0.064301185 0.013927236 -0.011934043 -0.12636042 0.21117559 0.09964222 -0.0052388906 0.07909 0.25754327 0.13608018 0.2566553 0.17110048 0.35878795 0.3650399 0.3529924 0.33320197 0.2883669 0.03605508 0.22316587 0.3301251 0.40338692 0.3526634 0.29806557 0.08923429 -0.022901446 0.15074366 0.19173163 0.43492806 0.4251479 0.3637451 0.2225768 0.1851415 0.47110918 0.3402804 0.2844867 0.24317674 0.4464767 0.48771185 0.46363243 0.37207198 0.33199626 0.6561177 0.6262771 0.56446105 0.513077 0.47328153 0.3932007 0.6767142 0.65931547 0.47123772 0.35763276 0.7322198 0.71012616 0.2541546 0.40974492 0.60187066 0.60142815 0.739609 0.69428396 0.62903905 0.7076565 0.675912 0.48022377 0.38151494 0.55569124 0.5639481 0.29616022 0.39374328 0.73028696 0.74501216 0.7786466 0.68377507 0.1509181 0.690312 0.005006224 0.60068446 -0.015616104 0.36426893 0.015413389 0.3040309 0.32401454 0.18759108 0.19894174 0.27169865 0.20569411 0.24379852 0.20953271 0.24504183 0.26430634 0.3217315 0.38019207 0.42291564 0.44518155 0.112162314 0.29828683 0.19975065 0.24572422 0.29756105 0.34147668 0.381041 0.4936162 0.50953686 0.5124148 -0.09736018 -0.14114624 0.15537441 0.050609794 0.14867803 0.41238528 -0.095490925 -0.4063217 -0.22277734 0.34976926 0.17385963 -0.071352035 0.09068579 0.015237555 0.049095236 0.14815809 0.09704505 0.18039317 0.320691 0.111194625 0.39619708 -0.19380903 -0.024912283 0.008104935 0.102746785 0.42541876 0.4147355 -0.30525827 0.01193323 0.12098359 0.48632818 0.29779518 0.13662447 -0.3097241 0.43035883 0.37282026 0.32340664 0.19811073 -0.00845528 0.8547631 0.8212204 0.79216474 0.37757128 0.35967982 0.26140803 0.22695765 0.11093108 0.006713435 0.87659746 0.85286844 0.806385 0.7674263 0.30519706 0.3164358 0.24202287 0.09747232 0.13131273 0.09718123 0.8760557 0.851983 0.7851336 0.35984564 0.374466 0.32104167 0.20348646 0.25156406 0.25662544 0.26615027 0.14450079 0.080378965 0.23010567 0.43988135 0.44594055 -0.11430676 0.1327458 0.48824018 0.47547507 0.26199666 0.04704977 -0.12910134 0.056365166 0.513504 0.5213344 0.49469388 0.43152323 0.26012892 0.30465916 0.28025097 0.46994328 0.49327156 0.483362 0.40909123 0.32982326 0.48104158 0.4649002 0.6509311 0.6156851 0.5183577 0.5133609 0.46439537 0.3894362 0.685125 0.67393434 0.31984752 0.20642741 0.72459793 0.25971597 0.35311133 0.5600221 0.72382504 0.55946296 0.5343251 0.5379733 0.43361428 0.5018356 0.17481151 0.31387526 0.3911398 0.6299447 0.6388675 0.5713583 0.57348835 0.18801107 0.59418637 0.35596684 0.43579084 -0.07234654 0.2516587 -0.061309397 0.29372033 0.043096766 0.09640549 0.766364 0.76345944 0.7570424 0.7400428 0.23529989 0.2792409 0.15402035 0.77268004 0.782275 0.78561294 0.7492534 0.1562874 0.11448002 0.24022503 0.28075686 0.2861618 0.26561165 0.31128854 0.3820024 0.75164735 0.75283563 0.7505051 0.7267945 -0.14810973 0.26099545 0.24758503 0.28688645 0.3215074 0.42534214 0.43064523 0.6667253 0.69892454 0.6547442 -0.16853315 0.34792426 0.21553606 0.110436656 -0.09750557 -0.020111457 0.17303449 0.16845916 0.2291065 0.16933472 0.32988852 0.29663664 0.25486073 0.3558323 -0.053260177 -0.0045276433 0.2010527 0.40561885 -0.41568977 0.44760764 -0.021816889 0.7881572 0.7594422 0.7260936 0.44878 0.12736015 0.8460258 0.8400574 0.8064438 0.75985575 0.70747495 0.31628108 0.24907571 0.22209756 0.061598033 0.8566159 0.715767 0.26601514 -0.020667171 0.8124291 0.8294908 0.7138268 0.5577808 0.30191824 0.35565883 0.1652897 0.18807377 0.21492708 0.20370914 0.024901047 0.70628524 0.70722854 0.5408678 0.44347507 0.35961813 0.30159825 0.1709184 0.206381 0.21042378 0.19856156 0.45112804 -0.09490538 -0.14315747 0.18770155 0.20713176 0.5412933 0.5510086 0.1416688 0.09871447 -0.09499857 0.3400645 0.14719443 0.07588271 0.23838162 0.5449917 0.51892257 0.44594765 0.31992584 0.21247756 0.43811822 0.44951743 0.45537767 0.42518887 0.35688534 0.4709741 0.44613808 0.62703025 0.5879065 0.41555718 0.67149425 0.64941835 0.09346018 0.1403775 0.6563407 0.26886868 0.3639895 0.6132722 0.47136304 0.43653643 0.41636264 0.4207098 0.31902882 0.3841521 0.15548398 0.11644375 0.31656268 0.49977916 0.4230212 0.34594893 0.32370993 0.15013668 0.43935567 0.41799822 0.3710311 0.07410361 -0.22500536 0.2847711 -0.13656718 0.22554773 0.16586062 -0.11788652 0.7051174 0.65894353 0.26925394 -0.029328398 -0.034366485 0.7374631 0.7402197 0.69135326 0.63833797 0.5001129 0.18858299 0.054212335 0.72596055 0.51674527 0.122398406 0.21373257 0.26781353 0.2659461 0.26743045 0.7259283 0.20603171 0.20266739 0.23442595 0.6318685 0.5743998 -0.32581866 0.14892405 0.7664895 0.029726421 0.25147095 0.34395862 0.13203412 0.24908869 0.29059148 0.3125217 0.3688105 0.10844702 0.3784725 0.45235172 0.09624027 0.36931092 0.43607283 0.28886908 0.20909613 0.3530934 0.41566086 0.26037467 -0.0051077716 0.036360767 0.25409126 0.33816147 0.38921642 0.13521041 0.37826198 0.17008922 0.18416345 0.7403376 0.15050964 0.19575626 0.77350473 0.61753386 0.18062682 0.25491816 0.279592 0.04802399 0.12208101 0.7200649 0.7700504 0.22647752 0.2116487 -0.12615931 -0.23166573 0.715575 0.71750015 0.34698737 0.12764904 0.25555494 -0.107912466 0.17317268 0.58272934 0.4072356 0.3212918 0.3163606 0.16643044 -0.046915766 0.14406449 0.1357621 0.15017602 0.43058077 0.33418652 0.5163365 0.47026622 0.43336147 0.38110483 0.32640007 0.3162133 0.3281092 0.27944022 0.20659205 0.11865677 0.4692219 0.30837306 0.3539075 0.53325397 0.31098583 0.2476471 0.27829108 0.24377224 0.3376969 0.3369084 0.49193895 0.44847453 0.42907107 0.40196556 0.2965617 0.41784877 0.54562294 0.4474755 0.39098492 0.41831988 0.40718096 0.29799694 0.33997574 0.39551067 0.40936467 0.5178424 0.5322155 0.63397527 0.6342057 0.7252377 0.81851923 0.86419195 0.64235425 0.75046825 0.8338577 0.8813093 0.6112325 0.7918605 0.8379718 0.8627084 0.73502886 0.82254696 0.82343864 0.8526345 0.84826034 0.44310883 0.44640213 0.40235704 0.18652058 0.60334074 0.05866105 0.5336179 0.49662298 0.059423264 0.10974161 0.5223975 0.34717464 0.23421922 0.16090554 -0.069660366 0.31035906 0.24937147 0.096250996 -0.22164956 0.61222535 0.6562099 0.67023134 0.13226092 0.18759112 0.05960829 -0.27913445 -0.11393632 0.19265276 0.09462041 -0.13937488 0.6539303 0.5913767 0.52202123 0.15422206 0.21159701 -0.17941515 0.67160285 0.65174735 0.40301 -0.10167916 -0.2742141 0.6326008 0.43036205 0.25534913 -0.123294346 0.13547443 0.18249875 0.11226803 0.074989334 0.049921595 0.44700393 0.010855764 -0.021619588 0.68567 0.7053597 0.6966179 0.11657322 0.093784176 0.29666242 0.3707885 0.39226428 0.710315 0.7446901 0.7662257 0.7042117