# vtk DataFile Version 2.0
Really cool data
ASCII
DATASET POLYDATA
POINTS 6789 float
-10.747083 43.72548 101.063484
-10.794573 43.749245 101.37895
-10.6942625 43.750633 102.14191
-10.770003 44.390244 100.7574
-10.905254 44.5601 101.478264
-10.773485 44.37004 102.31115
-10.575818 44.25751 102.82688
-10.668449 45.380768 100.78102
-10.767973 45.472775 101.58749
-10.658369 45.470406 102.17396
-10.530113 45.953953 100.791214
-10.553698 46.391277 101.43582
-10.1273155 43.15518 100.876724
-10.194276 43.057457 101.51546
-10.012338 43.067112 102.32571
-9.984993 43.279926 102.8358
-10.163894 43.930153 100.17515
-10.430313 43.56193 100.67382
-10.4559145 43.46552 102.355
-10.232697 43.845272 103.00537
-9.784589 44.896038 99.2489
-9.948585 44.55892 99.55815
-10.221746 44.415257 103.140594
-10.006632 45.58114 99.147835
-10.119533 45.690403 99.407616
-10.502984 45.71201 100.29953
-10.512343 45.21928 102.59391
-10.304511 45.511917 102.79026
-9.714693 46.265465 98.81065
-10.111917 46.202816 99.558205
-10.215364 46.375454 100.350815
-10.424876 46.42175 101.62677
-10.220893 46.388405 102.30948
-10.126052 45.921562 102.683365
-9.698107 46.841187 99.17072
-9.762836 47.058907 99.79952
-9.852466 47.21849 100.64792
-9.970591 47.14287 101.54307
-9.997088 46.880253 102.301735
-9.566306 53.815273 86.951515
-9.688534 53.71642 87.67171
-9.84676 53.72208 88.5036
-9.716058 53.742783 89.38039
-9.684764 54.534904 87.068436
-9.81108 54.353397 87.584435
-9.9345875 54.387547 88.48808
-9.85606 54.543007 89.17064
-9.591677 54.244747 89.973434
-9.682161 55.449333 87.10114
-9.775105 55.315903 87.42235
-9.794953 55.581993 88.46284
-9.719394 55.450073 89.49955
-9.724826 55.731064 90.1859
-9.529883 56.698257 89.767845
-9.704599 56.753475 90.59114
-9.713948 56.692337 91.409836
-9.99165 57.51404 90.67788
-10.107876 57.71584 91.612976
-10.021175 57.739334 92.209076
-9.721195 57.89819 93.05686
-9.843941 58.44158 90.01183
-10.099207 58.57862 90.51458
-10.217505 58.590195 91.639275
-10.079699 58.57029 92.35046
-9.736067 58.432995 93.15416
-9.806516 59.044636 90.04066
-10.060498 59.227695 90.760506
-10.116963 59.166084 91.53135
-9.929754 59.312424 92.320244
-9.793357 59.90375 91.51314
-9.68457 60.8203 99.026115
-9.882541 60.84499 99.63718
-9.951479 60.863052 100.458466
-9.9223 61.025673 101.010345
-9.8443985 61.355194 99.13715
-10.143277 61.654545 99.62948
-10.274577 61.686157 100.50195
-10.011995 61.67147 101.17674
-9.808309 62.26083 99.076645
-10.142559 62.33137 99.73879
-10.252539 62.428223 100.42819
-10.057035 62.303658 101.063736
-9.863702 62.948902 99.79604
-9.988183 62.946796 100.47233
-9.905842 62.88564 100.97063
-9.442556 42.95464 100.82216
-9.466166 42.76413 101.52571
-9.413973 42.855576 102.3865
-9.46261 42.9766 102.81986
-9.54662 43.661095 100.09217
-9.684791 43.695477 103.31337
-8.622428 45.04791 94.94364
-8.654095 44.93444 95.469536
-8.570601 44.983192 96.24237
-9.397943 44.892376 98.71371
-9.751144 44.17818 103.51306
-8.699421 45.763805 94.85964
-8.805379 45.551315 95.401764
-8.569123 45.3769 96.36185
-9.593941 45.62233 98.619026
-8.735783 45.835247 103.79832
-8.656113 46.123535 94.96023
-8.730709 46.21924 95.48777
-8.67559 45.939377 96.04917
-9.388586 46.169243 98.50179
-9.426461 46.34609 103.07542
-9.040621 47.377712 98.77456
-9.550428 47.512012 99.41884
-9.555277 47.541485 100.43102
-9.6726 47.363846 101.643105
-9.434676 47.075718 102.41169
-8.873738 48.116337 98.99615
-9.164082 48.103474 99.56939
-9.160771 48.21029 100.35676
-8.791718 48.257427 101.24142
-8.651013 52.4218 86.0118
-8.966093 52.892715 86.68098
-9.176859 52.981083 87.49688
-9.170727 52.724033 88.5356
-9.359609 53.040504 89.30747
-8.87717 52.855797 89.84846
-8.870238 53.626038 85.92464
-9.231837 53.45447 86.55987
-9.414781 53.398205 87.40491
-9.461376 53.41893 89.631065
-9.203834 53.679146 90.08328
-8.670452 54.32666 85.683014
-9.476934 54.417606 86.64499
-9.490774 55.036682 90.32849
-8.915039 55.136917 91.38309
-8.861975 55.201515 85.99919
-9.400055 55.590252 86.71748
-9.281343 55.69861 91.29225
-9.141847 55.98673 92.34277
-8.866824 56.264954 93.59334
-8.812988 56.254475 94.41839
-8.708984 55.792233 97.89315
-8.687586 55.655613 98.56088
-8.702875 55.77158 98.91906
-9.17275 56.277363 86.7791
-9.463951 56.32006 87.385315
-9.364865 56.606857 88.35897
-9.537169 56.612957 92.36888
-9.199468 56.580433 93.4391
-9.13769 56.85985 94.42109
-8.912132 56.737377 95.32006
-8.816557 56.8214 96.48451
-8.809422 56.354088 97.71816
-8.831565 56.38611 98.58036
-8.754313 56.3907 98.97425
-8.729869 57.238792 86.58027
-9.082633 57.19281 87.68873
-9.3894005 57.48851 93.46657
-9.354368 57.436356 94.28271
-9.114172 57.477318 95.22187
-8.944955 57.454773 96.469376
-8.88744 57.445145 97.44788
-8.76578 57.108368 98.38088
-8.666684 57.925274 86.82432
-8.761335 58.01062 87.280716
-9.061164 58.490326 88.67125
-9.51614 58.104935 93.71704
-8.995314 58.504467 94.24326
-8.919421 58.09637 95.81525
-8.867323 58.027817 96.23739
-8.782994 58.195763 97.58946
-9.120205 59.20182 88.53781
-9.396665 59.599407 89.58102
-9.369134 59.315594 93.27212
-8.960548 58.985935 93.84456
-8.651609 58.815685 96.69113
-8.622659 58.885956 97.86638
-9.26434 60.163334 100.44212
-8.976204 60.11121 88.71238
-9.163508 60.46608 89.63572
-9.535445 60.08105 90.23949
-9.238167 60.28297 92.39559
-9.066593 60.041077 92.988075
-9.5246935 60.958385 98.94646
-9.641133 60.40694 100.11563
-9.333773 60.744976 101.4804
-9.169108 60.979195 101.78531
-8.621484 61.24383 89.18125
-9.000761 61.00537 90.43868
-8.773403 61.16279 91.256165
-9.00661 60.738987 92.00895
-9.386283 61.54342 98.68998
-9.593336 61.35156 101.5516
-9.352201 61.57343 101.77032
-9.358392 62.431114 98.82284
-9.481935 62.144703 101.67446
-9.175313 63.057884 99.113594
-9.38644 63.20329 99.58024
-9.491435 63.398323 100.43724
-9.300761 63.170666 101.143234
-9.037362 63.641735 99.80223
-9.172086 63.62682 100.27355
-8.685868 42.8007 100.94012
-8.65835 42.7007 101.4602
-8.7202015 42.77574 102.24634
-8.9083 43.112312 102.86832
-7.818514 44.187256 94.90173
-8.090283 44.179363 95.556946
-8.169265 44.170937 96.44588
-7.7810388 43.88013 97.25462
-8.226497 44.230824 98.6665
-8.167689 43.6897 100.06006
-8.176236 45.139835 94.30198
-8.184267 44.854767 94.60851
-8.456371 44.63788 95.444214
-8.404675 44.52217 96.48343
-8.197967 44.334934 97.22685
-8.599562 44.546734 98.71769
-8.626015 44.360725 103.671684
-7.941419 45.3652 94.12999
-8.476893 45.568214 94.58295
-8.456013 45.510517 96.6529
-8.015032 45.955116 106.275406
-7.8186865 45.815132 107.25255
-7.635162 46.10845 107.912315
-8.021393 46.005062 94.22231
-8.402235 46.197056 94.679756
-8.016001 46.622528 106.41598
-7.802091 46.400963 107.51019
-7.6274548 46.46637 107.910355
-7.708026 47.731094 84.241425
-7.72161 48.063164 85.5111
-8.035634 46.984566 95.54828
-8.621685 47.48025 102.264206
-8.30368 46.971985 103.29841
-7.6931505 47.003826 103.93843
-7.7604413 47.35098 105.62626
-7.859838 47.10953 106.214714
-7.7374945 47.00129 107.31029
-7.55486 47.03008 108.04531
-7.8973722 48.763805 83.203606
-8.047089 48.712826 83.62866
-8.086175 48.526688 84.47915
-8.059186 48.680656 85.18123
-7.979033 48.700092 101.68942
-7.891868 48.37397 102.12631
-7.742504 49.114513 82.727715
-8.193444 49.565914 83.58946
-8.304468 49.615868 84.56527
-8.213497 49.145367 85.050476
-7.8081346 49.23159 98.80673
-8.104504 49.086647 99.71167
-8.423886 48.929012 100.15762
-7.962924 49.26422 101.237144
-7.733697 50.367958 82.91448
-8.339582 50.554558 83.95919
-8.351528 50.72551 84.38507
-8.252329 50.61437 85.26094
-7.9140415 50.61914 86.109146
-7.650203 49.838932 99.60184
-7.5323844 50.07295 103.243416
-7.6911125 50.85581 104.579155
-7.5490294 50.6003 105.36105
-7.950412 51.526592 83.65729
-8.264307 51.132652 85.19927
-8.095533 52.137135 86.86507
-7.971869 51.88982 87.30964
-8.374415 52.34474 89.201775
-7.8275213 51.56169 104.13737
-7.7968755 51.654816 104.7453
-7.704291 51.593567 105.186935
-7.799523 51.85021 83.6466
-8.742157 52.44714 89.26012
-8.433725 52.706932 90.013565
-7.640789 51.931007 104.11741
-7.668938 52.200714 104.74676
-7.6146407 52.03819 105.30174
-8.585905 53.51788 85.48558
-7.899398 53.29207 90.89395
-7.590312 53.8292 92.03389
-7.6859784 54.17458 98.22628
-8.065124 54.22811 85.22386
-8.243879 54.703 85.52105
-8.395123 54.77249 91.60071
-7.9872417 54.950073 97.45304
-8.073177 54.719975 98.47982
-8.116017 54.88029 99.14092
-8.568802 55.63088 92.70203
-8.260993 56.076275 95.33548
-8.171927 55.97103 96.54592
-8.296758 55.421272 97.42877
-8.377036 55.434086 99.33064
-8.064461 55.966198 99.96804
-7.643933 56.275005 104.39513
-7.7094474 57.165554 82.453316
-7.7131977 56.95498 83.746346
-7.611909 56.88386 85.087585
-7.9140763 56.75818 85.52221
-8.489365 56.31279 97.024216
-8.522673 56.41282 99.409065
-7.6519713 56.999725 103.08216
-7.8256383 56.69924 103.647026
-7.8069434 56.633774 104.431725
-7.745997 56.979584 104.911995
-7.8621936 57.871998 81.87938
-7.89919 57.64815 82.38407
-7.7606792 57.475372 83.71999
-8.568741 57.287514 86.29108
-8.551924 57.431564 98.77513
-7.8709354 57.15828 100.30214
-7.7825556 57.541843 102.96151
-7.920255 57.6971 103.34817
-7.9646597 57.373615 104.69327
-7.691759 57.463287 105.31247
-7.7082047 58.71165 80.85824
-7.953311 58.466835 81.66147
-8.160286 58.56079 82.45484
-8.079859 58.115593 83.58703
-7.754846 58.72911 84.11939
-7.865086 58.340374 85.89751
-8.164964 58.182507 86.36665
-8.303193 58.799015 98.51825
-7.9273176 59.124943 100.25619
-7.6665044 58.70655 101.61591
-7.669316 58.36662 102.38708
-7.9554334 58.316223 103.739815
-7.8981323 58.555992 104.45195
-7.906025 59.62699 81.071754
-8.152324 59.489414 81.630424
-8.302186 59.636402 82.35432
-8.154782 59.62124 83.405594
-8.479119 59.331875 94.300354
-8.34269 59.046803 95.11848
-8.0673895 59.249805 96.51129
-8.137151 59.418476 98.500534
-8.586727 59.936676 100.84521
-7.589346 59.247856 102.30882
-7.752628 58.945675 103.885666
-7.712801 59.010796 104.32427
-7.665216 59.99108 113.88304
-7.849751 60.314636 81.15063
-8.054571 60.278458 81.6851
-8.188979 60.47049 82.55943
-8.052522 60.43744 83.27758
[...]
POINT_DATA 6789
SCALARS features_00 float 1
LOOKUP_TABLE default
0.7677348 0.78978723 0.7785773 0.68016404 0.7218077 0.7377851 0.7243299 0.56992847 0.59369385 0.59806657 0.51280665 0.50732654 0.7275466 0.7690443 0.7306256 0.7011571 0.6081613 0.7136649 0.7628251 0.7156505 0.43852547 0.48488784 0.6862414 0.4567237 0.46992916 0.5111071 0.62481135 0.5649059 0.41669393 0.45061103 0.4641264 0.5033263 0.4812982 0.5008702 0.4123161 0.40951866 0.41587263 0.42863294 0.42922446 0.39362288 0.4247112 0.46686035 0.41286168 0.39682117 0.4199334 0.4471959 0.4008268 0.3257072 0.34980607 0.37442386 0.36446366 0.2969222 0.22332415 0.20904943 0.2356412 0.25150535 0.32077077 0.3653786 0.35622078 0.3485598 0.31177732 0.3788877 0.43342593 0.41538233 0.37577707 0.33237827 0.40922704 0.4551053 0.43712312 0.42857802 0.65766954 0.7459952 0.7608471 0.7329768 0.73097783 0.81063473 0.8628695 0.8008778 0.7493427 0.820349 0.86317325 0.8551756 0.7546029 0.799214 0.8170774 0.64616215 0.6852402 0.64269847 0.624958 0.5372859 0.6453732 0.58671343 0.56634736 0.51421905 0.34262055 0.65215766 0.5999941 0.5889733 0.5121107 0.38580507 0.37348196 0.58642304 0.5740459 0.55154574 0.36567983 0.3824551 0.34738034 0.37611574 0.37344456 0.38394368 0.35322237 0.28252128 0.31026548 0.2936458 0.24438417 0.26345605 0.3581518 0.3795641 0.41596723 0.39519545 0.2930275 0.34577498 0.3770948 0.3984388 0.37498027 0.29931828 0.30485222 0.3817568 0.24219319 0.12881827 0.27722692 0.30871552 0.1714245 0.18257159 0.2105873 0.20163792 0.371845 0.38878095 0.38088498 0.21573326 0.24479333 0.2257561 0.25053465 0.23429263 0.22908084 0.21131516 0.24918477 0.35382476 0.37381813 0.36446995 0.1115593 0.12944251 0.29910392 0.25900635 0.23351547 0.24046862 0.26152295 0.31611407 0.068794355 0.05927705 0.13371257 0.33060434 0.27312046 0.23330249 0.24059704 0.21260777 0.1780657 0.29634714 0.34616804 0.28488827 0.25207222 0.16080076 0.58238864 0.27303535 0.3133436 0.34923324 0.34053522 0.30444524 0.6461636 0.6809925 0.6375226 0.63246775 0.29426372 0.29957113 0.2680332 0.3027838 0.6479692 0.7039763 0.6772109 0.69266117 0.7415405 0.6587884 0.6854282 0.7119364 0.7419491 0.633158 0.66000473 0.5118617 0.5195432 0.5028165 0.51271904 0.5019927 0.49404213 0.40676543 0.18931192 0.11752154 0.26488286 0.5949088 0.58008367 0.5489099 0.4424259 0.22900423 0.21422347 0.45900476 0.5864779 0.6050846 0.45759213 0.54775655 0.64813685 0.7045063 0.57828563 0.5794605 0.45297432 0.636127 0.6908408 0.29480392 0.23169564 0.43643385 0.23994072 0.1687585 -0.06839084 0.13319862 0.33802468 0.552775 0.67691994 0.32398492 0.36858252 0.34769976 0.30704015 0.09422891 0.07479822 0.255716 0.38665807 0.39389715 0.3466903 0.05912412 0.14062646 0.17947114 0.04674829 0.31711063 0.39637777 0.38021225 0.3104618 0.15585388 0.017640732 0.1889106 0.43473464 0.45783985 0.31684113 0.24762604 0.21116775 0.15805551 0.26579934 0.46214342 0.52256995 0.54530764 0.24323703 0.3102095 0.23867807 0.48309812 0.5565663 0.5721278 0.28135324 0.11944557 0.07302821 0.3387975 0.16856414 0.20255668 0.07207409 0.32557786 0.3740531 0.35518432 0.124374196 0.13901553 0.23461065 0.33486232 0.3518719 0.26070154 0.3743025 0.17856422 0.06592025 -0.056464866 0.017676458 0.30474317 0.332771 0.3311244 0.39103144 0.40770686 0.41088122 0.27153265 0.24195221 0.15269186 0.10519825 0.28771728 0.12455337 0.31507134 0.38107163 0.4591956 0.4242475 0.3805231 0.35865527 0.4055559 0.31039637 0.3898403 0.041634895 0.07180478 0.1436382 -0.06805714 -0.051146775 0.17096157 0.36859694 0.39317602 0.5470159 0.55630666 0.63581777 0.6189395 0.16922837 0.15713668 0.21125892 0.06499851 0.3845588 0.07435117 0.26161355 0.27317333 0.57335204 0.62564105 0.65527487 0.6690512 0.63535637 0.3032831 0.21436277 0.4506131 0.5011358 0.4561767 0.6607665 0.7667521 0.83016765 0.6456072 0.6330912 0.616529 0.3189518 0.30082914 0.28692275 0.26002413 0.22989166 0.22412807 0.19842002 0.52358097 0.53878164 0.33619258 0.5913674 0.74902666 0.8503636 0.89764905 0.30016023 0.2524734 0.24105993 0.1886034 0.16312179 0.5514831 0.3784937 0.38851157 0.76461923 0.8678762 0.9119413 0.5546604 0.6560793 0.5548456 0.43183154 0.44606736 0.79168487 0.8589389 0.5426614 0.5346954 0.6099124 0.5552724 0.52872187 0.17236447 0.1781452 0.20001112 0.44623536 0.43800133 0.38209638 0.28589338 0.024715684 0.19424354 0.16943623 0.5237781 0.20864332 0.16505525 0.47513145 0.50330985 0.31691685 0.547175 0.6295003 0.6985914 0.29985327 0.3145431 0.15994325 0.22280139 0.24850011 0.20965174 0.6893461 0.7540078 0.81582123 0.29194126 0.35701358 0.17652202 0.14895734 0.17505728 0.5103367 0.75980455 0.83184445 0.21239695 0.16325691 0.3078463 0.27512065 0.20258531 0.1617069 0.028409354 0.15822703 0.5777932 0.7390968 0.8445369 0.22125629 0.16190743 -0.016086265 0.0536804 0.09008738 0.06279623 0.22555168 0.41097882 0.7526878 0.18283933 0.27261615 0.05587097 0.13887389 0.15660712 0.16670644 0.18907477 0.03773443 0.27167898 0.2517845 0.2508436 0.11759607 0.25658536 -0.03749156 0.20860766 0.2086381 0.2113576 -0.039448723 -0.13363175 -0.08371195 0.32875443 0.36308065 0.389066 0.47652912 0.12239044 0.08686906 0.046439063 0.22640754 0.23681323 0.19267629 0.08400643 -0.038638443 -0.09992153 -0.16817173 0.019349454 0.544146 0.55946505 0.09626144 0.02971822 0.075660385 -0.03312106 -0.17767127 0.12476106 0.41189536 0.54502285 0.5799761 0.5903857 0.016712502 -0.059558854 -0.04593353 0.16165516 0.28003067 0.3090753 0.047897704 -0.060574796 -0.16175564 0.5574471 0.58496636 -0.0035302043 -0.24921376 -0.1094204 0.17047009 0.24923402 -0.097446054 -0.10461444 0.51852626 0.43152967 0.30619705 -0.05580132 -0.09210914 -0.17045465 0.019081222 0.09376766 0.023425952 0.28820887 0.36012313 0.33140346 0.5267376 0.49430326 0.31136996 0.1779764 0.15156734 0.08928268 0.16619682 -0.043682523 0.2635377 0.35920197 0.2146514 0.52241516 0.43773204 0.30731004 0.24146084 0.2544965 0.32372004 0.27172962 0.30104354 0.36540982 0.13219765 0.35076335 0.42944577 0.52817315 0.43566504 0.4808778 0.510877 0.060998954 0.077227496 0.14194457 0.17387007 0.20592134 0.1547066 0.12183525 0.08442032 0.21028437 0.4077745 0.5047258 0.61638784 0.6868844 0.53113997 0.60084105 0.589692 0.04187338 -0.08174576 -0.03415293 0.2052134 0.13786303 0.08434592 0.11652371 0.38486287 0.82901585 0.8569008 0.6050979 0.6058225 0.5784718 0.5446005 0.534909 0.121402256 0.39863926 0.4167949 0.09582042 0.24752662 0.28175208 0.19198729 0.17710605 0.4124309 0.8973532 0.8940141 0.5326276 0.3248507 0.27694932 0.14416529 0.093668565 0.03188426 0.18840738 0.3077883 0.40174347 0.43507165 0.6616956 0.73991805 0.927526 0.92295814 0.25570577 0.24200232 0.06002008 0.4112817 0.3451418 0.3554815 0.39617836 0.5045601 0.5249581 0.6119475 0.7932929 0.8753516 0.9195608 0.4400562 0.42277193 0.47114158 0.47676057 0.52281857 0.41676152 0.52552426 0.5607742 0.5708246 0.57450444 0.5995724 0.624177 0.50981265 0.3541574 0.45944238 0.5584752 0.5844171 0.5872486 0.57730603 0.6958318 0.69613403 0.6169525 0.59599555 0.5935289 0.4819081 0.45587972 0.24973917 0.27930182 0.2732973 0.18262057 0.33129716 0.35952818 0.47397447 0.48806727 0.48461276 0.43326753 0.3111081 0.17179978 0.22188762 0.2522336 0.13772625 0.056141697 0.20846036 0.27395535 0.3508826 0.31379572 0.46329275 0.4747575 0.4771827 0.46863264 0.39471424 0.19926181 0.120929964 0.30369037 0.3262731 0.33278972 0.19795777 0.20172966 0.2845079 0.5420016 0.41740507 0.44066766 0.44812536 0.35902563 0.20606345 0.13750456 0.10825554 0.20072185 0.30769703 0.3391487 0.3386926 0.27543655 0.60943145 0.6932533 0.3335678 0.3397429 0.31211478 0.17588496 0.3130995 0.27310967 0.17552601 0.18352775 0.24126859 0.7738428 0.8340831 0.16476183 0.18527691 0.079200804 0.11601634 0.14216122 0.1802696 0.8950901 0.105925575 0.18219706 -0.0024875961 0.030639865 0.073073335 0.109633304 0.16071391 0.12946889 0.9101062 0.14153738 0.094437525 -0.04823391 0.035478093 0.061472107 0.046745926 0.022178216 0.8096943 0.49164844 0.47780222 -0.005564034 -0.08783541 -0.19766073 -0.07564776 0.022302426 0.11552718 0.3364736 0.094399035 -0.24375115 -0.15391539 0.06944794 0.48765552 0.43937394 0.10082373 0.19983903 -0.15212537 0.45126688 0.09166598 0.08798443 0.17459913 0.08338185 0.56450236 0.11850377 0.08946111 -0.11191249 -0.3861568 -0.18277492 0.49088016 0.5792338 0.48714405 0.36598644 0.2148467 0.08503407 -0.098943196 -0.49796093 -0.17273034 0.038964055 0.026105672 0.13048139 0.5305542 0.46226275 0.21649082 0.048100885 0.5745306 0.56742543 0.12635377 0.019720338 0.56216323 0.544173 -0.021044005 -0.104532614 0.26252776 0.31630662 0.42230293 0.47418877 0.4261135 0.047956675 0.05179923 0.20384532 0.42835552 0.51697737 0.3906883 0.47204047 0.0533681 -0.124275416 -0.09102549 0.041181184 0.80507815 0.48223013 0.49731445 0.5145359 0.46332705 0.375456 0.27903768 0.03943178 -0.44625843 -0.27328074 -0.19688879 -0.05809697 0.8712493 0.48903883 0.50104207 0.37189692 0.31056085 -0.10280979 0.4215787 0.15907955 -0.28599146 0.00019565597 0.14402466 0.90785915 0.2822896 0.21819696 -0.025764167 -0.012104033 0.15227671 0.3373323 0.21435697 -0.14031282 0.18126774 0.498567 0.8053024 0.89228386 0.92739093 0.3010278 0.22096077 0.049906835 0.08960627 0.22036834 0.14105591 0.16520078 0.12103941 0.32443213 0.35835817 0.5576329 0.49204862 0.61774683 0.5428745 0.40414786 0.29603904 0.25166547 0.2527617 0.3512942 0.43075967 0.46739978 0.54123765 0.58235955 0.5558787 0.6948179 0.7316645 0.722092 0.6152961 0.51948744 0.40556365 0.29613036 0.45630553 0.49893963 0.57470584 0.5971514 0.58636063 0.7888345 0.73844075 0.65654856 0.56680405 0.43912792 0.7110907 0.6652106 0.30120337 0.3012706 0.28073508 0.47275764 0.45588052 0.43037823 0.24513753 0.2893799 0.29512262 0.27872455 0.22312847 0.27021983 0.3489337 0.42098397 0.4638062 0.45689803 0.45736253 0.4802504 0.28422832 0.2375892 0.24832623 0.11286698 0.117206655 0.18652672 0.41973272 0.41586995 0.42461485 0.45613217 0.090757154 0.101608925 0.14083406 0.25764412 0.28870422 0.30595675 0.33753347 0.32537854 0.16935715 0.37687406 0.49206463 0.3391199 0.41401702 0.10444306 0.31476808 0.3392866 0.29933637 0.22023052 0.52607185 0.6195113 0.29427445 0.24196506 0.69166046 0.80543697 0.108824454 0.10788506 0.89683956 0.20834973 0.18579078 0.13613605 -0.08126769 0.93726885 0.28882092 0.34646922 0.36066395 0.33572385 0.061201878 0.7914024 0.35692513 0.47424373 0.47440782 0.4582335 0.38751882 0.49611533 0.51718813 0.5199702 0.43668532 0.4940666 0.3369614 0.4365561 0.13561727 -0.5086931 -0.14992264 0.47522795 -0.5241972 -0.0072120354 -0.07159109 -0.07146884 -0.09888641 0.53049415 0.5014415 -0.014980812 -0.060024753 -0.122742325 0.56281066 -0.1635092 -0.018468618 0.24719219 0.3324168 0.45845506 -0.16303068 -0.08255395 -0.013254676 0.40810663 0.46129072 0.40663368 0.39214393 0.2786015 0.49036428 0.48223507 0.23126516 0.18865111 0.480717 -0.11347092 -0.1526093 0.48182482 0.6989699 0.31686556 0.35955054 -0.031170908 0.25438914 -0.44322067 0.7672988 0.3651048 0.3601106 0.31427094 0.26559746 -0.057398703 -0.41818723 -0.1252267 0.73256993 0.8129463 0.23476136 0.16534185 0.12140611 -0.29709226 0.79492235 0.85115814 0.8287837 0.23644765 -0.16825637 -0.17213008 -0.030297644 0.1351484 0.112395525 0.48304012 0.49572474 0.23123854 0.13749374 -0.093829885 -0.012053645 0.07379611 0.23003174 0.21545959 0.11255969 0.32385075 0.50825465 0.7135052 0.35385486 0.29172438 0.19003129 0.26325235 0.17902134 0.4286661 0.48176467 0.5347805 0.56485486 0.5379627 0.5395374 0.7726752 0.7896169 0.7501502 0.59877276 0.53097105 0.43162698 0.759923 0.71528685 0.66239023 0.56702256 0.527162 0.5515467 0.6136029 0.5956197 0.7070993 0.37889194 0.36475357 0.4032399 0.29086608 0.30200964 0.33000034 0.2830611 0.2812541 0.4285217 0.4390629 0.43318912 0.35913262 0.25170368 0.29509306 0.29888794 0.32478815 0.3614631 0.35037613 0.14128497 0.25720394 0.28454643 0.39034516 0.4678408 0.4858234 0.4115749 0.27494958 0.2799216 0.2682851 0.22933185 0.13586798 0.110028416 0.12647583 0.48436493 0.46802706 0.38627863 0.17461576 0.027838811 0.26503566 0.31469032 0.31621912 0.19471653 0.40055683 0.3657925 0.16726458 -0.10413346 0.3408 0.41021073 0.15734455 0.15178931 0.4879614 0.64948285 0.257941 0.09295352 0.66638714 0.82817364 0.28953773 0.77940214 0.33001158 0.541407 0.3488239 0.3605048 0.36492515 0.3148391 0.3778637 0.4110647 0.32472038 0.7660358 0.80652374 0.3770201 0.32769048 0.4552156 0.07316385 0.27763107 0.23905966 0.30471542 0.5623003 0.65194654 0.71332496 0.0374448 0.21255998 0.33491987 0.1285049 -0.09628628 0.11920135 0.24348265 -0.08868392 0.16637336 0.2971669 -0.12393339 -0.1302066 -0.022276878 0.31833455 0.43079346 0.057403848 0.32912737 0.31783575 0.3495462 0.36352044 0.23561704 0.26933187 0.31733653 0.33559757 0.15785265 0.14126822 0.36890674 0.10618088 0.05458059 -0.106347546 -0.13872518 0.39903897 0.03322908 0.113803424 0.079056494 -0.15185437 0.52276236 0.17286721 0.29589194 0.30126396 0.22532694 0.6565149 0.33361655 0.18041587 0.65179974 0.2288704 0.49122724 -0.030222058 -0.07753866 0.028592106 0.19098365 0.67418563 0.09386975 0.0541412 -0.13709816 -0.09063073 0.12579693 0.21672282 0.26844782 0.23191535 0.14813001 0.2636261 0.311214 0.38839096 0.4552847 0.39950064 0.4163591 0.7167781 0.733412 0.46079215 0.4287642 0.27891675 0.3349847 0.14655925 0.17898701 0.25466317 0.71568614 0.6531254 0.61490524 0.49409223 0.51861274 0.51321745 0.5021431 0.6733229 0.5601843 0.6044757 0.5844772 0.7109167 0.74890625 0.742146 0.6793997 0.6297103 0.67842835 0.7330026 0.7415473 0.7221668 0.70929825 0.71902966 0.3064203 0.32449222 0.34928927 0.41436416 0.4355306 0.49853167 0.28571665 0.41000408 0.4375153 0.39925447 0.40461043 0.28720748 0.29612696 0.40448222 0.4361008 0.55984205 0.30479962 0.2066688 0.17236489 0.12956393 0.2643025 0.33431658 0.4376452 0.48343974 0.4911887 0.24817741 0.44344592 0.49297392 0.3059794 0.26829046 0.22870016 0.16302586 0.47116196 0.4434094 0.22454576 0.22277975 0.22626129 0.27463806 0.38199416 0.34225893 0.21627337 -0.02904047 0.009660214 0.14016566 0.30553234 0.22189823 0.27543995 0.3550309 0.2583096 0.27624038 0.37088612 0.36004466 0.3456046 0.32038963 0.38966924 0.39067996 0.37358406 0.39141944 0.36148292 0.84777296 0.85516095 0.89059865 0.3510117 0.30191195 0.20733382 -0.33908933 0.57404035 0.6799528 0.8522396 0.8619716 0.3176017 -0.14957586 0.788344 0.7874611 -0.18794861 0.60928273 0.6569611 -0.16543034 0.19635178 -0.06719578 -0.16734122 0.10326564 0.19559063 0.37408218 0.34973997 0.28226605 0.25194433 0.2363915 0.42459106 0.39464924 0.22555006 0.39227396 0.21953413 0.12761645 0.12904628 0.2969975 0.31771943 0.11828408 0.11165495 0.081867546 0.2954831 0.42590463 0.12346359 0.029901864 -0.13991795 0.18779567 0.2753781 0.2790767 0.2213727 0.15758358 0.0005140845 0.49134755 0.29591116 0.3291573 0.30430594 0.2719632 0.08670993 -0.23190641 0.0437438 0.4339622 0.12045642 0.49931142 -0.23028731 -0.1276335 0.029460162 0.077110864 0.022118848 0.20927155 0.21561453 0.26690724 0.6211002 0.48600167 0.52550566 0.37776193 -0.095307305 0.313132 0.085565336 0.14704974 0.15901731 0.21353912 0.16351153 0.65025985 0.48054886 0.43261462 0.13321438 0.21965288 0.41761887 0.4449384 0.6017256 0.65392476 0.54820603 0.6058812 0.6696348 0.69596153 0.6711606 0.62537277 0.63513875 0.6653638 0.61001205 0.6294919 0.20103922 0.30863437 0.36875382 0.3923564 0.40884942 0.45260906 0.50069773 0.59236073 0.6041637 0.30049896 0.5275428 0.57125676 0.5969804 0.14899857 0.14266926 0.20567441 0.59574205 0.57267964 0.35884133 0.32996535 0.2981562 0.22659501 0.20822188 0.21821895 0.19812828 0.1896266 0.5467948 0.3579323 0.3243571 0.3244106 0.42988008 0.2255202 0.36250398 0.28152388 0.33216017 0.38956928 0.34814256 0.20963001 0.21230647 -0.05721409 -0.0001938194 0.21037877 0.2567289 0.3066931 0.18984884 0.12876654 0.20517124 0.2504809 0.28880775 0.26438183 0.0933023 0.15796648 0.19822298 0.22577202 0.35314757 0.23723353 0.40060198 0.27772376 0.41407076 0.16544324 0.80643225 0.87423706 0.91916776 0.9114699 0.38223928 0.34769 0.3161825 0.29407874 0.34114486 0.8722092 0.16634169 0.008304387 0.7505077 -0.21042469 0.42917216 -0.203697 0.14788097 0.12503563 0.032695487 0.004106581 0.28995076 0.23360094 0.27066174 0.12338911 0.36965477 0.10308387 0.44164288 0.100644164 0.43772364 0.40648353 0.36822033 0.12860383 0.095059425 0.09558344 0.08131121 -0.1760307 0.21996015 0.116890766 -0.097470954 0.28483272 0.32496524 0.31564572 0.27067608 0.044844348 0.22730097 0.024156678 0.14903983 0.16381164 0.34009793 -0.06033229 -0.054923132 -0.0940594 0.014054194 0.102003455 0.23441182 0.30036566 0.43676573 0.19342285 0.15027292 0.01234813 0.12858446 0.28148586 0.34110504 0.27623767 -0.032740396 0.1576422 0.24185367 0.29819468 0.40202612 0.4482861 0.21821164 0.2548226 0.43733424 0.4951416 0.4897299 0.5090191 0.4879032 0.5643311 0.65639746 0.6633566 0.37773263 0.4230892 0.43739945 0.42110902 0.44274235 0.5098693 0.5833868 0.5898964 0.5570084 0.6412057 0.67087114 0.64600646 0.33873922 0.17278805 0.14877528 0.3401332 0.56919014 0.55320394 0.39337885 0.38950157 0.37180144 0.34310508 0.2057278 0.1603573 0.58587915 0.20810369 0.49388456 0.40353268 0.40570745 0.29321548 0.19697236 0.23435748 0.27810627 0.36268124 0.36971086 0.099225365 0.19880937 0.23328276 -0.19363505 -0.14235616 0.40275663 0.34004623 0.23491459 -0.23049448 0.420866 0.3481953 -0.47484618 -0.07171883 0.40766144 -0.32189178 0.057353236 0.16178034 0.40936714 -0.25995225 0.7122993 0.8348515 0.86668324 0.89083517 0.33684254 0.310174 0.026825525 -0.00062924623 -0.29466262 -0.18772973 0.3017928 0.8412334 -0.16704294 0.7247492 0.42181367 0.45019978 0.46147025 -0.297071 0.36279613 0.39030844 0.49960655 0.5149099 0.4857845 0.4154429 -0.30118018 0.11909663 0.12316141 0.49773395 0.47065568 0.3771865 0.055797733 -0.009018429 -0.36739844 0.02572383 0.47592634 0.4150601 -0.03169222 0.018684365 0.41542393 0.43007976 0.023943797 0.43787092 0.028815772 0.18294685 0.3103879 0.14743751 0.42359596 0.6209109 0.065089226 0.74559855 0.07253836 0.082088344 -0.09446194 0.20175757 0.581104 0.10613088 0.1999873 -0.23573643 -0.24030216 -0.30470175 0.24166399 0.29156816 0.29488283 0.26345322 0.18508974 0.10802209 -0.0581396 0.34992963 0.35569096 0.20373158 0.15807426 0.38938224 0.29942298 0.31370258 0.18836653 0.038297374 -0.24814741 -0.2946982 -0.38328192 -0.1939083 0.2540777 0.40539145 0.42438543 -0.13527304 0.1360606 0.28282845 0.4441057 0.46658322 0.075082086 0.44210607 0.47730994 0.28339744 0.28449205 0.224745 0.30020025 0.038709257 0.14073212 0.2764908 0.24902157 0.39516675 0.07133219 0.07284496 0.40650403 0.38121715 0.36871177 0.6250518 0.5043314 0.45980763 0.46050397 0.444585 0.44412923 0.38597155 0.3135286 0.39566585 0.6670643 0.6704232 0.38586777 0.4603619 0.099053055 0.37754786 0.2924989 0.31275994 0.45473644 0.4767897 0.41370934 0.41983682 0.43327034 0.41069484 0.36084396 0.2890001 0.6308305 0.6077664 0.54800797 0.33787215 0.33512858 0.37453997 0.4062966 0.4100001 0.3173511 0.1785158 0.21674371 0.31819952 0.34148565 -0.017133486 0.2577121 0.26052427 -0.016372986 0.32178676 -0.342016 0.49111187 0.4647053 -0.20824835 -0.19921061 0.50740826 0.47817546 -0.38311613 0.5401838 0.46096486 0.5361404 0.4888392 -0.31718916 0.2785694 0.7401308 0.7502574 0.8048073 0.43782252 0.34650847 0.00071481615 -0.18842655 0.61135757 0.701203 0.7566947 0.7658651 0.37841776 0.26955062 -0.19571559 0.63783324 0.32281074 -0.40069216 0.45409203 0.39505377 0.43720236 0.2160078 0.1023823 0.20679066 0.4691499 0.48552397 0.082335725 -0.08833009 0.0008135438 -0.011078864 0.46384698 0.47767892 -0.11316166 0.3822747 -0.037681285 -0.0041671693 0.019776188 0.6750288 0.6189839 0.16371706 0.45549893 0.6969457 0.69076777 0.66395605 0.5875562 0.27712926 0.1166915 0.6358042 0.67630875 0.7113408 0.7062332 0.6716368 0.61440563 0.5816325 0.014755497 -0.019527454 0.8284286 0.8262917 0.70460635 0.6828364 0.6352684 0.020195063 -0.030198932 0.8730608 0.9428382 0.050769668 0.16969939 -0.06979619 0.14607777 0.36855385 0.549654 0.7594292 0.23630978 0.25517812 0.26442793 0.24032578 0.21720181 0.3863604 0.21653497 0.22549424 0.3780816 0.30527097 0.3360076 0.14998949 -0.07775408 -0.19646335 -0.3564418 -0.040773034 0.45554003 0.38