# vtk DataFile Version 2.0
Really cool data
ASCII
DATASET POLYDATA
POINTS 3761 float
-10.575063 26.942299 23.538664
-10.603268 26.996622 24.151234
-10.550532 27.296637 23.17583
-10.702203 27.550547 23.601883
-10.812505 27.640768 24.484709
-10.721016 27.70494 25.425537
-10.59673 27.746536 26.044044
-10.71895 28.389631 23.618952
-10.9095125 28.55776 24.438828
-10.894302 28.556677 25.408466
-10.6784935 28.67467 26.192
-10.712784 29.326 23.991024
-10.806049 29.327631 24.59638
-10.773113 29.4579 25.347378
-10.695714 29.039509 25.966162
-10.622425 29.9749 24.848743
-10.674115 29.879286 25.322607
-9.907201 26.199495 23.172298
-10.031719 26.23609 23.514889
-10.173828 26.759182 22.934006
-10.3786545 26.584732 23.585777
-10.361738 26.709866 24.390768
-10.299056 27.098766 25.507187
-9.7246065 27.127857 26.439445
-9.608016 26.973011 28.590445
-9.596137 26.85352 29.269102
-9.81077 27.73601 22.280224
-10.313156 27.547417 22.759882
-10.553222 27.618462 25.83413
-10.34224 27.566525 26.229143
-9.713344 27.257208 27.925158
-9.9417 27.926264 28.312744
-9.680306 27.498962 29.437979
-9.588544 27.696903 29.917934
-9.769499 28.193052 22.095938
-10.215612 28.431173 22.72308
-10.1236925 28.57339 27.436703
-10.011485 28.744162 28.602448
-9.813352 28.238224 29.267021
-9.5815325 28.324959 30.134956
-9.943359 29.201487 22.708395
-10.378235 29.415863 23.512566
-10.497654 29.522589 26.23347
-10.334507 29.427284 27.058332
-9.990173 29.506943 28.35528
-9.755662 29.356777 28.949114
-10.157223 30.131708 23.911194
-10.30332 30.254011 24.44813
-10.294525 30.380545 25.468164
-10.224729 29.959795 26.548473
-9.712957 30.57751 27.411606
-9.786829 30.283455 28.03819
-9.747251 30.87947 24.21211
-10.0409 30.725092 25.450705
-8.53048 15.856927 15.823388
-8.526445 16.402302 15.589388
-8.525438 16.118975 16.09731
-8.77165 24.928986 27.961084
-8.870584 24.77056 28.69262
-8.783218 24.775684 29.300062
-9.719078 26.282759 22.938251
-9.6236925 26.064737 23.543396
-9.569169 26.097916 24.08811
-9.28501 25.84149 28.469069
-9.021427 25.418703 29.41035
-8.959407 25.645151 29.752825
-9.32954 26.930239 22.32495
-9.30154 26.697811 22.5303
-9.567972 26.678541 25.227407
-9.429534 26.236692 28.79338
-9.412882 26.587355 29.585602
-9.086729 26.752476 30.191368
-9.521599 27.77953 22.105846
-9.2339 27.574455 30.42871
-8.920906 28.004944 30.965927
-9.275852 28.516447 21.948547
-9.407313 28.56092 30.399075
-9.0204735 28.763525 31.049547
-9.129222 29.332212 22.149979
-9.468862 29.540323 22.491358
-9.490444 29.234734 29.52186
-9.290569 29.512419 30.478373
-8.951474 29.301641 31.113462
-9.188451 29.823687 22.532185
-9.319369 30.485912 23.44846
-9.028501 30.341763 29.665775
-9.040621 29.847713 30.620071
-8.852374 29.883913 30.888577
-9.146618 31.033278 23.75974
-9.36324 31.37808 24.677746
-9.408987 31.408699 25.53747
-9.451046 31.199614 25.881691
-9.221112 30.997149 27.043463
-7.874601 14.320686 15.747089
-7.7576275 14.233602 16.350777
-7.9865904 15.02453 14.994496
-8.138594 14.763254 15.553979
-8.158542 14.752192 16.312155
-7.892129 14.753318 17.178768
-7.6208987 14.777069 17.951853
-8.22796 15.6174965 15.003589
-8.375107 15.381709 15.554906
-8.376652 15.571537 16.449894
-8.139864 15.494987 17.037136
-7.6890097 15.173614 18.134306
-8.205565 16.573324 14.713615
-8.427104 16.415026 15.598897
-8.380804 16.441174 16.375563
-7.966091 16.472153 17.377333
-7.635107 16.452332 18.004898
-7.756869 17.263887 14.252762
-8.048099 17.390856 14.699121
-8.227011 17.31293 15.572508
-8.092588 17.263704 16.360203
-7.8244376 17.211426 17.138254
-7.8137965 18.00243 14.816172
-7.952927 17.833536 15.519578
-7.738024 17.871353 16.121906
-7.9942904 24.120806 27.83256
-8.287711 24.114067 28.669294
-8.15482 24.03399 29.19187
-7.797835 23.99138 29.83013
-8.464947 24.659687 27.709173
-8.605594 24.400116 28.83362
-8.580214 24.59591 29.448084
-8.420311 24.79448 29.907694
-9.084662 26.27578 22.89736
-8.872326 26.142609 23.422052
-8.812083 26.300451 24.856028
-7.9799623 25.759613 26.670055
-8.500581 25.588785 30.16651
-7.8794775 25.8474 30.691492
-8.863133 27.2161 22.18254
-8.827505 26.704504 22.578472
-8.5914135 26.61683 30.591558
-8.160535 26.602314 30.783472
-8.786096 27.801704 21.967056
-7.955785 27.721457 31.561232
-7.9707937 27.99007 31.648046
-8.488563 28.683596 21.731415
-8.458498 28.692019 31.53641
-8.285388 28.645367 31.650145
-8.399326 29.489943 22.002422
-8.566339 29.332527 31.42801
-8.253877 29.210417 31.649672
-8.526838 29.790934 22.244566
-8.297786 30.09156 22.40999
-8.679907 30.250149 30.659748
-8.305032 30.102867 31.121706
-8.273596 31.608463 23.714926
-8.56265 31.458788 26.965158
-8.447964 30.652824 30.32083
-8.442207 31.886234 24.037163
-8.29258 32.369953 24.626434
-8.506512 31.94118 26.286022
-8.273565 31.978928 27.067583
-8.05758 32.076923 28.503838
-8.215011 32.793514 25.264545
-8.101452 33.602604 26.648584
-7.9281597 33.6712 27.789036
-8.113203 32.976547 28.092031
-7.7130146 34.589325 25.791708
-7.9276385 34.778473 26.396599
-8.074674 34.537846 27.975885
-8.032974 34.765945 28.61891
-7.927341 34.53737 29.111504
-7.82242 35.77283 25.79299
-7.9163465 35.17452 26.35149
-7.8768625 35.568974 27.906149
-7.9194098 35.41861 28.833353
-7.8106194 35.1635 29.198744
-7.859179 36.263344 25.831108
-7.902895 36.574356 26.339228
-7.857554 36.668365 27.216913
-7.7672668 36.211067 28.264631
-7.713471 36.9659 25.964336
-7.7592983 36.978397 26.487698
-7.6990795 36.94014 27.22199
-7.6190886 37.009995 28.23696
-6.720275 10.973176 25.77831
-6.689106 10.918295 26.396606
-6.61137 11.574135 25.134445
-6.7925644 11.497912 25.619463
-6.81637 11.428429 26.337519
-6.648514 11.493906 26.860466
-6.7066565 12.1406 25.694365
-6.7240076 12.080878 26.342348
-6.6042843 11.980789 26.80436
-7.5304036 14.354972 15.05595
-7.5148153 14.098311 15.784807
-7.681232 14.121216 16.332598
-7.3496737 14.10923 17.364021
-7.0386357 14.031727 18.338942
-6.8109045 14.085596 19.40267
-6.719396 13.809896 20.170486
-6.5281105 14.970822 7.5376077
-7.4979906 14.697638 14.843717
-7.437595 14.79316 18.447613
-7.280041 14.713465 19.201893
-6.8312225 14.437797 20.708744
-6.598652 14.729119 21.315
-6.5771303 15.556694 7.5126595
-6.52048 15.561956 8.037013
-7.6797447 15.601016 14.473522
-7.160301 15.555898 19.244099
-6.8754153 15.164566 20.40482
-6.6928983 15.119442 20.916965
-7.4152474 16.519083 14.0518465
-7.452349 16.200806 18.478052
-7.099026 16.218954 19.172691
-6.8931794 17.201685 13.67607
-7.504876 17.423012 17.539164
-7.1531296 17.30133 18.203321
-6.919903 18.923634 8.69652
-6.746089 19.039824 9.987498
-7.345202 18.145727 15.337513
-7.0637646 18.179863 16.557625
-7.146224 17.984102 17.110468
-7.1264453 17.784758 17.887754
-6.8059597 19.295412 7.9194455
-7.0694594 19.334743 8.585598
-7.139697 19.4364 9.007514
-7.005542 19.539911 10.436517
-6.901598 19.633265 11.479571
-6.744155 19.425493 12.493596
-6.710796 19.589455 13.272424
-6.8263288 20.864632 6.751839
-6.9758534 20.58521 7.336457
-7.159006 20.495779 8.291722
-7.155079 20.698965 9.185511
-7.2704687 20.514412 10.826318
-7.1631284 20.615892 11.540224
-6.9161406 20.867386 12.863578
-6.766859 20.848118 13.105425
-7.08148 21.732697 6.784512
-7.2531943 21.677858 7.3510504
-7.162174 21.706963 8.449031
-6.954286 21.260729 9.551205
-7.22244 21.144278 10.426721
-7.179775 21.082678 11.481991
-6.938621 21.580942 11.98313
-6.6519217 21.171059 13.537203
-6.9840374 21.697138 14.914153
-6.826248 21.54245 15.153594
-6.7188997 21.779306 16.09105
-6.897799 22.784054 6.290216
-7.0144277 22.900686 6.599903
-7.363217 22.489132 7.4964685
-7.257982 22.7146 8.272421
-6.631625 22.491556 10.062862
-6.7415705 22.0041 11.244916
-6.776672 22.531897 13.913365
-7.0872135 22.532034 14.762941
-7.140544 22.69433 15.382995
-6.9633904 22.567123 16.001717
-6.7682776 23.296432 27.689821
-6.8424883 23.05155 28.467676
-6.822666 23.126766 29.378124
-6.817339 23.267502 30.47567
-6.753783 23.507784 6.2427697
-7.0412636 23.351377 6.682892
-7.4144096 23.799097 7.7565513
-7.3206882 23.711113 8.354272
-7.067129 23.720747 8.9141865
-7.091232 23.556925 14.082027
-7.2157865 23.538675 14.665738
-7.1711116 23.54867 15.389483
-6.752201 23.599255 16.219501
-7.0718803 23.991917 27.062849
-7.543905 23.866573 27.724247
-7.5294275 23.524006 28.552124
-7.486141 23.717144 29.490932
-7.0753045 23.554773 30.39177
-6.8086925 23.597855 30.922411
-7.0266523 24.260351 6.9003396
-7.239246 24.427834 7.5605755
-7.250998 24.236616 8.348572
-6.511625 24.656582 11.134065
-6.970443 24.391851 14.053109
-7.1320868 24.554445 14.621031
-7.1443124 24.290161 15.175385
-6.925536 24.074966 15.889031
-7.0697217 24.767962 26.061905
-7.6093807 24.47583 27.215055
-7.672924 24.457891 30.16398
-6.9505134 24.37739 30.961428
-6.8120337 24.965134 7.106443
-6.8121343 25.225376 7.7065783
-6.868888 25.028648 8.272867
-6.680343 24.957481 8.914065
-6.717803 24.87139 13.705106
-6.8806324 25.08153 14.547839
-6.8603973 24.944424 15.255685
-7.374833 26.331287 24.593742
-7.7539387 26.187643 25.371853
-7.3146544 25.718668 30.870012
-7.9969893 26.939253 22.800804
-7.557611 26.992094 23.646105
-7.225209 26.837736 31.213158
-7.8490596 27.612947 22.320126
-7.735672 27.308237 31.356653
-7.3716764 27.77999 31.721483
-7.454827 28.654255 31.900496
-8.086255 29.06387 21.856178
-7.361611 29.454014 31.734613
-6.9479976 30.386683 22.17709
-7.61446 30.297503 31.183554
-6.8605313 31.507639 22.622128
-6.985105 31.733122 29.816084
-7.250906 30.793488 30.699203
-7.819684 31.73963 23.559668
-7.3154955 32.860527 29.249699
-6.7574267 33.18996 23.874865
-7.212074 33.75816 24.541552
-6.8317947 33.562595 29.732346
-7.562896 34.87066 29.5963
-7.082626 34.963337 29.900497
-6.9581447 35.45073 24.631866
-7.583704 35.28595 29.58892
-7.2515345 35.390697 29.76901
-7.338722 36.266926 25.138256
-7.535281 36.49162 25.445635
-7.235602 36.538822 29.265335
-7.074825 36.088017 29.661863
-6.995725 36.990406 25.21173
-7.291593 37.21765 25.678446
-7.4461517 37.385113 26.345438
-7.415083 37.447887 27.419657
-7.4075265 37.206192 28.443275
-7.046706 37.240307 28.933804
-6.8174977 37.698814 25.93175
-7.0135927 37.72849 26.605856
[...]
POINT_DATA 3761
SCALARS features_00 float 1
LOOKUP_TABLE default
0.7386056 0.6722024 0.75797486 0.7126793 0.61467385 0.5168112 0.4252817 0.6776916 0.58460176 0.50440705 0.41496813 0.55299264 0.5121766 0.45231766 0.42955366 0.4473049 0.42185944 0.76444495 0.7492616 0.7768694 0.74453664 0.65625197 0.5073081 0.31634736 0.29403195 0.35086197 0.77136075 0.7746476 0.4586981 0.38652384 0.22445735 0.27504185 0.35955676 0.39865875 0.738765 0.7254498 0.27996197 0.3159025 0.36005664 0.43789262 0.6062931 0.5627283 0.36830518 0.30125865 0.30482787 0.3595711 0.46817106 0.44819558 0.37146097 0.30045068 0.19610041 0.24293241 0.40314266 0.35160285 0.62607527 0.62402844 0.60026413 0.42988533 0.4472207 0.4393553 0.7671524 0.72636783 0.68482196 0.37325704 0.42134178 0.41575712 0.76372504 0.7591747 0.54107755 0.35003322 0.3797483 0.41026545 0.75992405 0.4435884 0.50402296 0.683305 0.47902447 0.54747254 0.5441209 0.51962614 0.41868854 0.5127189 0.5638881 0.44158113 0.3758733 0.4180522 0.5352677 0.5582381 0.33517826 0.35993728 0.29190278 0.25803939 0.1509579 0.55658054 0.5107002 0.62768984 0.61318886 0.5719125 0.49148962 0.4181883 0.6465175 0.6392855 0.58480936 0.53439057 0.42559898 0.64355135 0.6239332 0.56263274 0.47356966 0.41820762 0.59065664 0.6459208 0.5877136 0.5168716 0.45439827 0.5969202 0.56201756 0.49547583 0.4056587 0.45601493 0.45861644 0.4591435 0.4042365 0.45313513 0.4394009 0.41810656 0.71238196 0.65470624 0.52294725 0.12620273 0.40053055 0.32327208 0.73031366 0.705472 0.39642888 0.3592572 0.7297912 0.45639127 0.4925065 0.6122472 0.5694134 0.5673545 0.4280373 0.58545554 0.59218633 0.37717807 0.26832289 0.54274726 0.56692505 0.18369134 0.09971787 0.49104 0.22498836 0.22681889 0.13276717 0.04642987 0.08533857 0.17209846 0.11461854 0.2284085 0.14536 0.32286897 0.3653509 0.3559076 0.4376099 0.44869518 0.48315376 0.42553663 0.5003066 0.53456426 0.5283304 0.5252777 0.55476135 0.58238626 0.59826374 0.5759871 0.58798146 0.6098007 0.65408 0.74432045 0.77597547 0.66537774 0.7185112 0.75182915 0.7437799 0.6758107 0.6962492 0.692703 0.5399715 0.49567968 0.4946128 0.40435827 0.32438952 0.32874846 0.34539837 0.6079649 0.5591639 0.38217524 0.3673901 0.40150598 0.38713983 0.55494523 0.5192521 0.57583034 0.3903395 0.40086025 0.38561535 0.45762914 0.3995669 0.36394483 0.20194884 0.40747747 0.36271954 0.18938273 0.1983593 0.49752593 0.400723 0.39083365 0.35786235 0.2669566 0.23725936 0.24073601 0.2507211 0.21584882 0.15640132 0.15302362 0.36278898 0.32077873 0.27393872 0.2379975 0.2506354 0.21721493 0.12283233 0.11289206 0.40763423 0.38025767 0.25781697 0.19314666 0.20119944 0.17856853 0.10547657 0.09529771 0.30844963 0.3275947 0.4022886 0.42623615 0.45153886 0.43911383 0.3482379 0.047624744 0.07453262 0.20962262 0.3718713 0.43913537 0.446071 0.33339572 0.44063473 0.5147077 0.5645311 0.44493327 0.47820246 0.5094144 0.41054034 0.26705605 0.34482947 0.42805886 0.47130507 0.45854867 0.25643635 0.37284184 0.44890064 0.4772355 0.5279541 0.54831797 0.52962685 0.5293183 0.42778397 0.10892184 0.32442355 0.38790447 0.44230318 0.45696294 0.08949721 0.29115713 0.4275096 0.45126218 0.53645915 0.5032119 0.43462598 0.30955943 0.2377035 0.32862484 0.38892648 0.20202236 0.11273565 0.2713418 0.564685 0.39355135 0.27338177 0.6105456 0.38423693 0.42608958 0.54528916 0.46962395 0.57992375 0.057467878 0.5318857 0.030778268 0.11531636 0.3934302 0.08912182 0.30837175 -0.001927834 0.09852904 0.3757567 0.50898224 0.5221346 0.32603508 0.55463797 0.56557685 0.49671683 0.53162634 0.6428424 0.6130122 0.5510961 0.5800082 0.6044724 0.6537167 0.67438734 0.67989403 0.6037997 0.6312309 0.6854832 0.7090515 0.7021415 0.73060656 0.76818126 0.65080357 0.7418113 0.77910924 0.78255117 0.29414168 0.6000408 0.72673166 0.676679 0.7332748 0.2748286 0.26347312 0.28756645 0.38323805 0.6003226 0.63364875 0.5962917 0.5989629 0.75683963 0.7131691 0.64484817 0.38376403 0.30063948 0.31372604 0.28800064 0.21726781 0.2778063 0.33519006 0.37539238 0.1664995 0.2595233 0.4786882 0.47284234 0.4833364 0.5130968 0.7018368 0.62656015 0.5866474 0.53970397 0.048278473 0.38385367 0.31538182 0.23737949 0.66464746 0.6263283 0.58580256 0.47947228 0.44961888 0.24095201 0.3500958 0.34314495 0.2996825 0.5261969 0.51214033 0.39174828 0.3999025 -0.095474616 0.054437123 0.32240313 0.31239876 0.288455 0.049999155 -0.004432179 -0.11846283 0.31273526 0.26967937 0.28552905 0.11970727 0.09277882 -0.071880795 0.2869358 0.30193496 0.3954939 0.33601823 0.10987989 0.3900774 0.24821833 0.3172932 0.39476618 0.38855597 0.30958956 0.3922962 0.0055448487 -0.021170404 0.40760535 0.38571858 0.25274754 0.35904282 0.46824285 0.5715014 0.60488707 0.621245 0.41675234 0.004092995 0.046382286 0.012161154 0.42999583 0.37015742 0.13933726 0.18671791 0.5655054 0.51850957 0.44401845 0.4976434 0.11273597 0.37901536 0.3702535 0.087993406 0.44298854 0.5422778 0.48019618 0.42651162 0.1867252 0.17498966 0.16004217 0.14834958 0.27405944 0.28906652 0.32797265 0.036337152 0.23253521 0.57473886 0.5370774 0.49406356 0.20293097 0.20406751 0.16444129 0.21452808 0.15169466 0.2943473 0.18545878 0.059117235 0.06461098 0.38700992 -0.037156045 0.42888314 0.1581192 0.43319947 0.5178144 0.14424917 0.42356193 0.13494767 0.0842909 0.23376666 0.107970044 0.04465151 0.09549502 0.4942475 0.15447053 0.5547365 0.32218522 0.43152994 0.64561963 0.6180137 0.5502163 0.57290274 0.6835604 0.5992832 0.6502038 0.72467005 0.7208332 0.6938124 0.6832589 0.71289855 0.72543716 0.3549245 0.36782002 0.32638925 0.42033884 0.5859386 0.7399541 0.7359041 0.16200793 0.31675488 0.30559063 0.30099362 0.6893015 0.6836684 0.78844607 0.7423594 0.6633556 0.58810055 0.15726765 0.14351669 0.14155942 0.26128808 0.5546616 0.5862852 0.76494634 0.78037095 0.63242793 0.52927566 0.18067844 0.2433487 0.43008393 0.4601258 0.49002263 0.6921213 0.42805955 0.1485754 0.20181304 0.2311368 0.3093235 0.34261844 0.36403286 0.5862811 0.2756977 -0.16132194 -0.1404135 0.27850556 0.13568613 0.17223288 0.22104773 0.48580673 -0.27916098 0.21958518 0.3058162 0.27594447 0.16377787 0.17900485 0.3522486 0.19745837 0.26268834 0.19202897 0.41139445 0.37932596 0.121609576 0.42838448 0.3886789 0.24459493 0.36642706 0.3638286 0.20417103 0.27217782 0.26625186 0.22686215 0.4152855 0.60593826 0.6430796 0.6452415 0.36072218 0.2527611 0.23996094 0.19606137 0.57850635 0.49249023 0.41685814 0.097443506 0.13655502 0.1785622 0.36743224 0.4864645 0.18069465 0.13001315 0.18371129 0.07804806 0.20420644 0.55289197 0.5900576 0.4039687 0.33266833 0.06306979 0.23029359 0.19772139 0.20147547 -0.20188895 0.07842995 0.596689 0.5779811 0.47358847 0.1163029 0.13194278 0.1213229 0.09747772 0.15169099 0.061786056 0.06973612 -0.039069608 0.05642719 0.09081173 0.1470207 0.16552168 0.15636182 0.1765325 0.14955415 0.09890323 0.15767553 0.16741401 0.19186461 0.16288668 0.17595491 0.17739871 0.17189346 0.13468808 -0.080186434 0.14274827 0.12750527 0.09851935 0.030412886 0.48532605 0.019894898 0.04968508 0.5456845 0.6232332 0.6007737 0.47213098 0.650969 0.6374657 0.58952355 0.6809649 0.6884457 0.69465244 0.67645276 0.42049634 0.35633704 0.55082047 0.5338814 0.6002216 0.47706977 0.46544543 0.333679 0.26691437 0.65320575 0.66993153 0.6965793 0.1391877 0.3658587 0.69108987 0.76329136 0.7388078 0.68820775 0.13426445 0.16138265 0.10377763 0.052394815 0.6089422 0.71227753 0.105642974 -0.13247344 0.38446996 0.39652595 0.6540313 0.33516687 0.5121388 -0.10476859 0.09827393 0.14949137 0.175796 0.20152836 0.16015625 0.30992556 0.33252636 0.08945376 0.4037477 0.16676542 0.0052177063 0.44312802 -0.03736396 0.4421787 0.028380051 0.39023703 0.107228965 0.3410823 0.2969795 0.28113228 0.18921278 0.23234831 0.40386266 0.51488066 0.5336503 0.6098449 0.33648956 0.007881872 -0.18748991 0.0023588042 0.11306923 0.24225403 0.34722212 -0.1445768 -0.007883251 0.06252607 0.011269048 0.34909272 0.34543264 0.40416205 0.07032441 0.12694767 0.50509137 0.28078556 0.043842673 0.07029234 0.57703596 0.56178176 0.5243317 0.0627493 0.068746045 0.090984255 0.059300587 0.07338254 -0.0023196936 0.17223926 -0.09519133 0.4134968 0.21731745 0.15074737 0.14327696 0.15845567 0.47318563 0.41260782 0.33135813 0.12603751 0.14304233 0.13029401 0.13706188 0.4778499 0.4316604 0.110452875 0.13401839 0.12124723 0.044925436 0.04187219 0.014765477 0.52235115 0.48663473 0.4441358 0.5802779 0.5920925 0.56350136 0.14595139 0.34538275 0.48149443 0.5118456 0.57282126 0.59630936 0.66069067 0.62825656 0.615607 0.59261006 0.61473954 0.4954129 0.51711136 0.44046876 0.37894765 0.29841518 0.39144814 0.46368593 0.46806705 0.39830837 0.47553045 0.3104341 0.26326847 0.5215758 0.57291937 0.6013611 0.30585098 0.3128466 0.29100674 0.12980923 0.123268336 0.083814725 0.043739647 0.5815537 0.64863205 0.23450038 0.17933917 0.1976212 0.54307216 0.5626414 -0.027279485 0.3445059 0.38614362 0.19212368 0.24487084 0.4563358 0.4857362 0.25035048 0.15934895 0.18730214 0.46281675 0.2585436 -0.047632776 -0.17953335 0.00040474348 0.07000166 0.13793395 0.11434682 0.19537969 0.32558376 -0.052443266 -0.12933892 0.3900732 0.3551641 -0.054903682 0.43189967 -0.16877311 -0.018813968 0.4127823 -0.2975035 -0.18242984 -0.017106108 -0.043166623 0.3646143 -0.16447869 -0.13797514 0.027072087 0.034110032 -0.08121632 0.2222533 0.2726047 0.3120685 -0.002880849 0.08148995 0.23358975 0.255102 0.12294491 0.09556042 0.17116484 0.34652552 0.48150212 0.30549276 0.099633016 0.2608707 0.2545231 0.270294 0.2710014 0.081821606 0.37183616 0.46409518 0.50854504 0.46578634 0.45107925 0.3116398 0.11903167 0.2714463 0.3966619 -0.113439515 0.4560697 0.10901041 0.47914666 0.49307027 0.12287323 0.28368813 0.48164093 0.48802072 0.46809393 0.20365824 0.3663408 0.09050909 0.11090261 0.38445675 0.25364882 0.30564955 0.2790259 0.35913473 0.37154523 0.3504113 0.38347456 0.07200334 0.5188048 0.4115363 0.4157428 0.43340623 0.26801616 0.13646099 0.25309172 0.30578178 0.42935982 0.6414596 0.5728854 0.50993454 0.3731808 0.18921174 0.15286414 0.4596859 0.4164378 0.48234126 0.52166444 0.7238269 0.7011484 0.683396 0.61817336 0.19567731 0.7590116 0.7524703 0.7171235 0.62289584 0.47547856 0.51011485 0.49497402 0.4160452 0.374937 0.3124104 0.36548012 0.41003555 0.46934384 0.42890495 0.4180622 0.45732516 0.19939026 0.21490765 0.26755175 0.36824775 0.3645777 0.32976484 0.29460979 0.020393595 0.2893345 0.36223257 0.1486277 0.2909932 0.06633422 0.20160647 0.46457815 0.1907285 0.4841544 0.47474837 0.23250036 0.49730968 0.47658563 0.23090115 0.046994407 0.11581264 0.21175122 0.47193035 0.47747266 -0.25368342 -0.33671904 -0.15543038 0.038866587 0.34080514 -0.115145594 0.37961498 0.35878217 -0.16421086 -0.09872642 0.36966485 -0.09704058 -0.17086364 0.33152142 -0.18869011 0.2812302 -0.025317632 -0.20042558 -0.060984626 0.28067952 -0.15360671 0.159858 0.033580936 0.32126236 0.26056033 0.22496437 0.35611418 0.40057558 0.17857899 0.19894093 0.36404198 0.4450191 0.24957407 0.5114739 0.54185915 0.12397833 0.44512355 0.32979816 0.3934499 0.30147487 0.17315093 0.28531027 0.41955876 0.114224605 0.44934618 0.34740615 0.44739723 0.462187 0.39435327 0.38752764 0.38136393 0.40016532 0.25012735 -0.08813895 0.24190575 0.3666405 0.33025447 -0.01237065 0.5752572 0.048187878 0.022216342 0.70363075 0.22968686 0.11716783 -0.08703765 0.1098708 0.1681153 0.75835407 0.7520086 0.5089154 0.4547072 0.09567612 0.19463941 0.22682932 0.23193912 0.77910674 0.77706015 0.7687206 0.70899785 0.59597033 0.488589 0.5173857 0.51400125 0.47343785 0.46849728 0.281821 0.345784 0.46375602 0.49706993 0.44590843 0.32149458 0.41779354 0.41893154 0.393121 0.1872084 0.053419445 0.32301313 -0.022245526 0.1575775 0.19487739 0.21087769 0.19879085 0.10422206 0.07934944 0.18566039 0.384734 0.43640018 0.111230746 0.47635883 0.46664816 0.17352143 0.47400442 0.4429486 0.20234175 0.1956531 0.45522943 0.2026194 0.16410491 0.44400853 0.4305679 0.2768986 0.06370009 -0.3027117 -0.2813578 -0.23016807 -0.026436886 0.14565964 0.25979823 0.17883602 0.03581567 0.012403935 -0.21364525 -0.16614243 -0.15631455 -0.14475453 -0.11435004 -0.008356426 0.10646449 0.11342245 0.014968216 -0.0126553625 -0.20272359 -0.115146056 -0.10184133 -0.11184391 -0.0074251704 0.19904478 0.32482994 0.16285335 -8.954108e-05 -0.24890806 -0.1743117 -0.13301462 0.2863935 -0.23053947 0.19099405 -0.07314838 0.21369696 0.2322307 0.366004 0.41746163 0.4353608 0.48914498 0.29015625 0.47151965 0.53828365 0.3789369 0.36896026 -0.17373031 0.5906713 0.6020099 0.40788332 0.40953785 0.35800242 0.30839223 -0.1175385 0.5627616 -0.018619508 0.14067873 0.46676534 0.5311846 0.24019289 0.08994774 0.3621908 0.23908132 0.39841217 0.26026693 0.4207723 0.342409 0.37845397 0.35766086 0.33930576 0.38477325 0.118243806 -0.12519464 0.24943164 0.29692972 -0.2571492 0.6881343 -0.0053735003 -0.040021885 0.744238 0.23897284 0.038468704 0.011495898 0.14156078 0.24493475 0.39359146 0.7680151 0.7636099 0.7293733 0.6410015 0.5649922 0.32846656 0.35771865 0.37308913 0.39910203 0.6846671 0.6715984 0.49481356 0.53199255 0.5164199 0.18390828 0.48991364 0.46250242 0.14662635 0.0871997 0.10841391 -0.054410487 0.02851405 0.16032754 0.11790525 0.107495576 0.13541561 0.14157087 0.16118783 0.3723625 0.37591296 0.11680867 0.3476948 0.42647988 0.455478 0.16281736 0.4364987 0.20091781 0.35879582 0.33853894 0.04155405 0.18991014 0.022378303 -0.09909945 -0.006475687 0.2156001 0.25223747 -0.3604544 -0.09889616 -0.08653249 0.06559119 0.0041544437 -0.1537642 -0.1694038 -0.12716338 -0.029538013 -0.010498747 -0.02157566 0.1455259 -0.22307312 -0.06406324 0.014487341 0.030642148 0.2602928 0.19151771 0.35233563 0.42195466 0.31507194 0.4208287 0.48222697 0.3501022 0.52675885 0.56849295 0.36933708 0.375535 -0.17386958 0.59971845 0.41791904 0.42069715 0.32768977 -0.09871948 -0.08389525 0.5687678 0.57977694 0.42106903 0.39522618 -0.058876768 0.4525674 0.5215003 0.2243768 0.27253568 0.3197491 0.34153846 0.2799213 0.22806609 0.24529108 -0.034273997 0.24688685 0.28468478 0.02453424 -0.03398537 0.08991949 0.16040108 0.22998717 -0.1947963 0.24921024 0.187141 0.5696199 0.36205733 0.6927843 0.44396067 0.73071766 0.7141763 0.64850414 0.54402417 0.49838856 0.12604232 0.31263456 0.35598618 0.38187188 0.3887493 0.40965736 0.36395517 0.5078278 0.31388235 0.2185303 0.18072376 0.14012387 0.39206022 0.43957648 0.56635296 0.48379037 0.32262164 0.18719533 0.3173756 -0.0027733594 -0.0028465502 -0.013526611 -0.0044203475 0.13386203 0.22600678 0.2787053 0.3200481 0.59022653 0.6263031 0.6136458 -0.1435759 -0.06520127 -0.0026913881 -0.016065717 -0.032229554 -0.06818871 0.111997314 0.18506241 0.3801589 0.5425867 0.59123313 0.612579 0.534094 0.5196721 0.37689868 0.21738335 0.19890885 -0.035205424 -0.6448804 0.08809966 0.14227217 0.019162953 0.2100058 0.2238001 -0.07916406 -0.028559286 0.13419265 0.11742453 -0.07627402 0.17668058 -0.032969058 0.22830951 0.20487729 -0.16876328 0.2816971 0.34514752 0.33814666 0.484927 0.5098114 0.3937477 0.5750733 0.42168856 0.2591673 -0.0956738 -0.16911304 0.55230707 0.5639636 0.47408628 0.5109664 -0.040603258 0.4564597 0.50413823 0.06254231 0.20023066 0.04662127 -0.13572446 0.123134986 0.27827132 0.26337558 0.25411606 -0.12107383 0.22661065 0.10561022 0.28613457 0.5092494 0.36410937 0.65546197 0.5146381 0.27125305 0.4591719 0.45975178 0.64653814 0.5755838 0.4067906 0.28062928 0.30709755 0.33195478 0.3514676 0.37440738 0.41012624 0.43838888 0.34227526 0.36272243 0.5198469 0.427242 0.312534 0.25833678 0.18187976 0.071682975 0.16952959 0.6502538 0.65407807 0.6540561 0.6640383 0.62350893 0.4995308 0.13300246 0.00083853304 -0.017466888 0.62547415 0.63981366 0.64177334 0.6375667 0.6687104 -0.35909182 -0.00076149777 0.014276493 -0.012634307 -0.028131414 -0.08518929 -0.22784698 -0.04261815 0.11808221 0.12948859 0.19992188 0.22893134 0.29876477 0.59693116 0.66515535 -0.34162652 0.12040308 0.13178065 0.4794549 0.49695694 0.59758484 0.23018478 0.362633 0.36855263 0.19903676 0.016320247 0.13090798 -0.08549169 0.10719164 0.10247631 0.033707 0.14232543 0.15411818 -0.0016175732 -0.3182916 0.0756705 -0.15795216 0.13017625 -0.13588318 0.2751669 0.32636395 0.5160961 0.47705653 -0.12747033 0.5074692 0.4384005 0.40616482 0.49600923 -0.14844176 -0.121166006 0.44723517 0.48940778 0.50430804 0.534792 0.59036475 0.5764377 0.58557415 0.61120236 0.054999173 -0.095080614 0.09580099 0.0064163357 0.38913965 0.079220004 0.11614603 0.3155026 0.28799704 0.27835175 0.34512943 0.022967942 0.3669821 0.015917733 0.35970327 0.17127515 0.17023054 0.4035473 0.30962405 -0.07020598 0.43861496 0.45945996 -0.010021661 0.16428642 0.28443906 0.31195334 0.34373426 0.39691278 0.43568432 0.3164525 0.32468188 0.6242457 0.52948487 0.43690884 0.35970202 0.27403075 0.3662801 0.37871718 0.37774926 0.63271797 0.6486379 0.6563194 0.6434264 0.6659948 0.6604574 0.23733006 0.036982913 0.3401568 0.6388241 0.5779358 0.6633681 0.030023854 -0.048753552 -0.17600122 0.5198256 0.6423484 -0.38419363 0.039455026 0.101609364 -0.3236775 -0.196042 0.5179816 0.5502573 -0.027796164 0.027795168 -0.21088631 0.34412074 -0.1688764 -0.122384064 0.25238255 0.2594734 -0.50546366 0.1928219 0.22965333 -0.3652273 0.20016247 0.23523432 0.026573196 0.1606543 0.0640895 0.084765345 -0.011682151 0.080003545 -0.27109566 -0.07066833 -0.07493694 -0.03763073 0.06378493 0.31530505 -0.05823556 0.3229705 0.38626212 0.14606723 0.3755377 0.4559862 0.6009538 0.51095873 0.43109915 0.4587216 0.62779826 -0.17940491 -0.24664609 0.32033765 0.6189294 0.5840499 0.5160369 -0.23039174 0.16676512 0.5469651 0.55002785 0.6224351 0.57135034 -0.058059998 0.12433902 0.5791065 0.61326516 0.642167 0.6320175 -0.18609174 0.40918782 0.5223913 -0.13829392 0.038835414 0.4489327 0.5301397 0.5537901 0.20153186 0.17498161 0.47074026 0.53372765 0.38815728 0.4232983 0.4745295 0.2377671 0.48230565 0.41905624 0.19585423 0.12652807 0.46397296 0.41052622 0.40752548 0.44166926 -0.10384631 0.42358178 0.140208 0.18192276 0.19171289 0.3170564 0.37094206 0.35029763 0.43599904 0.49019033 0.4755339 0.61099935 0.5491192 0.46655083 0.3545084 0.2679415 0.16468143 0.28100482 0.41667044 0.40406594 0.5283756 0.59789145 0.56974983 0.51841617 0.47462493 0.6311517 0.49900502 0.5352524 0.39773798 0.2679035 0.49027056 0.6237332 -0.003593121 0.04671757 0.002034925 0.2892269 0.3138417 0.1895203 0.48360717 0.48166984 0.60647935 0.5865848 -0.05107312 0.0024425574 -0.2340213 0.46467036 0.45312953 -0.52608585 -0.42210066 0.33288687 0.40905446 0.14953169 0.27741757 0.33526874 0.23623054 -0.13505557 0.23957275 0.042084362 0.024393145 0.14857629 0.0451116 0.040530056 0.13232055 0.012739725 0.03188487 0.14733364 0.11298786 -0.062652454 0.2613928 0.42700255 0.45257956 0.5165036 0.33157796 0.47533128 0.64942956 -0.26623967 0.46243882 0.67713785 0.6417402 0.6072558 0.52083015 -0.019162616 0.10871637 0.56518614 0.5567988 0.6285238 0.58941495 -0.0012612939 0.5807706 0.61001635 0.64064217 0.64660776 -0.035647277 0.39947683 0.41173998 -0.09488669 0.5277215 0.47602394 0.03973823 0.57291776 0.2947064 0.3680149 0.47360307 0.58258814 0.4512784 0.41427076 0.45938525 0.560482 0.4580726 0.59086025 0.4612853 0.60229236 0.610356 0.24010965 0.42597857 0.5925325 0.5685935 0.4650272 0.23694102 0.057697825 0.23174158 0.33580512 0.28616154 0.29366148 0.23706257 0.10551259 0.3329596 0.4342739 0.5086794 0.5097848 0.47063708 0.57054675 0.47167063 0.36352783 0.22307822 0.18505464 0.45082647 0.41865176 0.5356815 0.571636 0.56350905 0.28736952 0.45233417 0.5172125 0.43715706 0.43297178 0.56181616 0.4730317 0.5110347 0.3291912 0.44493103 0.44866168 0.56123483 -0.12427141 -0.046858713 0.12986611 -0.007970355 0.46181238 0.51615405 -0.31119695 -0.3570878 0.47984764 0.4294814 0.09531878 0.073614806 0.28216588 0.37672758 -0.2823391 0.24936065 -0.12615222 0.15261903 -0.059589196 0.017503023 0.09638804 0.06575626 0.13136181 0.13962504 0.093160436 0.044256702 0.04196959 0.12602606 0.06247311 0.40906864 0.4508018 0.4576539 -0.4939443 0.42819113 0.4662205 0.63587147 0.025436265 0.46599352 0.6607599 0.4377665 0.35187072 0.6468308 0.5883111 0.5155853 -0.07415727 0.009041952 0.5498863 0.5308743 0.54223764 0.58808815 0.60057986 -0.00810495 0.622547 -0.04427834 0.30218 -0.040540554 0.49357283 0.42287865 0.563756 0.02779994 0.1