# vtk DataFile Version 2.0
Really cool data
ASCII
DATASET POLYDATA
POINTS 3406 float
-4.5872016 33.49481 -0.18562834
-4.8107233 33.985584 0.7204587
-4.80288 34.071854 1.3211641
-4.6857347 34.528286 -0.120632574
-4.9516096 34.5216 0.6041267
-5.0021625 34.621105 1.3484825
-4.7858286 34.643322 2.309762
-4.600758 34.735104 3.504193
-4.579101 34.792484 3.9149845
-4.700732 35.289845 0.045792565
-4.9342623 35.25435 0.6356551
-4.950567 35.48314 1.4304353
-4.810231 35.48121 2.4231267
-4.6520233 35.41668 3.6957436
-4.595271 35.666656 3.8841252
-4.7413144 35.86953 0.99912155
-4.653045 36.21992 1.6594563
-4.595178 36.02481 2.4450057
-4.5666404 36.2476 3.4205384
-3.8663843 32.194485 -1.1114554
-3.9680254 32.157097 -0.60719305
-4.065525 32.246346 -0.039271176
-3.5963833 32.18998 4.9495096
-3.5758133 32.11116 5.635927
-3.539846 32.060387 6.012709
-4.0631847 32.614323 -1.2034032
-4.250339 32.601273 -0.5080008
-4.0587015 32.489666 0.28695834
-3.680995 32.70266 3.8578792
-3.8040738 32.72974 4.363653
-3.743122 32.674957 5.286894
-3.5932877 32.39193 6.084127
-4.1455927 33.23404 -1.2677757
-4.460153 33.18691 -0.44938734
-4.4882555 33.338264 0.3575422
-4.4500012 33.550438 1.3637062
-4.087307 33.724003 2.4027445
-4.1503015 33.657166 3.7107646
-4.0670357 33.60135 4.46517
-3.8442616 33.530445 5.2542596
-3.6371503 33.498444 6.119084
-4.105846 34.641117 -1.0882173
-4.518821 34.457783 -0.49826273
-4.2590685 34.616966 4.3807974
-4.1244473 35.0163 4.8493924
-4.020422 35.17696 -0.9026003
-4.2748666 35.65732 -0.19384691
-4.322381 35.621666 4.4707527
-4.0926437 35.70932 4.9388638
-3.722661 35.820396 -0.8273084
-4.187763 36.008144 0.020033374
-4.274359 36.208088 0.4050702
-4.314373 36.460316 3.6553066
-4.378366 36.49855 4.3105845
-3.8548844 36.566723 5.2250705
-3.9935143 37.300667 2.0964978
-4.440786 37.021084 3.031118
-4.371818 37.384537 3.5971897
-4.2291393 37.392906 4.479004
-3.8313234 37.44183 5.157753
-3.9157393 38.743713 2.031518
-4.0264406 38.429474 2.463024
-4.1442437 38.55609 3.4357367
-3.9748511 38.323017 4.299498
-3.8378143 37.987125 4.9187512
-3.6539395 39.42129 1.7744132
-3.911275 39.41003 2.6048021
-3.9093666 39.353733 3.4180202
-3.7934844 39.236515 3.9511347
-3.7060719 39.90724 2.5873473
-3.7431383 39.936825 3.067583
-2.8927124 31.347918 4.8971143
-2.952141 31.13842 5.6930327
-2.849109 31.061785 6.4173684
-2.902698 32.09057 -1.862284
-3.1388042 31.91057 -1.4517047
-3.4987617 31.74506 -0.58638656
-3.133826 31.943424 3.9572988
-3.2521648 31.868273 4.682092
-3.2893481 31.537561 5.766675
-3.2295485 31.604355 6.357417
-2.9851398 31.749443 6.9727087
-3.3301654 32.712955 -1.979702
-3.4536595 32.529507 1.0851963
-3.4747202 32.80494 3.22132
-3.5615838 32.292965 4.6090155
-3.37596 32.377144 6.6111684
-3.0344465 32.390514 7.1802497
-3.4042203 33.611225 -1.9738353
-3.439347 33.59711 6.5045676
-3.0647488 33.391632 7.1909356
-2.7720952 33.31236 7.6293335
-3.1772525 34.0243 -1.9683855
-3.6161838 34.88898 -1.4946681
-3.3397083 34.44989 6.4390016
-2.8909814 34.14161 7.2033105
-3.1437194 35.48709 -1.6900575
-3.5772069 35.42831 -1.3940306
-3.2483702 35.362316 6.1117535
-2.790349 34.95682 6.8572297
-2.8803034 36.245045 -1.3865557
-3.5786257 36.418182 -0.43024296
-3.6005087 36.131294 5.2684374
-3.2156403 36.45676 5.7956114
-3.034561 36.970615 -0.10611734
-3.4705157 37.50868 5.433644
-3.0437417 37.184 5.7349553
-3.0000298 38.32896 0.54237217
-3.3496304 38.338585 5.0881104
-3.0799372 39.479855 0.98587024
-3.5080538 39.48574 1.5197141
-3.6139598 39.750305 3.6920204
-3.3219395 39.482693 4.22579
-3.4132497 38.81576 4.6868906
-2.9947085 40.13888 1.2148558
-3.2123225 40.238853 1.7545608
-3.278974 40.434124 2.6366987
-3.3968778 40.202038 3.3482788
-3.1535947 40.005714 3.9677944
-2.7475827 40.727596 2.0748756
-2.9187686 40.740482 2.6089718
-2.7721038 40.822815 3.3158464
-2.5926707 31.388603 -0.80642664
-2.7000012 31.162323 5.1771054
-2.443288 30.840652 5.729969
-2.4605508 30.836893 6.4253273
-2.4766119 30.996456 6.8645916
-2.494619 32.122818 -2.089137
-2.6972985 31.568188 0.21376708
-2.0635624 31.79039 1.0166517
-2.1056926 31.533644 4.173983
-2.5981097 31.500343 7.2199574
-2.1099644 31.978827 7.6239185
-2.2155664 32.30187 -2.257474
-2.3486168 32.879932 7.7933617
-2.4554834 33.532455 -2.3558867
-2.3786232 33.546852 7.7774715
-2.5265157 34.278225 7.455937
-2.187247 34.081253 7.7622466
-2.3972187 35.02359 -2.2438898
-2.2621765 34.97243 7.1065097
-2.2414713 36.571766 6.027646
-2.2567515 37.116272 -1.178333
-2.6729748 37.46779 5.664014
-2.6362453 38.224857 5.276499
-2.385739 39.231846 0.55566984
-2.6187196 39.07121 4.794165
-2.7574117 40.144096 1.061485
-2.6502442 40.508232 1.5239596
-2.319285 40.410522 4.1538463
-2.5776792 40.746986 1.7878927
-2.3576431 41.16893 2.5651317
-2.3268678 41.05707 3.4730937
-2.236467 40.912292 3.8427644
-1.782071 41.629223 3.2813072
-0.63329744 28.095364 0.5442828
-0.6050658 27.956242 1.2948788
-0.66326344 28.318851 0.5540153
-0.6759256 28.558264 1.3414152
-0.75231385 29.914082 1.1595982
-1.1369808 30.994818 0.3129989
-0.94124967 30.73316 1.3401673
-1.6234757 30.871952 5.3638563
-1.7120742 30.584902 6.4583306
-1.5385205 30.978731 7.115844
-1.880316 32.119026 -2.073266
-1.7139554 31.9245 2.576716
-1.6279285 31.831404 7.742119
-1.8032838 32.939156 -2.474865
-1.194607 32.63966 7.800119
-1.6179931 33.76113 7.946957
-1.5688109 34.588184 7.542745
-1.5349759 34.03258 7.856465
-0.7995184 35.729954 -2.6869268
-1.5817 35.568157 -2.2517934
-1.7516137 35.62633 6.4844904
-1.6900867 34.99617 6.9988923
-0.6936761 36.82809 -5.366832
-0.7357969 36.90261 -4.256626
-1.5354688 36.5815 5.589079
-1.8064306 36.708675 5.846346
-0.59710854 37.17017 -5.924745
-0.80973464 37.451115 -5.416674
-0.88778406 37.70831 -4.825382
-1.0181566 37.272808 -3.5075011
-1.3924118 37.18151 -2.2783685
-1.5799179 37.634647 -1.5912838
-0.60872626 38.174145 -5.9225535
-0.7255254 38.54593 -5.4641995
-0.84041 38.48762 -4.830342
-1.2109398 38.26312 -1.1400945
-1.7345176 38.37709 5.0820065
-0.5699514 39.26399 -5.332277
-0.66815484 39.45399 -4.618277
-1.605869 39.66034 0.68824214
-1.0726908 39.746063 4.815158
-1.2185657 40.63161 4.5007133
-1.7007802 40.839146 1.5545186
-1.7278959 41.57128 2.6154563
-1.501787 41.527756 3.6828065
-1.3891406 41.25731 4.0784454
-1.475208 41.696262 2.4248314
-1.4672897 41.74655 3.2285225
-1.0597157 41.720272 3.7958012
0.39237663 26.221174 -1.2782943
0.3521661 26.049538 0.6298222
0.32342577 26.028046 1.299091
0.25966874 26.867754 -2.4105628
0.29518223 26.415733 -1.7433708
0.17553541 26.754238 -0.3451869
-0.06705189 26.798225 0.63749725
0.023142636 26.616276 1.48009
0.27712572 26.91457 2.4153724
0.25545982 27.357758 -2.6568968
0.060007423 27.606884 -1.686387
-0.32938108 28.044323 -0.11857849
-0.40472674 27.638983 0.4315532
-0.40361527 27.476217 1.3886043
0.08007151 27.284885 2.2950253
0.18109316 28.807455 -1.1197798
0.05907646 28.808397 2.9475582
0.12672207 29.665417 -0.99675655
-0.094807714 29.100655 -0.52111506
-0.4743897 29.802097 1.7166678
-0.35294744 29.087656 2.4628942
-0.23648947 30.220655 6.5340276
-0.01322636 30.043543 7.540628
0.36367574 31.149366 -1.9294777
-0.13416076 31.178047 -1.5108184
-0.15268835 30.717066 3.3531137
0.078259766 30.558922 4.6589894
-0.10685921 30.434523 5.3923163
0.03716722 30.516338 8.47773
-0.30884856 31.806807 7.9508142
-0.16155738 32.742794 7.82946
-0.2975387 35.013756 -2.6526673
-0.1607559 36.15074 -5.2497215
-0.08340964 35.843456 -4.1969104
-0.50067186 35.989594 -3.506711
-0.42525724 35.01777 6.65515
-0.08533195 36.80783 -6.18505
-0.5256134 36.814396 -5.6867075
-0.7286532 36.543102 5.460842
-1.0542635 35.997246 5.91785
-0.3549375 37.5708 -6.238849
-1.0498842 36.85433 5.3743963
0.12000841 38.702106 -6.637799
-0.22491997 38.491474 -6.288518
-0.37393886 38.477764 -2.7327497
0.042921014 38.33152 5.0900965
-0.06465778 39.465454 -6.2034826
-0.42211184 39.619663 -5.5510716
-0.52055275 39.689945 -4.375409
-0.116702765 39.28695 -3.2981958
-0.31615227 38.817547 -2.8056197
-0.29757568 38.605263 -1.3718542
-0.27782255 39.540455 0.022990435
0.13541368 40.023468 -6.0246983
-0.10594529 40.15713 -5.417288
-0.26833278 40.09621 -4.692205
-0.29072052 39.821426 -3.8584986
0.13674776 39.670513 -3.084278
-0.15683061 39.866184 0.4517023
-0.57360137 40.33559 4.6570206
0.38280874 41.129395 0.10179983
0.15406756 41.45697 1.0444058
-0.5247866 41.119328 4.361959
0.017388508 40.841858 4.668873
0.43077672 42.17379 -0.03157042
0.39067578 42.357487 0.7932552
-0.22461572 42.118126 2.5776103
-0.8324946 41.89633 3.5106695
-0.64444494 41.636166 3.9410744
1.2663128 25.344833 -1.9195497
1.0307596 25.356665 0.7516974
1.1507896 25.298895 1.1655468
1.100855 25.96833 -3.068567
0.8021922 25.911627 -2.3220534
0.6452552 25.982708 -1.7373279
1.135059 25.792698 -0.53279686
0.65506613 25.669567 0.730817
0.68376374 25.732231 1.4536976
0.8070502 25.929377 2.122873
1.0919509 26.313995 2.9615517
1.3069847 26.52747 -3.7209313
0.66167104 26.61212 -3.0256605
0.8884088 26.786922 3.1042638
0.57940394 27.495564 -3.166201
0.69340473 27.27086 3.1919956
0.8717278 27.8903 -3.406715
0.9609709 29.24747 7.6925416
1.3707916 29.839638 -5.9330106
1.280892 30.041996 -5.7762384
1.3877228 29.894049 -4.573553
0.87214446 29.86645 4.1588874
0.7429329 29.927366 5.4064884
0.7399044 29.49133 7.525085
0.67199314 29.67088 8.45843
1.0249665 29.714651 9.356053
1.3494362 29.646502 9.846172
1.2629335 30.433908 -5.4574857
1.0577568 30.751862 -4.170138
0.9903151 30.688818 -3.8623507
0.91442025 30.617188 9.417903
1.1242422 30.998138 -5.110741
1.0042672 31.475685 -4.084999
0.85737574 31.153854 -3.2421303
0.55609995 30.964842 8.973567
0.9336877 31.838186 8.937502
1.1390533 35.35616 -4.9567556
0.7859261 35.21123 -3.9651747
0.6231042 34.728992 -3.6656368
1.0219667 34.003155 8.2260275
1.3170427 34.772778 8.978969
0.28892133 36.25452 -5.9804196
0.55939853 35.807823 -5.146924
0.8313203 35.579247 -4.7723255
1.4369576 35.459476 8.635155
1.4401447 35.267822 9.169341
0.60172486 37.01279 -6.7255836
0.31521314 36.59855 -6.3400764
0.98935485 36.78705 5.1892805
0.65687436 37.61032 -6.9372034
[...]
POINT_DATA 3406
SCALARS features_00 float 1
LOOKUP_TABLE default
0.49496588 0.46161413 0.42382506 0.4861171 0.48478407 0.45525277 0.36017555 0.27424347 0.2765034 0.44581947 0.4723425 0.4403782 0.3320294 0.29010436 0.30374363 0.43316305 0.35125133 0.29844224 0.29645604 0.60086536 0.55626947 0.49671924 0.3992517 0.46224502 0.50274014 0.5919634 0.5281264 0.46068913 0.29267144 0.32824793 0.40059432 0.5007973 0.58695686 0.508762 0.45968416 0.36542892 0.2620325 0.25361207 0.29717335 0.36050767 0.47547925 0.44734225 0.48438978 0.2913586 0.31318665 0.38669875 0.38796115 0.32687712 0.33602422 0.31827745 0.36523515 0.3685161 0.3231928 0.3622935 0.40481538 0.27349633 0.3013344 0.3759604 0.4297142 0.45408204 0.4747991 0.43910176 0.45865196 0.46671754 0.46835497 0.51640856 0.519153 0.49750715 0.48443884 0.52961886 0.5212489 0.4231403 0.5067121 0.57788515 0.6218448 0.62320733 0.56481135 0.30888218 0.3895384 0.49939078 0.5589592 0.6274668 0.63949627 0.3392752 0.22837615 0.3686713 0.5745637 0.63149345 0.5892198 0.5198862 0.56583154 0.5614581 0.4975821 0.3885255 0.44012344 0.49975833 0.30853856 0.3335827 0.36099893 0.42803717 0.23138505 0.26158687 0.37436604 0.40575466 0.13063194 0.4542672 0.42500377 0.24220005 0.46753567 0.4471816 0.50531244 0.49762142 0.47037315 0.47417694 0.48628482 0.51689994 0.5247295 0.51359236 0.48010147 0.51244545 0.51684785 0.50363827 0.5496456 0.45169175 0.49966773 0.57164246 0.6148559 0.59073734 0.39406532 0.040664256 0.2851736 0.6451793 0.60464936 0.56724817 0.5686157 0.5302278 0.5269463 0.48629716 0.48668218 0.29323542 0.41932324 0.30918303 0.08342347 0.3839865 0.39696005 0.29782695 0.42712557 0.46017015 0.49323148 0.45942017 0.50225556 0.4984853 0.48512185 0.47074163 0.44426492 0.33333158 0.35431197 0.31770718 0.29965192 0.124051325 -0.03618372 -0.105703175 0.35857612 0.4838481 0.5466194 0.48422632 -0.0690998 0.5382447 0.509673 0.4516846 0.47952875 0.4007281 0.45484972 0.061885957 0.17601047 0.27902237 0.35266456 0.51099956 0.41921848 0.20792718 0.24572092 0.5906278 0.5555115 0.5164485 0.36448407 0.10493852 0.03662625 0.6534335 0.6419375 0.57604074 -0.10784441 0.23990291 0.67821884 0.5817915 0.24003312 0.2841328 0.3802269 0.42229354 0.44543773 0.41841954 0.4052601 0.41381854 0.41155937 0.36711225 0.36418962 0.4367109 0.50068426 0.40869486 0.38442123 0.34936234 0.39912254 0.4857148 0.543436 0.39763105 0.33792722 0.31858546 0.3540457 0.398884 0.49254352 0.20314741 0.2678704 0.03976062 0.22038676 0.13276562 0.22356345 0.14064848 0.31590396 -0.33586055 -0.22335577 -0.16139466 -0.08868399 0.019720508 0.37695593 0.22926034 0.20827058 0.0348184 0.41679758 0.24738134 0.17774749 0.16510952 0.5888518 0.5391737 0.054454923 0.17576088 0.65120995 0.12421772 0.71697295 0.70205903 0.14220196 -0.059802666 0.72313887 0.7005321 0.53120595 0.29357108 0.16066742 -0.13080207 -0.22885203 0.7131187 0.68529046 0.5905819 0.4216916 0.27728516 -0.11721217 0.28460437 0.062370814 0.08609409 0.3130218 0.23685224 0.18240525 0.20627995 0.24991769 0.3410737 0.3235616 0.37286466 0.45944571 0.48540854 0.4244121 0.40204784 0.37833884 0.3534283 0.45763823 0.5176983 0.5522746 0.5411893 0.41632456 0.42813987 0.5426122 0.40135399 0.5250875 0.33291328 0.36577854 0.2992109 0.30271447 0.218247 -0.12846714 -0.026243228 0.33745673 0.43581733 0.47876114 0.48076707 0.3035257 0.24908297 0.20091486 0.39959806 0.3007516 0.27104014 0.14007874 0.30781287 0.027907766 0.25647625 0.18070525 0.11510306 0.17725831 0.31346023 0.49993736 0.34735358 0.27636957 0.2878029 0.33510584 0.62746173 0.57164085 -0.28019014 0.66322285 0.67787844 0.007852711 0.69395256 0.17628297 0.01926414 0.69075537 0.67615485 0.4846022 0.41747722 0.64659554 0.5154929 0.06655255 0.23855804 0.1355183 0.18585224 0.16441649 0.15030427 0.22258031 0.35296428 0.36605054 0.311808 0.2978912 0.14064883 0.44202143 0.42629677 0.46081713 0.4474579 0.36823666 0.28704014 0.54887605 0.5466244 0.48449945 0.4125863 0.5451448 0.5208783 0.42299214 0.40584177 0.3778827 0.36012092 0.41993892 0.48108953 0.49760854 0.41825253 0.4264047 0.4028655 0.51953197 0.51838315 0.4917574 0.37929207 0.4981761 0.4661155 0.26819575 0.45211968 0.47282636 0.26753256 0.1598098 0.35809144 0.3552694 0.44642037 0.48550123 0.49160564 0.3386336 0.32619447 0.2861092 0.48949456 0.4774227 0.43352306 0.37637848 0.3293815 0.42691356 0.35918838 0.31060496 0.23750344 0.2526791 0.1320691 0.13587242 0.2942741 0.2749317 0.2181173 0.18574299 0.32983047 0.32387325 0.3729773 -0.24142057 -0.038792193 0.2705965 0.38143983 0.5342759 0.48635507 0.076863326 0.30256823 0.36767936 0.5692132 -0.2174093 0.2056964 0.3083796 0.4129874 0.6002203 -0.1410473 0.59991866 0.058428764 0.6419352 0.6493509 0.6325644 0.48607314 0.24569419 0.101051025 0.07271222 0.06942873 0.21855281 0.12383662 0.07566922 0.31257933 0.05889947 0.5161344 0.5405514 0.5518812 0.4757638 0.39973545 0.30285916 0.5252001 0.518894 0.50080955 0.47438872 0.46351528 0.4513225 0.44419232 0.4381808 0.41058323 0.42726386 0.43365636 0.4064086 0.34949064 0.4229933 0.32424766 0.39271304 0.33363026 0.48198885 0.4626512 0.073520005 0.4404201 0.41144016 0.3007962 0.27339634 0.13096157 0.146397 0.28585696 0.42348415 0.48879516 0.3639201 0.30669177 0.20411637 0.16278458 0.19367933 0.36001733 0.49560696 0.48593673 0.4386531 0.39330155 0.34072685 0.47393957 0.4550307 0.47455943 0.47993052 0.42030507 0.46969974 0.43949264 0.3561665 0.06697157 -0.029156558 0.25584662 0.21666023 -0.16297445 0.2754931 0.25004977 0.2685088 -0.044896968 0.27821195 0.47241145 0.45159012 0.3238787 0.038761817 0.20563066 0.3319209 0.3943404 0.49964267 0.49097645 -0.31343412 0.17550096 0.3549304 0.4629177 0.4876982 0.48749906 0.5053098 0.3910751 0.45562547 0.5406841 -0.03771981 0.16516018 -0.10189022 -0.26679364 0.04316002 0.09495062 0.0142677 -0.004265573 0.47598648 -0.021607991 0.5255648 0.24775065 0.47231492 0.39577085 0.44123828 0.41618526 0.45553634 0.4397182 0.3679723 0.38492763 0.32298556 0.25606102 0.33834124 0.19017437 0.33932087 0.28573167 0.2624347 0.15215895 0.3119359 0.31444997 0.36253685 0.33974504 0.26275125 0.4036858 0.44413453 0.40606135 -0.36575764 0.45244247 0.44705042 0.46288782 0.45496452 0.4288109 0.49797034 0.5056438 0.3766129 0.48992217 0.4513851 0.40885365 0.33270222 0.21810293 0.14618021 0.18767235 -0.40430406 0.15871787 -0.18019146 -0.103712805 0.36949736 -0.18660074 0.4857682 -0.18679518 0.3086059 0.46981004 0.47726023 -0.06431163 0.38797826 0.43167523 0.4518962 0.46306536 0.26906848 0.063519984 -0.026743114 0.079955414 0.31469035 0.24504866 -0.09759678 0.21512291 0.41877455 0.3732051 0.18182117 -0.18041618 0.15458708 0.22922759 0.22979715 0.4327871 0.38760346 0.13181576 0.22308731 0.09837757 0.3906664 0.020406315 0.117278725 0.1601129 0.36342365 0.20548248 0.32062542 0.28264105 0.28766382 0.350595 0.38233355 0.32138723 0.45210433 0.45524445 0.3887267 0.32305253 0.2162523 0.40516683 0.2693043 0.23661831 0.23947786 0.22676986 0.13765359 0.21371798 0.15499546 -0.04563801 0.004508503 0.36227798 0.33852056 0.011186689 0.022641506 0.18498516 0.26103634 0.427212 0.37622195 0.40822 0.42823404 0.39077982 0.43479955 0.3704055 0.44558188 0.26317877 0.47213787 0.46642405 0.37517855 0.33958942 0.09373746 0.08588523 0.009627994 -0.04617231 0.08532676 -0.02920869 0.22974814 0.08324921 0.38554016 0.34841406 0.0851011 0.04867968 -0.081565455 -0.19322272 0.48978037 -0.112422176 0.4959302 0.51734215 0.037420765 0.3070386 0.40875012 0.46466643 0.49445242 0.22697651 0.1542381 0.082648255 0.18030685 0.35792977 0.4333678 0.33791852 0.35272783 0.21516499 0.40455294 0.461851 0.23217629 0.46101886 0.43897277 0.4267568 0.22374761 0.2262288 0.39297798 0.4093551 0.33276433 0.17608637 0.19896781 0.19141072 0.19494891 0.21335456 0.3775391 0.26816872 0.27190933 0.49284363 0.43476725 0.4623425 0.4879791 0.4769563 0.44166553 0.5370972 0.5276607 0.51491714 0.5238416 0.50608736 0.47828904 0.36107624 0.36996222 0.7496865 0.7497049 0.2679388 0.31512207 0.33758563 0.3407057 0.18827204 0.71327424 0.73107135 0.71556115 0.2009643 0.27955174 0.20442753 -0.12211272 0.24216107 0.11080076 0.6890551 0.68208706 0.6657897 0.6433214 -0.043359905 0.56226826 0.6114376 0.303721 0.3060848 0.013264447 0.028867297 0.02407229 0.47247225 0.3382501 0.028759018 -0.30491954 -0.14499517 0.2734243 0.36139053 0.2327186 0.3636945 0.48559636 0.5465831 0.1510031 -0.0037117824 0.5023994 0.5741384 -0.16283974 0.4204123 0.5188596 0.56363726 -0.034703016 0.39328435 0.032200404 -0.01996091 0.3479315 0.10037494 0.10337929 0.47122264 0.4507361 0.08980572 0.046043295 0.53581977 0.5153871 0.010887347 -0.062925294 -0.008253647 0.50765574 0.3454397 0.41969287 0.26899722 0.17876652 0.40266156 0.18124476 0.4116618 0.4368428 0.16961507 0.20366532 0.3681684 0.3554225 0.3505066 0.29142407 0.22344625 0.17999306 0.38565475 0.24888527 0.23412094 0.4309785 0.33655536 0.3075304 0.5744679 0.43207496 0.3824028 0.59947157 0.60774934 0.5897608 0.54545355 0.51746756 0.47646424 0.5939219 0.5569221 0.32680768 0.34079093 0.33343387 0.33425122 0.36021882 0.3435855 0.23530248 0.744564 0.78036094 0.77988577 0.7211157 0.2765299 0.2514062 0.022463262 -0.10579905 -0.10067742 0.6528027 0.7168035 0.71439385 0.6622737 0.09841321 0.15493268 -0.1851621 -0.14799397 0.42813623 0.61220694 0.5889557 -0.114867665 -0.08914459 0.29489386 0.5693509 0.54920125 0.5478648 0.17040524 -0.014464356 -0.07125032 0.447489 0.51460785 0.22290604 -0.1485172 -0.24525094 -0.122523874 0.21207614 -0.0095961355 0.26942033 0.36808258 0.35821855 0.15990303 0.29593223 0.48027068 0.57781935 0.44366565 0.45017892 0.3563742 0.6135256 0.4270081 0.427272 -0.08675507 0.6391411 0.6566752 0.36385852 0.32605654 0.23590061 0.59470737 0.63411397 0.050890196 -0.12564504 -0.039162528 -0.05388359 0.46624273 0.56018174 -0.07898132 -0.045248054 0.032729797 0.14234342 0.057937667 0.37734133 0.4590462 0.10736852 0.09804478 0.5003997 0.17478302 0.050958693 -0.31366903 -0.02680076 0.5106479 0.527436 0.11825403 -0.07387331 0.0037448257 0.1901134 0.34168208 0.3405351 0.43619213 0.15039764 0.27157524 0.36746144 -0.1160615 0.36892194 0.33306718 0.18460764 0.168147 0.07043692 0.13085683 0.1075463 0.28960282 0.20705356 0.37482512 0.29822078 0.2309379 0.5585756 0.38509429 0.34272283 0.6458369 0.6452676 0.55156636 0.51411885 0.4917084 0.60938203 0.5521278 0.5263233 0.18861148 0.2485277 0.24465492 0.34718713 0.44022822 0.4731148 0.45681304 0.7582321 0.7748295 0.7633047 0.47159564 0.33423474 0.13104086 0.21694285 0.15675122 0.1431031 0.35747916 0.31928194 0.20581296 0.38037562 0.7233168 0.7801863 0.7258314 0.48080465 0.32722315 0.1611724 0.040450893 -0.06830813 0.11823496 0.19960839 0.6453126 0.63935244 0.58464766 0.2401251 0.087115586 -0.28708968 -0.12012513 -0.12466974 0.06706093 0.022959989 0.042223036 0.56235147 -0.16368559 -0.14155117 -0.12713917 -0.05732475 -0.123251006 0.5195119 0.424789 -0.17267548 -0.2299187 -0.009576656 0.15140696 -0.04256197 0.3953064 0.3846778 0.31251246 0.55180836 0.6018697 0.37658435 0.4191556 0.66183037 0.40583944 0.41412902 0.708673 0.3316917 0.30791005 0.7092416 0.19951461 0.384153 0.07882689 0.008526973 0.12078287 0.05529003 0.014929205 0.013560889 0.3162079 0.37040108 0.08948876 0.107898414 0.3597347 0.4104271 0.49321 0.29993626 0.48774958 0.37272972 0.2526384 0.26759383 0.37404418 0.3643337 0.27633438 0.06422691 0.20253056 0.22756532 0.25532126 0.3574965 0.34726548 0.063679606 0.031384256 0.05742677 0.29828882 0.09914325 0.1626595 0.25874805 0.29006752 0.38619715 0.14206786 0.1730512 0.14991443 0.15446535 0.35030442 0.23986915 0.49486548 0.42971072 0.36114717 0.31268838 0.5682626 0.5994915 0.6034461 0.5082717 0.49204522 0.4563651 0.29900634 0.28114367 0.25527355 0.15489389 0.20306031 0.20133406 0.18689683 0.44882578 0.5498966 0.5473525 0.51621276 0.59027433 0.5566143 0.41531238 0.18830758 0.11673918 0.04912125 0.43121904 0.47185272 0.4108944 0.3426261 0.513514 0.50892067 0.70796204 0.715945 0.7053095 0.57210344 0.58544326 0.53422725 0.2868008 0.06473784 -0.079552054 0.29214406 0.45353276 0.45657194 0.41378015 0.6436852 0.6808914 0.6745864 0.5425005 0.54437596 0.11959273 0.35491192 0.25640407 0.04693081 0.44887483 0.61519027 0.5582464 0.47847804 0.4637618 0.31929064 0.49150908 0.46605697 0.3637769 0.15093695 0.101260655 0.42525962 0.49048227 0.46001804 0.37758654 0.23830557 -0.114822745 -0.15566587 0.27803034 0.45293462 -0.13214414 -0.13442808 -0.024403326 -0.15732263 -0.13917027 -0.061121646 0.31748816 0.2600026 0.48312634 0.5750877 0.32504725 0.62040865 0.28174525 0.6678158 0.21584132 0.27188757 0.7015648 0.18418369 0.19103172 0.30346674 0.5945039 0.18232626 0.16018666 0.12917082 0.1413516 0.102190346 -0.011028688 0.07887703 0.082467 0.35041282 0.34609348 0.24690267 0.46863282 0.4224146 0.3589641 0.41270268 0.46632773 0.42100337 0.17612751 0.4263518 0.18247622 0.16161951 0.15978107 0.095097825 0.14543825 0.18727238 0.40463445 0.38943905 0.29687297 0.1512256 0.00034336746 0.016359821 0.012763619 0.025471956 0.10594778 0.26788533 0.1882747 0.3392908 0.36680448 0.417212 0.052993108 0.15679538 0.23514086 0.26747048 0.08066757 0.3102759 0.42269075 0.31248626 0.21469033 0.2985413 0.43758124 0.32942063 0.30564696 0.26790455 0.3119265 0.33020124 0.32145974 0.30667543 0.24128251 0.2564395 0.18139836 0.48917347 0.5657377 0.5685774 0.5287509 0.5522327 0.5656936 0.51446074 0.3669321 0.44492042 0.52584547 0.5386891 0.51125205 0.659336 0.6789632 0.6753421 0.5422355 0.4332894 0.34165064 0.6385572 0.6460682 0.6273904 0.4985299 0.51036906 0.4405864 0.46505046 0.40725046 0.5242741 0.4988264 0.29765737 0.5308653 0.5118473 0.107425585 0.49548078 0.47226095 0.28877538 -0.0034069866 -0.16999236 -0.12246669 -0.04198028 0.049251735 0.14234012 0.38142803 0.50143206 0.13393515 0.5481849 0.57230794 0.6367773 0.20665184 0.47489458 0.6714245 0.19125326 0.23482844 0.20488021 -0.2775294 0.13764565 -0.094100244 0.012827933 0.39594308 0.13533048 0.49978727 0.49640903 0.12329823 0.2058213 0.483466 0.13287841 0.10858166 0.4559368 0.43913585 0.16461365 0.17591919 0.15416774 0.3819063 0.3462681 0.031042159 0.27150792 0.13800326 0.13294078 0.16474606 0.23008968 0.08088918 0.21949948 0.31234604 0.4300661 0.34824073 0.07096468 -0.5047107 0.2875097 0.26372582 0.12050086 0.35889357 0.3512618 0.28715593 0.27598247 0.38168755 0.4308043 0.29177088 0.27734402 0.28215235 0.32047984 0.3127331 0.29310668 0.2719362 0.2221773 0.26724222 0.2913859 0.31311983 0.17697628 -0.017929599 0.1889123 0.2613627 0.09334048 0.48143518 0.5116306 0.48839244 0.47320578 0.4421928 0.39540276 0.4703203 0.5190127 0.46750665 0.06836818 0.55450743 0.5311099 0.38769272 0.407875 0.3781243 0.4542935 0.4268078 0.15043204 0.301713 0.1931388 0.5518744 0.025552832 0.5643029 0.5231919 -0.052562203 0.5571399 0.5273066 0.43461427 -0.08247566 0.33678573 -0.046893176 0.44142184 -0.008588748 0.3479249 0.13911518 0.1407347 0.5717864 0.3371929 0.19076626 0.3282123 -0.34267798 0.33404642 -0.18446362 0.08649348 0.36699182 0.57948244 0.36412272 0.5588219 0.16671398 0.31717518 0.37053108 0.531816 0.4874679 0.07036422 0.10852698 0.33398956 0.45008487 0.41413108 0.11455476 0.15159814 0.3700918 0.32118317 0.20819244 0.121780425 0.14140625 0.14755648 0.056317687 0.22250897 0.26840973 0.36562097 0.1415157 0.33755594 0.32272768 0.18389909 0.39480624 0.26995772 0.29762363 0.33530602 0.25043705 0.3958162 0.5219645 0.5244985 0.47224945 0.5255625 0.5662006 0.5686703 0.22524919 0.2876302 0.29708534 0.2855171 0.24499053 0.22093886 0.16728868 0.13935417 0.22376272 0.2537096 -0.06634993 0.19251013 0.22545102 0.33135882 0.42649525 0.42376876 0.30810934 0.3498644 0.34666362 0.4337073 0.36374605 0.34523046 0.20201449 0.23857477 0.27657104 0.10527202 0.17791215 0.20791289 0.31862158 0.35100603 0.23518816 0.40722477 0.34514305 0.12157444 0.24096742 0.51762456 0.5518981 0.5487261 -0.014718041 0.5725409 0.57297623 0.0028416365 0.57385164 0.5437359 0.5005439 -0.029172547 -0.291064 -0.19001037 -0.06697979 0.3260564 -0.28337842 0.37873238 0.23204862 0.39779642 0.4552204 0.39276654 -0.46635818 -0.3497386 0.55271494 0.5872233 0.57815766 0.41192177 0.38091192 -0.2559758 0.35904697 0.57897866 0.59955615 0.5846019 0.4426611 0.37904677 0.033306435 0.56678957 0.50927633 0.45034057 0.5535726 0.51278186 0.44529444 0.5065428 0.479003 0.44703847 0.2235306 0.34808362 0.4744439 0.52536875 0.3878237 0.0838445 0.07735042 0.25609288 0.3452099 0.0075853616 0.26698327 0.032118 0.021693423 0.10944107 0.3296128 0.39103 0.50287867 0.21575435 0.24127236 0.48734075 0.759706 0.75066876 0.54886293 0.3228545 0.33513805 0.25610933 0.2739164 0.5921972 0.5781071 0.82523096 0.82224905 0.7433295 0.5190285 0.6017564 0.62202287 0.6080342 0.2591984 0.37852252 0.41874126 0.19548307 0.2510616 0.2596156 0.33972305 0.21902923 0.2614288 0.1999684 0.2332077 0.076938234 -0.0073352456 0.281265 0.10978775 0.04617907 -0.0135756135 0.1854198 0.03534302 0.07335157 0.2450253 0.3704504 0.38374072 0.3778621 0.24928515 -0.060142502 -0.031439498 0.34917197 0.39966822 0.40199786 -0.111437626 0.36755723 0.46025425 0.2881298 0.2630316 0.5278621 0.4703071 0.5522808 0.57642674 0.56887114 0.04700689 0.5283909 0.020677224 -0.14919417 0.47749472 0.18135954 -0.35261455 0.4960159 0.4623025 -0.46147996 0.38403082 0.4664396 0.45539093 0.47664797 0.4560693 0.32266062 0.3637796 0.37379038 0.44049147 0.4203161 0.16425988 0.4555405 0.4588006 0.44575605 0.42864844 -0.16143298 -0.07412802 0.5237718 0.48052037 0.46062928 -0.24952091 0.55961883 0.5210349 0.44745016 0.5023822 0.5214989 0.49273008 0.32788935 0.440878 0.29607716 0.4296374 0.40910682 0.5587317 0.5407679 0.41332 -0.08263871 0.2959636 0.37426051 0.50539464 0.5558679 -0.030194392 -0.058193564 -0.06421709 0.010215757 0.1269524 0.27555192 0.41503656 0.5118616 0.09420588 0.12665376 0.10805783 0.22692546 0.49291655 0.5982951 0.5632868 0.70412934 0.26767194 0.039290875 0.14740792 0.5927826 0.7891643 0.45001772 0.3210288 0.33397648 0.24252987 0.6404948 0.63364947 0.6092338 0.8750789 0.8495376 0.7780089 0.5279262 0.5430975 0.6132916 0.6425365 0.63364315 0.8992492 0.8726263 0.82438457 0.67793465 0.4471954 0.53391874 0.53420734 0.5410194 0.2706228 0.31261984 0.44880867 0.47050583 0.49632254 0.17931736 0.21910483 0.40000832 0.46862292 0.18003967 0.37992465 0.17071325 0.1807355 -0.13487588 -0.17566743 0.15270841 0.2864983 0.3844158 0.42782372 0.41340113 0.41275057 0.21174717 -0.026153505 0.048941165 -0.036313456 -0.056349196 0.041941218 0.07598986 0.4277982 0.43204176 0.36459613 -0.4311866 0.42205304 0.40714774 0.40972555 0.3523084 0.46844712 0.424861 0.24176306 0.47656524 0.4473256 0.12220546 0.07246423 0.0751011 0.0046796426 -0.12014074 0.481139 0.4181478 -0.19939873 0.39829487 0.37493527 0.51191676 0.37799177 0.3820582 0.34896374 0.34239516 0.50791717 -0.45672077 0.31522405 0.35515535 0.35519928 0.47601205 0.41829467 0.47291666 0.48897305 0.46506044 0.48815915 0.5064162 0.52983403 0.53624547 0.566715 -0.099465296 0.4930907 0.5484876 0.4216357 0.40953732 0.48458612 0.57514083 0.5190767 -0.05409812 -0.43030673 -0.075503916 0.5570415 0.6135047 0.2340781 0.13092507 0.26290408 0.37533307 0.4646541 0.56242394 0.22363561 0.23309697 0.3665725 0.55127054 0.6059114 0.19224398 0.16190325 0.09225308 0.48864567 0.63254684 0.6247399 0.84697807 0.31108794 0.2435822 0.42239362 0.594944 0.6276948 0.6374371 0.9192461 0.62560415 0.51590496 0.61973375 0.94078964 0.9302033 0.902627 0.8220228 0.67966115 0.91575885 0.8914386 0.8409523 0.46807888 0.5804585 0.6074122 0.58318883 0.5747814 0.6040814 0.31928694 0.3181361 0.3738412 0.5523091 0.5788449 0.2539397 0.27160883 0.53628075 0.43365836 0.32618618 0.391814 0.20906875 0.024639089 0.33527488 0.18268584 -0.39182776 -0.030780569 0.0997463 0.17780939 0.1740455 0.2389214 0.37971818 0.44087252 0.4205066 0.07923621 -0.032835808 -0.30030537 0.023246277 0.10886642 0.42447478 0.44444895 0.25870097 -0.049752235 0.43101656 0.4205857 0.39068466 0.38420045 0.368473 0.26746666 0.33749157 0.23169607 0.29248303 0.13113995 0.21861042 0.014957041 -0.19098389 0.18772991 0.26651847 0.1310595 0.25268775 0.33276215 0.5126259 0.33713144 0.33792263 0.5046613 0.37098464 0.4551221 0.43404797 0.4675695 0.48819464 0.49178758 0.51439494 0.53919756 0.5028274 