# vtk DataFile Version 2.0
Really cool data
ASCII
DATASET POLYDATA
POINTS 4291 float
3.3785117 42.850914 11.754077
3.3773558 42.781487 12.062372
3.3949046 43.576176 11.053421
3.2208705 43.749226 11.612079
3.3112702 43.712776 12.357543
3.2340379 44.648617 11.158185
3.1069274 44.66841 11.569715
3.1063004 44.757557 12.318133
3.2697003 45.0245 12.79036
3.268476 45.379395 11.068882
3.049843 45.47067 11.5894165
3.0322614 45.45763 12.253529
3.3003185 45.93579 11.057112
3.1513653 46.148865 11.675436
3.21229 46.148273 12.455722
3.4255798 46.968254 12.165579
3.3944337 49.759926 15.3488
3.2804718 50.00511 16.224548
3.3314133 50.492397 14.419353
3.0872767 50.606323 15.6358385
2.956667 50.716206 16.454987
3.0878532 50.909046 17.167889
3.452227 51.728226 13.922041
3.328615 51.47036 14.584534
2.8739886 51.54273 15.706111
2.765825 51.47473 16.51999
3.0096688 51.435688 17.252289
3.3175442 51.371113 17.835196
2.997645 52.21169 15.727883
2.8991385 52.187466 16.51592
2.9775379 52.152763 17.03921
4.2498903 37.08686 3.969229
4.1089377 36.873455 4.7153845
4.0432615 36.99272 5.3711905
4.0570364 37.665127 3.9126592
3.7786183 37.625904 4.5639935
3.7733996 37.585926 5.4092646
3.9551322 37.663506 5.9524245
3.9687912 38.437416 3.930166
3.7100134 38.40162 4.611944
3.7198784 38.30262 5.313933
4.0092974 38.238503 6.1020956
4.135321 39.142197 4.0353847
3.9642954 39.126534 4.624302
3.9204037 39.00896 5.1581388
4.320166 39.997303 11.986319
4.482379 40.071884 9.557844
4.328688 40.862625 11.485675
4.0843267 40.62073 12.79737
4.186734 40.54995 13.353941
4.2841024 41.0008 14.135267
4.4239125 41.162857 9.969977
4.2329683 41.900818 10.596525
3.7613015 41.762787 12.579395
4.123493 41.228992 13.75385
4.1501637 41.75307 14.0820465
3.9469643 42.716473 10.707436
3.6618037 42.267975 11.694371
3.8623226 42.56567 13.411061
4.2944555 42.456688 14.272175
4.361485 43.76786 -6.341969
4.3912807 43.52963 -5.5047865
3.9648187 43.66425 10.354341
3.7411616 43.53023 10.69744
3.4962041 43.774914 12.697175
3.749015 43.457634 13.020977
4.3311253 44.342392 -6.328801
4.3157554 44.297062 -5.7142906
4.048693 44.407825 10.30665
3.545984 44.921238 10.7641945
3.9084163 44.621655 13.310403
4.428665 44.849224 -5.673016
3.4805136 45.630512 10.866343
3.5951333 46.234417 10.974645
3.4712195 46.43251 11.306468
3.4786782 46.51095 12.654512
3.8258824 46.82773 11.043767
3.776166 47.398705 12.017034
3.6993742 47.16128 12.539956
4.0652866 47.830307 12.891038
4.236927 48.236534 15.560271
4.274079 48.203613 16.25275
4.219586 48.54195 11.7399845
4.0367236 48.243984 12.312587
3.905456 48.891747 14.913299
4.022525 48.50362 15.727935
4.090572 48.779602 16.57077
4.2051606 48.789116 16.87574
4.3784037 49.606903 11.805352
4.0694375 49.98701 12.571716
3.9849508 49.41278 13.691033
3.8020728 49.45376 14.829709
3.4986696 49.88886 15.79196
3.597793 49.48051 16.264217
4.070195 49.590267 17.371592
4.092424 50.396324 12.107852
3.8154688 50.524124 13.0383
3.5754876 50.833088 13.545114
3.5016923 50.188786 14.318533
3.4951756 50.46852 17.326435
3.9660466 50.69607 18.100615
4.445798 52.11961 8.040529
4.4144015 51.9033 8.504471
4.4016128 51.49431 12.079855
3.941411 51.506516 12.972866
3.570971 51.248787 13.612444
3.6832907 51.410378 18.158651
4.385774 52.744755 7.7747083
4.369056 52.575104 8.195212
3.7647324 52.206738 13.425685
3.4887872 52.2438 14.280695
3.6986132 51.96206 18.260439
4.4011545 52.74394 19.645433
4.478571 52.812805 20.072447
4.3981056 53.20322 7.7751517
4.3152146 53.146904 8.193954
4.3608866 53.531586 13.182868
4.150977 53.35717 13.590982
4.053444 53.452473 14.230417
3.8331573 53.15954 15.412871
3.7407296 53.26524 16.569313
3.97669 53.370556 17.10642
4.387234 53.802025 13.831844
4.3402057 54.086353 17.612059
4.3708844 54.24462 18.529964
4.4187737 53.938652 19.266424
4.421969 54.99962 18.283491
5.0025644 36.209217 4.7109876
4.9775033 36.11531 5.359482
5.00938 37.085827 3.3924885
4.6674833 36.866035 3.7345405
4.480917 36.60657 4.416554
4.56855 36.522297 5.4099092
4.569994 36.779594 5.9640827
4.7564063 37.615883 3.286184
4.525237 37.38407 3.4624205
4.8884172 38.4527 3.2518754
4.400547 38.38946 3.483397
4.3889794 38.513855 6.418756
4.7616515 38.29379 6.8246036
4.9105635 39.20165 8.760765
5.2806096 38.6765 9.371391
4.927232 38.825687 10.179093
4.775853 39.04262 11.392414
5.1459265 38.758995 12.483035
5.0904512 39.066746 13.605622
4.576743 39.258213 3.7328312
4.6242485 39.34285 5.72878
4.790437 39.365013 6.388892
5.080768 39.620842 7.878101
4.767355 39.70981 8.50824
4.790149 39.225677 9.254068
4.534054 39.431576 10.326557
4.572961 39.72695 11.580058
4.584431 39.600327 12.607507
4.5321007 39.70782 13.031346
4.9102044 39.70713 14.359442
5.258399 39.744595 15.561126
5.277718 39.911762 15.92986
5.03241 39.933533 3.938957
4.995575 39.994137 4.742342
4.744625 39.886635 5.286629
4.5434384 40.568893 9.525211
4.526935 40.444168 14.36484
4.7898016 40.57458 15.209445
5.1594615 40.705215 16.149227
5.237116 41.010464 7.644976
4.8757234 41.1992 8.7733965
4.5060134 41.542694 9.924043
4.5769744 40.99922 10.261131
4.66696 41.82316 15.404779
5.369981 41.28728 16.588644
5.151488 43.077545 -6.9412823
4.824031 42.936844 -6.3484426
4.82201 42.7717 -5.474446
4.904857 42.902065 -4.8520145
5.1746793 42.135128 9.166226
4.8455453 42.659657 15.397606
4.968118 42.377754 16.31132
4.8556843 42.89219 17.64844
4.970228 42.971252 18.305336
4.856912 43.702682 -7.04657
4.537727 43.48764 -6.5797043
4.471274 43.25682 -5.330881
4.7801147 43.538464 -4.670375
4.672934 43.490192 10.008407
4.949636 43.33606 15.443449
4.8587503 43.47954 16.753922
4.6713853 43.550644 17.492289
4.8312902 43.586536 18.4518
5.2307787 43.624847 19.318918
4.779012 44.34234 -7.0070024
4.495111 44.49445 -6.6895504
4.559622 44.291794 -4.998203
5.0475435 44.272488 -4.134058
4.5245667 44.507282 10.076337
4.477065 44.70251 13.648903
5.3192525 44.34732 15.549379
5.321993 44.939617 16.220446
4.703286 44.35911 17.615002
4.8116198 44.35569 18.396574
5.1152887 44.461327 19.264917
5.3778486 44.432213 19.766254
4.920072 45.09335 -6.759425
4.792204 45.154324 -6.3303103
4.7832465 45.41339 -5.564174
4.6825166 44.989002 -5.0942206
4.8495736 45.28285 9.995536
4.7671237 45.640762 13.683354
5.2884846 45.53965 16.714958
5.018842 45.26455 17.687685
4.9743633 45.23277 18.435604
5.1926017 45.299458 18.948143
5.069814 45.840137 -5.5177703
5.2966022 46.084713 -4.7063766
4.9305983 46.221615 10.238789
5.354942 47.069027 15.855531
5.2257466 46.132847 17.494572
5.2351975 46.160736 18.430338
4.7592134 47.395874 10.741887
4.6263423 47.75801 14.263111
4.614613 47.942413 16.501492
5.4270535 47.25122 17.82614
4.6355023 48.70545 17.159767
5.252281 50.28911 8.304425
4.6452255 49.425903 11.114773
4.99886 49.170296 17.567041
5.3708363 51.05175 7.1868286
5.083915 50.85902 7.7103343
5.0153728 50.46657 8.436535
4.7760415 50.89876 9.289877
4.536912 50.411285 11.273105
4.3769646 51.04448 18.466145
5.249147 51.331142 7.285702
4.649285 51.81372 7.7420425
4.568528 51.639435 8.616554
4.685014 51.836468 9.29042
4.836279 51.056946 10.588675
4.543428 50.913002 11.233775
4.675779 51.283768 18.8298
5.052911 51.754303 19.935879
5.2589593 52.227875 21.048576
4.7892246 52.83276 7.091774
4.5139146 52.6297 7.535074
4.795392 52.53695 9.525627
5.18184 52.493725 10.082548
5.105656 51.86907 11.350411
4.672982 52.722782 20.538294
5.048876 52.613678 20.977531
4.832916 53.276077 7.0805106
4.546399 53.370956 7.513186
4.508677 53.575623 8.319773
4.7127748 53.453606 8.907662
5.2996144 53.041634 10.100365
4.3683968 53.511276 15.185737
4.576949 53.28837 20.30651
5.008894 53.340702 20.93756
4.8643546 54.004757 7.740138
4.8649254 54.062183 8.312857
5.090972 53.937046 9.093097
4.7601666 54.064205 13.477944
4.628315 54.17943 14.384049
4.6049747 54.53269 19.346684
4.899506 54.111702 20.253016
5.319606 55.07316 16.146198
5.2858877 55.65867 16.744604
4.7574058 55.357716 17.678596
4.640383 55.282364 18.341145
4.980035 55.232548 19.188921
5.3163166 55.75459 16.949282
5.1363635 55.85231 17.492973
5.1252527 55.829643 18.408726
5.1492968 55.68028 18.866095
5.9765124 35.35464 5.0653396
6.053086 35.325935 5.244875
5.4593034 36.224564 4.068362
5.7354918 35.710415 4.705147
5.6834164 35.601433 5.3415956
5.767423 35.92898 6.4614005
6.07173 35.72685 7.1639915
5.8150263 36.965786 3.3938417
5.4419627 36.559322 3.7100308
5.7198706 36.516678 7.0041294
6.364311 36.59591 8.445833
6.141286 37.026123 11.487906
6.212069 37.191162 12.12277
5.159745 37.701984 3.201203
5.859956 37.831345 8.89264
5.6461434 38.029385 10.059803
5.487568 38.23069 10.206398
5.6887474 37.640247 11.606929
5.6962147 37.719315 12.2206135
6.2564 37.79425 13.847305
6.1992383 38.102596 14.400752
6.2691836 38.33646 15.529086
5.7114477 38.42926 3.2087834
5.4975386 38.420162 13.527711
5.865486 38.66447 15.477531
5.9836893 38.8946 16.082458
6.4066863 39.061474 17.37489
5.66587 39.539875 16.230982
6.080599 39.784813 17.458267
6.257375 39.513756 17.98897
6.0889726 40.996082 2.4356651
5.5821743 40.121643 4.7161093
6.332134 40.315453 18.165363
5.6384635 42.338917 -6.1397476
5.373563 42.365635 -5.5471845
5.6161904 42.37368 -4.9746814
6.0010448 41.645535 2.1672585
5.734974 41.84124 2.6621974
6.430625 41.502316 5.3207045
5.6018863 41.38291 7.7915773
5.506728 41.148407 17.133358
6.0628886 42.101196 18.91686
5.690196 42.833298 -7.0204735
5.555348 42.560097 -6.564232
5.48768 42.745586 -4.5492115
6.138022 42.32105 1.8537965
5.7075768 42.622417 2.8199403
5.6392508 42.37671 3.1761088
5.9047866 42.520664 4.3243775
5.6145244 42.53597 9.221518
5.4703045 43.166584 19.522558
5.977979 43.010662 19.910044
5.5091915 43.723366 -7.3896146
5.5258546 43.482613 -4.0258627
6.148655 43.25604 2.1330473
5.990295 43.413837 3.3773334
5.981573 43.164715 4.3290014
6.4115715 43.564728 5.393027
6.175441 42.80271 8.583743
5.606305 43.393234 9.544314
5.7182736 43.734882 20.03908
5.5054436 44.303486 -7.3948693
5.5928555 44.568516 -3.6988153
5.5743384 44.207027 14.872594
5.689077 44.822872 15.055106
5.4495196 44.620857 19.698065
5.73415 44.357788 20.082647
5.6995244 45.37105 -6.931668
5.5386543 45.58288 -3.800255
[...]
POINT_DATA 4291
SCALARS features_00 float 1
LOOKUP_TABLE default
0.37724215 0.36018032 0.42483866 0.464864 0.43436426 0.48417932 0.50355595 0.51228285 0.49756408 0.48354304 0.50191927 0.50857115 0.4740308 0.4745158 0.4639377 0.3880352 0.31610072 0.37627771 0.30328596 0.39777315 0.45608938 0.45365846 0.28859913 0.34195316 0.4599159 0.5073428 0.48456934 0.41892755 0.46731895 0.51977366 0.5225749 0.71691346 0.7019994 0.6983483 0.775051 0.8075584 0.76894796 0.7060246 0.8003576 0.8227365 0.7653722 0.6665692 0.7690184 0.75217605 0.7151191 0.22116303 0.22626789 0.21975955 0.23436928 0.23744103 0.21807396 0.21511093 0.20429224 0.251371 0.21906519 0.17818722 0.28788155 0.29492143 0.20817323 0.103138484 0.8973981 0.87158406 0.33628556 0.3776706 0.3931573 0.2977312 0.86675215 0.8486918 0.35554278 0.44481525 0.33994025 0.81180656 0.45471972 0.4430099 0.45153254 0.41364014 0.3968284 0.31732565 0.3248845 0.12630324 0.21349335 0.24278139 0.080097646 0.09888098 0.23483181 0.252451 0.30190614 0.30362982 0.0021142904 0.06739406 0.14780885 0.26692516 0.34121245 0.33451545 0.34170437 0.05410778 0.16576271 0.23199064 0.2806571 0.39794987 0.30835038 0.46310353 0.43945605 0.10968947 0.19072905 0.24767381 0.36208805 0.54381883 0.518409 0.2597284 0.3252295 0.36747015 0.5185399 0.6063875 0.5997009 0.57425344 0.2570929 0.27747053 0.2913261 0.31983733 0.34463686 0.34706777 0.25768253 0.36441198 0.4722603 0.57055223 0.51791424 0.53575474 0.47755456 0.6221906 0.6521485 0.6376258 0.5610285 0.5424775 0.6717693 0.6956137 0.6595093 0.7368797 0.56624156 0.41347423 0.17035308 0.14992686 0.1802302 0.18518066 0.18174611 0.2322186 0.7225618 0.5747405 0.40377194 0.121608526 0.19655362 0.18832293 0.22440799 0.21502191 0.22195432 0.23367685 0.24046654 0.21265867 0.19058153 0.6042879 0.5775366 0.5561805 0.23498076 0.22799538 0.20767027 0.16697523 0.17127453 0.2114055 0.2002609 0.21338418 0.15290481 0.13816951 0.8865669 0.9020833 0.8654406 0.8323331 0.114033245 0.08203122 0.116277486 0.26791415 0.3858632 0.90432703 0.91300774 0.86701417 0.8143952 0.19824296 0.02686515 0.15635276 0.28346264 0.4457993 0.52214974 0.8836119 0.8675817 0.81537974 0.7743868 0.26948482 0.12149401 -0.016070912 0.046205014 0.32971495 0.4474384 0.5160771 0.53256685 0.8115723 0.78887856 0.74202085 0.7787298 0.24952497 0.089844055 0.11054174 0.3491662 0.4468157 0.4807728 0.6751183 0.6334099 0.28364846 -0.0638628 0.2844594 0.4236626 0.28456166 0.016418532 0.18519534 0.22577235 0.25742435 0.26992232 0.021382399 0.25627434 0.27751368 0.30762312 0.30193824 0.27615476 0.009869635 0.2674927 0.31917912 0.41546693 0.40599817 0.38626903 0.038673304 0.02030062 0.3071463 0.5123681 0.6924752 0.54025126 0.5229875 0.43801785 0.30595526 0.017216533 0.6799983 0.7300746 0.61052585 0.6254698 0.6132118 0.56485486 0.3654739 0.25134006 0.7051875 0.78114796 0.68370926 0.66317356 0.57612586 0.227368 0.22888722 0.6016679 0.72655284 0.30182123 0.42469645 0.50805867 0.5551269 0.61011946 0.4623695 0.5355651 0.5964072 0.6079134 0.3682621 0.35390866 0.50210243 0.42483056 0.39004374 0.31665695 0.20232171 0.51970243 0.53788793 0.21896687 -0.0038506202 0.083988324 0.11540991 0.6201911 -0.005728569 0.08104723 0.11187711 0.10754747 0.13422576 0.13029326 0.1680736 0.18240356 0.5166256 0.19899583 0.20073509 0.18460745 0.2258036 0.17905453 0.17825185 0.24072085 0.19121203 0.4329845 0.18640636 0.7597064 0.8016263 0.76725286 0.23833004 0.31133622 0.03464523 0.09794779 0.11567297 0.25586784 0.81337786 0.7994147 0.7819258 0.23000033 0.32911777 0.34328705 0.1834611 0.047817472 0.51205623 0.48994595 0.8665724 0.7427889 0.22674212 0.24295455 0.13668178 -0.069335155 -0.12819602 0.044530336 0.53886855 0.8541447 0.72055864 -0.11611278 -0.14478362 0.52516776 0.52466613 0.7458682 0.6934034 0.65897775 0.22635952 0.1633694 0.040003058 0.12931748 -0.16096097 0.48406786 0.4836009 0.6520746 0.61169016 0.60044134 0.5948647 0.37043583 0.35457283 0.21842623 0.17407328 0.1475525 0.086693995 0.067556635 0.08480942 0.16573478 0.43502566 0.5528643 0.55553555 0.42703456 0.37178677 0.30707064 0.19411388 0.16552179 0.1293698 0.13224667 0.12753828 0.38411042 0.44569927 0.42340234 0.33509237 0.19516183 0.1442652 0.12429507 0.1253295 0.12399335 0.14830795 0.09805173 0.1704474 0.19196759 0.20426619 0.21610573 0.37205243 0.2736532 0.49926975 0.5953283 0.66683143 0.7621863 0.55454826 0.11970902 0.7967739 0.66538304 0.68897223 0.6443891 0.5765368 0.19727558 0.18132989 0.23388809 0.76943034 0.665689 0.64822257 0.5822473 0.1859495 0.27662832 0.6110918 0.6301391 0.420321 0.5367801 0.6031156 0.599114 0.31971884 0.29003173 0.29700243 0.26600716 0.1741896 0.11377615 0.35780793 0.32451588 0.17303921 0.046088092 0.042493366 0.08154036 0.119901 0.1305529 0.33760792 0.04324482 -0.0030786693 0.05107723 0.11353891 0.08645318 0.44815707 0.0848109 0.17806175 0.18288523 0.35438308 0.44318584 0.5109172 0.430983 0.21091884 0.36675152 0.47064164 0.522624 0.17088892 0.25166297 0.39498192 0.44932786 0.13021123 0.4115759 0.6333337 0.63282907 0.6064874 0.19243276 0.07834428 0.024272986 0.18785736 0.34031647 0.6898618 0.24774587 0.23211914 0.15096487 0.1407454 0.1677834 0.75768256 0.77046895 0.19635361 0.17260502 0.06547644 0.101169184 -0.17751344 -0.39455917 0.47895795 0.39671165 0.7636478 0.20472735 0.014731683 -0.0026378073 -0.15340893 0.4553339 0.4163672 0.6319162 0.585334 0.296671 0.25042516 0.0620277 0.07691633 -0.04603702 -0.13389914 0.42721808 0.56943965 0.5187372 0.1683149 0.3786772 0.38799977 0.42239445 0.55071807 0.5348888 0.5250444 0.43702847 0.44725138 0.032183163 0.32423165 0.46712327 0.46187142 0.44722146 0.44969437 0.4258271 0.37913567 0.1683734 0.11317043 0.38455072 0.2434679 0.17193148 0.5027327 0.25511718 0.27590227 0.53070396 0.63943905 0.27761635 0.2819395 0.72828233 0.38256133 0.77631867 0.51050466 0.18340755 0.12373695 0.5790994 0.70180017 0.54498106 0.58562547 0.5591172 0.5060899 0.12687373 0.12224622 0.18157804 0.4864657 0.51066965 0.20959556 0.37683913 0.42540923 0.56132376 0.5826067 0.48666376 0.19918025 0.2652323 0.19353208 0.1376169 0.111325935 0.18040696 0.22220084 0.12581402 0.118604586 0.13943328 0.15070911 0.19642006 0.16011922 0.12600717 0.10714954 0.2157193 0.07758541 0.041119806 0.6183493 0.062857956 -0.0056173056 0.11887102 0.38574088 0.5060246 0.57320094 0.6123117 0.57847476 0.5569707 0.053928014 0.5141884 0.5035108 0.13125938 0.0977834 0.0030092318 0.44171968 0.39474133 0.4534699 0.05643256 0.15425095 0.17492941 0.15655933 0.35659245 0.50663054 0.54288787 0.28928953 0.35135996 0.504333 0.28454208 0.5796245 0.5712284 0.40987113 0.3208939 0.38951263 0.30589265 0.47177792 0.45917243 0.4263004 0.16987725 0.4513064 0.4435734 0.3750394 -0.17301084 0.32255262 0.3291419 0.2625064 0.26718876 0.27662936 0.2582886 0.5913236 0.44375306 0.36257452 0.40838444 0.501793 0.46613663 0.37553054 0.17472093 0.08464751 0.092229 0.10830739 0.406399 0.4559718 0.4391932 0.09079789 0.11196527 0.33257043 0.41984943 0.49222487 0.4563458 0.3751552 0.42994267 0.4364838 0.1840517 0.14468177 0.27287546 0.2918945 0.11129999 0.18445489 0.19580786 0.16185665 0.15601279 0.12761687 0.12666273 0.1512146 0.12438539 0.13202973 0.103857085 0.1324739 0.09152724 0.09343517 0.095662266 0.08988184 -0.111836895 0.57862025 0.6296946 0.6332731 0.4188941 0.3901556 0.26752758 -0.02338256 -0.16371259 0.17173891 0.6214864 0.59906495 0.38182694 0.27600926 -0.041958686 0.54067516 0.033025995 -0.18634921 0.47082847 0.4597314 0.041578416 -0.07090156 0.3967418 0.4392773 0.076740906 -0.014730148 0.34538388 0.1572354 0.18377288 0.33656877 0.08732282 0.095200986 0.28007877 0.13794908 0.091114216 0.1209988 0.36634296 0.3115604 -0.28883183 0.3343015 0.27742547 0.26886582 0.21944697 -0.120215304 0.16583133 0.138524 0.012169592 0.23676239 0.20518997 0.23163547 0.3491687 0.254449 0.38357884 0.25805578 0.4290411 0.3420754 0.23466823 0.16847186 0.26409984 0.23624799 0.1549119 0.10343678 0.12867337 0.11992344 0.27728975 0.39648739 0.50053203 0.5043349 0.459999 0.22761178 0.37671977 0.44241595 0.46024132 0.3784305 0.102200955 0.13508055 0.1695787 0.09469228 0.0753526 0.11214976 0.0484762 0.19027387 0.17225777 0.13568258 0.06614113 0.37890962 0.2534427 0.14747328 0.07772237 0.44562352 0.4230162 0.40399772 0.15708742 -0.114432245 0.42485303 0.53868693 0.5678674 0.44407183 0.4405282 -0.2175104 -0.341996 0.13114886 0.5448389 0.51875764 0.38317263 0.4724489 0.22773835 0.44738498 0.422242 0.23740382 0.19765115 0.352221 0.114206284 0.13255088 0.1133883 0.07892772 0.13660157 0.13685691 0.08576228 0.15848361 0.16529152 0.6748616 0.5536252 0.16365252 0.727733 0.5547806 0.18572323 -0.39127877 -0.09925981 0.7019607 0.62833464 0.42471033 0.26290974 0.3928436 0.27726108 0.30715337 0.33634043 -0.29452443 0.32646808 0.15705718 0.20354345 -0.17450608 0.18911967 0.15537216 -0.086273514 0.14800133 0.16268182 0.17527553 -0.048782475 0.0413682 0.09022256 0.1553526 0.15614812 0.31769714 0.19251926 0.21816197 0.19980335 0.018708073 -0.076999925 0.20987555 0.1823138 0.11922716 0.053093128 0.11660981 0.057543818 0.4368811 0.63396215 0.29094464 0.3666882 0.5358504 0.51794 0.43570042 0.1329529 0.35014006 0.3166225 0.09741633 0.10442617 0.23862788 0.40769553 0.5218097 0.5834024 0.18209882 0.34431487 0.52357286 0.16047977 0.16295168 0.46955067 0.38940954 0.3354032 0.2356964 -0.010562327 0.42317405 0.41815406 0.21868864 0.48322913 0.41280007 -0.41355965 -0.43735975 -0.0990766 0.23991758 0.259306 0.29658347 0.25463787 0.25842085 0.39825338 0.30434158 0.29823634 0.3262627 0.36458075 0.26293972 0.14427395 0.20246163 0.20194227 0.16925558 0.06665746 0.19381471 0.10525695 0.832301 0.7946025 0.66027856 0.16647545 0.83543456 0.75426435 0.6335461 0.15217955 0.17626344 0.8603436 0.79262054 0.00229688 0.8799696 0.765018 0.23477386 -0.28232443 0.7036373 0.5431634 0.34151515 0.32588303 0.15248689 0.2887801 0.33686858 0.3888468 0.3185654 0.36159807 0.45090002 0.15476997 -0.11752381 0.27170613 0.3779781 0.45619804 0.52063036 0.48684838 0.08720157 0.2736219 0.42883503 0.2609603 0.23675817 0.32101524 0.1327504 0.15716742 0.037377864 0.27736342 0.20515886 0.3468048 0.40010685 0.22676326 0.1643307 0.16728702 0.3428452 0.38339448 0.17952329 0.18114555 0.14802667 0.18805897 0.29202327 0.30882058 0.15082468 0.017606314 0.4552064 0.6079244 0.64442074 0.68124086 0.75877666 0.7873694 0.68341225 0.747243 0.79422677 0.824095 0.46953315 0.19512811 0.3494716 0.49628848 0.3980037 0.1220521 0.14980185 0.3172901 0.13206226 0.47683442 0.5880292 0.6192051 0.014964865 0.09158703 0.61047626 0.6221198 0.08235111 0.56569445 0.5777183 0.054003544 0.10536203 0.33061105 0.32677367 0.22891071 0.094773084 -0.042441085 0.32600367 0.37949532 0.31758186 0.36510673 -0.10524265 -0.029416367 -0.39989147 -0.0352244 0.027810618 0.29966614 0.104252845 0.3479088 0.33477336 0.019181788 0.04087113 0.23921879 0.32700193 0.21936707 0.14284776 0.16439137 0.23751292 0.035741895 0.08178593 0.055905975 -0.01620219 0.8578092 0.8269928 -0.1059361 0.8785206 0.873212 0.06169134 0.8825389 0.87734103 0.21261539 0.26968116 0.8924086 0.02865227 0.23643512 0.33869994 0.3410936 0.31970632 0.72831565 0.30493134 0.38816202 0.6282509 0.55743283 0.37002164 0.34590974 0.117328405 0.4306354 0.44222847 0.5412295 0.5391581 0.41737038 0.2707762 0.1617948 0.31479752 0.50077575 0.5811307 0.5821769 0.54867184 0.46858016 0.29225048 0.3538537 0.5020188 0.39852673 0.2214452 0.2624497 0.26724154 0.42657778 0.25561816 0.21178979 0.17630641 0.17238167 0.16508391 0.15993904 0.31562158 0.14816564 0.0951689 0.19479473 0.1671246 0.14028043 0.548257 0.62058145 0.78819335 0.6261679 0.7071488 0.7562889 0.815184 0.824593 0.74632955 0.77631927 0.80118006 0.3403637 0.5234089 0.5843574 0.56377995 0.19655815 0.19458926 0.29283267 0.52086675 0.48097104 0.15805997 0.15628795 0.4911617 0.61295366 0.6371095 0.64204574 0.04276538 0.6325642 0.042260032 -0.052377585 0.5794787 -0.06335059 0.041182052 0.44949538 0.2507755 0.04219614 -0.00027285516 -0.06686485 0.08242514 0.29354328 -0.0043542013 0.3811623 0.3566629 -0.08091135 -0.13151367 0.378736 0.34270966 -0.028253801 0.4108887 0.24826758 0.4863827 0.59362257 0.3885132 0.39398485 0.5223017 0.3020225 0.2539743 0.26242426 0.25913984 0.20513234 0.06933592 0.8538454 0.81339246 0.69301546 0.8759396 0.8617334 -0.047881868 0.071002945 0.74916387 0.7494843 0.74969286 0.8782798 0.85873175 0.20534149 0.7383143 0.76222956 0.7793796 0.7728224 0.8627466 0.28718138 0.5116787 0.68226856 0.758172 0.7512876 0.74909526 0.8008568 0.6860372 0.32985663 0.5186756 0.63118035 0.6880736 0.7135966 0.5754968 0.47524577 0.41453287 0.29554248 0.46810654 0.5290565 0.5443759 0.14316353 0.13840389 0.20693077 0.15854299 0.45117593 0.30894282 0.43787017 0.5731413 0.5925108 0.55096644 0.42337072 0.3631015 0.14002712 0.2599987 0.33955997 0.37093204 0.3134812 0.2700621 0.49569285 0.4990283 0.3680669 0.3954335 0.40393394 0.28062934 0.2854061 0.23402219 0.41182774 0.28332356 0.24810807 0.15865447 0.34263292 0.48680127 0.17843853 0.6909363 0.6785271 0.62942904 0.518553 0.16874868 0.15957198 0.059110694 0.3064831 0.6498718 0.62258554 0.58819246 0.16569383 0.20676325 0.27178258 0.1762666 0.31413147 0.37339726 0.52617747 0.8016846 0.7150249 0.7743639 0.7933717 0.7539659 0.768291 0.7879156 0.2292068 0.37117916 0.5378229 0.569578 0.5187325 0.20069326 0.23184764 0.46461982 0.38177377 0.18493184 0.19466782 0.4877758 0.5854984 0.6307693 0.11853041 0.14409748 0.6015017 0.23628621 0.22765721 0.5014343 0.04654445 0.059121717 -0.13225333 -0.24354093 0.033772424 0.053261697 0.2778267 0.2531995 0.06755458 0.3638564 0.40765244 -0.11762913 0.18737212 0.5618484 0.6398871 0.4391585 0.42958435 0.6334837 0.64844346 0.4248586 0.615746 0.36711368 0.470361 0.26886374 0.22374886 0.18115342 0.01372388 0.09501215 0.7440474 0.48805207 0.2171698 -0.15867934 0.69685924 0.83725965 0.70060074 0.5686973 -0.07197043 0.7431749 0.7244614 0.7173358 0.72634697 0.8166246 0.7021595 0.5287874 0.097871676 0.72347593 0.75544786 0.7473984 0.7663715 0.6413684 0.50901604 0.27646425 0.73972344 0.62846607 0.5277827 0.40998554 0.047132865 0.06485687 0.27050242 0.68940413 0.44536698 0.48475373 0.28224757 0.1962632 0.5304901 0.5868594 0.5274709 0.53959864 -0.042009287 0.19585587 0.0132930735 0.03988567 0.05494846 0.45237884 0.4638469 0.5605258 0.57712615 0.5656853 0.45308208 0.26799744 0.34850556 0.3202049 0.28053433 0.18616322 0.0708697 0.27310476 0.3778808 -0.1644345 -0.020102099 0.37214422 0.41878882 0.35725808 0.3647954 0.37666422 0.18924557 0.09397163 0.027781563 -0.19253567 0.3773576 0.5087819 0.28513175 0.35106906 0.18990147 0.16119863 0.08859074 0.014686026 0.67516613 0.39034998 0.369398 0.19837368 0.6978776 0.5097313 0.45023566 0.25386503 0.6743934 0.6345891 0.6083114 0.56968236 0.5079458 0.21664014 0.28638133 0.3437724 0.3799135 0.6242697 0.6108918 0.57948935 0.35883063 0.3959224 0.6344211 0.5671215 0.49621594 0.60122705 0.71663857 0.7021412 0.7187824 0.73508966 0.7401897 0.7513974 0.7538328 0.5186143 0.13168494 0.21863076 0.2046639 0.48850822 0.40014106 0.04806395 0.1438373 0.2586858 0.26641172 0.24438167 0.027943846 0.17979954 0.3545348 0.51367986 0.23938692 0.22755787 -0.2978939 0.08516288 0.28382093 0.09409007 0.11510296 0.10878852 0.118119374 0.34125227 0.22579893 -0.04184784 0.414801 0.3883328 0.24828322 0.5422631 0.63082206 0.64124894 0.4353504 0.40737364 0.6621833 0.44122398 0.44818157 0.66255546 0.4065189 0.56402636 0.28111416 0.2803878 0.22965668 0.16371673 0.111643486 -0.01204738 0.029666059 0.32999635 0.21605706 0.036576368 0.6410762 0.6521761 0.64834774 0.48903614 0.33380288 0.30056807 0.20189932 -0.057454586 0.40986145 0.63827187 0.6796814 0.45194483 0.35237363 0.29869407 0.69662076 0.71132255 0.46796155 0.36146557 0.7045195 0.3766291 0.40374303 0.6728436 0.42498422 0.4468435 0.45467722 -0.08949481 0.50219715 0.50115585 0.49502188 0.43736607 0.29801846 -0.0007292889 0.018795649 0.1770965 -0.19983186 -0.16046408 0.47084588 0.4772736 0.54308826 0.54421353 0.3061731 0.0946228 0.25415665 0.3182794 0.28121942 0.004540302 -0.24540809 0.4292643 0.45445055 -0.009835285 -0.033529263 0.5529083 0.38167012 0.4049178 0.10748193 0.24299145 0.6309541 0.21853684 0.23637895 0.46153882 0.43666077 0.27435118 0.30576456 0.58406246 0.49760705 0.5183826 0.3286552 0.36132702 0.36094677 0.4811711 0.6200166 0.6441543 0.6446042 0.64632976 0.6209929 0.60706097 0.5390241 0.38774508 0.40616554 0.5690712 0.6543302 0.64518803 0.65987813 0.47476304 0.49483353 0.64213634 0.6678667 0.67280984 0.69437134 0.5971658 0.5859518 0.3913506 0.42986923 0.05220806 0.20023379 0.076852076 0.26055282 0.03724442 -0.48118097 -0.31879872 0.25571755 0.25067258 0.25656846 -0.53525084 -0.5294008 0.31978637 0.27035123 0.35892802 0.3323335 0.3105734 0.29946613 0.062643275 0.103074476 -0.03957796 0.040652882 -0.19060262 0.39256144 0.23287284 0.3670801 0.49693972 0.55869 0.61314243 0.44636488 0.4005637 0.6172435 0.44248453 0.44106397 -0.31687662 0.6122914 0.4153044 0.33995092 0.19096409 -0.12350847 0.6002072 -0.51944125 -0.37774172 -0.28277364 -0.09692038 -0.18790132 -0.23226844 0.5278881 0.18333979 0.52660936 0.5717989 0.60578644 0.57782096 0.3356217 0.33329973 0.5882982 0.3920182 0.39925712 0.38385564 0.35986733 -0.30078143 -0.33045444 -0.6579814 -0.4714988 0.5811348 0.4312924 0.38222787 0.13700053 -0.14322698 -0.18092044 -0.29634157 0.5733564 0.19950648 0.13112792 -0.12394488 0.5131211 0.25592518 0.27108496 0.26624823 -0.06488578 0.42053217 0.4728091 0.03141676 0.38323712 0.11808365 0.13396558 -0.08271683 0.3705902 0.2621196 0.2000071 0.19983488 0.0637111 0.7324767 0.44373155 0.31318912 0.2665959 0.24398899 0.21333754 0.23390415 0.13839829 -0.37177348 0.5548482 0.7914127 0.513456 0.3316551 0.30576712 0.27670872 0.33602914 0.6009941 0.5607357 0.35806194 0.57003725 0.6313589 0.6252258 0.6340207 0.76333356 0.7582725 0.7314302 0.6665685 0.6162351 0.7119688 0.6971621 0.6723854 0.66739213 0.6892866 0.66540563 0.62262654 0.59989434 0.6321497 0.5898367 0.5392704 0.41126513 0.38848805 0.35293084 0.062133312 0.25156623 0.23494747 0.5540396 0.3609556 0.025851956 0.028723633 0.31715515 0.49457252 0.55534804 0.27140403 0.30380473 0.30695355 0.244654 -0.0029543582 -0.4719487 -0.61255157 -0.22768469 0.120879434 0.38349137 0.34655213 0.36463863 0.28471184 0.2616204 0.25196403 -0.09396942 -0.4810364 -0.30400836 0.109764956 0.37468177 0.3228153 -0.16185321 -0.12166928 0.3730008 0.35057718 0.33814132 0.23570833 0.3025449 0.2346285 0.29755467 -0.058796234 -0.019825658 0.12443942 -0.14793164 0.2999546 0.43213475 0.4805088 0.38321567 0.4878868 -0.12176466 0.11705555 -0.3270186 -0.013155602 -0.22365518 -0.18093593 0.0042454004 -0.2033494 -0.014236238 0.40376797 0.061971407 0.066589266 0.41739774 0.51693773 0.5065102 0.5362403 -0.2169854 0.5339539 0.46503815 -0.24329458 -0.118656054 -0.0071880594 0.5415379 0.5316136 0.24213862 0.18099591 0.31084144 0.13889368 0.4826049 0.4352507 0.36404103 0.38773346 0.45240316 0.4006291 0.23726669 -0.19240749 -0.21394274 -0.31574658 -0.2570065 0.41846046 0.47454125 0.45533955 -0.008282652 0.04288869 0.35031077 0.068269104 0.04693802 -0.19329385 0.17818531 -0.041281004 -0.22001 -0.22083993 -0.13235623 0.4669269 0.13394874 0.22712538 0.5898098 0.5555784 0.7409687 0.66280806 0.56890136 0.5806776 0.61459583 0.61063796 0.604672 0.7753401 0.78121465 0.7537199 0.70463043 0.61904675 0.61202097 0.6037288 0.7006749 0.72766775 0.7113365 0.6600995 0.5931697 0.6598909 0.7152835 0.62912405 0.5336046 0.53225356 0.563141 0.2427935 0.29284942 0.13609178 0.25299948 0.49889302 0.5464428 0.56351477 0.5513743 0.3779504 0.42371526 0.4082753 0.40527984 0.051667135 -0.0007504234 0.50675225 0.26902562 0.3438741 -0.008358886 0.3625275 0.27384067 0.22556216 0.36089373 0.415743 0.40324622 0.005984649 0.18639146 0.2933452 0.34008104 0.41630393 0.35171235 0.36059758 0.37762827 0.3275124 0.33631837 0.31519997 0.23320118 0.078171186 0.10621454 0.105733 0.0913145 0.056468587 0.06959401 -0.17270589 0.10657781 0.10522985 -0.22245814 0.04185029 -0.21200001 -0.15382685 0.056626834 0.050116953 0.4294451 0.17062476 0.33449566 0.4441856 0.57622087 0.33957648 0.43903768 0.6560129 -0.07180088 0.39207324 0.48483315 0.65745425 0.38159588 0.2