# vtk DataFile Version 2.0
Really cool data
ASCII
DATASET POLYDATA
POINTS 3371 float
22.296757 36.00672 1.8232238
22.215225 35.918503 2.4022553
22.29808 36.043175 3.0717793
22.19987 36.414623 1.8727779
22.089758 36.56478 2.4161701
22.241343 36.6276 3.148305
22.306082 37.214348 1.9041063
22.238955 37.28256 2.4982746
22.33666 37.16398 3.1738358
22.436064 37.81064 2.5497873
22.83402 35.348873 2.3976586
22.919481 35.9457 1.2706801
22.630554 35.80935 1.6369662
22.484062 35.565125 2.2917418
22.592077 35.71566 3.3437054
22.846924 35.795174 3.8930655
22.749939 36.45446 1.268535
22.438625 36.489914 1.4943589
22.888508 36.49012 4.314689
23.26581 36.76438 4.894025
23.02404 37.350914 1.2404666
22.568102 37.412743 1.7045602
22.560446 37.448444 3.5455267
23.01921 37.309925 4.4414625
23.288265 37.250736 4.837394
23.05325 37.898205 1.3178389
22.920412 38.144802 1.7476656
22.707407 38.20313 2.4693196
22.84072 38.157856 3.270721
23.118858 37.962864 3.9628382
23.225685 38.807205 2.08541
23.19384 38.812077 2.4734929
23.143148 38.69994 2.891322
24.446295 31.068377 2.887559
24.255741 30.986181 5.4884043
24.389706 31.439447 2.88026
24.238283 31.658728 3.7031126
24.047928 31.679096 4.604622
24.09389 31.488665 5.5236464
24.245155 31.619396 6.216891
24.4575 32.141853 3.11701
24.124249 32.49394 3.655551
24.014048 32.393547 4.6946335
24.075348 32.30131 5.5233936
24.321772 32.295364 6.4801245
24.165298 33.35833 3.6110616
24.071262 33.087925 4.5717926
24.145536 33.00188 5.5452514
24.231339 32.899414 5.875609
24.180107 35.046093 1.697077
23.378698 35.141205 2.6016884
23.885649 34.386986 3.31051
23.813744 34.78322 4.36471
23.931692 35.05671 4.8858905
23.28799 35.805664 1.2669077
23.508987 35.452587 1.6329452
23.496344 35.46643 4.5859647
23.385204 35.730896 4.8224616
23.305368 36.58288 1.137644
23.7298 36.44395 5.2887197
24.143543 36.35324 5.5835357
23.580488 37.504307 1.0377779
23.6948 37.39164 5.1570845
23.709494 38.37664 1.2903634
23.574844 38.589405 1.4784554
23.567825 38.162678 4.2792935
23.939848 37.853207 5.063543
23.66709 38.918655 1.8214599
23.567192 39.03118 2.527596
23.584284 38.849873 3.2551968
23.826052 38.713818 3.8637216
25.137356 30.152834 2.715645
24.94917 30.113455 3.3525472
24.898743 30.052362 4.626876
25.05352 29.864574 5.5550013
25.113066 30.20377 6.504186
24.980785 31.012444 1.9941126
24.741749 30.840088 2.5239491
24.624422 30.601938 3.2965922
24.544895 30.462185 4.807827
24.496786 30.54244 5.4697247
24.536158 30.905836 6.283847
25.153898 30.507044 7.009666
24.902336 31.524323 1.8344533
24.579985 31.825739 2.3248444
24.550972 31.274063 6.575215
24.887154 31.622984 7.1328387
25.022507 32.41601 1.6783222
24.449162 32.800346 6.361812
24.627247 32.26219 6.8981633
25.121845 33.107624 1.8069383
24.586514 33.000378 6.413972
24.760136 34.80883 5.3628936
25.172947 34.627342 5.893521
24.51867 37.580326 1.0057955
24.251862 37.673824 5.486835
24.700735 37.498726 5.651037
24.583601 38.35447 1.2825459
24.769827 38.251945 5.0635533
24.30428 38.91155 1.6952734
24.189352 39.210526 2.3958306
26.321398 28.317974 5.654002
25.859138 28.878271 5.8305345
26.080523 28.623098 6.357297
26.051771 28.985304 7.4097204
26.225672 29.001638 8.468981
25.809383 30.057917 2.119555
25.75977 29.885132 2.4188972
25.3361 29.766972 3.3881578
25.546513 29.421404 5.0947967
25.432589 29.796925 6.726112
25.69343 29.498716 7.4350977
25.827984 29.732933 8.364523
26.209099 29.400368 9.154091
26.430326 29.919401 14.036022
26.419123 30.016665 14.392508
25.871098 31.030516 1.2180679
25.628508 30.64225 1.7330853
25.746365 30.48797 8.420335
25.98919 30.558584 8.963638
26.43447 30.278818 13.910555
26.350895 30.516771 14.516465
26.398079 30.554815 15.053201
26.235136 31.952736 0.56410486
25.405107 31.33493 1.4572058
25.676409 31.47759 7.6852202
25.922228 31.770563 8.271926
25.919722 31.014494 8.8903055
26.367558 31.295021 14.464507
26.415161 31.245928 15.211478
25.78797 32.193523 7.7427073
26.331266 34.04114 -3.915019
26.124592 33.788864 -3.4329722
25.86731 33.78351 -2.4370718
26.053295 33.7273 -1.6293986
25.89689 33.606518 0.0050964206
25.550701 33.395855 1.0457966
25.7564 32.92354 7.17773
26.256704 34.275303 -3.8548326
25.865906 34.47678 -3.2476945
25.674213 34.538544 -2.5241513
25.72934 34.516808 -1.7531698
25.765783 34.43651 -0.43998432
25.551386 34.35396 0.7304609
25.783451 33.9526 6.6410823
25.93122 34.546875 7.0221434
26.02648 35.25028 -3.2552352
25.92078 35.38614 -2.6047165
25.875278 35.72605 -0.9970515
25.616251 35.404514 -0.23961899
25.673294 35.681057 0.17030565
25.607718 35.255592 6.299924
26.133825 35.32063 7.02909
26.340834 35.81473 -3.0124931
26.166693 35.79387 -2.4191222
26.205784 36.035683 -1.5726482
25.883629 36.310387 -0.11559148
25.719725 36.654903 0.6533275
26.00487 36.204285 6.5653977
25.980597 36.77551 0.14192843
25.615501 37.38488 6.116254
25.12588 38.262062 1.579075
26.073864 38.439 5.4206824
25.92943 38.830746 2.7706873
25.182777 39.111626 3.6242158
25.729599 38.60867 4.78127
26.470995 39.29841 8.6054125
26.488758 39.342537 9.623869
27.289976 28.053644 4.070894
26.846746 28.192955 4.9253955
26.677977 27.983484 5.674436
26.765387 27.962366 6.1973433
26.787167 28.127401 7.181976
26.843208 28.328041 7.9758544
26.515799 29.072004 3.0140727
26.76997 28.658772 3.506416
26.5949 28.700512 8.575951
26.489416 29.057245 9.363494
27.2279 29.159184 12.407094
27.160723 29.040646 13.424484
27.13967 28.884918 14.455271
26.993237 29.245634 15.051742
27.271498 29.26668 15.86035
27.412628 29.915705 -10.264865
27.229239 30.084732 -9.90187
27.412872 30.05316 -9.055262
26.384972 29.711912 2.0827348
27.09232 29.48789 11.32788
27.030466 29.382698 12.884305
26.755081 29.523468 13.710854
26.635162 29.572533 14.5245075
26.826307 29.65126 15.388003
27.006247 29.825039 15.94063
27.338951 30.529387 -10.378343
27.24844 30.554756 -9.589696
27.296492 30.764193 -9.005722
26.516062 30.92535 1.1673137
26.790638 30.413322 12.629546
26.559235 30.473726 13.482155
26.550903 30.554777 15.530881
26.960213 30.530125 16.14738
27.302155 31.20992 -10.096478
27.301947 31.281883 -9.393256
27.37622 31.08569 -8.961341
26.509066 31.326937 1.0196803
26.784092 31.50407 9.418693
27.219343 31.330143 10.162139
27.329206 31.253193 11.753245
26.72947 31.600658 13.746843
26.526152 31.561178 14.139173
26.574102 31.373774 15.379791
27.00061 31.972197 16.361921
27.296862 31.426086 16.816036
27.437674 31.819483 -10.049818
26.770998 33.176075 -3.3827236
26.935282 32.830547 -2.3746092
26.78483 32.824623 -1.1864934
26.756159 32.549843 -0.61995757
26.642975 31.989742 9.013283
27.313025 31.923555 9.8618555
27.355024 32.243233 12.153341
26.942183 32.02716 12.947036
26.769909 32.338562 13.8388405
26.683683 32.32661 14.277825
26.823511 32.17295 15.54934
27.07766 32.52732 16.286436
27.359968 32.197155 16.81155
26.961369 33.609566 -4.071608
26.396954 33.62425 -3.5905263
26.562443 33.452637 8.148971
27.067738 33.2736 13.080689
27.092016 33.60939 13.62233
26.85203 33.31858 14.536923
26.997671 33.21337 15.411505
27.225178 33.529724 16.074774
26.43746 34.40818 -3.978798
26.71645 34.677784 7.844304
27.367659 33.90545 13.014309
27.21405 34.194286 13.504814
27.216923 34.373085 14.448527
27.321772 34.299076 15.446901
27.437 34.46004 15.942489
26.7234 35.365566 -4.00212
26.60839 35.986423 -3.2615154
26.509487 36.1969 -2.5421531
26.96441 36.28764 7.9039483
26.978708 36.87709 -1.2523205
27.051994 37.03786 -0.79031295
26.45855 37.348713 0.857605
26.813208 37.440968 7.482449
27.185608 37.63673 8.546656
27.251705 37.715004 9.544553
26.681074 38.47552 2.2195413
26.652784 38.744396 6.965368
26.62986 38.61336 8.541926
26.663221 38.937416 9.814009
26.912561 38.648106 10.304641
27.29879 38.73511 11.34591
26.914682 39.11477 2.7003746
26.559332 39.2991 7.7741685
26.543085 39.740257 8.752101
26.574026 39.346157 9.5323105
26.709082 39.469856 10.34496
27.051594 39.463654 11.0746565
27.070848 40.393105 3.1644278
27.12576 40.69183 3.6475463
26.972702 40.736607 4.4309874
26.897879 40.988968 5.2579145
26.810926 40.50569 8.428079
26.65075 40.329895 9.5427265
26.78647 40.314453 10.3890295
27.110197 40.458332 10.960786
27.043816 41.17575 3.720609
26.694862 41.646713 5.192347
27.043978 41.433258 6.16972
27.37157 41.222134 7.4667897
27.18615 40.945023 8.570794
27.167295 41.265575 9.830008
27.082817 41.059696 10.342255
27.203703 40.845898 10.901169
27.279726 42.382874 2.9794796
26.820963 42.395283 3.730696
26.70066 42.539715 5.4392734
27.073513 42.490597 6.0447254
27.199203 43.40737 3.1261926
26.85488 43.509426 3.883581
26.675573 43.65886 4.5468726
26.763733 43.38917 5.329666
27.146408 43.836826 5.844692
26.974533 44.29368 3.937394
26.874176 44.434166 4.622442
27.029776 44.496635 5.2954884
27.238485 44.243954 5.809572
27.105965 44.897972 4.7044797
27.252777 44.935318 5.145299
28.277227 24.146694 -9.464799
28.282034 24.200405 -8.811441
28.08969 24.934416 -10.11583
28.088228 24.56033 -9.478687
28.115028 24.598244 -8.708816
28.346836 24.914501 -8.122876
28.344097 24.943493 -2.2110455
28.432493 25.087873 -1.9028141
28.009678 25.597746 -10.389096
27.761612 25.561975 -9.446748
27.842047 25.497066 -8.807984
28.193964 25.949152 -8.087762
28.353676 25.671055 -3.0708466
28.287497 25.53186 -2.45747
28.382828 25.521662 -1.7925012
28.251095 26.335474 5.287376
28.220518 26.79726 -10.839418
27.888084 26.38874 -10.361885
27.738855 26.420942 -9.849346
27.899525 26.416351 -8.586846
28.35926 26.219744 -2.3016539
28.38675 26.125105 -1.866075
28.06704 27.161226 3.9263558
28.203892 26.687752 4.7149777
27.980389 26.610083 5.5388575
27.794249 26.936321 6.057654
28.043228 27.212885 -10.185872
27.925743 27.496939 -9.552839
27.956257 27.049389 -8.61162
27.864882 27.85696 2.8526113
27.815968 27.620768 3.4408813
27.622486 27.33273 4.6774645
27.551455 27.467857 6.5878754
27.454998 28.150724 8.250675
27.650465 28.403559 9.167809
27.952127 28.374634 12.7205
27.9285 28.115292 13.694295
27.982489 28.064552 14.464985
27.825106 28.372818 15.023908
28.36258 27.991905 -10.223404
27.652842 29.106106 -9.406221
27.927465 28.898134 -8.89685
27.704771 28.799355 2.1622329
[...]
POINT_DATA 3371
SCALARS features_00 float 1
LOOKUP_TABLE default
0.78545964 0.78949654 0.7563119 0.8183449 0.83495075 0.776953 0.83779645 0.83205533 0.7639947 0.7939522 0.6885356 0.7370646 0.74976027 0.7394075 0.66287494 0.5511632 0.7811271 0.8037968 0.5465953 0.48649207 0.77363455 0.82216394 0.68944013 0.559099 0.50979143 0.76490223 0.7802527 0.7699479 0.6923336 0.6002699 0.75171804 0.7371186 0.71083665 0.40922633 0.41786087 0.3950976 0.37367737 0.40383697 0.42710665 0.40928048 0.3441469 0.291266 0.3633892 0.40373993 0.37250262 0.1647772 0.25094634 0.31855524 0.33419737 0.418296 0.6065483 0.29255173 0.28135234 0.27305856 0.6865548 0.6418486 0.3916945 0.40674838 0.7257639 0.4027387 0.3390295 0.68200946 0.46742377 0.69872546 0.725645 0.5321946 0.4562791 0.7251958 0.7094302 0.6508528 0.56006885 0.38770917 0.3890887 0.3520713 0.3108313 0.320262 0.3979099 0.41140968 0.410295 0.3929271 0.38688293 0.38845628 0.32802188 0.3888712 0.3813947 0.38820344 0.34245503 0.3238703 0.31710082 0.3318484 0.19626 0.27340254 0.08570639 0.016907047 0.45400387 0.4159093 0.35996658 0.5354532 0.38392124 0.64237535 0.6709486 0.20274231 0.22693679 0.2209976 0.25755435 0.29611516 0.32527098 0.32661563 0.34454465 0.25904056 0.27666813 0.27458477 0.33261108 0.31490847 0.45504767 0.47759977 0.3018937 0.34874117 0.3163203 0.3084104 0.44279492 0.47222123 0.49804106 0.15212627 0.35892212 0.26484576 0.18847123 0.2534006 0.42304617 0.45845965 0.17861095 0.5622013 0.5738103 0.57664496 0.47061467 0.1628194 0.09444232 0.1501797 0.5825564 0.6196972 0.5950254 0.4907038 0.25276166 0.037908264 0.054925513 0.012461007 0.57607347 0.5010342 0.28723228 0.23999208 0.19342002 0.019255254 -0.017551694 0.44290906 0.39633197 0.2782032 0.16068625 0.06039667 0.0042013004 0.095875226 0.17970283 0.35578012 0.19856372 0.26779303 0.54671335 0.33825666 0.3899643 0.51283836 0.1772716 0.18637308 0.19154334 0.1895016 0.21816349 0.24653287 0.2126191 0.1880039 0.27048633 0.2645717 0.28183603 0.3595025 0.42406172 0.487962 0.51260704 0.5890676 0.56808543 0.47285333 0.24893603 0.20316613 0.33747375 0.41626167 0.4766736 0.52554154 0.54008114 0.6621083 0.5634392 0.48609442 0.21197072 0.36161345 0.40676257 0.51910913 0.53103226 0.67042357 0.57570064 0.48419136 0.18911228 0.12846546 0.051909596 0.16643465 0.34599715 0.38215148 0.4555863 0.4512534 0.47204423 0.66148317 0.45263124 0.3732673 0.26545 0.099172086 0.09735326 0.002041421 0.20009458 0.2557902 0.29939893 0.33230335 0.40686107 0.42589706 0.44902676 0.42570215 0.5369293 0.06796232 0.24443708 0.274816 0.3133395 0.359197 0.40281534 0.564597 0.004117973 0.25569195 0.28840703 0.3241944 0.36540437 0.40211755 0.5299091 0.41280267 0.3300286 0.0031505153 0.13395083 0.07826123 -0.023963813 0.01678678 0.22265564 0.4169251 -0.096431896 0.071684875 0.3345727 0.5112683 0.5921625 0.69401276 -0.21242541 0.27845368 0.43484724 0.50327605 0.6184679 0.6635455 0.06734763 0.20203875 0.34114993 0.38401157 0.4199494 0.56478524 0.65494645 0.678548 0.26413468 0.4086234 0.20301896 0.08925438 0.4013459 0.53233993 0.61266786 0.66485184 0.23365884 0.3575611 0.4083544 0.31295204 0.3269825 0.46141627 0.5190512 0.45401537 0.41426498 0.47833103 0.5062157 0.47191238 0.41764367 0.49507877 0.4638651 0.7427621 0.687066 0.72755855 0.7475607 0.6753052 0.56537783 0.56599456 0.54082453 0.66606665 0.7160559 0.6747355 0.5386522 0.59027445 0.56929135 0.5211605 0.20187767 0.5064298 0.5854587 0.6064611 0.5773264 0.5071919 0.4879318 0.1821746 0.19571784 0.19287045 0.18203816 0.4802045 0.42981502 0.47194025 0.12605667 0.16089654 0.18409806 0.16553676 0.17580697 0.09795406 0.23933452 0.29957995 0.33547658 0.39803314 0.39530846 0.44567204 0.3820336 0.088139944 0.13363174 0.14194287 0.23351589 0.31639948 0.36597311 0.4734648 0.63390785 0.57184505 0.41934836 0.33857343 0.12599775 0.48892945 0.69683045 0.39503634 0.2999621 -0.043424062 0.46871838 0.6980734 0.6990669 0.3760392 0.22257942 -0.037967533 -0.07541169 0.44683182 0.6514127 0.6360738 0.5399028 0.3325965 0.25678244 0.23028937 0.32418948 0.21439308 0.4488582 0.45308158 0.5829503 0.48944584 0.408207 0.3619834 0.041393086 0.21314272 0.45894763 0.46818763 0.3682443 0.39448205 0.33082074 0.30644885 0.38894305 0.42634603 0.45697036 0.3105191 0.2877239 -0.08840488 0.36089775 0.40734667 0.43234825 0.43838215 0.30242473 0.25854647 0.4446094 0.4781881 0.44282347 0.23153466 0.22976184 0.044936843 0.6363422 0.67642885 0.70496094 0.75070065 -0.23149247 -0.18046144 0.6748934 0.6844616 0.68123627 0.048284553 0.19707096 0.24471873 0.47356242 0.577298 0.648728 0.10947748 0.23526806 0.25232154 0.50728875 0.50638974 0.727491 0.70533216 0.6750564 0.21156949 0.21315244 0.25387388 0.7000083 0.66036534 0.17925368 0.27167204 0.379639 0.17926438 0.24748048 0.38144463 0.40429533 0.37269193 0.24032637 0.3768682 0.69363403 0.72211707 0.65916276 0.57771415 0.54845715 0.4502356 0.42431128 0.6126239 0.7050973 0.60716206 0.5880699 0.56455845 0.6069641 0.58534217 0.5021663 0.43261665 0.59404814 0.6442055 0.5776225 0.57793045 0.48167247 0.42268375 0.19602759 0.22700769 0.22321628 0.21619678 0.52975774 0.3694732 0.5203866 0.44408062 0.46499905 0.34552813 0.14241976 0.03583219 0.21669364 0.42121568 0.23684375 0.35234517 0.2501902 0.073158644 -0.049456954 0.09674792 -0.05973938 -0.047831714 -0.033769842 0.13350213 0.23116787 0.27708387 0.30945373 0.3883384 0.10755044 0.14476839 0.12815459 -0.22835353 -0.041505285 0.033048198 0.389264 0.43594795 0.50485843 0.5693332 -0.24488965 -0.1578618 0.42598504 0.40307212 0.6145433 0.17743209 -0.04108779 -0.20631653 -0.27636886 0.4170926 0.5764676 0.6453113 0.04545458 -0.011241429 -0.35070342 0.43144536 0.40820253 0.62350845 0.061375376 0.027064793 -0.04559827 0.12189539 0.11096312 0.44612423 0.5885489 0.52580917 0.34850067 -0.054181486 0.07406387 0.48011404 0.28112918 0.34479648 -0.022111177 0.44876152 0.4563397 0.26643363 0.28520834 -0.008044839 0.37741825 0.43029535 0.41768962 0.42583096 0.2554483 0.13773175 0.21767943 0.17674871 0.5380626 0.46282512 0.4912032 0.43215996 0.41591042 0.1283358 0.046263378 -0.050509207 0.6844319 0.5243478 0.52559936 0.45329005 -0.13082638 -0.2820868 -0.062032633 -0.09705389 -0.045435928 0.6658401 0.66086054 0.652097 -0.024431836 0.034240276 0.58809584 0.67285216 0.7096281 0.66354346 0.6324898 0.53928566 0.045800205 0.05683885 -0.12516513 0.28695154 0.4453687 0.7036085 0.7347729 0.71227384 0.648494 0.62610674 -0.1079193 0.6846043 0.70689833 0.6839256 0.6276655 0.54675645 0.072490975 0.12982291 0.6192514 0.6210901 0.57291913 0.48100746 0.06704965 0.14679545 0.1578294 0.19516695 0.41364858 0.2789215 0.4761256 0.51436484 0.5632749 0.6781794 0.67115796 0.59274393 0.71092135 0.7511195 0.7386695 0.64775825 0.714875 0.7565756 0.75213665 0.2828437 0.6407063 0.69312507 0.66706425 0.45079625 0.40350583 0.5037658 0.4556612 0.38390106 0.2972869 0.17970672 0.22888209 0.5697744 0.5837297 0.45341578 0.2588011 0.20519513 0.11199467 0.12807348 0.21059698 0.26376143 0.2899925 0.49760467 0.16727082 0.509717 0.1775141 0.21571761 0.22800788 0.3891514 0.4592809 0.03685835 0.3067205 0.22958902 0.10465464 0.1320822 0.15924826 0.021054547 0.103812456 0.15499929 0.32333362 0.002665922 -0.21521103 -0.04999449 0.0022741854 0.22303833 0.03742395 0.051116616 -0.094175495 0.2180331 0.32703012 -0.17430896 -0.10801895 -0.017753653 0.008022703 0.275351 0.42020035 0.47165653 -0.18514937 -0.20896733 -0.25250536 -0.430615 -0.31279016 0.40477982 0.4786307 -0.19536898 -0.27168477 -0.32601178 0.57551545 0.4372809 0.558587 0.48305205 0.1801967 0.12036546 0.49260792 0.18769383 -0.059681952 0.4588378 0.16697267 0.1629598 0.37540773 0.3884812 0.09953411 0.19324717 0.36851174 -0.24955937 0.76542854 0.39757347 0.51343566 0.49947065 0.4223777 0.3575526 -0.09137028 -0.22258613 0.770763 0.3506706 0.21408616 -0.105801314 -0.019495357 0.45282602 0.38362736 0.0019032736 0.603231 0.5515553 0.53625286 0.49189875 -0.108946696 0.594753 -0.05828893 -0.090770096 0.2907135 0.3308267 0.5813189 0.6331725 -0.038945153 0.14113738 0.5992336 0.62509376 0.018690214 0.052950192 0.07471147 0.10719014 0.55753183 0.5475898 0.5351535 0.5095631 0.27698338 -0.01079081 -0.054395296 0.034939297 0.15232742 0.17482021 0.47126198 0.21874158 0.14171496 0.15712759 0.4568786 0.50136364 0.5618074 0.65432405 0.49485368 0.5705786 0.68264776 0.7334242 0.7098071 0.6319245 0.6746894 0.30661592 0.28944743 0.17187203 0.22921303 0.1822016 0.30898035 0.3247584 0.31971794 0.4581483 0.5181433 0.13113011 0.17316526 0.0842225 0.2932371 0.31241786 0.32287985 0.28757304 0.30916244 0.4799019 0.4880965 0.5458954 0.2543689 0.31045634 0.20855315 0.15789956 0.08858979 0.1734382 0.28858724 0.49073142 0.48188484 0.19490968 0.025012277 -0.102026954 0.1218126 0.27915466 0.40922725 0.4072268 0.00093634427 0.02887523 0.24919835 0.23502846 0.20107016 0.16334905 0.19030795 0.5384241 0.57236624 0.3270683 -0.2819993 -0.0068175066 -0.11141391 0.08709647 0.52873814 0.32151994 -0.20650575 -0.15144956 0.5206244 0.3137248 0.19951788 0.29522932 0.14779878 0.34460345 -0.756851 -0.5125021 -0.05885999 0.3291083 0.41235906 0.026148604 0.09948666 0.0062864386 0.25917703 0.34310377 0.08036648 0.33700734 0.46720377 -0.08105165 0.53551435 0.4470864 0.05636286 -0.14719045 0.293101 0.52493376 0.48003483 0.35202682 -0.04705721 -0.0012108348 0.2999881 0.51035494 0.4655482 0.26482543 0.39878032 0.45133322 0.49564236 0.46144646 0.48265082 0.5438099 0.49301112 0.30655712 0.40611106 0.47012898 0.4955631 0.52235484 0.36794642 0.44341964 0.4746468 0.47984707 0.47577432 0.19966042 0.2505867 0.3724731 0.45084262 0.43515843 0.36260518 0.18442476 0.17102171 0.26743987 0.17513472 0.39654043 0.35944924 0.35441697 0.5360236 0.5029093 0.41684508 0.50980026 0.61334634 0.40444624 0.5638239 0.63160217 0.5887216 0.38557482 0.39672905 0.3783219 0.32849973 0.3446759 0.33747762 0.28849164 0.28880984 0.2992693 0.29463583 0.599622 0.6158391 0.07254633 -0.003515713 0.15743926 0.20770049 0.31439403 0.30296457 0.28740802 0.42672756 0.49751282 0.5763966 0.6022842 -0.02788388 -0.14368321 -0.15439776 0.011691906 0.16978788 0.5246432 0.5328442 0.16027382 -0.15093753 0.42125762 0.5545377 0.6510468 0.23807077 0.34193033 0.3141432 0.4952486 0.5891769 0.6216645 0.6365974 0.26976734 0.34513682 0.24162766 0.6281377 0.63869035 0.2442778 0.14720654 0.59770054 0.63096726 0.16433007 0.593148 0.49981612 0.16068433 0.2968708 0.19429992 0.17980817 0.1780973 0.14069171 0.051397476 0.2700296 0.07270794 0.28337705 0.22883022 0.15370914 0.3549414 0.16281833 -0.035377584 0.40802097 -0.12839742 0.13239081 0.41807693 0.413715 0.29605538 0.34876382 0.13667414 0.3957948 0.31005442 0.40364712 0.45436135 0.24290395 0.49708554 0.51875967 0.4306327 0.50746435 0.4613626 0.3979237 0.47927034 0.47235996 0.3284294 0.4246778 0.4914351 0.4818303 0.43341845 0.48922879 0.49772137 0.41377512 0.45545417 0.46002224 0.48244435 0.38302526 0.32719016 0.22641969 0.25768024 0.30653775 0.41376132 0.46249655 0.38256952 0.17557928 0.41750222 0.20243916 0.27438256 0.3003426 0.44397637 0.45369023 0.22189303 0.38066706 0.43273133 0.46005672 0.45681196 0.61557984 0.6372711 0.57767403 0.45397267 0.34141508 0.39035714 0.5144375 0.55546665 0.53466576 0.36234277 0.26436287 0.35950258 0.40424198 0.39622426 0.35248944 0.24449371 0.33284232 0.42937678 0.0887925 0.06303927 0.26041254 0.25931484 0.58843476 0.6407645 0.6548478 0.6486559 0.25151303 0.26120546 0.19685645 0.24609506 0.19321041 0.6194662 0.28941056 0.15636675 0.10625979 0.544061 0.31925276 0.2648547 0.50986475 0.59117323 0.66152847 0.66174424 0.39851272 0.38291487 0.35505986 0.6558268 0.66171706 0.68635476 0.12280406 0.09896358 0.13592254 0.7035855 0.6968993 -0.028170723 0.658934 -0.09311153 0.54719573 0.33749384 0.39352337 0.45748797 0.028690577 0.24988261 -0.061726563 0.17856818 0.28553528 0.2803664 0.43920457 0.31758422 0.3192197 0.38238692 0.5532558 0.33157042 0.28994566 0.5716444 0.31530052 0.26493984 0.17957854 0.041746683 0.5280707 0.46154648 0.35385966 0.40852585 0.42160147 0.4350531 0.35403258 0.3890514 0.46163577 0.44701517 0.438141 0.43569 0.47257355 0.44879836 0.48709464 0.48658878 0.30689973 0.49066705 0.4855158 0.21890034 0.3743678 0.48916602 0.49595138 0.497885 0.3011174 0.43777964 0.14700206 0.22128 0.49609447 0.4173776 0.33152074 0.49015492 0.3007479 0.20570782 0.3349891 0.22817655 0.24622223 0.23944125 0.26778552 0.39087918 0.37807798 0.686 0.6923907 0.6161252 0.445311 0.64565265 0.6744147 0.53005284 0.36112946 0.2589656 0.09403786 0.28771344 0.3527968 0.5115057 0.5372973 0.025836408 0.02296143 0.34581476 0.38701576 0.17831135 0.5779496 0.6715411 0.6683321 0.639409 0.35566005 0.34548813 0.3141905 0.58132076 0.36493245 0.41351655 0.44810864 0.371262 0.49293733 0.59247756 0.65004504 0.6588162 0.25631702 0.34687325 0.33557367 0.43921426 0.6542127 0.6764932 0.6960785 0.11782502 -0.0727966 0.37712538 0.7251121 -0.13262168 -0.15953961 0.72721815 -0.17112938 0.6137748 0.2281752 0.48267 0.48071694 0.42755803 0.17346914 0.3789866 0.39870203 0.50563085 0.46315646 0.3034259 0.46124625 0.28838676 0.26321998 0.13583991 0.41105115 0.15548274 0.23982221 0.2899574 0.33586103 0.5572312 0.37178975 0.35225016 0.57811445 0.38247812 0.3545224 0.29907918 0.54154664 0.56341565 0.30742583 0.20515649 -0.06927598 0.46063295 0.49857786 0.08991209 0.44480854 0.33718252 0.34430146 0.34009513 0.255521 0.22934839 0.3506058 0.046942577 0.41110164 0.36759493 0.4277859 0.449509 0.13236585 0.4590553 0.4769686 -0.012794439 0.07510583 0.16839142 0.20043932 0.41792306 0.48067048 0.32891467 -0.03753637 0.5404516 0.59261376 0.5503175 0.232531 0.59193516 0.5643616 0.50592613 0.34995562 0.41937464 0.34835327 0.25636438 0.3571792 0.34941965 0.30020794 0.25415412 0.29554683 0.38434002 0.6781131 0.70820373 0.6097483 0.48350674 0.12603818 0.5852472 0.63140374 0.25811043 -0.026841499 0.022258978 0.09675208 0.30607167 0.5082761 0.3421628 0.28185594 0.20353422 0.18449783 0.25047195 0.6540715 0.64987254 0.6453103 0.6083648 0.30579105 0.30270526 0.54985636 0.37215033 0.4394268 0.42128593 0.38577387 0.36739427 0.29920787 0.57934743 0.6318813 0.64915824 0.36677715 0.299958 0.3077338 0.42977005 0.57213104 0.6187395 0.6389971 0.6614222 0.16182718 0.6839658 0.7051674 -0.06219849 0.62209797 0.6653317 0.4880795 0.5747319 0.39634997 0.33275783 0.04748419 0.4278712 0.4470556 0.4697942 0.28527305 0.38645673 0.39017507 0.47629523 0.49745995 0.33733034 0.46658254 0.44494593 0.39047182 0.22960562 0.40238565 0.46686137 0.35159332 0.35380852 0.5427389 0.466364 0.44362485 0.551697 0.56874466 0.44416362 0.381912 0.5225071 0.37601244 0.32055438 0.104181744 0.43366325 0.48796597 0.08066751 0.37086478 0.11378411 0.11172591 0.1089409 0.69840693 0.02807042 0.21026334 0.15236172 0.7604667 0.6859 0.5317343 0.03663349 -0.001452446 0.24972059 0.75645614 0.70102024 0.4707024 0.2804607 0.017472014 0.23574112 0.29509977 0.058914267 0.35063452 0.33797187 -0.13542745 -0.02037716 0.019871756 0.35021508 0.32675868 -0.09938569 -0.08094879 0.4952724 -0.15897682 0.60097504 -0.022320762 0.62585574 0.1635868 0.63190687 0.59920955 0.32976246 0.5604563 0.46638662 0.43658555 0.38791007 0.35170174 0.41230485 0.3823523 0.2904784 0.26661146 0.34222683 0.42295006 0.4015 0.6279944 0.6963237 0.6691754 -0.03241527 0.034207486 0.1055304 0.5719542 0.57126474 -0.014074821 0.38660273 0.2939854 0.26026222 0.34920603 0.34900945 0.5929306 0.6044915 0.30987442 0.41577968 0.5417255 0.54788244 0.39199775 0.35800076 0.43775493 0.4070415 0.3444438 0.27196202 0.3688606 0.19382791 0.29133466 0.54559815 0.593391 0.62099624 0.23286518 -0.15652287 0.17171699 0.15503462 0.3059861 0.4354544 0.5109671 0.52440107 0.5561357 0.21846841 0.4550103 0.47760826 0.56445223 -0.03513536 0.006017484 0.29940963 0.36918288 0.4304117 0.30601752 -0.11246702 0.08906739 0.15996706 0.30640608 0.38104105 0.47446996 -0.1530109 0.20248598 0.45395708 0.43063694 0.41396445 -0.113496095 -0.09820588 0.4076259 0.38096845 0.317805 -0.04750704 0.21083704 0.40159887 0.42891416 0.44973713 0.5076449 0.5286486 0.46301425 0.5126783 0.50742424 0.45493054 0.42336577 0.48624805 0.41625482 0.36079022 0.37937915 0.45603138 0.16651416 0.32012814 -0.050005376 0.16834661 0.8091003 0.62846226 0.17620888 0.17349032 0.81253123 0.80018175 0.17205182 0.79174024 0.7802651 0.25654685 0.06650429 0.20808592 0.21904369 0.78348833 0.7597808 0.70088637 0.54574203 0.074875176 -0.06673846 0.23222561 0.76163876 0.6764149 0.17392807 0.07169392 0.020112887 0.06536676 -0.21008264 -0.5201807 0.513778 -0.16465797 0.6135668 0.58687437 0.63234985 0.62724435 0.5743463 0.31821653 0.4435798 0.41513148 0.38168854 0.40950602 0.39049542 0.33099374 0.27687436 0.35788876 0.46547693 0.4558816 0.6022892 0.6217432 0.2658497 0.38316923 0.6371612 0.19463213 0.26937866 0.46052685 0.38120356 0.39432654 0.42879817 0.43114567 0.1768619 0.40999588 0.47921962 0.3483466 0.22052316 0.037177786 0.22912802 0.42016816 0.4667958 0.40848067 0.3913524 0.3456955 0.3560624 0.4288416 0.2467084 0.39239544 0.08838124 -0.18343866 -0.031627923 0.49566594 0.2778133 0.45771697 -0.08557619 -0.020636693 0.29332414 -0.151024 0.41181475 -0.040742807 0.4058039 -0.06526518 0.3609786 0.25818026 0.37142006 0.38272178 0.43762153 0.48600405 0.43295735 0.48100936 0.49298233 0.4931447 0.39892483 0.2519356 0.36108053 0.27233776 0.03151983 0.07828787 0.17519581 -0.0006299466 0.04569369 -0.094692156 0.1323851 0.017348379 0.20202318 0.7863785 0.20677234 0.8060342 0.037476778 0.15488827 0.7843294 0.10228984 0.78276825 0.78808427 0.17892209 0.83107275 0.83720315 0.4553096 0.15633006 0.07596403 -0.033055864 0.85786545 0.87672865 0.8518621 0.6960711 -0.141017 0.07215198 0.52971077 0.14314023 0.5605426 0.458682 0.2028494 0.5344895 0.4391865 0.3948995 0.34050438 0.36378968 0.39377284 0.376293 0.3527972 0.41678953 0.38049698 0.30684692 0.3388341 0.5110549 0.5598041 0.51737535 0.4607858 0.7762017 0.7332002 0.6839906 0.7466223 0.7073747 0.601253 0.35056493 0.3210889 0.30309537 0.31951424 0.29778188 0.28146553 0.4533986 0.19173302 0.23021886 0.3313225 0.43253538 0.4112056 0.34277114 0.27514657 0.42761907 0.42284158 0.03218529 0.14502804 0.19658479 0.24543339 0.44123042 0.06320663 0.15122142 0.19308409 0.21204196 0.4227413 0.04658971 -0.10873498 0.0042532906 0.057618212 -0.13610947 0.5511689 0.32110703 -0.14810807 0.67475307 0.33496207 -0.07337423 -0.043236792 0.38133603 -0.02121716 0.15664878 -0.038188502 0.2020303 0.031335354 0.31762657 0.32341987 0.4116519 0.3072818 0.11106278 0.24464959 0.3970745 0.092848465 0.013192188 0.061729882 0.11551363 0.025873024 0.12809023 0.10035957 0.17528634 0.107785515 0.24548307 0.2018515 0.7452673 0.67728186 0.74869645 0.6882613 0.0076632462 0.06709652 0.7596543 0.12502605 0.0065500033 0.7680139 0.7691773 0.17659675 0.0857002 0.798746 0.8240574 0.34973678 0.014329419 0.10348686 0.19021453 0.18431534 0.852882 0.868834 0.8431483 0.6710689 -0.14312005 0.30162105 0.07434486 0.31209674 0.16904984 0.3675029 0.3121042 0.26916528 0.3839089 0.32779968 0.24867365 0.09722679 0.38269588 0.3323867 0.32650024 0.25028497 0.31803256 0.49183685 0.46953827 0.5385654 0.5754674 0.5643861 0.5061421 0.79654455 0.7752826 0.8237663 0.8125776 0.7559972 0.6877777 0.5433663 0.825817 0.46398744 0.39064717 0.35487726 0.79452026 0.35959148 0.3338663 0.3308401 0.2214236 0.08291618 0.11690802 0.026456058 0.31300747 0.034242358 0.31473202 0.3737741 0.3945366 0.2834969 0.2893507 0.4144876 0.30357486 0.17284392 0.44248205 -0.35151085 -0.48930413 -0.13754714 -0.032391615 -0.018735372 0.037781008 0.11855635 0.27553424 0.016575743 0.033929516 0.058850538 -0.14911707 -0.082980305 0.7184793 0.6166887 0.47847593 -0.11937787 0.7121829 0.72260344 -0.21599105 0.6630877 0.6409741 0.54272413 0.39670888 -0.039699383 0.22512987 0.014688224 -0.06110138 0.0064107357 0.16505325 0.14478476 0.03972593 -0.0025993288 0.09794199 -0.06603254 -0.09614338 0.019226506 -0.14062797 -0.026485309 0.07038626 -0.13085425 0.11407271 0.1736708 0.15401709 0.3852124 0.24531278 0.5404201 0.10382208 0.5990968 0.070584096 0.6940285 0.6651683 0.008015327 -0.0008887546 0.02458208 0.7608775 0.07577397 0.8119436 0.8059697 0.5898314 0.51335895 0.050560948 0.21885523 0.83647865 0.81982505 0.7655054 0.674263