# vtk DataFile Version 2.0
Really cool data
ASCII
DATASET POLYDATA
POINTS 3496 float
23.24497 39.240116 1.5335609
23.191769 39.126965 2.1091373
23.33156 39.253532 3.2665508
23.177778 39.685474 1.2891488
22.958319 39.69262 1.7006146
22.884247 39.674732 2.446557
23.047651 39.86159 3.056462
23.15297 40.420544 1.1721913
22.84807 40.4258 1.6496078
22.769762 40.440834 2.4643717
23.012259 40.569157 3.3434062
23.335869 40.32297 4.060377
23.214077 41.13168 1.2551024
23.089443 41.406395 1.6834905
22.930948 41.28059 2.42458
23.15837 41.465305 3.1753063
23.435705 41.018414 4.1924725
23.326336 42.03833 1.8475744
23.25418 42.018738 2.3166385
23.338346 41.97187 2.997979
24.476738 34.83469 5.1130753
24.484438 35.355465 4.088868
24.453121 35.541775 4.6456075
24.424925 35.462975 5.299756
24.43638 36.132065 5.3271847
23.590212 38.98093 1.7812154
23.604988 39.100407 2.8394954
23.858797 38.977272 3.587046
23.975525 38.87799 4.154922
23.468306 39.671444 1.1159624
23.470469 39.385918 3.55419
23.708216 39.6889 4.3246856
24.271772 39.67149 5.0709605
23.554945 40.60316 0.9160209
23.550694 40.54083 4.441914
24.055202 40.568073 5.06212
23.768166 41.433186 0.9439159
23.576826 41.71013 3.7835193
23.723766 41.335167 4.462757
24.079203 41.301037 5.009925
23.908289 42.155056 1.1639309
23.676975 42.30801 1.5411572
23.51798 42.323463 2.486854
23.808535 42.311653 3.214644
23.99557 41.949444 4.2574463
24.208738 41.773193 4.812361
23.971806 42.70232 1.7781641
24.001614 42.780746 2.3423092
25.323307 34.03585 2.6975589
25.246838 33.89587 3.680431
25.116344 33.974785 4.5439825
25.062672 34.00789 5.475737
25.223335 34.00763 5.9874353
25.257923 34.803936 1.9908319
25.178543 34.4239 2.6162233
24.92889 34.50017 3.6362631
24.689756 34.647484 4.5722103
24.636412 34.649696 5.463977
24.929987 34.768406 6.2135267
25.15152 35.001137 6.7210197
25.165468 35.601173 1.9375234
24.757492 35.430546 3.0166993
24.67165 35.483166 3.5467935
24.556604 35.34948 4.4828305
24.529371 35.584114 5.662095
24.74023 35.51086 6.216444
25.115828 35.399696 6.745603
25.19768 36.026222 1.8202862
24.882063 36.262047 2.826393
24.645666 36.37301 3.623793
24.514906 36.573635 4.7368784
24.555735 36.275223 5.465261
24.842522 36.264584 6.273937
25.35779 37.06307 2.3007731
24.339766 39.093403 1.3253446
24.511967 38.85044 1.7878288
24.747866 39.684025 5.318304
24.62605 40.649525 0.72722894
24.351328 40.67113 5.2938366
24.566599 41.602055 0.7606826
24.463423 41.374577 5.2989845
24.423782 42.21467 1.027662
24.8541 42.443344 3.6916966
24.438433 41.82307 4.938978
24.444 42.755543 1.5900153
24.483646 42.922256 2.2841263
24.238419 42.71534 3.15317
26.143938 33.297443 2.6936002
26.036707 33.204952 3.5345914
26.1826 32.881325 6.4941087
25.8439 34.044113 1.8854613
25.658943 33.73958 2.618645
25.619717 33.6263 3.30999
25.483606 33.647324 4.45374
26.009981 33.774494 7.4582014
26.268393 33.59126 8.243517
25.901508 34.92054 1.2506052
25.532024 34.584984 1.7447698
25.984898 34.43138 7.738907
26.178167 34.32831 8.244368
25.960455 35.407074 1.0809841
26.072287 35.091606 7.499228
26.25159 35.319366 8.249104
26.20348 36.554295 0.9232357
25.569113 36.391525 1.6067027
25.751505 36.366165 7.0058355
26.398602 37.87352 -1.9042104
26.427176 37.851936 -0.9192897
26.146328 37.450428 0.7045823
26.026552 36.959766 6.702189
26.33023 38.65715 -3.1361609
26.221846 38.520576 -2.4941964
26.336086 38.891125 -1.6438745
26.132505 38.879166 -0.62313503
25.86127 38.223236 0.74200284
25.551142 38.569817 1.4007746
25.917171 38.501602 6.016965
26.384434 39.060246 -3.1037421
26.377407 39.231644 -2.7241185
26.368221 39.45107 -1.4909428
26.270906 39.387714 6.4218616
26.316927 39.39525 6.884472
25.142603 40.699677 0.5699349
25.779997 40.434628 6.0451784
25.674664 41.470486 5.8197036
25.072687 42.123837 0.97241646
25.277107 42.55302 1.390635
25.23688 42.44327 4.466879
25.914316 42.45777 5.1381984
26.01773 41.863697 5.695593
25.310017 42.754883 2.3599045
25.259972 42.72728 3.4324958
27.447239 27.022474 -9.196726
27.429712 26.945467 -8.713639
27.31963 27.621538 -9.191064
27.25661 27.664494 -8.534974
27.298435 27.849447 -8.112158
27.32082 28.354002 -9.217871
27.22114 28.392462 -8.55255
27.305126 28.37999 -8.076847
27.381052 28.974953 -8.926495
27.326374 28.880877 -8.520566
27.334158 32.02879 4.840135
26.863379 32.06369 5.542309
27.03199 31.941069 6.315054
26.947355 32.23987 7.238626
27.21363 32.416447 8.578013
26.69425 33.04463 2.5048532
26.970346 32.72653 3.9209085
26.486814 33.082634 4.2136045
26.447853 32.58538 5.7251015
26.659527 32.353226 6.664163
26.597878 32.67837 7.701961
26.750875 32.80213 8.429173
26.910881 32.943398 9.115801
27.29264 33.20882 13.412496
27.280443 33.231064 14.512119
27.36885 33.684475 -11.348253
27.40352 33.66514 -10.859629
26.822691 33.67908 1.7176826
26.761919 33.435337 9.330846
27.372446 33.716145 10.130351
27.341305 33.466534 11.598599
27.211233 33.76047 12.386579
27.013018 33.694065 13.684238
26.894222 33.82307 14.474838
27.085394 33.825195 15.226038
27.205177 34.065624 15.797584
27.4146 34.131035 -11.444853
27.410683 34.267685 -10.878038
26.450129 34.982903 0.966342
26.628841 34.600113 9.208834
27.394646 34.723434 10.526062
27.26742 34.37822 11.338933
27.155556 34.857685 12.627344
26.767754 34.573444 13.708728
26.71209 34.363964 14.526285
26.886946 34.58526 15.296133
27.244738 34.68088 15.984929
26.82105 35.561695 0.58620536
26.531343 35.698418 8.201422
27.095966 35.65499 13.019811
26.731083 35.35658 14.602318
26.900497 35.374313 15.134408
27.403654 35.629658 16.32872
27.121447 37.24016 -3.1679742
27.096672 37.08996 -2.7049134
27.070415 37.017303 -1.6247239
26.809946 36.931515 -0.4952597
27.264395 36.113583 12.681173
27.027996 36.15412 13.58654
26.95215 36.281162 14.553959
27.14969 36.32834 15.391469
27.418304 36.0784 16.244236
27.15065 37.907104 -4.026174
26.70132 37.860237 -3.3929613
26.521988 37.756042 -2.43926
26.748537 37.450104 -1.4939609
26.481544 37.422565 0.19427398
27.255377 37.73453 8.0276375
27.371153 37.753204 13.712887
27.38328 37.397263 15.421138
26.99857 38.46458 -4.008642
26.560635 38.430237 -3.512053
26.54462 38.330307 6.919484
27.155132 38.091366 7.87
27.434765 38.187145 13.801847
27.129946 39.254425 -3.9476457
26.557129 39.19522 -3.3220532
26.576294 39.506123 -2.6643255
26.712852 39.257126 7.3039336
27.212006 39.374416 7.7890477
26.95617 39.77676 -3.409341
26.986864 39.995403 -2.7874677
26.861376 40.118046 -1.340605
26.582954 40.20164 6.8660507
27.185818 40.370667 7.793539
27.09594 40.865334 -0.32163462
26.764343 41.166077 6.6838126
27.035797 41.5912 7.3290105
27.24418 41.664047 8.312195
27.117756 42.142204 9.543693
27.018293 41.800846 1.0582626
26.346457 42.54972 2.1152165
26.777548 42.52193 7.647214
27.048504 42.701355 10.220259
27.356276 42.786613 10.92219
26.576952 42.92452 2.7658913
27.094738 43.407005 5.2848125
26.984558 43.186295 7.0879245
26.769403 43.565884 7.7999973
26.711044 43.376076 8.439024
26.81785 43.756996 9.555381
26.963186 43.50931 10.35579
27.25758 43.47999 10.91411
27.34027 44.978577 2.9932456
27.291092 44.26803 3.5463855
27.01614 44.555164 4.9194994
26.948273 44.181526 8.710488
26.907654 44.442978 9.605723
27.058846 44.402336 10.343146
27.289433 44.467674 10.781983
27.081673 45.515526 3.8573456
26.902975 45.713856 4.700572
27.133768 44.776596 9.085763
27.216446 45.09143 9.641375
27.2213 44.954292 10.196949
27.041143 46.29408 3.6245344
26.895939 46.323475 4.5985956
27.152351 46.385956 5.307417
27.222427 45.99325 5.755498
27.290709 47.322033 3.1826725
27.09289 47.334282 3.7564352
27.031536 47.615124 4.494089
27.199999 47.518444 5.190498
27.281197 48.090576 3.7311814
27.230135 48.240604 4.551003
27.295696 48.128693 5.027489
28.167654 26.182148 -9.79218
27.971312 25.940788 -9.229901
28.026253 25.858892 -8.700686
28.174038 26.003275 -8.191226
27.99817 26.680983 -9.897654
27.70984 26.57509 -9.400128
27.63379 26.55175 -8.536743
27.828487 26.661707 -8.031303
27.874687 27.495708 -10.014545
27.489868 27.414894 -9.542644
27.68246 27.481764 -7.754319
27.784933 28.254986 -9.934884
27.452974 28.479107 -9.463251
27.565395 28.417679 -7.782468
27.928381 28.102348 -7.4044204
28.304218 28.94154 -10.252757
27.624422 29.119911 -9.266408
27.636814 29.289455 -8.623893
27.739408 29.070013 -7.947107
28.389933 30.201262 -9.573187
28.321474 30.352932 -8.634892
28.207006 29.82423 -8.162116
28.020174 31.256239 5.0541563
27.44117 32.34848 3.5631623
27.922012 31.560574 6.7701306
27.500065 31.994804 7.5060773
28.020327 32.006283 8.447674
27.741932 32.360508 9.06159
28.171692 32.34207 9.9851055
28.00421 32.30509 14.218277
27.93679 33.071297 -12.040061
27.707647 33.020054 -11.457259
27.707745 33.126366 -10.634788
27.928185 32.86562 1.8805001
27.448324 32.692265 9.524338
27.91799 32.870895 10.299476
27.854418 32.88575 11.281001
27.6671 32.985466 12.4746275
27.763304 32.71367 13.533471
27.80444 32.71862 14.461083
27.87382 32.89565 15.189132
28.026463 33.27836 15.912332
28.251442 33.50813 -12.639549
27.830683 33.606934 -12.225249
27.500744 33.305763 -11.5766535
27.533882 33.512634 -10.560828
27.86839 33.68249 -9.816923
28.27332 33.79552 -9.118531
27.664265 34.02173 1.0331197
27.992407 33.6117 1.4321432
27.442226 33.343967 12.811121
27.407972 33.48251 15.296175
27.791574 33.782726 16.207386
28.20763 34.211845 -12.635129
27.889683 34.369076 -12.152681
27.538069 34.44084 -11.499869
27.53733 34.357086 -10.584447
27.920214 34.40435 -9.753602
28.210873 34.44416 -9.179684
27.32891 34.32953 0.959278
27.60987 34.420937 16.308651
28.150875 34.31487 16.620193
28.037834 34.82203 -11.960501
27.870928 34.93622 -11.35701
27.824806 34.947987 -10.740395
28.342342 35.231853 -9.8970785
27.704231 36.345264 -1.0408075
27.442377 35.68306 0.11107138
27.707392 35.751328 16.650696
27.993803 35.708664 16.945972
28.026611 36.626385 -3.114322
27.665699 36.640266 -2.418864
27.356758 36.641895 -1.0720663
28.108082 36.19639 10.413521
27.789276 36.244865 11.83012
27.699747 36.700382 16.636864
28.06586 36.178383 17.052965
27.559814 37.673637 -4.1771755
28.211983 37.538555 8.5217495
27.669195 37.019703 12.348848
[...]
POINT_DATA 3496
SCALARS features_00 float 1
LOOKUP_TABLE default
0.6948706 0.6949908 0.61496663 0.7401371 0.7573369 0.7215706 0.6610769 0.81781864 0.83233654 0.7996588 0.6566629 0.55917525 0.82577986 0.81936514 0.78535616 0.6614901 0.5506482 0.77677965 0.74232155 0.6622759 0.40491718 0.3949593 0.3949041 0.4014631 0.3884483 0.63596773 0.6301359 0.5166241 0.4416157 0.69741976 0.58038723 0.51513505 0.4199493 0.7853754 0.5221444 0.44423568 0.7769165 0.5760729 0.51679635 0.45226285 0.77313435 0.7743646 0.7119596 0.6209655 0.5137136 0.46000326 0.74389017 0.705165 0.41336855 0.38292855 0.38335 0.3865651 0.36333704 0.4291728 0.42732945 0.4065786 0.40344405 0.40556756 0.37781027 0.33224803 0.37499756 0.40414327 0.39495128 0.39759457 0.3990981 0.381759 0.329565 0.3179918 0.35356092 0.34126115 0.34390184 0.38509396 0.35893118 0.14084163 0.49618083 0.41841686 0.3170227 0.6948194 0.39965263 0.71186554 0.4038821 0.7346357 0.53105134 0.43656787 0.7175328 0.6821185 0.61921275 0.35403335 0.31174868 0.27139437 0.4172448 0.39604738 0.3642766 0.34534436 0.30853605 0.3273593 0.37359154 0.4261929 0.28156623 0.29296273 0.315467 0.252797 0.21984546 0.10173164 0.22408827 0.19697854 0.44814157 0.24409932 -0.091554195 0.11306466 0.5900036 0.55741084 0.49430332 0.24827509 -0.17063053 -0.13810968 -0.0020534098 0.57930356 0.55966806 0.4938972 0.008631992 0.003309166 0.60816246 0.10354583 0.24663192 0.6382288 0.596182 0.41920948 0.2530575 0.20836589 0.5970589 0.542248 0.8515868 0.87857676 0.7846545 0.79981023 0.78525674 0.71524656 0.7288617 0.7260604 0.64954746 0.6686517 0.14933713 0.17817065 0.1881225 0.21719679 0.20338549 0.32527697 0.20893013 0.24597591 0.22678718 0.23251623 0.28135502 0.27297148 0.2400741 0.35615194 0.4396268 0.7387005 0.68366736 0.35124522 0.26599762 0.19109401 0.20040739 0.2767636 0.40447518 0.46902177 0.4859439 0.48098016 0.7468103 0.6969829 0.30956435 0.27581346 0.19064617 0.18065052 0.32328182 0.44976825 0.49165112 0.49157125 0.46781233 0.18444267 0.15719298 0.354652 0.47707903 0.46680576 0.43713814 0.51744807 0.45268744 0.32202375 0.103561416 0.27939335 0.36154562 0.4004212 0.4010809 0.42300594 0.5969065 0.59383804 0.51227045 0.33394969 -0.027775496 0.042107783 0.31526428 0.36888623 0.6068533 0.60589886 0.027915101 0.030515924 0.33181903 0.56296885 0.5764725 0.53627694 0.0026098415 -0.002312921 0.51506114 0.47408912 0.39570117 -0.0323672 -0.055732712 -0.012688821 -0.08150923 -0.020130707 0.12333669 0.41588172 -0.018287007 0.31893522 0.21727705 0.56878686 0.6406591 0.24348417 -0.17870736 0.14713967 0.2877332 0.39992052 0.5743918 0.6478933 0.6687015 0.22245292 0.19010484 0.18199812 0.43290704 0.5739819 0.6364119 0.64692533 0.33921662 0.38584238 0.48759213 0.5562527 0.60719335 0.38996595 0.454134 0.41295028 0.2861377 0.39519578 0.4694004 0.50666034 0.4762854 0.47516334 0.506034 0.4938391 0.894147 0.9400654 0.93801874 0.91542363 0.8383585 0.89965236 0.929862 0.9134205 0.7393193 0.78483856 0.82391584 0.68381536 0.6893877 0.71140265 0.73942506 0.5930592 0.6140922 0.6030329 0.6230695 0.45443448 0.4008708 0.4902115 0.17902133 0.19312152 0.13663942 0.16099808 0.11371644 0.14460462 0.09061968 0.36553505 0.75002664 0.71803474 0.5989602 0.25956202 0.16685699 0.11836492 0.11962463 0.25360346 0.34451264 0.40116212 0.43273392 0.4504229 0.73098177 0.7693603 0.7506256 0.6272414 0.5026269 0.37370557 0.24647656 0.23558003 0.30429825 0.47185284 0.46048996 0.74082893 0.7684321 0.75026405 0.66653943 0.5651591 0.47338948 0.26774785 0.4576148 0.43480206 0.74611205 0.72457063 0.68165636 0.5757237 0.19387652 0.05415774 0.4372247 0.43925425 0.32040685 0.32765716 0.21826851 -0.07258604 0.10443647 0.42783266 0.43970641 0.55960536 -0.07179135 0.19269493 0.38468432 0.41859096 0.45273417 0.5569017 0.011126474 0.25203907 0.28289598 0.32837933 0.3761087 0.39065444 0.4354726 0.5032133 -0.016811334 0.28160498 0.35237113 0.41543996 0.41564882 0.4632365 0.39741403 0.38329005 0.343261 0.443635 0.23254254 0.1405716 -0.1234801 0.04394488 0.14262848 0.5047386 0.6148653 -0.3047856 0.57915014 0.64064974 0.6623628 0.67095566 0.66196096 0.104539275 0.045753587 0.65175396 0.10410667 0.24223763 0.14803791 0.3304982 0.53302777 0.585359 0.60123795 0.1966339 0.26264006 0.2833713 0.6771629 0.64040756 0.3133179 0.42130774 0.3496507 0.6722226 0.6723326 0.6553899 0.600313 0.352278 0.44169164 0.493675 0.46141893 0.42530766 0.65869117 0.63240653 0.31424758 0.4610153 0.48709965 0.45688224 0.90321535 0.90140426 0.88175 0.9159558 0.9134898 0.8820152 0.8013357 0.8632382 0.64634556 0.6952596 0.80554545 0.5754007 0.48398972 0.6076045 0.60015696 0.6260694 0.59610283 0.58526146 0.5125822 0.42110384 0.54207003 0.5399674 0.51531255 0.5081924 0.21751533 0.24045563 0.25054246 0.41023785 0.2977848 0.43783203 0.4083324 0.15867253 0.1771407 0.21778014 0.19331129 0.12873045 0.037803777 0.27337068 -0.01873228 0.02104567 0.12801287 0.1651302 0.034190662 0.019279735 0.274966 0.3053271 0.3093703 0.6709877 0.6864514 0.22510508 0.0029860344 0.22659667 0.37005797 0.41621178 0.6899177 0.14219095 0.698075 0.73583835 0.3668595 0.23116435 0.43320715 0.6820754 0.6871661 0.6506943 0.61330086 0.4166901 0.20717657 0.10582964 0.44383216 0.44612417 0.5647674 0.5071643 0.094755575 0.3310928 0.2663539 -0.1704823 0.4471441 0.447275 0.2728636 0.35992122 -0.2001741 -0.17652172 0.01897753 0.45350388 0.44940823 0.29532495 0.3027751 0.1441327 0.46343708 0.44803822 0.26583904 0.076109394 -0.0034675598 0.389996 0.47704428 0.21038656 0.2369807 0.55281997 0.435939 0.4527137 0.4505121 0.15001221 0.01661767 -0.13548921 -0.2402288 0.62705684 0.6529769 0.44292477 0.4462611 0.43185025 -0.18817005 -0.27106518 -0.036734015 0.6331148 -0.06542817 -0.008463658 0.60084057 0.542242 0.57722425 0.67800486 0.6547165 0.043365538 0.17658827 0.0013493747 0.45317692 0.6832142 0.687225 0.6784905 0.64369714 0.5039364 0.17442772 0.16758841 0.61733294 0.6568196 0.65998465 0.57068104 0.25486237 0.048181325 0.6156101 0.6383045 0.6132953 0.493017 0.12110633 0.19516316 0.4744682 0.39143276 0.5721265 0.5987412 0.595511 0.05251236 0.20430833 0.41263667 0.4578461 0.5267763 0.58065915 0.6056865 0.6024728 0.87335813 0.65869 0.8257998 0.86612225 0.83183485 0.80445373 0.57249606 0.64146745 0.6720176 0.65062606 0.72284746 0.7929442 0.50021535 0.5221781 0.33458972 0.2681447 0.4729789 0.5906582 0.643242 0.59542674 0.6525873 0.62883395 0.45243758 0.3661546 0.20715538 0.5072534 0.54920805 0.39389992 0.24467587 0.292203 0.29367274 0.26709163 0.4526524 0.47529703 0.41970462 0.13961114 0.20246878 0.26943785 0.22996241 0.21437606 0.3927431 0.375089 0.39322963 0.3585161 0.2719394 -0.002224408 0.12823376 0.13840514 0.11895521 0.14197111 0.60399604 -0.10530592 0.29245305 0.21265128 -0.02153584 0.13079396 0.23130824 0.24427047 0.2216001 0.24665771 0.6645789 0.65083885 -0.07410079 0.14374435 -0.0772874 -0.11393587 0.67975867 0.6789764 -0.067000434 -0.16772631 0.30047077 0.67963624 0.6833612 -0.048023637 -0.16379526 -0.25555497 0.43184376 0.67402697 0.6358014 0.33851844 -0.15062433 0.0342891 0.06322351 0.59356487 0.57950705 0.5313027 0.37745735 0.14301258 0.041653633 -0.011970535 0.05682936 0.09610995 0.43885493 0.43549138 0.27754426 -0.17961192 0.4331439 0.26377755 0.1834639 0.4167913 0.42467874 0.16862707 -0.0018576905 -0.058547013 0.4090226 0.38126945 -0.09838824 0.3266421 0.37948018 0.4291662 0.4080343 -0.13702483 -0.1268109 -0.187354 0.547199 -0.12671623 0.5685732 -0.2079713 -0.41667902 -0.1556903 0.63253194 0.53259665 -0.30187333 -0.057896275 0.6824752 0.6629944 0.49495023 -0.01817216 0.665926 0.2856868 0.5888289 0.38470978 0.38262954 0.37510598 0.5093801 0.5302546 0.23226385 0.44597805 0.43544948 0.5009925 0.5033851 0.4969547 0.33755878 -0.049749676 0.3392865 0.28936398 0.17388749 0.3600674 0.50678664 0.58910847 0.4884038 0.5823293 0.5668513 0.69630265 0.6950992 0.6927484 0.6281521 0.5994973 0.69986635 0.7261969 0.7101103 0.64933217 0.61146843 0.62147593 0.6628458 0.6877206 0.6936321 0.74222493 0.2686828 0.54486704 0.6972276 0.7071231 0.52773845 0.6784556 0.7040317 0.2989873 0.35890374 0.4395396 0.6698667 0.6846918 0.4638793 0.45422494 0.29713815 0.43263966 0.46894556 0.56689686 0.25291118 0.28994483 0.2996045 0.27679366 0.36167908 0.32830006 0.46435362 0.2970122 0.27492213 0.24633092 0.20386326 0.108160764 -0.12424365 0.09007848 0.21039894 0.15769689 -0.2711426 -0.28336495 -0.008170741 0.086880706 0.09000745 0.13694745 0.1874073 0.266276 0.54381686 -0.0045954883 0.12900677 0.31140804 0.6526984 0.2621187 0.67691165 0.6835787 -0.11052351 -0.12992257 -0.2092404 0.68071103 0.6790128 -0.16314228 -0.22734669 0.667056 0.5956402 0.5679689 -0.05106457 -0.26940763 0.42038578 0.5705063 0.5311817 0.08663157 0.045470275 0.41580772 0.15210794 -0.40759265 0.3575968 0.1459143 -0.36618415 0.36350775 0.115484685 0.10799503 -0.20412503 -0.24653876 -0.304621 0.31269628 -0.018821005 -0.17854159 -0.20708388 0.13981621 0.3366447 0.3290977 0.18656531 -0.14763449 -0.15920076 -0.20550522 0.19776195 0.12613323 0.1968215 -0.14950977 0.30094025 0.21387215 -0.37604812 -0.45488927 0.16855688 0.33200973 0.42554116 0.2666235 0.43225652 0.53906536 0.43032703 0.46240824 0.43581742 0.38321245 0.40030026 0.43696475 0.39664954 0.26550087 0.42989582 0.45410594 0.44807404 0.42464596 0.32707503 0.3865844 0.43524367 0.19152364 0.45310587 0.20556007 0.41763735 0.5076896 0.5870788 0.6536233 0.5499778 0.4966426 0.61408746 0.6692544 0.6720675 0.5832231 0.5484881 0.64383566 0.6482446 0.6186228 0.49717373 0.22685419 0.1864226 0.5058707 0.59686136 0.61999094 0.6563739 0.67404354 0.14052185 0.16615911 0.1699488 0.6669853 0.61852854 0.6316565 0.544514 0.5564836 0.33847255 0.43606168 0.1873987 0.51056784 0.2266377 0.2807197 0.28382683 0.2740279 0.25672233 0.34197515 0.08662553 0.25193825 0.18891294 0.1876058 0.25547197 -0.469207 0.24588785 0.15860146 0.1293157 0.38427567 0.47185808 0.54947054 0.23268741 0.41930383 0.525938 0.5522031 0.59067035 0.48546797 0.48350883 0.7098707 0.38677013 0.6535013 -0.15734366 -0.32498816 0.17407428 0.5744867 0.21785533 0.4189676 -0.12854455 0.062301863 0.3979352 0.30324867 0.14670524 -0.3439502 -0.16198221 0.37098068 0.40756494 0.4208027 0.3820492 0.37084645 0.103304766 -0.086472236 -0.0086694695 0.062927425 0.2990678 0.33884433 0.3868686 0.45254797 0.4567837 0.40083808 0.10203485 -0.10344249 0.055159558 0.12000699 0.08730635 0.47144967 0.4348509 0.3188368 0.18512955 -0.046533115 0.12469049 0.35861197 0.2361505 -0.07621242 0.34924787 0.42146933 0.48370796 0.48833513 0.47234023 0.5038495 0.26799595 -0.22640756 0.3804834 0.44163218 0.47895592 0.50115985 0.21685684 -0.17008504 0.2888568 0.33951724 0.43566692 0.4377179 0.4547156 0.47850677 0.25151518 0.27734172 0.073935576 0.4253182 0.45070365 0.45804772 0.4682905 0.16006964 0.31256852 0.39092058 0.48775712 0.59361327 0.44777143 0.43145812 0.535979 0.50905293 0.45974076 0.49521416 0.3015638 0.3462519 0.3760026 0.35868615 0.3416198 0.35105404 0.49499458 0.120549485 0.26887888 0.28226304 0.29770857 0.23403709 0.5172541 0.4973736 -0.020592716 -0.11368532 0.45222288 -0.21533178 0.049099267 0.33268717 0.33368176 0.3201114 0.024131551 0.25686797 0.25359637 0.06480261 0.22031267 0.22209205 0.2216591 0.35055593 0.49420285 0.544157 0.5834372 0.21202616 0.23744117 0.5193919 0.59066534 0.6301179 0.58267397 0.6347288 0.5981101 0.5103378 0.5317493 0.5966836 0.44364047 0.6107474 0.5281677 0.51610136 -0.060756892 0.20961148 0.3020057 0.45424557 0.29051644 0.09145923 0.48853675 0.10623474 0.069974855 0.48866478 0.33050495 0.44641668 0.36896357 0.3830401 0.41114098 0.43944365 0.3956123 0.43831414 0.21415211 0.28844392 0.33157218 0.4453742 0.46236306 0.42068064 0.4259143 0.35463426 0.2423181 0.22712074 0.46314585 0.49114436 -0.2974537 0.5158748 0.50699544 0.060007952 0.09651716 0.51109624 0.5163809 0.12848344 -0.2308159 0.30913725 0.50301266 0.50741327 -0.014531738 -0.13414674 0.41042793 0.43233657 0.4967689 0.51213545 0.5102718 0.07880942 0.24705233 -0.011889396 0.10215388 0.2622208 0.41172317 0.32270035 0.3479807 0.23437247 0.2417083 0.29270622 0.33287174 0.36807185 0.27662462 0.39163476 0.41808158 0.4048364 0.32103065 0.4146879 0.37390023 0.27006128 0.18421163 0.3716837 0.29089403 0.22709616 -0.04380118 0.04727343 0.37215835 0.38049543 0.04694261 -0.05131961 -0.10684263 0.36978874 0.42187312 0.42140573 0.07526723 0.016725447 0.10546783 0.18660972 0.33893004 0.39296 0.4014431 0.37800032 0.29442978 0.24509925 0.1732409 0.12917154 0.23423648 0.29111326 0.4151498 0.5154644 0.57228595 0.60435295 0.13633388 0.6421224 0.6697507 -5.3614378e-05 0.6977786 0.68348837 0.57587564 0.4958802 0.3774533 0.48802567 0.40028918 -0.08788329 0.29449314 0.021642402 0.2825989 0.5062131 0.53030455 0.32608864 0.2759533 0.5450561 0.54498935 0.25696787 0.19428453 0.543072 0.2158823 0.50172496 0.29553956 0.33519796 0.4073699 0.33647335 0.3472148 0.39309064 0.38624716 0.3991781 0.356552 0.24328963 0.3236367 0.2682743 0.29237357 0.11553391 -0.13231489 0.403632 -0.109985635 0.45056963 0.45909262 -0.0649895 -0.56284285 0.42814657 0.4617468 -0.051870942 0.30425245 0.47076496 0.48922393 -0.15871187 -0.24808931 0.3197062 0.45226896 0.5064832 0.49719173 0.5030024 0.3009359 0.36899155 -0.045653794 0.48024768 0.45140785 0.025254138 0.5652068 0.49664587 0.39774692 0.5735432 0.55649155 0.46022177 0.40408683 0.43702653 0.34296286 0.4302486 0.45359075 0.24370384 0.33452752 0.4156564 0.44376692 0.63534373 0.6064507 0.5615901 0.5911803 0.5693835 0.41606373 0.2762562 0.3139939 0.3765899 0.30441228 0.2262499 0.48013452 0.4607813 0.15910262 0.20956302 0.15805376 0.076692134 0.21237479 0.019922033 0.21725237 0.3832286 0.4393573 0.4541003 0.44809875 0.25095892 0.4247405 0.37812987 0.24894598 0.26126596 0.49999467 0.22220364 0.38660195 0.41025373 0.46706772 0.5528338 0.5954479 0.6318797 0.66059613 0.6832768 0.67817485 -0.029057302 -0.26329067 0.656253 0.16280144 0.56414616 0.4166656 0.404221 0.2649598 0.28517982 0.44030756 0.55704385 0.44466347 0.2671795 0.63659805 0.55581635 0.51129293 0.5864824 0.50427204 0.54632473 0.41317418 0.47251195 0.36379862 0.519668 0.3747001 0.54514635 0.5496819 0.32015136 0.30098158 0.56038594 0.2139546 0.53640985 0.17114052 0.39453843 0.19405904 0.25468862 0.34136373 0.35279682 0.12505303 0.30469143 0.208334 0.09919396 0.23594894 -0.15144345 0.3051473 0.3206926 -0.07726205 -0.4386162 0.28107357 0.3374349 0.36487967 -0.07659684 -0.26529536 0.31421247 0.29915667 0.376616 0.38025656 0.39604968 0.11580711 -0.23146245 -0.23116758 0.43756342 0.47960597 -0.14121687 0.58346486 0.5659244 -0.020309605 0.62950087 0.61918867 0.25883314 0.6213482 0.56042784 0.39022297 0.5048365 0.43451256 0.40623337 0.47384667 0.43763497 0.41221976 0.41252083 0.29496938 0.33802855 0.4074352 0.4776717 0.48355925 0.62144876 0.64476115 0.60022265 0.49891186 0.5628801 0.011369038 0.09841989 0.24247964 0.26313406 0.20284392 0.4896324 0.5091035 0.15630466 0.18192199 0.30611327 0.14982888 0.0433695 0.2079793 -0.005572729 0.34152672 0.41935578 0.46432298 0.47482497 0.47593716 0.22481017 0.17468709 0.47050983 0.45440733 0.37508845 0.13163745 0.16236301 0.26374453 0.51458347 0.5759678 0.61096925 0.6291492 0.10510515 0.256761 0.62854075 0.6439547 0.6643232 0.6328645 0.64151824 0.0057682395 0.571373 0.5732858 0.36021382 0.28823715 0.29039133 0.49049234 0.48018777 0.4338544 0.0400197 0.40712452 0.596961 -0.101639174 0.6678259 0.002027534 0.6850817 0.6546613 0.20278093 0.5912668 0.4069402 0.45337346 0.5139271 0.3876118 0.39231533 0.5344017 0.36892447 0.46978608 0.5280009 0.32092005 0.41372508 0.25813547 0.28632653 0.21713538 0.1186234 0.23969845 0.15388623 0.17000178 0.16049848 0.17967394 0.19101325 0.62542236 0.59012914 0.1903573 0.20485707 0.19709519 0.25761294 0.6714335 0.6332189 0.4783368 0.15806124 0.14805327 0.021037139 0.20988229 0.66795737 0.520164 -0.05240915 -0.36357832 0.10909956 0.42155915 -0.16154367 -0.20095226 0.53018594 -0.0106438175 -0.07045927 0.5799964 -0.003150791 0.61707175 0.6154165 0.10984196 0.6073145 0.54892606 0.37346834 0.5109117 0.44007605 0.45761123 0.43638238 0.42660528 0.416443 0.31347013 0.43636706 0.49193978 0.47908247 0.5834403 0.5540603 0.4458487 -0.0010190726 0.20340908 0.14404671 0.17571077 0.3354066 0.4878747 0.16220006 0.2826234 0.37634093 0.34277043 0.38046622 0.2718531 0.34458315 0.3889387 0.44902268 0.47147083 0.38430625 0.29471022 0.46593112 0.45673764 0.23317778 0.4204036 0.4140635 0.14312829 0.23066804 0.48533955 0.5789081 0.61604196 0.091267005 0.01883974 0.0307017 0.1133554 0.48599428 0.6048176 0.63360703 0.6317637 0.006770164 0.0073206574 0.16920285 0.46273816 0.6331791 0.61765623 -0.018085793 0.5819937 0.5663053 0.33318803 0.24932164 0.49005163 0.46633732 0.40364927 0.5412532 -0.08290587 -0.10789585 0.6777768 -0.0916396 0.68768704 -0.08606365 0.06519382 0.6547451 0.5481223 0.22520217 0.35291597 0.30626816 0.42711335 0.47190788 0.31973797 0.44550115 0.47880167 0.33954537 0.26938576 0.37807322 0.34133822 0.3054797 0.33637232 0.29039973 0.13969117 0.17131966 0.15396857 0.26935083 0.19915473 0.56626815 0.5297889 -0.050280392 0.12211641 0.6207434 0.6235045 -0.17066135 0.66794646 0.6846635 0.7475774 0.71880376 0.6392305 0.48822695 -0.09487085 -0.0785056 0.045785043 0.76375973 0.7081066 -0.1314766 -0.05738582 0.5236633 0.5450672 0.48198152 0.051675253 0.5843851 0.5606189 0.20127246 0.5346844 0.4917658 0.3313127 0.43973714 0.42375904 0.39350253 0.3461084 0.39078844 0.4250953 0.4126405 0.38405603 0.5123692 0.5230098 0.4927138 0.18677537 0.275251 0.29351568 0.4883059 0.33362138 0.058365718 0.14206195 0.24101786 0.27743334 0.45832783 0.17470446 0.33786565 0.3975566 0.45386487 0.4468258 0.45585912 0.75218296 0.75109607 0.7030188 0.16746317 0.43078017 0.7088909 0.58174866 0.21813045 0.29200166 0.35810113 0.45337248 -0.019645214 0.094672516 0.27297497 0.36347246 0.39782342 0.45050806 0.45094815 0.3523684 0.4127568 0.39407155 0.2967584 0.15828894 0.27456927 0.032228827 -0.018866057 0.5418861 0.62425435 -0.09800331 -0.0085349865 -0.025449082 0.5466976 0.6322636 0.646377 -0.091649376 0.53592163 0.61554575 0.6386017 0.31209975 -0.122335166 -0.100779876 0.46686655 -0.0637281 0.6389014 0.6200715 0.4248912 -0.09219379 -0.048209332 0.46011138 0.0066916645 0.09721108 0.347749 0.38829654 0.20901337 0.19846514 0.31135175 0.38896847 0.27156717 0.27955997 0.1661072 0.2680537 0.35356462 0.24343161 0.14737424 -0.072163396 0.041493088 0.04131721 0.18732567 0.19656011 0.0037608743 -0.037456885 0.22869343 0.25503543 0.2125873 0.21915343 0.5179784 0.1928117 0.6026477 0.023270339 0.6605505 0.7064236 0.17533508 0.8036461 -0.013783276 0.24778084 0.8171894 0.7959974 0.7403066 0.68953407 -0.13001223 0.051898938 0.78313696 0.7691014 0.20068038 0.006167233 0.42416584 0.44632536 0.24354017 0.18692446 0.43478832 0.38610816 0.30785775 0.40901458 0.36412087 0.3643703 0.2579711 0.2910114 0.446385 0.4440074 0.5533279 0.559227 0.53024554 0.48511595 0.6987166 0.5945364 0.700786 0.51905334 0.40144303 0.27147007 0.28183854 0.19413626 0.24231634 0.32351607 0.32268518 0.38090032 0.30273557 0.2637514 0.34196705 0.22319701 0.35389638 0.44404727 0.83727634 0.8557489 0.80858475 0.4575833 0.45136708 0.7583993 0.780629 0.41792637 0.4112103 0.73970544 0.6992546 0.20382997 0.25935474 0.58542866 0.06949069 0.26485234 0.30888745 0.5415096 -0.015567357 0.19653466 0.36346748 0.2643265 0.30648685 0.36210334 0.27404994 0.08326673 -0.28222927 -0.0017163968 -0.11312931 -0.22440255 0.5733079 0.5016089 -0.25186375 -0.26799902 -0.27123562 0.40909576 -0.21748547 0.02984913 0.068377204 0.05310656 0.20023486 -0.006973412 -0.051339403 -0.048642427 0.10585344 -0.09486116 0.16150239 0.14084333 -0.032483984 0.0960379 0.09347401 -0.114502475 -0.07364513 0.05452305 -0.122575186 0.21477321 0.17230064 0.18491271 0.42216238 0.06683199 0.54932165 -0.086787716 0.7319629 0.138499 0.8057933 -0.10249965 0.26959985 0.23131952 0.8133724 0.8009285 0.73211855 0.22027683 0.30948412 0.2899385 0.79136354 0.767985 0.7421547 0.081576124 0.17162621 0.17805222 0.28892094 0.14640552 0.10838569 0.33305603 0.51008224 0.4928633 0.47253817 0.5231966 0.5436025 0.5326036 0.80928445 0.75246173 0.63002646 0.5706442 0.7022562 0.69967353 0.41546875 0.27100456 0.4714031