# vtk DataFile Version 2.0
Really cool data
ASCII
DATASET POLYDATA
POINTS 4303 float
3.4186525 54.091232 16.13546
3.3435378 54.87891 14.934626
3.224532 54.651157 15.67471
3.1808045 54.80209 16.249817
3.3611946 54.88847 17.030888
3.3972013 55.734577 15.031638
3.1660068 55.57665 15.640541
3.1293135 55.448063 16.47799
3.3275266 55.460728 16.992031
3.258764 55.946053 15.711147
3.205005 55.92472 16.262667
3.393737 55.903538 16.85369
4.4031453 40.821884 4.7494264
4.3758235 40.78224 5.4579287
4.3896084 41.307617 4.7827454
4.35173 41.498737 5.5554833
4.4578104 42.17185 4.872981
4.4614096 41.920063 5.8224607
4.4554853 44.893948 11.548472
4.3990407 44.781506 12.494968
4.344446 45.326977 11.767203
4.329839 45.618797 12.40488
4.411199 45.45398 13.063886
4.488358 46.797585 11.44149
4.444148 46.04288 12.869401
4.4705477 47.435593 -6.1038504
4.342687 47.400078 10.899899
4.403066 47.771072 11.367005
4.4071765 48.62782 9.776525
4.2103024 48.455017 10.6303
4.2175746 48.412056 11.222323
4.314825 49.3373 10.522591
4.3056865 49.56394 11.269079
4.4745917 50.629406 10.939985
4.395727 50.533504 11.608628
4.447541 51.7457 11.931525
4.335397 52.14324 15.8576
4.435858 53.171116 13.717282
4.007068 52.965614 14.941927
4.1040816 52.711285 15.375703
4.143483 52.704617 16.273895
4.2510166 53.150764 16.959402
4.426941 53.899345 11.291344
4.39616 53.603336 12.352478
4.1838465 53.817883 13.239453
3.7717824 53.825348 14.932636
3.5874329 53.79553 15.555198
3.81288 53.635727 16.564669
4.2404256 53.68048 17.211456
4.3835588 54.54804 11.840928
4.2429037 54.249966 12.513347
3.8444407 54.612667 13.610744
3.5590582 54.70107 14.69684
3.6844628 54.68277 17.384481
3.9993944 54.83881 17.814676
4.179134 55.436447 13.055111
3.9180639 55.538296 13.720728
3.6980693 55.610836 14.52483
3.619472 55.4559 17.469002
4.003031 55.323673 17.886
4.479027 56.51889 7.5205355
4.328715 55.978317 12.96471
4.153002 56.000546 13.545695
3.7698793 56.33571 14.910153
3.4751062 56.267094 15.588697
3.4823205 56.356968 16.389898
3.464343 56.19884 16.865377
4.0709453 56.743347 15.273801
5.0896506 40.072216 4.246942
4.821658 40.04073 4.750515
4.712449 40.05611 5.434263
5.010933 39.984287 6.3057203
4.8706126 40.620754 4.1464825
4.6135254 40.58028 4.512666
4.502525 40.391212 5.416584
4.6424823 40.79036 6.39828
4.7836537 41.418167 4.098134
4.4901123 41.371418 4.472249
4.4941654 41.840534 5.6547527
4.661154 41.56532 6.436155
4.8131495 41.42345 6.873732
5.0723186 42.651722 3.988288
4.8989162 42.84779 4.2442193
4.6085534 42.426807 5.3933396
4.748115 42.379818 6.4008594
5.204977 42.768116 9.431974
5.091726 42.71392 10.438889
5.3130827 42.72108 11.502317
5.2963314 42.922634 12.675615
5.2741942 43.12141 13.127218
5.311932 42.941998 3.8758342
4.873399 43.107956 4.7435617
4.8754783 43.25305 5.257
5.235568 43.58014 6.8146214
5.0385265 43.369926 7.910609
4.987301 43.821163 8.828285
4.8823934 43.425865 9.613608
4.804463 43.509174 10.192801
4.8503695 43.705963 11.295068
4.8612256 43.651424 12.425962
4.9348264 43.60691 13.130723
5.432187 43.900993 15.138593
5.3487773 43.89397 4.5710526
5.2707195 43.87189 5.5447674
4.8924966 44.038956 8.532397
4.687441 44.32724 10.462557
4.5374517 44.56566 12.479265
4.7167387 44.344322 13.441426
4.910929 44.752968 14.421158
5.2974143 44.582138 15.364331
5.1463633 46.250923 -6.5133023
5.1096935 46.246223 -5.9450645
4.9799953 45.31055 9.466818
4.698651 45.61538 10.665766
4.66889 45.282814 11.2152405
4.6629257 45.755287 13.561541
4.832008 45.653744 14.428733
5.191726 45.54421 15.334738
4.9924326 46.83645 -6.9905167
4.7443953 46.766582 -6.358692
4.845351 46.737144 -5.6780267
5.2528687 47.127777 8.175019
5.294539 46.248848 8.799905
4.750444 46.929657 9.863648
4.6829033 46.974453 10.437952
4.5610538 46.373833 11.960573
4.8781734 46.801567 12.409897
4.800232 46.4254 13.401725
5.0391 46.207245 14.380071
5.0742025 46.200756 15.172415
5.2443705 46.178677 16.268837
5.127539 46.850338 17.461046
5.2854137 47.032642 18.694035
5.3530436 47.14843 18.921955
4.9351683 47.36333 -7.0523605
4.612267 47.408398 -6.4194484
4.64427 47.39127 -5.6733475
4.8720875 47.544952 -5.122272
5.102133 47.98626 7.9317465
4.961959 47.56615 8.534637
4.692455 47.1759 12.218754
5.3082724 47.156612 14.828952
5.2715898 47.765476 16.180649
5.0074315 47.719315 16.722776
4.9804096 47.548782 17.48136
5.084915 47.49124 18.274536
5.354201 47.614372 19.172045
5.1033683 48.23629 -6.9934535
4.704779 48.17101 -6.2089634
4.819883 48.3552 -5.559579
5.097511 48.666706 -4.606919
5.3207273 48.734493 -4.2024217
5.0301657 48.7169 7.8909354
4.738843 48.18977 8.402888
4.521593 48.376156 9.280654
4.7218585 48.73224 12.177531
5.0578446 48.058483 16.599993
5.0449405 48.46069 17.838444
5.1639953 48.35435 18.608536
5.342956 48.26489 19.071646
5.138852 49.053936 -6.3186536
5.143964 49.34787 -5.610547
5.206729 49.244297 -4.7369056
5.2473063 49.08299 7.871642
4.7345247 49.19509 8.757724
4.637626 49.5233 9.598688
4.502323 49.40587 10.659014
4.623475 49.53611 11.6120825
4.6895013 49.7909 12.22386
5.407698 49.475685 17.726377
5.309922 48.991104 18.278643
5.0972204 49.875046 8.591361
4.917308 50.202274 9.716505
4.835447 50.383793 10.473674
4.612978 50.87613 12.376563
5.052382 50.64316 13.044417
5.190566 51.08976 15.197856
5.207932 51.202957 16.162626
5.297008 51.68344 9.957108
4.7915215 51.16207 10.671839
4.55125 51.616505 11.365528
4.5859346 51.684814 12.497061
4.874777 51.81475 13.394216
4.858925 51.7635 15.331419
4.649166 52.004116 16.312548
5.073393 52.621433 10.589445
4.5762477 52.87196 11.561184
4.532956 52.98971 12.31777
4.627382 52.323345 13.194595
4.4710555 52.483624 16.70505
4.5707088 52.54399 16.857052
4.9795628 53.860085 9.969476
4.797981 53.56687 10.710987
4.498382 53.35198 11.823194
5.264702 55.07905 7.1279483
4.870436 54.825024 7.844487
4.894548 54.536297 8.562241
5.1142488 54.413334 9.513626
4.722577 54.11301 10.674132
4.575905 54.772797 11.754481
4.804393 55.85168 6.9627523
4.6378508 55.66772 7.500619
4.7012157 55.41567 8.435337
4.9670725 55.36619 9.281748
5.1558776 54.92216 10.861778
4.982608 55.209133 11.675966
4.450479 55.215427 12.515199
4.5391803 55.82379 18.35687
5.160189 55.862186 19.244623
4.8488436 56.60181 6.7765207
4.55257 56.569763 7.3876147
4.6583657 56.512234 8.308642
4.9495344 56.32864 9.048121
4.571837 56.359997 12.78289
4.788853 56.894382 19.540545
5.0727363 56.798634 20.182747
4.8761144 57.10211 6.925259
4.7407017 57.18834 7.3987327
4.8933597 57.244114 8.289866
4.934415 57.166924 12.794918
4.7267127 57.388866 13.513636
4.686349 57.34373 14.620004
4.7104845 57.567337 18.339605
4.7637835 57.284443 19.614487
5.0833426 57.390423 20.250338
5.211316 57.74601 7.1657724
5.1609864 57.736546 7.4631295
5.14377 57.747616 8.098992
5.2140656 57.973015 13.68471
5.3974147 58.783413 17.021305
5.115258 58.792294 17.716234
5.03321 58.425457 18.467142
5.0814576 58.249523 19.319597
5.1159086 57.972668 19.97704
5.2000017 59.013966 17.665882
5.3079023 59.171165 18.282696
5.9169564 39.145107 4.4563274
5.8313117 38.88661 5.4469166
5.8238645 39.067364 6.0658
5.961984 39.80247 3.9526422
5.4207277 39.539265 4.6321173
6.2905307 40.134468 7.9771624
5.7441993 40.657604 3.6731153
5.961869 40.469437 7.6891837
6.299722 40.898014 10.553316
6.141267 41.167294 11.209318
5.613416 41.40233 3.555813
5.9518995 41.26168 8.35812
5.9475546 41.697235 9.536915
5.7563977 41.760685 10.657602
5.7712073 41.586895 11.444375
5.776517 42.03244 12.42069
6.2954497 42.25818 14.634605
6.032427 42.33247 3.3352032
5.3685074 42.81294 3.7152483
5.4789467 42.564983 12.090923
5.5341573 42.869244 13.4799185
5.8247933 42.856853 14.469551
6.2100897 42.758488 15.288981
6.234972 43.140743 16.028791
5.9382663 43.20773 3.2673743
5.7002573 43.96794 15.598649
6.2318497 43.374004 16.36483
6.2098055 44.79881 2.296276
5.450183 44.01131 4.5893497
5.5940194 44.1082 5.1081934
5.611343 44.833195 16.3673
5.9372416 44.881966 17.008493
5.6936827 46.14935 -6.96582
5.8082256 45.827732 -6.2691245
5.6556993 45.90535 -5.696736
6.09576 45.80913 1.8138858
5.865123 45.467373 2.6704655
5.786318 45.69507 3.359926
5.8824625 45.512836 4.054255
6.3864665 45.67456 5.2326555
5.6044517 45.132004 7.661057
5.8014693 45.169464 16.617153
5.785385 45.70048 17.201519
6.1215544 45.703842 18.070099
5.973026 46.844414 -7.673054
5.452229 46.6525 -7.248241
5.612499 46.742203 -4.69022
6.137559 46.304756 1.9067856
5.859662 46.357735 2.7955413
5.8867545 46.554115 3.4522545
6.139778 46.614864 4.3794065
5.528546 46.356583 17.613754
5.709006 46.640755 18.674164
5.6384416 46.996567 19.212788
5.7666693 47.4263 -7.6639104
5.472708 47.63305 -7.5046062
5.7576375 47.31106 -4.1454935
6.1404934 46.90154 2.293342
6.3810015 47.371178 3.5311131
5.581912 47.548546 19.484062
5.9240456 47.596806 19.749392
5.8717823 48.008904 -7.61188
5.9031644 48.63169 -7.355011
5.372212 48.187435 -4.3410273
5.7897696 48.262535 -3.899308
6.082412 48.390697 7.1077247
5.39734 48.72768 7.6437325
6.1573915 48.823864 14.708644
5.6879597 48.56401 19.322481
6.0012593 48.11967 19.790531
5.618079 48.83867 -7.175779
5.827944 49.5951 -6.6960382
5.4393697 49.667015 -5.878865
5.5455446 49.515663 -4.4656167
5.6009235 49.49482 -4.276229
6.4400845 50.101887 3.3566856
6.1257825 49.72089 6.743371
5.37602 49.373863 7.786177
5.9877195 49.321606 14.786136
5.7584248 49.5599 15.390299
5.631035 49.39746 16.153488
5.587678 49.358074 18.55539
5.671072 49.148956 18.999119
6.083577 49.816666 -6.816872
5.913797 49.89066 -6.402915
5.728015 49.948166 -5.4972334
5.732142 49.859585 -4.8751144
6.4564166 50.2695 1.0061936
6.379276 50.666924 1.1866674
6.3740964 50.692177 2.4919927
6.310379 50.923733 3.4993708
6.2881665 50.632553 4.1207232
6.325363 50.681824 5.5936394
6.036526 50.606182 7.204922
5.4340296 50.48101 13.738332
5.5322556 50.66741 16.192343
6.148066 49.94688 18.84987
6.3456025 51.243782 0.78203905
6.357595 51.46245 1.4253814
6.3851004 51.366676 2.305937
6.392545 51.358826 3.9179711
6.2157907 51.178017 4.8004684
6.255442 51.722713 5.5509424
6.1498322 51.48138 7.5091643
5.8967876 50.961792 8.931511
5.5071154 51.653027 16.887636
6.088855 51.052647 17.80898
[...]
POINT_DATA 4303
SCALARS features_00 float 1
LOOKUP_TABLE default
0.4823758 0.42487186 0.496746 0.51640475 0.5005368 0.42502463 0.4864592 0.5170511 0.50904524 0.48455215 0.5111751 0.5051349 0.5986457 0.5752869 0.572994 0.5316617 0.51986027 0.47967657 0.22837286 0.27484527 0.21614039 0.21837573 0.24047847 0.15649526 0.19977959 0.8432809 0.18961203 0.18108758 0.28623122 0.24739227 0.21909046 0.24395487 0.22541504 0.19101508 0.19059025 0.14045246 0.2389219 0.15652886 0.2730456 0.282413 0.32231927 0.38722157 0.11995442 0.15109926 0.18651894 0.36355704 0.4284321 0.432854 0.43555924 0.15429547 0.17185366 0.24087189 0.38487598 0.47001567 0.4259571 0.20774084 0.26660472 0.35892022 0.47158435 0.42692047 0.64749104 0.21423087 0.25661895 0.37326705 0.4532321 0.4749028 0.48371673 0.348543 0.6057569 0.6173562 0.60705113 0.5536878 0.6072639 0.6135014 0.5953164 0.5180661 0.5867875 0.5800003 0.497841 0.458416 0.41830993 0.53660303 0.5196395 0.46244308 0.35618687 0.17021765 0.17710733 0.18280429 0.21041365 0.2227965 0.5109079 0.4694206 0.4019295 0.1549492 0.09864237 0.13227867 0.18428972 0.19683516 0.22467992 0.24763569 0.2530735 0.22101042 0.34837073 0.27901983 0.101650946 0.19326857 0.27974075 0.28526878 0.2531889 0.20586737 0.82693565 0.83572507 0.115535855 0.15235542 0.19126397 0.22072652 0.21135285 0.18084612 0.83393943 0.85402155 0.82988936 0.22015896 0.12949964 0.21350968 0.18726024 0.17103656 0.16098906 0.18176782 0.18252051 0.15676954 0.1621199 0.3375226 0.46162146 0.49214038 0.8229069 0.8486322 0.8147925 0.74481666 0.2365641 0.27916086 0.14593318 0.06387235 0.13390797 0.28208244 0.41465628 0.47381654 0.54305685 0.75147635 0.80224574 0.7643665 0.6892868 0.64014983 0.22753504 0.28361836 0.30527723 0.17719932 0.24589014 0.48112595 0.53379494 0.55352163 0.6972343 0.69035125 0.69400406 0.19878733 0.2721442 0.25323433 0.23949587 0.21305807 0.1734093 0.4175427 0.5061995 0.19757183 0.19167326 0.18865111 0.14434549 0.06623416 -0.012798656 0.103383854 0.06219697 0.15138204 0.1501266 0.12273084 0.053155765 0.13414952 0.228957 0.09559686 0.12709191 0.12986156 0.088465184 0.29402554 0.2946561 0.0062477738 0.07604331 0.13486761 0.43717653 0.37213355 0.19751157 0.034435913 0.06676013 0.15248236 0.5791211 0.55609083 0.42202884 0.22703451 0.08873983 0.14714497 0.17876576 0.41054368 0.4813279 0.6308973 0.6519181 0.6052389 0.48670202 0.22572629 0.65455395 0.69935536 0.6463971 0.6616626 0.6391889 0.2755579 0.28978047 0.25679702 0.5018102 0.68404573 0.7423209 0.6218669 0.6271376 0.61559546 0.23893803 0.46505907 0.5288962 0.59000224 0.6729126 0.7351643 0.5391153 0.59412897 0.5262936 0.5152206 0.51025933 0.5217167 0.58491457 0.061162733 0.51784277 0.17301542 0.07458605 0.112599686 0.51353276 -0.017399192 0.038987283 0.11672627 0.13733739 0.18017173 0.16544408 0.43356138 0.51178426 0.18649776 0.20994332 0.20815001 0.17334801 0.14721487 0.38500312 0.18937966 0.13295396 0.258345 0.31491423 0.24450062 0.13502207 0.0845219 0.76268506 0.7407055 0.7858095 0.31939977 0.35840195 0.29912132 0.18854441 0.099093825 0.02480328 0.11308926 0.12408146 0.12440493 0.745268 0.7951488 0.67870116 0.30791357 0.32612836 0.27749035 0.1845233 0.2610294 0.37956998 0.48385233 0.74278426 0.75305986 0.5162598 0.27764282 0.2028929 0.55113626 0.5415183 0.69987565 0.6614136 0.62594604 0.5519307 0.082068555 0.18564111 -0.0367425 0.5472089 0.53633994 0.67221 0.6415134 0.6603561 0.66218936 0.64705753 0.10764456 -0.04404959 0.16225642 -0.09823958 -0.08401683 0.040829606 0.49153692 0.5160189 0.60625196 0.6319076 0.6469418 0.65227413 0.30261785 0.32241732 0.21966779 0.1650322 0.12347098 0.02356543 -0.050482757 -0.09327528 -0.0044451877 0.41022116 0.3947422 0.34985667 0.2699853 0.15142001 0.09537566 0.051916823 -0.06822923 -0.0094620325 0.15812291 0.25652096 0.14092338 0.06849837 0.04821113 -0.006312549 -0.089436024 0.05177906 0.07116679 0.06521889 0.15216857 0.13302839 0.08984507 0.28262177 0.24701716 0.22651723 0.49218372 0.38654542 0.5663495 0.55369097 0.60621196 0.7013125 0.7301184 0.56218714 0.57364106 0.18314554 0.22273427 0.75726044 0.75487626 0.57905734 0.5669177 0.5551616 0.37842566 0.19759598 0.18406972 0.29775298 0.3613525 0.69776464 0.744571 0.55044496 0.33095586 0.45454612 0.5523761 0.6131505 0.64218867 0.5164808 0.5816997 0.606209 0.3680611 0.37825853 0.29929915 0.46638918 0.42904395 0.19598107 0.117823035 0.12206402 0.4368997 0.071078256 0.11382912 0.12602001 0.41469187 0.38645244 0.037264086 0.099545464 0.14511797 0.10988553 0.33802706 0.15025978 0.12885267 0.10235337 0.4975822 0.5840552 0.6599139 0.7024418 0.35272583 0.15189692 0.13405347 0.22709654 0.48468518 0.6507338 0.6618572 0.15226306 0.14227302 0.48994732 0.16815303 0.1034679 0.10655655 0.33105934 0.42658573 0.6725929 0.5989859 0.5950269 0.1320489 0.11842198 0.7070441 0.70466876 0.14784566 0.12225188 0.10056191 0.091289595 0.043454308 0.67768395 0.43976656 0.075788096 0.08218861 0.047517024 0.21993777 0.07751685 -0.19198453 0.48429132 0.67047036 0.45516783 0.10446833 0.06862454 0.024097461 -0.007881332 -0.23913202 -0.017238885 0.47170258 0.59226024 0.54940563 0.33701497 0.28803957 0.009117529 0.43282402 0.43202448 0.59725785 0.59874773 0.58741206 0.54697627 0.4062332 0.39648408 0.2206193 0.08926265 0.31026477 0.35007155 0.4931084 0.29243082 0.17993122 0.49945113 0.40346503 0.26918182 0.16972417 0.12615865 0.36165085 0.28445268 0.1291066 0.10414024 0.28463137 0.5514139 0.64570606 0.71371084 0.4619135 0.5174078 0.0023679212 0.74299526 0.52757406 0.5504472 0.46187985 0.0675707 0.6990499 0.72815967 0.5268569 0.5278734 0.48709998 0.06825114 0.102194734 0.26254588 0.6100607 0.65654755 0.31881016 0.4910962 0.5762697 0.59825486 0.6019833 0.22330722 0.16004828 0.09653803 0.10944112 0.3426983 0.2809205 0.19007787 0.13234395 0.12277375 0.14525777 0.37550783 0.14230898 0.13901971 0.14655907 0.29908475 0.1369362 0.1395932 0.10037409 0.24220347 0.06864609 0.07112344 0.6491423 0.7416092 0.7728125 0.31405765 0.12282887 0.090247035 0.48176777 0.60356814 0.72806436 0.7670991 0.6987362 0.71224576 -0.010042325 0.5534998 0.5719553 0.10803522 0.050060384 0.44648787 0.54428786 0.45670095 0.37389225 0.14326711 0.13355367 0.12278328 0.2851362 0.33310428 0.56687295 0.5459643 0.17868051 0.5715616 0.31423783 0.26811782 0.26986262 0.7528643 0.34956515 0.4693029 0.4505785 0.43866235 0.25975236 0.4224056 0.45304036 0.47835785 0.09241077 0.47371137 -0.31508663 0.3990569 0.35637462 0.39909524 -0.11230718 -0.0526074 0.2504363 0.12232265 0.16298282 0.1690349 0.20750782 0.41184765 0.21995041 0.25896442 0.6312835 0.3590449 0.6523597 0.6987735 0.46182606 0.13833064 0.6219077 0.48382452 0.4929391 0.4285721 0.23893002 0.17005739 0.056065153 0.050209936 0.07239568 0.14297135 0.5236379 0.5539697 0.04986565 0.14224657 0.3699895 0.48147982 0.5312687 0.5437557 0.35098124 0.45760247 0.22180176 0.20581822 0.1058575 0.34867758 0.2283795 0.2115623 0.07736343 0.26414645 0.10502446 0.06958808 0.13499707 0.08828966 0.3668755 0.0035034567 -0.04876758 0.00092193484 0.6808284 0.74869376 0.7996144 0.36718655 0.24750634 0.018889159 0.37453577 0.49785274 0.79594505 0.7601908 -0.06750552 -0.2091209 -0.17738198 0.67834353 -0.051447336 -0.06868128 -0.11253783 0.4822403 0.026051454 0.080839284 0.010959672 0.37338984 0.21388783 0.19981407 -0.03953012 0.2961462 0.13979697 0.1431163 -0.03038879 0.04926958 0.000758633 0.71589434 0.6059717 0.76212615 0.7479483 0.21166077 0.7819052 0.7718755 0.74713796 0.6447238 0.24688889 -0.020539112 0.028679498 0.75536835 0.732504 0.6563574 0.257093 -0.34737647 0.20005083 -0.26196188 0.15780441 0.08343472 0.024831206 0.17280076 0.20089966 0.53317994 0.35552102 0.5055361 0.4112631 0.25505134 0.17493705 0.083547875 0.4688195 0.4491868 0.0618196 0.17329055 0.41819873 0.47712094 0.41232508 0.49518725 0.515874 0.50245076 0.45889774 0.38143742 0.4154263 0.48782772 0.44744658 0.36008072 0.10860047 0.13946137 -0.033907272 0.11539136 0.21718165 0.067231625 0.050861403 0.44959193 0.44651788 0.3909086 0.18920629 0.1962794 -0.006727889 0.4162089 0.44064492 0.4485237 0.22977805 -0.13441055 0.52213895 0.7377727 0.78058964 0.3388216 0.40543902 0.38679934 -0.097229004 -0.103644334 0.31139085 0.24598403 0.48069888 0.73094904 0.6788647 0.2740311 0.12204994 0.03427103 0.59332204 0.12498165 0.33832902 0.19060676 0.10125639 0.3356315 0.19553328 0.11757498 0.033174485 0.041690893 0.35003442 0.24416448 0.03634284 0.44426474 0.7034679 0.70677954 0.6675856 0.60494256 0.03332281 0.6422726 0.62763494 0.75885963 0.7620826 -0.19101453 -0.11975783 0.57982457 0.56778854 0.5912577 0.78889585 0.7823598 -0.022409756 -0.3763556 0.7541244 0.7059504 0.20421457 0.2602804 0.22647342 0.06016706 -0.20531099 0.34424356 0.20303527 0.1340785 0.031894848 0.11538465 0.10164228 0.10040777 0.08807565 0.18903399 0.19014023 0.17753766 0.19036907 0.18749267 0.16165157 0.1837379 0.26367536 0.22095966 0.17783818 0.11608416 0.09103256 0.011511736 0.010845107 0.50770473 0.5171112 0.5153331 0.42343232 0.48707074 0.5209216 0.50659 0.44414857 0.3277558 0.32805532 0.5532025 -0.014128722 0.042214718 0.3762476 0.63296473 0.64353853 0.20792401 0.18539679 0.071629584 0.014800269 0.012719601 0.20929188 0.48627144 0.566911 0.22450875 0.21543992 0.3076387 0.43064833 0.4009735 0.44110823 0.4231568 0.35597092 0.19938742 0.20691362 -0.05703775 0.40185738 0.43732974 0.2780097 0.36219174 -0.52423835 0.018451437 0.3055365 0.46813643 0.21960984 0.18347979 0.28301162 0.37796646 0.24522631 0.13246907 0.2383492 0.23241067 0.17997994 0.22310178 0.19913676 0.115110576 0.031517893 0.78133047 0.7438909 0.10860309 0.7723261 0.79589593 0.79042137 0.71424836 0.6234977 0.73523784 0.7540828 0.7507246 0.6761891 0.61013937 0.71452653 0.037410896 0.62700105 0.62307835 0.5721716 0.77610517 0.02837547 0.494077 0.56781054 0.5270283 0.7967247 -0.18522255 -0.3223884 -0.099071816 0.118488 0.47800326 0.51978534 0.5110262 0.49513924 0.7714809 0.75402623 0.69035673 -0.04654014 -0.16310501 -0.19545496 0.18544346 0.4288655 0.5255606 0.3961164 0.42365128 0.425538 0.3925082 0.05750927 0.30756807 0.500162 0.51017714 0.45533657 0.11584972 0.13276644 0.18054995 0.34145647 0.38381007 0.119397074 0.110300854 0.0942072 0.2039676 0.21319322 0.20660174 0.22291942 0.21552813 0.18493502 0.18137246 0.17003565 0.19448167 0.23619552 0.17987204 0.123697214 0.03014917 0.20668575 0.35974187 0.5999333 0.67060065 0.71234566 0.43368036 0.4525599 0.5021864 0.51175046 0.17838214 0.327726 0.4816812 0.48177916 0.66488475 0.7187452 0.07500871 -0.038478315 0.171033 0.70645976 0.72803396 0.17768827 0.0997093 0.088561766 0.5946425 0.67172384 0.34088916 0.12128841 0.36938998 0.51680493 0.37838414 0.41196334 0.19473508 -0.07260353 0.3100804 0.30482647 0.34906125 -0.44185677 -0.18936971 0.27044883 0.2730706 -0.3064005 -0.12697607 0.26656023 0.05658049 0.12573665 0.2881348 0.24721146 0.2623213 0.06604907 0.19368137 0.36330462 0.23669448 0.19110806 0.26223767 0.10800788 0.8039401 0.75173336 0.7007034 0.44186082 0.78357995 0.684054 0.6213271 0.63227344 0.636377 0.6202584 0.58500737 0.6790173 -0.12646165 0.5017404 0.68900096 0.017849492 0.07774454 0.14634612 0.4804719 0.40068918 0.7371732 0.042123627 0.17523192 0.11328558 0.4504806 0.4256609 0.7182944 0.624553 0.27824318 0.2233589 0.1459206 0.35434815 0.41235238 0.37779123 0.253608 -0.114528224 0.40351766 0.40645728 0.24967042 0.29631436 0.36703014 0.37202838 0.5888949 0.58416003 0.53031135 0.4931693 0.40025306 0.3635401 0.27614608 0.1962221 0.36691117 0.4156767 0.2538002 0.38842493 0.3872064 0.42681423 0.5773304 0.54504746 0.50043714 0.30468044 0.27913523 0.31929243 -0.06368698 0.4385652 0.4443543 0.4716565 0.21403466 0.2565905 0.5615717 0.52229726 0.52578354 0.23607953 0.26681364 0.21588211 0.3387112 0.6969911 0.72582316 0.6771233 0.60951805 0.16911444 0.288005 0.7234956 0.17297891 0.15690675 0.09320279 0.049870938 0.09263138 0.16371112 0.09917095 0.1346581 0.28226507 0.3711606 0.39930102 0.7040485 0.7427777 0.7246555 0.7056165 0.79226696 0.7866417 0.7837005 0.32859844 0.4203008 0.50124085 0.5077622 0.2096324 0.19923927 0.45479602 0.39800358 0.15604177 0.5342922 0.68203664 0.6932099 0.67758757 0.70209944 0.14380829 0.06994437 0.02594617 0.20101532 0.18130425 0.39137313 0.3247855 0.32385457 0.021057002 0.30777636 0.31168893 0.06219695 0.30083525 0.30506635 0.321008 -0.09873591 0.13093628 0.37815064 0.47817513 0.31724995 0.32152462 0.44223654 0.5218626 0.278244 0.45078096 0.5005803 0.2515589 0.29880866 0.4124013 0.26687643 0.30933663 0.7672072 0.688334 0.6584243 0.14479437 0.6054144 0.5752426 0.59323525 0.5187855 0.50827646 0.6363958 0.5824461 0.06502059 0.048367135 0.4555794 0.64739406 0.60238874 0.38454854 0.6726365 0.6326642 0.3352148 0.6646627 0.5467291 0.35916325 0.4919414 0.57119244 0.38361037 0.34636948 0.59513164 0.59875286 0.46566182 0.39793253 0.22457519 -0.037946388 -0.26694053 0.36354133 0.19204468 0.30255997 0.401461 0.5868057 0.55443406 0.47661993 0.41571587 0.32938313 0.38524872 0.39215353 0.26525202 -0.13484643 0.17016461 0.31744698 0.4993701 0.5772531 0.22042081 0.20042622 0.26161686 0.6232008 0.58626896 0.63976085 0.71382976 0.25904822 0.16392943 0.27930316 0.72445184 0.7523926 0.6409254 0.6665703 0.1680886 0.24840605 0.7637125 0.7323135 0.6965054 0.69193804 0.16586024 0.17534456 0.20629828 0.12585554 0.2021501 0.71165216 0.6880374 0.18518884 0.21678156 0.2819907 0.053329438 0.3687018 0.62696254 0.41219234 0.5282073 0.71859276 0.62730205 0.7478024 0.84502465 0.8449842 0.80331194 0.18773615 0.17390172 0.1921049 0.46957165 0.5112267 0.5048358 0.20636338 0.20159385 0.37118483 0.17204534 0.12288827 0.14558834 0.4130375 0.5785981 0.5987998 0.6024196 0.5673475 0.088470206 -0.0044146744 0.45038614 0.14578539 0.027886923 -0.12675564 0.3859566 -0.009571768 0.27819687 0.038947277 0.30494535 0.29656878 0.05757111 0.06864854 0.3543899 -0.045786235 0.21267748 0.38167608 0.37074673 0.24870668 0.379246 0.4955191 0.5770032 0.4164352 0.5332153 0.5877482 0.6075758 0.38158244 0.5680375 0.24729693 0.6546809 0.60787857 0.2300779 0.21261725 0.5364299 0.51573753 0.36811855 0.2918601 0.42656523 0.41227147 0.34396374 0.3466246 0.51026434 0.40138283 0.30485952 0.55339855 0.39955544 0.31282756 -0.56702876 0.32030237 0.5136612 0.56918806 -0.08762829 0.5075512 0.5922545 0.58356345 0.56758034 0.47652438 0.3310105 0.037513852 0.21550627 0.10049366 0.057599697 -0.008361235 0.29464334 0.18990687 0.020169586 0.09765932 0.6723479 0.5864476 0.554713 0.49174482 0.41884273 0.43910027 0.51048195 0.40339434 0.15996574 0.13489881 0.09581707 0.20382349 0.664534 0.77974814 0.16079032 0.14865924 0.0077455165 0.6479937 0.79194593 0.10862352 0.10089346 0.096243635 0.7763958 0.73759574 0.80489445 0.20836219 0.8130646 0.7696971 0.6825788 0.69811225 0.7525601 0.22719088 0.26111794 0.15489787 0.18865308 0.74356437 0.71737045 0.6872189 0.2824763 0.41607723 0.32993245 0.40525576 0.6547683 0.45972243 0.5387941 0.84582067 0.6264857 0.71216613 0.81159985 0.8714981 0.85810924 0.11839573 0.1757959 0.47109726 0.47586417 0.31793833 0.20033683 0.030105121 -0.03141416 0.31242138 0.5045179 0.49730963 0.18190318 0.17580904 0.13327684 -0.17878981 -0.034933753 0.3792603 0.49882412 0.4560604 0.121912785 -0.10959928 0.36725634 0.014694697 -0.29868323 0.0176598 0.07692114 0.071196094 0.27515152 0.2442221 0.3680281 0.31243968 0.21885768 -0.04477992 0.4053991 0.42888105 0.45265305 0.56654644 0.6080084 0.47285816 0.4664973 0.6029141 0.59818065 0.46600497 0.54907095 0.43942493 0.29196486 0.35902447 0.14065905 0.06400621 0.0019594282 -0.12410259 -0.069429204 0.46654752 0.4560638 0.2554404 -0.09585236 0.32905897 0.32274568 0.30407894 0.19182816 0.09194687 0.30825183 0.34145284 0.30700976 0.29723933 0.27095369 0.37208533 0.34720755 0.36999303 0.23773997 0.4296937 0.42854136 0.4354186 -0.24148373 0.2626901 0.5552368 0.51956165 0.40933764 0.13523276 -0.024707772 -0.37817198 0.48373896 0.56215334 0.54735106 0.5292232 0.4006254 0.046321765 0.21021976 0.2125323 -0.26137662 -0.039401695 -0.051054984 0.7187685 0.3355442 0.37655455 0.41921094 0.087775245 0.017174745 -0.14034724 -0.11588699 -0.3187187 0.060104966 0.83302665 0.06544812 0.044519193 -0.03255664 0.88846564 0.0979721 -0.19780868 0.76242733 0.8934866 0.24861482 0.2830121 0.1065972 0.7886467 0.73906046 0.69404465 0.7197333 0.82278365 0.8609973 0.31726682 0.33408755 0.14325115 0.698858 0.687683 0.34077105 0.5836923 0.7154837 0.61193067 0.43618566 0.45994154 0.51386046 0.75799435 0.7596552 0.5041685 0.5759902 0.6772121 0.8105691 0.663062 0.7139586 0.8174939 0.49910074 0.3589388 0.42706597 0.3137922 0.12855983 0.12035845 0.045060217 0.17995349 0.19446231 0.15881382 0.12623283 0.09929928 0.046651077 -0.2196829 -0.055308152 0.29213774 0.26805732 0.19095609 0.20100449 0.16096728 0.10901407 0.03607713 -0.20987746 -0.067303225 0.26579517 0.13192527 0.18576138 0.28895083 -0.04982443 -0.053851195 0.022059424 0.03468603 -0.031119572 -0.15561697 0.24090229 0.44823414 0.41085294 0.4097676 0.53147495 0.5826576 0.47978747 0.46688068 0.32349634 0.55884767 0.5323578 0.48136812 0.47074437 0.39134982 0.4208027 0.5187424 0.38162586 0.29915968 0.09094368 0.18309857 0.18529978 0.120104656 -0.015243354 -0.35143638 -0.22156864 -0.18996444 0.20440838 -0.1200542 -0.101590924 0.123303846 0.14598206 0.16089019 0.28837466 0.22187419 0.2000646 0.19893558 -0.30392778 0.2167158 0.46460313 0.33845487 0.107088745 0.08068204 0.19822778 -0.21826111 0.304935 0.12650268 0.10683568 0.30789506 -0.13136585 -0.11068627 -0.08915159 -0.18444265 -0.3163378 0.5570555 0.70566595 -0.14884618 -0.4919705 -0.13768877 -0.34185833 0.016601503 0.7827746 -0.092800945 0.46758148 0.51330537 0.863659 0.14931192 -0.12281722 0.63829374 0.8042619 0.8688284 0.24024162 0.26977134 0.19056794 0.7402842 0.7219961 0.70724034 0.79913783 0.83680284 0.2978765 0.26237375 0.16465405 0.22011788 0.53867984 0.32258144 0.29255033 0.32253742 0.4970653 0.6311533 0.27160174 0.733573 0.7435752 0.4042584 0.4316905 0.48720488 0.65920556 0.74855924 0.7816987 0.7847823 0.53848666 0.69094205 0.7832951 0.6919235 0.675472 0.6367139 0.6412424 0.60034144 0.56242025 0.5337945 0.50813097 0.5193367 0.46907604 0.41113186 0.3803482 0.36816245 0.40408576 0.35575974 0.34377432 0.12344516 0.25898665 0.25602946 0.2606607 0.1534113 0.11072568 -0.08693541 -0.23848934 0.4818138 0.45888498 0.41376948 0.15625298 0.204808 0.18862864 0.12142216 0.10004018 -0.34321627 0.32482988 0.4033543 0.35329372 0.32114664 0.2897746 0.24183252 0.18406034 -0.54712635 -0.55889416 0.22556078 0.33797497 0.3087666 -0.07048488 -0.071195185 0.34657747 0.33453777 -0.055309974 -0.07929953 0.11835188 0.264691 0.2482641 -0.04719823 0.056490883 0.4493407 0.51992 -0.09404536 0.43992066 0.39689517 0.3690271 0.21157241 -0.42869943 0.03571593 -0.24786767 0.003655286 -0.0669052 -0.17215712 0.053191837 -0.28628463 -0.0070686117 0.17666794 0.1043885 0.13549818 0.50090694 -0.31966424 -0.24912444 0.19940722 0.18966678 -0.048952807 -0.07055029 0.3015455 0.33534026 0.3714745 0.29682398 -0.16939972 -0.30216014 0.4031717 0.57776093 0.3610395 0.23695382 0.19228752 -0.17110725 -0.1695597 -0.21640335 0.049775347 -0.047696784 0.1495824 0.44213262 0.61091185 0.68376696 0.71376145 -0.06426202 -0.12944882 0.32057062 0.6456435 0.7208063 0.77301097 0.065826446 -0.01778014 0.5904639 0.5428985 0.6421468 0.69072664 0.7431567 0.7788562 0.25042254 0.2133868 -0.17194472 -0.086926684 0.32613638 0.37699264 0.7311017 0.05511616 0.58231527 0.7174291 0.42927295 0.76912135 0.75961924 0.53768754 0.65025294 0.7487159 0.7807709 0.74220467 0.7639024 0.7199583 0.6510694 0.6060258 0.67958224 0.5791982 0.4681359 0.5040519 0.53553456 0.41083473 0.50914925 0.32781714 0.36955184 0.30714425 0.4456561 0.36469162 0.16785036 0.24914373 0.46202725 0.5580028 0.5587594 0.29723418 0.18224926 0.07666015 0.33242637 0.44645572 0.5071998 0.45138505 0.4031279 0.16510528 0.09847468 0.024139771 0.0934085 0.35909563 0.21471785 0.26135135 0.35617 0.32900056 -0.056930747 0.38299182 0.14003742 0.3843829 0.2613225 0.37757993 0.30531275 0.21918672 -0.024380893 -0.032192342 0.09873165 0.07375784 0.05126424 -0.2598221 0.028948385 0.0461606 0.227692 0.19779366 0.12495126 0.10011754 0.16671036 0.24006741 0.15579256 0.5443