# vtk DataFile Version 2.0
Really cool data
ASCII
DATASET POLYDATA
POINTS 3543 float
23.282305 35.91214 3.1216326
23.153875 35.823322 3.6856463
23.083841 35.90181 4.3316975
23.214188 36.488747 2.9973433
23.0187 36.62362 3.519579
23.016134 36.615654 4.517796
23.16089 36.520363 5.0381684
23.26382 37.162716 3.1524122
23.154016 37.18515 3.6045344
23.157799 37.312263 4.458413
23.261415 37.217445 5.109605
23.34444 37.71125 4.559672
24.276493 30.759977 4.588063
24.1975 30.875387 5.5805078
24.305334 30.963549 6.236951
24.364841 31.546167 2.9341815
24.297617 31.57396 3.3723679
24.06757 31.711433 4.746423
24.034782 31.531033 5.5664682
24.171347 31.61682 6.246772
24.429924 32.26707 3.2592785
24.111734 32.849396 4.474836
24.141865 32.528397 5.4408545
24.211529 32.07122 6.333075
24.102854 34.12593 4.539674
24.196394 33.296024 5.3502817
23.697046 34.943287 3.6209657
23.614204 34.766903 4.4226074
23.792538 34.981285 5.0786643
24.226675 35.610085 2.2322035
23.612478 35.84613 2.7132168
23.470999 35.558952 3.2347753
23.736038 35.764824 5.437389
23.807695 36.085705 5.8173237
23.615812 36.54476 2.546954
23.470217 36.528023 5.5505323
24.005394 36.377617 5.8714805
23.650515 37.24467 2.842016
23.421453 37.53121 3.5262966
23.659332 37.350445 5.5066967
23.743414 37.144844 5.694789
24.113739 37.883068 3.0194414
23.744907 37.909073 3.8392498
23.840439 38.055428 4.332144
23.942839 37.99811 5.1102357
25.029795 30.157488 2.884319
24.901834 30.063623 3.6072104
24.986895 29.989336 4.4300423
24.887074 29.866821 5.8418007
24.788624 30.08974 6.1712832
25.37811 29.892397 6.910666
25.008583 30.925188 2.0998006
24.74141 30.800432 2.635054
24.596056 30.554462 3.5488315
24.659283 30.310446 4.302242
24.60198 30.51728 6.372475
24.979048 31.63925 1.7715311
24.558441 31.464249 2.5644886
24.882526 31.677591 7.290847
25.037535 32.599113 1.7677448
24.46581 32.359573 2.453254
24.76291 32.208054 7.1331825
25.119833 33.644157 2.101022
24.638685 33.253437 2.7250896
24.826893 34.714207 2.1244633
24.369545 34.799778 2.8622549
25.334423 35.682297 0.97930306
24.430199 36.55922 1.9823322
24.553051 36.343086 6.1467347
24.586782 37.05376 2.0557635
24.856491 38.111572 2.806369
24.26143 38.278423 4.800823
24.443874 38.02672 5.4128265
24.636354 37.83098 5.7328753
26.276548 23.709644 -9.390541
26.203596 23.884357 -8.687572
26.362207 23.868803 -8.278128
26.298424 24.375225 -9.827478
26.131495 24.542133 -9.458476
26.120247 24.481232 -8.635168
26.326553 24.570183 -8.183952
26.190641 25.0479 -9.318334
26.191723 25.11098 -8.768775
26.275724 25.01363 -8.2812195
25.981857 29.30831 3.7750137
26.072826 29.124054 4.475251
25.811642 28.941248 5.6821294
26.060297 28.634785 6.558818
26.084587 28.737673 7.3449073
26.292255 28.995874 8.792314
26.275719 29.118528 9.088434
25.430676 30.242756 2.1769702
25.440113 29.929567 2.7310045
25.604565 29.590622 3.5682456
25.310688 29.615257 4.6183376
25.816973 29.717073 8.6881895
26.047401 29.740236 9.2405615
26.359842 29.99778 9.816885
25.559187 30.663713 1.8776226
25.34124 30.343699 2.3257418
25.62345 30.486145 8.644113
25.84149 30.295042 9.154257
26.329638 30.22373 9.832472
26.453157 30.70374 13.924351
26.378824 30.599915 14.698387
26.42081 30.64607 15.144693
26.175558 31.921782 -9.972546
26.17283 31.832552 -9.462543
26.248026 32.01985 -8.770081
25.45025 31.53591 1.3941346
25.365656 31.507402 1.4933037
25.659946 31.186512 8.554944
25.968023 31.266876 9.108519
26.374231 31.092474 14.377991
26.415043 31.181927 14.975948
26.07426 32.677574 -10.163281
25.907164 32.53846 -9.498307
26.091417 32.51153 -8.856384
26.166975 32.69438 0.43789205
25.533537 32.006153 8.011488
26.23217 32.115913 8.864551
26.138372 33.363243 -10.162699
25.964163 33.351074 -9.528962
26.046482 33.23025 -8.95139
26.06846 34.250187 -2.920211
26.310814 33.94821 -2.5432293
26.080555 33.962975 -1.3742695
25.919157 34.00875 0.03016416
25.87328 33.706192 0.2884628
26.339058 33.989452 -10.014049
26.223057 34.00493 -9.519562
26.02598 34.799103 -3.1930833
25.78545 34.822014 -2.5404363
25.81124 34.64779 -1.4938878
25.912458 35.46367 -3.1021383
25.687235 35.53286 -2.4163296
25.824263 35.410748 -1.2532122
25.581886 35.362633 -0.47801894
25.946754 35.501644 7.2616086
26.045954 35.973133 -2.999002
25.989609 36.21121 -2.4605632
26.041924 36.346203 -1.6623976
25.807707 36.16635 -0.46851838
26.166603 36.756058 -0.5385408
25.7684 37.10611 1.0517845
25.37358 37.417362 2.0053098
26.369654 36.963516 7.5314517
25.85077 38.03806 2.0451307
25.471771 38.360344 2.5857344
25.711994 38.017963 6.093373
26.311352 38.702293 8.621754
26.322895 38.662914 9.489128
25.244577 38.759407 3.1470518
25.488333 38.892025 3.259437
25.449808 38.843475 4.24804
25.91347 38.818085 5.4412384
26.433622 39.33465 7.715398
26.265385 39.513668 8.768833
26.233232 39.359444 9.316505
26.369743 39.6028 10.314885
26.365053 40.107914 9.370941
26.438566 40.376377 10.306311
26.384436 41.643856 4.980652
26.371456 41.994694 5.366099
26.336994 42.611683 4.0936623
26.304188 42.093292 4.5814867
26.386282 42.817215 5.351981
26.426788 43.461292 4.070063
26.30736 43.42734 4.463003
26.360357 43.285583 5.167263
26.442911 44.31702 4.673745
26.401123 44.398754 4.9123755
27.21452 22.186909 -9.329761
27.176662 22.180748 -8.787835
26.878485 23.05655 -9.854564
26.820518 22.716078 -9.3733835
26.768559 22.796251 -8.633106
27.061144 22.852272 -8.103771
26.745588 23.686762 -10.0700035
26.45183 23.465563 -9.5840645
26.54886 23.29326 -8.399657
26.795979 23.683128 -7.9033084
26.78559 24.383226 -10.212615
26.647873 24.350296 -7.9445734
26.701567 25.204956 -10.059064
26.461897 25.578701 -9.38246
26.427336 25.298103 -8.499801
26.871233 25.177515 -8.037846
27.241537 26.480907 -9.508514
27.177137 26.394073 -8.663061
26.820087 28.048666 5.8575153
26.619114 28.191866 6.5816483
26.645128 28.21948 7.26692
26.719358 28.979506 2.9560747
26.519516 28.780167 4.7548504
26.465021 28.512999 7.50288
26.445972 28.614096 8.323852
26.595922 28.847374 9.142586
27.288437 29.090519 13.492918
27.155222 29.065315 14.529079
27.132742 29.179344 15.065952
27.237547 29.95674 -9.416556
27.333704 30.00403 -8.856236
26.786324 29.939066 1.9791692
26.650686 29.386795 2.58048
26.467218 29.350956 9.782557
27.222649 29.462725 11.600613
26.890995 29.9259 12.640344
26.842743 29.834131 13.338902
26.714907 29.655134 14.670675
26.695993 29.809416 15.236818
27.143892 29.886696 16.20408
27.131006 30.62296 -10.375955
26.766748 30.909 -9.431294
26.989405 30.75569 -8.7420025
26.605673 30.312706 1.6677877
26.49868 30.494835 10.030754
26.718588 30.202421 13.07242
26.556694 30.40838 13.803779
26.549809 30.39848 15.446722
27.033804 30.518597 16.333605
27.076487 31.716942 -10.920088
26.547869 31.794794 -10.443938
26.530905 31.381845 -9.494065
26.548132 31.661375 -8.778462
27.118399 32.15884 0.17891046
26.651243 31.33009 0.9888129
26.55565 31.307856 9.700288
27.31933 31.57745 10.716225
27.178108 31.584112 11.4954605
26.644173 31.421728 13.723484
26.63007 31.331785 15.453828
26.852911 31.393177 16.09811
27.322552 31.941118 16.88083
26.71552 32.320614 -10.75081
26.367338 32.168446 -10.49706
26.91505 32.666866 -7.869044
26.90924 33.14762 -2.2035007
26.71795 33.090714 -1.5666704
26.604315 32.793026 -0.12277657
26.932926 32.480682 8.987621
26.838167 32.69094 13.511157
26.664284 32.534077 14.603238
26.91513 32.641064 15.797686
27.05453 32.393856 16.126877
27.358932 32.579937 16.869905
26.877762 33.437622 -10.778576
26.54491 33.60689 -10.513602
27.385647 33.558746 -6.0861607
26.858713 33.714672 -3.384553
27.019136 33.53376 -2.77198
26.634365 33.405506 8.233953
27.335127 33.416576 12.635921
26.967056 33.38253 13.590149
26.888031 33.401867 14.189476
26.995977 33.266834 15.359457
27.238129 32.980618 16.299335
26.989433 33.96561 -10.633352
26.678043 34.179016 -10.19051
26.6325 34.456356 -9.4833975
26.620468 34.30262 -8.914855
27.331291 33.944363 -7.9540067
27.43086 34.13553 -6.663873
27.423311 34.049347 -5.9747205
26.920135 34.738663 -4.066234
27.341925 34.285122 13.07115
27.14435 34.15912 13.665683
27.163963 34.40427 14.276057
27.268536 34.4675 15.23482
27.029602 34.66733 -9.956124
26.822363 34.633583 -9.452818
26.44535 35.1539 -3.7421298
26.806282 35.423927 8.219517
26.768772 35.877052 -3.8020449
26.703278 36.233246 -3.3776536
26.330427 36.568977 -2.527259
26.577816 36.71894 -2.400451
26.805925 37.087254 -1.0773205
26.666466 37.084026 -0.40574837
26.696438 37.669003 8.036032
26.516212 38.200207 9.482958
27.140709 37.99162 10.775831
27.092035 38.21581 11.105974
26.36864 38.13301 2.0161638
26.500751 38.403343 9.329354
26.571198 39.051517 10.497231
26.893892 38.826565 11.261168
27.158184 38.91416 11.741967
26.565273 39.270428 6.2397637
26.527199 39.35555 9.855678
26.50227 39.70417 10.727916
26.827244 39.660862 11.35744
27.137535 39.441315 11.690378
26.93018 40.035717 3.5342937
26.715528 41.092274 4.3910575
26.841364 41.098553 5.7586536
26.990303 40.424843 6.5780087
27.132313 40.535778 7.4012094
26.527653 40.081783 8.435398
26.583366 40.561638 9.649147
26.578644 40.57661 10.606394
26.839306 40.374992 11.249039
27.167025 40.025852 11.694049
26.74569 41.497368 4.086265
26.55486 41.40961 5.356643
26.67074 41.739124 6.094955
27.28337 41.30772 6.814121
27.188057 41.12206 8.64388
26.864586 41.08401 9.967596
26.753859 40.959763 10.463807
27.03293 41.0269 11.10838
26.88583 42.641056 3.1064765
26.676321 42.409897 3.7113657
27.024857 43.610073 3.0301702
26.563354 43.65627 3.7237356
26.496885 43.504097 5.3828015
26.693413 43.54196 5.7814465
27.108963 44.416546 3.0243545
26.689682 44.30233 3.6642747
26.5527 44.66094 4.5424933
26.607222 44.38728 5.2521696
26.86133 44.195366 5.7023134
27.021795 45.10765 3.7340763
26.879929 45.15451 4.631457
26.948084 45.000957 5.2182655
27.652117 22.27297 -9.837347
27.58032 22.0024 -9.338494
27.673044 21.957788 -8.701624
27.683725 22.193388 -8.164809
27.538666 22.701164 -10.0890875
27.44688 22.572323 -8.023631
27.701815 23.715284 -10.610742
27.409796 23.49789 -10.399161
27.478277 23.296463 -7.666995
27.898815 23.764025 -7.449552
27.533752 24.448917 -10.636762
28.069769 24.072756 -7.379487
[...]
POINT_DATA 3543
SCALARS features_00 float 1
LOOKUP_TABLE default
0.5778652 0.6230228 0.68002117 0.6339033 0.69882053 0.7405641 0.70556724 0.67607963 0.71807766 0.7329564 0.7013774 0.7069572 0.4197761 0.41740176 0.41640103 0.41183788 0.41410527 0.38764155 0.4019767 0.405169 0.3553544 0.23323141 0.3217957 0.37783378 0.24757381 0.20628099 0.436312 0.45697254 0.5004502 0.3770498 0.5124346 0.5230298 0.616982 0.6041651 0.5744618 0.66306484 0.58892906 0.6155139 0.6904388 0.65358377 0.6395209 0.5547986 0.65938795 0.6493745 0.62089026 0.37702027 0.36890292 0.3459833 0.35032567 0.36722913 0.29619575 0.38809016 0.4080863 0.40659085 0.38412604 0.396154 0.36236447 0.40593648 0.33399096 0.25946748 0.34094304 0.3012074 0.069956124 0.20221667 0.10383712 0.27262747 0.15286511 0.45910794 0.47651154 0.44335675 0.41973484 0.57144463 0.54264414 0.5112492 0.8995123 0.85353655 0.81776774 0.84039754 0.8276029 0.7917055 0.7420283 0.7434375 0.70473915 0.69319737 0.27539194 0.23612471 0.22910368 0.18862107 0.1978474 0.32748306 0.3345939 0.3521158 0.34575737 0.31333554 0.3033269 0.3373691 0.3332734 0.32333553 0.34386516 0.3636429 0.32454216 0.32285023 0.31393653 0.42155695 0.46053618 0.48243928 0.6716852 0.61775994 0.5541947 0.31270444 0.32864586 0.2788101 0.25998703 0.4154024 0.43734097 0.77371967 0.7382341 0.6609331 0.12003629 0.22181833 0.17014423 0.7850461 0.79806757 0.7745795 0.48360425 0.4195426 0.3680315 0.20352311 0.14957911 0.7403441 0.7376796 0.5578841 0.55199236 0.47158542 0.58261675 0.55876774 0.47720635 0.35903162 -0.0022250023 0.54887587 0.4921072 0.40359655 0.31324118 0.22280473 0.13446261 0.31310654 -0.0011248216 0.2601253 0.32976952 0.2198352 0.28850335 0.38749573 0.38395533 0.33333236 0.43887627 0.20963316 0.13798927 0.340377 0.3980834 0.5081497 0.42813742 0.54798084 0.3567018 0.35985357 0.44776586 0.4127854 0.44205782 0.48482907 0.4944613 0.48856843 0.5304353 0.5357384 0.9167998 0.9260878 0.84792584 0.9192529 0.9032848 0.8269259 0.8133841 0.9003509 0.85958785 0.7616043 0.76317 0.71756816 0.70837265 0.64640987 0.652459 0.5942471 0.5047549 0.45797312 0.14988056 0.14910293 0.15597335 0.23103534 0.19089809 0.18163735 0.27724904 0.32333344 0.36847186 0.45051777 0.5010158 0.29900542 0.21295498 0.2283613 0.24827547 0.32503414 0.17885777 0.33652568 0.39771056 0.4843179 0.52907014 0.5299768 0.540298 0.47070956 0.32624024 0.23745441 0.2902383 0.38278303 0.43028182 0.51732385 0.52577984 0.6157292 0.66540396 0.5460959 0.480743 0.027902268 0.1342007 0.20904724 0.012242675 0.016174778 0.34754628 0.45059544 0.47357363 0.46618506 0.70806855 0.7168081 0.3939665 0.2567191 0.23878855 0.1308266 0.06677095 0.26961267 0.36076865 0.38562128 0.41031998 0.4402577 0.71736777 0.7446478 0.24136424 0.35606506 0.3046029 -0.008742485 0.2549945 0.30125883 0.3316938 0.36024523 0.39560497 0.6904249 0.70942914 0.67101896 0.63384205 0.47530848 0.2911658 0.26293537 0.45903164 0.35270354 0.3520279 0.370758 0.38180268 0.66037333 0.6453588 0.57921004 -0.008453578 0.54117286 0.48839867 0.41330335 0.35078636 0.16806689 0.11632348 0.13993861 0.3474841 0.51088756 0.5431713 0.1421941 0.3495604 0.5063118 0.5698279 0.6073986 -0.21684498 0.45619014 0.55886835 0.61910594 0.63004035 0.028486788 0.30320966 0.17320214 -0.13910805 0.043900758 0.30039835 0.47517267 0.5995904 0.65327644 0.65605545 0.3428219 0.29629424 0.22675124 0.029707843 0.29877314 0.526634 0.60031074 0.6707427 0.3575049 0.40810972 0.3845191 0.4701457 0.4995523 0.4818617 0.40473965 0.4790853 0.53376067 0.5318438 0.5009612 0.48843983 0.53775555 0.5215522 0.8142209 0.9035688 0.92272794 0.8633331 0.7577665 0.8224181 0.5972822 0.6817563 0.7219399 0.6260157 0.5816316 0.55654156 0.565351 0.5434089 0.5159371 0.49715254 0.5847856 0.5912633 0.5382815 0.47452396 0.48002672 0.4270342 0.2759459 0.50964177 0.5446141 0.47780123 0.15015431 0.17937164 0.15649998 0.2991734 0.40061158 0.36520144 0.1660963 0.41674253 0.40519917 0.09065574 0.11088508 0.15913132 0.15027091 0.14740229 0.13533275 0.17276685 0.28381312 0.326464 0.32050583 0.123858646 0.030228406 -0.014127642 0.15774374 0.22748934 0.26744965 0.32399124 0.41523302 0.46518183 0.47459558 0.33863154 0.12642369 0.008648172 0.49107802 0.4605025 0.4518702 0.48217475 0.5093261 0.16381101 0.4947458 0.50096893 0.5786164 0.3612082 0.12522621 0.1750312 0.13373302 0.08983133 0.035302 0.47539204 0.50298154 0.6002382 0.130301 0.22005561 -0.11596295 -0.051259566 0.46951312 0.6396568 0.6482219 0.338041 0.27824673 -0.09156904 0.37386712 0.41268337 0.45497334 0.6209485 0.5892563 0.523743 0.21731894 0.21919146 0.42166048 0.4131435 0.42133075 0.43588123 0.45192498 0.29848278 0.038834244 0.4333644 0.4784217 0.48549008 0.30276823 0.21824303 0.043555737 0.049530722 0.62500393 -0.036331534 0.6253506 -0.29583746 -0.064784914 0.63422525 0.67104185 0.09634897 0.3473178 0.6725253 0.66453004 0.415648 0.40769255 0.3910861 0.14036441 0.026123822 0.28798452 0.52716136 0.42162454 0.42665476 0.16752739 0.29257554 0.3586127 0.20472127 0.29325938 0.28584427 0.26093274 0.36185315 0.4661482 0.517957 0.4588079 0.3463784 0.33845693 0.4663275 0.49622467 0.4411617 0.51778406 0.50299966 0.51635844 0.5464568 0.54452634 0.75770915 0.85507846 0.91576666 0.56039345 0.6150291 0.69153035 0.45680165 0.5340035 0.5668745 0.388201 0.38017708 0.34760267 0.3953383 0.4987982 0.49357983 0.43898803 0.38581344 0.21777073 0.25203887 0.29600978 0.36138576 0.21849069 0.51912737 0.43353927 0.15327665 0.24154317 0.25840515 0.30136448 0.02877644 0.4400344 0.37449184 0.22585928 0.029379748 0.13602403 0.20061119 0.2091102 0.2997438 -0.03893555 0.27708268 0.36686873 0.33743107 0.2512523 -0.09105456 -0.032655332 0.13528991 0.20373133 0.23619366 0.31437606 0.26787755 -0.043521702 0.15819514 0.32489175 0.30616283 0.15161248 -0.27988544 0.03985233 0.3792197 0.3941829 -0.08079635 -0.15772724 -0.17546627 0.25350946 -0.26791704 -0.04631646 0.42319304 0.40167063 0.34496522 -0.012206709 -0.17726603 -0.14346182 0.43769437 0.4279778 -0.13472465 -0.06918166 0.044178642 0.48187226 0.4150535 0.46252 9.454787e-05 0.0074424706 0.51742506 0.42865515 -0.12724417 0.5292689 0.5156876 -0.16221598 0.19418043 0.51726604 0.5799804 0.53397346 0.14389287 -0.08303732 0.35162646 0.362949 0.497477 0.5034543 0.012524679 0.0552594 -0.091866136 0.4100635 0.4159405 0.45875567 0.4867184 0.467305 0.071261704 -0.022239594 0.5923288 0.61204433 0.45994562 0.4906888 0.47283852 -0.1184412 -0.06762972 -0.10023706 0.2915921 -0.10194245 -0.0884258 -0.07868208 -0.10115891 0.6234812 0.36536086 0.34264198 -0.116934955 -0.16775247 -0.043911755 0.61202323 0.40719384 0.3400669 0.35683525 0.35937482 0.3338249 0.34373853 0.27532792 -0.027973812 0.011811851 0.6113508 0.49595442 0.3874089 0.38238603 0.38536054 0.3321851 0.2808795 -0.07872503 0.025979377 -0.04499521 0.53201926 0.45355242 0.40263575 0.42083538 0.42613137 0.3833683 -0.040429648 -0.059531484 0.39937156 0.41418177 0.41595805 0.3910749 -0.06342962 0.15035176 0.09757742 0.0524987 0.4062234 0.40743405 0.10410335 0.26611254 0.1560749 0.26607612 0.1669591 0.23834762 0.4535033 0.44536996 0.41428638 0.5142027 0.54255 0.5125133 0.46655345 0.55250216 0.5584665 0.55636716 0.5667167 0.5519138 0.55054474 0.5526363 0.5620795 0.4568349 0.45672587 0.48916864 0.5872142 0.69086856 0.1196512 0.11927236 0.3815566 0.4284523 0.41942996 0.38623643 0.35970014 0.3009526 0.3106826 0.2798264 0.3359431 0.27784768 0.27336 0.3466336 0.34306812 0.10932109 0.09749272 0.1845264 0.2741633 0.3201455 0.34377703 0.30847716 -0.043510817 0.15296632 -0.13537161 0.12920019 0.27716523 0.2866967 0.30433595 -0.08193321 0.1696913 -0.09940159 0.24812815 -0.10379358 0.061492402 0.14764893 0.239817 -0.033771016 0.12996304 -0.26991802 -0.094292596 -0.04885982 -0.0224885 0.10641112 0.24454725 0.2061182 -0.19067512 -0.21658917 0.12506539 0.254371 -0.21907058 -0.2260758 0.26726624 0.27041027 0.2960707 -0.16499868 -0.020621752 0.35604665 -0.10470024 -0.16236097 0.40884835 0.48098344 -0.05577214 0.49670932 0.34442008 0.5170344 0.3650455 0.50392234 0.43063313 0.36697456 -0.18851346 0.2828851 -0.13391021 -0.040191427 0.44289273 0.43139994 0.014938384 -0.2400094 0.4477525 0.44359434 0.42193484 0.41155767 0.20280188 0.1248774 -0.14562772 -0.28711995 0.33723086 0.32758084 0.2964863 0.13803162 0.045624465 0.6009718 0.40473816 0.3793016 0.27744156 0.18256047 0.07069013 0.47704017 0.443934 -0.36153495 0.5479494 0.50952 -0.04832308 0.030104185 0.3846123 0.62291926 0.6119596 -0.25625524 0.089379445 0.2686874 0.4134586 0.66661453 0.62794477 0.53453517 0.26488745 0.12708895 0.17077225 0.13938466 0.3768491 0.39452988 0.32008907 0.17720348 0.17562877 0.28795975 0.23807672 0.33049774 0.37560672 0.3236547 0.11430626 0.29695645 0.13370857 0.36369222 0.16725609 0.46134466 0.29609004 0.5032157 0.50425243 0.44365594 0.48458055 0.503279 0.51778805 0.545114 0.5231079 0.46022013 0.48060864 0.32790092 0.33392096 0.43386745 0.43565327 0.42451176 0.182345 0.23014787 0.14420268 0.10387629 0.3411951 0.4585987 0.46450743 0.43886977 0.16311972 0.044808462 0.37484396 0.12021651 0.11940347 0.21140277 0.25203118 0.2998209 0.23153733 -0.29732227 -0.2827187 0.05420112 -0.13719867 0.35424566 0.34771237 0.43816802 0.4801106 0.25672948 0.2752252 -0.08444691 -0.22308739 -0.22476381 0.09167958 0.18476057 0.22501016 0.3591141 0.4913125 0.60370314 0.27137944 -0.4042585 0.13562424 0.020373551 0.16471685 0.275465 0.45492846 0.5924996 0.22920322 0.53197473 0.55724674 0.15572982 0.13730998 0.15061568 0.20604321 0.41634196 0.22673234 0.4405045 0.16376567 0.15022565 0.4650432 0.14048521 0.18856287 0.44475675 -0.19455904 -0.20158295 -0.17276122 0.2872733 -0.18930987 0.23198742 0.27046227 0.33886808 0.06284672 0.26046658 0.43970308 0.4881211 0.49069247 0.36267388 0.4198115 0.55523676 0.54993415 0.44632134 0.44135034 0.63558584 0.6368746 0.42243746 0.46892494 0.47449562 0.68858314 0.63300914 0.5306394 0.2525409 0.40190017 0.45221043 0.4790995 0.57573545 0.39554337 0.31552622 0.35502505 0.36479914 0.4473482 0.26232645 0.253511 0.33414945 0.37283713 0.40621918 0.4007833 0.41297448 0.14945237 0.27950436 0.2378526 0.39166808 0.34073383 0.38681668 0.46945402 0.42468017 0.41703877 0.4395938 0.44725993 0.38478285 0.40096295 0.2984335 0.32871333 0.34454292 0.35398012 0.37137428 0.307699 0.35817057 0.36950368 0.3803673 0.61978 -0.050391927 0.17282175 0.2524132 0.32505 0.45732826 0.54204774 0.06874318 0.050155077 -0.094728984 -0.06498326 0.019229043 0.12508513 0.18969703 -0.025723346 -0.029196434 -0.094914235 0.12071013 -0.09872795 0.34508845 0.54908144 0.5820009 0.27470493 0.32635102 0.4989851 0.50459456 0.6044983 0.6275146 0.6570208 0.18210593 0.11614813 0.21848974 0.23172727 0.63622785 0.66098195 0.23582998 -0.17156154 0.10471697 0.6651345 0.1963636 0.6418119 0.12094894 0.5745085 0.060131066 0.48415354 0.14021216 0.28202364 0.0051564276 0.026732743 0.3993586 0.43096954 0.3645923 0.4886657 0.46308184 0.268195 0.45465446 0.4038784 0.26236892 -0.32549125 0.30267626 0.37488592 0.058219254 -0.19856276 -0.1316539 -0.09189314 0.17788675 0.22788686 0.29828927 0.0016412102 -0.009258121 0.35072201 0.3549082 0.40124947 0.43582535 0.4278892 0.45167863 0.63453 0.6790101 0.4877875 0.47693 0.6735982 0.48454762 0.5026381 0.5981608 0.19157463 0.43569136 0.45106912 0.48207492 0.3028062 0.372101 0.40968925 0.45520753 0.47938952 0.47359547 -0.03570038 -0.12498947 0.09695579 0.18229349 0.36992997 0.26437277 0.11026819 0.20825654 0.28271592 0.27927572 0.34306306 0.38224143 0.3402925 0.35432133 0.3901696 0.4055516 0.40678746 0.38529986 0.37102035 0.39046437 0.5736737 0.49915367 0.52796793 0.48546773 0.24294008 0.3582741 0.35279757 0.35325906 0.2636668 0.13541225 0.29171222 0.2917537 0.32433254 0.5902432 0.6877613 0.71610606 0.35536942 0.3609257 0.09452585 0.25309682 0.26284206 0.3257009 0.53213584 0.64599645 0.7188767 0.04992816 0.03242887 0.6610896 0.058640905 0.5491282 0.17128146 0.1480969 0.022532083 0.5239876 0.5924562 0.6261351 0.6439724 0.06346987 0.19185218 0.31799868 0.3542231 0.37633342 0.44881815 0.6501286 0.65411514 0.66109896 0.092335165 0.23900785 0.6635592 0.6801762 0.04320273 0.6508678 -0.0014875531 0.5766728 -0.08577433 0.4743414 0.09030603 0.029569548 -0.077150375 0.16686523 0.17227301 0.49429768 0.51779974 0.48991495 0.44449812 0.48775533 0.4400416 0.4390168 0.45704517 0.282738 0.039361835 0.31849352 0.37982512 0.41638908 0.2197756 0.33999678 0.30904046 0.22732869 0.27804333 0.33592978 0.4258281 0.41481012 0.4245283 0.61110115 0.46842468 0.5860616 0.36827415 0.50166917 0.48912066 0.49098235 0.50188774 0.05002819 0.11105049 0.26143658 0.35456115 0.46430588 0.50957274 0.5029678 0.10178955 0.5021744 0.3803926 0.15126969 0.5365337 0.45576793 0.37981692 0.2691976 0.5361986 0.45646018 0.36181393 0.17208743 0.3913846 0.45353425 0.27314943 0.2977233 0.40934142 0.42232737 0.32066274 0.2787005 0.29599738 0.35868 0.4203301 0.42930582 0.62510395 0.5874742 0.5279988 0.59711176 0.60489047 0.55240345 0.3789147 0.100783646 0.059234943 0.4961614 0.5604917 0.13055584 0.23294888 0.27968568 0.2605648 0.16460383 0.64662576 0.7113992 0.7327008 0.5826192 0.73503196 0.7239046 0.13396548 0.1448922 0.67396003 0.19259834 0.15648124 0.57671416 0.21256423 0.6078088 0.6438761 0.65483105 0.327912 0.35168025 0.3975223 0.6580566 0.65116954 0.6558774 0.21758577 0.17455398 0.25186378 0.25239363 0.63553727 0.651119 -0.020811602 0.65845954 -0.04631318 0.6186269 -0.10645149 0.491764 -0.2065379 0.44490695 0.76578724 0.71124226 0.53540987 0.42230582 0.3025068 0.8222413 0.75174177 0.7397624 0.5405041 0.85275584 0.8309387 0.75835 0.6274074 0.034270123 0.0671673 0.84703267 0.8276354 0.784133 0.18159464 0.29393667 0.2866926 0.4525562 0.45951003 0.5236621 0.50711447 0.5198514 0.5354701 0.51000327 0.5215188 0.509442 0.48308274 0.4933078 0.46056885 0.3994661 0.2563044 0.18132666 0.17388695 0.2319749 0.30451927 0.28498954 0.34480512 0.0589214 0.36359218 -0.13045263 0.36531633 0.4107793 0.40643567 0.42554146 0.45033836 0.23305275 -0.07480398 0.25796938 0.3173085 0.38315684 0.44725484 0.49426818 0.39636055 0.5577856 0.59324497 0.16197821 0.57829905 0.5212786 0.31616047 0.35694706 0.51737267 0.42138308 0.4247594 0.40043318 0.3980487 0.3517835 0.27759355 0.28526115 0.38531426 0.43647754 0.4488188 0.6107795 0.62462264 0.59387445 0.41347075 0.594213 0.24771251 0.001763083 0.039106905 0.08068496 0.5322949 0.15469773 0.16617706 0.10514821 0.18187237 0.6545445 0.69556254 0.7223718 0.3745394 0.34736004 0.56306124 0.59374 0.7039466 0.681827 0.13138211 0.6291411 0.2603583 0.23646614 0.30222005 0.27546775 0.37052798 0.21603382 0.6022928 0.6088165 0.61986935 0.26847595 0.29620793 0.36914134 0.3889052 0.45004654 0.55149937 0.5884706 0.6122303 0.20012225 0.14207055 0.12217729 0.2507829 0.59092456 0.6027496 0.6260288 0.52533525 0.60438347 -0.060447462 -0.16438353 0.5205906 0.5358926 0.21476018 0.40118843 0.47759542 0.50656515 0.37494695 0.21722816 0.34852946 0.7208933 0.648405 0.23639993 0.80935967 0.8113745 0.069610335 0.82928723 0.852936 0.05941403 0.847677 0.8278805 0.2941709 0.78770375 0.48565078 0.5126913 0.5200968 0.5164474 0.49766797 0.51146674 0.5004453 0.4895405 0.42832005 0.4731204 0.49702215 0.47806627 0.43599385 0.4529156 0.15664569 0.14213347 0.67893285 0.17469102 0.7539587 0.7204222 0.5876008 0.22417343 0.2327345 0.76939714 0.7371038 0.20908949 0.27354136 0.76336443 0.72886074 0.6385321 0.521552 -0.15340477 0.19337025 0.30924267 0.3323928 -0.17381865 0.07221812 0.21395178 0.28539345 -0.0006533116 0.2703277 0.35597098 -0.033264592 -0.020085037 0.41667867 0.5341363 -0.03910996 0.62973046 0.03565798 0.63467777 0.32209143 0.5544982 0.4815812 0.41221023 0.45179567 0.42053586 0.3948078 0.330676 0.35430115 0.4430703 0.47203875 0.2962156 0.33381152 0.5623481 0.5976434 0.11493545 0.17521712 0.54045 0.08186236 0.10654041 0.50189793 0.459561 0.028990805 0.26868516 0.44225144 0.6702894 0.6907066 0.31080532 0.4562393 0.4796285 0.60465825 0.6416254 0.67322433 0.65281475 0.22800784 0.09371318 0.36625683 0.60337865 0.2992327 0.4591059 0.31417695 0.31917128 0.29389662 0.11304426 0.53042597 0.56040025 0.56894803 0.19638681 -0.1333084 0.2766741 0.30309668 0.29815853 0.46866834 0.52242374 0.5488616 0.5707154 0.030188754 0.5146141 0.5160443 0.5244961 -0.08651254 0.3004331 0.3697663 0.34127676 -0.052985966 0.0069435537 0.17460282 0.3349175 0.35714316 0.56484175 0.45329204 -0.061920963 -0.04253558 0.13769878 0.2831955 0.73221284 0.65832424 0.052017316 0.7560034 0.67806613 0.049811497 0.80158323 0.81865865 -0.012160657 0.053431403 0.82368505 0.7805052 0.38425082 0.7064805 0.50695753 0.40077817 0.50938547 0.4107129 0.4188195 0.48059958 0.45221072 0.39767122 0.42290124 0.4641732 0.2540918 0.16929862 0.60337037 0.2204473 0.6998906 0.70368266 0.18234007 0.7566006 0.17930228 0.7767359 -0.17732754 -0.118737236 0.06572804 0.13046281 0.76637733 0.7455815 -0.20162614 0.7899733 0.80161965 0.657609 0.58130157 0.41263568 0.831282 0.7977189 0.73722357 -0.024530455 0.22693077 0.04655745 0.42065108 0.5779855 0.04959259 0.5688976 0.4803285 0.22946557 0.4693383 0.44970533 0.44112715 0.44212526 0.42349935 0.4041443 0.34037635 0.2528706 0.50873506 0.47510067 0.40905568 0.47737247 0.7657925 0.7804805 0.7334622 0.6124824 0.434255 0.5105982 0.4941846 0.27329326 0.2455444 0.3891383 0.25716805 0.4091289 0.21353541 0.172996 0.22846727 0.38718873 0.4564061 0.43935287 0.5789863 0.6303018 0.6547406 0.6449818 0.38262182 0.2863451 0.20225048 0.4891681 0.5983005 0.4356383 0.3484774 0.45557356 0.39327955 0.21278559 0.35818332 0.18799065 0.12672211 0.30295295 -0.19142711 0.1725602 0.46870995 0.50057817 0.08030533 0.18601064 0.4626661 0.052776873 0.3993323 0.011408016 -0.15106289 0.5251763 0.4548714 0.60595715 -0.15587638 -0.081513196 0.6958123 0.657449 0.7467853 0.7681185 0.78193045 0.70497906 0.5582817 0.10349934 0.742048 0.60316896 0.39459747 0.25052917 0.392586 0.46725893 0.37576005 0.25967312 0.2139802 0.30766374 0.29509264 0.19159132 0.31749672 0.3715338 0.16523944 0.03995303 0.2151016 0.46630806 0.26744032 0.70522904 0.6062832 0.2416506 0.7599435 -0.040036276 0.06490042 0.21064311 0.7893764 -0.10664904 -0.057741936 0.78032196 0.83787894 0.4632929 -0.034674883 -0.119276986 0.006691564 0.035366423 0.88242126 0.90688485 0.8268596 0.6924767 -0.17213325 -0.20688586 0.12772822 0.08460742 0.019481763 -0.03772217 0.404352 0.34004977 0.06931065 0.4329312 0.15159217 0.39894015 0.414664 0.38485366 0.3719775 0.34397295 0.4067563 0.34946388 0.42650494 0.5111278 0.4855584 0.4868891 0.5150769 0.51923513 0.849509 0.7938491 0.69338655 0.81826735 0.8263954 0.48389456 0.3949468 0.7159401 0.6945293 0.3060766 0.31739432 0.4037712 0.29995665 0.30553102 0.21382907 0.22211607 0.1482935 0.33409297 0.21855538 0.4044659 0.44218093 0.2942369 0.39244318 0.36547846 0.5750454 0.53762335 0.42233497 0.27162203 0.53463936 0.589565 0.607751 0.5853395 0.5439253 0.11984609 0.031420916 0.39233226 0.43682778 0.4523092 0.5298202 0.31605422 0.32518825 0.35698387 0.14921263 0.3368484 -0.113339126 0.28163737 -0.0036487877 0.021747366 -0.18771039 -0.012294412 -0.091899976 -0.16870135 0.24235034 -0.2534911 0.34196693 -0.12975213 0.634189 0.4210482 -0.061685868 0.691103 -0.07932278 0.568527 0.03148247 0.2424899 0.3095643 0.21088926 0.29279456 -0.13897549 0.14938018 0.20219189 -0.057978597 0.023519348 -0.011582881 -0.0026089586 -0.018916272 0.058869228 0.050438523 -0.10941179 0.23167469 0.60192925 0.22982381 0.7223673 0.16218331 0.7541554 -0.019125324 0.7695468 0.06963779 0.8156029 0.8210854 0.317849 -0.0031380653 0.22247197 0.86997825 0.9088112 0.85057545 0.67015576 0.089320615 0.1889198 0.241912 -0.10352537 0.26181093 0.12771447 0.35500735 0.29577008 0.24284816 0.33522773 0.24374738 0.20747636 0.4393145 0.36937702 0.4016422 0.49791193 0.52051127 0.5090465 0.48881763 0.5079487 0.51854473 0.5178705 0.82604325 0.8592003 0.8782563 0.8214152 0.71759045 0.56359696 0.80923086 0.49260026 0.4129301 0.74383354 0.36104226 0.35385135 0.33273897 0.3001963 0.17123944 0.2658276 0.052944206 0.61735284 0.6045386 0.56919575 0.283289 0.17735717 0.3083101 0.36624515 0.6452255 0.64036703 0.58581334 0.49394906 0.22653058 0.16962597 0.21056214 0.61357313 0.6033551 -0.14120346 0.5199262 0.44534177 -0.23