# vtk DataFile Version 2.0
Really cool data
ASCII
DATASET POLYDATA
POINTS 4250 float
2.2018726 43.154446 11.93162
2.041196 43.041466 12.584165
2.0624537 43.068832 13.2390375
2.2950773 43.202877 13.737874
2.246554 43.983185 11.2558365
1.951081 43.71337 11.795041
1.7259022 43.631992 12.622543
1.8674724 43.54338 13.305171
2.075229 43.614307 13.794104
2.2905936 44.791733 11.226259
1.9094108 44.50147 11.73515
1.7074313 44.404465 12.52376
1.827783 44.352802 13.256448
2.2290454 44.283005 13.9908285
2.1509578 45.006176 11.539852
2.008472 45.242355 12.458453
2.1395783 45.149406 13.388624
2.2812707 45.07167 13.821688
2.4057095 50.80419 15.872132
2.3503337 50.733013 16.439688
2.3507993 50.854637 16.89781
2.388611 51.288036 15.929877
2.369451 51.25656 16.511679
2.4049878 51.102165 16.914865
2.7267756 42.922016 11.779607
2.4067755 42.695873 12.656097
2.469634 42.813953 13.42582
2.784234 42.974934 13.960604
2.4537969 43.720413 11.189696
2.374795 43.52659 11.427184
2.7162273 43.337406 14.057939
2.76367 44.482338 10.926169
2.6290271 44.53125 14.405435
2.750597 45.21212 11.08687
2.8531451 45.284008 14.440596
2.7814438 45.858284 11.389816
2.537122 45.734135 12.721693
2.6485054 46.027504 13.504352
3.118372 46.13989 13.945813
3.2176802 47.31252 12.0499
3.268563 47.5635 12.384003
3.1941316 47.09451 13.346601
3.173633 48.725136 15.91619
3.363792 48.426563 16.32785
3.3958824 48.53656 16.948298
3.0945883 49.575836 14.613952
2.7832992 49.85016 15.627709
2.7243822 49.78801 16.455824
2.8985918 49.806023 17.189075
3.273467 49.890312 17.838806
3.3095467 50.616974 13.898341
3.0957701 50.5206 14.773716
2.5934527 50.507256 15.587472
2.4863026 50.401493 16.80152
2.625123 50.521355 17.23539
3.1557732 50.582962 18.132868
2.938678 51.17627 14.888858
2.6097398 51.33668 15.505016
2.5327559 51.68883 16.618374
2.6443584 51.28443 17.324825
3.1376896 51.141808 18.175343
2.8327136 52.00386 15.854177
2.8230853 52.095634 16.545969
3.2109005 52.297543 17.603622
4.2272964 36.327335 4.5651784
4.211663 36.178642 5.2562556
4.0817313 36.87879 4.0614343
3.9121969 36.77672 4.6555796
3.9875002 36.58491 5.3102384
4.16965 36.798298 5.936522
4.069095 37.481174 3.7947116
3.7008147 37.48412 4.5532756
3.7160845 37.574482 5.2582097
3.9924836 37.43195 5.9245057
4.0487165 38.379986 3.9158587
3.716026 38.39567 4.6975536
3.7793918 38.43575 5.3388762
4.3972917 38.91738 7.736504
4.2501884 39.04822 8.511859
4.2749596 39.12762 9.141197
4.395179 39.102314 10.612126
4.2441473 39.17088 4.1682673
4.0845656 39.02645 4.4918017
3.8936858 38.85058 5.0509186
4.4598794 39.10159 6.684977
4.1948576 39.491566 7.421787
4.0179834 39.611362 8.469885
4.10855 39.52518 9.231838
4.283175 39.479733 10.341825
4.293137 39.86516 11.633092
4.2112465 39.813744 12.789901
4.2122884 39.9841 13.457459
4.1148834 40.377678 7.775962
3.9732587 40.326546 8.527389
4.1311073 40.441376 9.520729
4.1762595 40.90736 10.551586
4.0794926 40.683136 11.355816
3.9786558 40.43106 12.664684
3.7556863 40.754658 13.083747
4.257279 40.655922 14.268711
4.214952 40.856747 8.631899
4.2325826 41.568905 10.374824
3.8009827 41.80773 12.119746
4.221833 41.509964 14.687102
4.359188 41.92626 15.367407
4.4384646 43.088688 -5.9249997
3.7655344 43.15182 11.114436
4.152833 42.19508 15.169563
4.4300623 42.69349 17.782534
4.420403 43.45076 -6.276431
4.4234304 43.63952 -5.762042
3.5673132 43.81249 10.9246645
3.3475332 43.603504 14.840995
4.31461 43.189026 17.625378
4.412111 43.421856 18.174828
4.4337163 44.012386 -6.210799
3.5223842 44.819447 10.792736
3.711668 45.391148 10.704789
3.724426 46.12715 10.79812
3.4162376 46.715626 11.306273
3.5150747 46.406235 14.395597
4.2171535 46.922234 10.861496
3.8223903 47.473854 14.540756
3.700155 47.777813 15.880249
3.7627058 47.640118 16.195547
3.7354636 48.04688 16.815857
3.4870093 47.955368 12.061965
3.6906934 48.891262 13.27102
3.469774 48.28157 16.002094
3.4699173 48.435577 16.753656
3.709773 48.53289 17.2984
3.9410667 49.31279 11.973143
3.7103436 49.563663 12.745035
3.490771 49.941055 18.042086
4.3536835 50.937057 7.790554
4.2990875 50.73937 8.218612
4.369947 50.65915 9.239972
3.9102836 50.51689 12.757728
3.5026884 50.55506 13.477791
3.3928683 50.70795 18.27182
4.2251616 51.62349 7.664625
4.1172204 51.555904 8.211068
4.270751 51.15583 9.206278
3.9123492 51.16176 13.035209
3.647108 51.438393 13.323062
3.4670918 51.291985 14.285088
4.2400355 51.90712 19.748018
4.3448205 52.001106 20.079815
4.332604 52.267635 7.221401
4.2170243 52.405766 7.606069
4.1469846 52.510963 8.182954
4.294394 52.33883 8.899879
4.1112223 52.47864 13.13262
3.9042816 52.638206 13.6234045
3.4585552 52.35483 14.65729
3.8296788 52.38424 18.760162
4.1399326 52.57847 19.451223
4.303088 52.355545 20.273975
4.3420334 52.85472 7.7028646
4.3343215 52.830082 8.357093
4.0953436 52.975063 13.658519
3.556418 52.807667 16.243866
3.8883991 53.28064 17.578661
4.018622 53.688328 18.523342
4.0859566 53.430122 19.053436
4.34916 53.215233 20.150593
4.260461 54.489887 18.48234
4.310131 54.236694 19.032259
4.327212 54.79781 18.29628
5.235111 35.320347 5.5814962
4.729685 36.18697 4.1016
4.725952 35.96475 4.6665936
4.779764 35.81585 5.4096265
4.850787 35.877613 6.0980396
5.1732817 36.119434 6.7297196
4.925743 36.970264 3.3111784
4.6461296 36.59736 3.7417681
4.54408 36.713665 6.3066516
5.2140527 36.703815 7.0937057
4.8112698 37.413486 3.1394
4.443087 37.272026 3.4311056
5.2780905 37.713577 7.9448247
5.1722646 38.09214 10.4684725
5.1532526 38.060883 11.333455
5.3368626 37.818436 12.272557
4.696876 38.209656 3.2708127
4.3956957 38.51022 3.568465
4.647785 38.43742 6.6047854
4.757192 38.592262 9.185892
4.6135836 38.72916 10.460649
4.696082 38.77393 11.204964
4.774504 39.054253 12.602807
5.091099 38.752308 13.457585
5.298912 39.085144 14.946109
4.5088596 38.933006 3.7652996
4.5336103 39.54473 6.291423
4.491687 39.424057 12.707721
4.7235813 39.513107 14.265054
4.9880767 39.695812 15.200541
5.1882734 40.05622 16.225523
5.0436935 39.68434 5.095915
4.4068856 40.656105 7.4428496
4.719657 40.3739 15.515357
5.0843616 40.57222 16.520748
5.202456 40.58012 16.886503
5.0864396 42.26877 -6.1740294
5.0432854 42.271507 -5.7438445
5.347581 41.621887 3.2624283
5.3607664 41.77113 4.145668
4.698786 41.02783 7.452179
4.567673 41.27752 15.505982
4.822319 41.906376 16.721478
4.70372 42.1343 17.86537
5.0452805 42.02336 18.489744
5.085785 42.762505 -6.9551544
4.762897 42.81128 -6.4129906
4.782787 42.72433 -5.698457
5.0767283 42.804478 -4.9645166
5.423083 42.502083 2.848475
5.3823895 42.399414 3.596539
5.180504 41.86895 8.712327
4.49825 42.5757 10.467764
4.7746124 42.325356 16.33987
4.5795813 42.46686 17.60014
4.645449 42.740646 18.50156
4.9387183 42.864513 19.302681
5.1827884 42.955906 19.884974
4.8940578 43.48064 -7.058465
4.5346847 43.384365 -6.5244994
4.509773 43.52792 -5.5258083
4.749383 43.543415 -4.8299923
5.287754 43.910122 -3.7733755
4.741226 42.816772 10.570554
4.510841 43.661686 18.387922
4.7806864 43.503445 19.301748
5.158866 43.527695 19.94816
4.9302187 44.111057 -7.0170245
4.6144834 44.19269 -6.3950152
4.5863156 44.377613 -5.6403017
4.764997 44.3944 -4.7329884
5.121399 44.600685 -3.9590504
4.471031 44.860832 10.632259
4.5797586 44.322697 17.586763
4.896863 44.41944 19.396723
5.190583 44.266994 19.830038
5.0287232 44.993458 -6.0256267
5.021962 45.175953 -5.3638844
5.157421 45.324955 -4.6776695
4.4266376 45.733894 10.518235
4.92326 45.38088 16.326435
4.9946613 45.59235 17.80067
4.918544 45.356636 18.568771
5.154649 45.268074 19.229155
5.0688915 46.47628 10.456688
4.666364 46.591248 10.638765
4.6034217 46.987225 16.390163
5.273195 46.514263 18.41236
5.2062593 46.003906 18.805279
4.460652 47.485085 10.949964
4.5126967 47.68216 17.381304
5.2836075 49.19998 8.353523
4.6323895 48.60451 17.802776
5.132834 49.573208 7.974893
4.69962 49.815094 8.443266
4.7585516 49.48073 9.485183
4.632093 50.51825 7.800062
4.5176334 50.228703 8.427157
4.4910474 50.71225 9.485596
4.7784176 50.483967 18.674
4.9130363 51.09878 20.283663
5.16932 51.280083 20.884315
4.8779387 51.610596 6.855866
4.463168 51.717815 12.7981825
4.508805 51.78805 20.568209
4.933183 51.76914 21.067995
4.616261 52.4832 7.0742087
4.4220324 52.679073 7.335619
4.6255503 52.318108 9.443177
5.0820756 52.09204 12.351432
4.4775887 52.143085 20.75427
4.8097277 52.37305 21.045095
4.8426104 52.94676 7.137643
4.702529 53.186398 7.610718
4.5185323 53.12128 8.287651
4.894522 53.127285 9.252783
5.233003 52.88166 9.739649
4.464125 53.292053 13.327648
4.4416428 53.685608 19.78149
4.637318 53.229164 20.48226
4.9503284 53.088627 20.952734
5.1137323 53.70377 7.864472
5.209624 53.814114 8.505312
4.95529 53.727818 13.625861
4.893918 53.936733 14.66421
5.218289 54.623253 16.036543
4.419505 54.70521 18.680311
4.606499 54.470406 19.257658
4.8316283 53.918636 20.050734
5.084364 55.139645 16.829477
4.738113 55.056183 17.671295
4.698122 55.028454 18.42148
4.8589 54.8497 19.08325
5.671732 35.286068 4.915548
5.7638993 35.033905 5.6316066
5.810136 34.956055 6.31996
6.106418 34.988594 7.0977182
5.416732 35.81411 4.4326835
5.5264993 35.341766 6.5863423
5.5863094 35.697605 7.2165966
6.2718797 35.612007 8.313205
6.402525 36.022835 10.675058
5.3924794 36.589344 3.4840622
5.935266 36.23909 7.943354
6.406663 36.353867 9.75859
6.0157166 36.91267 10.708129
5.8143153 37.233727 12.6969
5.2908525 37.629 3.0093129
5.776702 37.293354 11.322239
5.5495872 37.534897 12.641524
5.8604045 37.714622 13.324124
6.2049065 38.060482 14.761908
6.156592 38.189598 15.243511
5.604333 38.15056 2.999252
5.6061606 38.49033 14.568867
5.5893335 38.76668 15.228579
5.927617 38.965782 16.15353
6.355898 38.964226 18.72305
6.478097 38.973267 19.029934
6.2300673 40.274796 2.9611592
5.46331 39.78099 16.277006
5.7450156 39.772488 16.973112
5.8570676 40.915783 2.6407533
5.9603815 40.374344 3.3396084
5.5209403 40.670162 17.231133
6.10253 41.18797 18.510258
5.667068 42.218212 -6.8187423
5.6092753 41.976215 -6.2952876
5.6126003 41.964725 -5.6266603
5.742184 42.093956 -5.004035
5.826969 41.66839 2.1269252
5.707691 41.47844 2.43173
5.898774 41.582684 18.687645
5.497335 41.983112 18.857286
[...]
POINT_DATA 4250
SCALARS features_00 float 1
LOOKUP_TABLE default
0.68088627 0.6861713 0.6337087 0.55921364 0.6359588 0.7218329 0.7463543 0.6613193 0.592076 0.6173298 0.73447883 0.78262305 0.67750776 0.5722219 0.6736362 0.7055482 0.5685748 0.53191733 0.45872954 0.47416246 0.4787251 0.45670286 0.4771353 0.48098445 0.5817478 0.601001 0.52614456 0.42242286 0.60047567 0.6374014 0.46967936 0.50391996 0.4895861 0.50970495 0.37973404 0.5057429 0.54183316 0.39232028 0.3183239 0.3793617 0.30444363 0.25470245 0.3059443 0.28821987 0.31624 0.3105777 0.43282163 0.43882352 0.4266155 0.39706647 0.22238335 0.34004194 0.44197336 0.46562067 0.46215916 0.4141007 0.3558151 0.4248224 0.46929738 0.47425342 0.4208809 0.42939585 0.4523353 0.40904436 0.634616 0.56887734 0.7080652 0.68976283 0.6071511 0.5071637 0.74287903 0.75965863 0.6764661 0.52295625 0.72825474 0.6788718 0.559773 0.2701975 0.26341698 0.2278735 0.13535447 0.616637 0.62165904 0.5569611 0.30981323 0.31178343 0.30932462 0.25462282 0.16882059 0.16404459 0.16751431 0.19062608 0.35056937 0.3532419 0.28636065 0.22058935 0.1694992 0.15971714 0.16636251 0.18521357 0.3735618 0.21721023 0.13852963 0.08772511 0.028360603 0.7853036 0.2727694 -0.005241979 0.25827372 0.8012204 0.7739665 0.33463317 0.26986927 0.27684194 0.38339955 0.7906648 0.362585 0.3257232 0.30585507 0.38087815 0.14433758 0.24745439 -0.04692992 0.16998447 0.18673995 0.25786462 0.23978111 0.09700927 0.24340425 0.3017912 0.3113416 -0.041731402 0.07657389 0.3689415 0.5243982 0.49368376 0.4606539 0.14736076 0.18341938 0.39662454 0.61353403 0.6088886 0.5378173 0.19939826 0.22042055 0.2709785 0.5013412 0.5683708 0.61637044 0.6329454 0.6373628 0.6215556 0.25122434 0.26194292 0.30984128 0.35935706 0.45848924 0.5986992 0.62723076 0.627506 0.26357058 0.39267877 0.35762292 0.4007494 0.42894444 0.56189704 0.4623433 0.46700913 0.49013293 0.43081653 0.6077732 0.56872255 0.4985749 0.41815895 0.30683583 0.63619924 0.64957654 0.40874475 0.22642988 0.668568 0.7060824 0.07758654 0.07702245 0.10553047 0.1313359 0.67827874 0.69389373 0.31209445 0.14660588 0.11432758 0.11560835 0.14843245 0.1599052 0.1981038 0.62012506 0.3017668 0.15879387 0.1981543 0.18256593 0.13094841 0.339419 0.3321387 0.14116682 0.09578709 0.08738531 0.79998326 0.77278066 0.46986353 0.43236044 0.3017236 0.084294 0.07993643 0.21156819 0.26434082 0.83398956 0.81393874 0.77170134 0.7105091 0.42807657 0.45111895 0.16505142 0.026334397 0.06206967 0.21264362 0.3539617 0.45897305 0.48998752 0.84645975 0.81335187 0.76054716 0.73459655 0.59005785 -0.02628097 0.42999518 0.49581125 0.48844182 0.84607536 0.80206597 0.7631799 0.7273601 0.62140375 0.2068916 0.38786513 0.47379535 0.4565264 0.75232893 0.7060852 0.66415656 0.21435815 0.017330054 0.3298011 0.40787524 0.4138611 0.11036934 0.16696027 0.111966535 0.2788231 0.36843264 0.23411477 0.21338962 0.23218817 0.2848663 0.28952315 0.36338186 0.30062726 0.44142175 0.4177219 0.45493942 0.2748085 0.57982206 0.6601512 0.54556435 0.2338496 0.65021104 0.7219286 0.5997288 0.61816716 0.56802046 0.19565664 0.67605555 0.7237381 0.5883117 0.610229 0.61911416 0.5517812 0.46605265 0.23633504 0.5177966 0.6179508 0.7019353 0.59570247 0.5884172 0.18338545 0.18608564 0.28631908 0.49020755 0.49289274 0.5643469 0.4316856 0.5154778 0.52588844 0.5059766 0.44526625 0.3831657 0.32550284 0.24435686 0.5166221 0.31265244 0.23052207 0.101927534 0.08122528 0.56193566 0.102099344 0.015914863 0.04105678 0.13055746 0.5995235 0.086502574 0.13381144 0.13036475 0.15914358 0.1662666 0.52159345 0.18317524 0.19632313 0.16591644 0.2824648 0.34440875 0.15221831 0.13927835 0.08040684 0.33409458 0.24437085 0.07833783 0.0915808 0.79454964 0.78657037 0.74880964 0.68507046 0.36558008 0.39278013 0.17123103 0.28506583 0.8156721 0.6195024 0.52051055 0.321014 0.38193852 0.24930093 0.085309096 0.087095864 -0.003273718 0.43941754 0.8056859 0.8569572 0.27604884 0.30824667 0.37105936 0.38615346 0.3269114 -0.055439096 -0.05294363 0.42999727 0.40185958 0.8543591 0.54714036 0.36930242 0.2610681 -0.004691977 0.4144717 0.37718296 0.74514997 0.729202 0.6600609 0.62843066 0.58899045 0.49470013 0.28546822 0.1422458 0.09374058 0.05886998 0.058757983 0.057592586 0.3813452 0.38762426 0.65926516 0.6327101 0.6142611 0.58284247 0.41256273 0.37463057 0.27292612 0.20604935 0.1478721 0.11867986 0.093388736 -0.05945541 0.08629018 0.36389956 0.34373543 0.46779203 0.4222058 0.3535351 0.2525486 0.17026886 0.100807965 0.09493965 0.06509777 -0.039038114 0.4614482 0.44234145 0.39210382 0.30650747 0.07843085 0.0848842 0.16771078 0.121414125 0.098115385 0.122315004 0.31532657 0.18074031 0.41307092 0.5209125 0.64380217 0.3186035 0.44426495 0.73254013 0.5253873 0.1812957 0.7908824 0.54059464 0.57181835 0.30462626 0.10798502 0.6755929 0.7600975 0.5274507 0.55762434 0.5448708 0.5263078 0.14483659 0.16165133 0.20356476 0.6203423 0.14455116 0.15634163 0.27032298 0.4069897 0.517702 0.5486209 0.5538705 0.41122404 0.49379236 0.2988876 0.2765611 0.2431115 0.19475198 0.14656086 0.13738246 0.39157403 0.33437362 0.27353582 0.23412873 0.15628907 0.12468201 0.15513921 0.12748769 0.32765824 0.11794459 0.11714099 0.1447577 0.13589036 0.41936028 0.0076319575 0.096571356 0.24894337 0.13072965 0.11707216 0.5995193 0.601588 0.6135262 0.22557898 0.39842597 0.48493904 0.52490366 0.53174156 0.3558504 0.40493158 0.43643355 0.14119881 0.12351325 0.27806035 0.67525566 0.71470356 0.7119567 0.5717523 0.10795452 0.08857303 0.042690195 0.20365112 0.66922665 0.65972686 0.31034788 0.15628141 0.117611945 0.068502866 0.07344166 0.32939252 0.6762252 0.17046407 0.022518203 -0.08447285 -0.39180073 0.36337012 0.6843476 0.14140472 0.06970863 0.036115244 0.023849672 0.040059563 -0.67799795 -0.5775224 0.33182442 0.32512265 0.65562326 0.019100577 0.1980882 0.08134511 -0.13364172 -0.27450997 -0.25217277 0.3209448 0.6118747 0.5869938 0.56623644 0.454773 0.49358538 -0.09665519 0.2930577 0.52581954 0.49620116 0.2325905 0.50853944 0.48859394 0.45430154 0.46986288 0.42287815 0.36865976 0.28478268 0.13267553 0.4122377 0.59670407 0.17406526 0.6843555 0.32489643 0.75213873 0.4397207 0.56279194 0.62379277 0.49332047 0.5222403 0.47683322 0.35492814 0.17588815 0.12918738 0.51301455 0.51434463 0.44310376 0.13751845 0.1461238 0.15035217 0.19940916 0.45567814 0.45241272 0.3915917 0.5041527 0.20818822 0.19788031 0.25498548 0.24245481 0.23474878 0.17291652 0.13998261 0.12938958 0.29015562 0.13539763 0.12727328 0.11627694 0.1981537 0.121389546 0.08955558 0.1825735 0.08991679 0.05488669 0.058442757 0.69378304 0.72453284 0.726517 0.103609644 0.6268994 0.6875241 0.68826866 0.66762936 0.012537196 0.55155015 -0.12586564 0.47288355 0.4814049 0.01583495 0.04925264 0.055343114 0.41435415 0.53051156 0.6070687 0.08188767 0.32028437 0.4458447 0.4070792 0.14977176 0.22885874 0.22576644 0.49961656 0.54193497 0.36726382 0.17584862 0.028306417 0.454778 0.51312107 -0.07774958 0.5054781 0.44810474 0.3587187 0.19151953 0.28771138 0.21392621 0.13535483 0.4747467 0.22976974 0.37435818 0.21035954 0.3667285 0.4226343 0.42833126 0.2654575 0.377483 0.47460762 0.4488684 0.38255507 0.13869806 0.13644657 0.40386927 0.39028853 0.13715799 0.43184862 0.5188701 0.52971435 0.28531983 0.4586202 0.44603813 0.17293485 0.2009168 0.16434582 0.14606188 0.27363938 0.22052868 0.16745915 0.19371669 0.15091787 0.09104263 0.22644669 0.11570209 0.13474321 0.15783703 0.080040306 0.6998372 0.403113 0.35378975 0.063703485 0.6679326 0.7033948 0.6925049 0.67461425 0.41901922 0.31190574 0.072464995 0.012352645 -0.0395666 0.46105155 0.6063539 0.31392813 0.17912029 0.10494183 0.03760387 -0.16231623 0.54377425 0.49187523 0.030843377 0.022456875 -0.22390155 0.45324242 -0.008016892 0.39483958 0.22149062 0.14440987 0.019446813 0.28991103 0.27424037 0.044666804 0.29235515 0.14148001 0.33868104 0.06013731 0.31983113 -0.030835763 0.06514953 0.26076666 0.37910143 -0.20174596 0.41425022 0.39124835 -0.11036411 -0.011721313 0.22172752 0.16626605 0.12300831 -0.0027951002 0.15954608 0.14702606 0.176687 0.20435573 0.35071173 0.25147775 0.22133267 0.14172956 0.29265338 0.3007607 0.307194 0.23095347 0.21157421 0.117570736 0.1246612 0.10462649 0.32742 0.28312764 0.117137395 0.03947249 0.5296361 0.5565703 0.45682153 0.51926136 0.5621073 0.5195596 0.10204004 0.18128802 0.4805947 0.45046806 0.08291203 0.12346041 0.3831135 0.22806609 0.17315698 0.08332968 0.1885131 0.23526178 0.06572609 -0.0050343648 0.4418968 0.4252348 0.3274563 0.15315449 0.18484789 -0.0012235418 0.6695541 0.43980414 0.45063886 0.43074054 0.31741124 -0.09100335 0.6298629 0.5919988 0.5911474 0.61169887 0.43356442 0.4911374 0.4706433 0.24556771 0.22478694 0.4746033 0.45027405 0.08157479 0.41488612 0.24813606 0.024474807 0.28643107 0.08385239 0.101324365 0.09524827 0.09521655 0.107280925 0.14219213 0.15636647 0.16925146 0.54282534 0.43485278 0.121090755 0.04668395 0.106119834 0.5992503 0.499178 -0.017830187 0.016570019 -0.1463519 -0.08471596 0.57267153 0.48489988 0.38290977 0.2599874 -0.026485192 0.2850872 0.25168246 0.27986428 0.2860629 0.3695758 0.31438893 0.3506197 0.30602753 0.24221075 0.1736639 0.051121924 0.1679753 0.16529526 0.15045142 0.09996233 0.050326295 0.13245128 0.19448465 0.058872152 0.0790102 0.073377416 0.15992358 0.12299051 0.0900915 0.20095052 0.08803772 0.098320186 0.0046538413 0.6033647 0.6672971 0.678529 0.7382325 0.7190044 0.43460095 0.5015159 0.55181026 0.17832802 0.39699686 0.5253885 0.46101102 0.103958905 0.30915606 0.6514349 0.6672503 0.03697747 0.61304873 0.6439854 0.6488911 0.225762 0.12247644 0.52040315 0.5522058 0.5745491 0.22441074 0.27375734 0.35024458 0.456106 0.4128864 0.4110102 0.37027985 0.10671663 -0.09352741 0.18256363 0.3981904 -0.130953 -0.16355747 0.39438388 0.4713809 0.22443251 -0.041067466 0.41361055 0.36798427 0.26144263 0.20143892 0.13328244 0.29855034 0.3823352 0.30572587 0.28478736 0.1761519 0.26221973 0.2683917 0.03921804 0.14132959 0.023032695 0.16645285 0.39933386 0.12455028 0.11905494 0.77473843 0.5094524 0.0314669 0.85589 0.7488719 0.83706856 0.7199695 -0.14113395 -0.16996807 0.27285665 0.6883086 0.6373559 -0.090590425 0.0154566765 -0.079308376 0.23503359 0.34056646 0.380341 0.43938205 0.37902737 0.18849066 0.15527265 0.3669228 0.40817404 0.41490984 0.43066204 0.42775294 0.35230392 0.3697532 0.42816323 0.48985654 0.4956513 0.48116314 0.17743105 0.114764035 0.34907418 0.40709728 0.21636511 0.20163171 0.08817743 0.303154 0.25114998 0.11037344 0.26565695 0.22003844 0.13996318 0.19104482 0.15504141 0.14375119 0.19812912 0.12575896 0.06937672 0.05946947 0.34705257 0.44954014 0.60693014 0.6616329 0.74150383 0.76680166 0.74852157 0.72020733 0.7976997 0.8115968 0.7803488 0.35778016 0.4568708 0.49790353 0.14628567 0.29142398 0.34725916 0.40878275 0.0111121815 0.08690085 0.4501598 0.6279173 0.6726243 0.68040925 -0.0755101 0.023464724 0.670744 0.15945429 0.06808621 -0.078702785 0.60724556 0.009949662 0.12946486 0.122120366 0.33032304 0.35197738 0.27590424 0.17570466 0.052150324 0.31341374 0.3027816 -0.020592064 0.28650874 -0.0009710118 -0.064546175 -0.0039952844 0.040898472 0.31661823 -0.10274831 0.35201502 0.301458 0.17907524 0.39752138 0.3168621 0.2073483 0.20874965 0.3129403 0.17885628 0.1829332 0.10703987 0.09757568 0.918988 0.77870876 0.01343162 -0.22332075 0.9511503 -0.08837384 0.6876167 0.70946115 0.7193282 0.93651104 0.20506087 0.6817738 0.698415 0.7263301 0.8553933 0.7857716 0.31142575 0.6208155 0.66529226 0.70668125 0.70131373 0.6268752 0.5098041 0.40537158 0.4788505 0.58921075 0.6547229 0.44985917 0.16528949 0.45831895 0.48651284 0.5430149 0.54979885 0.522483 0.4417264 0.12813681 0.19399814 0.5605422 0.55339557 0.24619111 0.2938253 0.31574422 0.279555 0.18199463 0.15088469 0.21748105 0.28501195 0.1490354 0.25828585 0.20261467 0.17451885 0.170271 0.20851612 0.17788407 0.14664905 0.13794361 0.23738879 0.17698517 0.3129063 0.3363384 0.68090844 0.62393206 0.75866723 0.7112515 0.81670964 0.87694645 0.84790146 0.25468355 0.34926522 0.46353295 0.43313813 0.4106945 0.1532381 0.15331528 0.28628314 0.340226 0.10596284 0.10774398 0.16343558 0.53733414 0.62992144 0.6587101 -0.14719017 0.6424932 0.08565449 -0.052650064 0.5858741 0.52791023 -0.062137403 -0.14906415 -0.010120146 0.2463159 0.23999736 0.2574677 0.10231405 0.010871783 0.24568531 -0.01265901 -0.09333959 0.3593391 0.020727467 0.16649354 0.3841319 -0.108862765 0.30296206 0.4205262 0.532283 0.39904276 0.44040558 0.53165543 0.5589746 0.31523573 0.32512498 0.39852658 0.47367018 0.554802 0.2431585 0.28597343 0.4345454 0.24874118 0.46898735 0.23567435 0.95264924 0.8356577 0.71304834 0.7277292 0.7353371 0.99234134 0.073329516 0.63851595 0.69934493 0.723606 0.7350862 0.74803096 0.9883143 0.97577107 0.14425068 0.1335625 0.67205954 0.7313645 0.7553865 0.77104735 0.8958069 0.81685513 0.23272604 0.6037319 0.73220766 0.7599907 0.7324543 0.6358116 0.2526962 0.38568842 0.56773204 0.63415825 0.71618664 0.5578123 0.51413673 0.5335154 0.45917055 0.38703597 0.48494694 0.52295864 0.5741706 0.57314 0.29896545 0.13483998 -0.14221777 0.44093564 0.25425968 0.4109845 0.4807347 0.5757883 0.5614244 0.23742515 0.28727528 0.27490884 0.19129404 0.17821884 0.31141257 0.11658786 0.21328816 0.35565048 0.2997446 0.2867345 0.24596801 0.3461808 0.29997712 0.3072813 0.1487982 0.46329474 0.45430943 0.36815417 0.37676752 0.17926514 0.18266839 0.2038385 0.6435745 0.6174589 0.542091 0.44578627 0.4341038 0.22054964 0.20612352 0.1944674 0.17545436 0.19418527 0.6584312 0.6459867 0.6198815 0.23109487 0.2910252 0.34654775 0.38219932 0.6852254 0.42169195 0.53476554 0.83068585 0.6443434 0.72092426 0.84447205 0.883522 0.17265211 0.4360463 0.48548192 0.3741675 0.14707798 0.18174228 0.38708264 0.36244628 0.105729245 0.22624652 0.14974397 0.20253655 0.39884597 0.50262463 -0.026587501 0.50057244 0.17978233 0.11951336 0.09793575 -0.15580332 0.07930793 0.1328397 0.02825804 0.050957847 0.21810408 0.14090544 -0.020380557 0.35948926 -0.090284206 0.07477613 0.26008865 0.40603572 0.21701886 0.44811577 0.5726105 0.6379618 0.3896523 0.40043244 0.57252693 0.6388154 0.36332497 0.6387246 0.5371303 0.2036711 0.3984871 0.6208495 0.05951757 0.18241894 0.89733064 0.7873664 0.6485718 0.6779946 0.71655643 0.72182536 0.71546984 0.920246 0.78440595 0.00097368285 0.61081433 0.7241218 0.7382435 0.9137675 0.81118107 0.7638201 0.7741351 0.8400155 0.78318954 0.7939746 0.7026826 0.53095937 0.5126176 0.7376441 0.49183652 -0.123863265 0.5708886 0.58156693 0.58082175 0.43130997 0.109162375 -0.08198717 0.14944704 0.07006591 0.4912046 0.5532992 0.58162105 0.5803729 0.56474435 0.51323026 0.39448044 0.16180156 0.24854545 0.27785555 0.0907828 0.008936629 -0.02910743 -0.020743847 -0.054466546 0.4268355 0.16507928 0.093964435 -0.022316141 0.36730886 0.1349542 0.14011228 0.3606573 0.38614333 0.23194957 0.074259445 0.6347246 0.43180257 0.4359058 0.28898323 0.19822925 0.039445862 0.4910701 0.65439624 0.65986556 0.61274266 0.5169685 0.53252655 0.29173836 0.32379115 0.6654831 0.66453034 0.6477933 0.36531356 0.3888225 0.39979234 0.4811023 0.52657217 0.60563576 0.80516654 0.58297074 0.63386905 0.7726189 0.19968338 0.1270313 0.48336792 0.12396824 0.18739712 0.45892274 0.39422542 0.084319375 0.12853631 0.15857174 0.21650147 0.046955183 0.21827714 0.1673972 0.1597032 -0.07202564 0.07939678 0.05034454 0.27705014 0.1442099 0.02823244 0.138308 0.08509619 0.01307416 0.08096046 0.089029394 0.34103942 0.08913394 0.35713434 0.41664237 0.40283576 0.5077515 0.6165706 0.67594695 0.41596383 0.7043001 0.38792652 0.38332927 0.7031511 0.35782066 0.57235074 0.19168192 0.116156355 0.09972731 0.31998438 0.43140227 0.15672025 0.011464138 -0.007913612 -0.2774683 0.7091749 0.58369595 0.3430219 0.21220647 -0.198401 -0.13868687 -0.12460355 0.6169929 0.6120992 0.67102313 0.72311956 0.560433 0.33767202 0.2507023 0.25075373 -0.12215531 0.63125324 0.66313875 0.7899438 0.5158271 0.33636183 0.6624949 0.7105198 0.7082553 0.562109 0.3696587 0.32562497 0.71392345 0.41016233 0.38192433 0.6401653 0.51305974 0.51737463 0.55241835 0.5712504 0.56999373 0.56784713 0.5165639 0.2260297 0.025463626 -0.21593094 -0.33546644 -0.43368074 -0.12950271 0.4871187 0.51990384 0.57751906 -0.028034512 0.096232235 -0.26244617 -0.05957264 0.62321174 0.6538831 0.55291635 0.027121074 0.047557764 0.041039363 0.42468432 0.6841742 0.7444844 0.7323205 0.72485524 0.108838305 0.18714242 0.1259924 0.42267415 0.28535786 0.63768995 0.32428747 0.32752493 -0.046903893 0.41769448 0.6712614 0.343277 0.35294253 0.33053082 0.24193814 0.20590013 0.6563232 0.6457075 0.64612716 0.6480335 0.6696552 0.6611427 0.68229616 0.7065433 0.37589595 0.38603583 0.35767227 0.69260955 0.70993507 0.678017 0.715235 0.73021793 0.44313428 0.56094915 0.5654466 0.5323782 0.38730744 0.34326243 0.34837854 0.111198194 0.18916151 0.24864544 0.29384673 -0.009631279 0.00846324 0.4137028 0.2566219 -0.044271052 0.011416964 0.22445685 0.27420205 0.20750572 0.32264617 0.30246365 0.28275514 0.26237664 0.25443608 0.21608688 -0.2863301 -0.18190283 0.15071635 0.35989267 0.32482547 0.2832016 0.05817876 -0.03922796 0.38568127 0.33127248 0.01380144 0.08645848 0.2742727 0.35452724 0.40065354 0.3952332 0.60660076 0.4449666 0.6096512 0.6425916 0.39457774 0.40016344 0.35897976 0.5710373 0.24605134 0.24568157 0.43952245 0.021562852 0.14165647 0.27781498 0.2178964 0.1132419 0.37678742 0.5292185 0.52914476 0.28580928 0.27715486 0.10207643 0.46165198 0.52853835 0.5790976 0.32278425 0.30647564 0.21373604 0.10246272 0.055603072 0.5754951 0.37636042 0.37410733 0.34539205 0.5502225 0.4697181 0.4775923 0.31141827 0.2917081 0.5053071 0.52879953 -0.050236076 -0.13393673 -0.17761159 0.39348537 0.42512012 0.38319463 0.24117653 -0.010922894 0.28317094 0.019648578 0.3954808 0.25489622 0.5768446 0.08994647 0.68502533 0.75038373 0.7548659 0.71602076 0.13669255 0.11746504 0.42719522 0.7631813 0.7680924 0.75833356 0.20030715 0.23490447 0.13277566 0.078053474 -0.085758805 0.42320588 0.615942 0.27236727 0.28250203 0.24298546 0.7531285 0.7015799 0.61268926 0.6839726 0.7624118 0.7519996 0.5357653 0.58397734 0.71458393 0.7248308 0.7089886 0.67040586 0.69240135 0.7161796 0.74846876 0.76428974 0.71562874 0.7143689 0.6713331 0.58238614 0.65919423 0.69335794 0.6303166 0.48796934 0.55617106 0.42020863 0.311992 0.31343102 0.3201542 0.103196844 0.20995125 0.17961827 0.5490195 0.6204183 0.6198881 0.011038638 0.30263478 0.40383685 0.5809337 0.5551691 0.49728101 0.24224836 0.24688596 0.26057652 0.19029501 -0.014435213 -0.25513977 -0.3747323 0.04654746 0.13003474 0.36276 0.30944777 0.26249707 0.29861003 0.2716341 0.39568296 0.33933917 -0.024129014 0.4401674 0.4252749 -0.017525315 0.43915153 0.133208 0.30239245 0.33170694 0.4108718 0.32578462 0.29670265 0.18578845 0.25848094 0.10173115 0.06266616 0.48467085 0.45765218 0.33152634 0.3992688 -0.1610021 0.03985646 -0.007842386 -0.00699907 -0.14250492 -0.12468262 0.11237959 0.07034037 -0.14999709 0.35995907 0.12336372 0.12756394 0.2790287 0.36627638 0.4458912 0.47032365 0.5146341 0.14817353 0.4569602 0.4760567 0.37089992 0.40212953 0.43003166 0.41917074 0.42645442 0.29153806 0.40645683 0.37038743 0.102842845 0.21814919 0.18086275 -0.17918968 -0.19104165 -0.2204057 0.28140146 0.2626035 0.4326539 0.033330224 -0.01779645 0.25747773 0.61638343 0.6388926 0.6858614 0.62480474 0.06078575 0.02464597 -0.022613078 -0.052120343 0.2119787 0.2946852 0.7383091 0.74410796 0.7245437 -0.11931656 0.5039813 0.54037476 0.31414366 0.48800337 0.7252924 0.41582412 0.71381795 0.79608035 0.77481186 0.45962864 0.5207138 0.62489486 0.65370864 0.6350366 0.5962121 0.7231951 0.7460461 0.7741859 0.79530704 0.6689781 0.7238564 0.71914935 0.65762186 0.55714226 0.5202436 0.58242774 0.51349825 0.46539357 0.41208875 0.35938412 0.38250345 0.26800856 0.2596241 0.5636823 0.6093647 0.18801789 0.43264854 0.573886 0.6167617 0.63341856 0.29865313 0.2818324 0.0005266927 -0.009065671 0.30811954 0.49713737 0.19132656 0.24143922 0.24714512 0.18860179 -0.21885511 0.3859658 0.34458435 0.30385464 0.22388068 0.30236006 0.42124444 0.39950407 0.16902803 0.40206546 0.41911358 0.2736316 0.3364947 0.35673904 0.39353323 0.40784466 0.3188811 0.35266197 0.37329465 0.3182255 0.31595376 0.2578206 0.2694009 0.0797959 0.12204391 -0.0646