# vtk DataFile Version 2.0
Really cool data
ASCII
DATASET POLYDATA
POINTS 4216 float
2.473957 52.019794 16.54487
3.3102741 49.97008 15.774805
3.3103936 49.87761 16.261581
3.2087522 50.960278 14.719005
2.9895008 50.655125 15.613818
2.8275816 50.84563 16.512207
3.1080322 50.70238 17.221373
3.4636822 51.139782 13.675007
3.28353 51.46121 14.507505
2.7125525 51.545624 15.793
2.600095 51.519955 16.444078
2.7959347 51.60257 17.294447
3.1353424 51.560402 17.970966
3.1498687 52.176933 15.147789
2.7541313 52.261955 15.8699
2.6174896 52.2884 16.524303
2.792943 52.32425 17.22168
3.0097005 52.318108 17.79727
3.1900465 53.060204 15.752678
2.963642 52.95748 16.470892
3.2309673 53.043957 17.457792
4.308464 36.991558 5.0214624
4.2079353 37.080917 5.2774606
4.3659234 37.05676 6.0751867
4.1576843 37.635963 4.72083
4.0263786 37.532246 5.3997383
4.1284046 37.664787 6.0727606
4.3891463 38.358555 3.987161
4.1503925 38.494755 4.62846
3.9863014 38.133034 5.433004
4.3028755 38.62976 6.288156
4.2236958 38.942497 8.799046
4.36203 39.191326 9.796681
4.2914248 39.249012 4.505191
4.1897264 39.13666 5.6824903
4.1430616 39.029587 6.34593
3.917572 39.720097 7.9656787
3.9416945 39.611713 8.451597
4.103217 39.60454 9.381609
4.2814384 39.68632 10.781835
4.220847 40.053463 11.937138
4.2223353 39.748333 12.872507
4.2299676 40.103058 13.4195175
4.3718905 40.077965 13.910906
4.061539 40.14452 7.680467
3.966476 40.410946 8.832457
3.9745152 40.157658 9.2988405
4.1466007 40.53122 10.974369
3.957156 40.65746 11.9893875
3.812547 40.777615 12.660301
3.868335 40.8057 13.450947
4.0919075 40.812927 14.197405
4.296735 41.115654 8.06715
4.3441157 41.498947 9.462617
4.1500263 41.45192 11.089216
3.8630512 41.465393 11.774796
3.6346223 41.477505 12.752449
3.750264 41.60779 13.426719
4.0895233 41.434696 14.351324
4.2903433 41.586143 14.931106
4.4087553 42.407948 9.646497
4.0477343 42.562786 11.860085
3.7588828 42.243702 12.838203
3.7463474 42.161526 13.370026
4.176549 42.2362 14.57849
4.314519 42.07304 15.063324
4.3103538 43.971222 -6.030851
4.151966 43.854782 -5.2707305
4.1980023 43.833637 -4.72174
4.335636 43.933807 -4.140988
4.2959647 43.710617 9.645112
4.251473 43.463154 10.43601
4.0968833 43.62069 11.5063305
4.07833 43.358616 12.010211
4.0124216 42.834885 13.198945
4.2871914 42.764423 13.964876
4.196851 44.676285 -6.047427
3.976508 44.626194 -5.505423
4.095288 44.554268 -4.56748
4.3504705 44.299618 -4.029298
4.2063146 44.391357 9.021927
4.0061464 44.53806 9.72292
3.9562035 44.54967 10.299381
3.8798416 44.34114 11.623163
4.0136642 44.349705 12.021659
4.4731903 44.33591 17.552546
4.235441 45.213398 -6.0757995
4.0772567 45.332954 -5.467822
4.1181307 45.27624 -4.8114142
4.149484 45.46548 9.537906
3.9336724 45.543476 10.601304
3.9352126 45.48936 11.312073
3.9731379 45.069683 12.317307
4.284499 45.70804 -5.6008396
4.1119814 46.460033 10.738869
4.0496254 46.57953 11.75203
4.1129494 46.744434 12.365289
4.194072 47.021236 11.016291
4.1347857 47.365387 11.459414
4.1431026 47.51752 12.493683
4.3125906 47.952602 13.018574
4.2501764 48.530285 11.601639
4.162227 48.205795 12.59143
4.2740436 48.95617 14.24075
3.8508613 48.924374 15.682639
4.001181 48.714546 16.531301
3.9084265 49.181423 17.032913
4.2786307 49.440186 11.532134
4.2245493 49.63545 12.133253
3.530169 50.081966 14.793595
3.5269222 49.61982 15.746965
3.5642893 49.33282 16.457615
3.5765083 49.89033 17.171867
3.9037726 50.10345 17.735243
4.2926326 50.659874 11.470564
4.102335 50.605907 12.406018
3.6181076 50.495117 13.440522
3.6296875 50.61936 17.655096
3.8223567 51.086685 18.331236
3.8386037 51.18683 12.876165
3.6588037 51.10481 13.328866
3.7471926 51.24414 18.3812
4.0015574 51.78311 18.683102
4.405899 52.82674 7.813561
4.4108853 52.629307 8.198653
4.196842 51.949364 12.628066
3.794944 52.3343 13.704695
4.294657 52.956413 19.458658
4.410365 53.24535 7.702608
4.4175987 53.196712 8.036798
4.2373166 53.58057 13.703511
3.811843 53.28591 14.799921
4.03259 53.532104 15.120499
4.2917385 53.6865 20.443491
4.2385244 53.9854 14.332956
4.0885787 53.846123 15.426152
4.223136 54.163906 19.810463
4.310382 54.21545 20.306173
4.4692097 55.12151 18.975615
5.225298 36.06674 4.7140546
4.8764043 36.222473 5.3944964
4.9372177 36.98959 4.13324
4.6437516 36.85479 4.6026707
4.680107 36.479847 5.454509
4.5897164 36.903435 6.4166765
5.3055162 36.629997 7.3623576
5.162187 37.982677 3.2364407
4.735871 37.65401 3.8677602
4.4938803 37.401325 4.329808
5.3183413 37.909496 11.242985
5.2512193 38.057945 12.494629
5.022378 38.557297 3.118516
4.7581973 38.525883 3.5216882
4.681952 38.556587 9.192376
5.0090013 38.47793 10.633687
4.966858 38.342365 11.970042
4.849981 38.903545 12.542972
5.2210784 38.98933 14.354818
5.348819 39.206646 15.434644
4.648619 39.40969 3.732565
4.5164747 39.800743 4.3915215
4.4864783 39.71202 5.074896
4.550531 39.558407 13.555588
4.8086185 39.683876 14.675101
5.051938 40.00668 16.024685
4.912639 40.379364 4.0509562
4.681155 40.115845 4.635506
4.710438 40.5231 15.416974
5.074342 40.592747 16.45962
5.3099017 40.56132 16.999832
5.1928773 41.361374 3.9060118
4.7203884 41.23012 7.73367
4.600331 41.409977 8.641143
4.611452 41.453373 15.596357
4.9619136 41.22308 16.20365
5.141614 41.390892 16.903072
5.3347383 41.95748 17.846045
4.966896 43.3103 -6.057697
4.7718616 43.182205 -5.327523
4.7756443 43.171513 -4.6853886
4.9638586 43.23703 -4.1606345
5.322729 42.83627 2.638745
5.1789017 42.741585 3.3944721
5.3986964 42.9259 4.715365
5.1068196 41.818676 7.6546187
4.787847 42.85217 8.915498
4.599586 42.81626 9.467753
4.475771 42.39401 15.2576475
4.9457054 42.859104 16.881516
4.8340645 43.075974 18.272135
5.1405096 43.157734 19.135767
5.121319 44.00362 -6.6872354
4.7405257 43.71802 -6.229143
4.4670744 43.538937 -5.713972
4.429611 43.49486 -4.543385
4.678733 43.5846 -3.9593666
5.291588 43.509506 2.7433984
5.241039 43.46651 3.480964
5.2982054 43.288597 4.204444
4.9673653 43.51656 8.67076
4.512437 43.463547 9.498068
4.9383397 43.529892 14.189466
5.0699472 43.19951 15.619104
4.923709 43.658264 16.584042
4.5462728 43.627983 17.459293
4.646425 43.718876 18.354153
5.039587 43.639324 19.353964
5.308451 43.71728 19.898394
4.833601 44.69158 -6.64585
4.476188 44.54586 -6.384942
4.586074 44.317394 -3.8451571
5.1734695 44.896877 -3.3998148
5.379762 43.85472 2.8151298
4.81805 44.33556 13.121926
5.231329 44.963745 16.02579
4.7253413 44.532623 17.065607
4.555074 44.483917 17.588078
4.614525 44.467968 18.527449
4.931001 44.432037 19.351456
5.286638 44.244694 19.935738
5.00059 45.247623 -6.5769525
4.4689612 45.302532 -6.28384
4.9770627 45.56515 -3.6534457
4.475213 45.208076 8.689528
4.57961 45.63402 13.029448
5.021013 45.474068 16.625906
4.6936073 45.200996 17.57376
4.7721825 45.282486 18.428034
5.0161057 45.324062 19.225533
4.6546745 45.845783 -5.9523168
4.6217995 46.01327 -5.471041
4.9435325 46.204346 -4.443875
5.076461 46.03966 -3.8784285
4.7248983 46.12375 9.089097
4.4721127 45.98958 9.451224
4.8186345 46.266186 13.35595
5.1410847 46.32958 15.857256
5.206551 46.37154 16.417341
5.1147165 46.520084 18.676668
5.287185 46.38299 19.09102
4.8170347 47.368908 10.115195
4.671596 47.64459 10.554311
4.818482 48.158413 14.883808
4.568787 48.013718 15.508758
5.2171783 47.17456 16.375797
5.2302575 47.280506 17.489462
5.4382315 47.381916 17.908442
5.2817616 48.23626 10.222264
4.5673356 48.536556 10.96831
4.270756 49.479095 17.614166
5.1017866 50.875053 7.7313676
4.9066978 50.678993 8.696311
4.819684 50.906513 9.075446
4.491475 50.9149 18.391724
5.3679385 51.59503 6.759141
4.6483626 51.71948 7.960915
4.5903754 51.572727 8.474074
4.663693 51.70314 9.270829
4.750924 51.266365 11.059134
4.4602604 51.478756 11.626925
4.974439 51.505386 18.667112
4.8172994 52.783363 6.974689
4.5801563 52.437534 7.4999075
4.518091 52.467762 8.7865715
4.760332 52.68074 9.36951
4.8981676 52.325905 9.981504
5.027433 52.134632 12.117092
4.7411146 52.70209 12.886831
4.4702687 52.651512 19.588037
4.770431 52.911125 20.573624
4.917421 53.0563 20.926805
4.877052 53.445614 6.946744
4.5485525 53.514957 7.377643
4.5111575 53.459087 8.384543
5.2016935 53.42323 9.778343
4.485738 53.395214 20.677078
4.7372336 53.667492 21.016882
4.891799 53.92006 7.1241584
4.889538 54.107635 7.5079446
4.921528 54.199253 8.356175
5.181479 53.963966 9.321589
5.025763 53.83472 13.042017
4.629867 54.139355 13.636368
4.524656 54.311604 14.471513
4.5549393 54.257774 15.390726
4.4591193 54.74485 19.541615
4.4982023 54.43966 20.54212
4.849566 54.268326 21.009632
5.196204 54.690636 13.824041
5.042472 54.732136 14.4182825
4.9190593 55.38959 17.028439
4.670326 55.41404 17.69053
4.6306005 55.53574 18.690952
4.8582735 55.53687 19.381784
4.8086867 54.929348 20.363724
5.1173844 54.769917 20.843916
5.2668166 55.84687 16.962942
5.071036 56.12097 17.874935
5.018379 56.123043 18.476097
4.958227 55.859634 19.18418
5.97811 35.252922 5.038765
5.997163 35.186325 5.457645
6.076524 35.175728 6.354019
6.3883266 34.982388 7.8355885
5.69248 35.579117 4.868508
5.4716015 35.566307 5.503086
5.5617137 35.681526 6.507607
5.707442 35.9525 7.471784
6.2734256 35.590218 8.205662
6.4331703 35.75501 10.495163
5.4416666 36.556572 7.5250077
5.731422 36.81369 8.348065
5.8804846 37.04898 11.424551
5.9003778 37.1648 12.381019
5.7291913 38.01309 2.927799
5.4270205 37.31132 3.5753148
5.499195 37.910492 10.697283
5.460805 37.709465 12.160007
5.845222 37.748295 13.211453
5.8441715 38.21288 14.391868
6.185224 38.34868 15.565488
5.5397882 38.558155 2.8435004
5.408998 38.67404 13.769633
5.6770377 38.63914 15.153416
5.641508 39.246723 16.16104
5.5705276 39.35981 2.8777332
5.715075 39.69351 16.666006
5.832577 39.63099 17.149158
6.2287908 39.66664 18.264227
6.454767 39.46963 19.030487
5.485547 40.886787 3.430993
5.6461835 40.277843 17.25995
6.0921035 40.52826 18.325214
5.7822304 41.711308 2.8792536
5.7654734 41.15234 3.3336773
5.511429 40.90301 5.088982
5.484762 41.282337 17.552662
5.748344 41.979076 18.148077
6.196148 41.855724 18.86013
5.523063 43.11868 -6.1558957
5.495281 42.898293 -5.2287183
5.4658585 42.90822 -4.5157905
5.7718263 42.691196 2.0433795
[...]
POINT_DATA 4216
SCALARS features_00 float 1
LOOKUP_TABLE default
0.54425657 0.37140355 0.39904758 0.34994426 0.41240314 0.49500516 0.48537165 0.2470057 0.34252796 0.48051655 0.52843946 0.54924875 0.4830098 0.42005712 0.4922081 0.54059494 0.56556356 0.5348153 0.41985852 0.49063033 0.5120181 0.50681865 0.5049352 0.46251678 0.5293252 0.5123637 0.4785244 0.548503 0.52274084 0.50041544 0.37970132 0.24195881 0.17629021 0.46697024 0.3907193 0.32012358 0.2933928 0.28525844 0.23692301 0.15892494 0.23866868 0.25701052 0.2892949 0.28187212 0.2761884 0.254 0.24379301 0.18489502 0.27346677 0.31417462 0.3267707 0.31109768 0.18999231 0.048209943 0.16446322 0.2430163 0.30675077 0.3139376 0.30163267 0.26681644 0.012948558 0.17429769 0.25491953 0.27934188 0.25194785 0.22690329 0.84956115 0.84515345 0.79413503 0.7300432 0.19974563 0.1712741 0.16526255 0.15411426 0.21563926 0.22974247 0.8487556 0.8801168 0.8372684 0.74191916 0.26185983 0.282515 0.2718374 0.20574233 0.18846786 0.3121575 0.8289379 0.8638239 0.8891707 0.299454 0.27211145 0.26043573 0.22580078 0.8373878 0.23201832 0.25156265 0.23855206 0.21959724 0.2239923 0.20759442 0.113665886 0.19533475 0.16862197 0.115114614 0.26135087 0.26496193 0.34017083 0.12426081 0.11543016 0.3009724 0.33645907 0.36140245 0.41795588 0.402247 0.05034819 0.10883009 0.1877164 0.43258604 0.3629779 0.16883688 0.20690708 0.3631236 0.29697192 0.5591712 0.5243857 0.1775301 0.28543395 0.47226554 0.60037136 0.5826378 0.27459562 0.30670458 0.282337 0.71689427 0.24758649 0.24583927 0.6550239 0.7224213 0.5718466 0.465815 0.457039 0.50638187 0.5029029 0.46799278 0.42193928 0.27595738 0.51610196 0.5373316 0.5298676 0.115365535 0.14855199 0.5201633 0.5424799 0.14996636 0.122610986 0.14826624 0.18608299 0.20465851 0.24074721 0.46348372 0.39557037 0.37307358 0.23967887 0.24594024 0.21577127 0.32359016 0.34185833 0.24820659 0.17478248 0.1268482 0.22176641 0.14880645 0.106555976 0.21623121 0.17376761 0.124018334 0.12801525 0.7811458 0.7776935 0.7154506 0.64847744 0.2721974 0.29664606 0.18357661 -0.0035966486 0.039422534 0.06601099 0.1767008 0.18012378 0.35582057 0.3953352 0.7653725 0.80951047 0.83131397 0.74309003 0.6710597 0.28237873 0.30052575 0.25948372 0.15681113 0.16931133 0.09929237 0.051333614 0.14459114 0.2973611 0.4262582 0.46547613 0.45276013 0.78610563 0.81864727 0.7066674 0.6900816 0.27072757 0.09426914 0.06804407 0.21255419 0.31821665 0.48487684 0.53514135 0.49707007 0.7713236 0.8080801 0.78556025 0.2917293 0.17331186 0.13561144 0.31688923 0.47689927 0.52852273 0.79072213 0.8190051 0.8042078 0.7668087 0.20080756 0.24320966 0.07532486 -0.0056533143 0.10176864 0.41335714 0.41551593 0.114766 0.14553474 0.01700622 0.030746892 0.06358941 0.36744547 0.40282166 0.036625173 0.15697312 0.33215833 0.32460713 0.29096717 0.29404095 0.2879906 0.38375497 0.43909025 0.4211852 0.36629635 -0.035043478 0.048479233 0.20701723 0.5557934 0.5260134 0.47920334 0.4390006 0.28512353 0.096435495 0.24402195 0.42856175 0.628816 0.7153133 0.5997018 0.62323123 0.58024883 0.42778426 0.7165126 0.78835046 0.63809097 0.6651023 0.6641444 0.54915416 0.25577867 0.24477708 0.22216818 0.19494401 0.6288717 0.74383664 0.7967222 0.19792312 0.18861961 0.3594591 0.4552423 0.5625272 0.6160063 0.70510375 0.7587564 0.40774232 0.50623 0.5485326 0.59714764 0.3986467 0.37887573 0.33769676 0.2290285 0.43298948 0.41022125 0.34968144 0.25512192 0.18598436 0.09652381 0.25037676 0.11064035 0.09283258 0.11934639 0.44963765 0.49572194 0.1041468 0.12586385 0.13718106 0.1584039 0.22934505 0.4613822 0.17694421 0.22675046 0.24324933 0.43209425 0.19536853 0.17197235 0.1728391 0.29998365 0.24635457 0.112455904 0.084818535 0.20670138 0.21536265 0.15086535 0.07820071 0.10749839 0.0885017 0.6956932 0.68665713 0.61245126 0.21927957 -0.026051886 -0.05858178 0.33581248 0.3415891 0.6942642 0.6211728 0.5297379 0.4022898 0.20185584 0.24004716 0.08875744 -0.07282806 0.10352521 0.4007406 0.7333201 0.06939649 0.19610411 0.19947542 0.110759154 -0.09053472 0.16805604 0.45750302 0.41573614 0.69840956 0.73754007 0.035487253 0.061952863 0.13727531 0.124244146 0.07532638 -0.08362804 -0.13804026 -0.0055434294 0.46645296 0.46242595 0.7168793 0.61823446 0.2638483 0.16360126 0.08766278 0.104384 -0.0045416146 0.00094813295 0.4118417 0.6172257 0.5788454 0.34331423 0.32700858 0.2398214 0.18717346 0.09807158 0.07584679 0.03831348 -0.04463863 0.031630695 0.36743134 0.34393978 0.45761663 0.4054678 0.31774917 0.17668697 0.13823453 0.10100397 0.042905483 -0.17630802 -0.1704925 0.31749257 0.30985594 0.1558528 0.09673032 0.096239224 0.1752568 0.1798389 0.2094981 0.3743888 0.31410676 0.49004817 0.18847463 0.5609288 0.75726795 0.45921642 0.5623187 0.39806235 0.8459374 0.6025669 0.66229403 0.18327223 0.8241299 0.6080612 0.6040539 0.44279885 0.16537812 0.14877345 0.14607267 0.22116506 0.26397163 0.6782578 0.74881274 0.4114561 0.48656508 0.54767597 0.5867256 0.6187451 0.464709 0.51821256 0.30277452 0.280853 0.21156535 0.15352155 0.1294563 0.35867292 0.34426442 0.31264275 0.27436197 0.19658218 0.13976869 0.12814283 0.13663885 0.3699736 0.40844998 0.16455898 0.1271882 0.121722475 0.3945948 0.1093639 0.121129856 0.33253232 0.17665258 0.19511989 0.4996428 0.6144677 0.3603152 0.23327574 0.40905705 0.50123227 0.5421446 0.4419242 0.4185113 0.13231778 0.056225967 0.16473463 0.30916238 0.34202746 0.35196584 0.02532471 0.13365218 0.16560388 0.21440355 0.27593195 0.5911273 0.45824885 0.30398276 0.073541805 0.108342305 0.23660624 0.59298754 0.10473033 0.035902247 -0.0022882968 0.30449253 0.3141808 0.6647594 0.06488535 0.37489086 0.3652594 0.47246462 0.22680847 0.33777872 0.59514976 0.566725 0.5585173 0.48855615 0.4650959 0.28021234 0.28604853 0.45951825 0.48537976 0.2724096 0.25828224 0.45837998 0.46762305 0.42214036 0.29294226 0.21785147 0.26815966 0.08198521 0.096609384 0.1866301 0.20129529 0.38293177 0.23980851 0.25976005 0.72813857 0.3259285 0.34869385 0.7894678 0.44855037 0.028709777 0.7490766 0.49081993 0.4890688 0.49112022 0.445935 0.12043744 0.068442285 0.10155269 0.61565244 0.63815814 0.45810515 0.45773605 0.112132475 0.12498687 0.34100968 0.5442522 0.5676356 0.38824275 0.4517819 0.5023843 0.27010083 0.28127652 0.15404426 0.12777162 0.116174355 0.32667154 0.29312465 0.16196778 0.22098777 0.30555478 0.15990154 0.20992693 0.22321036 0.314009 0.15419349 0.62035096 0.63005584 0.048407882 0.27412727 0.13388766 0.38227454 0.56717235 0.6261481 0.6335566 0.6104468 0.573284 0.56731296 0.23185584 0.46374515 -0.04044291 0.39608872 0.0599341 -0.015123814 0.0077771842 0.31247756 0.3006885 0.27560982 0.010358289 0.11478665 0.061498646 0.3133987 0.14703445 0.5666637 0.10730376 0.57306105 0.27533174 0.16032021 0.51154536 0.44451326 0.3388006 0.17324224 0.43607646 0.43111855 0.4148 0.38713282 -0.2093974 0.3891418 0.353775 0.2842021 -0.034585573 0.25348294 0.2492331 0.25847638 0.6092905 0.2504077 0.3649803 0.46314508 0.52180994 0.41243976 0.4009325 0.36305007 0.23064946 0.14585395 0.46211797 0.42475575 0.38470757 0.36222243 0.24875905 0.09370816 0.090691395 0.2495 0.41608244 0.5177131 0.2683638 0.29110467 0.38052464 0.51359195 0.525495 0.45466325 0.4645347 0.48052487 0.43874022 0.18335076 0.29460537 0.35269862 0.4186703 0.37755573 0.20738268 0.16137594 0.20596558 0.15800995 0.17455426 0.16871518 0.22207932 0.22502163 0.15506405 0.20344462 0.15338781 0.42651123 0.18365833 0.12006647 0.5678946 0.60557765 0.6288581 0.40799543 0.3690397 0.2982499 0.016745925 -0.069883004 0.13792855 0.6229346 0.6084458 0.36561495 0.3244707 -0.008799881 -0.25139558 -0.03434989 0.5381858 0.089513555 0.19958423 0.13233447 0.095806986 0.012942657 0.45189822 0.41469455 -0.06272498 -0.010915659 -0.022852309 0.387871 0.3717432 0.12703575 -0.055137947 -0.037269264 0.29865417 0.14032304 0.15051761 0.087921515 0.0604327 0.09668166 0.09808565 0.7186352 0.034122862 -0.095470645 0.6734872 0.5252849 0.2675199 0.15547843 -0.052034408 0.57359636 0.34486496 -0.3072034 0.35583457 0.36636174 0.29800797 0.2759384 0.20039538 0.04983598 0.06626097 0.16359319 0.21083385 0.2005039 0.38515958 0.2172398 0.2765166 0.22062457 0.20510678 0.26250157 0.31603864 0.3015756 0.32309735 0.26840866 0.22982274 0.1426598 0.10517351 0.08730911 0.007785842 0.051314764 0.34663624 0.46605217 0.5325324 0.5391977 0.5021394 0.25542215 0.4184333 0.49441874 0.46266618 0.38510147 0.116157524 0.12404677 0.35511446 0.22803763 0.05466544 0.111248985 0.18581912 0.18672451 0.10924368 0.15902393 0.1335671 0.4329839 0.43375146 0.386575 0.220364 0.0048345793 0.58693147 0.60165215 0.41956443 0.41654694 0.34370026 0.5822618 0.5714992 0.31640363 0.35833037 0.14289244 0.41456217 0.25889888 0.07133751 0.3531475 0.124197766 0.23758364 0.09252501 0.109315395 0.044516027 0.074493706 0.064069994 0.59720796 0.1172477 0.88856876 0.82037634 0.078947574 0.12623475 0.9216812 0.8614477 0.9068146 0.8218349 -0.20733 -0.3529129 -0.30810302 -0.24416833 0.74939233 0.63367707 0.48012727 0.3164111 0.21628775 -0.3252282 0.61578214 0.3477327 0.3513003 0.30877948 -0.27471033 0.16989717 -0.1212704 0.21878155 0.21489124 0.18172145 0.026595384 0.21024059 0.13481188 0.17789373 0.17152613 0.1820818 0.18492019 0.035778716 0.18526593 0.20096734 0.2180529 0.20097162 0.14521642 0.09884997 0.064087994 0.0071894713 0.10048504 -0.028130211 0.046972785 0.006763546 0.080769725 0.20097047 0.4731537 0.5500307 0.5576997 0.5159259 0.18184322 0.21304756 0.45473802 0.03566759 0.21639925 0.60704774 0.63363767 0.12508085 0.12306458 0.5680355 0.09961677 0.123961814 0.15564662 0.313835 0.37467867 0.21389896 0.070301354 0.02196053 0.050871238 0.36357468 0.40220642 0.41154075 0.117812924 0.34231177 0.40956032 -0.2727386 -0.16277978 0.44940686 0.29074228 -0.29457372 0.31150684 0.32968485 0.25650516 0.30187094 0.30418321 0.21252269 0.15524362 0.26935303 0.02964592 0.096651696 0.0900415 -0.034494244 0.23393612 0.09136365 0.012792481 0.18697026 0.895828 0.7922606 0.94488144 0.93443906 0.019477792 0.93481576 -0.15218017 -0.3225535 0.26223773 0.3435518 0.8805505 0.7329879 -0.17543185 -0.10864428 0.2959177 0.6685499 0.5625849 0.44732013 0.30770966 0.14441076 0.32354605 0.36402208 0.5022917 0.4673791 0.42562258 0.43109733 0.1829362 0.23503295 0.34165826 0.34631687 0.4905002 0.48413697 0.28134084 0.26556522 0.30878693 0.2844903 0.09824384 0.09473961 0.1513387 0.11064258 0.18220073 0.19017711 0.24699384 0.21209899 0.19119759 0.17528988 0.27571335 0.2990936 0.16417909 0.1692056 0.1784267 0.28716475 0.404409 0.1865593 0.13777795 0.052458327 0.057413723 0.11665956 0.48492706 0.50909334 0.663808 0.6695191 0.74016905 0.7495783 0.47271684 0.30649608 0.43863654 0.49397895 0.481966 0.19495009 0.59966326 0.6292497 0.64509654 0.116802126 0.65260315 0.6515187 0.06268474 -0.016670471 0.62018484 0.109621465 0.08586326 0.45561707 0.24603218 -0.0015935665 -0.056157432 0.16426814 0.3441519 0.3127421 0.3477977 0.33907014 -0.14323673 0.051018815 0.3058085 -0.0076621994 0.09830256 0.32256517 -0.123359874 -0.04964021 0.33174187 0.12653993 0.16810058 0.34158596 0.2215418 0.33249882 0.28523415 0.29644263 0.21356836 0.1604421 0.15827107 0.14662866 0.19575292 -0.046808604 0.68685496 0.33493528 -0.05593569 0.8593705 0.00040474162 0.93730533 0.9039945 0.010112919 0.91997635 0.1456905 0.693054 0.73148805 0.8252188 0.6959706 0.6142158 0.52180535 0.42121083 0.36753964 0.53906155 0.26547182 0.2511476 0.33190233 0.61635864 0.572171 0.49821448 0.45814925 0.25225884 0.33539152 0.0398442 -0.10589233 0.23081633 0.31300157 0.31279674 0.37773174 0.39404693 0.33391848 0.254198 0.14944433 0.15505329 0.19929075 0.17433158 0.19622923 0.18717587 0.13708004 0.36293125 0.2387359 0.41044846 0.15233886 0.16143574 0.07712542 0.36949074 0.24497062 0.44555855 0.5198742 0.7121431 0.64111465 0.7143873 0.7696451 0.7788495 0.75297475 0.72646874 0.7726196 0.79226017 0.39933193 0.40941614 0.41410106 0.23535378 0.28089622 0.3954173 0.41639417 0.3827816 0.2057741 0.43507868 0.5926014 0.62102073 0.0939839 0.613801 0.6146326 -0.15079021 -0.20339733 0.5795579 0.1276904 -0.01327526 0.06426985 -0.012690458 0.053845212 -0.13294598 -0.033737198 0.36663684 0.24688192 0.23952457 0.09478616 0.33134764 0.28871745 0.07998504 0.03455188 0.37137595 0.345049 0.37831652 0.3819033 0.30369326 0.47534418 0.60673225 0.36373535 0.46637172 0.4935491 0.6300132 0.27727473 0.4250915 0.19843109 0.24906805 0.2846638 0.29468536 0.09323118 0.59667945 0.3907891 -0.102390066 0.7585964 0.6216773 0.4724037 -0.065077186 -0.037776306 0.72091156 0.7666794 0.7924614 0.79878944 0.6686032 0.04513069 0.7555262 0.7779212 0.78727686 0.79203737 0.80141526 0.83836794 0.74272376 0.14991385 0.13862363 0.58725226 0.5981038 0.7487837 0.76964444 0.77377164 0.6070334 0.2619702 0.30478626 0.624203 0.7193117 0.73432076 0.49995917 0.2060381 0.651204 0.6665274 0.40754843 0.4872702 0.29031545 0.17835873 0.30612504 0.4615511 0.51249975 0.64153 0.65032357 0.58686894 0.43449357 0.33162424 0.058150113 0.21738137 0.3532247 0.29257378 0.16238314 -0.078512475 0.22139211 0.27692777 0.2520514 0.38712102 0.38521588 0.42458338 0.39248663 0.33103156 0.14871232 0.2835361 0.20554146 0.19986907 0.22393772 0.5922394 0.47488755 0.37654048 0.1881042 0.14000332 0.37893945 0.6474972 0.61429906 0.52380955 0.4864937 0.16298863 0.17607823 0.4090932 0.44318283 0.5790159 0.56533253 0.20736803 0.18089187 0.27003485 0.26867262 0.5686922 0.38049534 0.44452447 0.7494215 0.6473397 0.6805639 0.7981733 0.7813623 0.68316513 0.7307612 0.7702389 0.79427403 0.18397799 0.17380095 0.23817451 0.2507411 0.33261925 0.33132517 0.13996595 0.16277464 0.015578121 0.2662648 0.4453944 0.5264087 0.028748848 0.019506425 0.49846303 0.4664843 0.2787724 0.2841387 0.2581145 0.15892899 -0.24919687 0.41307813 0.15393624 0.2055196 0.13863477 -0.008370169 0.3823557 0.0031960737 0.124601126 0.084864706 0.20562582 0.09455562 0.34792376 0.32790226 0.04235244 0.38346797 0.1571526 0.41213787 0.55841833 0.6011784 0.4165588 0.4077705 0.6168903 0.6408496 0.39644116 0.6549278 0.39542082 0.6366049 0.2930496 0.02294153 0.27845287 0.18828474 0.100946285 -0.1728144 0.6884373 0.70228934 0.7234014 0.5069495 0.37827337 0.279967 0.19200952 -0.1211604 0.00092345104 0.56462365 0.61602473 0.7497314 0.7899769 0.57551 0.47555703 0.8084304 0.8112596 0.5053668 -0.0027852803 -0.10803722 0.8046918 0.46108103 0.3908647 0.73198515 0.38781413 0.38930112 0.09931155 0.62451 0.49347323 0.542177 0.11180469 0.033376306 0.1375444 -0.10152166 0.5087545 0.5955206 0.6148571 0.5880468 0.40912372 0.09709999 0.12456668 0.33045754 0.36968613 0.35139626 0.29964572 0.21155933 0.083361395 0.082337216 -0.016428087 0.12905774 0.4186462 0.49431485 0.384575 0.40604103 0.3859731 0.27569196 0.21665454 0.16892517 0.524564 0.3676405 0.62321985 0.61851406 0.36079282 0.31919122 0.32461897 0.19478998 0.43924305 0.46626636 0.13868041 0.33089542 0.63261604 0.58033204 0.5438999 0.51768225 0.52096397 0.25038886 0.291573 0.20545603 0.6159363 0.57799935 0.5559809 0.5530307 0.34422296 0.39507863 0.43966725 0.4829136 0.7123766 0.7398801 0.59511024 0.6889931 0.74568707 0.7838323 0.71112347 0.75185436 0.78059185 0.17813331 0.121733725 0.14423011 0.26206383 -0.002082589 0.08241043 0.27895266 0.28562135 -0.1281681 -0.05991608 -0.11994017 -0.16394462 0.025294498 0.08065669 0.31562322 0.22747195 0.23325172 0.25574332 0.16263773 0.30407628 0.25727636 0.26088017 0.20163429 -0.50517976 0.025662383 0.062136576 0.08807987 0.06426397 0.11375495 0.27628735 0.07525233 0.38800848 0.35850778 0.25671288 0.1260139 0.36259001 0.51628804 0.5907295 0.40302163 0.36605 0.6006341 0.62451065 0.44876295 0.46289414 0.63511443 0.43238902 0.38887423 0.6166847 0.27734956 0.49371 0.036522247 0.05793356 0.10260304 -0.039076015 -0.09778346 -0.1527594 -0.21183053 0.6214688 0.24493429 0.15125853 -0.0032388251 -0.059383176 -0.09961156 0.38164505 0.5232902 0.57180196 0.673326 0.65505445 0.30352888 0.22854444 0.07356604 0.65370613 0.67737865 0.37462512 0.3065624 0.13208428 0.7025113 0.36673003 0.3394193 -0.24490556 0.7313934 0.3917465 0.4061481 0.4288333 -0.040248107 0.59111243 0.46869826 0.4965697 0.5362439 0.5864959 0.18778874 -0.13619757 -0.17879294 0.51727664 0.60614216 0.431961 0.18139796 0.31233248 0.3150047 0.24937421 0.0061069652 0.4673199 0.49331897 0.06456628 0.07026896 0.43924618 0.14522116 0.63767266 0.26618445 0.67650914 0.50107265 0.29604346 0.31853533 0.036976844 0.36273625 0.54345095 0.7185246 0.56265235 0.55723375 0.32818592 0.3580438 0.6024804 0.5786769 0.58729696 0.5822929 0.58390516 0.37874338 0.39138696 0.5733917 0.5672432 0.60716736 0.6437268 0.4056093 0.43878347 0.5393995 0.6308094 0.6042004 0.7013204 0.77135587 0.68538076 0.6370231 0.61577356 0.60806906 0.50368005 0.51268756 0.41320068 0.50003994 0.4884109 0.4085533 -0.004966897 -0.32663673 0.59390783 0.57813483 0.2687204 0.31477514 0.2866337 0.2162388 -0.14773694 -0.0711986 -0.37463745 0.5081365 0.33635068 0.2726603 0.25067505 0.2567165 0.25273225 0.13936307 -0.42779046 -0.4699949 -0.29906687 0.2032015 0.36621624 0.32872534 0.26895356 0.38308483 0.31193212 0.02362221 0.39855927 0.31077257 0.059998106 0.041037515 0.18258381 -0.0654278 0.2121249 0.48390815 0.5449351 0.5626427 0.5841274 0.42896858 0.3122849 -0.14069252 0.57900107 0.3187657 -0.09439427 0.48804322 0.20490104 -0.035888888 -0.1251215 -0.24860488 -0.1452443 -0.060442336 -0.07704449 -0.031122029 0.26989022 0.5630336 0.539409 0.5508497 -0.0633018 -0.05731821 0.4962669 0.48544043 0.58584774 -0.016896531 0.5031568 0.47936985 0.26366666 -0.21184182 -0.51490116 0.5319207 0.23416176 0.08855022 0.52674985 0.29116237 0.14530033 0.46203008 0.32693598 0.25833628 0.24696392 0.23312974 -0.1743225 -0.2290354 0.4314668 0.45702574 0.0763388 0.17821434 0.43533823 0.2715887 0.31100467 0.28678846 0.21404195 0.11658396 0.15893576 0.5819117 0.283387 0.29119 0.24819298 0.5575545 0.6469824 0.667959 0.3406871 0.3505502 0.36464193 0.5455146 0.6112577 0.59478223 0.57532936 0.7236386 0.71807456 0.70416343 0.712937 0.6159302 0.6120101 0.60019743 0.5846524 0.7234006 0.6882588 0.6362889 0.7015051 0.7129775 0.67095596 0.5909328 0.4732176 0.65590715 0.5592698 0.38322917 0.45937264 0.5457097 0.3161668 0.3209099 0.23224685 0.2901592 0.2555937 0.56362873 0.64380157 0.6596086 0.6457774 0.3570377 0.3501112 0.24161008 -0.031175874 0.5308103 0.5960052 0.6414036 0.58138454 0.24253267 0.30916706 0.33427954 -0.20901534 -0.38778132 -0.3841167 0.4012155 0.29906917 0.24917018 0.2788645 0.3689868 0.3310063 0.41880944 0.40726757 -0.04649052 0.42730206 0.0026266985 0.15410972 0.2712249 0.4222168 0.27230963 0.319118 0.19770044 0.23677702 0.16763595 -0.014462434 0.42789012 -0.03839451 -0.010897718 0.32238674 0.49728194 -0.09348391 0.4867744 -0.04325246 -0.23090433 0.048085336 -0.26935303 0.011882246 -0.028116684 -0.23749943 0.0013204366 0.05895558 0.06449769 0.4480564 0.19716892 0.41805446 0.46936572 0.33379948 0.4354337 0.46254942 -0.016373038 0.035045173 0.44731367 0.478952 0.5652889 0.21566854 0.23119894 0.4017408 0.49315143 0.4313501 0.34208304 0.31009483 0.22059192 0.4202357 0.4523287 0.03282868 -0.16801597 -0.17921872 -0.19707015 0.34982255 0.39562255 0.13437472 0.26149046 0.28488323 0.008343169 0.3193225 0.16385993 0.05353994 0.045791235 -0.11860064 -0.27274668 -0.0215961 0.16981907 0.69697654 0.59266573 0.6571232 0.38950193 0.54825854 0.7299558 0.72313607 0.49991596 0.5813673 0.79698145 0.7757598 0.7623744 0.7507836 0.54013205 0.57112324 0.61234176 0.5993791 0.5910442 0.697679 0.71696913 0.6908846 0.6247916 0.5733881 0.66204077 0.5555921 0.40807605 0.54258764 0.32739377 0.2759354 0.46450156 0.28736958 0.24511473 0.35352942 0.342609 0.12768015 0.56898034 0.62142015 0.6345215 0.5947234 0.3177805 0.35805488 0.36896327 0.27927968 0.11688484 0.05993385 0.52399933 0.4284709 0.21996965 0.2797964 0.20650479 0.3666068 0.2848974 0.14877376 0.2849454 0.37937015 -0.024618633 0.43365896 0.4058131 0.1426089 0.25725558 0.34831312 0.46774477 0.34738415 0.36146462 0.42993984 0.36338538 0.3515188 0.2530558 0.30870277 -0.01314406 -0.0029663444 0.019917682 -0.010489643 0.0051643252 -0.24551721 0.07412645 -0.25159463 0.04265087 -0.111076474 0.11615255 -0.08863499 0.01722882 0.0402573 0.13622494 0.2928722 0.4714126 0.3189521 0.39031634 0.505242 0.41032