# vtk DataFile Version 2.0
Really cool data
ASCII
DATASET POLYDATA
POINTS 3541 float
22.134193 36.001194 1.9677769
21.990017 35.982292 2.516862
22.151035 35.89556 3.156344
22.038137 36.506355 1.9318805
21.852047 36.558105 2.500722
22.001663 36.582527 3.282804
22.300844 36.74686 3.9620247
22.13957 37.214447 1.960415
21.992867 37.256474 2.583722
22.157928 37.331543 3.322007
22.394518 36.97462 4.011341
22.320322 37.92561 2.6067977
22.367205 37.877087 3.3284674
22.912676 35.16587 2.8415205
22.8083 35.170513 3.1430092
22.531576 35.790985 1.8064078
22.405985 35.495655 2.4453645
22.582243 35.443493 3.1360369
22.938255 35.803356 4.5240345
22.73051 36.459385 1.3748665
22.40844 36.493496 1.534518
22.602915 36.560886 4.372123
23.117165 36.71854 5.13983
22.854929 37.342678 1.3572811
22.479156 37.330166 1.6312908
22.41447 37.549908 3.7253447
22.712185 37.417133 4.3607397
23.08988 37.194168 5.0140204
22.86341 38.27722 1.9041038
22.613705 38.321983 2.5071158
22.674427 38.31127 3.2512982
22.945213 37.97088 4.208064
23.068218 38.83544 2.6015468
23.049932 38.812656 3.2202175
24.355806 30.94673 2.861477
24.256432 30.89782 3.8293228
24.3025 30.661196 4.554359
24.076675 30.886105 5.5504966
24.250277 30.779902 6.10795
24.31107 31.577076 2.6265295
24.08788 31.509836 3.5570707
23.930782 31.616985 4.606877
23.87642 31.580221 5.495404
24.015564 31.667076 6.324823
24.310322 31.706932 6.868868
24.297289 32.440987 2.7373357
23.957296 32.220085 3.6970356
23.797981 32.14063 4.940336
23.744543 32.37429 5.1639514
24.067024 32.40931 6.3897223
24.316868 32.37602 6.8703403
23.816372 33.396194 4.6628
23.913395 33.036736 5.352975
24.314178 33.29098 6.2655964
23.892803 34.219997 4.2543387
24.350992 34.723663 5.3725004
23.62776 35.782173 5.346796
23.35008 36.280415 1.2490909
23.39938 36.940624 5.405806
24.009645 36.31993 5.768926
23.460121 37.276443 1.1803
23.52487 37.386276 5.368363
23.512184 38.084377 1.3431162
23.39946 38.620907 1.6763492
23.626211 38.28593 4.470802
23.636759 38.113605 4.8749633
23.640575 38.94162 1.9562488
23.545582 39.09354 2.4796386
23.503502 38.904774 3.4224906
23.46938 38.707333 3.8705251
25.047056 30.058645 2.8924704
24.846085 30.044622 3.4677815
24.874956 29.875805 5.013883
24.67164 30.059212 5.5719028
24.78211 30.094254 6.1667852
25.423483 29.500038 7.198669
25.043722 30.727089 2.1113563
24.72351 30.619953 2.6256077
24.588875 30.340128 3.2496357
24.462282 30.35178 4.6026535
24.447897 30.330404 5.4540553
24.508831 30.4485 6.1663094
24.748512 30.945429 7.106145
25.09908 31.03438 7.747515
24.552538 31.5403 2.134314
24.550163 31.364323 2.251948
24.596655 31.818157 7.1280823
24.714432 32.233654 1.7686188
24.511093 32.490616 7.017142
24.811298 33.030205 1.9594258
24.459906 33.019405 2.6134827
24.218021 35.19365 2.0232227
25.296848 36.22598 1.026346
24.655832 36.20924 6.203274
24.39536 37.17355 1.3772637
24.287077 38.01803 1.3102763
24.570932 38.521473 1.6569428
24.167206 38.460743 4.5045676
24.454105 37.920933 5.4424987
24.230135 38.965603 1.8892782
24.188007 39.173298 2.2849612
24.22054 39.239735 2.9633365
24.587288 38.71905 4.2541685
26.335285 23.971775 -11.980001
26.274721 23.885664 -11.520467
26.30652 23.93249 -11.042997
26.302032 24.30421 -12.090586
26.121256 24.380379 -11.3918915
26.248123 24.592276 -10.743771
26.362698 24.916063 14.898591
26.286665 24.853088 15.350431
26.35863 24.424143 16.365694
26.368141 24.82865 17.293642
26.267975 25.426424 -12.099897
26.097658 25.337069 -11.509728
26.245424 25.40807 -10.688477
26.30149 25.685596 14.470346
26.078873 25.638483 15.657019
26.111446 25.44069 16.35685
26.313442 25.397985 17.32942
26.38105 26.376 -11.9795
26.245375 26.229464 -11.468655
26.26596 26.270233 -11.012948
26.253046 27.00236 14.015018
26.109224 26.387667 14.711132
25.974482 26.377783 15.914644
26.031647 26.418016 16.407774
26.263405 26.739908 17.386635
26.454575 26.527977 18.109203
26.18175 27.570095 13.940537
26.036924 27.909906 14.626177
25.97834 27.3175 15.630395
26.173447 27.320276 16.571007
25.638939 29.391813 4.1609287
25.646078 28.999685 5.8017087
25.71382 28.856133 6.465515
25.925001 28.901562 7.3865247
26.029238 29.182512 8.881229
26.216877 29.238771 9.382408
26.20496 28.644123 13.705238
26.03754 28.593262 14.432944
26.09133 28.459211 15.445794
26.292137 28.176424 16.400093
25.758392 30.192562 2.0836463
25.666887 29.813375 2.7286716
25.442934 29.66731 3.3281798
25.734632 29.490383 4.1186748
25.526999 29.31826 6.0373216
25.622839 29.826458 7.3727036
25.71353 29.539696 8.206867
26.02307 29.442295 9.195869
26.215702 29.993198 9.861198
26.229563 29.21475 13.943982
26.220621 29.337402 14.565945
26.21643 29.206137 15.197846
26.416815 31.244251 -10.696237
25.756271 30.954388 1.585049
25.542852 30.869682 8.071636
25.860498 30.554508 9.299395
26.293623 30.093588 9.991797
26.318325 31.960869 -11.825946
26.206669 31.816355 -11.385145
26.227667 31.75641 -10.711801
25.830254 31.866354 0.9465337
25.556509 31.393131 1.4435353
25.649893 31.336609 8.52597
25.69037 31.241907 8.903307
26.347076 32.611694 -11.95687
26.162687 32.439857 -11.467246
26.207405 32.469963 -10.777908
25.968218 32.8048 8.047312
26.103596 31.973015 9.136423
26.400063 32.95385 -11.894247
26.31974 33.136173 -11.478924
26.289658 32.9321 -10.811504
26.239489 34.04339 -2.8669949
26.14712 33.89642 -2.3427024
26.117828 33.518017 -1.4969131
25.891508 33.666348 -0.07021308
25.550762 33.269897 0.78944075
25.849712 33.82603 7.690822
26.175322 33.439857 8.320189
26.132431 34.54954 -3.1361482
25.963974 34.952126 -2.8278983
25.772568 34.65127 -0.75335115
25.633343 34.244766 0.5031239
26.101183 34.594776 7.87598
26.183735 35.247047 -3.3490772
25.975239 35.330936 -2.7225537
25.873547 35.414253 -1.765027
25.570871 35.4923 0.017266288
25.499783 35.447548 6.8289905
26.16739 35.810463 -2.50095
26.093992 36.127567 -0.984252
25.796759 36.50229 0.36195993
25.964426 36.327118 7.414435
26.267784 36.925907 7.513214
25.092596 37.955944 1.3672619
25.133886 38.472225 1.9160304
25.437515 38.367783 5.397154
26.343723 38.476845 7.4134974
26.370283 38.839035 9.461875
26.460835 39.030148 10.198774
25.17859 38.913315 3.450497
26.085138 38.96089 6.2460675
26.162474 39.1819 8.626431
26.34457 39.36411 9.479658
26.352736 39.62133 10.475143
26.441229 39.62399 10.805811
26.330122 40.31729 8.065043
26.307955 40.31303 8.803306
26.30544 40.41749 9.706832
26.35392 40.416023 10.276189
26.43095 41.5322 5.306896
26.423552 40.87766 10.230263
26.388666 42.4108 4.612958
26.398489 42.73275 5.3697495
26.460094 42.991367 4.038883
26.401514 43.222942 4.476199
26.986055 23.38939 -11.924537
26.86693 23.35426 -11.491655
26.951899 23.379616 -10.863277
26.759653 23.76465 -12.164348
26.539877 23.548721 -11.535833
26.67653 23.686089 -10.741849
27.015844 23.947353 -9.979996
26.977278 23.921534 15.025538
26.899359 23.811596 15.433566
26.740915 23.918781 16.325335
27.028214 23.91471 17.416737
27.15923 23.965696 17.972015
26.942953 24.533468 -12.624089
26.612295 24.459171 -12.438345
26.464794 24.402092 -10.356043
26.784702 24.485935 -9.922692
27.250223 24.785751 -9.227857
27.107954 24.906277 14.04867
26.729006 24.591774 14.6458645
26.495853 24.259436 15.784641
26.620205 24.680717 17.655144
27.078075 24.591892 18.435925
26.982353 25.469046 -12.724732
26.545849 25.52109 -12.445982
26.469471 25.394203 -10.352796
26.61727 25.337221 -9.981122
26.765095 25.563684 13.860638
26.543 25.213055 14.324168
26.62705 25.635693 18.255812
27.120636 25.805492 18.939281
27.025362 26.321287 -12.650635
26.626604 26.375214 -12.3109
26.43987 26.622602 -11.874011
26.512875 26.342901 -10.590824
27.062788 26.486061 -9.681947
26.467894 26.826368 17.805939
26.717695 26.489092 18.43997
27.055637 26.422081 19.022028
26.913969 26.894249 -12.247614
26.67701 27.04263 -11.523835
26.62326 26.990072 -10.970256
26.865162 28.138762 4.8171782
26.865969 27.890581 5.66046
26.947243 27.761189 6.512572
26.647125 28.1118 7.1842947
27.061188 28.274714 8.272406
26.69031 27.514566 13.26573
26.589535 27.646812 13.391677
26.503105 27.504574 17.779032
26.9212 27.464426 18.46486
27.101873 27.035315 18.944859
26.693518 29.093319 2.92838
27.132408 28.486504 3.3911202
26.639273 28.61275 4.127435
26.491068 28.517351 7.626589
27.200481 28.515547 8.699289
26.727455 28.192862 17.479675
27.104204 28.358015 18.137444
26.985632 29.575558 2.204073
26.423931 29.733826 10.238191
26.725412 29.753107 12.542907
26.432404 29.71439 13.717159
26.527542 29.601213 15.363847
26.76796 29.587223 15.975775
27.216516 29.163576 17.330652
27.025957 31.152245 -11.808943
26.804901 31.263342 -11.71641
26.624546 31.094185 -10.407329
27.03507 30.655527 -9.722994
27.367233 30.278042 -9.068191
26.642345 30.427929 1.5742679
26.585766 30.586521 10.117864
26.975647 30.514961 11.234222
27.004726 30.384912 12.414858
26.820112 30.099176 13.582328
26.798897 30.133713 14.465774
26.870386 29.979803 15.510353
27.07185 29.775412 16.125362
26.677275 31.799957 -12.060593
26.554007 31.418213 -11.633196
26.418612 31.301031 -10.749476
26.852377 31.682476 -9.694896
27.368546 31.479988 -8.626251
27.182394 32.38874 -0.92739785
26.437572 31.448265 0.96513903
26.87675 31.421932 10.205023
27.263443 30.92207 11.643285
26.679365 32.62676 -12.27761
27.1054 32.339645 -9.4681225
27.344921 32.231033 -9.023569
26.876621 32.9356 -2.2047822
26.860952 32.722454 -1.7701968
26.871595 32.286987 9.451055
27.049084 33.05729 -12.565298
26.809397 33.352467 -12.241331
26.539759 33.50538 -11.453334
26.563429 33.27756 -10.694862
26.934563 32.827816 -9.777908
26.90503 33.902077 -3.9335878
26.821297 33.606243 -3.4091601
26.410414 33.580402 -2.3543425
26.35656 33.800335 8.363789
26.936445 33.399906 8.865904
26.914257 33.83334 -11.93536
26.884672 33.870354 -11.662649
26.949219 33.767776 -10.85304
26.640793 34.711033 -3.881717
26.38111 34.36947 -3.5756311
26.74112 34.819607 8.3676605
26.99573 34.50786 8.733431
26.709467 35.28455 -3.892581
26.671865 35.704716 -3.604263
26.434746 35.305573 8.130614
26.969734 35.914032 8.65894
26.708035 36.00931 -3.2495844
26.665403 36.306984 -2.5892453
26.676918 36.50896 -1.6287775
26.812897 36.728374 8.264851
[...]
POINT_DATA 3541
SCALARS features_00 float 1
LOOKUP_TABLE default
0.8383697 0.82880324 0.7664844 0.8710697 0.8629993 0.76734895 0.6212684 0.8920672 0.852236 0.7157074 0.6020678 0.81404555 0.68322825 0.6606856 0.6478498 0.78299814 0.77322304 0.7048807 0.4740843 0.79658806 0.84058523 0.5410561 0.46818975 0.80536103 0.86705077 0.628058 0.5510968 0.4984146 0.8534936 0.8118244 0.6846982 0.55962884 0.7787351 0.690259 0.4171446 0.4037766 0.38207942 0.39852142 0.37785828 0.4096099 0.41119468 0.40841997 0.4238577 0.40559834 0.35610026 0.37242478 0.38344657 0.393768 0.38319102 0.38385922 0.32849896 0.25671405 0.32459402 0.28867188 0.19280526 0.16348243 0.33578297 0.690705 0.4598053 0.34538028 0.68173444 0.46649098 0.735404 0.7899133 0.5097687 0.48126012 0.77912045 0.77355826 0.6495948 0.5846169 0.3723264 0.36617914 0.29695505 0.30881053 0.30322295 0.27038273 0.39729005 0.40961003 0.39478874 0.3591999 0.34257162 0.34147894 0.3233337 0.2782178 0.40305513 0.41003644 0.308514 0.3488822 0.28406388 0.24067602 0.30203778 0.4209447 0.10958683 0.17826474 0.4723125 0.6197387 0.65533894 0.46838748 0.37501922 0.7222333 0.7385628 0.69339204 0.46051776 0.9368338 0.9163669 0.87662315 0.95256394 0.9144647 0.8223834 0.60438275 0.6219051 0.6924466 0.6574828 0.90012646 0.8718482 0.7519101 0.5109352 0.5372585 0.56048304 0.5710512 0.80924046 0.7830572 0.7309592 0.45074102 0.46620512 0.45758498 0.45209372 0.46026248 0.5014625 0.4502387 0.44812077 0.42143905 0.4138648 0.2455639 0.20989653 0.22164693 0.25572783 0.34175202 0.36501408 0.4325819 0.44938934 0.43973288 0.42364335 0.32564026 0.31455028 0.31002533 0.24714684 0.22971784 0.28590846 0.3108821 0.35480323 0.3353996 0.42058313 0.43328154 0.44250804 0.6795486 0.33685583 0.27979398 0.31303453 0.3214887 0.8309314 0.7957882 0.74700946 0.284882 0.35360545 0.23394668 0.25375742 0.88978475 0.85536575 0.8141252 0.0800616 0.15322 0.9084909 0.8992003 0.8453076 0.47710586 0.46362507 0.39186484 0.18542758 0.13731265 0.05443027 0.042100936 0.5109823 0.5316544 0.3402975 0.0980102 0.014675561 0.51856285 0.531278 0.47475994 0.19734198 -0.02152422 0.49765038 0.31188875 0.07625142 -0.04612726 -0.025252301 0.45934308 0.54414296 0.093607955 0.08057313 0.4659768 0.56070244 0.50496817 -0.20568538 0.41430384 0.53733206 0.65259725 0.6900765 0.34470126 0.50158 0.59645176 0.6574191 0.33183765 0.6323337 0.43759853 0.48814607 0.44225854 0.49652523 0.88857967 0.883545 0.8455741 0.91393757 0.9026866 0.8424684 0.7394433 0.6761124 0.6765413 0.7017517 0.71305585 0.6822127 0.90797806 0.9392189 0.77632904 0.71034706 0.58711684 0.5743938 0.631637 0.68617725 0.6784258 0.64671814 0.83847785 0.8779901 0.68815494 0.6326088 0.5083254 0.55748814 0.5846514 0.593307 0.77974045 0.81298363 0.7961278 0.64246386 0.42427087 0.47975832 0.5252055 0.5577696 0.75655544 0.72375363 0.6515792 0.14540347 0.17254207 0.16352728 0.18888053 0.18054514 0.43610522 0.4409818 0.46795088 0.5057916 0.5340626 0.1872417 0.14239152 0.14792648 0.23121428 0.1938464 0.45367754 0.47620928 0.18256727 0.33705735 0.20086697 0.37234953 0.4312387 0.41658008 0.41825587 0.7220453 0.73740274 0.61226887 0.3956074 0.25560233 0.2155743 0.25208914 0.06530316 0.12419084 0.3016392 0.37888122 0.4065126 0.3942325 0.8236096 0.7601607 0.69172156 0.5580186 0.36668453 0.18561879 0.1931119 0.14909498 0.04574861 0.89434445 0.52005345 0.41658524 0.3382926 0.30259776 0.0968639 0.8951458 0.9227249 0.908937 0.8359525 0.6092683 0.43830144 0.41516045 0.42848933 0.031409487 0.03555014 0.9244374 0.9185904 0.8378264 0.48307008 0.48717654 0.012679122 0.01931414 0.47299042 0.4753484 -0.021510541 -0.062495604 0.467875 0.43418562 0.32637787 -0.083293416 0.042813882 0.22586516 -0.05396381 0.36952913 0.45865968 0.54409987 0.37448692 0.55272603 0.6214146 -0.085088894 -0.020700112 -0.16057442 0.7411715 0.017929256 0.11935661 0.12049053 -0.09859767 0.3094293 0.5491377 0.69861466 0.74599874 0.74940324 0.30757144 0.3054628 0.29163197 0.38429072 0.5403552 0.62037045 0.68577945 0.27242228 0.30796447 0.4406559 0.43644965 0.5923413 0.42028612 0.5240492 0.5654894 0.5307575 0.48183724 0.561924 0.56754804 0.502532 0.4955568 0.55948305 0.54840124 0.8608562 0.8454145 0.80819154 0.6374327 0.639666 0.885293 0.8621428 0.6821189 0.6056088 0.65536463 0.6480353 0.65029263 0.6646997 0.64358354 0.62894666 0.85485446 0.5581064 0.5429074 0.57386947 0.5852294 0.53168684 0.6408638 0.62538433 0.74464965 0.5800034 0.6074302 0.5910175 0.1885435 0.18038538 0.49675572 0.58635813 0.67886686 0.26166818 0.55259156 0.56081545 0.5239363 0.132248 0.13919476 0.16487472 0.13394895 0.4216149 0.56256664 0.65787494 0.07023253 0.16369213 0.47847867 0.10786645 0.12934157 0.14221987 0.08083783 0.059292596 0.0016994029 -0.14482048 0.53500307 0.1273966 0.014905922 0.0939098 0.1441368 0.09450259 0.48498553 0.4946258 0.48831123 0.2447131 0.09577429 0.12914275 0.39148128 0.43766892 0.6071029 0.24143922 0.2143307 -0.07456985 0.26090607 0.3493347 0.32437202 0.36153954 0.8111651 0.82604825 0.2268068 0.16167064 -0.03038343 0.031131756 0.04551914 0.11593778 0.21375014 0.31462604 0.84378153 0.29334545 0.060342416 0.24817884 0.2988351 0.04769222 -0.0017543994 0.86141264 0.88911057 0.5585013 0.2618533 0.09592846 0.15956546 0.29023272 0.29990202 -0.035425544 0.8887608 0.88957393 0.8169295 0.53951126 0.14914823 0.13932982 0.24379699 0.3592969 0.36716294 0.32401556 0.20036118 -0.044977408 0.26163706 0.3972455 0.53827614 -0.22192712 0.6517378 0.6975478 -0.13163337 -0.006196372 0.72040045 0.028035797 0.018596612 0.73146325 0.7048249 0.03775352 0.4589918 0.60406655 0.65267146 0.4756354 0.5367964 0.5736309 0.101708755 0.16561222 0.29571328 0.5079522 0.5656785 0.503735 0.56970716 0.6047224 0.5951773 0.15645815 0.24836594 0.30424526 0.5681738 0.5941885 0.62749094 0.62635297 0.24753442 0.30612427 0.46704322 0.24390996 0.295389 0.42551354 0.49979275 0.498373 0.47904408 0.2542013 0.3554756 0.5284664 0.81808305 0.75807035 0.74850357 0.60546064 0.6179025 0.7961669 0.73899996 0.60701156 0.4846661 0.4460103 0.4284675 0.474311 0.44133294 0.6039594 0.592327 0.5717627 0.61441576 0.5888827 0.6107505 0.77501833 0.4858595 0.49005878 0.53245974 0.5251967 0.53858596 0.44571078 0.23058137 0.25985253 0.27914456 0.5226162 0.5976558 0.5924156 0.5757181 0.3216747 0.49033654 0.5430418 0.446806 0.16959628 0.21944784 0.23147379 0.24644528 0.30336422 0.5733597 0.602108 0.17388229 0.056392416 0.50493354 0.4778626 0.35677785 0.0749554 0.11126657 0.28715864 0.533831 0.3152821 -0.0048184404 -0.0678172 0.29302478 0.32368112 0.38914797 0.26893222 0.09197501 0.010927543 -0.022400431 -0.08619081 0.08693716 0.49139225 0.1168273 0.11366411 -0.07571133 0.08922672 0.0871438 0.06479197 0.4561964 -0.010604037 -0.13267015 -0.25617397 -0.18519384 0.36466125 -0.093583494 -0.076022685 -0.2970132 0.66869724 -0.08783769 0.020224292 0.0520621 0.13630342 0.19183256 0.7349185 0.65488136 0.032788366 0.12284325 0.2142869 0.12756176 -0.08339989 -0.014530068 -0.087604 0.7974676 0.8046744 0.38856202 0.11743437 -0.12225216 0.8242503 0.7444098 0.581228 0.35764092 0.14436033 0.13241076 0.12070258 0.13592638 0.104117095 0.12950572 0.04128711 0.26774737 0.20893215 0.48855966 -0.044267215 -0.18100446 -0.3108372 0.5918274 -0.04412229 -0.049104754 -0.089708 0.5734801 0.24770594 -0.058921948 0.5274959 0.5959357 0.2760224 0.3156413 0.4289611 -0.035976082 0.5232234 0.6387371 0.40603203 0.35747322 0.43737513 0.48775333 0.55398965 0.5271461 0.025384396 -0.111203045 0.078133196 0.31489676 0.42421487 0.44478327 0.50600123 0.4257893 0.060548462 0.10841448 0.3134371 -0.15620448 0.47123808 0.5366248 0.58534896 0.61738086 0.15745692 0.19005245 0.35068452 0.50397915 0.5432918 0.5876239 0.59522843 0.17565025 0.2249184 0.37182325 0.21863216 0.20217137 0.41203785 0.19429392 0.56308365 0.5505607 0.5594122 0.6327412 0.6944247 0.73899543 0.72518337 0.67231756 0.7300041 0.73219204 0.71680295 0.50246716 0.49841797 0.4249907 0.48170087 0.5072433 0.45567715 0.24619246 0.21619368 0.14612356 0.2939641 0.3392429 0.42977434 0.4610973 0.7190249 0.43786132 0.3911028 0.41429463 0.34518912 0.35907108 0.30946127 0.21629746 0.24854232 0.3605026 0.24282327 0.30454677 0.51377684 0.47018218 0.28983802 0.40436208 0.18973428 0.21215862 0.23666866 0.28980744 0.33471972 0.52012783 0.48530027 0.38179767 0.15644364 -0.108770445 0.2261622 0.010287896 0.20757529 0.34430677 0.25527906 0.16721392 -0.2396898 -0.08222179 0.43688253 0.13586044 -0.102811754 0.09061486 -0.21146062 0.37327862 0.089750305 -0.14846146 -0.2963187 -0.046502326 0.3385341 0.062520914 -0.12097337 -0.11579382 -0.18048252 -0.028574275 -0.070135854 -0.17598806 -0.23587996 0.23459923 -0.14520332 -0.34493616 0.18960054 -0.110618494 -0.0011903066 0.04158426 0.61318386 -0.13378094 0.019387394 0.7376511 -0.18265362 -0.09944604 0.021578597 0.04275463 0.75173044 0.6751659 0.4782964 -0.008804545 -0.1611139 -0.1361472 0.032581642 0.048230346 -0.042041067 0.08276541 0.05851663 0.04184419 -0.12431173 0.027590945 -0.017767962 -0.19209316 0.36656916 0.28699753 0.1853448 0.09538861 -0.15822229 -0.035506703 0.4046846 0.17043361 0.43995488 0.3141578 0.18570855 0.14473292 -0.11872751 -0.32402694 0.53025305 0.48257118 0.3449781 0.25666595 -0.26036197 0.25841665 0.02480252 0.57090366 0.5086689 0.35531813 0.4751625 -0.0972347 0.104263924 0.10192929 0.6122311 0.5594385 0.47464758 -0.13532823 0.02654057 0.26646748 0.26359278 0.35837108 0.605527 0.5471076 0.4199681 0.44497713 0.47467816 0.21544605 -0.01684051 0.1258315 0.3856027 0.3516559 0.14209461 0.17909962 -0.061695956 0.16323592 0.42978764 0.5324806 0.52248144 0.6558622 0.52412945 0.59818226 0.7007897 0.6951885 0.64710313 0.58804107 0.6687776 0.6775351 0.64293575 0.47140718 0.4685115 0.30912393 0.30210695 0.24420986 0.3699568 0.46148258 0.47825631 0.44853824 0.23665851 0.18623523 0.2445027 0.2601092 0.35952848 0.44868115 0.34962755 0.3696263 0.08522017 0.07760605 0.29629648 0.2434597 0.33172968 0.3322327 0.37699878 0.3285764 0.0014076233 0.11286875 0.24374801 0.16310818 0.22387569 0.25714797 0.27211443 0.2804312 -0.14885384 -0.1296756 0.279102 0.35173836 0.4468962 0.1760665 -0.03904368 -0.14657924 -0.24621238 0.2336272 0.05711253 0.6418428 0.14510715 -0.4151349 -0.028279617 0.16383097 0.5888521 0.114653364 0.56587267 0.07637389 0.48630357 0.0542535 0.13417992 -0.25073382 0.11726347 0.28018895 -0.40663886 -0.41667944 -0.08555744 0.46326613 -0.08137418 0.07351228 0.24615678 -0.18701403 0.06668523 0.15864196 -0.11019099 -0.06839344 0.14710686 0.33490646 0.45102227 0.61962384 -0.15476125 0.15279889 0.22289503 0.43913478 0.5575273 0.6165977 0.648027 -0.011193991 0.5047002 0.5707611 0.6173418 0.63180757 0.28006777 0.089953765 0.10325274 0.45907307 0.5238975 0.41368544 0.01473368 0.47667482 0.27897984 0.3798712 0.54758185 0.40657607 0.4540521 0.61320806 0.43437952 0.4648915 0.6662368 0.4247625 0.4576714 0.6933016 0.674662 0.53915226 0.3157839 0.39381078 0.40030453 0.4517733 0.49013448 0.32051536 0.3674392 0.23700133 0.37552744 0.42026073 0.43621892 0.32857984 0.3159713 0.30770454 0.18135709 0.10452251 0.26006716 0.4143322 0.44238508 0.2137931 0.31213492 0.30704102 0.35722312 0.44816723 0.42756036 0.47863895 0.5093324 0.52466875 0.45332175 0.4932052 0.56802166 0.5919519 0.50078464 0.36130825 0.35395646 0.30444595 0.2339281 0.43651557 0.448098 0.44318354 0.27386817 0.33896723 0.33797398 0.28074443 0.23113835 0.33117223 0.43783888 0.45031714 0.3626939 0.41770375 0.46136683 -0.00872616 0.18881086 0.36184272 0.41434145 0.4321599 0.41453087 0.06958998 0.037758302 -0.046830896 -0.054365493 -0.030787535 0.3700942 0.3784842 -0.08243697 -0.07312672 -0.11422386 -0.12558798 0.21616088 0.5302799 0.6140951 0.67657554 0.2096872 0.38098398 0.38024837 0.3980147 0.38198096 0.7026669 0.7950064 0.071567155 0.34001416 0.22869027 0.29965165 0.032415718 0.79618883 0.09185666 0.73574746 0.044688907 0.66026664 0.49064445 0.65188694 -0.060951166 0.22749369 0.79956484 0.7254542 0.24248828 0.7959976 0.7639301 -0.026271973 0.39799267 0.59336424 0.48065442 0.103171915 0.63771594 0.4961351 0.1873492 -0.055554733 0.63912815 0.29053956 -0.122557774 0.60684896 0.61753654 0.20644175 0.2917607 0.48095867 0.5439106 0.5897179 0.35419545 -0.09956409 0.09557327 0.31142163 0.41265136 0.47410852 0.42903107 0.52281976 0.45100123 0.43008697 0.56769466 0.47683883 0.47126466 0.63267756 0.65734625 0.5088668 0.48364943 0.702927 0.6746454 0.481408 0.25636113 0.48425165 0.50950694 0.5010829 0.22673386 0.454243 0.4663878 0.47862825 0.26236346 0.27092028 0.22467498 0.038679842 0.21063092 0.36489466 0.45533705 0.46971825 0.4709345 -0.033964165 -0.11368448 0.10702412 -0.087961376 0.33996513 0.40558994 0.3497538 0.38951558 0.40178615 0.22763652 0.31225565 0.40363076 0.3619856 0.35637158 0.35665897 0.15345958 0.25903034 0.34933686 0.3598181 0.32561034 0.22447796 0.21766908 0.41888928 0.4296226 0.09429752 0.05634658 0.31980982 0.37927866 0.39651418 0.47693932 0.49218065 0.29022402 0.25533485 0.20945898 0.08830009 0.027719159 0.47627103 0.47335547 0.22100857 0.35362768 0.38379192 0.2200124 0.49811447 0.4714402 0.6443094 0.6963643 0.72473955 0.30518764 0.056419183 0.43034017 0.44428617 0.45422554 0.42467257 0.3929625 0.6476457 0.7856045 0.0059811845 0.25667918 0.8494675 0.7922344 -0.253183 0.7140926 0.49069452 -0.2590193 0.55960816 0.6624907 0.75772893 0.6663302 0.5994283 0.7968689 0.62349576 0.2769102 0.31386286 0.79825175 0.7360203 0.52662337 0.24123535 0.75074863 0.7006393 0.6134782 0.41832575 0.0505874 0.41019452 0.5712433 0.4875218 0.6048441 0.51077104 0.52086663 0.6028785 0.47648406 0.2051485 0.560822 0.579486 0.51889783 0.54099196 0.38710177 0.35665476 0.4811927 0.41831654 0.5695772 0.45595023 0.42493954 0.61879706 0.4957115 0.655954 0.6041963 0.44366738 0.4758135 0.49509224 0.46734554 0.4648893 0.36086693 0.4579749 0.46996737 0.4721315 0.007598795 0.21331085 0.36457878 0.5326142 0.4084021 0.38501817 0.49651814 0.47646517 0.36560726 0.35946366 0.17316893 0.16662277 0.19284625 0.24432766 0.3034572 0.30910948 0.31004193 0.32945615 0.1134392 0.13257882 0.31473836 0.32297194 0.232844 0.09970532 0.1123435 0.2833674 0.25730005 0.23963645 0.22290897 0.14858353 0.06878734 0.09932633 0.34342661 0.3501333 0.31506342 0.51496136 0.55813587 0.56339717 0.32422143 0.3100726 0.262815 0.24336186 0.49049225 0.34768063 0.4213526 0.3498269 0.3846888 0.27898827 0.53731394 0.5295996 -0.2782219 0.09928465 0.417053 0.5383589 0.6702126 0.7473899 0.78801644 -0.17143899 -0.11587927 0.41015217 0.36722353 0.58056766 0.7143121 0.7755468 0.8254304 -0.19903457 0.14096972 0.7400402 0.7944547 -0.094668455 0.67920136 0.7222198 0.6350572 0.52707887 0.37929925 0.56528205 0.64616156 0.71710956 0.70172304 0.30024424 0.39302713 0.7643203 0.77371985 0.23139042 0.29895684 0.78402567 0.7953955 0.16871497 0.75029397 0.69714856 0.4903646 0.13574721 0.5179943 0.42774314 0.55191123 0.4943822 0.57262397 0.5742113 0.50796187 0.56532365 0.5049051 0.49191964 0.4677537 0.44966328 0.53715473 -0.2072111 0.41136152 0.3498996 0.14803202 0.37796092 0.3485276 0.32585537 0.47244266 0.5036013 0.36076683 0.3819126 0.5106257 0.51743525 -0.13082285 0.4009315 0.38925657 0.3346994 0.4268853 0.4382891 0.27461392 0.40462574 0.4182334 0.43373123 0.034491524 0.19101465 0.22489336 0.32690293 0.42890975 0.52224064 0.35129106 0.5932468 0.5676509 0.5801989 0.53842926 0.48416874 0.40538156 0.52113074 0.4919771 0.39173716 0.29622 0.23532224 0.34212115 0.32109874 0.3263354 0.27930915 0.21358272 0.2919378 0.34434026 0.36127132 0.10617131 0.11532466 0.117562875 0.24862288 0.17299132 0.1145647 0.08220668 0.012190152 0.102180496 0.26805457 0.35036644 0.48478693 0.5579579 0.5500443 0.33284137 0.32883278 0.29475844 0.5155703 0.51309973 0.34307367 0.3419642 0.44391334 0.35060284 0.36223617 0.32869774 0.27211696 0.17874861 0.38509363 0.5036508 0.56793225 0.53785807 0.4044416 0.5939901 0.09588733 -0.23249298 0.13448422 0.21337703 0.31503206 0.3422627 0.54939497 0.6460206 0.042718202 0.07811611 0.24008702 0.34932053 0.43039733 0.5846485 0.24834119 0.3501777 0.4046201 0.7049022 0.6706097 0.1355822 0.24989893 0.34202802 0.7316985 0.12554659 0.22956865 0.74883616 0.7032799 -0.057916604 0.70483875 -0.043205053 0.16573386 0.6059624 0.367732 0.42084527 0.48265833 0.46732166 0.521492 0.49222934 0.41857332 0.49836677 0.48280036 0.46297526 0.3784532 0.4405533 0.3911008 0.16978554 -0.014165297 0.09714904 0.0893702 0.13413155 0.15812393 0.7741475 0.7302283 0.21849482 0.8111219 0.72682524 0.2741626 0.7780956 0.71738887 0.15538879 0.27642646 0.25062025 -0.15448599 -0.24488702 0.22693579 0.20414783 -0.17913361 0.115981065 0.18599492 0.28798616 0.15170157 0.13536303 0.34055325 0.5280892 0.6021441 0.5919355 0.57631004 0.5432172 0.49569276 0.4436807 0.38235697 0.40771255 0.3356055 0.2604369 0.36082578 0.40523204 0.4127889 0.43203706 0.2551721 0.26654217 0.063273385 0.13682586 0.17694646 0.21384266 0.24889472 0.24871606 0.21275733 0.13386267 0.055233266 0.016825356 0.3054056 0.19694227 0.24069303 0.335526 0.44006038 0.48511684 0.5185833 0.30037653 -0.04951721 0.15089907 0.365525 0.46767765 0.48738575 0.48085603 0.32206208 0.42564744 0.3395352 0.36215264 0.24006285 0.24129751 0.3798973 0.48611903 0.49544966 0.17354807 0.02415673 0.20384215 0.4382023 0.0679474 0.26182908 0.061764568 0.15838706 -0.021522157 0.12037246 0.26744977 0.6256609 0.022591874 0.12004003 -0.04181459 0.05249938 0.7028035 0.63256204 -0.117707014 0.6300497 0.15958405 0.3241005 0.39279687 0.39152575 0.42503396 0.45302847 0.3969562 0.44937378 0.4628932 0.37115592 0.4604677 0.435576 0.20147917 0.34486884 0.42502224 0.30191362 0.065775715 -0.03307613 0.15052047 -0.48336786 0.20224774 0.8002057 0.5187799 0.25012106 0.25803688 0.8748765 0.83105636 -0.014205821 0.12935933 0.20606515 0.8583897 0.81700665 0.51084584 0.070253335 0.092796855 0.8335325 0.7766932 0.70094335 0.61533487 0.33485454 0.12235452 0.6906961 0.62617224 -0.120102905 0.089522004 0.71209896 -0.12201166 0.40655625 -0.0005043745 0.50982296 0.5933671 0.56808305 0.5798198 0.3055551 0.32621405 0.45769513 0.40071803 0.44362566 0.4369824 0.42102116 0.39274532 0.37327313 0.50525016 0.4706574 0.45654348 0.53336954 0.6185962 0.3358632 0.28936997 0.22007912 0.2599127 0.25493652 0.10207384 0.07381535 0.24831069 0.24725723 0.16058074 0.03559027 0.26145068 0.35250527 0.38832682 0.18253219 0.23654285 0.37023103 0.3274118 0.22939715 0.42696786 0.3328506 0.3243751 -0.09917858 0.1586087 0.29891095 0.3600316 0.3490542 0.3215589 0.31027916 0.22787926 0.20555986 0.1242142 -0.027290054 0.08301665 0.34932813 0.40702626 0.03189979 0.30284023 0.20859873 0.116500564 -0.016426519 -0.18984708 -0.06233439 0.2661804 0.30565882 -0.029433087 0.20065993 0.0423306 -0.009835079 -0.06786274 0.075179085 -0.13614468 0.18705472 0.2897175 0.3332331 0.319444 0.37318623 0.356552 0.2562384 0.4300865 0.34542033 0.30873245 0.38951594 0.09787721 0.17541462 0.2996071 0.12653576 0.049314037 -0.13577102 0.18881607 0.7035643 0.6530959 0.27373686 0.82817185 0.7361288 0.317741 0.892418 -0.15517727 -0.026148379 0.053548448 0.904647 -0.2084913 0.84327924 0.79128885 0.7902758 0.7547324 0.7333406 0.18039036 -0.20814613 0.050436977 0.765538 0.75160694 0.7713654 0.70568407 0.08150998 0.074191734 0.49630636 0.1599541 0.49527436 0.27395064 0.5250945 0.38777512 0.27880457 0.3842881 0.34278965 0.31183952 0.2659707 0.24260409 0.22749919 0.47715312 0.4603727 0.4263421 0.5708154 0.5430845 0.5015148 0.75384426 0.80124986 0.80368865 0.68686193 0.7633541 0.67427254 0.49141905 0.4044353 0.6406503 0.6536294 0.29454982 0.4313783 0.28556654 0.23575443 0.06289156 0.16193396 0.108755365 0.2615958 0.2745333 0.25813666 0.37195972 0.38708434 0.16323015 0.21254519 0.37410435 0.3175315 0.323201 0.19384673 0.19749011 0.34778205 -0.05293338 0.089940645 0.21754643 0.27708828 0.3364503 -0.12282777 0.1714098 0.19302422 0.2205199 0.24458843 -0.036426295 0.21407309 -0.08827685 0.075117804 -0.099849865 -0.082012065 -0.12106365 -0.00686948 -0.2313105 -0.11841488 0.38447055 -0.21737231 -0.27324542 0.5000813 0.3818461 -0.3405982 -0.17328447 -0.06682676 0.00872355 -0.011368826 0.047815815 0.031331763 0.08454712 0.2564199 0.16094866 0.14112471 0.18443334 -0.057398126 -0.2027519 0.16873659 -0.00