# vtk DataFile Version 2.0
Really cool data
ASCII
DATASET POLYDATA
POINTS 11040 float
32.141068 15.975386 51.158638
31.99131 16.031067 51.3964
32.085094 15.996722 52.297398
32.290524 16.089674 53.028137
31.952698 16.620995 50.86673
31.766369 16.468355 51.49843
31.826742 16.564228 52.286217
32.165043 16.509455 52.959023
32.1625 17.884851 50.102123
31.774773 17.483307 50.844337
31.666014 17.459309 51.418823
31.770866 17.438211 52.225082
32.27026 17.154291 53.242523
32.2121 18.517586 49.992264
31.898169 18.494028 50.578278
31.84829 18.291475 51.57677
32.044537 18.261648 52.313526
32.31741 17.892447 53.0147
32.23407 18.940096 50.09601
32.16496 19.072428 50.52148
32.160122 19.187004 51.350212
32.20273 45.311863 45.023605
31.970917 45.764263 43.92055
31.701683 45.982433 44.44413
31.923801 45.89204 45.145992
32.170513 46.478043 43.428062
31.921572 46.494827 43.75405
31.62433 46.473694 44.508556
31.722895 46.59697 45.235302
32.200863 46.388218 45.92127
32.046513 47.179317 43.81135
31.742558 47.410812 44.50643
31.750334 47.506527 45.41705
32.025734 47.61566 45.993065
32.16073 47.925472 44.19206
31.997715 48.16322 44.80912
32.00251 48.307934 45.512447
32.122402 48.219032 45.942932
32.240154 48.693054 45.35894
32.64156 15.915602 50.873
32.47825 15.577077 52.35837
32.86899 15.676247 53.323368
33.04219 16.03351 53.89029
32.652775 16.991886 50.200974
32.479893 16.432974 50.47888
32.539722 16.4799 53.43598
32.967186 16.512741 53.87739
32.71219 17.77869 49.779484
32.80663 17.060698 53.836063
32.62655 18.503483 49.710827
32.382015 18.588806 52.572357
32.54249 18.128115 53.119373
33.155106 18.03359 53.81003
32.703785 19.16665 49.922394
32.448826 19.45512 50.53306
32.46523 19.60491 51.271126
32.745106 19.180187 52.546837
33.012146 19.159643 52.96407
33.094433 19.735188 50.188847
32.82949 19.810614 50.587112
32.87978 19.929073 51.418583
33.298817 19.976952 52.185047
33.02097 39.92473 45.916553
32.97469 39.97552 46.512398
33.16395 39.97723 47.114708
33.059658 40.771915 45.257156
32.8545 40.580353 45.68331
32.710632 40.598217 46.38978
32.99395 40.536625 47.189037
33.329056 40.72518 47.86859
33.194225 41.254425 45.192142
32.808094 41.16114 45.758835
32.704765 41.183163 46.424267
32.98933 41.39316 47.227505
33.22092 41.203964 47.7749
33.17733 42.183624 46.622177
33.296753 42.413624 47.516712
33.345837 44.17182 44.313065
32.354424 45.26457 44.002552
32.680435 45.387856 43.679344
32.543793 46.414692 43.299316
32.62618 46.740616 46.345192
32.72527 47.070404 43.33872
32.576305 47.45295 43.597435
32.439804 47.50082 46.3729
32.867344 47.519474 46.625805
32.736874 48.098003 43.995163
32.43272 48.499268 44.595604
32.642197 48.37778 46.234512
33.039165 48.087116 46.621727
32.723843 48.790504 44.887775
32.595554 48.83279 45.460163
32.55969 48.695568 45.947586
33.3063 15.422891 51.98934
33.809612 15.079377 52.617744
33.650524 15.117958 53.44606
33.08719 16.149559 50.59871
33.51989 15.813601 54.11775
33.45034 16.699959 50.246483
33.643734 16.583336 54.40517
33.276264 17.814577 49.630802
33.494617 16.975058 54.340355
33.922447 17.110144 54.60907
33.47924 18.492365 49.550865
33.853405 18.5381 54.056072
33.3709 18.982203 49.567455
33.466675 19.528616 53.047897
34.16138 19.092066 53.98164
33.730545 19.879509 50.01897
33.631268 20.400692 50.76538
33.501244 20.097973 52.401318
34.11114 20.276539 52.89397
33.853695 20.596956 50.80375
33.84546 20.6582 51.442165
34.489304 32.93706 46.704025
34.474937 33.171463 46.381374
34.398754 38.68619 42.458504
34.461926 38.762287 42.95978
33.641018 39.315655 45.882397
33.697975 39.163914 46.540947
33.982365 39.25094 47.333683
34.4035 39.54831 41.91571
34.37151 39.69871 42.1469
34.26941 39.279163 43.093536
33.9859 39.95584 44.839848
33.754528 39.517883 45.436855
33.464367 39.399452 46.62885
33.633556 39.640255 47.374767
33.878876 40.094593 47.956944
34.39494 40.5564 41.97526
34.23221 40.710907 42.529144
34.233097 40.444912 43.074223
33.726654 40.590256 48.160606
34.278908 41.005177 48.790073
34.389385 41.316017 42.525105
34.38252 41.754272 43.273514
33.58255 41.20625 44.83713
33.745655 41.358562 48.27996
34.15019 41.3446 48.69804
34.467724 41.964195 42.91796
34.20106 42.602757 44.10716
34.0493 42.45682 44.762386
33.93363 42.895424 45.484592
33.746563 42.317528 48.2462
34.183403 42.29221 48.639957
33.63423 43.206665 47.540867
33.825268 43.032207 48.00768
34.287388 44.694954 43.225204
33.32288 45.024178 43.687626
33.645794 44.74634 46.645
33.827435 45.694992 43.014256
34.082867 46.587566 43.10783
33.57199 46.755985 46.78663
33.33036 47.18457 43.253796
33.301994 47.633923 43.469296
33.45084 47.445374 46.744835
33.468296 48.14212 43.845146
33.400017 48.416965 46.351257
33.58162 47.987503 46.659466
33.8576 48.578865 44.25632
33.387108 48.80191 44.723278
33.38986 48.898125 45.422615
33.302544 48.777943 45.96371
34.303707 15.840611 54.320953
34.151886 17.125576 50.14399
34.01528 16.444954 50.597057
35.01864 16.617357 54.737377
34.77067 18.100397 49.948997
34.5763 17.641453 54.75987
34.26992 18.565325 49.59477
34.388622 18.692482 54.29029
34.37514 18.034678 54.646645
34.38529 19.426065 49.778374
34.55401 19.517794 54.06758
34.373974 20.230112 50.11814
34.412098 20.554735 52.61257
34.512287 19.928968 53.709938
34.703167 20.848566 50.871742
34.58838 20.987074 51.5791
34.536427 20.794867 52.47311
35.271706 21.055143 53.139774
34.88429 32.142696 46.08393
34.96388 32.058125 46.517475
35.15744 32.125336 47.258396
35.38503 32.804733 39.530636
35.250763 32.767334 40.48554
35.323227 32.69359 41.360386
34.811443 32.52919 45.79667
34.610317 32.598316 46.51715
34.774147 32.685196 47.15694
35.304787 32.88193 47.87786
35.43582 33.464912 38.970695
35.31955 33.484764 39.57287
35.160007 33.405952 40.616394
35.229435 33.62219 41.24368
35.430626 33.675686 41.793266
34.82294 33.35542 45.720932
34.57502 33.24183 46.672615
34.746468 33.30787 47.213345
35.09564 33.377434 47.786213
35.299606 34.18225 40.72505
35.29496 34.083836 41.22811
35.044395 34.094967 45.914158
35.081818 34.54058 46.595417
35.06682 34.22698 47.36328
35.20768 33.94553 47.706436
35.223373 34.72376 46.2378
34.940926 37.95095 41.7359
34.80661 37.86241 42.30726
34.912876 37.89764 43.12949
34.5994 38.663208 41.699757
34.520084 38.24239 42.55394
34.475998 38.42098 43.21893
34.5765 38.90523 47.405907
34.90703 39.085175 47.808937
35.07334 39.453808 41.08425
34.670704 39.47501 41.46428
34.406048 39.653835 48.180737
35.016598 39.976276 48.994125
34.967945 40.52164 41.077633
34.632557 40.549347 41.562466
34.433414 40.4302 48.543865
34.969856 40.548244 49.17714
35.13779 41.46913 41.179134
34.664753 41.449554 41.734028
34.497673 41.51461 42.180115
34.717907 41.60709 49.04709
35.18406 42.28999 41.852802
34.72096 42.35111 42.643826
34.762604 42.42547 48.737026
35.234844 43.417843 42.16632
34.993286 43.06394 42.833534
34.607983 43.5859 48.09525
34.846428 42.9299 48.628517
35.060184 44.400055 42.331474
34.54942 44.384354 42.98446
34.318134 45.53646 42.84679
34.346508 45.43368 46.901287
34.567867 46.478313 42.78575
34.166313 46.675774 46.934227
34.73778 47.288555 43.093327
34.619923 47.28273 46.930267
34.30504 48.279846 43.92991
34.05313 48.546574 44.36743
34.311234 48.272114 46.291954
34.14838 48.00373 46.622475
34.316837 48.676407 44.67913
34.42906 48.679905 45.39615
34.202263 48.608803 45.963943
36.32363 13.311632 51.738132
36.209103 13.726625 50.903656
36.296654 13.391761 51.153816
36.287666 13.581947 52.437824
36.16501 14.70992 50.248367
35.10086 15.23485 53.6892
35.88522 14.63346 53.734818
35.8643 16.853037 54.80166
35.049633 17.441584 50.070576
35.37157 17.445524 54.88269
34.987938 18.862408 49.88371
35.10537 19.648281 49.852325
35.417492 19.395884 54.517822
36.028133 19.419645 54.84045
35.19808 20.202969 50.11029
35.62737 20.62358 50.418736
35.71079 20.237858 54.260452
35.44043 20.839651 50.85741
35.635227 21.129852 51.619884
35.34804 21.231352 52.88434
35.281914 21.123657 53.18865
35.79107 20.86491 53.913673
36.142143 21.585707 52.43876
36.366558 31.20508 38.07213
36.36748 31.09726 38.12812
36.134644 31.034855 39.683487
36.059105 30.990667 40.584682
36.19276 30.914333 41.272575
36.38277 31.679766 37.624405
35.855362 31.815079 38.824234
35.837517 31.687113 39.502865
35.70955 31.542234 40.434784
35.67715 31.83464 41.54703
35.42062 32.27011 45.293167
35.511944 31.89889 45.92743
35.58757 31.720839 46.64295
35.753536 31.881474 47.345177
35.768284 32.202816 47.87448
36.28927 32.548473 37.554848
35.705826 32.696236 38.70178
35.480404 32.442955 39.2806
35.63651 32.83825 42.191517
36.283295 32.439087 42.954002
35.97541 32.363808 45.11085
35.571526 32.68014 48.03013
36.013412 33.421623 37.954388
35.686565 33.694046 38.546017
35.865936 33.813786 42.371883
35.33826 33.433033 45.238144
35.548294 33.46945 48.109314
36.07393 34.386677 38.14784
35.750607 34.43557 38.65366
35.570866 34.434288 39.513058
35.545464 34.49866 41.443535
35.655216 34.252052 42.026413
35.74687 34.040382 45.166996
35.39981 34.51741 45.876286
35.344543 34.310688 47.660046
35.866932 34.36444 47.94462
36.40057 35.721687 38.02971
36.09072 34.864677 38.483444
36.182304 35.39167 39.66882
35.94681 35.07891 41.110424
35.80608 34.982136 46.01701
35.499397 34.846264 46.233505
36.320694 36.75862 37.689667
36.14557 36.644405 38.556644
36.25495 36.022934 39.607502
36.353115 36.782043 40.454754
36.336605 37.552456 37.695873
36.132008 37.383793 38.543568
36.025288 37.570568 39.170338
35.44561 37.97054 41.17266
35.700775 37.577194 43.276142
36.39977 37.32368 46.510452
35.847115 37.95672 47.014137
36.206036 38.067566 38.713615
35.83332 38.813046 40.441055
35.35294 39.65676 40.86264
35.589413 39.84962 49.229687
35.549225 40.60794 40.643536
35.382298 40.59431 49.426487
35.695496 40.58445 49.553856
35.644604 41.303894 40.70466
35.591595 41.41992 49.40507
35.74513 41.166256 49.549522
35.641888 42.718758 41.520252
35.454967 42.159794 49.108513
35.94229 43.809204 41.75545
35.829773 43.218506 48.526875
35.270245 44.79908 42.227123
35.485596 45.293285 42.096016
35.58256 46.443207 42.53055
35.080853 46.157806 47.031094
35.34752 47.454365 43.16056
[...]
POINT_DATA 11040
SCALARS features_00 float 1
LOOKUP_TABLE default
0.79204714 0.8029289 0.72901756 0.6279982 0.7966049 0.8092027 0.72912467 0.6285872 0.78924835 0.8213134 0.8145866 0.70458007 0.5747956 0.7723834 0.7771102 0.7409538 0.6194444 0.54655874 0.755182 0.7399828 0.6850507 0.72728646 0.7570425 0.83368355 0.8521484 0.71977496 0.79798454 0.89212763 0.9470266 0.83035654 0.8050257 0.9392836 0.9941267 0.89971787 0.8553792 0.9671389 0.98202854 0.9265608 0.97306097 0.73721707 0.70281947 0.60548365 0.55083525 0.7262063 0.7412902 0.57810414 0.5380788 0.73774946 0.5192257 0.7487114 0.54505664 0.5059699 0.45165092 0.7328049 0.7153121 0.6594053 0.5074117 0.45054615 0.69797254 0.6910397 0.62256956 0.51013196 0.61139387 0.61828357 0.57359606 0.47602665 0.5899962 0.6470532 0.591565 0.52294624 0.36711687 0.5634035 0.6470226 0.5929018 0.5364964 0.59784424 0.5335057 0.2083207 0.65909374 0.578988 0.6440106 0.6816262 0.6536507 0.7202648 0.78728294 0.7050331 0.77572966 0.8986474 0.85747886 0.7505099 0.898494 0.93915284 0.90983236 0.72179615 0.65232015 0.61840653 0.67594635 0.5390165 0.62359697 0.5015627 0.6697664 0.4932274 0.48439676 0.6783792 0.40276465 0.6987786 0.4179904 0.37929076 0.65889615 0.63695025 0.4729837 0.40572685 0.6160798 0.5695884 0.82009387 0.82586217 0.42350674 0.39861566 0.5622318 0.5370636 0.48844963 0.40424037 0.391936 0.3403276 0.3585679 0.5231967 0.5669651 0.52340215 0.48879373 0.35922968 0.30248126 0.24288428 0.49045455 0.4636852 0.2713682 0.14027599 0.22555017 0.4910111 0.4688835 0.18361294 -0.015981767 0.03759635 0.19019076 0.49472845 0.4705876 0.44226995 0.46320668 0.19355966 0.40310597 0.25778076 0.38441426 0.43676353 0.50325286 0.57719135 0.62621665 0.6206875 0.66698426 0.768823 0.6793798 0.65881354 0.78683996 0.8347652 0.8331164 0.4923013 0.5345038 0.52821624 0.42754737 0.46829307 0.4548178 0.57618344 0.39139923 0.43641865 0.5896335 0.37799072 0.58622295 0.42415643 0.3786739 0.54078853 0.5104157 0.43405658 0.37691227 0.8090573 0.7912148 0.7505883 0.42776915 0.46633387 0.4520918 0.82383156 0.82348853 0.78609824 0.6945375 0.37232265 0.41041356 0.44572413 0.42057455 0.3918776 0.7911836 0.81889474 0.7798414 0.70492554 0.4002116 0.40133166 0.7073164 0.75783473 0.75920594 0.69468284 0.67187256 0.4374487 0.4457993 0.41472042 0.42563906 0.43587726 0.38855064 0.40498817 0.39056158 0.395804 0.408839 0.45238644 0.43853986 0.38897824 0.3781701 0.4615682 0.4473237 0.34853464 0.32252812 0.2902962 0.45233148 0.25547007 0.1915848 0.44096094 0.10600027 0.0975144 0.36068022 0.41829133 0.10084333 0.11285885 0.29374215 0.24784416 0.35318694 0.42944762 0.44556558 0.48732632 0.55051994 0.6350673 0.66906786 0.6300187 0.624912 0.6682068 0.7170625 0.5677673 0.53130853 0.55630124 0.5774606 0.40147462 0.39088497 0.34254664 0.31221884 0.35400075 0.39440697 0.4523943 0.44965714 0.42365235 0.43735486 0.4557399 0.4004363 0.41318744 0.45943815 0.43081665 0.37736753 0.37439138 0.37843952 0.31832114 0.42734396 0.4224159 0.36194932 0.35356444 0.33088607 0.45349517 0.39717358 0.39323872 0.41176784 0.45655176 0.7819871 0.7447466 0.6946019 0.64241815 0.6320144 0.41379178 0.39062193 0.41220108 0.3931839 0.34473833 0.6947296 0.6545743 0.32367867 0.32571456 0.3397608 0.72499216 0.6142236 0.221763 0.26275012 0.3309617 0.36952686 0.34877345 0.52635694 0.61123735 0.6791264 0.5123133 0.121334076 0.19491157 0.20603818 0.3269653 0.47396517 0.6036239 0.20136794 0.17790236 0.14110497 -0.021803342 0.26736075 0.21284206 0.12469357 0.35660815 0.35298765 0.039622784 0.1587228 0.19488707 0.26586962 0.3773588 0.41353756 0.35907963 0.43158853 0.4147773 0.32747334 0.42383745 0.41679814 0.20324442 0.41257438 0.0850634 0.29555312 0.13143782 0.16044453 0.2597074 0.24016327 0.39569244 0.37196842 0.42240155 0.4818989 0.55756855 0.553481 0.47585717 0.55456966 0.6241434 0.5618817 0.5911403 0.6298032 0.63349944 0.57270014 0.48756853 0.52837825 0.5416107 0.4460135 0.41371545 0.3531124 0.2461355 0.24029247 0.25821063 0.25115412 0.2579893 0.2595988 0.32746422 0.11942073 0.33134758 0.12016188 0.42708898 0.28776395 0.32993552 0.07683637 0.1983616 0.3312955 0.7309757 0.78996813 0.060208745 0.65791374 0.8001566 0.8011961 0.4343124 0.65499556 0.75448316 0.76481915 0.42087176 0.5838411 0.6979475 0.7086846 0.4153206 0.3672856 0.29542914 0.2732572 0.22158593 0.5021771 0.45939958 0.39577746 0.3389334 0.29693672 0.28085807 0.24841902 0.4703479 0.4976166 0.46061808 0.49842477 0.5294338 0.40585148 0.41191417 0.4294389 0.5210711 0.32730234 0.30928254 0.34844458 0.1569076 0.263797 0.1966794 0.17319746 0.38786447 0.07881503 0.16776001 0.12719168 0.23564105 -0.34404716 -0.050223693 0.02782236 0.04589688 0.3849837 0.3323847 0.05094762 0.18656245 0.3924145 0.36374766 0.3001085 0.2574672 0.3299514 0.30348036 0.19766274 0.09170112 0.34408104 0.34261167 0.037543066 0.37030432 0.15931678 0.19882672 0.34869766 0.3811134 0.14643097 0.36747253 0.051078953 0.18435699 0.06802164 0.13871829 0.25230408 0.19779426 0.16941825 0.2787016 0.2533422 0.28550753 0.3014355 0.30351326 0.23440263 0.45357043 0.6057328 0.6418253 0.648453 0.5257062 0.549248 0.59501505 0.6452817 0.58201 0.48730522 0.50369036 0.4513681 0.37811297 0.43740803 0.29186285 0.35995132 0.3170428 0.15644968 0.3324253 0.19409345 0.33164278 0.25911045 0.09574349 -0.00095406175 0.041695338 0.3443534 -0.026853 0.118409954 0.61367154 0.7760255 0.034912728 0.81071746 0.8363625 0.03590274 0.044594154 0.7353155 0.76653814 0.09323348 0.03507641 0.3516825 0.6339216 0.66545475 0.6800494 0.14871533 0.14454402 0.09911253 0.091764525 0.54906267 0.5874607 0.18474023 0.17204973 0.23859514 0.3886146 0.28200483 0.22778887 0.20161757 0.16947842 0.020429455 0.24965154 0.28414664 0.49128908 0.022481855 0.016060757 0.20390014 0.22930768 0.2433447 0.27844742 0.42184138 0.25182295 0.21965541 0.3567801 0.10134719 0.14607361 0.23997134 0.191301 0.11409267 0.112753995 0.59980106 0.5957639 0.11546984 0.09073892 -0.26215893 0.14492635 0.13523427 0.64762735 0.64257413 0.63721555 0.6180804 0.29217404 0.25591505 0.15674636 0.16442935 0.64558417 0.65257764 0.64932525 0.32342666 0.38259003 0.14428762 0.14045875 0.6353457 0.63640714 0.36514336 0.37521783 0.3132378 0.31763124 0.22076194 0.12834218 -0.036391154 -0.14051586 0.26304126 0.25843927 0.049668934 -0.08969616 -0.10924004 0.1633705 0.19976985 0.07326699 0.30068588 0.20123982 0.31389642 0.3208614 0.65281117 0.60409665 0.46795928 0.25734437 0.24970254 0.2788206 0.31575638 0.7517946 0.7260501 0.17844632 0.82315516 0.8392955 0.5995458 0.6281954 0.5409255 0.5714255 0.62096506 0.58500326 0.48421597 0.47603726 0.4383048 0.3818216 0.44099787 0.3341416 0.2747388 0.32807922 0.19864994 0.6282306 0.22452107 0.25154015 0.74862003 0.6594281 0.5246955 0.39624232 0.73081106 0.67417604 0.5131392 0.3979449 0.115402885 0.63573533 0.61119294 0.51734424 0.37242362 -0.02029683 0.13656414 0.5262178 0.33964697 -0.017828388 0.7947399 0.8187537 0.82829404 0.81062603 0.09265284 0.041401304 0.7874204 0.11664739 0.6250763 0.6642178 0.18826039 0.13838364 0.41420725 0.5378827 0.58588916 0.078810126 0.09937934 -0.044295132 0.073174894 0.122123584 0.111460626 0.14659508 0.17241988 0.16316676 0.15627927 0.2226697 0.4756205 0.5439382 0.33185813 0.24933288 0.19178365 0.09936931 0.14351308 0.11393503 0.10390329 -0.02090121 0.06308131 0.07164384 0.17152774 0.28603703 0.26290688 0.251313 0.37808558 0.07816666 0.03952112 0.16544083 0.2703292 0.32915363 0.0034905076 -0.19270498 0.0880283 0.23864299 0.27583498 0.2723931 0.18806598 0.21605031 0.16892232 0.072996534 0.08919336 0.14723113 0.40564704 0.40040335 0.39039916 -0.15839694 0.09839244 0.107705444 0.5080919 0.51777685 0.5600358 0.4729292 0.049272962 -0.05206389 0.10650893 0.09344889 0.625101 0.5550517 0.10853797 0.11681786 0.09384972 0.5774711 0.6197469 0.6243876 0.5811913 0.11440225 0.5358842 0.5789754 0.60280913 0.603837 0.28158066 0.051744986 0.028053738 0.5294094 0.26907492 0.05840215 0.1872002 0.21079153 -0.03089245 -0.124645576 0.116713285 0.44736367 0.40775067 0.36608803 -0.1432264 -0.177636 -0.36515254 0.50285566 0.48176712 0.007385905 -0.39866513 -0.19277266 0.52928513 0.49697405 0.3407281 0.059889883 0.51949394 -0.38644093 0.18225648 0.15449221 -0.084190205 0.29487115 0.40679932 0.17883667 0.33450955 0.3383955 0.58913636 0.61968577 0.46019477 0.17457297 0.30718827 0.3318643 0.7375263 0.74266326 0.75663555 0.20543483 0.13214418 0.10632712 0.20065996 0.29529315 0.8119548 0.8380952 0.8576184 0.82004374 0.6133567 0.83013904 0.86074543 0.86965847 0.80939925 0.6002122 0.60309654 0.49077126 0.51983976 0.49434644 0.5800305 0.5112837 0.42483434 0.42472714 0.43289816 0.37072545 0.3167802 0.22271134 0.24119157 0.6408503 0.6143509 0.37723282 0.18565103 0.73256534 0.6822585 0.6017289 0.4837327 0.38661817 0.26154658 0.20286265 -0.04487311 0.77891874 0.7488372 0.36404064 0.30618754 0.32971168 0.19481343 0.73738194 0.7627523 0.33734 0.37378395 0.3541668 0.17339732 0.13643733 0.12535864 0.6158718 0.60709226 0.31669062 0.3367318 0.36033303 0.3158107 0.2961371 0.049947992 0.7585064 0.47399127 0.52838486 0.42505425 0.3258623 0.28951186 0.26707584 0.28202125 0.75745755 0.24799964 0.23946574 -0.10357499 0.7555367 0.78040314 0.24476548 0.24820822 0.021461023 0.7501447 0.080738224 0.115914084 0.69326776 0.1459428 0.075150974 0.08248246 0.03163491 -0.004732061 0.08252778 0.09098825 0.14408523 0.6046385 0.637178 0.117044754 0.06927897 0.08011386 -0.019493068 0.009168907 0.038250815 0.111925855 0.06517901 0.3313172 0.5410538 0.5826052 0.47308916 0.4562948 0.4370324 0.35232335 0.13826689 0.13194165 0.444232 0.4551106 0.45167696 0.41289753 0.336168 0.21524116 0.09486402 0.2690761 0.26547462 0.35967952 0.36223406 0.30763254 0.23039886 -0.09804118 0.23819393 0.2770638 0.16742912 0.116834685 -0.06882574 -0.054241713 0.21623552 0.20655397 0.11902802 -0.013258085 -0.16708884 -0.2707527 0.20421937 0.32313728 0.3504867 0.3098505 0.19295354 -0.196345 -0.21979074 0.1574064 0.24778694 0.29708725 0.34310395 0.43767983 0.07537489 0.20356789 0.2737046 0.31512755 0.45758063 0.06632006 0.50151503 0.46969837 0.5008496 0.5049171 0.26055253 -0.064999275 0.43352064 0.43948886 0.47774976 0.48914072 -0.16969223 -0.012312926 0.24211648 0.22300279 0.039682712 0.3697369 0.45130765 0.34763536 -0.15861511 -0.1828979 0.47456855 0.49187988 0.018925307 -0.025642574 -0.09558003 -0.017746456 0.5087294 0.5304996 0.5230026 0.1289418 -0.23773706 -0.102447614 0.5133009 0.52405316 0.4870646 0.40330184 0.17329907 0.078932956 -0.10713648 -0.3813228 0.1328612 0.12999204 0.040444985 -0.117863655 -0.10593528 0.34900773 0.58710104 0.30801612 0.32208553 0.7064595 0.11389245 0.20164181 0.2943191 0.768806 0.57048833 0.34116304 0.79185224 0.8083184 0.7817435 0.7346096 0.58114755 0.4067577 0.4929431 0.49233913 0.4416453 0.3130629 0.430426 0.39397776 0.30103102 0.3700569 0.2079381 0.42920792 0.48034787 0.45612463 0.50431764 0.58880436 0.6020207 0.59899724 0.20871559 0.50628597 0.40928423 0.47261393 0.5518238 0.5694265 0.5568423 0.16297953 0.4695259 0.66127723 0.63890624 0.5482852 0.36608383 0.26553085 0.38714796 0.44740435 0.4068458 0.15514736 0.46416205 0.7169209 0.6811081 0.13065466 0.19118993 0.030589096 0.78101903 0.25711763 0.10908747 0.13555184 0.17146376 -0.056604534 0.7495961 0.27589864 0.19724095 0.10568472 0.4947286 0.24390918 0.12429911 0.0647099 0.18485376 0.30107534 0.25435987 0.16538359 0.060120255 0.5345724 0.69296014 0.20144269 0.19468054 0.23722106 0.21138655 -0.16089997 0.5495484 0.6811622 0.18702842 0.21319464 0.25508213 0.25410768 0.260729 0.04482951 -0.10360807 -0.06756281 0.5699403 0.6541351 0.22023134 0.26507849 0.26106274 0.15057729 0.09750271 0.09875913 0.08380006 -0.040320568 -0.016279377 -0.03921391 0.59704983 0.6496686 0.15085068 0.12918647 0.1473234 0.04314102 0.02792339 0.039049614 0.05404011 0.027364545 0.5254539 0.59310865 0.34345436 0.31611603 0.28803852 0.11206023 0.122961 0.46266496 0.49813917 0.36567563 0.45817524 0.38901982 0.34118354 0.24508098 0.17799912 0.41340566 0.1230987 0.33671245 0.36698425 0.20828755 0.272023 0.22851859 0.27460814 0.18104264 0.14079815 -0.24145664 0.33368248 0.2418525 0.22603667 0.361399 0.24742933 0.3959859 0.44443184 0.27708262 0.32130575 0.19619465 0.37052065 0.42401838 0.43068275 0.38934958 -0.13591756 0.4459873 0.45822257 -0.13749704 0.45502558 0.42137343 0.37856638 0.3611412 0.13952875 0.050549414 -0.15643731 0.37013224 0.18061414 0.19672422 0.28796858 -0.027292766 0.3505398 0.41634512 0.4608932 0.42657882 -0.024506122 0.45541805 0.5343656 0.5403424 0.46392226 0.4737103 -0.24778959 0.5756816 0.67381823 0.628265 0.600188 0.51807225 0.34365228 0.14266759 0.1313971 0.12134488 0.41943586 0.6641476 0.6407659 0.5674373 0.5015145 0.08144193 0.09766667 0.46640322 0.5213257 0.52500945 0.5221988 0.3094773 0.41397613 -0.1562708 0.6316481 0.46394956 0.2907853 0.69673645 0.6759623 0.63303006 0.547094 0.40842175 0.5656581 0.32040477 0.3829764 0.17726286 0.30244488 0.3363708 0.34154233 0.40946692 0.5937611 0.6088865 0.61903036 0.074470446 0.5366216 0.483649 0.5287212 0.5986168 0.6086957 0.61646163 0.56686795 0.38776377 0.42896172 0.5410227 0.40387565 0.5247917 0.5734872 0.5671494 0.36572644 0.21681505 0.3988338 0.67917675 0.11933607 0.08789733 0.13925087 0.0040480345 0.7493502 0.0641344 0.17940274 0.1455406 -0.07704649 0.13077487 0.121717006 0.23358455 0.1513293 0.53946066 0.1657722 0.1312451 0.19143 0.07060203 0.056149926 0.10266641 0.1882533 0.10761961 0.12792537 0.09805482 0.08765739 0.1359446 -0.22110328 0.04128394 0.2047158 -0.021346353 -0.049516916 -0.06960476 0.012456253 -0.073752426 -0.1725482 -0.20723492 0.30839208 0.49384546 0.28169295 0.25643632 0.18815435 -0.10981482 -0.054165833 -0.06358339 0.10183999 0.023834499 -0.033568803 -0.16506267 -0.241779 0.4937502 0.57657325 0.27800193 0.2589678 0.19143438 0.18476883 0.1250691 0.0726178 0.0063741505 0.05714993 0.028946579 0.00057502836 -0.21139577 0.4630565 0.5258132 0.28171167 0.21851489 0.09281108 0.09644304 0.11298709 0.022569276 0.4071511 0.47179025 0.514533 0.26308376 0.02422595 0.036137007 0.3171113 -0.08425082 0.06658448 0.81298125 0.80151653 0.31409496 0.35200238 0.81350046 0.3043409 0.35403597 0.11396971 0.40158337 0.03487376 0.44427437 0.08911082 0.4399902 0.42713982 0.24823685 -0.11388612 -0.09989247 0.4356747 0.31586462 0.27492982 -0.3073499 -0.073089674 0.38962743 0.51338273 0.47585642 0.32601562 0.36980626 0.6027163 0.32527247 0.4003595 -0.23419264 0.53539664 0.5846756 0.41645622 0.31565356 0.14322624 -0.011955887 -0.17461173 0.23326981 0.018366475 0.33125106 0.41667783 0.4495867 0.27205995 0.35484958 0.4747209 0.508792 0.45484978 0.41878128 0.04019162 0.48951074 0.43590134 0.29789636 0.16184123 0.12298612 0.33485526 0.49567896 0.44946042 0.43511036 0.040148497 0.024388328 0.20568767 0.38460904 0.4357742 0.43869737 0.4279808 0.42039692 0.009854279 0.36354536 0.36434832 0.34977347 0.36845154 0.2304711 -0.15496603 0.105722874 0.4473795 0.033986032 0.52709824 0.49917746 0.42665184 0.43691108 0.28004178 0.45980078 0.5414118 0.51352036 0.7600855 0.6988952 0.6326267 0.78312796 0.74939144 0.6859461 0.577121 0.18720713 0.77902794 0.73238933 0.61544645 0.5121661 0.44252458 0.39670366 0.13106814 0.18888688 0.18520108 0.20061144 0.23032108 0.29026362 0.7434689 0.66792774 0.58717036 0.48088354 0.44592428 0.39261478 0.3049753 0.019830793 0.38014787 0.52251077 0.5619817 0.58446956 0.62260354 0.51709473 0.48885846 0.42144915 0.38320154 -0.103761226 0.5075022 0.553074 0.4615607 0.52869225 0.6298489 0.6274229 0.5305986 0.4887935 0.42384315 0.40468824 0.37338856 0.57502294 0.34189817 0.4653437 0.55685794 0.5735493 0.09954615 0.20372632 0.18444572 0.17930646 0.18697158 0.15307488 0.37721932 0.5036724 0.047407232 0.2752127 0.2846529 0.6185779 0.48986796 0.27641767 -0.13105254 0.02743579 -0.005934667 0.26003444 -0.019424303 0.15470159 0.057727702 0.032283235 0.080218345 0.148403 0.09171231 -0.118675046 -0.057419993 -0.026502874 -0.08101228 0.004135105 0.22475973 -0.051207423 0.0070486274 0.0064637996 -0.04030679 -0.104184866 -0.10791658 0.1878947 0.33965653 0.31607592 0.28847188 0.030631166 0.21771145 0.41156316 0.31382906 0.29958844 0.005677605 -0.28349957 0.33447534 0.42471218 0.23235117 -0.0069111437 0.023485653 0.09500352 0.28696373 0.6902349 0.69711757 0.69739026 0.7020472 0.2156421 -0.20178455 0.0637497 0.7911086 0.7725682 0.7512965 0.7276569 0.7111857 0.25460413 0.27450085 -0.020672467 0.8244517 0.8196062 0.7870835 0.7478441 0.6985146 0.2903818 0.08313927 0.8282251 0.8282748 0.7968047 0.7262945 0.28202212 0.816746 0.80158794 0.7748587 0.7350414 0.27414662 0.313771 0.0566456 0.39091873 0.16330756 0.08999887 0.40873626 0.33535263 0.2655929 0.14959627 0.40464216 0.4064247 0.2734896 0.19151863 -0.29550356 0.41924524 0.23581612 0.14228278 -0.52741617 -0.45269352 -0.09316535 0.45590624 0.1963279 -0.34377927 0.21767843 0.38768148 0.48968595 0.28352413 0.33832976 -0.29756808 0.25113654 0.40436822 0.59709626 0.52029246 0.3408094 0.26110035 0.13007787 -0.25645658 -0.25312757 0.1972797 0.29038262 0.36040136 0.18243662 0.37769395 0.19642568 0.31194365 0.4225881 0.4392377 0.6783356 0.679016 0.14943215 0.03026604 0.45105 0.48211968 0.6975143 0.69737214 0.67335474 -0.06235901 0.1372699 0.09233284 0.25062945 0.38833708 0.45063508 0.5009268 0.7002976 0.7011062 0.68940324 -0.07620872 -0.026559062 0.1568488 0.18770868 0.32576373 0.29280385 0.19793941 0.2683418 0.34898615 0.4246002 0.039693255 0.27627566 0.28800747 0.42343473 0.5435052 0.39117908 0.3304903 0.46351305 0.5522055 0.6278934 0.54112184 0.6249391 0.64719695 0.6546351 0.798564 0.7647376 0.68692154 0.5848218 0.51542366 0.7983558 0.7854221 0.5474932 0.41923663 0.08195935 0.14073914 0.83466095 0.36119932 0.032713786 0.11759728 0.16614169 0.21802229 0.25696862 -0.022078488 0.267367 0.36095205 0.43520927 0.48081788 0.5224452 0.904853 0.5253077 0.39769703 0.4567482 0.61666656 0.3730163 0.51206124 0.269709 0.29236913 0.40923753 0.53115404 0.56234026 0.24330923 0.26116866 0.48662946 0.34974366 0.33803505 0.15369928 0.5342921 -0.0036181854 0.12036707 0.21767026 0.43737388 0.0146100335 -0.08648223 -0.04337347 -0.040553335 0.36437327 0.022302285 -0.051773548 -0.056508876 0.2796928 0.038820416 0.024890006 0.0067308545 -0.09201339 -0.08575966 0.25941935 0.023454979 -0.07939909 -0.15141807 0.21914093 0.17579931 0.039892897 0.061941817 -0.22924341 -0.16042763 -0.0757326 0.07759259 0.26075885 -0.093412235 -0.30689737 0.32722336 -0.41522324 -0.43289545 0.3343643 -0.34631726 -0.1562168 0.6435168 0.67167866 0.7051488 0.22459312 -0.09422319 -0.18963347 -0.050994474 0.61009514 0.64792764 0.6828495 0.70205724 -0.1177576 0.7098799 0.6810216 0.7313988 0.243976 -0.054737166 0.8015895 0.64387137 0.2564618 -0.037874825 0.8028585 0.56544465 0.12974893 0.0053061694 0.7797204 0.74813867 0.7099812 0.55088395 -0.018044721 0.1463536 0.080805406 0.059389226 0.35609856 0.3019752 0.20656244 0.3496243 0.2834275 0.30979186 0.34770095 0.3606391 0.2646442 0.35400668 0.19698226 0.19813876 -0.5359416 0.05434349 0.39474684 0.38367075 0.018798545 0.0415695 -0.5044417 0.015014395 0.44262275 0.4159894 0.09962104 -0.45754266 0.45597467 0.42487544 0.12354523 0.18934807 -0.43076932 -0.5703813 0.3516656 0.05722099 -0.28132123 0.1446919 0.20610169 0.19270585 0.1317739 0.555825 0.53582215 0.19318002 0.45699227 0.63796115 0.6540771 0.6367743 0.6176132 0.52509415 -0.0320445 0.008570123 -0.112023294 0.5050094 0.64227253 0.6860701 -0.09547866 0.014194511 0.53527427 0.6606741 0.68873 0.69877326 0.67656386 -0.119674146 0.052467726 0.046485703 0.035948504 0.3967449 0.51033837 0.5405185 0.67844915 0.6790539 0.6600585 -0.13195367 0.16069078 0.18079782 0.2972868 0.4420667 -0.037343055 0.5645563 0.5565173 0.43610072 0.06330006 0.2963346 0.6432369 0.67726237 0.35687685 0.56894004 0.66051364 0.7150037 0.7241957 0.6303899 0.66589373 0.7363603 0.82057446 0.8142239 0.73468375 0.61893785 0.4748588 0.30551523 0.25516057 0.19716269 0.8213264 0.38491455 0.11421822 0.061194465 0.10473024 0.033673808 0.82479817 -0.098640844 0.11529624 0.41780704 0.35296106 0.6183006 0.14869478 0.26018628 0.31476545 0.36555094 0.09980477 0.2554642 0.1648058 0.06777361 0.37479785 0.4116245 0.39711744 0.35