# vtk DataFile Version 2.0
Really cool data
ASCII
DATASET POLYDATA
POINTS 10969 float
-10.729201 27.812107 17.856535
-10.70953 27.78352 18.476013
-10.756756 28.482374 17.781221
-10.850676 28.62267 18.391064
-10.672944 28.513542 18.977417
-10.662561 29.320507 17.84264
-10.764264 29.536339 18.520216
-10.653764 29.555273 19.053394
-10.588591 29.885782 18.023958
-10.624579 30.084639 18.528301
-10.221489 27.0649 17.852655
-10.182852 27.05259 18.407955
-10.090918 27.18725 18.872852
-10.412285 27.714476 17.255625
-10.526207 27.631437 17.547647
-10.494214 27.353783 18.410187
-10.223323 27.69917 19.10506
-10.418629 28.136375 17.117727
-10.512581 28.426802 17.32629
-10.416588 28.608665 19.299543
-9.957469 28.689766 19.625525
-10.093451 29.235878 17.112568
-10.485141 29.523706 17.668905
-10.442334 29.610731 19.34671
-10.000713 29.513584 19.69915
-9.88699 29.98441 17.300646
-10.261805 30.160372 17.856262
-10.396737 30.407442 18.583233
-10.243754 30.272842 19.248827
-10.070599 29.899742 19.642612
-9.978038 30.630241 17.95976
-10.065868 30.684814 18.652552
-10.030691 30.68027 18.999554
-8.793223 20.241432 11.714314
-9.015764 20.942501 10.886039
-9.08078 20.738358 11.44615
-8.908534 20.650509 12.3588705
-8.6773815 21.402536 10.010077
-9.081207 21.441288 10.814085
-9.320553 21.51851 11.579272
-9.276977 21.356499 12.143433
-8.909242 21.64075 12.915584
-8.778774 22.145212 10.317263
-9.152851 22.36943 11.62576
-9.128603 22.225554 12.266138
-8.920569 22.467947 12.861941
-8.663365 22.871357 10.796076
-8.829192 22.99025 11.496573
-8.742891 22.887173 12.831644
-8.695135 25.628325 12.893318
-8.682516 25.7489 13.26667
-8.766217 26.172344 17.256609
-8.954459 26.726313 12.0876
-8.980011 26.523802 12.357285
-8.92172 26.663584 13.104551
-9.689594 27.10361 17.142479
-9.280674 26.579582 18.06498
-9.657914 27.151335 19.121513
-8.739404 27.180874 11.974836
-8.841053 27.261944 12.584941
-9.235383 27.58421 16.62795
-9.571313 27.46294 19.324923
-9.451383 28.503113 19.78258
-9.534232 29.329218 16.772156
-9.559554 29.540735 19.830517
-9.444927 30.143768 17.175222
-9.497984 30.467562 19.500013
-9.547926 30.185781 19.673187
-9.586213 30.782955 18.1041
-9.683444 30.825417 18.264393
-9.526689 30.743689 19.151611
-7.7298713 19.385101 12.631071
-8.065492 20.039553 10.87129
-8.352258 20.041082 11.32914
-8.265993 19.871279 12.45669
-8.090853 19.911543 13.244714
-8.028206 21.128845 9.25017
-8.188228 20.909588 9.650059
-8.483651 20.64266 10.3509865
-8.324215 20.45834 13.379201
-7.796441 20.5446 14.131844
-7.9923964 21.532179 9.160705
-8.354925 21.341436 9.607205
-8.507714 21.489988 13.515243
-7.8673487 21.671017 14.078459
-8.131472 22.28682 9.294897
-8.261702 22.374445 9.581746
-8.180875 23.009077 9.8950615
-8.005425 24.02843 11.566901
-8.170412 24.587791 13.361688
-8.068686 24.768745 14.324488
-7.82391 25.633135 11.188262
-8.554423 25.946686 11.735396
-8.403447 25.664104 14.418113
-7.9599323 25.311495 15.134649
-8.081201 26.079147 18.362936
-7.9666386 26.780964 10.8459635
-8.406309 26.889477 11.390899
-8.221282 26.554926 16.007236
-8.030172 27.372196 10.99852
-8.198886 27.565449 11.394189
-8.598918 27.544771 12.52284
-8.289782 27.464174 14.924463
-8.738918 27.304436 19.152138
-7.796586 27.854778 10.944995
-8.040548 27.917915 11.716302
-8.153877 27.925726 12.358816
-8.076419 28.166431 15.037402
-8.698966 28.751467 19.938784
-8.302631 29.400772 16.08462
-8.062026 28.983854 19.917078
-7.8420715 30.204182 16.076595
-8.7279825 30.291645 19.530098
-8.594396 30.011213 19.723925
-8.500372 30.829954 18.363138
-8.747397 30.763464 18.986216
-7.688621 36.11656 16.211529
-8.028441 36.035366 17.591896
-7.9218707 36.067142 18.133213
-7.8515725 36.56808 15.8154545
-8.274682 36.695625 16.830591
-8.285595 36.555996 17.532654
-8.115101 36.634884 18.075111
-7.741086 37.91036 15.2213
-7.8799076 37.586308 15.414363
-8.343706 37.363735 16.924376
-8.293723 37.50009 17.419888
-8.01179 37.37893 18.315233
-7.7250147 37.348022 18.753357
-7.811529 38.32759 15.6696205
-7.9471803 38.34004 16.512825
-7.954632 38.241154 17.34408
-7.6921725 38.291588 18.262224
-7.487456 19.330256 12.779519
-7.363876 19.33196 13.551681
-6.919012 20.319923 9.269254
-7.0476155 20.231682 9.504437
-7.7221055 19.99429 10.414013
-7.693279 19.639236 11.447442
-7.5855765 19.463913 13.383227
-7.370049 19.75967 14.135977
-7.378626 20.866756 9.0637455
-7.6338444 20.461348 9.454497
-6.8063874 20.469933 15.363413
-7.456439 21.489248 8.834101
-7.0578985 21.814709 15.10296
-7.5233626 22.458595 8.938761
-7.525628 22.767977 13.955673
-6.653734 22.71104 19.42139
-6.6636214 22.80464 20.635082
-6.5612 22.810255 21.105
-7.2272134 23.108034 9.136408
-7.6119485 23.289644 9.57911
-7.4657354 22.937769 14.075178
-6.5986166 24.219713 16.558672
-6.7237434 23.48602 18.75923
-6.885543 23.403854 19.609625
-6.8316774 23.330128 20.330833
-6.841087 24.110264 10.01177
-7.246937 25.27466 17.32484
-6.839151 24.28665 18.705769
-6.909656 24.421516 19.831688
-6.703936 24.343704 20.49211
-7.4056168 25.684038 18.56276
-7.3227267 25.625208 18.96904
-6.5940733 25.606922 20.201126
-7.1024275 26.610212 10.124037
-7.655233 26.383232 10.661182
-6.8998685 26.459185 19.52812
-7.1147156 27.183546 10.077346
-7.480604 27.55144 10.360586
-6.9405956 27.93586 10.213919
-7.1408706 28.272898 10.845496
-7.069615 28.39349 11.626244
-6.6699667 29.428152 13.131603
-7.0504794 29.276445 13.903468
-7.522154 29.096413 20.035538
-6.914484 29.989328 14.154513
-6.6579256 30.119377 14.3304825
-7.876739 30.36583 19.148521
-6.6407304 30.996738 15.477986
-6.957015 31.541649 16.544207
-7.7460303 30.701754 18.533041
-6.6475873 32.139824 15.6148405
-7.0925837 35.25494 15.690879
-6.597476 34.195713 16.780804
-6.8308206 34.50665 17.134573
-6.785576 34.813656 18.544102
-6.6914496 35.09794 18.947287
-6.8526745 35.39911 14.918206
-7.4786067 35.579803 16.48857
-7.449141 35.450916 17.551495
-7.4716024 35.693295 18.361137
-6.982508 36.668507 14.148987
-7.3031216 36.66988 14.730631
-7.329913 36.632645 18.987846
-7.40333 37.76108 14.700643
-7.3188043 37.630848 18.980324
-7.0077367 38.00442 14.36687
-7.132277 38.463333 14.729713
-7.5416746 38.682064 15.404607
-7.1742024 38.476185 18.623192
-7.087871 38.228794 18.856565
-7.186164 38.71243 14.89312
-7.1888795 39.06937 15.637446
-7.1915483 39.122986 16.215168
-7.3642077 38.867924 17.546612
-7.1101775 38.82249 18.177883
-5.901879 19.37617 10.436499
-6.4498777 19.05547 14.460299
-5.988925 18.844536 15.072309
-6.4388037 20.311897 9.270184
-6.376524 20.005777 9.638356
-6.367961 19.631296 10.4952965
-6.3546247 19.314423 14.724242
-6.309527 19.7607 15.392085
-5.9220495 19.792253 16.40545
-5.6761346 19.909874 17.006384
-6.4567533 20.855507 8.888539
-6.3626423 20.412554 15.758928
-6.099465 20.362476 16.580856
-5.814373 20.249273 17.167953
-5.675176 21.247038 18.153093
-5.6743813 21.366001 20.554672
-5.7577543 21.316465 21.311403
-6.577304 21.491066 8.683938
-5.835698 21.32435 17.405968
-5.8202662 21.653278 18.504303
-6.023262 21.755142 19.81363
-6.0859356 21.772596 20.519564
-6.0206747 21.850449 21.658487
-5.819295 21.740421 22.145336
-6.4676127 22.30648 8.702704
-6.039112 23.02198 16.060566
-6.4962416 22.324833 19.643202
-6.526117 22.485521 20.466574
-6.340764 22.524012 21.401735
-5.889763 22.394981 22.321157
-6.3995247 23.34316 9.088356
-6.5628147 23.147089 15.1783495
-6.3912807 23.193573 17.657204
-6.3661294 23.28103 21.486876
-6.0474 23.164999 21.95457
-6.3253 24.457209 21.209356
-5.69795 24.133797 21.67988
-6.4985166 25.647148 10.13332
-6.24934 25.212208 21.21627
-6.0297875 26.358416 21.12346
-6.5705037 27.186314 9.911316
-6.0752835 27.390873 20.406803
-6.433256 28.04378 10.223664
-6.66651 28.28672 10.527975
-6.671703 28.794523 20.000929
-6.4095135 30.096668 13.443728
-6.676373 29.872786 19.390299
-5.975628 31.642376 14.709185
-6.448414 30.900349 18.441887
-6.0766616 32.506584 15.168128
-5.6758094 32.34465 18.596365
-6.1420135 33.449078 15.634887
-5.820786 33.700447 18.905617
-6.3565817 34.493275 15.0239935
-6.5062957 34.243176 16.171053
-6.4034724 34.6889 19.10768
-5.8679404 35.980106 12.825252
-6.4309707 35.805916 13.652527
-6.4004583 35.653595 19.431824
-6.004072 35.747368 19.560205
-5.8594112 36.625755 12.559315
-6.453278 36.440716 13.50386
-6.5216894 36.374664 19.392206
-6.0409775 36.03839 19.521465
-5.865115 37.072235 12.526779
-6.2709527 37.353928 13.304044
-6.4439077 37.63511 19.26115
-6.3288074 37.821987 13.945251
-6.6179786 38.593693 14.544842
-6.802319 38.618835 18.632803
-6.5580873 38.37861 18.893402
-6.0050335 38.92669 14.577614
-6.3281894 39.355114 15.560635
-6.4529824 39.416695 16.542395
-6.18667 39.373505 17.132717
-6.474187 38.91679 18.19056
-6.6922956 38.6368 18.710623
-5.9707084 39.54925 15.96316
-4.732059 16.35998 13.678874
-4.9737744 16.973965 12.964808
-5.054979 16.737133 13.637869
-4.915048 16.651709 14.169835
-4.8229375 16.918863 14.745172
-5.5248303 17.54555 13.669071
-5.323189 17.626022 14.605534
-4.9510403 18.072311 15.397037
-5.2400527 19.372307 10.200166
-5.1646004 18.300922 15.46872
-5.255784 18.917479 15.945417
-5.500035 20.13917 9.244961
-5.516041 19.812319 9.591686
-5.545911 19.41752 16.486187
-5.287489 19.745337 17.320616
-5.022627 20.120115 17.872183
-5.5359416 20.636402 8.907143
-4.938285 21.21557 18.848032
-5.1866884 21.021832 20.60921
-5.3721538 21.085783 21.44232
-5.1008887 21.08534 22.286083
-5.4275374 21.541204 8.615979
-5.6811166 21.394712 20.22715
-5.541782 21.533876 22.371126
-5.222206 21.782747 22.841614
-5.181056 22.469189 8.43901
-5.631567 22.104225 22.642803
-5.398407 22.37169 22.871037
-5.105548 23.309687 8.629075
-5.6254086 22.894241 22.544842
-5.6205335 23.770618 9.393041
-5.1945868 25.586384 22.482906
-4.9439764 25.570488 23.179256
-5.659747 26.655642 9.794644
-5.247149 26.861454 22.417475
-4.8436985 26.171486 23.417892
-4.597711 26.41381 23.937708
-5.938773 27.338139 9.829555
-5.41223 27.415207 21.280338
-5.450984 26.961048 21.874119
-5.666665 28.317024 10.464671
-5.01667 28.449352 22.697939
-4.9094787 28.359282 23.61558
-4.7073717 28.590725 24.100174
-5.424569 28.639542 11.128418
[...]
POINT_DATA 10969
SCALARS features_00 float 1
LOOKUP_TABLE default
0.7999544 0.83303875 0.81947285 0.88525796 0.91191673 0.8212078 0.9105371 0.94371486 0.8408152 0.898859 0.71967196 0.7307267 0.7396039 0.7265161 0.7573781 0.7878548 0.8074718 0.7221793 0.7575384 0.9010524 0.8470384 0.6924962 0.79107416 0.9334275 0.87328 0.7087743 0.8157314 0.89788204 0.91363263 0.89121044 0.83413154 0.8925982 0.8943968 0.59059376 0.6359324 0.63931 0.59451854 0.61111975 0.6429241 0.65752065 0.63197124 0.53161645 0.6058972 0.6099717 0.577327 0.4601923 0.54212683 0.52519846 0.38771617 0.39454943 0.34066203 0.3348567 0.4831701 0.47802812 0.41754317 0.6226332 0.5511526 0.67579895 0.48686653 0.4546675 0.50872725 0.7083752 0.7767023 0.5755431 0.80339086 0.6487124 0.83078516 0.82684463 0.83527195 0.8536251 0.8448162 0.42998254 0.56174004 0.5737159 0.5049849 0.41777873 0.5939945 0.59047985 0.5956911 0.45663893 0.3255124 0.6018074 0.6042807 0.44969937 0.3077287 0.59498143 0.59075415 0.5346676 0.29055783 0.14933419 0.055227295 0.418843 0.4671551 0.17014383 -0.01837895 0.18512788 0.5136089 0.4955805 0.14692226 0.5187354 0.50268257 0.44261762 0.1984135 0.5174633 0.5219586 0.47248167 0.41840103 0.1102767 0.6689352 0.14104803 0.5550546 -0.028341416 0.688708 0.65300703 0.70185983 0.73399305 0.44565645 0.57714504 0.60761404 0.518476 0.6281641 0.653343 0.6823883 0.55292815 0.56872237 0.72660774 0.76266664 0.7518672 0.7200328 0.6333483 0.74815637 0.7879864 0.7106919 0.37887397 0.290216 0.49426967 0.49689513 0.5339148 0.51853395 0.34436217 0.24890698 0.55781686 0.5507835 0.16389173 0.5900835 0.11571201 0.58050394 0.15214123 0.3015226 0.39148903 0.41176283 0.50068116 0.4859556 0.09525901 -0.1729627 0.21230657 0.3040173 0.3474644 0.26419982 -0.0039393995 0.10077155 0.21373528 0.2654451 0.02222231 0.01827468 0.08176617 0.50495064 0.50063723 0.019525018 0.53065526 0.54009724 0.52986586 0.50930667 0.4253668 0.05504162 0.02288235 0.45793724 -0.028265452 -0.04170175 0.5186997 -0.105742924 -0.022748824 0.49482033 -0.13152155 0.23704416 0.18433693 0.31319755 0.3992216 0.408557 0.24421802 0.36984086 0.47531682 0.55138034 0.36875254 0.41821265 0.64225847 0.48110148 0.67443043 0.47723666 0.54323804 0.61161566 0.6508471 0.6420704 0.56825876 0.64291835 0.6974691 0.7056086 0.64120805 0.33657718 0.10566923 0.090362325 0.45338553 0.4273923 0.39609933 0.101080135 0.11016207 0.09555256 0.08635437 0.48815268 0.13270718 0.10273908 0.0887115 0.0763589 0.40088224 0.49353194 0.5416776 0.06446183 0.12911867 0.299232 0.39959544 0.4904508 0.5231447 0.5423231 -0.18528901 0.3112796 0.39427584 0.44361097 0.48168868 0.4165841 -0.14085874 0.089731246 0.3832386 0.3924021 0.24203502 0.23685572 0.32198796 0.12819348 0.049895138 0.51084864 0.0020549148 0.5001266 0.50135434 0.23768008 0.001807794 0.33703133 -0.08081218 0.16677625 -0.13896288 -0.17448667 -0.09656344 0.034600716 0.0764948 0.10970695 0.30436456 0.31581992 0.2926996 0.42201215 0.37997943 0.355665 0.32911038 0.55729055 0.4442202 0.37897378 0.35545346 0.6052256 0.41787323 0.53302765 0.6144744 0.5893713 0.5240458 0.5780651 0.6052917 0.57154 0.58277917 0.60221875 0.5367698 0.49287832 0.55902255 0.49693453 0.42153084 0.31005442 0.40047887 0.25173742 0.12317359 0.28851086 0.10183205 0.07289863 0.38145378 0.35694253 0.084704876 0.07864493 0.06104947 0.41634113 0.15645717 0.41044664 0.526718 0.57116735 0.45181724 0.34818423 0.5522204 0.55278325 0.45105135 0.5205487 0.4957575 0.4089947 0.41385067 0.32928085 0.09981222 0.12129747 0.40780064 0.100164 0.13394386 0.13763572 0.47311515 0.028233677 0.06882456 0.41910648 0.2368709 0.2486704 0.2663922 0.339445 0.20886311 0.29332364 0.33722162 0.3284785 -0.0026511997 0.32661617 -0.019093167 -0.09460461 0.03844191 0.062890545 0.12144129 0.35286748 0.2509715 0.4232114 0.54218435 0.49087197 0.46406 0.4482994 0.55865127 0.4856018 0.5032324 0.52459157 0.4546461 0.49528158 0.48888355 0.52175444 0.53673375 0.4973898 0.51150984 0.5210934 0.50032127 0.4228049 0.500011 0.3825267 0.22670954 0.3693225 0.16314243 0.076768935 0.07044996 0.023272779 0.035889905 0.34858406 0.30362535 0.20422125 0.3961187 0.33202946 0.19187859 0.3942425 0.53169477 0.53296244 0.4790831 0.43272913 0.42937008 0.47055584 0.42850748 0.42548272 0.39521468 0.37328035 0.35952848 0.08723958 0.19251683 0.25908408 0.24291429 0.18499398 0.23877294 0.14802971 0.19436012 0.1709285 0.14116715 0.35253847 0.26232314 0.2641492 -0.011463769 0.33093214 0.28448993 -0.11438692 0.30219004 0.35291922 0.35116214 0.3159094 0.0879009 -0.003520297 0.018339468 0.20456204 0.32142493 0.31746656 -0.02372459 0.030018017 0.0887973 0.07696305 0.12115552 0.23735349 -0.072388396 -0.10321207 0.098910525 0.11270528 0.08218517 0.27950412 0.17716311 0.13411398 0.41316414 0.23733005 0.20071505 0.51481104 0.2802313 0.5989071 0.28353837 0.64722824 0.62968695 0.3697294 0.43516707 0.61231834 0.5629593 0.47343034 0.39900365 0.42701542 0.43092108 0.4642089 0.42662483 0.39386907 0.4909354 0.22337225 0.31240204 0.39898252 0.043915432 0.0460355 0.22832377 0.040446192 0.058194026 0.037617847 0.19345032 0.19335976 0.3691271 0.048450604 0.19476922 0.4505995 0.40036863 0.3608597 0.4100653 0.124836944 0.18997142 0.24634846 0.40225285 0.3946232 0.2121616 0.26848674 0.27728057 0.32043514 0.25879076 0.23977017 0.26127148 0.165248 0.2427139 0.18775585 0.18967387 0.18741459 0.21935147 0.09919802 0.17837845 0.26706445 0.13872914 0.2406541 0.37675035 0.24746054 0.18158734 0.104102395 0.29295808 0.25047696 0.41982758 0.30321905 0.17237547 0.20079541 0.26315606 0.2395967 0.14967172 0.10780753 0.14944366 0.13348937 0.15563628 0.43870717 0.20391572 0.5278294 0.16437717 0.20929444 0.6265301 0.13505132 0.19214079 0.6691333 0.2886059 0.6330861 0.5701552 0.47105578 0.31903037 0.33754006 0.592213 0.58303773 0.5816345 0.5842531 0.55662984 0.5084339 0.55125314 0.5615206 0.5322599 0.4260521 0.33185637 0.5057522 0.19332021 0.08716419 0.5722437 0.5880623 0.22193947 0.085051924 0.06039874 0.020104863 0.5956433 0.61260176 0.28867304 0.3297701 0.0072841216 -0.02012546 0.61108005 0.6178323 0.22186181 0.2973584 0.03742276 0.1302109 0.042490903 -0.021950971 -0.07055797 -0.07078481 -0.3848022 -0.09715975 0.30619746 0.35808432 0.3253979 0.1074503 0.2300486 0.16536875 0.17820573 0.25307834 0.29538625 0.27842057 0.22533351 0.25819144 0.20955324 0.17042392 0.20392215 0.14863421 0.12234325 0.16862375 0.08446708 0.05908245 0.0685962 -0.00536824 -0.007235778 -0.073796585 0.20532796 0.20799421 0.08530102 -0.048655048 0.58481294 0.10629105 0.68916905 0.7399252 0.7600252 0.5997268 0.5256101 0.45739174 0.20376997 0.7042011 0.75984776 0.7739079 0.5589285 0.41342327 0.20677327 0.20264542 0.7114427 0.74803615 0.7641709 0.50667846 0.42674524 0.27310792 0.1851021 0.18167862 0.092704386 0.19548988 0.20786697 0.19320388 0.25391808 0.2634976 0.22881053 0.45916665 0.4410494 0.10499334 0.20728588 0.2592303 0.5643495 0.064391166 0.610309 0.5898814 0.2189203 0.15067485 0.5880057 0.5444187 0.47376224 0.35125768 0.41651177 0.4690869 0.5949836 0.59866714 0.583382 0.5343577 0.41651952 0.4091745 0.4713571 0.46568203 0.41868725 0.57394034 0.59435296 0.5004289 0.34257048 0.46408156 0.4541935 0.3994071 0.48741263 0.1569859 0.20594995 0.36278504 0.4086305 0.3741168 0.32662207 0.40029764 0.4194135 0.4653647 0.23084594 0.44613105 0.009475574 0.14305483 0.28291833 0.3074469 0.28636786 0.1814485 0.26509225 0.393734 0.49888647 0.53637576 0.57057416 0.58646303 0.037656493 -0.04471665 0.030509833 0.1714449 0.19614628 0.16515887 0.034812436 0.21613106 0.40581867 0.5372465 0.5699824 0.61715746 0.62995005 0.14591488 0.101306014 0.14403662 0.13892497 0.206258 0.31557095 0.5344958 0.60526174 0.63574374 0.62913084 0.13131821 0.0703292 0.11064881 0.13186151 0.14157261 0.14062345 0.5407828 0.61022824 0.6414837 -0.17210042 0.011698676 0.07268133 0.13825794 -0.28370905 0.2994779 0.09017992 0.18752696 0.23801747 0.3054862 0.3270216 0.26296747 0.32914925 0.3197663 0.26754284 0.014319122 0.24337688 0.18161362 0.09191485 0.14089856 0.11450423 0.09713327 0.028940521 0.11010582 0.081249826 0.009349592 0.009401068 -0.01670283 -0.112266645 -0.029155754 0.030039534 0.30395836 0.13952427 0.041617416 -0.123783916 -0.07551049 0.542328 0.53943527 -0.113787904 0.509496 0.5961316 0.6642394 0.69291604 0.5967586 0.55202955 0.02212476 -0.054473642 0.50444824 0.638181 0.7028329 0.7393607 0.7138257 0.6436401 0.09299321 0.39312035 0.5140355 0.7674488 0.73875 0.6768825 0.14585769 0.39348882 0.51694167 0.62906814 0.735448 0.740145 0.70965046 0.6866164 0.6807395 0.6173631 0.19265369 0.60437316 0.687951 0.6820611 0.12367602 0.21962163 0.2627765 0.28133443 0.28913063 0.24463147 0.4346195 -0.06948561 0.13913374 0.21968023 0.28265512 0.3169349 0.450917 0.48903498 0.48740202 0.31483608 0.2487498 0.50642186 0.46799856 0.3956681 0.5496555 0.57656384 0.520541 0.3683555 0.43784454 0.43525726 0.35575336 0.38126844 0.43364036 0.56957066 0.62288964 0.5853468 0.59150815 0.563611 0.15634769 0.42502177 0.3577921 0.3044566 0.3411143 0.41511285 0.49118352 0.6071982 0.6302304 0.52724254 0.56075233 0.048388667 0.3461153 0.31628013 0.35403255 0.34588155 0.31688318 0.3395133 0.42843512 0.469611 0.50564194 0.41608387 0.34876323 0.37147895 0.3935985 0.4097534 0.45604634 0.2881041 0.3268786 0.36783296 0.45551023 0.47458377 0.49365354 0.05857764 0.54099613 0.3479748 0.06775002 0.03748414 0.42536846 -0.08919241 0.12472309 0.050665274 0.5046278 -0.15059035 0.13393025 0.112162724 0.16787459 0.3676092 0.52431405 0.5688734 0.5085773 0.080165096 0.44767284 -0.003306631 -0.10740235 -0.16652706 -0.1210339 -0.28754798 0.16415256 0.12381528 0.30184528 0.23673072 -0.34602252 0.23172116 0.046849713 0.1010457 -0.0050725043 0.010386098 0.09332625 -0.09973785 0.0118012205 0.027823552 -0.018637195 0.06537467 0.1351216 0.17504129 -0.120583415 -0.31998485 0.07443172 0.14114708 0.17809764 0.51710904 0.39028496 0.18594553 0.049592517 0.117588416 0.18011503 0.35520536 0.4043206 0.5645633 0.43243548 -0.0789638 0.00048350543 0.10762112 0.41800886 0.4570596 0.54969585 0.6166067 0.6152192 0.60285056 -0.031529903 0.27095482 0.24377024 0.2101646 0.2723687 0.41219088 0.6551109 0.6392002 -0.0455439 -0.08689448 0.29026937 0.28867325 0.26977032 0.28764933 0.63037795 0.71376973 0.28121647 0.29527333 0.27801564 0.25526762 0.36709812 0.61445713 0.72792643 0.6964902 0.23640943 0.2734233 0.25229067 0.22550005 0.30474657 0.43996888 0.53004265 0.56636107 0.5597141 0.38356733 0.05133897 -0.070963055 0.23566884 0.34480217 0.21404426 0.08005102 0.28226745 0.36807245 0.34778658 -0.065647006 0.18739143 0.2897663 0.3159722 0.33550075 0.33521238 0.44034714 0.21498248 0.17941563 0.10698457 0.43071893 0.403986 0.2828496 0.61904013 0.59457153 0.5525552 0.5833942 0.6636131 0.6511109 0.5831904 0.55312896 0.6063751 0.70485044 0.69251955 0.6305562 0.60327864 0.59218055 0.58979 0.5795529 0.4326868 0.4566792 0.497435 0.59552443 0.57517827 0.60949403 0.57180005 0.51529235 0.5662254 0.46734422 0.46343517 0.59329295 0.5896755 0.40914214 0.45058727 0.45421743 0.495289 0.51225555 0.4925905 0.3511917 0.40144265 0.42369008 0.45007452 0.35241997 0.2522548 0.384961 0.13574722 0.23482935 0.32107657 0.3931256 0.5304406 0.5879444 0.555589 0.41326827 0.14965838 0.09398484 0.12118112 0.31440967 0.32541156 0.15263872 0.21069989 0.27246296 0.3116359 0.6243122 0.63157237 0.5131915 0.025172938 0.18664962 0.10625453 0.23285048 0.2750734 0.30689073 0.63590467 0.63373935 0.44088075 0.51456225 0.09699079 -0.040083934 -0.014666751 0.2448341 0.24818051 0.1908229 0.16197342 0.32321626 0.5356869 0.55835843 0.5978485 0.32391497 0.4766221 0.4887759 0.5085397 0.19090676 0.3948805 0.42244822 0.44784832 0.46815884 0.35534862 0.35999638 0.3759847 -0.14501126 0.38788533 0.2993333 0.049499676 0.15144674 0.38213226 -0.28988525 -0.19275473 -0.2139307 0.09346627 0.12135413 0.38060144 0.46459112 0.16235623 0.083000265 -0.20710057 -0.37105468 -0.27781373 -0.21609536 0.23352662 0.19113562 0.13754632 -0.36725956 -0.10079231 -0.015111117 0.7072247 0.7042266 0.6673269 0.13697773 0.7027452 0.69136924 0.6527632 0.21085332 0.19544432 0.1136932 0.67439115 0.6439126 0.15258643 0.0047795475 -0.026079677 0.036817767 0.15437995 -0.0709425 0.016739886 0.175643 0.22229569 0.17603886 0.20946598 0.20173919 -0.18427366 0.17823121 0.18375674 0.5337056 -0.07708582 0.13642134 0.6514318 0.6330232 0.17471062 0.07329072 -0.09666732 -0.0766087 0.03168884 0.23460665 0.21299827 0.63082093 0.01448793 0.08746626 0.086141095 0.19568995 0.45925522 0.4366826 0.6392375 0.6269426 -0.094839975 -0.04844914 0.14858119 0.29346222 0.6626898 0.6442736 -0.09343075 -0.15367804 -0.026847426 0.22896686 0.50548244 0.673666 0.6968506 -0.1752737 -0.13257293 0.07931726 0.18750411 0.70104575 0.6404004 0.4601254 -0.06598203 -0.03193817 0.018793782 0.12836349 0.22469114 0.2532997 0.37487853 0.5751978 0.42256665 -0.20823462 0.14806996 0.22094776 0.006401049 0.023558162 0.06499919 0.1843287 0.26557103 0.30311614 0.32791343 0.35036066 0.08714055 0.21438569 0.29403982 -0.0012287144 0.009262904 0.28528118 0.1352346 0.10426751 0.27654186 0.23373681 0.23968956 0.30941534 0.3460151 0.30274075 0.22567825 0.20688498 0.23015352 0.18963805 0.16387242 0.3589013 0.19414924 0.24713355 0.5445227 0.5808121 0.25376892 0.62215686 0.56842494 0.48327333 0.38905928 0.29164025 0.49611467 0.6299 0.69997746 0.64186877 0.6037588 0.5446216 0.5709799 0.67897964 0.71292865 0.6689485 0.61247826 0.66186213 0.67698646 0.4741092 0.49327415 0.55270624 0.519927 0.49649507 0.48475617 0.41110474 0.48488617 0.52762485 0.5044489 0.47904447 0.2944548 0.46726847 0.51251185 0.53366464 0.4816292 0.35597634 0.53904855 0.50097543 0.15669385 0.37204748 0.344222 0.36320058 0.44136742 0.3988874 0.37736285 0.45831448 0.22435337 0.20679457 0.16982129 0.52264416 0.5555726 0.5066602 0.5877005 0.6130483 0.5238739 0.40167975 0.5752648 0.5639185 0.49253547 0.3430655 0.39209825 0.4361199 0.39725208 0.639789 0.6696387 0.37769738 0.43357527 0.45958722 0.44822553 0.40141493 0.5453371 0.6139829 0.6363862 0.6125934 0.52697945 0.37587225 0.41720062 0.3638129 0.29444617 0.32533348 0.4678389 0.4218986 0.30847463 0.29883808 0.3160199 0.3559634 0.29514104 -0.037553933 0.21544315 0.53991544 0.5341535 0.024020033 0.15129301 0.1983192 0.585929 0.22297126 -0.05105052 -0.118446365 -0.12646109 0.0685997 0.13247563 0.58585215 0.6068621 0.36089766 0.21079603 -0.106259815 -0.10694474 0.09377207 0.08343738 0.07489757 0.54596037 0.14294294 0.4866948 0.50134957 0.22357911 0.18972616 0.4328618 0.45167857 0.1174785 0.3643166 0.42048842 -0.030874241 0.20570436 0.28405225 0.32412395 -0.0908865 -0.13343596 0.28382513 0.17502469 0.11276336 -0.036667246 0.07925706 0.2909313 0.19203368 -0.07351071 -0.18717438 0.6046145 0.67925096 0.6479167 0.532367 0.22653896 -0.0927345 -0.12966488 0.68938315 0.6299515 0.5318171 0.2477234 0.24834971 -0.12697138 -0.13931043 0.67168045 0.7045709 0.60244834 0.54001075 0.30328476 0.24296112 -0.123489946 0.6609695 0.5915201 0.5077084 0.27321026 0.009904483 0.109478354 0.17517468 0.551495 0.47098577 -0.078534864 -0.0966107 0.23056298 0.20893154 -0.11158402 -0.19962555 0.20415401 0.14901957 -0.119830385 0.16733056 0.14430389 0.081129745 0.1339383 0.59465283 0.3803496 0.0324473 -0.0019400194 0.10707675 0.75227284 0.7145627 -0.14613584 0.05275308 0.04839449 0.035581462 0.2008729 0.26635116 0.34732714 0.7406049 0.3113577 0.34213218 0.35593832 0.7001269 0.28913695 0.32311827 0.3403726 0.694885 0.23899135 0.3082827 0.6909591 0.24206434 0.67441225 0.64023525 0.5395669 0.40688676 0.2854711 -0.14181182 0.0150468 0.18660757 -0.120768815 -0.09798745 0.0823117 0.023548182 -0.006802909 0.27531308 0.23537058 0.13611469 -0.05686579 0.061090082 -0.0010312572 -0.013768517 -0.03104693 -0.033200644 -0.19320057 -0.0757654 0.16879237 0.23622182 0.23433036 0.20740741 0.08369527 0.15089962 0.13998745 0.036227617 -0.081700504 0.33729202 0.17429242 -0.05706683 0.005335152 0.36778855 0.30368233 -0.122503474 0.49999735 0.1892699 0.1219479 0.05344095 0.05073629 0.5474721 0.43034184 0.45653972 0.32455704 0.237674 0.56405365 0.32404044 0.07471886 0.27864954 0.5481317 0.46022356 0.5917554 0.61255455 0.56049216 0.4099686 0.26992455 0.23433898 0.48278928 0.6337243 0.59298134 0.55404836 0.5449692 0.61316943 0.6335447 0.6035156 0.56775063 0.57891643 0.44507572 0.46629477 0.44711593 0.45054227 0.35246605 0.36233756 0.4655515 0.4608898 0.34532553 0.4555015 0.21231976 0.41567332 0.22138937 0.16840568 0.061860323 -0.020760387 0.4211153 0.36340734 0.16037229 0.09772213 0.076834545 0.17367782 0.4199382 0.0957319 0.1767252 0.2204721 -0.027461067 0.3289017 -0.034462355 -0.040908627 -0.015264139 0.13449323 0.099278785 0.46353483 0.5219426 0.00888072 -0.021221165 0.050145663 0.18222071 0.22327071 0.085298695 0.020742338 0.2592007 0.25107056 0.50883764 0.20177147 0.0016697943 0.018356878 0.11050661 0.19069752 0.29903185 -0.029844128 0.18301383 0.3066159 0.36000785 0.3681878 0.31176937 0.5420084 0.5776813 0.6843136 0.46588302 0.48339242 0.37556845 0.123759314 -0.049569223 -0.035875376 0.06996884 0.23081993 0.28110746 0.2739057 0.32684398 0.3127717 0.23862495 0.4275026 0.6592299 0.13559124 0.11446181 0.23058425 0.22816382 0.2492736 0.37059486 0.2797838 0.2193503 0.29475373 0.12571752 -0.19133878 0.19815177 0.22163019 0.22003417 0.10964511 0.11695889 0.26261178 0.21331775 0.21012309 -0.14787816 -0.10695292 -0.12831174 0.018380225 0.38149676 -0.04215917 -0.030909948 -0.04538525 -0.07261132 -0.07607648 0.07795313 0.48956424 -0.16046603 -0.09947459 -0.09933588 -0.1057232 -0.0723679 0.500057 0.27565473 -0.23303272 -0.1033302 -0.14428486 0.4748128 0.2802534 0.2685736 0.25974405 0.20318605 -0.09499404 0.47409672 0.4732092 0.23928922 0.21689449 0.43022263 0.463287 0.16138612 0.11001215 0.36823574 0.40149897 0.0053148195 -0.053009868 0.015100876 0.104368284 0.2391863 0.3014032 -0.057515364 0.13747217 -0.16057813 0.35857442 0.42149138 0.3637075 0.3614391 0.15571319 -0.12984724 -0.18410417 0.31505227 0.42510146 0.47879994 0.3812031 0.17148758 -0.1342709 0.41413945 0.23851928 -0.134578 -0.2812497 0.44434786 0.45958227 0.41100818 0.38078347 0.30157885 -0.14180988 0.6319317 0.4455967 0.42082435 0.42678404 0.426353 0.4161918 0.45636028 0.39372763 0.39108667 0.43851334 0.41139126 0.3144669 0.13813074 0.26936895 0.15019712 0.05551176 0.10364554 0.11096296 0.18650232 0.039529987 0.041306388 0.08261494 -0.18803664 -0.25147843 -0.15654075 -0.002975218 0.13082482 0.23804113 0.3139731 0.764212 0.70932406 0.5929332 0.30457512 -0.20675933 -0.14689998 -0.02113038 0.3415248 0.33246458 0.76824415 0.23367192 0.35299867 0.3193125 0.7544428 0.44845086 0.33210355 0.3055234 0.70036066 -0.29650652 0.28467998 0.26393902 0.6722514 0.65721285 0.5979729 0.049340844 0.19150952 0.6354717 0.58613 0.1388218 -0.223204 0.06826369 0.20360208 0.20946175 0.13497451 -0.19480325 0.034952946 0.3965432 0.20591153 0.21022981 0.20172754 0.17630692 -0.15669174 -0.17888924 -0.12088792 -0.12507051 -0.06453334 0.578018 0.580055 0.29247245 0.117197506 -0.011941865 0.1907765 0.19917044 0.18356475 -0.17605692 -0.20354316 0.031212673 0.56391466 0.5266088 0.43160355 0.4230019 0.2273551 0.43483713 0.518743 0.5069233 0.44908503 0.50280994 0.5417439 0.5008049 0.3689243 0.2450248 0.51693773 0.4284587 0.5243031 0.3725224 0.32602322 0.4771681 0.29674944 0.27889752 0.41461608 0.37533468 0.2736562 0.21272066 0.20546016 0.43586922 0.41725397 0.32793316 0.22623377 -0.026289709 0.016127318 0.292891 0.34832174 0.37098747 0.31220418 0.24176125 0.1524308 0.2857514 0.30681908 0.29162306 0.20246509 0.14033261 0.27252784 0.30022126 0.251929 0.085858524 -0.13488755 0.23962982 0.2037731 0.3062231 0.37206054 0.3778383 0.049831524 -0.073308796 -0.01039917 0.43377095 0.37938622 0.26809716 0.38112453 0.43518016 0.05469198 -0.020100567 -0.022527583 0.05205269 0.22978222 0.24060485 0.19153567 0.4229539 0.34844637 0.2082834 0.4444981 0.15812469 0.27221638 0.07531101 0.6932877 0.3518837 -0.04221071 0.19792533 0.25671434 0.51069146 -0.12056212 -0.11917181 -0.10910283 0.1675601 0.1732901 0.14098197 0.23257063 -0.15805869 -0.123607695 -0.16721287 -0.18356536 -0.20350632 -0.2197745 0.1205715 0.1691503 0.1349438 -0.009533197 -0.14329505 -0