# vtk DataFile Version 2.0
Really cool data
ASCII
DATASET POLYDATA
POINTS 4171 float
-50.510242 16.499237 -29.814405
-50.553146 18.844439 -30.6908
-49.676903 14.097532 -23.200485
-49.812332 15.065887 -29.763569
-49.81349 15.111308 -28.993988
-49.669495 14.602427 -24.073019
-49.754986 14.554421 -23.573744
-49.6826 14.474736 -22.872646
-50.197643 15.824313 -30.273623
-50.183956 15.615682 -29.591051
-50.163586 15.8041725 -28.956493
-49.68777 15.601498 -24.110966
-49.81174 15.441544 -23.36396
-49.737156 15.672581 -22.636543
-49.68076 16.619482 -31.748077
-49.935425 16.60449 -31.141405
-50.3997 16.528866 -30.256945
-50.446846 16.498505 -29.523167
-50.20759 16.45505 -28.742083
-49.9648 16.267006 -28.24111
-49.826252 16.31545 -23.322927
-49.79514 16.426432 -22.632166
-49.63135 16.546581 -22.197124
-49.72254 17.983393 -31.931765
-50.112698 17.92378 -31.480955
-50.35119 17.543722 -30.486368
-50.322697 17.487968 -29.457994
-50.179516 17.36017 -28.696642
-49.66693 17.161667 -23.376057
-49.679108 17.10162 -22.656168
-49.98255 18.439352 -31.845142
-50.419373 18.743996 -31.114954
-50.462612 18.62457 -30.677437
-50.288017 18.050735 -29.660496
-50.127922 18.682205 -29.04346
-50.312943 19.43389 -31.326035
-50.424995 19.358328 -30.664742
-50.112587 19.817831 -29.5406
-49.832367 19.699474 -28.606735
-49.64467 19.430048 -28.03575
-50.169136 19.992638 -31.189667
-50.304596 20.052652 -30.49367
-49.993187 20.544245 -29.580416
-50.0737 20.238464 -28.509771
-49.96582 20.968481 -27.905668
-49.683052 20.925762 -27.113708
-50.02901 21.429138 -29.29253
-50.05335 21.590254 -28.226654
-49.976646 21.669994 -27.422678
-49.79546 21.844507 -26.886906
-49.85994 23.006296 -31.2096
-49.93128 22.610373 -30.759077
-49.910656 22.49208 -29.764465
-49.93102 22.27955 -27.513926
-49.706463 22.408575 -26.905912
-49.655968 23.576363 -32.416965
-49.891926 23.42736 -31.462143
-49.861095 23.49612 -30.639313
-49.643177 22.916027 -27.550768
-49.70905 24.301144 -32.02017
-49.772106 24.410597 -31.54573
-49.69882 24.484016 -30.585571
-49.608116 24.17656 -29.98213
-49.577946 24.91582 -32.18823
-48.94547 13.249045 -24.106495
-49.004387 13.303672 -23.504967
-48.952003 13.815831 -24.890759
-49.2677 13.704001 -24.14029
-49.395245 13.67815 -23.239164
-49.370205 13.887817 -22.738014
-49.05956 13.932929 -22.35053
-48.99785 14.969273 -31.039011
-49.25912 14.786478 -30.357632
-49.420704 14.798952 -29.908861
-49.382107 14.964088 -28.756874
-49.415634 14.613015 -24.510595
-49.51217 14.407072 -22.549648
-49.23465 14.615135 -22.21427
-48.761604 15.610719 -32.05248
-49.51064 15.790552 -31.278854
-49.567844 15.716251 -28.01163
-48.54123 15.897051 -26.356512
-48.97429 15.276998 -25.22516
-49.28837 15.677011 -21.962717
-49.362385 16.702095 -32.202297
-48.971138 16.78577 -27.470716
-48.777756 16.645119 -26.48389
-49.448856 16.572912 -24.419043
-49.33526 16.543003 -21.897564
-49.120663 17.584003 -32.856728
-49.41412 17.172504 -32.184803
-48.54607 17.195137 -26.218187
-48.9401 17.22977 -25.486198
-49.176804 17.402987 -24.549149
-49.54141 17.461561 -23.220467
-49.395405 17.511978 -22.610016
-49.158653 17.153416 -21.964014
-49.399403 18.542011 -32.453197
-49.349632 18.645962 -28.113607
-48.85287 18.117088 -24.509562
-49.041462 18.063091 -23.47282
-49.02755 17.906288 -22.584576
-49.007286 19.133215 -32.528442
-49.47494 19.696056 -27.594881
-49.167088 19.912527 -27.157076
-49.356194 20.325298 -31.983551
-49.52358 20.903065 -26.865145
-49.213898 21.478378 -31.897741
-49.484875 21.735321 -31.629177
-49.51468 21.65525 -26.574202
-49.187027 21.750645 -26.291296
-48.89873 23.108355 -33.16239
-49.416782 22.483124 -26.63104
-49.21953 22.29758 -26.369295
-49.06351 23.765623 -33.428986
-49.519024 23.095812 -28.198256
-49.3687 23.123089 -27.490097
-49.202168 22.900814 -26.803617
-48.865276 24.660492 -33.726955
-49.260628 24.583467 -33.276924
-49.502777 24.85717 -32.839985
-49.546337 24.63627 -30.278902
-49.42729 24.520971 -29.998236
-48.82208 25.188213 -33.675762
-49.13166 25.244682 -33.232323
-49.354015 25.335987 -32.503788
-49.326557 25.295483 -31.64556
-49.279987 25.07784 -30.612164
-48.95082 25.048063 -29.989288
-49.03498 25.77372 -32.338028
-48.83238 25.899336 -31.66612
-48.873833 25.714172 -30.880177
-47.617184 -6.380795 -26.052814
-47.773018 -6.088246 -25.639456
-47.611595 -6.1959257 -24.665823
-47.59891 -5.1628156 -26.441278
-47.835747 -5.3122497 -25.487392
-47.772606 -5.3913 -24.644533
-47.626453 -4.754051 -26.246843
-47.87537 -4.866724 -25.439142
-47.717438 -4.693321 -24.63889
-47.73593 -2.174356 -30.277132
-48.053333 -1.9949334 -29.632736
-48.045338 -2.0729475 -28.906672
-47.60386 -1.4695922 -30.814932
-47.965137 -1.5899664 -30.166542
-48.20465 -1.4978561 -29.501942
-48.237988 -1.2216659 -28.674484
-47.750004 -1.6727985 -28.017702
-47.95888 -0.7603161 -30.127163
-48.21427 -0.77991724 -29.575672
-48.2985 -0.619125 -28.56739
-48.165028 -0.51621854 -27.875761
-47.61615 -0.33503383 -26.62812
-48.05186 0.3681583 -29.336012
-48.33669 0.5212273 -28.41657
-48.274807 0.5362456 -27.656713
-48.076458 0.77547234 -26.581518
-47.886925 0.56675875 -25.86558
-48.00268 1.1302775 -28.972181
-48.19293 1.3349154 -28.23765
-48.185387 1.344672 -27.753788
-47.989353 1.3436123 -26.555717
-47.781906 1.5348452 -25.517479
-47.68088 1.1442629 -25.172485
-47.69234 1.9548639 -28.53787
-47.826473 1.8989938 -27.561152
-47.68904 2.124469 -26.59409
-47.814133 3.906827 -19.24506
-47.96917 3.88891 -18.360794
-47.833023 3.9306965 -17.79104
-47.793396 4.8581443 -24.754324
-47.67359 4.134169 -19.891895
-48.051846 4.4506345 -19.191917
-48.18189 4.488814 -18.399622
-48.06748 4.517396 -17.850485
-48.110203 5.499564 -26.026386
-48.31977 5.811338 -25.54243
-48.031193 5.6632485 -24.553446
-47.825443 5.6156273 -24.16157
-47.73044 5.3808384 -19.777021
-47.94129 5.501384 -19.372292
-48.10511 5.3883896 -18.540417
-48.016552 5.3466415 -17.92487
-47.71494 4.9997997 -17.210453
-48.188667 6.411378 -26.098831
-48.31958 6.4806223 -25.59308
-48.188244 6.4215317 -24.81938
-47.813843 6.4302325 -24.214205
-47.72453 5.9590316 -19.281004
-47.820095 6.0050216 -18.631783
-47.73997 5.94678 -17.991066
-48.057877 6.8702745 -26.011255
-48.000275 7.097302 -25.408684
-47.86424 7.090036 -24.923424
-47.799088 13.264122 -29.280052
-47.81615 13.281639 -28.933512
-47.75018 12.963928 -25.91794
-48.20846 13.11092 -24.910826
-48.26517 12.917395 -24.214766
-48.5768 13.060813 -23.599588
-47.929928 13.85889 -31.209946
-48.14971 13.795817 -30.172
-48.17842 13.591093 -29.432165
-47.999374 13.738063 -28.490566
-48.004436 14.234481 -27.03135
-47.97695 13.790955 -25.889751
-48.279804 13.4628525 -22.342146
-48.74412 13.722364 -22.323408
-48.53404 14.647194 -31.549234
-48.64407 14.424172 -30.336128
-48.107513 14.80711 -27.699415
-47.787697 15.350366 -32.737957
-47.8508 16.730484 -34.26152
-48.162937 16.757336 -33.575974
-48.5533 16.712505 -21.57253
-47.979996 17.54655 -34.408367
-48.606693 17.475676 -33.20024
-48.415478 17.277363 -21.772726
-47.82927 18.237326 -34.466904
-48.308315 18.294596 -33.66246
-48.415874 18.48061 -25.551233
-48.246883 18.605902 -24.766338
-48.32362 18.519102 -23.215729
-48.524788 18.214882 -22.672009
-48.37186 17.894844 -22.112438
-47.82056 19.523958 -33.776554
-48.08362 19.157333 -33.65269
-48.073174 18.748592 -23.711164
-48.617615 20.847471 -32.519558
-48.713486 21.805801 -26.2125
-48.637444 22.401304 -26.319674
-48.22642 23.605349 -33.894
-48.608624 23.34553 -33.56056
-48.600307 23.303179 -27.398893
-48.432854 23.103163 -26.91965
-48.285793 24.519917 -33.96907
-48.691788 24.195583 -28.946098
-48.52468 25.347872 -33.694603
-48.614086 25.565493 -33.469524
-48.612587 25.163147 -29.783276
-48.37173 25.85466 -33.256985
-48.32016 26.240734 -32.434784
-48.17866 26.445696 -31.49028
-48.266056 26.130594 -30.696419
-48.061005 25.947914 -30.181614
-47.818836 26.666622 -31.96404
-47.907417 26.664793 -31.561874
-46.961136 -7.7612715 -26.13099
-46.94832 -7.8762627 -25.529268
-46.783928 -7.873016 -24.938747
-46.913147 -7.1087646 -26.7588
-47.148483 -7.4139004 -26.172394
-47.30426 -7.3840384 -25.522749
-47.131714 -7.271052 -24.811977
-47.081783 -6.171029 -26.839025
-47.404037 -6.651512 -24.840353
-46.966003 -6.594214 -24.151197
-47.40044 -5.2450957 -26.751644
-47.499058 -5.735698 -26.400997
-47.19356 -5.397341 -23.865316
-46.83279 -3.996911 -30.311224
-46.851685 -4.0202065 -29.692368
-47.41284 -4.527748 -26.833378
-47.51071 -4.413055 -26.33435
-47.39595 -4.514274 -24.081501
-46.863228 -3.3121312 -31.14141
-47.100132 -3.4104016 -30.601437
-47.39775 -2.9970028 -29.715387
-47.21984 -3.2895331 -29.01281
-46.792023 -3.3664644 -27.12144
-47.34227 -3.7726452 -26.356403
-47.4522 -3.3302972 -25.618494
-47.529137 -3.859524 -24.532906
-47.004906 -3.577008 -23.764614
-46.780014 -2.2515433 -31.833725
-47.124123 -2.344207 -31.302305
-47.46046 -2.4925306 -30.500784
-47.418148 -2.671282 -28.311893
-47.171444 -2.262876 -24.333796
-47.069195 -2.552901 -23.82048
-46.88118 -1.5025547 -31.917896
-47.197 -1.4690533 -31.488766
-47.11101 -1.6474302 -24.35238
-46.859394 -0.828174 -31.876139
-47.299503 -0.889117 -31.341776
-47.59766 -0.32132825 -30.537752
-47.394783 -0.5568478 -25.181868
-46.823486 -0.17156672 -23.913471
-46.898174 0.18782689 -31.246735
-47.41663 0.26173562 -30.307344
-47.43616 0.45565623 -24.737106
-47.21166 0.9241226 -30.20214
-47.43324 1.522894 -29.399261
-47.47205 1.6277659 -24.891254
-47.119118 1.0711925 -24.203697
-47.015045 2.384552 -28.942347
-47.364395 2.3784 -28.396807
-47.46702 2.1836162 -25.564142
-46.54815 2.9746726 -21.342995
-46.98229 2.8408399 -20.059732
-47.072342 2.9658055 -19.446877
-47.294388 3.1362772 -18.543129
-46.843037 3.158515 -17.994839
-47.00816 3.2974222 -26.06212
-47.0576 4.20823 -24.586987
-46.571255 3.4747863 -22.035456
-46.66248 3.6533434 -21.021017
-47.507183 3.738088 -19.9363
-47.471226 3.4716141 -19.43268
-47.61767 3.4801722 -18.435854
-47.37074 3.6142852 -17.651049
-47.32194 4.04018 -17.209969
-46.856113 4.5383105 -27.239906
-47.37123 4.911638 -26.408237
-47.202217 4.7748604 -24.043308
-47.40076 4.52287 -17.093487
[...]
POINT_DATA 4171
SCALARS features_00 float 1
LOOKUP_TABLE default
0.43349615 0.33149892 0.5640316 0.43547267 0.42223758 0.53292197 0.5600498 0.5721489 0.4599201 0.4641661 0.44466364 0.50443786 0.57000935 0.59696877 0.32090193 0.3734975 0.42610505 0.43062407 0.39352325 0.3552261 0.583557 0.6309116 0.6550743 0.29536894 0.32635075 0.36245567 0.34890586 0.29743797 0.5880161 0.6450653 0.31610334 0.3398692 0.33492908 0.3125562 0.23826033 0.3341784 0.32541427 0.26153344 0.24932094 0.2526182 0.32577613 0.30426317 0.2511479 0.2815553 0.39648294 0.49169928 0.25128543 0.427403 0.54610497 0.61584103 0.3936212 0.34244567 0.29161066 0.5980654 0.6508051 0.5378661 0.4374808 0.40984505 0.61131287 0.54473114 0.50142944 0.4403308 0.37766895 0.58421004 0.46583435 0.51542294 0.37115973 0.49835336 0.5474572 0.5575249 0.5442186 0.36009455 0.3763395 0.38687146 0.362239 0.4810554 0.56735754 0.5478644 0.29872698 0.3909322 0.33993617 0.037879333 0.3079003 0.5960933 0.27101684 0.044338398 0.027307093 0.43766016 0.6591599 0.23000963 0.2630595 0.088447124 0.24090168 0.41930372 0.597609 0.641184 0.65117687 0.25114563 0.16527273 0.40636298 0.53301305 0.6225041 0.19512227 0.2948094 0.35258812 0.1984583 0.52106094 0.19924966 0.27696994 0.62651384 0.6438458 0.4610695 0.66453373 0.66442585 0.60398316 0.49118286 0.61292255 0.6604929 0.656559 0.650432 0.64021486 0.4141553 0.37958997 0.6737833 0.66440845 0.62308663 0.52839404 0.43470103 0.3621039 0.61221087 0.5297022 0.44061023 0.6915715 0.66045547 0.73883176 0.49152496 0.5506209 0.6498731 0.4495904 0.5059607 0.5721065 0.41868293 0.41965598 0.4001513 0.39496934 0.4132695 0.42412534 0.41903296 0.3423677 0.40643448 0.4274267 0.43261063 0.39798224 0.3050598 0.42353857 0.44077262 0.41001052 0.34474358 0.2875317 0.41311616 0.42843583 0.41886672 0.33022237 0.25248647 0.2329311 0.35722 0.38842806 0.28816152 0.6434841 0.70141786 0.69783247 0.54563564 0.5613885 0.69596267 0.7470076 0.74172235 0.70094687 0.7020432 0.5686127 0.48481125 0.58031183 0.61449075 0.70759785 0.73111045 0.69528425 0.6996806 0.68390125 0.6073843 0.49036235 0.56534183 0.60938275 0.62808406 0.6732458 0.6417475 0.59278196 0.1374465 0.111645624 0.10059296 0.24672335 0.34857902 0.46376336 0.2731756 0.24488577 0.20494452 0.11689383 -0.025212195 0.10558186 0.4536421 0.52062577 0.30721068 0.31118017 0.10948378 0.1898761 0.26246667 0.25780672 0.56218857 0.27422726 0.23784654 0.55577254 0.25831136 0.22807913 0.22532955 0.29433605 0.46897042 0.57485855 0.57376266 0.16123697 0.17367712 0.34005964 0.0622583 0.6299983 0.65102357 0.5679878 0.52653044 0.6003579 0.644491 0.646207 0.2561819 0.67793834 0.683252 0.32179558 0.6870331 0.63041437 0.49531573 0.396118 0.33087033 0.56821 0.50257957 0.8625957 0.90700406 0.9003514 0.75903136 0.8204644 0.8571665 0.83970267 0.6431093 0.78763413 0.74327433 0.48529637 0.57404184 0.6418775 0.537312 0.5140247 0.3674578 0.4033446 0.56894225 0.5101299 0.49889207 0.4428596 0.38810605 0.10036027 0.30456078 0.372689 0.48772156 0.44571093 0.43497562 0.42689025 0.42977524 0.2693287 0.2729556 0.32238153 0.38806665 0.38386256 0.1921649 0.3483716 0.3613754 0.37221307 0.17961952 0.11158042 0.29675657 0.3520498 0.1843467 0.30942366 0.33626994 0.19409814 0.1250756 0.21795434 0.27518982 0.21357936 0.2142444 0.4777401 0.5567629 0.6255982 0.58343214 0.16876172 0.3356897 0.0059044585 0.30579254 0.5223924 0.5878706 0.66293824 0.6513464 0.6600256 0.18391453 0.49473324 0.39720154 0.6696247 0.32983506 0.3262397 0.27797234 0.4077137 0.5860466 0.34458423 0.18816222 0.49695116 0.4749589 0.531176 0.3483271 0.69633543 0.71838534 0.68591833 0.64065015 0.62171894 0.5301781 0.39128798 0.44112659 0.31775373 0.35694805 0.65953434 0.68424547 0.7002647 0.638378 0.4436657 0.26709354 0.2963461 0.2943883 0.6285195 0.64424723 0.5942925 0.49755776 0.3600611 0.32986033 0.19925621 0.23275751 0.38950267 0.32001573 0.34329253 0.2985863 0.5437094 0.65090734 0.7303495 0.5882877 0.22443712 0.112722315 0.11896705 0.14628664 0.20802587 0.32632613 0.3963961 0.5916611 0.7119275 0.74963105 0.7523155 0.12117384 0.07971209 -0.0015183426 0.09034586 0.13609916 -0.09341573 0.22370532 0.360148 0.38235974 0.33480373 0.59204227 0.64585763 0.68205523 0.7163021 0.7230753 0.23027092 0.040474396 0.36212134 0.3546462 0.42025787 0.44216335 0.35952342 0.6005094 0.6200603 0.6087096 0.62109613 0.19021766 0.46839964 0.4330216 0.58315814 0.573079 0.17977342 0.14147057 0.35147437 0.22174488 0.044195447 0.24676786 0.46652836 0.25708535 0.31272113 0.26443675 0.22790313 0.17053896 0.16564155 0.42072943 0.32499093 0.13074338 0.09222103 0.46533448 0.5090278 0.59637105 0.40802512 0.524504 0.4736524 0.61662996 0.66758704 0.33832926 0.20512305 0.6317457 0.45193923 0.30835333 0.831773 0.89057934 0.9514555 0.9214817 0.8575423 0.7926793 0.8306434 0.8298441 0.7942348 0.6922246 0.65142894 0.5518324 0.49913663 0.5314113 0.6165799 0.5497879 0.5626994 0.55688316 0.53913414 0.48538703 0.5160848 0.5128618 0.37461597 0.44718504 0.3084807 0.4166329 0.23317386 0.37093204 0.3572957 0.09026644 0.30724534 0.32148254 0.11009857 0.31146052 0.23261735 0.105324104 0.1409223 0.3154634 0.44041735 0.24799575 0.11666848 0.15465796 -0.04219122 -0.029204525 0.49465382 0.51293784 0.10351786 -0.0024758577 -0.009202361 0.51977706 0.6011271 0.069174185 0.16516659 -0.044599615 0.44101763 0.6895344 0.670257 0.58676445 0.33379412 0.096532986 0.3267765 0.4011009 0.4219647 0.64755106 0.6784078 0.6596048 0.5516776 0.031500466 0.37209997 0.37129787 0.35748821 0.61544585 0.28449702 0.052630648 -0.0009856801 -0.0053853747 0.11639167 0.31061232 0.30283293 0.5976185 0.31659216 0.22676429 -0.04082814 0.0036288053 -0.01160644 -0.046809904 -0.04473403 0.1251848 0.22342047 0.24389806 0.34193057 0.5679342 0.61564565 0.6452241 0.6037523 0.18168932 0.15322912 0.14828873 0.16554464 0.007560592 -0.019321851 0.06660023 0.079220526 0.091202736 0.10611737 0.17377841 0.70412046 0.716738 0.68171036 0.66673446 0.6239414 0.35389286 0.1655807 0.18838799 0.24896333 0.21312411 0.13146709 -0.15763652 -0.115729384 0.085848615 0.15225783 -0.19295919 -0.14080401 0.06805212 0.1565725 0.25349468 0.09879192 0.010750582 0.13791071 0.7399692 0.6695626 0.6583919 0.5670126 0.47858167 0.091428876 0.15369228 0.20588094 -0.11539611 -0.052000217 -0.006129883 -0.1583331 0.21941778 0.705421 0.59817284 0.5419686 0.34865937 0.15525931 0.21054739 0.48745817 0.60110855 0.62875247 0.36096796 0.3169102 0.07111183 0.2493369 0.5274992 0.5571415 0.5354072 0.522334 0.16079763 0.042013794 0.11990925 0.26066846 0.2725115 0.518959 0.4986444 0.107896835 0.090747386 -0.112522356 0.16470131 0.22134882 0.13942452 0.08701521 0.29286003 0.29242888 -0.0027961358 0.32593137 0.32473022 0.27438056 0.30453616 0.30167872 -0.109139085 0.31841743 0.40708 0.37907815 0.28274825 0.24678683 0.37829456 0.39451432 0.20663483 0.30024007 0.3439827 0.4828975 0.043061633 0.5609026 0.11968593 0.06263769 0.56782395 0.60549057 0.27980196 0.15278402 0.023783837 0.86101544 0.904709 0.9668803 0.9143261 0.8654028 0.802806 0.8096998 0.65042055 0.6873975 0.5322085 0.5281726 0.43347138 0.15558909 0.5796405 0.51157916 0.5336293 0.54493773 0.469741 0.51712525 0.32541475 0.4275654 0.16222489 0.10158475 0.28491977 0.0888429 0.28215855 0.2869083 0.11786412 0.21827774 0.3107837 0.25703403 0.18796073 0.3601232 0.40141723 0.45413223 0.044343613 0.22803302 0.17737949 0.4317252 0.43286556 0.64848566 0.6292305 0.11387943 0.095585436 0.10457228 0.41147572 0.3930087 0.59617794 0.6480653 0.25819692 0.1898914 0.12988614 0.0576809 -0.04070247 0.36470237 0.3466061 0.4750983 0.5491794 -0.24988167 0.31609818 0.30610573 0.2802133 0.05189954 0.14901096 0.15238431 0.054974563 0.5243464 0.6076597 0.4986705 -0.114215314 -0.009562004 -0.040155973 0.54343504 0.6227473 0.67208743 0.65387595 0.08208583 0.6494099 0.59915185 0.6647837 0.6191094 0.5756965 0.53755456 0.5529183 -0.15174273 -0.21884465 0.2805009 0.5974936 0.46596313 0.40362403 0.122100875 0.034827452 -0.1627064 0.131513 0.3659274 0.50672543 0.507044 0.35671404 0.17105567 0.0939548 0.03039818 0.44077003 0.46414065 0.47805047 0.14703299 -0.1139493 0.21398237 0.18616202 -0.2593967 0.2656209 0.059612967 0.29786515 0.26246384 0.3083179 0.3006345 0.30178857 0.27798396 0.33886647 0.37055653 0.36629397 0.25602287 0.14299956 -0.09935389 0.2227656 0.32118556 0.34254864 0.33431038 0.09358832 0.19732784 0.10823211 0.3169611 0.25386786 0.097566605 0.18217948 0.43565035 0.35809553 0.17219089 0.4767354 0.47393534 -0.0066845436 0.47439963 0.018915191 0.011258261 0.20171902 0.098510824 0.29680625 0.30110666 0.8829166 0.89600515 0.88529027 0.8059343 0.78499234 0.8085991 0.8430394 0.7805919 0.7081883 0.513103 0.49146032 0.42198718 0.50568706 0.5072746 0.5126027 0.4069776 0.47165006 0.27458107 0.4056464 0.35213476 0.31993613 0.112107635 0.33839065 0.032640688 0.054819323 0.33719176 0.27742115 0.071865916 0.106602535 0.2264751 0.2357782 0.113613516 0.20497534 0.23593797 0.16532338 0.2759685 0.31998336 -0.29999256 0.17701286 0.26521423 0.04708202 -0.16076267 0.16941205 0.13103335 0.13659333 0.34292847 0.40185866 0.3884288 0.4922486 0.40920302 0.09301409 -0.19898963 -0.04547979 0.34970814 0.5318428 -0.22755559 -0.13224617 0.29259092 0.40648684 -0.046266664 -0.22371544 0.25593698 0.24754763 -0.28231597 0.06486253 0.18416163 0.23043142 0.4139626 0.56456304 -0.34459704 -0.4139856 0.36178958 0.5040358 -0.43281496 -0.32582968 0.52473176 0.6389217 0.4694308 0.5143138 0.5032809 0.41302362 0.45692244 -0.19761443 0.48947805 0.33395624 -0.03998618 -0.06470689 0.4440589 0.45325696 0.45757735 0.19721122 0.14942273 0.19780116 0.19386283 0.15204601 0.39531243 0.42797837 0.43367177 0.1794971 0.13830183 0.22397155 0.22740602 0.2383632 0.19658478 0.21197878 0.23637597 0.24600334 0.24266064 0.27569962 0.039544538 0.30282247 0.28013685 0.23591295 0.2973715 0.2836835 0.25967833 0.2670341 0.2123361 -0.0005338099 -0.03863337 0.2666741 0.25437292 0.2304061 0.00079295784 0.12538542 0.25061238 0.2832709 0.10269375 0.2856751 0.2948232 -0.03125956 0.24213809 0.2804626 0.12066868 0.015250216 0.26572657 0.17895544 0.15469608 0.24931662 0.29049304 0.31406066 0.33807653 0.29923797 0.3450189 0.3826127 0.3323143 0.40098977 0.72425234 0.68610364 0.70077986 0.5369955 0.583725 0.58453345 0.4551885 0.40045 0.36927402 0.4026115 0.4244873 0.45195916 0.49794704 0.4714932 0.44013244 0.41776496 0.44134283 0.46014625 0.45574096 0.3027292 0.3484598 0.26685977 0.27127314 0.6136801 0.5032166 0.29726064 0.22376019 0.6097929 0.5523114 0.20501515 0.1793085 0.41245317 0.34298158 0.15984878 0.18839368 0.3309736 0.2704754 0.17626607 0.15093882 0.015962178 0.17650992 0.17733492 0.06762733 -0.22385892 -0.4926834 0.03066194 -0.090728715 -0.034687273 0.12716694 0.1011366 0.22406805 0.33986694 -0.004724741 -0.28332165 0.33101964 0.30794853 -0.3970051 0.20497712 0.2246773 0.22940901 0.21397889 0.22420743 0.17527106 0.17105317 0.21839744 0.3890351 0.41514736 0.47230715 0.37784865 0.40702742 0.3549954 0.31919616 0.43691704 0.25944328 0.40960968 0.40825617 0.17316121 -0.04537207 0.24086887 0.39453024 0.1297805 0.2044838 0.14802592 0.07702936 0.22901629 0.2274611 0.109038435 0.20705079 0.26597714 0.2667796 0.22544566 0.18360078 0.27839273 0.2643531 0.24010256 0.19408545 0.21019605 0.2294581 0.26908994 0.2276263 0.27069062 0.25461966 -0.052474633 0.29394662 0.26341036 0.17474744 0.27048194 0.28329286 -0.0046437383 -0.060935717 0.2053874 0.2149748 0.17166327 0.0789149 0.30711815 0.30882496 0.2939645 0.2958535 0.30137408 0.4130524 0.4091709 0.3165368 0.33535165 0.38142 0.44327188 0.43919614 0.4383691 0.4429133 0.4091159 0.26862708 0.39315444 0.100729056 0.35380235 0.37499666 0.26940194 0.39093742 0.27391866 0.6228513 0.41730666 0.27700442 -0.054648124 0.712011 0.6627748 0.17589986 0.25287876 0.6555402 0.67563534 0.24779096 0.24107866 0.6003288 0.54311323 0.19393948 0.4458145 0.31536287 0.1182591 0.21827736 0.120197415 0.020126048 -0.26703563 -0.2527577 0.20442659 0.14768894 -0.0036721453 0.2428172 0.073059306 0.19611847 0.20591104 0.6159771 0.5742735 0.19513676 0.20409682 0.6257809 0.4844494 0.17678027 0.6317899 0.65391326 0.18615237 0.20776308 0.37654197 0.19911742 0.22169955 0.0679394 0.26021513 0.28571403 0.17770919 0.31039327 0.24630557 0.1738962 0.3647928 0.15895534 0.12500708 0.13470672 0.33754495 0.15358694 0.038274083 0.12558478 0.11196134 0.06413181 0.060311247 0.2111347 0.106082544 0.06757563 0.16431454 0.17128374 0.1990879 0.15390688 0.27137 0.24499317 -0.1297847 0.116454184 0.13681711 0.25809014 0.036893383 0.116362035 -0.32799685 0.20172854 0.24213713 0.21544471 0.4127852 0.33783305 0.011663683 0.15546933 0.44620788 0.44733948 0.40922755 0.34155947 0.34791148 0.3376762 0.31013364 0.42085558 0.31387854 0.3199593 0.45661306 0.4494577 0.29903334 0.31917688 0.33759338 0.40397495 0.4541045 0.45954892 0.32940936 0.13141292 0.18716274 0.21611676 0.6062689 0.41269103 0.29190484 0.18189767 0.03409271 0.7082517 0.7229235 -0.14912502 0.2595951 0.6754093 0.2838578 0.29551917 0.25597805 0.60057706 0.20196377 0.5361547 0.4649418 0.1256237 0.21232599 0.07658249 0.048806623 -0.20488013 -0.18016393 -0.25760686 -0.29203185 -0.19792089 0.26873913 0.18332125 0.14970241 -0.19999546 -0.20769478 -0.22026514 0.22912134 -0.18467708 -0.17361218 -0.04064569 0.59560466 0.56764615 0.26027238 0.13031873 0.03157552 0.18125013 0.20379263 0.6401696 0.6226143 0.5658614 0.4173142 0.16884626 0.22755033 0.22369659 0.6490954 0.6374469 0.38630033 0.61500585 0.5751897 0.19778761 0.33651406 0.18135513 0.27631587 0.12234455 0.15029535 -0.0069678165 0.15938134 0.28962737 0.14767052 0.21164057 0.2280507 0.21199483 0.0711852 -0.030037858 -0.022839498 0.11716819 -0.09693904 0.1236872 0.13476892 -0.044108085 0.03727569 0.10823088 0.20132834 0.12551636 0.041774414 0.15184517 0.1556801 0.17613265 0.15330231 0.22015257 0.1704557 0.06624445 0.22288299 -0.37929082 -0.0059550256 0.0706197 0.15350604 -0.1462355 -0.004110884 0.112759635 0.2492989 -0.023271542 0.05690458 0.35823655 0.08198208 0.14041595 0.44420636 -0.07301149 0.19346768 0.44492233 0.3600524 0.40910807 0.4128301 0.42660677 0.3183269 0.32442006 0.44288176 0.4365732 0.15214714 0.17447576 -0.14487147 0.65475214 0.28696194 -0.23113322 0.100841105 0.69207835 0.60203207 0.36904943 0.27243066 -0.05166307 -0.099425174 0.25275487 0.6509347 0.18439548 0.26765108 0.22986516 0.56543696 0.18433504 0.17560418 0.45757818 0.13655323 0.35498488 0.3577866 0.09839619 -0.05729863 0.02243714 0.032195244 -0.23069385 -0.084076196 0.2836211 0.24766102 -0.07233315 0.28467208 -0.20583758 0.22368872 0.31953093 0.32682413 0.6797894 0.62081784 0.5326716 0.2882277 0.32016808 0.67621666 0.28290796 0.6787839 0.25143495 0.59606785 0.19739065 0.4952047 0.41076106 0.12268253 0.29508626 0.23733069 0.17879371 0.021569196 0.044715725 0.16390826 0.20102659 0.23167118 0.23441404 0.19427142 -0.0014724173 -0.0205846 0.1263245 0.07339785 0.17927204 0.14160322 0.269035 0.24572712 0.1271672 0.05666755 0.3060144 0.15745255 0.16714463 0.15484129 0.1646667 0.10235727 0.21763487 0.1933414 0.1353109 -0.2080952 0.059625648 0.105823785 0.22576179 0.16975659 0.024879422 0.051988482 0.0684341 0.3490402 0.17703657 0.40015262 0.40095723 0.2634058 0.25920457 0.38199115 0.4029289 0.21012369 0.35614341 0.30218136 0.37552994 0.3420321 0.32108968 0.2205788 0.26417044 0.16175936 0.3727587 0.43314108 0.474733 0.6277639 0.77821314 0.80908275 0.5238386 0.74324065 0.8159164 0.8378848 0.6990102 0.78207254 0.87154603 0.86400557 0.35977364 0.35639948 0.16471468 0.123125836 -0.15976219 0.14398317 0.58675265 0.3477075 -0.043986343 -0.4222975 -0.20059295 0.5654745 0.49384874 -0.28502864 0.18706344 0.4816677 0.4381802 0.18223652 0.2976488 0.1663105 0.12767142 0.11083564 0.038204 0.07227763 0.0055546835 0.2585588 0.007783778 -0.025323614 0.23161912 -0.030989252 0.3408961 0.35842907 0.38745755 0.72642016 0.67534035 0.57384956 0.12936983 0.22111729 0.37316376 0.39637446 0.7442168 0.40623868 0.72641754 0.31123924 0.60499656 0.17446819 0.46585083 0.401123 0.044866107 0.28582853 0.008721929 0.106890574 0.055362724 0.23192136 0.0669608 0.15815388 0.2636309 0.16811985 0.21321273 0.2066451 0.08040292 0.5095024 0.166318 0.070052356 0.07836396 -0.036785588 -0.019409072 0.30927932 0.24165162 0.014196429 0.3478512 0.34334606 0.15186334 0.12468457 0.27290392 -0.28568774 0.088266484 0.33673435 0.19310819 0.06437032 0.08417955 0.10818606 0.20473112 0.29164252 0.09445857 0.056515463 0.10717112 0.31626058 0.29963085 0.269846 0.31065965 0.28906232 0.2965829 0.3048251 0.3035103 0.15368536 0.29314452 0.285428 0.22275928 0.30829668 0.25210088 0.24228987 0.23070717 0.27739963 0.36369893 0.33993244 0.6969273 0.7569704 0.3579853 0.36027178 0.8077259 0.41308966 0.4452012 0.5270261 0.8442049 0.82928103 0.53859675 0.58870447 0.89222705 0.8725063 0.7332772 0.8755302 0.91117084 0.89614594 0.42229968 0.41496235 0.39797843 0.38140753 0.3931389 0.34820893 0.008188685 -0.04512786 -0.15432294 -0.13802986 -0.20400444 0.052564964 -0.51337886 -0.21753272 0.04922144 0.3242882 0.3449229 0.0043611974 -0.2601198 0.061773546 0.40039933 0.14231922 0.35582545 0.20830342 0.23321582 0.19319241 0.14387959 -0.044653185 0.096692786 0.15534016 0.06947327 0.15868598 0.27518913 0.356502 0.39857972 0.43873277 0.7654171 0.7273073 0.45875663 0.45411205 0.77851164 0.49883357 0.7287123 0.40695083 0.5898835 0.27426827 0.4339168 0.11605989 0.3358308 0.24983001 0.24309471 0.15055734 0.2833577 0.09678963 0.091787785 0.43149835 0.09351266 0.5411636 0.12154494 0.10618988 0.670593 0.1592595 0.57077914 0.62175024 0.13351607 0.4701686 0.60043406 0.049753275 0.012810368 0.31607085 0.26078022 0.16064724 0.28968525 -0.2556481 0.056105196 0.32579622 0.0835628 0.37579942 0.5332539 0.24288762 0.43159446 0.6346836 0.6982338 0.29262185 0.16930549 0.41984838 0.45777935 0.60542417 0.72077286 0.29127848 0.18276465 0.21922907 0.34901547 0.38340503 0.44552508 0.5895382 0.2883051 0.3047946 0.28306192 -0.025909878 0.2248468 0.28208837 0.28946012 0.03482013 0.27276742 0.12729739 0.3248848 0.3201961 0.13272767 0.3864247 0.3996489 0.4353549 0.7167034 0.5217266 0.79340553 0.7921023 0.6176706 0.62412834 0.85674924 0.83167255 0.7441218 0.85640776 0.930535 0.92445564 0.89243156 0.4336752 0.45476425 0.4465136 0.43371606 0.42156056 0.40257502 0.19216762 0.36693996 0.27994305 0.51811016 0.52738 -0.008710433 0.14824086 0.015582517 0.39791438 0.47867057 0.49896705 -0.04560907 0.02297686 0.21305518 0.32057217 0.3317807 -0.12137973 -0.31484932 -0.3364938 0.23519468 -0.13550627 -0.166153 -0.16865738 0.16301268 0.28252023 0.19214082 -0.04707418 0.318134 0.300493 0.3257264 0.20044027 0.27722374 0.115319565 0.14824651 0.18653283 0.14666374 0.15089142 0.100595124 0.08745906 -0.03904646 0.075141534 0.23815799 0.38724238 0.44107074 0.46493405 0.6263368 -0.07824103 0.47888693 0.5380893 0.7666788 0.6593025 0.6470562 -0.27698597 0.5710906 0.5493622 0.6965836 0.6224294 0.5033141 0.49481678 0.34080756 0.39187405 0.32295817 -0.014332831 0.351902 0.30030632 0.119617224 0.16865978 0.38646263 0.43035465 0.09409651 0.5436666 0.09114466 0.6412295 0.6744216 0.11658607 0.7000597 0.080486104 0.675346 0.69873416 0.054209575 0.47973704 0.5530261 0.6015792 0.67682874 0.21283615 0.2515973 0.13802063 0.033609785 0.2677278 0.065650426 -0.22092324 -0.033770278 -0.20314834 0.03225489 0.14829491 0.42986837 0.48606497 0.18027239 0.68955773 0.27883008 0.7418235 0.7715472 0.3280536 0.7309127 0.76450515 0.34786266 0.3310191 0.29891703 0.40167162 0.4405715 0.63092613 0.70404613 0.7450188 0.28891674 0.2806562 0.24382652 0.24388787 0.33954224 0.36783138 0.40795594 0.25054634 0.23751873 0.2351583 0.29411986 0.18418041 0.33462667 0.34720176 0.35539535 0.2024439 0.37775305 0.45739287 0.6005603 0.62703514 0.74241793 0.7094462 0.82585466 0.7524548 0.7940605 0.8644628 0.88991827 0.89615405 0.8794776 0.38057503 0.36888546 0.4008156 0.38067096 0.4213069 0.35823876 0.49229795 0.56770474 0.59353954 0.5879253 0.15090597 0.14907894 0.40831986 0.5351567 0.55440843 0.5444882 -0.02784651 -0.16039082 0.18331075 0.47113872 0.47649243 -0.16714792 -0.20390762 -0.08514928 0.35669032 0.26767924 0.23703004 0.23547003 0.22787267 0.39920878 0.27883154 0.16968985 0.181571 0.2