# vtk DataFile Version 2.0
Really cool data
ASCII
DATASET POLYDATA
POINTS 11583 float
-48.710064 -13.843611 -4.6703167
-48.820404 -13.236089 -5.2779226
-48.807858 -13.539429 -4.55822
-48.715668 -13.361086 -3.992895
-48.62601 -12.64933 -5.90546
-48.808643 -12.546658 -5.2328815
-48.894417 -12.688548 -4.498891
-48.6795 -12.682743 -4.0446615
-48.589962 -11.8712635 -5.5352507
-48.718243 -11.841759 -4.615523
-48.638733 -4.0785675 -7.7977304
-48.658703 -4.2883096 -7.3951755
-48.64653 -4.245007 -6.877101
-48.623257 -3.945062 -7.8257675
-48.692596 -3.6520138 -7.272428
-48.691776 -3.584797 -6.9107585
-48.58722 -3.1394312 -7.0546155
-48.591755 -3.1695845 -6.784471
-48.100067 -13.928145 -5.978518
-48.400185 -14.026267 -5.371208
-48.540276 -14.053821 -4.5989227
-48.18725 -14.161463 -3.8071337
-48.223457 -13.371909 -6.1616654
-48.40896 -13.691628 -5.736696
-48.514618 -13.349098 -3.7985208
-47.94077 -13.134457 -3.1434925
-47.834732 -12.582889 -6.709156
-48.188557 -12.686612 -6.3179455
-48.350494 -12.638335 -3.5970712
-47.995667 -12.574549 -3.2615328
-48.144142 -12.069727 -6.1813245
-48.51514 -11.392734 -5.364298
-48.463066 -11.459549 -4.4619255
-48.26306 -11.92856 -3.7993152
-47.759254 -11.953226 -3.2812457
-47.76077 -10.422401 -6.3544946
-48.099415 -10.835594 -5.6115317
-48.302334 -11.176601 -4.70554
-47.99771 -9.197456 -6.173388
-48.072563 -9.415511 -5.7636256
-47.72178 -9.473036 -4.562027
-47.937775 -8.566999 -6.2909636
-48.06071 -8.790406 -5.3744693
-47.8016 -8.446005 -4.7796884
-47.81167 -7.9099026 -6.2545056
-47.850037 -7.2353716 -5.835443
-47.75028 -5.803709 -7.8615103
-47.869415 -6.604957 -5.84468
-47.94352 -4.8872423 -8.296492
-48.275238 -5.192908 -7.385823
-48.315228 -5.0790524 -6.7734632
-48.265175 -4.4176784 -8.100933
-48.465195 -4.716854 -7.6400976
-48.491642 -4.3879266 -6.4566154
-48.090565 -4.191027 -6.0183377
-48.37596 -3.6866815 -7.9934764
-48.56296 -3.2874856 -7.5316463
-48.48405 -3.4801989 -6.51018
-48.162945 -3.66855 -6.1165853
-48.258354 -3.0350988 -7.903567
-48.34694 -2.94682 -7.3579535
-48.273945 -2.978666 -6.741223
-47.81623 -3.0171676 -6.2352595
-46.717545 -19.782825 -16.991987
-46.714046 -19.755589 -16.590752
-46.746647 -19.483385 -17.264263
-46.973812 -19.231411 -16.452
-46.7004 -19.482977 -15.927761
-46.783836 -19.079277 -14.512246
-46.672386 -19.01944 -13.930316
-46.629944 -18.373604 -17.95448
-46.90426 -18.57996 -17.344347
-47.08057 -18.42479 -16.562096
-47.083397 -18.174416 -15.342125
-46.897575 -18.455462 -14.471385
-46.60859 -18.849796 -13.570749
-46.98537 -17.86302 -16.554716
-47.03255 -17.719772 -15.591337
-47.014755 -17.47489 -14.727814
-46.7794 -17.649982 -13.883168
-46.665 -16.435862 -15.922767
-46.881676 -16.58202 -15.414803
-46.79384 -16.540613 -14.530783
-46.663834 -16.688488 -13.97112
-46.918385 -15.734161 -5.0916576
-46.96317 -15.911499 -4.372316
-46.918304 -15.858993 -3.8936143
-46.639957 -16.12853 -15.823442
-46.703266 -15.969494 -15.370478
-46.67381 -15.774719 -14.85247
-46.852486 -15.025336 -5.936437
-47.21196 -15.314151 -5.235653
-47.426918 -15.4990635 -4.275151
-47.23063 -15.434126 -3.6565366
-46.984573 -15.179183 -3.21162
-46.951706 -13.953022 -6.633422
-47.22629 -14.227977 -6.271186
-47.235 -14.42497 -3.0744252
-47.447224 -13.365173 -6.68803
-47.423157 -13.70151 -6.5779305
-47.195793 -13.385218 -2.77325
-47.402653 -12.370885 -6.835486
-46.85524 -12.717933 -2.5448651
-47.233227 -11.621463 -6.803935
-47.36395 -11.837338 -3.0960944
-47.12742 -10.140008 -6.9813724
-47.366318 -10.864714 -6.6339974
-47.21406 -10.829111 -3.5910707
-46.840237 -11.072453 -3.08489
-47.502014 -9.274758 -6.903896
-47.44827 -9.470614 -4.247016
-47.380398 -8.294382 -7.021348
-47.018467 -8.854085 -3.8267522
-46.913044 -7.109982 -8.066684
-47.25292 -7.526251 -7.3693233
-47.463165 -7.8355527 -4.5315876
-46.98163 -7.7274504 -4.1723905
-47.360752 -5.992737 -8.140698
-47.541004 -6.5397058 -7.0750465
-47.348 -6.6346703 -4.99786
-47.48874 -5.09371 -8.50207
-47.564114 -5.201432 -5.440492
-47.11652 -5.604498 -5.03693
-47.532463 -4.408127 -8.683269
-46.945778 -4.4922667 -5.106534
-47.14519 -3.5776327 -8.771623
-47.118362 -3.8293722 -5.3263307
-46.698315 -2.7213287 -8.890254
-47.537163 -2.6663926 -6.4487395
-46.73375 -0.8457562 -11.8067045
-46.740494 -1.0090215 -11.423304
-46.62928 -1.4893249 -10.645751
-46.620445 -1.2844639 -9.489828
-46.800613 -1.8384458 -8.013664
-47.11564 -2.0054295 -7.231978
-47.083355 -2.2481716 -6.5850644
-46.875813 -0.21740101 -12.16174
-47.04828 -0.21509126 -11.578067
-46.857983 -0.70397544 -10.4756565
-46.584766 -0.63608384 -9.530978
-46.66809 0.45416945 -12.785808
-47.00922 0.5268719 -12.220543
-47.198566 0.4571463 -11.502472
-47.10037 0.427538 -10.590533
-46.844368 0.36004126 -9.783532
-46.63907 0.94065475 -12.763001
-46.86588 1.2209575 -12.2915745
-47.039463 1.203317 -11.531819
-46.97546 1.1908318 -10.793593
-46.642418 1.8061848 -12.09479
-46.710506 1.8034402 -11.5951395
-45.85205 -21.036192 -17.953476
-45.978428 -20.988184 -17.627432
-45.983246 -20.8934 -16.86495
-45.642998 -20.917042 -14.602042
-45.608227 -20.838362 -13.44958
-45.772953 -20.176073 -18.890535
-45.77546 -20.337345 -18.645832
-46.284985 -20.235628 -17.62521
-46.237137 -20.454163 -16.435978
-46.239147 -20.131386 -15.839647
-46.110046 -20.223213 -14.968828
-45.868404 -20.267092 -13.744641
-45.65366 -20.421883 -12.871155
-45.69641 -18.91953 -19.771265
-45.803074 -19.389748 -19.376976
-46.402534 -19.241999 -18.23831
-46.322628 -19.594229 -14.280225
-46.32577 -19.229712 -13.553823
-46.181744 -19.383022 -13.206439
-45.699673 -18.4912 -19.8777
-45.999184 -18.547213 -19.259785
-46.407463 -18.44556 -18.194809
-46.463352 -18.26041 -13.347283
-46.261112 -18.50061 -13.07325
-45.72484 -18.086773 -19.784424
-45.84474 -17.992622 -19.39291
-46.546303 -18.041355 -17.72487
-46.117855 -17.80707 -13.120297
-46.148098 -17.084566 -17.284607
-46.58036 -16.223162 -16.00128
-46.12303 -16.160368 -13.479291
-45.969666 -16.195503 -13.355785
-46.13018 -15.890705 -5.368383
-46.475243 -16.076782 -4.5394197
-46.372845 -16.016031 -3.7395945
-46.61563 -15.708021 -3.3349404
-46.17106 -15.668364 -15.947816
-46.41838 -15.626817 -15.500201
-46.3845 -15.596339 -14.619665
-45.990173 -15.6884365 -13.739414
-45.756798 -15.943056 -13.293971
-46.292786 -15.323028 -5.9807982
-46.355026 -15.373935 -3.03092
-46.00335 -15.282023 -15.284488
-46.040833 -15.269358 -14.626957
-45.876553 -15.364064 -13.955154
-46.522846 -14.119809 -2.571997
-46.40261 -13.318813 -6.9367523
-46.670197 -13.794513 -2.5471573
-46.36113 -13.295639 -2.3535376
-46.526985 -12.335491 -6.979828
-46.489742 -12.408205 -2.4886112
-46.446186 -12.763155 -2.371037
-46.597622 -11.415444 -7.135615
-46.535793 -11.735027 -2.6812067
-46.626003 -10.3367815 -7.3158875
-46.2757 -10.8601055 -3.0744107
-46.253887 -9.375359 -7.6946936
-45.97185 -9.8758 -3.1283393
-46.141796 -8.430034 -8.017265
-46.467384 -8.529192 -3.6384118
-46.501995 -7.507392 -8.0221815
-46.605396 -7.84485 -3.9189444
-46.228794 -6.310786 -8.870571
-46.61871 -6.688076 -8.435517
-46.752087 -7.0797567 -4.415831
-46.402718 -6.8438897 -4.2777877
-46.230988 -5.5341706 -9.080531
-46.46192 -5.46345 -4.7042212
-46.02931 -4.5889983 -9.2623
-46.179382 -4.7402434 -4.6896243
-46.081326 -3.2513285 -9.555731
-46.502605 -3.2400472 -9.219089
-46.56935 -3.532992 -5.077426
-46.412754 -1.8346107 -10.217085
-46.36544 -2.4340372 -9.463663
-46.328114 -2.6662962 -5.7972765
-46.42457 -1.1379735 -11.956397
-46.519527 -1.1564957 -11.62089
-46.170685 -1.3051453 -9.170322
-45.977886 -1.6894673 -6.5059924
-46.31073 -0.014294967 -12.940437
-46.454693 -0.42776403 -12.576655
-46.295498 -0.9471895 -9.141109
-46.448914 0.52589315 -12.979956
-46.608322 0.37545055 -9.376494
-46.060314 0.7923656 -9.021838
-46.199875 1.1503445 -13.111481
-46.571938 1.4508743 -10.503579
-46.296482 1.2556694 -9.743369
-46.20747 0.9471461 -9.3277855
-45.742496 2.198228 -13.000528
-46.437626 1.8264376 -12.349699
-46.4572 1.9575899 -11.90884
-46.051544 2.0042222 -10.579898
-44.54289 -24.542828 -15.966195
-44.583527 -24.554356 -15.353348
-44.65317 -23.55979 -15.280371
-44.733597 -22.349987 -18.252958
-45.094116 -22.162966 -17.44053
-44.819542 -22.798346 -15.6436
-45.003006 -21.798147 -14.83938
-45.259407 -20.855444 -19.02173
-45.328285 -21.375643 -18.525434
-45.52161 -21.68851 -17.395092
-45.553688 -20.90496 -14.7952
-45.277058 -21.223745 -13.521905
-45.18069 -21.065275 -12.710205
-44.828243 -20.879356 -12.077098
-44.8505 -20.269001 -19.755232
-45.295082 -20.407919 -19.29532
-45.377735 -20.498333 -12.466335
-45.162933 -20.268589 -11.960973
-44.614204 -20.224987 -10.970839
-45.304504 -19.225706 -20.03345
-45.523163 -19.338266 -12.3594675
-45.356514 -19.730574 -12.1437025
-44.608887 -19.712982 -11.036816
-45.29039 -18.396513 -20.156958
-45.51769 -18.242128 -12.444464
-45.2122 -17.832968 -20.056135
-45.538322 -17.410343 -19.122726
-45.53967 -17.46653 -12.686625
-44.874725 -17.20495 -19.842228
-45.1487 -17.20311 -19.375687
-45.579216 -16.429075 -12.938504
-45.648586 -16.163252 -5.1087866
-45.61227 -16.190332 -4.3912807
-45.535843 -16.094116 -3.821814
-45.80063 -15.812569 -3.3119338
-45.65826 -15.533121 -16.108335
-45.561287 -15.481813 -13.442015
-45.390076 -15.662627 -13.272529
-45.620075 -15.203445 -6.3240085
-45.343853 -15.180821 -2.8333833
-45.33114 -15.276504 -15.884348
-45.36024 -15.096983 -15.373299
-45.441643 -15.055041 -14.564722
-45.28503 -15.152404 -13.908311
-45.424953 -14.622796 -6.5294805
-45.615707 -14.632756 -2.5852623
-45.578964 -13.982737 -2.3438685
-45.599445 -13.255376 -6.724087
-45.713673 -13.351667 -2.2176251
-45.812214 -12.410304 -6.9891887
-45.36864 -12.722032 -2.2609606
-45.492214 -11.905518 -2.4301486
-45.24979 -10.262454 -7.536943
-45.746925 -10.674979 -7.4411364
-45.575058 -10.542243 -2.6580234
-45.2253 -9.174609 -8.060241
-45.169624 -9.468792 -2.80015
-45.39479 -8.357326 -8.328874
-45.813602 -8.459656 -3.4913502
-45.52819 -7.219575 -8.681925
-45.718 -7.4846764 -8.537288
-45.888466 -7.244192 -4.1970806
-45.439457 -6.441992 -9.005567
-45.217175 -6.228215 -4.24535
[...]
POINT_DATA 11583
SCALARS features_00 float 1
LOOKUP_TABLE default
0.7400651 0.72509265 0.732486 0.688802 0.6522966 0.6974706 0.6964047 0.6634544 0.61164737 0.6490116 0.62000406 0.63256514 0.63900435 0.6193674 0.6387874 0.63866746 0.6339932 0.6312489 0.632288 0.7072468 0.734733 0.6795126 0.6245662 0.6814017 0.66099143 0.53486 0.5176536 0.584437 0.59494346 0.5168906 0.5499126 0.5600891 0.5889863 0.56538796 0.4549069 0.3662631 0.45201573 0.541839 0.39481956 0.41319695 0.4216856 0.41397038 0.46449137 0.44596964 0.43836573 0.47086173 0.42673007 0.45996773 0.50847304 0.5738704 0.60934544 0.5767751 0.6063597 0.6373004 0.6034365 0.6085609 0.6302897 0.62845385 0.6094872 0.61989594 0.62446237 0.61794966 0.58382326 0.3625484 0.34999573 0.38982174 0.39492774 0.35201365 0.36547443 0.35804468 0.44169253 0.43580782 0.45092797 0.47145486 0.43055493 0.36275253 0.47560167 0.50957096 0.5508876 0.5069285 0.58885366 0.6079131 0.662804 0.6415054 0.7057919 0.7035156 0.6934298 0.62909615 0.6678536 0.7001079 0.5989258 0.6888121 0.70227706 0.6764572 0.6347232 0.49212924 0.5440631 0.5812392 0.5197186 0.53232247 0.4598105 0.45819685 0.38522106 0.3975553 0.394667 0.3129635 0.3685032 0.31470606 0.29023457 0.33322304 0.38039917 0.3378214 0.31381744 0.28013235 0.29661345 0.34564054 0.2621477 0.36133963 0.3688184 0.30459777 0.43166083 0.36942145 0.2337742 0.46547347 0.30721867 0.43396235 0.41245735 0.32007304 0.56154066 0.53587866 0.5350608 0.5016154 0.36793095 0.41146204 0.5451644 0.5079224 0.57686365 0.6081774 0.54607713 0.48626536 0.56906474 0.6257267 0.6709554 0.65431774 0.5559751 0.5765213 0.61418855 0.65072405 0.61803854 0.575734 0.57522345 0.30671683 0.30110905 0.26966554 0.20428446 0.24809992 0.39635575 0.37315035 0.34615117 0.27730486 0.276896 0.25978094 0.26582807 0.25577104 0.5316374 0.46910912 0.4152539 0.30437124 0.32433617 0.30660495 0.5661863 0.49995798 0.44486356 0.40552467 0.36771804 0.5816556 0.55110997 0.44358712 0.44168967 0.47352272 0.6035221 0.65130997 0.6376134 0.69445467 0.70243037 0.68647134 0.66319275 0.6549754 0.6901871 0.72692966 0.7149862 0.6637086 0.6086893 0.6219078 0.7165462 0.7466861 0.73940676 0.46736237 0.40610784 0.44265836 0.37827507 0.35753602 0.344142 0.35606122 0.3067177 0.314814 0.27639467 0.2343959 0.22308831 0.17026994 0.22658104 0.2348617 0.2692072 0.2206034 0.30044827 0.2944601 0.1985279 0.13862912 0.32297182 0.16087122 0.33962944 0.20286842 0.2375875 0.29838127 0.3205973 0.3822222 0.18545237 0.38454193 0.49399805 0.5079201 0.32786548 0.40217206 0.5181377 0.52348393 0.3993343 0.5453691 0.5212758 0.41003293 0.52095413 0.52340615 0.43764096 0.43136117 0.43148908 0.54996914 0.5442342 0.41897324 0.47344106 0.51482713 0.36730447 0.25269789 0.25625008 0.14463025 0.088942744 0.35379848 0.3062076 0.2679214 0.1932841 0.22694713 0.23917118 0.23800766 0.46211284 0.4103092 0.24396217 0.23557888 0.2714283 0.54456615 0.26590592 0.24022004 0.25503644 0.5960697 0.33234861 0.62143314 0.58032155 0.41941372 0.64816827 0.6306174 0.5688995 0.6848216 0.6929035 0.6871979 0.6603905 0.6164883 0.71117306 0.68191886 0.52473164 0.5502119 0.6304067 0.70643616 0.75678205 0.7407111 0.4109596 0.46887213 0.37592363 0.30517352 0.34053504 0.25911885 0.28145403 0.23950107 0.086016074 0.1625411 0.15959209 0.10233629 0.11778137 0.17291571 0.1518867 0.24878277 0.24591966 0.106019534 0.27001172 0.040230352 0.29841015 0.046704754 0.3481907 0.34942022 0.120729424 -0.018935427 0.39172226 0.37900108 0.23330155 0.20540327 0.24030656 0.44203898 0.39474434 0.35179403 0.38540202 0.4278903 0.41264045 0.46374166 0.34206766 0.39823878 0.4533608 0.3667607 0.38639817 0.29104355 0.28713688 0.4875585 0.53325033 0.4465729 0.3646763 0.27164626 0.5700447 0.5721903 0.5358749 0.41191298 0.6041477 0.60673815 0.5308427 0.46682972 0.636687 0.73691714 0.7455225 0.37927735 0.47541448 0.57252324 0.64713407 0.67916644 0.3338438 0.4347877 0.5356776 0.22272903 0.22823814 0.36316058 0.23082776 0.22944756 0.115633026 0.30465806 0.22494334 0.24867743 0.29920793 0.441756 0.26717842 0.30288506 0.32102728 0.51210165 0.5473015 0.2879504 0.32112616 0.32698488 0.56545806 0.6039351 0.30519643 0.33226585 0.37980655 0.3602417 0.5907916 0.6251308 0.21766596 0.328897 0.40452245 0.4010954 0.6417401 0.6321455 0.47004735 0.2387629 0.39733934 0.41552025 0.430133 0.41281196 0.63581383 0.6556165 0.30798054 0.5498825 0.6726017 0.4855792 0.4185992 0.54483473 0.6479032 0.7175601 0.7122584 0.42796367 0.25690547 0.06519076 0.22067206 -0.0011785515 -0.03018946 0.11658717 0.1315383 0.037419263 0.08275107 0.09429657 0.20210649 0.17297828 -0.045048483 0.24616234 0.26069054 0.31638166 0.39482665 0.38848788 0.5202969 0.3470224 0.32839727 0.33322257 0.2488235 0.28645918 0.45716017 0.62577355 0.4945736 0.40989032 0.2205059 0.070542306 0.6145538 0.6451638 0.68492115 0.79595625 0.41470987 0.16325395 0.6946589 0.7621564 0.8455726 0.8599756 0.30841982 0.8376993 0.8799426 0.8893013 0.26626137 0.23947832 0.28038415 0.22655717 0.48188335 0.21949786 0.55964404 0.58525765 0.24331021 0.5915034 0.60748696 0.6129867 0.5200262 0.4244076 0.34727773 0.61931086 0.6134653 0.52585006 0.6766006 0.77154946 0.78476506 0.45609212 0.5373171 0.6750658 0.76340115 0.7458986 0.39219195 0.45922625 0.6714425 0.68590295 0.3014432 0.5789948 0.18287057 0.21454632 0.25803852 0.21761754 0.26576617 0.31146222 0.30379474 0.35662237 0.40892434 0.312254 0.29919904 0.4377635 0.27971587 0.52988625 0.29561695 0.28323263 0.56613606 0.5787474 0.3610419 0.29236263 0.60201424 0.5804374 0.4282114 0.17129554 0.33625755 0.31475073 0.52681595 0.5509636 0.4500227 0.5664457 0.6510267 0.57234085 -0.049127817 0.460844 0.66999626 0.30492112 0.100855984 -0.18302572 -0.109523475 0.11000985 -0.097182795 0.19017118 0.3025195 -0.12323826 -0.09636637 0.2619091 -0.04330933 0.18387151 0.22999774 -0.023547348 0.19238015 0.14752237 0.051850867 0.217249 0.048153102 0.24829297 0.325635 0.3204121 0.45768124 0.5627129 0.42885482 0.04984002 0.556884 0.61629874 0.60239995 0.55873346 0.4842497 0.44654024 0.30523092 0.23904194 0.22080065 0.763945 0.5654658 0.28068566 0.86251915 0.4956227 0.103201956 0.8151153 0.90056187 0.38771686 0.29134747 0.9345962 0.98666793 0.9604031 0.2238127 0.18785186 0.4252974 0.1811936 0.5367155 0.23603283 0.6042574 0.6246552 0.30019122 0.64331603 0.62498564 0.5149223 0.44845498 0.5831386 0.5755275 0.72221917 0.78616595 0.8046082 0.42427135 0.7819854 0.7368091 0.35298982 0.69055593 0.26084235 0.5434208 0.3771468 0.22539666 0.22717234 0.30960333 0.198167 0.33638802 0.18768734 0.19320774 0.2106565 0.4272912 0.2445945 0.23132256 0.5040776 0.27536783 0.22501796 0.2026685 0.24757469 0.1710147 -0.2330233 -0.08727902 0.15653342 0.07600521 0.08951411 0.11163034 0.06751839 0.027245343 0.021710798 0.1695168 0.25858876 0.33291885 -0.15513624 0.3725087 -0.12104914 0.31831652 0.37541303 -0.06598893 0.20034915 0.12684238 0.2045126 0.25663498 0.399533 0.21082725 0.5309884 0.60686314 0.56907606 0.52024484 0.4703644 0.37924346 0.09650523 0.708719 0.6318468 0.60900056 0.16355166 0.12005652 0.797985 0.6009462 0.86561275 0.8598181 0.5182843 0.4778918 0.051034324 0.074632786 0.7384198 0.9392998 0.33899048 0.8836808 0.99222624 1.0 1.0 0.17071022 0.014349744 0.09956236 0.16600302 0.8686259 0.47806126 0.2303499 0.87137014 0.8880538 0.8864188 0.8821918 0.6112639 0.26680326 0.25924578 0.24574006 0.8359916 0.86100924 0.86685973 0.6688527 0.6560601 0.3572594 0.8097429 0.82086444 0.6306348 0.5155103 0.4364203 0.68573225 0.80307364 0.34482965 0.7903168 0.7491772 0.17296213 0.30719727 0.49102616 0.38175 -0.13440534 0.22826129 0.5803284 0.5051646 0.38916662 0.35215628 0.54831815 0.10074031 0.4303186 0.013875261 0.029673211 0.10416437 0.2095901 0.29064965 0.22023329 0.2234151 0.22296542 0.37612414 0.30389723 0.17409132 0.14115682 0.2159025 -0.25407502 -0.2842906 0.14170845 0.10358335 0.22250152 0.16326888 0.049462914 -0.1772761 -0.19451429 0.06608481 -0.13255079 0.023498647 -0.12902951 -0.23505631 -0.078425735 -0.1812641 0.2282508 -0.09227275 0.35969606 0.31613702 -0.104442276 0.39341062 -0.09636322 -0.09842883 0.36877927 0.40838885 -0.09656701 0.19699036 0.2501127 -0.05668455 0.10065824 0.22091827 0.16476981 0.3796088 0.14781769 0.09689798 0.58206546 0.632867 0.5930604 0.5163848 0.42931104 0.1216507 0.70107627 0.6589523 0.19253135 0.06566203 0.7467352 0.55785674 0.059875093 0.16370533 0.45626003 0.8163681 0.4752584 0.446549 -0.06655902 0.5808499 0.73941135 0.75915337 0.90588164 0.9291218 0.33768976 0.2391024 0.90345764 0.9555102 0.19112256 0.21562934 0.28634164 0.012378465 0.24397907 0.74422675 0.742674 0.22481765 0.7861941 0.83579016 0.39544475 0.17478614 0.65813524 0.788513 0.8649343 0.50910974 0.5416147 0.16439188 0.7270138 0.854157 0.6646066 0.25917542 0.17433462 0.17063154 0.108292736 0.73819566 0.77958935 0.7953678 0.6397729 0.515398 0.3472891 0.64122784 0.6660236 0.9068743 0.9025395 0.88553715 0.8980511 0.88405883 0.84391963 0.8843072 0.8811679 0.82017606 0.7293025 0.7856506 0.76003647 0.7446828 0.61203873 0.6131862 0.63218087 0.59916437 0.7955791 0.17175753 0.5808059 0.36553493 0.13721816 0.4086836 0.43394727 0.43543327 0.5615344 0.50135005 0.3673152 0.43293 0.4371621 0.61010975 0.33052322 0.34186864 0.58398676 0.11305606 0.48957103 -0.22679234 0.045066126 0.18477577 0.19171508 0.20331836 0.1600021 0.059453152 0.15793198 0.110525064 0.13269264 0.13841432 -0.41070312 -0.5623056 0.060726315 0.17015119 0.24128687 -0.16459925 0.0184317 0.1043669 0.23397478 0.13439238 -0.017581597 -0.24514541 -0.07411582 0.005379473 0.011552729 0.06372991 0.1003255 0.10241513 0.07372818 0.22093785 0.2430481 0.0662408 -0.0670091 0.31518257 0.31826207 0.11060707 0.0505324 -0.08274387 -0.093250245 0.4060745 -0.12415847 -0.027560994 0.1275674 0.3150013 -0.13474813 -0.22299045 0.105228536 0.050406605 0.30233124 0.099107325 0.089039356 0.42524505 0.5452992 0.5760536 0.505924 0.08495735 0.6047578 0.64925426 0.6153707 0.38393158 0.5096751 0.6195286 0.6720726 0.5363054 -0.082768664 0.50318813 0.5860878 0.7198666 0.73222435 0.4742725 0.41909316 -0.34827846 0.047894374 0.7635133 0.3568655 -0.005575344 0.119061135 0.26204085 0.2543156 0.1780405 0.286611 -0.070678905 0.29225355 0.6636875 0.7045704 0.7097912 0.07219903 0.20344962 0.48539153 0.75897336 0.74653316 0.26570857 0.23505892 0.11853926 0.617341 0.8091899 0.45952672 0.035397053 -0.006383918 0.64130753 0.7826867 0.55938756 0.18184975 0.027632818 0.023008876 0.47296023 0.72606945 0.07375148 0.20597035 0.111765966 0.13483347 0.5247785 0.5650888 0.629338 0.65922344 0.21319014 0.26107174 0.27609083 0.27887166 0.24847016 0.50933397 0.2612898 0.31587946 0.32226688 0.90241075 0.9152616 0.8805696 0.8694522 0.8968103 0.8338244 0.7214562 0.58922595 0.8599074 0.6093691 0.6106242 0.6323364 0.6288919 0.7785114 0.7515875 0.5418408 0.43743816 0.5120965 0.5759928 0.58480525 0.6023782 0.60525674 0.6013869 0.502271 0.53898674 0.5104296 0.5497987 0.54524577 0.5189915 0.4568303 0.4644685 0.45558238 0.3398641 0.07385301 0.29366174 0.2278951 0.29475778 -0.13772605 -0.19366232 0.39741322 0.41844517 0.54948217 0.477423 0.42361486 0.41550985 0.59698606 0.32447493 0.53301775 0.5648295 0.57666206 0.23066336 0.5366183 0.48931468 -0.04313793 0.41635585 0.3464828 -0.121895954 0.056461614 0.09553128 0.14448656 0.16357207 0.093348004 0.08104298 0.19962607 -0.020157645 0.094044626 0.16767299 0.23071577 0.29156682 0.027723514 0.1638532 0.24523786 0.39201593 0.04780656 0.36189806 0.42294854 0.12462372 -0.07658 -0.13772506 0.29939765 0.086898886 -0.1588748 0.057775043 -0.14648959 0.018854532 0.078247406 0.12136044 0.26469696 0.062614016 0.34633592 -0.016586918 0.36999178 0.34983027 -0.3279845 0.08811335 0.25193405 -0.15473254 -0.0971764 -0.09311123 -0.0027222224 0.00081651285 -0.0065616705 0.1339091 -0.009864448 -0.20729297 0.35944626 0.37785262 0.11839375 -0.07332778 0.2664842 0.42104006 0.52427757 0.44399616 0.17384602 0.04193622 0.39638856 0.18808177 0.45122972 0.5050307 -0.1457108 0.199136 0.4658117 0.4565259 -0.37442482 -0.080696285 0.1507629 0.38063323 0.19580968 0.20502229 0.10043423 0.11730468 0.67222416 -0.019978233 0.20084922 -0.08997687 0.25860587 0.6294949 -0.102302864 0.044874758 -0.29137337 0.21954584 0.6193824 -0.010055685 0.6339922 -0.101342656 0.70145977 0.22919382 -0.062140524 0.6254978 0.034672655 0.051682837 0.061522048 0.019574963 0.6098999 0.6165378 0.1523099 0.22662184 0.17003933 0.3534704 0.5224235 0.5616075 0.18073753 0.20183328 0.2628441 0.3186521 0.33980918 0.29960704 0.29064184 0.22534566 0.34551886 0.35519096 0.3492962 0.36058602 0.4034584 0.40743542 0.83695483 0.8615595 0.91210616 0.9043724 0.83399284 0.60670406 0.6245072 0.8236989 0.658502 0.54434323 0.60373163 0.623126 0.63510823 0.80487776 0.26120016 0.6332581 0.63838226 0.7277388 0.5773189 0.5307231 0.49439394 0.15476003 0.50969833 0.45781794 0.12041996 0.4183789 0.44129628 0.2336697 0.121399924 0.28536057 0.38284162 0.07356389 0.06122852 0.55904156 0.5698973 0.51188076 0.535311 0.23022217 -0.20443071 -0.06322664 0.306773 0.28745872 0.29506415 0.43891013 0.48865044 0.4325831 0.29472935 0.3509174 0.42599526 0.48842233 0.47325704 0.37063766 0.5275361 0.44093847 0.3058261 0.42915416 0.5113766 0.5163776 0.40163863 0.4847324 0.041402623 0.50255334 0.40950558 0.3161688 0.41816172 0.526966 0.5348776 0.44402283 0.42589837 0.35253823 -0.023713749 0.56246316 0.5745259 0.5620508 0.46579093 0.42054376 0.46757382 0.5045792 0.3029924 -0.44336763 -0.32627422 -0.019243814 0.04492403 0.58375645 0.6374355 0.5942105 0.4667359 0.38378274 0.044161536 0.067505226 0.09948215 0.143337 0.22575521 0.27018538 0.6100291 0.52001655 0.4644693 0.3051403 0.37176096 0.44182083 0.503466 -0.008155264 0.4693621 0.49609214 0.38393942 0.4428541 0.30769086 -0.16342199 -0.15583962 0.099346474 0.3383208 0.29700577 0.14004816 -0.023557901 -0.14553982 -0.10629147 0.05519857 -0.10471329 0.21352465 -0.024306297 0.24406897 0.25482833 0.20478353 0.20086417 0.03720918 0.26066947 0.28475532 0.28612727 0.30011648 0.29290697 0.07865414 -0.21680817 -0.4896131 0.10627079 0.26743948 0.26604 0.25388414 0.19664153 -0.13525201 -0.53561616 0.24680147 0.22793958 0.034716703 -0.200476 -0.03648199 -0.26976508 -0.05188071 -0.046132684 -0.20556033 0.13026014 0.109071106 0.10746893 0.008461356 -0.10670327 -0.11580077 -0.038740546 0.37309247 0.1767116 -0.26402068 0.050431512 0.1530852 0.47475904 0.4066607 -0.22253424 0.1748369 0.14929934 0.4410127 0.115943156 0.13744743 0.04466956 0.12348427 -0.15794134 0.5443997 0.49273068 0.04016882 0.3865235 0.47367156 0.44237372 0.49067214 -0.114541285 0.4670753 0.52130276 0.5591775 0.1943095 0.106061354 0.16745259 0.40339157 0.2177513 0.20734319 0.29109305 0.27044117 0.21539888 0.25829074 0.35463077 0.38263837 0.34399825 0.4424609 0.4587621 0.45913637 0.4391718 0.44848743 0.4849454 0.48089552 0.8019011 0.76141423 0.7738471 0.7492355 0.7594061 0.5891588 0.6256679 0.64040804 0.74987423 0.724264 0.4712741 0.5678764 0.6349449 0.6474754 0.7382047 0.41143137 0.5824885 0.51308954 0.47744852 0.4836977 0.427011 0.4181956 0.40727723 0.40144825 0.32014576 0.25568476 0.4237796 0.47484857 0.49460876 0.46700525 0.38465446 0.25077924 0.07002542 0.10794246 0.16220185 0.0034799576 0.42577544 0.50850797 0.51133066 0.46481055 0.71278393 0.6978362 0.6591024 0.33234456 0.14096409 -0.13931796 -0.21042743 0.37195957 0.48186243 0.47750458 0.43222374 0.68059504 0.65854996 0.62315357 0.5999782 0.59824586 -0.11937531 -0.07290894 -0.13064042 -0.20962268 0.17106907 0.3582386 0.43309507 0.39745155 0.36667567 0.6148967 0.5614017 0.5625617 0.14657743 0.017455094 -0.043840744 -0.22982985 -0.25672743 -0.20387131 -0.19787654 -0.24952641 0.16656955 0.29855183 0.35272786 0.3976337 0.4110666 0.3826853 0.4947943 0.5026338 0.24375194 0.11903217 0.09407841 0.0805241 0.27173662 0.43593574 0.50596106 0.5287715 0.121751614 0.24878713 0.36415794 0.4111497 0.27401483 0.22979063 -0.0021692067 -0.43455142 0.20722654 0.45772392 0.5359626 0.57407606 0.263641 0.23354 0.20488626 0.3176477 0.28172222 0.29451454 0.25992852 0.41151923 0.532899 0.5743276 0.47320735 0.42529577 0.29248345 0.37060654 0.30984262 -0.394636 0.20922722 0.42497808 0.48764405 0.45192668 0.41902533 0.28246415 -0.057966534 0.027877774 0.021986993 0.53648484 0.26820207 0.3795898 0.41357574 0.4073118 0.11018532 0.06575878 0.11079428 0.15199804 0.22841504 0.14939804 0.4413339 0.310949 0.1910299 0.2756473 0.36595988 0.30776036 0.24241441 0.17251319 -0.014200816 -0.0667526 0.49565768 0.2860929 0.1705668 -0.05981552 0.48989192 0.45205235 0.26449382 0.39927077 0.41702965 0.3044574 0.35560423 0.33216053 0.32896882 0.35933587 0.02166643 0.3370391 0.2934848 0.044721376 -0.08398433 -0.22052011 -0.2111041 0.12382737 -0.040262833 -0.06544711 0.08847226 0.13901614 0.2759889 0.21462443 0.17727056 0.19570744 -0.3881375 -0.10544426 0.19025023 0.4328926 0.3743828 0.29010263 -0.55687773 -0.47021866 -0.04564248 0.11802855 0.15161932 0.47471347 0.4514727 0.36291546 0.29320818 -0.5409918 0.4501375 0.40919787 0.2842741 0.2279968 0.18598545 0.13316499 -0.003403707 -0.106369205 -0.30695045 0.2970532 0.21769634 0.18891843 0.15574539 0.040843666 -0.2120411 -0.2562983 0.1550923 0.022534117 -0.09039122 -0.17919153 -0.20901947 -0.12566228 -0.01143159 0.055953927 -0.4245754 -0.25470433 0.06815752 0.16619623 0.021736816 0.07978739 0.11172748 0.20668559 0.032512397 0.13870014 0.12121412 0.33438772 0.12122326 0.24245304 -0.011434242 0.13958456 -0.12043856 -0.11889978 0.3956943 0.38740134 0.056806937 0.40172112 -0.03745187 0.37359583 0.37236047 -0.4094706 0.3248632 0.36500448 0.4033421 0.14198548 0.35966828 0.36383635 0.37416923 0.30542272 0.38869792 0.23995867 0.18399364 0.42212892 0.44018295 0.14867671 0.09762201 0.4685716 0.32305002 0.31493613 0.34272775 0.3142285 0.23920083 0.12627229 0.38559932 0.3239727 0.27486217 0.30335015 0.42298514 0.4614119 0.46593386 0.4271593 0.4724522 0.49366415 0.48587614 0.66963917 0.5513331 0.61592966 0.6255617 0.64072603 0.5831967 0.4897563 0.43760967 0.16940348 0.6180519 0.57470787 0.5966783 0.56760514 0.5336083 0.4727897 0.39525223 0.56993884 0.4150436 0.3470342 0.52766407 0.5520396 0.3976843 0.113871515 0.2375809 0.32600933 0.30445218 0.39570814 0.23679851 0.37186325 0.37737703 0.4089564 0.42144385 0.7003401 0.69392496 0.64353406 0.37937805 0.3543326 0.022838227 0.24585114 0.41683954 0.382026 0.68101305 0.7085631 0.692744 0.6450597 0.6084708 0.3468362 0.21287939 -0.1883648 -0.2139976 -0.14068335 0.058936454 0.3525262 0.32279995 0.6485137 0.59475976 -0.15103003 0.34282646 0.5304668 0.5682104 0.53574884 -0.10506715 0.15146546 0.39729849 0.44808862 0.095455796 0.43680722 0.4723616 0.5255705 -0.17266555 0.35314998 0.13691919 -0.28237087 -0.16617928 0.56600094 0.26828226 0.09463918 0.26422957 0.011558145 0.21980594 -0.45505148 0.16869026 0.3605214 0.35053223 0.32073575 0.15211745 -0.51840574 -0.45554554 -0.27492923 0.36483347 0.50448275 0.51384753 0.34826273 0.39654842 0.38525403 -0.02169533 -0.064273454 0.25820822 0.3990398 0.39025635 0.015425841 0.03117448 0.14038885 0.09705045 0.15604249 0.30403507 0.34939668 0.06306134 0.0324594 0.15472786 0.11036678 0.017861731 0.09914686 0.23015144 0.16165178 0.10358082 0.11697781 0.08946173 0.26513308 0.231543 0.21254253 0.26011443 0.33335394 0.30461895 0.22516051 0.29954442 -0.015364319 0.2857801 0.28984505 0.19398373 0.09058322 0.0833015 0.36136866 0.1488964 0.13311699 0.45016983 0.44457114 -0.5684707 -0.3164059 0.10622007 0.14713022 0.18813309 0.4815927 0.4869117 -0.403494 0.1326968 0.47377938 0.46759993 -0.3704772 0.43014222 0.37358224 0.15450343 -0.33574745 -0.3268229 0.08172871 0.09946923 -0.48745582 -0.5003527 0.2744485 0.19276488 -0.001041323 0.3531785 0.049044363 0.37951112 0.3651403 0.09368474 0.4081361 0.4136985 -0.0029610842 -0.041779652 -0.038123615 -0.2014545 0.18670994 0.58316386 0.51733875 0.408553 0.14979436 -0.6105592 -0.1429567 0.33583897 0.36255145 0.5704965 0.56299984 0.4213004 0.3304766 0.24718043 0.19145787 0.17933297 0.1903736 0.17904808 -0.008255929 0.32556584 0.4749745 0.29258016 0.21495005 0.1666367 0.13674635 0.19055863 0.2312398 0.2349411 0.15361139 0.2880507 0.30896097 0.250958 0.21132663 0.3735587 0.29797223 0.3808783 0.2633919 0.18586971