# vtk DataFile Version 2.0
Really cool data
ASCII
DATASET POLYDATA
POINTS 7712 float
-21.667858 3.679345 24.819626
-21.69237 3.616846 25.478699
-21.640009 3.891943 25.969704
-21.70877 4.3185153 24.738758
-21.755201 4.39446 25.490736
-21.615253 4.402011 25.95478
-21.609285 4.998297 24.79343
-21.609388 4.989065 25.508068
-21.57592 4.9425373 25.871994
-20.673576 -6.113386 17.649532
-20.82501 -6.115897 18.43214
-20.750826 -6.1339602 19.441149
-20.722336 -6.183688 20.005278
-20.617767 -6.2333965 21.414259
-20.81347 -5.56706 17.75433
-20.964771 -5.5276403 18.412497
-20.91519 -5.4568634 19.346514
-20.923164 -5.3208594 20.472322
-20.860195 -5.2115974 21.463625
-20.75516 -5.3298135 22.539349
-20.646135 -5.452736 23.303434
-20.70298 -4.7534485 17.767235
-20.806622 -4.7693295 18.363396
-20.916754 -4.843696 19.524355
-20.981174 -4.6494884 20.587252
-20.935194 -4.5768094 21.136166
-20.754904 -4.531993 22.64079
-20.658602 -4.540665 23.432388
-20.648716 -4.241084 19.067966
-20.722025 -4.005373 19.774298
-20.783636 -3.9356105 20.37893
-20.671907 -3.903856 21.094875
-20.563787 -3.9694526 22.69103
-20.632248 -4.162853 23.3415
-21.229113 3.0965335 24.749317
-21.248732 2.9706724 25.452518
-20.953238 2.8852775 26.145273
-21.08487 3.5911891 24.099333
-21.437628 3.5699995 24.514105
-21.551641 3.4417362 25.778973
-21.2717 3.5823586 26.26143
-20.835714 3.7387536 26.84662
-21.185297 4.215326 23.917204
-21.509703 4.3402224 24.3543
-21.388233 4.481497 26.249313
-20.963634 4.3121653 26.753428
-20.56477 5.6728563 22.99757
-21.083502 5.6323967 23.897589
-21.40453 5.4290295 24.75352
-21.391823 5.3833346 25.621195
-21.157085 5.317047 26.101587
-20.534925 6.369749 22.119118
-20.608232 6.576074 22.672789
-21.051743 6.074407 23.718752
-21.030838 6.494245 24.395096
-21.07805 6.048589 25.305662
-20.628567 7.0041523 22.915867
-20.765224 7.1751256 23.633583
-20.821669 7.094168 24.34357
-19.576225 -11.984171 24.48737
-19.644941 -11.36638 24.621037
-19.590326 -11.328748 25.015297
-19.603468 -10.884625 24.090122
-19.60669 -10.967886 24.58975
-19.599163 -10.893112 24.90053
-19.894758 -6.8041263 17.138062
-20.166994 -6.8513613 17.739454
-20.333002 -6.8722873 18.572704
-20.0981 -7.0359464 19.506474
-19.875229 -7.060191 20.45154
-19.994871 -7.055003 21.492136
-20.08162 -7.0115266 22.360584
-19.741053 -6.9971046 27.545284
-19.645376 -7.0179954 28.23173
-20.1427 -6.1885715 17.032173
-20.42554 -6.411758 17.578445
-20.536808 -6.6710424 18.805365
-20.502293 -6.63042 19.258537
-20.463417 -6.4950194 20.512865
-20.468733 -6.4315095 21.446922
-20.510054 -6.394724 22.12609
-19.969555 -6.4331765 23.540413
-19.984777 -6.0777564 24.111467
-19.742361 -6.4683003 26.923624
-19.88998 -6.4036374 27.587358
-19.813335 -6.3165493 28.208317
-19.625738 -6.2469554 28.806988
-20.30842 -5.4529295 16.949463
-20.184511 -5.2441177 24.667887
-19.609146 -5.3728466 25.66284
-19.832518 -5.1784344 26.721842
-19.915653 -5.7113075 27.554897
-19.706457 -5.6871157 28.540115
-20.257036 -4.697611 16.928524
-20.488031 -4.5775127 17.58373
-20.396814 -4.7302876 24.26005
-19.989483 -4.646138 25.105495
-19.515858 -4.1061745 26.665737
-19.68853 -4.613111 27.653967
-19.646496 -4.904724 28.274513
-19.835701 -3.770904 16.72149
-19.982864 -3.7080686 17.712658
-20.45368 -4.1173043 18.410044
-20.356916 -3.9151387 19.287302
-20.564823 -3.5914497 20.254572
-20.373663 -3.6812623 21.695759
-20.278135 -3.5614822 22.608088
-20.365442 -3.6251664 23.021149
-20.028801 -3.6392474 24.353495
-19.733603 -3.6348774 25.504955
-19.619308 -3.5664728 26.259583
-19.625391 -3.190618 16.873697
-19.772512 -3.0682101 19.19834
-20.064407 -3.151355 20.490469
-19.687714 -3.0677052 22.083044
-19.86413 -3.211511 23.270771
-19.569365 -3.0006707 25.304283
-19.901354 2.076475 24.682598
-20.224398 2.1249797 25.649021
-20.218046 2.097054 26.000305
-19.978367 2.841236 23.938246
-20.367609 2.5525107 24.682404
-20.46969 2.5639837 26.37667
-20.151884 2.8627112 26.99863
-20.078392 4.017758 23.224821
-20.51681 3.7419355 23.633331
-20.162308 3.5213234 27.311796
-20.236391 4.8740854 22.861765
-20.496979 4.3065147 27.041164
-19.598875 6.0593843 9.809189
-19.704414 5.939714 10.5346365
-19.834244 6.1782165 11.413054
-19.845787 5.761058 21.123266
-20.201859 5.813952 21.629774
-20.660332 5.564568 26.373198
-20.422995 5.35368 26.66226
-19.663248 6.7092285 9.618885
-20.029293 6.6382465 10.708839
-20.13563 6.74153 11.411233
-19.949614 6.7920504 12.158401
-19.910856 6.3871865 21.08488
-20.290993 6.450986 21.68138
-20.494785 6.4343076 22.796827
-20.512444 6.642043 25.33219
-20.5981 5.8256454 26.228746
-20.193918 7.475685 10.696874
-20.321457 7.559233 11.500072
-20.03165 7.5400934 12.264738
-19.835321 7.9432592 12.63728
-19.788092 6.9888163 21.153864
-20.00213 7.209549 21.66933
-20.34679 7.2685766 22.55593
-20.500383 7.5609922 23.667498
-20.503962 7.6014233 24.159197
-20.32477 7.3980756 25.018566
-19.732944 8.196388 9.78212
-20.084572 8.331871 10.691909
-20.210085 8.344464 11.436984
-19.992167 8.360856 12.242338
-20.191044 7.8874207 23.767014
-20.176332 7.8658686 24.220442
-19.910574 8.848872 10.937637
-19.855135 9.014678 11.526338
-19.88779 8.872738 11.942591
-18.772469 -13.841374 24.217232
-18.768847 -13.462025 23.057768
-18.971262 -13.435184 23.694538
-19.01295 -13.406888 24.397701
-18.8329 -13.230992 25.149374
-18.899235 -12.282704 23.058912
-19.29491 -12.489765 23.712893
-19.416332 -12.350279 24.429039
-19.210539 -12.406133 25.271069
-18.883146 -12.226813 25.823612
-18.813044 -11.646471 22.73633
-19.440266 -11.590328 23.783087
-19.417948 -11.611973 25.238695
-18.938047 -11.666439 25.991524
-18.904644 -10.569566 22.902987
-19.37285 -10.669041 23.913649
-19.40201 -10.47303 24.574667
-19.308102 -10.902438 25.44458
-18.796053 -11.042412 25.947304
-18.61001 -9.412728 22.78577
-18.949446 -9.727402 23.687918
-19.145792 -9.849951 24.364193
-18.99264 -10.106724 25.243402
-19.136774 -7.71524 18.63205
-19.267591 -7.5856977 19.316156
-19.209385 -7.6557164 20.685478
-19.387053 -7.6356144 21.181356
-19.37277 -7.6845255 22.256332
-18.624882 -8.645574 23.489994
-18.74881 -8.559416 24.207853
-19.038212 -8.037201 27.762188
-19.025354 -7.811942 28.380991
-18.686918 -8.040483 29.114086
-19.39744 -7.1920257 17.184818
-19.408718 -7.274443 17.496777
-19.620684 -7.339956 18.086391
-19.468584 -7.523862 19.671177
-19.398008 -7.345244 20.69312
-19.533777 -7.562916 22.4014
-19.5635 -7.43212 23.176159
-18.727545 -7.358344 24.706892
-19.358734 -7.256738 26.712978
-19.457071 -7.454322 27.412384
-19.42103 -7.2852497 28.34841
-18.963324 -7.234879 29.346136
-19.174114 -5.849276 16.324848
-19.475117 -6.316608 16.624956
-19.3751 -6.5104256 24.676441
-19.323294 -6.503327 25.328716
-19.541409 -6.743444 26.510796
-19.558329 -6.794959 28.50466
-19.216724 -6.5231924 29.141512
-19.385141 -5.3819003 16.230242
-19.35731 -5.518349 29.089344
-18.78455 -5.3920546 29.850595
-19.292496 -4.5044336 15.894676
-19.481863 -4.255602 27.45905
-19.382355 -4.728097 28.631712
-19.166216 -4.6089406 29.027613
-18.685999 -4.7310624 29.946657
-19.238274 -3.735527 15.92872
-19.546865 -3.5202067 16.290966
-19.490805 -3.5775082 26.801382
-19.356277 -3.5675704 27.219961
-18.999146 -3.590949 28.529396
-18.757277 -3.8298774 29.533754
-18.639444 -4.0037847 29.960642
-19.108122 -3.2032008 16.114126
-19.223143 -2.9651675 16.667233
-19.111855 -2.6305861 17.416637
-19.12303 -2.6841912 18.161245
-19.034307 -2.365532 21.926914
-19.371325 -2.6904001 23.531542
-19.144608 -2.5549078 24.607859
-19.27167 -2.6362576 25.417875
-19.391401 -3.104548 26.442642
-18.90931 -2.71594 26.917355
-18.840818 -2.1980865 17.76448
-18.805538 -1.635804 18.55405
-18.963488 -1.1858386 19.806292
-19.024206 -1.4378345 20.749033
-18.70087 -1.5502208 21.403345
-18.622295 -1.9228781 22.210459
-18.880243 -2.0437906 23.985271
-19.00727 -2.2961743 24.509134
-19.080778 -2.2987976 25.0475
-18.810587 -2.370797 26.329666
-18.6591 -0.6729834 18.754372
-18.75025 -0.5954447 19.77703
-18.790136 -0.5883135 20.592289
-18.644905 -0.49354666 21.160515
-18.632608 -0.035365164 20.179089
-18.592876 0.05112715 21.11788
-19.006174 2.0163321 23.96381
-19.259163 1.7365273 24.569502
-19.72856 1.7700615 25.40426
-19.561123 1.8769253 26.33183
-19.064005 2.2856855 27.124647
-19.361116 2.6448042 23.54463
-19.36292 2.5267496 27.159136
-19.541851 3.4163127 27.655613
-18.816729 5.1375804 9.017438
-18.928278 5.034849 9.554739
-18.968243 5.091952 10.444167
-18.758728 5.218023 11.211252
-19.267855 4.9224567 21.689875
-19.659716 4.2509723 27.494022
-18.808336 6.006712 8.307001
-19.082273 5.6255493 8.799424
-19.193895 5.464592 9.506628
-19.45894 5.6556687 10.282407
-19.448465 5.788375 11.341633
-19.399055 6.0403495 11.942457
-19.448675 5.6726265 20.961588
-19.291885 4.861482 27.28807
-19.231705 6.4383407 8.755025
-19.516867 6.6748357 12.475082
-19.39326 6.8741655 12.670308
-19.572788 6.431735 20.789906
-19.881445 5.9783745 26.531567
-18.863724 7.1541424 8.384796
-19.148594 7.2068276 8.756017
-19.459688 7.517692 12.804857
-18.76059 6.9524684 20.226425
-19.418427 7.198288 20.918756
-19.653223 7.5875783 21.44528
-19.625134 7.3206954 25.582758
-19.679642 7.1099973 25.634226
-18.851538 7.8044915 29.846899
-19.088839 8.09538 30.41427
-18.900822 8.074622 31.251003
-19.00532 8.421358 8.999966
-19.349588 8.356555 9.369024
-19.416853 8.45771 12.800714
-19.340643 7.974193 21.781683
-19.159292 8.357768 22.805002
-19.308311 8.320653 23.425568
-19.372168 8.362997 24.110846
-19.358871 7.9499073 25.187605
-18.678598 8.684789 29.128096
-18.899086 8.598436 29.718142
-19.137892 8.733963 30.735006
-19.053358 8.745146 31.451292
-18.710258 8.78503 32.426243
-18.916496 8.94686 9.184654
-19.065277 9.091567 9.628156
-19.244413 9.350906 10.645523
-19.286673 9.519093 11.7328615
-19.494593 9.156966 12.215475
-18.574617 9.658341 13.431171
-18.811108 8.579601 22.585793
-18.932074 9.493819 30.033813
-19.186718 9.449337 30.716795
-19.219933 9.655311 31.378855
-19.010223 9.62051 32.129253
-18.561993 9.225917 33.03641
-18.524555 10.022901 13.920182
-18.682438 10.17832 29.986858
-19.009455 10.341384 30.798052
[...]
POINT_DATA 7712
SCALARS features_00 float 1
LOOKUP_TABLE default
0.70194006 0.7160964 0.6946044 0.6665273 0.6751454 0.6644302 0.6094882 0.6254375 0.62587637 0.61341524 0.56344 0.46461016 0.40940714 0.34088892 0.5984931 0.55510426 0.49139953 0.42888272 0.40565187 0.39449966 0.37912586 0.5036887 0.4797032 0.44417065 0.3981694 0.38187057 0.3418102 0.3428998 0.38175642 0.351431 0.3381591 0.30922747 0.2809659 0.30909804 0.6802306 0.7225418 0.7139957 0.58672637 0.673102 0.7187202 0.6983489 0.67473125 0.5697731 0.63290334 0.6442999 0.6347306 0.44002908 0.48612761 0.563432 0.581793 0.576225 0.47333485 0.45858604 0.4591697 0.48642242 0.51586425 0.46586642 0.4733398 0.4828266 0.57740664 0.5255809 0.5460907 0.43598622 0.48743004 0.50185704 0.5970747 0.5723535 0.5046716 0.37963358 0.30052257 0.26794067 0.25154242 0.38723588 0.42507544 0.62606156 0.6064428 0.49680078 0.4447993 0.3438694 0.3177014 0.31449664 0.23615263 0.22606926 0.33160788 0.39404702 0.41766876 0.42641896 0.6314318 0.27938363 0.20501703 0.29705232 0.3831704 0.40334195 0.5533427 0.48324817 0.34095603 0.27580693 0.2731082 0.32225573 0.35438204 0.41911733 0.3295185 0.367126 0.32202226 0.29020458 0.23812881 0.21254046 0.23323165 0.25365266 0.26222202 0.271213 0.32536167 0.18958911 0.18682808 0.09110399 0.1568491 0.24749559 0.53176814 0.6482446 0.66468656 0.42500168 0.5743216 0.700564 0.6996006 0.3142795 0.4425827 0.68005455 0.39309272 0.62478113 0.5591036 0.56013286 0.60638845 0.45274198 0.46613964 0.5322213 0.5428702 0.6072962 0.6279993 0.67829895 0.6677592 0.48079807 0.48816 0.45457673 0.4617327 0.5057556 0.7310324 0.7476933 0.69019717 0.617428 0.46875376 0.4791898 0.48398083 0.49275836 0.49231994 0.45162228 0.63230383 0.70942247 0.7191875 0.646825 0.4924162 0.48781198 0.6643161 0.6517167 0.6318635 0.6546864 0.5047694 0.60573757 0.68154544 0.68477917 0.46376032 0.5723999 0.6173539 0.6611128 0.64915264 0.37257302 0.4859777 0.58475554 0.6235317 0.2902162 0.39670414 0.43462878 0.54328126 0.5935923 0.112686 0.25250888 0.32619047 0.43782243 0.3769427 0.32835674 0.2276575 0.21634336 0.13001043 -0.032908067 -0.037914634 0.38308454 0.44062912 0.49428853 0.56234574 0.5388367 0.49623975 0.31611422 0.26052022 0.15753692 0.079919465 -0.08342697 0.24838403 0.35923016 0.4308668 0.46302044 0.5848881 0.60394984 0.061016515 0.04810322 0.24274045 0.43274635 0.4335087 0.5952015 0.3980721 0.40325898 0.53762853 0.29899222 0.35325342 0.36521682 0.4092967 0.4650538 0.4153022 0.27678734 0.28147167 0.33279204 0.4026819 0.4251435 0.381621 0.3036054 0.20672996 0.16335104 -0.018650085 0.088745266 0.1815478 0.2542197 0.27841726 0.28105947 0.13331558 0.12935543 0.21066526 0.11730687 0.059714038 -0.024095371 0.0860191 0.15973407 0.21803679 0.2755431 0.21066692 0.24303995 0.19299349 0.14832968 0.23476037 0.16425316 0.3585981 0.508319 0.59579545 0.6197071 0.5841278 0.281723 0.6327907 0.63158965 0.4814232 0.49745154 0.5052616 0.4581584 0.25986192 0.59558916 0.5037646 0.5169445 0.5267826 0.54101163 0.54684347 0.55074644 0.411293 0.52897793 0.56659126 0.5989517 0.5813868 0.46596485 0.45209286 0.5531093 0.5801532 0.5838438 0.40711063 0.43928647 0.44902238 0.39006385 0.3953305 0.44960615 0.4976272 0.47921467 0.5421517 0.56989616 0.4969355 0.41037446 0.36153084 0.39266938 0.40734354 0.3945646 0.3967007 0.4662189 0.5477704 0.5434007 0.48538405 0.5400758 0.55350125 0.5812069 0.5489611 0.53978133 0.24253659 0.2851131 0.50588465 0.57554793 0.59479225 0.56801564 0.50254536 0.24813521 0.47558808 0.57423234 0.59605664 0.57737553 0.55063605 0.57739913 0.5694083 0.67268693 0.61157197 0.70547724 0.67402 0.6054425 0.54108405 0.5018015 0.5703906 0.6322564 0.65333223 0.6255874 0.6598338 0.65340376 0.6467199 0.53955156 0.42737198 0.2045044 0.27749455 0.40602395 0.66034734 0.6309199 0.5846225 0.50892735 0.429588 0.20901912 0.106809065 0.36254454 0.59186417 0.36991936 0.40456253 0.35339174 0.2113005 0.13472071 0.13831186 0.503028 0.5366629 0.3976112 -0.10820879 0.4452317 0.49839318 0.30421293 0.18201762 0.19753797 -0.011289865 0.09745376 0.5133978 0.5099765 0.5397287 0.4811908 0.4858297 0.43931854 0.5812451 0.57860136 0.41963482 0.42408025 0.6596824 0.65933263 0.6977236 0.6707073 0.45357493 0.4396878 0.45736298 0.6789899 0.7090515 0.74930394 0.6950729 0.45254195 0.42948115 0.45962605 0.47354248 0.69873 0.7140908 0.6317333 0.339606 0.2785035 0.30481574 0.42271248 0.46468174 0.48271662 0.09608601 0.0835792 0.09578945 0.011614539 0.20914367 0.26788476 0.15450269 0.18194781 0.11249867 0.016763452 0.2266093 0.25319785 0.20029713 0.13574643 0.09196223 0.4679373 0.16635948 -0.04336845 0.54687834 0.5212352 -0.28366467 -0.120333225 0.5112258 -0.13043559 0.5120308 0.40981984 0.42281863 0.44264796 0.45430768 0.40901542 -0.0046473537 0.0050022616 0.41333306 0.43510687 0.4582462 0.36815268 0.09245894 0.21641643 0.35514575 0.48584336 0.47402304 0.38567242 0.24665391 0.35126656 0.34633178 0.2958085 0.19554433 0.5032102 0.4262435 0.29533732 0.35785124 0.22380286 0.35170144 0.38000816 0.3181652 0.33125764 0.48056057 0.5084395 0.12081512 0.23793915 0.33128318 0.28071553 0.2216092 0.22190182 0.079453096 0.32327235 0.41508985 0.39659187 0.5159804 0.5207434 0.18923333 0.19065042 0.23101616 0.26151705 0.18971317 0.16226523 0.10785601 0.23060657 0.5035074 0.44821957 0.49480695 0.46980804 0.42872128 0.2953104 0.27636227 0.2698721 0.23127165 0.21418402 0.43529737 0.54649854 0.514091 0.4699065 0.48699582 0.41415948 0.41804272 0.38913193 0.5091127 0.53402483 0.5242889 0.47779763 0.5151881 0.6034224 0.6982149 0.6939692 0.6505296 0.6043324 0.53919035 0.49451005 0.50973487 0.67647696 0.7062186 0.55125785 0.25377962 0.39915198 0.50682503 0.5910431 0.6227268 0.6105439 0.61291826 0.26014268 0.5567664 0.4858243 0.47059357 0.48907995 0.39641142 0.30899203 0.3342995 0.39619613 0.18712536 0.1733949 0.04499403 -0.118763 -0.018138796 0.12439893 0.038008064 0.38153774 0.4630667 -0.041614074 -0.043642476 0.47570243 0.3254621 0.4880885 0.43720347 0.4080489 0.40377244 0.38761777 0.31553945 -0.16373268 0.53102154 0.36833137 0.45973855 0.53153765 0.50907004 0.46261543 0.42282036 0.06606761 0.27807713 0.39326677 0.5656328 0.6001801 0.46679944 0.32448658 0.1326383 0.45301214 0.6369046 0.45778954 0.21408872 0.4733895 0.6105151 0.6566449 0.6541514 0.5486205 0.5032236 0.058421142 0.47460264 0.48007 0.12966178 0.20308518 0.06372456 -0.005793348 0.16270673 0.23664808 0.36927593 0.41416463 0.3944806 0.34493235 0.30062538 0.122444615 0.07688807 0.4177642 0.41478187 0.29168746 0.2919736 0.3805667 0.384803 0.3636037 0.1613843 -0.103153944 -0.10388567 0.39281258 -0.17180064 0.36246213 0.20943075 0.26088855 0.2877838 0.38372546 -0.26462054 -0.27046782 0.2742542 0.3844909 0.289349 0.34905994 0.33444613 0.22913614 -0.05947122 -0.0037385793 -0.073461995 0.13414377 0.26229692 0.21197236 0.15708138 0.039171644 0.043400202 -0.28982192 0.14296818 0.12131363 0.23145036 0.20001042 0.16497703 0.20213954 0.12558466 0.15749174 0.18683799 0.10585492 0.13639136 0.24339356 0.31951404 0.0794356 0.15528256 0.20000401 0.20357378 0.23074797 0.30221304 0.32680523 0.33793122 0.43971908 0.10766158 0.09289998 0.11144416 0.09179136 0.440147 0.3820902 0.15505502 0.08179604 0.023866419 0.060536653 0.1346295 0.14294243 0.017675573 0.05119983 0.14340858 0.40285292 0.33936727 0.43682098 0.13013838 0.2627139 0.26605567 0.253681 0.070898324 0.059007198 0.42690903 0.43821195 0.2705823 0.316597 0.22803551 0.15392846 0.23817402 0.36341524 0.46001917 0.44604015 0.4030095 0.49255493 0.5033059 0.50128925 0.45944417 0.4823075 0.35656142 0.44285744 0.43982625 0.40766454 0.49456286 0.47853857 0.4636631 0.51855177 0.5569767 0.57069004 0.60738176 0.6065444 0.5594241 0.5296876 0.6585301 0.64545363 0.6459708 0.57309586 0.4631248 0.1547288 0.33428204 0.6444174 0.15972593 0.563552 0.58653647 0.5550876 0.46022573 0.4290185 0.4166298 0.16378632 0.18053804 0.1918803 0.15840955 0.14800116 0.11931269 0.00081113726 0.15602982 0.12539741 0.090450585 0.115657695 0.028507829 0.054282233 0.30512354 0.33772948 0.18175489 0.011106133 -0.01628448 0.39939556 0.29605907 0.266495 0.25106534 0.15532355 -0.012330331 -0.0005623512 0.33703893 0.34983677 0.30554515 0.3324135 0.34224483 0.19192615 0.027184173 -0.12429687 0.25556368 0.35500708 0.39418587 -0.27522898 0.3185617 0.4231115 0.3550273 0.47443405 -0.15065604 0.48637265 0.46947932 0.5879599 0.5040133 0.38983086 0.086518295 -0.02440567 0.44522864 0.41621476 0.49143043 0.45945868 0.39857548 0.5146178 0.53973365 0.02709136 -0.059909664 0.07831585 0.29130113 0.38706744 0.41873252 0.30304682 0.09101628 0.33847845 0.2010609 0.22891721 0.14264286 -0.14780049 0.044372544 -0.38883734 -0.06424748 0.23586476 0.2747711 0.1788646 -0.014929734 -0.1510215 0.19910045 0.48374125 0.4525513 0.4278624 0.26206702 0.15384376 -0.064283945 -0.074854754 0.24524653 0.23665321 0.2673569 0.18408567 -0.25269532 -0.2557931 0.20820989 0.22208825 0.52813345 0.48139995 0.40380168 0.32392132 0.16870564 0.019273333 0.08594072 0.069153726 0.26882458 0.27674413 -0.2353692 0.11247579 0.17259951 0.18239325 0.19080229 0.56504655 0.55139446 0.47969094 0.3681798 0.28105527 0.1697785 0.12938626 0.14726163 0.13081372 0.09223331 -0.21830425 0.07376808 0.013941139 0.09080641 0.13467784 0.20314163 0.4963302 0.41948807 0.3467897 0.28758883 0.12115176 0.12194158 0.12763762 -0.048753724 0.10426089 -0.06429811 -0.09724986 -0.3618415 -0.26459432 -0.055378035 0.011760369 0.12484329 0.18923056 0.2298715 0.26859486 0.3485532 0.33879334 0.12934282 0.22773899 0.13377422 0.15125461 0.30104077 0.31965667 0.31391636 0.23552093 0.34410155 0.30451137 0.23247263 0.3228843 0.31655735 0.14862588 0.015543459 0.003332384 -0.08386565 -0.029299721 -0.1557772 0.24305582 0.25052175 0.09562817 -0.016932536 -0.073222056 0.23312637 0.32535404 0.27592027 0.38360637 0.4365317 -0.051486168 0.22067793 0.28181696 0.11823835 -0.004213184 0.3941705 0.34936106 0.44839782 0.28656858 0.41047937 0.472936 0.46507603 0.3345618 0.3419679 0.28158194 0.14679201 0.30335504 0.38918582 0.38449046 0.450234 0.47947812 0.45346993 0.41929764 0.4849673 0.5790098 0.50982684 0.5021509 0.560365 0.6028296 0.62386745 0.5933484 0.58903885 0.6419649 0.6617324 0.5746552 0.55856377 0.537696 0.17006838 0.27843997 0.57882166 0.5471369 0.31746066 -0.06903161 -0.10678598 0.2142126 0.523546 -0.026597993 0.06714098 0.4499475 0.43968293 0.18553096 0.21295598 0.00071687996 0.1778208 0.19064876 0.16341053 -0.28292513 0.09681849 -0.12043548 0.07971689 0.22633345 0.24125975 0.11520104 0.07259682 -0.09203288 -0.010776833 0.21369915 0.22977181 0.024657682 0.07430435 0.19867304 0.23239326 0.09907789 0.2510581 0.17618677 0.09645952 0.44864625 0.38696492 0.35342875 0.106984794 0.46500486 0.4690922 0.39801496 0.010492846 0.21512301 0.6522713 0.6252879 0.6129642 0.46356672 0.4703672 0.15734479 -0.24543023 0.19190978 0.55127573 0.6092777 0.6210325 0.6145197 0.40403754 0.46118468 0.04610662 -0.22200246 -0.18810543 -0.18520108 0.12022022 0.5224533 0.58772635 0.3447768 0.3274938 0.21450618 -0.11271803 0.11828621 -0.19765908 0.43163264 0.029817775 -0.19815901 -0.23061408 -0.12232268 0.039130956 0.12632328 -0.3818205 -0.2696514 -0.30036432 -0.037814192 0.2102482 0.20315324 0.19582331 0.49875355 0.48365074 0.45069396 0.42521048 -0.24324411 -0.032186717 0.08244918 0.1530183 0.18198873 -0.35155302 -0.32178056 -0.057894014 0.14796436 0.2279399 0.19645941 0.19619626 0.26405486 0.27804235 0.5482358 0.52411115 0.20477647 -0.0027533881 0.08722481 0.04925966 0.073898934 -0.25230044 -0.49755907 -0.48987055 0.013581325 0.2474184 0.28625816 0.32931855 0.37292668 0.57513905 -0.09675723 -0.48616856 -0.14226428 -0.23835918 -0.11034397 0.08933731 0.072762385 0.049706962 0.12939364 0.15368181 0.24980885 0.3303554 0.37025172 0.56217474 0.49108714 -0.040219456 -0.058108367 0.05413399 0.24906197 0.31288117 0.37062162 0.41284543 0.34938434 0.29700124 0.24959646 0.080354534 0.26185817 0.31568527 0.29034096 0.027820244 0.13192305 0.196959 0.09470887 0.020834962 0.2161364 0.06429607 -0.13064876 -0.16085291 0.23530504 -0.20882614 -0.14752075 0.16269973 0.17902893 0.30670568 -0.1657992 -0.26291174 0.15334427 0.308315 0.3422078 0.36859196 0.3897255 0.29276478 0.27994198 0.27120095 0.16523793 0.13912019 0.17075916 0.20510928 0.2730763 0.4051491 0.43180704 0.3246631 0.18748406 0.37478405 0.0992426 0.11661401 0.25770682 0.3203918 0.31316316 0.31717223 0.5826423 0.49949217 0.5673466 0.6516086 0.68028235 0.6446035 0.67638326 0.69569206 0.67750514 0.33534014 0.2425285 0.24769545 0.33916172 0.38485605 0.5109521 0.43479154 0.36383703 0.17702177 0.23552603 0.41064382 0.38478294 0.44635004 0.47358692 -0.24709472 0.29508406 0.33520874 0.4666977 0.20876789 -0.20829116 0.0819492 -0.23892891 0.17651716 -0.23017521 0.1119342 -0.10110974 0.08341693 0.021651018 -0.10185578 -0.0470437 -0.034218427 0.021733709 0.15000269 0.08217586 0.058102626 -0.07263318 -0.13983242 0.00032034516 0.059981793 0.14837587 0.13165346 0.13162123 0.081946164 0.16293591 0.11297345 0.19163156 0.01715985 0.256057 -0.12478765 0.38390926 -0.14535664 0.37822604 0.50114685 0.59510374 0.57116973 0.5137997 0.40843886 0.43543234 -0.17239842 0.40800163 0.5478363 0.5965501 0.5696003 0.3628942 0.39215678 -0.1464172 0.38347518 0.41790378 0.6030375 0.61253154 0.3255501 -0.23370087 0.08846847 0.076526836 0.08500835 0.3346821 0.4492275 0.55978894 0.61180073 0.66829556 0.31114918 -0.19562003 -0.043194138 -0.097108364 0.068598524 0.11257738 0.09766439 0.18953821 0.4324099 0.52922106 0.61780953 0.4479758 0.43842632 0.05490927 0.009105153 0.102420196 0.14800793 0.16766952 0.17756599 0.059155196 0.3002221 0.48562634 0.47273773 -0.21368898 -0.0057349 -0.17183283 0.130225 0.5487014 0.54901916 -0.10889502 0.3505478 0.37881416 0.5675515 -0.2599631 -0.36451748 -0.10592559 0.4115047 0.43078482 0.5334011 0.5223642 -0.3447817 -0.32583356 0.39994872 0.43168437 0.47385418 0.31358913 0.32184747 0.3595513 0.36049592 0.118345305 -0.012507093 -0.055664826 0.14641935 0.12307297 0.41262358 0.4034203 0.36679348 -0.0462161 -0.06338709 0.15807739 -0.06489537 0.19490588 0.13026558 -0.3552402 0.2097542 0.29583487 -0.28489804 -0.3598643 0.14548174 0.21392131 0.2523048 0.32792318 0.3618005 0.15492249 0.2121644 0.25049946 0.3871277 0.39187568 0.31506115 0.38229814 -0.069818236 0.06262754 -0.002172269 0.21424057 0.34033528 0.35977823 0.20142199 0.38969296 0.34545752 0.19090141 0.20202598 0.40426543 0.3662759 0.38524663 0.49288338 0.64452034 0.58929205 0.5350449 0.6468052 0.69580996 0.67768085 0.3813812 0.42026463 0.47815877 0.47065648 0.4004014 0.31755233 0.36221927 0.3231931 0.35078478 0.43871564 0.3483103 0.29747808 0.07652978 0.18556857 0.24176939 0.33899885 0.32315314 0.15099838 -0.04393375 -0.017712444 0.09073233 0.3383333 0.097875014 0.058317527 0.30584002 0.28777903 0.12209752 0.23854955 -0.12344661 -0.051332865 -0.21677822 0.12714387 0.0410893 -0.23649478 -0.22679791 0.11210495 0.1425391 0.089204535 0.00063654035 -0.033395313 0.11461445 0.12157968 -0.009835102 -0.079236895 -0.084641315 0.12549537 0.13523982 0.13312754 0.081786394 0.15977019 0.1340542 0.13645321 0.26278523 0.29711434 0.13327411 0.25189105 0.30237564 0.0076190904 0.16693172 0.26638785 0.20744339 0.034770057 0.004062116 0.3043065 0.36858535 0.44733834 0.47643232 0.3097669 0.26819247 -0.15950894 0.2623015 0.34285647 0.4556063 0.5023681 0.34687668 -0.30581218 0.15469174 0.48715848 0.36285123 -0.27423573 -0.37490577 -0.33823955 -0.016534254 0.031103231 0.039490122 0.051289693 0.6045271 0.30663484 -0.31733543 -0.32461408 -0.082313865 -0.0018653944 0.055592693 0.06855715 0.6693495 0.24582672 -0.24417046 -0.18957542 0.67343163 0.6746457 0.442088 0.3902685 -0.2073883 0.57846165 0.65833086 0.50731486 0.46784458 0.29073563 0.5544653 0.38731378 0.40563843 0.5390394 0.4179862 0.488819 0.44010806 0.4293765 0.42652333 0.300384 0.3134973 0.1469893 -0.1863382 -0.0038572848 0.13177882 0.363109 0.40301996 0.32089832 0.21019726 -0.107841074 -0.07614061 0.011238109 0.40092564 0.3853827 0.34271201 -0.05976528 0.12556837 0.056666695 0.11220489 0.19801563 0.23534018 0.251879 0.3081178 0.33928663 -0.19930601 -0.025465611 0.119286515 0.21151212 0.22394966 0.24373381 0.38978302 0.39895806 -0.042500943 -0.035308942 -0.035701025 -0.07329722 -0.04301446 0.044767864 0.3602353 0.21359974 0.7099769 0.39110953 0.36196977 0.2878651 0.19635424 0.2627805 -0.045821145 0.033299714 0.01639449 0.0013791993 0.0084102005 0.019940928 0.2825551 0.39261886 0.38986766 0.70952463 0.3903741 0.58822197 -0.014925905 0.08055889 0.10199201 0.05269195 0.59791934 0.6712486 0.67234516 0.5432862 0.5411762 0.52420425 0.47876155 0.45378813 0.4604597 0.48999178 0.50909233 0.47303104 0.3715434 0.31847873 0.34205538 0.27712917 0.19414198 0.18429455 0.1509425 0.28096688 0.28782937 0.2760997 0.1346532 0.17125373 0.16526003 0.3022119 0.26061 0.09606318 0.24581245 0.4300639 0.33688048 0.057031788 0.09848238 0.19597651 0.5061094 0.50138587 0.4384566 -0.06984417 -0.034205984 -0.046001453 0.49334258 0.50403655 0.44864708 -0.11628832 -0.29899925 0.43225294 0.3735491 0.25942048 0.04672935 -0.1447626 -0.30049396 -0.16906008 -0.007975444 0.08852869 0.0061849207 -0.14580134 -0.2013664 0.11027568 0.08088806 -0.023456382 0.102608874 0.14228272 0.32123893 0.10299199 0.11330364 0.35231203 0.3935519 0.11909045 0.102898955 0.35734373 0.5354989 0.55595183 0.10926952 0.041768715 0.32636493 0.3814028 0.51686734 0.5230527 0.54395336 -0.011946991 0.14079453 0.14097215 0.21406871 0.25799143 0.4894507 0.49901474 0.22561693 -0.24523932 0.059063576 0.11862985 0.4384522 0.4472337 0.23346347 -0.2758088 -0.17880732 -0.11761567 -0.043416083 -0.066508494 0.35160476 0.34832084 0.1503849 -0.21855012 -0.08692692 -0.009259522 0.5641389 0.21631977 0.6253519 0.6164226 0.23718622 0.631433 0.42255536 0.40093392 0.62398183 0.61465085 0.5118593 0.55075085 0.36129743 0.53630674 0.53887284 0.32069832 0.51258516 0.4622497 0.30480504 0.42761952 0.3230236 0.17210563 -0.05004775 -0.11092419 -0.00085650384 0.06338636 0.374347 0.1747742 -0.22856094 -0.1280572 0.028247915 0.10603245 0.37369275 0.31797615 0.29006368 0.0896365 0.5579511 0.14328495 0.4044801 0.5689236 0.60744995 0.5794865 0.26578707 0.27069962 0.03612473 0.19282082 0.20842056 0.13046214 0.4399351 0.5786663 0.64450496 0.63929987 0.34839094 0.3655278 0.35014224 0.14401542 0.18762112 0.1308761 0.16251306 0.074588366 0.38277996 0.591992 0.7269611 0.7632687 0.3786735 0.34555763 0.1985139 0.13214643 0.102442585 0.13784108 0.5540204 0.71771204 0.83256626 0.8571035 0.34051144 0.40937376 0.55722594 0.082347855 0.085713215 0.17361498 0.58600265 0.7349599 0.85494673 0.89435315 0.50116396 0.5480423 0.3176423 0.30564612 0.2378273 0.22737151 0.17707519 0.40217328 0.3871604 0.30986595 0.27072394 0.23057893 0.5361302 0.58069444 0.5833295 0.52870303 0.4483729 0.36138546 0.48592067 0.39220703 0.3473056 0.34888005 0.33310813 0.3761664 0.41011697 0.43495774 0.22447433 0.26632163 0.32841694 0.3753891 0.33157927 0.39234644 0.4421203 0.4356793 0.18064825 0.1764543 0.28050163 0.28638327 0.31680238 0.37330008 0.39146292 0.4238249 0.18767104 0.19714469 0.20954677 0.06390833 0.13722965 0.21068689 0.3019293 0.38049912 0.12333836 0.19299345 0.116135806 0.353665 0.31099463 0.19879374 0.0024061655 0.21198684 0.21250689 0.005975779 0.15451606 0.3737973 0.4745172 -0.014551774 -0.11854984 -0.10287184 -0.063794434 0.2426689 0.34540996 0.4201339 -0.017535567 -0.10906609 -0.31180507 0.021685194 0.112841286 0.19486976 0.19321252 0.35039455 -0.20055835 -0.19333602 0.059126273 0.19498938 0.22444497 0.2644332 0.033414036 -0.037941404 0.20527534 0.24236998 0.22131875 0.044512853 0.07891921 0.26818168 0.13201636 0.093215466 0.34081042 0.13677306 0.13520958 0.37765047 0.39961934 0.49989772 0.5757172 0.5808101 0.61020935 0.103570625 0.09678575 0.3499087 0.26440713 0.31697 0.42899096 0.56165576 0.57965684 -0.04889442 0.15126118 0.56692827 0.60653526 -0.01592573 -0.14527005 -0.1203717 -0.006778761 -0.039243974 0.5093433 0.5460691 -0.027301665 0.030061577 0.055627782 0.4975112 -0.004608212 0.5331358 0.577479 0.56061673 0.3829784 0.4089458 0.5236301 0.44202942 0.32873857 0.53079146 0.5282689 0.4889804 0.059444316 0.46868077 0.29786927 0.327706