# vtk DataFile Version 2.0
Really cool data
ASCII
DATASET POLYDATA
POINTS 412 float
-0.5285307 -14.077197 21.17718
-0.5339264 -13.437467 21.30062
-0.6104088 -12.691954 21.897648
-0.5872243 -12.400504 22.60017
-0.5190716 -11.9150715 22.622887
0.15470079 -19.942387 17.748957
0.16615203 -20.061522 18.241837
0.07803959 -19.669285 17.689764
0.04857233 -19.523996 18.613333
0.23302601 -19.490217 19.108402
0.2719318 -18.531866 17.029047
-0.00908643 -18.975286 17.784193
-0.013414919 -18.796072 18.468874
0.4407797 -17.347395 16.577465
0.31414378 -17.632252 18.120245
0.3837828 -16.936783 18.533607
0.3173591 -16.785234 19.166555
-0.046939015 -16.32133 21.524023
-0.016742855 -15.531456 19.599556
-0.3769655 -15.4960165 20.58839
-0.32711568 -15.119407 21.462229
-0.38358372 -14.680535 21.364262
-0.37687978 -14.264839 21.889946
0.022213608 -13.934882 23.08194
-0.40648746 -13.381534 20.727797
-0.46043783 -13.559148 22.16181
-0.026254147 -13.373483 23.312244
-0.032607347 -12.690652 20.672796
-0.4438947 -12.151554 21.80226
-0.26724887 -12.37917 23.331987
-0.24330398 -11.732601 21.83679
-0.25639406 -11.466491 22.572876
-0.17011425 -11.619423 23.143589
0.07076129 -11.277016 21.718275
-0.08440277 -11.174786 22.40322
0.09053965 -11.262243 23.279507
0.9178672 -20.12475 17.074377
0.668614 -20.223858 17.413498
0.5699277 -20.424713 18.587217
0.61453253 -20.114582 19.090828
1.2172842 -19.93482 19.931362
1.2344365 -18.928665 16.061043
0.48639315 -19.129368 16.726465
0.5329328 -19.647392 19.35107
0.5141935 -17.586681 16.505579
0.68383455 -17.382448 21.37372
0.8422942 -16.688059 16.220678
0.7315347 -16.470335 22.303059
0.97402954 -16.00727 22.62475
0.7931031 -15.97932 16.652025
0.5359558 -15.816882 17.374619
1.0215992 -13.93887 18.610147
0.78195834 -13.319963 24.141968
0.6324088 -12.425928 24.220448
0.6134479 -11.788758 24.015707
0.7692207 -10.777304 21.519936
0.58079374 -10.517969 22.336079
1.1568459 -10.023706 21.991577
1.1528877 -10.029291 22.497356
1.4405235 -20.621397 17.885883
1.4552011 -20.736364 18.676687
1.7794536 -20.644033 19.57792
1.512781 -20.175514 17.017113
1.6306329 -20.233198 20.101236
1.3422781 -19.009348 16.058578
1.4752283 -19.292128 20.483517
1.7991471 -18.560719 15.621162
1.3291526 -17.20857 21.954445
1.5566673 -16.710331 22.424213
1.8461128 -15.607971 15.496081
2.0456207 -15.229956 23.460855
1.949727 -14.060702 14.625654
1.770338 -14.458882 15.678703
1.5716879 -14.134422 23.91822
1.9917343 -12.950734 13.915522
1.7692033 -13.553869 14.628321
1.641545 -13.541738 15.482999
1.529952 -13.741621 16.29132
2.035087 -12.490983 13.791967
1.7708862 -12.306282 14.31352
1.2823441 -13.297159 19.615105
1.4501048 -12.629491 24.478554
2.233274 -11.761649 13.774411
1.8843613 -11.723893 14.513015
1.6463789 -11.411925 20.733267
2.3678477 -10.914187 16.34628
1.2919714 -10.904947 23.758371
1.632418 -9.525514 22.18762
1.3706713 -9.925266 22.819822
2.078486 -9.229848 22.37909
2.6923823 -20.611221 18.488161
2.3999283 -20.695919 19.546545
2.4481244 -20.574324 20.016087
1.9462965 -20.452803 17.604958
2.4435887 -20.414028 20.294788
2.4076722 -19.146431 15.830153
2.392917 -19.587673 20.7845
2.2737467 -18.286072 15.36703
2.6287775 -18.615515 15.540571
2.3280632 -15.214302 23.361229
2.741029 -14.900051 23.607964
2.324787 -14.278856 14.421899
2.4798646 -13.3786745 13.589068
2.60556 -12.243826 13.291547
1.9956291 -12.540223 24.497305
2.6769762 -11.8442545 13.27404
2.5712442 -11.592151 13.507411
2.287063 -11.582556 24.294333
2.6299188 -11.167191 13.868899
2.408125 -11.102765 14.208977
2.4940202 -10.820085 16.670448
2.818513 -9.875476 15.3797245
2.9683821 -9.343034 16.342916
3.0948648 -9.39171 23.358648
3.149657 -8.919064 15.807031
3.2279537 -8.814266 16.2267
2.9720354 -8.489306 21.619488
2.7473032 -8.668059 22.153023
2.8439891 -20.55745 18.51674
3.0767574 -20.591755 19.416119
2.9237661 -20.57642 19.975363
3.1105828 -20.417606 18.522854
3.3267004 -20.396523 19.35714
3.087083 -20.232841 20.233688
2.9881432 -18.836647 15.810238
3.0582483 -19.348589 16.547003
3.0449138 -19.691729 20.627361
3.0891426 -18.577951 15.635729
3.4204693 -17.554577 15.44656
3.6097424 -15.838969 22.331547
3.4533036 -15.285376 23.28269
3.5651371 -12.478812 13.062305
3.1326065 -11.541017 13.248551
3.2349024 -11.833635 24.364769
4.018749 -10.442223 23.901024
3.598501 -9.526547 14.499479
3.24621 -9.32397 23.336065
3.423678 -10.0851965 23.861633
3.644406 -8.447333 15.821829
3.5474613 -8.610744 16.585041
3.7263331 -8.965941 17.15466
4.3916078 -8.089132 19.420727
3.8446422 -7.9884715 20.642876
4.10243 -7.6333914 21.958748
4.3488803 -7.1789875 21.166178
3.7618258 -20.056753 18.928507
3.674552 -20.072199 19.828283
3.8094358 -18.864248 16.459988
3.8948357 -19.333231 17.984344
4.2935467 -19.077291 18.641619
4.336771 -18.991228 19.48459
3.963129 -19.245968 20.111256
3.913233 -18.491346 16.122856
4.6310782 -18.193296 16.860996
4.306232 -17.549948 15.778065
3.7122579 -16.186928 21.544115
4.3501177 -14.772879 14.541842
4.1622324 -14.237087 23.145176
3.9300232 -14.057992 23.749615
4.1459723 -12.965705 13.205296
4.669898 -11.529979 24.406984
4.8229547 -10.64836 24.204638
4.7526703 -10.183413 23.956068
5.040737 -8.432281 13.748684
5.2080274 -7.9639893 13.991188
4.796911 -7.860667 14.875685
4.6530485 -7.3074574 19.967045
5.165905 -7.5256104 23.129683
5.248513 -6.4843435 19.816938
4.98158 -6.6693735 20.44876
5.0145025 -6.6367774 22.465609
5.103079 -6.2790895 21.093779
4.702269 -17.867702 16.293718
4.701606 -18.379229 18.177292
5.0817046 -17.400484 16.76861
4.987636 -17.398434 18.426485
5.259681 -16.198713 17.6307
4.8594112 -16.809183 18.869665
5.434344 -14.676435 17.441267
5.329476 -13.938891 22.994911
5.3277407 -12.245668 24.223104
6.085339 -10.942586 11.774478
5.5720463 -11.622441 24.248707
6.106746 -10.135889 11.669885
5.0032783 -10.906618 24.321312
5.73218 -10.045686 11.873108
5.576656 -9.407157 12.331856
6.1541862 -8.963997 12.123831
5.7617526 -9.0731325 12.47519
6.031823 -8.168736 13.125888
5.8306293 -7.7677407 13.676161
5.372327 -7.559895 23.100662
5.3445883 -6.401476 22.66668
5.5936527 -6.6427965 22.979614
5.876031 -5.7973385 20.090633
5.812426 -5.72357 20.759264
5.65164 -6.1647363 22.585848
5.9117355 -6.12865 22.73902
5.5887604 -14.310704 17.194876
6.4287877 -13.664889 20.967213
6.3350234 -13.928408 22.419847
5.7382293 -13.659955 15.972777
6.0521784 -12.818449 16.517641
6.5897384 -13.550097 20.894583
6.587125 -13.078488 23.183075
5.9265676 -13.018886 23.653967
6.8401723 -11.873311 12.523225
6.508079 -12.502971 23.474453
6.19426 -12.571939 23.74328
6.8086247 -11.278096 11.8199005
6.448702 -11.291599 23.639355
6.8688955 -10.041844 11.484047
6.44792 -10.694932 23.602457
6.6099925 -9.795789 11.554426
6.8727856 -8.851221 11.860429
6.616878 -8.472796 12.39327
6.6261187 -7.766098 13.705551
6.815659 -6.315651 22.86164
6.3740034 -5.863817 22.431072
6.3521805 -6.1612263 22.807673
6.722216 -5.340872 20.960527
6.4203496 -5.3975635 21.53995
7.2713413 -2.2571497 13.64213
7.010704 -2.4823613 14.526431
6.717028 -2.0123916 15.478841
7.1925197 -1.8179878 13.729046
6.8094916 -1.5210268 14.580971
6.721168 -1.5266231 15.438647
7.0422196 -1.7001382 16.116991
7.1481943 -1.081535 13.970567
7.0289145 -0.7719742 14.688016
7.022577 -0.89449644 15.686533
6.7998314 -13.684536 22.348347
7.2043357 -13.0246725 21.146889
7.19132 -13.295574 21.639946
7.1784368 -13.155872 22.389061
6.9295774 -12.870426 23.067467
7.6800313 -11.712648 12.114539
7.6647935 -12.19421 14.875932
7.05403 -12.27492 15.755745
7.310141 -12.653775 22.607847
7.1567426 -12.313521 22.968906
7.5752707 -11.293915 11.817483
7.1701865 -11.17367 22.9928
7.0732303 -10.461885 11.465888
7.4063187 -10.5903015 11.55327
7.389888 -10.287088 18.489916
7.6620173 -9.748716 11.680714
7.4045753 -8.573473 12.20335
7.4027553 -8.076856 23.012972
7.463408 -8.313106 12.687123
7.3937507 -7.3559647 23.097464
7.3658285 -6.930481 23.00777
8.072429 -5.7714934 15.13602
7.2060566 -5.930678 22.350853
6.938634 -6.200826 22.76904
7.9563484 -3.0765204 13.458625
8.062214 -4.2043734 18.94261
7.6088257 -2.2696373 13.314211
7.5007167 -2.4952116 16.791014
7.8092027 -1.4970989 13.2226305
8.176457 -1.4134127 17.517197
7.9783626 -0.8533219 13.210945
7.6273537 -0.6641883 13.7271595
8.037581 -0.45726493 17.143744
8.084845 -0.26290974 13.592889
7.4834585 -0.2574307 14.3330965
7.9710245 0.103247434 16.309734
8.486779 -11.859699 13.611123
7.64108 -12.464915 21.705753
7.6102033 -12.672199 22.026634
8.017747 -11.303034 11.980733
8.390208 -11.475788 12.601137
7.755812 -11.867506 21.672241
7.7472196 -11.605248 22.141626
8.677682 -10.187861 17.43802
8.6006155 -10.101363 18.762335
7.648924 -10.081452 22.35202
8.291269 -9.737721 11.994555
8.071561 -9.551563 21.477386
7.953543 -9.096566 22.117609
7.8216643 -8.4677 22.616304
8.079968 -7.1364064 22.4873
7.9590917 -7.622042 22.67353
8.403464 -6.7179856 21.734634
8.734169 -5.381749 20.146889
8.452374 -2.4016774 13.036683
8.995061 -2.420384 18.249813
8.159944 -0.41111177 13.486225
8.929956 -0.24672693 17.853506
8.333456 0.024959058 13.904203
8.436381 0.49846178 14.948458
8.6130905 0.41985857 17.381351
9.037519 0.65938544 14.613876
8.827408 1.0588006 15.811853
8.5137 0.68785954 16.399588
9.10988 0.6946986 17.219574
9.161422 -11.701156 13.934336
9.199805 -11.136894 13.082527
9.620895 -11.312229 13.810534
9.580726 -11.551845 14.257202
9.164507 -11.320363 15.478413
9.420368 -10.858623 16.168604
8.658671 -10.19853 12.326698
9.138694 -10.531673 12.835475
8.790985 -9.922545 12.428408
8.818246 -9.495199 20.042253
9.4385195 -7.2515464 20.06135
9.011891 -5.904528 20.297976
9.773246 -4.908669 19.633772
8.991211 -3.1962514 13.286929
9.456179 -2.3992376 13.136671
9.772025 -0.61450815 13.632474
9.704097 0.4170544 14.42741
9.68546 0.43371034 17.595963
9.400764 0.308752 17.662699
9.360111 0.79767233 14.838911
9.878493 1.2480069 15.871791
9.490045 1.1153429 16.425323
9.213738 0.7788947 17.193117
9.718976 -11.073303 13.677194
9.906763 -11.120017 14.691616
9.828027 -11.161555 15.183367
9.974864 -10.497588 13.695617
10.284214 -10.386424 14.492413
10.109562 -10.282809 15.526875
9.909719 -9.8023 13.506042
10.243804 -8.560147 18.084387
9.8194895 -8.532758 14.004894
10.155619 -7.3093047 19.517029
10.201152 -4.957415 19.481386
10.341572 -1.4885759 13.520631
10.66114 -0.77064395 14.024187
10.580021 -0.4900468 17.839033
10.319524 0.33517987 14.633885
10.340857 0.401599 17.512024
10.548978 0.19436327 17.656588
10.336418 0.936566 15.352587
10.196116 1.1495041 16.277819
11.483881 -8.514721 17.299982
11.419034 -8.454914 17.324923
11.639251 -8.308738 18.43155
11.605679 -5.2209272 13.876435
11.816131 -5.919159 19.01613
11.256083 -4.48375 13.672022
11.532943 -4.71975 18.50339
11.330817 -0.9505394 14.708005
11.3767395 -0.25151217 17.147842
11.044938 0.4105614 15.6082735
11.303379 0.18700007 16.60965
11.004612 0.17515543 17.287113
10.741458 0.8365063 15.841027
10.781756 0.76278305 16.40912
10.899251 0.64878154 16.94432
12.071677 -8.533877 17.66594
12.830026 -8.378021 17.159775
12.311849 -7.830615 18.789013
11.969159 -7.06952 19.08405
12.589674 -5.948613 18.671875
12.488265 -4.439344 13.834679
12.737914 -4.764688 18.513018
12.613272 -3.6564372 13.911573
12.604689 -3.8840623 18.0668
12.698809 -3.1784155 14.132788
11.572688 -0.35018146 16.300768
13.38789 -7.8788033 16.079151
13.661412 -7.928997 16.389404
13.1734915 -8.281799 17.329927
13.577316 -7.975567 17.94273
12.866419 -7.635186 18.607042
13.26149 -5.855047 18.52763
13.177594 -4.275487 14.119818
13.660773 -4.9442954 18.678482
13.051296 -3.6231465 14.167048
13.561729 -3.8152137 14.443417
13.651595 -4.019096 18.343334
13.082381 -2.9881985 14.646131
14.036242 -7.788341 16.5472
13.950334 -7.787414 17.168201
14.004417 -7.05302 15.026953
14.360831 -7.2371798 15.733583
14.364536 -7.279899 17.463802
13.935056 -6.9869976 18.183374
14.446559 -6.381098 15.009388
14.020119 -4.7822404 14.61002
14.348725 -4.7440014 18.467196
14.047515 -4.6588655 18.619839
14.407681 -3.5433264 17.387268
14.01595 -3.8446898 18.231096
14.039621 -3.08289 16.08008
14.850512 -6.7587504 16.060259
15.0392685 -6.713668 16.475098
14.788485 -6.970629 17.174162
15.4480505 -6.259177 16.761951
15.28063 -6.43078 17.245882
14.981335 -5.166487 15.214865
15.196651 -5.594185 15.696017
15.52199 -5.8122973 17.490356
15.076561 -5.389439 18.077135
14.96528 -5.00305 15.260214
15.259474 -4.4210668 15.700725
15.335916 -4.3918223 17.491518
15.071493 -4.582514 17.958551
15.004229 -3.741463 16.00821
15.013647 -3.704702 16.665735
14.939446 -3.82939 17.323774
15.710141 -5.8792505 16.729412
15.638934 -5.928598 17.083576
15.802054 -5.3300705 16.703966
15.754885 -5.560267 17.14448
15.66752 -4.597126 16.533192
15.731851 -4.944459 17.199303
VERTICES 1 413
412 0 1 2 3 4 5 6 7 8 9 10 11 12 13 14 15 16 17 18 19 20 21 22 23 24 25 26 27 28 29 30 31 32 33 34 35 36 37 38 39 40 41 42 43 44 45 46 47 48 49 50 51 52 53 54 55 56 57 58 59 60 61 62 63 64 65 66 67 68 69 70 71 72 73 74 75 76 77 78 79 80 81 82 83 84 85 86 87 88 89 90 91 92 93 94 95 96 97 98 99 100 101 102 103 104 105 106 107 108 109 110 111 112 113 114 115 116 117 118 119 120 121 122 123 124 125 126 127 128 129 130 131 132 133 134 135 136 137 138 139 140 141 142 143 144 145 146 147 148 149 150 151 152 153 154 155 156 157 158 159 160 161 162 163 164 165 166 167 168 169 170 171 172 173 174 175 176 177 178 179 180 181 182 183 184 185 186 187 188 189 190 191 192 193 194 195 196 197 198 199 200 201 202 203 204 205 206 207 208 209 210 211 212 213 214 215 216 217 218 219 220 221 222 223 224 225 226 227 228 229 230 231 232 233 234 235 236 237 238 239 240 241 242 243 244 245 246 247 248 249 250 251 252 253 254 255 256 257 258 259 260 261 262 263 264 265 266 267 268 269 270 271 272 273 274 275 276 277 278 279 280 281 282 283 284 285 286 287 288 289 290 291 292 293 294 295 296 297 298 299 300 301 302 303 304 305 306 307 308 309 310 311 312 313 314 315 316 317 318 319 320 321 322 323 324 325 326 327 328 329 330 331 332 333 334 335 336 337 338 339 340 341 342 343 344 345 346 347 348 349 350 351 352 353 354 355 356 357 358 359 360 361 362 363 364 365 366 367 368 369 370 371 372 373 374 375 376 377 378 379 380 381 382 383 384 385 386 387 388 389 390 391 392 393 394 395 396 397 398 399 400 401 402 403 404 405 406 407 408 409 410 411
POINT_DATA 412
SCALARS features_00 float 1
LOOKUP_TABLE default
0.35892755 0.40975535 0.4762513 0.5139359 0.51979584 0.75959766 0.75645757 0.73101175 0.7066805 0.6970329 0.59938943 0.63179386 0.60482895 0.40313107 0.36970127 0.2542518 0.21671098 0.44479233 0.292624 0.37207386 0.36926538 0.35821056 0.37734395 0.5215454 0.37746328 0.44416973 0.5979588 0.41846296 0.480955 0.5991076 0.48151457 0.5130091 0.562713 0.48185393 0.50052786 0.55742896 0.7729926 0.80254054 0.7859347 0.75911003 0.7146585 0.6562307 0.69182307 0.71435785 0.47153604 0.36262107 0.2603801 0.3860209 0.3880064 0.20821804 0.23765981 0.16842598 0.66401803 0.6708004 0.6664957 0.47575152 0.48224014 0.40900725 0.4310894 0.8289796 0.8018774 0.7302977 0.73823833 0.71720725 0.65189075 0.61328864 0.5367962 0.33059686 0.32215872 0.14696556 0.36238557 0.35536245 0.18942581 0.48899257 0.46179652 0.39393976 0.30755582 0.18665595 0.46010074 0.43925846 0.2798838 0.58171815 0.44860357 0.42038026 0.40423578 0.31798822 0.5721867 0.36926657 0.39795494 0.4064593 0.6665841 0.67779994 0.67911446 0.76300836 0.6801255 0.5180999 0.69314957 0.47212547 0.47234643 0.36202735 0.3312961 0.3435702 0.47228795 0.47032207 0.5091108 0.4636311 0.45035875 0.44587383 0.41007125 0.39354563 0.28083718 0.31596443 0.27920356 0.37040108 0.29075935 0.28558907 0.271264 0.3749551 0.65004146 0.64125794 0.655882 0.6184422 0.62122524 0.6525467 0.44958347 0.48677897 0.6684919 0.43930268 0.404919 0.3374836 0.32470167 0.5031345 0.43809122 0.32963282 0.3233063 0.32374245 0.34790683 0.32683566 0.31233692 0.27230343 0.2440956 0.21064511 0.26197135 0.36133033 0.35091174 0.5781349 0.6118926 0.42013162 0.51134044 0.5011817 0.5087961 0.58904004 0.41093516 0.41716978 0.39234316 0.29133505 0.3919542 0.27755243 0.25987265 0.494744 0.40182912 0.38563114 0.33423692 0.30132532 0.29828835 0.27216 0.30396765 0.5015147 0.35061783 0.3727588 0.5571994 0.4948944 0.40137014 0.45649302 0.4210443 0.41816324 0.29503947 0.34243435 -0.018490173 0.41201538 0.47696012 0.5983299 0.49892163 0.6177366 0.4231102 0.5811442 0.48911798 0.51757467 0.4610104 0.37576154 0.3148092 0.50766516 0.5643233 0.55489177 0.4670679 0.5476026 0.5735411 0.5862912 -0.050747387 0.49058658 0.49839813 -0.058662493 -0.078536384 0.48791134 0.47486752 0.4564148 0.5831609 0.4701334 0.46994007 0.6224997 0.46875826 0.65106165 0.45069355 0.6364573 0.5799478 0.46361864 0.3272503 0.5996811 0.5988565 0.59634566 0.61028284 0.6373698 0.6583344 0.62998986 0.6076666 0.66631454 0.67212075 0.6345974 0.5602424 0.6623244 0.66554475 0.6272423 0.4952274 0.47430184 0.49932885 0.48938864 0.4775883 0.61616075 0.35086817 0.07463044 0.47852895 0.4644814 0.64477456 0.4090491 0.6533276 0.66029847 0.09644048 0.7026861 0.5825722 0.44216192 0.48380113 0.5623208 0.58296573 0.024053883 0.5965316 0.6032535 0.5873592 0.26220414 0.65571094 0.46885398 0.639618 0.51443493 0.6215881 0.64671534 0.63855267 0.62750286 0.6362672 0.72003937 0.50158966 0.47637093 0.4871534 0.6381668 0.582634 0.435364 0.42679745 -0.04091636 0.11500254 0.24910653 0.6997136 0.15372673 0.21569517 0.3475345 0.5076183 0.45929807 0.44668102 0.16483001 0.60965914 0.2525207 0.6219647 0.62802696 0.6325809 0.6950651 0.6888814 0.6948992 0.8046857 0.75206316 0.71707404 0.50369805 0.5371403 0.52155125 0.50761235 0.40704966 0.3320363 0.6249859 0.5540379 0.60935795 0.2743066 0.103863925 0.1317076 0.024802923 0.5338068 0.6048511 0.61526835 0.6767243 0.6950468 0.6804806 0.7360897 0.7847829 0.768442 0.7196903 0.51975524 0.50855416 0.48339784 0.52064323 0.532712 0.45896524 0.53183925 0.17734368 0.5467324 0.13345693 0.0045415238 0.5439581 0.56126773 0.610152 0.68138754 0.6960305 0.67800176 0.7535671 0.7508486 0.39764237 0.39185408 0.46299878 0.28116977 0.2189919 0.2833168 0.15146917 0.5253812 0.6258589 0.6808435 0.6605591 0.6737362 0.72067523 0.7073555 0.6937516 0.49569345 0.4921472 0.59962165 0.4672301 0.3179454 0.31798184 0.31374073 0.31184065 0.30068758 0.2966056 0.62252575 0.43991005 0.46726835 0.5068519 0.5305184 0.61973405 0.4114163 0.3384614 0.4108724 0.33085316 0.36146897 0.48585692 0.3139804 0.48289317 0.49589884 0.5004568 0.504829 0.5091084 0.61235356 0.5901364 0.4613309 0.6090372 0.51724076 0.7310883 0.5876384 0.69142425 0.54355264 0.5458865 0.52280897 0.6078274 0.57944345 0.6720804 0.67582464 0.65701324 0.74901164 0.67975247 0.76605314 0.79961145 0.78030777 0.7621449 0.78405416 0.7818576 0.6559574 0.6607112 0.72687197 0.70751286 0.7992914 0.7731234
SCALARS features_01 float 1
LOOKUP_TABLE default
0.02153716 0.035082757 0.051960133 0.06261262 0.06543564 0.14278077 0.14268741 0.13208607 0.124763705 0.12088557 0.084387675 0.09873233 0.08977308 0.037019193 0.031953402 0.011886323 0.0033223238 0.02006134 0.004323365 0.008435726 0.012962672 0.015217187 0.023659226 0.057132643 0.028245877 0.040122684 0.08154686 0.03758172 0.055204462 0.08561675 0.056363933 0.06398076 0.076115 0.056401893 0.06060145 0.073382296 0.14331964 0.15699293 0.1531674 0.14228532 0.12190829 0.09409151 0.1107795 0.12589164 0.048739947 0.019549891 0.012017933 0.023088502 0.023003722 0.0041881376 0.013408302 -0.005370395 0.1036192 0.10614382 0.10261473 0.05318229 0.053153835 0.03569662 0.037074856 0.16869548 0.15547514 0.12709798 0.13008124 0.122378364 0.093778424 0.08338256 0.060676243 0.017688546 0.016957946 -0.02256451 0.024599541 0.02916466 -0.008764755 0.05390152 0.0532106 0.03807921 0.019506682 -0.006314278 0.052854765 0.048016693 -0.009530458 0.08056118 0.050070107 0.043894578 0.03430744 0.016328298 0.06802728 0.020227212 0.029774297 0.015158795 0.10888317 0.11093593 0.11118241 0.14257832 0.111054815 0.054587528 0.11299228 0.045283634 0.046202853 0.023007862 0.01683977 0.027485447 0.055821117 0.055158548 0.06141418 0.05356184 0.050383724 0.040901113 0.04112607 0.037736934 0.013958544 0.01671109 0.014591711 0.008786757 0.015924897 0.015418403 -0.013012297 -0.0009387955 0.10388045 0.10067251 0.10435264 0.09470737 0.095101796 0.10288059 0.039781813 0.05078054 0.106891304 0.03886682 0.032519266 0.009990693 0.010236713 0.06138042 0.045703672 0.019451292 0.015290193 0.020163704 0.0032926705 0.013977475 0.018784858 0.014740529 0.012041557 0.008980859 0.0009806035 -0.0008847285 0.016816117 0.08333937 0.09212971 0.033551928 0.06355805 0.06155516 0.064740755 0.08581755 0.03213996 0.031024197 0.02701868 0.00673438 0.0012513567 0.011000532 0.014067905 0.05512263 0.029858666 0.026726507 0.016481807 0.022534061 0.0217435 0.01449849 0.018032163 0.05888294 0.025865575 0.028735692 0.06923975 0.049728494 0.027313504 0.04311647 0.027495835 0.032429986 0.0068684686 0.022054393 -0.0018705738 0.037156254 0.049906567 0.07863965 0.05492857 0.087727584 0.034698404 0.0759448 0.05766514 0.06585316 0.05272115 0.035167024 0.024283638 0.06079559 0.07390116 0.072114065 0.04367663 0.063640736 0.07637514 0.07935253 -0.004357735 0.054770797 0.05623413 -0.017309286 -0.018709805 0.05449937 0.052380156 0.04776158 0.07921708 0.051825915 0.051738348 0.09059356 0.049764086 0.099377505 0.043024953 0.09450076 0.08162326 0.054132324 0.026155062 0.08009507 0.08100281 0.08106219 0.07493195 0.0875878 0.10612566 0.092882104 0.08626326 0.109703645 0.109718055 0.09575015 0.0763929 0.10878282 0.107843004 0.0947934 0.055560663 0.051154543 0.056769468 0.054878607 0.05308242 0.0922367 0.028942013 -0.019447962 0.052910164 0.049985413 0.10071689 0.03549543 0.10134202 0.10490106 -0.0264781 0.11773083 0.08421533 0.046325456 0.0593685 0.065031774 0.06898467 -0.0048496826 0.07361256 0.080077305 0.0813793 -0.06516236 0.10570268 0.0523235 0.10212733 0.062093735 0.096242875 0.10390628 0.1013725 0.09690382 0.09926329 0.1290189 0.05843352 0.051837377 0.0544425 0.09963345 0.082656175 0.042193346 0.03941577 0.0036622777 -0.020973446 0.00031239167 0.118899964 -0.007835581 -0.002920147 0.025450133 0.048760574 0.041690364 0.030536063 -0.027169488 0.090493955 0.0030950545 0.09541661 0.09391463 0.09771236 0.118787594 0.11815029 0.118934 0.16070504 0.14078924 0.12756199 0.059631515 0.068706036 0.06415374 0.060960688 0.037485145 0.02640554 0.09640094 0.07396909 0.091535896 -0.008564157 -0.02773111 -0.024404133 -0.011250773 0.06717695 0.08923898 0.09336002 0.11383341 0.11884294 0.11367477 0.1349946 0.15333974 0.14666507 0.12839843 0.06343387 0.060584284 0.05473539 0.06260317 0.065770596 0.05065205 0.0648458 -0.016478298 0.067661375 -0.039288275 -0.0072904844 0.071641125 0.078370616 0.086904034 0.1156491 0.11888533 0.112307005 0.14167102 0.13975391 0.02978501 0.027672838 0.033534527 0.01081788 -0.0035427138 0.0115560405 -0.0033231187 0.06400331 0.09396992 0.11400551 0.10733577 0.11103961 0.12893577 0.12365506 0.118353225 0.050959457 0.057361346 0.06408628 0.0030908464 0.014717752 0.020519832 0.022720851 0.018316569 0.024059534 0.01550067 0.0929549 0.048122045 0.054131027 0.06082934 0.06590613 0.07598274 0.03452165 0.025370624 0.041772798 0.023619123 0.030135673 0.059932962 0.019492805 0.057542413 0.059829246 0.060776476 0.06321499 0.06297969 0.08307571 0.084315434 0.05151627 0.09160138 0.06674615 0.12880388 0.085542195 0.108925864 0.07335276 0.07403958 0.0671203 0.091908485 0.08274833 0.1129981 0.11348313 0.10575437 0.13330539 0.115570106 0.14517525 0.15768509 0.14964612 0.14045776 0.15012576 0.15033855 0.10704324 0.10807918 0.13098755 0.12369643 0.15799539 0.14739372
SCALARS features_02 float 1
LOOKUP_TABLE default
0.34438092 0.3366515 0.3445959 0.34803933 0.3476652 0.52956593 0.5305321 0.52185726 0.50775886 0.500828 0.4837286 0.48979127 0.47296718 0.41592896 0.41059065 0.36699486 0.3755185 0.4017486 0.32786185 0.36142722 0.37767208 0.3656729 0.36760002 0.38353398 0.31393674 0.35738766 0.37654993 0.29963925 0.33942586 0.3567831 0.3371454 0.34924376 0.35116726 0.32827225 0.34801048 0.3526953 0.5403249 0.5379552 0.53200257 0.51976323 0.49474275 0.52485067 0.5172844 0.50257736 0.43769222 0.43646026 0.37940055 0.41682145 0.42010543 0.30963767 0.28907317 0.24240077 0.41556114 0.39573133 0.37993497 0.30901214 0.34739113 0.3297369 0.3526001 0.53433764 0.5239171 0.509022 0.54175055 0.49353975 0.528308 0.47461063 0.5104357 0.4348245 0.4266773 0.34535855 0.44266284 0.27120066 0.27571434 0.44710386 0.26756048 0.27210322 0.25542498 0.2375885 0.27149993 0.2628186 0.25283813 0.4296601 0.27806497 0.25703806 0.2601693 0.22977671 0.37841296 0.3352092 0.3584329 0.33876193 0.507848 0.50467384 0.49567294 0.5340803 0.486919 0.5186951 0.46635205 0.49070737 0.49885082 0.43943262 0.43140012 0.26702735 0.24869849 0.27403763 0.44230804 0.28372952 0.2865406 0.42128146 0.28694263 0.2773487 0.22183517 0.27060938 0.23761433 0.36727726 0.26180032 0.24176419 0.2853432 0.31681022 0.5038948 0.49242252 0.49065644 0.49665558 0.48463073 0.4759306 0.4971953 0.50278157 0.4578689 0.48610193 0.43839043 0.36488575 0.39005637 0.28065598 0.29427773 0.4400653 0.40493977 0.2969298 0.36660725 0.39445722 0.26033008 0.21972911 0.1970461 0.19130349 0.24196701 0.30750394 0.28448182 0.4712973 0.46413496 0.47018322 0.46772155 0.44123924 0.42351264 0.43230987 0.45866388 0.41907966 0.4080069 0.3610045 0.3486242 0.36262077 0.38305134 0.292641 0.39210635 0.38919288 0.39231074 0.31211948 0.29605156 0.28317347 0.23763996 0.35827595 0.25839925 0.27643403 0.33113724 0.29775897 0.4062744 0.41376266 0.36908516 0.3480748 0.27640456 0.30169892 0.17429373 0.32342845 0.35221535 0.4036222 0.3474782 0.39368814 0.3806086 0.37981448 0.35672468 0.36643606 0.3516797 0.3195508 0.2897888 0.36237097 0.33908767 0.35129732 0.2880051 0.30514133 0.33889598 0.34355783 0.16256331 0.22353162 0.29457858 0.26557398 0.17002863 0.21166965 0.30096513 0.32000166 0.40904528 0.30481023 0.31540364 0.4149025 0.3113972 0.41079074 0.31951806 0.40233594 0.38956392 0.36404574 0.30126724 0.3378191 0.3405661 0.34433514 0.3309349 0.33291292 0.44110686 0.43582016 0.4757243 0.46254736 0.47749358 0.49327117 0.5024425 0.48969322 0.5015056 0.5158074 0.28250864 0.2150959 0.24284211 0.2762732 0.29258353 0.4042654 0.2834751 0.22200058 0.28025168 0.28634942 0.41318607 0.29051155 0.4165613 0.4178829 0.12881657 0.4170642 0.3969769 0.3377386 0.3886581 0.32968354 0.32466406 0.21010128 0.33358818 0.33498427 0.38395366 0.2630587 0.43477315 0.4723463 0.4667765 0.48097762 0.486888 0.5046831 0.5131622 0.5154084 0.51813966 0.53513396 0.3450287 0.25131732 0.26177293 0.40759003 0.38876876 0.25832203 0.2726832 0.13524523 0.13402453 0.29372817 0.42009258 0.27188352 0.2956398 0.31564003 0.29724267 0.3052442 0.2898557 0.26994747 0.42136264 0.40031043 0.5095339 0.47205567 0.5325975 0.54947114 0.49345398 0.5471539 0.5228212 0.52048784 0.48826802 0.32280043 0.36831573 0.3307021 0.30341256 0.23068482 0.18703644 0.40986627 0.38749674 0.41060582 0.22095649 0.256258 0.2677998 0.21995358 0.37828332 0.44582856 0.512459 0.5345094 0.47626352 0.47544706 0.53926635 0.49919194 0.49450478 0.48706132 0.3398757 0.2774846 0.24425799 0.341759 0.2915025 0.22458923 0.35791594 0.22749317 0.34896794 0.28088087 0.23242822 0.49868876 0.5110727 0.43072307 0.51866615 0.47115391 0.45799395 0.5069522 0.49253994 0.27038205 0.27072364 0.32223845 0.35559174 0.36613214 0.35873842 0.31625992 0.49860054 0.4400273 0.4913952 0.46578068 0.4569945 0.49435005 0.48844522 0.47879243 0.315464 0.34235847 0.36776164 0.3715995 0.4096497 0.39943594 0.40130457 0.42123282 0.38177168 0.4262401 0.45951205 0.34153685 0.36590838 0.36867815 0.39948526 0.39397198 0.43800253 0.4353067 0.44682863 0.43688777 0.45871723 0.44762444 0.44210154 0.39330894 0.41005474 0.385969 0.39963478 0.437293 0.4384979 0.43074486 0.4611351 0.47201777 0.4615663 0.4957815 0.46645474 0.5063694 0.43745422 0.45230514 0.45123523 0.47379473 0.47022647 0.4714741 0.46849287 0.48456773 0.48209897 0.4759432 0.49222857 0.5020566 0.4938361 0.506787 0.50843376 0.5024724 0.4822126 0.48454162 0.4909088 0.491898 0.49682626 0.4996915
SCALARS features_03 float 1
LOOKUP_TABLE default