# vtk DataFile Version 2.0
Really cool data
ASCII
DATASET POLYDATA
POINTS 5719 float
-9.725299 72.79878 40.911816
-9.766707 72.82231 41.82912
-9.747791 72.966385 42.02631
-9.736483 73.440834 40.81111
-9.898398 73.43975 41.534233
-9.734824 73.580124 42.23634
-9.752756 74.09886 40.944527
-9.781576 74.18896 41.502834
-9.721997 74.165634 42.04414
-8.668961 66.70739 41.777332
-8.718541 66.751045 42.26136
-8.729598 67.2251 41.66868
-8.693083 67.32943 42.4224
-8.849586 72.16935 39.17607
-9.00511 71.87234 40.44308
-8.660889 72.46968 38.870316
-9.208959 72.63196 39.864132
-9.398319 72.677055 40.37742
-9.569741 72.488556 41.77554
-9.437934 72.6225 42.228367
-9.239654 72.99259 42.697083
-9.341995 73.44256 39.931133
-9.54657 73.517715 42.500507
-9.135396 73.446465 42.807976
-8.788442 73.920555 39.267715
-9.091911 74.24418 39.9407
-9.394475 74.6446 40.70969
-9.383237 74.527275 42.31943
-8.958519 74.29201 42.78059
-9.04006 75.3426 40.827335
-9.151052 75.38851 41.63721
-8.976982 75.350945 42.230183
-8.752289 75.81521 40.960392
-8.783868 75.95393 41.626
-8.734892 75.88806 42.103687
-8.043263 66.233315 41.003563
-8.283331 66.169975 41.782627
-8.289371 66.151665 42.33139
-7.9947987 66.20065 42.98333
-7.9491506 66.82808 40.046875
-8.12369 66.54595 40.697422
-8.455219 66.438194 41.424328
-8.546869 66.45253 42.45697
-8.288835 66.695724 43.03148
-8.051957 67.371376 39.90324
-8.436079 67.31393 40.81514
-8.198758 67.48918 43.18106
-7.8620152 67.46137 43.649014
-7.6348543 68.64898 39.95785
-7.8173347 68.55011 43.08592
-7.7850504 69.44769 41.519775
-7.685073 70.92006 35.65505
-7.709697 70.602905 36.601788
-7.737197 70.67084 37.120125
-8.080623 70.88329 39.5815
-8.338416 70.656235 40.67108
-8.047665 70.74547 42.362904
-7.6042495 70.59006 43.47102
-7.727278 71.35707 35.680286
-7.773518 71.42225 36.732033
-7.686712 71.283325 37.683323
-8.076143 71.75392 38.50039
-7.670064 71.99509 35.77421
-8.520662 72.75927 38.69283
-8.75462 72.37528 42.586643
-8.290051 73.59811 38.696453
-8.280332 73.55945 43.114243
-8.2613 74.47892 39.26922
-8.51126 74.29492 43.00296
-8.410479 75.226204 39.91962
-8.568175 75.6289 42.526524
-8.367349 75.253426 42.80002
-7.8599625 75.835175 40.122807
-8.166767 76.265594 40.865353
-8.343135 76.31196 41.617817
-8.268172 76.13908 42.230354
-8.157148 75.80868 42.65937
-7.991363 76.52624 41.553516
-7.099745 66.341805 39.9182
-7.383374 66.106606 40.56526
-7.4652576 65.79278 41.67257
-7.4998646 65.83525 42.37142
-7.32081 66.022064 43.0884
-7.320946 67.03234 39.337654
-7.472632 66.7529 39.630657
-7.640433 66.41317 43.445896
-7.299873 66.81906 43.90056
-7.244137 67.55287 39.217194
-7.5459557 67.23066 39.409367
-7.648723 67.77774 43.62477
-7.2027235 67.556625 44.16079
-6.8022876 69.41628 36.970535
-7.5566683 68.484215 43.327526
-6.9306755 68.29254 44.20197
-6.844063 70.12995 35.270023
-7.064383 69.993 35.713665
-7.3571334 70.00999 36.416245
-7.564479 70.22792 39.78201
-7.428056 69.6063 43.424377
-7.005571 69.33719 44.167953
-7.2220945 70.74321 35.15845
-7.38832 70.52914 35.43422
-7.117113 70.67777 38.1745
-7.489218 70.4629 43.690746
-6.9602623 70.52989 44.32289
-7.277929 71.38583 35.093212
-7.5557942 71.21315 35.369717
-7.4886537 71.74576 43.251076
-6.987526 71.29327 44.178055
-7.2648377 72.094955 35.186607
-7.278664 72.63694 35.7303
-7.135157 73.01319 35.79454
-7.4666414 73.62174 43.350964
-6.586734 74.82547 35.578114
-6.652718 73.94592 36.73483
-6.661886 74.587074 37.28588
-7.6150374 74.233 43.11532
-6.5639367 75.147934 35.78719
-6.540686 75.52254 36.715443
-6.528648 75.86418 37.04668
-7.271421 75.487 39.42426
-7.5670033 75.31022 42.9595
-6.549025 76.43815 34.84516
-6.6606927 76.2226 35.371925
-6.7801127 76.40885 36.301456
-7.818162 76.46653 41.031483
-7.797093 76.484 41.87717
-7.4983916 76.288765 42.367085
-7.3152633 75.83858 42.774498
-6.6139803 77.26154 35.876686
-6.6605754 77.409744 36.509647
-6.642021 77.03173 37.09751
-7.673896 76.57738 41.703033
-6.3685913 66.21635 40.06934
-6.3405766 65.966095 40.58111
-6.526306 65.69518 41.8133
-6.6773863 65.72755 42.497704
-6.3236527 65.83291 43.04345
-6.465015 66.18972 43.84794
-6.5358505 67.03828 39.2355
-6.7084885 66.61707 39.5207
-6.3432784 66.638176 44.320847
-6.0384974 66.88725 44.557247
-6.194485 67.76116 39.084145
-6.7331343 67.48852 44.501125
-6.2492585 67.292366 44.652023
-6.4437213 69.43941 36.107033
-6.403694 68.17836 44.501205
-6.141179 68.15257 44.767994
-6.3700757 69.99551 35.066376
-6.484143 69.66018 35.699783
-6.4216623 69.4714 36.138718
-6.744995 69.50699 37.403473
-6.6775823 70.00272 44.559734
-6.3810024 69.97998 44.606678
-6.055849 70.93153 34.47206
-6.4169383 70.70886 34.7222
-6.454335 70.68202 44.69649
-6.498608 71.53057 44.422024
-5.9707494 71.99657 34.456547
-6.225854 72.06377 34.739834
-6.279455 72.18887 44.248085
-6.5194526 73.3633 35.592537
-6.76398 73.592026 43.43649
-6.6333447 73.23455 43.68574
-6.212902 75.098206 34.653652
-6.675542 74.354935 43.109642
-5.8973775 75.91004 33.835068
-6.311451 75.461945 34.662827
-6.20623 75.6689 38.519993
-5.9944973 76.73479 33.96373
-6.4522886 76.57539 34.84247
-6.4564934 75.87827 38.465347
-7.009081 76.515434 41.803303
-7.026517 76.22552 42.393055
-5.801826 77.42018 33.809906
-6.1433535 77.44906 34.500195
-6.4488254 77.347694 35.435112
-6.539725 77.68348 36.82734
-6.463156 77.664314 37.16938
-5.8632164 76.974495 40.884922
-6.3378925 76.54697 41.251442
-5.7213893 78.04294 33.848087
-5.8910747 78.19857 34.611927
-5.988964 78.28749 35.69184
-6.1017847 78.241234 36.57104
-6.164504 77.99732 37.349525
-5.4899254 66.15962 40.733707
-5.5684414 65.87171 41.534
-5.6893992 65.83468 42.45397
-5.5556574 66.06143 43.398952
-5.6463566 66.275734 43.893173
-5.5595527 66.70392 39.695267
-5.456623 66.564224 44.21966
-5.8717775 67.04295 44.616028
-5.35809 67.76163 44.816074
-5.8355117 69.34067 35.89834
-5.0548005 68.983315 45.351074
-5.6722927 69.698616 35.244373
-5.44126 69.62142 35.27777
-5.3735733 69.58242 45.23543
-4.94755 69.635315 45.588272
-5.7442203 70.67916 34.451885
-5.1553364 70.579384 45.223553
-5.0485625 71.42024 44.964626
-5.459862 72.15197 34.274788
-4.6593885 74.05608 33.192604
-5.378388 73.659195 44.12772
-5.3494554 74.58161 33.71372
-5.3182516 74.41426 43.81377
-5.0913324 75.51142 33.273544
-5.4210258 75.48761 33.66501
-5.2271085 74.97452 43.76662
-5.1565475 76.69694 33.06793
-5.498979 76.46533 33.417606
-5.02625 77.68569 33.10991
-5.523798 77.59394 33.42164
-5.464201 77.00616 38.48831
-5.1613216 76.71723 39.736225
-5.345641 77.27317 41.22428
-5.2138724 77.11874 42.102406
-5.091483 78.1933 33.345512
-5.410418 78.35916 33.807495
-5.7253346 78.5075 36.636967
-5.568075 78.446335 37.04594
-5.2586503 78.07239 37.938408
-5.014814 77.691444 41.519295
-4.6940947 77.880844 41.863186
-5.05361 78.79843 34.105576
-5.334006 78.772804 34.28273
-5.097975 66.14857 40.8028
-4.443766 66.2038 41.652126
-4.364105 66.12926 42.386646
-4.5484695 66.21207 43.275074
-4.6550555 66.84855 39.90186
-4.7869806 66.45493 40.578857
-4.8594246 66.81238 44.28606
-4.7129827 67.631226 39.10903
-4.3354406 67.698204 44.865246
-3.7057395 68.79497 35.332623
-3.889999 68.92078 36.623142
-4.9392724 68.230286 39.00876
-4.1214857 69.063194 45.81286
-3.7658422 70.16855 33.405342
-4.3661337 69.737465 34.950325
-4.0538325 69.49167 46.026604
-3.628124 70.75418 32.59236
-4.3011627 70.95936 33.62788
-4.7208123 70.3978 45.541
-4.231176 70.1738 45.81489
-3.6454985 72.07612 31.83135
-4.1765237 71.8327 33.013428
-4.2745404 71.143105 33.560867
-3.7972963 72.40792 31.77778
-4.3431764 72.36905 44.912304
-3.6341007 72.02864 45.838017
-3.647262 73.64998 30.781324
-3.8637936 73.46704 31.87255
-4.1320896 73.651726 32.333908
-3.6602964 74.20741 30.818277
-4.0565057 74.0593 31.988155
-4.0127645 74.545975 44.372208
-4.6991777 76.00524 32.68394
-4.263976 75.09522 44.044384
-4.2892203 76.40798 32.46323
-4.1216865 75.796135 43.338566
-4.693673 77.40106 32.867527
-4.2303987 77.56137 39.917183
-4.490829 77.31368 42.62799
-4.4255557 78.18945 33.136875
-4.0304813 78.51347 33.394474
-3.9740021 77.993065 40.171246
-4.036323 78.398056 41.440445
-4.2281284 77.923744 42.35802
-4.589997 78.98443 33.998447
-4.480807 79.20937 34.665337
-4.113414 79.116005 35.066338
-4.3985076 78.66914 36.19692
-3.632134 81.06439 34.716774
-3.7587366 81.69316 35.504265
-3.6841898 82.02342 36.325485
-3.6552277 82.53266 34.975666
-3.7723997 82.57644 35.513832
-3.6859796 82.5092 36.246235
-3.6908395 82.91064 35.601818
-3.716435 82.91089 36.021347
-3.9760275 66.396866 41.74835
-3.6472464 66.32623 42.51642
-3.728651 66.38735 43.283962
-4.1097403 67.12757 40.08305
-4.0835056 66.80489 40.65539
-3.6462343 66.512375 41.697094
-3.232053 66.553185 43.48693
-3.4803684 66.7357 44.16029
-2.9626126 68.23991 34.705494
-3.1607673 68.17136 35.688957
-2.7836514 68.302055 36.78651
-3.8418899 68.30178 38.61122
-3.167297 67.53361 44.912403
-3.12223 68.98352 33.833313
-3.2326121 68.74332 34.27877
-3.6389215 68.67397 35.618767
-3.3276942 68.57802 36.980804
-2.6856627 68.96237 53.363956
-2.8988318 70.00931 32.30381
-3.1113355 69.823654 32.673885
-3.2932353 69.52243 33.55848
-3.1092546 69.337555 46.44679
-3.1283407 69.88731 47.62507
-2.8749268 69.784195 48.057457
-2.7809186 69.57423 52.6728
-2.8085039 69.51106 53.43137
-2.6915104 69.61356 53.87796
-3.1588607 70.412766 32.18958
-3.5081382 70.475136 32.702065
-3.2370825 70.46417 47.352486
-2.973707 70.59761 48.220695
-2.5387092 70.56855 52.086246
-2.6573167 70.49212 52.357365
-2.7521248 70.2522 53.47107
-2.583843 70.25981 54.00427
-3.3995473 71.69804 31.792994
-3.5074234 71.30829 46.231724
-2.671783 70.98789 48.398422
-3.1213458 72.99073 29.891903
-3.2773468 72.89737 30.36947
-3.2768123 72.3398 46.313396
-2.8822827 72.17164 47.22979
-2.8998425 73.60365 29.30327
-3.213438 73.52875 29.772346
-3.4721289 73.588486 30.371284
-3.063631 72.93752 45.980583
-2.8016539 74.48554 29.147217
-3.209414 74.3654 29.70461
-3.2821188 74.754135 30.322485
-3.520785 74.28075 45.00698
-2.7390985 73.88067 46.614124
-2.9236865 75.35777 29.446112
-3.080398 75.68528 30.292015
-3.3801432 75.65288 31.77959
[...]
POINT_DATA 5719
SCALARS features_00 float 1
LOOKUP_TABLE default
0.61505485 0.64869946 0.6532626 0.63835144 0.67264235 0.67136693 0.68163776 0.71392584 0.7076644 0.69760853 0.7146542 0.6588068 0.68448037 0.3240925 0.39314666 0.3446957 0.4510514 0.5243545 0.61118907 0.5988493 0.5835334 0.5295624 0.65193284 0.5987252 0.47446966 0.54974395 0.66872454 0.7042781 0.6324303 0.6595007 0.70409554 0.6941836 0.6374445 0.6590532 0.66461825 0.67014384 0.71019375 0.7358265 0.7500237 0.60876554 0.64929765 0.68910545 0.7339812 0.72942924 0.5695344 0.60599875 0.613701 0.5517545 0.45083666 0.34254408 0.2866038 0.592152 0.5565771 0.48071536 0.10911287 0.2033383 0.21891876 0.19798188 0.5750861 0.48676407 0.28272432 0.14540038 0.51460516 0.35341582 0.4685653 0.3688409 0.4546815 0.4244903 0.55903304 0.51278055 0.6583208 0.62510896 0.48968565 0.5671984 0.6154041 0.62770706 0.62964535 0.5715477 0.6032101 0.65270805 0.72051084 0.7383771 0.72794735 0.57942826 0.5967778 0.71103555 0.6192497 0.5499433 0.57326865 0.4710623 0.47644156 0.52447236 0.3374975 0.3421911 0.54427564 0.557019 0.57120144 0.0119357 0.21877784 0.22281449 0.5757214 0.58612466 0.26669893 0.20029348 0.20086223 0.56450105 0.5834156 0.2236382 0.21298864 0.53318477 0.4207324 0.31059605 0.2754462 0.1716008 0.04594891 0.07084467 0.3962955 0.21873032 0.22645801 0.25145248 0.19829687 0.5393995 0.3926795 0.36077192 0.35838315 0.51970804 0.5704569 0.5672671 0.5626913 0.45394766 0.45613775 0.4002783 0.5424943 0.56503445 0.58409387 0.645864 0.67953753 0.6445154 0.62913233 0.53998446 0.56305814 0.56772166 0.52342427 0.49370402 0.4753435 0.48981088 0.4767822 0.3501166 0.3414661 0.4973407 0.49621376 0.47522622 0.50223964 0.1863431 0.17827138 0.4352289 0.5087965 0.18935522 0.18064468 0.389284 0.4659832 0.11314282 0.20160478 0.13433954 0.08881645 0.27890146 0.21735555 0.35169968 0.31988898 0.1270067 0.4113831 0.4044904 0.1313639 0.4584257 0.5028274 0.44231382 0.46315134 0.46411735 0.46518332 0.44870913 0.09629385 0.25277495 0.45890164 0.47995684 0.51097816 0.4949216 0.44760296 0.44341516 0.4610715 0.5278856 0.5558158 0.55282587 0.46135056 0.51674426 0.50196695 0.3968011 0.366275 0.16570278 0.38796148 0.3361538 0.14767191 0.12474553 0.3718952 0.15012345 0.10350929 0.18959005 -0.0049578324 -0.0034126975 0.15115808 0.016885206 0.24289213 0.28987342 0.032912087 0.35222298 0.36617297 0.4037616 0.43039808 0.24834943 0.07707763 0.12433624 0.15656088 0.43015182 0.45126218 0.48377198 0.44318986 0.36002803 0.18548769 0.22539315 0.43515748 0.44297963 0.39121968 0.35858595 0.3875152 0.45164824 0.35815978 0.36045486 0.47426274 0.31241795 0.38221842 0.21933609 0.17159666 0.2979137 0.09218951 0.21944377 0.13090321 0.06966211 0.20551968 0.0999278 0.11328288 0.07749168 0.20825425 0.072570115 0.084679894 0.19343227 -0.05814065 -0.01360333 0.31918576 0.15643525 0.07901526 0.30838254 0.116459794 -0.07581877 0.21663038 -0.060257807 0.1890071 -0.0014840886 0.35579097 0.010802865 0.19395316 0.37624264 0.33493927 0.0002879724 0.21464218 0.22894657 0.393564 0.3393985 0.297792 0.44337147 0.40752864 0.51005805 0.53178424 0.52628297 0.5500795 0.5555531 0.56911147 0.5728066 0.35444537 0.38136363 0.4000494 0.30364567 0.32025996 0.35136765 0.4018504 0.39224082 0.34637967 0.3095811 0.29790962 -0.0351708 0.33461833 0.32064685 0.3007205 0.23757732 0.22204567 0.57913196 0.32644367 0.31417322 0.28894028 0.17962994 0.16079767 0.19356467 0.51660204 0.5504047 0.54514456 0.28210276 0.23308906 0.092486665 0.09145128 0.38479173 0.41754827 0.49425888 0.4898339 0.23753753 0.012298927 0.04557334 0.45782554 0.38721234 -0.003816478 0.02176964 0.53402424 0.48420152 0.3915285 -0.05025755 0.56071925 0.4926564 0.37970102 -0.16614993 -0.088465795 0.5188874 0.35535482 0.08289349 -0.14112005 -0.19019447 0.45619988 0.34909868 0.068507075 0.02756944 0.22547033 0.060052857 0.09695556 0.16057079 0.14627558 0.23236835 0.19583803 0.16299997 0.264871 0.29524943 0.23783562 0.24965793 0.4709828 0.45124006 0.2451413 0.3307091 0.42585033 0.45070857 0.47512645 0.43839067 0.53164446 0.55356634 0.5386716 0.5027211 0.5430371 0.5812561 0.5713116 0.527087 0.48882127 0.5821367 0.55458504 0.38778543 0.40534306 0.37618944 0.6503004 0.4304089 0.3901682 0.3729484 0.34049886 0.33019686 0.30007532 0.35204464 0.21827295 0.56168044 0.6339606 0.63821244 0.4755456 0.20738986 0.13640274 0.13336615 0.47184503 0.53782403 0.602243 0.59334695 0.58755994 0.42543215 0.38600504 0.38779432 0.5297376 0.5126325 0.3297264 0.34229764 0.22247586 0.39640912 0.44947743 0.4535188 0.41643804 0.40369266 0.31782785 -0.17447564 0.095336296 0.25896597 0.30215377 0.4020908 0.3485523 0.49957672 0.48289925 -0.0032496713 -0.02119429 -0.020897364 0.194775 0.3120056 0.54377234 -0.068743825 0.055493705 0.096213944 0.06887588 0.06242105 0.56296885 -0.081287846 -0.019609492 -0.014464825 0.160788 0.1546253 0.121791996 0.56857955 0.5806948 -0.040539376 0.0052203685 0.1681111 0.21645752 0.21236874 0.18346374 0.55441713 0.49368665 -0.06715245 0.15757915 0.27881178 0.28735286 0.2595321 0.5221122 0.4413978 0.28082672 -0.05024401 0.024446733 0.016669296 0.15748641 0.2861636 0.30774236 0.29557747 0.03156764 -0.0224509 0.1311862 0.15765962 0.23567891 0.26568502 0.2996131 0.06536799 0.17103967 0.29404122 0.29622173 0.17882214 0.09848753 0.28151515 0.31984043 0.33433682 0.32225394 0.27032217 0.38896617 0.22838858 0.24943215 0.3215108 0.31173483 0.29159135 0.39240637 0.45197535 0.5252494 0.4975708 0.41637737 0.71256745 0.79706025 0.9035652 0.57148325 0.5683328 0.5056273 0.47782326 0.4358677 0.73905647 0.8383026 0.93821925 0.7772906 0.82311213 0.45460236 0.44773364 0.3835221 0.63299215 0.6532624 0.65370524 0.64869094 0.403105 0.42165655 0.4177506 0.42076337 0.41850504 0.37942758 0.32421705 0.28802148 0.30106938 0.36008397 0.2718723 0.116494164 0.096974924 0.14159824 0.15417182 0.44117808 0.63663805 0.6352608 0.47817305 0.24125296 0.21550643 0.11727532 0.12550835 0.24422505 0.54322284 0.46590903 0.41068256 0.33779678 0.40584627 0.32137772 0.31414208 0.2432748 0.18405399 0.48750487 0.39665395 0.18645641 0.16936484 0.48434246 0.22340652 0.54786015 0.5290427 0.07272813 0.20303008 0.39084575 0.41514033 0.55092597 0.14520663 0.35993555 0.4313346 0.45381945 0.55333984 0.5571132 0.2072634 0.32679662 0.43044937 0.49407107 -0.02867144 0.27430034 0.20531546 0.24634892 0.28703398 0.27489105 0.1502976 0.14529033 0.08062962 0.10582136 0.18704551 0.16185829 0.15179028 0.23563488 0.14103214 0.171845 0.19966301 0.2586994 0.21851523 0.23740092 0.25152993 0.51655376 0.6357879 0.6682174 0.18844497 0.02779457 0.16585751 0.16197391 0.19970709 0.4874049 0.64331394 0.7371243 0.8112635 0.86177665 0.34531045 0.33508968 0.59452856 0.66228485 0.91675794 0.9505645 0.49557978 0.4666645 0.42361206 0.43032765 0.40702438 0.63129324 0.6857314 0.97766215 0.9910294 0.41171235 0.6785873 0.7671852 0.8605659 0.9634007 0.99143696 0.765555 0.8760469 0.9392196 0.8613761 0.83002937 0.90886134 0.8533673 0.46973896 0.50312924 0.49970776 0.54615164 0.6388304 0.63236463 0.63348067 0.39868563 0.4686757 0.46280175 0.4403811 0.3929035 0.28733838 0.286896 0.10339334 0.1219118 0.17376462 0.6115762 0.44825023 0.42532903 0.37348902 0.32012784 0.24145742 0.19765685 0.44018838 0.1207934 -0.026260994 0.39489406 0.39156604 0.15755932 0.23899701 0.10485455 0.30900842 0.21741149 0.2622424 0.46417344 0.34508988 0.36652747 0.48874152 0.47009957 0.43593925 0.44069126 0.50389856 0.51730007 0.51851416 0.49957687 0.22542466 0.4787241 0.53871685 0.4276003 0.3188194 0.12134696 0.1689257 0.3070468 0.12335742 0.037815895 0.13235551 0.15290025 0.028903622 0.086227335 0.12937583 0.17216742 0.14655101 -0.057773415 -0.025720097 -0.0030455403 0.4620313 0.61840487 0.099514954 0.07271055 0.30646247 0.40823138 0.42864352 0.64393973 0.6882735 0.100575075 0.09999928 0.15314098 -0.07628154 0.08148178 0.035868555 0.04262124 0.08479084 0.42242977 0.73553276 0.8633131 0.2321501 0.26962256 0.15999012 0.46620828 0.90970373 0.32354897 0.388417 0.40709862 0.3757488 0.49409536 0.5345106 0.97388506 0.95789415 0.3309338 0.38019457 0.41372815 0.6422831 0.7111653 0.9396833 0.94921076 0.7975827 0.8903804 0.9161813 0.58472335 0.56893593 0.61003745 0.6137696 0.7518923 0.74278426 0.71212924 0.67386043 0.64108896 0.9086467 0.9149803 0.8670715 0.7685734 0.72168833 0.6267427 0.95121956 0.9191511 0.83581805 0.7317486 0.61040413 0.94413346 0.9171777 0.84748816 0.73139125 0.52537227 0.5608721 0.53730416 0.19313753 0.1679628 0.4650581 0.44828248 0.5782341 0.43493402 0.53305393 0.55082524 0.48584676 0.17244004 0.07969937 0.44920552 0.4188642 0.38393253 0.34365046 0.3158388 0.37596884 0.2532702 0.15532154 0.1633282 0.43632036 0.40620065 0.3654448 0.100559756 0.0423802 0.08846755 0.27232292 0.3956138 0.3200993 0.26174313 0.01933368 -0.05533075 0.046663977 0.29408422 0.42968506 0.1776745 -0.24502587 -0.16194242 0.12691581 0.32140464 0.18825859 0.1508239 0.25440523 0.39473426 0.38682213 0.40885416 0.44081005 0.47046202 0.45920718 0.43472087 0.42231387 0.5274115 0.43915045 0.34549135 0.55379534 0.087995484 0.4338724 0.1183964 0.02252546 0.15295947 0.028786091 0.12810366 -0.071181335 0.42585033 0.5573224 0.029833037 -0.03874315 -0.11780025 0.18987505 0.6056119 0.6585305 -0.069582924 -0.18343799 0.010914713 0.11665019 0.1421826 0.19217864 0.12442145 0.19850999 0.71106005 0.13901256 0.25777957 0.0990006 0.19357526 0.24686405 0.25804505 0.21254739 0.2916611 0.8433949 0.30002615 0.36977583 0.39426804 0.4623354 0.9067272 0.27037835 0.35142937 0.36541203 0.41032913 0.53144586 0.5877794 0.8029398 0.8629725 0.7879251 0.8103018 0.84642607 0.8868438 0.4030398 0.5150006 0.51994276 0.49775544 0.49743783 0.54560775 0.5900364 0.60555094 0.52340645 0.71217793 0.5758383 0.5941119 0.52609897 0.82387984 0.55310726 0.527668 0.8304634 0.90057933 0.6554347 0.5218117 0.87953854 0.8789935 0.78655785 0.6127393 0.5476909 0.54003966 0.5183259 0.5960573 0.56797624 0.55141914 0.54779816 0.5604956 0.6080821 0.6184743 0.6000348 0.5522765 0.5889852 0.56465936 0.35930377 0.41862032 0.36715448 0.16493364 0.07596332 0.2551385 0.0868406 0.14454393 0.5173232 0.6015587 0.57330453 0.5097381 0.5380654 0.32748365 0.4148668 0.43768018 0.26042017 0.18213575 0.47318727 0.5143516 0.5436146 0.21194202 0.18586864 0.15733017 0.1683856 0.47618663 0.51857513 -0.04253806 -0.02646571 -0.020428604 -0.11061877 0.47195375 -0.26904058 -0.32320535 0.34897417 0.29056716 0.09173234 -0.37460554 -0.35632816 0.23318578 0.3625246 0.38507223 0.37077636 0.44017795 0.4167816 0.35415187 0.5153662 0.27932453 0.525536 0.2748775 -0.01650393 0.34717724 0.22163345 -0.12610301 -0.11045927 0.11318027 0.51196414 0.0011756774 -0.09481712 0.5759506 0.63071394 -0.12015143 -0.146531 0.08156847 -0.09742124 0.66765034 -0.11841102 -0.19114737 0.18136348 -0.2682277 -0.15704049 0.1480881 -0.057081945 0.07366988 0.18100378 0.73112166 0.19928205 0.11050151 -0.006805137 0.2493337 0.111132726 0.22687167 0.28808975 0.2512508 0.1737253 0.2410571 0.6428069 0.7558149 0.236645 0.13146032 0.14011489 0.13492794 0.122494414 0.28072995 0.5992352 0.5563357 0.63419163 0.7090144 0.73915625 0.20166346 0.71896935 0.7321085 0.30970895 0.32340893 0.42018256 0.35010368 0.45105892 0.35771292 0.41299227 0.47282732 0.088989176 0.095533594 0.5700898 0.50148815 0.5177945 0.4260401 0.6170019 0.4686917 0.6064962 0.63103473 0.6126588 0.41507006 0.34951162 0.718084 0.46982402 0.60403633 0.64178026 0.58284044 0.46171874 0.34490633 0.7115847 0.63898706 0.44348866 0.4076295 0.60914487 0.54204684 0.6967076 0.6646443 0.68631065 0.51526296 0.387781 0.4305589 0.46175247 0.49324167 0.5093387 0.4740842 0.47110882 0.4666087 0.50594467 0.5223817 0.5146942 0.51663566 0.44122094 0.4447853 0.4556613 0.4380911 0.45265165 0.41812325 0.4608467 0.5459573 0.5644041 0.5046586 0.4709284 0.38731927 0.3344183 0.3423137 0.28911957 0.3805217 0.2799011 0.21856524 0.19988114 0.12553519 -0.020735651 -0.11687512 0.372407 0.5172308 0.53389525 0.49173844 0.38378477 0.31144673 0.2392841 0.16003859 0.14256036 0.5604241 0.6136825 0.64886737 0.5570718 0.53254247 0.4539246 0.37782398 0.56998396 0.53947806 0.16188633 0.62038136 0.5776037 0.5530552 0.46557948 0.40823263 0.018043257 0.14289054 0.14173535 0.5738907 0.014919635 -0.11927001 0.08012337 0.4841757 0.52414995 0.06714271 -0.09843569 -0.19391683 -0.19962913 -0.061248172 -0.22482648 0.42539793 0.22243215 0.12379973 -0.30352217 0.36911952 0.36016458 0.18167824 0.34148413 0.33110544 0.22826289 0.3596604 -0.030707791 0.34008163 -0.05395484 0.14202061 0.42089537 -0.10474558 0.602442 0.10844518 -0.36439803 0.090820715 -0.11128442 -0.079765424 0.51010156 0.5394898 0.23428074 0.22341351 -0.092737146 -0.21138689 0.023788352 0.16492863 0.14749153 0.15546528 0.40233907 0.54577243 0.61475545 0.27156293 0.031616062 -0.2618842 -0.07745938 -0.007283468 -0.049832754 -0.17354439 -0.048044596 0.21061936 0.46090695 0.44569597 0.50167483 0.55734134 0.6125103 0.25695702 0.24121535 0.095073365 0.087089434 -0.041913576 -0.020756051 0.013260715 -0.07397148 -0.025517374 0.23251641 0.25082704 0.027062252 0.16470455 0.3479235 0.3864892 0.07656077 0.0327714 0.458421 0.3432532 0.28826678 0.26586843 0.5295162 0.46541572 0.2954539 0.2723254 0.28604394 0.5888957 0.2604717 0.2813252 0.48866296 0.5475175 0.31152043 0.2840199 0.29502535 0.5158547 0.540183 0.3320002 0.320846 0.18953615 0.288523 0.45963597 0.51173186 0.303988 0.20012058 0.22697374 0.51958716 0.42269847 0.4732734 0.454522 0.24724123 0.35434487 0.1091148 0.13271101 0.28098136 0.22525886 0.1839902 0.16785598 0.14960681 0.34584215 0.33563635 0.3174889 0.2548589 0.2190812 0.4156032 0.43027738 0.38409773 0.3263734 0.30039752 0.5009756 0.45674318 0.4049863 0.7011833 0.66613877 0.67683065 0.5710012 0.77219003 0.8025615 0.7798288 0.7645768 0.8344492 0.817325 0.6427195 0.43892694 0.5056231 0.558272 0.34431922 0.3953792 0.4331219 0.44366503 0.40436983 0.4404565 0.4201781 0.42931855 0.45343262 0.4152582 0.43055293 0.6359502 0.7068701 0.67672014 0.6300534 0.45292902 0.3779983 0.56865406 0.5563674 0.5541884 0.58598757 0.5503013 0.477134 0.21368816 0.25098988 0.32184374 0.36664233 0.5874044 0.43685687 0.33487245 0.3854044 0.48608378 0.40144265 0.34483242 0.19122759 0.38366908 0.07835777 0.2393038 0.36198494 0.4689091 0.5548381 0.5762795 0.5328996 0.25345576 0.18268096 0.067489624 0.684566 0.58691 0.5833723 0.29154387 0.2235244 0.09805985 0.6999144 0.5853722 0.5785352 0.54248726 0.38276082 0.32952413 0.11655643 0.24349502 0.30766168 0.14348033 0.09453066 0.6526375 0.5581792 0.53939164 0.48027074 0.45329678 0.3804731 0.34389925 -0.0022357367 0.059139036 0.022142828 -0.005017581 0.07571867 0.5637889 0.38000152 0.3629362 -0.0073538106 -0.07449261 -0.07133198 0.0636364 0.02366653 0.002142895 0.38798898 0.15968737 0.109221414 -0.18883586 -0.06948048 0.0012201071 0.12081446 0.2635022 0.006905675 0.26771903 -0.04185881 0.19682871 -0.11100295 0.27818903 0.36056373 0.3945299 0.0236019 0.36191928 0.32493088 0.07931419 0.03816268 -0.13368797 0.46056405 0.32194683 -0.05850242 0.22118708 0.2721498 -0.004113145 -0.012371521 0.094344765 0.37858415 0.22233507 0.1791178 0.01898599 -0.07725637 -0.08508549 0.22596191 0.29564396 0.37316158 0.3869552 0.45271468 0.22547778 -0.57668364 -0.38622892 -0.087099135 0.17754444 0.23396385 -0.2514498 -0.42665255 -0.13021566 -0.022208087 0.23520017 0.24735901 -0.16889173 -0.13382739 -0.021312904 0.00929286 0.14504567 -0.010248259 0.27098396 -0.0071012992 0.21608098 0.2976114 0.10722566 0.41074216 0.29923642 0.31054395 0.3932838 0.25122976 0.31051457 0.31215987 0.32479373 0.32800683 0.2911486 0.15491635 0.3175056 0.31335914 0.24810392 0.2765202 0.3486882 0.38070711 0.3779381 0.27239186 0.27915305 0.1790966 0.28826737 0.30747512 0.092154704 0.19868067 0.2965787 0.16045715 0.16850194 0.21075766 0.35304102 0.4678703 0.24845256 0.28276297 0.27505642 0.26972252 0.5062992 0.62375915 0.39820677 0.39687163 0.30245432 0.28006485 0.4715399 0.51830626 0.33415955 0.70905286 0.81700873 0.74684 0.69296 0.85080075 0.8595206 0.84033537 0.81565285 0.8661799 0.85555196 0.8386482 0.706008 0.7526815 0.7572192 0.6454016 0.68777394 0.71433485 0.61331993 0.55869454 0.54757524 0.43246925 0.4002722 0.44133812 0.41596243 0.45159048 0.4178424 0.43403763 0.6565087 0.734884 0.7540709 0.7133887 0.6158978 0.34851944 0.37938428 0.7145798 0.6490803 0.5289613 0.47375727 0.54621506 0.2876164 0.7004172 0.67418075 0.35682175 0.3167839 0.33018476 0.39079273 0.58601236 0.5732405 0.1470626 0.21504757 0.25546193 0.53764784 0.4821933 0.00072042644 0.0770648 0.23549022 0.42320704 0.49409825 0.5807816 0.5924672 0.5904716 0.11496398 0.31033367 0.67849684 0.5757826 0.58401144 0.22197962 -0.0150318965 0.72190666 0.5640334 0.5692408 0.30299708 0.3364625 0.22554989 -0.10178489 0.691264 0.54237354 0.4908679 0.31582892 0.31143308 0.11478787 0.19445357 0.1048041 0.010504194 -0.07721893 0.38456932 0.5325266 0.429439 0.40222675 0.3619666 0.31723318 0.3277641 0.3277927 -0.011461037 -0.05823685 0.044448473 0.081587024 0.1398952 -0.41746598 0.13679971 0.0442727 -0.06777735 -0.13413551 0.17619523 0.061871562 0.11166803 0.27113274 0.27236938 0.26172718 0.19205943 0.24874333 -0.19147436 0.24183208 -0.10113366 0.33413965 0.2543534 -0.040977973 0.32702255 0.042219725 0.55728817 0.5039119 0.56732 0.5163818 0.38849825 -0.18907696 0.31177098 0.13650021 0.170299 0.21917221 0.10369288 -0.14936891 -0.042947963 0.13724792 0.099606365 0.24942659 0.13178259 0.117676474 -0.27381834 -0.16722591 -0.03953223 0.10787167 0.21448985 -0.37380147 -0.31428415 -0.17831877 0.23069647 -0.17762473 -0.05053733 0.250282 -0.23038894 -0.25482708 0.16544206 0.21927997 0.2778895 0.04531595 0.29971024 0.24973361 0.1422453 -0.08288179 0.04289435 0.37141606 0.25885743 0.19248118 0.19302854 -0.0620962 -0.027324378 0.41782242 0.20039573 0.21148843 0.23349594 0.10374959 0.18398127 0.22369589 0.31977877 0.11371401 0.011404246 -0.11005659 0.4329039 0.6356139 0.23566903 0.24706858 0.27703536 0.2949915 0.1346301 0.012037387 0.5500743 0.70533526 0.81170255 0.2588888 0.6209866 0.68433297 0.76615036 0.83427656 0.27609614 0.28371564 0.574461 0.79132116 0.8113107 0.56052023 0.70378447 0.44753525 0.8131454 0.71044314 0.8701496 0.8730836 0.8025112 0.75746804 0.8687264 0.85616946 0.8339065 0.64990085 0.6977125 0.7826694 0.77375466 0.61602134 0.6226536 0.5557064 0.47318608 0.10909708 0.43947336 0.44727522 0.46635705 0.41481125 0.45965838 0.71491504 0.7141681 0.69080526 0.67059916 0.37448198 0.7800181 0.7526721 0.72380817 0.58388555 0.56130147 0.56899524 0.5569477 0.50391626 0.2541822 0.77060854 0.3671318 0.1435852 0.3666098 0.36554864 0.571869 0.20196918 0.64890707 0.2747924 0.37881193 0.43742588 0.57825875 0.15305102 0.5141342 0.27249524 0.5243243 0.6102475 0.56284815 0.16847874 -0.10951787 0.64667046 0.53623855 0.5141823 0.31703514 0.28369814 0.3278999 0.26463395 0.6013955 0.33192813 0.33756506 0.05309704 0.13618739 0.13395932 -0.28243935 0.24887976 0.31871915 0.30018198 0.3324498 0.34895813 0.38163888 -0.08299194 0.06087719 0.053844143 0.26102695 0.30526537 0.3508372 0.36976087 -0.0029281583 -0.04623302 0.014581913 -0.004695371 0.1732404 -0.092428096 -0.4434578 0.23894034 0.15519235 0.18602198 -0.21281745 0.31974345 -0.27520502 0.23522052 -0.19819787 0.15323445 -0.19457537 0.18090975 -0.11872333 0.14416245 -0.1266065 0.4761667 0.28779978 0.11953728 0.5793622 0.54565454 0.46848857 0.34542587 0.68347156 0.61982393 0.2700505 0.36872715 0.67467904 -0.15698862 0.086874925 0.22977957 0.5983286 0.38121766 0.16053839 0.119927146 0.0024957582 0.02943668 0.10869585 0.14630303 -0.00689131 0.10895616 0.18817012 -0.14519386 -0.033348113 0.16144234 0.21151839 -0.073685475 0.23708916 0.2958783 0.17291072 -0.21473713 0.37731296 0.1563406 0.60510707 0.19282772 0.122978 0.04963598 0.04361427 0.7497647 0.8881677 0.15104301 0.19727442 0.9030745 0.28931612 0.29155296 0.8804389 0.21505776 0.83982646 0.8539009 0.868474 0.33433735 0.32397515 0.8282054 0.8387747 0.3621576 0.5274199 0.69270337 0.63784647 0.8385942 0.87824917 0.78201437 0.73482525 0.86538756 0.8520164 0.82485855 0.6345992 0.6932717 0.76550996 0.7434803 0.6716571 0.572552 0.5386921 0.43463248 0.46444607 0.39728838 0.06344652 0.40570807 0.2540858