# vtk DataFile Version 2.0
Really cool data
ASCII
DATASET POLYDATA
POINTS 5729 float
-2.6060784 66.04299 40.579258
-2.5570111 66.923004 39.121593
-2.6511817 66.64475 39.63374
-2.6833947 66.565575 40.341583
-2.606264 66.48073 41.250088
-2.5659761 67.26824 39.085373
-2.6712122 67.31935 39.598804
-2.6386805 67.41528 40.31344
-2.5669088 67.09908 41.237724
-2.551132 67.88483 39.76331
-1.6260463 64.01109 46.774994
-2.052896 65.10486 40.547974
-2.0307243 64.9234 41.24044
-1.8435324 64.72095 46.52341
-1.8846579 64.68742 47.49426
-1.7544507 64.86247 48.179142
-2.0394268 66.12665 38.799873
-2.2600598 65.8688 39.6256
-2.4711318 65.68126 40.555492
-2.3240876 65.49847 41.415356
-2.015774 65.22954 46.76549
-2.0630977 65.50063 47.544037
-1.8728666 65.4708 48.132793
-1.906107 66.76663 38.369724
-2.1854174 66.69924 38.636566
-2.4837222 66.240074 39.635403
-2.4571686 66.304474 41.60146
-2.1641634 66.49432 42.21223
-1.7220372 66.41775 45.413338
-1.8726658 66.25118 46.590813
-1.8046246 66.413284 47.377853
-1.7594172 66.11455 47.999832
-1.9687053 67.339 38.39173
-2.2864156 67.479095 38.76371
-2.5187225 67.76361 39.366966
-2.517779 67.69335 40.720974
-2.441823 67.81616 41.0436
-2.250395 67.741844 42.353226
-1.9179778 67.49924 42.96156
-1.6705356 67.05023 46.451874
-1.9895008 68.042946 38.752026
-2.2272491 68.30021 39.64773
-1.9990917 68.6585 40.935543
-2.1329432 68.29436 41.561493
-1.9107828 68.47398 42.385094
-1.7745042 68.28439 43.132244
-1.8860519 68.79475 39.693123
-1.914791 68.81443 40.17161
-1.7894988 68.786026 41.751915
-1.8189871 68.78209 42.20275
-0.7405081 63.279903 47.209858
-1.3692492 64.39296 40.65959
-1.0867335 64.38827 41.463535
-1.2727818 63.956924 46.150593
-1.5224104 64.02066 46.704273
-1.4067109 63.950207 47.475464
-1.0393034 63.980938 48.20166
-1.1982919 64.90073 39.911568
-1.1824629 64.981735 42.57418
-1.0316964 64.88946 42.900673
-1.43171 64.80998 45.712437
-1.4526057 64.603676 48.3651
-0.9577803 64.79824 48.853287
-0.9237271 65.6093 38.31659
-1.2894098 65.680176 43.442875
-1.5893955 65.57663 48.504547
-1.1576763 65.40627 48.837315
-1.7660929 66.56908 38.263447
-1.3466696 66.15421 48.443497
-1.1514204 65.90783 48.77605
-1.6603487 67.380455 38.290356
-1.5330818 67.00806 45.40166
-1.3869661 67.39678 46.353405
-1.4072586 67.099014 47.311214
-1.015748 67.12903 47.83705
-1.2061496 67.94861 38.37109
-1.5194167 68.27633 38.66575
-1.0902866 67.77646 45.3379
-1.112771 67.758026 46.589252
-0.92313087 67.81168 47.092464
-1.2278314 68.760155 38.936775
-1.5038483 68.90693 39.41152
-1.4654244 69.08487 40.241264
-1.3404827 69.05902 41.416042
-1.3926082 69.09179 42.602703
-1.0535707 69.1125 43.418514
-0.63995135 69.1738 44.0124
-0.645131 69.92078 42.26871
0.22051132 48.231644 42.89673
0.13865408 48.185505 43.375492
0.058407903 48.6552 42.78942
-0.049922824 48.62442 43.401917
0.07481229 48.72558 44.03547
0.2617491 49.215294 42.30745
0.08239305 49.267944 42.789936
-0.05719608 49.23235 43.423607
0.15677643 49.254967 44.168205
0.2078139 49.80666 43.410564
0.2616545 57.579082 39.018116
0.2109321 57.74699 39.57502
0.3467376 57.50454 40.24116
0.30634174 58.54735 38.769073
0.19798854 58.498188 39.532192
0.20292288 58.47389 40.13582
0.46246538 59.25307 37.811123
0.47850987 59.449093 38.494183
0.4343192 59.405163 40.039085
-0.06357375 63.16922 37.563953
-0.046073437 62.823776 39.435898
0.22022437 62.731144 40.756317
0.21611679 62.972298 42.665718
0.13063553 63.16028 44.660324
0.2971173 62.427517 45.77336
-0.15158877 62.783752 46.493225
-0.45968688 63.1771 47.30211
-0.09645584 63.307156 48.19399
0.0921651 63.839073 37.04185
-0.29247433 63.86831 37.479893
-0.38890725 63.572006 39.609962
-0.44420132 64.02965 40.411736
0.07741535 64.03661 42.7041
-0.30814663 63.435837 45.8056
-0.6321701 63.77204 48.21525
-0.08259666 63.972595 48.966015
0.047734767 64.4046 36.989815
-0.42748713 64.47246 37.655052
-0.20497838 64.51428 49.134327
0.16321203 65.13796 37.077827
-0.5446187 65.525856 49.166233
-0.634587 66.1321 38.416336
-0.24215412 66.3358 49.038704
-0.34224868 67.15009 48.20161
-0.3003579 68.61038 38.756756
-0.39103898 68.15788 46.827183
-0.31850278 68.085014 47.141518
-0.81358045 69.19301 40.56064
-0.38043272 69.4066 44.26437
0.24743241 69.51961 44.93968
0.05002445 70.45419 42.1074
-0.14676595 70.49313 42.753242
-0.06932402 70.55164 43.460766
0.2119577 71.03665 42.847572
0.14161529 70.817276 43.5558
0.28950185 70.772896 44.027943
0.93986344 48.208157 42.154297
0.7458737 47.963013 42.732098
0.76553464 47.776314 43.527267
0.6525038 47.994648 44.225075
1.0899638 48.03287 45.061356
0.7812313 48.65997 41.99909
0.3747142 48.48903 42.424976
0.48299825 48.615112 44.628418
0.8704654 48.579178 45.303253
1.3046091 48.84818 46.059753
0.617254 49.2626 42.074406
0.43881512 49.51458 42.330353
0.45673713 49.476933 44.648193
0.803558 49.46174 45.26659
1.2316964 49.426857 45.983604
0.9722401 49.90638 42.137897
0.7631879 50.02115 42.56564
0.65843135 50.214672 43.440258
0.89400244 50.337574 44.342293
1.2094377 50.269306 45.247135
1.2688994 49.918434 45.845795
1.2636067 55.949516 30.86279
1.1102703 55.90782 31.44985
1.0575778 55.9746 32.20029
0.99494076 56.255215 39.485424
1.1445453 55.99151 40.453716
1.3720392 56.17945 41.018658
1.1568263 56.52932 30.656027
0.8892257 56.401566 31.604643
0.98935544 56.370537 32.28867
1.2325919 56.56253 32.779724
0.68985856 56.67311 39.6372
0.6909306 56.7788 40.174847
1.3627181 56.702156 41.409706
1.3280162 57.139217 30.299425
1.2011648 57.29626 30.789703
0.9761771 57.259556 31.529284
1.0820699 57.27271 32.13399
0.9407879 57.70708 37.81565
0.6240068 57.58892 38.458546
0.5757283 57.4757 40.8945
1.2639942 57.769287 31.977613
0.82722616 58.74979 37.027557
0.7486986 58.55143 37.32285
0.7353438 58.396526 41.285564
0.77873766 59.338173 37.10594
0.5950526 59.75359 37.890488
0.551396 59.510284 38.529037
0.62917256 59.50626 39.01558
0.609848 59.378128 40.258427
0.7015824 59.10494 41.199673
1.4030513 60.701843 36.278255
0.99338186 60.419975 36.91697
0.6341628 59.91334 38.016212
0.97052675 60.470444 39.33418
0.91586834 60.042683 40.26111
1.1438535 61.134583 36.735188
0.9435965 61.58752 38.306416
0.9662711 61.287647 39.28579
1.2151148 61.428505 41.888203
0.5556499 61.983624 42.478046
0.6581738 61.874413 43.566013
0.94741917 61.825405 45.434586
0.76591337 61.97958 46.48212
0.59912646 62.3399 47.142345
0.49799052 62.805378 37.639244
0.6965287 62.373287 44.84493
0.4154542 62.70687 47.25612
0.82063395 62.90221 48.07295
0.53479105 63.95405 36.76072
0.56184286 63.890877 49.15413
0.42878702 64.63986 36.808388
0.62766457 64.34016 49.45401
0.69599164 64.67238 49.557426
0.86258185 65.406815 36.707832
0.44846857 65.799675 49.48595
0.6948497 65.41235 49.594673
0.9871725 66.278435 36.890167
0.75893104 66.53651 37.576748
0.7390011 66.24877 49.372185
0.94479656 66.14315 49.53597
1.1588137 67.026436 37.20984
0.2538027 67.43904 48.06455
0.8671343 66.90033 48.866913
0.65107536 68.317375 46.61941
0.45700198 67.8656 47.539665
0.8838731 69.00291 38.957558
0.5332819 70.54623 44.234634
1.2745314 71.27756 40.117275
1.2501452 71.57908 40.718056
0.7880086 71.336006 41.77836
0.6176452 71.318375 42.581573
0.6175613 71.27303 43.45264
0.77981615 71.03571 44.05232
1.209476 71.697815 41.250828
0.94324183 71.618164 42.67479
1.1228373 71.66838 43.282585
1.6201375 48.108463 42.039608
1.558545 47.718018 42.71425
1.2997699 47.59076 43.221107
1.7376298 47.596478 44.49903
1.6561792 47.87996 45.362804
1.5849584 48.197052 45.867485
1.4146222 48.61204 41.69876
1.5573287 48.58626 46.12349
1.3811035 49.30739 41.666138
1.6830298 49.576843 46.318306
2.1859016 49.999973 46.699436
1.6666023 49.94724 41.956413
1.3911971 50.30442 42.409813
1.7782027 50.4557 46.18247
2.3195798 50.733307 47.12484
2.0263126 50.63998 42.69033
2.346446 51.338688 43.68083
1.9119244 51.19956 44.54921
2.0710826 51.732693 45.926525
2.0443094 51.270935 46.739315
2.3042598 52.3289 44.82717
2.3868186 52.747208 45.87272
2.1065814 52.13364 46.127136
1.8194724 54.040657 45.669422
2.1231415 53.787006 46.79279
2.0236325 55.23618 30.988329
1.7474836 55.273632 31.584112
1.9103765 55.25854 32.270214
2.2276533 55.41412 39.00314
2.0523932 55.25029 39.672585
2.2481148 55.22576 42.600636
1.5864267 54.68787 45.67664
1.700387 54.642696 46.409435
2.0562963 54.58006 47.027473
1.8943777 56.112274 30.06003
1.6137185 55.691795 30.710781
1.4460392 55.49428 31.404743
1.4425966 55.53075 32.25612
1.7440871 55.870453 32.83431
1.8934361 55.882343 37.60108
1.7052338 55.7138 38.895092
1.6772122 55.494225 39.64853
1.6285295 55.53874 40.55716
1.8189076 55.715717 41.29917
1.7053177 55.582035 44.631817
1.5578059 55.438694 45.505733
1.7503755 55.386772 46.458683
2.064447 55.548313 47.060085
1.7714384 56.509502 30.001938
1.6525338 56.792084 37.148952
1.4476833 56.293133 38.116707
1.6502898 56.17114 44.56402
1.8056703 56.323124 45.431763
1.9757756 56.10503 46.465206
2.1569996 55.987488 47.052265
1.7563603 57.111446 30.035458
1.4677148 57.484478 30.481909
1.4466939 57.555626 32.550777
1.6993312 58.087757 36.49248
2.0541434 57.4901 43.740135
2.1553645 56.924248 45.299686
1.8566186 58.14471 30.878742
1.6306511 58.193535 31.480404
1.777806 58.21734 32.118824
1.868417 58.88966 36.252304
1.4055587 58.447834 41.933422
1.6910788 59.451073 36.22679
1.9558259 60.372604 35.74331
1.777405 60.95022 44.210682
1.8162298 61.12851 45.439934
1.7508646 61.275032 45.84206
1.8091727 61.273396 36.015198
1.557974 61.60953 36.636818
1.522157 61.792 46.67868
1.2725432 62.12009 47.385006
2.1846814 62.04782 36.1363
1.5263084 62.833313 48.062847
1.3351992 63.847977 49.162193
1.1230597 64.62328 36.573147
1.5848627 64.492615 49.41385
1.1877127 64.78235 49.60416
1.7735723 65.54584 36.44055
1.4742129 65.84038 36.509315
1.5770416 65.50982 49.494595
1.2181413 65.40056 49.593483
1.5803039 66.367905 36.61232
1.4047457 66.28825 49.318153
1.7221195 66.92985 36.8673
1.8165592 67.36949 37.39572
1.2454917 66.796326 48.983723
1.6538428 68.26282 46.31363
1.9703405 70.40238 38.991985
1.3817017 70.69509 44.552685
2.0351596 71.1364 39.278656
1.8231816 71.3385 39.597748
1.8798078 71.81121 40.02602
[...]
POINT_DATA 5729
SCALARS features_00 float 1
LOOKUP_TABLE default
0.5328077 0.62917113 0.6010779 0.5608156 0.51077515 0.64091843 0.6210245 0.5681109 0.49935526 0.61060256 0.5619234 0.44646004 0.40985623 0.6045621 0.6735876 0.69242233 0.5692681 0.55342793 0.5120706 0.46993047 0.65088063 0.6855575 0.69141114 0.59405804 0.6122477 0.58087647 0.49161422 0.46549448 0.43681282 0.5722182 0.61557466 0.6638034 0.63286066 0.649648 0.6384747 0.5218767 0.48380858 0.38280648 0.34432188 0.49057913 0.6570059 0.6109902 0.43843064 0.40475458 0.32398236 0.27493203 0.58562267 0.5217789 0.3395784 0.31039822 0.4837625 0.28407076 0.2371073 0.4622622 0.5484584 0.6019409 0.63369 0.37625498 0.25716686 0.18653855 0.47881305 0.68526995 0.6803489 0.37692508 0.26114264 0.6881623 0.6809261 0.56233263 0.6624956 0.66975033 0.60841227 0.38022965 0.4657762 0.55537355 0.58068997 0.5952904 0.6464637 0.29960507 0.46772593 0.50728816 0.62025535 0.6020904 0.47432268 0.3138505 0.25885242 0.22807756 0.21031979 0.2470721 0.88233507 0.8873819 0.8894917 0.8954625 0.8537802 0.86600846 0.8721044 0.87954026 0.80653054 0.82787824 0.43450928 0.44489372 0.46338165 0.3546068 0.3794992 0.40596312 0.3320663 0.2911443 0.3158209 0.2945584 0.0075976867 -0.06243706 -0.034926035 0.12353346 0.30674082 0.38028198 0.4722174 0.54375166 0.3238516 0.3064565 0.06879405 0.09810413 -0.0045564733 0.33514053 0.5979594 0.64228857 0.32428667 0.29808694 0.6629859 0.33399183 0.6633065 0.3823595 0.6361016 0.5834316 0.4381796 0.4618822 0.48628956 0.3636888 0.23179497 0.24523893 0.27414906 0.29544455 0.30842543 0.32525557 0.32413685 0.3268389 0.8440739 0.84721875 0.84768045 0.8077444 0.6575356 0.8598439 0.8762735 0.74055326 0.6293172 0.513635 0.8496511 0.8424921 0.67736477 0.5575365 0.46152008 0.7496952 0.7463931 0.7162219 0.56630814 0.40797734 0.4032584 0.81076133 0.81580913 0.8155997 0.39001137 0.3597376 0.3496489 0.86015 0.8799005 0.86211395 0.8375472 0.42696804 0.42681068 0.37681764 0.84055626 0.8815906 0.90733147 0.8976912 0.38093 0.4063173 0.46183604 0.8688475 0.38553044 0.37535822 0.44582212 0.3726887 0.29778528 0.28368405 0.27468354 0.32514647 0.37714887 0.38017276 0.3537802 0.27649876 0.17549786 0.22187456 0.31007457 0.13149472 0.07526142 -0.0019894205 0.003306928 0.06306778 0.2895009 0.37050846 0.41784653 0.27093938 0.19241035 0.43651095 0.52064234 0.33062875 0.6294273 0.34203517 0.63463646 0.6294762 0.3989932 0.61308175 0.61323667 0.41838476 0.3916988 0.5923722 0.5886235 0.3998372 0.5330759 0.5691405 0.3562193 0.4507776 0.15006785 0.31975034 0.4171971 0.4225406 0.33059448 0.3387602 0.34756866 0.34108034 0.39155543 0.35595727 0.3622284 0.7798568 0.75020415 0.7894565 0.65179443 0.5693842 0.550751 0.8275544 0.5151076 0.7955866 0.37988245 0.25728747 0.63796616 0.5997748 0.2672004 0.17256528 0.40093827 0.22680217 0.2541202 0.19868869 0.18217486 0.033344343 0.1427125 0.18798095 0.30106992 0.29652825 0.67362046 0.6867053 0.6562201 0.26638737 0.2582932 0.041748002 0.40118444 0.39935285 0.38044494 0.7699742 0.7617549 0.73794407 0.725991 0.7008375 0.3224854 0.3214348 0.30160955 0.29596567 0.26732144 0.4338714 0.44981113 0.42839745 0.3973208 0.785035 0.34083402 0.37894648 0.44085267 0.47813004 0.452114 0.4066229 0.77887666 0.83210635 0.84022653 0.33955228 0.23870054 0.45600235 0.779955 0.81913537 0.8038378 0.35488462 0.34088847 0.37419796 0.37009633 0.17903778 0.32310224 0.36148512 0.3754797 0.31645286 0.4141097 0.44008622 0.31227174 0.49664986 0.61022514 0.35631168 0.6101391 0.6157757 0.38958827 0.41017762 0.58617914 0.600109 0.40982428 0.5710463 0.4001125 0.35978884 0.5582392 0.12304248 0.3334952 0.3159778 0.3946742 0.41786373 0.44670466 0.4452468 0.42267334 0.37564462 0.37151265 0.54268014 0.44478932 0.6739954 0.60806936 0.41787183 0.69233257 0.42927146 0.27197328 0.58485585 0.29071057 0.32781094 0.40768623 0.17935674 0.28305402 0.33605552 0.21490742 0.14867958 0.3181848 -0.09670313 0.02336967 0.14319865 0.26258555 0.12948221 0.057944342 -0.22439346 -0.15690878 0.04296823 0.604712 0.56682026 0.526287 0.48644283 0.23190643 0.23246539 0.20037773 0.21810192 0.14068577 -0.062456146 -0.015310064 0.3216163 0.2583654 0.67440957 0.6711746 0.57178766 0.2521344 0.3524852 0.31424022 0.6766887 0.5459619 0.3830902 0.33189908 0.6692369 0.038284183 0.38795644 0.56920975 0.6575073 0.71437335 0.24343151 0.10924704 0.65562785 -0.00086946785 0.33794394 0.39165008 0.19116959 0.42011553 0.5236886 0.54828596 0.57996833 0.36510065 0.36112416 0.5727821 0.38579768 0.3779223 0.5204861 0.5552582 0.35902932 0.34772 0.50623786 0.19122724 -0.042424314 0.2336851 -0.047088757 0.2835744 0.39186227 0.42501527 0.33885658 0.32061106 0.4430881 0.46690416 0.33863482 0.33862334 0.34159058 0.3295564 0.84751856 0.859746 0.78039813 0.81494546 0.8350144 0.8189728 0.7547476 0.7727543 0.7896075 0.6116799 0.7230581 0.2644214 0.33360016 0.20328468 0.5006912 0.3249104 0.41339958 0.22092485 0.37925112 0.43390733 0.19484407 0.36857608 0.40969077 0.12548222 0.37215716 0.40335262 0.035994463 0.34290951 0.36488062 0.46820801 0.06917771 0.09864069 -0.15199439 0.17585531 0.25289282 0.33459848 0.45566133 0.50357825 0.46448356 0.17391211 0.16056508 0.17507893 0.13348001 0.20583786 0.5171087 -0.049776435 0.0249426 0.06798597 0.28161886 0.27235106 0.48396975 -0.059075005 0.33252662 0.4796387 0.5187597 -0.02989456 0.26940465 0.3234015 0.46433964 -0.0912527 0.4470449 0.4404285 0.25665906 0.16200997 0.2688983 0.2898804 0.33644763 0.3289486 0.14803095 0.27902168 0.02468232 -0.0292744 0.31436914 0.10053778 0.301435 0.51445943 0.3117679 0.16524337 0.11412789 -0.071765326 0.15095226 0.04878487 0.27561045 0.3690482 0.34786877 0.34354988 0.45270294 0.45420265 0.39092582 0.30047226 0.33390993 0.3490195 0.326191 0.308478 0.7828562 0.8462332 0.8720106 0.8822514 0.7560425 0.8428894 0.8407261 0.574803 0.6411447 0.73659813 0.75539 0.43718183 0.62314945 0.6679859 0.663574 0.647968 0.5916426 0.49718302 0.36226636 0.1903364 0.16805467 0.4715897 0.6541898 0.5957955 0.520576 0.3767146 0.3354814 0.28258535 -0.13958046 0.035728633 0.03561064 0.58278936 0.53491753 0.45241988 0.40170634 0.34184808 0.2996989 0.15023482 -0.24735053 -0.046448413 0.3246956 0.5346161 0.20931065 0.45878536 0.48928058 0.58789635 0.11663942 0.5025725 0.10581337 0.4806913 -0.14450657 0.4316017 -0.27080345 0.40922678 0.37108952 0.33419678 -0.22169495 0.3553088 0.30133384 0.15094833 -0.114376746 -0.033103578 0.19185191 0.34219182 0.39986563 0.22487381 0.42485622 0.35313904 0.32753456 0.4436903 0.13750921 0.26189077 0.29659593 0.39972237 0.41246617 0.02503027 0.34765053 0.3111625 -0.027301408 0.021220453 -0.08233032 0.045578018 -0.007122794 0.106938675 -0.031488024 0.27683225 0.03675344 -0.020429924 0.12925732 0.044160187 -0.013462525 0.10373521 0.1663508 0.2862768 0.36682433 0.35940695 0.3205808 0.35625827 0.27750042 0.24150951 0.7939712 0.71588814 0.80178916 0.83926976 0.87184083 0.85746765 0.6039516 0.68030065 0.8222162 0.7992606 0.42120108 0.5476133 0.7562269 0.768437 0.6190609 0.5361776 0.39904502 0.40365177 0.39476806 0.5841847 0.67376196 0.7294533 0.6664208 0.5752545 0.42549765 0.30421814 0.23118576 0.19421893 0.13443959 -0.08519931 0.21176597 0.73331106 0.6869611 0.23744258 0.15305609 0.023721732 -0.1953887 -0.06745854 -0.08349913 -0.15828614 0.70251095 0.611291 0.44105786 0.28498816 -0.22537448 0.6412632 0.66326416 0.4958294 0.3945438 0.37333184 0.3747689 0.3299335 0.6610049 0.16145779 0.028696977 0.6472584 -0.11383392 -0.22643963 -0.369336 0.58999085 0.3907225 0.23664089 -0.3849238 0.501499 0.28535175 0.14427951 -0.40065932 0.44021723 0.08641791 -0.15722395 -0.15173498 -0.26713315 -0.41434526 0.4266752 0.15611838 -0.19282442 -0.1556756 -0.14896823 0.23429094 0.23132142 0.29218918 0.36110651 0.20778641 0.27766475 0.21387887 -0.11531826 0.05249665 -0.00019142032 0.054896645 0.00093037635 0.21107787 0.03515094 0.36295208 0.21175686 -0.21247023 0.012380272 0.5856408 0.5226644 0.4811662 -0.0071688555 0.12773891 -0.04800014 -0.05505365 0.17320609 -0.023225162 0.22220245 0.11864351 0.39408243 0.5249666 0.37164503 0.3781197 0.38628033 0.44224477 0.35621238 0.3375796 0.7921519 0.629585 0.65515333 0.7452985 0.81613046 0.833935 0.3089162 0.30443707 0.47833058 0.5138261 0.78800917 0.39310706 0.25062928 0.21113625 0.719468 0.6722073 0.5271672 0.3832183 0.14538501 0.0970945 0.5715432 0.74279994 0.13815166 0.091956854 0.09459797 -0.006103711 0.73257685 -0.14940716 0.6889878 0.34981352 0.5303434 0.633479 0.4168958 0.66603434 0.3442595 0.13194935 0.15280181 0.6437143 0.47377557 0.24195014 -0.06361538 -0.11528511 -0.2010757 -0.22168571 -0.35811797 0.5888289 0.42882448 0.45580953 0.27635527 0.10081076 0.015949637 -0.30696124 -0.33340803 0.5135084 0.27834514 0.30166826 0.13701145 0.01569096 -0.22568019 -0.23958014 -0.38148022 0.42325586 0.12930721 -0.31818667 -0.17471373 -0.14850293 -0.17679907 -0.24640995 -0.29633158 -0.35907328 0.29558817 0.10306199 -0.3423499 0.106051445 0.32378218 0.20615093 0.2828372 0.24017107 -0.03355651 -0.015797317 0.023427233 0.3334394 0.01859381 0.022729315 0.53879523 0.22985074 0.022368748 0.61188614 0.56501615 0.4738972 0.30790225 -0.05596425 -0.054447442 0.5530853 0.49699575 0.12511086 -0.02806155 -0.053500634 -0.030898891 0.27301326 0.010289386 0.1075896 0.1234442 -0.021025918 0.028144045 0.28130114 0.3471273 0.44638383 0.5782559 0.4487133 0.5866171 0.5935577 0.37163907 0.3958707 0.3994388 0.44374257 0.4531923 0.40802085 0.3954621 0.49419138 0.45178232 0.45409817 0.4635681 0.4076721 0.49547416 0.664235 0.7392899 0.8030045 0.37321132 0.3828853 0.34732845 0.29584175 0.329135 0.3283197 0.4124536 0.35880482 0.7720227 0.7558668 0.2697037 0.2284689 0.2540389 0.22867355 0.23276517 0.6752563 0.5637368 -0.29597747 0.023639966 0.5630638 0.6059685 0.20844676 0.58312595 -0.24157321 0.46650812 0.5756891 0.6181253 0.5385624 0.5829934 0.6300753 0.23467413 0.5888643 0.38695097 0.34287477 0.47245234 0.32680133 -0.13478741 0.24022715 0.38135245 0.26183358 0.19912064 0.20074694 0.19236824 0.1636541 0.42868057 0.24270877 0.23740253 -0.1312544 0.081460804 0.16148521 0.0059329234 -0.28169358 -0.23820806 -0.06521699 -0.057956867 -0.0029379725 0.1290361 0.010790288 -0.004813455 0.30300424 -0.02698218 -0.045284938 0.5179474 0.30380827 -0.10533211 0.08816327 0.29147565 0.5171326 0.50647825 0.42414123 -0.0018883646 0.2869293 0.40756732 0.3410149 0.45333335 -0.054475524 0.08455186 0.17895834 0.17719853 0.08321278 0.14423364 0.18291113 0.26328775 0.35367927 0.343628 0.53420866 0.47963405 0.59584296 0.59404397 0.50333154 0.6074326 0.6005288 0.47155964 0.42912418 0.4297591 0.46056405 0.46706122 0.5638512 0.5041275 0.42085388 0.40879416 0.4547208 0.39963877 0.44235247 0.48461342 0.50433433 0.45176983 0.38968286 0.37002927 0.41575274 0.36114967 0.334643 0.5940988 0.4296926 0.30395472 0.26069593 0.35697144 0.5238444 0.6817396 0.7182475 0.17765146 0.022100158 -0.0031589642 0.6062161 0.32994175 -0.02698953 0.4803697 0.5337182 0.44636905 0.26035726 0.39353284 0.37759644 -0.028276864 0.10927565 0.07604972 0.4646042 0.2480578 0.23222682 0.12589562 0.47188842 0.29107797 0.20922528 -0.22636387 0.23085937 0.22726265 0.17565243 0.19014265 0.31581038 0.17796218 0.43763644 0.77509344 0.5809848 0.22564094 0.639271 0.8986025 0.9201511 0.8971267 0.5815948 0.524933 0.33290705 0.4100857 0.8141237 0.9219248 0.9811726 0.9283641 0.5480344 0.5060322 0.025483271 0.17838703 0.3137233 0.66386193 0.74696255 0.8860378 0.9442797 0.93696815 -0.24591613 0.7418162 0.8120098 0.8776456 0.9021951 -0.101956196 -0.22325896 0.088443056 0.2414769 0.33255237 0.37572104 0.31634983 0.309275 0.4299148 0.3511222 0.33585668 0.4562301 0.519367 0.010469928 0.5202699 -0.0231909 0.5379523 0.56364983 0.2207486 0.22553295 0.08024053 0.28681296 0.289606 0.23459354 0.11582747 0.29497954 0.30995232 0.5275248 0.40608436 0.36138266 0.5960343 0.49686188 0.47239882 0.61667 0.6248655 0.4552295 0.5055161 0.5286403 0.6283288 0.5977018 0.51611847 0.4506892 0.4157381 0.4554943 0.48732805 0.39872256 0.41441715 0.40955746 0.5280677 0.48976874 0.3771919 0.39749017 0.37811297 0.28947002 0.23236614 0.5352119 0.38526312 0.24172738 0.41057298 0.29839823 0.18737444 -0.05955048 0.5681764 -0.18276322 0.5633826 -0.43577713 0.42086232 0.028003901 -0.3061066 0.35341096 0.37402624 -0.011237621 0.17605126 0.036280643 0.13387664 0.12683329 0.13332476 0.239511 0.23789462 0.14691703 -0.35063115 0.14431638 0.15882894 0.17403762 0.17852344 0.26970756 0.61015564 0.51668346 0.32704517 0.30395603 0.48487222 0.5583664 0.65260744 0.82773554 0.84263873 0.6344303 0.074196965 0.52653253 0.49798596 0.57967126 0.8608676 0.87216073 0.87653434 0.63266873 0.625981 0.3757364 0.8986122 0.8885505 0.61163354 0.5652005 -0.090084 0.058214903 0.559692 0.6138322 0.9111861 0.90202856 0.4986531 0.4404617 -0.299061 -0.2184897 0.5209229 0.6537306 0.73032075 0.7967764 0.8645399 0.061069913 -0.0623533 0.29303554 0.3309847 0.2872318 0.1140427 0.50195223 0.012990829 0.53588957 0.5674718 0.044735182 -0.19426844 0.5241289 0.5541117 0.20415577 0.119005665 0.4578548 0.25990236 -0.14383858 -0.11981544 0.014883205 0.29833594 0.34044603 0.22182293 0.05278173 0.50613755 0.50327784 0.2504388 0.59598535 0.39105272 0.3843667 0.6203166 0.6352736 0.4307212 0.47354817 0.4800389 0.63275576 0.6371556 0.5800979 0.5188879 0.42896724 0.40361583 0.42488462 0.5006377 0.5594723 0.49937916 0.44097537 0.5194148 0.46270084 0.32282352 0.28237322 0.32436538 0.22680512 0.56997657 0.5517324 0.473226 0.3434266 0.1802076 0.18160853 0.5734099 0.5617976 0.14709574 -0.08470066 0.53054845 0.53065354 -0.05241467 -0.078235075 0.101970464 0.20046523 0.3852303 0.11035152 0.28106716 -0.13396315 -0.2877766 0.11606875 -0.44608378 0.06188765 0.17690417 0.21780136 0.21012203 0.09759148 0.18969265 0.19707105 0.18130404 0.21265048 0.1216526 0.16195753 0.22347692 0.08810421 0.08507247 0.054721758 0.26892474 0.100643806 0.03386627 0.23438203 0.09190342 0.21689007 0.5095306 0.5511744 0.57992435 0.48940957 0.3474839 0.23515528 0.45885742 0.4994552 0.5809711 0.6282904 0.8233419 0.649322 0.63502944 -0.123110436 0.3381824 0.8425813 0.86750674 0.66330576 0.8695711 0.5783519 0.54652333 -0.08123748 0.33810848 0.87367827 0.87601066 0.481812 -0.4703411 -0.28134066 0.2442337 0.34791756 0.72399706 0.82207763 0.25223684 0.10738583 -0.44903094 0.4388736 0.47401986 0.5714297 0.6818913 0.108155444 0.015903335 -0.10240652 -0.089835204 0.106244035 0.22781903 0.3644267 0.20165606 0.041885644 0.006528843 0.14319566 0.4968684 0.18055657 0.14867887 0.14567465 0.5003052 -0.10540961 0.0067233546 0.4751519 0.5069865 0.090050176 0.10777048 0.31170893 0.35916847 0.42818642 -0.08468434 -0.015375927 0.15364899 0.2918703 0.42530653 0.47707042 0.35157168 0.2757198 0.22097978 0.531219 0.48656052 0.4075209 0.34545487 0.2860307 0.5954466 0.55383915 0.44710374 0.4197752 0.36785635 0.39901668 0.6216476 0.5709001 0.5051091 0.44043177 0.40444478 0.39828292 0.4110513 0.5776049 0.47163987 0.4389556 0.54019344 0.5273075 0.42236626 0.21775182 0.13263628 0.14315203 0.06706959 0.5676396 0.55928665 0.074077465 0.058119833 0.5686701 -0.07209075 -0.058309592 0.18783087 0.29451123 0.33062035 0.5205014 0.34253907 0.29309192 0.42191875 0.3259554 0.14132525 0.22840165 -0.015249036 -0.39599356 0.13361892 -0.1059109 0.16975719 0.21084087 0.09577019 0.19573402 -0.03113143 0.23636368 0.24774724 0.049837768 0.26910415 0.29173487 -0.019460794 0.3256301 -0.11975948 0.31838518 -0.16268322 0.4723027 0.53176355 0.5205542 0.45394033 0.35759053 0.1712336 0.23711345 0.27089217 0.4036832 0.4539266 0.5619484 0.6925761 0.62511545 0.5701879 0.82582533 0.6408689 0.80698663 0.8472917 0.64496446 0.7765082 0.54551613 0.46955028 0.013907038 0.57396245 0.6376123 0.7863509 0.37292325 0.27578044 -0.3479267 -0.14075537 -0.013399258 0.2160633 0.35193738 0.4610738 0.5213811 0.61998415 0.06294734 -0.21695939 -0.026072454 0.041180506 0.062330067 0.046830803 0.24847287 0.07579401 -0.0965983 0.32052052 0.19796455 0.42172801 0.20563516 0.15465792 0.020192254 0.4414832 0.19681433 0.30765808 0.33775228 0.41608253 0.48432884 0.3990289 0.057984736 0.113282174 0.2898486 0.35819456 0.42053103 0.53304505 0.5212541 0.54161406 0.5245124 0.47830093 0.5081301 0.1851085 0.52544045 0.31144708 0.01882385 0.057680745 0.13601844 0.14183584 0.52531874 -0.014488585 -0.21286044 0.57373095 0.56504446 -0.2637226 -0.15945739 -0.0717065 0.17686306 0.20564117 0.33108044 0.5352627 0.45685336 0.11170663 0.49276644 0.4171564 0.32101893 0.15284501 0.19729903 0.062495768 -0.07322623 -0.035250776 0.07719358 -0.14352515 -0.040890485 0.050489187 0.14717701 0.09715821 0.23581487 0.10894063 0.15233138 0.15407793 0.21195355 -0.22081909 0.28414056 0.04169058 0.3502872 0.32142055 0.01829351 0.27771598 0.27948105 0.4926284 0.44432747 0.34243482 0.14638466 -0.30758265 0.045103833 0.10842566 0.29975754 0.38395244 0.5393032 0.6868249 0.53615594 0.6833372 0.7320882 0.6002845 0.65236074 0.6997134 0.63108474 0.63903296 0.6997565 0.4161238 0.48832834 0.64316 0.3351305 -0.062374055 0.20391642 0.26537922 0.39277625 0.0359229 0.22511972 0.43601495 0.3278603 0.04779306 0.35662517 0.48098058 0.39433718 0.08127748 0.08672731 0.08539549 0.039971177 0.30577976 0.17326503 0.20911956 0.31352252 0.21050142 0.20009351 0.103162915 0.22183119 0.33990672 0.3527931 0.3326013 0.1852235 0.27098507 0.3035402 0.35611147 0.46500492 0.48625767 0.45095676 0.38947213 0.2644333 0.24067158 0.28541481 0.32817453 0.2615599 0.29604334 0.14754729 0.0714583 0.022231616 0.08770725 0.18045437 0.22240625 0.25169417 0.19944033 0.042819493 -0.014629066 0.09678352 0.19225244 0.18385723 0.5512477 0.48317105 0.03518167 0.1705526 0.12879303 0.069965534 0.5998577 -0.10647692 0.30874836 0.57396746 0.115562685 0.49610633 0.4618051 -0.080976196 0.088678114 -0.13072678 -0.292329 0.25324026 -0.04731749 0.011739701 0.2590158 0.06811142 0.22607264 0.114111125 0.12333389 0.062394813 0.16325434 0.11499306 0.05585465 0.29171824 0.3226783 0.22831386 0.24699141 0.1292066 0.19369671 0.24517204 0.3293168 -0.183142 0.074644655 0.15246908 0.47250324 0.39231783 0.2861061 0.5318622 0.593385 0.5305729 0.58458686 0.6199659 0.60402715 0.5912764 0.54915047 0.015020892 0.430897 0.52035743 0.37677515 0.36199117 0.5829988 0.5262929 0.14070448 0.057229217 0.3263752 0.34613216 0.5978714 0.58493656 0.5349752 0.31094262 0.14092812 0.13623379 0.024744336 0.081398964 0.17418094 0.2734989 0.30911416 0.3281935 0.58573925 0.5339664 0.05441791 0.29308993 0.2587518 0.2631151 0.4421717 0.48450157 0.37825742 0.26808703 0.07870662 0.18890207 0.25320792 0.27039143 0.51090676 0.51677805 0.39090595 0.36637402 0.37836298 0.3624161 0.3376548 0.3163752 0.35461777 0.2356527 0.10386928 0.10578649 0.17449357 0.27751023 0.26688907 0.03940238 0.048069306 0.29121894 0.21131352 0.20585577 0.15917704 0.14740527 0.20492451 0.18085949 0.16148317 0.48941615 0.49655992 0.18350367 0.19438589 0.4841379 0.106398 0.44403577 -0.15554999 0.11138363 0.45201302 0.40824348 -0.06686703 0.022870276 0.25564045 -0.021931805 0.0068988074 -0.13621941 0.034390442 0.21094662 0.02053707 0.22061646 0.11416447 0.17071295 0.1204078 0.04762723 0.16005768 0.13978557 0.16624692 -0.2937812 0.22027487 0.2751692 0.24031052 0.2007171 0.29158935 0.16351373 0.12669861 0.06554439 0.026457993 0.019306906 -0.09593271 0.10172622 -0.41556716 -0.053078666 0.107739404 0.5541428 0.3415116 0.1517309 0.49374583 0.041491285 0.57982504 0.50456154 0.27087396 0.10202114 0.6484885 0.607985 -0.067888185 0.018636197 -0.06299868 -0.12155249 0.1135748 -0.22967267 0.27064493 0.36640337 0.59448254 0.60086364 0.29589203 0.07910599 0.059444852 0.0087740645 0.09205344 0.11374006 0.05569294 0.06109696 0.21663713 0.11613823 -0.09566992 0.17546624 0.29557246 0.3488152 0.58348554 0.58596087 0.5358443 0.3779279 0.29259807 0.40536928 0.3083208 0.072196454 0.43323058 0.48612815 0.5237329 0.52828944 0.47290975 0.42869255 0.50527215 0.47689077 0.5355941 0.64542425 0.70653856 0.57996994 0.664593 0.52108276 0.35854894 0.39947003 0.40463933 0.090372376 0.025201298 0.38442826 0.3945934 0.33214492 0.20340905 0.32996318 0.009148747 0.07525216 0.13758917 0.110457435 0.20946918 0.122092925 0.14569138 0.16325775 0.1581866 0.16112027 0.17469105 0.024687272