# vtk DataFile Version 2.0
Really cool data
ASCII
DATASET POLYDATA
POINTS 3261 float
23.209751 35.22922 2.2729044
23.168684 35.83577 1.221979
22.931032 35.727272 1.7463531
22.833332 35.867085 2.339054
23.009985 35.90572 3.105327
23.410793 36.083332 3.9802904
23.125336 36.520042 1.1511669
22.785666 36.479824 1.6625762
22.704844 36.50806 2.3272102
22.961733 36.512325 3.2328653
23.309942 36.583557 3.9181376
23.216776 37.316063 1.2293491
22.942993 37.25985 1.6693232
22.914238 37.429276 2.4183543
23.077581 37.35858 3.232816
23.298615 37.024784 3.9730716
23.269657 38.05116 1.7303405
23.206734 38.043785 2.485485
23.329302 37.881527 3.316241
24.49265 31.7787 4.262671
24.45391 32.125565 4.827777
23.360537 35.291706 1.8146962
23.404654 35.19741 2.29356
23.43792 35.79721 1.0640748
23.314106 35.53478 1.344146
23.831226 35.75839 4.4000874
24.161236 35.90698 4.929643
23.499088 36.410484 0.91711664
23.579365 36.580593 4.3995557
24.122595 36.44988 5.006492
23.664183 37.443424 0.9482751
23.665129 37.511967 4.3463244
24.098957 37.246597 5.0062823
23.723963 38.143253 1.1588304
23.523088 38.362415 1.6549258
23.49638 38.471443 2.4523084
23.614553 38.257545 3.2898896
23.99087 38.02082 4.3614993
24.220171 38.051487 4.7994137
23.968874 38.866108 1.8699431
23.903744 38.834106 2.2594883
23.874327 38.64909 3.0269744
25.231155 30.167343 3.5508816
25.185324 30.037268 4.7965574
25.124086 30.15484 5.4155893
25.209139 30.8746 2.087914
25.164162 30.690727 2.5760508
25.036182 30.427933 3.5478814
24.81961 30.594908 4.626277
24.779718 30.754602 5.428557
25.066236 30.723204 6.165406
25.240252 31.382195 1.7248255
24.861393 31.541536 2.8681962
24.676716 31.62973 3.6517234
24.561493 31.542667 4.53149
24.585714 31.434978 5.4441934
24.891876 31.64755 6.2542033
25.21014 31.529972 6.7824874
25.1759 32.15895 1.9356332
24.598717 32.85951 3.6582258
24.650026 32.407166 4.2922955
24.659428 32.291916 5.508351
25.075905 32.46287 6.410129
25.274488 32.099087 6.680341
24.954388 34.167255 2.6505737
24.742191 33.47956 3.3546145
24.79786 33.43406 4.9555573
24.405338 35.3479 1.4266493
24.514303 34.358116 3.7601366
24.486425 34.84507 4.6718774
24.828442 34.985157 5.012155
25.252062 35.53144 5.282351
25.129465 35.97317 5.6677947
24.493368 36.80856 0.62636244
24.362593 36.188877 5.085627
25.03116 36.838898 5.55608
24.453438 37.350338 0.7085707
24.48406 37.42729 5.2607837
24.49526 38.292946 0.91396606
24.358852 38.542927 3.8458207
24.453367 38.357178 4.4236712
24.56379 38.17167 4.9217234
24.782711 38.776722 1.2274011
24.378355 38.935764 1.6273857
24.879642 39.06708 2.670075
24.602285 38.663975 3.582662
25.9854 29.34656 4.753601
26.21552 29.170761 6.2095485
25.711855 30.125408 2.1435256
25.809036 29.796787 2.5875683
25.717453 29.726152 3.428575
25.520313 29.62732 4.9560423
25.613008 29.64088 5.174142
25.66351 29.766508 5.9602785
26.138538 30.079542 7.5649934
26.442675 29.656122 8.060504
25.93879 30.965227 1.2249123
25.76403 30.451 1.725789
25.766453 30.512854 7.061657
26.367628 30.630486 8.415893
26.047544 31.715492 0.94809914
25.475676 31.727419 1.4120079
25.46106 31.604105 6.938482
26.094826 32.414963 0.83876693
25.537455 32.155365 1.4692274
25.435358 32.335693 6.7694697
26.361917 32.046597 7.854159
25.555777 34.05395 1.837907
26.309307 33.537678 7.0276957
26.431274 34.679775 -3.15707
26.410336 34.76116 -2.785968
26.370995 34.54749 -0.49263453
26.370485 35.004486 -2.0297785
26.217005 35.730217 -0.33104807
25.680794 35.621468 0.5899816
25.910133 35.242683 5.991625
26.345251 35.91961 -0.47208965
25.797277 37.228466 5.8378353
24.971365 38.56508 1.0382181
25.460299 38.240498 5.242717
24.929174 38.71847 1.1060097
25.131147 38.90725 1.6246887
26.996874 28.331722 5.713775
27.184317 28.249464 6.0649056
27.041733 29.002434 2.6454442
26.65666 28.750254 5.7793846
26.862436 28.54994 6.267923
26.893688 28.796064 7.2589025
27.016542 29.046516 8.337538
26.793795 29.75202 1.7260995
26.472597 29.530647 7.7078123
26.661404 29.552324 8.401084
26.922268 29.843817 9.178007
27.444666 30.034288 11.435354
27.263933 30.010773 12.818497
27.190283 29.912586 13.633793
27.256716 29.624477 14.683377
27.14118 29.996088 15.143966
26.769209 30.825897 1.0326374
26.909317 30.508924 9.329066
27.210468 30.624508 9.982245
27.280298 30.463123 11.716887
27.144276 30.60034 12.8021
26.866844 30.470959 13.796814
26.821602 30.563934 14.478951
26.917103 30.427086 14.977165
27.313116 30.583618 15.843107
27.135916 32.16282 0.036102653
26.460478 31.591793 8.262079
27.058222 31.627382 8.930273
26.914503 31.397713 13.628764
26.838501 31.27987 14.446179
26.975695 31.220379 15.159824
26.897112 32.450073 0.08372609
26.540758 32.383064 0.6056297
26.935366 32.41016 8.195309
27.275139 32.170372 8.832119
26.99134 32.056847 13.975863
27.106222 32.624905 14.514443
27.20201 32.557312 15.415421
27.127935 33.854733 -3.8322453
26.9247 33.898453 -3.4061577
26.86027 33.73641 -2.4236822
26.859936 33.49312 -1.5977157
26.606237 33.487244 -0.3474705
26.475355 32.906784 7.526659
26.975641 33.882706 7.8097544
27.35036 33.604397 13.546456
27.342846 33.398174 14.887778
27.315502 33.32077 14.903469
26.986336 34.53389 -3.9907372
26.672232 34.453762 -3.4544702
26.550262 34.531197 -1.9242667
26.54447 34.23355 6.7506466
26.79032 34.788586 7.20019
27.451927 34.270863 14.313435
26.91954 35.278687 -3.8080883
26.722721 35.38855 -3.3894129
27.18666 35.48766 7.7232513
27.231577 35.792793 -3.8379524
27.207037 36.141045 -3.2603662
26.796371 35.84295 -2.277081
26.706623 36.242233 -0.6167395
26.508547 36.201286 6.499543
27.07512 36.393463 7.406065
26.701773 37.285465 6.4985075
26.855145 37.20817 7.2075143
27.205238 38.042248 8.185279
27.191383 38.222393 9.1190405
26.52156 37.843166 1.3328775
26.843077 38.21381 6.2824063
26.955416 38.62897 8.4036665
26.914246 38.991493 9.58877
27.146961 38.959316 10.434287
27.071693 39.224255 2.457862
27.076273 39.53715 3.5793083
26.2843 39.0792 4.4343777
26.892483 39.110306 7.430305
26.847784 39.596703 8.759983
26.855017 39.549377 9.476269
27.053785 39.778866 10.488684
27.271172 39.514317 10.911987
27.242895 40.974335 3.732651
27.38325 40.017155 4.2577934
27.220264 40.280014 7.8324285
27.061537 40.34264 8.536453
26.941366 40.543842 9.59431
27.049381 40.582336 10.330109
27.260462 40.460674 10.818995
27.028072 41.547283 3.6313505
27.122347 41.29039 5.26317
27.209774 40.98255 8.982739
27.19152 41.110096 9.81648
27.257257 41.07386 10.363623
27.1982 42.77571 3.112238
26.964022 42.421425 3.767485
26.866455 42.343197 4.482484
26.951517 42.59753 5.066415
27.0805 43.55586 3.6060853
26.958694 43.315334 4.4990997
27.1141 43.380913 5.085882
27.290184 44.471085 3.6325557
27.091932 44.26664 4.5012155
27.266235 44.31975 4.96707
27.343336 44.827072 4.336893
28.293604 27.272724 5.3733163
27.969706 28.147587 3.108771
27.715513 28.087847 3.8141146
27.969543 27.779894 4.5714374
27.802202 27.838697 5.645109
27.97357 27.804024 6.240508
27.476297 28.276768 7.181542
27.828228 28.351334 8.0703
27.65727 29.11769 2.0224764
27.505949 28.752043 2.6091528
27.423616 28.505573 7.5012183
27.659811 28.579508 7.906095
27.72854 28.792028 9.042643
28.127632 28.9736 11.500993
27.970938 28.93231 12.546755
27.842987 28.905327 13.527326
27.86381 28.881939 14.50767
28.052511 29.03607 15.202873
27.497816 30.028425 1.2688816
27.62387 29.630796 1.5671768
27.669865 29.81136 10.430898
27.582016 29.626282 11.603156
27.5053 29.46609 12.658454
27.495628 29.430056 13.404881
27.589766 29.494562 15.284589
27.960068 29.831793 16.128336
27.478466 30.594584 0.8369058
27.687822 30.277971 16.124636
28.151993 30.780289 16.674911
27.978222 32.357243 -0.9497168
27.290094 31.209608 0.5768979
27.621328 31.462793 10.01351
27.547794 31.008142 11.288305
27.770456 31.37783 16.39832
28.314857 32.01538 17.199291
27.931496 32.97628 -3.1562924
27.74812 32.874626 -2.5165179
27.34463 32.40024 -0.13617691
27.760593 32.251312 9.358485
27.762854 31.89975 11.933252
27.79597 32.319645 16.56938
28.172203 32.495388 16.967516
28.279243 33.85741 -5.037932
27.626911 33.763622 -4.2495203
28.242237 32.97988 9.206375
28.277119 33.32287 11.626567
27.467712 33.44562 12.769844
27.68937 33.4785 15.495937
27.726519 33.31992 16.274994
28.125526 33.634594 16.823622
27.97682 34.218212 -4.740101
27.38961 34.805164 7.9716206
28.193739 34.107418 12.206114
28.026287 34.657825 12.563931
27.485645 34.193134 13.731936
27.617544 34.33364 14.298716
27.700146 34.452038 15.21104
28.027634 34.22018 16.19657
27.442469 35.212944 -4.3524265
27.895237 35.343536 13.884102
27.954746 35.464046 14.546831
28.109035 35.343204 15.461212
28.338432 35.37091 16.065226
27.358873 36.05269 -3.7770002
27.52524 36.371788 -3.0869074
27.54831 36.44856 -2.6910272
27.791586 37.288433 8.74745
28.254187 37.254112 8.805361
28.186798 35.82751 13.613817
28.242323 35.985065 14.464204
27.748112 36.96344 -1.0715277
28.1634 37.424538 -0.13992885
27.474539 37.578594 8.545832
27.461885 37.94397 9.032756
27.59003 38.236015 10.630586
27.48537 38.23124 1.3826472
27.463936 38.4167 10.572235
27.600082 38.789616 11.14998
28.068573 38.772408 11.601938
28.38996 39.739773 -8.019252
28.328917 39.673653 -7.5657787
28.387978 39.881287 -6.934329
27.408484 39.530678 11.116297
27.980934 39.561855 11.580053
28.386723 40.13231 -8.021842
28.336119 40.313892 -7.4402213
28.429308 40.400707 -6.757643
27.729315 40.95606 2.8104584
27.455393 41.000973 5.744188
27.704617 40.518013 11.186414
27.907888 41.391678 7.711446
27.691942 41.18991 8.468803
27.465559 41.42429 9.849776
27.660347 41.45232 10.452026
27.74265 41.12564 10.954594
28.284883 42.799587 1.856771
27.849691 42.14459 6.1601343
27.91959 41.740604 9.720496
28.016386 41.690918 10.412286
27.659744 43.687542 2.5491412
27.447239 43.826385 5.3769894
27.779633 43.295223 5.7970552
28.208233 44.306023 1.916739
27.69278 44.429058 2.8289948
27.484112 44.704727 3.2920763
27.474167 44.537594 5.162712
27.867657 44.133762 5.67976
28.098274 45.297554 2.7319405
27.75892 45.24334 3.6374884
27.658154 45.1644 4.4160056
27.625908 44.907803 4.945295
28.441332 46.01734 2.8600602
29.359934 24.985981 -3.1653237
29.283007 24.786205 -2.5589385
[...]
POINT_DATA 3261
SCALARS features_00 float 1
LOOKUP_TABLE default
0.6412256 0.730786 0.73516774 0.7543014 0.6566819 0.4782209 0.7907381 0.8106624 0.8166182 0.6753724 0.539758 0.8294144 0.84539294 0.78661084 0.6549356 0.5553449 0.8017611 0.72962666 0.6185632 0.37929058 0.3843736 0.64685076 0.6038623 0.6886635 0.68459207 0.37981904 0.35491532 0.7361155 0.47955412 0.40047434 0.79211557 0.5311724 0.46331078 0.79291683 0.7881586 0.714223 0.6066022 0.52329564 0.49065447 0.75013477 0.72256327 0.6254058 0.40739816 0.38308716 0.39204133 0.42695907 0.43935204 0.41987297 0.42963588 0.46331525 0.4307865 0.3843283 0.39593503 0.37241393 0.41756454 0.47537637 0.41759312 0.32460797 0.31769636 0.24420488 0.31816125 0.40498 0.27719426 0.2581985 0.16480175 0.20184615 0.20539935 0.43733415 0.23897454 0.2607439 0.23368242 0.22303173 0.22606711 0.6169046 0.35722983 0.31041068 0.6950682 0.4321174 0.72746027 0.5082059 0.4778735 0.45837444 0.69070417 0.73207694 0.6166103 0.5007162 0.2637057 0.22923198 0.41803396 0.4001249 0.3609048 0.325817 0.3169978 0.3106774 0.30535033 0.29389971 0.3366431 0.40092602 0.32857826 0.28510526 0.2643438 0.32910392 0.27357796 0.18699242 0.27968836 0.18788472 0.10040168 0.10113332 -0.00671413 0.5642063 0.5466938 0.17393386 0.45568925 0.1961244 0.062238097 0.021466084 0.23261115 0.18227056 0.64404464 0.3545968 0.65936327 0.5963701 0.1472317 0.13803665 0.25301418 0.17695707 0.1661304 0.2351987 0.27321073 0.31203085 0.2866927 0.29145104 0.29158452 0.20472512 0.33790907 0.42121527 0.49682266 0.5221334 0.26902103 0.25108358 0.1670819 0.22221805 0.3310301 0.43558487 0.4847592 0.5165676 0.5223733 0.0930575 0.17796604 0.18100056 0.39133966 0.44934773 0.4910553 0.10045285 0.15764555 0.05808405 0.12945922 0.3695805 0.34741655 0.3844015 0.49896187 0.5141393 0.46256182 0.29212743 0.048427474 0.0010358337 -0.046293236 0.34855634 0.33073553 0.33175784 0.5468012 0.55885184 0.43367857 -0.03193998 -0.026816156 0.3450697 0.5522169 0.5545217 0.028072678 0.50442725 0.46334213 0.46161395 0.2746693 -0.024085287 -0.09556554 -0.03733419 -0.107565105 0.22030985 0.41558617 0.1395767 -0.056393094 0.34630415 0.5252482 0.5965267 0.032285385 -0.014805719 0.17321157 0.22431129 0.51103175 0.5737369 0.6681273 0.68675554 0.21757498 0.039283633 0.39356858 0.50783145 0.62463456 0.6916826 0.721015 0.31475455 0.3432768 0.54911417 0.63312423 0.6877463 0.4065437 0.43006995 0.44691193 0.46479413 0.48602575 0.5109566 0.48534584 0.46468222 0.51212573 0.50021446 0.4963597 0.14303671 0.1511966 0.17069465 0.15293975 0.1243063 0.108590126 0.17372584 0.17944866 0.21089602 0.20614094 0.21125734 0.21290976 0.23269692 0.2422094 0.32974887 0.40122128 0.45165026 0.46971518 0.23089775 0.22378793 0.11776219 0.2418636 0.32983136 0.3971318 0.5064219 0.49195468 0.20180109 0.5036192 0.42723393 0.05046307 0.17366666 0.13922277 0.10729882 0.45034894 0.38657784 0.40244365 0.3672318 0.05988718 0.145887 0.2610136 0.420017 0.4004476 0.3876753 0.449576 0.0451177 0.28393713 0.38707247 0.35458067 0.40700513 0.42554235 0.44528127 0.03234777 0.34549442 0.41532847 0.36742198 0.35146588 0.35122466 0.40873325 0.5234327 0.40256268 0.38646615 0.39451003 0.43051118 0.46407303 0.37466848 0.33680108 0.2600692 0.27942783 0.41341364 0.400068 0.17969227 -0.10690966 0.25547925 0.39302003 0.58520114 -0.1316916 0.5795037 0.6900371 0.7318355 0.7923691 0.7624305 0.7314523 0.7046742 0.7290479 0.7977122 0.7752553 0.747162 0.16438842 0.25931597 0.7325095 0.28696856 0.48190546 0.6215829 0.673806 0.7167709 0.20178306 0.33230916 0.58233297 0.6483989 0.35312396 0.4645778 0.41553116 0.2525199 0.36798644 0.41612777 0.4810308 0.42126322 0.32349238 0.41961604 0.47415638 0.4774887 0.2998469 0.56692624 0.5929551 0.57326823 0.55506027 0.5782145 0.21456817 0.23766944 0.5261754 0.54224354 0.16461915 0.19365138 0.11619954 0.10692051 0.075947665 0.29076213 0.35228366 0.3609891 0.09939509 0.080683656 0.320805 0.40563822 0.46961725 0.12531471 0.46045524 0.06400393 0.007383 0.4060346 0.3745931 0.36700118 0.43479422 0.40579325 0.37708813 0.34207684 0.29834363 0.4003591 0.39319104 0.4937933 0.48305064 0.45987755 0.36259672 -0.01523689 0.16197103 0.4190244 0.42837912 0.49818587 0.52122897 0.50458395 0.43929458 0.43909723 0.43685132 0.4544353 0.0035324395 -0.09845702 0.38522816 0.43369222 0.4384253 0.20406692 0.25455993 0.3365779 0.41483012 0.4037454 0.4228742 0.4279458 0.425698 0.029616999 0.07745546 0.75247514 0.40534493 0.41270578 0.40393877 0.7981663 0.73562133 0.6895175 -0.32470417 0.72765845 0.8197992 0.8118005 0.74618304 0.6936784 0.63411474 0.721465 0.8114648 0.81151915 0.793741 0.7261424 0.6752683 -0.007603526 0.71778965 0.80196095 0.80023915 0.77547574 0.054887053 0.7005662 0.45215556 0.50805116 0.5149555 0.4947394 0.12842806 0.3087318 0.46015474 0.50623655 0.5940919 0.5081091 0.52459276 0.53303075 0.52783144 0.47740698 0.029778138 0.32400784 0.52443427 0.5280082 0.52171063 0.4977851 0.2234349 0.34872943 0.5091824 0.5054506 0.4811321 0.20665246 0.34087527 0.1325129 0.255681 0.31420654 0.37468922 0.4552601 0.4467966 0.5420257 0.57740825 0.57609653 0.58136314 0.6064345 0.615455 0.5663821 0.5864307 0.51772153 0.5572684 0.5057428 0.53174305 0.5061092 0.49651146 0.55186826 0.5741924 0.49014115 0.38189697 0.31750172 0.32994878 0.47951305 0.5224587 0.4617589 0.40233514 0.2585637 0.21971416 0.26647848 0.32840654 0.33260247 0.43703628 0.4780301 0.4798465 0.3211395 0.19112739 0.23329608 0.18742053 0.4116391 0.3882466 0.43329537 0.36284602 0.16806921 -0.18596272 -0.063256405 0.1270813 0.18493648 0.23384346 0.21664065 0.27719796 0.24646288 0.2872694 0.3083116 -0.19578406 0.3881871 -0.16710734 -0.122662604 0.34022313 0.3188126 0.32199064 0.14963692 0.3417896 0.3439327 0.40226793 0.36771655 0.30100033 0.3877628 0.45097524 0.44989324 -0.27328378 0.15753391 0.4247767 0.4560482 0.43472564 0.48194593 0.3301873 0.3533473 0.4043182 0.26299098 0.21736413 0.06305879 0.18276742 0.45446914 0.41208795 0.3778907 0.3597997 0.7192998 0.64742625 -0.10414992 -0.043639973 0.5404214 0.38914555 0.39511916 0.37689686 0.78619385 0.5826403 -0.13188328 -0.179232 0.69588125 0.7743454 0.5020139 -0.05272584 -0.34320563 0.65757644 0.7098989 0.76641464 -0.05327267 0.64756894 0.7214206 0.74782026 0.74742377 0.61330163 0.72483623 0.70338655 0.36462283 -0.013755529 -0.08047657 0.4621302 0.48375267 0.27061617 0.113973916 0.4961244 0.50815487 -0.12416765 0.16156329 0.4610396 0.45153278 0.4465282 0.11500509 0.060220577 0.123958 0.20480278 0.22408774 0.007955955 0.106234394 0.4953169 0.47553122 0.4726237 0.5891305 0.52279913 0.5546664 0.59103644 0.61523294 0.60401267 0.54896 0.5791317 0.59336334 0.590474 0.5193606 0.57461506 0.5882336 0.5866452 0.5001588 0.57721865 0.59831667 0.597857 0.32350382 0.3217342 0.37925887 0.5490101 0.5867027 0.2977411 0.31877568 0.3098037 0.31007522 0.4459008 0.28572896 0.29108614 0.29693118 0.26351744 0.17612357 0.23569086 0.31831032 0.3307711 0.47581637 0.18162599 0.25300565 0.3399167 0.45863017 0.46464196 0.37386626 -0.25723526 0.0894197 0.27986684 0.23921491 0.10985482 0.2097448 0.3527102 0.026129752 0.01717896 0.122208685 0.24923901 0.31352863 0.27286103 0.33800393 0.32762206 0.269687 0.18167603 0.13227837 0.12769184 0.1496942 -0.1558405 0.15347539 0.335216 0.312556 0.2655181 -0.26506913 0.1817238 0.1719513 -0.0023275432 0.25687402 0.08418337 0.24915355 0.40827382 0.32711706 0.39730543 -0.010131419 0.32171053 0.688971 0.42361248 -0.1480907 -0.26932988 -0.21076676 0.34562206 0.33869582 0.61556077 0.394795 -0.15752941 0.32586634 0.3574891 0.63785094 0.61802244 -0.093335584 -0.060843766 -0.059206616 0.6487198 0.59020245 -0.12687302 0.30990395 0.4023985 0.4878452 0.33187133 0.4053507 0.43398327 0.11681437 0.37985057 0.4376939 0.45122856 0.46075183 0.21007189 0.3469025 0.40256816 0.43831176 0.4299094 0.33881402 0.14129196 0.21236253 0.26529977 0.31023562 0.3705597 0.1815683 0.09280935 -0.041556224 0.11169274 0.2143327 0.22852364 0.31040186 0.50468284 0.43584907 0.5624721 0.43363708 0.48372328 0.5162322 0.5559072 0.5554805 0.5452848 0.40930143 0.42376852 0.4656073 0.49795452 0.29016215 0.27181506 0.542796 0.56295526 0.52769613 0.1941843 0.20920835 0.53575695 0.4977651 0.11551267 0.12900531 0.13767254 0.47247583 0.10763058 0.21354401 0.24801598 0.27012134 0.45721072 0.41051498 0.385066 0.12148987 0.18316922 0.31824213 0.32481018 0.48990983 0.48612833 0.46903265 0.43712625 -0.1184873 0.30624047 0.25850886 0.091032274 0.49298573 0.48644888 0.4071201 0.16236952 0.09770633 0.26576436 0.41845083 0.516024 0.40337032 0.4507746 0.36658686 0.25132775 0.5186899 0.26285696 0.2468313 0.38351598 0.48447546 0.37462288 0.10884685 -0.09035514 -0.1281398 0.23183209 0.3529253 0.35176843 -0.1908325 0.25025952 0.3036891 0.2989355 -0.37498462 0.03469564 -0.051811516 0.2603514 0.13056588 0.27037835 0.37465924 0.026544625 0.23410997 0.36166126 0.3749836 -0.1542402 0.3784079 0.40916377 0.53867614 0.3135857 0.35699555 0.5459686 0.5149338 0.16382061 0.2664979 0.5332088 0.39046735 0.41907167 0.5241916 0.44128966 0.43587303 0.449059 0.31343523 0.16477175 0.4611519 0.46185774 0.21089569 0.45927078 0.48253483 0.29730693 0.4310394 0.4754995 0.48609582 0.32801652 0.33625612 0.3723387 0.41170204 0.45051694 0.46557 0.32255805 0.070043914 0.14421248 0.06432149 0.2271293 0.31321567 0.3311746 0.4398321 0.44961813 0.0036314055 0.12170157 0.4038142 0.34185576 0.48709637 0.37187588 0.5006595 0.49130046 0.33333117 0.35446525 0.36466357 0.39662427 0.37150282 0.40558934 0.4234169 0.31904104 0.30459166 0.3381548 0.3338679 0.37864828 0.42249873 0.4227053 0.45567188 0.44033387 0.14062253 0.2506274 0.45535037 0.045990065 0.14361915 0.37998727 0.17554647 0.22882664 0.27405497 0.16460173 0.37302554 0.029705465 0.2048875 0.21369258 0.3562308 0.39874 0.38084877 0.24669123 0.2758798 0.28489977 0.2830298 0.4534822 0.31224 0.24415767 0.235432 0.1866673 0.25548276 0.4675556 0.5015478 0.5388322 0.5704929 0.46421304 0.07123003 0.542833 0.5771443 0.38769227 0.580694 0.5220162 0.38383532 0.44648677 0.32869273 0.32981005 0.26499248 0.10116611 0.07823962 0.20040065 -0.014342802 0.43025002 0.31003565 0.08956964 0.34782583 0.49190092 0.45968366 0.4557015 0.35049105 0.47153723 0.4098227 0.44964695 0.44264674 0.38920832 0.45585334 0.30615497 0.39030233 0.39984557 0.4051553 0.33814514 0.35157603 0.43772662 0.3590207 0.3194489 0.15169004 0.449323 0.07208061 0.48088205 0.4350456 0.17511684 0.4935567 0.49418908 0.21205492 0.47007346 0.48345417 0.49357122 0.18177995 -0.49414232 0.20265004 0.45569646 0.481672 0.4811205 0.101526625 -0.09023997 -0.16084453 0.24074298 0.38176417 0.2881959 0.38144287 0.312834 0.2726377 0.31197065 0.33907545 0.2836681 0.28746274 0.30997902 0.39671654 0.24803519 0.32913178 0.3982811 0.42584366 0.38421094 0.324714 0.19477871 0.27638584 0.2714565 0.3095004 0.347175 0.13065322 0.09240845 0.015029103 0.21973804 0.28631586 0.28844872 0.3530227 0.13904087 0.21196704 0.31068486 0.31910917 0.29588673 0.3132125 0.5504583 0.5624815 0.56969976 0.3309125 0.54547083 0.5683393 0.58459437 0.3350141 0.6321943 0.33906275 0.6725132 0.5997212 0.27227187 0.49992698 0.3055349 0.3675976 0.17604119 0.10571304 0.27500844 0.23040804 0.4929222 0.44004294 0.44470897 0.519314 0.5220059 0.48801613 0.51209044 0.5457483 0.5356516 0.5160663 0.503942 0.5234082 0.51752853 0.24574551 0.3966037 0.46653378 0.08238335 0.22811565 0.32974416 0.07923984 0.29299188 0.30879954 0.18270639 0.3668276 -0.101718605 0.4071775 0.4123384 0.12114098 0.46950915 0.4736411 0.47449672 0.48473412 -0.18924648 0.16287327 0.25925303 0.38968042 0.46462855 0.4681846 0.48652908 -0.00500843 0.44127303 0.37152368 0.07344878 0.09558694 0.51655346 0.35347286 0.33118725 0.18700825 0.5256723 0.4776139 0.24808991 0.35874033 0.25323406 0.40876105 0.3894615 0.26591498 0.27181315 0.29579654 0.38730314 0.40848744 0.41366917 0.13552865 0.3979767 0.33724672 0.28551254 0.18743679 0.0027874773 0.11944375 0.06164634 0.19490059 0.1012017 0.04324663 -0.025206065 0.23964112 0.15977898 0.2230097 0.39500082 0.44315478 0.38577017 0.35242873 0.30044228 0.14700402 0.35476914 0.36412182 0.4276355 0.43027124 0.4039162 0.36831868 0.3911265 0.41553956 0.37463108 0.07615639 0.3220624 0.3073938 0.4162991 0.50478387 0.56509936 0.59766304 0.59683466 0.34083486 0.103560716 0.28901523 0.60399705 0.6198639 0.31824565 0.055032045 0.6998882 0.7081423 0.0634715 0.6143805 -0.15355638 0.34447312 0.4793746 0.11629103 0.0012359396 0.19988635 0.14870259 -0.08340657 0.36823177 0.22826995 0.48212874 0.5029218 0.540941 0.53811395 0.5302365 0.5369868 0.54047227 0.5152606 0.4930959 0.44171083 0.5124908 0.4477622 0.37144145 -0.10063341 0.38849133 -0.012893234 0.23454303 0.10700816 0.09997362 0.13696374 0.23888949 0.16951886 0.24309315 0.2819307 0.30443683 -0.16518916 0.3210506 0.35077795 0.40563616 -0.13959187 0.26810357 0.31735146 0.39717352 0.44020817 -0.012255408 -0.61008435 -0.180919 0.041880228 0.07929212 0.13381642 0.41473332 0.22996353 -0.06283647 0.48871458 0.06464167 0.5560998 0.5498247 0.5182943 0.32462758 0.49658084 0.3790682 0.33860385 0.40097454 0.37195468 0.30036002 0.28809196 0.32575542 0.3912653 0.42865175 0.42987746 0.1341043 0.011945605 0.068661906 0.29355416 0.14458957 0.22410075 0.07587795 0.13801873 0.25286382 0.17777914 0.042793002 0.13007607 0.10058269 0.44670016 0.5123176 0.5280726 0.52376556 0.38279364 0.48941422 0.45351622 0.43739432 0.41679692 0.39735132 0.44794253 0.43157047 0.32883483 0.31016195 0.44572344 0.5362791 0.5727829 0.6069318 0.43993247 0.2928942 0.62508714 0.6430249 0.6539431 0.3808068 0.28905368 0.71461976 0.14637253 0.68443024 0.47216097 0.59716773 0.4047495 0.2596032 0.12668636 0.030733202 0.39295548 0.40445736 0.45803064 0.30735433 0.50998515 0.45991826 0.114361584 -0.087291494 -0.101798564 0.5189914 0.50676453 0.021938927 0.3728177 0.1482933 0.4405271 0.50603366 0.4489879 0.5259942 0.49173194 0.45019627 0.50892884 0.47720355 0.46956438 0.3317745 0.37166733 0.4881084 0.43072236 0.37692386 -0.2877273 0.21616477 -0.17724854 0.09678363 -0.12328477 0.08493354 0.13226792 0.79003334 0.50909585 0.18852888 0.8037839 0.6418408 0.48358214 -0.08850427 0.16751094 0.19369507 0.7841927 0.6992241 0.34230864 -0.066855125 -0.074526936 -0.009443343 -0.35890564 -0.08857702 0.16476193 0.54437166 0.58081776 0.12566389 0.54840994 0.50245297 0.4661478 0.42761868 0.37828732 0.41893208 0.3918637 0.3447076 0.29752713 0.34331757 0.4228495 0.4393501 0.43261716 0.21618535 0.2145938 0.23445754 0.3231085 0.2735365 0.1678837 0.06139926 0.22708835 0.34377432 0.25887296 0.044472143 0.26366246 0.33099973 0.10478651 0.5109215 0.5364735 0.5251678 0.5044966 0.4146165 0.33959794 0.3463934 0.46077657 0.407147 0.46331614 0.37983298 0.40167308 0.47113907 0.4724595 0.2723891 -0.0009877086 0.5479063 0.5686574 0.60080737 0.4556103 0.44811365 0.21554065 0.24376598 0.38541928 0.4800979 0.57573396 0.6308744 0.66750705 0.43347493 0.69346315 0.6130247 0.6492082 0.25858843 0.53451884 0.36606315 0.3965395 0.43623054 0.49948692 0.53276986 0.5221466 -0.12910065 0.49143112 0.40227652 0.2840329 0.31000268 0.33400634 0.4404912 0.36544746 0.45887884 0.49071598 0.42870098 0.4418704 0.47274452 0.45420986 0.42718312 0.33714744 0.40151978 0.43582058 0.30317724 -0.16145995 0.1452789 -0.21758613 0.1871331 0.7433616 0.3972388 0.19006106 0.83031404 0.8126807 0.24234864 0.19463396 0.846486 0.82951343 0.8504772 0.8224612 0.5263367 0.44776967 -0.0908016 0.80656636 0.7416171 0.6909395 -0.022613838 -0.024726793 0.7616992 0.72538966 0.68378985 0.09946887 -0.00896579 0.07228121 0.47134286 0.05974686 0.0936421 0.4476581 0.15029949 0.12718451 0.48750383 0.4311539 0.3032774 0.4256829 0.4190274 0.39421916 0.41414946 0.3942042 0.36436117 0.31153607 0.35122925 0.48690945 0.47239578 0.49042118 0.50927067 0.18849736 0.27917612 0.3104436 0.31456488 0.26237693 0.05903378 0.49186048 0.4087182 0.36042404 0.122772396 0.2200572 0.36022818 0.36986288 0.4897461 0.32747966 0.3688053 0.17814818 0.42361504 0.45188987 0.4647243 0.43442103 0.36624599 -0.05123309 0.30113184 0.39357537 0.41358954 0.40467173 0.4895296 0.3390361 0.31512868 0.48184657 0.43985042 0.12003116 -0.09464535 0.5367023 0.5918424 0.42948943 0.3384964 -0.1276597 0.15133238 0.24737686 0.5133754 0.6239707 0.6694697 0.33856386 0.14498475 0.39375928 0.53851753 0.61766887 0.6347269 0.11483817 0.56730837 0.21627891 -0.28588623 -0.120037526 0.43954036 -0.10581267 -0.0007333085 0.52418065 0.5301502 -0.01570189 0.51907825 0.51630473 -0.037688337 0.43781286 -0.06719554 0.263313 0.2591978 0.3233045 0.29943198 0.3386618 0.43595126 0.3333248 0.3463321 0.4064324 0.36100724 0.123924516 0.28747153 0.34848097 0.025282053 -0.042419516 -0.10481889 0.031598 -0.4511682 0.75539863 0.5471049 0.21489094 0.21089742 0.8081424 0.7781179 0.13897797 0.1800965 0.84447944 0.07477721 0.8627124 0.116909534 0.8558403 0.83688504 -0.07295889 0.12684281 0.8112588 0.7896473 0.749156 0.72377646 -0.10317649 -0.052574247 0.024605874 0.7876544 0.7778822 0.103163905 0.114263386 0.2128703 0.17717272 0.41237614 0.38193312 0.29917854 0.36294115 0.3750112 0.41337758 0.34356377 0.33891934 0.44231024 0.5287957 0.45116353 0.45730773 0.49395323 0.5515391 0.7497762 0.71987414 0.68135756 0.67120504 0.674364 0.54567933 0.33226767 0.29472706 0.33085406 0.2873208 0.3433556 0.31269604 0.20267485 0.5098116 0.49026695 0.13283747 0.19780079 0.4031092 0.518252 0.36437163 0.29277068 0.44491595 0.26627848 0.41391072 0.048012346 0.0009780899 0.16496648 0.3169953 0.35439375 0.3503711 0.4684248 0.30883276 0.28459746 0.46686015 0.111086324 0.44496632 -0.33993858 0.3390121 -0.0710399 0.13257584 -0.1784547 -0.16733184 0.07749041 -0.2315702 -0.11710202 0.02184099 0.45283958 0.10606787 0.30988634 0.07665994 0.015850171 0.119249985 0.23169467 0.16747552 0.12497492 0.2872082 0.20112401 0.07508817 0.056451302 -0.0018309616 0.06575992 -0.004270874 -0.066911116 -0.196787 0.18370941 0.6493271 0.55598533 0.19216855 0.2151393 0.75541216 0.70795685 0.064628184 0.8233747 0.75191325 0.8338424 0.81356466 0.062030513 0.81966746 0.12997253 -0.12486088 0.22437033 0.8192569 0.81317544 0.7253635 0.65785235 0.361023 -0.22396424 0.18302977 0.22721836 0.24740067 0.80446255 0.7870258 0.7472363 0.08419969 0.20872861 0.26855123 0.177554 0.31497276 0.29944396 0.21814305 0.26006788 0.40741605 0.34906706 0.3553015 0.41274107 0.4964884 0.56334037 0.5628177 0.48553523 0.5145171 0.542694 0.86020625 0.826823 0.7339812 0.8266768 0.8073436 0.7668922 0.52796096 0.72835594 0.35598522 0.37471095 0.38097903 0.34910595 0.30481476 0.4154215 0.21978651 0.26616773 0.51713276 0.5072944 0.24219261 0.34448653 0.48888907 0.32952225 0.31919676 0.44521803 0.15821645 0.17540166 0.29819998 0.24358615 0.06546407 0.38720608 -0.028472234 0.124758646 0.23610203 0.27852833 0.43053615 0.41689062 -0.026011296 0.010171806 0.112427495 0.34432435 -0.10912689 0.085404366 -0.21389274 0.14681268 0.09266862 -0.20027244 0.33621994 -0.013177203 -0.2437153 -0.24814622 0.39974242 0.43705297 0.06534416 0.26153094 0.08744336 0.0916727 0.19509792 -0.013606733 -0.03330513 -0.071509734 -0.10817452 0.28516263 0.07390769 -0.34247172 0.116811104 0.07833192 0.09581941 0.49389386 0.3632232 0.08965638 0.5706221 0.09916453 0.6740124 0.0767101 0.0955563 0.72524345 0.6461526 0.77713645 0.77697766 0.39123178 0.19639516 0.14622179 0.22675963 0.15700422 0.80965936 0.8079858 0.79527915 0.7188219 0.5230998 0.21711335 0.24777701 0.24747813 0.8069989 0.8031155 0.15404911 0.16128844 0.24106416 0.0926072 0.12719046 0.029423162 0.20820491 0.07707791 0.04824778 0.30998394 0.21870355 0.34487468 0.47075784 0.41512534 0.49111944 0.5383401 0.553377 0.85088694 0.887184 0.91729283 0.80154514 0.5871328 0.8292569 0.5344068 0.3897927 0.78446674 0.39053142 0.3933525 0.60757315 0.3635226 0.3525859 0.26003614 0.058241762 0.36720031 0.3526732 0.25553584 0.164887 0.13851118 -0.087191105 -0.056799226 -0.0625627 -0.21607551 -0.1593111 0.17250293 0.016485937 0.29541337 0.023406897 -0.061219014 0.22730562 0.31507164 -0.005938247 0.2889429 0.015576761 0.17813765 0.011586145 -0.060474172 0.43708992 0.4899408 0.47121197 -0.025919585 0.15746355 0.4982019 0.49165833 0.21809964 0.29555798 0.5034327 0.3862767 0.46474814 0.42096302 0.23810852 0.430