# vtk DataFile Version 2.0
Really cool data
ASCII
DATASET POLYDATA
POINTS 4115 float
3.1864653 43.153732 10.574287
3.2602375 43.11035 11.227941
3.1460357 43.660187 10.029803
3.014901 43.665073 10.601177
3.0738778 43.71916 11.283973
3.3835957 43.757137 12.173015
3.1965864 44.349083 9.901111
2.985634 44.34457 10.513922
3.089541 44.458492 11.412832
3.3299072 44.197388 11.992159
3.2879424 44.93718 10.091684
3.2356172 44.997765 10.573631
3.3405793 45.226364 11.40816
3.2181635 49.99338 15.467378
3.1742814 49.897728 16.436188
3.1780152 50.18629 17.019821
3.1927302 50.62379 15.090469
2.9471653 50.759304 15.5081
2.8379703 50.65492 16.500343
3.0058663 50.776356 17.155626
3.3004277 50.90487 17.78381
3.1563249 51.32524 14.990421
2.8519897 51.236313 15.736528
2.733126 51.36987 16.39323
2.9601889 51.42318 17.246222
3.2665641 51.299984 17.722712
3.0100868 51.999157 15.824553
3.0029144 52.10923 16.481724
3.2093728 52.120327 17.285442
4.437176 36.67909 4.771629
4.3690376 36.74806 5.445027
4.4442606 37.21567 4.6324162
4.4115767 37.492985 5.295143
4.364062 39.639595 7.6186185
4.3073034 39.708267 8.6456995
4.4698095 39.79443 9.427815
4.3402247 39.997803 11.575086
4.3391676 39.954903 12.69681
4.3855705 40.2792 7.68122
4.323444 40.459644 8.28989
4.1043463 40.85535 12.600126
4.2502084 40.703438 13.32434
3.982289 42.091465 11.7293215
4.042007 41.470528 12.7020445
4.1188755 41.725132 13.23453
3.7569933 42.99107 9.942786
4.0584965 42.570976 10.270093
3.9731603 42.43379 11.557249
3.902282 42.487385 12.669665
4.1606207 42.575726 13.404466
3.8027065 43.79403 9.3596525
3.4214056 43.43355 9.891239
4.0087867 43.484962 13.41874
4.025081 44.83788 9.260421
3.472649 44.42853 9.624061
3.596562 44.37348 12.629904
3.8786168 44.394325 13.155551
4.2696257 44.150032 13.78239
4.001386 45.020115 9.28497
3.643997 45.080265 9.747916
3.562838 45.467266 10.483573
3.5478687 45.543858 11.202379
3.7765374 45.293533 12.686153
4.0971 45.23647 13.012727
3.9906068 45.986965 10.4530115
3.9644892 46.451984 12.241445
4.294051 46.57342 13.130614
4.1245155 47.431976 11.64517
4.125266 47.451733 12.247783
4.3558006 47.65488 13.147805
3.9608195 48.75784 12.831293
4.158703 48.742687 13.551453
3.9518971 48.585815 15.702924
3.7311494 48.976986 16.511917
4.1671615 49.3534 11.504043
3.8366401 49.457527 13.4737215
3.7481036 49.3806 14.088764
3.6270127 49.55088 15.153966
3.6947715 49.263275 16.789831
3.8845263 49.694878 17.442291
4.1548004 50.120895 17.918072
4.4397216 50.77204 8.412108
4.2026906 50.139324 11.954324
3.8994434 50.50523 12.80674
3.6969652 50.577724 13.49893
3.4573555 50.43125 17.685867
3.7277656 50.75479 18.13756
4.3002324 51.691063 7.769902
4.293581 51.67639 8.3884735
4.4618425 51.267242 9.11865
4.1214156 50.936478 12.765927
3.5156446 51.371895 14.626917
3.6722717 51.64689 18.169165
4.357515 52.18719 7.7757154
4.38061 52.264793 8.206018
4.0875835 52.434433 13.534196
4.1136217 52.68132 14.420566
3.46866 52.610836 15.681185
3.5202737 52.54614 17.23885
3.9241416 52.350857 18.257723
4.2776704 52.840454 13.588052
4.1374817 52.93945 14.508708
3.5722861 52.839355 15.930417
5.3247237 35.217422 5.697313
5.056058 36.075188 4.035801
4.910163 35.900486 4.590227
4.81536 35.835625 5.5704045
5.0374637 35.85491 6.2996473
4.872481 36.662743 3.91251
4.613938 36.48765 4.461716
4.5178876 36.31043 5.810933
4.604974 36.39976 6.1260886
5.3244896 36.21482 6.895977
4.8685565 37.330254 3.894041
4.535244 37.433537 4.4159245
4.520554 37.4562 6.432686
5.0042973 37.525047 7.142473
5.38811 37.69608 8.132667
5.291436 38.099426 9.109134
5.2313957 38.059864 10.092866
5.231554 38.21918 12.062886
4.920176 38.001293 4.080068
4.7592244 38.320892 4.6385493
4.7021465 38.730385 5.4209347
4.7885256 38.373245 6.223834
4.8122277 38.584396 7.446752
4.6008773 38.93265 8.17554
5.045543 38.508717 10.689393
5.029202 38.62914 11.502254
5.1237125 38.637024 12.547823
5.255888 39.003616 13.720116
5.092482 39.230576 4.683079
5.0725803 39.46292 5.290341
4.704033 39.5302 6.9198046
4.473262 39.59903 7.2363434
4.4675264 39.369003 8.669872
4.686068 39.468742 9.172137
4.5506945 39.984913 10.888606
4.598361 39.61023 11.4050455
4.624273 39.455013 12.478751
4.756998 39.58925 13.445313
4.9814777 39.81665 14.338408
5.232228 39.874825 15.236681
5.1205344 39.98762 6.1451883
4.6953216 40.422333 7.165547
4.49671 40.39991 7.569351
4.4996495 40.332848 10.427842
4.477497 40.799065 14.110983
5.053081 40.55659 15.5653105
5.2978344 42.363613 -6.30744
4.7284017 40.99656 8.219216
4.5787287 41.193226 14.33389
5.1497307 41.646313 16.44666
5.1913257 41.981434 17.103802
5.1125026 42.957806 -7.0536623
4.9068666 42.894466 -6.504964
5.011546 42.824753 -5.851659
5.258719 42.809353 -5.2485657
5.04986 42.76696 9.348574
4.9162793 42.672462 14.628586
4.952873 42.759155 16.92294
5.022214 42.44244 17.446634
5.097797 42.751556 18.48892
5.282882 42.96861 19.29278
4.974433 43.4818 -7.1225166
4.646328 43.55066 -6.4651775
4.6879187 43.513905 -5.831901
4.971278 43.523968 -5.186928
4.6645875 43.83067 9.054917
5.2299347 43.61002 15.641534
4.9574933 43.315315 16.654606
4.805473 43.811306 17.909058
4.8995385 43.578182 18.476627
5.1493077 43.574966 19.325241
5.354156 43.47349 19.679787
4.8751154 44.09875 -6.969947
4.7169566 44.209297 -6.3955717
4.7969475 44.40824 -5.613316
5.1267095 44.49278 -4.629585
4.2934446 44.38047 9.092225
5.423357 44.305588 16.022154
5.3497415 44.847946 16.807198
5.0448146 44.577908 17.613985
4.9907904 44.298042 18.46159
5.1610394 44.15824 19.223505
5.1364512 45.006443 -6.3157535
5.2603498 45.421955 -5.500181
5.2976413 45.278545 -4.7138433
4.2383785 44.918236 9.161528
5.3549047 45.51199 14.313808
5.425403 45.80397 16.597878
5.248965 45.38773 18.464607
5.0652585 46.598717 14.444981
4.638058 47.50214 10.942005
4.5194354 48.168674 13.903252
4.557622 47.91727 15.712977
4.7878885 47.587914 16.369766
4.6954465 48.105698 17.04941
5.2904205 48.761497 9.719779
4.6599517 48.96989 10.563139
4.5005403 48.901165 17.514269
5.065164 48.26195 17.620237
5.00298 49.587234 8.475905
4.851292 49.856167 9.226325
4.7425 49.375652 10.667007
4.998427 49.467716 17.894009
5.0557203 50.914314 6.9700937
4.5568924 50.617935 8.469441
4.692643 50.45552 9.403726
4.789936 50.142815 10.693513
4.722176 50.99638 18.602896
4.6962442 51.77043 7.0849614
4.461053 51.452496 7.4821873
4.9478183 51.36257 10.098975
4.534268 50.76113 11.902041
5.251075 52.00901 20.277744
4.7171764 52.142277 7.121621
4.528917 52.34725 7.5103707
4.5204983 52.54202 8.423873
4.716331 52.215496 9.320889
4.813312 52.708736 19.644566
5.199618 52.529648 20.624958
5.2965083 52.635036 20.854633
5.0269127 52.89801 7.248998
4.878631 52.97017 7.604634
4.9940557 53.26046 8.334145
5.299919 53.386665 9.123715
4.740101 53.319107 13.153858
4.7663093 53.429474 13.574864
4.4008493 53.33962 14.273086
4.5076885 53.391987 15.609209
4.3386164 53.37928 16.954351
4.5975246 53.53896 18.760632
5.113325 53.433983 20.489305
5.3420105 53.705128 7.8630548
5.0900564 53.805717 13.60244
5.087369 53.8544 14.194769
5.0418696 54.269646 16.78879
4.883953 54.43793 17.774801
4.8617444 54.587914 18.861351
5.0034285 54.383305 19.287092
5.132904 53.88598 20.21797
5.2124734 55.48163 17.811012
5.1230044 55.330807 18.511005
5.2441373 55.262432 18.961708
6.1402555 34.380188 5.303733
5.9969363 34.798088 4.6586795
5.7194266 34.784668 5.419398
5.994278 34.87161 6.460941
5.7501254 35.72384 3.8361201
5.528498 35.42252 4.4286656
5.4049454 35.622444 6.4123955
6.0036983 35.910923 7.409858
5.874869 36.87416 3.2970414
5.3265247 36.539818 3.5674033
6.0493846 37.119587 10.847125
6.076944 36.870636 11.726429
6.3091564 36.831757 12.222006
5.6988845 37.300446 3.335188
6.0608106 37.79765 3.5262141
5.6151533 37.694138 10.662155
5.653603 37.66192 12.228333
6.0954523 38.027145 14.24978
6.30897 38.267643 14.927992
5.512447 38.02841 3.4968839
5.520623 38.57815 13.3796015
5.930341 38.61276 14.671245
6.1278853 38.750168 15.572846
6.2737722 38.946964 16.285269
5.693042 39.508934 3.8966777
5.49722 39.507145 15.286511
5.9116554 39.641846 16.358513
5.9480095 40.01248 17.027018
5.9388084 41.026443 3.7475266
5.7509336 40.339497 6.180205
5.768951 40.610706 6.194395
5.573066 40.957737 16.74376
5.909365 40.549587 17.253397
6.210911 41.05344 17.721962
5.6836686 42.27473 -6.927969
5.8905964 42.057037 -6.294998
5.69979 42.198784 -5.7339783
6.115102 41.60667 1.8877927
5.818088 41.72631 2.6530356
6.082576 41.635914 4.29158
5.6881423 41.042164 6.9878454
6.2117615 41.375942 7.4202967
5.816454 42.18619 19.170326
5.9770446 42.96182 -7.6879053
5.738548 42.75095 -7.3601003
5.330265 42.40297 -6.2834883
5.3755593 42.49941 -5.486655
5.693904 42.631756 -5.0412955
6.132852 43.244896 -4.080561
6.12698 42.40995 1.8385988
5.8721304 42.34455 2.568769
5.85239 42.388256 3.3926914
6.111096 42.715908 4.331392
6.081362 41.738358 8.147382
5.538678 42.294945 9.097381
5.4984074 42.65955 19.327532
5.7941175 42.901966 19.842218
5.750944 43.69943 -7.7262726
5.4005947 43.32246 -7.4976435
5.562097 43.27873 -4.664128
6.1455336 43.45917 -4.1205225
6.2064342 42.91697 2.2661216
6.0958524 43.032166 3.1954496
6.1192274 43.198105 4.033058
5.1881647 43.668762 9.183133
5.3942595 43.869404 19.666752
5.7340484 43.474327 19.938656
6.0486503 44.283024 -7.737081
5.519914 44.4692 -7.379863
5.7070537 44.515564 -3.9191942
6.3404713 44.964977 4.3551464
6.3553934 44.655655 6.357368
5.1453915 44.246952 8.986361
5.523011 44.948326 14.497548
5.549954 44.45941 15.899484
5.525635 44.472397 19.392387
5.7903256 44.11444 19.909071
5.5645475 44.903778 -7.070814
5.441368 45.54296 -6.0064797
5.4607787 45.593548 -5.652976
5.4819636 45.450188 -4.488488
6.153217 45.007145 -3.516731
6.4231844 45.720364 0.77119267
6.223906 45.699413 2.3425107
6.1807985 45.6023 3.5971591
6.108835 45.91282 4.0651026
6.17387 45.675472 5.6261363
5.5703597 45.192356 16.043118
5.554604 45.866207 17.088346
5.701768 45.203907 19.26295
5.88767 45.879494 -6.291373
5.8169155 46.002377 -5.453164
5.683365 45.84883 -4.834646
5.775148 45.74855 -4.2458434
6.2268887 46.639618 0.8655096
6.0834236 46.58324 1.8781073
6.029231 46.754322 2.2964141
6.0014157 46.506557 3.6328256
[...]
POINT_DATA 4115
SCALARS features_00 float 1
LOOKUP_TABLE default
0.60809606 0.5123036 0.6433314 0.63572323 0.5599623 0.38344073 0.6322088 0.6375017 0.552108 0.4341612 0.61413574 0.59869087 0.47995347 0.42784178 0.48576558 0.4899663 0.42545897 0.50598234 0.5598666 0.53561467 0.4945269 0.43276882 0.5551222 0.6005316 0.56787777 0.52323127 0.52746546 0.58175874 0.56186074 0.62470114 0.571146 0.5989702 0.53056717 0.33588123 0.32902387 0.2503454 0.1776138 0.20971897 0.34012386 0.3634132 0.1748777 0.19604638 0.23878643 0.17354736 0.17510639 0.58602214 0.5236333 0.3249244 0.23642717 0.17181203 0.565503 0.6234081 0.19994959 0.5541761 0.6125374 0.31083155 0.22310427 0.11303389 0.55410355 0.5923152 0.5456427 0.45470715 0.25357372 0.18264775 0.44295996 0.18246543 0.060308825 0.103530504 0.08261806 0.040438972 0.10528472 0.10179518 0.2760889 0.37354666 0.10222985 0.17695686 0.19681123 0.3179922 0.3964518 0.39603493 0.3623677 0.40988186 0.16839497 0.22851452 0.2503566 0.4567083 0.42364532 0.5271808 0.5209247 0.43260202 0.22837305 0.3611185 0.48032188 0.5601945 0.56189793 0.23896396 0.2655338 0.39481664 0.51795906 0.4508241 0.22262059 0.25309706 0.3748225 0.5236386 0.6480905 0.6405305 0.5684214 0.44998384 0.6408158 0.6430007 0.5386193 0.48739153 0.336612 0.60978484 0.59173423 0.41654116 0.29763028 0.14804319 0.14356455 0.12841344 0.15503171 0.5465051 0.46616265 0.33606112 0.33568427 0.28519672 0.2886847 0.15274346 0.16897707 0.17852543 0.19638532 0.2651791 0.21743722 0.306574 0.32532477 0.2994513 0.2581478 0.1517528 0.18414003 0.20804757 0.21656571 0.20783612 0.1822945 0.2392658 0.29855427 0.3280849 0.11690545 0.2016067 0.15465651 0.77001715 0.31122655 0.18389931 0.1449568 0.23820095 0.8333707 0.8215396 0.769513 0.6906526 0.25873044 0.01932837 0.3009692 0.3347677 0.4702634 0.53010106 0.87306947 0.87913615 0.82873666 0.7426845 0.42792863 0.050334293 0.26952034 0.4329769 0.5093608 0.5516603 0.54775846 0.8951211 0.88516355 0.8143309 0.7289725 0.5079684 0.096394524 0.19295396 0.3414467 0.49766213 0.5448966 0.74050987 0.6668331 0.6728059 0.5219767 -0.14079544 0.10386844 0.4567724 -0.10623092 0.05918303 0.03436487 0.18566689 0.11791861 0.250527 -0.03464572 0.012199023 0.32399926 0.18231341 0.15031952 0.13496393 0.021826554 0.25712693 0.41796118 0.37715635 0.23391095 0.04655724 0.293856 0.52543044 0.5064085 0.28606945 0.15424988 0.5840397 0.5459086 0.5666108 0.57401836 0.52802527 0.5410722 0.69167674 0.7279241 0.57688296 0.58900356 0.6002182 0.57887673 0.20075369 0.19650955 0.21771038 0.2195397 0.33485878 0.43791527 0.70082134 0.5779116 0.17308888 0.18086186 0.31914034 0.45531318 0.5429389 0.5519704 0.63838 0.54013467 0.5789349 0.5850647 0.4609213 0.5305709 0.51364034 0.3866806 0.5935209 0.6051742 0.4163425 0.2222119 0.5319005 0.6183517 0.09021644 0.11038847 0.11762111 0.5281616 0.42014846 0.11068402 0.13175 0.15131173 0.16490027 0.49491066 0.17165914 0.17996064 0.1600163 0.13381988 0.27368197 0.18181719 0.13847399 0.09749308 0.26264834 0.16598275 0.12870201 0.12652041 0.0998945 0.105507754 0.76676524 0.7299633 0.7028412 0.3679998 0.3726775 0.16070424 0.16372335 0.054192156 0.40899324 0.76167274 0.7825284 0.7698654 0.7029991 0.63096035 0.5027234 0.3980738 0.34567124 0.25872353 0.07214558 -0.042143427 -0.10794834 0.5033417 0.5095544 0.8037613 0.8287828 0.6252935 0.5269544 0.33415443 0.19992632 0.042403825 0.29599085 0.5465258 0.52231956 0.7893537 0.8334475 0.67622566 0.003329602 -0.031687893 0.33215252 -0.19711047 0.051232465 0.5262014 0.5092007 0.7670876 0.6591082 0.6530812 0.6677413 0.6825843 0.30136847 0.20331925 0.10949899 0.11128419 0.057644445 0.024001388 0.21933179 0.4788201 0.6306528 0.6267696 0.63779175 0.65204346 0.39877748 0.3147677 0.28693253 0.16512622 0.13886403 0.11688925 0.12704869 0.07478756 0.3715989 0.23423766 0.41105956 0.41091028 0.4290675 0.37454462 0.26946598 0.17558743 0.15208714 0.13876125 0.034042515 -0.19028491 -0.19199967 0.18480498 0.40906185 0.35604748 0.19035313 0.18012896 0.11052644 0.22232234 0.2065569 0.066452734 0.24573222 0.23258856 0.32878792 0.4002217 0.45517012 0.6153856 0.6861397 0.5274577 0.6839013 0.7551408 0.5304204 0.49617505 0.71775365 0.7661878 0.5001271 0.5257964 0.52824736 0.45625034 0.6345177 0.71834534 0.35613918 0.42915148 0.53398925 0.58792543 0.58366644 0.4517889 0.54301846 0.5928381 0.59435403 0.4055992 0.41509184 0.31587544 0.13295764 0.49655795 0.45819837 0.22369225 0.10999185 0.11664909 0.12821692 0.4713611 0.541873 0.051060252 0.081628494 0.095546395 0.10889489 0.10534668 0.11607181 0.11193316 0.1325166 0.13729388 0.35593012 0.4283436 0.47342092 0.062171854 0.27837515 0.37550735 0.43843704 0.10956968 0.11658468 0.24957444 0.3506608 0.4082182 0.12720299 0.1842142 0.175099 0.24014701 0.7055985 0.6929145 0.6574956 0.13214016 0.13986264 0.14668794 0.2807474 -0.1813111 0.101745926 0.38942674 0.6827775 0.72887594 0.12934156 0.34653398 -0.22958848 0.43640774 0.7039759 0.41832623 0.050216362 0.037451155 0.02182319 0.21484083 -0.14767945 -0.1049349 0.46659607 0.68247247 0.0060930476 0.073604986 -0.0005098544 -0.08461112 -0.009246618 0.43686894 0.59053993 0.62815696 0.52983993 0.28818575 0.21953452 0.033447072 0.41160333 0.56786776 0.58926797 0.600981 0.37408692 0.55751306 0.49023372 0.3482051 0.44799924 0.4269259 0.39739442 0.32341 0.39517507 0.34689716 0.28265917 0.16544347 0.26609853 0.19292858 0.41274232 0.2758352 0.27489525 0.55929387 0.698005 0.27737063 0.77406347 0.4311234 0.77815926 0.44400454 0.44594347 0.44861114 0.4040134 0.26593408 0.09704533 0.6006998 0.684666 0.41863182 0.41588664 0.068439536 0.109818324 0.25822583 0.56457615 0.5608788 0.3474313 0.41897604 0.51312226 0.5905422 0.5874669 0.2068609 0.18549629 0.16439985 0.3473417 0.24732065 0.24185997 0.15224874 0.17135994 0.1607298 0.3858167 0.13056627 0.150305 0.16727957 0.39715952 0.4077767 0.1551051 0.17139219 0.36049733 0.12792103 0.45094228 0.56182164 0.62571627 0.100461446 0.08729115 0.16094546 0.5070206 0.5460073 0.6170273 0.50990885 0.5063226 0.540377 0.063077845 0.43663323 0.4505953 0.12634271 0.033830628 0.099157564 0.3418721 0.3697629 0.62896734 0.5464114 0.5937509 0.13321488 0.19627404 0.5766884 0.4703982 0.24132425 0.06353079 0.124065764 0.64062274 0.3097107 0.1965436 0.4637886 0.44780242 0.44527838 0.29704794 0.40089023 0.40814644 0.41080633 0.3407815 0.3562653 -0.10947492 0.07065807 0.21780261 0.18322004 0.24609494 0.5610919 0.2516724 0.23169783 0.73312867 0.23278278 0.29196626 0.74487454 0.33877942 0.36129254 0.4654704 0.6466182 0.37910038 0.32191586 0.28644353 0.20331652 0.12739368 0.01903172 0.034645125 0.06997741 0.5203694 0.33578733 0.38213181 0.5055306 0.36767045 0.3507592 0.17795733 0.13813971 0.18370333 0.19888441 0.29285163 0.188708 0.20659147 0.15117374 0.16232258 0.16454291 0.17018147 0.16164741 0.1708962 0.13383757 0.08959316 0.101054475 0.118550114 -0.029471003 -0.14078625 0.4724186 0.6007415 0.6690798 0.67700905 0.32764655 0.021546856 0.6535646 0.63668334 0.29304636 -0.21290804 -0.080269635 0.5636754 0.447855 0.12734833 0.07897218 -0.049768362 0.3586797 0.14378755 0.12537184 0.2723053 0.08748395 0.087827295 0.11270971 0.3423814 0.13791183 0.32072446 0.29277733 0.24898957 -0.31729907 0.31948966 -0.22179607 0.23695937 -0.0854878 0.16424605 0.12026881 -0.030459955 0.23051636 0.20452882 0.21702498 0.24676949 0.40938118 0.6210551 0.23736608 0.2316843 0.11360893 0.40402314 0.26083887 0.2802853 0.23385859 0.29828584 0.25712293 0.20689622 0.06692019 0.015099537 0.37669122 0.37301847 -0.027477633 0.4494139 0.4827298 0.34306818 0.44415864 0.4618593 0.445453 0.41920006 0.11618075 0.37808922 0.4221032 0.39380804 0.37212116 0.11350563 0.12189817 0.18087515 0.08075318 0.13082036 0.042765602 0.08259293 0.49328938 0.48823863 0.25495613 0.016432 0.4825968 0.4771434 0.3272945 0.15187669 -0.07068975 0.6632283 0.66091037 0.6584703 0.41570225 0.45318866 0.4241486 0.35304135 -0.3137893 -0.043132305 0.219641 0.6311122 0.37812915 0.2860849 0.5423571 -0.036401257 0.42094648 0.23616567 0.31789446 0.074844256 0.075762674 0.16160119 0.15951101 0.08322617 0.11753933 0.15703352 0.46487153 0.26622713 0.16092989 0.170413 0.56966245 0.52940905 0.15457451 0.6123147 0.43906918 -0.03474979 -0.07545966 -0.53249717 -0.02116584 0.5871466 0.50136405 0.36814398 0.24707331 0.035844393 -0.00022993237 0.020263907 -0.3283091 0.24745288 0.21741076 -0.17696747 0.15150633 0.019505449 0.19926201 0.1695392 0.063427486 0.2398481 0.11941069 0.2735459 0.17939398 0.26640064 0.24081717 0.1003354 0.21409233 0.04859622 -0.032147557 0.24732482 0.2548269 0.23274407 -0.023848593 0.108806394 0.25909963 0.35557052 0.31311062 0.4314651 0.47952175 0.49261734 0.4898675 0.3517503 0.44895256 0.48301712 0.4730498 0.43936515 0.0905621 0.14393283 0.27578306 0.03212797 0.30663243 0.5463074 0.06530613 0.028949179 0.018998507 0.09969773 0.25524688 0.3424717 0.14172904 0.021325976 -0.014302246 0.47343266 0.46559146 0.36671165 -0.058768544 -0.10916975 0.45500183 0.46955696 -0.16094452 0.6159459 0.42224306 -0.41151527 -0.2222543 0.16760236 0.5944027 0.29006764 0.24194807 0.3122659 0.27322537 0.19395305 0.3023119 0.29027057 0.2400742 0.13400154 0.1319399 0.13008949 0.06427419 0.17894861 0.15718687 0.15190712 0.6095597 0.5163055 0.14976716 0.64327157 0.13323468 0.7393935 0.67314494 -0.5159341 0.06820734 0.82180387 0.72967243 -0.0484815 -0.08704412 -0.19327599 -0.06218867 0.83566135 0.7839458 0.24838239 0.17852701 -0.030017488 -0.11120547 0.14795755 0.3582161 0.38267452 0.43748087 0.32717445 0.070259824 0.14171426 0.34095225 0.5343713 0.5256672 0.513203 0.47018322 0.24834877 0.22651653 0.07029573 0.29182065 0.2797298 0.24532822 0.2316075 0.1016381 0.25887585 0.2653333 0.20497826 0.26385188 0.25689858 0.21443015 0.21497044 0.24803069 0.25477618 0.2627397 0.22030768 0.2074677 0.21066332 0.29747266 0.30517304 0.44224536 0.29431456 0.4212789 0.5758064 0.6020742 0.5716138 0.670785 0.6960375 0.6806458 0.7208104 0.35214937 0.43325233 0.48885217 0.47734982 0.3475569 0.10966705 0.32356137 0.5069488 0.66641545 0.702333 -0.00025365595 0.54910564 0.6262386 0.6668764 0.06848358 0.034028433 0.5213752 0.5269136 0.2579741 0.10491323 0.07353886 0.11790404 0.12273599 0.20930465 0.4463282 0.41219783 0.41825575 0.3856005 0.33744708 0.37552074 -0.24867016 -0.30107218 -0.168078 0.2830271 -0.40561256 0.5219254 0.50627726 0.3445497 0.34373486 0.2694044 -0.015901 0.2784483 0.2566751 0.037213814 0.45156223 0.07800438 0.66281223 0.60443413 0.017280908 0.7496712 -0.04586591 0.871758 0.18619531 0.22856416 0.90003085 0.327421 0.33521405 0.39463085 0.82694876 0.770782 0.49432158 0.48242992 0.7675767 0.73136574 0.6148504 0.42268553 0.26195103 0.033536613 0.55763876 0.58599865 0.5510441 0.52655476 0.45855498 0.3936116 0.33521655 0.22092786 0.47364864 0.55796695 0.5811739 0.5371175 0.493149 0.34682882 0.3599394 0.33635163 0.22816178 0.09366351 0.05411598 0.5388025 0.23946281 0.23020731 0.22186998 0.24670354 0.21227852 0.31484812 0.2008219 0.36806208 0.3504755 0.20813757 0.20173836 0.17916724 0.3229435 0.3549591 0.35747284 0.23772779 0.36919895 0.39255655 0.5057481 0.62879574 0.7317097 0.72213125 0.7232085 0.7574423 0.7585869 0.751853 0.3219886 0.41331333 0.46045834 0.45905423 0.35134307 0.16335766 0.1552642 0.24074052 0.30978405 0.6197537 0.31207982 0.51956916 0.6514064 0.7113711 0.7193842 -0.04402031 0.6918242 0.095981635 0.60314214 0.2976995 -0.018862754 -0.07993521 0.15837622 0.33533084 0.33719692 -0.05358404 0.2933168 -0.23710535 0.2982925 0.292993 0.33693856 0.32120702 -0.13490352 0.35020858 0.36303464 0.4583691 0.53878754 0.34061217 0.44183415 0.4886309 0.2838121 0.22738393 0.43802226 0.255118 0.45356792 0.02884614 0.04288605 0.64072675 0.5646676 0.4258675 -0.13113467 0.67083275 0.07358421 0.8762035 0.20362629 0.28599352 0.8900535 0.3959812 0.3885823 0.8018794 0.7414434 0.47765672 0.76861584 0.72142273 0.6201501 -0.25293195 -0.022502895 0.56564635 0.53797215 0.5656191 0.56981456 0.4392445 0.3822053 0.32266068 0.15731901 0.096386775 0.09673299 0.5641365 0.5629236 0.53280073 0.49363744 0.4102896 0.28188577 0.3389143 0.3731752 0.3733605 0.31210548 0.19574359 0.17727068 0.43457502 0.48906833 0.5230772 0.1995609 0.16463934 0.15875545 0.17712054 0.18339574 0.19783702 0.37845054 0.21122351 0.24119726 0.386939 0.29296976 0.64057183 0.39273527 0.7172464 0.42742687 0.5003512 0.616142 0.7424417 0.713917 0.7199811 0.7914729 0.78631294 0.7670345 0.160976 0.16562366 0.28657612 0.40925914 0.4678985 0.4516638 0.15343635 0.1696558 0.3224814 0.5879566 0.112008475 0.20491405 0.254679 0.42601016 0.5799598 0.66273326 0.64938617 -0.123667136 0.031804007 0.61293185 0.13911247 0.17015034 -0.014327668 0.4873088 -0.02053972 0.3617807 0.23066956 0.11645074 0.13181886 0.2836748 0.26493812 0.3115995 0.29497808 -0.06665791 0.33940005 0.32860282 -0.08312754 0.23279434 0.49896753 0.34313074 0.53454113 0.6019614 0.62065506 0.5797002 0.6095951 0.26000747 0.51078844 0.57678294 0.18083468 0.33157396 0.28469655 0.20030937 0.537152 0.41165838 -0.041041993 0.6290198 0.5431774 0.4333413 0.1350528 0.7762536 0.24168418 0.27144146 0.8678143 0.75728655 0.3665313 0.7831876 0.7229117 0.5980805 0.39875674 0.6810153 0.58617306 0.4225627 0.48461556 -0.20682687 0.535857 0.4899389 0.53884494 0.5599649 0.5550562 0.46769047 -0.008809142 0.09871917 0.23526601 -0.35548317 0.38301402 0.5030552 0.5582302 0.54918724 0.4904222 0.3854013 0.23763956 0.3124965 0.35941565 0.3490846 0.08593345 0.021649525 0.3186919 0.4460947 0.07293986 0.15445775 0.11456275 0.32836068 0.21810266 0.22232968 0.2882713 0.12708272 0.34506112 0.27630317 0.32720387 0.5029247 0.35144603 0.38627103 0.42296124 0.4596095 0.6240503 0.776061 0.75982666 0.70970273 0.7809575 0.7955622 0.78213435 0.10380125 0.14907421 0.2598026 0.42363036 0.37724227 0.12539558 0.2526059 0.004871467 0.10272904 0.22469749 0.35865003 0.501921 0.51216644 0.5383974 0.24126935 0.23962525 0.2135345 -0.15021157 -0.070489444 0.44226754 0.20097072 0.2122254 0.20450816 0.18176687 -0.2247574 0.05381458 0.08119774 0.1264635 0.020808764 0.073612876 0.08938437 0.2454735 0.014777059 0.30038503 0.287826 -0.12135245 0.038690493 0.17978206 0.35168606 0.2669254 0.46619084 0.5863613 0.3740649 0.61949205 0.6363605 0.37081933 0.6347197 0.22992511 0.60772717 0.14459121 0.5164149 0.13993442 -0.3468483 0.08033835 0.36893407 0.28104353 0.15976863 0.08510887 0.023140159 0.040822946 0.48169097 0.38798746 0.32380918 0.217053 0.043990478 -0.102705486 0.20267749 0.50425273 0.41256964 0.33845598 0.2399988 0.13829926 0.24033189 0.27060673 0.50722694 0.32623887 0.30860808 0.37331566 0.33501983 0.34804383 0.4058176 -0.45933655 -0.54174906 0.48318866 0.51180446 0.019019525 -0.14877787 0.5402497 0.5467452 0.51731515 0.10697226 0.19119024 0.20996402 0.20408143 0.18549123 -0.104232594 -0.28674892 -0.1983366 -0.4087353 0.12544009 0.30456057 0.29204416 0.3106043 -0.13742879 0.28494918 0.17995228 0.1597507 0.27979705 0.11363302 0.29897127 0.33347297 -0.0781939 0.54729486 0.3317806 0.3644966 0.32654032 0.15199025 0.6633471 0.70889795 0.6773282 0.37779447 0.41541398 0.5380298 0.6487014 0.7639034 0.76034206 0.6170529 0.71047866 0.7262322 0.47375143 0.3315416 0.43859005 0.08039022 0.14235613 0.34526828 0.34303087 0.027726214 0.19187059 0.0008597374 0.044243652 0.09564057 0.21792245 0.29263628 0.25199664 0.25899255 0.19974464 -0.12574841 0.069643125 0.23212582 -0.29790485 0.022894815 0.18282993 0.03438683 -0.041027635 -0.052784085 0.15472628 -0.19280104 0.01997895 0.2599382 -0.030116811 0.29009748 0.48936215 0.53802156 0.37997013 0.35883117 0.5851832 0.6119773 0.3856825 0.6242529 0.36298078 -0.02969788 0.58646154 0.15915114 -0.34663737 0.41051328 -0.2992141 -0.31645587 -0.16518453 0.22988829 0.2405048 -0.03636974 0.23232561 0.26751715 0.20377372 0.053097263 0.31291556 0.26346788 0.4621886 0.028193384 0.54267555 0.5578794 0.44767866 0.10011703 0.13736819 0.2879691 0.53804564 0.55760604 0.22745392 0.20516683 0.16486284 -0.1397674 -0.3711797 -0.2930093 -0.2840539 0.14384776 0.36067897 0.51568544 0.3196746 0.2506427 -0.06489526 -0.37698662 0.06899441 -0.068816125 0.16355059 0.26830184 0.2910886 0.2059448 0.13250762 0.006117966 0.3090542 0.31284282 0.2590511 0.21243054 0.04984702 0.08452762 -0.112969495 0.5993445 0.6091505 0.34453583 0.3017195 0.13632275 0.17652255 0.2872561 0.7428942 0.7148232 0.6671002 0.8041471 0.7856445 0.8058342 0.565187 0.6453017 0.57325894 0.50638306 0.5103866 0.49242193 0.5172482 0.43942234 0.37782875 0.33284992 0.31354836 0.1264344 0.088575065 0.17723781 -0.18571386 0.36856076 0.45632362 0.48932126 0.2215985 0.25098464 0.24112242 0.14951494 0.04792557 -0.25837827 -0.14742003 -0.23831105 0.06262261 0.3087681 0.16171776 0.18636394 0.27509195 0.2338377 -0.131325 -0.010597162 0.3889706 0.35303098 0.2933185 -0.042850576 0.40083462 0.38983566 -0.042672895 -0.016221983 0.36594498 -0.018737115 0.11645043 0.21457773 0.014366314 0.20714672 -0.21011385 0.015208628 -0.03787578 0.45002234 0.46959758 0.5118618 0.56411755 0.37956417 0.502937 -0.25132936 -0.04181704 -0.26786512 0.14450178 0.24284405 0.097367324 0.038905106 0.009337287 0.27572817 0.35589513 0.34909704 0.15579273 0.22200826 0.49278077 0.4432332 -0.032674536 0.5706511 0.5632522 0.598356 0.22558941 0.5649686 0.51026994 0.2185563 0.37625748 0.3503335 0.317994 -0.04517147 -0.14330909 0.418895 0.5009326 0.5354265 0.4173162 0.36244035 0.3518901 0.26255852 0.41438866 0.46897885 0.4526558 0.26129204 -0.10950577 -0.33279878 -0.3654014 0.54807276 0.39233878 0.027359873 -0.16073503 -0.051424436 0.12740208 0.049415667 -0.034720484 0.006173674 -0.1145084 0.3744694 0.56349957 0.2629 0.7103524 0.44727236 0.53001004 0.58498883 0.78853947 0.74492633 0.6551485 0.76942205 0.79857063 0.65859634 0.6986238 0.6809333 0.6014118 0.5683831 0.62328756 0.6678357 0.6419562 0.53921425 0.4470591 0.5057339 0.48251927 0.39012536 0.30023625 0.32504833 0.26596636 0.2556387 0.4518972 0.5192102 0.50956154 0.22586776 0.27829272 0.22416058 0.13971426 -0.07776229 0.054844752 0.27803078 0.51540875 0.400593 0.1889818 0.16290914 0.22104342 -0.3852821 -0.39668995 -0.054087445 0.3058383 0.30106574 0.2373028 0.12891966 0.38700387 0.35030812 -0.077143796 0.42087215 -0.07108711 0.043225393 0.2505185 0.42899066 0.1878255 0.30930144 0.3496109 0.28134313 0.09059055 0.24991003 0.08264344 -0.049210742 0.25177017 0.067153916 -0.1481016 0.07231135 -0.28551713 -0.009801596 -0.008278968 0.27517235 0.06963635 -0.077731684 0.36396247 0.16545086 0.43129155 0.4791326 0.36373383 0.5542052 0.57273304 0.64360553 0.5550661 0.5808307 0.64640486 0.603706 0.28524452 -0.15085286 0.19391322 0.39694053 0.44533208 0.5225271 0.543462 0.48679715 0.43050686 0.542464 0.47115672 0.17707406 0.058978803 -0.14158274 -0.14000851 -0.15526181 -0.21790159 -0.17880377 0.6099116 0.6211331 0.6032212 0.4111695 0.3150123 -0.0346583 -0.057324085 -0.09259561 0.6814551 0.68042845 0.6163074 0.49326593 -0.0526407 -0.12194659 -0.25162846 0.05494963 -0.15636608 0.3849013 0.10863408 0.2457522 0.54139256 0.3394789 0.39109492 0.6286806 0.47593963 0.56356347 0.6568527 0.6996745 0.6420896 0.6862062 0.6519098 0.71485054 0.695486 0.57735443 0.56598145 0.6189054 0.47294015 0.39559513 0.4735344 0.35580015 0.3339485 0.31608322 0.28195998 0.48656645 0.3440186 0.34612197 0.33942366 -0.025512889 0.1454864 0.471044 0.51162326 0.49480054 0.45425618 0.18413994 0.23309937 0.1724948 0.42009622 0.38475293 0.14598688 0.31638157 0.272124 0.16106065 0.09759934 0.3919121 0.3326083 -0.050062343 0.45625266 0.45217055 0.16471028 0.29776472 0.33227596 0.44297022 0.44666368 0.3515268 0.36144578 0.375029 0.35282975 0.33778143 0.17005482 0.19166818 0.06547989 -0.030485861 0.10050803 0.08340579 -0.16806374 -0.10218897 0.06093447 0.0032936186 -0.009975888 0.11431019 -0.2266775 0.028965402 -0.22092539 0.38187027 -0.2068927 -0.2601167 0.454221 0.3290892 0.25253418 0.5174911 0.44341436 0.36293855 0.60866284 0.57412994 0.6543488 0.67632186 0.56008905 0.6082864 0.6607153 0.6122373 0.54755026 0.4641884 0.29523623 -0.20324126 0.43982908 0.51669496 0.56153375 0.53896236 0.546601 -0.18565106 -0.07817699 -0.09560691 0.68803424 0.2565917 0.18255816 -0.0623746 -0.08640867 -0.15088923 -0.33175695 -0.044732634 0.7139684 0.6931689