# vtk DataFile Version 2.0
Really cool data
ASCII
DATASET POLYDATA
POINTS 8554 float
-3.6287494 -25.932528 22.921368
-3.6338615 -25.920094 23.305698
-3.6901202 -25.452095 22.734339
-3.7116501 -25.496126 23.39926
-3.6096616 -24.632507 22.151793
-3.7189364 -24.578108 22.608582
-3.7214646 -24.516897 23.28183
-3.5929182 -23.816214 22.076544
-3.6552227 -23.595055 22.543468
-3.6424453 -23.825733 23.195103
-3.6059065 -23.04223 22.695099
-3.7262993 -8.967043 24.97037
-3.68637 -9.255279 25.421938
-3.7615635 -8.294124 24.823158
-3.9652405 -8.414231 25.551476
-3.8459477 -8.413326 26.208775
-3.5757146 -8.689114 26.85434
-3.8412755 -7.8600407 25.061747
-3.890837 -7.797601 25.57018
-3.8568234 -7.8488064 26.052536
-3.6241767 -7.277383 25.792898
-2.8867166 -26.739655 22.760035
-2.8109539 -26.807014 23.330307
-3.0645552 -26.105764 22.049395
-3.3123727 -26.252909 22.733139
-3.3925912 -26.265707 23.362356
-3.2656486 -26.041508 23.994349
-3.1609902 -25.267963 21.72691
-3.5138476 -25.484667 22.3958
-3.3201606 -25.5183 24.181126
-2.8465848 -25.384508 24.600452
-2.846439 -24.532698 21.245035
-3.3152437 -24.439142 21.666592
-3.3113487 -24.675879 24.079819
-3.1222246 -23.727842 21.321709
-3.3933473 -23.597069 21.856789
-3.445064 -23.425676 23.435663
-3.2449915 -23.75028 23.841173
-2.797773 -22.98528 21.191015
-3.267919 -23.084015 21.775257
-3.404721 -22.904863 22.53906
-3.2494802 -22.910423 23.250013
-2.9626064 -22.285273 22.737198
-2.8618748 -22.295443 23.043043
-2.5679464 -18.238197 19.90686
-2.7747834 -10.721226 24.742111
-2.7708817 -10.391316 24.159908
-3.0306687 -10.344169 24.631632
-3.0025914 -10.373852 25.220701
-3.1975965 -9.872278 26.303892
-3.0571747 -9.763935 26.983828
-2.7788305 -9.000889 18.203285
-2.7820272 -9.163312 18.625225
-2.8056579 -9.199299 19.236301
-2.9666097 -9.586404 23.841995
-3.3264775 -9.463474 24.47837
-3.463907 -9.644892 26.149557
-3.0817442 -9.358484 27.489416
-2.8227751 -9.2311735 28.039757
-2.7217557 -8.619645 18.150469
-2.8430173 -8.565122 18.597118
-2.9468653 -8.544508 19.22264
-2.7530203 -8.512166 20.13607
-2.9556818 -8.549451 23.743095
-3.5428329 -8.541841 24.412594
-3.2273054 -8.646866 27.574352
-2.882342 -8.433463 28.11667
-2.7627716 -7.815567 18.84459
-2.822996 -7.7099423 19.354826
-2.6678538 -7.5269303 20.637304
-2.6452909 -7.6826434 20.99344
-2.8308923 -7.7544937 23.955622
-3.5753736 -7.696193 26.659803
-3.2386413 -7.76025 27.225698
-2.8391118 -7.8494325 27.97231
-2.6100123 -7.144287 19.093977
-2.6818407 -6.8522477 19.569487
-2.68254 -6.854093 20.354467
-2.9327447 -6.8465195 24.650333
-3.452806 -7.116398 25.70868
-3.0386975 -6.9835124 26.393646
-2.5667186 -3.922089 23.662008
-2.660658 -4.07371 24.921272
-2.9784374 -3.2958252 24.582718
-2.8832507 -2.9910471 25.334526
-2.85717 -2.5839815 23.891205
-3.0813193 -2.52468 24.49681
-2.8962374 -2.4073508 25.42308
-2.7488728 -1.8821377 24.100792
-2.8333383 -1.839219 24.511707
-2.7350326 -1.7969801 25.224108
-1.7748874 -27.573845 22.726252
-2.151431 -26.86514 21.85384
-2.211967 -27.185167 22.628223
-2.3312328 -27.027853 23.398235
-2.2274597 -26.732056 24.18105
-1.6858677 -27.277826 25.961042
-1.6968663 -27.196135 26.556515
-1.6047564 -27.08975 27.067167
-1.9916753 -26.036379 21.158821
-2.55696 -26.266077 21.697977
-2.353763 -26.235743 24.453314
-1.7489412 -26.709793 25.94514
-1.7135117 -26.761522 26.493538
-1.6979171 -26.716148 26.983452
-2.2099128 -25.366562 20.998798
-2.6910067 -25.698761 21.403212
-2.624323 -25.684223 24.7617
-1.7447295 -25.052143 26.705154
-1.5523043 -25.237293 27.300217
-2.2880173 -24.172142 20.805122
-1.6522212 -24.351692 26.518034
-1.5868723 -24.974516 27.077543
-1.821786 -23.891811 20.348534
-2.3419187 -23.590319 20.727858
-2.4032896 -23.32491 24.160793
-1.7679131 -23.797647 25.16297
-2.287969 -22.39707 21.057743
-2.7130806 -22.496662 23.527126
-2.216256 -22.510513 24.091408
-1.9416708 -21.912048 20.618229
-2.3408244 -21.767727 21.95612
-2.5926335 -22.002872 22.436148
-2.2644672 -21.98239 23.510956
-1.8631293 -22.160664 23.979006
-1.793524 -21.201025 21.218403
-2.0163324 -19.126959 18.960611
-2.1638849 -19.20373 19.537928
-2.169863 -19.117193 20.23028
-2.109672 -18.43415 18.762476
-2.4428904 -18.430021 19.455748
-2.3508182 -18.429813 20.373068
-1.8747625 -18.595394 21.152065
-1.6857135 -16.994465 13.814938
-1.7117056 -17.153297 14.363316
-1.7673757 -17.76019 18.31003
-2.065693 -17.63122 18.764448
-2.448902 -17.801311 19.647783
-2.301939 -17.572124 20.338757
-1.8602726 -17.77566 21.18403
-1.6317352 -16.24218 13.205628
-1.8240032 -16.463634 13.685328
-1.9502131 -16.359964 14.45105
-1.731282 -16.301899 15.232679
-2.0850744 -16.85348 19.128044
-2.1372309 -16.74761 19.764177
-1.9468149 -16.542686 20.411629
-1.8887248 -17.105875 20.869389
-1.7253639 -15.445716 12.916675
-2.1692686 -15.3029175 13.8101
-2.194397 -15.4339695 14.3983965
-1.9909701 -15.323309 15.266942
-1.871842 -16.14909 20.06241
-1.8558494 -14.680988 12.943165
-2.0686185 -14.53812 13.525622
-2.240993 -14.614312 14.532484
-2.0421941 -14.624497 15.248426
-1.988769 -13.993015 13.568016
-2.0151844 -13.894637 14.215196
-1.5383246 -12.410333 13.683953
-1.6911206 -12.719541 14.327893
-1.710446 -13.074471 14.859469
-2.17568 -10.7389765 24.016531
-2.3931174 -10.867766 24.586708
-2.4741466 -10.832451 25.302292
-1.8869959 -10.899191 25.987675
-2.4545708 -9.715575 18.822687
-2.238708 -9.7689085 19.25183
-2.3996415 -10.494617 23.868614
-2.282997 -10.291244 27.172308
-2.1133265 -9.987082 28.04047
-2.322451 -9.074164 17.953362
-2.5838547 -9.592155 18.829256
-2.5535214 -9.56644 19.492142
-1.7900721 -9.149223 20.561394
-1.8602678 -8.789974 20.839375
-2.4439178 -9.711574 23.28113
-2.4848533 -9.499949 28.227367
-2.075454 -9.562736 28.70749
-2.458415 -8.589795 18.02585
-2.5762508 -8.783284 20.254866
-2.534566 -8.157446 20.948593
-2.1606774 -8.574929 22.819773
-2.6268709 -8.591597 28.484468
-2.212016 -7.8137913 18.118196
-2.5336852 -7.421295 18.571167
-2.4880223 -7.484297 21.238129
-2.0239806 -7.6952686 22.746834
-2.5769067 -7.4519525 23.840467
-2.5278344 -7.393633 27.986097
-1.8689781 -7.643893 28.775618
-2.0542789 -6.5638323 18.786251
-2.4847417 -6.2352304 19.927462
-2.4317732 -6.332431 20.288033
-1.9683299 -6.7844133 21.763882
-2.1898422 -6.7203274 23.707567
-2.3598456 -6.493835 24.388685
-2.504148 -6.8272862 27.380825
-1.8207746 -5.7669315 19.070005
-2.130298 -5.8822002 19.486269
-2.128384 -5.6514845 20.481531
-1.9832882 -5.9687133 21.4289
-1.8782309 -5.125687 22.263931
-2.3937557 -6.210921 25.90544
-1.6735561 -4.754361 20.375837
-2.4649625 -4.1772523 23.553339
-2.5109003 -4.3717422 24.5343
-2.2489913 -4.2086167 25.312958
-1.9798806 -4.0181255 25.651257
-2.2043734 -3.534463 23.110308
-2.4375424 -3.205143 23.317183
-2.5302844 -2.7671034 23.357172
-2.3919053 -2.4226267 25.932747
-1.5538217 -2.0051885 21.934126
-2.4507565 -1.732127 23.999386
-2.583541 -1.5067583 24.508022
-2.5759034 -1.8343596 25.542002
-2.414794 -1.8984483 25.777052
-2.3344455 -1.2814543 24.726177
-2.0090687 -1.2251775 25.386051
-1.4056612 -27.761362 22.63713
-1.1931797 -27.7604 23.176723
-1.2986094 -27.865768 26.090656
-1.1260931 -28.01535 26.566607
-0.9121089 -27.805641 27.332483
-1.5033457 -27.262075 21.784534
-1.59425 -27.519403 22.242409
-1.5996623 -27.489681 23.69729
-1.4427788 -27.650448 26.641829
-1.2757633 -27.289036 27.344414
-0.8487842 -27.065315 27.911953
-1.4295552 -26.250303 20.925976
-1.4422156 -26.541779 27.333637
-0.9291245 -26.646276 27.962538
-1.4533564 -25.366001 20.46064
-1.458208 -25.404186 27.513575
-1.0410535 -25.554607 27.999765
-0.97042686 -23.888792 19.901266
-1.4262335 -24.593596 27.46027
-1.0144917 -24.571095 27.984669
-1.4398034 -23.456627 20.120667
-1.297848 -23.730139 26.78461
-1.1735029 -23.833447 27.351377
-0.82552767 -24.0541 27.960615
-1.5380285 -22.725632 20.082726
-1.2434385 -22.848608 25.106298
-0.6917646 -22.478704 26.83486
-0.9760113 -21.736958 19.913742
-1.5956821 -21.662642 20.492815
-1.3250623 -21.433792 24.44563
-1.230715 -21.72231 24.793558
-0.6870994 -21.872145 26.048733
-1.1205875 -19.846613 18.990143
-1.3460504 -19.935236 19.370415
-1.1088481 -20.743338 22.93689
-0.93294626 -20.75894 24.221678
-1.1529866 -19.006283 18.27069
-1.4696115 -19.43184 18.656368
-1.240191 -18.909422 21.627651
-1.0553322 -17.636175 13.84889
-1.0122936 -17.76023 14.460678
-1.2726675 -18.504433 17.878376
-1.6245614 -18.496574 21.517918
-1.1823294 -18.2306 21.816961
-1.1018168 -17.111315 13.192641
-1.3657724 -17.336048 13.717483
-1.4415281 -17.493385 14.387686
-1.4481671 -17.137451 15.098997
-1.3463898 -17.380745 17.844141
-1.583004 -17.426573 21.474245
-0.8563975 -17.27601 21.958298
-1.4410917 -16.159847 12.958699
-0.6666281 -16.760818 16.427582
-0.9597851 -16.508307 18.100424
-1.325639 -16.532475 18.547382
-1.3971465 -16.7033 21.253204
-1.0431987 -17.005049 21.669733
-0.88650036 -14.970242 12.072352
-1.6361482 -15.560254 12.874451
-1.5773797 -15.681683 15.62493
-1.2379733 -15.475319 16.075998
-1.1074365 -16.283966 18.226093
-1.4580727 -16.125727 18.95724
-1.3981166 -15.731193 19.572395
-1.4262152 -15.843844 20.359983
-1.0013998 -15.865435 21.030848
-1.0695517 -14.278991 12.2653055
-1.3264463 -14.776244 15.902134
-0.9228389 -15.422131 19.70969
-0.7271746 -12.846212 9.140495
-0.89424825 -13.073873 9.495063
-0.88629806 -13.209488 11.940258
-1.1340659 -13.764319 12.454269
-1.6078937 -13.662221 15.20275
-1.1026112 -13.744635 15.906201
-0.92699826 -12.181509 8.928289
-1.1538942 -12.340192 9.86155
-1.0888622 -12.559966 10.623176
-0.9093594 -12.455431 11.519347
-1.305142 -12.459988 12.790772
-1.1100085 -12.629761 15.542251
-0.90906656 -12.925988 15.700013
-0.9253797 -11.491144 8.962426
-1.2109684 -11.628727 9.600349
-1.1031919 -11.759381 10.699003
-1.1511153 -11.813877 11.343922
-1.3061895 -11.793611 12.80982
-1.2784865 -11.268309 14.266837
-0.93360776 -11.321313 15.149598
-1.0748292 -10.983185 24.062498
-1.5366882 -11.208514 24.778517
-1.6054176 -11.125936 25.291096
-1.467948 -10.844078 26.527433
-1.1601032 -10.834157 27.042784
-0.9687178 -10.673687 28.050762
-0.7257356 -10.655364 8.773078
[...]
POINT_DATA 8554
SCALARS features_00 float 1
LOOKUP_TABLE default
0.6329013 0.64092916 0.63381195 0.6521803 0.5992461 0.629117 0.6487334 0.5932795 0.6107646 0.61717933 0.586208 0.59795713 0.61156744 0.5685809 0.6034452 0.5963185 0.5788002 0.5621922 0.57660323 0.5750436 0.5417512 0.5654305 0.55359685 0.57486033 0.605897 0.6184355 0.59552264 0.5551462 0.61060137 0.6059855 0.4949997 0.4938488 0.5514192 0.6110201 0.513859 0.57116127 0.557548 0.5300779 0.48853374 0.5590573 0.57643074 0.5150095 0.49648336 0.45339084 0.6890045 0.5318545 0.52375275 0.55010945 0.5594193 0.56712806 0.5246495 0.7329762 0.7467146 0.73658717 0.5258738 0.5673641 0.5956265 0.52557355 0.5028779 0.7121277 0.7092887 0.6909001 0.6498884 0.45136654 0.54429895 0.545847 0.51806414 0.6426088 0.6057187 0.48370016 0.4310828 0.3802209 0.54603726 0.53235936 0.5027381 0.5690511 0.5175884 0.4547724 0.43853083 0.5308364 0.47350997 0.45293605 0.5814181 0.62047756 0.67089224 0.58128303 0.6422822 0.6613866 0.5881412 0.6218183 0.61357784 0.43388918 0.5200439 0.5007411 0.49623322 0.42193353 0.35908324 0.4540015 0.5058056 0.47996813 0.5400722 0.42615315 0.31641176 0.40857354 0.47187442 0.4571694 0.52101505 0.41498387 0.3570121 0.43842256 0.4319034 0.3098387 0.4035089 0.38629448 0.4269032 0.32748455 0.17179435 0.46033877 0.39627698 0.26770735 0.4255314 0.49583656 0.4810394 0.30601138 0.21704939 0.38787633 0.59889895 0.64117426 0.6536311 0.6409798 0.6843996 0.65396166 0.51605767 0.5841964 0.6005838 0.63649046 0.6637919 0.6942525 0.658393 0.5094375 0.51873815 0.5680233 0.61101454 0.57048345 0.6772994 0.7067623 0.6769 0.58365834 0.4639318 0.56069463 0.6095843 0.5846983 0.7084557 0.42677188 0.48122275 0.5781653 0.5548024 0.43486047 0.5111041 0.30690038 0.4197286 0.46211523 0.48111963 0.50722057 0.51861167 0.4533964 0.75643104 0.71888775 0.495322 0.40498373 0.3757751 0.752759 0.75944126 0.7280468 0.58744264 0.5536928 0.50682795 0.45851249 0.40198874 0.7062113 0.6631117 0.48711824 0.26468718 0.4966718 0.63282406 0.61092675 0.34167534 0.01909925 0.31178677 0.46100974 0.41659695 0.5273907 0.45670807 0.4269086 0.14867248 0.1383898 0.2883659 0.41658616 0.44182074 0.45701292 0.3777393 0.25125897 -0.031301778 0.3197786 0.31196526 0.37458074 0.49463195 0.5238133 0.49974918 0.34529215 0.4389975 0.46122363 0.6031369 0.277721 0.5295682 0.5633222 0.599322 0.5833969 0.50675625 0.4749849 0.37312615 0.3223346 0.4472427 0.52264035 0.5670444 0.46942967 0.43986017 0.35353094 0.5034436 0.54828477 0.57254684 0.44387516 0.5102716 0.5570118 0.383709 0.4650296 0.50026864 0.32111704 0.40883464 0.43061393 0.3618251 0.2935682 0.35182792 0.39894605 0.39041954 0.12142786 0.19844835 0.27697822 0.39237118 0.10518175 0.09975965 0.12717584 0.39805862 0.41627365 0.18184 0.10849291 0.46533024 0.47771937 0.3105212 0.57449496 0.5831691 0.51952446 0.41899407 0.32049102 0.5432717 0.5792886 0.59868467 0.57551885 0.54090834 0.45485625 0.34585443 0.48463553 0.3754672 0.553207 0.6389961 0.52922034 0.4209891 0.2743292 0.4598343 0.5381093 0.45056683 0.5898622 0.6516126 0.6739705 0.7003576 0.62228155 0.27253476 0.47081506 0.64862347 0.25405723 0.23514839 0.051151823 0.23277134 0.4857116 0.41441667 0.29758072 0.25440472 0.16064057 0.05762001 0.13533816 0.40062234 0.38845727 0.32560527 0.3078685 0.19733708 0.11491251 0.12407637 0.3014143 0.32015666 0.37290043 0.45383403 0.45451695 0.34854162 0.2708028 0.24963416 0.36013138 0.384202 0.35358232 0.23437452 0.21783718 0.24955371 0.30240947 0.65591955 0.56350994 0.58814424 0.3859827 0.31122082 0.31239602 0.4636311 0.48437327 0.5013916 0.44448337 0.4182861 0.33460674 0.22531788 0.23585203 0.41815773 0.54031086 0.5463184 0.5324296 0.484569 0.4141603 0.66053987 0.40894854 0.5600896 0.5468402 0.5134347 0.60067916 0.4003783 0.48865202 0.18878037 0.23319739 0.4164582 0.41668522 0.19343759 0.3535444 0.33343315 0.23678096 0.15513903 0.42928505 0.24234852 0.44362837 0.4321802 0.39864308 0.42320606 0.5128339 0.43379056 0.3501148 0.22212738 0.2501298 0.30592886 0.5301212 0.33094049 0.2675157 0.31197387 0.40607202 0.21584046 0.4939988 0.5471542 0.5433488 0.37347946 0.5663097 0.3667721 0.5272304 0.5115442 0.50138634 0.4747147 0.28815335 0.43300897 0.33204156 0.3787892 0.1801559 0.19711562 0.2355031 0.1488016 0.12855381 0.17150865 0.24207053 0.17327309 0.10989972 0.32368138 -0.022902302 -0.10260545 0.5442389 0.554405 0.54763484 0.27280492 0.54318666 0.54900104 0.2597313 0.111683585 0.3699535 0.4289364 0.271289 0.16937056 0.16720963 0.15115583 0.102622345 0.5444937 0.55623674 0.15895349 0.16509601 0.16427454 0.13436146 0.23661362 0.59594816 0.6313385 0.19239184 0.22002965 0.3286178 0.22227742 0.23500401 0.35377303 0.23357806 0.2581026 0.30749965 0.22647876 0.32317555 0.2003187 0.25764444 0.333003 0.44226193 0.3078979 0.26921856 0.54859906 0.40409052 -0.16218257 0.022287425 0.28988996 0.42886275 0.46988064 0.42035177 0.4520058 0.14525476 0.83760643 0.4248562 0.4491834 0.5089324 0.5453244 0.35806522 0.22306076 0.16720392 0.46655345 0.54353374 0.5684999 0.56537676 0.53841764 0.49918467 0.39459902 0.24789843 0.483338 0.4284798 0.43612608 0.3908865 0.23929209 0.3384196 0.44944686 0.45379803 0.06376687 0.21928154 0.33141574 0.2738487 0.2887362 0.3239551 0.3861117 0.5107399 0.59684944 0.22468832 0.5206053 0.60085094 0.6839721 0.6725508 0.3759454 0.25901532 0.14865837 0.3350493 0.4556238 0.58936584 0.61627245 0.7172584 0.6999099 0.60377526 0.4709735 0.2986086 0.2783954 0.29987144 0.3168373 0.316522 0.35011137 0.40936238 0.7660775 0.71688175 0.65286857 0.2721937 0.45553076 0.49171072 0.7249506 0.6919348 0.66789854 0.5204054 0.4997436 0.6974453 0.6726361 0.62068677 0.24219133 0.48245096 0.6603255 0.6360497 0.53941786 0.46513158 0.13470162 0.34846404 0.18312691 0.34414423 0.10461372 0.039806582 0.07024735 0.063255034 0.20408383 0.15600926 0.049036983 0.025157742 0.29291785 0.100426525 -0.06587582 -0.05856087 0.29114488 0.29528195 0.31430373 0.21105866 0.24629307 0.2791982 0.25436878 0.10882935 0.033580072 0.15858088 0.20115983 0.22430132 -0.011920795 0.06900232 0.12546071 0.14487953 0.17424071 -0.07552719 0.375422 0.37317264 0.09634556 0.091763765 0.54736656 0.5401803 0.5345572 0.104319856 0.14700754 0.17497498 0.5057131 0.54795474 0.55794644 0.53367376 0.12242705 0.16124307 0.14541556 0.5165574 0.5124601 0.3875335 0.20422149 0.20373008 0.15825608 0.084738694 0.46336764 0.43734005 0.24963492 0.23821656 0.0164847 0.017828852 0.16811806 0.23423386 0.39598584 0.45857376 0.50149906 0.2204822 0.29783335 0.38398615 0.44340652 0.33937466 0.17295402 -0.13784376 0.52015084 0.52607566 0.3697553 0.16700226 0.15787926 0.49467707 0.44062233 0.47839826 0.49000287 0.5367296 0.5353956 0.5579346 0.54725266 0.4338749 0.39509177 0.21139555 -0.16295153 0.12857637 0.494507 0.54834515 0.43925488 0.33776122 0.52016133 0.31599784 0.4214993 0.30119073 0.23709746 0.17526415 0.38430685 0.3882726 0.53595036 0.47423944 0.5685613 0.5750598 0.5863864 0.5722392 0.6349167 0.6397097 0.6407154 0.68722796 0.27801973 0.6283635 0.64818037 0.6537802 0.7200484 0.6948558 0.5759114 0.48803034 0.4057994 0.5791595 0.62617695 0.6482798 0.58949864 0.24624445 0.29076344 0.3330506 0.31836718 0.2980475 0.8327684 0.77731955 0.6661617 0.21577626 0.26738754 0.2939017 0.32260805 0.8325324 0.8193964 0.7660103 0.64267075 0.21722828 0.3712833 0.42165157 0.77438176 0.74715555 0.51709914 0.42686135 0.44725764 0.7109053 0.7019237 0.4531276 0.6676796 0.6513051 0.2667119 0.02073729 0.3721676 0.5673403 0.47173268 0.32049793 -0.12322153 0.030053593 0.08188254 0.052630045 0.4760718 0.49838406 0.2642802 0.43325448 0.46329132 -0.08265518 -0.15493461 0.3057447 0.42230883 0.12243661 0.07897001 -0.07570711 -0.06559137 0.18693435 0.14516376 -0.16231287 0.19608693 0.22721809 0.25436002 0.22996682 0.0688737 0.13345695 0.16074459 -0.13488597 0.10425714 0.2729993 0.28609237 0.3312382 0.24317598 0.19685017 0.1362112 0.16412629 0.23615459 0.25933528 -0.036932155 0.06462196 -0.040865183 0.07922628 0.13564944 0.20705241 0.2988649 0.33282578 0.35728782 0.2687286 0.21722734 0.16493791 0.1433433 0.083454564 0.11134446 0.18276355 0.2367171 0.30468118 0.36700648 0.44936967 0.4756778 0.48373884 0.4194718 0.12153176 0.1432233 0.12324101 0.19576564 0.17667912 0.13929687 0.1493007 0.17867163 0.24739704 0.30445844 0.5007477 0.51179755 0.3525004 0.0864095 0.106770866 0.1945853 0.08579149 0.12701152 0.17442742 0.16838637 0.35663605 0.4427333 0.075675145 0.04194978 -0.02689378 0.13455375 0.4686541 0.42306828 0.36630663 0.4479772 0.31439966 0.0914377 -0.081890635 0.40449196 0.4484496 0.4100247 0.39257312 0.33759052 0.20672226 0.21426685 0.0057573467 0.018867701 -0.019039586 -0.08539124 -0.038300075 -0.029673845 0.035664 -0.0013177134 0.21984261 0.4119358 0.52343535 0.5463624 0.34764358 0.33609474 0.3133965 0.18887198 0.16674966 0.20595753 -0.019834206 0.5479729 0.5418045 0.14311782 0.3724954 0.37604326 0.5423411 0.31071353 0.5805066 0.48786467 0.45030066 0.43757087 0.28430346 0.20134874 0.20769528 0.14778662 0.22690798 0.5731219 0.19524276 0.23448083 0.23322709 0.24972704 0.52996385 0.55825424 0.18418416 0.4149096 0.48185873 0.17193496 0.19112907 0.0413834 0.038637064 0.3924163 0.2869965 0.52476096 0.50020206 0.577368 0.63403916 0.6469331 0.69104254 0.6459417 0.63868034 0.7153336 0.70139563 0.38300592 0.28854188 0.36734396 0.5616375 0.6373709 0.6441758 0.66358435 0.58670443 0.52695847 0.45751363 0.22485808 0.25086427 0.3074221 0.2863046 0.24209702 0.79814845 0.8090886 0.7542869 0.5586183 0.35716715 0.12814318 0.20695463 0.261314 0.80289865 0.34914383 0.17276548 0.7839575 0.2977978 0.7424129 0.66980255 -0.030341145 0.18254592 0.45692605 0.3135558 0.3135026 0.48907608 0.07507829 0.019547597 0.51786995 0.5193936 -0.45186764 -0.42424038 0.46550754 0.44449818 -0.46990708 0.35166252 0.34644693 0.2613377 0.3034776 0.031588376 0.20267025 0.15932798 0.17883766 0.22365034 0.17486748 0.0014149281 0.31979436 0.31069934 0.29756734 0.2465984 0.17399454 0.109006256 -0.16126738 -0.2748011 0.1885257 0.37488553 0.35837525 0.34437647 0.34041953 0.37776017 0.32292783 0.4177081 0.14280792 0.113370776 0.10864707 0.2639717 0.32978204 0.3130405 0.40129203 0.33361673 0.23223099 0.2457822 0.15415761 0.08995549 0.18342343 0.4601767 0.4316312 0.3622725 0.2898743 -0.11514224 -0.16361192 0.06508041 0.043302402 0.48042655 0.47559446 0.43506742 0.18504226 -0.13632363 0.017728524 -0.14715047 -0.24984863 -0.15104866 -0.38347816 -0.29823688 0.48333883 0.48290545 0.45012498 -0.09087236 -0.027498364 0.007019181 0.0082169995 -0.10226238 -0.09082154 -0.25270227 0.21095541 0.4579168 0.55969894 0.5411661 0.46787268 0.46650386 0.4474349 0.4121857 0.3445801 0.29941288 0.23064426 0.06131633 0.12414564 -0.06110081 -0.059225187 -0.011540547 0.53314376 0.47823447 0.46337074 0.40766823 0.21578115 0.20642842 0.22519398 0.10535814 0.015486612 -0.12087271 0.48401415 0.51152265 0.51794124 0.47943127 -0.019411037 0.35387075 0.35801762 0.45563313 0.30439326 0.09648857 0.16963693 0.24033274 0.5538684 0.17751853 0.22543868 0.23701969 0.23611987 0.19276217 -0.04187893 0.3989017 0.47441155 0.5071571 0.23000464 0.03773242 0.3999055 0.10645342 0.122159556 0.35500428 0.17372496 0.4839911 0.46345037 0.5181597 0.5890738 0.5412836 0.54570276 0.67319095 0.5921849 0.59316623 0.70774734 0.6800585 0.3180687 0.32511464 0.4641289 0.52653444 0.57923627 0.6444974 0.58183867 0.5319333 0.46221697 0.14944854 0.06278915 0.038661644 0.1245411 0.09214296 0.2554475 0.1955783 0.7208533 0.6763199 0.64597464 0.2949807 0.18960427 0.039822213 0.16183574 0.65072095 0.49815315 0.043133803 0.53084123 0.45453846 -0.10569359 0.4498698 -0.18067025 0.010852225 0.047713958 0.4110788 0.283542 0.2260477 0.45270866 0.6531105 0.7344233 0.031788833 -0.05078868 0.7053904 0.76892525 0.82320714 0.8706256 0.20336996 -0.035252534 -0.32846823 0.4218263 0.8001212 0.8524686 0.8770821 0.21812928 0.21184778 0.1362108 0.04758521 0.3467903 0.22443143 0.23004967 0.25661415 -0.020005442 0.43825406 0.3847283 0.31269744 0.22976838 -0.041295428 0.09215762 -0.17287205 0.2743475 0.42534858 0.39578626 0.1707795 -0.23684648 -0.31588572 -0.34174305 0.29345042 0.19931264 0.26301616 0.24216357 0.1327924 0.29877087 0.31112742 0.23512286 0.17310299 0.14949101 0.08235502 0.25320622 0.34469783 0.34344625 -0.19445829 0.11334227 0.10032012 0.10815963 0.37398446 0.4025721 0.40337545 -0.23788461 -0.15373982 0.40913188 0.4545398 -0.105646 -0.3205759 0.40497956 0.44852823 -0.29582003 -0.37732872 -0.32441124 0.49595198 0.5289371 0.43570328 -0.09544526 0.4546481 0.41586387 0.45347306 0.117995374 0.058988716 0.110551395 0.14516719 0.03904538 0.008354742 0.031690616 0.37547168 0.50867105 0.5357771 0.559335 0.4911055 0.37735718 -0.027977422 -0.0407768 -0.13143435 0.094994575 0.5748074 0.5840415 0.5582433 0.49640453 0.276477 0.020172322 0.005318925 -0.1594909 0.4434694 0.17548615 0.3498389 0.40102267 0.37048516 0.40012074 0.40468183 0.16857406 0.20784447 -0.20199299 0.29367042 0.46300352 0.45674002 0.4702484 0.477346 -0.13374023 -0.220821 0.04511087 0.47830027 0.47286487 0.47836608 0.16803628 0.22906739 0.40842018 0.326563 0.4082921 0.52773046 0.46780598 0.46481603 0.63499117 0.46895027 0.4796117 0.6417732 0.56430787 0.45626274 0.39203882 0.28639847 0.34895408 0.42507246 0.4701212 0.5107156 0.56157696 0.48975962 0.58736134 0.63549316 0.32576215 0.21732587 0.11150807 0.06688563 0.14110729 0.3973524 0.39260387 0.57441515 0.60432756 0.2915681 0.20487265 0.18414949 -0.15425603 -0.15853572 0.05956831 0.17535837 0.043118834 0.43845233 0.43974742 0.41196895 0.37306854 0.26450932 0.43305957 0.3427573 0.08501428 0.4404375 0.4486729 0.4329627 0.3755691 0.35146013 0.31716496 0.4237553 0.4696189 0.30382365 0.4395845 0.43836772 0.42585564 0.44637817 0.4269809 0.4272458 0.36047167 0.28963017 -0.13491045 0.15490176 0.42820477 0.44831145 0.48249325 0.4998454 0.5207507 0.28511095 0.22906338 -0.05763204 0.050305653 0.23923278 -0.116104916 -0.099769056 0.026596278 0.5944031 0.638952 0.69863343 0.7611644 0.2657388 0.24730636 0.62532836 0.64638174 0.69255584 0.76764417 0.856225 0.25555637 0.017125763 0.6600152 0.7022493 0.7536543 0.82254845 0.8896295 0.93377495 0.23308307 0.21180092 0.19546154 0.3758555 0.7032004 0.7818517 0.8589066 0.9184634 0.9438081 0.20340505 0.21233769 0.802266 0.868626 0.9115981 0.1334901 0.23020807 0.49496776 0.4578026 0.3666644 -0.053927287 -0.03232096 0.1385778 0.17839506 0.23191842 0.10360201 0.49717742 0.4337241 0.3103858 0.1973954 -0.15025473 -0.18491459 -0.12606087 -0.20300508 -0.0436536 0.2768876 0.18147331 0.05264496 0.0470061 0.08815871 0.11592583 0.1256232 0.20303202 0.21930474 0.15259045 0.19366178 0.26582825 0.27198866 0.12205356 0.04319384 0.26049468 0.30957744 0.29923603 -0.16444606 -0.26008514 -0.34053767 -0.0660481 0.19510908 0.27880067 0.3436239 -0.22350468 -0.31722867 0.3425006 -0.32472518 0.3449794 0.36314967 -0.41306794 0.28143758 0.2028102 0.44057947 0.04691595 0.020629417 0.21498343 0.38670853 0.515316 0.37910843 0.042602975 0.023573712 -0.019554775 -0.06710969 -0.14672463 -0.13272987 -0.28463706 0.29374778 0.5539506 0.56437266 0.5911217 0.569691 0.50472486 -0.041019395 0.07778096 0.17044538 0.1806479 -0.22062552 -0.2814457 0.24973449 0.34548175 0.58851534 0.5947008 0.5860361 0.12109938 0.25839695 -0.20473766 0.08674388 0.41375956 0.42925218 0.35754612 -0.059592277 0.04229773 0.061140858 0.16036765 -0.20597999 0.4670899 0.48248488 0.47891897 0.28949475 -0.06737577 -0.101667866 0.07137765 0.49649584 0.49047047 0.47030956 0.4657095 0.43959445 0.38247743 -0.09295518 -0.11964225 0.14872533 0.48397002 0.47631532 0.44728446 0.44723552 0.43820888 0.23618704 0.3219666 0.33080083 0.52959627 0.3961184 0.39017093 0.595575 0.47979063 0.35153338 0.26666734 0.27835894 0.43576896 0.4270931 0.5600587 0.4848022 0.33136138 0.3226204 0.39162704 0.6091936 0.58843637 0.5907606 0.5813426 0.53401554 0.6181331 0.5357803 0.51799667 0.47326335 0.36767903 0.25404358 0.49604422 0.5580267 0.6291268 0.6889287 0.33043513 0.4026297 0.40094298 0.30438077 0.27112424 0.2299717 0.18063179 0.4911328 0.58845747 0.6657034 0.72555053 0.7181722 0.39705935 0.32504514 0.13389279 0.1400913 0.17890498 0.17494017 0.12562968 0.35766447 0.35501188 0.33828235 0.3468024 0.25623918 0.32571974 0.5184193 0.6915685 0.7374811 0.71994436 0.40308565 0.39968556 0.08911059 0.39445993 0.42915273 0.19894674 0.5703168 0.6939293 0.7178764 0.3565942 -0.102043435 0.39809692 0.42142063 0.26585972 0.18079427 -0.106053345 0.19242957 0.29869318 0.30682856 0.29947966 0.38047636 0.40936852 0.42860532 0.48031455 0.55070007 0.20685863 -0.15580575 0.065526254 0.14501657 0.26348627 0.27524847 0.41077656 0.43760848 0.4618305 0.55834794 0.56038725 0.59192055 0.1542011 0.19230126 0.36063743 0.5104794 0.5622413 0.49849683 0.49051976 0.5725202 0.5855706 0.609951 0.6314113 0.0035732724 0.05553274 0.14928004 -0.009327354 0.52105117 0.6195263 0.67903787 0.58877075 0.6320348 0.12135702 -0.06785806 0.5375111 0.81759167 0.90230334 0.25637987 0.95322645 0.21281053 0.23176946 0.114393905 0.6214087 0.95232546 0.96278477 0.13339767 0.79092526 0.88050866 0.92799604 0.59951776 0.6094341 0.64802855 0.7234118 0.65356123 -0.06166 -0.0021495074 0.044273503 0.08419204 0.11040273 -0.0613999 0.5457326 0.56841725 0.5543703 0.54198825 0.5753081 0.4685152 0.45721522 0.36399662 0.067391634 -0.023604382 -0.09587742 -0.12955953 -0.115150824 0.49032527 0.506441 0.5054626 0.30513555 0.4206319 0.4536646 0.061830755 -0.10365257 -0.14507756 -0.17623734 -0.17654225 0.44724473 0.41216624 -0.092833936 0.266057 -0.07373178 0.32625672 0.20091298 0.11621855 -0.025141 -0.023406044 0.013295539 0.079552315 0.17394556 0.22448903 0.2254774 0.12911779 0.32129592 0.33567512 0.13518731 0.35546938 0.19951124 0.3267691 0.20848787 -0.3262257 0.29718953 0.109848574 0.34279323 0.40081826 0.62141436 0.6107492 0.42913413 0.48026198 0.44553423 -0.04881072 0.11849226 -0.13623033 0.43965212 0.5015061 0.5471135 0.5764755 0.579613 0.53798777 0.21659343 0.2994908 0.28338435 0.2563214 -0.07186471 -0.12159381 0.4825799 0.58699095 0.58961886 0.5830238 0.07083879 -0.15642485 0.38165092 0.31308785 0.0037223692 0.061127204 -0.068912126 -0.018625308 0.41316897 -0.003069528 0.08052569 0.1299918 -0.0073408205 0.02167964 0.4473709 0.4783429 0.3331656 -0.009939194 0.034949634 0.41726577 0.45343757 0.45552182 0.43380556 0.4209541 0.38605714 0.35185206 0.07367553 0.18231116 0.24033195 0.4380775 0.43001062 0.41932622 0.12438501 0.22626814 0.2601968 0.3825698 0.24824134 0.2094661 0.23239818 0.36255324 0.3762653 0.6394158 0.62742317 0.569921 0.6616155 0.6528222 0.5832348 0.43361 0.54231477 0.6142033 0.4322226 0.28163782 0.599969 0.5817845 0.48368996 0.49431533 0.617753 0.26590145 0.1964137 0.12828837 0.3656103 0.35562283 0.16211362 0.32376158 0.6875165 0.6723763 0.34328863 0.23861232 0.17282178 0.15258344 0.21098179 0.12797755 -0.0026984364 0.3544575 0.6895225 0.47302032 0.41456294 0.17486404 0.1162237 0.670058 0.4588313 0.07257268 0.28988856 0.34614468 0.4605389 0.66154253 0.6238302 0.31191057 -0.21090473 0.28480107 0.35497183 0.3484919 0.26900086 0.2964298 0.32343844 0.5778589 0.5897938 0.18011455 -0.11384092 -4.0382147e-05 0.31579834 0.3198392 0.3073185 0.2789117 0.30412674 0.60050106 0.10051203 0.1984936 0.42657697 0.6366858 -0.014148815 0.12009236 0.46690562 0.5007799 0.46776018 0.5143003 0.6524466 0.65920955 0.5906074 0.6346489 0.5380697 0.6031513 0.67674696 0.6728169 0.67033446 0.22415428 0.120836236 0.7417675 0.8296708 0.7082825 0.24203968 0.24856564 0.88647306 0.21658914 0.13139701 0.9399731 0.92346275 0.7473821 0.8144946 0.8789685 0.85717344 0.038189173 0.14223625 -0.15813547 0.6310643 0.74785167 0.84873843 0.8958849 0.60316867 0.7138742 0.7040638 0.121238545 0.019690134 -0.06920911 -0.006634973 -0.10842906 0.57635665 0.51923907 0.5111385 0.40069956 0.4120639 0.2873652 0.16546308 0.03515136 -0.026141569 -0.14854157 0.47810844 0.5123594 0.39365864 0.3561318 -0.23387882 0.43179077 0.4474389 0.05651532 -0.07845018 -0.10779828 -0.042918835 0.31579828 0.28589815 -0.08292741 -0.13126194 -0.2094447 0.08086669 0.12111699 0.22263409 0.100942045 0.09460831 0.26372427 0.022027746 0.06213619 0.3247025 -0.06878341 0.4974352 0.48041046 0.45538247 0.105