# vtk DataFile Version 2.0
Really cool data
ASCII
DATASET POLYDATA
POINTS 8585 float
-11.704695 10.988347 11.615687
-11.710989 11.111845 12.052919
-11.85914 11.637895 11.054273
-11.9715395 11.632777 11.511807
-11.791434 11.6120825 12.351863
-11.659268 11.576431 12.748631
-11.921347 12.561039 10.938042
-12.086838 12.499829 11.524553
-11.97461 12.488821 12.208689
-11.672528 12.184401 12.771766
-11.806231 13.115905 10.933612
-11.876815 13.269279 11.521208
-11.91742 13.098415 11.944886
-11.313687 10.905118 10.903642
-11.476118 10.806101 11.341527
-11.489681 10.833994 12.016179
-11.199353 11.078407 12.877574
-11.079227 11.834144 10.158584
-11.597374 11.479199 10.773113
-11.212702 11.703501 13.197281
-11.102483 12.451636 10.083711
-11.546867 12.610411 10.416817
-11.303595 12.377781 13.2723255
-10.886296 12.464871 13.623284
-11.042461 13.238442 10.232167
-11.416331 13.410674 10.658648
-11.580326 13.631878 11.226784
-11.4691515 13.558551 12.338081
-11.184471 13.288383 12.905218
-11.256228 13.85976 10.853176
-11.248096 13.925118 11.623089
-11.226203 13.85298 12.260605
-10.259782 10.223296 11.007797
-10.698297 10.311029 11.74515
-9.87944 10.187734 12.543978
-9.861935 10.164575 14.921502
-10.237733 11.03251 10.014527
-10.667774 10.502781 12.588005
-10.183867 10.697093 13.879023
-10.187842 10.877778 14.573275
-9.935908 10.490718 15.455214
-9.920632 10.662038 16.541557
-9.752577 10.822496 17.037611
-10.32412 11.6530695 9.718637
-10.020449 11.401134 16.392279
-9.780981 11.353515 17.081356
-9.85118 12.626239 9.317307
-10.427792 12.508851 9.661974
-10.264325 12.369338 13.988957
-9.749969 11.978071 15.689172
-9.696329 12.027589 16.373194
-10.291364 13.218592 9.6936035
-10.044671 13.975365 9.781843
-10.334449 14.578492 10.806363
-10.282821 14.473887 12.259675
-9.897838 14.942138 10.210297
-10.041293 15.122692 10.66574
-10.0016775 15.185523 11.322297
-9.583294 15.868397 17.502867
-9.606473 15.97849 18.014225
-9.742609 16.845758 16.503164
-9.7663765 16.830448 17.287172
-9.870311 16.861088 17.976604
-9.68269 17.904491 15.926902
-9.975278 17.802662 16.459995
-10.131246 17.7341 17.534798
-9.904693 17.617805 18.078049
-9.659272 18.27472 15.935204
-9.96365 18.496056 16.704668
-10.055342 18.428503 17.48829
-9.854855 18.391602 18.137136
-9.770233 18.973383 16.791468
-9.889093 18.871311 17.310892
-9.694516 18.909441 18.051847
-8.620905 7.162461 12.522079
-8.730872 8.035411 11.014281
-8.724736 7.690889 11.587502
-8.681723 7.477797 12.346287
-8.618148 7.5782027 12.81963
-8.675122 9.015684 10.428991
-8.868953 8.355639 11.371127
-8.775876 9.091933 14.116478
-8.716847 9.357054 10.575172
-8.958833 9.448403 14.832815
-9.373236 9.862993 15.64392
-9.366726 9.993955 16.478806
-9.05179 10.115748 17.045412
-8.948625 11.189564 9.328623
-9.261304 10.576675 9.886515
-9.371167 10.609709 17.262762
-9.303197 11.687952 9.20284
-9.440457 11.448754 17.383137
-8.847953 11.267085 17.655483
-9.40802 12.721743 9.188399
-9.256674 12.613855 16.507158
-9.504776 12.085875 16.94229
-9.379418 13.794342 9.449495
-9.203563 12.915349 15.501583
-9.161267 14.056771 9.446585
-9.385353 14.334355 9.563954
-8.948973 14.619421 13.851845
-8.925389 14.914804 16.813944
-9.195303 15.269535 9.863571
-9.324702 15.529448 12.409666
-9.306182 15.172447 12.948106
-9.086109 15.288513 16.525692
-9.474984 15.675194 17.188501
-9.232535 15.595161 18.560987
-8.967004 15.308959 19.060133
-8.948889 15.947277 11.731548
-8.728637 16.17044 12.1238
-9.285451 17.054644 15.479703
-9.495963 16.121113 18.552597
-9.124549 16.49712 19.09945
-8.751576 16.897268 19.767197
-9.451758 17.45038 15.68711
-9.527906 17.435448 18.674908
-8.771349 17.660671 19.401535
-8.887918 18.64969 15.277785
-9.519863 18.439995 15.811083
-9.486276 18.577888 18.546408
-8.907716 18.026896 19.169064
-9.264156 18.94674 15.874106
-9.418385 19.344505 17.325584
-9.26113 19.170443 18.22785
-8.84871 18.908998 18.872217
-8.872431 19.847225 17.407295
-8.541548 22.023045 12.665758
-8.651606 22.466509 12.773268
-8.564334 22.511627 13.527755
-8.584294 22.937012 13.004911
-8.606698 22.950787 13.688547
-8.530584 23.014374 13.936354
-7.8102584 6.3400292 11.822782
-7.7539306 6.3244166 12.3084
-7.8229074 6.8772316 10.798472
-8.22683 6.8029737 11.696799
-8.126136 6.661881 12.346295
-8.121107 7.0070024 13.016567
-8.096877 7.748787 10.043853
-8.127913 7.571974 10.365581
-8.422483 7.442743 13.04487
-7.8848867 8.815038 9.334197
-8.154882 8.577807 9.605321
-8.003811 8.45364 14.3580885
-7.954178 8.895638 15.474227
-8.059859 9.218457 16.14331
-8.133227 9.86864 9.57163
-8.468147 9.611613 16.493225
-8.836116 10.070808 17.160421
-8.127066 11.05359 9.101858
-8.813002 10.469941 17.504274
-8.49307 10.803408 17.731316
-8.295805 11.327942 8.989864
-7.787539 12.158328 19.399399
-8.6452055 12.589121 9.069023
-7.8657513 12.496492 19.515017
-7.7039747 12.394267 20.031748
-8.379522 13.339777 9.292452
-8.344763 13.202403 16.550497
-8.4645195 13.728514 18.71393
-8.068106 13.637156 20.273474
-7.715093 13.9046755 20.899704
-8.464015 14.561471 9.469929
-8.212298 14.672499 9.647397
-8.251698 14.437033 20.121159
-7.9742036 15.063189 20.619558
-8.153981 16.213234 10.297049
-8.173663 16.52056 20.283928
-7.730581 18.158806 8.953499
-7.9032755 17.822447 9.707133
-8.015791 17.787289 10.539806
-8.159955 17.621506 11.19276
-7.830157 17.632666 12.485016
-8.62953 17.297354 14.854781
-8.628322 17.72469 19.583782
-8.180387 17.222862 20.159761
-7.736092 18.715326 8.570126
-8.106296 18.598993 9.632886
-8.096466 18.606058 10.469327
-7.673562 18.020535 12.380894
-8.511027 18.497217 19.247036
-8.083719 18.24072 19.80812
-7.570156 19.80334 8.102186
-7.87451 19.46648 8.752992
-8.031795 19.259981 9.271527
-8.617672 19.401764 15.93212
-8.278351 19.650103 18.431753
-8.340178 19.144686 18.948174
-7.6943502 19.91656 8.475285
-7.700085 20.204426 9.549091
-7.702909 20.229952 10.336834
-7.608377 20.705212 12.153097
-7.985939 20.986685 13.508812
-8.640182 19.910534 16.585165
-8.261458 20.398823 17.477985
-8.277279 19.919554 18.270227
-8.398481 21.664732 12.805043
-8.49788 21.685246 13.048298
-8.122091 21.908072 15.395245
-7.837881 21.962845 15.764884
-7.98579 20.630365 17.136026
-7.7226267 22.587967 11.350823
-8.086112 22.656368 11.661385
-8.501674 22.184284 12.262021
-8.488905 22.53443 14.351334
-8.08681 22.741478 15.530753
-8.083527 23.462086 11.779867
-8.386967 23.359455 12.594089
-8.458595 23.457249 13.414904
-8.316769 23.008417 14.543753
-7.8552628 23.45644 15.2171755
-7.8646317 24.414688 11.752414
-8.28894 24.420696 12.717363
-8.315405 24.486694 13.291332
-8.062908 24.428099 14.146053
-7.9103417 25.106613 12.765144
-8.006179 25.012293 13.484144
-7.8079963 24.988022 13.973344
-7.261824 6.078374 11.660443
-7.337941 6.100503 12.267349
-6.9898224 6.1770105 12.881675
-7.2054434 7.085919 10.00233
-7.274807 6.6352882 10.7071
-7.3565464 6.4710684 13.109542
-7.1446066 7.1994095 14.178393
-7.359716 8.038656 9.298138
-7.369657 7.6965923 9.534708
-7.5554047 7.80939 14.326081
-7.091122 8.11516 14.893189
-7.6056776 8.354451 9.264035
-7.4816594 9.251921 16.40842
-7.2228193 9.351019 9.065284
-7.437381 10.249541 17.566805
-7.2123604 10.16533 17.668447
-7.924515 10.437949 17.469463
-6.81135 11.104031 18.83863
-7.078857 11.179897 19.458149
-6.815552 11.31538 20.38728
-6.610738 12.221994 -3.9827662
-7.7276654 11.386783 8.800492
-7.5663385 11.729593 19.432365
-7.199406 11.78497 20.259438
-6.730928 12.8273535 -4.294781
-6.712047 12.724445 -3.6386924
-6.6193686 12.914986 -3.0044816
-7.2109137 12.365036 8.814577
-7.536025 12.342491 20.201815
-6.7282734 13.454599 -4.35705
-6.7766542 13.533014 -3.803463
-6.6293173 13.426064 -2.9304447
-7.596348 12.918919 9.303804
-7.314244 13.723822 21.172926
-6.6134176 13.846083 -4.3775344
-6.6268964 14.01626 -3.7778604
-7.317288 14.377745 21.193624
-7.0140824 15.056763 9.408878
-7.1613426 15.070574 21.095345
-7.568224 16.076962 9.865527
-7.2477336 16.735662 20.666645
-6.8600492 18.086092 7.9908237
-7.3006825 17.537193 8.8486185
-7.520276 17.427866 20.408909
-6.8806076 19.227352 7.279492
-7.3190007 18.971062 7.893452
-7.470122 18.264387 8.54405
-7.2903247 18.776876 12.2441845
-6.8967037 18.63954 13.628589
-7.7000504 18.263422 15.020361
-7.435157 18.149721 20.072699
-6.9420357 19.67968 7.092658
-7.3940587 19.729963 7.675387
-7.4672256 19.451035 15.332064
-7.2959757 19.506012 19.297056
-7.5020566 18.961048 19.660156
-6.926486 20.388107 7.1515584
-7.289327 20.335058 7.618524
-7.401401 20.433792 9.533293
-7.582321 20.499645 13.612191
-7.5499654 20.16637 18.455793
-7.457371 19.838411 18.83029
-6.9715877 20.861784 7.6077847
-7.2079816 20.919668 9.992859
-7.3688326 21.327494 16.251934
-7.589224 20.672731 17.502811
-7.560159 20.587383 17.887548
-7.1089134 23.337791 10.866531
-7.6071186 23.277308 15.619603
-7.2412243 23.10578 15.847536
-7.3432765 24.394743 11.193762
-7.5419836 24.50452 14.53014
-7.5040865 24.117317 14.969181
-7.132257 24.872108 11.312685
-7.359066 25.136492 11.785599
-7.572014 25.334417 12.4607315
-7.5928674 25.407745 13.399763
-7.2240686 25.161224 14.143484
-6.5383096 6.2294827 11.112238
-6.569856 6.0394974 11.6126375
-6.642842 6.0458317 12.334585
-6.5591397 6.3135405 13.110866
-6.6103835 6.9506702 10.076506
-6.527848 6.6785936 10.4724455
-6.5144076 6.500526 13.4015045
-6.60236 6.914484 14.01312
-6.5935063 7.92831 9.239363
-6.310083 7.4897428 9.52287
-6.3386555 8.032543 15.259286
-6.4002056 8.52412 9.081488
-6.096008 8.969655 16.566605
-6.518095 9.5351 9.017645
-6.1434603 10.049419 17.387316
-6.9134564 10.168429 17.763023
-5.7540026 11.326565 -3.8251715
-6.678854 10.440645 17.96738
-6.463142 10.947535 19.563656
-6.3841515 11.193878 20.329231
-5.9125557 11.975428 -4.9719634
-6.055683 11.753756 -4.338457
-6.225378 11.794813 -3.5607064
-6.0291023 11.989103 -2.5532238
-6.7833233 11.238823 8.741376
-6.719851 11.473608 20.652073
-6.432627 11.768535 20.898874
-6.0737824 12.630053 -5.1407084
-6.526209 12.623986 -4.521515
-6.548811 12.329236 -3.8345394
-6.323537 12.523976 -2.5119708
-6.016613 12.582455 -1.5953398
-5.8438797 12.764493 -1.2560158
-6.764724 12.562676 9.029476
[...]
POINT_DATA 8585
SCALARS features_00 float 1
LOOKUP_TABLE default
0.66653454 0.64560676 0.74634314 0.7351086 0.66356087 0.6068611 0.74426144 0.7650161 0.74043095 0.6615141 0.69511783 0.70365334 0.7273638 0.66696167 0.6515722 0.61254275 0.5114309 0.64489293 0.7250576 0.5226587 0.61541474 0.6832169 0.5902151 0.4987883 0.5669987 0.61820275 0.6358277 0.64584154 0.6145374 0.5791751 0.5809128 0.57754874 0.4983061 0.5384238 0.31495813 0.32950437 0.49443403 0.452685 0.28150502 0.33100286 0.49042702 0.6321415 0.6255036 0.4934796 0.6198709 0.6426467 0.40005213 0.48655897 0.33301586 0.438424 0.50219125 0.45421958 0.4351944 0.49570197 0.38075787 0.44099617 0.46142 0.40983784 0.43384308 0.44045934 0.55075073 0.5423203 0.52215886 0.55772984 0.6042278 0.6237985 0.57532454 0.5624573 0.6305451 0.6439511 0.5928998 0.6316749 0.6433983 0.59461015 0.55293787 0.5274352 0.5712894 0.5372222 0.46845898 0.3972519 0.46977895 0.16941655 0.34632176 0.26851264 0.4277227 0.5087229 0.46939003 0.32351723 0.29161084 0.5592679 0.3714217 0.61785156 0.478727 0.35198256 0.38666025 0.5574455 0.33834308 0.2131949 0.3104331 0.3523669 0.106646344 0.29927072 0.3279648 0.23456734 0.18957968 0.38520432 0.42408153 0.39556414 0.37169775 0.25535783 0.19944206 0.49522644 0.44742727 0.45129377 0.4430192 0.52346706 0.51410836 0.4658363 0.47105086 0.5481449 0.54421693 0.47971624 0.5588376 0.62275094 0.5582089 0.5037606 0.57356346 0.44121778 0.466634 0.45559052 0.48079252 0.47982505 0.49104854 0.6671972 0.6315064 0.68170536 0.6340891 0.6041051 0.5261655 0.56677955 0.5884161 0.46950182 0.47990912 0.48519766 0.21704318 0.21689466 0.27723116 0.3345684 0.35599813 0.42580384 0.27438563 0.43505383 0.3511048 0.29307544 0.3207636 0.2934388 0.3748222 0.44000638 0.21626392 0.165993 0.27463582 0.4956966 0.5223713 0.19013909 0.14840387 0.4372826 0.4423102 0.21255398 0.41571167 0.38107595 0.32775953 0.26891834 0.1440692 0.008079872 0.4104814 0.46101424 0.4421296 0.41924906 0.38355494 0.3185298 -0.0030924752 0.47838002 0.4651603 0.503957 0.44437203 0.41256216 0.5583119 0.5093266 0.49924684 0.48596293 0.4193048 0.31067201 0.1976478 0.32481748 0.5901106 0.46557325 0.505412 0.40730557 0.4128827 0.43371838 0.38976106 0.38155878 0.43097943 0.46674877 0.44069976 0.47366318 0.47329774 0.56413186 0.5202241 0.5227196 0.5127801 0.5199421 0.6373161 0.6603688 0.64447916 0.60740155 0.7051784 0.6713882 0.62882733 0.70160365 0.65110147 0.59914505 0.64522564 0.7046261 0.5698673 0.41944194 0.57904047 0.6017747 0.3093765 0.22253515 0.5433877 0.21536319 0.45442384 0.17385657 0.13268289 0.26599678 0.19044828 0.30240414 0.43126905 0.68256533 0.26326495 0.31057367 0.43062556 0.716699 0.70354486 0.6845473 0.14100257 0.4582706 0.7233727 0.71096015 0.6744822 0.13774876 0.52739584 0.7023702 0.67914766 0.48465306 -0.06615682 0.428437 0.049305066 0.38237533 0.33877194 0.27906832 0.4358894 0.49477202 0.4493852 0.38850862 -0.03732641 -0.40277672 0.32882035 0.46731728 0.5666866 0.52604413 0.26222876 0.5009056 0.49803728 0.619303 0.5877544 0.4328941 0.15686725 0.49173355 0.49854937 0.58648336 0.3522921 0.15995955 0.41186193 0.4548089 0.3674365 0.47696716 0.43740463 0.50043344 0.56478786 0.5261837 0.5281763 0.6411123 0.69662595 0.6600807 0.57722 0.7062278 0.6879673 0.6327205 0.5609012 0.65801334 0.68154943 0.5237187 0.4471025 0.60066444 0.626519 0.23681715 0.56787515 0.099683106 0.46692562 0.06844265 0.087174125 0.6081537 0.05173816 0.29912645 0.43366432 0.6555433 0.6486824 0.64584017 0.61158717 0.21289247 0.47401917 0.527381 0.69646186 0.7047807 0.6854632 0.64373404 0.5642297 0.5329125 0.03298588 0.53439754 0.70489216 0.6366167 0.59123576 0.5312381 -0.042143825 -0.1626654 0.4880758 0.4690138 0.6486119 0.6338012 0.6167633 0.6068779 0.55155504 -0.19481431 -0.19293231 0.4435635 0.5627675 0.5327199 0.5231488 0.35898674 0.029539153 0.34746855 0.2228229 0.37673724 0.39303944 0.43948954 0.36769536 0.4316405 0.57489705 0.45253253 0.40767163 0.60297203 0.40564442 0.47170895 0.48208869 0.49443305 0.4714349 0.388215 0.0786962 0.35930568 0.10135724 0.426869 0.39691958 0.27377847 0.4765687 0.507175 0.6383674 0.5041442 0.63058233 0.54539025 0.6290586 0.5766078 0.532633 0.6461608 0.6248523 0.56721604 0.48872387 0.39987507 0.6028962 0.620268 0.27240548 0.5579519 0.031948097 0.4908203 0.05741404 0.5955854 0.5846988 0.4791978 0.3804427 0.47472465 0.51149803 0.6371399 0.61689055 0.54595983 0.473584 0.43014425 0.37237233 -0.09607096 0.53721994 0.66342366 0.45835802 0.37250426 -0.23463583 0.50482285 0.6202206 0.4621631 -0.23473415 0.4519329 0.4615286 0.5319505 0.5965832 0.5188454 0.4302531 -0.22465616 0.40851492 0.50182337 0.5133966 0.47430205 0.50841194 0.47434837 0.4898885 -0.09759318 -0.0676673 0.35859627 0.053141322 0.27600145 0.3050072 0.33612797 0.34817827 0.23200373 0.32401848 0.32303077 0.44716343 0.30114272 0.37077686 0.216977 0.20376675 0.07400777 -0.08015545 0.2978595 0.052756976 0.032510288 0.2892271 0.014916279 0.40122285 0.26330563 0.19684935 0.35643607 0.25031513 0.44149503 0.2551253 0.38655007 0.53540206 0.55126536 0.4783391 0.45437267 0.42967725 0.36749792 0.5800941 0.478104 0.4055675 0.23033914 0.22805384 0.5375378 0.44681054 0.41547343 0.47868603 0.41113573 0.37594122 0.4396268 0.44193238 0.35240772 0.34965637 0.41401902 0.43392932 0.4374984 0.47113705 0.52712536 0.37597308 0.38972327 0.4362178 0.46823382 0.43632463 0.31330925 0.1705937 -0.03621453 0.5222264 0.53639436 0.4148508 0.46170923 0.49508208 0.28364575 0.23596989 -0.19355157 0.4980019 0.481617 0.5020555 0.3636861 0.31200927 0.41553754 0.43385905 0.07238226 -0.18119371 0.43951476 0.45346782 0.24477044 -0.19427955 -0.20224868 0.40907753 0.4572774 0.4198758 0.39013606 0.39176017 0.33277243 0.35164446 -0.08120453 0.32285124 0.3468144 0.30865473 0.27004158 0.0028008092 0.24216336 0.24170047 0.2859529 0.28501397 0.20249471 0.22153676 -0.16519305 0.09641914 -0.46667302 0.09354487 0.17150065 0.07349111 0.011191972 -0.1408956 0.2331726 0.29630393 0.2692428 0.37644672 0.35595 0.31205645 0.2485083 0.14509577 -0.27126795 0.3283035 0.32444927 0.41518822 0.42736194 0.31221727 0.056808695 -0.13908483 -0.26000452 0.10882498 0.22268234 0.25050408 0.28633827 0.4976755 0.49177703 0.51262057 0.11050025 0.13486776 0.525236 0.54073644 0.55582917 0.534858 0.4650724 0.53505915 0.5389593 0.503212 0.53130794 0.5212529 0.47687227 0.58400035 0.5794868 0.55011094 0.6023413 0.5938471 0.284855 0.36724874 0.35131648 0.23868841 0.2920801 0.32095575 0.4382124 0.5109107 0.58397186 0.39495063 0.3908726 0.5439191 0.59275275 0.30704665 0.5585504 0.5963608 0.49460417 0.3275336 0.23639628 0.2879704 0.27753603 0.33561718 0.36089945 0.3833233 0.39027533 0.41827768 0.31268543 0.32811773 0.19633497 0.62742686 0.62440556 0.51050556 0.3435744 0.3056761 0.46856672 0.5186409 0.6119393 0.5667957 0.5025271 0.5941161 0.58454704 0.5222361 0.32642314 0.18315858 0.20867725 0.13424402 0.46772242 0.47612658 0.5317353 0.024456732 0.008767867 0.1422604 0.14387062 -0.12142997 0.4200611 0.31853843 0.21024899 -0.049245648 -0.034531903 0.2736458 0.2961287 0.2617157 0.16537866 0.16931872 -0.036318004 0.18886626 0.24191195 0.1848515 0.45343745 0.38719168 0.16244885 0.22573078 0.4380928 0.38778794 -0.45132333 0.39925826 0.33548802 0.26085582 0.1895515 -0.36987954 0.19239871 0.14199668 0.07867044 0.13206294 0.056699693 0.16805124 0.2465857 -0.17508098 0.25751022 0.25933632 0.24078993 0.41800484 0.25061616 0.2298708 0.4804363 0.11562192 0.11356798 0.12345685 0.5042144 0.2812167 0.10986799 0.32440203 0.5019622 0.5130517 0.47921664 0.46392012 0.39217848 0.5340964 0.47438562 0.364164 0.47527426 0.45690554 0.40100998 0.59343874 0.603457 0.52107227 0.45555323 0.8140882 0.8777644 0.8784692 0.60833174 0.618364 0.60584116 0.5711509 0.48571163 0.7269342 0.8189231 0.8783599 0.8832359 0.61744237 0.6723228 0.7381613 0.83549887 0.8649691 0.6701735 0.7415557 0.81058514 0.40662217 0.2816444 0.31812388 0.32673216 0.3902947 0.45027128 0.5668628 0.6233897 0.20466365 0.63649464 0.6029115 0.5460513 0.2959106 0.34338415 0.3480798 0.37538517 0.37572843 0.015173953 0.63548034 0.63909054 0.65880203 0.6388668 0.5981313 0.4923591 0.14544073 0.12668562 0.1581578 0.1789542 0.21463783 0.24978781 0.27828565 0.30491298 0.3317708 0.32578927 0.35431582 0.09751 0.04062957 0.020114768 0.650483 0.6463563 0.2835649 0.6081574 0.6273469 0.40917298 0.5897285 0.58493817 0.3429099 0.57551795 0.55873394 0.11058225 0.10525395 0.29715896 0.40135285 0.5203601 0.47866848 -0.061725177 -0.08862312 -0.11394507 0.22647578 0.070179865 0.10658845 0.05896301 0.10569939 0.03464288 0.09409689 0.11621628 0.17217444 0.054282155 0.070527755 0.1482315 0.14766563 0.4648412 0.4183557 0.48371324 0.460434 -0.23304889 0.47735626 0.4516667 -0.15260668 0.3933696 -0.06126853 0.092614435 0.22779836 0.2992193 0.2817582 0.08402406 0.21158879 0.35028327 0.2559003 0.23676023 0.16222347 0.31912374 0.3648563 0.39226794 0.24867071 0.21064657 0.407593 0.4075727 -0.107720494 0.33490255 0.36623165 0.22585082 0.19030815 0.19982523 0.27920538 -0.011340482 0.46689576 0.47702527 0.48390973 0.05347149 0.109261364 0.47597563 0.47452766 0.13589369 0.44501662 0.41200757 0.3817097 0.3438332 0.2910438 0.66558385 0.79167104 0.8272959 0.85346764 0.39729375 0.37081176 0.34224892 0.5672262 0.34366596 0.35821795 0.7048823 0.8634198 0.8370824 0.51174664 0.6012289 0.5958486 0.49586082 0.3751366 0.58045393 0.6110873 0.8479134 0.8388476 0.51234496 0.6021745 0.6696255 0.78066003 0.3498338 0.43353426 0.50233173 0.52385557 0.63059765 0.65222174 0.22218181 0.66587687 0.61743486 0.5521786 0.49520016 0.25339878 0.24825493 0.28740627 0.39427358 0.43101466 0.40631968 0.33772928 0.07262099 0.1305113 0.6587502 0.6466714 0.6436111 0.6428642 0.40331113 0.14806323 0.15947852 0.16782494 0.20800716 0.044314478 0.041170936 0.024809603 -0.0539475 -0.14388378 0.4697501 0.5564295 0.6481433 0.14172064 0.6256399 0.1216134 0.58629084 0.0859797 0.57257926 0.5639812 -0.06888651 0.06015166 0.08747026 -0.068966 0.11588347 0.543455 0.5246906 0.045713715 0.11474453 0.4794103 0.18468791 0.0759426 0.124750815 0.41024315 0.07892543 0.07037201 0.056263126 0.058349956 0.1514599 0.16800924 0.17713064 0.18801247 0.49423045 0.4795799 -0.14822277 0.13951328 0.07363376 0.1337572 0.16166897 0.17269075 0.18684064 0.4916842 0.030134678 0.23556137 0.24294826 0.47101736 0.13325757 0.22334175 0.25066313 0.30110875 0.18777384 0.2703917 0.23525858 0.23890045 0.2568519 0.27838266 0.2123028 0.23890354 0.33151877 0.26822096 0.24549454 0.21295898 0.37294585 0.34727907 -0.20479012 0.32259965 0.34060082 -0.041622534 -0.09758329 0.21294825 0.17742777 0.16579269 0.014290046 0.086774245 -0.035885222 0.22225346 0.4691773 -0.20469524 -0.026777534 0.22160289 0.32021546 0.48973557 -0.023982376 -0.1424501 0.18376744 0.48435503 0.46601105 -0.032029912 -0.14504679 -0.04573603 0.5953524 0.4700598 0.44534057 0.42401603 0.30101407 0.18075007 -0.0038976222 0.7036797 0.78156054 0.4201412 0.40374273 0.38608128 0.34937435 0.25080064 0.42267883 0.11355567 -0.028728276 0.79527235 0.4022749 0.4663993 0.4134702 0.43865466 0.32170564 0.114398435 0.06843959 0.77123034 0.31417277 0.38941494 0.47105765 0.5873428 0.72095823 0.37514722 0.41091222 0.48321575 0.597587 0.41068393 0.41657367 0.4471376 0.55090666 0.6742512 0.2811468 0.697191 0.68835896 0.5988561 0.56135106 0.53358036 0.18707564 0.15301582 0.17206691 0.35138237 0.39826077 0.37428004 0.018894577 0.129421 0.65704167 0.61137795 0.5977913 0.56519556 0.50130635 0.45525968 0.12908845 0.13137642 0.04446639 0.114235274 0.036615983 0.016388759 -0.010932744 -0.1675437 0.5177157 0.6016633 0.099034525 0.39659062 0.60950714 0.15869066 0.56007683 -0.055837102 0.5459558 -0.04887144 0.52218413 0.49620947 -0.14856029 -0.0013768226 0.47765583 0.17284532 0.11102614 0.07535756 0.2614242 0.10871492 0.13833149 0.10804969 0.08124591 0.06833883 0.18386205 0.44777483 0.15723166 0.044575654 0.04366464 0.11943783 0.17247659 0.1191925 0.20613925 0.21383929 0.24493375 0.24420005 0.24782722 0.098506615 0.20645119 0.2034146 0.2631514 0.26449943 0.24168319 -0.03958849 0.17240143 0.13416411 0.05568405 0.15908849 0.19755638 0.16855535 0.098040566 0.18325964 0.1524966 0.19143748 0.18652922 0.20391776 0.050327696 0.15564057 -0.3239413 0.118820705 -0.22192615 0.082839906 -0.013213562 0.2660172 0.42468935 0.48265833 0.4335069 0.3817495 0.47704205 0.48955095 0.5050766 -0.08101129 0.2659612 0.41143394 0.47535557 0.48981476 0.46585757 0.4423669 0.7511935 0.43333864 0.42583522 0.41779745 0.40156078 0.24302281 0.18883884 0.28028595 0.6959127 0.41418672 0.39342722 0.3221118 0.35896814 0.25033456 0.05707051 0.6761526 0.041665725 0.26705894 0.62914693 0.30511308 0.35745943 0.41021612 0.44637004 0.5075464 0.55816877 0.36882398 0.40204626 0.4179554 0.42493847 0.54207563 0.56202257 0.31698173 0.538794 0.65355694 0.5560773 0.53854096 0.5357164 0.1934982 0.13404043 0.3105047 -0.015472397 -0.03227535 0.12607764 0.24489933 0.6118269 0.5786284 0.574116 0.5295248 0.5187438 0.51816726 0.50856364 0.4621652 0.0864591 0.28244096 0.14852834 0.023002755 -0.005503811 -0.1281921 -0.3132343 0.46221566 0.53478956 0.48757458 0.043630067 -0.024880879 0.27973288 0.31881756 0.40233424 0.47372252 -0.049097978 -0.032911964 0.09880161 0.5336497 0.49176022 -0.3037616 0.5109205 0.48762298 0.48273665 -0.32738566 -0.0015253425 0.47684306 0.42076346 0.11600002 0.28091818 0.1980272 0.17159611 0.028987624 0.105880424 0.0601971 0.19040117 0.0707366 0.021886202 0.14130151 0.053794652 0.19639711 0.12194021 0.22359721 0.24338633 0.26195452 0.19585036 0.123267934 0.050110612 0.22359464 0.24714947 0.2210412 -0.008865997 -0.11340591 0.052603476 -0.055007577 0.098326206 0.11108938 -0.06737671 0.1349882 0.12579611 -0.43571103 -0.011162281 -0.078800105 0.0043699145 -0.46773496 -0.08134906 -0.2723215 0.33735055 0.38983536 0.03419867 -0.08290686 0.4673385 0.4381394 0.34133872 0.49951768 0.48527232 0.45641288 0.42699462 0.46223503 0.10391422 0.33393514 0.4286068 0.13766311 0.567853 0.4150191 0.41498172 0.3221329 -0.27552488 0.09332731 0.40912092 0.38031113 0.21549174 0.054816686 0.59540623 -0.019452862 0.00069853663 -0.011705475 0.55551606 0.049557183 0.19891356 0.45318744 0.4851225 0.20156518 0.3269201 0.3933667 0.41845885 0.40244514 0.3684682 0.32817668 0.35696632 0.39557493 0.08730305 0.20260614 0.18557318 -0.005472029 -0.0058392063 -0.101645276 -0.09153157 0.12237936 0.2456951 0.09726456 0.1764055 0.10801838 0.005415867 -0.18524535 -0.25973928 -0.008028001 0.48204714 0.46540743 0.47179347 -0.003074959 0.15682974 -0.26302668 -0.2643103 0.46524936 0.43161467 0.42383564 0.40071374 0.366346 -0.1317318 -0.031025194 0.4020577 0.39875078 -0.105819926 -0.33089232 0.42367917 -0.32491276 -0.42969966 0.56336725 0.5785205 0.44335803 -0.41416186 -0.17108448 0.5405645 0.51936215 0.4710756 -0.106005244 -0.054710448 0.062215805 0.2854521 0.37423292 0.36839917 0.42708266 0.4522791 -0.12863117 -0.32470027 0.069115475 0.19109178 0.24689691 0.29225904 0.033076398 0.012313604 0.33902454 0.2956526 0.16968745 -0.028636333 -0.085802734 -0.045527138 0.26134187 0.22674783 -0.062149942 0.03221109 0.04321877 0.16584496 0.19752604 0.021807456 0.1303622 0.12660784 0.188196 0.010173939 -0.067456245 -0.14519778 -0.03964805 0.100881234 0.12246394 0.007766284 -0.03427168 0.09772416 0.20837256 0.30792153 0.153151 0.26404038 0.34778255 0.37925154 -0.5096185 0.31871054 0.39177704 0.4402712 -0.24335922 0.40299934 -0.09641774 0.40586996 0.45288223 0.42357343 0.39052966 0.3919835 0.34524456 0.3641467 0.40185654 0.35637534 0.35110223 0.34137923 0.27178615 -0.26610002 -0.093169205 0.3398252 0.32698995 -0.106622905 0.39977473 0.040321648 0.4624 0.017283749 0.0141983405 0.03727296 0.025874108 0.283245 0.013486154 0.035879105 0.023916997 0.15625714 0.39309987 0.29385254 0.22836483 0.29898107 0.33470184 0.38381097 0.38437003 0.64645386 0.5791053 0.5851755 0.7142666 0.717747 0.73072547 0.8081318 0.8460714 0.8048463 0.80689204 0.86565864 0.9577976 0.92427635 0.9040632 1.0 0.99005044 0.37565517 0.40190974 0.40859586 0.41582346 0.35695913 0.39979482 0.35108936 0.34998012 0.35210526 0.36684325 0.2526913 0.19626361 0.28168884 0.35732767 0.2922006 0.24126822 0.24954848 0.07806161 0.2143813 0.2228753 0.1800201 0.20497559 0.23957679 0.24792658 0.23808087 0.0015962888 -0.060312584 -0.06311123 0.046020377 0.1693964 0.23422731 0.22506641 -0.026574213 0.008890151 -0.0018737589 0.23252296 0.10004833 0.19653663 0.07004301 -0.11364081 -0.062137853 -0.013900571 0.19675376 0.03742691 0.37149334 0.32786897 0.29397824 -0.10497149 -0.033813935 0.37140983 0.35336894 0.2966635 0.24654688 0.16833805 0.057771508 -0.07044441 -0.087128244 -0.085812785 0.55658305 0.5824034 0.58689386 0.39806777 0.37585115 -0.11040878 -0.30174202 -0.1571516 0.5440038 0.584781 0.59260714 0.5917542 0.41329026 -0.21189934 0.054754198 0.38672346 0.5847242 0.5949929 0.4208917 -0.13002336 -0.01712767 0.09472564 0.5031609 0.53265655 0.35331947 0.40126765 0.42374438 0.097891 0.43458915 0.41634744 -0.12618592 0.19508171 0.18758346 0.19654971 0.38226235 0.3325411 0.1396126 0.06336725 -0.045938283 -0.21862736 0.14515594 0.18897742 0.17993864 0.17349648 0.026891679 0.006046802 0.15821248 0.14539926 0.14778014 0.1537985 0.07007027 0.060889766 0.1083979 0.15869388 0.15504277 0.11150581 0.11710336 0.059530217 0.073974706 -0.26846302 -0.10006618 -0.11228418 0.23696354 0.3504407 0.18567331 0.17516102 0.1669229 0.0979033 -0.4867671 -0.4621517 0.43136728 0.5113883 0.17464909 0.47715926 0.5328474 0.44396687 0.5210176 0.5610842 -0.080446154 -0.102177456 0.2494103 0.43084913 0.53944486 -0.01624906 0.17487085 0.06901377 0.040228248 -0.07069102 -0.077886164 0.1975123 -0.03714209 0.2658802 0.21142448 -0.26104057 -0.41156825 -0.0066330433 0.17471167 0.023872226 0.1762664 0.18840429 0.05120634 0.19886374 0.28716397 0.19748424 0.15691085 0.027012326 0.20893347 0.20909745 0.3289456 0.27351516 0.24312958 0.258284 0.21119776 0.02580281 0.08601907 0.101576254 0.34587795 0.304778 0.2859524 0.23493215 0.41488707 0.41474873 0.35550153 0.5878569 0.7173718 0.75493205 0.7656907 0.8250847 0.8696561 0.8510747 0.87175137 0.9531548 1.0 0.9911251 0.9172336 0.46707332 0.45341274 0.4419652 0.41817015 0.44665182 0.44064018 0.440247 0.44030583 0.43469438 0.46169484 0.49223074 0.5090936 0.360961 0.41534725 0.42578703 0.44136447 0.4272426 0.40964934 0.4298189 0.4561484 0.3827371 0.21134885 0.2665483 0.32760912 0.38261425 0.1260209 0.16162044 0.21650861 0.24899617 0.34517115 0.3024007 0.14617127 0.2169008 0.27574816 0.24790087 0.24731436 0.2864701 0.06706598 -0.060008682 -0.15357172 0.23281379 0.26085287 0.3656365 0.31028637 0.13189898 -0.057228528 -0.16378906 0.2388299 0.28737468 0.30995286 0.27467376 0.25327975 -0.17335258 0.24476795 0.29117873 0.3465418 0.24358216 0.099197015 0.26416177 -0.05234457 -0.051667653 0.3150751 0.22975919 0.19431837 0.12585323 -0.07081962 -0.00602582 0.5540407 0.5654664 0.5711688 0.55298626 0.35119158 0.3171816 0.2344846 0.13507572 0.010540552 -0.056353174 0.013399067 0.57680094 0.57628703 0.3694765 -0.017913409 0.09014495 0.58773255 0.5776924 0.39984542 -0.04418926 0.5517595 0.30416456 0.34402478 0.3900301 0.09464072 0.32120112 0.53760564 0.44654652 0.38766992 0.54019123 0.5768045 0.29152396 0.06665642 0.26299748 0.44919324 0.56893086 0.09274416 0.079404995 0.44509792 0.55601466 0.0413476 0.13995951 0.14216796 0.13522393 -0.4434196 0.4110782 0.1858387 0.18783125 0.19172333 0.040149383 -0.14401941 -0.3618846 -0.5069373 0.5478486 0.19809005 0.21781285 0.24557602 0.1954916 0.17032844 0.13161516 -0.02778713 -0.15713915 -0.16755567 0.58826953 0.5965932 0.2800222 0.28871906 0.25917265 0.18014035 0.59147835 0.5938158 0.32073158 0.31256187 0.0095839985 -0.032697678 0.52457464 0.57839006 0.034610413 0.005063735 0.009181209 0.33770353 0.47915724 0.029281689 0.0028161928 -0.09661028 -0.016271275 -0.07259997 -0.03212385 0.047293518 0.10474416 -0.28878003 -0.32139486 -0.37135154 0.1418631 -0.026836209 -0.15828945 -0.23205873 0.23502171 0.15933733 -0.016304636 0.20121935 0.24545135 0.2191847 0.1749297 0.30279636 0.32271478 -0.0055402443 0.08322917 0.09326606 0.122863114 0.31674793 0.3345607 0.17251636 0.15309055 0.20068215 0.3880659 0.447765