# vtk DataFile Version 2.0
Really cool data
ASCII
DATASET POLYDATA
POINTS 6451 float
0.36576962 65.99167 116.83188
0.2065385 66.2152 117.433556
0.24462622 66.63355 116.07944
0.02368009 66.51369 116.7951
-0.084237784 66.657196 117.5119
0.010581762 66.90843 118.155075
0.07759383 67.71732 115.8949
-0.22216678 67.675 116.69753
-0.30975887 67.44538 117.539696
-0.16504115 67.543045 118.07023
0.2581069 67.35936 119.0664
0.21947403 68.40485 115.777725
-0.117598385 68.31157 116.55647
-0.19812232 68.33693 117.20266
-0.12925294 68.0364 118.28379
0.033644706 68.60944 119.61967
0.18444389 68.62633 120.2709
0.40069002 68.71979 120.793594
0.3149541 69.10694 115.8778
0.19684741 69.21337 116.3649
0.20087045 69.29048 117.17328
0.18079227 69.00117 118.55022
-0.07124171 69.29355 119.64982
0.060232818 69.43517 120.31851
0.1354908 70.62085 118.85131
0.10279298 70.6012 119.69441
0.27336568 70.56298 120.3248
0.29152662 71.47432 118.765076
0.2402149 71.46858 119.408646
0.32073063 71.81748 118.939705
0.39830106 71.95999 119.37076
1.2171193 65.00212 117.108444
1.0715092 65.605034 115.85966
0.5473442 65.98589 116.4704
0.50389117 65.83073 117.31831
0.8040253 65.87147 118.19952
1.1506481 66.9374 114.86032
0.5699648 66.80054 115.48732
0.40368712 66.425476 118.39565
0.8099798 66.89707 119.245575
1.1116611 66.79496 120.369965
1.2169106 66.89625 121.056595
0.9242991 67.47319 114.97627
0.45432281 67.76176 115.38741
0.61279577 67.74518 120.41861
0.9862871 67.63557 121.138504
0.8931527 68.32064 115.07229
0.41658786 68.504776 115.483734
0.7436104 68.66334 121.15334
0.99423176 69.06825 115.24055
0.73618317 69.34419 115.69036
0.5262258 69.56493 116.26938
0.8309027 69.42448 121.29585
0.8625815 69.77336 116.01208
0.8305645 69.86097 116.27523
0.53214204 70.456314 120.52454
0.70173526 70.34639 121.05137
0.65271246 71.57125 118.255806
0.45851064 71.71043 118.55129
0.674893 71.67974 120.36809
0.9224241 71.91511 118.275696
0.6804287 72.11878 118.760704
0.6750654 72.297424 119.330795
0.67733634 72.05691 119.98462
1.1058543 72.63578 119.19228
1.377207 73.93938 123.60606
1.247045 74.72307 123.454414
0.94364613 74.83736 124.56047
1.08451 74.86705 125.02002
0.9742053 75.57606 123.869606
0.86408395 75.54482 124.4783
1.0258595 75.4602 125.08669
1.3333923 75.392876 125.69161
1.0804293 75.95119 123.88063
1.0429364 76.03965 124.51219
1.1939073 76.079254 125.10862
2.4590664 53.689117 114.66833
2.3366733 55.68825 109.91124
2.2469301 55.529896 110.40606
2.3808255 55.63136 111.12375
2.33585 56.204277 109.814445
2.2585742 56.274467 110.47464
2.3720112 56.19609 111.02251
2.4153924 56.85096 110.61078
2.2250426 57.64576 115.03807
2.2071593 57.72358 115.39892
2.3046987 57.862236 116.17526
2.302567 58.324245 114.939064
2.1982381 58.524307 115.599304
2.259992 58.219925 116.09693
2.3439739 58.84055 115.70788
2.1122823 63.761528 115.68272
1.8964169 64.1202 116.57253
2.0299318 63.961987 117.28269
2.245176 64.272835 119.0631
1.8372661 64.68906 114.86623
1.6498382 64.55637 115.70412
1.4827474 64.5525 116.332565
1.672836 64.53218 117.51306
1.8159463 64.63222 118.49681
2.1742644 64.6041 119.4675
1.6503729 65.50426 114.86148
1.3983527 66.16861 119.45824
1.9297516 65.93493 120.1954
1.8478621 66.27029 120.94847
2.1421182 66.1788 113.92473
1.5155269 66.34617 114.4383
1.643723 66.7976 121.37284
2.1787374 66.54366 121.72909
2.090664 67.218575 113.95877
1.5711575 67.12346 114.477104
1.5347121 67.298355 121.60881
1.8358253 67.508286 121.91034
1.2225908 68.487335 114.95851
1.6916897 68.45918 121.90035
1.2388812 69.21831 115.29073
1.4713992 69.42206 115.50811
1.6017884 69.15784 121.79603
1.3973933 69.76752 115.84784
1.4819258 69.95207 116.30373
1.7922357 70.51021 121.75237
1.3505312 71.228455 117.88191
1.5706671 71.99467 118.22265
1.3868049 72.5073 118.732635
1.2760428 72.21369 120.47822
1.8642967 72.44943 121.30171
1.8171017 72.96086 122.619804
1.7080641 73.03681 123.44945
1.9358811 72.84461 124.18207
2.3369493 73.16104 125.32713
1.6026435 72.650925 118.90144
1.6231376 72.76567 119.3919
1.5264678 73.3919 122.85819
1.5703828 73.44149 123.09974
1.6283317 73.421524 124.437744
2.1269722 73.573044 125.297005
2.3342502 73.903336 126.166046
1.7907795 74.52637 122.655556
1.4111862 74.48249 125.3676
1.8687786 74.834274 126.10905
1.7216468 75.3106 122.87667
1.9282572 76.05798 123.12555
1.7617548 76.39602 123.67328
1.4105358 76.459145 124.30806
1.6889298 76.49128 125.31961
1.6482235 76.63231 124.107
1.6799272 76.58946 124.41379
1.9127755 76.72073 125.325874
2.0283988 77.65639 127.59601
1.8254303 77.6949 128.348
2.012183 77.86353 129.50063
1.9951824 78.64867 127.892525
1.8044555 78.4169 128.60143
1.9136059 78.45686 129.37302
2.2325296 78.56342 129.97598
2.2141361 79.261604 127.78597
2.0735276 79.34775 128.57864
2.0764894 79.200424 129.26181
2.2705326 78.99977 129.93153
2.3336835 79.737564 128.05907
2.28827 79.7648 128.39412
2.2974308 79.757576 129.01407
3.0811815 52.079952 114.87844
3.2113132 52.083176 115.35153
3.3233669 52.127934 119.764755
3.223215 52.221878 119.96508
3.0064468 52.780743 113.706
2.712713 52.799934 114.60254
2.9517486 52.522884 115.287445
3.2601385 52.26768 115.782616
3.2049685 52.79316 118.89073
3.153564 52.50957 119.57045
3.2512364 52.65891 120.19238
3.117135 54.26919 109.869446
3.1661599 54.067333 110.44748
3.0579576 53.966156 113.09424
2.739376 53.526257 113.79165
2.573523 53.507137 114.56577
2.6585739 53.549053 115.27861
3.3106163 53.233635 118.7763
3.155303 53.354374 119.5275
3.1963491 53.17814 120.07461
3.1509113 54.837784 108.95094
2.7989602 54.762337 109.5967
2.7272463 54.56421 110.34236
3.1150336 54.448486 111.274734
2.7010548 54.180622 113.84806
2.5432167 54.09587 114.56416
2.533434 54.079857 114.93293
2.8831468 55.559055 108.81811
2.5591905 55.388653 109.36521
2.5387046 55.45283 111.21118
3.119814 55.993206 114.91354
3.1462386 55.69597 115.43884
3.0104291 56.235954 108.718956
2.499634 56.378784 109.44719
2.7530699 56.795517 111.33151
3.3670104 56.075302 113.88048
2.5590746 56.636627 114.86237
2.706603 56.829865 115.7783
2.807662 56.737 116.08553
3.3487575 57.087864 117.213905
3.0058653 57.274467 108.817
2.7003453 57.258076 109.503296
2.5050137 56.91907 110.09153
2.6357179 56.95127 111.10529
3.0361855 57.734035 113.71127
2.4831836 57.7345 114.482574
2.4849026 57.705566 116.33109
3.1221888 57.614067 117.06864
3.1210132 58.05862 108.89115
2.880616 58.38465 109.700584
2.7228346 58.304996 110.415855
2.8907554 58.623074 110.84098
2.6420527 58.456112 114.326126
2.5141873 58.311733 116.489075
3.0932927 58.466026 117.31065
3.0648375 58.91599 109.77113
3.2071714 59.116573 110.47499
3.2728722 59.20418 110.974464
3.0660183 59.338947 114.19805
2.7260938 59.242252 114.84041
2.6045651 59.252594 115.29844
3.0028143 59.53721 116.209335
3.3648953 59.2778 117.09681
3.3478642 62.724228 114.48852
3.2712598 62.57178 115.28695
2.9726124 62.800964 116.42322
3.174133 63.702137 113.79143
2.8351185 63.612484 118.32444
2.7748244 64.111176 119.99167
2.5764153 64.98781 120.61189
3.0662465 64.95445 120.859344
3.026316 65.77234 112.65246
2.719379 65.6292 113.46948
2.7347455 65.82189 121.475975
3.0328596 65.845436 122.02891
2.9605737 66.41641 112.641655
2.521248 66.097145 113.4756
2.832749 66.62405 122.31991
3.1938438 66.69309 122.66577
3.3135707 67.279495 112.14954
3.1867886 67.38262 112.46183
2.737845 67.28863 113.48961
2.5768383 67.39672 122.28167
2.9425895 67.31821 122.60453
2.3049257 68.47217 114.921844
2.4659998 68.8454 122.38139
2.4322374 69.78559 122.23912
2.1637652 69.739334 116.554184
2.6214287 70.47015 117.83993
2.7204034 70.30039 122.37992
1.9220192 71.37719 117.87895
2.87368 72.33341 124.92483
1.9696758 72.06633 118.30665
2.3795907 72.31881 118.72988
2.4421258 72.41644 124.46874
2.5775347 72.68466 125.151665
3.3089864 72.83468 126.91885
3.1996531 72.84884 127.34173
3.3439953 72.613525 128.27435
3.3691766 72.9599 130.00446
2.0558224 72.605354 118.81632
2.5593657 72.62632 119.43794
3.0857513 72.77184 120.82221
3.100624 73.8541 121.799095
3.1571589 73.517296 129.53778
3.3240266 73.49454 130.12248
2.83773 74.509224 127.43639
3.1237807 74.5235 128.48547
3.141984 74.54102 129.62984
3.3261623 74.22369 130.15858
2.8933485 75.42814 122.14803
2.4849424 75.504616 122.5159
3.0933175 75.28063 127.56477
3.3330033 75.06462 129.97702
2.7309775 76.252045 122.80716
2.7057407 76.47292 126.89634
2.745601 77.18053 129.72853
2.849987 76.6695 123.21193
2.6259408 76.88755 123.78323
3.1600723 77.32295 124.32649
2.6481483 77.350876 125.60843
2.621904 77.21105 126.717995
2.7974782 77.69159 130.24942
2.8378258 78.33095 126.6902
2.5911767 78.45844 130.30968
2.7321055 79.3485 127.1573
2.659418 79.67072 127.42531
2.4147909 79.50548 129.59785
2.715634 79.18136 130.14934
3.0476327 79.80338 127.29258
2.810476 79.950806 127.794334
2.7861567 80.0781 128.3351
2.7131224 79.83843 129.34116
4.0606275 51.423874 114.28019
4.0549498 51.41082 119.606674
4.208936 51.362354 120.142746
3.894075 52.15772 112.94461
3.736128 51.93553 113.609116
3.500996 51.748787 114.57976
3.7124314 51.686234 115.31171
4.250404 51.553246 116.12081
4.2182627 51.910267 117.187256
3.7645164 51.94883 118.76064
3.6345918 51.802204 119.60487
3.8370218 51.791645 120.33793
4.059633 51.924423 120.750435
3.4211898 52.886127 112.80939
3.5650904 52.533154 116.319786
3.6339965 52.511787 118.1578
3.480244 52.268295 118.749695
3.5093963 52.504818 120.53947
3.9151802 52.503395 120.85149
3.5263267 54.01797 109.715195
3.7196784 53.437057 117.91867
3.6315994 53.342476 120.51553
3.8457713 53.139317 120.75993
3.5931702 54.735977 108.70084
3.609552 54.61492 116.813126
4.132597 54.69598 118.30163
4.17338 54.374386 119.14842
3.6927595 53.822243 120.19649
3.8405397 55.525894 108.199425
3.7084389 55.928436 116.99529
3.6029706 56.358627 108.33178
3.628187 56.39103 116.95203
3.908746 56.98475 117.70522
3.7400608 57.73365 108.206345
3.4881513 57.800514 108.440636
3.6605363 57.15655 112.09353
4.016958 58.300022 108.20647
3.4358284 58.26139 108.60071
3.6980898 58.763664 113.04456
3.5078354 58.3978 117.67287
3.9627702 58.649815 118.24037
3.9325953 58.982452 108.70296
[...]
POINT_DATA 6451
SCALARS features_00 float 1
LOOKUP_TABLE default
0.38538033 0.4016965 0.5008158 0.4839781 0.46097118 0.416089 0.57984936 0.61623013 0.5252795 0.45552135 0.32325318 0.5830904 0.62383866 0.594348 0.4349857 0.35745424 0.3720803 0.39389163 0.58778584 0.59122914 0.5374802 0.40706086 0.40286094 0.43015268 0.5564219 0.5526983 0.53176033 0.6547082 0.6264621 0.67325914 0.6590836 0.22086775 0.31751734 0.3812451 0.33980656 0.27747002 0.3516506 0.45638034 0.34052092 0.27367145 0.26458293 0.2911095 0.43421778 0.5207635 0.31941468 0.3349522 0.5252057 0.56739426 0.3928039 0.56466913 0.57728374 0.5654605 0.41931576 0.55135036 0.5284391 0.5141181 0.4773218 0.6435549 0.6702351 0.56794065 0.6539311 0.68454826 0.6809718 0.6277194 0.68393975 0.5651625 0.6694681 0.64869225 0.60523826 0.6593993 0.6541067 0.62358755 0.5467962 0.6178577 0.61043185 0.58545434 0.38142607 0.58831346 0.5701752 0.51439655 0.5610644 0.5244594 0.4934125 0.4814796 0.4905163 0.49471235 0.46523434 0.49019435 0.51188314 0.48966193 0.5080942 0.1503355 0.15111405 0.12344447 0.14821562 0.22911954 0.21819383 0.20311287 0.1623346 0.15645981 0.1803911 0.24659877 0.20459516 0.2184946 0.26068065 0.16706134 0.23269096 0.29283273 0.2929154 0.20060441 0.29367447 0.31722844 0.3214708 0.51972246 0.346289 0.557575 0.5436476 0.35728794 0.51587206 0.45434192 0.35621363 0.54760444 0.61662257 0.66210043 0.60255474 0.4613991 0.38703313 0.45111096 0.43582594 0.30165833 0.6524911 0.6561316 0.4641729 0.49200195 0.46691597 0.35259065 0.24221551 0.6001135 0.49769902 0.37841 0.59163284 0.5267297 0.51472145 0.5420908 0.48944026 0.50127053 0.50080603 0.42850858 0.46475208 0.61006474 0.6986537 0.6091321 0.694113 0.7284559 0.7225413 0.6085106 0.7045156 0.73871785 0.7359222 0.6502876 0.6864779 0.72856295 0.43753353 0.39510018 0.7786552 0.80754983 0.46208164 0.45464575 0.42666793 0.35460794 0.6696132 0.77156776 0.8512218 0.5529352 0.48024964 0.30678782 0.40780395 0.40710503 0.38164014 0.6761758 0.8057448 0.8561664 0.60458404 0.6152786 0.58190256 0.4353728 0.29691172 0.30883306 0.29747164 0.615707 0.62297213 0.5083238 0.26317114 0.21371028 0.5741244 0.5650545 0.41360223 0.18299069 0.38504386 0.3961287 0.3673826 0.29298806 0.5167978 0.51415193 0.503692 0.43304864 0.32531297 0.45985448 0.43601298 0.3319173 0.476281 0.44396502 0.40528738 0.30867743 0.42430377 0.45604736 0.34617436 0.38163352 0.25809893 0.14401093 0.31994647 0.4247008 0.46747926 0.44385898 0.34392384 0.043948032 0.041358758 0.029914048 0.0647988 0.061541297 0.17602535 0.22791792 0.23840961 0.11877455 0.12174012 0.27555025 0.30038399 0.17140646 0.14984265 0.31774688 0.32701063 0.28314745 0.27262172 0.16779155 0.31790334 0.31810552 0.48874915 0.28837729 0.27286085 0.28859222 0.18811992 0.20854035 0.50875795 0.22227283 0.57963496 0.53812146 0.34548187 0.27384195 0.12698379 0.1829372 0.27986938 0.45454058 0.5992293 0.52094626 0.32687464 0.17482568 0.38605297 0.42989048 0.19506612 0.2904472 0.33041924 0.38405 0.41191548 0.49445203 0.15561688 0.3092353 0.4323358 0.16954406 0.50856024 0.38389912 0.38490164 0.24264753 0.21966933 0.26365733 0.60676605 0.3735975 0.69330764 0.49222153 0.5472425 0.7418066 0.72092706 0.50748426 0.59410596 0.6610926 0.7304305 0.36839673 0.7024672 0.7624717 0.3560143 0.41401118 0.41979325 0.3500356 0.25463393 0.23057637 0.5872873 0.7302044 0.81552964 0.8408197 0.3722216 0.26702917 0.4977979 0.6147324 0.8680727 0.87759674 0.47556514 0.46441916 0.8723117 0.87580156 0.55931973 0.0019473992 0.45545024 0.66526455 0.82854885 0.5357209 0.16304098 0.5221874 0.24739712 0.23194501 0.4460937 0.46909535 0.20780526 0.42096427 0.45943514 0.11094328 0.2701534 0.16475028 0.4362057 0.31496444 0.2128017 0.2775672 0.42703623 0.103631355 -0.020904414 -0.05500278 0.1211555 0.30445066 0.4001024 0.45269552 0.46888816 0.026124656 0.05508329 -0.1294106 -0.23735194 -0.11714829 0.082032815 0.38975912 0.45960394 0.47301936 0.06060339 0.062418625 -0.052523464 -0.03405353 0.15765119 0.3992567 0.13819677 0.041915204 0.0016209593 -0.04974137 0.1685248 0.39158556 0.2670917 0.12020164 -0.069993906 0.24119136 0.63434374 0.53417563 0.46356887 0.39474803 -0.015282888 0.022667214 0.31284666 0.32944298 0.70932686 0.7300556 0.7151826 0.62710965 0.56433034 0.23442082 0.32960302 0.75637984 0.744529 0.69853556 0.6420676 0.32713485 0.2665782 0.7238833 0.39741665 0.42178902 0.45932823 0.04922928 0.08382487 -0.12687735 0.17286845 0.086829826 0.24615116 0.26447156 0.15119985 0.10171296 0.199545 0.2912183 0.39800394 0.51051795 0.53605247 0.40335083 0.5540249 0.46408984 0.5222753 0.57839495 0.37975872 0.41999352 0.22539058 0.3148998 0.31563935 0.33336303 0.17688192 0.47872952 0.07907961 0.20306215 0.6217518 0.2512536 0.3629737 0.6658029 0.65091026 0.30352938 0.554896 0.64931184 0.69458956 0.6933627 0.28414065 0.30004382 0.29429138 0.30225614 0.5639416 0.6773064 0.76018786 0.14482021 0.24183884 0.28684425 0.43118775 0.797485 0.81765294 0.17988402 0.09094618 0.86285496 0.82714057 0.45607737 0.5008485 0.53123003 0.6793845 0.7452531 0.39132273 0.29730785 0.057774164 0.35346878 0.12140848 0.35242918 0.393625 0.3796674 0.45140022 0.46970376 0.060558587 0.47390503 0.11005284 0.45721182 0.56231177 0.44047037 0.22831425 0.14883806 0.05266428 0.6548159 0.55598724 0.23482922 0.23254354 0.74876094 0.6908772 0.76285756 0.72677755 0.3372889 0.71381044 0.72888625 0.43336824 0.20311846 0.1874673 0.70232475 0.69216573 0.6363822 0.46927765 0.33915266 0.38074785 0.13913004 -0.18705754 0.15316217 0.4266796 0.45271283 0.48246238 0.43456125 -0.22098553 0.120035805 0.05402935 0.011307627 0.13800694 0.46985626 -0.01062895 -0.034734473 0.05771824 0.09935215 0.5184964 0.54786927 0.5715064 0.5921157 0.21363634 0.59700423 0.3322816 0.25879288 0.523279 0.5341987 0.3744756 0.39023063 0.38222387 0.32433856 0.41190386 -0.015738845 0.426942 0.07789105 0.50152886 0.13213073 0.17760846 0.54348004 0.3124745 0.53584933 0.5668431 0.5393276 0.5650346 0.33165333 0.48571208 0.42742223 0.33474007 0.24608634 0.15167493 0.18918045 0.2377723 0.30174077 0.316898 0.34809995 0.39674366 0.57884 0.70221674 0.41054845 0.40458918 0.27728796 0.1583331 0.7054007 0.7560839 0.2966748 0.7791112 0.22803009 0.67126554 0.5259868 0.6177261 0.07711157 0.1800971 -0.24395445 0.17684245 -0.06758262 -0.030425938 0.15190843 0.27634895 0.4226616 0.45679528 0.46019584 0.2051385 0.38452235 0.59985024 0.74651694 0.68955785 0.051567405 -0.0037990808 0.7770914 0.113561764 0.7762129 0.74235296 0.24938595 0.74446857 0.69992757 0.6476729 0.1041778 0.6254827 0.604867 0.517705 0.35508406 0.2614847 0.019857831 0.35698652 0.40649372 0.4220829 0.42421275 -0.070014514 -0.022594318 0.009547137 -0.05080294 -0.09875939 0.00071739405 0.3586622 0.48258266 -0.24459144 0.5169391 0.55463976 -0.14484286 0.5920279 0.5854101 0.280995 0.5292717 0.3695646 0.37569615 0.32930377 0.41957587 0.40508685 0.41215008 0.20637962 0.49858657 0.5284124 0.4154359 0.3631717 0.56634367 0.6229825 0.5455713 0.36217788 0.07161321 0.46725613 0.093878984 0.17067638 0.49183849 0.21753938 0.30727252 0.40029648 0.4546135 0.46239245 0.4755538 0.7627013 0.73443747 0.6327715 0.6841444 0.54164237 0.30219954 0.33711064 0.34538114 0.41187263 0.5629655 0.53585994 0.37856877 0.29982707 0.17015769 0.14875416 0.24276285 0.31135762 0.36603045 0.43980843 0.49867442 0.5657355 0.5198796 0.4700157 0.5658556 0.60021937 0.50523424 0.42059252 0.50059974 0.20916334 0.4178859 0.116311744 -0.23942614 0.07338256 -0.15467706 0.10276888 0.14701384 0.14524426 0.07017776 0.38679153 0.43652833 0.7820672 0.71231604 -0.108564645 0.80803394 -0.16561916 -0.106741205 0.15306912 0.19967747 0.2369631 0.2725463 0.31313196 0.7817247 0.07573654 0.13029814 0.19796824 0.21327233 0.29757082 0.33635315 0.7332482 0.6786456 -0.015101917 0.06366919 0.17450349 0.26560873 0.32039243 0.348525 0.62867415 0.5750352 0.5256162 0.44854182 -0.02461201 -0.28580302 -0.21209705 -0.054788873 0.096415095 0.11286316 0.3111259 0.35075814 0.33885336 0.3061011 0.3036532 0.30726665 0.3056955 -0.023988139 -0.025970176 -0.45411438 -0.54090786 -0.043864846 0.20005946 -0.045627613 -0.44070613 0.38656747 -0.06343951 0.4403325 0.48212007 -0.19402924 0.5300203 0.539313 0.25727868 0.30255342 0.47723997 0.28369844 0.09794584 0.3829587 0.48981258 0.5305191 0.083999045 0.19685282 0.58482885 0.6203406 0.32255146 -0.021083578 -0.035555862 0.6189136 0.6385592 0.62625194 0.08075043 0.39957795 0.34994859 0.20446427 0.27186844 0.35183698 0.43128848 0.4253514 0.84671646 0.88016665 0.8383125 0.75067914 0.6686616 0.72898537 0.5552352 0.34272698 0.3546337 0.62552714 0.16452578 0.2777081 0.31691986 0.37089172 0.45198816 0.46977803 0.49747652 0.60566086 0.4538034 0.4960835 0.5259128 0.41883153 0.45177007 0.3595249 0.31346104 0.15728389 0.10248632 -0.027896583 0.05443244 -0.018766567 0.16541877 0.0956444 0.10724914 0.15185456 0.1641731 0.21231514 0.19604766 0.11699645 0.16890332 0.19616452 0.0996715 0.321034 0.36780792 -0.0037397146 0.22425015 0.23133737 0.3812697 -0.18637793 -0.10212401 0.79844177 0.72369564 -0.185121 -0.1547411 -0.05311197 0.11417343 0.17992786 0.19111215 0.260866 0.34483916 0.797141 0.23663688 0.27305296 0.32647824 0.3686196 0.37389964 0.7819407 0.70427346 0.3458124 0.35001177 0.6846845 0.5816623 0.34733304 0.3245679 0.5444316 0.47687376 0.39915264 -0.11068137 0.337892 0.28266272 0.35072654 0.32258558 0.26046738 0.22633058 0.19092672 -0.05291886 0.212486 0.19239347 0.015144475 0.0020050257 0.25376254 -0.010854298 0.40758395 -0.071567945 0.07097931 0.072488144 -0.08049816 0.29666993 -0.08433974 0.494066 -0.005207181 -0.029274546 0.5202006 0.5660521 -0.037836403 0.59548247 0.6080807 0.5334346 0.42948332 -0.049797878 0.2668442 0.34274793 0.39074516 0.38595048 0.38245958 0.8662029 0.948858 0.9002881 0.7622353 0.6821393 0.75107896 0.57144237 0.46754268 0.6327057 0.27619573 0.26598954 0.21673277 0.3040614 0.4089791 0.57627726 0.11943071 0.4473694 0.42252114 0.50889707 0.3548293 0.29640236 0.41110355 0.10266732 0.36357057 -0.08836038 0.11986667 -0.0019731969 0.097107336 0.056819428 0.16419303 0.19424003 0.21652234 0.20596188 0.23704109 0.28654107 0.21755087 0.2713056 0.14652282 0.23104024 0.021684818 0.26694706 0.33283553 0.38003102 0.1641013 0.104757346 0.25128943 0.37263104 0.39395267 0.37677592 0.02852607 0.38797286 -0.11132638 0.044651695 -0.0060073286 0.6907337 0.6077395 0.18818417 0.21848089 0.3017354 0.35702038 0.37050015 0.72388935 0.54961944 0.3759132 0.35484704 0.672703 0.55173886 0.46917436 0.32863173 0.551633 0.42468017 0.3196614 0.42851442 0.37745264 0.35435468 0.32439497 0.3347107 0.27737883 0.15917367 0.06627284 -0.0056329127 -0.06684273 0.027116412 0.042845085 0.016745172 -0.06425379 -0.09723292 0.18799928 0.1254027 -0.05181986 0.25026572 0.32845232 -0.14535116 -0.18394303 0.3614456 -0.07172237 0.5155443 0.36354494 0.27916944 0.0032092333 0.54574156 0.5067217 0.3482086 -0.22293463 -0.055990085 0.21471344 0.34328187 0.2046128 0.27372053 0.83317167 0.8867365 0.87884486 0.7155404 0.74531865 0.62128294 0.51327074 0.6035406 0.62461984 0.3014187 0.18053018 0.27548182 0.5376129 0.04319425 -0.010053666 0.09804706 0.33335343 0.31487954 0.48013926 0.4281952 0.14900804 0.4137693 -0.07793159 0.3785392 0.25371456 -0.09675927 -0.072027855 0.14459151 -0.03784232 -0.013489306 0.033319253 0.28064197 0.11375529 0.30863175 0.29503968 0.14452004 0.34558275 0.35001776 -0.15379748 0.30064622 0.2993639 0.20290342 0.30588606 0.0842925 0.27916142 -0.3230177 0.22854267 0.27700123 0.30428684 0.32613027 0.07593858 0.12997451 0.3396479 0.34963572 0.3477301 0.11111662 0.24172235 0.3364322 0.2941665 0.3166941 0.17672285 -0.14612305 0.18509383 0.33411655 -0.06300635 -0.065421194 0.13358928 0.04269109 0.08283459 0.007631261 -0.03331983 -0.24772963 0.00607346 -0.00048615783 0.028689548 0.11830404 0.27133957 -0.13585235 0.26057982 0.336226 0.29320693 0.39904845 0.36458054 0.17763913 0.3732029 0.23986107 -0.10599839 0.22515592 0.31486636 0.17475542 -0.10822298 0.21519804 -0.07715802 0.3284151 0.35691315 0.21141377 0.06746632 0.4879974 0.54596406 0.5006106 0.41555518 0.58833736 0.5634632 0.83645546 0.7941217 0.7324307 0.76313084 0.71553695 0.58604026 0.6211102 0.5510256 0.52382565 0.34375113 0.027972031 0.036810048 -0.1110723 -0.2073577 0.42950422 -0.21252215 0.038541682 0.34574267 0.20463598 0.0014430732 -0.14812097 -0.041942656 -0.16337559 -0.17031191 -0.17158899 0.3294091 0.21564816 0.20751412 0.29387552 0.3317194 0.3329898 0.33426714 0.17316104 0.30290154 0.35153484 0.36908 0.15320067 0.27226824 0.3308096 0.29761392 0.35565966 0.28563675 0.2787355 0.2414888 0.1700668 0.1726149 0.14030144 0.16989331 0.1232765 0.23736022 -0.051905915 0.15830757 0.27284077 0.31389558 0.33748826 0.16773787 0.33789477 0.33085138 0.3246722 0.20651023 0.27008706 -0.19647321 -0.1958714 0.17573279 -0.17589274 -0.10442117 0.046474386 -0.24625988 -0.09308916 0.11700742 -0.20696661 0.13964072 0.04857686 -0.06777069 0.005325958 0.105696425 -0.04520782 0.0150980465 0.04879205 0.03956791 0.14846464 0.24605893 0.14505917 0.3559632 0.3517058 0.2839529 0.36188245 0.39328468 0.05956219 0.25879675 0.26318738 0.39293832 0.3722207 0.15166244 0.11202165 -0.24540444 -0.22788557 0.025966935 0.29361218 -0.1569162 0.19756767 0.18342108 0.21585481 0.19378367 0.30275005 0.30448884 0.44790086 0.54058033 0.1848554 0.5105508 0.5841506 0.59568954 0.5463297 0.47663215 0.5651486 0.6451868 0.66280395 0.59223354 0.5516554 0.32370028 0.19426909 0.12769422 0.23897138 0.24301657 0.08500836 -0.1049641 -0.29951346 0.111613676 0.17138822 0.12114813 0.25246868 0.10470259 0.25139776 0.07153778 0.120746195 -0.049914822 0.06578828 -0.13060115 0.014259957 -0.2034877 0.2521484 0.24740428 0.25748175 0.26309368 0.32438856 0.2704431 0.15834075 0.22553968 0.30007327 0.29149255 0.32040983 0.32369688 0.30547985 0.26201895 0.32350627 0.28331074 0.22718073 0.2857082 0.22758311 0.17874935 0.17857476 0.17255105 -0.025710166 0.16886738 -0.06993312 0.006139651 0.0045657977 0.36430123 0.0051293075 0.035478704 0.5060313 0.46013314 0.29660988 0.33213416 0.5262152 0.35206985 0.14147076 0.31630737 -0.15563457 -0.19885147 0.23263894 -0.19768521 -0.17264163 -0.1565622 0.12350706 0.47858185 -0.0720192 0.29533783 0.44708383 0.42327777 0.03295003 0.3127963 -0.044463225 0.05296769 0.19684207 0.14562212 0.14016044 0.2603945 0.24371555 0.3227167 0.35097426 0.2131871 0.5464936 0.6405598 0.32016408 0.29696053 0.20491642 0.07416118 0.4275012 0.5569668 0.59551483 0.6315023 0.64358515 0.06993548 -0.100679904 0.060925573 0.48977596 0.5754256 0.6267253 0.6459367 0.21725965 0.18422183 0.025119808 0.37664855 0.49755976 0.63013744 0.6565385 0.6985736 0.30619574 0.24800546 0.6588175 0.68632424 0.7110357 0.4585079 0.31797686 -0.013287388 0.27040944 0.32907757 0.2928302 0.26768872 0.6004441 0.6175187 0.6907097 0.49540645 0.5518701 0.5065871 0.4397551 0.286581 0.31635156 0.53941196 0.5514892 0.50911623 0.2210353 0.2579863 0.3077574 0.32071877 0.19808911 0.22879544 0.25623158 0.27147663 0.2919697 0.15599266 0.15817879 0.22197188 0.17676967 0.20214933 0.28393018 0.10621211 0.121877566 0.12592839 0.33103636 0.34643635 0.010193557 -0.1708082 -0.067730635 0.12279249 0.13470118 0.2324385 0.2810364 0.093095705 0.08737488 0.17677626 0.053805422 0.008064486 -0.16468453 0.13657176 0.009800511 -0.4032891 0.068455376 0.12916583 0.22025268 0.20698793 0.26889825 0.42523402 0.3060025 0.0333758 0.22082621 0.4194666 0.54596984 0.32346183 0.25488347 0.23667537 0.40010428 0.53289455 0.5895517 0.29666644 0.2758964 0.47680855 0.50839794 0.11906633 0.11549849 0.21351196 0.28180295 0.38650325 0.42127904 0.12584892 0.07121481 -0.023542881 0.44031855 0.23518445 0.3212698 0.5365604 0.35566643 0.5373441 0.46731555 0.22737676 0.37786505 0.23398036 -0.15814109 0.21677643 -0.25817436 0.11487483 -0.24630255 0.28646082 0.43966332 0.47339904 -0.08308679 0.47896278 0.52425134 0.0288487 0.5415325 0.48644537 -0.10153274 0.35034913 0.19562562 0.121406995 0.038208246 0.029383741 -0.016412877 0.16242301 0.16261286 0.1824152 0.17992377 -0.03596171 0.19458625 0.5519154 0.26220533 0.16027203 0.61118305 0.63996065 0.6501841 0.27412823 0.20084542 0.10400146 -0.09751393 0.6476866 0.6467093 -0.038910825 0.6526035 0.106031 0.6964099 0.09919089 0.2295619 0.72741437 0.19304177 0.17522511 0.1536313 0.4535701 0.6822882 0.7120732 0.44531006 0.46122003 0.43420744 0.32875797 0.25009358 0.28044024 0.28704417 0.2670996 0.18919113 0.45166594 0.5490446 0.6410819 0.4803822 0.4875195 0.44819844 0.47521043 0.43771914 0.41517574 0.29821414 0.5368649 0.4871015 0.43754292 0.339697 0.2751994 0.2532982 0.22408788 0.55033517 0.5401372 0.46124655 0.3009613 0.2577163 0.26962 0.27671704 0.28439662 0.46214938 0.4319141 0.3477271 0.26494125 0.2385975 0.32128805 0.27791685 0.245296 0.29259726 0.12436575 0.27271187 0.22110496 -0.08687337 -0.336562 -0.15532026 0.123795405 0.10572746 0.34004995 0.2763297 0.16896483 -0.22402188 0.12330447 0.2927591 0.086704224 0.06280068 0.13717468 -0.13070564 0.027084023 0.042459518 -0.06460443 -0.013755076 0.0675772 0.09621628 0.068284824 -0.04570391 0.12861852 0.17758322 0.3955731 0.5182907 0.27644175 0.15924439 0.5591837 0.60883343 0.34967002 0.593375 0.28003556 0.4916481 0.1766168 0.12850258 0.33541083 0.3992197 0.34127027 0.24132508 0.46336842 0.2335194 0.24762392 0.31049594 0.50788856 0.49294776 0.34044755 0.52566683 0.51175594 0.42985076 0.2791198 0.3440073 0.12894641 -0.124995366 0.096788496 -0.30883873 0.029964015 0.05796604 0.131116 0.25286296 0.40372252 0.42841712 0.31807625 0.20337443 0.5234671 0.3133452 0.54433966 0.31766412 0.19066498 0.44352627 -0.097019896 -0.08808603 0.36739317 0.022326615 0.03375312 0.06158147 0.10587832 0.118977584 -0.016981438 0.21823442 -0.026190624 0.17120084 0.15074554 0.14565669 0.4720728 0.5935778 0.15665361 0.1068593 0.085595205 0.6442198 0.66077733 -0.03933144 -0.20679072 0.664124 -0.18846737 -0.12242329 0.6579521 0.68476117 0.07652526 0.10626306 0.6954731 0.11601253 0.12213021 0.6806188 0.7231251 0.3987765 0.34809554 0.35086194 0.20805171 0.5881698 0.6604427 0.2000122 0.18677026 0.28685012 0.4260612 0.4174038 0.42761767 0.5453229 0.61045253 0.59390426 0.53576946 0.61747587 0.6693357 0.5229765 0.5276532 0.54048276 0.4591208 0.5215049 0.5343118 0.58498245 0.6187159 0.6334487 0.4588713 0.4568947 0.40444487 0.34814203 0.23583719 0.23491494 0.2093731 0.34520566 0.47599226 0.5736125 0.62902164 0.6488756 0.45045328 0.50938594 0.50899214 0.17625497 0.11948977 0.11567072 0.07327086 0.31326094 0.49002522 0.57702124 0.64941037 0.45200306 0.47276706 0.23612536 0.21101248 0.042870708 0.35429686 0.5632297 0.40390506 0.20540947 -0.008444954 0.29063118 0.09954594 0.047311965 0.01513371 -0.30098414 -0.2941142 0.06950821 0.037920073 0.07760975 0.07865488 0.08877802 -0.034056522 0.0031141043 0.05739247 0.07790708 0.09333593 0.14330888 0.18537602 0.29617757 -0.38106504 0.34724656 0.43665373 0.53506744 0.22915763 0.18333504 0.008464241 0.58549774 0.33787924 0.27001056 0.5544566 0.5268642 0.24439184 0.3043061 0.44599524 0.37921467 0.20820439 0.2125787 0.26980534 0.13107508 0.24795079 0.10381003 0.21320868 0.36654454 0.3129964 0.4700574 0.3657323 0.24345112 0.2773545 0.30508512 0.1345255 0.23105845 -0.2691968 0.123075105 -0.31567743 0.024135306 0.09737599 0.3079294 0.22229528 0.33335078 0.36211836 0.51506233 0.38540685 0.35827094 0.44458115 0.37340683 0.31517732 0.40182877 0.2750914 0.09564706 0.10754794 0.02074878 0.14153601 -0.005299911 0.16257349 0.20947632 0.017111003 0.20815209 0.14885151 0.12713435 0.52505237 0.038437426 -0.024900258 -0.17466845 -0.23921627 0.6139212 0.64291066 -0.18560779 0.6227366 -0.092388354 0.59331703 0.09169158 0.009657644 -0.069435954 0.58069605 -0.0599437 0.014873741 0.6040709 0.040538434 0.654606 0.068155624 0.11678128 0.1332657 -0.08364925 0.5035188 0.09466346 0.06979288 0.19600484 0.43472868 0.6946466 0.60864836 0.50457776 0.6277973 0.7005239 0.71308947 0.35410047 0.45749283 0.50838596 0.51022077 0.53758276 0.57793665 0.60268664 0.23889905 0.09968529 0.12325896 0.26703626 0.42848068 0.6040261 0.6328361 0.64354575 0.40055013 0.40778363 0.32268262 0.22427633 0.16280839 0.10147927 0.08433909 0.24669233 0.65981305 0.6612767 0.38839802 0.64515376