# vtk DataFile Version 2.0
Really cool data
ASCII
DATASET POLYDATA
POINTS 7877 float
18.381945 12.113842 108.73495
18.239033 12.080727 109.21824
18.439419 11.810758 110.870476
18.375872 12.669716 108.02521
18.185024 12.684557 108.380066
18.107376 12.714253 109.0999
18.44929 12.038079 110.94453
18.186485 13.662461 107.73398
17.980524 13.618794 108.319595
18.0479 13.489197 109.463394
18.25497 14.38692 107.664444
17.992035 14.356515 108.45116
18.28392 15.066231 108.44207
18.450384 15.174454 109.24648
19.28116 5.875823 110.590195
19.33767 5.94301 111.09909
19.07372 6.890166 109.82244
18.897614 6.7589393 110.50265
19.020416 6.6291533 111.17766
19.275047 6.847293 111.69051
19.045567 7.9406943 109.7773
18.746326 7.2530303 110.69863
19.024393 7.148847 111.31815
19.262545 7.4024467 111.81106
19.357492 8.931494 108.946625
18.992085 8.229169 110.529305
19.053017 8.189718 111.46309
19.118988 9.59882 109.0246
18.91498 10.348913 111.150215
18.799257 12.178626 108.01859
18.691412 11.15269 111.14563
18.520765 12.808403 107.75278
19.236715 12.050845 112.00561
18.771927 13.900704 107.20232
18.459932 13.553704 107.45868
18.884703 13.458211 111.16073
18.792992 14.453603 107.223206
18.47197 14.666643 107.491905
18.658375 14.335688 110.57127
18.911947 14.258168 111.190796
18.953989 14.950481 107.30565
18.74747 15.166524 107.66087
18.567286 15.606628 109.75277
18.687761 15.332635 110.241196
19.191872 14.979666 110.98002
19.067532 16.29768 108.74742
18.9779 16.353392 109.60411
19.013206 16.217634 110.110825
19.272888 16.7478 109.37712
20.15463 4.800784 108.99024
19.848148 4.8895903 109.6422
19.889036 4.844682 110.37747
20.063406 5.3238335 108.84238
19.678123 5.3806934 110.81476
19.587519 5.894165 111.25831
19.652351 6.1276517 109.30977
19.4577 7.1271973 111.92614
19.466082 8.1784 111.992714
19.849525 8.678665 112.72296
19.840782 9.536429 108.3129
19.476433 9.986619 112.262695
19.378258 11.676225 112.16214
19.41569 13.734322 107.110176
19.587461 13.24812 112.031044
19.50766 14.474503 107.14764
19.944357 14.1396675 111.9616
19.324642 14.940236 107.297386
19.338623 15.242236 107.4929
19.622763 15.627119 111.1704
19.540009 15.917292 107.95888
19.48922 16.538605 108.61248
19.59519 16.511639 110.595604
19.883968 16.291922 111.02281
19.74655 16.827972 108.88492
19.635138 16.912216 109.58877
19.773928 16.840605 110.143005
20.096739 16.649786 110.78069
21.372004 2.7886977 110.3494
21.107027 4.1337514 107.74727
21.097532 3.6682925 108.74057
20.736265 3.6450908 109.41489
21.262371 4.967402 107.14083
21.069347 4.3217835 107.851776
21.18624 4.626036 112.15205
21.135025 5.5435524 107.15153
20.719976 5.338726 107.69276
21.275782 5.9275413 107.04893
20.85002 6.135665 107.617
21.119928 8.168406 113.687416
20.664558 8.527198 108.161415
20.745808 8.453218 113.31325
21.118507 9.583158 114.41836
20.571138 10.071213 114.02042
20.191038 12.030218 112.66569
20.087418 13.76609 107.286
20.407518 13.33253 107.50604
20.277863 13.112347 112.302795
19.939255 14.134521 107.2324
20.207468 14.450708 107.479645
20.581297 14.110838 112.13186
20.491804 15.375793 107.88471
20.538576 15.262925 111.66116
20.23068 16.12976 108.15839
20.339174 16.531334 108.46316
20.56784 16.237965 111.22614
20.276857 16.808054 108.83363
20.384987 16.992395 109.485306
20.433014 16.87984 110.35378
20.423225 16.698221 110.81614
22.037352 2.2717786 110.41635
22.120205 2.3224218 111.20593
21.915922 3.3297668 108.10176
22.037954 3.0955758 108.6402
21.83453 2.5854707 109.72354
21.499556 2.6473966 110.428246
21.74239 2.7172503 111.28169
22.219603 2.8500664 112.58313
22.289118 3.0137966 112.999176
21.896408 4.05505 107.19382
21.660988 3.702825 107.74111
22.330927 3.6590629 113.24699
21.769455 4.6870484 106.96065
22.040754 4.1691356 113.07422
21.708986 5.531004 106.810135
22.070965 5.529593 113.1448
21.5373 6.05529 106.99612
21.677984 6.842026 107.470085
21.597223 8.792275 107.97855
21.435339 8.983818 114.45738
22.156796 8.76213 114.73634
21.812471 9.525436 114.78776
21.844967 10.520302 108.04373
21.401352 10.715016 114.30217
21.688656 10.245615 114.77675
21.824055 11.432085 107.83209
21.771343 11.250402 114.32621
21.679552 12.866354 108.31907
21.421328 13.79907 112.061424
21.164814 14.317059 111.994736
20.937391 15.412223 108.25832
21.271074 15.812123 108.794716
21.427238 15.610248 111.126396
20.880157 15.439858 111.549515
20.989485 16.311337 108.81968
21.383877 16.359627 109.66422
21.294855 16.502653 110.42313
21.10363 16.304016 110.95981
20.930347 16.847332 109.69738
21.04876 16.668749 110.57097
22.154833 2.3341792 109.77936
22.506315 2.1475532 110.405655
22.642437 2.1511862 111.493065
22.887278 2.1794958 112.481865
22.987505 2.2832727 113.021
22.514507 3.3496625 107.926285
22.554396 3.1697633 108.35896
22.265726 2.4544683 109.39547
22.5086 2.5690658 112.76917
22.76859 2.6993182 113.284676
22.418509 3.978079 107.192505
22.485647 3.607741 107.51765
22.584957 3.2602122 113.554665
22.966227 3.4535942 113.92314
22.515379 4.5749807 106.892006
22.594725 4.4753976 113.74123
22.272863 5.4250503 106.763794
22.384893 6.2761135 106.98145
22.192682 7.781507 107.90928
22.268599 7.878981 114.035286
22.6746 8.629923 114.80922
22.547848 9.772101 115.10763
21.879719 10.934805 107.91754
22.74258 10.549097 115.23508
22.07383 11.568428 108.044136
22.935991 11.330807 115.20449
22.611149 11.878 114.571495
23.003546 12.071635 114.82524
21.970129 13.947707 109.26365
22.076208 14.394873 110.34056
22.043524 14.00717 111.09247
21.629652 15.085879 109.00868
21.65366 15.681863 109.446846
21.789206 15.448046 110.34592
21.703043 15.501209 110.862724
21.611462 16.098404 110.40525
23.450365 1.9723792 111.74157
23.998186 1.7500737 112.60749
23.13596 2.9218402 108.97296
23.514408 2.4008641 113.5399
23.603476 2.834843 113.950226
22.86115 4.0112114 107.25845
23.060411 3.8844116 107.46053
23.628492 3.6258202 114.260864
23.101986 4.616334 107.051216
23.401106 4.2493806 114.32576
23.672062 5.1898 114.26257
23.08267 6.350958 107.24567
23.429884 7.0613365 114.40771
23.779566 7.163205 107.96546
23.855474 8.175908 115.100746
23.6617 8.747422 115.29862
24.209051 9.221024 107.273796
23.619192 9.554969 115.46404
23.475998 9.905841 115.56313
23.612175 10.434025 115.660995
22.710234 11.773383 108.61048
23.257727 11.258956 115.47478
24.05915 11.190131 115.81068
22.813131 12.10215 111.71706
23.750788 12.208454 115.19123
23.547312 12.684861 113.83271
23.742178 12.639975 114.57433
25.038216 1.6028916 113.494255
24.553244 2.1404846 113.957794
24.564602 2.589775 110.20748
24.14093 3.5090823 114.2631
24.248314 4.333136 108.60715
24.435574 4.537272 114.42282
23.807518 5.846283 107.35153
23.929169 5.2785683 107.44693
24.386168 6.3044724 114.4208
24.704943 8.377973 114.988205
24.896423 9.675644 106.8197
24.550135 9.86993 115.68629
24.667929 10.164035 107.216736
25.083319 10.544956 107.671814
24.572508 10.615402 115.885284
24.05456 10.66676 109.90158
23.694258 11.414971 110.73731
24.695927 11.509456 115.95793
24.439983 12.516138 112.84038
24.571789 12.364384 115.428764
24.897799 12.113159 115.806564
24.35941 12.637482 113.12663
24.673409 12.793296 113.828865
24.511826 12.752883 114.51421
24.779234 12.681972 115.05176
25.903894 0.95122147 111.707275
25.42079 1.0736588 112.73722
25.698004 1.0979395 113.42593
25.81123 1.5353423 110.897606
25.258017 1.4341269 111.38288
25.92302 1.7886865 114.509926
24.91224 4.5999217 114.36472
25.64582 6.6573486 114.47255
25.298689 8.225073 107.35733
25.074232 7.7080894 114.80017
25.32962 8.89027 106.7775
25.454617 9.527008 106.72753
25.007597 9.303178 115.49296
25.623125 10.312407 107.132484
25.565746 10.917879 115.903366
25.350763 10.712599 107.805534
25.714201 10.922653 108.55551
25.739826 10.768227 109.50152
25.304886 11.120178 111.85047
25.394287 11.510297 115.96822
25.29363 12.123934 112.775795
25.486645 12.435085 115.50695
25.428425 12.194502 115.75787
25.019203 12.667998 113.75448
25.425852 12.711853 114.67515
25.426365 12.6726465 115.140884
26.618464 0.4156024 112.70517
27.013294 0.20476796 114.110054
26.911087 0.97914374 110.85724
26.241337 0.84205544 112.10274
26.43357 0.5298296 113.501656
26.752863 0.74209523 114.59503
27.02427 1.6263069 110.33544
26.776043 1.3238946 110.573586
26.709719 1.4246056 114.922806
26.45359 2.0383806 114.80482
26.4255 3.2276382 109.92007
27.000793 5.380819 114.276665
26.829794 7.1786957 108.5428
26.721539 6.4606514 114.65864
26.766876 8.167408 107.428894
26.529097 8.847153 107.041504
26.621458 8.275404 114.901985
26.180935 9.676455 106.89111
26.443134 10.030571 107.17181
26.205708 10.482441 107.40249
26.569761 10.299198 110.83268
26.444637 10.541983 115.22445
25.883827 10.743642 115.749954
26.423372 10.647957 107.65429
26.385273 10.976553 108.65476
26.304827 10.636603 110.14959
25.808277 11.259469 112.25957
26.342907 11.273882 113.46583
26.24928 11.672963 115.444954
25.910809 11.45556 115.812675
26.10809 11.946844 113.776955
26.011747 12.370152 114.662704
26.074804 12.1082325 115.36359
25.799381 12.619876 114.79607
28.28351 -0.63312054 114.17949
28.031048 -0.1366843 112.853
27.295328 0.061202735 113.85451
28.064129 -0.37782097 114.34244
27.930405 -0.038438797 114.85337
27.339499 1.102963 110.68475
27.517916 0.71984786 115.053246
27.787582 1.2665129 115.44585
27.235458 2.411305 110.22593
27.711046 1.9733804 115.28153
27.82921 3.2489057 110.49632
27.001942 4.471735 110.06387
26.969696 5.414895 109.99084
27.78676 5.5095277 114.320076
27.146645 8.2467985 107.53795
27.1385 7.8911757 115.04805
27.11868 8.901067 107.22904
27.494186 8.535552 107.577576
27.30401 8.258006 115.07322
27.302946 9.517024 107.29944
27.418814 9.273282 107.45839
27.3695 10.04651 107.77959
27.540518 10.332027 108.614975
27.547579 10.37322 109.359825
27.468061 9.833953 112.055405
27.641293 9.970711 112.78124
27.588097 9.683971 114.372025
27.121445 10.766859 108.72769
27.090284 10.798457 109.20123
26.961157 10.7035675 109.89992
28.466906 36.90621 109.45455
28.465803 36.922596 109.93216
28.453564 37.44903 109.017944
28.459719 37.372234 109.49252
29.330362 -1.623577 111.123024
28.932331 -1.0025678 111.31288
[...]
POINT_DATA 7877
SCALARS features_00 float 1
LOOKUP_TABLE default
0.47811627 0.46389207 0.36231136 0.5782373 0.5669381 0.5117857 0.3784485 0.7158178 0.65230095 0.59943867 0.7455367 0.7335104 0.78589416 0.7866502 0.44194975 0.44171056 0.4287988 0.42863905 0.4271194 0.3887701 0.41514736 0.4254226 0.41193387 0.36386704 0.35622782 0.41560632 0.34701514 0.30331948 0.24009477 0.48718733 0.29298866 0.6158265 0.34228513 0.7483249 0.7384714 0.44712675 0.7388201 0.7456991 0.58625674 0.5409696 0.72639775 0.74371135 0.76509714 0.71353334 0.6488183 0.865255 0.8505713 0.8159569 0.8998718 0.49684447 0.45245057 0.4240417 0.48354208 0.4362836 0.41376805 0.41814056 0.33991107 0.29320553 0.2338609 0.2906285 0.20590918 0.31606898 0.7140702 0.44484165 0.68952656 0.5531526 0.70295 0.7142253 0.7476537 0.78920346 0.8889922 0.8468134 0.8236518 0.9289174 0.91805494 0.89845324 0.8714409 0.38106835 0.60501945 0.4976058 0.46082243 0.63972056 0.6068575 0.3038934 0.61471236 0.5952883 0.5888627 0.52306455 0.31339836 0.27703524 0.3230998 0.3374725 0.3239092 0.28593192 0.63127774 0.5487582 0.4358536 0.65312034 0.62418985 0.56818986 0.7131252 0.719579 0.8253039 0.8946887 0.82912326 0.9417001 0.95702815 0.90988386 0.879113 0.37298816 0.36096343 0.5216048 0.48026484 0.4158773 0.3761106 0.349091 0.4152865 0.42921174 0.62008375 0.5706631 0.4292471 0.6520229 0.39461082 0.6273656 0.2780556 0.57570076 0.4474828 0.18978627 0.32858896 0.3128973 0.3398023 0.1587182 0.33510894 0.35727462 0.1920613 0.35086447 0.35156637 0.566602 0.62301767 0.744128 0.8318058 0.77495885 0.75064766 0.90130824 0.8959538 0.87728053 0.84902763 0.9506805 0.88513947 0.3927303 0.35973728 0.36764547 0.3831978 0.40407565 0.538075 0.5004359 0.4130722 0.4123811 0.42589322 0.6161912 0.5779829 0.43809482 0.43605217 0.65883803 0.409626 0.6549658 0.5518337 0.20054969 0.2575553 0.29570717 0.3509418 0.1656295 0.40422696 0.18479496 0.49086195 0.5144624 0.608439 0.5751776 0.64376837 0.6097967 0.7058656 0.79121727 0.7522025 0.7592604 0.8313417 0.3459921 0.3456024 0.41745874 0.4154657 0.42405996 0.60771024 0.57720757 0.4214449 0.6600872 0.40210623 0.26409838 0.5261897 0.13174966 0.25439045 0.22947992 0.28674337 0.58589864 0.34947377 0.3795467 0.44225556 0.1419146 0.5180751 0.6039249 -0.029961519 0.7038334 0.6191917 0.69515383 0.34632382 0.3726403 0.29554483 0.40225202 0.53849465 0.28275698 0.5835005 0.63345265 0.033933252 0.18934914 0.72984767 0.41661513 0.70938396 0.7025167 0.5567043 -0.026477225 -0.051246215 0.72134906 0.4449329 0.7529803 0.77488756 0.51839805 0.6302977 0.6880694 0.732479 0.3825186 0.34255266 0.3513463 0.38091975 0.35451233 0.37891576 0.19419898 0.05081404 0.574242 0.096336365 0.6962183 0.7407884 0.31011963 0.7467413 0.6886368 0.7068817 0.6319958 0.425677 0.06524678 0.75867903 0.44578806 0.78544235 0.7902994 0.6176429 0.7148142 0.7586483 0.31914103 0.35021478 0.39469314 0.37034222 0.34923887 0.3886377 0.37595236 0.3943218 0.3989637 0.3708179 0.18475926 0.075631924 0.43137395 0.15143333 0.6143101 0.702525 0.18021972 0.7594285 0.77307487 0.75952613 0.122717425 0.5730245 0.6620834 0.75812745 0.6496463 0.3352218 0.17457873 0.34706804 0.7622779 0.76067615 0.5777837 0.73977995 0.7868407 0.73705363 0.30300903 0.21576335 0.31669727 0.31189287 0.3281318 0.39241531 0.37269956 0.36484477 0.333476 0.3421856 0.2218023 0.078949906 0.047026526 0.072417945 0.62375927 0.24329597 0.6964953 0.656888 0.3582958 0.7369195 0.7144195 0.7558521 0.6455346 0.49744147 0.1892952 0.28819346 0.45824397 0.6387991 0.5540149 0.42279223 0.7598159 0.7689133 0.7641707 0.77337885 0.5586649 0.45226347 0.3452513 0.32826734 0.3375579 0.31659034 0.3293174 0.38345534 0.33873034 0.34429514 0.1861788 -0.01081383 0.15328145 0.5879326 0.50919074 0.65677863 0.62552255 0.40455619 0.66284037 0.46033722 0.27170515 0.49184 0.5239959 0.68338287 0.53677726 0.24759081 0.37326527 0.4688657 0.3387474 0.32038632 0.35996145 0.41159713 0.291256 0.3706284 0.379974 0.38555726 0.41297913 0.44018352 0.47152925 0.4570011 0.50647724 0.5382011 0.42030933 0.41833442 0.42758578 0.46231353 0.48602894 0.55501527 0.64416325 0.6501541 0.63572216 0.41621274 0.42046914 0.44118816 0.48656696 0.54392016 0.6714581 0.67790985 0.42969137 0.4394787 0.4645118 0.55588186 0.60491943 0.6848048 0.7078215 0.7604301 0.6726265 0.71732295 0.7456944 0.7750279 0.7775655 0.68187463 0.7516879 0.7768605 0.7718389 0.7520891 0.6730964 0.7424333 0.7794877 0.7677716 0.7037957 0.729356 0.7201834 0.60503536 0.51627696 0.40302867 0.75004315 0.6313691 0.38035235 0.40468603 0.72370815 0.37288424 0.33511433 0.28993985 0.20472588 0.25122255 0.22257549 0.18723978 0.0843767 0.24406205 0.21533759 0.30834273 0.31450668 0.21703556 0.33846474 0.51504207 0.23750943 0.31374544 0.36604124 0.44377533 0.48260027 0.40432525 0.27058196 0.34484196 0.253363 0.39939383 0.50184935 0.51923835 0.2269243 0.22970489 0.2026284 0.13728425 0.18361449 0.18703115 0.27960324 0.38360265 0.47164193 0.49038768 0.26475978 0.28762752 0.2924138 0.25598818 0.24989077 0.34986174 0.4244843 0.34263235 0.35438138 0.36777586 0.52072537 0.38496464 0.4105238 0.43600503 0.60605234 0.38700205 0.39110005 0.42275482 0.4265815 0.41550362 0.6497317 0.6267823 0.40681797 0.4093481 0.40527463 0.39685223 0.38694316 0.4272629 0.44998688 0.48703945 0.54197127 0.59823704 0.62579215 0.517421 0.5482823 0.568927 0.6786189 0.5884023 0.6557108 0.577332 0.6271744 0.48101482 0.5775228 0.66239697 0.5406759 0.45513463 0.51133806 0.6240424 0.6312486 0.5909127 0.47192308 0.6721131 0.5554906 0.786595 0.7598828 0.58891916 0.45093518 0.37325194 0.39118415 0.7784967 0.7664573 0.422747 0.37188098 0.7109289 0.30181974 0.6579714 0.2538745 0.20909517 0.08757839 0.42612034 0.52690434 0.057490423 0.46238595 0.5803621 0.61364007 0.62157255 0.5775833 0.62064314 0.31131214 0.19915584 0.61123025 0.67353296 0.36031303 0.36280936 0.4208188 0.7480874 0.77024627 0.77751374 0.78523684 0.78178394 0.7856606 0.62759346 0.26541802 0.40340075 0.637668 0.6961336 0.21883965 0.25363594 0.24324022 0.25584066 0.36664504 0.54603857 0.61395836 0.15631631 0.19411245 0.20606238 0.16067499 0.0760904 -0.040561914 0.14460228 0.5853391 0.5296 0.15646859 0.21874021 0.1635781 0.110555515 -0.098189995 -0.036929768 -0.09669572 0.50120145 0.49739122 0.16352108 0.22971642 0.46731222 0.41968197 0.21577814 0.26737678 0.4105792 0.27408928 0.2947504 0.26630694 0.2578334 0.4885862 0.23121838 0.27591464 0.33748955 0.3544671 0.3566006 0.3489561 0.31834635 0.36498556 0.52923733 0.49740475 0.20664978 0.23922846 0.3636806 0.42897576 0.43050253 0.43610302 0.40060595 0.32591072 0.3262445 0.33267203 0.34313363 0.39103186 0.3542351 0.43042004 0.53432024 0.53967625 0.2549803 0.21185403 0.23849684 0.44643942 0.35042098 0.34549147 0.5034884 0.5385805 0.53371733 0.19968688 0.20349324 0.2750913 0.397902 0.2950554 0.31740385 0.4725371 0.39739954 0.45062256 0.47715336 0.4074874 0.4322764 0.37524533 0.41927353 0.44114643 0.32799715 0.376999 0.44725698 0.45545727 0.4531071 0.73381233 0.6535187 0.53039217 0.81100297 0.78402007 0.33514303 0.3157115 0.34751981 0.8082918 0.34891382 0.70540804 0.6744593 0.24962105 0.5841585 0.43876943 0.16988902 0.15999877 0.3821038 0.18820666 0.4889445 0.56703997 0.6251171 0.6482779 0.66704416 0.65476394 0.67440474 0.48659497 0.6235353 0.61799777 0.63723725 0.6864838 0.6783484 0.65183055 0.7330088 0.72992027 0.7011901 0.7181965 0.73885614 0.6868987 0.7013604 0.7268907 0.7466162 0.7677715 0.66725934 0.74500334 0.7641921 0.7452804 0.6514694 0.75460696 0.7768507 0.7769306 0.74117017 0.58800596 0.74776953 0.7451232 0.684389 0.28525192 0.5415952 0.66791356 0.72014 0.7067348 0.24881731 0.28014374 0.275733 0.2489382 0.16109729 0.27049518 0.4909643 0.7081988 0.6955801 0.1514883 0.23086801 0.15836708 0.03731288 0.051789425 0.19294131 0.66410327 0.027402557 0.085902095 -0.18555103 -0.17181648 0.5690805 0.5908885 0.53426147 0.078874394 0.45913392 0.5511739 0.38685083 0.048262313 0.04252386 0.10561121 0.43190983 0.25947076 0.26803374 0.09332532 0.016537543 0.04135669 0.043097742 0.050630495 0.015588557 0.047507122 0.20983881 0.20529582 0.14013381 0.17787287 0.15448995 0.13936405 0.09864404 0.087671176 0.098022416 0.15150812 0.21650426 0.10916346 0.21879749 0.2714415 0.14409535 0.18283674 0.27992946 0.1888004 0.14228882 0.19278292 0.30463836 0.4528403 0.4233504 0.3213941 0.2919678 0.2333645 0.17322864 0.22207637 0.24631928 0.17258462 0.22735202 0.3501385 0.46002543 0.49212122 0.4933645 0.088874064 0.025305364 0.1824023 0.24839337 0.30115518 0.28510007 0.30610368 0.021176811 0.2684012 0.1809461 0.2491201 0.29719895 0.24553365 0.20528355 0.27906853 0.3219815 0.3249939 0.29744896 0.3463094 0.32498616 0.81331336 0.649591 0.46008223 0.8343605 0.33971825 0.27520964 0.19602904 0.7926339 0.28088945 0.705654 0.6138258 0.5982206 0.16367659 0.15882161 0.15269417 0.04945007 0.17234752 -0.11675392 0.4109671 0.5235421 -0.13396853 0.6199604 0.6859485 0.41716945 0.66687596 0.69100904 0.56540596 0.61341095 0.62583065 0.604097 0.6673819 0.7023227 0.64348745 0.6083096 0.70574635 0.6941581 0.70643854 0.72603047 0.7235408 0.66135144 0.61197233 0.6691408 0.61696166 0.5688317 0.6637876 0.6666944 0.53045607 0.6948817 0.48486897 0.7302636 0.48758948 0.41765973 0.72332126 0.7030746 0.6253426 0.50590396 0.17371437 0.16127966 0.2336575 0.2379109 0.377525 0.47392106 0.66423464 0.69629776 0.6769829 0.17798983 0.17703292 0.66757244 0.6354013 0.14000705 0.119950704 0.04757777 -0.0826626 0.12312875 0.21531111 0.60896426 0.73077756 0.6641751 0.57648194 0.44747198 0.010202989 0.0055182576 0.06800218 -0.083055936 -0.07068079 0.47087744 0.67068446 0.6937524 0.66427076 0.51271397 0.40006122 0.21452837 0.013287758 0.030301865 0.028767899 -0.0096721575 -0.0751275 -0.10648182 0.4006758 0.61584544 0.6161822 0.58716977 0.2644901 0.09054657 0.012813441 0.046455316 0.050736517 0.023156537 -0.047060512 0.52742106 0.39678895 0.2423386 -0.024643127 0.1820173 -0.056806907 0.058610387 0.12495876 0.23771246 -0.08914971 0.04238781 0.12925382 0.24768105 0.29729787 0.31096387 -0.056988627 -0.019821428 0.12013358 0.16289455 0.16844878 0.049054313 -0.065533005 0.13250019 0.20645162 0.24585009 0.27399528 0.2244933 0.16496597 0.20119418 0.5342299 0.45846096 -0.05579038 -0.105866686 -0.023736753 0.1899024 0.1978406 0.24544494 0.599628 0.5392441 0.013730196 0.615081 0.06262695 0.4446012 0.3827021 0.13749826 0.14822552 0.03400612 0.17280534 0.23641214 0.22048293 0.20486407 0.2713761 0.26467296 0.20410366 0.22822961 0.74130726 0.59888375 0.40036225 0.7511185 0.77450204 0.2215507 0.19285803 0.7246847 0.68370885 0.5186026 0.36657593 0.1650222 0.18469135 0.0885985 0.21660599 -0.098557904 0.34230226 0.49643862 -0.062456325 0.57532895 0.051001124 0.68745446 0.38169703 0.6673504 0.6922078 0.50487465 0.58417594 0.56201863 0.6240773 0.62128204 0.6829433 0.62800765 0.5926894 0.6261848 0.6480479 0.62014234 0.625906 0.49647558 0.5727433 0.51087964 0.4054523 0.59220135 0.4155055 0.62914145 0.3983077 0.4234228 0.6328204 0.35529834 0.36184785 0.6513003 0.535619 0.6214299 0.5023279 0.40917593 0.32565808 0.4119783 0.50176394 0.61570704 0.6313972 0.25905246 0.2764069 0.25823504 0.20905298 0.3459985 0.41401842 0.5210924 0.594397 0.6226045 0.15331948 0.23815897 0.26594198 0.25302997 0.20635118 0.08784405 0.25276327 0.414446 0.49062818 0.55582154 0.58406043 0.092702165 0.0794472 0.12870732 0.21782142 0.19008455 0.08067058 0.35304856 0.36647308 0.17915988 0.114086375 0.055597164 0.05770097 0.08925179 0.1378851 0.12141778 0.023246914 -0.34579304 -0.06837561 0.038993623 -0.08146623 -0.054204784 -0.2707186 0.079005904 0.39655152 0.45190972 0.6495583 0.5941146 0.13239948 0.17822343 0.074701 -0.014359914 0.5640778 0.60809237 0.5204709 0.016379252 0.076603934 0.5541489 0.70007503 0.7346352 0.69515586 0.54236364 0.37276512 0.25586736 0.0149667375 0.005531527 0.02478882 0.64517844 0.014619991 0.294704 0.5476604 0.16352306 0.47711182 0.2574319 0.09518388 0.35436484 0.60110795 0.0034999177 -0.042163692 0.052700877 -0.2606814 0.36144117 0.5881421 0.6288882 -0.005962353 -0.015511906 0.19625512 0.5668919 0.5921815 0.65410125 0.11097973 0.20978835 0.23149234 0.22991404 0.6820885 0.6237304 0.514627 0.41978258 0.25381464 -0.15464556 -0.012804123 0.116242096 0.16071698 0.7041565 0.6488856 -0.106690735 0.69075155 0.6616986 -0.08144784 0.55111265 0.4488138 -0.055906158 0.48455843 0.41612947 0.099833705 0.37428427 0.32367897 0.27762657 0.23937963 0.23876294 0.33233267 0.29157993 0.21173719 0.19393659 0.21228908 0.22704965 0.23935294 0.7101724 0.7293621 0.53698707 0.6988372 0.68024623 0.41860533 0.6754371 0.64945126 0.54860246 0.48603523 0.1902884 0.2389166 0.21204862 0.31227714 -0.06623897 0.0028660372 0.5848387 0.56274307 0.28411478 0.62342983 0.48947322 0.5730082 0.5845332 0.5463327 0.49264282 0.5805105 0.53811526 0.53961045 0.47068104 0.48018572 0.46792737 0.39103752 0.34082898 0.277765 0.3043651 0.3402262 0.3698129 0.37182543 0.41189948 0.36456463 0.3874688 0.12565641 0.29965594 0.28449252 0.21130827 0.49361557 0.58590806 0.62979907 0.3295276 0.20136058 0.21021865 0.22059 0.21107739 0.19845667 0.1408632 0.30784017 0.37681177 0.5035025 0.60796064 0.6443333 0.65639114 0.3616209 0.22397539 0.10276842 0.12773328 0.16313782 0.22009736 0.2414666 0.19538672 0.07650064 0.26778856 0.63933325 0.64081794 0.3775564 0.42059484 0.415296 0.34859383 0.2589931 0.15319668 0.076387204 0.016040392 0.5558471 0.48547935 0.5270046 0.4958913 0.4278881 0.3682322 0.33311528 0.2337453 0.17999442 0.33974665 0.3916213 0.38464648 0.4474414 0.51755285 0.50296795 0.4426351 0.21433946 0.20895226 0.06900674 -0.10985573 0.16488713 0.45472944 0.45300925 0.46804005 0.13008331 -0.41000795 -0.1589796 -0.07101712 0.46970582 -0.0152532905 0.40681508 0.5498336 0.3790753 -0.04156457 0.3892078 0.6695496 0.59458184 0.29965737 0.22215627 0.1865703 0.31483334 0.28913054 0.18814977 0.19414945 0.06439962 0.3141717 -0.19020493 0.58811504 0.66926074 0.05703798 0.057729356 -0.0045683905 -0.25073722 -0.13001843 -0.12215152 0.715661 0.777519 0.067428485 0.043451115 0.20250356 -0.03678575 0.20949031 0.37503213 0.5601604 0.6663821 0.7460337 0.7972113 0.5529246 0.43021065 -0.04819026 -0.00965518 0.050829455 0.12653884 0.20666175 0.24870351 0.26411596 0.26094925 0.7061969 0.7654247 0.8190885 0.6974131 0.6195141 0.49096465 0.21734677 -0.12524682 -0.24213856 -0.08568179 -0.010719366 0.73502076 0.72376466 -0.04445587 0.17685701 0.7302145 0.7108108 -0.0956541 -0.12197219 0.19266988 0.26178575 0.2959942 0.62792206 0.2535233 0.30539477 0.51836467 0.48213476 0.4129659 0.2135771 0.36525458 0.3148107 0.21593449 0.22774395 0.20863414 0.1638461 0.2554766 0.6565155 0.538989 0.5299278 0.49136007 0.48508102 0.6666771 0.6081283 0.4535606 0.63144505 0.600351 0.20717324 0.17859572 0.16689618 0.22495395 0.0728099 0.09449046 0.39975715 0.10329171 0.38350335 0.36916777 0.36261517 0.38604626 0.41063422 0.431256 0.12838441 0.43233353 0.4245574 0.28227964 0.24311787 0.20320271 0.35414088 0.3269366 0.17374927 0.14132541 0.3239854 0.11154328 0.14495654 0.35271204 0.07936296 0.37429768 0.17749082 0.14131816 0.063060604 0.20989352 0.16561374 0.3135565 0.23899412 0.13076805 0.0838416 -0.07253404 0.12596548 0.23200572 0.42987204 0.5750301 0.6193254 0.18419832 0.1993749 0.19289081 0.060379412 -0.09612733 -0.20293596 0.29609278 0.30031615 0.18712178 0.06990416 0.031370364 0.22144645 0.6519681 0.6618702 0.25185922 0.23898235 0.24009055 0.11112787 0.046564326 -0.051975973 0.34013128 0.35332546 0.3429099 0.29488325 0.64412636 0.28622553 0.29398543 0.28136903 0.25280517 0.1527469 0.3958022 0.2283423 0.38630205 0.40772262 0.52161545 0.31984964 0.29417118 0.19399379 0.30498993 0.31739044 0.31242418 0.2816217 0.17833513 0.20828068 0.30098826 0.43881392 0.32253385 0.17947362 0.2653097 -0.22658886 0.2408516 0.35304552 0.37956977 0.41483825 0.111706845 -0.13364537 0.1308744 0.20111065 -0.059422456 0.21072982 0.25010312 0.11198171 0.46740592 -0.19050136 0.013417341 0.13833965 0.0524783 0.5067163 0.050942887 -0.23795445 0.2181014 0.40455246 0.20213579 0.43159688 0.25754178 0.36425865 0.41442287 0.18220596 -0.005408533 0.3152338 -0.033420607 -0.11853584 0.055835776 0.7569986 0.088054866 -0.14465627 -0.07636577 0.8028034 0.03886465 0.18185934 -0.07247866 0.1011027 0.851996 0.62338793 0.55647135 0.40752614 0.24565142 0.24822466 0.25687814 0.24035954 0.52921885 0.74609005 0.81201535 0.8482972 0.7278905 0.6788756 -0.12567568 0.2210131 0.7468413 0.1513465 0.71937776 -0.12803206 0.19134054 0.24411538 0.1272536 0.65755117 0.65568423 -0.028541967 0.2056543 0.26362935 0.3090251 0.29194832 0.23024769 0.5190861 0.43475273 0.103514016 0.17479244 0.20974225 0.27961397 0.30099896 0.2951879 0.38928527 0.37783262 0.14962587 0.29150718 0.30074537 0.2896797 0.38636336 0.36562693 0.32683232 0.1601547 0.19371673 0.14098819 0.18419461 0.21161841 0.27093703 0.20890048 0.22931314 0.25987625 0.32279247 0.3119196 0.33325893 0.4516573 0.50791514 0.3447364 0.36658406 0.40688232 0.45867026 0.55685437 0.3646891 0.4118694 0.43961513 0.52900827 0.54839313 0.52467144 0.606561 0.5674261 0.5197537 0.5039842 0.46659148 0.271069 0.25193828 0.42016995 0.42275 0.16256474 0.35829896 0.26562232 0.16576982 0.14833584 0.10013637 0.24774441 0.31682363 0.44667512 0.4915548 0.44768256 0.092185795 0.29811275 0.4642066 0.38793153 0.4390448 0.11461504 0.00328324 0.36587316 0.33465925 0.33779502 0.42656672 0.46108013 0.47440523 0.12839189 0.31617638 0.35113788 0.41362274 0.45482725 0.426979 0.12030123 0.29926312 0.27271384 0.35613507 0.3712483 0.3192294 0.34143668 0.32341856 0.25719866 0.21112576 0.2148174 0.007329099 0.18408588 0.23697275 0.42470258 0.3467982 0.1194898 0.053972676 0.19765589 0.13772467 0.007592246 -0.07882439 -0.12140442 0.04313182 0.17045864 0.21962851 0.2332603 0.277393 0.19511218 0.20172237 -0.102167845 -0.11240327 0.02469574 0.101754025 0.25489077 0.4373353 0.5757813 0.6212254 0.19568412 0.17395522 -0.17650178 -0.09979574 0.22758332 0.14139235 0.64656776 0.20493597 0.2140961 -0.06582561 -0.30286294 0.28283128 0.5423808 0.27810526 0.028803248 0.15043114 0.28223717 0.30560535 0.3303933 0.06903626 0.12107283 0.2067253 0.10138126 0.31143138 0.32281762 0.2323469 0.020136677 0.02808635 -0.22498085 0.25799975 0.104268655 -0.28134042 -0.30740276 -0.20108719 8.483231e-05 0.25775152 0.14796454 0.13879678 -0.28544432 -0.28393838 -0.3137601 -0.04464519 0.1917323 0.22758526 0.24042276 0.055904523 -0.03470578 -0.28973478 -0.28053954 -0.36382654 -0.4506573 0.15951823 0.27607235 0.26930916 0.2952799 0.31004336 0.11995032 -0.27486452 0.35153514 0.3290816 0.3474639 0.4461912 0.31244305 0.32526344 0.29280454 0.42374933 0.44463894 0.29073623 0.19702335 0.3886642 -0.05536751 0.07496088 0.08625268 0.6635368 0.079128854 -0.14505792 0.7367146 0.049595278 0.23688869 0.24879825 -0.08611274 0.100992486 0.774577 0.5257907 0.3656065 -0.006838262 -0.10450505 0.20219827 0.21592616 0.1710011 0.44182825 0.71642053 0.7875035 0.790184 0.65028703 -0.00938111 -0.2237673 0.17981358 0.7625855 0.09789874 -0.03322347 -0.17837867 0.73621076 0.10232499 -0.09924753 -0.12137383 0.56958365 0.020140499 0.10237865 0.0009975471 0.46052396 0.37673813 0.17681167 0.2682138 0.13126747 0.32922626 0.03498111 -0.05946963 0.26172736 0.29864588 0.30263504 0.27706644 0.14939967 0.3360901 0.35218227 0.3070794 0.05265435 0.314888 0.30535743 0.28098086 -0.014060646 0.040985882 0.40794396 0.16473424 0.18590634 0.46122253 0.5376259 0.23803496 0.316908 0.5706564 0.6012014 0.30251813 0.35969773 0.39518195 0.47700235 0.57023656 0.5811993 0.379569 0.3986863 0.4124226 0.4587933 0.51861584 0.5507262 0.5647675 0.40352345 0.41749364 0.44909036 0.48391414 0.6094087 0.5844783 0.5425241 0.5171722 0.57414967 0.5991651 0.53121173 0.4903741 0.22898318 0.44721818 0.46881986 0.18506171 0.18131648 0.4593653 0.4470632 0.15925592 0.42129147 0.28975743 0.30278486 0.56785774 0.14873143 0.5873369 0.6097348 0.6284482 0.6015265 0.56708235 0.39080632 0.5417471 0.57657665 0.5480268 0.2220603 0.30780256 0.37004727 0.45753205 0.4225844 0.19791368 0.48746568 0.082243234 0.36656392 0.27338612 0.2442749 0.3253593 0.45571214 0.43016458 0.12065796 -0.08879499 0.2477713 0.21101145 0.28108367 0.35522398 0.46095017 0