# vtk DataFile Version 2.0
Really cool data
ASCII
DATASET POLYDATA
POINTS 6897 float
-14.694955 45.034855 60.564095
-14.675587 45.068787 61.518154
-14.6570215 45.539856 60.055733
-14.816614 45.54172 60.60166
-14.871665 45.606487 61.311817
-14.721019 45.622974 62.060707
-14.725601 46.523117 60.15499
-14.841779 46.481415 60.52876
-14.877905 46.325962 61.4844
-14.741379 46.36044 61.921925
-14.649821 46.89172 60.09767
-14.72909 46.98693 60.639915
-14.745219 46.95169 61.18178
-14.6021805 50.889664 54.11359
-14.702299 50.797783 54.549484
-14.705699 50.93768 55.117306
-14.681946 51.23648 54.0188
-14.792012 51.55817 54.57903
-14.692733 51.54325 55.332718
-14.679749 52.474426 54.140438
-14.740398 52.449097 54.614613
-14.705266 52.454266 55.338676
-14.625733 53.109478 54.631866
-14.616105 53.113102 55.19545
-13.78622 44.33721 60.023327
-14.203614 44.881393 59.87838
-14.466378 44.789745 60.61536
-14.451087 44.72577 61.371826
-14.355906 44.948624 62.28497
-13.911305 45.269615 59.38222
-14.391359 45.426605 59.80398
-14.492448 45.451225 62.26417
-14.176959 45.68796 62.761486
-14.076628 46.135433 59.41512
-14.259312 46.44272 59.593582
-14.401163 46.288097 62.38729
-14.091633 46.05493 62.7528
-13.6583605 48.10268 46.098686
-13.740709 48.171127 46.37618
-14.194199 47.184868 59.82627
-14.349418 47.42296 60.443035
-14.35992 47.257442 61.453506
-14.201466 46.9353 62.131386
-13.822827 48.664867 45.977486
-13.993593 48.600296 46.57241
-14.003252 48.793564 47.357124
-13.817846 48.95523 48.027184
-14.033855 47.73341 60.731224
-13.793809 49.26383 45.930782
-14.031614 49.332424 46.52206
-14.093576 49.38783 47.406567
-13.910068 49.608257 48.06982
-13.954301 50.15652 54.112247
-14.27036 50.18446 54.54104
-14.301525 50.256588 55.030895
-13.806603 49.83587 46.125435
-13.872727 50.15351 46.641254
-13.842362 50.39769 47.535133
-13.823765 50.38379 48.154015
-14.327336 50.690502 53.90162
-14.529365 50.441883 54.547535
-14.414513 50.659462 55.3649
-14.248099 51.148453 55.948177
-13.599051 50.900936 47.092194
-13.667823 51.41377 47.76686
-13.798195 51.38083 48.20365
-14.386329 51.578793 53.76064
-14.451915 51.138634 55.692703
-14.220098 51.40263 56.026047
-13.859583 52.018276 56.714573
-13.531649 52.206924 48.998528
-14.018422 52.028717 53.2331
-14.398104 52.342 53.788345
-14.327398 52.568287 56.23081
-13.911018 52.594852 56.801033
-14.265684 53.208755 53.761917
-14.435415 53.5149 54.559658
-14.323282 53.472084 55.440163
-14.118316 53.179287 56.20807
-13.812398 54.05332 53.821194
-14.191815 53.85186 54.550884
-14.039158 53.904728 55.17688
-13.813509 53.723656 56.028152
-12.703063 40.02709 62.516
-12.602795 39.968647 62.97373
-12.777612 41.199104 51.6526
-12.756006 41.210537 52.18631
-12.627861 40.480522 61.84239
-12.7717285 40.40386 62.50775
-12.685652 40.343388 63.319878
-12.775935 41.69738 50.956795
-12.967705 41.615826 51.623947
-12.887666 41.547565 52.280037
-12.8351555 41.87632 52.800953
-12.925484 41.628986 61.850044
-13.367823 41.90905 62.79214
-12.871031 41.449764 63.415043
-12.766552 41.40207 63.861786
-12.819458 42.4269 50.805954
-13.062637 42.250908 51.581863
-12.956745 42.386745 52.28535
-12.7730255 42.16055 52.820248
-12.935068 42.719997 61.653694
-13.406032 42.50638 62.641617
-13.3374815 42.226723 63.4168
-12.916658 42.786495 64.667625
-12.909133 42.967926 65.28602
-12.689948 42.938187 50.806
-12.8290825 43.048824 51.519665
-12.651697 43.23288 52.3373
-13.454367 44.183067 60.002075
-12.901439 43.336475 60.603737
-13.116786 43.48124 64.56524
-12.944162 43.433758 65.542534
-12.788746 43.64331 65.973495
-13.325483 45.001495 59.18369
-13.510909 44.572914 59.44986
-13.2796 44.38069 63.50048
-13.065754 44.554153 64.422356
-12.980507 44.295773 65.41587
-12.8406105 44.15211 65.937546
-12.83887 45.468945 64.31584
-12.636503 45.33795 65.0362
-13.139763 46.548016 58.941032
-13.174341 46.378136 63.33626
-12.892244 45.81756 63.99001
-13.276551 48.03057 45.771282
-13.302362 47.803837 46.488346
-13.30992 47.963566 47.192993
-13.1724825 48.28654 47.923935
-12.987842 46.970062 58.753872
-13.417464 47.437298 59.503574
-13.7544365 47.50617 61.71294
-13.372554 47.500057 62.048904
-12.818688 46.933525 63.191494
-13.102187 48.58793 45.247307
-13.472133 48.58941 45.550194
-13.198413 48.637306 48.3033
-13.207999 49.041218 48.76998
-12.658399 48.374832 59.61747
-13.373469 47.961464 60.853294
-13.57814 47.684326 61.54897
-13.327994 47.62274 62.067783
-13.039361 49.302094 45.061405
-13.40011 49.51658 45.499714
-13.59877 49.40643 48.57452
-12.997081 49.754185 49.33508
-13.28899 50.05959 53.96596
-13.561644 49.93409 54.49444
-13.339378 49.902576 55.0247
-12.625902 49.747177 58.150333
-12.79757 49.881557 44.902565
-13.09132 50.544827 45.712406
-13.562214 50.412395 46.417027
-13.282695 50.367947 49.398518
-12.793098 51.081055 50.904785
-13.197282 50.772507 53.151722
-13.812699 50.49137 53.67222
-13.414357 51.24959 56.482777
-12.820003 50.92148 57.020874
-12.562698 50.13693 58.163696
-12.827903 51.01174 45.887054
-13.4840765 51.07873 46.79803
-13.404837 51.485443 47.244057
-13.413712 51.39801 49.65338
-13.339654 51.6845 50.386528
-13.67464 51.6267 53.27954
-12.616106 50.922844 58.338074
-12.969992 52.229965 47.181133
-13.283597 52.23556 47.697464
-13.36817 52.61387 48.84204
-13.466301 52.311626 49.48
-13.4063015 52.573406 50.42203
-13.432527 52.367107 52.44208
-13.451869 52.48335 57.080692
-13.024936 53.215702 48.72835
-13.211243 53.482628 49.627377
-13.349859 53.566795 50.4778
-13.009797 53.86119 51.88259
-13.250963 53.102448 57.03335
-12.856093 53.87895 49.214104
-13.067983 53.86278 49.54407
-13.187841 53.98219 50.402584
-13.08513 53.92917 51.51415
-13.430651 54.225735 53.50251
-13.279501 54.5496 54.214912
-13.536185 54.091526 55.493866
-13.409319 53.858917 56.16514
-12.742531 54.813755 51.24656
-12.855876 55.247463 52.6052
-13.034046 55.018185 53.355095
-13.042117 54.818928 54.26754
-12.790463 54.693096 55.236122
-11.716217 38.98199 60.7278
-12.045696 39.105843 61.682682
-12.07284 39.099674 62.461643
-11.9346 39.23066 63.343876
-11.763089 39.486504 59.749905
-11.999333 39.664566 60.658337
-12.30289 39.56795 61.76383
-12.491044 39.667477 62.75244
-12.335203 39.745792 63.3583
-12.07652 39.916756 63.868027
-12.234707 41.201763 50.851692
-12.4393835 41.003902 51.615517
-12.316082 40.99663 52.333138
-12.152245 41.31738 52.978737
-11.730967 40.56085 58.135593
-11.904159 40.791958 58.624657
-11.941556 40.42832 59.36306
-12.200102 40.53172 60.62472
-12.358521 40.1715 61.391136
-12.549301 40.401764 63.43192
-12.134869 40.551952 64.15402
-12.127735 41.899136 50.152496
-12.363002 41.562046 50.601665
-12.577012 41.31686 52.642147
-12.25826 41.49168 53.043423
-12.095404 41.83605 58.90301
-12.125468 41.640755 59.398735
-12.521508 41.466 61.013863
-12.219267 41.624405 64.64201
-11.901822 42.246323 65.83483
-12.299717 42.56884 50.141186
-12.497971 42.235996 53.156292
-11.693446 42.457283 57.10617
-11.899679 42.49991 57.762115
-12.391544 42.83282 58.76185
-12.31872 42.340298 59.221317
-12.46371 43.104332 60.14587
-12.553483 42.50738 65.08151
-12.092814 42.592155 66.04581
-11.9539585 43.374977 50.08143
-12.323106 43.28786 50.536434
-12.461676 43.50442 52.34216
-12.247109 43.23753 53.212296
-12.044799 43.421963 57.94786
-12.519978 43.7068 59.493855
-12.455788 43.351 66.334595
-11.772398 43.50601 67.07852
-11.863283 44.229904 50.852272
-12.1939335 44.047375 51.54149
-12.162573 44.01216 52.309628
-11.708779 44.477806 58.11052
-11.954791 44.3641 66.83002
-11.605185 44.631702 69.42966
-12.111405 45.802795 58.25626
-12.483367 45.890423 58.46468
-12.589431 45.424973 64.68126
-12.214639 45.469208 65.38437
-11.774165 45.379593 66.10215
-11.869766 46.827267 57.960636
-12.64785 46.631218 58.63178
-12.586979 46.52197 63.513966
-12.52401 46.227707 64.081825
-12.199617 48.206097 44.795986
-12.598128 47.859356 45.66704
-12.724532 47.670925 46.418915
-12.354577 48.272602 48.00935
-12.039401 47.3852 57.98359
-12.291928 47.250526 58.548645
-12.435922 47.22845 63.008945
-11.951121 48.73869 44.243923
-12.325822 48.611107 44.58354
-12.603401 48.673946 48.587063
-11.8566065 48.666767 49.77004
-11.925892 49.185146 50.29987
-11.808998 49.220768 56.737568
-12.041903 48.61714 57.55017
-12.30654 48.79769 58.889606
-12.136346 48.332825 61.245037
-12.505958 47.70872 62.45281
-12.042403 47.677444 62.78774
-12.065987 49.346012 44.223545
-12.454992 49.340508 44.570717
-12.059645 50.052933 51.026062
-11.9426775 50.2312 53.05233
-12.916135 49.949764 55.520237
-12.154164 49.91227 56.583294
-12.061731 49.512505 57.29907
-12.024235 49.3111 59.506207
-11.871275 49.98106 44.242767
-12.217 50.216305 44.64571
-12.504367 50.388382 50.457275
-12.030996 50.731453 51.62639
-12.263968 50.681095 52.020527
-12.434929 50.447456 58.73371
-12.207298 50.42649 59.362835
-11.862157 50.88582 44.916428
-12.269497 51.42203 45.93251
-12.255451 51.646996 58.75783
-12.011734 51.331345 59.332523
-11.73287 51.88255 60.014
-11.920825 52.43392 46.73201
-12.273815 51.976933 58.4032
-11.82867 52.345608 59.42734
-11.645463 52.543274 59.95137
-12.21574 53.273952 47.9363
-12.041253 53.221676 58.195896
-11.874064 53.13503 58.844925
-12.152037 53.74098 48.569942
-12.60796 54.34114 49.832867
-12.523106 54.38528 56.210857
-12.332537 53.86262 56.989952
-12.323192 54.895348 50.681843
-12.315511 55.362198 51.71555
-12.6040745 55.51998 52.85776
-12.517192 55.51569 53.596798
-12.543463 55.133724 54.358437
-12.105553 54.847515 55.460396
-11.95742 55.649643 52.015053
-12.246163 55.73692 52.599323
-12.270412 55.71685 53.247986
-10.750082 38.369354 59.811768
-10.980368 38.095387 60.67004
-10.894432 38.193417 61.828136
-10.823538 39.126884 57.579754
-10.941468 39.094933 58.666084
-11.191743 38.81891 59.6706
-11.399412 38.531086 60.738914
-11.559599 38.62947 61.308456
-11.392848 38.63604 62.50316
-11.370535 38.855957 63.33782
-10.95289 38.97749 63.75575
-11.072047 39.457893 57.837437
-11.4641075 39.59349 58.728867
-11.498685 39.800323 64.14655
-11.571164 41.151848 50.739258
-11.678787 40.83905 51.651073
-11.54827 40.922108 52.351055
[...]
POINT_DATA 6897
SCALARS features_00 float 1
LOOKUP_TABLE default
0.62796193 0.6774146 0.64033306 0.69836843 0.72453517 0.67091143 0.70676064 0.74191177 0.7413788 0.6989065 0.6958535 0.73739874 0.7421967 0.6761179 0.7035961 0.7099156 0.66402173 0.68940747 0.69264406 0.6250209 0.6561172 0.6703964 0.59698033 0.6119226 0.37064582 0.50628966 0.5674374 0.6033255 0.5579 0.46994936 0.5800383 0.6191408 0.49909645 0.53734475 0.5923917 0.5963527 0.4963426 0.76058066 0.77623224 0.62748134 0.68489146 0.68389404 0.5920151 0.7310691 0.7706353 0.77250457 0.647873 0.6408928 0.67474145 0.695897 0.7079124 0.6165057 0.6167098 0.66677886 0.6846701 0.60981154 0.57278115 0.54393876 0.5262569 0.65063506 0.6936264 0.69161314 0.6128481 0.4781493 0.43033364 0.4271659 0.62329483 0.6605731 0.5985831 0.49165303 0.42009154 0.5460745 0.59412557 0.61494863 0.5206658 0.53125596 0.54662097 0.56945735 0.5819384 0.42377394 0.50092685 0.49939507 0.5189867 0.40046912 0.42180696 0.8645829 0.80531 0.3296545 0.3723152 0.3978398 0.9042034 0.87150466 0.807244 0.762751 0.24004754 0.3095591 0.32001412 0.30485272 0.86109865 0.86267847 0.80607486 0.7601622 0.1054696 0.28299704 0.2927077 0.32975787 0.36793345 0.7806975 0.78051525 0.71438193 0.28402582 0.017218329 0.3651059 0.3972641 0.40899575 0.34131294 0.34083053 0.26803753 0.35450488 0.4133745 0.42862463 0.26775926 0.30939224 0.31880942 0.3077599 0.2574821 0.7405578 0.7854996 0.7914027 0.62535536 0.25478303 0.47126 0.53532207 0.4159885 0.29816818 0.71689403 0.7163311 0.5109229 0.39183444 0.29874337 0.5114442 0.4989125 0.39562508 0.67579865 0.63969916 0.50272936 0.22037746 0.49867153 0.5602528 0.5352402 0.20630328 0.6449215 0.5385225 0.52975345 0.29775798 0.083146065 0.43216723 0.5919064 0.44026482 0.25662705 0.18162307 0.49260834 0.46004766 0.42864463 0.36521387 0.31042242 0.542276 0.14122999 0.42312074 0.41252765 0.4203355 0.41031384 0.35807878 0.33864006 0.4026641 0.42554182 0.3981194 0.3657387 0.3322748 0.40935132 0.4110902 0.40212893 0.37866345 0.34076607 0.366765 0.39430928 0.45036718 0.4623451 0.37899125 0.3770654 0.3697958 0.38448676 0.36920688 0.3399951 0.4151231 0.4648641 0.48798034 0.22969148 0.2953851 0.3968445 0.43796402 0.44561094 0.4294459 0.86566293 0.849887 0.7522845 0.6991848 0.18586762 0.164419 0.16342093 0.20551592 0.3209191 0.39689893 0.3642788 0.77035975 0.8641857 0.7564944 0.70490706 0.10250512 0.076035716 0.12227766 0.25570348 0.24289812 0.7577239 0.7121926 0.14791425 0.14910124 0.06012154 0.03794814 -0.033059835 0.312231 0.29053745 0.62007093 0.6804898 0.6459156 0.6059061 0.15391965 0.047347542 0.38073793 0.2876958 0.516031 0.573089 0.522089 0.027376272 0.42998895 0.4859131 0.01474626 0.10455944 0.28043094 0.31322402 0.32275826 0.016684033 0.17093942 0.26830614 0.24189557 0.7586448 0.74270463 0.78257275 0.49440533 0.037318133 0.12559956 0.27071375 0.78857344 0.75535864 0.35801858 0.049040727 0.027695023 -0.0011138916 0.09188013 0.20568492 0.23932737 0.26035467 0.2313598 0.763867 0.72274226 -0.005511655 -0.07817151 0.41487998 0.09126747 0.1292977 0.18655038 0.7373184 0.65939504 0.06312728 -0.083235204 -0.1392406 0.17854367 0.22082168 0.5746064 0.45213884 0.21870968 0.27465305 0.32645413 0.3409763 0.19320144 0.3146155 0.3383324 0.3937104 0.23900533 0.28683951 0.4008377 0.39365295 0.3221612 0.29225188 0.38750014 0.3883777 0.39518833 0.39573866 0.38027444 0.31832394 0.38679364 0.39725035 0.39978492 0.23427694 0.33133107 0.40267348 0.12912527 0.1430366 0.22953907 0.35015696 0.4002877 0.4856014 0.50536156 0.46330357 0.14496619 0.1675996 0.42961705 0.7297726 0.77072275 0.68803716 0.60218596 0.19839785 0.33051267 0.26139426 0.6607076 0.58945346 0.5163137 0.14785257 0.18042575 0.16516191 0.5886233 0.069349706 0.12745893 0.2687079 0.14095569 0.2796136 0.4086061 0.39560318 0.36115962 0.44838694 0.2384015 0.018379524 0.37446398 0.44758135 0.43879655 0.3593477 0.41023982 0.31500366 0.1826663 0.024327468 0.022136092 0.38099083 0.46742582 0.40977973 0.22415441 0.48492134 0.5507822 0.74534965 0.3524949 0.39977032 0.21470186 0.32369414 0.11682561 0.32952946 0.39134666 0.35465688 0.42791563 0.5417769 0.6866735 0.7787827 0.79671717 -0.017953865 0.23560882 0.26697314 0.16887836 0.18726422 0.5086078 0.61842245 0.6893642 0.7692685 0.78762114 0.8302701 0.80650854 0.76631945 0.6343239 0.5135525 0.20851144 0.02680932 0.061294936 -0.029371202 -0.0155639425 0.1930285 0.2017494 0.42417088 0.5617877 0.62416863 0.6967777 0.8319867 0.8056903 0.023579158 -0.0035996595 -0.06918557 -0.030482829 0.18595527 0.20850143 0.45621055 0.50609577 0.5605181 0.8309914 -0.08842738 -0.12855387 0.05698107 0.07876639 0.08260526 0.75139344 0.66654587 0.1833298 0.12405154 0.583996 0.46868712 0.2998227 0.29105926 0.34290254 0.32547843 0.34731266 0.34592876 0.28124708 0.30703342 0.27101153 0.3440079 0.35740107 0.316509 0.35375398 0.38848418 0.18879186 0.3038706 0.35363957 0.35907623 0.36481833 0.32769263 0.28427052 0.21242473 0.35157973 0.3803724 0.3980543 0.40602982 0.30338636 0.37532777 0.3123417 0.25132805 0.10811376 0.22593534 0.2942388 0.26952553 0.3555838 0.1830672 0.12246285 0.10972227 0.4390399 0.4125749 0.14526112 0.3426333 0.478979 0.53666365 0.55410826 0.54051197 -0.21408448 0.18670806 0.21965991 0.44732895 0.49710894 0.054544836 0.08575779 0.016581465 0.32762676 0.39948738 0.30701232 0.3579305 0.32590234 0.27178022 0.3193708 0.20501313 0.32567918 0.33599487 0.041120898 -0.08287193 0.0067579364 0.20836714 0.32096845 0.63350695 0.7414471 0.7781389 0.2031711 0.14688747 -0.1452477 0.79924136 0.23168084 -0.07338372 -0.17871067 -0.0540436 0.03952375 0.0400974 0.020419747 0.13084973 0.7797632 0.817356 0.69003594 0.50565994 0.2576068 -0.2477618 -0.030820131 -0.18843718 -0.061508432 0.18632422 0.14633253 0.14999045 0.15364541 0.14186522 0.073777094 0.61589456 0.7159628 0.7230637 0.87675256 0.847949 -0.14899728 -0.24593337 -0.06417057 0.1647052 0.22700685 0.19727947 0.41236466 0.5558956 0.87507606 -0.023655623 0.13426186 0.36617577 0.33558244 0.31322145 0.25908977 0.7684803 0.16901788 0.16926543 0.3714768 0.35026467 0.29352626 0.6189666 0.3628161 0.21949252 0.24867284 0.2590118 0.23306064 0.26114783 0.37232053 0.36895013 0.2770197 0.28370485 0.091017306 0.23336297 0.30036733 0.3398582 0.29575953 0.26276752 0.1229641 0.3495478 0.429695 0.43947512 0.43640137 0.39992929 0.31735107 0.41424415 0.4262601 0.41288692 0.35494202 0.21827486 0.39222622 0.044358358 0.21169144 0.24290773 0.3323989 0.33641067 0.25187838 0.28262085 0.14369935 0.2842063 0.30674526 0.29093713 0.2582987 -0.16581008 -0.17985311 0.07312139 0.30077624 0.3167649 0.3486116 -0.23003912 0.12895837 0.118310116 0.157614 0.3281479 0.30430025 0.02557613 0.07598826 0.22014084 0.29061106 0.27282843 0.20103347 0.33626547 0.19918859 0.47015235 0.336021 -0.36721873 0.505818 0.6559622 0.77220917 0.24415243 0.1913205 -0.094387285 0.7979574 0.032490984 -0.08452766 -0.30314487 -0.33275864 -0.13126747 -0.2576105 -0.13310537 0.0153161585 0.7566917 0.73228645 -0.16575351 -0.16234414 -0.18308164 0.12847894 0.07921283 0.5417758 0.64783895 0.83388907 0.6675213 0.5161973 -0.004315247 -0.35396576 0.24672441 0.3253723 0.47695217 0.8136256 0.7155888 0.08599451 0.4407773 0.3755134 0.18687038 0.09340471 0.21372923 0.7310945 0.6570655 0.028320521 0.4184397 0.39084232 0.3340938 0.2662614 0.17615354 0.5961365 0.1285979 0.4475851 0.40164196 0.3836214 0.34051874 0.27802527 0.15519917 0.30773413 0.62349087 0.67798 0.7195664 0.36928013 0.31766784 0.16833664 0.19833279 0.3341462 0.5512418 0.6258044 0.68811965 0.22522216 0.22173394 0.04520415 -0.2544709 0.23581105 0.21144956 0.17172474 -0.1958828 0.14166827 0.1705791 -0.14979029 0.22724777 0.51605535 0.50981724 0.4710206 0.46707228 0.5083953 0.489694 0.39613545 0.354297 0.3772902 0.44099045 0.32501188 0.23455238 0.36130634 0.120095186 -0.074806415 -0.013553078 0.13346548 0.28630835 0.34033197 0.22618784 0.27892947 0.14603727 0.052097127 0.13531503 0.28875262 0.2519087 0.1745003 0.0094451085 -0.25273502 -0.31236774 -0.012348266 0.27537668 -0.1672444 -0.27424067 -0.1266634 0.017524146 0.009255752 0.15779606 0.2579819 0.35076505 0.32825857 0.18268184 0.4181876 0.3853904 0.39930558 0.38152814 0.5370897 0.36003092 0.74519646 -0.5975001 -0.60527945 -0.27255017 -0.106702894 0.56699604 0.09583134 -0.018016487 0.45190597 0.39066598 0.091459915 0.10568519 0.32256097 0.35440063 0.6754912 0.19003364 -0.07687093 0.4737198 0.063805595 0.20740183 0.2820166 0.47923675 0.117353305 0.11862162 0.44273543 0.5201325 0.6806848 0.36261275 0.044347674 0.76706576 0.39659578 0.40554914 0.4234488 0.41312551 0.3774414 0.5112121 0.5402173 0.11400225 0.009394446 0.6974299 0.52104694 0.56576645 0.63003063 -0.47279048 0.27891186 0.35819563 0.52081054 0.60144067 0.6254882 0.6540069 0.6577023 -0.2606222 -0.2803787 -0.06781778 0.009597555 -0.0026824288 0.3552559 0.03036274 0.048000716 -0.15770462 -0.17322096 -0.20969751 -0.07356525 0.0028480282 -0.053296514 0.2435056 0.2462093 0.06924694 0.04204654 0.2339163 0.24239111 0.20288213 0.14499238 0.6566458 0.5940514 0.22802237 0.20168865 0.722476 0.72393584 0.6090274 0.7278707 0.72574985 0.68602914 0.62118196 0.70920026 0.69112617 0.4232304 0.46209794 0.4790964 0.48821515 0.49414852 0.47694355 0.49530494 0.51714265 0.54337794 0.5203531 0.54546833 0.47432908 0.48985046 0.48225477 0.46168104 0.48415992 0.5058885 0.48316962 0.41984284 0.31208098 0.36396796 0.21467564 0.33265775 0.2300485 -0.027457772 0.14594579 0.2254602 0.29349282 0.29434842 0.3197627 -0.05447991 0.26314273 0.30085224 0.28178528 0.21416327 0.26567447 0.1782414 0.09461746 0.10294142 0.18623859 -0.17976585 -0.0039375573 0.11993143 0.17385894 0.1798469 0.15566325 -0.3013168 0.10118962 -0.018189967 0.145561 0.20768532 0.27973443 0.29603773 0.24140868 -0.18390906 0.035099335 0.26456296 0.20928916 0.40611154 0.32539755 0.48458445 0.4230324 0.058793344 0.47296274 0.4309101 -0.29489183 -0.26551417 -0.04766062 -0.29082522 -0.26439643 -0.31090498 -0.259439 -0.15979388 0.082293436 0.116065696 0.1010519 0.09211714 0.28800857 -0.050471574 0.3340503 0.09803875 0.09877607 0.3506367 0.38472617 0.4571612 0.056519516 0.26934564 0.28199124 0.21882647 0.4569422 0.6776396 0.30952883 0.16481875 0.044641316 -0.0052994452 0.3326735 0.5248787 -0.13905 -0.16540152 0.6320677 0.45725006 0.6541847 0.6431733 0.57542026 -0.29166955 -0.26421717 0.48756307 0.6926565 0.7196722 0.72152376 0.7049772 0.14819054 0.12238543 0.39100555 0.34578913 0.7588179 0.7570837 -0.16297357 -0.14789999 0.050034765 0.12457956 0.2103852 0.16283923 0.18769026 0.01511869 0.042251825 0.06833608 0.13165952 0.2243231 0.2588997 0.25479132 0.6096084 0.577366 0.16135934 0.1431744 0.089866444 0.023352046 0.12056382 0.2236092 0.25189912 0.2708723 0.6497055 0.62456715 0.48221546 0.1656009 0.1417197 0.18722165 0.22307113 0.14431073 0.11538168 0.6889415 0.25139472 0.07033271 0.10053076 0.06849198 0.6883608 0.4443118 0.18564853 0.38135 0.4155488 0.6705464 0.66974044 0.6782803 0.62804663 0.38413912 0.42321578 0.458393 0.48863113 0.6574944 0.645043 0.426058 0.4577904 0.541161 0.4564085 0.55512935 0.5733575 0.46234185 0.52629125 0.5787868 0.63327014 0.64108753 0.5367921 0.6198311 0.67529005 0.88285667 0.8456005 0.7836546 0.65005195 0.88420165 0.8794862 0.82215774 0.6475385 0.30674994 0.4077366 0.466329 0.45668095 0.8277702 0.83029044 0.82747805 0.34852502 0.3476098 0.44574732 0.40752 0.7619289 0.6176888 0.6146958 0.057277143 0.33733022 0.35550737 0.15223028 0.15372172 0.07031521 0.15874185 0.27706733 0.28339934 0.17965661 0.24138352 0.19475208 0.5523538 0.5450806 0.53196704 0.20036852 0.14189628 0.47937587 0.52459913 0.59044737 0.5542734 0.11396137 0.18479447 0.17105678 0.42077368 0.5258266 0.5499406 0.60290194 0.16069908 0.10450116 0.22468413 0.40568036 0.016125722 -0.105973914 0.0058095735 0.24781486 0.19284932 0.14449333 0.090961695 0.4412809 0.3768711 0.3064085 -0.023809994 0.5199915 0.65543616 0.6956732 0.4665674 0.5079621 0.62551934 0.6817807 0.41575867 0.44323957 0.57113284 0.57808685 0.43074495 0.26791131 0.47842026 0.19863503 0.30307713 0.010840395 -0.3265509 -0.15018217 0.036200825 0.30379012 0.011327624 0.018391237 -0.011928499 0.10003937 0.35500878 0.36042666 0.010058612 0.017562151 0.017936915 0.07961256 0.37394673 0.086763024 0.10006188 0.18130001 0.31582752 0.27578363 0.3616522 0.19305654 0.11382056 0.6576699 0.28296492 0.48204184 0.06421157 0.6394291 0.606882 -0.045713022 0.35486358 0.54966426 0.7029562 0.7485405 0.72680104 -0.07596773 -0.15077351 0.05585456 0.73474216 0.7694582 0.7667062 -0.20548148 -0.16460122 0.14734423 0.5375701 0.4717449 -0.034140535 0.25044146 0.20902394 0.58147085 -0.0064281877 0.25722414 0.2721855 0.2622084 0.60167664 0.62431765 0.0038575307 -0.0053932667 0.117558 0.16938904 0.2231166 0.24839121 0.2649109 0.26853278 0.6057204 0.5483732 0.5342647 -0.034227952 0.56520784 0.51090837 0.43257993 0.47190088 0.5181134 0.36657387 0.52987814 0.49986967 0.55999 0.5913825 0.6645497 0.6386689 0.5555758 0.5426488 0.62405556 0.6790072 0.6877259 0.63841385 0.70183647 0.7426077 0.66349065 0.55170983 0.62976325 0.6654844 0.67476285 0.7349537 0.77157515 0.7844557 0.7892115 0.7840135 0.7959142 0.79824376 0.78241646 0.732718 0.87264395 0.8192117 0.73697174 0.60824645 0.6282224 0.68728447 0.6657623 0.8579729 0.8809695 0.49228072 0.2631921 0.31457797 0.3621782 0.62271786 0.70251006 0.6827736 0.60203743 0.8108772 0.83927107 0.1635561 0.3246771 0.34131694 0.18518123 0.22238079 0.62378216 0.67164874 0.6455968 0.5823144 0.69417787 0.5906568 0.30523166 0.2110117 0.067947015 0.033628963 0.15487522 0.57136285 0.5496661 0.4556578 0.322913 0.15125129 -0.12055531 0.09976311 0.46861875 0.47241753 -0.15782148 0.34821874 0.5192503 0.47806755 0.066057965 -0.10232788 -0.051841248 0.1031882 0.15161842 0.3533666 0.52641803 0.53615713 -0.21067356 0.13022393 0.18963972 -0.30318356 0.5680491 -0.22053441 0.010386437 -0.12322934 0.20383766 0.5056716 0.6463662 0.71135336 0.38420928 0.32650778 0.15676111 0.22276205 0.6648238 0.72799957 0.737031 0.39583766 0.33504805 0.6668507 0.70210904 0.36764067 0.554258 0.5911774 0.31813976 0.19391736 0.38966388 0.115962006 0.011883475 -0.014525279 0.19915104 -0.03014025 0.0064991415 0.34036553 0.10778177 0.34514186 0.33334634 0.1957897 0.3094608 0.36018026 0.2072312 0.48414433 0.2226361 0.17445728 0.4056537 0.055566143 0.04041504 0.32833382 0.34606808 0.58699805 0.5421555 0.06633948 0.0321144 0.0131646395 0.3904373 0.6409466 0.69397455 0.69615567 0.105788484 0.42813015 0.507756 0.7013442 0.70180357 0.7376413 -0.06931113 -0.18703285 0.0134814605 0.3562797 0.46396652 0.50433236 0.43676618 0.3457574 -0.17216086 0.18050262 0.097007945 0.41658106 0.4513991 0.46579885 0.5249624 0.24956939 0.20805445 0.43281668 0.44537082 0.50148314 0.21128431 0.2854038 0.2639002 0.24614403 0.22700605 0.46204317 0.06423943 0.22071275 0.25927988 0.30347377 0.46783882 0.43855637 0.1394322 0.35369992 0.3486318 0.24441013 0.40913206 0.5392626 0.40075478 0.38202754 0.6452676 0.41816303 0.48370832 0.65980834 0.65216815 0.59774196 0.5872525 0.631948 0.65939987 0.72201777 0.74971634 0.63172936 0.7780571 0.79964423 0.8017374 0.778982 0.7998893 0.74687004 0.70934737 0.6306181 0.6210966 0.6393794 0.5994837 0.84788775 0.80272144 0.4630961 0.32768595 0.20558102 0.53079754 0.6222186 0.66107583 0.6159655 0.5493111 0.8422382 0.13647671 0.28058323 0.32670173 0.4228812 0.5551971 0.55240566 0.76756454 0.09522646 0.0791595 0.17681454 0.26633847 0.30517945 0.20856702 0.39120397 0.43759805 0.65965414 0.13904692 -0.1285867 0.02576691 0.1911393 0.05463718 0.2803632 0.23788981 0.5336973 0.49430847 -0.23219556 -0.05178101 0.104521565 0.3273034 0.37212208 0.25280827 0.19572452 -0.44549257 -0.30327186 0.03678851 0.26053852 -0.23657823 0.47962952 -0.08136363 -0.36847612 0.08212779 0.48132592 -0.34910125 0.48999667 0.5291978 -0.32614154 0.44145113 -0.13318938 -0.17739311 -0.24505115 0.063856065 0.48754913 0.5898789 0.7238977 0.7515713 0.2315731 0.13072291 -0.06973073 0.7588908 0.31622526 0.28897727 0.70954514 0.27102715 0.17410973 0.5979409 0.15468243 0.40984046 0.24734937 0.040936753 -0.06765578 0.031100085 -0.00025048945 -0.0050907107 0.2738779 0.05339838 0.26059014 0.15727986 0.14950736 -0.30539978 0.18232569 0.15184522 0.075486735 -0.2848931 -0.2711028 0.3815502 0.016212083 0.18822895 0.43990576 0.01419463 0.40510878 0.539381 0.5293325 0.49905637 0.52595735 0.11647665 0.6470764 0.124399275 0.4411629 0.4307012 0.24254422 0.10977514 0.07685359 0.35446298 0.41276926 0.40822437 0.40362626 0.16556431 0.12887512 0.3706079 0.29531914 0.28488123 0.2713184 0.35627413 0.18649195 0.2567051 0.15843207 0.16624743 0.23219807 -0.014426632 0.55117315 0.58748186 0.39510697 0.52017826 0.58317107 0.6268404 0.464678 0.34299958 0.55510885 0.6141727 0.6083832 0.37825108 0.7805645 0.79077286 0.78228796 0.72431654 0.61918795 0.7944167 0.73012656 0.66738224 0.6664773 0.6296088 0.59400785 0.61848783 0.6102915 0.539984 0.47641432 0.79164755 0.72944957 0.61032206 0.39835885 0.28836614 0.23953326 0.5484073 0.53656346 0.49024683 0.4474809 0.32214648 0.74391323 0.7154077 0.10320769 0.03431803 0.028444774 0.24610786 0.21646893 0.14616713 0.21181181 0.6050432 -0.0578504 -0.1360717 -0.004769817 0.10497899 0.084227495 -0.104350485 0.422756 0.344991 0.24990116 0.2576107 0.11690814 -0.027890764 -0.07835204 0.21147116 0.08815348 -0.02474996 0.57947123 0.5704474 0.051491126 0.56351733 -0.15035957 -0.25594226 -0.35924786 -0.08790989 0.76489645 -0.024710998 0.70399487 -0.08195213 0.46686172 -0.27227664 0.3136869 -0.08758343 0.19258136 0.03756167 0.022609651 0.03496316 0.09110086 -0.031552628 -0.0673759 0.014767039 -0.030576926 0.033493042 0.114688344 0.14863628 0.2874449 0.025893915 0.058525324 -0.0703429 0.35108328 -0.043831803 0.39916083 -0.03986989 0.10584568 -0.004032247 0.11512892 -0.018943839 0.26131818 0.11391181 0.30700916 0.07229464 0.3496945 0.2923058 0.16248369 0.04403231 0.086625345 0.2120051 0.3333565 0.36887482 0.33470076 0.19544923 0.16200484 -0.060718644 0.007365279 0.15801464 0.24597028 0.26089445 0.23103411 -0.18257576 -0.3194149 0.21649298 0.25312203 -0.06529804 -0.036607973 0.04291872 0.4265598 0.42308483 0.48160553 0.2623147 0.28816697 0.51166236 0.580367 0.5901065 0.28943914 0.43106264 0.51039016 0.5923122 0.59641016 0.4760351 0.19515246 0.679822 0.41629237 0.66332793 0.56914365 0.5201365 0.84027153 0.849061 0.8344865 0.728807 0.78638476 0.7735921 0.76933634 0.75215846 0.7175256 0.6539464 0.67321134 0.62492466 0.58802295 0.5408251 0.4420473 0.43438432 0.6507938 0.6612867 0.6618937 0.2474516 0.24629788 0.528979 0.4807819 0.5022708 -0.02954179 0.40521565 0.5375412 0.63845706 0.6655549 0.6641071 0.654421 0.18907349 0.36155722 0.16739285 0.036408648 0.015228316 0.020630702 0.1323601 0.046496987 0.554031 0.6441238 0.66469145 0.4195971 -0.098628804 -0.057134442 0.4273832 0.5874165 0.28184298 -0.12658903 -0.24133816 0.2227045 -0.16859138 0.20896932 0.0246876 0.19454062 0.2752957 0.2943851 0.28601667 0.54856646 0.5575096 0.27028462 0.27419633 0.566085 0.56724167 0.5595043 0.13879831 0.19098404 0.11282559 0.42907155 0.57285655 0.5663074 0.5576109 -0.26367104 0.35955137 0.56985795 -0.20762388 -0.29079586 -0.29907215 -0.10820838 -0.14764847 -0.2295443 0.34961885 0.5436411 -0.10479029 -0.36445078 -0.0441564 -0.16612446 -0.32994756 -0.48911232 0.26074097 0.075206555 0.03514105 -0.029155403 0.13612121 0.1216646 0.0583366 -0.05083949 0.3035258 0.24450168 0.11338751 0.03760667 -0.099424504 -0.064923674 0.3812651 0.3859692 0.25670817 -0.025463302 0.47305983 0.4545431 0.38048562 0.13417342 -0.1465914 0.49287853 0.46995378 0.2520145 -0.29647964 -0.1744246 -0.14493003 -0.12417053 -0.054271396 0.029772528 0.21412441 0.14929469 -0.021825865 -0.07994657 0.2955761 0.2514842 -0.14291488 0.0872258 0.13079937 0.29122055 0.2689226 0.027624203 0.049063027 0.16034582 0.21455236 0.2415743 0.24904552 0.12315102 0.1382117 0.09577366 0.20365962 0.28209698 0.2976976 0.13382024 -0.057981476 -0.17218368 -0.010502806 0.4005777 0.32897198 0.01150316 0.5015005 0.51314914 0.11550351 0.54849625 0.5636855 0.13235386 0.55651045 0.5779854 0.58207387 0.47071338 0.2232466 0.571021 0.5579742 0.42824098 0.29719985 0.2793871 0.5729973 0.44