# vtk DataFile Version 2.0
Really cool data
ASCII
DATASET POLYDATA
POINTS 2119 float
5.440784 42.714966 63.735733
5.3396235 42.63928 64.47818
5.455723 42.604248 64.95332
5.3852086 43.039116 63.905247
5.390467 43.165947 64.4543
5.4099703 42.969776 64.93706
6.1775274 41.272427 63.811195
6.0735064 41.216206 64.5746
6.1177163 41.25312 65.04652
6.1213193 41.869045 63.013485
5.740099 41.83961 63.65366
5.653381 41.762875 64.42227
5.8633585 41.707005 65.127945
5.927797 42.2975 63.000767
5.580304 42.376476 63.50968
5.651267 42.576355 65.21704
6.1698194 42.46408 65.68956
6.1106076 43.144 62.90258
5.630486 43.350475 63.746426
5.5236125 43.513374 64.553474
5.659913 43.246376 65.13719
5.971022 44.04379 64.03317
5.842908 43.95821 64.447334
5.7364197 43.75483 64.85006
6.296909 49.052776 89.674324
6.3225775 50.044773 88.22077
6.2411766 49.8236 88.468834
6.099312 49.66813 89.27084
6.2805266 49.60886 90.20241
6.293193 50.450512 88.283104
6.1113615 50.49311 88.72296
5.959041 50.561424 89.16718
6.208166 51.09942 88.76691
6.136394 51.172096 89.425186
6.238131 51.02228 90.24626
6.4646907 41.210403 63.55948
6.5237145 40.992077 64.45093
6.5522895 41.121307 65.112335
6.4720936 41.705914 62.874775
6.2742405 41.431007 63.383797
6.538916 41.4609 65.49882
6.6059904 41.728607 65.70145
6.6353655 42.61738 62.349808
6.5360165 42.237656 62.480473
6.765578 42.43493 65.919495
6.7505746 43.4298 62.53854
6.559362 43.365383 65.75161
6.9625564 44.32163 62.815075
6.316359 44.13162 63.514133
6.68817 44.50903 64.68961
7.16698 47.0028 71.79386
7.0634923 46.971718 72.61783
7.174124 46.9344 72.998116
7.2905593 47.869762 71.10686
7.1535077 47.445118 71.52967
6.7733073 47.647545 72.429565
6.899895 47.532375 73.12067
7.2058525 47.980385 73.725075
7.074113 48.436928 90.05486
7.090527 48.442257 71.72798
6.819792 48.26928 72.514244
6.8059688 48.067333 73.1028
7.371589 48.775414 73.92859
6.6124563 48.97295 88.74443
6.6740127 48.65693 89.432976
6.6632476 49.000862 90.46336
7.2355223 48.868153 71.81488
7.0922256 49.06933 72.515854
7.251943 49.472122 73.66715
7.422808 49.81552 74.20597
6.838009 49.80839 87.795586
6.5613065 49.30022 88.48095
6.4988246 49.495106 90.70889
7.005088 49.733925 91.33312
7.406962 49.9595 73.46206
6.4469633 50.077835 88.18657
6.6153765 50.96816 91.294106
7.067498 50.61537 92.10381
7.277492 51.533314 87.85068
6.673566 51.467274 88.393
6.9119782 51.78413 91.67863
7.1189213 51.434803 92.10701
6.750345 51.74153 88.607796
6.8272643 52.0963 89.42635
7.042005 52.337795 90.73359
7.149019 52.380825 91.28936
7.2130804 52.11667 91.941864
7.2918043 41.07899 63.64773
7.3086524 40.926014 64.664215
7.3360925 41.130535 65.263245
7.7657027 42.190025 62.060852
7.531195 41.505077 62.89601
7.052523 41.39148 65.55594
7.4640727 41.79169 65.839455
7.6884933 42.777767 61.91489
7.680422 42.650772 66.107475
7.462089 43.621506 61.95642
7.498759 43.23587 66.12082
7.755643 44.60735 61.957676
8.260379 45.09602 61.934547
7.6563993 44.80515 62.304993
7.3889637 44.783905 64.852844
7.656265 44.88724 64.99946
7.85486 46.32949 71.69572
8.010572 46.193573 72.59557
7.8084016 46.27111 72.94893
7.6462407 46.56343 71.67724
7.471339 46.522526 72.31039
7.499711 46.874577 73.3741
7.89376 46.80652 73.70504
7.680389 47.639153 70.91899
7.4943457 47.976425 74.066185
7.3866243 48.306988 89.51706
7.367997 48.37114 90.07484
7.8135877 48.594498 70.83915
7.696522 48.282448 74.40387
8.042772 48.94571 74.91903
7.2715907 48.581333 88.53165
8.037335 48.96817 70.92947
7.7142363 49.530746 71.768265
7.506842 49.70277 72.328
7.585425 49.51646 74.57839
7.7008624 49.746895 92.265495
7.945297 50.07086 92.679016
7.932884 50.45927 72.60642
7.61034 50.395203 73.56986
7.689229 50.29036 74.30735
7.4177804 50.9637 92.48397
7.5914392 50.321247 92.60298
8.225374 50.88897 72.79232
8.101808 50.936043 73.51481
7.9508104 50.7353 74.102585
7.8483644 51.7807 87.07802
7.781641 51.535896 87.42293
7.869283 51.392334 92.72434
8.177935 52.317406 86.847145
7.9245195 52.616013 87.68647
7.417761 52.56638 91.47468
7.7740836 52.269596 92.21965
7.8749995 51.83104 92.598236
8.136325 52.97818 87.91774
7.7017107 53.02593 88.836006
7.894681 53.22067 89.07053
7.84562 52.829227 91.40123
8.186886 41.09487 63.925194
8.192466 41.097355 64.32609
8.064939 41.212486 65.11385
8.484859 42.07312 61.928005
8.428565 41.542336 62.63918
8.499772 41.52042 65.48231
8.168089 41.640076 65.71125
8.525718 42.600117 61.551422
8.147278 42.46671 66.091896
8.249077 43.72809 61.436665
8.48287 43.583767 66.12437
8.576813 44.616306 61.42174
8.7006855 44.906574 61.610138
8.633246 45.522907 63.366943
8.335978 45.010372 65.28339
8.647976 45.7882 72.606255
8.775722 45.678787 62.36594
8.873814 46.5477 70.73726
8.53622 47.15266 74.58779
9.334562 46.778984 84.01527
8.714145 47.652615 70.3046
8.374518 47.68367 70.545906
8.758792 47.65811 74.81555
9.084719 47.813736 79.5596
9.135794 47.770588 80.591736
9.271382 48.162376 81.27073
9.2125 47.477585 83.32692
9.020003 47.73474 84.25253
8.902297 48.066704 85.00477
8.136532 48.46974 88.62201
8.115307 48.45854 90.37785
8.843529 48.638924 70.455154
8.5399475 48.637173 70.51942
9.109982 48.64686 79.05809
8.861075 48.449593 80.369576
8.946848 48.21271 83.44416
8.869431 48.2407 84.36611
8.906259 48.813095 85.396645
8.619319 49.044743 91.71507
8.6852255 49.15291 70.817444
8.881793 49.46256 79.41762
8.828711 49.314404 80.522385
9.091037 49.36624 80.90914
9.142108 49.14013 83.44141
9.006768 49.81031 84.2644
8.603142 49.863373 85.331635
8.422863 49.56042 86.48029
8.22723 50.012 92.7068
8.939675 50.472076 71.828766
8.666115 50.382786 75.01454
9.133773 50.13764 78.70652
8.957439 50.401474 79.482254
9.07096 50.342777 80.503746
9.091183 50.133205 83.86184
8.853783 50.187084 84.55407
8.427409 50.94827 72.635284
8.667521 51.195137 73.43942
8.971945 51.191227 74.08773
8.581775 50.765293 74.81299
9.368147 51.071552 78.86903
9.162989 51.011787 79.42546
9.366214 51.03693 80.622246
8.567153 51.424324 92.92475
9.416286 51.999783 83.00633
9.309282 52.345814 83.669014
9.161293 52.330456 84.31193
8.457788 52.426346 92.328415
8.659535 52.195194 92.67493
9.031899 52.713043 86.199715
8.944575 52.930733 86.463844
8.715248 53.13504 87.31818
8.687737 53.14516 91.49234
8.515583 53.637962 89.412895
9.180599 41.47093 63.597298
8.9096 41.302658 64.708534
9.404635 42.137554 61.855675
9.299073 41.591805 63.59212
9.494232 41.65163 64.75853
9.361197 41.78804 65.23834
9.139674 43.096012 61.272476
9.06516 42.469776 61.610878
9.329741 42.60489 65.84372
10.419431 43.11504 74.55255
10.372581 43.066723 75.59697
10.4657345 42.890594 76.77329
9.95393 43.45763 60.85735
9.032819 43.43754 65.96483
10.283572 43.290607 75.222946
10.401489 43.457565 76.36392
9.738301 44.689724 60.796257
9.01026 43.993652 66.09344
9.436566 45.283043 60.983494
10.402657 45.803104 68.350784
10.053304 45.823246 70.47935
10.048075 45.740467 73.87401
10.188256 46.023785 82.202965
10.041933 45.87187 82.64924
9.926657 45.76067 83.554535
10.048063 45.753464 84.530075
9.513977 45.85902 61.368977
9.699229 46.651978 62.508026
9.657833 46.658623 64.73375
9.887492 46.73849 65.65958
10.006404 46.427418 67.49337
10.214739 46.426308 68.44624
9.76199 46.77919 74.92123
9.47619 47.252056 80.26468
9.752678 46.47148 82.591644
9.510078 46.72667 84.07472
9.636937 46.5704 84.94306
10.252249 47.42154 62.226223
9.757589 46.823986 62.965763
9.921858 47.609253 63.505497
9.99455 47.425117 69.54013
9.36216 47.709095 79.18892
9.691236 48.03883 87.45843
9.36754 48.21546 88.68282
10.229558 48.564365 64.10462
9.995636 48.104248 64.151405
10.1478405 48.440212 66.06067
10.153854 48.625988 78.127594
9.527551 48.660152 78.518326
9.152292 48.52082 89.469284
10.337005 48.876045 64.07779
10.157397 48.924305 64.76022
10.098833 48.87426 65.28796
9.755775 48.909748 70.53762
9.925526 49.596573 77.91782
9.443374 49.44992 78.41557
9.960056 50.139656 92.66509
9.582037 49.77927 71.16216
9.650493 50.539062 78.054344
9.687754 50.249138 82.68297
9.61943 50.766563 71.95354
9.185439 51.207775 72.68177
9.468855 51.28805 73.3866
9.525494 51.19243 74.27157
9.534888 51.458603 79.08321
9.469127 51.47024 79.38488
9.527819 51.76933 80.19921
10.063275 52.19284 78.87381
9.783277 52.17709 79.520294
10.031404 52.538372 80.345695
9.824937 52.036156 80.9328
9.85596 52.019253 82.149704
10.259036 52.679806 80.603325
10.34724 53.65273 82.911255
9.632674 53.00719 83.55841
9.925955 53.210396 85.67981
9.942286 53.32266 91.7293
10.0814495 53.77558 83.92391
10.246933 54.232994 84.97177
9.33395 54.20312 89.28915
9.326994 53.977573 90.40277
9.989035 54.09947 90.89514
9.970549 54.66017 89.99192
10.452291 42.135517 62.53005
10.232635 41.98635 63.06939
10.342092 41.95168 64.16841
11.021189 42.1916 74.772896
11.051553 42.12038 75.47934
11.005596 42.190094 76.60864
10.964888 42.28572 77.11107
10.616367 42.895153 61.280537
10.536348 42.729076 61.647747
9.8552475 42.446953 65.374405
10.898734 42.839066 73.83093
10.575433 42.70999 74.84538
10.704545 42.498665 75.43841
10.666138 42.56148 76.61728
10.791478 42.67179 77.39248
10.931148 42.85365 77.81571
10.908217 43.97423 60.36836
10.527806 43.830093 60.556637
10.303706 43.544407 65.33898
11.220566 43.755054 71.8512
10.947057 43.65313 72.71176
10.55993 43.72748 73.82025
10.5874815 43.285374 77.47885
10.907626 43.4111 77.84346
10.754443 44.68016 60.162136
11.005227 45.21663 69.68729
10.66856 44.62875 71.75437
10.738179 44.540195 72.21833
11.165199 44.31782 77.38596
10.498121 45.396927 82.70524
10.769763 45.206867 83.743744
10.928934 45.106373 84.490814
11.169524 45.307133 89.81165
11.275605 45.370026 90.65063
10.655727 45.5304 60.295696
10.242322 45.467266 60.564438
10.619657 45.600063 68.887245
10.648278 45.49392 75.406204
11.290281 45.064217 76.5935
10.347083 45.533947 82.82765
10.433889 45.463768 84.63954
10.8664255 46.16975 86.38762
11.164475 45.698334 88.63698
10.701919 45.804085 89.68429
10.72161 45.874275 90.36584
11.018477 45.924404 91.11551
10.608471 46.22729 60.81241
10.354841 47.08227 79.57634
10.467911 46.807953 81.209045
10.890124 46.446598 86.72109
10.668269 46.60557 88.508514
10.543234 46.22874 89.22394
[...]
POINT_DATA 2119
SCALARS features_00 float 1
LOOKUP_TABLE default
0.82882094 0.84337115 0.8650669 0.7996625 0.8032898 0.8267356 0.88853335 0.9256195 0.91335464 0.81302 0.8763752 0.9227606 0.9327953 0.8090519 0.84796757 0.8832783 0.8922515 0.74726224 0.7692325 0.77796054 0.80633 0.7302232 0.74264145 0.756067 0.6878585 0.5495106 0.5850545 0.64201146 0.7013215 0.52114666 0.5491935 0.5765426 0.5015192 0.55760974 0.66567194 0.8524903 0.89125764 0.8686595 0.7759979 0.84428763 0.85618365 0.8411611 0.69806224 0.7321088 0.8273096 0.641066 0.8704335 0.55258584 0.69985855 0.71820563 0.70805573 0.66078985 0.63513833 0.7146839 0.7446009 0.7208195 0.66017395 0.61241233 0.64276075 0.7263155 0.7230601 0.6791738 0.6206147 0.6490613 0.67494607 0.6817181 0.6953696 0.6777693 0.6466001 0.65072966 0.49541444 0.6127642 0.68491614 0.6255629 0.65075517 0.53669006 0.61603856 0.5808144 0.3507942 0.42711616 0.55477315 0.5601004 0.4075391 0.45996517 0.5234904 0.52039987 0.5321498 0.8128724 0.8007767 0.7807338 0.60563916 0.7098547 0.8021244 0.75801027 0.58555377 0.72544515 0.5417228 0.7317729 0.42931196 0.35065606 0.40627337 0.67287564 0.6611091 0.6209265 0.56807864 0.571036 0.658003 0.6351603 0.5905099 0.53167856 0.6760279 0.57379687 0.58940417 0.60210633 0.60423064 0.5548115 0.56034875 0.61636716 0.5731495 0.63877845 0.6437792 0.6248867 0.55639493 0.54602003 0.6436467 0.66254807 0.6747259 0.568117 0.5683932 0.6623073 0.6787073 0.682503 0.23115757 0.2781338 0.54974306 0.18583046 0.2493746 0.49260873 0.5056674 0.53184664 0.24630794 0.3145767 0.32035595 0.43988597 0.6808805 0.6774857 0.7111392 0.5421918 0.63081837 0.6817782 0.7084261 0.5205745 0.69294703 0.49243176 0.6597587 0.38192558 0.35442513 0.2513709 0.64405215 0.465181 0.26224297 0.53584725 0.42396075 0.35935676 0.43064195 0.5288615 0.39559174 0.56884706 0.47768164 0.3596409 0.27174848 0.25072756 0.2141574 0.43059587 0.50200963 0.39015973 0.45513144 0.5729849 0.52852213 0.19924667 0.2109353 0.14886521 0.5227668 0.44013858 0.5443274 0.47389853 0.38601145 0.15084165 0.13102481 0.11690478 0.13735771 0.52314717 0.5894749 0.676907 0.5222024 0.46113113 0.37364927 0.11146021 0.11571716 0.65961516 0.6791854 0.6815228 0.6818045 0.45123807 0.4186759 0.30735353 0.5129449 0.08280158 0.114162065 0.12250137 0.4480505 0.44407696 0.07458253 0.11340916 0.17204386 0.3469336 0.32003808 0.5324678 0.60468256 0.49875364 0.51407385 0.547009 0.59359777 0.48691347 0.50049233 0.60999924 0.46663007 0.5330096 0.6622132 0.48100793 0.61245126 0.48182535 0.60244334 0.41905436 0.6276666 0.34313187 0.1568138 0.011202097 0.19162472 0.34811193 0.3838298 0.421309 0.4229297 0.27224293 0.16889763 0.17097661 0.18123868 0.27340376 0.15966281 0.16090712 0.4454862 0.33946884 0.3725582 0.36922818 0.15151833 0.13916636 0.17104766 0.1149077 0.5618565 -0.14173433 0.103165984 0.25687766 0.22574137 0.2783379 0.47550374 0.55496204 0.30684304 0.28138387 0.31238732 0.31807396 0.23563829 0.5136617 0.5471852 0.40492284 0.3592376 0.5122804 0.050081857 0.5500038 0.6347295 0.6369692 0.66286135 0.42894313 0.4088515 0.34864178 0.45661154 0.41145158 0.36519507 0.25553125 0.065935895 0.33987767 0.21709082 0.1477401 0.042409435 0.21438304 0.23939694 0.22747348 0.28866756 0.28773755 0.22881755 0.24875481 0.41622406 0.41092873 0.44034642 0.5497144 0.59157294 0.6783414 0.73010147 0.4714434 0.46121842 0.5445826 0.43819255 0.51304936 0.5588836 0.6568638 0.75137794 0.789443 0.45394737 0.46717393 0.45472926 0.21161729 0.2568049 0.3382343 0.7381357 0.78770375 0.40383962 0.06624907 0.13830493 0.16753298 0.6023616 0.39303714 0.41076767 0.38917607 0.5425211 0.5945976 0.35083583 0.35585836 0.12029222 0.0808541 0.19066787 0.4005397 0.4083519 0.14331411 0.33379412 0.48164928 0.5498358 0.5703465 0.26772568 0.39358622 0.29368737 -0.01621329 0.13630971 0.35372025 0.5363939 0.18511309 -0.04751645 0.19815086 0.22778267 0.0635152 0.10394958 0.25917453 0.34387645 0.23492764 0.16921338 0.053602092 0.46336788 0.36059755 0.36993557 0.3206935 0.27740544 0.3716073 0.55902505 0.36516637 0.48134091 0.54572314 0.6044849 0.4673196 0.44781542 0.23727554 0.45026255 0.4056376 0.36834913 0.1435459 0.15209047 0.29778463 0.33149964 0.3624045 0.37912095 0.36608762 0.23016089 0.37573916 0.5677003 0.6282213 0.6684871 0.7145222 0.7758677 0.7839762 0.44412097 0.40490717 0.3352936 0.3312659 0.35938364 0.41609868 0.2738639 0.32584736 0.4570691 0.8030975 0.3429938 0.15504682 0.22375682 0.8252715 0.40507627 0.122308485 0.067463905 0.37798077 0.35905373 0.335073 0.30579543 0.38793936 0.55992913 0.6186893 0.60656536 0.34875342 0.037883785 0.28236532 0.1208935 0.40732282 0.5892842 0.5578238 0.24070501 0.27183762 -0.10393877 0.5351356 -0.23088668 0.44668475 0.12537879 0.44830665 0.15640539 -0.0015775859 0.22405227 0.49140555 0.49994206 0.29781967 0.20944048 0.48570287 0.49128696 0.34643555 0.351214 0.31617564 0.24639136 0.4182865 0.25639588 0.31944448 0.34355217 0.3177591 0.29607916 0.20797093 0.3090093 0.36310065 0.41330668 0.37547675 0.34863767 0.32677874 0.22648583 0.15439321 0.17941742 0.2571112 0.35438997 0.43948972 0.45272833 0.4493624 0.33519533 0.3850397 0.44395047 0.4574885 0.400967 0.59492886 0.62975377 0.68019474 0.7163712 0.7354572 0.3373583 0.3155812 0.27173486 0.3018025 0.4497298 0.73183775 0.75205123 0.38293576 0.4041928 0.11723056 0.12493503 0.2299269 0.730121 0.61637557 0.63406825 0.37703767 0.40355554 0.6429944 0.21435809 0.553024 0.5870126 0.63799685 0.6355147 0.36354843 0.23944747 0.606166 0.5977547 0.29640242 -0.17662834 0.5465083 0.22198915 0.2529707 0.4532088 0.23131743 0.48465377 0.49898636 0.31004643 0.04017833 -0.17487767 0.5016519 0.057290852 0.24605499 0.30949086 0.18080942 0.32716495 0.42102346 0.23863164 0.3048719 0.2072121 0.3629259 0.37784633 0.32529742 0.19690654 0.32077456 0.30720496 0.24156633 0.19354457 0.09442551 0.15342182 0.27129126 0.40561563 0.22292264 0.2388019 0.12031005 0.43126243 0.25930816 0.28320122 0.4567848 0.4548859 0.2731048 0.3080867 0.32823336 0.3799848 0.44587892 0.45440733 0.50550866 0.51612484 0.5475637 0.6120679 0.64480406 0.2362543 0.4370695 0.6678844 0.34352085 0.18709658 0.11837014 0.14058846 0.6571754 0.5585079 0.605116 0.61541116 -0.021288197 0.13808362 0.33370256 0.32223764 0.16927534 0.48022336 0.63158315 0.6365062 0.24484591 -0.095937036 0.04422912 0.6250403 0.14724997 0.53582597 0.25166616 0.26939207 0.23937479 0.39107266 0.45585763 0.42412528 -0.30775255 -0.19278878 -0.08412013 0.279041 0.14765581 0.022902593 -0.11553818 0.30519444 0.13182549 0.32886595 0.18083057 0.34310508 0.32248133 0.28716654 0.36260194 0.38793588 0.1309559 0.34050608 0.3269989 0.13605653 0.0449472 0.19245625 0.265993 0.14070171 0.2506601 0.0035144575 0.38258195 0.097948335 0.44099218 0.41775593 0.27016288 0.28745317 0.32537 0.31218874 0.3316927 0.39570794 0.4184376 0.43488914 0.44472587 0.44685215 0.53905857 0.29779434 0.2966494 0.3680526 0.36518186 0.40337306 0.48949128 0.5788492 0.24487434 0.07228708 0.004730724 -0.028975535 0.21107239 0.24267243 0.25609285 0.26919279 0.29551196 0.5555945 0.5556383 0.57792795 0.6079924 0.21066912 0.3577496 0.36885643 0.38143685 0.35734928 0.39624026 0.5151842 0.55740416 0.6004939 0.6156359 0.10039161 -0.09627892 0.58260167 0.49860528 0.23817888 0.40190893 0.35321444 0.31676298 0.42791635 0.44733834 0.2636082 -0.13920674 -0.06421022 0.20217052 0.27630687 0.2406005 -0.09632726 0.34287298 0.24612302 0.068101645 0.34056735 0.34033155 0.33341217 0.09300585 0.09149516 0.048039977 0.4121824 -0.12178227 -0.09989777 -0.07510499 0.40207827 -0.1344338 -0.09845401 0.13405266 0.30391753 0.23618296 0.33765572 0.40936923 0.41286927 0.32001808 0.38176653 0.25399417 0.32761204 0.32835335 0.31480286 0.30242467 0.28519607 0.24761054 0.22987513 0.19352907 0.28538004 0.23813707 0.2688704 0.44588265 0.2512271 0.21671166 0.23004997 0.15813302 0.13358317 0.37158805 0.4095757 0.4034015 0.33988953 0.35652515 0.45014155 0.49987686 0.5576807 0.1671434 0.074265584 0.24995111 0.4632513 0.50392413 0.4803152 0.20098105 0.32900068 0.3176641 0.21840936 0.40161276 0.019630358 0.5125005 0.5064139 -0.09758351 0.46688563 0.31157842 0.46637365 0.4877752 0.109745234 0.48086828 0.50157666 0.26647654 0.30444688 0.0938984 0.17553158 0.52570194 0.3202805 0.16503116 0.102242805 0.5684893 0.09399614 -0.07850645 -0.043860253 0.57051265 -0.03428819 -0.033923734 -0.09570064 -0.076349035 0.43451428 0.4879415 -0.08710491 0.36913243 0.4054513 -0.064946376 0.23972246 0.19387108 0.29775807 0.40606245 0.1709302 0.3581208 0.47405922 0.46134466 0.45986134 0.40163708 0.37698087 0.08697542 0.43288106 0.36814588 0.25445822 0.27699274 0.36113393 0.32446918 -0.028499996 -0.013755884 0.32603943 0.25459117 0.27519196 0.103782184 0.057859983 -0.020108461 0.30021122 0.34213996 0.34706342 0.37994826 0.37007743 0.24729054 0.22308008 0.029598981 0.1262419 0.2775483 0.3175038 0.28652793 0.358096 0.20946936 0.16897057 0.20746654 0.31732786 0.34470224 0.20726095 -0.018347435 0.04417053 0.23245305 0.29353482 0.20172028 0.4717492 0.5477284 0.47160926 -0.035980865 -0.22522578 -0.20503591 0.1772745 0.49988055 0.14778174 -0.27804855 0.52106285 0.52464455 0.24266487 -0.03674843 -0.28686282 -0.09037879 0.58968556 0.28083146 0.122942984 -0.0057706237 0.63086057 0.33105403 0.26417035 0.0041883066 -0.05428069 0.60922456 0.06541356 0.47235245 0.5272399 0.09598619 0.016929425 -0.11647955 0.41316324 0.44667506 0.048284188 0.21907501 0.2885504 0.35181427 0.39542437 0.41150445 0.3609953 0.32752693 0.6145204 0.6500823 0.57565737 0.5003396 0.53414583 0.5346483 0.5397289 0.39642498 0.4812275 0.2510241 0.16178653 0.4863939 0.450576 0.088514596 0.44660968 0.45961797 0.41283464 0.3097317 0.18362127 0.2386971 0.3942436 -0.014637031 0.058601037 0.248707 0.14938867 0.3032492 -0.035097636 -0.1275865 0.0016636401 0.14155498 0.09651169 0.21345273 0.24842703 0.26503906 -0.071670234 -0.1590749 0.12742557 0.16204214 -0.01292181 0.17640556 0.22480355 0.1270122 0.166697 0.546582 0.5513308 0.07452504 0.52219546 0.46621692 0.36084807 0.24232064 0.11632751 -0.039816093 0.40002078 0.3983156 0.52301097 0.54435444 0.17462154 0.014455009 0.55538976 0.57887787 0.26221073 0.29106423 0.01846667 0.050604604 0.6536938 0.32946184 0.33021823 0.48796397 0.2330499 0.1989221 -0.12328636 -0.12701735 0.66675663 0.5573865 0.58589286 0.60655797 0.34138423 0.32797244 0.23793021 0.5019303 0.5671339 0.15540728 0.43008974 0.46023285 0.27511257 0.28927463 -0.053214192 -0.026872648 0.2901848 0.33339334 0.35797822 0.49687266 0.5902652 0.5780826 0.5929063 0.8030813 0.75256276 0.59092355 0.7626741 0.7151164 0.69313765 0.5438024 0.47829708 0.4327886 0.6879536 0.63579124 0.4013369 0.5803032 0.27323323 0.503126 0.06920523 0.45388758 0.34183085 0.346909 0.24837324 0.28765017 0.44056016 -0.09925075 0.43025625 0.29648405 0.33463672 0.17827767 0.25540262 0.2039631 0.24589372 -0.10274254 0.1419324 0.17009713 0.143905 0.046311192 0.11456241 0.09783203 0.10520167 0.47854757 0.015368789 0.012107737 0.4260236 0.3184731 0.1453855 0.10523063 0.028126102 -0.07134433 0.3585667 0.37379038 0.3443666 0.06942512 0.50715137 0.52628475 0.10484832 0.55397445 0.56793463 0.23450476 0.09041733 0.5905071 0.29662395 0.40745085 0.41140723 0.1667215 0.13510248 0.6220666 0.6021687 0.62894493 0.62347054 0.54406327 0.30253386 0.32989067 0.13201454 0.079681054 0.52081716 0.5672492 0.6686301 0.6697306 0.6734879 0.30756158 0.31280982 0.28424084 0.1320261 0.4400607 0.44847804 0.4652685 0.2655486 0.2996642 0.32489544 0.32993025 0.37060118 0.33640313 0.49633676 0.57394826 0.6167031 0.67408633 0.6777737 0.70935816 0.7200803 0.8977163 0.90376806 0.8655725 0.6203809 0.5675494 0.90593624 0.49596697 0.46022058 0.80977786 0.44180518 0.6967855 0.3605324 0.5498205 -0.10447494 0.26914388 0.16024467 0.18573834 0.34135526 0.47843075 0.4871168 0.44730243 0.43933958 -0.09290683 0.3389386 0.18780959 0.26557994 0.14115521 0.1728625 0.12613586 0.072549924 0.18746811 0.28894186 0.16612694 0.19650458 -0.005555287 0.11742369 0.12362261 0.007206913 0.09689007 0.14425074 0.13422841 0.11658078 0.14352374 0.10286426 0.055159394 0.008630879 0.48251083 0.50100404 0.5482788 0.07522735 0.4052901 0.50484496 -0.029779138 0.024924608 0.0732461 0.48348388 0.51895654 0.22957376 0.4514339 0.53898764 0.5649762 0.28189576 0.36507118 0.2181046 0.49168223 0.5409732 0.44146118 0.6125609 0.68022776 0.26349428 0.21297687 0.23076016 0.47278485 0.5276265 0.6741817 0.7106235 0.7121149 0.7019745 0.27073133 0.26485565 0.24594964 0.4495076 0.4561945 0.2727611 0.27050093 0.27274814 0.30337155 0.31454402 0.33574855 0.47218788 0.5694629 0.5415202 0.5739347 0.65921026 0.6997809 0.73608506 0.7188715 0.68948865 0.97264874 0.94541955 0.8714566 0.7442412 0.5974461 0.965252 0.56648284 0.48262006 0.85582155 0.88933957 0.72435874 0.42114353 0.52557874 0.5353787 0.63366854 0.5107248 0.24162921 -0.07329252 -0.07117134 0.11819565 0.07316006 0.41206396 0.50792855 0.4947902 0.3890416 -0.08378595 -0.067755364 0.04500068 0.2775678 0.19067644 -0.056999758 0.0335422 0.10661504 -0.13683517 0.11932498 0.33105096 0.21369582 -0.23879951 0.017359942 0.09220107 0.13321589 0.1577056 0.17394227 0.16107994 0.10388325 0.19975963 0.5342209 0.5566579 0.5890362 0.033168025 0.37995082 0.47994238 0.5748829 0.026352327 0.15351978 0.3999618 0.30714822 0.45302278 0.5148175 0.5728545 0.63507295 0.3165552 0.3144644 0.2622114 0.16815838 0.41740412 0.45894885 0.62343866 0.6956121 0.7004362 0.18563116 0.21731195 0.2442675 0.2333158 0.12273737 0.3920322 0.43770003 0.45379442 0.27123493 0.28555292 0.3106983 0.31860575 0.2966545 0.30969903 0.5588242 0.48208934 0.6096569 0.6683518 0.6626983 0.61030567 0.7064712 0.7269647 0.69282943 0.67274284 0.9335518 0.89271724 0.8576618 0.7930323 0.9272518 0.8990495 0.81889904 0.7598304 0.87599385 0.5950446 0.799867 0.6836667 0.5300911 0.53517807 0.53105366 0.57700074 -0.010809042 -0.039211825 0.17112702 0.4629256 0.49944425 0.5203097 0.42690232 0.3495666 0.04743564 0.011489924 -0.024314132 0.2282086 -0.06074794 0.07055879 -0.024465062 0.12174146 0.38457656 0.20367993 0.20868039 0.36808217 0.27750996 -0.21265136 -0.22978145 0.16890351 0.16637015 0.10297474 0.23901877 0.18916932 0.25339362 0.21556044 0.5425527 0.56786776 0.58202136 0.17720923 -0.20010433 0.525586 0.5523907 0.5663662 0.5734662 0.064417325 0.07163691 0.46928126 0.5265024 0.5254725 0.52595437 0.22186685 0.029979069 0.15012527 0.12637506 0.18919817 0.4186287 0.4512541 0.42636442 0.24637887 0.36981153 0.20512393 0.20375904 0.25968745 0.27333966 0.44892794 0.49162406 0.5716591 0.5480028 0.35434577 0.16679728 0.32121706 0.110982 0.13584065 0.2746613 0.5991626 0.615644 0.2529638 0.1961598 0.20064291 0.2575621 0.33129865 0.3751583 0.277034 0.32290983 0.3415482 0.355914 0.3998084 0.35093957 0.5886217 0.61927736 0.5014247 0.5977753 0.62459505 0.63392997 0.5688237 0.617771 0.62728536 0.6637311 0.67196536 0.5977336 0.70124155 0.86952484 0.82964385 0.8808434 0.8485444 0.70177025 0.8077272 0.5709075 0.527061 0.24552396 0.06425965 0.20765626 0.24018687 0.26841885 0.2511925 0.5059275 0.5223302 0.5085905 0.20234391 0.20514275 0.3138155 -0.06444294 0.103622355 0.44836557 0.17223555 0.4552157 0.6904813 0.6918999 0.3054556 0.008860096 0.735713 0.23254013 0.09658689 0.06304254 -0.09723553 0.18318173 0.3493165 0.31852514 0.30373222 0.16281924 0.43672717 0.43284434 0.38601246 0.3834332 0.29232395 -0.0715256 0.31487265 0.38442484 0.3323589 0.21633387 0.28854725 0.33116794 0.56110275 0.58688784 0.5323609 0.31244496 0.36801606 0.42268574 0.46936208 0.51492655 0.64868975 0.65731543 0.6621315 0.6034045 0.6547595 0.6708255 0.6560645 0.6565485 0.6562762 0.21190691 0.27142957 0.30062246 0.28834265 0.22443238 0.34383062 0.30011052 0.43070263 -0.27494603 0.21821739 0.047273032 -0.08213657 0.11662342 0.186921 0.21249501 0.46932912 -0.3368676 0.47842914 0.5633456 0.5553098 0.32005724 0.35536873 0.69069076 0.2371327 0.77127343 0.7723796 0.04508815 0.23969124 0.7646613 0.69419986 0.14083168 0.21104938 -0.10549685 0.29143366 0.33970416 0.30846173 0.36517277 0.29849848 0.39479434 0.08573059 0.09937209 0.35920092 0.46431735 0.42972234 0.44994387 0.2927153 0.3805982 0.5206734 0.37836173 0.4340614 0.4025427 0.3554395 0.4119169 0.43898463 0.50312865 0.54012275 0.3861571 0.432725 0.4852873 0.6596217 0.29992238 0.29474172 0.33422315 0.27002144 0.31507623 0.41790348 0.2709731 0.27581894 0.31847662 0.38904113 0.3814618 0.20386088 -0.04188265 0.23524827 0.25956145 0.2608362 0.47151834 -0.23670328 0.3231507 0.380983 0.5398717 0.50009304 0.413702 0.5946918 0.5279715 0.40516645 0.6728242 0.71637726 0.3565887 0.32056487 0.7796664 0.34363562 -0.10956024 0.2856463 0.28483105 0.7810534 0.7628045 0.7238487 -0.2289665 0.28145885 0.18042094 -0.18511134 0.11372374 0.23101929 0.22794741 0.29757887 0.4519788 0.3953991 0.41687626 0.41864216 0.2879885 0.055557888 0.44773078 0.47160608 0.41898876 0.4774797 0.5133213 0.5320052 0.5253298 0.45989943 0.48823965 0.47022098 0.38274372 0.4458515 0.5288844 0.46533585 0.29901046 0.20287143 0.59183747 0.63819575 0.28961575 0.13476467 0.12894814 0.19246644 0.25401378 0.28046724 0.29692605 0.47639948 0.57862985 0.53877306 0.60539234 0.22270212 0.25212106 0.2386489 0.3179778 0.3570476 0.49321508 0.21077798 0.235636 0.34130815 0.3666401 0.48018685 -0.22373852 0.37979883 0.3969408 0.41476518 0.57107323 0.61586154 0.42670602 0.43034866 0.6699858 0.419896 0.7021413 0.75937545 -0.31912655 0.3505358 0.31115437 0.7937136 0.7797199 0.6881268 0.28843388 0.79040176 0.7741232 0.27817896 0.36678752 0.24604407 0.27494854 0.5146942 0.14291401 0.5271839 0.51170254 0.19133002 0.011508187 0.30704135 0.26648775 0.21360466 0.27030405 0.078201175 0.2923202 0.4733651 0.42766705 0.3501451 0.39932278 0.36025286 0.4672062 0.5147213 0.53323805 0.5148554 0.57671666 0.58985764 0.23013166 0.13078837 0.61220044 0.6882211 0.71848035 0.714483 0.2430183 0.12327347 0.12937362 0.2338525 0.21346988 0.5225229 0.67782384 0.6534364 0.14230917 0.6319423 0.19835082 0.08161293 0.20214653 0.23245806 0.41466027 0.03815635 0.00667876 0.4295783 0.42743203 0.40755665 0.41910648 0.6167084 0.5638764 0.4144548 0.43088883 0.43149096 0.70364213 0.712396 0.41524893 0.4121139 0.74393594 0.35236853 0.31714347 0.76568997 0.7387954 0.08240156 0.29602093 0.34295964 0.26604676 -0.12338842 0.551648 0.12187244 0.18216744 0.0019205306 0.01104825 0.13760427 0.5676908 0.32725024 0.23075107 0.5815453 0.5735115 0.49245232 0.4125654 0.20618582 0.31201082 0.34546277 0.44142812 0.5192499 0.4660176 0.38162237 0.47857022 0.52338684 0.5106527 0.61737823 0.6313417 0.639927 0.60299206 0.71274686 0.7536323 0.7209928 0.30379033 0.27599654 0.2703904 0.13126025 0.11794531 0.43235838 0.51338637 0.6966281 0.67585707 0.12810199 0.20279682 0.3464138 0.21507263 0.40863115 0.14590234 0.30946958 0.36839402 0.41181678 0.70531714 0.6702101 0.03604842 0.09467814 0.14514245 0.26831612 0.39376625 0.7206037 0.65533566 0.111710146 -0.1518676 -0.14481789 0.1569339 0.32236776 0.33592904 0.33130133 -0.14250946 0.06530837 0.19607031 0.33950645 0.3170344 -0.054005627 0.29516736 0.45470566 -0.251008 -0.13794596 0.018385679 0.11567851 0.3339565 0.5332642 -0.063320555 0.005660124 0.069752164 0.57504976 0.5833924 0.049919102 0.21934535 0.3935957 0.5885172 0.58202815 0.54039097 0.46055096 0.5218748 0.4039472 0.35705695 0.46591103 0.46252465 0.6153538 0.542231 0.656655 0.65644056 0.6800235 0.6468347 0.5972606 0.6569439 0.6646823 0.6580334 0.73068655 0.76368594 0.7185142 0.42371097 0.29773793 0.19894804 0.26917306 0.52640843 0.6837423 0.65828216 0.3063317 -0.03331268 -0.14959963 0.039948545 0.17135629 0.6101376 0.35988334 0.36433905 0.466705 0.46105117 0.26321214 0.48788896 0.14283003 0.17479493 0.39203593 0.13888946 -0.14257321 0.3719664 0.4137165 0.422305 0.11426509 0.25483242 0.3986885 0.44222808 0.42466962 0.39225054 0.25799206 0.27611572 0.37113595 0.365088 0.20978348 0.40611398 0.39073294 0.38647735 0.19571096 0.29852337 0.4026982 0.3517857 0.47872525 0.22123174 -0.084685475 0.13983698 0.2139802 0.4135353 0.5654887 0.572171 0.32838923 0.45605546 0.42487073 0.5821057 0.5631423 0.5368454 0.41263232 0.40725058 0.5235647 0.53264457 0.48573887 0.4455235 0.49879062 0.4439351 0.40679663 0.57809573 0.68204665 0