# vtk DataFile Version 2.0
Really cool data
ASCII
DATASET POLYDATA
POINTS 6808 float
14.397392 6.9957647 26.916447
14.352806 6.9312334 27.501299
14.40687 6.9819083 28.059938
14.37006 7.5671525 26.825409
14.288602 7.506496 27.391743
14.381462 7.468915 28.030926
14.410618 7.9919 26.89448
14.3541355 7.9900312 27.237402
15.200826 6.2539306 26.462389
14.80827 6.151017 27.585354
15.050783 6.0735497 28.29783
14.817363 6.9430933 26.214933
14.578991 6.7997127 26.751448
14.562361 6.470021 27.518738
14.662755 6.5966 28.317724
15.01963 6.756655 28.865725
14.846962 7.5123825 26.147026
14.549024 7.540346 26.47792
14.630928 7.280159 28.497345
14.99381 7.491919 28.895554
14.994642 8.243913 26.315466
14.669548 8.247772 26.791624
14.66791 8.405621 27.670143
14.869904 8.355218 28.22352
15.149479 8.079822 28.827406
14.9996395 8.62133 26.954302
15.0443125 8.768593 27.636147
15.104234 8.7475195 28.090006
16.061348 -1.7892629 26.830538
16.118454 -1.8237514 27.16743
16.060434 -1.2362192 26.059832
15.745993 -1.3723813 26.690372
15.779211 -1.304854 27.389616
16.014687 -1.2557131 27.794052
15.991587 -0.5697087 25.95845
15.613611 -0.65730965 26.576424
15.599852 -0.6422069 27.290022
15.902372 -0.6849588 27.806911
16.242449 0.5358194 25.865799
15.870693 0.28941178 26.498463
15.840786 0.18424983 27.247131
16.312206 1.4578956 26.653435
16.30492 1.0866513 27.227116
15.904896 5.8253775 26.131893
15.719713 5.7139654 26.609116
15.368949 5.872531 28.343632
16.05527 5.864777 28.81242
15.883274 6.768864 25.59869
15.597874 6.593156 29.09553
15.650032 7.4422917 25.69221
15.452207 7.3472276 29.149834
15.572501 8.316385 26.115953
15.546811 8.583028 26.40795
15.308561 8.581945 28.607254
15.569495 8.318521 28.911503
15.327754 8.804002 26.817877
15.637707 9.027291 27.679441
15.678591 8.900265 28.335335
15.521624 8.706732 28.722927
16.857891 -1.957675 26.044113
16.643263 -2.097917 26.620224
16.763391 -2.088544 27.342018
16.95944 -0.930928 25.181551
16.640057 -1.4850597 25.721504
16.55057 -1.355384 28.034346
16.903286 -0.12263405 24.921019
16.532373 -0.48970926 25.487684
16.644157 -0.7399347 28.232037
17.371313 0.6567667 24.209534
17.139774 0.5725559 24.634094
16.424196 0.4326712 25.61757
16.772324 0.19370973 28.180004
16.933603 1.052718 24.84735
16.894756 1.5252343 25.389057
17.083767 1.736501 27.662643
17.216604 2.3520184 25.809097
17.020954 2.434348 26.450294
16.897724 2.0416129 27.223188
16.48857 5.16627 26.804014
16.959133 4.883679 27.279655
16.797314 5.256217 28.354033
16.696522 5.560738 25.733704
16.885628 5.8322086 29.198559
17.095606 6.921821 25.03873
16.379639 6.2241883 29.01109
17.07585 6.4456224 29.556978
16.40334 7.6155305 29.334135
17.36379 8.536176 24.503714
16.490122 8.222427 29.131987
17.366661 9.236266 24.540169
17.236593 9.135993 25.189823
16.378622 9.126407 27.712532
16.267414 9.038016 28.301336
16.395538 8.692352 28.772646
17.953741 -2.5969489 26.53864
17.767075 -2.5480082 27.11219
17.561695 -2.1766515 25.896688
17.344965 -2.4031796 26.416582
17.643812 -2.3527958 27.450138
17.593199 -1.9816874 27.885132
17.610626 -1.1870538 25.125502
17.519106 -1.5539397 28.151243
17.759642 -0.015290305 24.159174
17.58842 -0.30390555 24.528362
17.32122 -0.6677098 28.394333
17.715288 0.4916538 23.954325
17.796795 0.70740193 28.467789
17.929789 0.32177874 28.557602
17.459185 1.22884 24.177052
17.788841 1.2284714 28.287342
18.033384 2.2959292 24.078005
17.731419 2.3280149 24.74857
17.54903 2.5993762 26.552837
18.233057 2.9339917 24.4837
17.720293 2.958523 25.639551
17.486263 4.9003572 28.379923
17.771185 6.084151 24.950489
17.667885 5.433251 29.358747
17.932158 5.927477 29.72
17.312004 6.787077 25.04304
18.347727 8.007352 23.420671
17.52505 7.883179 24.411968
17.888449 7.329675 29.673923
18.156942 8.524965 23.2804
17.931492 8.639336 23.606554
17.61027 8.119297 29.234499
17.833557 9.435811 23.795828
17.56679 9.695864 24.325205
17.973835 9.150723 26.510063
17.178122 9.046966 27.609884
17.37135 8.863758 28.26753
17.741276 8.579519 28.820068
17.825666 9.85256 24.05701
17.912384 10.153616 24.638477
18.027594 10.304373 25.020771
18.385908 -2.638857 26.850903
18.420858 -2.6032205 26.955168
18.359259 -2.4144337 26.003962
18.441744 -2.315948 27.506838
18.443048 -2.0984368 27.748566
18.491465 -0.7169432 24.307236
18.579802 -1.2198799 24.929781
18.865757 -1.6527905 25.574505
18.320427 -1.4966668 28.12111
18.469297 -0.42854884 24.109135
18.446535 -0.54589355 28.359709
19.067026 0.5731104 23.26358
18.552454 0.40461308 23.573719
18.347216 0.7872406 28.560324
19.238665 1.5570651 22.98393
18.53518 1.7821372 23.448689
18.332535 1.2978591 28.431465
19.347725 3.1017382 21.657639
19.103607 2.7226458 22.87407
18.792564 2.7193766 23.390467
18.353643 2.0703576 28.091604
19.400827 4.0421576 18.923668
19.343586 4.018662 19.243835
19.360296 3.5365772 20.762022
19.377346 3.3429797 21.423454
18.973618 3.4233038 23.59178
19.353384 4.6385584 18.751495
19.221054 4.7407775 19.46087
19.295935 4.1131263 20.76165
19.285767 4.2563605 21.887894
18.877445 4.667135 28.983774
19.329916 5.3737054 18.849129
19.340519 5.687745 19.571644
19.332378 5.4989777 20.124844
19.373114 5.35595 24.297789
18.88246 5.9248176 29.868706
19.412846 5.9889235 19.042347
19.408426 5.890383 19.158176
18.778582 7.053081 23.103281
18.636738 6.403931 29.820631
19.076534 7.5896335 22.780727
18.413855 7.3110385 29.695938
18.835138 8.233827 22.919168
18.728642 9.344901 23.174198
18.41865 9.678297 23.448736
18.75731 9.552281 26.451662
18.422482 8.604827 28.521482
18.702057 9.791356 23.38685
18.596859 10.098995 23.690817
18.553654 10.541364 24.349043
18.98891 10.465066 25.870935
18.762554 10.730259 24.662827
18.813217 10.694843 25.333069
19.044155 -1.9118768 25.70993
19.251062 -2.2518518 26.957287
19.999159 0.252505 23.138468
19.32057 -0.07655889 23.729403
19.45804 -0.37177473 28.030272
20.02275 0.51773596 22.796007
19.120352 0.3203929 23.522684
19.316856 0.22271977 28.325504
20.217102 2.2089536 20.658712
19.660347 1.581634 28.604458
20.152435 3.2837572 18.680885
20.054281 2.9618483 19.631248
19.831738 2.7769814 20.549536
19.480276 2.884215 22.242258
19.873114 3.9364514 18.157028
19.813164 3.7383282 18.505363
19.672527 3.4656723 19.451715
19.825409 4.476633 18.006517
19.871115 4.6641545 29.690561
19.827215 5.277086 17.977802
19.551693 5.6483226 18.543629
19.49051 5.0743904 22.614286
20.072338 6.0698967 18.039417
19.742287 6.0228305 18.66614
19.733944 6.365722 19.437117
19.791306 6.2042246 20.26958
19.77695 5.881738 21.757349
20.014238 6.3878055 30.009401
20.174368 6.640868 19.225342
19.424517 7.379131 29.577606
19.513119 8.537285 22.628126
19.79677 7.9703264 29.249668
19.53932 9.422086 22.952171
19.063625 8.709756 28.04834
19.40464 10.4548645 23.776033
19.519312 10.253332 26.06588
19.249712 10.709974 24.15283
19.571054 10.876254 24.787582
19.673302 10.849185 25.240356
21.343239 -8.067847 26.063812
21.397669 -8.258473 26.546293
21.438103 -8.275003 26.972511
21.408789 -7.6239514 26.03814
21.319466 -7.7292876 26.455395
21.424349 -7.3988395 27.155788
21.362297 -6.9163933 26.71186
21.47883 -6.774584 27.176584
21.385096 -2.760396 21.921213
21.266035 -2.1319933 23.381294
21.232082 -1.6045127 27.673492
21.327316 -1.5561867 22.606325
21.139654 -1.3931272 24.66464
20.464989 -1.3992096 25.763239
20.585535 -1.3381498 26.288383
21.156912 -1.4136028 28.300726
21.2564 0.025162518 21.880726
21.02631 -0.07755181 29.099344
20.827734 1.2126648 21.188026
20.750902 1.0565853 21.806702
20.306456 0.79385686 22.375063
20.931282 2.2744994 20.016516
20.41684 2.1003609 20.644863
20.676888 1.6586404 21.303194
20.743935 1.4595716 29.13225
20.868462 3.328774 18.223375
20.33629 3.2592254 18.621113
20.306051 3.0053492 19.30137
20.624224 3.005175 29.160185
20.523397 3.7890167 17.917824
20.697815 3.614516 29.27601
20.603216 4.2381563 17.570276
20.7346 4.74808 29.970005
21.458548 5.050812 12.634235
21.450329 5.5628195 13.482046
21.148636 5.829771 14.599296
21.150934 5.6800613 15.315257
20.878275 5.5224996 17.042212
20.307161 5.019416 17.6185
21.229687 6.493673 14.06019
21.010588 6.343137 14.500637
20.94546 6.390407 15.710831
21.117964 6.4908047 16.606003
20.66916 6.24623 17.800072
20.302057 6.521462 18.603088
20.48579 6.4478254 30.155401
21.18192 7.172856 14.710581
21.010138 7.023315 15.372345
21.441479 7.8182817 16.291529
21.20107 6.6930747 17.646784
20.685028 6.636167 18.662642
20.899773 7.058525 19.886606
21.172699 7.163781 20.371157
20.566338 7.412966 29.819128
21.422436 8.142102 15.535915
20.446012 8.001942 29.09999
20.838718 8.959446 22.450445
20.66117 9.26491 22.802437
20.71167 8.946246 27.483084
21.343803 10.885652 16.028553
21.285883 10.820384 16.370031
20.47667 10.145173 23.175346
20.303537 10.551605 25.641554
20.841381 10.176117 26.10217
21.333906 11.688943 16.089151
21.349154 11.707314 16.306627
21.366653 11.50645 17.348398
20.13058 10.659954 23.994621
20.027647 10.753863 24.438295
20.119343 10.799746 24.999155
21.408789 12.592034 16.055939
21.318062 12.426973 16.525543
21.363804 12.427775 17.465199
21.421618 12.944426 16.565636
21.36449 12.960778 17.256552
21.95155 -8.897426 25.994804
21.813723 -8.938762 26.609806
21.86867 -8.884221 27.127842
21.960117 -8.097596 25.164522
21.732882 -8.407361 25.740408
21.540823 -8.629083 26.550726
21.661615 -8.497554 27.290459
21.888021 -8.163993 27.825087
21.881336 -7.531864 25.080866
21.642794 -7.5418277 25.463129
21.573187 -7.767043 27.444975
22.04912 -7.2791777 28.332153
21.72904 -6.624251 25.80621
21.613688 -6.5254526 27.653027
21.90391 -6.4918523 28.274826
22.239342 -6.2446504 28.671001
22.320415 -4.8923464 20.907188
22.204445 -4.9820466 21.374437
22.396872 -5.3150153 22.252878
21.580416 -6.11496 27.021236
21.873571 -5.6917853 27.617123
22.097645 -5.4497538 28.088997
22.11701 -4.34764 20.814302
21.939838 -4.307005 21.459179
22.030163 -4.4715657 22.494957
22.154673 -4.2566705 23.308945
22.372551 -4.9953456 27.475662
21.905476 -3.5830793 20.88286
21.64342 -3.4885118 21.515907
22.02884 -3.625392 23.554604
22.044868 -2.858077 24.325743
21.871645 -2.576708 20.8415
22.109758 -2.727734 24.326878
[...]
POINT_DATA 6808
SCALARS features_00 float 1
LOOKUP_TABLE default
0.8015084 0.82785416 0.8521076 0.81301856 0.83855295 0.8658724 0.8176725 0.834856 0.7233721 0.79382634 0.79237163 0.75221336 0.78154254 0.8086637 0.8413371 0.8282035 0.75768614 0.7889894 0.87077165 0.85393023 0.75890374 0.80706954 0.84675705 0.8450466 0.82219815 0.8022258 0.8178203 0.8105301 0.9122689 0.92290056 0.79197186 0.91820586 0.9611539 0.9382406 0.70353746 0.8759746 0.95401746 0.93941176 0.5754432 0.7427838 0.87309366 0.6255793 0.71930975 0.627057 0.6765384 0.7408992 0.6247028 0.5885625 0.7508272 0.6451707 0.80813634 0.67663777 0.7113273 0.7871604 0.76010907 0.77164924 0.75203633 0.73118126 0.7519745 0.7758037 0.84515595 0.8577982 0.5233384 0.7056425 0.8749281 0.45857924 0.5582684 0.79334915 0.38187206 0.41520363 0.5280267 0.67855954 0.4201743 0.4561932 0.61072576 0.46550065 0.53327143 0.6061711 0.63157505 0.5742308 0.5352279 0.5267645 0.51427263 0.30784434 0.60932934 0.52713907 0.6862427 0.46342552 0.6360134 0.5503319 0.5245066 0.611712 0.63054705 0.62999547 0.72289026 0.7533649 0.715636 0.77118826 0.7643584 0.7675326 0.51345253 0.7504829 0.3657673 0.3991975 0.6399267 0.35193434 0.4329895 0.43330106 0.3698727 0.43674803 0.28121904 0.3483171 0.47276232 0.221722 0.35816556 0.4625751 0.20834172 0.43009743 0.4313988 0.2959172 0.36754408 0.34478316 0.4862863 0.45048127 0.46816188 0.50071186 0.5638388 0.5940987 0.31657988 0.38041252 0.42852688 0.44156596 0.60516155 0.6390777 0.6583861 0.69821936 0.6983989 0.65902495 0.6946902 0.68606544 0.35080665 0.45838797 0.5268094 0.65854967 0.33034727 0.4858157 0.20085764 0.2773085 0.35130274 0.14614695 0.2550669 0.33166248 0.15025719 0.055568516 0.11968883 0.3516078 0.5437836 0.5201066 0.31334117 0.19977945 0.00018338859 0.5907996 0.5583934 0.34953576 0.14498962 0.29517928 0.5445287 0.50806427 0.4843306 -0.1967822 0.35532627 0.4913013 0.49882972 0.1732197 0.39060417 0.32045138 0.42076275 0.42365003 0.5306735 0.5756376 0.27365112 0.3019764 0.57667434 0.61201644 0.6460558 0.5386892 0.64686847 0.6275388 0.53132826 0.58853847 0.024707008 0.2081863 0.34964773 -0.026236948 0.22807568 0.27176607 0.17269304 0.042901844 0.43873054 0.3441654 0.26657057 0.06676262 0.53990746 0.5139842 0.42569506 0.5801876 0.1450527 0.53775966 0.513101 0.07152416 0.452672 0.4763588 0.4396373 0.4394796 0.22371612 0.29982117 0.38819712 0.33895513 0.4379669 0.25407308 0.48759574 0.14538887 0.58160746 0.4199844 0.6098089 0.5812495 0.5512438 0.73537874 0.7464061 0.745862 0.7047075 0.7070735 0.6799685 0.6419911 0.62945867 0.30413035 0.19664782 0.044159025 0.14330874 -0.32757118 -0.03984146 -0.060808457 0.22791354 -0.14420809 0.13930386 -0.108933315 -0.15224124 -0.1212334 0.14391476 0.1378134 -0.031753648 -0.13822761 0.37585425 0.4212524 0.35150772 -0.19767928 0.47814316 -0.12503807 0.49670768 0.07926013 0.36566952 0.3188757 0.28597724 0.26286033 0.36685634 0.5345649 0.2588533 0.25798184 0.1863508 0.113771066 0.39276692 0.3969323 0.2807254 0.22642066 0.18732183 0.06563474 0.2587503 0.34939757 0.28294092 0.19084251 0.2628548 0.12724558 0.16988312 0.2362248 0.31630468 0.021007817 0.38712627 0.395741 0.4019557 0.4373954 0.26028162 0.44690758 0.44958165 0.46261925 0.49801424 0.5195497 0.5045828 0.48672128 0.48207968 0.49105823 0.5059192 0.50655276 0.8096075 0.8114603 0.81229126 0.72813153 0.766014 0.7753947 0.77299166 0.75374675 0.67430174 0.70038915 0.7122495 0.6610131 0.6063033 0.59997404 0.57836646 0.5115602 0.2909039 0.31678617 0.3115449 0.5509383 0.51141423 0.47615594 0.28057382 0.3273073 0.33950067 0.21207973 0.41453278 0.27237216 0.32704452 0.14949216 0.04229113 0.21160164 0.03883367 0.08654126 0.19810633 0.3097158 0.38862 0.04339946 0.16988024 -0.21530685 0.42480975 0.4281309 -0.1067279 -0.09370945 0.36265853 0.32416826 -0.11874071 0.31666526 -0.019390162 -0.13713449 0.4397184 0.3673952 0.33815032 0.2702933 0.4160174 0.4010234 0.3647798 0.2893648 0.15938306 0.18693526 -0.023953788 0.34465462 0.32411364 0.36266384 0.29704085 0.15669551 0.4114617 0.33600396 0.29164696 0.23793702 0.52279335 0.48446095 0.4376505 0.20049223 0.19546218 0.10245658 0.22242516 0.5798762 0.57321775 0.53738475 0.15529999 0.05828426 -0.22435226 0.048335798 0.17101231 0.62006986 0.6196208 0.5771022 0.42117253 0.034607522 0.16777419 0.33847383 0.09544425 -0.01309222 0.0051519424 0.61296344 0.5744047 0.5331751 0.38059312 0.40186015 0.44274226 0.27646074 0.28407454 0.40561932 0.26574406 0.25152054 0.46985593 0.50067294 0.47846448 0.49788254 0.51542294 0.5082443 0.4875979 0.5123029 0.50762093 0.79369617 0.8587682 0.89213866 0.8525804 0.7571744 0.722798 0.7255318 0.60864156 0.5938024 0.6437098 0.58997023 0.18118511 -0.005572282 0.3045047 0.4797092 0.22494282 0.27554214 0.3039425 0.40523657 0.37582624 0.25954124 0.20930833 0.24522987 0.061339382 -0.060383394 0.38884008 0.24163304 0.5075488 0.29771054 0.29478997 0.26377368 0.16774957 0.1499505 0.16362195 0.28134465 0.2686079 0.27925536 0.25995058 0.00077228993 0.3614454 0.36520472 0.40966725 0.37707877 -0.113936715 0.3986336 -0.0075181853 -0.20120913 -0.11110828 0.27495682 -0.014890267 -0.03984848 0.004463948 0.43767035 0.33732638 0.13236593 -0.066449545 -0.21277086 0.44149774 0.44288102 0.3945161 0.2649004 0.10185279 0.023556545 0.14858201 0.42539772 0.42820126 -0.06376055 0.119512185 -0.024460256 0.38206595 0.010722503 0.42872888 0.049163684 0.51186407 0.116430394 0.5891292 -0.038751252 0.0021068305 0.63485515 0.2875573 0.043261245 -0.054147005 0.62965274 0.59420955 0.17592156 0.14779492 -0.09934389 0.5366341 0.41709816 0.32203937 0.119459696 0.13556117 0.23454234 0.035404444 0.3808697 0.29855838 0.12294611 0.46722612 0.44184184 0.4239332 0.38716844 0.4916979 0.48891115 0.44523048 0.3802506 0.21632445 0.39007658 0.83720934 0.89116484 0.8848896 0.8340478 0.9188838 0.8602185 0.7794498 0.79748213 0.8915467 0.78357255 0.63502276 0.77296704 0.8244615 0.85356534 0.76458526 0.6296104 0.68959 0.68533546 0.7376019 0.617049 0.5426612 0.5255325 0.53085166 0.26956877 0.25355345 0.18877321 0.017177952 0.25423753 0.38898975 0.35236013 0.1336367 0.19078358 0.23863406 0.13647895 0.04599933 0.43849277 0.46030772 0.34654015 0.31743932 0.17251934 0.23991407 0.24121574 -0.025283098 -0.028242253 0.06714037 0.43517 0.48509142 0.5165835 0.48174992 0.42688817 0.22067267 0.19426893 0.29440445 0.08099349 0.14253804 0.27858996 0.41682506 0.48983255 0.511945 0.46046567 0.38907897 0.20215717 0.28601873 0.3370775 0.32736677 0.44417948 0.44724804 0.38606775 0.35818934 0.17428443 0.10399017 0.18963873 0.35069346 0.318416 0.3057806 0.32049438 -0.06597418 -0.0626602 -0.25562814 0.33157796 0.23994553 -0.06904878 -0.025919756 -0.019838275 0.27272207 0.02825767 -0.07677452 -0.11688998 -0.05139894 -0.02893994 0.016642751 0.60383266 0.41523427 0.16875124 0.0051116943 -0.06323446 -0.12076931 -0.053616613 -0.07897034 -0.17390718 0.38322872 0.4096343 0.0062446147 -0.14037143 -0.14665727 -0.1336748 0.39061362 -0.03781569 0.0005158968 0.29917833 0.12553911 0.44994485 0.33811757 0.40382588 0.51189005 0.43802726 0.46691245 0.51331294 0.5779988 -0.09848598 0.26586238 0.44264442 0.4705033 0.6101544 -0.047151178 0.59494436 0.5880861 -0.11468578 0.034677614 0.4570799 0.3347183 0.09094201 -0.14050879 0.092274874 0.30181375 0.37909263 -0.02647087 -0.058721494 0.38621548 0.42611206 0.4313814 0.24127007 0.053076636 0.360952 0.48878577 0.48334873 0.360742 0.14513804 0.36897498 0.3297529 0.29177338 0.19328822 0.7460978 0.838204 0.83263546 0.6636131 0.78103566 0.85568124 0.862175 0.81832665 0.6626673 0.7401278 0.69509757 0.5619017 0.66051257 0.5371581 0.62972367 0.55847794 0.40638006 0.43872964 0.49442148 0.49174708 0.37382466 0.49829155 0.22453159 0.14643174 -0.06923384 0.45257968 0.2871473 0.26984486 0.17270993 0.019960113 0.15763843 0.096619636 0.26957986 0.21828836 0.32630393 0.3093861 0.31262606 0.023567984 0.052177936 0.1818115 -0.05656944 0.35582867 0.35066825 0.05578947 -0.039249673 -0.025229253 0.35245493 0.38437408 0.072861694 0.32393983 0.384412 0.16398875 0.28548002 0.3431862 0.25144354 0.33925062 0.33519596 0.18789157 -0.27623823 -0.14688818 0.24614102 0.54745877 0.2721022 0.30653486 -0.23402768 -0.20677264 0.045996726 0.4983164 0.59849346 0.591321 0.5252578 0.2917587 0.2536449 -0.12478007 -0.13882975 -0.13380206 -0.111570634 0.5089951 0.5816653 0.57954097 0.56649846 0.2870137 0.14854395 -0.18645883 -0.23505765 0.51927924 0.54617363 0.5630704 0.2618806 -0.0776127 0.62465817 0.7707465 0.78606963 0.73860216 0.22218323 -0.07124869 0.28612828 0.79834604 0.84956324 0.86656475 0.82531035 0.2552702 0.5592627 0.8107179 0.8542887 0.860225 0.07886524 0.57502234 0.515374 0.53428864 0.40807182 0.46749458 0.4814865 0.5450692 -0.059408814 -0.17384848 0.39230585 0.44263124 0.54543746 0.15034172 0.19656408 0.15233886 0.2879473 0.122299775 0.061138336 -0.09755992 0.45691174 0.06951905 -0.11368041 -0.08198828 0.5463955 0.53632045 0.4993344 0.22350183 0.42776448 0.55755764 0.57862854 0.56543976 0.2702319 0.1608463 0.14371754 0.10295225 0.19262761 0.16292635 0.33963108 0.46204612 0.4331984 0.45681807 0.49933296 0.69082767 0.73862684 0.762542 0.66833436 0.5937791 0.6224868 0.7535663 0.47732285 0.32380453 0.1475637 0.241927 0.2103239 0.32911146 0.31508133 0.26439315 0.102604955 0.14344059 0.15055352 0.11548517 0.16779837 0.16452953 -0.11993849 0.19554952 0.12402809 0.16102445 0.37385866 0.0883032 0.16833565 0.097863905 -0.23594621 -0.24675675 0.048611104 -0.015025824 0.22257097 0.24180648 0.19626608 0.2200265 0.13473052 -0.13375875 0.16501254 0.12785448 0.23782206 0.3206982 0.22934097 0.27747294 0.0067279413 0.2770695 0.24298698 0.0671602 0.042910833 0.29353404 0.25209126 0.20942537 0.24754812 -0.113080405 0.197893 -0.32826158 0.28668687 0.48401707 0.41667366 0.37051874 0.26319557 0.24900329 -0.13654558 0.15615386 0.39857963 0.19896686 0.30652684 0.256884 0.3260556 0.4217945 0.28235137 0.25501657 0.31105024 0.2987334 0.4110632 0.54874265 0.5837891 0.11380494 0.24402729 0.34006113 0.6353458 0.64920914 0.11637917 0.6144189 0.74695265 0.77416 0.7164457 0.081099056 0.59423053 0.7745608 0.8149878 0.7834642 0.77089185 0.72650063 0.04116088 0.761387 0.7478348 0.06738369 0.52877873 0.455844 0.4750559 -0.02088198 0.047118403 0.38518196 0.42092562 0.44346747 0.39776242 0.26378053 0.09041109 -0.08269685 0.15697685 0.03113311 -0.09046061 0.3912347 0.047319658 0.49526632 0.43967092 -0.0054009818 0.48558846 0.59166795 0.56635916 0.5260961 0.018429413 0.14083911 0.2844565 0.030427217 0.5908134 0.3439995 0.33037734 0.4315813 0.4421624 0.46482804 0.42118672 0.53540266 0.5180866 0.54092336 0.5343441 0.5411513 0.561827 0.5993422 0.59433186 0.5642085 0.6051196 0.6188853 0.6441888 0.36393553 0.34614003 0.60353625 0.5333278 0.48813164 0.29472858 0.25325385 0.46502525 0.111352324 0.25491655 0.23980314 0.19839603 0.28549242 0.36808178 0.15902817 0.26152247 0.08559112 0.11471638 0.18119748 0.04403711 -0.10603281 -0.2435786 0.05195075 0.14206672 0.1596767 0.096641876 -0.2735116 -0.23388335 -0.014850274 0.23420234 0.28228822 0.18177319 0.1957313 0.31627882 0.1439416 0.18293858 0.27072513 0.12368492 0.12906992 0.52428484 0.20031178 0.025939925 -0.02592777 0.515849 0.6233244 0.79271317 0.63649625 0.53059334 -0.14295626 -0.13366199 0.4243347 0.4953484 0.6174491 0.80974185 0.6175549 0.4355955 0.17259936 -0.18301594 -0.14511853 -0.13229392 0.105836324 -0.0018369034 0.5032442 0.24875614 0.19260803 0.12816896 0.03831431 0.22779736 0.10180715 0.35142505 0.29497266 0.40472984 0.31302452 0.52014166 0.10109976 0.5819062 0.01183404 0.26328173 0.40398088 0.6663103 0.14116727 0.5840285 0.5519761 0.71078634 0.6860324 0.6841936 0.17311975 0.6310919 0.6453155 0.6701884 0.31765565 0.27134556 0.41862053 0.29027915 0.40264034 0.40538815 0.22642946 -0.07699841 0.26495647 0.38477576 -0.016261712 -0.20023479 0.019350443 0.04948519 0.3508997 0.25089324 0.13803919 0.46141845 0.44915015 0.39726236 0.27645817 0.18919787 0.10982899 -0.01156996 0.480917 0.5256829 -0.040544093 0.54518574 0.10236114 0.14063826 0.35414994 0.28670442 0.52278227 0.45398968 0.51623905 0.6028764 0.57637775 0.5855353 0.6234287 0.6513663 0.66416126 0.62947166 0.61335975 0.6251501 0.55043244 0.5661149 0.5808623 0.5336079 0.42202634 0.42961273 0.4135266 0.5279012 0.5032645 0.40180123 0.29688415 0.28507137 0.38825002 0.44974452 0.44815642 0.41203696 0.4887479 0.4616781 0.37759095 0.23029864 -0.005951777 0.36140108 0.39466488 0.42470422 0.3833562 0.31962427 0.367605 0.42348945 0.14816663 0.057370566 0.17113963 0.23634374 0.3255633 0.2782798 0.3098025 0.29871333 0.13112651 0.08979851 0.05863387 0.2617619 0.31187123 0.30886123 0.15267132 0.23080857 -0.11168653 -0.16861871 -0.063715026 0.085592434 0.18238515 0.23896956 0.28802216 0.1289422 0.12042825 -0.29171187 -0.30452496 -0.15450168 0.21516116 0.23877242 0.18257895 0.14266255 0.28377616 0.3025328 0.15446544 0.18346313 0.26975578 -0.0023799613 0.12902275 0.23931658 0.14547613 0.5150876 0.3775742 0.045238383 0.088172704 0.08943929 0.006347103 0.34737843 0.4700286 0.5337561 0.63435066 0.8105564 0.8238135 0.74269027 0.6786041 0.48250166 -0.07690433 0.2193749 0.34434646 0.4470041 0.48176336 0.8137063 0.8571762 0.85546756 0.81983227 0.7810204 0.6959582 -0.16180322 -0.11128029 0.1645761 0.20083265 0.85241544 0.8825357 0.88152057 0.8079977 0.7422112 0.6417903 -0.14089105 -0.04870399 -0.09194635 0.0031818673 0.28905603 0.3805276 0.8189665 0.84891987 0.6557009 0.58719325 -0.09757645 -0.19100356 0.5730502 0.7200115 0.46279377 -0.05992682 0.24937263 0.18806961 0.236774 0.24388196 0.43400872 0.036743373 0.56379616 0.4849155 -0.11510512 -0.0156125575 0.5969826 0.25286976 -0.029484443 0.482876 0.41315144 0.47803396 0.6079792 0.6291091 0.34881604 0.33872747 0.14631212 0.45302767 0.5590229 0.39929453 0.18463853 0.22243208 0.38805693 0.34940147 0.3437826 0.2997297 0.3691187 -0.10615648 0.14646848 0.33379477 0.3231771 0.053550396 0.15046373 0.07627198 0.17150328 0.27749398 0.25743228 0.14859156 0.33418408 0.301973 0.36365938 0.37380326 0.3870597 0.35264176 0.1621562 0.33816355 0.42765617 0.24261752 0.11255659 0.0022069681 -0.15776175 0.38097268 0.031537924 0.28421515 0.30602995 0.19799106 0.24180067 0.47837126 0.34608763 0.59310174 0.54487205 0.49978435 0.55798143 0.5596394 0.5783951 0.6023437 0.5217063 0.59277654 0.62421006 0.6668478 0.6613549 0.29781502 0.32784963 0.3555377 0.34307867 0.5673118 0.5926254 0.48336107 0.15179995 0.19672285 0.25396028 0.32903296 0.38615477 0.40200302 0.37938178 0.5056301 0.38828468 0.30967182 0.39827496 0.2691031 0.30874756 0.17351635 0.29172426 0.31135172 0.24844788 0.12695327 0.29593983 0.15461947 0.26580372 0.16416831 0.15300837 0.19914865 0.20919964 0.18113342 0.15338868 0.20055348 0.19881289 0.039223537 0.14781514 0.51861924 0.6217547 0.7326931 0.5349053 0.43338895 0.23161945 -0.06131401 -0.13401328 -0.20561035 0.029011833 0.19230759 0.3069151 0.3829428 0.7609045 0.79683805 0.81209874 0.8351487 0.78398883 0.6430317 -0.21669602 -0.1710529 -0.13819069 -0.011275319 0.1699506 0.8331072 0.8345525 0.8491943 0.81891906 0.8633708 0.83020645 0.7645069 0.83199596 0.8633182 0.76749927 0.6862056 0.22109187 0.7200234 0.7738813 0.5714781 0.48761764 0.42315263 0.27683097 0.22157718 0.19665071 0.18954626 -0.1691674 0.29443866 -0.18038644 0.37060878 0.25704074 0.15664417 0.4453291 0.37843806 -0.13991825 0.32849914 0.37044147 0.41646048 0.47466403 0.54530275 0.4695832 0.43700746 0.4939221 0.097002774 0.107726894 0.46542284 0.12100448 0.46010315 0.13238975 0.4036351 0.19442144 0.32972294 0.28267002 0.35865015 0.33540663 0.34062803 0.3788871 0.38325647 0.121442765 0.13498166 0.44868374 -0.18041918 0.31149495 0.39946848 0.33152592 0.22072196 0.12227675 -0.05742703 0.2330848 0.29361013 0.42639035 0.3903046 0.34661704 0.5573561 0.4763152 0.35740644 0.4292636 0.40940154 0.4131922 0.48171607 0.54961383 0.6073766 0.6513419 0.6802545 0.6417688 0.4764524 0.2753182 0.2508589 0.26394254 0.26960915 0.32095462 0.3005526 0.56860226 0.21417603 0.22716379 0.31315532 0.42717946 0.2080933 0.14936776 0.2987243 0.20520222 -0.030263947 0.21792479 0.04227048 0.12786824 0.02796216 -0.19758528 0.26215613 0.10335201 -0.038105305 0.17242533 0.19234715 0.16477352 0.12726705 0.1030587 0.20166036 0.20109487 -0.15693122 0.11411622 -0.015221078 -0.020923508 0.26220667 0.34053397 0.45489502 0.5299547 0.6846782 0.61234736 0.36331606 0.17088108 -0.12929833 -0.07863523 0.12945312 0.24928352 0.7208484 0.76440185 0.80111206 0.87296146 0.78229713 0.61193347 0.7884966 0.8075252 0.8868262 0.836918 0.8384037 0.8242029 0.7477672 0.6561353 0.51158655 0.7013713 0.4513877 0.29207703 0.22788152 0.20461845 0.15960024 0.07715625 -0.19015588 0.34506452 0.39723095 -0.25007522 -0.21834767 0.38501036 -0.39215583 0.42939836 0.37476602 -0.65430456 0.08946231 0.36878985 0.4713757 0.42182863 0.34731036 0.1512458 -0.08298414 0.010486059 -0.039108217 0.10913131 0.2868022 0.3399781 0.3436539 0.36471137 0.48420733 0.4955718 0.5217824 0.17417371 0.50239134 0.2348085 0.44889444 0.28296885 0.3970898 0.33056355 0.3639631 0.35011756 0.4275393 0.36198318 0.36986256 0.3492729 0.49175262 -0.15373683 0.30842507 0.32824352 0.5041249 0.49020964 -0.08962594 0.4958139 0.43545353 0.37045276 0.25967553 0.42241988 0.18034327 0.48280278 0.4815005 0.46232426 0.34317988 0.469256 0.43434146 0.34776312 0.23522925 0.22617516 0.18890676 0.30008546 0.29088417 0.23316479 0.19063109 0.59201044 0.62649316 0.5812375 0.5114757 0.2773582 0.2243546 0.17757344 0.13008405 0.17404088 0.2774909 0.32967046 0.47049457 0.19465007 0.23376577 0.3002633 0.3097208 0.14128578 0.16906083 -0.09745627 0.37068105 0.5657083 0.50054634 -0.011274442 -0.31801248 0.18616028 0.5787404 0.4640357 0.33510566 0.00017159432 -0.02619028 -0.15866323 -0.26453617 0.10274439 0.18733588 0.20041491 -0.1277493 0.1228926 0.17767607 -0.11135692 -0.008752737 0.11025244 0.11952026 0.10606988 0.026227742 0.09666291 0.27032635 0.38687354 0.024273217 0.58078897 0.73718226 0.8331834 0.40899476 0.1747813 0.77420884 0.80192286 0.89617336 0.7800381 0.80475736 0.8098797 0.72627485 0.7838345 0.61862296 0.4502487 0.32828337 -0.14444996 0.24379188 0.21319014 0.16535397 0.072739035 -0.0064566154 -0.26189157 -0.3022508 -0.2933585 -0.28014445 0.44359794 0.46038616 0.46391544 0.063369036 0.11207768 0.41257906 0.45619726 0.34001788 -0.0653309 0.05284887 -0.094775215 0.30810976 0.34760484 0.5057032 0.4793955 0.32083675 0.18179351 -0.9096998 0.5156389 0.31349236 0.47344294 0.47545946 0.34808302 0.40863043 0.3545228 0.36474907 0.37367308 0.3471702 0.30670524 0.33828118 0.3271958 0.3288092 0.32166007 0.4290319 0.4471055 0.17148867 0.29783064 0.338166 0.36594513 0.52335596 -0.1268405 0.2509112 0.53111243 0.5293106 0.08128096 0.52648056 0.49802548 0.43685725 0.37871864 0.34270576 0.3207612 0.38427293 0.32472447 0.5378201 0.26869363 0.5331422 0.10565886 0.24054345 0.53706634 0.5211842 0.47617558 0.2269766 0.15296173 0.2405201 0.2697741 0.14685312 0.039271794 0.098511875 0.070825875 0.23209012 0.3084333 0.37579 0.28428167 0.22487468 0.25588608 0.37905294 0.3824299 0.37750322 0.36742038 0.4709869 0.35059834 0.34364784 0.34541053 0.24646999 0.3088157 0.057850022 0.08609019 0.28425223 0.40529132 0.44201398 0.4799546 0.6106986 0.55352974 0.4703365 0.38950098 -0.13978228 0.23586363 0.39613253 0.46033525 0.5037466 0.6665305 0.6006596 0.54175603 0.4724827 0.25989252 -0.3409891 -0.3056998 0.15951672 0.34158844 0.42079788 0.4727585 0.7131398 0.61514354 -0.16764021 -0.115212664 -0.11413554 -0.31518194 -0.30857176 0.2094524 0.644578 0.12940419 0.043106444 0.072518334 0.16390401 -0.5969878 -0.22699368 0.10789819 0.089068994 0.29999655 0.42333096 0.4371243 -0.021298327 -0.0030870438 0.36573648 0.31520218 0.05159505 0.0009925533 -0.07739612 0.15624537 0.72114646 0.6093525 0.7027916 0.5999105 0.6591773 0.44777942 0.14396518 0.045073256 -0.24096021 0.29228944 0.29468325 0.082670555 -0.06715266 -0.34151417 0.32282007 -0.28087586 -0.67018616 -0.6194527 0.4465367 -0.08035143 -0.58080876 -0.087091625 -0.05517313 0.46482936 0.46049565 -0.32869977 0.12610069 0.31754354 0.4142328 0.46193823 0.0148124695 -0.27215838 0.006164804 -0.094578296 0.36605322 0.37575227 0.009346642 0.10707542 0.32718325 0