# vtk DataFile Version 2.0
Really cool data
ASCII
DATASET POLYDATA
POINTS 2234 float
23.230167 27.121536 25.43986
23.208899 27.573244 24.690746
23.096075 27.422894 25.385418
23.291927 27.568504 26.118849
23.216267 28.301281 24.687449
23.113905 28.817005 25.58165
23.31447 28.633146 26.532146
22.995485 29.700197 25.056555
23.0128 29.450924 25.52768
23.25953 30.558413 24.836514
23.136072 30.532755 25.413694
23.30902 30.578287 26.320152
23.27163 30.962532 29.727497
23.288315 30.988386 25.834473
23.048431 31.49085 28.143032
22.993748 31.666832 28.51937
23.099598 31.455048 29.445759
23.227262 31.748768 29.87739
23.252226 32.236927 28.071596
23.147503 32.267357 28.702257
23.19842 32.191246 29.35433
23.980099 26.318136 25.005283
24.008781 27.037611 24.08449
23.82723 26.471191 24.90593
23.673159 26.699837 25.568941
24.034525 26.624775 26.31519
23.846737 27.572367 23.959496
23.499538 27.475487 26.38616
23.766804 27.710804 27.002031
23.694927 28.362226 24.102093
23.780842 29.479063 24.078005
23.806854 30.049643 27.692448
23.844837 30.06156 28.616724
23.94373 29.893753 29.102177
23.791353 30.539015 24.15994
23.561483 30.732943 27.014347
23.465117 30.740517 30.529848
23.877249 30.6701 31.17885
23.853483 30.783545 24.212563
23.585876 30.96375 24.751654
23.543211 31.467602 30.625704
23.861237 31.26629 31.11213
23.511803 32.30651 27.698507
23.471048 32.520786 29.592175
23.594036 32.38413 30.063437
24.158052 32.24887 30.851633
23.891493 33.05871 28.79294
23.587606 32.728676 29.348007
25.342075 22.71624 26.68425
25.185774 22.6871 27.345512
25.129826 22.785395 28.556137
25.096867 23.029926 29.21053
25.134062 23.338541 26.749153
24.589918 23.88672 28.00013
24.665499 23.718256 28.489511
24.76238 23.7681 29.212029
25.079681 24.080036 27.087317
24.634438 24.608173 27.838411
24.601048 24.608036 29.051657
24.961493 24.228518 29.932793
24.76951 26.0969 24.846205
24.558712 25.998516 25.737673
25.025883 25.818954 26.793762
24.696144 25.404263 28.314388
24.694519 26.83398 23.919323
24.804134 26.484457 27.630335
25.140175 26.892328 28.364706
24.920002 27.548021 23.429966
24.547361 27.49967 23.584255
25.367828 28.079306 32.46451
25.124693 28.107702 33.462456
25.29308 28.088003 34.741684
25.186049 28.254957 35.887638
25.379025 28.22528 36.4665
24.91392 28.71987 23.431955
24.90183 28.873697 32.558277
24.772972 28.744488 33.368565
24.967358 28.926271 35.731243
25.191778 28.646845 36.506443
25.183266 28.926123 36.86231
24.694082 29.164228 23.526567
24.700203 29.57444 32.84799
24.656275 29.758556 33.782413
24.684744 29.57858 34.375084
24.827528 29.675385 35.1146
25.08058 29.48332 36.48958
25.22013 29.586588 37.00988
24.609356 30.466587 23.764696
24.606243 30.307173 32.413593
24.709871 30.328259 33.25206
24.797379 30.01291 34.28902
24.971273 30.284832 35.0441
25.255424 30.348022 36.507366
25.346869 30.17112 37.01122
24.665369 30.947697 24.001295
24.621284 31.437664 24.469997
24.667309 31.515556 31.51461
24.265963 31.607914 24.904339
24.642977 31.869923 25.60902
24.686956 32.553226 30.981277
25.02819 33.00291 27.777355
25.130878 33.57877 30.065704
26.03592 22.282692 26.224451
25.899063 22.130875 26.676481
25.915684 21.939789 27.463705
25.845207 21.956764 28.002554
25.93269 22.30044 29.12709
25.906961 22.757336 25.977617
25.575006 22.52622 26.514395
25.429653 22.399517 28.33158
25.663052 22.725105 29.619265
25.520277 23.060274 30.082441
26.431812 22.91079 33.468636
25.695938 23.067179 25.947674
25.35218 23.268368 30.055355
26.378342 23.104824 33.30087
25.851908 25.708458 25.571823
25.303009 26.799826 23.958805
26.15545 27.040918 31.720514
25.258396 27.722008 23.462418
25.580818 27.483704 23.581293
25.538355 28.117271 31.895775
25.491577 27.870684 32.117252
25.958124 27.697748 35.333035
25.801344 27.922192 36.486015
25.957056 28.058195 37.106228
25.841938 28.841528 23.486982
25.654274 28.684923 37.338688
25.965868 28.84414 37.737823
25.328266 29.67651 23.534842
25.523405 29.613676 37.438152
25.942831 29.4076 37.780853
25.40227 30.567036 23.640686
25.4218 30.660889 36.4593
25.722845 30.314466 37.29313
25.987705 30.067251 37.693157
25.31395 31.06366 23.959837
25.385092 31.415287 24.427599
25.492529 31.3318 35.08857
25.59886 30.900143 36.381523
25.91861 30.79483 37.079308
25.407413 31.851171 24.971508
25.99787 32.49987 31.476767
26.122055 32.07576 34.44856
25.937883 31.720104 35.15212
25.694498 33.458675 27.791733
25.906467 33.12526 31.139708
25.518944 33.691467 30.502268
26.510927 21.886852 26.720366
26.50945 21.641068 27.620302
26.426342 21.850151 28.772459
26.840897 21.753489 29.075382
27.340256 22.100836 31.751118
26.933983 22.037981 32.70899
27.174112 21.75151 33.585026
26.53351 22.546762 25.90134
26.512037 23.008514 33.03591
26.661137 22.434494 33.330635
26.85318 22.68335 34.300125
27.136763 22.746029 34.803604
26.323145 23.356073 25.773703
26.622421 23.720562 33.7227
26.70925 23.412043 34.162525
27.154037 23.526705 34.86938
26.664272 24.812407 31.230854
26.757915 24.14817 33.211353
27.042765 23.850882 34.618645
27.220697 23.956526 34.853825
26.342472 25.05635 31.107746
26.80041 27.464247 35.697132
25.921732 27.518682 23.672453
26.390755 27.69411 36.784855
26.649357 28.019958 37.46771
26.138329 28.684753 23.634748
26.277658 28.370342 37.621094
26.570734 28.680328 37.902454
26.313063 29.518587 23.799261
26.548218 29.349154 37.955013
26.649387 30.068365 24.04511
26.156729 30.465223 37.449574
26.534142 30.156656 37.7464
26.358961 30.783783 24.117016
26.609999 31.236843 25.089312
26.216425 31.06701 36.69822
26.692371 31.00187 36.98848
26.522015 32.34727 33.80311
26.424425 32.1627 34.834114
26.382198 32.055695 35.109947
26.197386 33.975266 28.382442
26.620684 34.631706 31.235382
26.979393 35.599724 29.628002
26.74964 35.614464 30.552597
26.773266 35.40843 32.42901
27.112823 35.526516 33.025833
27.142937 35.998978 29.811556
27.253254 36.603584 30.519783
27.098654 36.567757 32.3562
27.389217 37.11127 32.29058
28.349028 12.796378 32.866764
28.298082 12.724813 33.484566
28.353458 12.809927 34.204674
28.141605 13.453627 32.858223
28.09916 13.389131 33.37459
28.190697 13.708978 34.181255
28.217752 14.452291 32.769184
28.057812 14.27307 33.543655
28.229118 14.317929 34.10562
28.293812 14.8195095 32.942204
28.248802 14.928018 33.41009
27.570248 21.370752 27.849724
27.689705 21.46001 28.290932
28.1375 21.353662 30.3717
27.928663 21.187963 32.474216
28.09302 21.101023 33.59775
28.100748 21.210674 34.032745
27.016163 21.659075 27.049541
27.388018 21.576014 27.439533
27.308918 21.821716 29.539143
27.77421 21.478367 30.840038
27.600573 21.58241 32.249783
27.4282 21.590399 33.75568
27.548 21.65386 33.95741
27.944004 22.048044 34.686802
27.175068 22.616957 26.037693
27.739185 22.750555 35.238693
27.645283 23.283808 26.065126
27.525185 23.594507 35.200462
27.719326 25.116037 25.65046
28.047375 24.180809 35.279358
27.504812 25.403864 33.69782
27.193853 26.944199 24.56035
26.980305 27.350815 24.1881
27.65174 27.335014 24.594973
27.185514 27.622345 36.32799
27.389183 28.008001 37.329975
27.475908 28.866985 24.068995
27.307217 28.636707 37.85466
27.378885 29.446035 37.890633
27.203545 30.55935 24.401094
27.615988 30.513697 24.822737
27.284948 30.493778 37.42817
27.266571 30.128395 37.723076
27.042685 31.120344 24.912535
27.10855 31.524605 36.15276
27.272253 31.07377 36.874187
27.685709 32.01636 35.213516
27.306568 31.769339 35.934948
27.677288 34.533905 27.896807
27.74399 35.629925 28.788132
27.682554 35.77032 28.867085
27.55875 36.631382 29.85655
27.874098 36.605186 33.205925
27.671879 37.41799 30.751911
27.534645 37.511616 31.43722
27.54429 37.30848 32.37853
27.858215 37.273865 32.908733
27.942219 37.848564 30.979923
28.038153 38.026543 31.47473
28.04941 37.81725 32.482513
28.208252 37.801876 32.862896
29.081818 11.8280735 31.958353
28.940338 11.814416 32.584366
28.896135 11.812595 33.47383
28.891613 12.123838 34.48366
29.084824 12.2303095 34.971104
29.191965 12.675659 31.26545
28.891115 12.570056 31.61181
28.62047 12.417032 32.52068
28.481863 12.436233 33.45162
28.591038 12.519517 34.425842
28.922575 12.700227 35.19443
28.717648 13.17752 31.808725
28.755241 13.365085 35.140293
28.680216 14.45619 32.114807
28.43317 14.369468 34.396378
29.011658 14.101906 35.113155
29.113155 15.183637 32.13904
28.583603 15.099346 32.812374
28.621675 14.959051 34.023735
28.978477 20.30799 33.375618
28.689016 20.80189 31.100788
28.599552 20.863 31.65599
28.469246 20.596432 32.42346
28.541458 21.603975 27.902359
28.50219 21.755821 34.93463
28.188389 23.105398 35.49891
28.376213 23.594784 35.569115
28.577358 24.276382 35.369087
28.721434 23.965439 35.5276
28.4568 24.967045 34.628544
28.738094 24.846996 34.836372
28.391838 26.926285 24.935452
28.062109 28.725487 37.409145
27.724184 28.813253 37.72116
27.959286 29.003088 24.260935
28.307386 29.0637 24.57429
28.434887 29.598074 37.249855
27.918537 29.607979 37.61947
28.298044 30.155415 37.24373
28.167824 30.847538 24.978718
29.065632 32.150223 34.52963
28.900827 33.936924 26.39772
29.135048 34.746056 26.381895
28.914164 34.756744 26.563187
29.108978 34.121944 34.173775
28.99449 35.360657 26.795198
28.472118 35.24226 27.32323
29.13116 35.858997 27.196928
28.876905 36.52061 28.548527
28.632143 36.86974 33.675915
28.66436 37.40561 33.429207
28.906857 37.274742 33.687508
28.40333 37.934994 30.616367
28.509125 38.27264 31.530582
28.58176 38.1269 32.453247
28.965816 37.89896 33.12913
29.720999 11.194586 32.047318
29.842718 11.005941 32.4254
29.716686 11.115945 33.30402
29.889072 11.27158 33.877403
29.829569 11.870729 31.093937
29.419 11.745553 31.522942
29.455265 11.692 34.420235
29.474592 12.173579 35.179375
30.005806 12.479156 30.732328
29.411861 12.507201 35.45907
29.497469 12.874534 35.631508
29.709892 13.213114 30.75023
29.39329 13.680625 35.53816
29.568438 13.310302 35.6636
29.872818 14.111061 30.88197
29.702375 14.842366 31.404154
29.713161 15.570323 31.780512
29.447113 15.604345 32.184887
29.309301 14.800626 34.650116
30.165218 15.929411 31.149843
30.091461 16.41642 31.921057
30.270403 16.49878 33.299057
29.839483 17.894411 32.628563
[...]
POINT_DATA 2234
SCALARS features_00 float 1
LOOKUP_TABLE default
0.5959295 0.7102284 0.61303633 0.5041356 0.7044406 0.58175874 0.4285202 0.61497235 0.5583274 0.6158439 0.55826086 0.4456244 0.47188136 0.5271236 0.445054 0.47241116 0.48022562 0.4682207 0.459579 0.49093986 0.48669922 0.629729 0.7050247 0.6515462 0.5538194 0.4094741 0.7077027 0.44249886 0.29514655 0.7146555 0.67762655 0.3102631 0.39229253 0.40184268 0.63168514 0.3793489 0.39816505 0.27055845 0.62402904 0.6210531 0.4230361 0.36032924 0.41929337 0.47571862 0.45110756 0.39244208 0.5146169 0.48176885 0.6299447 0.60794735 0.5293758 0.50082105 0.5740908 0.4797383 0.5007762 0.49166483 0.42654356 0.3486597 0.4144966 0.4646691 0.6183615 0.49409282 0.22376199 0.24208674 0.6416236 0.13105941 0.049967103 0.57557714 0.61904216 0.2422598 0.32687375 0.5201481 0.64965904 0.7115289 0.55677974 0.27474028 0.33275604 0.61055017 0.71292305 0.74266607 0.59024644 0.2718983 0.33636054 0.4093672 0.5220474 0.6880033 0.7372141 0.60533154 0.18897846 0.24303944 0.39398447 0.5035203 0.6519091 0.70861924 0.58837134 0.5782244 0.28975356 0.58694625 0.53901196 0.35215813 0.37982154 0.3357847 0.6552186 0.65078634 0.6127387 0.5635704 0.45213354 0.6431657 0.6456726 0.5409999 0.45565906 0.44711035 0.5943925 0.61694854 0.4691202 0.57972884 0.45836508 0.56774735 0.12834921 0.53673244 0.50371325 0.2005634 0.21195062 0.62237245 0.7129381 0.7688894 0.47080338 0.7877728 0.82291603 0.53861976 0.77120674 0.8117564 0.5371927 0.6230823 0.72119814 0.76154137 0.5358731 0.5262575 0.48497033 0.5920669 0.66128886 0.5175991 0.24387076 0.38118476 0.44856447 0.24863757 0.20563197 0.19132596 0.65093267 0.5795939 0.45526767 0.38228616 0.3009755 0.4598058 0.5027876 0.64813787 0.5491209 0.56414956 0.61343133 0.6203158 0.58245933 0.5644789 0.600078 0.58608603 0.0899048 0.4628828 0.57128847 0.5503002 0.09032164 0.65700746 0.46564496 0.7453531 0.82541025 0.44239455 0.827775 0.8556286 0.43756008 0.83944833 0.39783606 0.7169738 0.7676339 0.4304918 0.36524004 0.593047 0.6310108 0.31029397 0.39595762 0.41497087 0.09156717 0.23189016 0.2505183 0.35671705 0.42964143 0.41708708 0.30404764 0.4027069 0.51696175 0.5541042 0.643055 0.6861191 0.7489569 0.67500556 0.7150225 0.7857215 0.61097693 0.73142093 0.77020276 0.5957295 0.6532786 0.4955858 0.44350612 0.07876634 0.28985268 0.3428067 0.38684237 0.6064637 0.54235005 0.25015333 0.12411298 0.3194933 0.48365077 0.50150126 0.57565784 0.64448106 0.5736402 0.4873833 0.5353404 0.17761025 0.41433513 0.45199475 0.290125 0.35167158 0.26069897 0.72473586 0.82943046 0.33467636 0.8359437 0.7991922 0.32661682 0.25825846 0.7298678 0.7712063 0.31618986 0.47491333 0.62414944 0.27291757 0.41464692 0.14932363 0.21935292 0.23061678 0.32751006 0.486203 0.5081165 0.5652928 0.5643097 0.54171205 0.57270086 0.6106807 0.5819559 0.5598533 0.5840299 0.61836433 0.66118574 0.7245494 0.74398243 0.4810199 0.53826815 0.6115283 0.66914105 0.7480162 0.77397776 0.55186474 0.8164191 0.4482023 0.7832147 0.80729806 0.3049135 0.4996143 0.6795429 0.15787736 0.13875476 0.18571837 0.20987241 0.38496935 0.4963209 0.44833368 0.3677662 0.30869955 0.28622234 0.33800375 0.2809652 0.15871097 0.7047447 0.77920777 0.27528957 0.21083583 0.6351944 0.7320427 0.6523597 0.17792612 -0.024368327 0.37701714 0.38546288 0.38074604 0.18758976 0.3760438 0.32138294 0.37331396 0.34274924 0.46249115 0.5149162 0.48695803 0.5494458 0.6356188 0.59772915 0.537626 0.5691312 0.56786674 0.6127145 0.6175011 0.48840436 0.5484176 0.6834262 0.72848916 0.37252745 0.7524152 0.762066 0.3308634 0.7767059 0.7614869 0.24354482 0.20749024 0.17656735 0.23321891 0.6973443 0.09894652 0.105522454 0.12495591 0.08089441 0.06389654 0.10873404 0.08506212 0.09421372 0.11649541 0.18558773 -0.028645113 0.12768449 0.24565206 0.11272546 0.13628493 0.15677516 0.14186479 0.10097584 0.0798167 0.0030535385 0.0055465475 -0.013821058 0.25114965 0.4804362 0.32661772 -0.06833946 0.5127881 0.18952248 0.37024215 0.3705424 0.33710787 0.38999164 0.39167592 0.2786393 0.39312595 0.37921998 0.36510515 0.36303604 0.4655335 0.55463374 0.60302347 0.6077246 0.52815723 0.42104873 0.5010158 0.52418756 0.5306443 0.5877982 0.6190842 0.6751439 0.5886104 0.3638152 0.033855468 0.21948843 0.7019863 0.69774455 0.65150213 0.56606615 0.099834815 0.7027372 0.6322168 0.51883316 0.4636704 0.0045981705 0.012522895 0.5936303 0.05463535 0.0828278 0.22914855 0.049115833 0.0584702 0.07055968 0.07963265 0.1000533 0.17745216 -0.09860079 0.26958847 0.3336845 0.31225246 0.23261175 0.22389312 0.29067612 -0.09915601 0.10240252 0.2577617 0.2501837 0.07530268 0.015778776 0.09378579 0.0621128 -0.11062156 -0.06554489 -0.12778187 -0.14439014 0.08031687 -0.19006501 0.01127002 0.16178703 0.6180184 0.34210625 0.5611373 0.38198853 0.4413343 0.5555814 0.38465852 0.39425135 0.39745408 0.37985379 0.3651736 0.3632964 0.42291754 0.39315927 0.43068242 0.47462803 0.5414742 0.46675542 0.7991872 0.15325819 0.19741829 0.3164517 0.39793804 0.4515218 0.7200135 0.62129784 0.5262395 0.18595615 0.50176203 0.7712725 0.7388568 0.32080448 0.041331947 0.75419927 0.7192307 0.41210836 0.724962 0.6741992 0.50720423 0.20608045 0.54261255 0.023737743 -0.027337104 0.0034111142 -0.02077116 -0.039741874 0.25909415 0.042367592 0.30219862 0.28541583 0.32739502 -0.031297937 0.28051972 0.27840126 0.36881608 0.35338056 0.23849279 0.34871346 0.15536422 0.42698562 0.31339696 -0.070566446 0.41658336 0.07470198 0.026834875 0.0005216375 -0.060377423 -0.04404138 0.3080374 0.5008036 0.2265121 0.62761503 0.32953304 0.6310846 0.36541554 0.59263724 0.34629226 0.42711696 0.40009183 0.3983697 0.3309633 0.38720262 0.36755925 0.36306715 0.4178055 0.3961069 0.3737231 0.4179192 0.45389473 0.4702984 0.7505006 0.73049796 0.76874703 0.7519119 0.6994887 0.79662156 0.8009087 0.8091333 0.7302863 0.6790393 0.62674713 0.78597987 0.79604363 0.79860663 0.74009323 0.64615977 0.6232619 0.7908902 0.7833451 0.7587583 0.6914618 0.7710669 0.7632395 0.052675158 0.17454153 0.13805354 0.43271375 0.1603231 0.09589235 0.24153036 0.7351749 0.6321639 0.37400654 0.6999825 0.7368989 0.7107216 0.25042534 0.6601647 0.73095393 0.02939561 0.060550302 0.60092854 0.11452663 0.5816072 0.40825203 0.064677835 0.21939385 0.20020418 0.41904014 0.3811149 0.34705782 0.41634622 0.5125403 0.08764723 0.60960275 0.5104325 -0.12652174 -0.05121274 0.61044526 -0.13248836 0.0061990507 0.4289363 0.22188175 0.2692164 -0.030226104 0.2531487 -0.20042981 0.016078481 0.24930549 0.06421046 0.37261122 0.53136975 0.60573107 0.33128273 0.36706662 0.5664092 0.38275886 0.4811744 0.38964844 0.33253688 0.3760351 0.35930353 0.436287 0.4339885 0.41530514 0.44362694 0.45169497 0.44500607 0.71565974 0.7063411 0.68202907 0.7767936 0.68472135 0.64164287 0.7961117 0.6057871 0.7811601 0.5982623 0.58208245 0.7710501 0.621801 0.75691235 0.75969744 0.05840937 0.045014486 0.11131726 0.13616094 0.3989679 0.32810885 0.07407733 0.13437803 0.6405678 0.5545015 0.6236511 0.665906 0.6664425 0.6244986 -0.032608397 0.69003224 0.6559126 0.49710736 -0.042839766 -0.011494905 -0.06242335 0.38178903 0.1332697 0.34757763 0.42584062 0.58273274 0.37139347 0.44782948 0.6266747 0.2004028 0.39338267 0.45307416 0.64212525 -0.1933338 0.32904777 0.4450857 0.6423949 -0.0728993 -0.29077005 0.31230718 0.42277533 0.42858317 0.62558573 0.0499948 0.12212843 0.34157604 0.18787846 0.22821113 -0.060911864 0.30336586 0.3016309 0.11913173 0.1728366 0.27316132 -0.29822347 0.03424176 0.049817204 0.31842723 0.33099547 0.25429958 0.5028273 0.43685824 0.46810114 0.17635024 0.05934378 0.1974541 0.301669 0.15754062 0.304428 0.40716195 0.40623748 0.36862555 0.41877246 0.4270212 0.42302966 0.6046002 0.5795113 0.6696418 0.6611085 0.64856184 0.60770744 0.60585904 0.6738189 0.6069957 0.73851264 0.5577532 0.7503191 0.75565064 0.7301632 0.6315301 0.5830457 0.06874967 0.08027162 0.10204701 0.12261712 0.14487275 0.05776321 0.13828889 0.13628274 0.12845416 0.30340677 0.088711336 0.57285595 0.4739656 0.3251642 0.4284984 0.45727783 -0.07772758 0.12197515 0.46712777 0.46434966 0.44891497 0.60692996 0.594115 -0.117578745 0.2791584 0.35991105 0.41150692 0.40816957 0.63102573 0.34510863 0.24853772 0.6675066 0.6939819 -0.24820553 0.12186332 0.71146077 0.6983465 0.570669 -0.42789388 -0.11167664 0.04236036 0.6606194 -0.044271037 0.23938766 0.33578384 0.15701173 0.03656645 0.23724216 0.35526592 -0.0042228997 0.45451474 0.45705563 0.61386335 0.46693784 0.46588582 0.6314891 0.44407642 0.45245174 0.6282501 0.41558295 0.62905306 0.39502713 0.6336856 0.33780867 0.35502094 0.35307953 0.10884231 0.28666443 0.29614156 0.1778354 0.2695396 0.19878682 0.050017606 -0.07838508 0.11466612 0.11938282 0.41713017 0.15361111 -0.023330245 0.24021958 0.5589881 0.527941 0.58344984 0.6228207 0.4741072 0.5268123 0.5277076 0.6349357 0.43996435 0.6628231 0.69000036 0.5740931 0.20400824 0.12888038 0.058702677 0.05844396 0.0995501 0.34149837 0.15116888 0.14382069 0.084617764 0.26387244 0.054039437 0.31003177 0.43549815 0.4272793 0.28615305 0.41195595 0.44055194 0.44085872 0.49389338 0.37401187 0.3508088 0.43502945 0.40840793 0.598463 0.5979384 0.37884104 0.29918334 0.63304716 0.6733132 0.6443951 0.65468 0.6217787 0.6688112 0.6748545 0.69379985 -0.20571932 -0.050995626 0.7116816 0.691687 0.6165923 0.37433976 0.010257736 0.020495163 -0.041913472 0.06396733 0.05563821 0.045084264 0.24362558 0.03669641 0.06729587 0.39034152 -0.12410019 0.4647257 0.47241744 0.40978092 0.28462416 0.024449442 -0.062794425 -0.120889135 0.46097392 0.5637399 0.38671225 0.2661503 -0.023919418 0.41891968 0.610912 0.552508 0.4679397 0.34539762 0.60064656 0.56468666 0.32038766 0.29067427 0.54315466 0.5119076 0.31492466 0.3247804 0.2714244 0.2878551 0.29483145 0.23791859 0.26563933 0.19846979 0.24056464 0.2986936 0.35914773 -0.08338784 0.31332666 0.30439782 0.35196388 0.12867418 -0.0011862218 0.09024648 0.10566226 0.4487509 0.38262606 0.58011806 0.46605644 0.10322227 0.43922442 0.3554537 0.5093219 0.51970196 0.54456824 0.55251455 0.44489062 0.44766462 0.51491857 0.38441515 0.44237292 -0.014595992 -0.0016895235 -0.011408523 0.11774014 0.29290283 0.06903455 0.23382369 -0.023850815 0.21264519 0.37546128 0.4199268 0.3889859 0.45865822 0.50101936 0.546413 0.54427123 0.15188111 0.44447276 0.5195316 0.5883501 0.63930774 0.6210067 0.5268973 0.2659157 0.09590327 0.073382586 0.13831043 0.3181537 0.5425769 0.6828719 0.67952514 0.6545164 0.01428739 0.18564564 0.35933116 0.6661879 0.67222524 0.70136005 0.69811654 0.56597614 0.19478488 0.22735174 -0.009794682 0.60568833 0.6370683 0.64415914 0.6860331 0.59651697 0.18803646 0.1875841 0.13341706 -0.04610279 -0.038746223 0.3779774 -0.04094862 0.43544865 -0.07174627 -0.23012996 0.39282292 -0.13253391 0.34963298 -0.15208486 0.28892022 0.32182345 0.3108518 0.35919893 0.5367869 0.5187684 0.31531742 0.5343567 0.5329481 0.2683162 0.3108163 0.53306127 0.3796503 0.50996745 0.36976564 0.3850668 0.38206387 0.4641027 0.54379284 0.34808418 0.59974605 0.24654865 0.6220114 0.45642745 0.5440168 0.48842943 0.4261694 0.25131613 0.47627476 0.42520562 0.4363044 0.49807674 0.4598043 0.41140985 0.3770805 0.41169855 0.36934 0.25776413 0.019728024 0.22746164 -0.18178782 0.22880395 -0.045652278 0.15132289 0.16080335 0.26995283 0.035549242 -0.02297078 0.3377069 0.42492202 0.49086216 0.49544758 0.4745328 0.4199491 0.46450913 0.4807971 0.5128162 0.5003836 0.44041562 -0.19978207 0.20216538 0.12513727 0.29968256 0.56794864 0.32216093 -0.016370244 0.6538561 0.6560734 0.6464189 0.44091183 0.2995895 0.25016475 0.05225259 0.3556172 0.48727763 0.5973253 0.6325713 0.4741952 0.3475739 0.1835982 -0.07668702 0.19778389 0.33525673 -0.0874874 0.39230055 -0.17144245 -0.11635673 -0.22975458 -0.31922966 0.3742512 -0.12001579 0.4306898 0.43911248 0.5333614 0.372409 0.4089157 0.5415603 0.537956 0.39114985 0.5441406 0.38132435 0.3634308 0.5199822 0.31452417 0.3879881 0.39556873 0.40311775 0.45347846 0.12913702 0.532651 0.20910957 0.6067614 0.6286166 0.5517144 0.64107263 0.6367074 0.62347007 0.52626127 0.5198264 0.4900756 0.46828362 0.51419675 0.52522016 0.58955264 0.45283225 0.49141824 0.5027006 0.40118176 0.39380345 0.37141582 0.2995095 0.33668527 0.2894036 0.099991135 0.24376257 -0.030031122 0.21319658 -0.095101774 -0.07337514 0.122188255 0.27100348 0.16075066 0.30879807 0.100876346 0.04340504 0.20618507 0.26170585 -0.08604607 0.022435129 0.0784134 0.075912654 0.0619257 0.4454597 0.46919313 0.416175 0.34593162 0.26097068 0.35307494 0.36590877 0.36050332 0.084559664 0.39009714 0.33002874 0.45250064 0.5649539 0.48433822 0.45317906 0.57096994 0.4922144 0.20924142 -0.08504403 0.0668927 -0.083487846 -0.076549836 0.38822156 0.42213327 0.4372952 0.44245023 0.44832838 0.52563745 0.5114925 0.333902 0.43193036 0.44840536 0.5406481 0.5293956 0.2596903 0.40095362 0.44522446 0.5451092 0.53205293 0.54516196 0.27274597 0.32282266 0.36336303 0.27037978 -0.41234374 0.47617579 0.62425596 0.6133225 0.6463442 0.6442679 0.6489717 0.6386129 0.61862266 0.4101394 0.32814914 0.58384025 0.6119385 0.6394945 0.5663828 0.43091834 0.46392128 0.50164723 0.51850814 0.56258863 0.5998061 0.5008763 0.51231194 0.4272235 0.4328699 0.26287246 0.24990761 0.074432716 0.1221572 0.2098805 0.027740195 0.094908826 0.09461588 -0.09139742 0.2455374 0.34200442 0.18262821 0.27480826 0.30225733 0.3841392 0.029369667 0.25952354 0.3072248 0.32927248 0.23874734 0.44654793 0.38534868 0.18664047 0.4342779 0.31206745 0.3480952 0.4091576 -0.09907481 0.06839681 0.33400902 0.4403392 0.14902094 0.52531767 0.64385486 0.44494927 0.6106073 0.43076402 0.29237783 0.45333505 0.45183894 0.44106507 0.115456134 0.416587 0.19730255 0.1659506 -0.039933626 -0.06447914 0.32876378 0.3518472 0.15390088 0.071457356 0.41562015 0.425182 0.21313247 0.13101001 0.4320963 0.4406833 0.44786716 0.4508607 0.44901574 0.51087755 0.46708077 0.40516135 0.43916 0.50156957 0.36684787 0.48645747 0.3548556 -0.07778621 0.064171046 0.31793177 0.3879985 0.42836288 0.44311354 0.501421 0.52448547 0.12604493 0.1123574 0.29436457 0.5915213 0.62548757 0.18014722 0.5790497 0.642419 0.6483266 0.38605013 0.22812647 0.49957812 0.5103664 0.55314386 0.6047416 0.63557047 0.627347 0.51927114 0.45951337 0.49721307 0.54312634 0.5812663 0.6010428 0.46898282 0.5082062 0.51875705 0.5365112 0.53743225 0.5220126 0.515678 0.48610395 0.5033239 0.48390347 0.39534736 0.41835514 0.36194333 0.46150935 0.43566984 0.4630664 0.48022503 0.22764063 0.22517765 0.080676235 0.0472212 0.15987127 -0.09404693 0.14215747 0.022131763 -0.11821047 -0.0925045 -0.36802346 -0.23922211 -0.15292358 0.2347669 0.2117972 0.39744896 0.3050211 0.257046 0.38020837 0.3396042 0.29584193 0.3053725 0.22330382 0.2104198 0.30204153 0.3440822 0.44685775 0.51383936 0.06656127 -0.07991512 0.50958586 0.55244946 0.096221626 0.5544097 0.6533381 0.22086196 0.6793884 0.70698875 0.31588334 0.67152643 0.69614404 0.3659801 0.33549646 0.026559107 0.21861278 0.36980793 0.59806144 0.6758772 0.35073656 0.09244902 0.07039347 0.07835532 -0.030442335 0.02778615 0.028193168 0.15408427 -0.052429315 0.22857139 0.29153126 0.27629456 0.22341825 0.39361405 0.40345722 0.25983995 0.2955615 0.43522224 0.43569452 0.28763095 0.4747644 0.40337303 0.3426542 0.061586507 0.5126821 0.5104083 0.395822 0.23143443 0.5093076 0.20266943 0.5026101 -0.016040325 0.34117517 0.2706183 0.07408665 0.43449458 0.46588078 0.50947344 0.47929198 0.35907283 0.51096076 0.39688742 0.29652303 0.5274365 0.41831514 0.34423995 0.6989612 0.7862508 0.56375337 0.6406864 0.6982218 0.7585646 0.4914277 0.5288276 0.57417846 0.5835998 0.6553602 0.3527337 0.5330944 0.3411092 0.37473127 0.46933615 0.35670882 0.2586448 0.12931004 0.17064205 -0.019542392 -0.07123515 0.14185989 -0.12603475 -0.10999031 -0.07899965 -0.030304037 -0.086297825 0.0081891045 0.17488286 0.30798155 0.18561429 0.36199272 0.18930793 0.1874323 0.33827168 0.23645177 0.16127597 0.24285847 0.3246038 0.22402214 0.2342994 0.25857335 0.49020046 0.553657 0.27482134 0.1856132 0.6597192 0.7225815 0.20444143 0.6893851 0.7013235 0.30284962 0.28578866 0.19661675 0.122706376 0.18240696 0.39984503 0.59568185 0.6707084 0.23311733 -0.033557218 0.1249124 -0.16416296 0.06690581 0.019315049 0.013747439 0.08281375 0.12731352 0.04554583 0.2759357 0.25957453 0.31879628 0.30684173 0.35834575 0.36147892 0.3909095 0.42024922 0.35028714 -0.13605475 0.4727645 0.36140326 0.369336 0.4372439 0.5407038 0.3421996 0.50559366 0.575182 0.5672755 0.37243143 0.4653741 0.53285277 0.5694525 0.5668109 0.33704606 0.36436582 0.29423046 0.5807579 0.5685332 0.08670886 0.30784062 0.4758681 0.5344708 0.565375 0.6586607 0.78948003 0.82408607 0.83924973 0.82905805 0.54363835 0.60253197 0.8078943 0.48569635 0.69143784 0.36230767 0.5316815 0.31301245 0.50639313 0.3039953 0.3069879 0.3900481 0.23509517 0.1699043 0.20614943 0.25487834 0.15577637 0.22835658 0.19198433 0.15657946 0.10796564 0.1110313 0.30416846 0.13263777 0.35435522 0.4025643 0.45440736 0.31085524 0.28172082 0.16768715 0.14318283 0.23444024 0.45988902 0.30436212 0.0058581345 0.37022996 0.27419585 0.46666473 0.2964243 0.5566868 0.32157138 0.30655017 0.69458896 0.2759019 0.17359301 -0.27642816 0.7192724 0.11201896 0.67600274 0.70340526 -0.04354874 0.4280231 0.59733224 0.6481514 -0.17656994 0.02034399 0.12438699 0.09278099 0.056878977 0.15513372 0.22743061 0.09986842 0.19239634 0.0982298 0.37859616 0.35821933 0.033835948 0.027470356 -0.022028193 0.45902532 0.41617325 0.4048377 -0.046028815 0.54808486 0.44649887 0.6433532 0.58895636 0.43879572 0.44891945 0.5627619 0.6300469 0.6173171 0.46853378 0.2090908 0.5500066 0.5773327 0.55288446 0.57936835 0.6125796 0.47320193 0.5338485 0.53144324 0.40064 0.48893008 0.5639857 0.5868038 0.5084655 0.5310155 0.41688108 0.51475406 0.5426434 0.5769976 0.8739307 0.8289404 0.86678123 0.8505497 0.83627737 0.5039708 0.65443814 0.7897328 0.37570813 0.3029747 0.31552458 0.28543988 0.43594748 0.30707958 0.23226008 0.25559506 0.33865047 0.20931461 0.20597312 0.39889932 0.3315791 0.08055243 0.0403037 0.116357446 0.40018922 0.4730716 0.18271115 0.5057633 0.51728296 0.13669565 0.5236778 0.41701746 0.32396013 0.33078504 0.33890948 0.35327858 0.33316737 -0.27778846 0.535201 0.25404137 0.20170107 0.1179754 0.5865019 0.17055903 -0.2143785 0.2179941 0.3111099 0.36809725 0.52322114 0.61044085 -0.11840602 0.37088567 0.29438463 0.23308526 0.020842973 0.08832179 0.162394 0.1747945 0.09833695 0.020802531 0.17746201 0.0442378 0.02332848 0.06826274 0.11800293 0.19825578 0.19519217 0.23279114 0.16657753 0.021232486 0.015725534 0.27888107 0.41094977 0.391156 0.0573257 0.3512147 0.15875143 0.40488213 0.6105786 0.44170666 0.4301933 0.28530478 0.15691575 0.5725825 0.64897215 0.4545517 0.46612704 0.46681502 0.42477584 0.152189 0.712021 0.7016339 0.62515545 0.45595342 0.495673 0.502148 0.44763792 0.2914084 0.15993498 0.6288133 0.6623391 0.7250402 0.6928153 0.5347386 0.5538712 0.5441083 0.4892172 0.5969405 0.6167776 0.54639363 0.55846715 0.5446564 0.5130754 0.8515408 0.8700731 0.83807534 0.82473344 0.67144614 0.816097 0.7834219 0.4024375 0.42330772 0.28074428 0.2661319 0.21489473 0.2015111 0.37304586 0.21717855 0.18385276 0.1703184 0.45063713 0.48493108 0.33237287 0.16692758 0.15963852 0.11494604 0.4912409 0.4897369 0.068538964 0.49610913 0.5297398 0.02998035 0.16392173 0.4793629 0.527753 0.5354198 -0.06600541 0.520423 0.45237505 0.33255935 0.25694004 0.38791877 0.35237393 0.30481726 0.33386528 0.08505508 0.2641875 0.24283898 0.27703056 0.09469026 0.1697258 0.24233687 0.29313907 0.33370233 0.23031509 0.49244997 0.43217704 0.518737 -0.039185815 -0.077438086 0.25587872 0.016602147 0.29016542 0.0362916 0.3142684 0.3122822 0.21353292 0.09881763 0.24654792 0.25087252 0.33602905 0.33023036 0.27907264 0.35118672 0.41287977 0.35282576 0.25093982 0.4511727 0.6269975 0.68127286 0.69673216 0.7432798 0.74884224 0.7234468 0.73958194 0.7678391 0.7691587 0.7494345 0.52158284 0.5171786 0.4769657 0.69933033 0.74388313 0.7621554 0.54557055 0.53634477 0.504819 0.8029952 0.82686925 0.74644566 0.78933406 0.7942103 0.63170576 0.729656 0.7353575 0.39675438 0.4763856 0.2655736 0.24467605 0.40859067 0.40903896 0.24549004 0.17395106 0.1288377 0.30320054 0.29020634 0.5130583 0.46656835 0.38112146 0.28733647 0.18945056 0.13884