# vtk DataFile Version 2.0
Really cool data
ASCII
DATASET POLYDATA
POINTS 2423 float
-27.64787 -29.872019 12.036145
-27.733654 -29.938845 12.655758
-27.728445 -29.881302 13.110582
-27.811512 -29.48133 12.150328
-27.979897 -29.343327 12.622142
-27.974987 -29.356888 13.23738
-27.801128 -29.04852 13.815455
-27.748838 -28.711115 12.007163
-28.00987 -28.58743 12.64135
-27.990042 -28.685627 13.417163
-27.802364 -28.706942 13.987523
-27.757875 -27.73266 13.689221
-27.654938 -27.534342 14.371533
-27.55788 -27.144022 14.360702
-26.923058 -30.679317 12.451385
-27.047997 -30.214403 11.817712
-27.322376 -30.31331 12.511273
-27.259151 -30.207386 13.326771
-26.923094 -30.072483 13.927623
-27.41916 -29.509068 11.782326
-27.612255 -29.549809 13.717286
-27.23886 -29.102999 14.435594
-26.803085 -29.022789 14.84369
-26.933662 -28.999187 11.307824
-27.513502 -28.510355 12.011557
-27.458887 -28.65937 14.560074
-27.13623 -28.073261 15.0796175
-27.396065 -28.051043 12.1209
-27.350716 -27.673431 12.646603
-27.537354 -27.869467 14.75414
-27.117489 -27.485674 15.19314
-27.282784 -26.800112 13.836328
-27.307432 -26.750637 14.430165
-26.956593 -26.770082 15.109685
-26.881914 -26.306122 14.407409
-26.480324 -30.636497 11.953247
-26.467508 -30.742027 12.572458
-26.530256 -30.6846 12.927045
-25.803726 -29.983055 9.509802
-26.239548 -29.933819 10.723218
-26.562685 -30.499247 11.640539
-26.732218 -30.412323 13.506102
-26.468723 -30.010536 14.218764
-26.191904 -29.78317 14.694922
-25.79862 -29.411728 8.817108
-25.98188 -29.680622 9.448294
-26.69989 -29.468367 14.593257
-26.436934 -29.093142 14.989668
-25.798029 -28.747986 8.915139
-25.988932 -28.735086 9.301457
-26.537245 -28.356089 15.404838
-26.127413 -28.164007 15.682205
-26.323313 -28.00666 11.602632
-26.749798 -27.295044 15.543575
-26.486488 -27.34089 15.670047
-26.457167 -26.620918 13.203052
-26.483105 -26.73662 15.408737
-26.197123 -26.803156 15.630476
-26.304615 -26.089687 13.902706
-26.510925 -26.16643 14.401607
-26.30749 -26.228914 15.056998
-24.934322 -30.684013 9.1827545
-25.775217 -30.71799 11.969201
-25.619072 -30.719906 12.588013
-25.2442 -30.626995 13.742894
-25.075905 -30.039827 8.335605
-25.295446 -30.206429 8.818744
-25.412205 -30.3548 9.448268
-25.444185 -30.46784 11.429521
-25.450653 -30.421932 14.071436
-25.108168 -29.882801 14.890377
-25.144197 -29.496508 8.198588
-25.543966 -29.461353 8.4786005
-25.078537 -28.75111 8.188639
-25.479328 -28.742245 8.4670515
-25.554085 -27.98661 15.932576
-25.075624 -27.894548 8.741415
-25.006456 -27.610537 9.617142
-25.095318 -27.673773 11.038044
-25.734823 -27.658026 15.943145
-24.854471 -27.106972 9.476682
-25.191168 -27.180614 11.983555
-24.7775 -26.370571 12.332244
-25.441002 -26.621721 15.813743
-25.626854 -26.314337 13.134729
-25.30969 -26.015364 13.499608
-25.625446 -26.105427 15.278954
-24.20187 -30.900236 8.757486
-24.315784 -30.954487 9.459976
-24.094439 -30.838734 9.823551
-24.80337 -30.751884 12.783007
-24.402262 -30.67444 13.602217
-24.265127 -30.542864 13.941759
-24.226168 -30.212976 8.036479
-24.508316 -30.534674 8.395381
-24.29019 -30.255873 11.940541
-24.405281 -30.191942 14.685189
-24.36193 -29.486382 7.852185
-24.00565 -29.554747 15.455874
-24.213963 -28.993874 15.918823
-24.39295 -28.663408 7.874149
-24.013615 -28.476347 16.201687
-24.554693 -27.444054 8.528847
-24.447786 -27.678598 16.194881
-24.280737 -26.935715 8.735987
-24.402794 -26.685186 10.297485
-24.300276 -26.355215 12.202347
-24.13709 -26.85155 16.297863
-23.810621 -26.578989 16.749474
-24.64998 -25.511223 13.268375
-24.640238 -25.43031 14.602981
-24.070354 -24.960716 13.539911
-24.160835 -24.681492 15.380163
-23.604244 -23.538372 15.139899
-23.549816 -30.835495 8.201399
-23.49216 -31.089725 8.672613
-23.544645 -31.12381 9.503033
-23.763521 -30.623476 13.465959
-23.6494 -30.364382 7.900332
-23.479258 -30.371792 11.135965
-23.93491 -30.466444 12.211993
-23.570599 -30.521652 13.394692
-23.55845 -30.310127 14.411654
-23.443312 -29.730991 15.418075
-23.495274 -29.165476 7.5314107
-23.27243 -29.10829 16.02312
-23.272158 -28.378714 7.418518
-23.48678 -28.366693 16.349922
-23.025106 -27.544025 7.3270845
-23.424381 -27.408459 7.6638064
-23.758425 -27.615301 16.517876
-23.279524 -27.243145 16.767418
-23.426195 -26.785986 8.078218
-23.67692 -26.593021 8.372073
-23.33012 -26.525047 16.902435
-23.010162 -25.439398 11.513285
-22.981455 -25.434433 17.40199
-22.846825 -24.439291 10.508305
-23.199306 -24.810524 17.137993
-22.834011 -23.68284 9.979881
-23.167574 -23.59422 10.90325
-23.327162 -23.10731 11.552338
-23.297413 -23.433222 12.930825
-23.334656 -23.822754 13.59537
-23.044071 -23.528044 16.717014
-22.890852 -23.696886 17.279945
-22.971907 -22.813225 9.811109
-23.25038 -22.696032 10.5904455
-23.31843 -22.767256 11.766226
-23.103678 -22.429173 14.744951
-23.166399 -22.930372 14.974758
-22.88339 -23.196169 16.803005
-22.81924 -21.34154 9.101724
-23.105461 -21.719267 9.864704
-23.351725 -21.906458 11.194338
-22.895842 -21.706514 12.290194
-22.813787 -21.25002 13.02668
-22.74049 -21.857367 15.299015
-22.79615 -20.877645 9.068687
-22.937487 -20.763582 9.601097
-23.302197 -20.047298 10.50604
-23.151236 -20.307474 11.548254
-22.783485 -20.435732 15.505995
-22.69211 -19.972687 16.23933
-22.869375 -19.593195 9.118477
-23.171202 -19.53579 9.641633
-23.299448 -19.421438 10.489096
-23.252472 -19.509203 11.196139
-22.660046 -19.204878 12.1067
-22.752295 -19.122042 16.483318
-22.866657 -19.11214 9.260349
-22.946047 -18.934515 9.538897
-22.951843 -18.593735 10.515191
-22.767683 -19.008512 11.966766
-22.849245 -18.194265 15.499768
-22.8157 -18.680529 16.589792
-22.855345 -18.113028 16.887844
-22.98041 -17.352219 15.643537
-22.862537 -17.661263 16.317606
-22.71767 -17.490887 16.989237
-22.71085 -16.871815 14.736886
-22.97292 -16.48002 15.497423
-22.823425 -15.685024 14.927842
-22.890234 -15.439397 15.540138
-22.821095 -15.64667 16.24463
-22.58186 -15.536981 17.081768
-22.660702 -15.223658 14.889582
-22.72852 -15.071417 15.580742
-22.659498 -15.107515 16.309074
-22.903671 -30.760147 8.141291
-22.954386 -31.084942 8.4329815
-22.700794 -30.461092 7.9957495
-22.533321 -30.14172 14.246218
-22.537012 -29.56088 7.6106105
-22.437494 -29.505322 15.294206
-22.659079 -29.183218 15.778504
-22.349632 -28.144825 7.0562778
-22.372494 -28.204369 16.191525
-22.257212 -27.629395 7.0681496
-22.561846 -27.283796 16.846256
-22.524 -26.917568 7.3747177
-22.743826 -26.492228 7.6901774
-21.944397 -25.389166 8.092606
-22.197033 -25.364182 8.5442295
-22.445398 -25.214273 17.59302
-22.179487 -24.937878 18.060602
-22.168371 -24.796303 8.608387
-22.262407 -24.464964 18.11665
-22.075254 -23.31141 8.7733965
-22.596596 -23.238903 9.286186
-22.2287 -23.726479 18.084866
-22.229284 -22.130213 8.424182
-22.36185 -22.405481 8.671705
-22.605223 -22.911936 16.14348
-22.286453 -22.989693 17.35492
-21.884523 -21.669844 8.393665
-22.330666 -21.442528 8.637614
-21.82012 -21.887486 16.490084
-22.40456 -20.4174 8.811305
-22.523895 -20.272797 16.111862
-21.98527 -20.395477 16.917461
-22.568018 -19.438145 8.948793
-22.57104 -19.871916 12.437575
-22.421696 -19.559284 13.809823
-22.398922 -19.82076 16.590902
-22.219875 -19.664917 17.028246
-22.590069 -18.504074 9.569309
-22.036085 -18.263391 17.83899
-22.48177 -18.327751 9.644882
-22.140968 -17.808014 10.283307
-22.217218 -17.291815 13.874174
-22.478144 -17.470726 14.395882
-22.517494 -17.941645 17.522871
-22.217813 -17.698832 17.80368
-22.07058 -16.517078 13.788525
-22.35111 -16.596905 17.512503
-22.205416 -16.151384 17.839546
-22.198633 -15.725589 14.013432
-22.59241 -15.53533 14.595221
-22.381744 -15.426842 17.36978
-22.328995 -15.649729 17.8959
-21.66964 -15.699225 18.648859
-21.519192 -15.168251 26.668722
-22.400974 -14.915508 14.819971
-22.426107 -14.72003 15.696147
-22.329346 -14.747366 16.385035
-22.037731 -14.736112 17.56851
-21.87929 -14.883751 18.128553
-21.79572 -14.309071 15.093155
-21.923893 -14.36596 15.5302
-21.81488 -14.241077 16.096464
-21.80507 -14.311359 17.06366
-21.26055 -29.702047 7.9809732
-21.879427 -30.434679 9.19877
-21.956415 -30.009544 13.071233
-22.002707 -29.824532 14.442533
-21.525679 -29.262629 7.63788
-21.905756 -28.736788 15.592908
-21.444279 -27.857655 16.14512
-21.552486 -27.655615 6.9805193
-21.795872 -26.566626 7.111621
-21.480446 -26.502882 17.34509
-21.047503 -25.492168 7.451153
-21.36367 -25.16091 18.349926
-20.787092 -25.141417 18.598679
-21.372213 -24.617737 18.404776
-21.111124 -23.360916 8.339239
-21.524906 -23.663568 18.44656
-20.687372 -22.807604 18.64347
-21.331844 -21.65255 8.2677555
-20.882761 -19.878412 21.521185
-20.741383 -20.149342 22.470337
-20.753342 -19.239063 21.036154
-20.977554 -19.506828 21.568197
-21.104143 -19.248293 22.474104
-20.939909 -19.181992 23.062368
-20.63357 -18.261314 8.127736
-21.522625 -18.555988 18.047937
-20.894884 -18.051563 21.049154
-20.95327 -18.651077 21.228704
-21.220034 -18.578724 22.348082
-21.048954 -18.409515 23.18895
-20.656336 -16.767418 5.5300655
-20.68057 -17.453627 8.374733
-21.71046 -17.93225 9.560598
-21.200476 -17.462135 12.830212
-21.740244 -17.906635 18.050934
-21.108566 -17.514925 21.850016
-21.267668 -17.930317 22.889341
-20.923481 -16.808178 26.28699
-20.890755 -16.728176 27.46328
-20.738773 -16.272375 5.128709
-20.934212 -16.205843 5.5921307
-20.879202 -16.523308 6.71032
-21.040874 -16.557295 9.433116
-21.043959 -16.470903 10.441153
-20.746035 -16.558022 11.31959
-21.41716 -17.043318 13.149683
-21.015366 -16.426975 19.14582
-20.620626 -17.01378 21.124023
-20.959475 -16.301552 21.65147
-21.125149 -16.358055 22.220366
-21.058071 -16.279781 24.48583
-21.21281 -16.061056 27.487837
-20.87253 -16.089035 28.168478
-20.805157 -15.594728 5.0784006
-21.072893 -15.65208 5.6722603
-21.079906 -15.667285 6.3367796
-20.940264 -15.673339 7.3971577
-20.835032 -15.7607765 8.278205
-20.951925 -15.096875 11.118865
-20.810724 -15.635012 21.89261
-21.131859 -15.866611 22.621382
-21.067001 -15.821665 24.201431
-21.309052 -15.367124 25.76936
-21.424925 -15.262268 26.589766
-21.35051 -15.515521 27.489716
[...]
POINT_DATA 2423
SCALARS features_00 float 1
LOOKUP_TABLE default
0.7498345 0.7738056 0.756691 0.78679425 0.81090236 0.77105665 0.6958442 0.7800899 0.82077944 0.7634574 0.6817354 0.74528325 0.7151834 0.7316195 0.6844644 0.6658987 0.73260665 0.71231484 0.6449763 0.7226673 0.696562 0.62153816 0.585364 0.64069766 0.75623 0.63425994 0.6397445 0.7160746 0.7382312 0.6771108 0.67054856 0.7265041 0.72708607 0.691867 0.69406295 0.61118805 0.6356463 0.65012586 0.52251947 0.467701 0.593798 0.6622194 0.5933727 0.54480696 0.5986067 0.53765976 0.585379 0.55178124 0.5700506 0.53720534 0.5773313 0.5355647 0.42476428 0.643283 0.6156751 0.49175125 0.65699285 0.6194668 0.5564588 0.65403384 0.6520689 0.57246614 0.5112761 0.51806533 0.4891766 0.6242214 0.5999776 0.5240797 0.42672056 0.5098845 0.45890045 0.6246964 0.6166676 0.5872112 0.59017605 0.4489271 0.49623364 0.36012203 0.052710366 0.49134374 0.33509195 0.08177116 0.064678684 0.5203882 0.24281636 0.23953933 0.57868385 0.6129738 0.5523875 0.48106095 0.41685113 0.39516506 0.38966173 0.6135498 0.62099355 0.3260591 0.40959284 0.60304546 0.43073556 0.4019525 0.54443824 0.342878 0.44252223 0.29532975 0.37898922 0.057129294 -0.020002754 0.24021336 0.19949329 0.1137248 0.28563046 0.036339097 0.16846466 0.10169553 0.5994146 0.58877957 0.525138 0.33862025 0.58446187 0.23198405 0.30956948 0.32009158 0.36643952 0.41428167 0.5237663 0.3992508 0.4330733 0.34219667 0.34804958 0.3619209 0.27505273 0.24782771 0.2951651 0.28722793 0.2044224 -0.17176619 0.2670046 0.1345111 0.35373724 0.23742591 0.20163602 0.1651267 3.0555006e-05 -0.035823874 0.2559954 0.35556763 0.30344316 0.2751437 0.15997949 0.038618885 0.07613876 0.21893024 0.35518846 0.3494297 0.27626616 0.14546968 0.05815602 -0.05095695 0.3803264 0.4033 0.47197405 0.29399735 0.029488571 0.17368563 0.43372297 0.4643787 0.491773 0.42714465 0.24781974 0.29204243 0.44261587 0.4523489 0.45786375 0.30365372 0.36099178 0.33056766 0.35799062 0.4621336 0.4007764 0.38161868 0.46738362 0.49935955 0.5105412 0.5119302 0.49779397 0.4837212 0.51604056 0.512696 0.5038564 0.55244964 0.54994434 0.5241193 0.3038113 0.45503214 0.3721841 0.38572735 0.35575545 0.35003465 0.323738 0.25728142 0.26876917 0.22701982 -0.013256404 -0.000738129 0.27732968 0.28124323 -0.07738793 0.32013887 0.21806553 0.26946592 0.3691591 0.3158649 0.31348002 0.120180406 0.28218627 0.30686772 0.3435839 -0.034770787 0.35585633 0.11114779 0.11777097 0.3795259 0.12946858 -0.043532286 0.21880017 0.23599839 0.41104275 0.2875055 0.38580108 0.21508351 0.33748233 0.38957524 0.33880207 0.3142999 0.37719244 0.36745745 0.3716823 0.45769888 0.50635135 0.48159587 0.4370142 0.38969612 0.81421137 0.5029931 0.49423635 0.49012303 0.48773998 0.4805941 0.43159437 0.44352335 0.428245 0.45476192 0.24134777 0.40341586 0.124961786 0.259014 0.29111448 0.34050018 0.2580887 0.292662 0.18672249 0.14719324 -0.02895099 0.225073 0.20654878 0.24883105 0.07505509 0.29909775 0.22147936 0.24870026 0.450697 0.4495273 0.40903002 0.44741157 0.45524865 0.4530239 0.14475617 0.2206202 0.31404424 0.3976753 0.42699516 0.41363811 0.6279005 0.21303298 0.17864685 0.035036672 0.2566841 0.34364295 0.38584986 0.60886204 0.7811393 0.6729105 0.64302963 0.5258528 0.08052839 0.1004589 0.057538614 0.2221347 0.21101093 0.17583737 0.27964786 0.29859203 0.4540488 0.8688291 0.86287326 0.6788893 0.6361625 0.5768314 0.3510306 0.1621447 0.22906475 0.3579647 0.37540781 0.4868386 0.642082 0.79627615 0.9111377 0.9135616 0.6699425 0.65259993 0.5195806 0.1548238 0.16505858 0.1860001 0.35539848 0.4654848 0.45953575 0.57824516 0.7013707 0.8305383 0.9249871 0.94284517 0.27235144 0.26644975 0.27170786 0.38927528 0.38520622 0.41943374 0.8355943 0.90307295 0.4304277 0.45735788 0.17783777 0.4361292 0.42401505 0.28743592 0.24613997 0.11263584 0.18820101 0.21926245 0.24522874 0.18650962 0.3483221 0.23996894 0.18956465 0.35850406 0.19023462 0.20880239 0.20743915 -0.09484015 0.4043948 0.0113994405 0.4418456 0.43295127 0.38520044 0.072319865 0.42012846 0.32058877 0.30353495 0.09289524 0.53159326 0.6612829 0.5628534 0.41830876 0.15013319 0.25061932 0.59378874 0.7390764 0.79161036 0.7155595 0.6982413 0.028202549 0.8289469 0.8392246 0.7153921 0.7022335 0.34523606 0.89777696 0.87291545 0.6786449 0.6070913 0.26142743 0.14956877 0.10188246 0.37609005 0.3262982 0.40273386 0.4056697 0.9202034 0.8865956 0.5838171 0.2596265 0.2305978 0.28415427 0.29136825 0.2673105 0.22857232 0.24260357 0.24007335 0.3315897 0.39513156 0.5308713 0.68271446 0.79102045 0.8853841 0.9056206 0.24433194 0.23492685 0.29430133 0.30189028 0.28888154 0.24722846 0.25784084 0.29254365 0.2972737 0.3665907 0.47439116 0.49937317 0.4952528 0.34991193 0.3585408 0.34589416 0.23107922 0.457113 0.38815033 0.28986567 0.31341845 0.24511607 0.06054829 0.26447713 0.27835894 0.26698023 0.23246366 0.3036531 0.22500563 0.19840726 0.33765304 0.19041885 0.36755916 0.19251607 0.18401004 0.29624897 0.27844128 0.19869563 0.0954193 0.28445765 0.30870792 -0.09696147 0.31355107 0.32472372 0.35651058 0.28624058 0.041247614 -0.11054522 0.24530539 0.46163228 0.22905873 0.5707073 0.70600355 0.7222242 0.66502184 0.763579 0.6919936 0.77647513 0.8216363 0.68895876 0.8391119 0.69023716 0.67893296 0.31854367 0.8544911 0.8676542 0.61797214 0.5324396 0.32154334 0.007531792 -0.112266384 0.1002547 0.25383598 0.32383502 0.2918977 0.3692306 0.40393865 0.46880454 0.5603414 0.74039936 0.822989 0.8472415 0.24862982 0.2404651 0.21848305 0.17929807 0.2713532 0.33658326 0.24895403 0.25341636 0.27290314 0.27968276 0.27167565 0.2658385 0.36445808 0.37348196 0.33823112 0.2916107 0.46800607 0.5319107 0.5239722 0.3251256 0.35222223 0.36855522 0.48913652 0.3100747 0.36078396 0.048067637 0.2918697 0.013171902 0.05620189 0.28497863 0.24844038 0.2238293 0.19012262 0.2919221 0.23173271 0.19608988 0.34442723 0.42148307 0.20542207 0.101266146 0.409946 0.3323185 -0.34688845 0.6858983 0.68295634 0.61949456 0.71451783 0.5903251 0.5490313 0.7392275 0.77860403 0.61404216 0.7845211 0.78832483 0.5851493 0.55999625 0.15054652 0.043939352 0.76211274 0.8051528 0.57384956 -0.08341181 0.27913645 0.32206562 0.3943103 0.40564266 0.49069843 0.64074254 0.74522746 0.27798185 0.2733537 0.33021992 0.3505146 0.32001996 0.2343658 0.109565824 0.34274358 0.32763052 0.30369878 0.24842146 0.3236929 0.29801044 0.36047685 0.3626241 0.3186018 0.24093506 0.40434355 0.5465367 0.578148 0.5250186 0.31217724 0.3367439 0.46883592 0.27918383 0.32026666 0.17948544 0.21785477 -0.001754472 0.21197227 0.2519953 0.590556 0.26609927 0.0121965185 0.60577047 0.58787924 0.3444705 0.5515613 0.5293899 0.09448019 0.36968032 0.26680535 -0.04291589 0.28951257 0.3728081 0.4370172 0.45250714 0.15768026 0.41641542 0.35161012 0.30015635 0.094401315 0.24185136 0.07292757 0.6251639 0.6531309 0.6735788 0.372033 0.65921634 0.6908545 0.52025235 0.43753794 0.6809064 0.6849122 0.38713962 0.25656226 0.42929393 0.51888704 0.22506505 0.20520273 0.41221935 0.44967917 -0.058207076 0.36898428 0.35850233 0.32407755 0.3815106 0.13876325 0.3900082 0.3781157 0.3695651 0.36021966 0.34451526 0.37623918 0.34519926 0.41302833 0.4460532 0.4482044 0.32388493 0.2106664 0.42090464 0.22028983 0.3514641 0.21795502 0.29947543 0.2035411 0.029479548 0.033013437 0.22758402 0.09823104 0.13624093 0.6497676 0.61964345 0.17339103 0.17604063 0.61282575 0.13928242 0.08491361 0.5417082 0.47027293 0.072076604 0.43210185 0.3523022 0.0053094067 0.25021392 0.407175 0.2192106 0.18410279 0.44706666 0.37520298 0.34789103 0.3400916 0.29429096 0.08663895 0.24696629 0.09567037 0.62807757 0.6370605 0.6556951 0.6023955 0.19078708 -0.23933598 0.42195982 0.55968225 0.07769625 0.15000726 -0.009058593 0.2195731 0.32989123 0.34373042 0.37081146 0.3600487 0.39974558 0.21323991 0.41019905 0.38985786 0.20070668 0.37937754 0.3728323 0.35595372 0.41663134 0.44476342 0.47576666 0.4555341 0.35827827 0.45165902 0.42707515 0.27533823 0.25010014 0.3308573 0.26020685 0.21896484 0.20203 -0.21777526 0.15167177 0.06885923 0.11050031 -0.025078904 0.1957182 -0.005168801 0.49613786 0.06074677 0.084836766 0.6470214 0.6008707 0.06364942 0.0489933 0.62280375 0.040077474 0.5413277 -0.040436167 0.38808328 0.25999478 -0.0008926357 0.3724218 0.14551541 0.41296804 0.06924303 -0.0077399695 0.29199702 0.027341697 0.2555518 0.08066812 0.19671938 0.061558265 0.15278596 0.108077236 0.20635022 0.095501855 -0.19135286 0.23769173 0.078131296 0.12547381 0.4043363 0.3802116 0.19125481 0.18838565 0.34939575 0.24688569 0.20349912 0.48355764 0.4473809 0.3736477 0.27818167 0.47593945 0.44948322 0.5503193 0.58885753 0.5890067 0.6482254 0.5051284 0.49225122 0.5810226 0.25243604 0.26556885 0.44809845 0.55069304 0.23946217 0.23445961 0.2116247 -0.21850732 -0.29165652 -0.261368 0.15893139 -0.09755443 -0.047153883 0.25509596 0.04337871 0.040073045 0.57618135 0.430306 -0.0032725148 0.54952484 -0.07481124 0.074486144 0.10907783 0.114615805 0.08197844 0.11111693 0.24727923 0.27087831 0.30397004 0.25223655 0.13756776 0.28028166 0.27320307 0.2746324 0.11219538 0.21924926 -0.0014797822 0.051237725 0.18476442 0.14835826 0.21908644 0.2373641 0.24372515 0.30956027 0.5238333 0.3748774 0.09395172 0.3867465 0.3759045 0.27373257 0.37952602 0.45790195 0.24634741 0.20737806 0.40077084 0.47647113 0.50961167 0.312795 0.36457998 0.16504256 0.3512282 0.34210336 0.155765 0.2130101 0.36951095 0.36597133 0.3214341 0.26077256 0.45284802 0.43377292 0.6082854 0.6373433 0.66613 0.7077429 0.49838844 0.5838388 0.64768434 0.7044625 0.69982076 0.29200813 0.6566578 0.5456575 0.6124042 0.21600747 0.20069164 0.29410833 0.20641722 -0.20718667 0.18632373 -0.17341092 0.22224823 0.12408319 -0.02721931 -0.31388736 -0.34013903 -0.16541521 0.06457093 0.12397442 0.6772615 0.3144412 0.23379534 0.32811293 0.40223247 0.371049 0.113029644 0.19936034 0.06463095 0.234422 0.15116806 0.26412964 0.2773606 0.40665394 0.3773653 0.42817432 0.57965624 0.6692779 0.47286105 0.32436985 0.6005765 0.47315925 0.4472276 0.26576072 0.32685286 0.41322327 0.53055465 0.5397367 0.092693895 0.23465157 0.5409601 0.22436729 0.29919463 0.36519924 0.29599428 0.39597476 0.42019707 0.4342474 0.56877923 0.6588265 0.6943525 0.7163652 0.71508044 0.48135304 0.7019424 0.6903895 0.3300004 0.3879578 0.6791425 0.6705506 0.206421 0.5303005 0.626854 0.18885507 0.3332782 0.4622475 0.55335754 0.15640166 -0.06362715 -0.24257956 -0.08923893 0.23103833 0.035635024 -0.0657469 -0.12971917 0.30252892 0.2644298 -0.35976136 -0.09412351 0.037303817 0.21302515 0.17739466 0.41860914 0.5850259 0.6237728 0.27206638 -0.2880098 -0.13015684 0.48704803 0.67026496 0.73960596 0.15976685 0.7280543 0.76543796 0.30738628 0.7397903 0.7775221 0.44161302 0.70499575 0.5215064 0.49618936 0.43997285 0.061237562 0.3028633 0.17033911 0.22336218 0.2599502 0.14627631 0.04582572 0.30863535 0.06516993 0.3890892 0.26947337 0.50587875 0.4200997 0.74422675 0.4637599 0.72505975 0.479268 0.46037915 0.51502234 0.662325 0.72625035 0.48040518 0.45258152 0.4202281 -0.000211671 0.23672453 0.40113798 0.5669465 0.562964 0.2896168 0.2782435 0.44389328 0.52201736 0.563975 0.3084042 0.2600215 0.34818348 0.36865544 0.3729121 0.34348115 0.39880353 0.40385962 0.43138936 0.39443457 0.54376006 0.60408795 0.66822493 0.70058775 0.7060771 0.442226 0.70779705 0.71096873 0.34004414 0.71135736 0.6535959 0.063472904 0.513229 0.05711761 0.08850705 -0.0044730427 -0.38115576 -0.18160868 0.5618079 0.44448736 0.30294812 0.120843634 0.050354645 0.00038854918 -0.057342965 0.64883405 0.44744086 0.27449358 0.033271953 -0.056196474 0.25033253 0.34668934 0.36466774 0.4086656 0.65190244 0.09078647 0.3513558 0.40968254 0.51960504 0.6451292 0.29994676 0.6993948 0.7471112 0.7868556 0.24120145 0.78086454 0.5296765 0.51645553 0.70073414 0.7546872 0.5657977 0.5335251 -0.12521403 0.4536395 0.38699064 0.28763446 0.13499391 0.39157224 0.45712405 0.50111705 0.62261856 0.36834735 0.77272964 0.39840168 0.3799672 0.81302667 0.4458288 0.41682285 0.29512042 -0.109776855 0.62884533 0.7595171 0.7904463 0.4267059 0.2841848 0.07962784 0.5108782 0.47669482 0.20742321 0.22544515 0.2521184 0.5678497 0.5446147 0.16343053 0.5557543 0.5708525 0.277057 0.35542458 0.39280206 0.36162335 0.4457937 0.44621167 0.4162119 0.49362093 0.6044099 0.63466024 0.7078094 0.41398814 0.3624749 0.479867 0.719531 0.7478371 0.19487599 0.7643461 0.76801205 -0.2289952 0.38397688 -0.44012576 0.5614551 0.47063494 0.34255153 0.2869425 0.0942404 0.0062065255 -0.050870188 -0.19759898 -0.2557538 -0.1413608 0.6755001 0.58351994 0.33827293 0.20611134 0.34490037 0.3852091 0.4098114 0.7449481 0.65401995 -0.12932193 -0.0069223642 0.071892895 0.3754819 0.4056088 0.43996143 0.468961 0.7528832 -0.04157468 0.5840786 0.71279657 0.67832613 0.6567185 0.72867346 0.17771429 0.79043615 0.7814044 0.4688244 0.7013205 0.7577579 0.5555836 0.07887246 0.5100729 0.4337356 0.37046295 0.24808317 0.19701427 0.08114493 0.31784263 0.43006873 -0.03551261 0.49734607 0.511706 0.2044391 0.60379094 0.30139974 -0.11887807 0.71800494 0.36964396 0.32335466 0.23557016 -0.20153476 -0.20381132 0.78830194 0.31492922 0.27211383 0.15225929 -0.24002767 0.15333974 0.4056049 0.723469 0.7756566 0.79193693 0.17028871 -0.13910022 0.17950526 0.4829871 0.37392133 0.52802825 0.51540536 0.5212598 0.34800512 0.42980087 0.46135494 0.450732 0.44161963 0.43024287 0.46438065 0.47975698 0.4726251 0.5164896 0.64274466 0.49864078 0.62575924 0.71350044 0.19048555 0.32120264 0.71593547 0.7724086 0.07135324 0.6655902 0.7563633 -0.04526542 -0.025115123 -0.11549328 -0.17454937 0.6193489 0.48324785 0.34794247 -0.0846264 0.74720824 0.6488378 -0.0918027 -0.022267425 0.3283388 0.38972935 0.41956404 0.78450954 0.76722234 0.0037514642 0.058646787 0.17705879 0.3140474 0.42115006 0.45018774 0.4496755 0.76141906 0.7510873 0.49815804 0.53528714 0.72324365 0.5464841 0.6274861 0.55362225 0.65347975 0.18085468 0.6717218 0.65590686 0.24319388 0.59681535 0.4616714 0.34229234 0.34171528 0.19159289 0.3131038 0.102679685 0.21339445 -0.06003456 0.26273894 0.38963997 0.45034736 0.039485674 0.3630331 0.49883652 0.5969013 0.2597126 0.2004531 0.48137897 0.6201881 0.707247 0.22609869 0.12723854 0.07673433 -0.08496932 0.021318585 0.6756978 0.7322004 0.7602704 0.10593943 0.067525364 0.18621972 0.35561502 0.727151 0.11783226 0.13685183 0.15065709 0.06011015 0.20341751 0.13415354 0.25322628 0.3939874 0.44333413 0.19056018 0.5983127 0.36631864 0.57771456 0.47519588 0.5423882 0.54579246 0.47228166 0.52190495 0.5254441 0.5267903 0.4928592 0.5519625 0.5138719 0.2885381 0.33819395 0.3274464 0.2799856 0.5157815 0.613068 0.21863793 0.15411669 0.20495671 0.42488196 0.12000914 0.6905228 0.32783082 0.77376246 -0.05204424 0.30731907 0.37205178 0.43166006 0.788131 0.79171085 0.018969093 0.16668017 0.3815472 0.44623515 0.48016632 0.4632948 0.7630748 0.7244241 0.46835196 0.47081494 0.6797426 0.5297251 0.48948705 0.5877119 0.5994792 0.61437684 0.62065107 0.62101436 0.62378025 -0.23405778 -0.07715378 0.10974166 0.3509573 0.5600207 0.5801406 0.21124871 -0.02695629 0.17824602 0.07333171 0.04986164 0.14787374 -0.075893044 0.09911662 0.33512342 0.06847796 0.10517202 0.10768669 -0.07637043 0.102756664 0.11170598 -0.04678325 0.15725608 0.10204165 0.056571275 0.24319638 0.11050829 0.6435228 0.49900848 0.52432144 0.5964105 0.5827471 0.57485086 0.56698346 0.6416633 0.65355444 0.58607733 0.58853155 0.4343803 0.38797915 0.28662714 0.21606858 0.23961899 0.24596709 0.24849263 0.074004784 0.16406095 0.21709357 0.013932884 0.07754563 -0.097305015 0.28388864 0.19372955 0.17013143 0.69421923 0.53237224 0.04543016 0.12637885 0.749823 0.011237685 0.48710352 0.5152116 0.4847701 0.76010555 0.74073553 0.5010354 0.49658573 0.47732708 0.5437857 0.5055729 0.49582344 0.47055689 0.33232048 0.27976346 0.56155086 0.57673985 0.27409416 0.58498406 0.61524725 0.10700342 -0.2292949 -0.040318217 0.48367727 0.5934319 0.6217171 0.18321393 -0.1020418 0.20048366 -0.17642312 -0.1799425 0.21920888 0.07135889 0.1863599 0.124761984 -0.15555173 -0.095113076 0.014746837 0.13977058 0.35116965 0.29987684 0.24978913 0.12819359 0.748472 0.8108692 0.77228117 0.6401776 0.6618393 0.69893825 0.63858974 0.6846341 0.7027414 0.61137974 0.6793332 0.6904601 0.6709826 0.7071597 0.73784494 0.74425143 0.6533797 0.3876923 0.4046957 0.42012954 0.30658367 0.26306224 0.25116664 0.37906548 0.12926154 0.04985854 0.10641135 0.19327344 0.047826655 0.22258154 0.23660597 0.6399149 0.29673582 0.047415815 0.12669231 0.040969998 0.3410226 0.5050126 0.31983238 0.31949288 0.32010972 0.48868603 0.18732981 0.34424782 0.39769432 0.4703097 -0.17122646 0.36338675 0.48707774 0.5239359 0.06739672 -0.090305105 0.17084819 0.20141213 -0.1593543 0.12744907 0.11469003 0.16690138 0.070806436 0.033240315 0.33817846 0.1693458 0.48025072 0.5261616 0.23177807 0.20718843 0.5666264 0.31350183 0.36661696 0.4886918 0.5455258 0.39433876 0.3414157 0.32499844 0.2520308 0.08576973 0.94329035 0.91641307 0.8154372 0.7915411 0.8660339 0.75749654 0.8356287 0.8360143 0.7747123 0.75344026 0.80418205 0.81890166 0.7794348 0.7760537 0.78429353 0.47340167 0.4590702 0.3301441 0.41149986 0.4334397 0.37665385 0.20974976 0.33046356 0.04234676 0.108949885 0.111578405 0.08480954 0.07487004 0.19395058 0.20577577 0.24727035 0.23373279 0.18744397 0.17811695 0.17021185 0.15112424 0.12295449 0.070967816 0.212263 0.16123079 0.16058193 -0.50286746 0.15623707 0.16252103 0.124910444 -0.0021669492 -0.0014707074 0.22482884 0.3134117 0.13937095 0.47140795 0.22833492 0.28500825 0.5550958 0.29606223 0.60172796 0.2918072 0.5873892 0.2557689 0.32272327 0.32037345 0.5380789 0.5603691 0.41692975 0.39919317 0.5558002 0.50772774 0.44266623 0.9252695 0.90947294 0.88087296 0.8871341 0.8449992 0.45326 0.48666006 0.47856626 0.29637986 0.40821677 0.37381032 0.13080287 -0.04359554 0.034011282 0.12392554 0.09581673 0.08466665 0.122576 0.075571276 0.17988002 0.10375002 0.1565688 0.16926855 0.18186745 0.17572185 0.1971477 0.74459946 0.7296734 0.6653623 0.14924726 0.17816004 0.7495581 0.71677434 0.4850762 0.4330382 0.051516905 -0.07087682 0.77281415 0.5111543 0.16447473 0.10051943 0.8321022 0.81464136 0.8261085 0.64830196 0.13964593 -0.060573027 0.074565314 0.8596042 0.82802725 0.7620206 0.84733355 0.8151165 0.75439304 0.2952279 0.2836591 0.314938 0.32454997 0.32274547 0.2373071 0.21709575 0.13431495 -0.06619635 0.19377863 0.056944307 -0.13050076 -0.4226917 -0.32982564 0.18966529 0.39081025 0.21730992 0.22967786 0.57884645 0.27520782 0.6131729 0.301403 0.30096638 0.61576694 0.27286404 0.2927049 0.31803477 0.5750481 0.5916033 0.2827425 0.5118583 0.50422686 0.53664577 0.46947268 0.57384884 0.5443044 0.52490735 0.4624067 0.5964577 0.52122444 0.4051595 0.46628007 0.45446932 0.33970767 0.37868172 0.16075666 0.254188 0.14969851 0.13517238 0.19577846 0.10900411 0.13295673 0.08218481 0.05161859 0.07249653 0.15599571 0.19734497 0.14153644 0.16788968 0.17409444 0.7270826 0.18596615 0.15675208 0.1522485 0.75778586 0.7376392 0.5530448 0.5294408 0.16558184 0.75965524 0.7581637 0.1255685 0.7618841 0.07445698 0.82436776 0.13384661 0.8609576 0.863881 0.43158287 0.29833913 0.8382683 0.8032572 0.7120485 0.5910766 0.3200347 0.77819514 0.7494325 0.33110633 0.33373415 0.30905178 0.2468084 0.41009405 -0.036452144 -0.07617723 0.54232264 0.47989067 0.08710418 0.20376484 -0.24929346 -0.4045694 0.21923456 0.03509444 0.4382407 0.26792645 0.25305772 0.22664082 0.06433664 0.20771843 0.54857606 0.60841393 0.6184435 0.27704763 0.22356918 0.2404085 0.42197177 0.32397082 0.3475151 0.5367768 0.60658026 0.62027323 0.33658054 0.34796858 0.46252108 0.49489337 0.5383532 0.57555974 0.4140787 0.5135294 0.5349867 0.5122298 0.5784366 0.6543733 0.609251 0.57583094 0.3706099 0.29312497 0.28674608 0.24815717 0.16247389 0.18458135 0.1850777 0.2696884 0.2772667 0.24573767 0.078363344 0.15484205 0.13216494 0.08196771 0.13236393 0.14152141 0.21408309 0.19015001 0.728184 0.7134608 0.65862435 0.13600332 0.15866686 0.75835115 0.74485075 0.08357686 0.74717915 0.74740994 0.12050794 0.7514324 0.046364978 0.821267 0.24359313 0.34595758 0.82994115 0.82210267 0.5039598 0.7997564 0.7764758 0.18788822 0.54097927 0.7540512 0.7122803 0.3056068 0.31810728 0.3078577 0.5872125 0.29942435 0.25402522 0.16650607 0.10925213 0.5460318 