# vtk DataFile Version 2.0
Really cool data
ASCII
DATASET POLYDATA
POINTS 7591 float
-17.53233 -38.364437 -2.3062475
-16.746353 -39.686245 -2.2727857
-17.150887 -39.101788 -3.0422015
-17.214779 -39.15711 -2.465786
-17.127169 -39.17487 -1.6830237
-16.783285 -39.09084 -0.31655422
-16.814743 -38.832863 -0.09431371
-16.883146 -38.254036 -3.9173322
-17.160913 -38.519363 -3.2900395
-17.422663 -38.56136 -2.6103265
-17.35813 -38.403416 -1.4525981
-17.15924 -38.402252 -0.5958836
-16.783451 -38.38647 0.06391293
-16.912868 -37.385864 -4.087709
-17.19472 -37.51189 -3.2988992
-17.304146 -37.472538 -2.6408963
-17.289799 -37.597958 -1.2735714
-17.142656 -37.55742 -0.5836623
-16.881035 -37.560146 -0.049086347
-16.77918 -36.592472 -4.099679
-16.983416 -36.714283 -3.4518058
-17.031973 -36.65891 -2.644685
-17.132324 -36.84721 -1.9721838
-16.917507 -36.91017 -0.5768785
-16.8472 -37.064934 -0.14154217
-16.683203 -35.96682 -2.8394556
-16.295954 -39.794712 -3.06432
-16.163761 -39.97549 -2.3690996
-16.403194 -39.79949 -1.7057596
-16.12598 -39.676117 -0.4067511
-16.15122 -39.119328 -3.9043305
-16.373531 -39.452698 -3.4292383
-16.51807 -39.49291 -0.6543143
-16.279942 -39.10321 0.18489939
-16.546885 -38.365547 -4.2274337
-16.341597 -38.417267 0.3888605
-16.128216 -38.71479 0.56080186
-16.111908 -37.558464 -4.977365
-16.477768 -37.762554 -4.636224
-16.35991 -37.598793 0.39135945
-16.115606 -37.86669 0.6186743
-16.189608 -36.65006 -4.778263
-16.454634 -36.54696 -4.5546393
-16.55388 -36.606976 -0.38041595
-16.34008 -36.814075 -0.014377177
-15.947863 -35.632793 -4.1705995
-16.44212 -35.644184 -3.3383553
-16.155561 -35.55966 -2.5712376
-16.21758 -36.006416 -1.5313139
-16.30072 -36.299416 -0.78701186
-15.933289 -35.248215 -2.8724086
-14.647955 -47.004017 -8.929322
-14.723681 -47.04815 -8.493357
-14.795237 -46.898327 -7.6183677
-14.823984 -46.32457 -9.08918
-15.012516 -46.446537 -8.430163
-14.960986 -46.418266 -7.613911
-14.756557 -46.446297 -7.078717
-14.880053 -45.70528 -9.044843
-15.023432 -45.62237 -8.554708
-14.964762 -45.640747 -7.542483
-14.951449 -45.798954 -7.1680403
-14.711921 -45.051952 -9.001038
-14.77738 -45.0161 -8.470595
-14.733163 -45.161026 -7.601712
-14.750861 -42.38991 0.6995204
-14.708572 -42.30818 1.2649578
-14.537672 -40.905457 -0.963524
-14.716281 -41.35652 -0.42989486
-14.748683 -41.774746 1.4202477
-15.254563 -39.965786 -3.101433
-15.184504 -40.35894 -1.6718236
-15.079619 -38.8538 -4.9206066
-15.595486 -39.33099 0.32700077
-15.505211 -38.962288 0.5807618
-14.7029295 -38.17026 -5.899026
-15.425774 -38.0949 -5.243858
-15.58098 -38.52573 0.6641505
-14.984323 -37.385216 -5.9766
-15.492614 -37.36969 0.48573405
-15.584616 -37.64846 0.62073123
-14.831719 -36.720215 -5.97641
-15.489657 -37.00928 -5.5573554
-15.578951 -36.93555 0.25547665
-15.819924 -35.676987 -1.9721379
-15.526636 -36.369057 -0.20824689
-15.113618 -34.97493 -2.8960247
-15.749485 -35.418743 -2.2071311
-14.783715 -33.42058 -6.1467857
-15.200977 -33.305996 -5.378069
-15.039829 -33.571274 -4.1932354
-14.824717 -33.441578 -3.5617507
-14.850882 -32.531723 -6.028345
-15.325612 -32.540157 -5.3677793
-15.340903 -32.56342 -4.608051
-15.061874 -32.63908 -3.785532
-14.77347 -31.692192 -5.830455
-14.998346 -31.691488 -5.2400756
-15.0930195 -31.673512 -4.6252418
-14.815642 -31.828556 -3.6724765
-14.787248 -31.237549 -5.0457644
-14.839874 -31.268671 -4.4016805
-14.687068 -31.22052 -3.9473836
-14.019694 -47.707363 -8.279387
-14.062028 -47.65548 -7.8233733
-13.893414 -46.83402 -9.634365
-14.254562 -47.205704 -9.107147
-14.428944 -47.398056 -8.535472
-14.397423 -47.277622 -7.546806
-14.116819 -47.07496 -6.889756
-14.129373 -46.4482 -9.645832
-14.439122 -46.583435 -9.405365
-14.427255 -46.387833 -6.7373815
-14.241336 -45.769264 -9.718767
-14.501204 -45.460915 -9.413659
-14.34885 -45.575283 -6.770463
-14.161063 -45.948566 -6.393426
-14.291113 -44.929665 -9.275026
-14.382967 -44.61743 -8.426415
-14.413153 -44.97734 -7.442233
-14.227275 -45.127445 -7.023484
-13.936992 -44.36615 -8.47407
-13.601336 -43.31263 -1.1849926
-14.072445 -43.14354 -0.11762671
-14.347178 -43.095875 0.59281826
-14.368155 -42.89533 1.2968941
-14.09889 -42.75198 1.7501105
-13.742711 -42.317974 -1.8970773
-14.006355 -42.256474 -1.3966997
-14.496539 -42.365746 -0.24757376
-14.560819 -42.729523 0.38906842
-14.45406 -42.525517 1.6076244
-14.333331 -42.272038 1.8482213
-14.475848 -41.361744 1.6554129
-14.1260805 -41.746803 2.0102067
-14.090215 -39.67083 -4.2217665
-14.891444 -39.890144 -3.2509236
-14.004178 -40.607754 1.2347889
-14.574643 -38.9996 -5.2340326
-14.275774 -38.334072 -6.096798
-14.603261 -38.703022 0.23754609
-14.658821 -37.527042 -6.2284718
-14.637592 -37.602215 0.3832518
-15.053159 -37.468056 0.54093266
-13.8952875 -36.832283 -6.896509
-14.162832 -36.811035 -6.5753074
-14.774358 -36.446514 -0.46823186
-14.847866 -36.532757 -0.24106792
-13.889735 -35.215668 -6.9947524
-14.195829 -35.636753 -6.3654566
-13.956883 -34.490803 -7.213444
-14.355992 -34.463703 -6.554116
-13.735355 -33.755566 -7.7247252
-13.980191 -33.222546 -7.3614125
-14.457343 -33.34619 -6.556915
-13.987821 -33.358135 -2.9202394
-14.219746 -32.55448 -6.974235
-14.299451 -32.173702 -3.1556215
-13.878424 -31.56692 -6.9689918
-14.296179 -31.652302 -6.4650846
-14.5867405 -31.39043 -5.569936
-14.606717 -31.498354 -3.6505458
-14.19056 -31.500162 -3.2849796
-13.805847 -31.204334 -6.7356524
-13.847588 -30.94173 -6.24591
-14.123373 -30.838078 -5.422526
-14.3273325 -30.856255 -4.430657
-14.251604 -31.035442 -3.7937396
-13.97786 -31.203133 -3.350433
-13.389899 -47.686684 -8.99607
-13.597767 -47.81033 -8.313571
-13.256262 -47.800556 -7.3360496
-13.465899 -47.667538 -7.146504
-12.711408 -47.766598 1.1016378
-12.844933 -47.776764 1.6071784
-13.42439 -46.924988 -9.641909
-13.549288 -47.40355 -9.316004
-13.46443 -47.299908 -6.6199894
-13.269917 -47.07823 -6.2780766
-13.091144 -47.23833 0.9673012
-13.187973 -47.34042 1.581545
-13.0821 -47.259544 2.3024902
-12.87575 -47.150314 2.7029135
-13.262753 -46.385803 -9.831375
-13.165773 -46.620598 0.8402958
-13.392429 -46.667694 1.4952219
-13.224584 -46.64425 2.3111653
-12.926894 -46.598785 2.7914748
-13.25245 -45.64893 -9.821214
-13.698441 -45.336132 -6.4809365
-13.149711 -45.728 -6.1307364
-12.620184 -45.664764 -1.0802536
-13.020598 -45.30978 1.5168165
-13.253983 -46.058598 2.1499183
-13.255061 -45.02591 -9.663391
-13.786691 -44.9846 -9.53027
-13.254699 -44.853127 -6.6506777
-12.835075 -44.489838 -1.6339321
-13.107449 -44.053043 1.4772048
-13.157288 -44.263916 -9.075062
-13.204381 -44.183174 -7.475736
-12.920949 -43.602287 -2.1931028
-13.115823 -43.139988 1.935504
-12.826516 -42.796852 -2.495498
-13.4198265 -42.54528 2.090932
-13.551576 -41.491413 2.2273252
-13.617352 -39.758255 -4.354227
-12.866883 -40.20737 -3.1702507
-13.524765 -40.94647 1.8886173
-13.554787 -39.059963 -5.7941103
-13.284743 -38.04033 -6.754452
-13.537928 -38.63588 -6.2389092
-13.738443 -38.614723 -0.45971715
-13.682882 -38.426823 -0.23601808
-14.091129 -37.462933 0.0033480525
-13.599905 -36.536335 -7.2098913
-13.129752 -35.58133 -7.8989077
-13.458327 -35.545757 -7.435214
-13.852842 -35.90069 -1.7070813
-13.195757 -34.447243 -8.062149
-13.432135 -33.598404 -7.9071937
-13.137509 -32.754856 -7.957444
-13.497523 -32.30085 -2.877252
-12.8135195 -32.012707 -7.8156767
-13.4412565 -31.62632 -7.2936497
-13.487334 -31.746473 -3.0218081
-13.173493 -31.035826 -7.0197535
-13.538365 -30.810995 -6.4319987
-13.521194 -30.612768 -5.5293326
-13.527914 -30.653605 -4.26986
-13.678228 -30.956226 -3.6486616
-13.564149 -31.205248 -3.3450823
-13.066599 -30.47159 -6.1546865
-13.20914 -30.468437 -5.8501453
-13.282218 -30.471565 -4.838851
-12.392759 -47.830963 -8.821258
-12.027757 -48.182976 -8.265928
-12.635103 -48.071144 -7.1961336
-12.272022 -48.156704 -6.8669314
-12.330683 -47.851765 0.6987058
-12.197164 -48.184147 1.5131031
-12.275185 -48.10489 2.4200606
-11.984166 -48.06952 2.778324
-12.582806 -46.90277 -9.615479
-12.963136 -47.42796 -9.347851
-12.326458 -47.34893 -5.622108
-12.144074 -46.981712 -5.397959
-12.048409 -47.371517 -0.15689042
-12.393787 -47.36069 0.45356092
-12.428338 -47.250652 2.9464238
-12.553503 -46.311924 -9.850643
-12.363153 -46.4023 -5.540934
-12.353882 -46.11252 -1.13882
-11.983508 -46.71701 -0.6717657
-12.210573 -46.538174 3.1579366
-12.362679 -45.63929 -9.8507185
-11.843249 -45.508755 -5.6211185
-11.789477 -46.056355 3.343811
-12.533533 -44.679493 -9.401807
-12.474863 -44.48765 -6.513785
-11.922489 -44.443047 -6.343125
-12.182461 -44.07454 -2.2939324
-11.865559 -44.52934 2.531432
-12.339306 -44.241257 -8.987335
-12.489054 -43.99778 -8.552588
-11.97469 -43.6683 -7.451643
-12.384108 -44.213802 -6.720234
-12.389295 -43.230385 -2.6336992
-11.875669 -41.84609 -12.314838
-11.844887 -42.14271 -11.624351
-12.187668 -42.40487 -2.9598455
-12.16663 -42.623592 2.5997083
-11.685723 -42.671017 3.6786716
-11.6715 -42.28866 4.0824194
-11.796567 -41.325695 -12.709921
-12.014008 -41.486958 -12.35294
-12.312494 -41.35622 -11.508503
-12.143154 -41.661163 -10.658807
-11.977952 -41.532887 -3.3790307
-11.733306 -41.302677 4.0150294
-11.780807 -40.83108 -12.728161
-12.137745 -40.574654 -12.195708
-12.353025 -40.491383 -11.521688
-12.2353115 -40.559135 -10.716302
-12.072061 -40.11608 -3.7229674
-11.759323 -40.73734 3.5177007
-12.035345 -39.92417 -12.007728
-12.088607 -39.788765 -11.4909935
-11.873849 -39.580395 -10.986462
-12.637851 -38.795044 -6.207229
-12.630536 -39.821903 0.5857099
-12.516163 -40.23185 1.2024541
-12.3996 -37.98932 -7.0253835
-12.680351 -37.264103 -7.6671233
-12.749896 -37.555935 -7.3948503
-12.368433 -36.377945 -8.230281
-12.417695 -35.20732 -8.364429
-12.213485 -35.650692 -1.9263558
-12.092733 -33.99071 -8.594697
-12.381405 -34.513935 -8.321622
-12.297384 -34.852478 -2.5330331
-11.836975 -34.57292 -2.0990002
-12.624945 -33.51835 -8.386611
-12.688609 -33.64214 -2.719758
-11.95141 -32.880405 -8.552297
-12.1691265 -32.541195 -8.38907
-12.233078 -31.766603 -8.004366
-12.656217 -32.06034 -3.0787878
-12.478669 -30.978142 -7.214341
[...]
POINT_DATA 7591
SCALARS features_00 float 1
LOOKUP_TABLE default
0.6697358 0.59839165 0.6237638 0.64403594 0.6737647 0.69886065 0.71382713 0.57025915 0.61795425 0.6539476 0.70975095 0.7236202 0.73308164 0.5585816 0.6073274 0.63603747 0.7132986 0.7412754 0.7570505 0.56718415 0.593854 0.6065985 0.6405473 0.72737956 0.7555839 0.55092126 0.5389056 0.5125351 0.56528264 0.61620355 0.5033792 0.54902005 0.6506805 0.6989486 0.52197987 0.7335969 0.71949375 0.43361387 0.4851097 0.756434 0.74827766 0.47705793 0.5235326 0.719918 0.743446 0.5147821 0.5308631 0.47963804 0.56572485 0.65998375 0.43026543 0.8837584 0.8934142 0.87018937 0.9216603 0.9532188 0.9214485 0.8531594 0.94495803 0.9752892 0.9185139 0.87234294 0.93574107 0.955974 0.8965616 0.5088361 0.53529274 0.18423001 0.3406536 0.56140774 0.37814873 0.27693045 0.37117574 0.66624606 0.6957234 0.32197303 0.37407002 0.72042215 0.2831914 0.7366202 0.7414366 0.21542096 0.31643265 0.7273228 0.47149658 0.6813377 0.27319184 0.4324033 0.4333559 0.60086226 0.63158673 0.55487776 0.56682444 0.6575022 0.7221254 0.68175673 0.60728616 0.6674679 0.709793 0.66893107 0.67171806 0.7033715 0.6874105 0.79624075 0.76828015 0.7925847 0.8412273 0.85376906 0.7986419 0.743169 0.8341681 0.8707241 0.80092406 0.86441535 0.90744245 0.77705944 0.7440561 0.89381135 0.9170562 0.83525014 0.7587919 0.87180424 0.2903896 0.41252843 0.47351176 0.49749237 0.4750664 0.243994 0.28969675 0.39112997 0.4703954 0.5159571 0.51260996 0.54361945 0.51224536 0.18086228 0.3082712 0.46751326 0.34125346 0.31738347 0.69760376 0.27530256 0.6917889 0.71746325 0.2342264 0.21598169 0.60398567 0.6386184 0.21654762 0.15757641 0.2706224 0.25525215 0.33381435 0.38835543 0.40024626 0.3935399 0.48418266 0.5718882 0.52465683 0.5539876 0.6201693 0.66406596 0.61083627 0.52927154 0.5428572 0.5998099 0.6765009 0.6605227 0.6152718 0.7331488 0.75775063 0.6572075 0.661001 0.47144842 0.57879966 0.7209037 0.7446189 0.63353527 0.60847276 0.5095543 0.6233038 0.6447702 0.5844584 0.7141272 0.5288538 0.65052545 0.62003547 0.5252834 0.75623494 0.6382965 0.54206485 0.17671603 0.41024607 0.5661176 0.7859887 0.84414566 0.57224596 0.21276012 0.10990986 0.7847371 0.71597147 0.19457968 0.21140046 0.15942463 0.37340164 0.46979102 0.08981111 -0.17038886 0.49265638 0.29398623 0.3058319 0.30235076 0.5899544 0.6002089 0.62197614 0.24652189 0.2912768 0.2436864 0.21783794 0.30971426 0.3499773 0.41437468 0.4125365 0.46592602 0.5074483 0.49754393 0.50385743 0.52408946 0.54660124 0.61498046 0.6160457 0.57989013 0.49780586 0.51011884 0.55148005 0.59471434 0.6088551 0.6052833 0.5056809 0.36009866 0.49377546 0.5776176 0.51564634 0.58867633 0.6467247 0.3836232 0.32986486 0.19269392 0.32277137 0.513873 0.616577 0.4125942 0.123970404 0.111139074 0.4099928 0.6528381 0.2970751 0.3032174 0.7352165 0.48065925 0.39142832 0.15355664 0.044961408 0.7301581 0.7405267 0.624458 0.50945747 0.13092406 0.7291577 0.735257 0.0661799 0.025344752 0.1708015 0.30130905 0.7374778 0.7569922 0.83955824 0.87150455 -0.111764714 0.47689757 0.7505299 0.8100484 0.87459576 0.9531524 -0.19911504 0.5209451 0.83890533 0.8875454 0.8983653 0.2094751 -0.0927615 0.041768443 0.3046289 0.3704607 0.3526974 0.39395028 0.3175735 0.07340971 0.31953606 0.31018847 0.062046427 0.14120936 0.34757406 0.10261388 0.3814839 0.40397602 0.45935762 0.3251601 0.48425 0.48003554 0.47031194 0.43544662 0.4313523 0.4881903 0.55213654 0.52991974 0.5428083 0.54238033 0.4749039 0.51560736 0.4837237 0.40723622 0.439184 -0.03222263 0.30210882 0.3534584 0.42685208 0.38457972 0.47713026 0.41154864 0.00052303076 -0.060021818 -0.049042452 0.13816233 0.2511098 0.3987012 0.45113194 -0.013684601 -0.03406849 0.031616524 0.08268047 0.39661172 0.35140797 0.48415977 0.063510686 0.3734858 0.30898973 0.56078637 0.13333723 0.016014524 0.22860502 0.1583937 0.67583805 0.2392971 0.12519586 0.12099744 0.06618418 0.65025556 0.6677148 -0.033350796 0.03801589 0.22975504 0.6759264 0.66664594 0.67883164 0.7654166 0.07118557 0.37534738 0.45073134 0.697204 0.82323116 0.15930583 -0.055842966 -0.28403825 0.46237922 0.54071957 0.56896365 0.72072244 0.15539433 0.014101945 -0.28018028 0.56584024 0.5700079 0.57447726 0.7275899 0.7717019 0.76291716 0.70813125 -0.20257239 -0.19861586 -0.190281 0.20529939 0.4766454 0.55148333 0.561099 0.86156976 -0.21957295 0.3671942 0.31095424 0.13679397 0.16574965 0.17427242 0.20982835 0.29237488 0.23234501 0.35338637 0.19781461 0.39583138 0.1492194 0.19557835 0.2283082 0.41045168 0.4023478 0.18028355 0.4031967 0.4201103 0.40863746 0.38024533 0.41151613 0.33288467 0.57590514 0.62003744 0.5327926 0.57680637 0.46869737 0.4187764 0.40679663 0.48582447 0.5182891 0.48657516 0.33935326 0.20481576 0.20897356 0.17487052 0.12553258 0.5649524 0.507725 0.41897148 0.13931894 0.17528692 0.15903722 0.07816989 0.48495817 0.34795773 0.06964971 -0.020595014 0.059496533 0.11173986 0.20813946 0.4122237 0.028492086 0.046422295 0.009709448 -0.110073924 -0.03329242 0.008401377 0.3225015 -0.090374306 -0.10774461 0.33864743 0.3023501 0.30670235 -0.09792715 0.29323584 0.23864938 -0.03651534 -0.34541407 -0.15816578 0.37231356 -0.016391158 -0.46419054 0.10684749 -0.25124025 -0.2862845 0.10381582 0.19469734 0.5078245 -0.30255127 0.064899 0.33813947 0.6022052 0.5394204 0.1610396 0.15282156 0.42593625 0.5814837 0.08600138 0.56506723 0.63752824 0.5124948 0.14656636 0.10382305 0.5695162 0.570475 0.6650493 0.7134634 0.65042263 -0.07947141 -0.2654371 0.099601045 0.3487162 0.5320921 0.54191375 0.5621948 0.7205772 0.7396798 0.6788994 -0.25549304 -0.14189005 0.47657478 0.20795944 0.012068978 -0.100867614 0.28252932 0.1830419 0.2642849 0.2142838 0.33534873 0.24675602 0.35971045 0.26064315 0.4037862 0.22150613 0.24114141 0.38760096 0.36212304 0.19333878 0.3571627 0.29825243 0.34797794 0.2518911 0.0703814 0.10519935 0.22516486 0.70692897 0.5787384 0.6607277 0.70720226 0.7183802 0.57608354 0.6483742 0.7102331 0.6949228 0.51661247 0.6310498 0.62576056 0.60593796 0.36048257 0.36956942 0.5480532 0.5476907 0.5421686 0.6248301 0.5918185 0.4405396 0.31408376 0.37000614 0.3923295 0.32694086 0.21984096 0.2692318 0.2644022 0.16303071 0.3542023 0.43810314 0.46218765 0.44695655 0.6875783 0.66896474 0.6170583 0.50920993 0.1932318 0.21393755 0.23552418 0.2182017 0.065156244 0.12884098 0.36199754 0.39312142 0.69282746 0.7004529 0.64262235 0.4507874 0.33502653 0.18240084 0.272796 0.63521147 -0.0022229627 0.106566966 -0.19848287 0.12236924 -0.026870131 0.07154064 0.004973024 0.18151957 -0.057567224 0.024396919 0.23507048 0.15531605 -0.18043886 0.12256138 0.29982442 -0.30322573 0.19554064 0.3750923 0.16637051 0.4091046 0.4006062 0.50086564 0.53728676 0.552241 0.5660944 0.42701092 0.22868274 0.499129 0.54619527 0.57353574 0.6006291 0.5861125 0.53974164 -0.25341803 0.057490915 -0.10316263 0.37864348 0.13287504 0.008525617 -0.07081223 -0.089502975 0.25910896 0.20825377 0.1942585 0.32160115 0.24205594 0.37009794 0.27042207 0.40226975 0.2418024 0.30029666 0.21885048 0.13876453 0.302197 0.13972841 0.087865174 0.10558016 0.08862523 0.087599926 0.20394465 0.41880333 0.28849298 0.6511046 0.7062429 0.70999295 0.51026654 0.6262243 0.7210774 0.6997528 0.64847434 0.37005854 0.48672754 0.67873347 0.6123017 0.5679279 0.5581305 0.54131377 0.47529507 0.33145368 0.34016263 0.33609495 0.28020254 0.29420823 0.26323864 0.28932038 0.46318507 0.63953257 0.60251 0.55770123 0.48840314 0.3218534 0.28114095 0.27362114 0.3791641 0.38387764 0.6604186 0.654279 0.2916538 0.6727464 0.22439049 0.6269091 0.5658983 -0.03904023 0.4461027 -0.018644113 -0.19582812 -0.26511154 -0.16640273 0.03885621 0.057409063 -0.24819359 0.07042803 0.10605049 -0.044596452 0.1745013 0.13994709 -0.029806187 0.24608724 0.17537673 0.13772784 0.24956706 0.27979356 0.17572378 0.33740732 0.2738519 0.40576446 0.44697547 0.49246347 0.4528981 -0.3174862 0.36185017 0.48680902 0.4997253 0.4055475 0.3416291 -0.19408944 0.047255702 -0.18680613 0.17618582 0.848076 0.8475241 0.84151614 0.30418044 0.19775039 0.8653171 0.87440956 0.8668281 0.35699975 0.34146282 0.86450434 0.381288 0.16373196 0.36144122 0.21403703 0.10481267 0.046191882 0.0753274 0.22995716 0.20005566 0.26439518 0.50256956 0.41541874 0.3967256 0.33426034 0.30769068 0.5426301 0.5544036 0.5407409 0.42889547 0.43488574 0.49892503 0.6066175 0.68319434 0.68762153 0.5332587 0.39229572 0.6686801 0.6303507 0.5444537 0.44775355 0.5631924 0.29373682 0.43381226 0.53107923 0.53821075 0.4294171 0.33335185 0.31824642 0.32072508 0.30846664 0.2942475 0.26215914 0.10177741 0.36844403 0.598677 0.56591004 -0.045595646 0.31367022 0.6185427 0.22515926 0.5999774 0.15099418 0.51392823 -0.04656122 -0.07328683 0.40046537 0.0013133669 0.13409773 -0.1376652 0.096762575 0.10953511 0.19598493 -0.1522379 -0.24875271 0.10964071 0.1472673 0.1629458 -0.13922314 0.14113855 0.13338079 0.09367673 0.055836927 0.056910962 0.10788992 0.19259286 0.16669011 0.21695623 0.21747148 -0.008079046 0.22240487 0.23079212 0.0040844856 0.24665193 0.080065064 0.31294808 0.23613274 0.26836526 -0.32041094 0.428838 0.3619406 -0.4195193 -0.22055477 -0.2901663 -0.07887003 0.077065274 0.17426616 0.35751432 -0.03222406 -0.21580747 0.2433168 0.29696196 0.19884163 0.744578 0.7487955 0.72512454 0.21489489 -0.02734379 0.82274157 0.81585073 0.8133653 0.7589416 0.2151932 -0.016568663 0.84130824 0.8509165 0.7892146 0.26189208 -0.1527238 0.83825666 0.83282137 0.8037344 0.7404483 0.31257948 -0.12193924 0.7238511 0.7430538 0.70626473 0.6879185 0.27070197 0.18771082 0.13010812 0.09205258 0.25384754 0.12461571 0.35539874 0.34127527 0.45708182 0.38236833 0.3856223 0.5499914 0.5987859 0.46311504 0.46098956 0.45213246 0.65343505 0.6473346 0.61439764 0.55906117 0.44219977 0.38313237 0.54101956 0.4867123 0.3979873 0.27988324 0.53539777 0.6300248 0.5887262 0.5863155 0.58281577 0.61354125 0.5896902 0.5313856 0.5525241 0.5469625 0.26176643 0.2634983 0.3960632 0.43488282 0.45360097 0.34801608 0.23411793 0.2600701 0.21380557 0.11664217 0.17587721 -0.009033203 0.30058587 0.54266816 0.0136519745 0.53978217 0.42533535 -0.025097892 0.31734037 0.08128517 0.13172285 0.19934265 -0.010484107 0.20051813 0.18386479 0.17022128 0.1252928 -0.013413329 0.11228063 0.088559985 0.045027234 0.026841503 0.13022803 0.15054609 -0.086422615 0.18428522 0.2023561 -0.10710381 0.6747843 0.2581268 0.061393224 0.09276789 0.71939844 0.7252545 0.258031 0.27572596 0.24353182 0.1832001 0.04070784 0.40796503 0.41860276 -0.37987888 -0.0866856 -0.11453944 0.44417894 0.4262708 0.24976169 -0.2935862 -0.3073936 0.063474946 0.21811445 0.32094964 0.40144247 0.28937984 0.2820993 -0.13864219 0.6890416 0.5949619 0.6020999 0.278118 0.0006712023 0.062078133 0.742729 0.64624953 0.23350272 0.03783778 0.058736548 0.76879877 0.63653606 0.536216 0.19837214 0.022339204 0.079695895 0.10682026 0.74010515 0.64368725 0.5593073 0.09273053 0.5996375 0.64516395 0.6586347 0.62729317 0.19053185 0.14399974 0.06675057 0.5988241 0.6123615 0.5814427 0.10110365 0.2858632 0.11282446 0.39089262 0.30250153 0.4069815 0.43571925 0.48813552 0.5690018 0.5117489 0.5251465 0.6317398 0.74804264 0.74115753 0.6273191 0.5747168 0.75758016 0.71106315 0.68434787 0.49118268 0.4352344 0.36601654 0.56088966 0.53346395 0.15917102 0.45242792 0.45074886 0.52240366 0.47081858 0.2977462 0.3833322 0.2789983 0.22098854 0.11533759 0.15953133 0.19066268 0.13429737 0.038813815 -0.21410786 0.08836575 0.27367222 -0.06570822 0.124654725 0.32502663 0.13653445 0.2828926 -0.07972917 0.11213316 0.16588886 0.04025931 -0.11924366 0.16460058 -0.15057279 0.11130136 0.04973916 -0.02914987 -0.1013299 0.029885352 0.06846324 0.21264327 0.2257158 0.06565653 0.01518767 -0.049188226 0.19695249 0.25324962 0.2448584 0.32287365 0.093215525 0.26254708 0.3188821 0.41815028 0.4114728 0.41932386 0.13338462 -0.14016947 0.316201 0.3893399 0.47710946 0.5341459 0.56338936 0.13607275 -0.08959252 0.39503115 0.53723764 0.62783456 0.67338926 0.67507195 -0.03736885 0.14836836 -0.026684858 0.042481326 0.47568458 0.6413132 0.7062797 0.75507236 0.73777425 0.24985904 0.2011032 0.25833553 0.6054036 0.71991456 0.7786158 0.7936127 0.22625136 0.15046617 0.10030106 0.4040919 0.6265904 0.6523942 0.6988776 0.36927408 0.40674886 0.3030773 -0.18882948 0.40022102 0.4101962 0.40172315 0.3790483 -0.21961072 0.3621297 0.35310915 0.16317701 0.2531735 0.24739416 0.3228101 0.28131884 -0.10963151 0.115484744 0.18142842 0.2628761 0.31022152 0.4589715 0.2819451 0.023737172 -0.041817248 0.37685212 0.15599918 0.13092501 0.13984428 0.37813935 0.1760557 0.21281673 0.4874965 0.4715775 0.008273911 0.18069077 0.23810446 0.40155736 0.5096514 0.5468174 0.014544081 0.22290051 0.44825053 0.49962407 0.5189047 0.50620633 0.06332056 0.054660767 0.20053315 0.10610455 0.45288247 0.3481334 0.5587039 0.47967196 0.58801675 0.6497755 0.62298745 0.6874597 0.69945323 0.68787134 0.82006323 0.8232255 0.77243423 0.7532737 0.46094352 0.36283493 0.2687935 0.18320277 0.20124805 0.23663622 0.2009153 0.5192377 0.39571428 0.15329269 0.05677487 0.20010024 0.4218094 0.32173702 0.20791905 0.27550077 0.2039609 0.104049385 0.011743233 0.040804546 -0.15206544 -0.11314702 -0.24514648 0.19174111 0.13003014 0.16607639 0.21329093 0.14800295 0.1871157 0.09983332 0.1212994 0.100588135 0.07572996 -0.015006967 -0.023582391 -0.02032116 -0.009593241 0.00059476495 -0.15869434 0.04670242 -0.1616021 -0.1760378 0.097958304 0.13658336 0.17955121 -0.10616771 0.106557064 0.17928527 0.20197678 0.20692068 0.07736622 0.057385243 0.27314964 0.075904176 0.059913732 0.121811196 0.3695179 0.41628045 0.074623525 0.05334811 0.2293396 0.27919275 0.5036902 0.5240015 0.09881043 -0.13036887 0.30073446 0.35154146 0.5606679 0.46362704 0.101554334 -0.05271519 0.009162093 0.45738292 0.5803208 0.569753 0.08474702 0.12695403 0.19570316 0.5199748 0.5610622 0.7442792 0.14152582 0.19440606 0.17132294 0.3450762 0.5684223 0.60435224 0.6921356 0.76479423 0.27488214 0.27523747 0.2888069 0.7407447 0.756193 0.747439 0.26660985 0.18871655 0.13495937 0.15282586 0.40187344 0.0049643517 0.29132915 0.69767463 0.71940553 0.71408975 0.3496351 0.27920145 0.17572518 0.17335099 0.3129571 0.2920707 0.27095497 0.19136086 0.17312452 0.22700098 0.20689605 0.2856422 0.54816103 0.43311542 0.29985285 0.2557579 0.046468064 0.109440066 0.1344587 0.7276442 0.44442526 0.2741054 0.16649462 0.09161902 0.3152093 -0.051997274 0.25483006 0.224278 0.2201963 -0.037125513 -0.14987658 0.2822631 0.3425282 0.33150983 -0.08345821 0.28507155 0.29758775 0.2696296 0.32270026 0.25767356 0.3188969 0.3738292 0.20307957 0.415694 0.4238406 0.44440946 0.4286471 -0.02269432 -0.020400211 -0.038246505 0.4113349 0.47301212 0.48111814 0.2546835 0.27935466 0.5667654 0.66855717 0.6936835 0.7490214 0.75692225 0.7850898 0.7623395 0.771457 0.7773278 0.9434613 0.90686005 0.8385749 0.7045012 0.89397323 0.86074424 0.81863475 0.6942706 0.84539807 0.81725514 0.78072155 0.6846487 0.781023 0.7534729 0.43582308 0.44842723 0.24845287 0.27914262 0.315299 0.37728298 0.41346955 0.39892203 0.26483408 0.21490173 0.24692672 0.26670533 0.21862757 0.37639606 0.39960596 0.20282102 0.3346386 0.11497252 0.28138092 0.18726036 0.04868707 0.055079576 0.10815869 0.2319112 0.1468031 0.3134899 -0.25655523 -0.26461834 -0.11614668 0.1867107 0.21850206 0.21553025 0.2067988 0.04886486 0.06737177 0.1977093 0.19760846 -0.014766559 0.13551493 0.11591281 0.04972335 -0.03943418 -0.19426799 0.020227026 -0.1337885 0.12381695 -0.014191831 -0.0549619 0.18384808 0.18665427 0.10281502 0.062090494 0.16883768 0.11134979 0.1857074 0.100247025 -0.54962015 0.32229954 0.326307 0.08246574 -0.63906145 0.16787948 0.31009692 0.08940886 0.108355805 -0.4644041 0.1898664 0.34654135 0.27765873 0.101241365 -0.14814098 -0.05525212 0.18803899 0.3749075 0.01421795 0.05197176 0.08533523 0.08581081 -0.3390696 0.013929069 0.003161855 0.058318175 0.24557133 -0.0772544 0.41429955 0.4641331 0.76036525 0.745149 0.71546084 0.06900026 0.24299301 0.25411832 -0.0084659755 0.71151096 0.70486903 0.66687536 0.46737683 0.34453827 0.30421382 0.197163 0.11356753 0.105036244 0.19457823 0.26054692 0.29376948 0.16859289 0.05801969 0.6009258 0.65611476 0.62416553 0.77514946 0.60093904 0.35522327 0.22703528 0.2844723 0.15940703 0.13344648 0.13763836 0.5520624 0.5473318 0.5531291 0.42945433 0.89185244 0.84103405 0.7156105 0.14171039 0.112306744 0.05898778 0.03926009 0.06870961 0.083599605 0.17575352 0.22099665 0.43853265 0.48778546 0.6150325 0.7173333 0.8786297 0.7431451 0.12289085 -0.006263569 -0.0108258575 0.028946608 0.0639243 0.110856816 -0.010877214 0.14293572 0.18339367 0.47867423 0.6248987 0.70817184 0.7475531 0.679037 0.0917639 0.22205749 0.52026075 0.5711053 0.61333525 0.6789527 0.26109487 0.14799173 0.19491532 0.17905542 -0.19962719 -0.2213421 0.2541844 0.5772991 0.31990683 0.29225743 0.30076295 0.24526438 -0.15975761 0.29269797 0.18235816 0.20606038 0.22992727 0.3950119 0.37005913 0.34457377 0.27155995 -0.12771067 -0.07219123 0.07412037 0.18958282 0.23189811 0.43537194 0.41095132 0.35474718 0.4133178 0.35443154 0.44322467 0.49601972 0.5151303 0.48476553 0.42597818 0.33854324 0.4619651 0.5209136 0.60009193 0.54482394 0.48056066 0.5043045 0.48836467 0.42733598 0.64953065 0.689373 0.6832793 0.618595 0.69652796 0.7216634 0.7613833 0.517941 0.5562002 0.8553499 0.69337475 0.57541907 0.42125928 0.97291934 0.66942716 0.89382213 0.5865605 0.3002193 0.83190763 0.8163342 0.5809388 0.4910547 0.35956112 0.3285434 0.3842505 0.8120152 0.79122293 0.7370789 0.596467 0.41309312 0.43003762 0.61191607 0.7089226 0.71568227 0.7607789 0.7930877 0.7978895 0.33658388 0.3891238 0.44170678 0.46647978 0.3603533 0.29872298 0.3209303 0.45914793 0.46688765 0.3084001 0.33560863 0.40384954 0.4534745 0.29779246 0.29381776 0.2580225 0.21011953 0.062082764 0.22679716 0.26829982 0.35305482 0.32329243 0.334517 0.3716324 0.31296182 0.27805293 -0.09529515 0.042482506 0.3286997 0.13524604 0.08849618 0.13626269 0.17794652 0.82680804 -0.002276495 0.16328023 0.8269764 0.816275 0.73273885 -0.1277217 0.7985213 0.7612593 0.73115873 0.64424074 -0.04249537 0.5942211 0.6369779 0.636265 -0.21794246 -0.06020884 -0.04486896 0.43447912 0.5757637 0.60211146 0.580347 0.030249378 -0.1148413 0.06117175 0.06869259 0.19276486 0.48760247 0.5098082 0.52089113 0.18726513 0.1732258 0.049605325 0.0079999715 0.37383115 0.42143196 0.4340827 0.14932589 0.120065145 0.03980732 0.15898803 0.10620336 0.15419501 0.1481852 0.057233837 0.08736585 0.14569667 0.19877076 0.14225367 0.08668503 -0.41847575 -0.63985634 0.17967406 0.13181433 0.18954444 0.14812054 0.12043665 0.15536754 0.11818924 0.06772801 0.19305348 0.54567164 0.5960463 0.031053513 -0.26174247 -0.26994202 0.3514653 0.7476975 0.5737827 0.49303102 0.27757668 0.14738257 -0.032894686 -0.058310457 -0.13724542 0.4653889 0.7478471 0.66671544 0.32330084 0.28837368 0.10287607 0.082323164 0.055002227 -0.12668158 0.40551203 0.4743377 0.8967967 0.81132984 0.18626156 0.18254328 0.38564616 0.31786454 0.6980426 0.7376064 0.92868817 0.08079612 -0.09613421 0.042154163 0.2437798 0.24589618 0.24983409 0.33511513 0.37860548 0.38239264 0.3959103 0.30733505 0.6617176 0.7325727 0.80716705 0.94541985 0.88480204 -0.07113701 -0.026102617 -0.16264404 -0.15947522 -0.0615689 0.11535306 0.2006643 0.26161364 0.28559533 0.29797906 0.30391508 0.39040947 0.7978358 0.7234819 0.6213299 0.029621527 -0.008297339 -0.07552708 0.17383288 0.08542541 0.5070663 0.5244793 0.6286398 0.72697675 0.8286767 0.5392223 0.3415707 0.2567583 0.10042003 0.04815727 0.014505073 0.09418065 0.036584362 0.21498594 0.52649844 0.5811318 0.62608683 0.6593158 0.14512023 0.11095521 0.14892468 0.15261643 0.124758005 0.121564284 -0.108382374 0.17175429 0.23421189 0.60474426 0.64402497 0.16267158 0.16425145 0.14801121 -0.107623 -0.05197697 0.036747 0.10912274 0.22189024 0.22366612 0.3004697 0.13493672 0.014469519 -0.07237287 0.23184237 0.38856098 0.4328245 0.3085365 0.13975358 0.4475221 0.45107374 0.43103862 0.3899855 0.32760638 0.4056303 0.26675197 0.7967329 0.5144521 0.036057234 0.83926964 0.27950755 0.8916813 0.32735336 0.335265 0.3803996 0.83489627 0.3534574 0.4020657 0.419865 0.46786714 0.81673443 0.7785468 0.692726 0.50472134 0.41317475 0.55298734 0.6061818 0.6424061 0.39171678 0.30158448 0.6186