# vtk DataFile Version 2.0
Really cool data
ASCII
DATASET POLYDATA
POINTS 7787 float
0.3676738 24.041971 20.060661
0.2805447 23.994616 20.656565
0.2957462 24.030014 21.123604
0.3504628 24.735155 19.657864
0.17391875 24.58471 20.593561
0.27353388 24.546104 21.291927
0.39244562 25.77669 19.196693
0.21089122 25.732483 19.68688
0.14069659 25.561098 20.445631
0.3122264 25.356775 21.160791
0.35901415 26.406458 19.207335
0.26464492 26.502935 19.600548
0.25497073 26.450329 20.289968
0.36296624 26.89424 19.62973
0.35823056 26.907694 20.13218
1.3425908 23.035444 19.592758
1.1970383 22.962395 20.442562
1.0888289 23.210693 21.32834
1.1105173 23.826889 19.235806
0.76981115 23.914618 19.531769
0.5518559 23.607018 20.67422
0.5879859 23.732243 21.373627
0.840619 23.834719 21.83861
0.9347471 24.511955 19.015491
0.52328527 24.99492 19.608456
0.47978288 24.336979 21.656897
0.70193845 24.501776 21.858553
0.86233914 25.566875 18.732565
0.59165776 25.437553 21.465
0.873634 25.128075 21.88002
1.1959591 26.136663 18.398733
0.73716426 26.403543 18.829473
0.70815456 26.35185 21.051125
1.0211712 25.80291 21.67858
0.90515435 27.029734 19.02232
0.6891986 27.162085 19.576048
0.7110692 27.157995 20.257166
1.0664331 27.03288 20.915272
2.404815 21.482393 19.075748
2.145165 21.66154 19.840593
2.1581676 21.637714 20.43858
2.0898051 21.864462 21.33022
2.0281634 22.791765 18.657244
1.676975 22.687262 19.402798
1.526487 22.470922 20.439213
1.7497227 22.595228 21.73104
1.8410856 22.858124 22.081688
1.8931179 23.908667 18.264765
1.6251677 23.537025 18.695093
1.5868413 23.62871 22.297558
2.2357466 23.53302 22.614614
2.0439172 24.356503 18.190872
1.5001497 24.345741 18.559278
1.4774109 24.312616 22.251747
1.7839745 25.554066 18.25295
1.3200891 25.47327 18.495602
1.5612386 25.27924 22.046516
1.668957 26.421347 18.281849
1.2444884 26.693121 18.530704
1.2906563 26.675493 21.18033
1.6513206 26.032211 21.674253
1.4211924 27.19072 18.842474
1.197091 27.441261 19.297398
1.3136606 27.44702 20.311186
1.2564542 27.029144 20.901415
1.5018814 27.613354 19.768036
1.5441736 27.60149 19.994177
3.2907505 20.102806 19.80731
3.1809325 20.192942 20.014124
2.9324126 20.979158 18.730087
2.7749019 20.852207 19.283924
2.6931086 20.899067 20.103313
2.947343 21.0174 21.325031
2.7717323 21.74655 18.290869
2.6062782 21.6799 18.554085
2.464193 21.415257 19.343973
2.4783797 21.374208 20.750654
2.4493215 21.497593 21.48879
2.7388573 21.809246 22.154106
2.7357783 22.309074 18.167767
2.429442 22.38089 18.42375
2.9343007 22.262026 22.578321
2.768135 22.942942 22.835829
2.6479359 23.518345 18.003769
3.0162566 23.18548 22.994755
2.6221952 24.36611 18.055857
2.3605678 24.499292 22.507933
2.3961742 26.391691 18.224182
2.3621106 27.23002 18.72559
2.188363 27.376919 20.286524
3.4453762 37.93481 18.776587
3.4610877 38.303818 18.903877
3.477721 38.228714 19.293818
4.2872324 19.09102 19.133076
4.1761 18.961115 19.655659
4.14862 18.983461 20.41396
4.2049522 19.017426 20.883013
3.7028105 19.915556 18.933222
3.744047 19.586826 19.527683
3.7597456 19.48577 20.397636
4.0263944 19.753368 21.35521
4.09659 20.081352 21.773487
3.4322572 21.03024 18.23888
3.3258717 20.629536 18.722141
3.8442674 20.929512 22.202316
3.5780706 21.553774 17.9637
3.5487459 21.317053 22.294363
3.459816 22.122309 22.714203
3.3770676 22.386345 17.903294
3.713517 22.51988 23.178448
3.6390684 23.300964 17.92248
3.50983 23.335646 23.378637
3.905741 23.802912 23.588095
3.4598565 24.379929 18.085127
3.6727774 24.513186 23.351273
3.3312902 25.301327 18.280573
3.5205152 25.55938 18.587202
4.0134745 25.728415 22.84563
2.993785 26.321146 18.302435
3.0878823 26.753593 18.557451
4.2048073 26.834146 22.502924
3.8614595 27.16159 21.88928
4.207905 28.398256 20.540394
4.1470566 28.223612 21.355398
4.3348365 28.238707 21.921349
4.416886 30.971642 30.811796
4.372309 30.981089 31.376545
4.3843265 31.776327 30.231802
4.2705097 31.522007 30.720505
4.2585735 31.557844 31.424139
4.3927517 31.501324 32.027485
4.3093925 32.156803 30.70338
4.2960367 32.10225 31.434786
4.3907185 32.12776 31.935919
4.2671986 33.929363 24.863018
4.101078 33.92717 25.41755
4.1360836 33.860863 26.18101
4.28997 34.067547 27.335373
4.3482256 34.94034 24.016867
4.078349 34.886574 24.559721
3.7133284 34.68064 25.555973
3.7057278 34.788284 26.24494
3.9575267 34.706074 27.300373
4.290824 34.815247 28.392754
3.9433956 35.40819 24.775772
3.6600256 35.42349 25.600517
3.6759071 35.402905 26.403286
3.879258 35.520645 27.491488
4.173938 35.44327 28.2828
4.033288 36.890797 17.951262
3.775395 36.9954 18.700274
4.061085 36.755085 19.488752
4.3122168 36.722725 20.34312
4.131277 36.39297 24.865643
3.9675467 36.435795 25.520838
3.8780494 36.297123 26.394453
4.021719 36.42343 27.317453
4.237117 36.137726 28.167599
4.27044 37.700096 17.158937
3.9160168 37.48056 17.780819
3.5976593 37.641273 18.585363
3.615705 37.66408 19.38525
4.0889087 37.454163 20.365976
4.341087 37.64375 21.077646
4.212762 36.91086 25.556473
4.1983232 37.02127 26.56284
4.309359 37.06413 27.178066
4.2119746 38.540527 17.091501
3.7665272 38.38715 17.870216
3.568626 38.40155 18.526344
3.642524 38.45745 19.462368
4.0707817 38.468292 20.139698
4.4494963 37.953403 21.08187
4.242868 39.102077 17.180817
4.1273646 39.2463 17.618917
3.9230304 39.209415 18.585585
3.918613 39.070568 19.327246
4.128248 39.012295 19.915785
4.716094 18.381115 19.948713
5.016927 18.274282 20.766956
4.6593165 18.867828 18.956106
4.558361 18.68322 19.480978
4.5645895 18.561512 20.267565
4.7283125 18.703812 21.156551
5.085198 18.986586 21.88133
4.6235003 19.654509 18.351551
4.517237 19.650074 18.482574
4.334784 19.455631 21.488031
5.163033 20.175503 22.468513
4.5726604 20.578005 18.116447
4.322463 20.30654 22.048206
4.294242 21.391705 17.856075
4.3700438 21.440481 22.835407
4.327869 22.497322 17.945742
4.4297957 22.554842 23.335438
4.432231 23.296535 18.180613
4.311829 23.442757 23.726618
4.0838885 24.247904 18.119661
4.6471004 24.440578 23.806269
4.813408 25.37234 18.82818
4.7998786 25.278288 23.741446
4.040891 25.872025 18.6883
4.767136 26.359863 23.26872
5.1886826 26.234072 23.68497
4.469068 27.395653 22.633017
4.4719577 27.37634 22.674791
5.0251007 28.474264 19.056108
4.7575917 28.220459 19.38378
5.1445055 29.260466 19.082262
4.7550826 29.450243 20.430895
4.77437 29.20191 21.251371
4.8614373 30.280766 31.00395
4.890075 30.193419 31.461155
5.1450734 30.190207 32.018707
5.1078324 29.9546 20.024603
4.889457 30.920065 29.921753
4.743871 30.64687 30.414658
4.6494985 30.618086 31.539232
4.7750993 30.858767 32.292282
5.4165807 31.9372 20.62219
5.100975 32.064465 26.019423
5.178562 31.943956 26.31918
5.38829 31.846954 27.320158
5.4555635 32.02255 28.866213
4.6338396 31.554026 30.001362
4.596526 31.550652 32.314293
4.902042 31.663343 32.848595
5.0927978 32.756187 19.772861
5.138213 32.62447 20.32884
5.3472724 32.776882 21.480791
5.372016 32.91887 22.253393
4.995328 32.901566 24.778225
4.81394 32.6555 25.557524
4.7720766 32.590744 26.363594
4.9777436 32.820744 27.059254
5.394261 32.792454 29.400877
4.4798145 32.60268 30.677124
4.5346932 32.444195 31.679619
4.765332 32.301437 32.358765
5.14315 32.36043 32.839165
5.0676727 33.190346 19.193924
4.8235745 33.438717 19.7396
4.755874 33.703506 20.4816
4.836543 33.8859 21.284609
4.9718003 33.763557 22.897938
4.8891687 33.78895 23.597895
4.6232395 33.546947 24.853708
4.8151517 33.291153 26.81194
4.6668196 33.86511 27.658426
5.3192706 33.519512 30.572435
4.6785727 32.811813 31.340889
5.107493 32.920223 32.072357
5.4545226 34.572598 17.262653
5.066466 34.72265 19.143507
4.8524613 34.49362 19.582245
4.612786 34.997574 21.305738
4.867421 34.514034 22.484545
5.3568063 35.419712 16.476854
4.697525 36.24161 17.685286
4.450254 36.17916 18.20933
4.6505833 35.78168 19.165745
4.6879735 35.8981 20.585812
4.8053484 35.501007 22.77677
4.5468497 35.852734 23.683897
4.4188743 35.465244 28.638561
4.5844975 35.541996 28.850916
4.941877 36.735138 16.989733
4.689073 36.40725 17.531973
4.795667 36.347942 22.216331
4.774538 36.389214 23.313625
4.5248075 36.202023 28.449497
4.8768406 36.162304 28.75773
4.654167 37.872 16.769749
4.589471 37.785183 21.688643
5.0301847 37.04977 22.995378
4.7287164 37.08799 24.85324
4.5317655 37.283234 25.866283
4.650334 37.523968 26.649721
4.6147585 37.34403 27.462763
4.746649 37.119614 27.973822
5.0762496 38.771496 16.35197
4.6694264 38.576073 16.670837
4.6916485 38.406918 21.316181
5.141281 38.3578 22.049528
4.986176 37.629948 25.849993
4.9962997 37.78808 26.540007
5.055461 37.81176 27.305742
4.836195 39.323246 16.754284
4.3484373 39.603245 18.70229
4.4624205 39.468697 19.616583
4.7204604 39.306755 20.191925
4.976768 38.886555 21.129078
4.929712 39.91016 17.106411
4.868299 40.058273 17.55814
4.699667 39.93576 18.25497
4.776396 39.78705 19.283384
5.2645826 18.421818 19.168247
5.556189 18.299564 19.600096
5.275862 18.240284 20.663
5.467649 18.319464 21.13204
6.468392 17.484846 24.45488
5.23731 18.892935 18.610456
5.696426 18.443386 21.627403
6.4597554 18.533545 23.597971
6.4368544 18.923292 25.057787
5.584938 19.807453 18.10649
5.8394713 19.63494 22.87196
6.407273 19.248308 24.542345
5.9922857 20.60048 17.827194
5.340846 20.92412 22.78331
6.1949415 20.628077 24.57878
5.6064324 21.730402 17.84806
5.618749 21.78098 23.681177
6.081342 21.61296 24.39485
6.389078 21.810217 24.743832
6.263389 22.267946 17.744791
5.9728684 22.312796 24.050955
5.3349323 23.00563 18.242226
5.9859858 23.786913 24.547857
5.5713797 24.553291 24.367538
6.0204687 24.224937 24.96454
5.377218 25.181341 18.855791
5.999996 25.138803 24.721392
5.338532 26.606682 23.659771
5.515273 27.632006 18.67392
5.7793655 27.559631 23.45592
6.492436 27.384604 30.704119
6.0485916 28.260551 18.333187
5.5575304 28.182245 18.637617
5.562577 28.565613 22.799042
6.3077927 28.819483 30.857433
6.1542387 28.926296 18.453392
5.852294 29.274797 18.781113
5.7631626 30.074366 29.99203
5.460926 29.680716 30.717512
5.505008 29.736193 31.67207
6.030719 29.715765 32.220818
5.491379 30.16913 19.385244
6.2378664 30.740189 21.669773
6.040714 30.82488 28.609312
[...]
POINT_DATA 7787
SCALARS features_00 float 1
LOOKUP_TABLE default
0.6093867 0.6497019 0.6638459 0.64617574 0.711265 0.69913685 0.7395078 0.7786265 0.8113079 0.75275695 0.8074216 0.84092367 0.8579902 0.8590114 0.86294514 0.4495718 0.5077201 0.5581795 0.49201122 0.5342128 0.6033624 0.6246152 0.60251 0.5453408 0.6647812 0.65904504 0.6393719 0.65875715 0.70974815 0.64135194 0.7026901 0.7768854 0.77574015 0.6631826 0.83327496 0.86236185 0.8503231 0.7865206 0.4037972 0.38759202 0.39165527 0.4209085 0.420842 0.41506964 0.45054793 0.4600378 0.43775785 0.46264273 0.4453682 0.48796266 0.3750574 0.48594823 0.49865296 0.53169006 0.58981586 0.6118446 0.5392165 0.70541847 0.7723216 0.7119961 0.54833806 0.82947206 0.8605712 0.8211311 0.7656951 0.8471223 0.82843065 0.4189806 0.4071132 0.4257726 0.4045052 0.38093424 0.36357358 0.43174076 0.42369083 0.396376 0.38587973 0.39036298 0.3424557 0.4347663 0.42774737 0.2993387 0.300233 0.4403216 0.27185953 0.45686215 0.3600477 0.59820616 0.75076824 0.7083737 0.5989939 0.6214873 0.58806515 0.48293734 0.48126596 0.47250515 0.45510685 0.45213175 0.45626283 0.44921887 0.37063247 0.2801942 0.44140136 0.43727195 0.22516792 0.42503434 0.2530111 0.24554172 0.4140259 0.2077233 0.35420206 0.2220163 0.18110652 0.33998978 0.18575118 0.3442397 0.30170614 0.12160443 0.46435392 0.45258927 0.1745879 0.18713029 0.38608596 0.2960195 0.31365627 0.5856442 0.6054093 0.5972472 0.6157632 0.6267056 0.61660004 0.6267138 0.62332267 0.6064852 0.2966519 0.34968224 0.37505293 0.42798385 0.27191812 0.35396916 0.4519137 0.50304365 0.530093 0.55879426 0.4211776 0.52439314 0.5816715 0.6238767 0.63508224 0.47995937 0.49775544 0.44077206 0.39068073 0.43608662 0.5153132 0.60286385 0.67080325 0.6810509 0.5289053 0.5541992 0.57428503 0.54634285 0.48370415 0.4342218 0.4990592 0.60035354 0.6790194 0.64471495 0.67004347 0.6533678 0.5818408 0.5197076 0.44415033 0.7135992 0.75329745 0.6935598 0.6019082 0.53085774 0.49188027 0.47566807 0.4925316 0.49281532 0.4854967 0.44524875 0.33516198 0.43987072 0.45248067 0.36952746 0.15087402 0.35568222 0.21665934 0.33389908 0.12901542 0.26012823 0.118170954 0.20899987 0.13396868 0.23712572 0.106563985 0.07482474 0.095598966 0.19976647 0.13213739 0.09903429 0.20432535 0.20082778 0.28721216 0.35028327 0.27945706 0.3990195 0.35518852 0.5109824 0.51777154 0.49888217 0.2979238 0.47660047 0.51672065 0.5747272 0.58377755 0.13814136 0.19792303 0.18147954 0.09443791 0.28490847 0.5524497 0.6018527 0.54612994 0.21769783 0.20202576 0.094087526 0.023362122 0.18962544 0.24177627 0.251467 0.22577791 0.5419189 0.61501735 0.59590685 0.5663567 0.49955803 0.18829983 0.21824615 0.21372263 0.16942549 0.075589575 0.12724307 0.24622083 0.29826206 0.358999 0.4645633 0.57569456 0.50959945 0.24419057 0.15125628 0.18513624 0.1272897 0.11579341 0.3794082 0.32724923 0.33790863 0.25546747 0.20333125 0.14174086 0.24990389 0.63527423 0.6333877 0.36544678 0.354281 0.19948238 0.21481743 0.6935487 0.68784356 0.49432456 0.38716003 0.30860817 0.4098013 0.53305125 0.6317247 0.7329833 0.75935125 0.5899102 0.5974449 0.42420083 0.35950953 0.54276425 0.64468193 0.75331926 0.6885537 0.68116635 0.5426424 0.47028315 0.41532576 0.71624744 0.74129313 0.72673607 0.5686321 0.5005099 0.48835957 0.47588772 0.44698122 0.63754135 0.48845583 0.36193812 0.41916585 0.4576311 0.32476056 0.0319625 0.36784723 0.15291807 0.053551763 0.12517768 0.09454347 -0.045515582 0.039069764 0.09262222 0.037519023 0.005584184 0.052205503 0.09599647 0.106910355 0.14655605 -0.047473922 0.12884887 0.09943402 0.1943812 0.09718534 0.3569122 0.18694812 0.23048769 0.18789178 0.14811473 0.19596921 0.22334343 0.29827106 0.36156026 0.39026856 0.2544095 0.20621431 -0.22140568 0.048201855 0.3303068 0.082901746 0.12455462 -0.034932807 0.14829749 0.10489252 0.06614417 0.43218893 0.10074869 0.18434753 -0.01282208 0.0032450706 0.37695962 0.51705414 0.40781063 0.22430527 0.12304195 0.413985 0.45526427 0.40566188 0.49290198 0.41319335 0.336685 0.31885704 0.45825988 0.4453513 0.58784735 0.37940246 0.36167693 0.70283437 0.31523448 0.2273598 0.32483745 0.508933 0.7877878 0.73267317 0.5384182 0.3176024 0.24223024 0.5519433 0.6996335 0.7980759 0.81477386 0.6218002 0.662984 0.39806715 0.38278893 0.32428652 0.66421074 0.6699621 0.65491307 0.50741404 0.39082372 0.3455337 0.89521563 0.89910793 0.9017966 0.74552745 0.7534772 0.6740509 0.73458314 0.71551764 0.7178242 0.45602807 0.45853686 0.40718257 0.3426824 0.34663767 0.34389222 0.62856925 0.65221983 0.6467309 0.6388315 0.37570575 0.42474988 0.41917926 0.5348078 0.5425428 0.1009373 0.4323893 0.46344942 0.07040428 0.30828077 0.06263275 0.16777277 0.08281291 0.05377139 0.1500276 0.11688801 0.15325871 0.092675745 0.17074957 -0.27956 0.13993444 0.4997881 0.4189508 0.30968162 0.17970699 0.013728116 0.06361381 0.4763313 0.51813173 0.41389984 0.32202393 0.2037987 0.18541068 0.051481545 -0.15327823 0.40110922 0.3916607 0.17523415 0.1987271 0.2618409 0.17361772 0.035365865 0.2555923 0.118045166 0.22744489 0.3760422 0.38055426 0.15334664 -0.1676769 0.091003254 0.18642664 0.33051157 0.40149266 0.036677167 0.03355001 -0.30907744 -0.35202277 -0.2456543 -0.09416175 -0.08580612 0.32012355 0.32320827 0.39155513 -0.07036747 -0.27587086 -0.33269796 -0.16454634 0.25986946 0.33151007 0.35931197 0.48361263 0.32054713 0.13238813 0.26319185 0.30364203 0.53428954 0.51763403 0.28180063 0.28941846 0.517221 0.24706769 0.23692895 0.2538917 0.27556705 0.30472755 0.41805464 0.41005406 0.5949187 0.38408482 0.3669235 0.6446845 0.2671346 0.16203277 0.7435606 0.21709391 0.15608564 0.71014726 0.7966403 0.77543783 0.58980936 0.2914236 0.23340833 0.5547564 0.43788087 0.4116763 0.34497365 0.85090196 0.832204 0.8187677 0.8859947 0.87641454 0.8682293 0.85480034 0.8851112 0.9003954 0.90853345 0.89404064 0.86223406 0.8973365 0.92167795 0.9178086 0.6380247 0.64708626 0.6362675 0.58716637 0.63513064 0.663291 0.656565 0.55612266 0.6817027 0.76478076 0.7635271 0.74628127 0.5241489 0.567595 0.57893234 0.60567987 0.49234575 0.6002395 0.7376343 0.7101197 0.4752229 0.50508815 0.48651153 0.3806532 0.19536707 0.029094767 0.2560242 0.6205113 0.52246416 0.45215058 0.45030934 0.4136585 0.15545183 0.5222802 0.46529275 0.36101905 0.32500082 0.24274391 -0.13083142 0.4142048 0.40946248 0.3707252 0.030314341 0.19101354 0.105590776 0.16452959 0.10090298 0.14132781 0.01822558 -0.029615171 0.13563658 0.32628205 0.3139487 0.1715042 0.1246333 -0.20693275 -0.35824496 0.40887135 0.3869408 0.41923463 0.22252475 0.1564601 0.17695898 0.21630518 0.3436919 -0.25255495 -0.1482544 0.020709984 0.28486288 0.385681 0.43047026 -0.036975633 -0.16247472 -0.31616715 0.37644076 0.37485898 0.46100247 0.07598631 -0.1554755 -0.19645089 -0.029211583 0.18524733 0.38825393 0.44015956 0.5149495 0.08523452 -0.13316914 -0.25042486 -0.29053342 0.44735432 0.49966693 0.4223889 0.45959857 0.24979302 0.3468185 0.3686088 0.48788422 0.4409164 0.31133902 0.49410105 0.30880398 0.3063632 0.46069843 0.027950704 0.17276923 0.24988538 0.27356172 0.3359999 0.31879044 0.4297074 0.32792386 0.2618983 0.27846628 0.33475325 0.28022337 0.29323095 0.14242026 0.38678706 0.017557241 0.10142299 0.2053472 0.49763632 0.5545105 0.6185857 0.16152117 0.0055713207 0.20248845 0.2916085 0.21411237 0.25697044 0.20973589 0.75787234 0.7620977 0.7451266 0.7774526 0.7601057 0.7803743 0.80670774 0.83452153 0.85572505 0.8237561 0.7538662 0.8582416 0.8347026 0.5876312 0.613912 0.6085047 0.8109061 0.82866096 0.5485972 0.6017374 0.6281854 0.6212369 0.53205574 0.4595263 0.5397322 0.47614002 0.55424184 0.72702926 0.76932716 0.7443224 0.47919953 0.48134577 0.47125834 0.5457412 0.6720158 0.45342636 0.1284069 -0.19769374 -0.018266127 -0.16692373 0.38274872 0.59644556 0.52519596 0.4326949 0.37148803 0.26215163 0.2987085 0.29258248 0.07505311 0.06924656 0.22587068 0.2518004 0.078962 0.057866026 0.11464478 0.2693396 0.25756112 0.1448104 0.08120483 0.025597889 0.06788663 0.24542373 0.26067114 0.27291483 0.17078196 0.15475377 0.05785343 0.07738182 0.11433392 0.12770988 0.1428716 0.20605949 0.2483039 0.2572589 0.2133505 0.064399034 0.259291 0.11027687 0.13382334 0.12507802 0.111357175 0.12609485 0.2074276 0.05081334 -0.09073711 -0.31205094 -0.009601509 0.3156929 0.20326556 0.29242957 0.3452045 -0.3708823 -0.2874505 0.42269367 -0.2922374 0.123096466 0.46016496 0.4902178 -0.11525701 -0.27968347 0.50741756 0.50511205 0.47960472 -0.04833495 0.48153722 0.16246718 0.37124968 0.3527323 0.2968099 0.37316817 0.2716863 0.3242419 0.17557317 0.30188984 0.30404517 -0.017784046 -0.017633244 -0.02256985 0.2352837 0.33319384 0.32695004 0.31167293 0.31632292 0.14758267 0.11087866 0.06247309 -0.009915501 0.098000884 0.13904525 0.12641592 0.15006003 0.11100006 0.43688226 0.38913527 0.18383323 0.15405038 0.20990679 0.23601747 0.2523671 0.21408486 0.3042072 0.47690552 0.5083009 0.55786705 0.60955 0.6076028 0.5736287 0.5201879 0.5472899 0.62980723 0.56173646 0.7264932 0.6206608 0.7038024 0.6030371 0.6802982 0.6042396 0.54736733 0.5708303 0.5525538 0.56378627 0.57432634 0.65175754 0.6247138 0.51820505 0.53426695 0.42493552 0.44018564 0.3267629 0.23544061 0.592392 0.6817665 0.39744073 0.06579467 0.3706883 0.5144692 0.66860974 0.3684985 -0.1292857 -0.11367895 0.28298718 0.7110548 0.7002814 0.64360845 0.29830238 -0.14593983 0.27210462 0.7056929 0.71409494 0.6475302 0.57690525 0.46952045 0.18375129 0.4870905 0.6064026 0.6536009 0.6192906 0.48907793 0.6478884 0.59752333 0.36447358 0.14772935 0.054379426 0.240074 0.31559527 0.55266684 0.40757215 0.64005727 0.6040402 -0.039219894 0.23144786 0.24792077 0.28369978 0.30943596 0.31637228 0.28856027 0.5997665 0.5317539 0.0016977694 0.004435025 0.1550461 0.15061325 0.19127978 0.24816847 0.27278385 0.29605573 0.27374157 0.51443696 0.37887377 -0.052971646 0.090547144 0.094675265 0.2613348 0.22850877 0.42188478 0.33859092 0.25286284 0.03506245 -0.0060135676 0.17484128 0.19501187 0.4213162 0.33670968 0.22751167 0.08414917 -0.118274614 -0.22203264 0.17866741 0.32873628 0.1530361 -0.013475157 -0.107846156 -0.56680465 0.3725788 0.4150202 -0.10818044 -0.15495254 -0.3248992 0.4299937 -0.03275913 -0.096937425 -0.45648998 0.43422443 0.41765606 0.07234505 -0.018006206 0.4248886 0.44313854 0.055413887 0.40859598 0.08853299 0.1368231 0.23822686 0.23392779 -0.04136861 0.0074469075 0.008948088 -0.08169244 0.1636016 -0.07728155 -0.07368863 -0.04773461 0.18783075 0.29281878 0.20164803 0.0786061 -0.05366092 0.0054334216 0.19196793 0.24120562 0.18734449 0.22610337 -0.15710105 0.34401545 0.36348975 0.3005221 0.2539056 0.09244017 0.34678757 0.35095236 0.2882923 0.5008878 0.44729808 0.18520516 0.15957619 0.27901998 0.5660509 0.52793014 0.49103558 0.37247914 0.25566444 0.2048635 0.19202045 0.34592843 0.48579928 0.5314747 0.55574006 0.60720706 0.5803309 0.55773014 0.52306664 0.39354616 0.3239407 0.5152476 0.5485571 0.63071847 0.6382663 0.63771236 0.6528319 0.6621169 0.6915673 0.6929244 0.68806916 0.6890846 0.6998521 0.43095285 0.39517564 0.41890234 0.41706538 0.41452277 0.43459573 0.36455593 0.4191928 0.16429116 0.33399558 0.43959042 0.37907654 0.42494893 -0.0241631 0.41134915 0.43184978 0.27639404 0.3590489 0.3427456 0.29821503 -0.052636497 -0.38972393 -0.20687467 -0.11370157 -0.029286534 0.112668455 0.3950005 0.4686491 0.62410575 0.6386633 0.60032535 0.24030066 -0.25740123 0.6360531 0.6715383 0.6566422 0.5903734 0.5024947 0.109962046 0.09932032 0.09138275 0.5617382 0.5151199 0.64752626 0.59851307 0.5316379 0.015802436 0.40401798 0.43441102 0.4197299 0.68200225 0.66924775 -0.09036275 0.14730279 0.18037796 0.18946856 0.37716255 0.4014851 0.6806344 0.6614268 -0.05288153 -0.13351946 0.1639338 0.19476667 0.27722758 0.33646378 0.639626 0.6142217 -0.13081457 0.16678454 0.26574352 0.2739029 0.5346006 0.48026574 -0.109281495 0.04193276 0.20141608 0.44774002 0.43454036 -0.02708608 0.38558036 0.39775777 -0.0998372 0.115319744 0.34796503 0.326898 0.12773208 0.24566008 0.12230498 0.06610799 0.35199535 0.13878095 0.3562402 0.110360734 0.22394805 -0.010188021 -0.035784356 -0.0011145547 -0.08541042 -0.18242028 0.03528408 0.0927555 -0.33181775 -0.08263755 -0.041768853 -0.02855875 -0.029608808 -0.19664341 -0.094130196 0.047883015 0.056208994 0.00865959 -0.20813058 -0.042319752 0.073234685 -0.12769449 -0.060024157 0.027049892 0.18054374 0.10021412 0.19346857 0.19824389 0.08147428 0.084956616 0.34770536 0.25460783 0.047772437 0.15240522 0.208805 0.040391654 -0.035676878 0.46184683 0.14483295 0.10607778 0.15991655 0.28614864 0.2799123 0.42854398 0.5414122 0.23614772 0.15793213 0.31932586 0.62727183 0.5591569 0.58694905 0.5761229 0.53563 0.29960164 0.2648909 0.26011825 0.521392 0.65964854 0.5752312 0.5395632 0.60260874 0.6334796 0.706941 0.69480646 0.6806698 0.6456442 0.686548 0.6950289 0.6946968 0.7078407 0.7007594 0.67583835 0.67764115 0.28387427 0.31861636 0.38565344 0.3777981 0.25993124 0.30495402 0.35672122 0.34841838 0.32213613 0.36318767 0.37546924 0.31027946 0.27272743 0.28264147 0.36105478 0.34814233 0.323695 0.3208132 0.20191734 0.34733433 0.27398315 0.16490252 0.023354702 0.30706713 -0.058770716 -0.06279547 0.26488662 0.2179609 0.08183603 -0.09821465 0.2796961 0.2913905 -0.007181138 0.099652946 -0.22265095 -0.12610227 0.051577553 0.10753906 0.1327144 0.28244025 0.28563955 0.20006725 0.19295785 -0.27451584 -0.1913184 -0.2963961 0.19063438 0.22890753 -0.3041051 -0.32637322 -0.26123816 -0.27397165 -0.16888705 0.16926575 0.19526786 -0.35709828 -0.2708636 -0.04765995 -0.030134082 -0.13401555 -0.17228428 0.537731 0.5233592 0.5268544 0.4447434 0.14871748 0.0074611306 -0.08114283 0.04364862 0.43626827 0.3553324 0.047880042 0.41969535 0.42387903 0.65812325 0.5990443 -0.0692207 -0.10536001 0.059437737 0.15515038 0.4229826 0.69994396 0.6903379 -0.12750116 0.08399753 0.1054008 0.42094848 0.6990615 0.12349978 0.0973279 0.3342031 0.37945712 0.6492101 -0.22225934 0.14645831 0.27273676 0.31126988 0.5316739 0.19123894 0.38621134 0.36832395 -0.060896866 0.34271538 0.28687307 0.011191121 0.1139898 0.22320601 0.2504558 0.185446 0.009591863 0.11230166 0.074231334 0.07359116 0.18266067 0.13645996 -0.068538524 -0.20854555 0.44863674 0.4580775 0.38827822 -0.23284154 0.44031397 0.46475792 0.34278256 0.13977352 -0.08358 -0.22301626 -0.37418202 -0.63218236 -0.13064282 -0.17549141 -0.22396594 0.42088085 0.4454565 0.45955515 0.4020428 0.293626 -0.38007584 -0.1968831 0.008204952 0.036901966 -0.13420598 -0.15261514 0.4441834 0.47986862 0.4555986 0.38351524 0.30475175 -0.23701124 0.15302579 0.18841289 0.27824122 0.46613562 0.42416123 0.34955278 0.106489286 -0.04264395 0.27539703 0.21916506 0.23529282 -0.059656434 0.15726492 0.18777809 0.38113543 0.36439386 0.089323595 0.29027978 0.29038906 0.2707883 0.02048189 -0.033827417 0.031717766 -0.034872703 0.009611994 0.003629312 0.0065438114 0.03700672 0.0027650297 0.8058915 0.31798863 -0.014820874 -0.086289406 0.13861401 0.10307991 0.76717836 0.8347281 0.45341533 0.14654915 0.17428681 0.08678251 0.20284629 0.12938794 0.56899965 0.51437056 0.56454 0.41144586 0.3649642 0.22919369 0.21309283 0.30017966 0.5753289 0.5678447 0.48929143 0.33556333 0.5082319 0.680508 0.6790962 0.6122267 0.64208794 0.6267872 0.64448345 0.65865904 0.64348495 0.62620723 0.6094238 0.21637264 0.28474048 0.26433706 0.4995473 0.51856184 0.5536394 0.5919862 0.3857295 0.38174587 0.3425331 0.31611544 0.092983894 0.43404844 0.45970356 0.46691003 0.5239507 0.5287252 0.3599359 0.36384815 0.13542476 0.23908147 0.31409797 0.34579247 0.33607826 0.37146693 0.4271549 0.37255248 0.123665385 0.17494208 0.20792215 0.23503536 0.36852497 -0.03175226 -0.011404216 0.024320759 0.058244262 0.2594555 0.25938374 0.2624697 0.2729049 0.01588576 0.09266667 0.18379508 0.27769512 0.28855455 0.26689795 0.25508037 0.31443983 0.07729949 -0.12841347 -0.12404031 0.065272614 0.11786498 0.1974284 0.2804055 0.11324769 -0.18710944 0.053549215 0.11835669 0.17211764 0.22588168 0.27326238 0.22402743 0.10412112 -0.23650391 -0.029595152 0.13101833 0.22497973 0.21000704 0.19377747 0.27578837 0.25310162 0.11905796 -0.10352793 0.14787062 0.15573034 0.3165545 0.31994694 0.32117164 0.31547737 -0.0050793844 0.08363975 0.088600084 0.10226032 0.3605056 0.34833494 -0.047480263 -0.20333953 0.4027186 0.38008547 0.5299035 0.17991301 -0.055291794 0.4041239 0.40990886 0.68368566 0.59554356 -0.13757433 -0.21433747 -0.05446747 -0.0450351 0.431104 0.6940149 -0.015387321 0.42438602 0.63116354 0.45429224 0.22331426 0.42740244 0.15475187 0.35688615 0.31134403 0.1202725 0.28200713 0.21464908 0.19502881 0.23798081 -0.020874456 0.25527012 -0.015213639 0.22723101 0.02583041 0.045513578 0.07662747 0.1604751 0.009158894 0.05254136 -0.24904758 -0.24019243 0.36483568 0.39578292 0.36404753 -0.015810382 -0.20220527 0.34202328 0.3954683 0.4178905 -0.16179195 -0.14886458 0.34769833 0.39727384 0.01701931 -0.22480842 0.37583506 0.38656878 0.38742006 0.10273486 0.024251886 0.34236234 0.37334853 0.35627264 0.37405667 0.2497395 0.2237266 0.08801438 -0.09683461 -0.28019702 0.17969882 0.3192941 0.31980175 0.30110824 0.3682335 -0.01621136 0.20037363 0.27121407 0.24824272 0.20276418 0.16579445 0.041035052 -0.11960101 0.23432481 0.28372556 0.3484773 0.3178721 0.2128054 0.28346902 0.29817092 0.2997064 0.26950532 0.16758879 -0.107457444 -0.051980406 0.27480918 0.68900335 0.790428 0.8147552 0.13010022 0.080834135 0.05616372 0.21550378 0.24617659 0.28894535 0.28530163 0.26605266 0.24078685 -0.00023832917 0.72840303 0.8295531 0.85675275 0.86955345 0.08348506 -0.049517706 -0.11492833 0.10374022 0.2133545 0.2445594 0.25152948 0.092883386 0.122872785 0.5204688 0.7312009 0.8409935 0.86717296 0.8648025 0.29317826 0.041852638 0.13899703 0.16952027 0.22735046 0.5260845 0.5962218 0.719396 0.80783 0.8358971 0.8490053 0.41169843 0.44673848 0.3405518 0.1805543 0.25634158 0.26616183 0.20786484 0.08472228 0.6164038 0.5561637 0.61383784 0.7663859 0.5033872 0.53237265 0.47241342 0.40385193 0.11791918 0.57281744 0.3324744 0.5087273 0.5406729 0.5728737 0.5494845 0.5630627 0.5405219 0.53988135 0.55763245 0.61892116 0.2634957 0.15481919 0.10334146 0.12035831 0.16311121 0.15060759 0.37794453 0.49536735 0.52235407 0.54232645 0.59717655 0.633108 0.6281432 0.3591311 0.33276063 0.23543209 0.15133981 0.06754178 0.12471706 0.08866443 0.080646716 0.53962564 0.29382795 0.32536262 0.3418097 0.3654269 0.29044095 0.14449044 0.2711535 0.34652948 0.3817117 0.4079454 0.34680635 0.24220613 0.27811286 0.34836262 0.41327855 0.44301057 0.27862847 0.33672142 0.40764174 0.4500352 0.47545677 0.28731754 0.36467272 0.4444726 0.42721945 -0.092307374 -0.25618786 -0.15832306 0.07114572 0.27334154 0.38729924 0.28039014 0.3836516 -0.01140935 -0.32923436 -0.27566114 -0.10818921 -0.393564 0.16150446 0.030354809 -0.3370376 -0.4491703 -0.24355808 0.21204203 0.28311452 -0.19695893 0.034900494 -0.31364775 -0.31842008 0.33405578 -0.25531608 -0.17589529 -0.35862255 0.37007934 -0.24153018 -0.3034788 -0.6981956 -0.4754421 0.3704757 0.5083773 0.16354647 -0.62842053 -0.39598975 0.378564 0.35890982 0.6615083 0.2968627 0.38143134 0.52548337 0.2506735 0.2307947 0.06956297 0.26146695 0.16470826 0.2704338 0.049534835 0.20898917 0.2534082 -0.12468133 0.254626 -0.092839554 -0.12686388 0.23246562 -0.05289864 0.06349159 0.09682049 -0.09226978 -0.12751848 -0.1411632 0.318843 0.3097938 0.20455082 -0.051826276 0.24002294 0.32805794 -0.08138565 0.29011846 -0.12983665 0.36710268 0.37790245 0.21440822 0.36389506 0.2094546 0.3423158 0.28121525 0.18781658 -0.2751762 0.56691635 0.7103376 0.11128365 0.7539497 0.78020775 0.8311247 0.08902426 0.19489384 0.046599586 0.018246949 0.1857772 0.046945795 -0.07097682 0.8505049 0.84922 0.013800707 -0.11235285 -0.14108835 0.124910176 0.17890847 0.18940894 -0.09960084 0.8383374 0.118214294 0.12795062 -0.2775702 0.0074054515 0.0967934 0.005502507 -0.06638021 0.020601757 0.075083785 -0.036488425 0.02903119 0.45299637 0.8043294 0.8197527 0.40494156 0.4311263 0.33257008 0.23881897 0.23539062 0.2528922 0.29567456 0.22827813 0.14328933 0.19335745 0.49210387 0.51029336 0.612937 0.7055779 0.77465296 0.47255147 0.4631055 0.39705434 0.22597873 0.20972364 0.1105791 -0.018439159 0.06952131 0.35129464 0.6450882 0.6317777 0.7003472 0.31178975 0.36182022 0.454