# vtk DataFile Version 2.0
Really cool data
ASCII
DATASET POLYDATA
POINTS 2504 float
26.424143 29.745363 31.689352
26.320297 29.652374 32.4867
26.386442 29.784521 33.023518
26.356794 30.252186 31.838398
26.316582 30.38378 32.477444
26.337267 30.096115 32.922462
27.085613 29.133295 30.035881
27.041775 28.92119 30.664774
26.947859 28.833889 31.435377
26.788334 28.95157 32.56574
26.892513 29.080494 33.300102
27.02348 29.617252 29.845041
26.617203 29.711231 30.665491
26.661837 29.575447 31.311802
26.426632 29.397017 32.770157
26.63779 29.580126 33.354248
27.08766 29.743158 34.166428
27.023153 30.039295 29.829775
26.779776 30.318321 30.490086
26.627567 30.468681 31.288742
26.474087 30.64309 32.53988
26.630728 30.275187 33.40412
26.9439 30.247217 34.00602
27.036425 30.95767 30.740715
26.97596 31.013107 31.43878
26.82089 31.052912 32.488926
26.794405 30.840118 33.187378
27.429062 38.91669 31.851126
27.362844 39.021683 32.197144
27.420343 39.277332 31.187498
27.34195 39.555744 31.54507
27.277897 39.64712 32.41677
27.362831 39.964413 32.890644
27.33765 40.289883 31.629814
27.335953 40.413177 32.48558
27.397644 40.809402 31.928751
28.059774 28.244404 30.704355
28.01549 28.160463 31.710888
27.477058 28.422468 32.493893
27.677027 28.404428 33.042072
27.629385 28.899664 29.648111
27.381527 28.529083 32.42362
27.498508 28.61316 33.257465
27.755491 28.777622 34.11354
28.031172 29.102228 34.990356
27.642998 29.781847 29.116158
27.42419 29.505463 34.593185
27.793951 29.74783 35.242447
28.08055 30.249735 28.77712
27.732195 30.354368 35.241543
28.143284 30.29489 35.671673
28.17108 31.518627 30.755756
27.889896 31.52671 31.284712
27.54065 31.408133 32.713093
27.704575 31.183899 34.318733
27.816364 38.296978 31.782452
27.798845 38.721653 31.126684
27.581474 38.726437 31.653193
27.5378 38.772125 32.226807
27.674526 38.94532 32.85977
27.677832 39.52327 30.842768
27.555906 39.421806 33.024086
28.263294 39.854034 34.089817
28.204262 40.08382 30.403479
27.769615 40.457428 30.876703
27.571856 40.654682 31.362627
27.636467 40.51903 33.311096
28.049864 40.469124 33.922077
27.896675 40.985523 31.012516
27.55104 40.878895 31.861046
27.775019 41.30268 32.361385
27.748087 41.1449 33.13671
28.915678 28.125578 28.795425
28.748648 28.040796 29.79276
28.779942 28.02171 30.506088
28.830032 27.949417 31.643265
28.646168 28.121386 32.645542
28.564695 28.295506 33.563023
28.737427 28.384645 34.043407
28.93148 28.578238 28.152166
28.431927 28.705442 28.65987
28.283457 28.50424 29.861639
28.597227 28.59862 34.463192
28.62021 29.04361 35.20539
29.012777 29.72597 27.704172
28.605427 29.50362 35.586258
28.708748 29.714481 35.7534
28.800106 30.450266 27.963623
28.557158 30.36846 35.81048
29.25195 30.9056 27.81035
28.745012 31.011486 28.67972
28.46976 31.079731 35.40873
28.500856 30.836315 35.655914
29.313498 32.287426 30.367115
28.394285 31.805202 31.080425
29.473717 36.36016 35.50693
29.08414 37.562508 31.68173
28.312384 38.246548 32.51235
29.176262 38.35942 30.065233
28.398619 38.548542 33.26644
28.783463 39.19107 33.96355
28.778421 39.5723 30.083208
29.179293 39.222073 35.076653
29.31729 39.54623 36.055298
29.067272 40.330963 30.02578
29.048597 40.668777 36.22338
29.41853 40.286346 37.51421
28.715313 41.5031 30.838655
29.329725 41.307934 36.601776
28.705292 43.721622 32.71092
28.78752 43.714134 33.349785
29.25315 44.766068 31.652885
28.760279 44.538723 32.4478
28.842808 44.60036 33.509274
29.39278 45.98861 31.019444
29.209816 45.286556 31.789528
28.873644 45.154568 32.49363
29.026594 45.24382 33.246025
29.45884 46.54179 31.062235
29.337639 46.778164 32.1357
29.4051 47.64867 31.066048
29.323107 47.505028 31.67875
29.227297 47.945663 31.955755
29.401043 48.184383 31.179535
29.37864 48.53854 31.611303
29.357517 48.23703 32.174698
30.126064 27.410095 28.793848
29.922905 28.01812 27.833155
29.632355 27.750319 28.447697
29.88507 27.781616 30.630058
29.230795 27.870237 31.75335
29.599548 28.020481 32.60436
29.378681 28.13204 33.306835
29.570883 28.417238 34.08665
29.840675 28.83277 27.29923
29.31969 28.378372 27.871832
29.5906 28.529987 34.399025
29.307285 28.979906 35.132668
29.808712 29.508924 27.230165
29.489817 29.455263 35.528824
29.315763 29.733875 35.73812
30.145481 30.121128 27.02548
29.892508 30.666954 27.520414
29.668247 30.747404 35.621746
29.316717 30.36226 35.86405
29.667366 31.532398 27.876793
29.811579 31.41369 34.04642
29.444662 31.184717 35.396786
29.332233 30.927656 35.69434
30.061451 32.674683 27.961067
29.83435 32.678185 29.549707
29.820452 32.500378 32.06045
30.229729 33.977413 27.050905
30.19666 33.322403 27.465748
29.902687 33.44244 31.27504
30.082365 33.74904 32.307724
30.278759 34.481842 26.818686
29.845852 34.242176 27.61712
29.695902 34.714443 28.09106
30.16543 34.77182 29.56493
30.090757 34.104576 32.45967
30.345512 34.937435 34.124302
30.255768 35.107964 35.09872
30.278193 35.308292 35.90355
29.886522 35.36859 26.974972
29.676817 35.53487 27.465294
30.19136 35.346764 29.74519
30.40008 35.420418 32.196987
30.266611 35.19475 33.40251
30.173893 35.415257 34.38789
30.048042 35.45398 35.678154
30.141459 35.726303 36.293667
30.139402 36.066055 26.923054
29.911972 36.18825 27.853485
29.994423 36.222122 28.419212
30.0401 37.06102 33.079796
29.703074 36.66408 34.57171
29.569475 36.18812 35.35432
29.664032 36.592396 36.34396
30.120834 36.869602 37.25089
29.969793 37.537834 29.925701
29.622257 37.465202 36.26138
30.30904 37.743755 38.234028
29.728424 38.516758 29.594013
29.517818 38.43047 35.21646
29.706104 38.657887 37.283268
30.166609 38.515926 38.305653
29.924149 39.434742 29.28899
29.266518 39.78932 29.812168
29.952217 39.22598 37.79645
30.244835 39.9058 38.91529
29.526814 40.356316 37.284527
29.704775 40.435253 38.34454
30.200478 40.6229 39.206543
29.47994 41.427956 36.808056
29.677103 41.391045 38.625546
30.025253 41.507423 39.07096
29.556128 42.807175 31.612907
29.70612 42.078396 36.083084
29.892431 41.9804 38.677605
30.232979 42.367767 39.013504
30.157957 43.721058 36.66844
29.837742 43.40996 37.475037
30.12733 43.738197 38.19731
29.9071 44.71028 30.870178
29.603926 44.289627 31.405397
30.105314 43.95295 36.8851
30.201683 44.292652 37.563606
30.291233 44.193634 38.112602
29.875162 45.598293 30.42844
29.503582 45.668034 33.641552
29.846283 45.64709 33.908936
30.277784 46.422466 29.881264
29.66187 46.328285 30.641422
30.17235 47.612007 30.001211
29.606762 47.41904 30.641098
29.51806 47.800304 32.60647
29.635874 47.37125 32.773968
29.621767 48.322727 30.843758
29.493296 48.662422 31.239206
29.54993 48.405735 32.48913
29.846502 48.435375 32.803326
30.090158 49.233868 30.786198
29.874006 49.34068 31.585226
29.869581 49.148987 32.253483
30.215813 49.63568 31.918848
31.250889 27.30487 27.11002
31.166512 27.098055 27.474436
31.067488 27.087748 28.167913
30.139292 27.489515 29.326921
31.0155 27.639694 26.946863
30.506403 27.654312 27.707642
30.678223 27.53288 28.220697
30.565578 27.965961 31.49411
30.703215 28.103186 32.8325
30.438032 28.207249 33.349586
30.042427 28.327745 34.038227
31.068415 28.787056 26.301264
30.427515 28.614435 34.234123
30.159185 29.033157 34.858505
30.364527 29.812603 35.17528
29.748045 29.893467 35.61702
30.74495 30.537766 26.734247
29.952366 30.463457 35.468098
30.46353 31.655535 27.1998
29.792747 31.165674 35.083084
31.10271 33.75636 26.281223
30.965006 33.61995 34.034508
30.87388 34.059677 34.866196
30.921442 34.79468 26.212837
30.629444 34.50171 26.450829
30.637379 34.222717 33.92861
30.798473 35.18579 36.36754
30.758486 35.495106 26.179298
30.339666 35.446617 26.471355
30.852179 35.65945 30.482653
30.643116 35.457924 31.583117
30.634565 35.823734 37.005333
30.862963 36.116756 26.187948
30.758 36.587696 26.609182
30.467356 37.064236 31.466831
30.752438 36.376842 32.77716
30.391855 36.31589 37.141537
30.811558 37.15689 38.35527
31.149097 37.26118 38.779064
30.808655 36.707184 26.778591
30.439402 37.356236 28.845724
30.596146 37.673683 38.544712
30.899548 37.716175 38.871193
30.826887 38.35492 28.899334
30.826279 38.502308 39.043335
30.945724 39.260372 29.116735
30.851181 39.448402 39.046238
30.619217 40.377007 29.407084
30.413542 40.54955 29.628326
30.615519 40.42576 39.513832
30.990805 40.608818 39.74956
30.503529 41.08468 30.192041
30.501131 41.372925 39.50629
30.92415 41.407726 39.74825
30.608978 42.133858 39.414913
31.02654 41.933548 39.76382
30.419506 43.617397 38.63235
30.687654 43.31179 38.933895
30.544027 45.089428 29.993322
30.461628 44.399876 36.61297
30.391644 44.50634 37.75975
30.576702 44.38371 38.28253
30.939049 43.985996 38.89051
30.843704 45.82635 29.666233
30.294495 45.3969 34.27631
30.850975 44.832653 37.03655
30.685797 44.804466 37.591843
30.946901 44.899666 38.058987
31.07268 46.819305 29.302788
30.716087 46.411095 29.574009
30.768877 46.422047 34.18321
31.105085 47.507236 29.289515
30.680471 47.61973 29.614368
31.139174 47.947964 29.362585
30.652132 48.378403 29.823896
30.418554 48.50403 33.080536
30.76228 49.2285 30.139435
30.502544 49.49525 30.528694
30.504765 49.446564 32.434174
30.834633 49.148407 32.78484
31.087957 49.825676 30.32363
30.708523 49.897892 30.812765
30.797094 50.07177 31.456064
30.870934 49.8322 32.139214
31.87636 27.08624 26.67588
31.727219 26.816992 27.680944
31.75975 26.862366 28.08136
31.13434 27.353336 29.240618
31.890842 27.845442 25.943644
31.020035 27.563347 29.817482
31.285625 28.229078 32.2961
30.875254 28.19675 32.937943
31.52666 28.284348 26.044735
31.607117 28.619408 32.93374
31.193953 28.873909 34.046192
31.922503 29.492626 25.711605
31.483324 29.589834 34.37559
31.910257 30.186836 25.84929
31.611164 30.910587 26.287466
31.226374 31.31164 33.68995
31.549358 33.502216 26.120487
31.620369 34.119896 35.605972
31.723932 34.51809 25.915918
31.362484 34.914585 36.2402
31.504995 35.585777 25.872437
31.448742 35.534195 37.133034
31.4315 36.174652 25.993065
31.483738 36.589333 38.15354
31.365303 36.99464 38.730072
31.490868 37.048058 26.743618
31.61539 37.700184 39.14902
31.376503 38.32507 39.36087
31.079586 39.19589 29.082878
31.24926 39.524338 39.494167
[...]
POINT_DATA 2504
SCALARS features_00 float 1
LOOKUP_TABLE default
0.6664269 0.66628516 0.66234094 0.6621208 0.65186435 0.6582161 0.57608616 0.6013732 0.6474215 0.6598245 0.6533379 0.5851994 0.6406392 0.6592501 0.66557324 0.66126245 0.6889347 0.576978 0.6346991 0.65937424 0.6396971 0.6513087 0.6663338 0.6193294 0.6189229 0.6134467 0.6307973 0.5922257 0.5874403 0.6107702 0.6117874 0.5965254 0.5842061 0.6111321 0.59925324 0.59787416 0.4772442 0.47736266 0.56497556 0.5531789 0.5252701 0.58694184 0.5975362 0.6397104 0.758329 0.51689863 0.7357593 0.82613623 0.46076497 0.83287746 0.849781 0.32222113 0.43243468 0.546468 0.7108245 0.5354498 0.58148813 0.5809163 0.57037485 0.5417273 0.6145364 0.5547605 0.38261047 0.5778184 0.59887576 0.6007589 0.5652989 0.4582938 0.56135416 0.59021765 0.53357387 0.53666925 0.4160501 0.40663868 0.39086112 0.3942356 0.4383514 0.49267384 0.5289341 0.44261333 0.4670424 0.46730793 0.6070157 0.74775654 0.39159107 0.8145311 0.82365847 0.3119828 0.83540344 0.21961074 0.3180195 0.80681634 0.8250275 -0.08718057 0.22487399 0.33563614 0.28021017 0.47011086 0.38747156 0.42750278 0.30136093 0.48344064 0.04903557 0.16586259 0.44114923 0.24191795 0.32768378 0.4506188 0.3112436 0.34150022 0.3625116 0.31156424 0.36591053 0.40745622 0.3624159 0.32810906 0.37526542 0.39372844 0.41340312 0.42764398 0.5422165 0.53939193 0.60967624 0.62634075 0.6959442 0.66425836 0.36108965 0.3758297 0.37935552 0.30845067 0.36171508 0.37944502 0.42591017 0.49475652 0.3905209 0.41633582 0.539371 0.69423413 0.3455664 0.7675457 0.80206454 0.23990974 0.20739143 0.779932 0.8106785 0.12167529 0.54552114 0.73796046 0.78858864 0.1281622 0.014379535 -0.100818336 0.37020838 0.2380189 -0.09306715 -0.046804838 0.4356618 0.39671358 0.45883095 0.10742713 -0.03346142 0.19141863 0.31978428 0.37643278 0.50757545 0.51314914 0.09645005 -0.12337687 0.043081 0.21432444 0.35917297 0.3925623 0.5260424 0.4716075 0.37110764 -0.08200289 0.21228817 0.32338017 0.3777596 0.36023796 0.20431805 0.29184896 0.34307665 0.29060364 0.07579574 0.2743507 0.3483813 0.31743282 0.39833987 0.32395768 0.38211536 0.31896657 0.38825494 0.42454517 0.33566314 0.42767417 0.44776773 0.17195907 0.25255594 0.4444326 0.46522093 0.43542662 0.46770144 0.5245764 0.32548478 0.27514735 0.45413923 0.49733266 0.5264199 0.3824374 0.3291026 0.293686 0.4788233 0.41157085 0.56818926 0.521057 0.5953793 0.5016351 0.66237247 0.7238326 0.70279837 0.7112949 0.8734194 0.88638055 0.8261299 0.9194319 0.3311175 0.32236207 0.32524997 0.35725385 0.3349143 0.34189945 0.34797215 0.2930842 0.37549254 0.40631124 0.46371043 0.28769037 0.47642276 0.6056735 0.7033422 0.7827083 0.14874974 0.75756633 0.04636129 0.6869848 0.34931368 0.21768324 0.32655817 0.4493817 0.43612534 0.17788522 0.38239807 0.49136913 0.5029698 -0.08183466 -0.16115579 0.39133242 0.5100443 0.51117057 -0.19707045 -0.1440088 0.3840355 0.3539377 0.3560984 0.49630314 0.10405965 0.35297212 0.35320786 0.19578937 0.3465543 0.25628293 0.35985646 0.22965422 0.24821764 0.42386204 0.44051585 0.19175053 0.4579669 0.46267515 0.4674629 0.4635538 0.5374464 0.5182556 0.41852647 0.42486173 0.5103882 0.535432 0.54241824 0.4748873 0.24512094 0.45891744 0.5041485 0.5335789 0.54236585 0.50313556 0.17335181 0.5830349 0.5717394 0.6175642 0.66846275 0.6935268 0.80737597 0.90411973 0.8580462 0.7826426 0.91527265 1.0 1.0 0.9219365 0.34403932 0.294613 0.28281754 0.3503732 0.33591637 0.3360598 0.33016714 0.38033152 0.32677132 0.3555442 0.44202426 0.22593191 0.5111495 0.17773658 0.078188464 0.5142342 0.28696832 0.30815405 0.3808716 0.33789003 0.4518665 0.32780153 0.47634965 0.3279643 0.35217327 0.4070537 0.34587377 0.31713125 0.2415066 0.34827498 0.3783189 0.08947618 0.427808 0.010015547 0.454296 0.46822298 0.4418047 0.29216814 0.47940686 0.45690084 0.5485578 0.48206252 0.44536492 0.56084824 0.57250047 0.007776547 0.59881926 0.112354256 0.6516507 0.6926377 0.8018116 0.8621217 0.7973386 0.8597373 0.9644125 1.0 0.9540696 0.21560277 0.26913765 0.25376716 0.18363325 0.18077469 0.38466492 0.277669 0.26464298 0.2766542 0.04680453 0.09483292 0.20144565 0.30939204 0.14782864 0.11754414 0.36692232 0.24544704 0.32999623 0.152488 0.21495295 0.21957596 0.4012312 -0.019187033 0.42479306 -0.03457999 -0.14627852 0.3972196 0.42100012 0.41299066 0.41963553 0.4891048 0.4830017 0.60989493 0.0025848802 0.6388328 0.08124141 0.65143794 0.67827034 0.60758436 0.752403 0.7881186 0.83658016 0.77041686 0.83760095 0.8717505 0.89637005 0.8980409 0.4224317 0.39050114 0.22408506 0.19671412 0.18824741 0.21844363 0.19884822 0.10562784 0.34234458 0.3208489 0.318564 -0.18124305 0.003529027 0.1960789 0.0075425543 0.11250007 0.10803127 0.09045909 -0.106256545 0.18188147 -0.10536039 0.18060467 0.17303996 0.39317495 0.14892337 0.44674104 0.37553924 0.40443435 0.30911806 0.35216892 0.21169871 0.39667022 0.125272 0.31836104 0.36615062 0.018255122 0.38196915 0.3272202 0.3348192 0.5451505 0.3063956 0.43586153 0.6223762 0.60515445 0.28272748 0.47876704 0.6383591 0.5874651 0.5989836 0.6778629 0.69167185 0.7539962 0.76390666 0.79327804 0.8248786 0.836102 0.48778367 0.48810095 0.36184227 0.39660794 0.4286176 0.47539806 0.3641211 0.2924162 0.27116752 0.16108279 0.19977474 0.21127285 -0.4241119 0.22341533 0.33000445 -0.4429788 0.7413708 0.26377818 -0.25273854 0.05780875 0.7539578 0.7636006 0.7083228 0.6530535 0.21320951 0.6894318 0.8149487 0.83176374 0.72105217 0.646502 -0.17621794 0.75054103 0.74451125 0.7262958 0.62122166 0.18634006 0.6456797 -0.123485714 0.08612047 0.2614965 0.15264618 0.42337963 0.24000284 0.28387535 0.45157665 0.468736 0.26342446 0.43932024 0.40949172 0.39506137 0.26882985 0.056512058 0.19376013 -0.00039853156 0.17072289 0.3558636 0.49965814 0.32559222 0.51803553 0.48653615 0.52814996 0.5467667 0.30124852 0.40896535 0.49526346 0.5163896 0.55218387 0.39591712 0.48359 0.4690469 0.37494507 0.33691412 0.30775082 0.44555455 0.31104898 0.2865066 0.33329195 0.39548945 0.20031692 0.121992014 0.21587 0.10733642 0.08617066 0.3258491 0.18990678 -0.17258681 -0.22369015 0.16667749 0.24487647 0.17776531 -0.32200947 0.19866681 0.8662961 0.86666757 0.85996306 0.7140871 0.13711669 0.18741596 0.27731362 0.30062857 0.9105183 0.9152915 0.845222 0.74608874 -0.5209387 0.015319884 0.14257805 0.2942492 0.66375756 0.6611115 0.63497883 0.906929 0.8986266 0.84364283 0.23035675 0.15713346 0.23553084 0.6165849 0.6410183 0.5709848 0.8290387 0.23366527 0.57447594 0.5151371 -0.29942536 -0.18125264 -0.08025603 0.5714015 -0.11489436 0.0072669387 0.4104064 0.5261395 0.41992983 0.43233263 0.106566824 0.39414954 0.48432943 0.4954558 0.47905672 0.46385685 0.42848897 0.39267355 0.2155557 0.14998959 0.16019225 0.2625262 0.18029568 0.4726494 0.11929179 0.24117309 0.5323425 0.5726038 0.58817595 0.5966804 0.5584382 0.5972289 0.43625677 0.3767804 0.35822225 0.3536803 0.35397762 0.41545272 0.4630701 0.34966832 0.32667616 0.30433223 0.30717352 0.3891458 0.25974464 0.25435594 0.323564 0.41127104 0.44963145 0.20588736 0.45175135 0.48420894 0.061521802 0.32393596 0.44616795 0.039984845 0.8138455 0.7875881 0.724962 0.6520909 0.19207731 0.29218197 0.86235523 0.8519435 0.41428375 0.28904352 0.28637868 0.8848049 0.89746076 0.28559256 0.2736608 0.56698656 0.5423487 0.534069 0.5256605 0.8787286 0.88407457 0.69751227 0.24846256 0.5576787 0.48239666 0.8570888 0.84507084 0.7889946 0.6642089 0.23591478 0.46473283 0.24022998 -0.35667422 -0.14002307 0.44013697 0.44482273 0.42789784 0.17244357 0.38376456 0.12783085 0.12725174 -0.10393133 0.23484448 0.30401012 0.32124513 0.32689983 0.30119833 0.24272445 0.29125872 0.44677627 0.21462908 0.4925834 0.51162326 0.108899675 0.4669528 0.35599163 0.12421778 0.21063504 0.18997052 0.18365617 0.24056935 0.57076776 0.49876374 0.31146562 0.6330404 0.378783 0.39877653 0.533667 0.60869956 0.6365853 0.6391542 0.43327016 0.42507857 0.4150691 0.43414775 0.44484746 0.48479915 0.37968326 0.38385105 0.36658773 0.41526532 0.32978258 0.28536505 0.31744146 0.2263464 0.20629996 0.3992871 0.21577998 0.417054 0.4394261 0.47179678 0.450014 0.3442504 0.7148342 0.6475158 0.101780765 0.20812689 0.15487662 0.80552083 0.74796164 0.64374363 0.54849935 0.2640841 0.19949198 0.836794 0.27323017 0.38286686 0.8563033 0.22280505 0.11884118 0.4217835 0.4209555 0.8613094 0.8297189 0.20057988 -0.10566108 0.43705934 0.8001908 0.7502744 0.6236601 0.50212216 0.40651852 0.33687156 0.24435186 -0.12018065 -0.006681487 0.42401922 0.24464452 -0.021527719 -0.14055978 0.41642022 0.17017996 -0.2757833 0.35055685 0.35999227 -0.3484605 0.31572568 0.33289325 0.35360503 0.3059189 0.29875553 0.45516405 0.011420488 0.5177466 0.01720281 0.08576599 0.12146957 0.20307142 0.11835569 0.09534654 0.24953242 0.20114283 0.32959813 0.35761243 0.40267783 0.62024283 0.3875752 0.42780197 0.5465725 0.61429965 0.6446286 0.64791334 0.4722768 0.45775265 0.443765 0.46613604 0.4684586 0.46681947 0.43084016 0.4456713 0.3989964 0.3500679 0.36823934 0.26382986 0.29531083 0.28043246 0.36501297 0.40622592 0.41972828 0.41750878 0.10859418 0.07602173 0.37194332 0.18935522 0.741436 0.6749453 0.31988302 0.15376933 0.14313734 0.7836894 0.76787585 0.16854912 0.4330641 0.4263515 0.8012636 0.19725409 0.13520108 0.26045716 0.4022537 0.4053545 0.3778814 0.81580555 0.14195855 0.19007033 0.3019511 0.7969099 0.7372192 0.61266994 -0.09886059 -0.046580136 0.3737701 0.68764365 0.57806087 0.43161815 0.40578574 0.34701192 0.39162397 0.375911 -0.27635884 0.33389932 0.37798542 -0.32750428 0.35957175 0.057445392 0.31281736 0.3510518 0.07907466 0.24317437 0.30533725 0.13381518 0.17542726 0.13099954 0.17659497 0.2425353 0.13987532 0.22828484 0.15953146 0.23991519 0.08627777 -0.104103856 -0.09194462 0.28181377 0.21277802 0.19970787 0.36515188 0.39741477 0.39323086 0.27749655 0.46655792 0.41595027 0.47667184 0.55369794 0.55030316 0.55650353 0.59593534 0.6039839 0.4467972 0.49019122 0.50730777 0.44459862 0.44222003 0.45464337 0.5036436 0.49289805 0.37843367 0.4173811 0.44847023 0.4014585 0.27779073 0.2785735 0.25419405 0.104145885 0.17481355 0.3033359 0.061656546 0.20908266 0.38680327 0.34247467 0.29252243 0.014404759 -0.0026464164 0.18791646 0.15594836 0.7636525 0.72830963 0.67505133 0.46580762 0.7861174 0.78106475 0.09570624 0.41530317 0.44874877 0.42499986 0.3935421 0.78128016 0.7666508 0.3911674 0.3520551 0.2914315 0.76638305 0.7470646 0.66554224 0.6175852 0.5139847 -0.3079645 0.44605047 0.39381197 0.39695853 -0.34104994 0.28162768 0.27958733 -0.067081705 0.021346943 0.34773955 0.36819914 0.36863297 -0.27870977 -0.28389558 0.36580616 0.6802331 0.4727726 -0.2512818 0.33771914 0.79735607 0.7610855 0.6987243 0.59107405 0.50714195 0.7994156 0.74217474 0.70477307 0.6526736 0.57100767 0.25917685 0.28870365 0.74026996 0.6726209 0.6042066 0.46095338 0.2127214 0.28860846 0.27511257 0.11503039 -0.040567845 0.33090025 0.27103305 0.2553915 0.25103799 0.44962984 0.47938117 0.5051552 0.39214325 0.38746274 0.43289417 0.5055111 0.49856946 0.4262321 0.34613279 0.08095933 0.13194917 0.21639295 0.22922923 0.04472027 0.17516233 0.08384703 0.0405713 0.762581 0.7401124 0.6796294 -1.4133751e-05 0.76751673 0.74510527 0.3720062 0.38484877 0.33909053 0.75463766 0.7431226 0.31984013 0.21766587 0.7181252 0.67813873 0.6244766 0.5286656 0.46446806 0.45696342 -0.39926872 -0.41033468 0.08337551 0.16755114 0.17107189 0.21174929 0.05338669 0.2513108 0.09804729 0.30455393 -0.0012331344 0.33403227 0.40214846 -0.25684142 0.36703858 0.8583865 -0.19124943 0.31413516 0.8821486 0.16540962 0.8246362 0.76954126 0.29901743 0.8029041 0.7554331 0.6699271 0.36271566 0.126548 0.3687731 0.31230918 0.63455206 0.55169576 0.47758454 0.34223825 0.24633741 0.18177882 0.041930012 -0.1984066 0.18270649 0.36182746 0.41090685 0.39643195 0.34342772 0.32776007 0.29411626 0.3465231 0.32555404 0.49543935 0.46964103 -0.011656605 0.0324002 0.07580642 -0.006186299 0.05695641 0.07612114 0.08549152 0.050312795 0.0684075 0.008496065 0.0056178644 0.077066 -0.23943363 0.72991407 0.68238574 0.56594867 0.19343446 0.30781218 0.28671882 0.28032318 0.68190014 0.27438986 0.20790584 0.33280548 -0.25892964 0.09423723 0.46264458 0.46514153 -0.029857822 0.11760383 0.19689453 0.26613706 0.36118335 0.28530565 0.0014512464 0.31838638 0.29261863 0.7822195 0.65696853 0.88945997 0.7957897 0.9524312 0.049133345 0.9378586 -0.06980933 -0.042484567 0.2796798 0.25892383 0.83912385 0.7611687 0.018397845 -0.09715003 0.02432038 0.12609036 0.38147056 0.7064909 0.61488146 0.53231454 0.44797364 0.37896577 0.3363285 0.31521696 0.23954946 0.17559268 0.17969888 0.22270718 0.39277178 0.41277558 0.40414053 0.45937845 0.2399762 0.112993926 0.12330557 0.12762253 0.20517361 0.009111121 0.16257475 0.113061205 0.08131187 0.06761844 -0.0070222057 0.06965103 0.051773556 -0.18365708 0.01359173 0.028277457 -0.11168453 0.16579485 0.18592894 0.2789343 -0.23677462 0.25414857 0.20777175 0.30904353 0.20267609 0.312357 0.1996741 0.41267568 0.2109579 0.7519214 0.86552346 0.8057552 0.44356948 0.9328064 -0.24012972 -0.08853486 0.050373107 0.42843983 0.486454 0.9224086 -0.021997474 -0.25784183 -0.18891424 0.250626 0.26852843 0.4543901 0.47134155 0.51107377 0.80813974 0.7371905 0.17194514 0.3148229 0.40615952 0.376846 0.6414434 0.5988285 0.6684551 0.6015444 0.50188434 0.42811176 0.3617994 0.33996022 0.3030008 0.26357383 0.37560406 0.8250675 0.8104797 0.8929471 0.45303512 0.43110424 0.3918023 0.3482681 0.14603195 0.14197561 0.21776552 0.28068078 0.31082785 0.32608536 0.22394207 0.23676097 0.19496031 0.10686775 0.12852275 -0.07048221 0.067424275 -0.15237157 -0.04227262 0.00790292 0.18801236 0.26717505 -0.35116446 0.29148898 0.3080049 0.3332174 0.33050263 -0.14315414 0.2828697 0.23169023 0.22741723 0.3017174 0.18974751 0.31750733 0.14937831 0.81229496 0.59967995 -0.24219675 -0.42820793 0.45661163 0.48357806 0.84274864 0.69969046 -0.23392949 -0.27073747 -0.41058522 0.50401753 0.5119869 0.8157297 0.714122 0.6481257 -0.07898659 0.262609 0.0037198812 0.08255009 0.53256947 0.6250122 0.78889155 0.69883275 0.5927351 0.5124953 0.35652763 0.25554663 0.23977774 0.18163276 0.6576563 0.59980255 0.648328 0.4876234 0.39806315 0.35240042 0.30498293 0.28743005 0.25741953 0.75787497 0.79397714 0.75035036 0.86649704 0.9096832 0.9138261 0.87578803 0.48733613 0.4655776 0.43334728 0.46247566 0.47965598 0.175924 0.27577555 0.3145759 0.42505503 0.30821615 0.2658852 0.35532692 0.2023542 0.18622583 0.3071218 0.18272603 0.13886975 0.046545368 0.06402632 -0.24919032 0.39601868 -0.041960165 -0.16899459 -0.08827305 0.011683367 0.14989676 0.28656852 0.3152334 0.45362496 0.32686335 0.33989763 0.34989277 -0.15973075 0.34825367 -0.12706667 0.3220144 0.28846076 0.26827514 0.37795264 0.15538973 0.23958853 0.4087935 0.33327168 0.26885578 0.22361012 0.07810761 0.1935369 0.036818247 0.19539915 -0.041552033 -0.39714038 0.3562321 -0.23359321 -0.35453263 -0.11105949 -0.06157227 0.45494908 0.62462264 0.35285443 -0.21323685 -0.08783134 -0.15566325 -0.10885642 0.53090954 0.6009289 0.48511928 -0.24096769 0.2990463 0.64755046 0.48765808 0.34617674 0.2931167 0.2776838 0.2613687 0.20695023 0.41128772 0.7575301 0.77350795 0.30691803 0.29562682 0.7247071 0.83497703 0.8357171 0.88495743 0.9302295 0.91159976 0.86875975 0.4866741 0.47281802 0.42613852 0.3432746 0.47502518 0.49278662 0.20990443 0.23801073 0.2516935 0.42192277 0.437043 0.19746666 0.39315394 0.05264022 0.34302676 0.15660965 0.5780076 0.6717603 0.24232161 0.4682953 0.6698797 0.7235542 0.13695621 0.1637016 0.4353238 0.15005428 0.5607275 0.42638922 -0.043188676 0.0110993385 0.6558703 0.635837 0.1676782 0.29109082 0.28713968 0.30309197 0.69406825 0.65158796 0.5358658 0.31935075 0.3222697 0.54320395 0.4058113 0.31606224 0.335828 0.34562612 0.36353183 0.31706205 0.40303126 0.27926204 0.45079425 0.27548653 0.2642269 0.4620587 0.2499039 0.24362315 0.4493187 0.22996439 0.31374905 0.24447326 0.25476375 -0.20199881 0.38121286 -0.020712018 -0.15138903 -0.07639968 -0.06398073 0.4067832 0.10056612 -0.084702045 0.62324065 0.3127255 0.25206736 0.37052518 0.43044668 0.7455847 0.27518964 0.19623591 0.5380819 0.6102831 0.6581838 0.6404008 0.7782028 0.640578 0.68944144 0.7183578 0.73726153 0.7542361 0.824129 0.8053515 0.7993278 0.8261201 0.8574178 0.8488287 0.82120216 0.46109724 0.26652366 0.43746954 0.3980018 0.1557188 0.14006011 0.18542847 0.15497111 0.3900463 0.42632023 0.15525845 0.35540566 0.007216314 0.22092932 0.44032627 0.5952119 0.6845777 0.26127878 0.6071416 0.71724105 0.7611013 0.18779328 0.782518 0.1404659 0.7662978 0.22975934 0.17346057 0.572623 0.46207225 0.08796996 0.6621763 0.69513845 0.217546 0.2928499 0.28315789 0.31662062 0.66762996 0.60210603 0.24766457 0.29276294 0.30632752 0.46071106 0.15740961 0.26953718 0.3334371 0.2677295 0.26654297 0.25613883 0.40870363 0.24545586 0.47088528 0.22047174 0.23936734 0.45161927 0.43936116 0.23408303 0.4252675 -0.47241718 0.2978292 0.5033534 0.44081408 0.3517726 -0.1932281 -0.12302426 -0.09050204 0.39124012 0.039999336 0.5010909 -0.011579333 0.5873999 0.6687217 0.69835174 0.55464244 0.7353001 0.6202122 0.7107415 0.70878756 0.7410825 0.68019617 0.75177765 0.77015746 0.7353736 0.72859335 0.7558547 0.7650839 0.76366824 0.7183096 0.7440893 0.77591413 0.7983588 0.78377354 0.7872382 0.79899466 0.35870597 0.31152946 0.30030775 0.24694827 0.04404472 0.35242584 0.2872262 0.06947515 -0.010605238 0.32688564 0.24985617 0.4871688 0.59821844 0.6919956 0.72006273 0.14033556 0.7411039 0.74581945 0.13741827 0.73942757 0.17350106 0.5392966 0.6495512 -0.1580671 0.64614916 -0.20887768 0.5991436 0.5563549 0.02730735 0.5105926 0.27199054 0.232943 0.2970007 0.36716995 0.37140086 0.40826526 0.24306393 0.428513 0.2303141 0.43272668 0.5035702 0.5221307 -0.4195786 0.30534577 0.3356584 0.54594994 0.5175379 0.4399473 0.33131322 0.3288476 -0.23131627 -0.06025339 0.32898483 0.33889368 0.4238341 0.2729676 0.4427935 0.16986026 0.105169564 0.17440061 0.20170175 0.36196476 0.34987938 0.06624233 0.5111431 0.35305035 0.5509122 0.58252084 0.26497045 0.69807446 0.6470401 0.68209934 0.7810116 0.6868573 0.7091025 0.7869287 0.80653894 0.809827 0.4774611 0.47345853 0.394087 0.44622636 0.4269875 0.42935675 0.35315907 0.16766556 0.051358305 0.017742708 -0.025185429 -0.004706256 0.18428713 0.45926988 -0.13475165 0.033107556 0.41807127 0.5824082 0.61591446 0.6585468 0.075377926 0.60569847 0.6209255 0.6389682 0.13258076 0.6250988 0.3980441 0.53326905 0.35672992 0.062152024 0.5433142 -0.07600281 0.47891396 -0.21906775 -0.11424401 0.34818107 -0.22955154 0.2656436 0.29238504 0.21461838 0.28461665 0.2990793 0.30703172 0.3292835 0.3883254 0.3034165 0.30531657 0.2810099 0.39577395 0.27941796 0.42370608 0.22632946 0.22766706 0.45877266 0.25081453 0.2739709 0.5232012 0.31448168 0.5341445 -0.16844189 0.35035935 0.35775286 0.33339882 0.51478696 0.5004169 0.40533602 0.19744796 0.031351745 0.43042624 0.31089005 0.43385315 0.24361965 0.16416971 0.31625578 0.027475804 0.08383398 0.5752913 0.5264833 0.1307103 0.20918277 0.66959226 0.36931092 0.585678 0.80924594 0.70198846 0.77234703 0.8015458 0.81548285 0.51503664 0.5242801 0.5114541 0.46935636 0.5110078 0.51110333 0.3943153 0.30739754 0.3531373 0.37052584 0.2691166 0.06306135 -0.08664597 0.19852614 0.2510935 0.29056406 0.34538692 0.39733678 0.53056484 0.5596116 0.34158355 0.25088766 0.5077234 0.5445809 0.40769595 0.11220746 0.2412203 0.09480608 0.27986312 0.2501377 0.36479694 0.22784133 0.16297221 0.40235773 0.45368123 0.27017057 0.3599766 0.28620636 0.244749 0.29464024 0.30228585 0.4357118 0.26404265 0.43657476 0.22856402 0.21936065 0.46704483 0.19889826 0.50655407 0.27388054 0.51210696 0.4795355 -0.2587401 0.16489112 0.31525558 0.5072412 0.47658965 0.3692332 0.19343445 0.57635295 0.513872 0.48431927 0.093752295 0.10227831 0.12913392 0.6633973 0.6204801 0.5936395 0.46078423 0.16563345 0.7818533 0.4064835 0.6388566 0.6905711 0.74898297 0.7571405 0.7359588 0.76258636 0.55831814 0.5810529 0.57102126 0.57822067 0.62555814 0.56764674 0.46123725 0.4468642 0.3925695 0.34246048 0.2172246 0.2880473 0.28102034 0.40182233 0.29781526 0.28339553 0.4207886 0.425497 0.29289615 0.38512993 0.219949 0.20284238 0.29350334 0.10630715 0.30585217 0.16148666 0.25272122 0.27773836 0.2377858 0.21084696 0.19589983 0.135959