# vtk DataFile Version 2.0
Really cool data
ASCII
DATASET POLYDATA
POINTS 5380 float
24.492165 22.869816 11.951284
24.48538 22.714651 12.013892
24.464638 23.05399 12.366698
25.150282 22.120348 10.889564
24.940504 22.043036 11.515057
25.039692 21.982628 12.367914
25.229244 22.089304 13.074079
24.97464 22.544092 10.875294
24.641571 22.565573 11.542951
24.577576 22.634596 12.248789
24.845606 22.702858 13.351293
25.005085 23.000395 14.207137
24.971498 23.349934 10.789008
24.609325 23.31311 11.511605
24.576511 23.395264 12.37439
24.790817 23.639137 13.600123
24.96554 23.275377 14.264739
25.207783 24.293755 10.862313
24.886417 24.103668 11.640476
24.958223 24.207752 12.609491
24.806871 24.056738 13.682846
25.045221 24.290127 14.273056
25.362427 25.868046 9.869995
25.187277 25.62133 10.398619
25.192339 25.442272 12.568899
24.971514 25.369892 14.30664
25.0554 25.760435 14.896149
25.31933 26.313929 9.884114
25.125305 26.322222 10.554153
24.848984 26.815569 12.966471
24.881447 26.814627 13.582658
24.994114 26.82002 14.065283
25.246891 26.57391 15.389082
25.401459 26.978529 9.993864
25.252724 26.880325 10.225383
25.142847 27.105368 11.780421
24.996971 27.267124 12.588315
24.951006 27.107704 13.394183
25.059021 27.278887 14.305107
25.25088 27.219152 15.513175
25.22892 27.96908 13.584323
25.286215 28.15957 14.740378
25.42099 27.989933 15.248104
25.386065 31.320953 9.062356
25.314323 31.484053 9.48519
24.974833 32.009518 10.752378
25.064537 31.863722 11.274141
25.189295 32.254818 9.882291
25.048279 32.509605 10.680404
25.117191 32.470078 11.32319
25.316914 32.324017 11.863273
25.280516 32.99564 10.1174
25.253403 33.065517 10.687057
25.21824 32.97298 11.127263
25.718893 22.220375 10.333668
25.74574 21.795332 10.817235
25.500317 21.64129 11.492946
25.48774 21.705551 12.352326
25.980461 21.615652 12.949214
25.578354 22.234552 14.106437
25.807516 22.549866 10.164812
25.392748 22.405643 10.51128
25.610106 22.502594 14.521191
25.851114 22.715153 14.88036
25.663456 23.488289 10.153073
25.490875 23.28152 14.996408
25.685368 24.27134 10.338999
26.10168 24.88312 16.361969
26.163258 25.181103 9.194791
25.466722 25.313192 9.91837
25.672213 25.693094 16.100529
26.23219 25.682888 17.33543
25.771534 26.173468 9.34873
25.567698 26.901464 16.811293
25.8624 26.484161 17.262327
26.187542 26.697449 17.733416
25.597755 27.294413 9.915635
25.572138 27.340786 10.694911
25.583914 27.394234 16.355648
25.844517 27.334824 17.222736
26.267845 28.408352 8.871072
26.150414 28.34116 9.739558
25.771267 27.963377 10.491309
25.919733 28.249071 12.041739
25.453306 28.126219 12.651364
25.488138 28.225107 13.521059
25.559471 28.398531 15.430459
26.126095 27.83088 17.334692
26.244925 29.839527 7.5992074
25.772009 30.214947 8.883399
26.421562 29.043104 10.100619
25.645784 29.067486 14.339184
25.988346 29.79854 15.569848
26.1603 29.839964 15.808011
26.298862 31.021362 6.2291803
25.973627 30.772776 7.7722034
25.860085 30.455505 8.552041
25.69403 30.289284 9.083671
25.617393 30.738527 10.66547
25.705788 30.979162 11.943889
25.951231 30.678297 14.965513
26.14236 30.59176 15.607973
26.262732 30.32143 16.014004
26.276564 31.657227 5.904842
26.197592 31.41681 6.3680367
26.09559 31.091688 7.0870576
25.58312 31.30128 8.752202
25.612986 31.423779 12.106885
26.22592 31.29457 14.689787
26.256472 31.186237 15.398702
26.3478 31.162853 15.900429
26.332386 32.05108 6.049566
26.293003 32.16614 6.5425925
25.869713 31.996002 8.136052
25.798042 32.267754 8.74369
25.46963 32.013985 9.21862
25.742147 32.289906 12.378394
26.389574 32.431274 13.593765
26.277342 31.987808 13.959291
25.757286 33.085724 9.664083
25.577665 33.40133 10.67456
25.453884 33.176 11.288534
25.926653 33.15576 12.188325
26.348537 33.321476 12.873297
26.03572 33.842834 10.568802
26.007248 33.749355 11.361268
26.436668 21.38877 11.550755
26.548609 21.408354 12.445277
26.597517 22.142801 10.174512
26.36564 21.697548 10.754561
26.877726 21.498049 11.191754
26.567701 21.671328 13.464728
26.30225 22.02026 14.284535
26.796602 22.181494 14.755272
26.362001 22.622612 9.954926
26.8065 22.625404 15.139753
26.804192 23.452572 9.652592
26.563549 23.258495 15.425357
26.749138 24.585182 8.980898
26.708254 25.16804 17.162556
26.549952 25.489723 17.382994
26.73546 25.777988 17.79118
26.9143 26.355991 7.94727
26.591957 26.552645 17.96805
26.640024 27.378187 8.305673
26.349121 27.646729 17.631649
26.740105 27.324884 18.003754
27.32624 28.711777 5.0802135
27.176832 28.889986 5.4884667
26.750233 28.964165 6.6696315
26.549103 28.66778 7.505112
26.528921 28.662119 8.176165
26.715555 28.50717 17.286377
27.18769 28.734257 17.668211
27.433498 29.885384 3.435178
27.19773 29.54247 4.7008457
26.977528 29.41709 5.1672115
26.588902 29.300076 6.50224
26.938162 29.60617 16.973875
27.161196 30.83939 4.1698813
27.093916 30.588406 4.7981668
26.505264 30.24936 5.8164654
26.634474 30.57877 16.475395
27.054504 30.531872 16.719585
26.801165 31.592241 4.840718
26.52741 31.525505 5.4956403
26.520016 31.644373 14.442083
26.501144 31.608442 15.655178
26.830675 31.343346 16.248434
27.272852 32.110924 4.087635
26.531551 32.349125 5.9476895
26.471844 32.470207 6.5427704
27.006277 32.629135 15.012981
27.018848 31.89137 15.963035
27.105627 32.95927 5.724522
26.977272 33.000984 6.6913347
27.056469 33.117233 7.5151377
26.761255 33.35757 8.951176
26.434538 33.500988 12.726753
27.012857 33.620487 13.769033
26.93038 33.23137 14.170176
27.293247 32.922775 15.2100725
26.762615 33.91566 9.815272
26.642845 34.062622 10.565
26.608822 34.03762 11.323502
26.855114 33.93409 12.242135
27.016203 33.719517 13.381966
27.386581 21.400024 12.090603
27.218283 22.16947 10.209829
27.142101 21.728138 10.843296
27.746664 21.598389 11.8979025
27.429274 21.86552 14.228717
27.197876 22.705065 10.006177
27.554594 23.884697 9.272679
27.89921 23.394001 9.697839
27.44895 24.114767 15.936462
27.517609 25.057657 8.321908
27.378248 25.106745 17.423004
27.52392 25.716436 18.066294
27.487303 26.416855 7.463382
27.305048 26.381868 18.229952
28.139336 28.190111 3.2807045
27.842152 28.107676 4.853191
27.45623 27.646008 18.115776
28.277706 29.117756 2.0473244
27.882195 28.445082 3.5964897
27.478783 28.509102 5.2640038
27.604988 28.3232 6.1569023
27.981466 28.604511 18.016819
28.340858 29.543808 1.7210501
27.804201 29.256054 2.8927174
27.602253 29.30743 3.4307544
27.852118 29.25819 17.84945
28.249159 30.773056 1.8603486
27.821129 30.037348 17.246643
28.14505 31.650522 2.1906376
27.868134 31.565742 2.6234705
27.612215 31.204947 3.4557607
27.262089 31.202839 16.679028
28.322659 31.85626 2.1503422
27.958986 32.175602 2.7396934
27.702396 32.519295 3.5839133
27.516052 32.16566 16.169613
28.134228 33.128227 3.6182942
28.045288 33.31704 4.499374
27.574959 33.34952 5.7456336
27.555058 33.412064 6.634221
27.259825 33.46274 8.557946
27.688293 33.429684 15.425434
28.069866 33.23091 15.928214
27.91733 33.545464 6.4881268
27.581146 33.934902 9.825873
27.162807 34.188446 10.635142
27.371458 34.09331 12.672318
27.905987 34.19237 14.304917
28.084911 33.98888 15.29933
28.388365 21.412342 12.296579
28.33578 21.91607 10.953694
28.535824 21.62465 11.792789
28.58162 21.535461 13.403415
28.595482 21.656551 13.95398
28.508842 22.949055 10.105741
28.689491 22.455664 15.074176
29.243052 25.287827 6.425363
28.956463 25.1601 7.29944
28.088112 24.465912 16.302029
28.843998 24.762403 17.125473
28.85908 25.640158 6.6697483
28.342863 25.606607 7.552596
28.243525 25.84491 18.17501
28.798067 26.961859 5.9562087
28.275864 26.968376 18.441689
29.018314 27.90041 2.1583297
28.876627 27.873024 2.708747
28.543192 27.667227 3.3593743
29.104195 28.84323 1.0142289
28.724415 28.75502 1.604454
28.522167 28.386328 18.326185
29.305813 28.362608 18.900002
29.012817 29.457237 0.9753387
28.546211 29.627262 1.4844915
28.96428 29.212591 18.524532
29.178154 29.193394 18.770344
28.98733 30.645414 1.1222856
28.506992 30.638126 1.5805714
28.886711 30.175632 18.010618
29.124533 31.647318 1.255579
28.56632 31.314188 1.5993062
28.767265 31.543104 16.702337
29.35431 31.949116 28.041239
29.32623 31.96789 28.535852
29.36384 32.007607 29.183441
28.899172 32.21632 1.8406234
28.573086 32.403763 2.3271687
28.826662 32.79724 16.529549
29.303917 32.6054 27.83396
29.213982 32.550804 28.570137
29.296051 32.51645 29.122925
29.080326 32.709507 2.223493
28.866098 33.098644 2.8605924
28.746464 33.426495 3.4638739
28.38896 33.52795 4.5229115
28.66097 33.314735 16.248405
29.311785 33.122406 27.893578
29.213306 33.05643 28.408417
29.249636 33.118893 28.929853
28.848059 33.596024 3.8871422
28.632826 33.56198 4.480094
28.512924 33.576572 5.533715
28.612005 33.58509 6.3926573
28.469223 33.580486 7.1827965
28.473871 33.583744 8.171688
28.766136 33.670383 9.820377
27.961346 34.019672 10.695197
28.962543 34.189182 12.437374
28.332598 34.437584 13.58405
28.587992 34.440094 15.33801
28.586926 34.073338 15.8189
29.402729 34.80444 28.572365
29.450258 34.879173 29.50624
29.187735 35.0857 13.480585
28.800613 34.992622 14.528355
29.122313 34.997307 15.433049
29.423307 35.243587 28.376926
29.452183 42.97238 26.97644
29.45623 42.964718 27.195923
29.438698 43.573647 26.896114
29.427973 43.51969 27.443325
29.44365 44.00317 27.368223
29.469341 21.477371 12.828904
29.84269 21.469437 13.761921
29.427986 22.188736 10.837975
29.529926 21.644197 11.955476
29.412888 21.523453 13.584163
29.255215 21.795261 14.368383
29.511734 22.346823 14.983512
29.238422 22.563745 14.9293165
29.700174 23.139061 16.49487
30.279999 22.424816 17.723972
30.132132 24.363008 6.8612933
29.88379 23.617311 17.979935
29.886616 25.003345 6.1476307
29.763405 24.798872 6.500609
29.483912 24.872131 17.951975
30.297667 24.820404 19.232025
29.518377 25.263634 18.386017
30.30472 25.342388 19.37059
30.341545 25.526922 19.919123
30.11496 27.195213 2.7972639
29.950777 26.381216 19.363129
30.142178 26.238005 19.85476
29.813135 28.164534 1.1486996
29.526453 27.93608 1.6761621
29.273405 27.733995 2.3033075
29.489515 27.645437 19.087912
30.11209 27.24165 20.22922
29.620388 28.781523 0.74656737
29.65056 28.601456 19.436245
[...]
POINT_DATA 5380
SCALARS features_00 float 1
LOOKUP_TABLE default
0.62423635 0.63688 0.5723515 0.7298973 0.7307421 0.6861541 0.63216394 0.70005167 0.6846694 0.62877697 0.57580817 0.5525129 0.6106465 0.5938875 0.5296016 0.47663295 0.525606 0.44387972 0.46899447 0.40696645 0.41333842 0.38024855 0.25207394 0.27060872 0.25384986 0.25255787 0.2701138 0.22446084 0.22911298 0.22083342 0.2352941 0.24352968 0.30312043 0.17815582 0.18866304 0.19351208 0.20613801 0.22739676 0.24145317 0.28460833 0.2261141 0.22396028 0.23567213 0.30667534 0.3767305 0.5125434 0.5065228 0.5055383 0.53199935 0.5112655 0.47296953 0.54948986 0.54022306 0.52020025 0.67072886 0.7083521 0.7436086 0.70990145 0.6292733 0.57216376 0.63231015 0.69262314 0.5496318 0.5087241 0.5505545 0.5014743 0.42151594 0.38650164 0.2639525 0.2829503 0.44115657 0.46797395 0.21811466 0.46271408 0.5041531 0.4911619 0.14884801 0.15444061 0.3678215 0.45784277 -0.0064246953 0.027041811 0.09498746 0.17994678 0.20745435 0.22333351 0.227717 0.3919483 0.10765497 0.12730955 -0.029359542 0.20400003 0.25713745 0.26907888 0.27990696 0.18261272 0.14947498 0.1492546 0.38724285 0.43208036 0.24922736 0.2809153 0.28557706 0.35267532 0.30877393 0.23905388 0.2639174 0.43061727 0.26001048 0.2820382 0.28767967 0.38483152 0.37895754 0.28272486 0.37841326 0.4133558 0.39393654 0.22156608 0.21947789 0.5494927 0.53663063 0.50587016 0.41315597 0.300766 0.52914417 0.48832762 0.6304467 0.5768024 0.571374 0.6394814 0.5550035 0.5022286 0.49609578 0.40374127 0.5563987 0.3697092 0.42090756 0.36229575 0.28358522 0.37716705 0.4298094 0.4369907 0.14844182 0.4695027 0.09700423 0.40474707 0.40668878 0.17939895 0.16539535 0.11126734 0.03906351 0.008403927 0.24677923 0.16524398 0.31849793 0.21955252 0.19478583 0.14179654 0.19545902 0.3329746 0.2833524 0.23579355 0.27558973 0.24298744 0.37330362 0.35536534 0.24831808 0.28063205 0.28008395 0.50327814 0.41990995 0.41155532 0.23319116 0.27146828 0.5054654 0.4602189 0.42714208 0.4569797 0.31850636 0.22192673 0.21846467 0.2294063 0.49658233 0.5068692 0.47339994 0.35071063 0.23354296 0.4375893 0.48692292 0.5165568 0.39319712 0.35174286 0.4478163 0.29175463 0.30961382 0.16500457 0.10270041 0.29022792 0.3531604 0.066276774 0.41836596 0.3281895 0.16121742 0.28426057 0.48616216 0.2880418 0.16045734 0.1067538 0.09032343 0.5508298 0.36682594 0.2980038 0.069952816 0.5584897 0.12285589 0.5763699 0.5344786 0.44346154 0.24641606 0.60066044 0.5915488 0.5945176 0.24886486 0.5787281 0.50238305 0.4995979 0.46632195 0.39825132 0.23232168 0.23406371 0.45358247 0.4340641 0.47192496 0.26171076 0.25222185 0.24264327 0.31200448 0.3497249 0.30087945 0.309732 0.297854 0.296124 0.20023334 0.06613419 0.06099148 0.09993247 0.027307287 0.038387287 0.032420877 0.22390057 0.055517495 0.21001856 0.43814647 0.37114745 0.2902869 0.66415215 0.5636045 0.037059993 -0.02995105 0.67865175 0.604629 -0.015466481 -0.02516897 0.67428875 0.60600275 0.014859565 0.6747156 0.6181803 0.13409393 0.63187194 0.6270443 0.604292 0.6539551 0.63603204 0.18931225 0.56072825 0.56241107 0.55454004 0.664228 0.6410502 0.5861309 0.4951409 0.21455595 0.48602247 0.49309134 0.48013288 0.5505421 0.50237113 0.45694247 0.41200927 0.36937493 0.3138333 0.31535473 0.3657805 0.26239255 0.28404146 0.25699323 0.23659751 0.31613526 0.29812208 0.37203416 0.31381163 0.27868363 0.28716594 0.6516076 0.6594865 0.71212125 0.7314576 0.7647332 0.26277733 0.26644644 0.20469587 0.23810983 0.2756682 0.26507062 0.16529241 0.18379427 -0.016763568 0.31503487 0.1005531 0.10509233 0.09863784 0.09177426 -0.05859474 0.015721392 -0.059504777 0.009664929 0.02423887 0.25429413 0.019018877 0.03196149 0.6417589 0.52457875 0.39272046 -0.03403221 0.03785517 0.6937645 -0.027022347 -0.0136019215 0.7132187 0.7040485 -0.026877917 -0.017311893 0.7174895 0.717649 -0.021498494 0.65743023 0.64294183 0.6092174 0.70503414 -0.027518965 0.6250671 0.656839 0.6489563 0.61400694 0.6963409 0.68479747 0.122954085 0.5508225 0.5643896 0.53906 0.49236292 0.67276645 0.64039767 0.5841331 0.5058919 0.43270683 0.35813215 0.28845957 0.28399488 0.30799395 0.12903114 0.4789548 0.4491167 0.41217935 0.3980636 0.36778527 0.4465906 0.5611503 0.49265027 0.36599928 0.32739708 0.29865876 0.21433929 0.29482728 0.32470766 0.3165917 0.32466298 0.2634655 0.40913445 0.48217392 0.5081134 0.27156582 0.25300747 0.32092178 0.28866282 0.26735434 0.26977605 0.17105353 0.23073494 0.37348485 0.46034354 0.4905553 0.48913485 0.45218962 0.461368 0.4056077 0.32525232 0.30191076 0.3165772 0.2855849 0.20593122 0.05984483 0.12611876 0.24038568 0.319647 0.40063912 0.40691757 0.28158548 0.28494984 0.24284942 0.201565 0.2522714 0.31111127 0.3313334 0.22683318 0.24228087 0.24621695 0.2988744 0.30504623 0.29652828 0.4541448 0.43492913 0.52001745 0.56959826 0.6152087 0.61609125 0.64751995 0.63862467 0.68515915 0.75450957 0.7516899 0.72396743 0.7624968 0.7888403 0.78280795 0.7428696 0.800709 0.7938466 0.7731967 0.35001588 0.3701322 0.17065397 0.20845154 0.27731192 0.35447276 0.37562966 0.34768593 0.12965825 0.11422653 0.3158397 0.29545096 0.13702577 0.11291246 0.106545396 0.16792682 0.21862344 0.14521939 0.040925484 0.07950349 0.21959695 0.14793095 0.03612149 0.056434646 0.1814594 0.061087374 0.11640659 0.14171255 0.668659 0.056970447 0.12345767 0.19942456 0.70476127 0.6966816 0.010397553 0.06822419 0.15721516 0.26138088 0.70792854 0.6845253 0.037880078 0.17765594 0.2524858 0.2541724 0.71752083 0.70439255 -0.024741605 -0.0110927075 0.1284229 0.21303567 0.24703303 0.63204014 0.642154 0.6036577 0.57406616 0.7140098 0.6830124 0.20854017 0.08427247 -0.15958712 0.065532275 0.1690608 0.55221206 0.5104808 0.6815377 0.65490776 0.37954986 0.27428335 0.22285682 0.2251027 0.2795921 0.09383046 0.084608525 0.29551208 0.2148808 0.39711905 0.5784883 0.57189554 0.6466637 0.5838036 0.50377077 0.31911182 0.28146285 0.28659856 0.29532886 0.29211652 0.01782505 0.07214547 0.09251575 0.07253857 0.3440169 -0.046526026 0.3404202 0.41295385 0.4732824 0.49113685 0.6026887 0.59676355 0.5958184 0.40555146 0.046143077 -0.0083929915 0.021242047 0.15752673 0.19329198 0.35272038 0.52806693 0.6284724 0.6209432 0.6192443 0.41841054 0.43276858 0.25156263 0.27916414 0.4762044 0.50455195 0.4101767 0.44603705 0.39691564 0.23510215 0.36652553 0.38853085 0.4319526 0.43795913 0.28448302 0.26791123 0.30877382 0.3431338 0.4194536 0.28437933 0.29732022 0.30058274 0.28325126 0.033315465 0.17862318 0.16806512 0.31074864 0.2750847 0.26614338 -0.010595627 0.0012697577 0.061312795 0.106911376 0.060829382 0.25187278 0.28121114 0.29870573 0.31948945 0.0863663 0.19573751 0.27283892 0.16341929 0.30317548 0.33177817 0.1987745 0.45882818 0.1195534 0.3079765 0.47189412 0.58706784 0.7178156 0.71808374 0.74737805 0.69377536 0.8155168 0.7631568 0.73022217 0.27752277 0.3228939 0.36338413 0.34029374 0.122649774 0.12831436 0.14966603 0.23712097 0.34564513 0.10108563 0.30082506 0.2607517 0.348323 0.17973839 0.12152308 0.173717 0.5095967 0.4181026 0.26270735 0.56699896 0.50271255 0.34402475 0.10677951 0.1693916 0.19304714 0.6041152 0.41320127 0.11217432 0.18204764 0.22313255 0.26645038 0.56477356 0.25544024 0.28194734 0.6409135 0.31665832 0.66540873 0.5488111 0.02219148 -0.15584323 0.28408903 0.6433997 0.50503814 0.38761526 0.16768305 0.09423333 -0.063997865 -0.09525305 0.2763988 0.29668692 0.59809005 0.56787896 0.39230055 0.26406178 0.37195736 0.45965868 0.65909255 0.5989947 0.4983727 0.39374837 0.35615176 0.18203095 0.10430966 0.103270404 0.057191737 0.098506205 0.12750056 0.4055657 0.5201912 0.33783698 0.2770276 0.65231466 0.42940646 -0.12838033 -0.14004844 0.062015157 0.020001817 -0.018073767 0.19596952 -0.030184742 0.16957438 0.37495866 0.44687685 0.47227758 0.5708326 0.5576794 0.5644648 0.51335794 0.0687662 0.0653368 0.058544114 0.13236572 -0.028824888 0.23290837 0.46683544 0.5373871 0.5983355 0.5780517 0.5509572 0.5113469 0.15915433 0.16597193 -0.0063977465 0.56239134 0.6223452 0.646026 0.65190613 0.6673566 0.58991224 0.507566 0.3579139 0.15178815 -0.04450164 0.0482419 0.08330232 0.14399673 0.5845131 0.6073851 0.7091541 0.65486246 0.3855793 0.3375749 -0.12549111 -0.09592232 0.1393002 0.20942661 0.17601977 0.20585111 0.0666071 0.04399183 0.44661605 0.49562117 0.5997791 0.38823694 0.19119254 0.30120286 -0.16925205 0.14365806 0.22624774 0.22034264 0.24982838 0.26776102 0.28069705 0.22627556 0.4153927 0.4558953 0.5889605 0.49712986 0.33691698 0.08409142 0.2190522 0.28471777 0.2906696 0.29974988 0.26167193 0.23653519 0.35196465 0.38730085 0.5818675 0.5001356 0.32670355 0.234669 0.25905725 0.30137008 0.30020267 0.30120194 0.1739092 0.09896214 0.023437165 0.34039277 0.22040051 0.24607944 0.26377487 0.17199442 0.10400057 -9.034248e-05 -0.02018074 0.01915025 0.38440967 0.3656936 0.33432254 0.014913604 0.15832837 0.06597462 0.40728375 0.40817475 0.40237457 0.41359034 0.41754127 0.42775872 0.5979052 0.6426478 0.601622 0.75851566 0.7015499 0.65131164 0.62038463 0.3515605 0.5436008 0.42137858 0.4517861 0.45502222 0.5760343 0.5875239 0.4254737 0.48628896 0.51508015 0.51019853 0.39451683 0.5626159 0.4725942 0.5162849 0.5636871 0.6239114 0.5330842 0.480624 0.5505171 0.6486061 0.68075407 0.6110097 0.53586614 0.6920682 0.62545323 0.5540605 0.6388059 0.48001063 0.35160804 0.27465767 0.6326066 0.2655008 0.2723487 0.10995507 0.11919989 0.10821712 0.27827018 0.2404871 0.063406214 0.0991134 0.21741895 0.18968095 0.4956388 0.4292402 0.16440669 0.09846723 0.16567136 0.62715304 0.5751101 0.06951734 0.09780277 0.1678283 0.66506064 0.15742506 0.21926348 0.70126617 0.69046223 0.24967699 0.5459237 0.2246826 0.41309184 -0.3683676 0.3772263 0.34580064 0.18291736 0.10460486 -0.33660454 -0.38266313 -0.14137204 0.06336935 0.52356315 0.38720906 0.29786444 -0.030705303 0.31192058 0.43858337 0.5061201 0.55182815 0.5677407 0.5238998 -0.17256638 0.4381951 0.45399767 0.5420571 0.6043129 0.5673374 0.4633821 -0.09232669 -0.031444967 -0.147991 -0.018360134 0.6279917 0.66518223 0.503744 0.5455306 0.22809465 0.64709246 0.661893 0.68220925 0.61110103 -0.019246712 0.6181547 0.6158993 0.64818877 0.75500786 0.7542399 0.2505831 0.112477034 -0.009140842 0.56793654 0.56370103 0.5432517 0.60947263 0.7597656 0.5787227 0.50427204 0.3423635 -0.14687061 0.41001862 0.4453162 0.48668456 0.52922356 0.63845366 0.69153386 0.7310407 0.61425126 0.5810666 0.16262642 -0.053208433 0.18525353 0.27823892 0.380077 0.6347971 0.6380775 0.6010773 0.35307503 0.22200377 -0.0043150857 0.103200525 0.63307923 0.62173724 0.58081526 0.48231035 0.39321935 0.27195024 0.11832347 0.066397354 0.089923084 0.1659854 0.11143283 0.0033567802 0.29383862 0.5095466 0.0609757 -0.0004955232 0.015623342 -0.034648135 0.3707645 0.34078628 0.24886227 0.31762645 0.27457333 0.40485805 0.3946368 0.3431916 0.35864645 0.26142505 0.29165736 0.48082566 0.29478016 0.2766215 0.21470903 0.1760776 0.34205154 0.51974505 0.16486263 0.20812 0.2600176 0.19373931 0.39280617 0.5069668 0.5283391 0.24154487 0.10481036 0.44352776 0.30903864 0.45662534 0.60935766 0.59074837 0.32737267 0.4055956 0.37710324 0.5297721 0.598114 0.6214972 0.34493092 0.46059743 0.44564202 0.5506185 0.50092673 0.6027318 0.6406441 0.59458053 0.4992531 0.66413563 0.70574725 0.71102285 0.6439512 0.56471 0.52593476 0.60473025 0.5926853 0.52592784 0.4370194 0.38573003 0.58232415 0.2784806 0.24246466 0.49648142 0.17165862 0.088074215 0.15531477 0.24453285 0.28858376 0.24200332 0.0037010144 0.0078008585 -0.05196549 0.164577 0.5433225 0.5116511 0.46591443 0.08394873 0.6538534 0.5788515 0.5355232 0.18858004 0.704121 0.737525 0.20261054 0.18987384 0.65879786 0.5292009 0.11777346 0.3802865 0.29912233 0.06998388 -0.27469137 -0.38602582 -0.4129309 0.095468335 -0.016739517 0.31513518 0.167751 -0.0028561577 -0.2266285 0.5487112 0.55691516 -0.06837492 -0.12274361 -0.24349767 -0.059028834 0.39212433 0.5622619 0.5537149 -0.19010377 0.5147538 -0.24381667 0.2773466 0.37068886 0.4496791 0.5354804 0.6049126 0.68268776 0.6357868 0.66046226 0.5866627 0.6323526 -0.15208186 -0.33346993 -0.3446077 0.6521555 0.63795763 0.6051758 0.71948826 -0.269538 0.5775805 0.5679566 0.7741893 0.53556055 0.53068066 0.4999516 0.4773242 0.75064754 0.7586583 0.5229732 0.4010138 0.4477589 0.47863042 0.512539 0.6369736 0.7301666 0.7397958 0.5900754 0.5754256 0.33294928 0.371277 0.6178719 0.07276581 0.1449656 0.60455215 0.5939535 0.39087993 0.24847549 0.20428231 0.54146826 0.40600836 0.31109512 0.06525077 -0.07998221 0.29733583 0.25348556 0.16077268 -0.2457149 0.15196452 0.30227065 0.34454292 0.1504737 0.13820249 0.05510938 0.10026917 0.42798728 0.05858147 0.45240226 0.46767157 0.13448562 0.17949393 0.0743724 -0.1724429 0.38781798 0.447015 0.31920028 0.09725983 0.2481757 0.5240448 0.3631927 0.5736456 0.38329515 0.15240777 0.59578586 0.58763385 0.5424156 0.49759725 0.5285574 0.55120575 0.45271266 0.40511802 0.4712434 0.66518176 0.6953825 0.7031275 0.63032997 0.5162611 0.6612141 0.6840636 0.672132 0.46757978 0.38523823 0.37211716 0.54965246 0.55142236 0.34786576 0.29168612 0.4632051 0.5057423 0.23003061 0.16072021 0.13143049 0.429215 0.060185052 0.07995931 0.4525152 -0.0044712126 0.09038547 0.51133317 0.39366028 0.30206323 0.5530672 0.49462315 0.17812793 0.20298505 0.7297449 0.6456039 0.19763447 0.18209055 0.7528272 0.75637025 0.66448456 0.14008301 0.5768999 0.49040884 -0.15105468 0.03048501 0.39157355 0.2585642 -0.26897368 -0.1353991 -0.47505018 -0.25424528 -0.15188548 -0.11189017 -0.11435543 -0.1343835 -0.33704945 0.41316295 0.4998935 0.5379716 -0.06710619 -0.32970613 -0.33249074 -0.1521962 0.5124324 0.50079834 -0.12569539 0.4253725 0.51755327 -0.33580118 0.32879233 0.19068947 0.26041332 0.47585237 0.56622446 0.4921804 -0.330651 0.6036166 0.625626 0.4960727 -0.30873328 0.59347713 0.57968116 0.6745497 0.5384458 0.75425684 0.36329496 0.23369147 0.27023596 0.47295755 0.38301682 0.7289596 0.47071862 0.40379244 0.4533353 0.50714046 0.7306477 0.738546 0.5324017 0.55795264 0.22669452 0.28445446 0.34461036 0.6617743 0.7177967 0.7310216 0.5248486 0.5500444 0.46347228 -0.05878199 0.20321208 0.12459412 0.25560766 0.09216288 0.2569306 0.197916 0.3388378 0.29583833 0.22873934 0.22121088 0.0028298125 0.23060068 0.25978315 0.36463723 0.35466608 0.31770378 0.06479688 0.29356802 0.09607819 -0.11926091 0.23806547 0.26237643 0.31220582 0.49109682 0.24177942 0.39632133 0.66224265 0.6161207 0.40545616 0.6843911 0.6462095 0.4806795 0.48571056 0.68000734 0.64890754 0.6057269 0.44821286 0.48054656 0.6237724 0.48863837 0.5581875 0.22876161 0.39956278 0.54803294 0.62240875 0.55152094 0.52804804 0.4600435 0.6356555 0.61739177 0.22749779 0.35393038 0.39083558 0.15207124 0.21878031 0.31704685 0.19223924 0.13151452 -0.05429342 0.12861894 0.4967696 0.46533352 0.43075842 0.25863677 -0.10119444 0.03452199 0.48570454 -0.05853782 0.076607406 0.39154863 0.11484326 0.1450348 0.27147603 0.19053817 0.20522417 0.20341913 0.37761924 0.18336882 0.18088444 0.12255038 -0.23876774 -0.02738085 -0.08925861 0.0054243356 -0.086503014 -0.13760495 -0.046604536 0.0968592 0.5613636 0.6400081 0.6753397 -0.06758307 -0.06046927 -0.32837445 -0.02141865 0.18208662 0.26350442 0.6705856 0.39135635 0.40475845 0.6374692 0.34414113 -0.29139042 0.37168872 0.40403622 0.5037779 0.47322446 0.55231106 -0.3745929 0.4982854 0.11356574 0.43098676 0.66696477 0.29633144 0.22618547 0.41194582 0.4084254 0.6789999 0.40084594 0.3797696 0.44409963 0.4978779 0.6755031 0.6756962 0.6957146 0.45291936 0.31211334 0.3527345 0.6564691 0.69222283 0.71494335 0.433384 0.23962724 0.3670649 0.20386866 0.27279854 0.2912871 -0.22769584 0.110732645 -0.12672944 -0.22161224 0.04320254 0.17401677 0.23091793 0.24889925 0.23595467 -0.19530997 0.35530964 0.37623006 0.3574855 -0.11290361 0.12016285 0.07770207 0.32638127 0.028372873 0.021792203 0.64587164 0.34007287 0.71421695 0.7249332 0.40242133 0.42267892 0.6899172 0.6524003 0.3530181 0.40020448 0.58616245 0.4695361 0.36364427 0.16264558 0.16388473 0.14846861 0.2660404 0.49548885 0.48044106 0.32823297 0.5648602 0.6061814 0.5840445 0.5433886 0.56183976 0.54243207 0.40398827 0.39420903 0.22892566 0.44439715 0.43277532 0.0797015 -0.02446274 0.12622328 -0.05700522 0.07673828 0.495767 0.36890784 0.06001442 -0.053213865 0.46706608 0.046551824 0.09037399 0.29172018 0.17677656 0.20785128 0.19325694 0.12725309 0.07819641 0.68076205 0.034514576 -0.24470845 0.030960139 0.1779401 0.21475187 0.6024111 0.64740646 0.67488277 0.07614139 0.045475885 -0.10740858 0.12901583 0.26986867 0.23949113 0.5714592 0.58051103 0.6674112 0.049938872 0.0012771338 0.008220628 -0.057607234 0.20176315 0.14057134 0.48013723 0.5225145 0.08290607 0.059853926 0.07539618 0.2905192 0.4731161 0.1272434 0.24347407 0.13044527 0.031844303 0.14346178 0.094136275 -0.021381907 -0.032142572 0.16515407 0.34861615 0.3976588 0.46298826 -0.19277892 0.4164922 0.15960214 0.46467882 0.14919902 0.46849406 0.366741 0.5054093 0.16736001 0.4566344 0.51460755 0.516267 0.2690284 0.45139283 0.47433203 0.5881357 0.38044086 0.37398836 0.41810232 0.3924707 0.23409297 0.2966836 0.1866036 0.25545534 0.08339481 0.13161321 0.23511916 0.2733127 0.28574133 -0.15625201 0.064281665 0.3382396 0.35501063 -0.39996558 0.34569246 0.039667204 0.059116006 -0.33025673 0.07842679 0.4891586 0.23799422 0.31071547 0.67101616 0.36955845 0.7121958 0.3620225 0.66835064 0.19545984 0.27887708 0.33194852 0.5769188 0.45719346 0.276894 0.049980596 0.1795075 0.3024063 0.15948503 0.21053657 0.058740932 0.56531703 0.60866636 0.6057313 0.39943025 0.50323075 0.60300744 0.5908947 0.53026915 0.27801126 0.47249466 0.3809172 0.34511474 0.36993793 0.36508706 0.33448204 0.419995 0.17743374 0.055834774 0.37745142 0.3815242 -0.08944121 0.027798545 -0.08829657 -0.08617678 0.49939084 -0.062412217 0.016698934 0.4230783 -0.04063069 -0.0102585405 0.06990255 0.30905348 0.116743386 0.14841543 0.108591855 0.36992115 0.18570003 0.34326062 -0.0278617 0.14234763 0.6803312 0.67703617 0.77273285 0.63602877 0.041509718 0.1320743 0.28845948 0.27619576 0.6086656 0.65032053 0.6651828 0.645822 0.10614289 0.14097214 0.574378 0.5983417 0.52849305 -0.004861921 0.058004975 0.4226445 0.084424645 -0.009338655 0.39739555 0.1275431 0.053757872 0.06498088 -0.0032629706 -0.02109814 -0.15422252 0.20150179 0.2287758 0.3061201 0.06309171 0.36552078 0.40784982 -0.10721752 -0.16672853 0.008738518 0.16293111 0.328687 0.43171278 0.46958184 0.42913234 -0.13577132 0.5262197 0.4327461 0.061789084 0.06011081 0.51282215 0.5609972 0.4989559 0.37604827 0.43445 0.13133596 0.5387257 0.55410355 0.22684641 0.43629938 0.51459205 0.20909825 0.33323944 0.22805947 0.08070731 0.05416458 0.25225168 0.092920914 0.17201532 0.18866888 0.25781593 0.26965314 0.032705747 -0.052358083 -0.3543894 -0.18166783 0.10011613 0.22713515 0.100347966 0.15129393 -0.09044397 -0.25095707 0.5428896 0.12367465 0.17466193 0.65971076 0.46262515 0.44051266 0.46793243 0.69162774 0.605471 0.5313816 0.54561853 0.28637642 0.3213287 0.6200104 0.5723331 0.18755022 0.24444154 0.52466846 0.4098135 0.3462956 -0.007928215 0.12882695 0.29036963 0.23044041 0.1697027 0.48791873 0.5469419 0.5039925 0.40951455 0.4425186 0.5579877 0.49758738 0.45207232 0.3955837 0.13403949 0.14691603 0.35859075 0.3120668 0.124106266 0.34147412 0.06191121 0.0633089 0.31579685 0.07761298 0.13762884 0.076065026 0.10821573 0.11718887 -0.07638615 0.0094705075 -0.0152238775 -0.008968953 0.016753837 0.026675086 0.032386217 -0.019356098 0.6265317 0.42467323 -0.1779992 -0.03914457 -0.02132684 0.12782699 0.22141081 0.7998422 0.69226784 0.53739035 0.28075266 0.051924735 0.060915317 0.8195088 0.059362955 0.6581882 0.6708324 0.6623758 0.7427592 0.24975774 0.6393414 0.6409769 0.63411635 0.5691558 0.35791984 0.10014354 0.11340464 0.07627309 0.54712975 0.47034147 0.0056042597 -0.011387914 -0.010411207 0.022280175 0.41248238 -0.03868352 0.036598235 0.34386355 0.006136343 0.050234266 0.6968201 0.6803406 0.6444113 0.045961156 -0.106131345 0.7246024 0.6904875 0.6569219 0.6018373 0.5124287 0.1892369 0.393705 0.08432708 -0.23607814 0.763873 0.7491758 0.70307124 0.5876682 0.4833448 0.38567483 0.35157594 0.33440834 0.22559382 -0.17542496 -0.3083421 -0.329746 0.16950712 0.2795605 0.3664943 0.45376247 0.5369739 0.72743034 0.64952767 0.619595 0.4024413