# vtk DataFile Version 2.0
Really cool data
ASCII
DATASET POLYDATA
POINTS 3497 float
28.149796 19.333324 71.48459
28.248007 19.958885 70.31369
27.92737 19.792068 70.904076
27.864792 19.68445 71.502754
28.04887 19.69915 72.09782
27.86045 20.321356 70.685
27.68885 20.411177 71.4578
27.823364 20.36742 72.139435
28.387197 20.657612 73.211006
28.343878 21.147415 70.19919
28.014248 21.351099 70.69161
27.954859 21.613113 71.47711
27.902742 21.252007 72.133125
28.277983 21.23122 73.014626
28.188572 21.885384 70.83458
28.188643 22.010923 71.47383
28.271624 22.100807 72.34753
28.446854 22.116358 73.412415
28.629896 19.197887 70.94274
28.629082 19.10201 71.43274
28.547073 19.273813 72.185524
29.187206 20.079243 65.31499
28.851387 19.880306 66.65146
28.913624 19.795336 67.62472
29.079174 19.545635 70.06056
28.469769 19.497093 72.57277
28.96368 19.782673 73.44099
29.192854 19.868788 73.827614
29.274332 20.78587 65.05212
28.91716 20.365456 65.68027
28.699114 20.55899 66.41848
28.706434 20.221296 67.50041
29.02588 20.71932 68.79797
28.609236 21.011923 73.6767
28.948986 20.574688 74.065414
29.043753 21.188366 65.63987
28.788391 21.190397 66.44779
28.857786 21.38371 67.3901
29.0027 21.613518 68.70465
28.936653 21.72708 69.11849
28.486937 21.406504 73.765564
28.987461 21.64441 74.48952
29.184038 21.728968 74.670235
29.329206 21.971354 65.83876
29.24201 22.384201 66.62751
29.150373 22.001284 67.91135
28.572369 22.597065 71.33234
28.500546 22.462097 72.59959
28.64124 22.497904 73.44095
28.991678 22.446318 74.396835
29.222181 22.328228 74.713326
29.202484 22.985395 69.85374
29.020418 22.795443 70.725586
28.756523 22.756468 71.72416
28.871923 22.891243 72.66518
29.013542 22.990227 73.46885
29.10712 22.86998 74.19825
30.36307 18.99791 63.94962
30.300348 18.454975 64.78518
30.29728 18.426357 65.39306
29.739166 18.861094 66.63299
29.287655 19.235071 70.55967
29.47888 18.97406 71.501526
29.479578 19.115746 72.578224
29.658459 19.342924 73.4289
30.220198 19.51148 63.94493
30.03086 19.177252 64.58077
29.533262 19.480976 65.64186
29.434086 19.427948 69.845
29.447733 19.451166 73.54702
29.649239 19.806353 74.04132
30.032068 20.212042 64.21361
29.68634 20.35563 64.65977
29.526506 20.58384 74.48588
29.61596 20.93913 74.70552
29.716547 21.221022 64.93076
29.648981 21.829582 74.99119
29.419062 22.436172 66.47164
29.704878 22.448505 74.94984
30.374615 24.067677 55.706055
30.240644 23.273392 66.19495
29.98411 23.40032 66.84826
29.811378 23.375027 67.28537
29.778742 23.424955 68.82153
29.558788 23.20027 69.74768
29.833609 23.35738 70.37954
29.706203 23.272356 72.912125
29.622946 23.307018 73.588646
29.602736 23.068285 74.39074
29.69032 22.834484 74.74983
30.250486 24.79754 55.050503
30.16307 24.768818 55.524445
30.288662 24.682915 56.145023
30.106224 23.603943 67.42867
29.961422 23.648764 69.61304
30.244404 25.37848 55.061043
30.140053 25.375055 55.503235
30.220896 25.374434 56.05901
30.291952 25.84088 55.5993
31.04308 18.184261 63.62522
30.698307 18.079344 64.59209
30.973915 18.097841 66.57643
30.89076 18.201023 67.18836
30.660019 18.60244 63.8
30.446829 18.478346 64.32376
30.692572 18.803408 68.35046
30.79698 18.920938 72.20686
30.369534 19.323523 73.378555
30.982834 19.125872 63.36157
30.401512 19.83365 74.17813
30.915049 20.285423 63.355
30.270914 20.998669 74.78576
31.276018 21.313707 63.09244
30.31817 21.760036 75.03209
31.213543 23.113846 55.12014
31.153847 22.905241 55.622963
31.268835 22.775003 56.231167
30.959034 22.486078 64.8353
30.406683 22.354328 74.99214
31.00139 23.657244 54.88272
30.599777 23.873707 55.562737
30.810583 23.503803 56.11061
30.98562 23.749586 56.74961
31.253414 23.60704 62.38443
31.240309 23.557426 63.556877
30.32818 23.245922 71.02648
30.338186 23.329874 73.546585
30.3626 23.063847 74.4606
30.25422 22.86126 74.77408
31.164299 24.767912 54.176476
30.695663 24.53133 54.617832
30.59812 24.568233 56.50573
30.76354 24.708998 56.76872
31.156088 24.310858 62.52661
31.21509 24.432243 62.985744
30.408865 23.779865 67.739235
30.415995 23.75746 68.92522
30.978453 24.306713 69.35097
31.017712 25.332718 54.16431
30.647446 25.424477 54.5495
30.472023 25.385008 56.408443
30.784946 25.235252 56.774002
31.380947 24.850645 62.039383
31.28801 24.664835 69.296585
31.055483 25.927986 54.29094
30.586697 26.031406 54.852352
30.692228 26.341213 55.499367
30.71463 26.047659 56.21333
31.116894 26.755617 55.620132
31.793304 17.847958 64.011246
31.284767 17.7797 64.49868
31.62313 18.004427 67.36716
32.291534 18.110098 68.4496
31.290537 18.43444 63.42266
31.287554 18.732208 71.46204
31.589954 19.040945 72.112915
32.442303 19.85751 57.983032
31.518173 19.165657 63.0898
31.21737 20.607567 74.40385
32.484352 21.466215 57.34997
32.40902 21.186165 58.606956
31.787209 21.9658 62.201836
31.1983 21.573555 74.464554
31.522406 22.863342 55.053875
31.595177 22.619158 55.456387
31.601135 22.57621 56.581177
31.777788 22.19335 61.988297
31.004885 22.19113 74.785416
31.930252 23.534029 54.260006
31.437452 23.471025 54.605877
31.906404 23.70854 57.233826
31.67084 23.238943 61.741173
31.255228 23.38183 71.31037
31.874819 23.266363 72.6799
30.886374 22.77636 74.55874
31.76583 24.8415 53.866142
31.506432 24.34329 57.257614
31.953215 24.747408 61.274242
31.86289 24.104515 65.93754
31.71889 24.214075 66.98752
31.631702 23.961344 70.50701
31.746222 25.712523 53.827316
32.124786 24.932838 61.18179
31.718332 25.223364 61.84681
31.48034 25.347132 62.640305
31.624914 25.315763 62.985622
31.773664 25.089176 68.78296
31.599882 24.86164 69.2722
31.604546 26.140974 53.832687
31.64266 26.46282 56.38883
31.779392 26.087252 56.765194
31.813725 25.893486 62.834145
31.825325 26.597515 63.513622
31.854143 26.564236 64.20044
32.20576 26.602835 64.94422
31.664473 27.041748 54.069942
31.388096 27.091202 54.604984
31.728191 26.961752 56.015903
32.176506 27.335585 63.086926
32.043713 27.356968 63.589897
32.098743 27.493069 64.188446
32.229256 27.154728 64.77696
32.455204 29.091211 54.68558
32.311333 27.795403 63.900784
32.19906 27.764929 64.021996
32.054394 29.922226 52.94338
31.999475 29.86369 53.211258
32.09349 29.802485 54.452946
32.322292 29.57329 55.438507
32.037224 30.471085 52.78393
31.88252 30.603836 53.52554
32.021984 30.405514 54.39888
32.25673 30.384005 55.303837
32.209667 31.088005 52.785286
32.076756 31.136572 53.461357
32.220753 31.147207 54.26047
32.323402 30.874407 54.917015
33.27995 15.294932 58.89719
33.167828 15.069811 59.833946
33.178116 15.187748 60.358505
33.337845 16.162848 58.060764
33.084145 15.764764 58.841103
32.82613 15.661966 59.63717
32.90981 15.629275 60.359447
33.16827 15.553481 60.800835
33.386257 15.993775 69.100006
33.039608 16.285704 58.45916
32.731762 16.638592 59.633724
32.938774 16.47651 60.485264
33.03602 16.916435 68.72776
33.148804 17.976826 57.030815
32.903507 17.87269 57.689533
32.850147 17.170452 59.896606
32.65425 18.170744 63.927658
32.16405 17.708023 65.56563
32.915665 17.705412 69.729164
33.03596 17.608532 70.28141
32.919094 18.706388 57.14598
32.741577 18.493994 57.46879
32.58152 18.63482 58.369057
32.83329 18.794495 59.31197
32.08629 18.802351 63.2583
32.44758 18.76077 63.420124
32.596786 18.502731 71.91718
33.04609 18.792574 73.28329
33.03198 19.295485 56.93731
32.603264 19.161999 57.44409
32.77822 19.899996 59.5787
32.85343 19.836407 59.77038
32.84966 20.072084 62.389442
32.72853 20.626673 57.02843
32.492115 20.242363 57.41585
32.745277 20.698391 60.042328
32.847366 22.167278 55.386826
32.926937 21.328676 59.664257
33.26005 21.86585 60.848324
32.791325 21.668213 74.106865
32.517693 23.104565 54.277122
32.702446 22.785748 54.509502
32.576202 22.34854 57.395508
32.9425 22.001854 58.568474
33.016407 22.11845 59.00644
32.769478 22.819925 60.96538
32.52375 23.842155 53.84604
32.246376 23.518755 57.44268
32.56108 22.954462 73.277916
32.58023 24.521112 53.637276
32.240433 24.375362 57.194664
32.90371 25.736671 53.2103
32.57109 25.198097 57.11769
32.917595 25.405956 61.180202
32.476463 25.64109 65.194595
32.280247 25.250156 68.04718
32.43517 25.396225 68.52553
33.034367 25.496456 69.17949
32.85882 24.900043 69.748405
32.49839 26.568827 53.533524
32.76167 26.284176 62.079998
33.063274 26.142612 66.67781
33.21774 26.141836 67.39044
32.86823 26.8958 53.59267
32.7814 27.128149 56.330456
32.83791 26.922983 56.70913
32.589893 27.318857 62.557842
32.73057 27.347673 65.38836
33.313663 27.415848 66.17177
32.53426 29.17404 53.09853
32.967785 28.136536 62.908195
32.5042 27.987322 63.56165
32.727165 28.191309 64.305016
33.079105 28.182701 65.18608
32.90175 29.87359 51.971233
32.40357 29.792774 52.488674
32.59207 29.856459 55.998222
33.28878 28.701675 63.521446
33.12195 28.621807 64.02976
32.940918 30.422712 51.695263
32.453133 30.675703 55.527145
32.623505 30.3649 56.00905
33.30688 31.10084 51.261963
32.833378 31.2292 52.007385
32.457966 31.284529 52.578537
32.47954 31.534853 53.6996
32.62831 31.536495 54.329746
32.667637 30.979843 55.466614
33.105766 30.878166 56.056293
32.92983 31.826534 52.673206
32.874596 31.83886 53.47675
32.95164 31.751608 54.568024
33.061386 31.61597 54.965767
33.703125 14.935439 58.98485
33.771286 14.782704 59.579006
33.674892 14.846287 60.26823
33.69473 15.098215 60.767002
34.151196 15.2920685 66.71485
33.957016 15.255888 67.573265
34.00997 15.150476 68.024055
34.035625 15.3910475 69.629814
34.25941 15.004665 72.81729
34.310863 15.103748 73.32779
34.02602 15.980805 57.028023
33.820206 16.023375 57.661884
33.364483 15.588218 58.502247
33.98475 15.406876 61.06118
34.01197 15.881682 66.19769
33.857407 15.567476 66.682365
33.593445 15.645447 67.708885
33.569088 15.608377 68.61909
33.75135 15.596143 69.21026
34.22054 15.385004 72.4952
34.22591 15.902638 73.71397
34.381783 15.562421 73.9556
33.824127 16.611593 56.973408
33.61312 16.37471 57.659073
33.45156 16.682137 61.05873
33.830387 16.282963 66.024284
34.072067 16.133228 72.69521
33.786522 17.885233 56.664555
33.66971 17.464527 71.91286
33.615425 18.199303 56.724197
33.75293 18.370058 73.47661
34.067314 18.215916 73.98276
33.986736 19.56863 56.310802
[...]
POINT_DATA 3497
SCALARS features_00 float 1
LOOKUP_TABLE default
0.6790821 0.6534853 0.70011556 0.70875406 0.6933696 0.69430345 0.72968477 0.721835 0.6639158 0.48880845 0.5309971 0.5442431 0.62200654 0.6533065 0.45022106 0.47913218 0.5414728 0.6730312 0.6395683 0.633785 0.63059855 0.4244241 0.47038922 0.40663525 0.5759555 0.6356561 0.6067823 0.6149764 0.42360473 0.44751075 0.4663676 0.42386866 0.31146306 0.6868081 0.67704046 0.44654876 0.45236462 0.39130816 0.30862918 0.31196618 0.70483065 0.76963043 0.78906435 0.41113204 0.38694796 0.346275 0.39822647 0.54994917 0.6814943 0.79837143 0.81992304 0.27076232 0.33869863 0.4056612 0.53409535 0.6957711 0.7912016 0.4759611 0.4861829 0.483167 0.47659183 0.5669147 0.5309927 0.506686 0.5305074 0.42065448 0.44358826 0.43764693 0.49666184 0.56093776 0.6027123 0.3640713 0.3921327 0.6917064 0.7342228 0.3873125 0.81212544 0.38110906 0.8328651 0.7602108 0.2771102 0.28371903 0.29091954 0.22219363 0.23557048 0.23857336 0.5669719 0.7278839 0.8160058 0.8340322 0.7775818 0.7986028 0.78603506 0.25162503 0.18652856 0.78542495 0.8079546 0.79915667 0.80342096 0.5423179 0.5193988 0.3691733 0.20758697 0.5181668 0.5043093 0.035668977 0.32071537 0.47147167 0.5031728 0.59675884 0.35759026 0.7443125 0.20268396 0.7900963 0.59883994 0.61603785 0.60967594 0.20515443 0.804927 0.64590603 0.7343526 0.7027294 0.6936096 0.417713 0.28958315 0.24747741 0.6796291 0.79038346 0.8198874 0.613656 0.707536 0.7528156 0.7207841 0.41208434 0.37574446 0.21595469 0.17745629 0.18258011 0.6257725 0.71035725 0.7719004 0.71649784 0.40770507 0.194843 0.63607824 0.74443746 0.7899295 0.7646769 0.7583227 0.57482296 0.5599835 0.09946128 -0.041620318 0.54615986 0.11277077 0.1280575 0.37720156 0.5018401 0.6235889 0.21997152 0.3026011 0.10285254 0.6366375 0.5387602 0.54037625 0.5513716 0.11655266 0.71834695 0.47681293 0.5604959 0.5104986 0.33127522 0.1869686 0.24605829 0.728346 0.49551043 0.58209306 0.4032961 0.08544112 0.19868171 0.16185515 0.48140812 0.3740574 0.3935579 0.37646773 0.35477102 0.19119138 0.19641459 0.50360864 0.6103699 0.5594683 0.3706841 0.38641912 0.39700985 0.40428942 0.4958328 0.6406498 0.59057546 0.3962713 0.41186115 0.4261222 0.42224848 0.52779573 0.43322736 0.4320773 0.64326555 0.66285527 0.59469426 0.51941633 0.6503977 0.6691104 0.5975634 0.54091036 0.64618146 0.64206314 0.57842594 0.546629 0.5991401 0.7412355 0.78626204 0.35985363 0.5748098 0.74134135 0.8231535 0.8226496 0.2921664 0.42618623 0.68880093 0.8580711 0.1786859 0.27136183 0.30071864 0.63323855 0.48882616 0.4559561 0.05801892 0.022110686 0.28890547 0.30691847 0.38718846 0.35368565 0.5053419 0.46972007 -0.10999717 0.06876528 0.2832115 0.31620044 0.3642045 0.35994664 0.2341766 0.33821455 0.34543392 0.20149821 0.286904 0.10231286 -0.099216126 0.2917458 0.3740852 0.33762076 0.15253681 0.15533552 0.060871914 0.13063093 0.37931186 0.36830822 0.3098016 0.36648172 0.41506857 0.2880727 0.3802172 0.30523142 0.29246673 0.13712664 0.13799657 0.11035961 0.14343718 0.35017347 0.3563242 0.11422783 0.04843919 0.27504253 0.34136304 0.35387293 0.3778802 0.38737348 0.2676402 0.53246397 0.42151177 0.4322769 0.4395693 0.419208 0.4978485 0.56908524 0.48136932 0.45132494 0.44808197 0.521088 0.5241304 0.4931258 0.4738967 0.57779276 0.62451303 0.587198 0.5453662 0.51311374 0.46915284 0.572388 0.5562811 0.5107298 0.49566293 0.6169611 0.6872387 0.7337817 0.7642356 0.5408258 0.5013483 0.4590733 0.29809952 0.62213504 0.65113735 0.29734036 0.33326507 0.50489044 0.76338613 0.50541997 0.5271437 0.44991022 0.3640208 0.32814828 0.57732344 0.5924071 0.6473472 0.24480899 0.2903936 0.8623229 0.4423172 0.50546694 0.23367018 0.018903973 0.23919448 0.20996872 0.27617377 0.14159748 0.25672716 0.17048085 0.08320622 0.1434235 0.17990747 0.016040169 0.22655632 0.21807048 0.21785133 0.024072725 -0.042647306 0.17163004 0.28533623 0.2355219 0.18018591 0.16828421 0.21604909 0.1034082 0.10940723 0.16408291 0.08214557 0.26151836 0.06306234 0.08965447 0.13249941 0.15475841 0.15942974 0.27497786 0.051138997 0.31386092 0.39633062 0.31834918 0.26493812 0.31749463 0.38785887 0.45089796 0.4584346 0.4491366 0.3922963 0.6684593 0.5823349 0.4792642 0.2994016 0.35914904 0.43212852 0.29211953 0.64002043 0.5997368 0.47636282 0.35151556 0.47139853 0.468166 0.39781368 0.35116792 0.44690534 0.46611857 0.475799 0.44577992 0.46221805 0.58420926 0.61990184 0.60848784 0.6550979 0.32084516 0.44470614 0.5701592 0.64547575 0.6808939 0.69010335 0.5268798 0.54227126 0.52997994 0.44165006 0.3245932 0.45350537 0.6178644 0.66394114 0.6889902 0.66729075 0.30207595 0.7717015 0.49631983 0.62698704 0.6461045 0.34685266 0.28389376 0.7770096 0.42541313 0.58390296 0.5870332 0.21206346 0.7200164 0.099652275 0.41417745 0.43965542 -0.123624176 0.08346292 0.18371907 -0.0013002306 -0.04587508 0.16869256 0.12842233 0.03355448 0.22245282 0.13912877 0.270193 0.122244485 0.10887815 0.01829964 -0.018218525 0.11160605 -0.13773526 0.14460906 0.12530969 0.041594565 0.033451434 0.07628222 -0.14119571 0.15047331 0.10274742 0.06316343 0.5440999 -0.045342043 0.14766948 0.14029896 0.058518592 0.26192385 0.27775973 0.22058232 0.70277625 0.6851618 0.6167017 0.5175339 0.29490507 0.10600595 0.006440781 0.0811462 0.2371793 0.42014572 0.43994904 0.42358097 0.365632 0.31523564 0.70039964 0.6871345 0.6022548 0.43893006 0.2884644 0.30243993 0.2426145 0.41949013 0.6895915 0.6700403 0.3736956 0.34275922 0.67931694 0.62104666 0.5484096 0.45127168 0.27450836 0.21171483 0.19694647 0.26484883 0.3450563 0.32212013 0.39318752 0.3676902 0.49953985 0.3330435 0.17343326 0.24455415 0.54021907 0.58710134 0.5184096 0.5606848 0.6115415 0.3848275 0.28047055 0.39129472 0.6095732 0.62902474 0.50323725 0.5216293 0.520046 0.40120897 0.24776988 0.13728425 0.44328132 0.6884757 0.6646036 0.38724458 0.3459211 0.42058766 0.4931209 0.63973945 0.6036994 0.36288756 0.3394997 0.58691657 0.57030874 0.29663122 0.4734919 0.4704951 -0.05291167 -0.112623855 0.26090276 -0.05144357 0.15133506 0.24698201 0.10789767 0.09309441 0.15542164 0.14005503 0.16608854 0.16760632 0.10196257 0.033095904 0.06726255 0.048880327 0.06823153 0.19254643 0.2016487 0.111442134 0.010471124 0.17291869 0.20853674 -0.057173528 0.17966369 0.6230358 0.5960896 0.20685425 0.22164235 0.6931859 0.6833956 0.057342324 0.0380601 -0.016605362 0.11047673 0.35977545 0.35868037 0.31136054 0.2617845 0.665925 0.703573 0.040873434 0.02399797 0.35925716 0.6947844 0.26469076 0.65526557 0.22366723 0.29239237 0.60750294 0.5923697 0.46175867 0.13782945 0.1599399 0.18808427 0.6707478 0.65338326 0.67027307 0.64816844 0.6206835 0.64834595 0.7296604 0.625853 0.62395084 0.626405 0.43895322 0.5492317 0.45442784 0.4149383 0.57543766 0.47358558 0.4510985 0.16625923 0.63739276 0.62304884 0.47087604 0.4320836 0.45044872 0.4123963 0.42411423 0.60888785 0.57966864 0.3833918 0.24872567 0.5536431 0.35752273 0.3395685 0.42463762 0.20011203 -0.07663812 0.2983602 0.32397962 -0.014709219 0.21204373 0.13922936 0.16869402 0.16238412 -0.087570354 0.04099983 0.17270194 -0.1313643 -0.3042461 -0.09789956 0.05432838 0.10503791 0.043708917 0.21467718 0.19604732 0.2236844 0.1717058 0.11272201 0.12475859 0.21710922 0.54388744 0.50898683 0.35099524 0.17390934 0.64542794 0.025997855 0.2025193 0.16762792 0.25665438 0.2291625 0.19953148 0.64032805 0.6798179 0.61883026 0.20000446 0.6126484 -0.048215702 0.57714415 0.06598499 0.07844133 0.1308068 0.15214644 0.12788063 0.46365494 0.2161106 0.5197232 0.6393526 0.5363013 0.6365212 0.6324487 0.5430922 0.577309 0.66003317 0.67426 0.6300334 0.5749889 0.6259515 0.6509925 0.6320882 0.59177506 0.56191707 0.5789161 0.6151299 0.77566004 0.78933275 0.74504703 0.6812385 0.699158 0.38635087 0.20538503 0.3881374 0.58433515 0.029709578 0.36615148 0.3017772 0.2874092 0.26447773 0.34956723 0.52754295 0.5197463 0.58424395 0.5495912 0.31359708 0.3328395 0.2214171 0.5157683 0.46888906 0.1599299 0.20930749 0.3798746 0.4032743 0.26286793 -0.080005854 0.039007388 0.114576526 0.2605856 0.30419618 0.20689236 0.17859021 -0.0839367 0.3017204 0.13101819 -0.1676298 0.11443143 0.22502929 0.36587074 0.14788114 0.08760742 0.1820057 0.1549832 0.22972305 0.18874073 0.21967083 0.09381679 0.21621946 0.065137506 0.49888778 0.43037283 0.30219787 0.1390007 0.5499809 0.4692902 -0.06609567 -0.09761691 -0.0116386935 0.05001045 0.14912179 0.16562253 0.1651632 0.54896283 0.56018806 0.0048287436 0.5528955 0.20450245 0.54335606 0.31611794 0.5239705 0.114365414 0.019372687 0.31435305 0.40049204 0.3709144 0.19998865 -0.25362572 0.13860032 0.16943331 -0.2442213 0.31894106 0.3310641 0.25328425 0.4032243 0.39573443 0.47960192 0.43168294 0.4852456 0.49794573 0.5499429 0.4331529 0.4249962 0.51531816 0.5451367 0.5464288 0.4512704 0.46560097 0.76104677 0.79479194 0.8260642 0.8167486 0.7211571 0.75539327 0.09805089 0.39376086 0.3219298 0.64104986 0.04289628 0.337535 0.3951268 0.36069328 0.2927775 0.28790602 0.2169986 0.27549243 0.44134933 0.58077145 0.29901153 0.5010874 0.257346 0.26763493 0.046738222 0.24295926 0.2910177 0.19799381 0.11807765 -0.04770471 0.08933613 0.13038349 0.14024208 0.18943614 0.21633503 0.46782395 0.47641116 0.088090226 0.27878946 0.452402 0.48919478 0.23051779 0.1944679 -0.113855466 0.30838054 0.22610399 0.22341362 0.25218767 0.31141257 0.011590004 0.34409833 0.25998622 -0.0011656433 0.058338564 0.033045687 0.35082775 0.010947634 0.105694465 0.4265015 0.12125036 0.10788221 0.20501068 0.20486456 0.12666763 0.45695615 0.45273852 0.21189347 0.21964926 0.23309755 0.31660113 0.3454926 0.39693755 -0.3268916 0.3960238 0.4918779 0.5075379 0.49199957 -0.23117068 -0.27863905 0.4339567 0.5190563 -0.024583258 0.022585481 0.23613545 0.2453641 0.3307692 0.30834928 0.31253433 0.3959317 0.35814697 0.1885609 0.40853518 0.18225552 0.23769033 0.7867125 0.77696943 0.6843334 0.53799677 0.71606684 0.760087 0.4531133 0.0749234 0.14821076 0.19932748 0.4364699 0.40625155 0.3597751 0.65614736 0.044206828 0.13210861 0.4453436 0.45796895 0.31237394 0.6101527 0.5946448 0.2034377 0.2557145 0.30246925 0.36593008 0.30845386 0.2953602 0.480196 0.29629934 0.25892836 0.22187805 0.23455432 0.4175233 0.31456715 0.007387385 0.01660268 0.1044535 -0.020840704 0.14221 0.109458126 0.21766064 0.22241732 0.19852373 0.39315212 0.23758882 0.45526174 0.17661127 0.50148165 0.09947623 0.103529274 0.5012092 0.51451474 0.24190767 0.21104993 0.43872535 0.4799288 0.2642313 0.25833243 0.12073065 0.32551363 0.032089643 -0.09162623 0.2790617 0.30880433 0.32844397 0.10438279 -0.15235198 0.042062383 0.0187672 0.0005307179 0.2267323 0.20846725 0.14445467 0.09272529 0.29337683 0.09708028 0.16761187 0.22712335 0.24063879 0.236931 0.22635359 0.18243144 0.03865333 0.16093287 0.017683588 -0.41182625 -0.07652267 0.44674575 0.36089325 0.027313016 -0.36745048 0.2294924 0.42404094 0.4820481 0.49536714 0.14152545 -0.023849305 0.31685334 0.42611885 0.10170449 0.1445716 0.30547535 0.11859052 0.18473181 0.50127786 0.4216169 0.15020345 0.5474549 0.49754184 0.35450208 0.5452603 0.5217115 0.35718966 0.042469427 0.0750294 0.060067385 0.08347268 0.6971023 0.7685152 0.8093297 0.11369146 0.12595485 0.7556698 0.84692967 0.8484256 0.8283827 0.8393401 0.8635333 0.8478551 0.82966006 0.7587333 0.8025607 0.81935465 0.70425653 0.27665874 0.28506017 0.7366041 0.6552639 0.45768905 0.16924617 0.25881273 0.25151372 0.22501878 0.4313977 0.6674235 0.68622065 0.1996797 0.44845355 0.46315914 0.43432808 0.37894303 0.22759908 0.56955993 0.37904492 0.423505 0.37574834 0.34892756 0.45606953 0.33332813 0.3476094 0.35593265 0.052396208 0.17346749 0.26556903 -0.07404223 0.077176124 0.1674142 0.028867122 0.13837112 0.17365319 0.20123217 0.34667483 0.42676955 0.42847908 0.22651595 0.11273481 0.5092631 0.48829383 0.07271876 -0.10693983 0.53467524 0.23804554 0.17077613 0.56068945 0.2627179 0.25469837 0.28485608 0.21582374 0.33250716 0.08166067 -0.03854846 0.060959138 0.23137148 0.2098014 -0.22402993 0.05131136 0.06531136 0.035212412 0.21867445 0.15515788 0.015378423 0.10700716 0.22317502 0.23101619 0.2125966 0.019034386 -0.21463016 0.08883142 0.28986594 -0.04114388 0.17958198 0.2745206 0.2773621 -0.023664374 0.22316173 0.31271678 0.10803349 0.2881943 0.31255543 0.4057427 0.48356518 0.51036644 -0.025195474 -0.29738098 0.046203583 0.10309532 0.4761545 0.51484835 0.523647 0.10814404 0.60785854 0.42031786 -0.18267131 0.6661508 0.5544958 -0.08634548 0.5720278 0.5671165 0.56041133 0.5520525 0.046382427 0.37678802 0.531927 0.609381 0.46298712 0.44096968 0.26837254 -0.048594363 0.31911343 0.46758884 0.7270837 0.20337465 0.086537525 0.79048514 0.13333194 0.14352974 0.17340642 0.25403863 0.62205327 0.81733775 0.7950684 0.20429578 0.2901988 0.6629411 0.7436265 0.779883 0.6373239 0.6974242 0.7269378 0.35891926 0.33354792 0.29504165 0.3657453 0.198129 0.28320312 0.2860003 0.18257771 0.44873488 0.4065659 0.22954863 0.45536506 0.33998275 0.1669473 0.36682388 0.2028665 0.46643144 0.45705864 0.2829321 -0.1397686 0.09848206 0.15097436 0.40009055 -0.071581624 -0.044896625 0.30692947 -0.22803067 0.24901703 0.09954135 0.2741805 0.381207 0.024357703 0.49881288 -0.06897329 0.5630639 0.1840499 0.3764728 0.52065253 0.17605174 0.16000554 0.32562092 0.06846701 0.30547428 0.2859581 -0.19149908 -0.16434105 -0.110178486 0.10239439 0.25101236 -0.2024835 -0.0697785 0.047998004 0.11779222 0.17673211 0.1695676 0.21946147 0.28285238 0.3303985 -0.20978987 0.2026904 0.10633589 0.29529732 0.2003091 0.16274765 0.15872498 0.25110692 0.34877846 0.37132543 -0.061262865 0.20205083 0.21886268 0.29268903 0.2599944 0.1817176 0.14369857 0.24043947 0.3322883 0.38053793 0.003977701 -0.045687646 -0.2609291 -0.07703146 0.12904868 0.29084578 0.2745487 0.22414736 0.26074117 0.30445945 0.36607146 -0.18680474 -0.20229161 -0.19381617 0.1894552 0.252927 0.27763432 -0.123405725 0.017240949 0.26906395 0.32390943 0.2943825 0.283485 0.36521596 0.04992986 -0.058362793 0.19807324 0.2745124 0.3727809 0.33425933 0.33317268 0.31986368 0.41939816 0.5245703 0.5465516 0.080422565 -0.016594265 0.38840693 0.45512494 0.3365704 0.33888495 0.36240962 0.5429433 0.5871897 0.10980101 -0.18099421 0.19895124 0.3636206 0.4967944 0.54809034 0.46325764 0.5545339 0.6560842 0.6205065 0.45428705 0.25754964 -0.10954338 0.07332927 0.16688779 0.47655672 0.5380149 0.5776489 0.602705 0.71047056 0.7549797 0.75371903 0.56081545 -0.12013501 -0.13240525 0.77582467 0.8063649 0.7840432 0.55925584 0.19904694 0.16301684 0.53787935 0.5076912 0.46998668 0.37870693 0.3704036 0.29074445 0.6876848 0.20789653 0.74571395 0.3248011 0.7114061 0.72591317 0.26284945 0.28255394 0.3646736 0.33621696 0.31999874 0.5601686 0.6408968 0.6878053 0.33834696 0.39122885 0.44225866 0.49465466 0.4832453 0.3366151 0.21129745 0.4982776 0.29388744 0.0079461485 -0.03658577 0.17093304 0.5296665 0.48004076 -0.2217128 0.31568205 0.441949 -0.311687 -0.14550833 0.37681618 -0.048519243 -0.2177141 0.31966132 0.22402874 0.0028365292 -0.25700867 0.26768026 0.086172044 0.40439034 0.01587198 0.074997425 0.50906014 -0.10077893 -0.071048945 0.4407646 -0.032395177 0.38706136 0.12870935 0.037506044 0.44285733 -0.04410132 0.3353931 0.2928375 0.27140287 0.36723673 -0.21344371 0.033990275 0.05433461 0.028400544 -0.021207958 0.43596587 0.46864802 0.1529587 0.100130826 0.24568403 0.40537405 0.4603275 0.28044623 0.18826738 0.061446846 -0.22405405 0.21601763 0.23711182 0.44914514 0.47042495 0.35263228 0.32223013 0.24486697 0.22045857 0.25720048 0.39812085 0.45607543 0.35260397 0.3516546 0.2949946 0.18239166 0.24187157 0.27639645 0.32679367 0.42463505 0.34642443 0.30752337 0.24724793 0.40912965 0.45956707 0.5713911 0.37466297 0.2275331 0.48661718 0.5444707 0.30022854 0.30996752 0.5956884 0.3255802 0.5861901 0.60923165 0.6273608 0.39177024 0.03781635 0.59078723 0.6109574 0.6381436 0.47960538 0.5649783 0.6017637 0.61869574 0.78397983 0.8066469 0.8272617 0.81706214 0.50389814 -0.08378887 0.81666327 0.8360076 0.50699806 0.16638117 0.46557173 0.36081845 0.56618553 0.6531739 0.26570266 0.6286217 0.26492572 0.28883672 0.428006 0.5563358 0.300358 0.32355404 0.34867904 0.38839978 0.39277148 0.3542004 0.4505521 0.5295907 0.58925617 0.58978933 0.27093416 0.29887885 0.414249 0.49316698 0.5469866 0.5112512 0.33263138 0.26230207 0.47731584 0.43909758 0.13408121 0.32867694 0.4277442 0.50565183 0.37055022 -0.083894566 0.2255914 0.37748915 0.5074995 0.5328117 0.2436403 -0.08227201 0.03841903 0.44721502 0.20394209 -0.12929441 -0.1945051 0.39262164 0.018833831 -0.12871662 0.3506617 -0.05605821 0.2975783 0.0877337 0.061636504 -0.047737755 0.29947996 0.061755024 0.3434229 -0.03291081 0.016394243 0.41712654 -0.20421124 0.32798493 0.39134085 -0.14707111 -0.10778553 0.5082854 -0.30052817 0.49280262 -0.3089183 0.36015648 0.52350414 0.58888745 -0.24101004 0.020826533 0.105539724 0.09082507 0.04407305 0.51386136 0.58958673 -0.47890985 0.14874852 0.12330049 0.026847802 -0.06597138 0.5157323 0.56293535 0.33916238 0.27330557 0.04263381 -0.1926247 -0.3509011 -0.31815547 0.09670892 0.48999786 0.3582651 0.35480267 0.16000128 0.46303594 0.34219432 0.23906547 0.2756749 0.35002306 0.27965876 0.28689438 0.47450632 0.34733313 0.3747564 0.36916178 0.30302042 0.51192856 0.4681806 0.47057962 0.41658986 0.47570252 0.4531175 0.58905125 0.5015315 0.45993626 0.5279521 0.47013277 0.6813943 0.6784494 0.70709264 0.50869536 0.76185226 0.2820363 0.6399616 0.68244326 0.74497354 0.7698104 0.43208742 0.237147 0.31429595 0.5074373 0.8299222 0.82313347 0.43194515 0.31912082 0.3580423 0.3522113 0.2215601 0.25780338 0.1331037 0.5041663 0.096386604 0.115758166 0.4033661 0.5071956 0.2000809 0.24530908 0.25931025 0.2794554 0.351625 0.2914814 0.3634172 0.4371348 0.314314 0.5063473 0.56467044 0.59047353 0.49260208 0.57550234 0.60964024 0.6077421 0.2629093 0.35554516 0.45658338 0.59135103 0.5592325 0.3103496 0.27763355 0.4945818 0.4154992 0.39638042 0.3855274 0.398015 0.2814836 0.2050547 0.44865045 0.4892924 0.49082783 0.35232645 0.352315 -0.028285637 0.16671744 0.16003516 0.11211875 0.046221443 0.41715378 0.42349344 0.20514934 0.37891632 0.3551969 0.3041463 0.29631463 0.33682442 0.288343 0.19211069 0.3276472 0.32812357 0.20060374 0.35398012 0.345526 0.58551824 0.52744645 -0.55354226 0.3328398 0.33655864 0.37823004 0.56367415 0.5371476 0.512805 0.3377848 -0.045257784 -0.53734565 -0.51211184 -0.5062589 0.39414853 0.26308054 0.036442935 0.028219607 -0.033227947 0.43555558 0.45097363 -0.13675925 0.46224868 0.5069263 0.47595307 0.34294224 0.25989908 -0.24485475 -0.308707 0.40493378 0.44493857 0.45114103 0.42199302 0.35010284 0.38431612 0.5680262 0.66488856 0.31409773 0.30792037 0.2255497 -0.18151283 0.10975508 0.11359089 0.64589673 0.66381276 0.2850271 0.1093073 0.105707824 -0.017072223 -0.4545104 0.12862022 -0.013154164 0.64059377 0.3407902 0.3427065 0.010414623 -0.018727168 -0.01817675 0.5657989 0.3332852 0.076949 0.43353307 0.32262862 0.36794958 0.32821846 0.44476932 0.44433445 0.26191497 0.4947086 0.49334854 0.5150809 0.5111882 0.37205458 0.52016926 0.5002184 0.55455524 0.55638486 0.5466872 0.5320498 0.5183162 0.4145669 0.5339259 0.5160048 0.65443456 0.4327873 0.6766348 0.67657435 0.46546727 0.61311394 0.67820334 0.5810815 0.67691326 0.7643559 0.71700126 0.35218024 0.32641461 0.79356337 0.78658426 0.36838222 0.3286916 0.4045465 0.40288407 0.11894502 0.43912512 0.44796604 0.3361851 0.31224984 0.35694218 0.14136642 0.3632961 0.28024253 0.37675142 0.39394426 0.5928016 0.6465992 0.64456415 0.5605099 0.6094965 0.68356204 0.7484843 0.7071965 0.57476574 0.6027547 0.49366796 0.54749423 0.58851063 0.595545 0.33120847 0.2681492 0.19676071 0.5524887 0.52430815 0.40941668 0.38440773 0.43585122 0.4670987 0.44783103 0.395357 0.40447223 0.4253505 0.3842985 0.3864817 0.42270768 0.35975152 -0.00720633 0.29960406 0.34366608 0.35469612 0.513288 0.42976075 0.32820427 0.5226981 0.49101612 0.303244 0.48651963 0.2574956 0.6479977 0.59807646 0.52515495 0.42887476 -0.3637812 0.2840126 0.30241323 0.65113515 0.6194677 0.5333822 0.4790986 0.33269238 -0.38884673 0.6302619 0.47003925 0.5542215 0.5532551 0.52599883 0.44936982 0.10357549 0.103804685 0.22026704 0.38505033 0.5333952 0.53874004 0.5148483 0.3914918 0.37942755 0.4945927 0.40305048 0.4319746 0.6604074 0.6757314 -0.07011389 0.10