# vtk DataFile Version 2.0
Really cool data
ASCII
DATASET POLYDATA
POINTS 7840 float
12.405281 9.648168 52.08738
12.352837 9.658635 52.575794
12.419368 9.53037 53.008617
12.385838 10.15202 52.44908
12.422091 10.162461 52.893276
13.069393 8.108397 52.633987
13.206726 7.8003407 53.063507
12.883425 8.87991 51.79517
12.642299 8.8162 52.494347
12.82631 8.730812 53.249252
13.138904 8.96141 53.806587
13.112999 9.527284 51.211094
12.625543 9.4261465 51.771187
12.626991 9.421395 53.31
12.968716 9.629763 53.76556
13.275853 10.231385 51.13639
12.66273 10.269265 51.786686
12.549064 10.487699 52.46869
12.732848 10.328222 53.22915
13.066043 10.239131 53.715355
12.917303 10.802613 51.8584
12.846098 10.84547 52.545563
13.026186 10.800973 53.20561
14.302677 -2.2085738 50.961025
14.164211 -2.0828743 51.516613
14.210424 -1.982414 52.08826
14.311633 -1.3421338 50.250225
14.062669 -1.4747504 50.745773
13.8137 -1.3057246 51.570805
13.980058 -1.3446326 52.213642
14.289619 -0.6672291 50.17767
13.9761915 -0.6584182 50.81734
13.784253 -0.62124753 51.482903
13.9402685 -0.6723605 52.293015
14.189657 -0.81971616 52.614635
14.188064 0.057454318 50.9565
14.009973 -0.026836127 51.310326
14.09485 -0.16042745 52.231304
14.489062 3.2890234 48.983456
14.4387 4.245575 49.396957
14.393259 4.457783 50.478703
14.410814 4.506306 51.308815
14.43067 4.745739 51.994995
14.373359 5.031897 49.615974
14.236616 5.40313 50.18512
14.247416 5.889588 51.445816
14.430728 5.226912 52.052574
14.370951 6.195177 50.290398
13.832415 7.125154 52.71148
14.033708 7.334819 53.5715
14.419222 7.355326 48.7446
14.459575 7.634776 49.998955
14.35567 7.530894 50.602047
13.380855 7.7726555 52.16621
13.432988 7.60041 52.79264
13.678824 7.559513 53.510105
13.723659 7.9391665 53.881943
13.359242 8.612932 51.39808
13.5910425 8.398502 54.03508
13.874056 9.173027 50.846462
13.774579 9.362921 54.24362
14.197897 10.427731 50.397224
13.421996 10.542317 51.380146
13.809244 10.38491 54.12104
14.052113 11.168492 50.68399
13.49451 11.037342 51.51653
13.676799 11.381296 52.76633
13.788506 11.211121 53.552856
13.782511 11.032007 53.774174
14.943854 -3.1069155 51.036907
14.835356 -3.059523 51.465225
15.095894 -3.1811767 51.966824
15.209729 -2.2081385 49.202152
14.847635 -2.1949098 49.86004
14.591981 -2.520236 50.712948
14.53905 -2.655383 51.445656
14.686576 -2.3981717 52.293003
15.024234 -2.152468 52.72879
15.100638 -1.4340546 49.12998
14.627581 -1.5628108 49.962273
14.448972 -1.5837115 52.559322
14.714758 -1.3497841 52.853466
14.665347 -0.4656706 49.846916
14.488068 -0.65448123 52.731728
15.323506 1.0062621 47.896015
15.305774 0.5450821 48.95881
14.671869 0.60292053 50.5976
14.51942 0.04678896 52.33715
15.0323 2.0172322 47.864204
14.772205 1.7973269 48.593525
14.790867 1.7755483 49.55195
15.264563 1.4405097 50.14172
14.909881 2.5995948 47.889458
14.629838 2.5595424 48.504677
14.599494 2.5956497 49.280617
15.0283165 3.2237434 47.839985
14.648901 3.2444463 48.58052
14.525068 3.619373 49.36445
14.580523 3.661326 50.577747
14.765032 3.8088126 51.54706
15.047517 3.7788782 52.118176
14.945785 4.568207 48.236492
14.634929 4.7910266 48.778206
14.538127 4.392185 51.75856
14.828365 4.5112534 52.345654
15.228415 4.60767 52.847404
14.771889 5.425973 48.64132
14.5108385 5.74912 52.383087
15.159794 6.4511075 47.820396
14.579093 6.9210577 48.50195
14.504565 6.6801662 49.306633
15.153576 8.032143 45.85534
15.001189 7.755898 46.58681
14.799983 7.3019753 47.61535
14.567835 7.58994 48.410473
14.373223 7.6746507 53.99103
15.368396 8.916982 44.115322
15.267333 8.661744 44.62148
15.07594 8.607122 45.66499
14.812044 8.440133 46.61603
14.735113 8.603529 47.215805
14.670075 8.515728 48.30427
14.638128 8.770065 49.38407
14.370323 8.576187 54.32424
14.67636 8.956411 54.511963
15.42362 9.201042 43.987385
15.262164 9.348733 44.540104
15.192315 9.245477 45.450424
15.003745 9.42326 46.530045
14.898196 9.526099 47.292206
14.83015 9.320223 48.77074
14.614296 9.301955 54.46874
14.508004 9.714476 54.56298
15.346259 9.784183 44.711437
15.219369 10.17 47.538486
14.351878 10.729902 54.31493
14.789715 10.369116 54.550705
15.267846 10.768837 48.04361
14.613837 11.164884 49.91653
14.620603 11.226886 54.180233
15.133659 12.56182 50.261436
14.753978 12.341042 50.741642
14.820664 12.659648 51.31997
14.375864 11.771411 53.379517
14.919432 11.899576 53.88853
15.085241 13.393218 50.836285
14.901397 13.097251 51.293594
15.34434 13.267299 52.66072
15.4001465 13.251744 52.860264
15.395029 14.571194 50.92449
15.413409 14.392899 51.28784
15.368343 14.225827 51.92048
15.477653 15.234402 43.025265
15.453514 15.559458 43.278446
15.480257 15.965391 44.13362
15.44881 14.972751 51.951126
15.474333 16.216208 43.03841
15.449395 16.414658 43.48575
15.136627 16.547558 54.97129
15.042495 16.643272 55.481133
15.176483 16.727541 56.12776
15.187443 17.301956 54.80683
15.051336 17.36611 55.427746
15.229859 17.433002 56.196712
15.234478 17.88581 55.62671
15.327293 17.977253 56.09826
16.070309 -3.8485532 50.3275
16.35789 -3.1263008 48.205704
16.238264 -3.137689 48.735287
15.772945 -3.2687397 49.669926
15.432248 -3.4497428 50.44491
15.500446 -3.1758685 52.26242
15.883611 -2.8913472 52.65966
16.107533 -2.082881 48.1603
15.784171 -2.4526384 48.711052
15.435743 -2.5521555 49.265858
15.683602 -2.2182617 52.960594
15.66858 -1.8339059 48.646976
15.793318 -1.8091998 53.124683
15.905027 -0.29355603 47.76298
15.538417 0.012148909 48.25896
15.660795 -0.60814345 52.916927
16.25041 0.2002009 47.250145
15.884101 0.4686162 47.643673
15.575765 0.49669617 51.82715
15.667679 -0.19911852 52.651974
16.104607 1.5335069 46.795624
15.404885 1.5322807 47.568584
15.411909 0.65977407 51.762833
15.957202 2.4508793 47.044323
15.327404 2.4409363 47.4505
15.666137 2.6506174 51.191265
15.928268 2.9000287 51.791973
15.601332 3.4528446 47.554325
15.401303 4.2700224 47.747383
16.12605 4.733839 53.45454
15.839504 5.1601324 47.63128
15.392588 5.1869006 53.132095
16.169432 7.274039 44.999477
16.275728 6.807822 46.144215
15.802795 7.022865 46.359207
15.982727 8.131149 43.96725
15.923627 7.80127 44.53109
15.389539 7.785547 45.65403
15.587049 7.727826 53.730614
15.689477 8.6944685 43.829582
15.465287 8.447491 44.317127
15.166465 8.609086 54.21503
16.079687 9.2042675 43.34132
15.67968 9.343011 43.77476
15.478153 9.436619 54.46495
15.319617 9.804153 54.587376
15.656636 9.919319 44.10163
15.710968 9.957926 44.37107
15.687529 10.001976 45.345665
15.456192 10.325351 46.935833
15.514379 10.556656 54.587646
15.8915205 10.800508 46.7172
15.826746 10.98321 47.641396
15.104649 11.306698 54.364746
16.408993 12.558362 42.44073
16.253126 13.133958 43.704487
16.030325 11.937238 48.658775
15.504472 12.163427 49.558563
15.544245 12.571079 53.52308
16.105404 13.841098 41.81388
16.085012 13.5836115 42.62483
16.132343 13.544334 43.502075
16.198044 14.101464 44.369892
15.721979 13.575709 50.04532
15.932083 13.390223 53.249203
16.2865 14.559414 41.260876
15.90243 14.522027 41.7866
15.629748 14.674876 42.50267
15.670667 14.585587 43.373627
16.03138 14.564663 44.489994
15.991271 14.791551 44.90098
16.033682 14.609895 49.97676
15.6809025 14.53587 50.359974
15.866712 14.178525 53.169186
16.37167 14.463604 54.473076
15.906266 15.239628 41.85328
15.636693 15.400059 42.407696
15.571671 15.39602 43.303616
15.677434 15.667954 44.369476
15.982283 15.6882105 45.39798
16.108423 15.385608 50.042595
15.711751 15.553658 50.968903
15.617411 15.5580435 51.4517
15.737654 15.617828 52.212337
15.836307 15.751219 53.19579
15.825201 15.558441 55.426094
15.881036 15.851238 56.373154
16.108479 16.071098 56.79905
16.02429 15.982737 41.98992
15.737651 16.517527 42.650673
15.515925 16.379887 43.248596
15.662611 16.600122 44.603348
15.837279 16.651701 45.277554
16.11364 16.764503 46.16479
15.962774 15.984128 50.547287
15.848016 16.115294 51.417286
16.003128 16.226063 52.390465
15.798084 16.569279 53.971825
15.470464 16.597181 56.513702
15.8821 16.771265 56.96088
15.963701 17.318695 42.850395
15.803735 17.35834 43.414574
15.739538 17.565079 44.43499
15.781105 17.494955 45.329998
16.133139 17.550013 46.278416
15.730314 17.360163 53.886993
15.435052 17.652767 54.618877
15.444606 17.58981 56.57842
15.714002 17.508297 56.886635
16.039227 18.063326 43.90834
16.05391 18.352695 44.641026
16.030415 18.458475 45.52747
16.186535 18.34047 46.23919
16.01709 18.123503 53.88505
15.773581 18.322205 54.659424
15.617477 18.395306 55.551163
15.683075 18.242065 56.372425
15.899914 18.077763 56.845364
16.360384 18.908451 44.670956
16.069555 18.827864 45.28767
16.15589 18.708048 54.27329
16.035437 18.801533 55.544346
15.9511385 18.651865 56.15869
17.233223 -4.907203 48.766186
17.186064 -4.998142 49.638588
17.29996 -5.008752 50.365425
17.064959 -4.0260005 47.811455
16.771477 -4.177233 48.585567
16.77126 -4.376431 49.44138
16.679224 -4.2682576 50.44629
16.390177 -3.8831913 51.523796
16.451258 -3.6076202 51.96295
16.929827 -3.592156 47.774662
16.474966 -3.7195024 48.58144
16.535885 -3.0783122 52.797733
16.763573 -2.6568322 47.788464
17.027775 -0.95662564 47.368736
16.73092 -1.5099512 47.746666
16.6905 -0.06078796 47.047153
16.444595 -0.36643142 47.40319
17.005075 0.8012681 46.149704
16.658867 0.7029284 46.56977
16.014551 0.22229144 51.98603
16.84386 -0.21136886 52.68112
16.975203 1.4819715 45.94784
16.489574 1.5245143 46.370647
16.902655 2.3712413 46.263622
16.462337 2.1639488 46.490334
16.798685 2.2223468 51.60744
16.537447 3.4144719 52.328304
16.86966 3.8497803 53.31714
17.12006 3.9562318 54.159756
17.104115 3.919302 55.455357
17.232265 3.8176517 56.1813
16.464191 4.9272676 47.440384
16.998846 4.4885635 54.614597
16.81234 4.478291 55.495438
16.902443 4.495131 56.490295
17.115463 4.5750346 57.009502
16.882435 6.191238 46.47265
16.875856 5.204683 56.59099
17.114647 5.219599 57.025166
16.66043 7.1843796 44.830704
16.704586 6.8650885 45.317852
17.338717 5.9221845 55.64911
17.308046 5.9854827 56.660717
16.77509 7.849108 43.892986
16.540514 7.482427 44.483585
16.869013 6.7419906 53.058044
16.731903 8.67205 43.263866
16.505787 8.447765 43.47754
16.57115 9.647183 43.282024
[...]
POINT_DATA 7840
SCALARS features_00 float 1
LOOKUP_TABLE default
0.73851126 0.77746695 0.789117 0.75856155 0.7682798 0.6822952 0.65612996 0.6660136 0.7560439 0.7665626 0.74991816 0.5584684 0.69275 0.7860465 0.746459 0.5191158 0.6795989 0.7452499 0.7428137 0.7066568 0.6483965 0.72133297 0.7055764 0.60850745 0.6931177 0.71275187 0.51495314 0.6289942 0.7764507 0.7820976 0.491517 0.66163576 0.79957366 0.84044456 0.8053306 0.66468024 0.76365066 0.85904986 0.30726832 0.2756378 0.30003965 0.32478726 0.3038121 0.24675745 0.25537658 0.24792384 0.28000084 0.18326989 0.41807985 0.5652692 0.1173417 0.0555275 0.051671423 0.537277 0.58265054 0.62329817 0.6781942 0.5082472 0.6942661 0.32930326 0.6377362 0.23867992 0.5177399 0.6054615 0.24169867 0.47869104 0.6035892 0.5753186 0.5854324 0.52652663 0.57546556 0.56655043 0.30906415 0.41365927 0.5358517 0.62389934 0.64542377 0.62053853 0.2548769 0.4333095 0.7227627 0.72135556 0.37469232 0.785789 0.30222517 0.25477326 0.51779914 0.81147385 0.3398521 0.33634797 0.2561976 0.19663592 0.34432438 0.33651876 0.28526253 0.33137658 0.32631537 0.2856574 0.32019183 0.36273468 0.3105665 0.27670646 0.2553409 0.3275325 0.29418525 0.27307606 0.20847936 0.20882566 0.12160609 0.118682116 0.10686696 0.43991643 0.336594 0.18457535 0.14082979 0.6183875 0.6049261 0.56601536 0.4689191 0.34826058 0.29204452 0.18299375 0.07578097 0.58017194 0.5126983 0.6144421 0.55694777 0.4740429 0.36692166 0.32153705 0.17142314 0.513472 0.5134568 0.50845367 0.26991975 0.5216681 0.4839943 0.18102512 0.117558226 0.47422975 0.14815776 0.17663844 0.22961636 0.41712177 0.37979707 0.22671703 0.24295771 0.20263337 0.17742233 0.3040657 0.28808862 0.26671025 0.4365644 0.4288119 0.40200168 0.26098144 0.432809 0.42659613 0.6377083 0.71882445 0.7541496 0.5935582 0.6831727 0.7406453 0.6785902 0.7105434 0.332767 0.31811583 0.32001662 0.34234953 0.41352206 0.52509344 0.4691538 0.21965879 0.26591617 0.32200488 0.52554864 0.22112381 0.5573982 0.21484733 0.23291028 0.68058896 0.2626049 0.2750457 0.62004507 0.62933767 0.35032922 0.318343 0.6442386 0.34422046 0.33036193 0.27738148 0.1824588 0.2960617 0.27104047 0.18072088 0.12883162 0.24952373 0.45334476 0.2900838 0.3108387 0.6126151 0.548028 0.45074114 0.43426108 0.6332704 0.59080505 0.46669394 0.654729 0.63874954 0.43527222 0.4569776 0.57397276 0.5358639 0.4056877 0.2750948 0.43788093 0.22078979 0.16097304 0.4285624 0.34423542 0.35732943 0.15018159 0.121728756 0.19804491 0.38585156 0.41837984 0.38747793 0.31356692 0.19513929 0.1012869 0.3393384 0.41502738 0.44749734 0.41739434 0.3324417 0.31581807 0.36198765 0.32593548 0.12862802 0.15739015 0.41992337 0.44272506 0.42626673 0.38312036 0.33775148 0.44229504 0.3837951 0.3317056 0.24486499 0.16893443 0.5305625 0.6035428 0.63547087 0.39601517 0.41578463 0.42938507 0.41097125 0.3997682 0.38579917 0.4524583 0.37719494 0.2668618 0.36669323 0.7462027 0.73563546 0.35213622 0.38495332 0.40207395 0.4228434 0.4201286 0.40733474 0.5567526 0.74769425 0.7525109 0.32517743 0.3359 0.37635976 0.40376693 0.4273627 0.53861606 0.63484776 0.70660585 0.72713566 0.27349374 0.32626978 0.45632017 0.58687496 0.65773815 0.39282814 0.32045406 0.2462377 0.40393847 0.37960148 0.32556945 0.25945368 0.3455537 0.36126125 0.3768922 0.35775113 0.32483196 0.28216037 0.14035037 0.16583198 0.24365476 0.2031318 0.39512247 0.3449381 0.5448915 0.39805976 0.46980602 0.40384173 0.4789345 0.4222932 -0.009520128 0.06693405 -0.004232347 0.079630986 0.3627755 0.57078373 -0.023460686 0.19568524 0.44906506 0.72343576 0.7854061 0.10676208 0.8184285 0.8209338 0.43229625 0.34064257 0.73027134 0.810639 0.5679685 0.5084617 -0.2266537 0.6032591 0.62440073 0.59885955 0.3850756 0.4253698 0.32854134 0.41704357 0.20723118 0.235625 0.28464594 0.16309598 0.11149494 0.36656567 0.22605531 0.2746569 0.32952458 0.2887909 0.12104035 0.15541989 0.079092555 -0.002345711 0.24391738 0.27798593 0.30814528 0.266373 0.17113794 0.2608893 0.23925276 0.24575604 0.37358105 0.13195926 0.22311679 0.45143032 0.51092386 0.53530335 0.24519193 0.29904997 0.34016675 0.32073212 0.47274122 0.46305984 0.66430545 0.23175937 0.30033487 0.39310935 0.3700881 0.38092777 0.71902484 0.19428506 0.23906818 0.40427414 0.20037997 0.30023324 0.70887274 0.1780035 0.20315549 0.2333917 0.31357393 0.35565376 0.4400236 0.51034486 0.59174395 0.20264307 0.23803547 0.2819022 0.274334 0.23179843 0.28171927 0.3226328 0.3012613 0.294717 0.3080957 0.4158888 0.37675595 0.34641424 0.29661474 0.27467388 0.42662835 0.426249 0.3481444 0.30598474 0.2307571 0.23800151 0.25419176 0.4059043 0.42168182 0.13787043 0.081993125 0.3543925 0.024576135 0.23065303 -0.031278737 0.12147169 0.14285222 0.35960802 0.31012502 0.18985389 0.27722403 0.422944 0.13600126 0.18570158 0.520819 -0.26267335 0.54225886 -0.041671343 0.039609402 0.26884818 0.56935954 0.45078433 0.39096832 -0.074691765 0.3645737 0.64196 0.7301382 0.73182905 0.26797387 0.78099084 0.7707881 -0.08892298 0.81319475 0.792297 0.39947158 -0.13017228 0.12074876 0.70612943 0.81686926 0.5077505 -0.16507995 0.50181913 0.47859973 -0.10570739 0.4950993 0.25985998 0.63712776 0.61120486 0.2988011 0.5822266 0.59924984 0.5245304 0.49505144 0.060535315 -0.34977818 0.53185976 0.48546714 0.4131692 0.07725355 0.022755675 0.060676716 0.10191518 0.2514527 0.4620145 0.4004833 0.30459 0.15375744 0.10922593 0.40518844 0.3694147 0.23079818 0.15897398 0.1094026 0.08901351 0.24014065 0.45789576 0.32624516 0.03952264 0.49457887 0.5862172 0.0034739897 0.07017626 0.20870273 0.087189995 0.5707382 0.015917934 0.11575358 0.28189608 0.21308994 0.13621151 0.48236573 0.09613448 0.15184203 0.18737009 0.2946504 0.36496785 0.46162027 0.4752045 0.45430642 0.14817019 0.1625843 0.16648968 0.2610188 0.2469864 0.28837332 0.38969442 0.418603 0.23780283 0.2584183 0.23068836 0.6824249 0.6639054 0.63197553 0.61802673 0.30019695 0.4049782 0.4020697 0.35410744 0.31236658 0.28389817 0.7156043 0.7032343 0.65063834 0.6301051 0.4229833 0.46915913 0.4629416 0.45072865 0.39686346 0.32871598 0.7231177 0.69837034 0.6544038 0.62450916 0.540297 0.56387335 0.53609115 0.6630829 0.635418 0.57806706 0.5074167 0.6179676 0.6385367 0.40437666 0.37356025 0.33540294 0.31944388 0.41473812 0.58227414 0.6479032 0.42807388 0.43212524 0.41328192 0.3634763 0.34617668 0.47168076 0.5482851 0.4192583 0.26424974 0.37499827 0.39964396 0.2626791 0.04699055 0.1108865 0.23413402 0.40297562 0.52826726 0.108615756 0.35806954 0.44468355 0.55834997 0.19567464 0.31088185 0.38058984 0.54753745 0.47266328 0.20416167 0.33905715 0.552629 -0.18186338 0.1502538 0.12390682 0.52495325 0.49346572 0.60386235 0.460919 0.68675566 0.67851067 0.22549093 0.7338799 -0.17508934 0.7765835 0.2717595 0.03742838 -0.0041216165 0.7582576 0.7788173 0.8040379 0.40844813 0.32516932 0.6517694 0.43511173 0.41919297 0.65239257 0.60548806 0.1187911 0.06949429 0.6419896 0.66374624 0.6186256 0.48068178 0.37262496 0.6020676 0.22889477 0.44382054 0.45279497 0.5164952 0.51616204 0.38538295 0.46626347 0.47354466 0.26789907 0.2468577 0.4350095 0.4263435 0.10085563 0.39313424 0.33626688 0.11432116 -0.019360492 0.24374023 -0.014173612 0.0846966 0.35085633 0.2608799 0.19120091 0.131283 0.08385188 0.01771006 0.34378472 0.26690838 0.19715604 0.04495894 0.049260948 0.045256294 0.18349054 0.14057747 0.3524159 0.33209312 0.4689067 0.44947118 0.1971368 0.11570005 0.025407929 0.111927345 0.13254721 0.20479223 0.3027787 0.34770888 0.35408 0.54870963 0.5631373 0.5792526 0.48582572 0.49742356 0.03288115 0.09022253 0.21275355 0.14552781 0.0905614 0.16267575 0.2168054 0.6101623 0.6556221 0.61670554 0.591691 0.5784994 0.2476152 0.21179244 0.1794865 0.66323996 0.69913775 0.5976852 0.43120852 0.27832788 0.6620964 0.70982045 0.6122124 0.60129476 0.56455535 0.47767112 0.52112734 0.5714915 0.4572386 0.30545616 0.70126414 0.6809378 0.609097 0.58361506 0.5962797 0.5632626 0.49746335 0.59885395 0.5684986 0.5693008 0.60093254 0.62653905 0.38015905 0.51969683 0.6057068 0.6520797 0.63040257 0.394148 0.32980928 0.32421553 0.33338347 0.6108147 0.37298286 0.39882928 0.3563455 0.45005202 0.35585108 0.38990778 0.3316761 0.2832452 0.11432241 0.23247036 0.2487871 0.12927702 0.3541382 0.22317234 0.21217355 0.41807693 0.5281906 0.119753696 0.56760687 0.56177175 0.47184283 0.4014738 0.43926632 0.5156312 0.6384518 0.6456662 0.58707225 0.6761853 -0.16385779 0.6349359 0.6797875 0.57070136 0.69406855 -0.19102895 -0.043406755 0.022935681 0.12135372 0.3289261 -0.24947006 -0.31765038 0.6597523 0.54382706 0.35917872 0.59386444 0.39650238 0.23676026 -0.5409914 -0.23908898 0.5797062 0.5614612 0.5174123 0.5712369 -0.052414805 -0.27832597 0.4931664 0.44754606 0.48638213 0.4207951 0.42813385 0.30902538 0.38894528 0.2130009 0.3657557 0.16797668 0.13794929 0.17073937 0.22919689 0.16919266 0.28604442 0.24987477 0.21975695 0.32767305 0.11733596 0.21133715 0.4405169 0.4346038 0.39366925 0.35531563 0.26626116 0.16841581 0.053406402 -0.0398964 0.23149592 0.2727626 0.49994716 -0.15030488 0.16688025 0.1987108 0.20483916 0.22648033 0.5690951 0.13235666 0.14932206 0.13059446 0.15783574 0.18840443 0.5813316 0.41522157 0.32530183 0.1744252 0.16979373 0.16196668 0.6065742 0.5106998 0.3751207 0.49407944 0.22971576 0.1606569 0.6358386 0.54461145 0.48872632 0.5618839 0.449709 0.388634 0.6410235 0.5436529 0.5199636 0.28783122 0.35515046 0.32982042 0.26045093 0.40628093 0.3984754 0.37207714 0.32117653 0.39760444 0.51727486 0.4237237 0.45150328 0.41737655 0.32865876 0.45147258 0.5547086 0.47664022 0.41947007 0.36609828 0.63356924 0.40796018 0.65964013 0.62161005 0.48538294 0.53934276 0.57705945 0.3897943 0.48233277 0.61924803 0.6214038 0.31480685 0.32216948 0.5054133 0.32430798 0.31647706 0.24838893 0.30589142 0.18015268 0.26334906 0.24103862 0.41825604 0.44345915 0.21952748 0.53441596 0.19936606 0.50348485 0.52899736 0.12000471 0.41403672 0.5028724 0.35956937 0.24355766 0.31547382 -0.15706462 0.20343417 0.55369025 -0.023094289 -0.053140864 -0.13948254 0.514686 -0.039524086 0.52899957 -0.06202793 0.45644718 -0.217118 -0.20968233 -0.05075799 0.033292614 0.16409333 0.32586697 -0.4049403 -0.24301036 0.03248064 -0.53265405 -0.22288945 0.52405 0.4828703 0.263454 0.062764525 -0.17254086 0.4808729 0.52152956 0.45748845 -0.21074843 0.34297818 0.46077472 0.4384666 0.42403868 -0.28311753 0.01943475 0.35304457 0.38203254 0.27432877 0.33601937 0.31278747 0.26244587 0.3314374 0.13321584 0.304633 0.38655087 0.22220182 0.12591276 0.38518468 0.24867123 0.23523039 0.12997194 0.33985126 0.25094417 0.2740745 0.2848841 0.27013347 0.13453972 0.37701285 0.35950738 0.24309431 0.20426056 -0.09646332 -0.0025948733 0.39572415 -0.07329707 0.057357065 -0.09602369 0.1312085 0.11617419 0.4432149 0.47720867 0.12749699 0.17940904 0.1558068 0.46638387 0.18281072 -0.21359406 0.16361675 0.15053143 0.16164933 0.4943279 0.243698 0.07337083 0.3936205 0.13747257 0.16655323 0.15584001 0.43449688 0.38233107 0.528337 0.16553923 0.3143152 0.3457229 0.21348912 0.20727317 0.14172392 -0.2535576 0.40286347 0.17465237 0.15258494 0.25460976 0.2880268 0.2851539 0.23889074 0.15180403 0.3112119 0.34262222 0.32646346 0.23772685 0.3339374 0.32326198 0.20692302 0.30557722 0.4833548 0.595033 0.36293653 0.33208612 0.26702997 0.33547556 0.38583726 0.2831133 0.34578538 0.49004507 0.6689085 0.69508517 0.35364792 0.30181468 0.35023636 0.43867183 0.26859346 0.6257119 0.7182936 0.7360932 0.41681305 0.01735261 0.4673857 0.34474975 0.351224 0.47266284 0.6026407 0.708982 0.65465343 0.63737535 0.59035045 0.54731303 0.50923723 0.40594843 0.46646935 0.4259073 0.3640589 0.3634747 0.48053107 0.5778244 0.71220124 0.728206 0.70176405 0.6390291 0.5650627 0.4527899 0.44913012 0.3885864 0.73285985 0.73586404 0.7024133 0.6408675 0.7123985 0.40007108 0.40839812 0.43533158 0.55993825 0.57651913 0.27982402 0.38076943 0.42021012 0.5767892 0.038757652 0.35559064 -0.07060225 0.22354211 0.35483888 0.27631804 0.2365855 0.19167444 0.25000763 0.2240578 0.43053442 0.37961787 0.27387094 -0.04286134 0.18796228 -0.2270109 0.07483291 0.09103079 -0.046910845 -0.03470406 0.29407093 -0.07981263 0.29482427 0.16755114 0.09284355 -0.08413273 0.22144902 0.35925084 0.14049684 -0.22352745 0.14284246 0.29322192 0.3447454 0.21549708 0.18440542 0.05834478 -0.2653719 -0.091792814 0.016166694 0.1918632 0.19596608 0.11191153 -0.16046697 -0.23116311 0.18671449 -0.24918991 -0.47203797 -0.21052517 0.8914195 -0.16869847 0.5065469 0.5051145 0.8791466 0.8712237 0.3799448 -0.21193913 -0.3384437 0.12232959 0.48167136 0.4099292 0.36095434 0.85917866 0.8636248 0.3317058 0.16235858 0.16254432 0.17165162 0.14223242 0.19697182 0.287551 0.049823135 0.40005496 0.15635179 -0.16502415 0.43209222 0.19768742 0.18724392 0.4647069 0.21068606 0.0779664 0.40954667 0.45301443 0.20549715 -0.122377835 0.18125802 0.32320085 0.059016228 0.3624261 -0.44701964 -0.18127649 0.09821044 0.06830388 -0.034371108 -0.48013443 -0.22755656 -0.19848552 -0.22280473 -0.2639849 0.13725382 0.13965556 0.2752554 0.065258235 0.034586325 0.13976026 0.14431594 0.33418012 0.27553678 0.0943275 0.14159276 -0.10014264 -0.13041344 0.21360193 0.18338174 0.053818457 0.08144997 0.14981204 0.07941214 0.1102805 0.117867514 0.12159924 0.2046679 0.17626992 0.14398865 0.14560392 0.31407863 0.42589796 0.30784667 0.3343148 0.22690606 0.1623663 0.021333989 0.23827308 0.5307955 0.6149975 0.33321017 0.36205834 0.21605532 0.18888918 0.2867403 0.6617048 0.6477128 0.33795902 0.37548468 0.37048504 0.08846182 0.6837674 0.36548525 0.102996424 0.67903197 0.68244326 0.56807363 0.33300173 0.4610687 0.5448277 0.59771407 0.6793833 0.41283318 0.13551319 0.42694438 0.4209736 0.37097466 0.35654727 0.44712394 0.71434486 0.726869 0.6898052 0.6497457 0.49918658 0.69384277 0.6536526 0.61813474 0.547996 0.5285435 0.5709136 0.5920737 0.48401314 0.3590364 0.30156597 0.004858223 0.52256703 0.5602454 0.5969338 0.52020216 0.5479804 0.5813322 0.48831117 0.28644162 0.25849873 0.52412295 0.62226677 0.63352 0.48055145 0.47998208 0.44064105 0.06729138 0.17679842 0.6346965 0.64146364 0.40439704 0.38011873 0.15515944 -0.2170048 -0.11486442 -0.15378644 -0.08180985 0.6005031 0.6094135 0.38718262 0.48891723 0.1720955 0.14943354 -0.071908675 0.17024802 0.18372741 0.053775232 0.12877198 0.16939121 0.19313365 0.21726194 0.22177953 0.016996289 0.17481151 0.17747323 0.19078577 0.2186253 0.2405096 0.19397676 0.4071947 0.27105558 0.15913479 0.12806927 0.13203289 0.15681009 0.16719957 0.15293969 -0.063788965 -0.11337417 0.42152268 0.3599706 0.25111145 0.16217731 0.08893554 0.08444751 0.049351275 0.020110521 -0.11678083 -0.05972685 0.37875167 0.3251744 0.25426608 0.16529435 0.047141176 -0.0030678809 -0.015484603 -0.106431335 0.29823607 0.3221832 0.23148417 0.16281532 0.03704199 -0.118709564 -0.13104892 -0.24406117 0.05876486 0.2394352 0.05229569 0.0098671205 -0.23197302 -0.29109222 -0.033079095 0.07772927 0.16511253 0.1277995 0.21133739 -0.23410761 -0.3183803 -0.3170678 -0.31140357 -0.118598714 0.18273193 0.9160406 0.8763844 0.8377218 0.09286358 0.12379295 -0.2129335 0.91048384 0.9191277 0.898949 0.86691993 -0.07918382 -0.25289175 0.007870268 0.89230007 0.861341 0.86822313 0.8792672 -0.25007963 -0.19857948 0.85930777 0.84903693 0.85036826 0.8697012 0.18943022 -0.39663398 -0.24205947 -0.080063686 0.1062626 0.8395977 0.84217227 0.050155763 0.18533713 -0.022835694 0.26430595 0.31242734 -0.023081828 0.39919513 0.2278465 0.21719426 0.1719935 -0.07993492 -0.12996471 0.4843386 0.22883263 0.17446955 0.5157513 0.5314629 0.36897752 0.28697872 0.17367679 0.52052116 0.5550294 0.36081904 0.2930851 0.14223345 0.18742315 0.44936073 0.51446366 0.16228893 -0.07200035 0.13885686 0.0046106614 0.021204561 0.21032897 0.06712958 -0.37940258 -0.2644958 -0.20975424 -0.26887769 0.11790627 0.026806347 -0.47333232 -0.5524678 -0.35875988 -0.32475424 -0.39121774 -0.043266814 0.054536775 0.41681272 -0.17771727 -0.3238345 0.03504781 -0.080382824 -0.40891305 -0.012805886 0.34020394 0.4799347 0.52500355 -0.05237372 0.018055966 -0.019441888 0.04617235 0.45737165 0.03093391 0.5586151 0.18351534 0.22967747 0.6147816 0.31966472 0.59302115 0.6089556 0.2805112 0.5821131 0.44048908 0.31172466 0.35203126 0.49304378 0.5291691 0.6001308 0.27949497 0.35959518 0.35023075 0.41408822 0.45982853 0.67324567 0.42762947 0.26294932 0.6492591 0.58567286 0.51798964 0.5639037 0.5429512 0.48578298 0.5334147 0.5673615 0.5488056 0.4669141 0.3398109 0.4977048 0.5533015 0.4057961 0.27181485 0.121621236 0.18364495 0.19252065 -0.025841583 0.16724515 0.5266333 0.5859197 0.4942984 0.2454569 0.18665448 0.6147882 0.5652071 0.38394076 0.4440996 0.068935275 0.60823476 0.57967055 0.32550606 0.5852458 0.57339597 -0.055446524 0.44295016 0.555647 0.031771116 0.25525567 0.33013338 -0.014300749 0.04008481 0.047378935 -0.05561702 0.025204327 0.07124906 0.4403239 0.3591019 0.29014385 0.23101911 0.13102408 0.081498176 0.0191409 -0.077811986 0.111689284 0.3113944 0.2660669 0.1744574 0.14962755 0.11499291 0.024324344 -0.13175844 -0.048783466 0.14068511 0.22245754 0.12881362 0.1538763 0.014183242 -0.06505011 0.07210457 0.10685706 0.108434245 0.1149172 0.054287728 0.03886789 0.5334428 0.351282 0.12344231 -0.1998166 -0.046424985 0.5755706 0.51390886 0.54949266 0.49734595 0.3249709 0.51091605 0.43707305 0.17165127 0.32804164 0.022176102 0.06964211 -0.028721914 0.40954584 0.17117134 0.64731455 0.6004542 0.50195986 -0.37686664 0.8716551 0.8419274 0.7654274 0.75347364 0.6512904 0.59707564 0.4762186 0.05404573 -0.3336245 -0.58181775 0.8245355 0.88651913 0.7968731 0.73636234 0.65129566 0.6074519 0.4739138 0.21927571 -0.64641273 -0.5323893 -0.05728153 0.06133528 0.05394518 -0.023782779 0.83255196 0.8479713 0.8627213 0.81923866 0.59854794 0.33878988 0.11693971 -0.24243997 -0.1879139 -0.13736323 0.81237674 0.8599683 0.79418796 0.16990787 0.04445859 0.12108411 0.78809166 0.80676496 0.7977608 0.7533531 -0.0534034 -0.04073891 0.24757026 -0.18296951 0.29079694 0.18416063 0.15543155 0.18713737 0.14675184 -0.2831576 -0.0947461 0.35261327 0.3759473 0.23420498 0.22169825 0.43333185 0.3863293 0.30872285 0.2572351 0.54922944 0.45532462 0.404006 0.5614646 0.45899552 0.42022973 0.19686927 0.34664574 0.51869774 0.55453634 0.38258004 -0.0642211 -0.08410401 0.025213417 0.09681717 0.10208951 0.16935435 0.32625353 0.4067838 0.39063644 0.43828404 0.19832706 -0.38211408 -0.14481282 0.09884643 0.25171673 0.53906333 0.5442951 0.4126635 0.19186483 0.48594123 0.6187652 0.6497189 0.6499902 0.27262503 0.5905652 0.68547624 0.7007567 0.003898058 0.40688154 0.48810264 0.36361796 0.4714875 0.5694411 0.25697443 0.36134464 0.4716621 0.14496957 0.29685393 0.32330555 0.3025125 0.17150712 0.34419984 0.35477948 0.3393454 0.35346523 0.4578623 0.5049947 0.55001354 0.51433253 0.40332478 0.34443438 0.56811756 0.63682353 0.5040187 0.5419218 0.3402176 0.09984132 0.14123899 0.20602354 0.2324898 0.17206657 0.06152066 0.50089765 0.43355465 0.10478339 0.110053614 -0.065226026 -0.13345164 0.07548214 0.38460848 0.49715734 0.54798245 0.2487971 0.51548433 0.5460156 0.07273504 0.5484079 0.54990876 0.3499362 0.049348578 0.4593408 0.4151669 0.3658113 0.21527614 0.07277682 0.06049618 0.117424116 0.62177545 0.5541545 0.46043622 0.38034433 0.3092028 0.18697353 0.076972716 -0.0010199733 -0.059606116 0.6171837 0.5540498 0.4201136 0.031915683 -0.007871389 0.14228165 0.57278657 0.5179678 -0.14051837 -0.09624486 -0.5201112 0.14363554 0.48336953 -0.2349898 -0.70222753 0.12430457 0.49173403 0.18703318 -0.073992774 -0.4991435 -0.0014887303 0.099149846 0.58830905 0.5419956 0.5965965 0.24340609 0.57099664 0.57403195 0.2893564 0.52311724 0.26900607 0.3865412 0.15686795 0.18370378 0.014766019 0.04651258 0.5941304 -0.61404234 -0.60410374 -0.42072555 0.06583665 0.089904636 0.6702447 0.6391454 -0.46462148 0.040562674 0.08462152 0.10467131 0.69043434 0.67517495 0.61977947 0.64115727 0.6195566 0.65472317 0.6725062 -0.63523805 -0.41389292 -0.24907815 0.015409738 0.0868833 0.7896511 0.6532598 0.6376461 0.6503685 -0.23367545 -0.082993105 -0.050384223 0.7662059 0.68251026 0.6000982 -0.13180475 -0.13475432 0.77895004 0.75009465 0.17525178 -0.02498265 -0.10647775 0.08072011 0.70225346 0.7063487 0.6416291 0.5967596 0.08020283 -0.0856229 -0.18579143 0.225401 0.62813044 0.6233