# vtk DataFile Version 2.0
Really cool data
ASCII
DATASET POLYDATA
POINTS 7855 float
-9.70809 0.023786545 18.145931
-9.737114 -0.13203327 18.547813
-9.698634 -0.13364662 19.261198
-9.680796 0.5976503 18.042624
-9.831687 0.49179682 18.46709
-9.728959 0.4656425 19.427757
-9.554801 0.55972 19.968746
-9.646071 0.87920344 18.123014
-9.692765 0.9885011 18.455242
-9.654593 0.98445135 19.362993
-8.592082 -2.043612 20.094486
-9.056584 -0.7445892 17.925661
-9.287415 -0.86888605 18.636234
-8.9610815 -1.2218887 19.630358
-8.936392 -1.2442592 20.196333
-9.314852 -0.19194889 17.84844
-9.531995 -0.43536967 18.350618
-9.447418 -0.5476743 19.52101
-9.272633 -0.3518535 20.199106
-8.883034 -0.2514941 20.862324
-9.322944 0.45079464 17.71361
-9.327137 0.5502367 20.43376
-8.918598 0.4823372 20.978115
-9.219278 1.0191703 17.890568
-9.37407 1.2991335 18.49062
-9.317087 1.3935853 19.44462
-9.135128 1.3073343 20.312263
-8.908283 1.1706071 20.873463
-8.988618 1.5908589 18.740501
-8.963043 1.6841959 19.42571
-8.845183 1.6503586 20.350164
-7.8414702 -3.3321977 20.179508
-7.6934776 -2.9992704 21.054148
-7.7755165 -2.1207578 18.071852
-8.516187 -1.8406293 18.925016
-8.410314 -2.3289309 19.524263
-8.407691 -2.3311276 20.247137
-8.025585 -2.4695446 20.958563
-8.366052 -1.2230438 17.86233
-8.329247 -1.6677036 18.677837
-8.485439 -1.1010765 20.943018
-8.39533 -0.29185575 17.388756
-8.769801 -0.51790494 17.609167
-8.2874 -0.49475533 21.32596
-8.521082 0.3803246 17.423864
-8.65014 0.78163636 17.529785
-8.52076 0.33272296 21.266768
-7.9634295 0.31530115 21.57678
-8.558344 1.1687019 17.851776
-8.327653 1.5497324 18.298061
-8.710762 1.6101799 20.6649
-8.437581 1.317078 21.088871
-8.408084 1.7259873 18.759766
-8.472039 1.8766077 19.577616
-8.457497 1.8134803 20.328241
-6.7593393 -8.955246 13.804925
-6.902755 -9.056483 14.382211
-6.699147 -9.464486 15.068149
-6.912387 -8.859334 16.117777
-6.760334 -8.147597 13.30532
-6.996418 -8.255221 13.715443
-7.200655 -8.346183 14.387541
-7.178969 -8.384795 15.41971
-7.122208 -8.260118 16.569345
-6.938731 -8.347944 16.959269
-6.740107 -7.878999 13.288079
-6.9375353 -7.677112 13.710481
-7.2081656 -7.7074776 14.460434
-7.241287 -7.6686673 15.222729
-7.157876 -7.617065 16.67241
-7.0688477 -7.4813004 17.031015
-6.7752905 -7.2073555 13.752693
-6.923799 -6.7657704 15.670844
-7.0136085 -6.8509545 16.473715
-6.9628935 -6.385029 17.52058
-6.8209105 -6.3577404 18.172548
-6.714012 -6.1104507 20.560917
-6.794755 -5.558852 16.995749
-6.929184 -5.666775 17.815155
-6.873713 -5.459657 18.397112
-7.0401974 -5.0818033 20.3459
-7.0971556 -3.8794053 19.432695
-7.053768 -4.50334 20.780638
-6.9325976 -4.5508795 21.33387
-7.162928 -1.9648725 17.79565
-7.495412 -2.5962224 21.491146
-7.0376334 -2.0301547 21.987265
-7.239468 -1.3528883 17.369864
-7.3682246 -1.591521 17.573895
-7.3587093 -1.4669793 21.906015
-7.4465795 -0.3979734 17.275349
-7.2804365 -0.69878614 21.961123
-7.617369 0.14617908 17.382963
-7.729968 0.6621723 17.518633
-7.8838515 0.7338873 21.546314
-7.521166 1.0969553 17.917847
-7.548606 1.5200696 18.38798
-7.757514 1.4940137 21.138254
-7.637845 1.6905247 18.795002
-7.6951776 1.9046206 19.482054
-7.939339 1.7621216 20.776178
-5.9414363 -9.879858 13.652064
-5.783049 -10.383258 14.374163
-6.196028 -9.747332 15.482625
-6.0300245 -9.695586 16.71696
-6.0170364 -9.14336 13.045736
-6.3333635 -9.347186 13.554455
-6.4594455 -9.586155 14.874893
-6.400382 -9.521913 15.180617
-6.2783413 -9.059523 17.14713
-6.315051 -8.360912 13.042584
-6.5169725 -8.458789 17.536957
-6.032985 -8.628326 17.97554
-6.244698 -7.6411705 13.083912
-6.609309 -7.388519 13.481093
-6.319322 -7.5154376 18.145222
-6.1344843 -7.255835 20.317926
-5.895262 -7.5981736 21.692339
-6.158972 -7.20555 22.680178
-6.013106 -7.1817436 23.278227
-5.9170027 -7.0263433 13.20891
-6.3038454 -6.836133 13.668712
-6.5340104 -6.607213 14.247431
-6.4817953 -6.321103 21.509233
-6.4428854 -6.3255267 22.521257
-6.225084 -6.3091197 23.391138
-5.820272 -6.503785 24.013437
-5.8152943 -6.271459 13.890588
-6.097051 -6.178179 14.756119
-5.8036475 -5.697885 15.63257
-6.4593916 -5.7594795 16.608036
-6.4800105 -5.6746883 22.13489
-6.098965 -5.4434175 23.294281
-5.7621846 -5.5331926 24.006517
-6.0311 -5.060665 16.662321
-6.100974 -4.62439 17.385733
-6.239617 -4.8801436 22.503622
-6.5918913 -3.2204554 22.008854
-6.89898 -1.9646153 17.580322
-6.3393173 -2.410226 22.255707
-5.98608 -2.2792244 22.779682
-6.675673 -1.6520859 17.456184
-6.009367 -1.363116 22.792238
-6.515232 -0.70749605 17.322315
-5.837069 -0.8961458 22.857948
-6.7462535 0.09411928 17.40934
-6.505203 0.20722827 17.580143
-6.449699 0.8590475 17.983484
-6.6928716 1.3285648 18.755663
-7.1134825 1.5028487 19.207193
-6.1232834 0.912869 20.627129
-6.8910956 1.5888311 19.328419
-4.5289817 -18.137886 14.657037
-4.600854 -18.436836 15.555997
-4.5473146 -18.318804 15.936019
-4.533428 -17.39004 14.861741
-4.5324965 -17.891542 15.815034
-4.8927255 -10.870215 13.560315
-4.9296646 -10.868158 14.589314
-5.143975 -10.201128 13.08011
-5.4319224 -10.433527 13.470025
-5.238426 -10.450431 15.180228
-5.704759 -9.923637 16.294079
-5.764716 -9.729826 16.815674
-4.9852996 -9.1019745 12.432707
-5.2189307 -9.41239 12.7087755
-5.1955767 -8.979669 18.262629
-4.926839 -8.603277 12.37622
-5.413205 -8.538826 12.595428
-5.349346 -8.525017 18.62515
-4.8959846 -8.127557 20.871504
-5.356464 -7.834631 21.161331
-5.300789 -7.7777615 23.478907
-4.8302937 -7.847221 24.090958
-5.512241 -7.6786313 12.763695
-5.6214347 -7.574996 23.533953
-5.2279043 -7.296494 24.35921
-4.9753675 -7.0838637 24.875774
-5.487017 -6.933217 13.12275
-5.544112 -6.5291886 13.475076
-5.506621 -6.576799 24.395992
-4.94311 -6.399976 25.265762
-5.3373733 -6.286004 13.732661
-5.281095 -5.971805 14.47797
-5.490284 -5.509095 15.810368
-5.4002333 -5.407785 24.422825
-5.048402 -5.6153626 25.086153
-5.5296426 -4.7548137 16.88417
-5.1132793 -4.995182 24.32222
-4.7403755 -5.1945643 25.247808
-5.256345 -3.9084442 17.59368
-5.4098277 -4.1478043 23.482088
-5.710516 -2.5935 18.074722
-5.2507267 -2.504638 23.06547
-5.670513 -0.63963735 17.763086
-5.995066 0.3616626 17.863768
-5.14119 0.029193293 23.400087
-4.6790924 0.862387 24.212265
-5.5749497 0.8159858 18.529293
-5.755302 1.1531276 19.693657
-5.3653116 1.1119186 22.647856
-5.0493474 1.3178722 23.42589
-4.6116805 1.6866539 23.904093
-4.992627 1.8290205 22.405638
-4.748183 2.1052904 23.074347
-3.8051155 -19.959698 14.678782
-3.9885013 -20.032612 15.696373
-3.954281 -19.919613 16.235905
-3.8710175 -19.171131 14.15301
-4.298784 -19.217028 14.7987585
-4.4733763 -19.010239 15.29249
-4.4204817 -19.308846 16.182575
-4.036028 -18.300295 13.958383
-4.4035153 -18.556128 14.618861
-4.3188653 -18.831156 16.708752
-3.7840958 -18.313055 17.364426
-4.06652 -17.567045 13.986444
-4.411919 -17.49363 14.557229
-4.4892526 -17.376581 15.4323015
-3.9973102 -17.316936 16.638218
-3.9668531 -17.20691 19.567017
-3.9290817 -17.4142 20.222685
-3.7532642 -17.1687 21.700277
-3.7492516 -16.919125 22.178936
-4.0694857 -16.98413 14.213681
-4.1012344 -16.702682 14.663797
-4.201418 -16.738657 15.262652
-3.7151062 -16.860964 16.802864
-3.983532 -16.326698 18.892012
-4.153508 -16.384796 19.531036
-4.222104 -16.203989 20.346943
-3.6959286 -16.423752 22.296453
-3.5742617 -16.27698 23.30224
-3.8486938 -16.154602 15.222096
-3.6862423 -16.14572 15.954289
-3.9320273 -15.947684 18.955744
-4.1148653 -15.680597 19.564203
-4.185574 -15.5370035 20.682432
-4.0385876 -15.547246 21.52239
-3.8271346 -15.24296 22.794857
-3.6597805 -15.66473 23.353964
-3.7707953 -14.545383 20.663921
-3.8812885 -14.564225 21.592999
-3.9100008 -14.554327 22.269552
-3.6711967 -14.82464 23.293024
-3.6211772 -13.823104 21.171112
-3.6714637 -13.934123 22.140667
-4.5343523 -10.790986 13.591891
-4.5612636 -10.963329 14.506974
-4.563298 -10.276235 12.950589
-4.276468 -10.373277 15.394949
-4.274977 -9.861162 17.165667
-4.291467 -9.776228 17.917667
-4.256329 -9.066483 12.310487
-4.564836 -9.445174 12.522514
-4.105777 -8.389628 12.207614
-4.3056498 -8.2845125 21.862526
-4.5071545 -8.212636 22.374556
-4.19444 -8.399499 23.357422
-4.3872366 -7.9901156 24.333439
-4.1481147 -7.7931457 24.88272
-4.433072 -8.006753 12.301212
-4.31269 -7.601374 12.587078
-4.632886 -7.616309 24.720762
-4.3046575 -7.3016872 25.247728
-4.177174 -6.8435936 25.673532
-4.7255635 -7.064598 12.906232
-4.5813518 -6.7158504 25.441193
-4.244071 -6.342945 25.803394
-4.98341 -6.1042857 13.83239
-4.56925 -5.872888 14.820544
-4.3370643 -5.761781 25.81822
-4.5416765 -5.410328 16.03916
-4.624167 -4.605702 24.554964
-4.4545584 -5.0306115 25.367947
-4.155641 -5.2284975 25.735771
-4.2992134 -3.2498968 17.980728
-4.592338 -3.16452 23.273697
-4.392379 -3.1956017 23.5509
-4.793389 -2.3920488 18.073835
-4.326247 -1.7506316 18.062595
-4.69571 -0.20009519 18.356659
-4.7214727 -0.27739573 18.487455
-4.1707897 -0.6730301 24.150486
-3.9278934 0.14857821 24.789476
-4.6899686 0.38664275 18.681248
-4.4102044 0.5624441 24.491636
-4.022778 0.9162559 25.070286
-4.3645353 1.7999933 24.30791
-3.815337 1.3304521 25.319475
-4.1413264 2.3094125 21.862185
-4.2426085 2.5543132 23.675667
-4.1427317 2.327367 24.32181
-3.6871355 2.5415971 24.980515
-3.6606379 3.3678522 22.320444
-3.9811947 3.0351827 23.139114
-2.9453547 -20.552174 14.927565
-3.0580683 -20.589176 15.373569
-3.1089573 -20.009424 14.2132845
-3.3158329 -20.169224 14.594915
-3.5730383 -20.345873 15.46467
-3.4380205 -20.324839 16.230553
-3.0363863 -20.137018 17.39711
-3.2976053 -19.36967 13.9041815
-3.3749597 -18.383821 13.62509
-2.9796038 -18.417318 20.321154
-2.729062 -18.518526 22.07427
-2.8935614 -17.969402 23.281342
-3.4364724 -17.55076 13.630586
-3.3173203 -17.594912 22.418308
-2.9864004 -17.660404 23.674826
-2.7972255 -17.374914 24.212862
-3.607735 -16.926897 13.901254
-3.52247 -16.270233 17.36642
-3.518223 -16.32235 22.687426
-3.379136 -16.534607 23.488054
-3.1667035 -16.488234 24.162851
-2.7597635 -16.351875 24.929308
-3.5581098 -16.074852 14.882985
-3.5078468 -16.00523 15.820041
-3.5556626 -15.99877 16.228565
-3.2753794 -15.71163 17.553905
[...]
POINT_DATA 7855
SCALARS features_00 float 1
LOOKUP_TABLE default
0.895435 0.86205447 0.8170719 0.9446267 0.93536806 0.894232 0.844373 0.96129113 0.9679351 0.9302161 0.46135616 0.78032815 0.7299502 0.5840479 0.5376568 0.86739016 0.8237433 0.70719755 0.6779088 0.6290368 0.91949844 0.78588116 0.71651334 0.9465926 0.96462524 0.9214509 0.84028995 0.7775819 0.9269589 0.9030525 0.8403175 0.28386968 0.2910568 0.58274484 0.5806975 0.44366193 0.41647798 0.35542154 0.6909101 0.6167642 0.47848648 0.79808605 0.8010717 0.51010925 0.8683598 0.8961988 0.6607501 0.59037495 0.89109826 0.8471317 0.80923384 0.7567399 0.8536769 0.86007667 0.8266458 0.68425715 0.6724137 0.5911851 0.5155998 0.66003084 0.6674168 0.6759265 0.61596036 0.4991081 0.45854983 0.6502209 0.64734924 0.66756105 0.6437017 0.4808746 0.44715774 0.61770594 0.55179703 0.46567032 0.4131798 0.34412825 0.16913874 0.41228408 0.4033692 0.32174724 0.09704525 0.16639388 0.14808035 0.13504511 0.5587106 0.27736387 0.20118591 0.61836946 0.6185313 0.25105694 0.6854511 0.26991394 0.72862715 0.755085 0.64866805 0.71346927 0.71137154 0.7295935 0.73240954 0.7678418 0.771177 0.70742923 0.674181 0.52254707 0.41712248 0.6828157 0.6919577 0.60496575 0.5668634 0.40820462 0.662011 0.4025088 0.3540635 0.6291908 0.6248586 0.3489269 0.23037325 0.40339953 0.47132385 0.5054391 0.59315777 0.5802145 0.56184983 0.28766066 0.39908573 0.4790284 0.53393227 0.51680154 0.46390247 0.37153697 0.41078866 0.2911483 0.39579302 0.4500448 0.32136047 0.31250182 0.24677536 0.13126028 0.53860116 0.119112134 0.06315708 0.52682555 0.04474497 0.5732982 0.03745798 0.6109974 0.57548547 0.56723523 0.58559614 0.64328086 0.6147582 0.6136513 0.69868964 0.65160966 0.61301863 0.6377851 0.57816154 0.7387773 0.6766763 0.7142032 0.7313962 0.5401672 0.42309844 0.38301146 0.656409 0.6734737 0.28767818 0.64873886 0.6541009 0.2519302 0.24976493 0.3351904 0.49518478 0.51369745 0.63106126 0.50770473 0.5342569 0.5528439 0.5876993 0.55090415 0.5564982 0.59111476 0.51339793 0.43189403 0.3325469 0.4600389 0.540619 0.23621902 0.36555392 0.49165192 -0.026600182 0.13102901 0.16866903 -0.015897814 0.43135822 0.5061988 0.26306194 0.3281734 0.44828492 0.49944884 0.32897648 0.34006593 0.34474435 0.33779117 0.3399294 0.7297351 0.7184651 0.70408297 0.7949486 0.76621246 0.7215452 0.7073872 0.7804995 0.7310692 0.62827075 0.49429214 0.7491026 0.6790309 0.5712528 0.42867428 0.36613455 0.45491135 0.426448 0.402475 0.700814 0.6310599 0.5450728 0.34209242 0.29217902 0.3802182 0.43100953 0.39920992 0.4289328 0.5125072 0.39124584 0.30852845 0.39317924 0.4531799 0.44556567 0.45984706 0.45271462 0.42291075 0.4640523 0.49130172 0.51135355 0.4412713 0.49798104 0.73397183 0.68755263 0.70414084 0.43136403 0.1874614 0.17271897 0.65214133 0.6620461 0.65464145 0.3423596 0.41664135 0.49103874 0.5195268 0.5307921 0.64822 0.64091796 0.5333727 0.55110097 0.5741569 0.6055814 0.5823741 0.5902325 0.47818607 0.35372257 0.5706241 0.2509492 0.30520058 0.47267985 0.51007664 -0.015052661 -0.03674613 -0.050351366 0.08641535 0.13849169 0.30804682 0.3006078 0.1993284 0.27868012 0.3076669 0.31372148 0.33356845 0.3475079 0.34739786 0.33465773 0.33067352 0.33780104 0.32508335 0.26553094 0.3288486 0.65220165 0.6472466 0.6932095 0.69107634 0.67936015 0.65397835 0.59407926 0.757128 0.79713815 0.31114584 0.5114604 0.558069 0.7806857 0.46504992 0.54210794 0.58363783 0.74659044 0.20811912 0.40691033 0.44657302 0.5246364 0.6463156 0.5960775 0.38110822 0.33071923 0.18035589 0.5675311 0.64472246 0.13683994 0.2650306 0.31949648 0.40244347 0.55658007 0.5710874 0.65733737 0.2796256 0.34440923 0.37926644 0.4831588 0.5394697 0.6198827 0.65529186 0.6890571 0.4179709 0.48115134 0.6222462 0.7371695 0.7157695 0.6811305 0.6871283 0.12453086 0.1422422 0.65410626 0.66164935 0.5128232 0.65725595 0.50002253 0.5383657 0.5279139 0.6547022 0.63931495 0.5291377 0.53662586 0.5616977 0.433869 0.542613 0.27608567 0.18195623 0.5352696 0.29234663 0.40937364 0.051103674 0.14667451 0.26794344 0.2861934 0.12055452 0.33120215 0.099739924 0.3045659 0.31300712 0.18710454 0.26433882 0.23694007 0.23374979 0.20042843 0.2907304 0.6339786 0.6299 0.6707648 0.6467734 0.665634 0.6371757 0.6089774 0.5252287 0.47644323 0.700085 0.43884104 0.38076597 0.4678403 0.58866066 0.7582645 0.38528964 0.6300344 0.6856399 0.7152423 0.7570549 0.6490583 0.7147877 0.7289038 0.72443867 0.76082885 0.6166911 0.6403178 0.71611613 0.753858 0.11138411 0.7392225 0.75054395 0.50079083 0.21360642 0.5179679 0.4830072 0.74423814 0.8112557 0.0365297 0.12612653 0.57799804 0.08406473 0.11090042 0.23405957 0.2773347 0.6809105 0.52347547 0.54996604 0.5931052 0.43852538 0.4727556 0.113600835 0.40321666 0.14982182 0.3115277 -0.13991484 0.14470612 -0.042789884 -0.097680114 0.16198955 0.22086014 -0.18939926 0.24945636 0.18594667 0.23858377 0.35462555 0.33701462 0.15620257 0.17954297 0.040020272 0.110300615 0.2588884 0.35214382 0.45236224 0.5048467 0.2257872 0.15206546 0.18309183 0.33330315 0.40716106 0.48971587 0.5533049 0.31131583 0.30281448 0.30089468 0.34189665 0.30094427 0.3167506 0.48074114 0.32760093 0.35981262 0.38467532 0.36528403 0.36697045 0.44672883 0.47963542 0.4868938 0.45546645 0.4656781 0.5029067 0.48916036 0.48296273 0.65444887 0.7105261 0.68221986 0.5797006 0.6068935 0.5856939 0.5934895 0.54377186 0.47999704 0.57747847 0.3193758 0.23971601 0.37938184 0.46772525 0.6596054 0.5929279 0.725247 0.7542554 0.7752144 0.77996707 0.34571227 0.24573013 0.7784698 0.46074212 0.78494495 0.7796927 0.49497092 0.516566 0.23839335 0.22913326 0.836861 0.79805183 0.48327896 0.50836104 0.5095683 0.0921914 0.44012898 0.6584015 0.80005884 -0.046480715 0.13344121 0.20598644 0.23365325 0.2957741 0.13015662 0.2322601 0.07981068 0.42557418 0.050236553 0.3619336 0.29598385 0.4398774 0.4716492 -0.060989294 0.43929547 0.3974898 0.4091911 0.41543424 0.3445548 0.30560708 -0.17201272 0.20523852 0.42853758 0.432159 0.42686206 0.37081903 -0.24352786 0.07067622 0.18543324 0.35505465 0.40279818 0.40859026 0.41123164 0.41479087 -0.24533784 0.21671999 0.40856043 0.37323368 0.37635076 0.3596061 0.31187093 0.2971487 -0.16249219 -0.050838783 0.27494213 0.452486 0.311094 0.30899602 0.3022232 0.25806564 0.10205285 -0.07782408 0.065718964 -0.08187238 -0.14157593 0.16560632 0.40777844 0.5281606 0.09448766 0.096921876 0.54820216 0.57370543 0.17751272 0.22377652 0.22894607 -0.011519283 0.00564429 0.5954163 0.61465806 0.29582936 0.29735738 0.13171256 0.38742012 0.5913433 0.63101506 0.6300957 0.29371554 0.3013137 0.32356772 0.19191757 0.28216466 0.4204796 0.36901742 0.44010752 0.46790296 0.42971537 0.42023706 0.4639513 0.45023286 0.42707485 0.6372232 0.7054988 0.6804316 0.5973712 0.52917266 0.59562385 0.5529365 0.46813437 0.48331875 0.41921312 0.03029877 0.45059747 0.6191042 0.46282312 0.3766054 0.64078915 0.7264352 0.7558017 0.43111545 0.76369685 0.76704717 0.7780303 0.35658562 0.7489985 0.76995593 0.3900298 0.41665033 0.74918586 0.7729883 0.45127243 0.61776304 0.65326726 0.7160772 0.41090548 0.1963779 0.7436073 0.38947505 0.22790858 0.19425446 0.24520226 0.23505071 0.21900362 0.17087826 0.21883573 0.17353761 0.20031127 0.14863636 0.1659065 0.090650775 0.16663724 0.2637185 0.42838562 -0.06548813 0.4415031 0.55464894 0.5276267 0.56308097 0.28636423 0.3705081 0.4790261 0.36863917 0.32515904 0.36173427 0.33190235 0.20969127 -0.14124233 0.3301555 0.35281968 0.47350746 0.46764457 0.43371832 0.33938155 0.40809396 0.4677089 0.45551556 0.4365163 0.4554829 0.39975762 0.35851282 0.46384615 0.3286059 0.28497672 0.28121528 0.29326984 0.38848042 0.2285822 0.2160483 -0.099198215 0.13797891 0.091819614 -0.027213342 -0.04943531 -0.15959404 -0.19124764 0.35997167 0.0010693297 -0.08727962 -0.1443149 -0.110073105 -0.24979725 -0.28986233 0.4922641 0.014797106 -0.029358689 0.04453652 -0.116309166 0.5721264 0.5616077 0.1771816 0.61011314 0.59008217 0.31997815 0.29641336 -0.10115494 -0.14570314 0.5051565 0.6278806 0.62959623 0.34639427 0.33024502 0.3053346 0.06586674 -0.041685443 0.548472 0.60097194 0.33058286 0.27910453 0.25160658 0.18957531 0.20203264 0.34456992 0.38010836 0.42284948 0.38501054 0.3960595 0.45712018 0.42965746 0.6677569 0.6599661 0.5565626 0.57417107 0.66131747 0.5336987 0.43083018 0.51550233 0.38769436 0.028346553 0.69885254 0.63728094 0.69643635 0.7406406 0.20333435 0.6495863 0.67235565 0.2856125 0.26939243 0.33856884 0.6994691 0.503887 0.5893328 0.6809292 0.39846933 0.3349033 0.054447956 0.20476879 0.2335087 0.01846321 0.2564125 0.0012079701 0.06955177 0.26474202 -0.27139854 0.44038492 0.08889679 -0.029860646 -0.08558586 -0.030170556 0.49569988 0.5609999 0.58323395 -0.03198807 0.5760945 0.24972565 0.11810573 0.5097606 0.41211027 0.37955508 0.28388992 0.2779035 0.27409315 0.31123123 0.46658295 0.3395683 0.35684964 0.45027268 0.46628964 0.42996517 0.41559577 0.45160502 0.33357173 0.28722608 0.38644424 0.13377656 0.22368185 0.10086514 0.084130324 0.3208069 0.10577096 0.06590087 -0.0011339411 0.44483942 0.11883625 0.11219798 0.12129626 0.52826416 0.17512895 0.21197283 0.59894454 0.5630037 0.31082958 0.29784834 0.6095697 0.37676513 0.5204809 0.5888589 0.3823489 0.3480631 0.291321 0.21118967 0.25709307 0.34100145 0.25035867 0.21047232 0.37777084 0.32984814 0.4108957 0.43333006 0.47216833 0.48090523 0.44634295 0.49904716 0.5215962 0.5482558 0.23347114 0.44531626 0.24042909 0.22757888 0.41009724 0.23163486 0.2342175 -0.038408116 0.24002182 0.11444144 0.10100333 0.094631776 0.08039619 0.13260047 0.17736402 -0.15500148 -0.4765014 0.23635921 0.26783034 -0.37356925 -0.14956117 0.18800157 -0.07748933 0.08291205 0.14795989 0.30092198 0.43210223 0.5127279 0.5529462 0.092221186 -0.0077646226 0.48755753 0.52204674 0.3133247 0.26691532 0.08694059 0.4527638 0.41391957 0.29418036 0.42152599 0.28971237 0.4265843 0.35330367 0.3763982 0.34599757 0.36379248 0.24274033 0.15752742 0.10588763 0.22353318 0.19175828 0.2545085 0.21312296 0.16124582 0.3792085 0.42961842 0.23695952 0.18111253 0.4798142 0.13965279 0.5436361 0.50821257 0.27313596 0.54473805 0.37706184 0.2040495 0.23031402 0.43782184 0.52428305 0.3847823 0.38004893 0.34469438 0.40977126 0.34934357 0.29940414 0.29466486 0.40620154 0.41193712 0.22016798 0.3751669 0.43471026 0.5080329 0.4414214 0.47899804 0.5413214 0.59167194 0.59601617 0.5751333 0.5726337 0.60998476 0.35014823 0.44997144 0.48934853 0.28508997 0.4183433 0.26597792 0.2952701 0.32480067 0.46050102 0.22891541 0.47940418 0.17634737 0.37573406 0.16061927 0.11944168 0.16592522 0.13916609 0.07273862 0.12651491 0.044085644 -0.18758523 -0.13766444 0.0021461397 0.085313246 -0.37346333 -0.12869659 0.18473266 -0.17007342 0.19877967 -0.05614879 0.007971581 0.1924547 0.013433674 0.20118715 0.11875769 0.040806472 0.39605385 0.26960787 0.2498019 0.17655571 0.31317684 0.32576305 0.31845433 0.3521129 0.3600027 0.3409609 0.060319472 0.32847342 0.11527386 0.2967835 0.13966718 0.1796163 0.15112615 0.1788103 0.20472255 0.23321947 0.109862685 0.2566914 0.1921404 0.25596672 0.23891175 0.37082946 0.14381945 0.4431067 0.38294107 0.30647084 0.07759024 0.33202332 0.3507353 0.39586812 0.33096784 0.276078 0.44926763 0.43916035 0.24271925 0.24535455 0.24692564 0.37073833 0.44807464 0.45532924 0.33187127 0.37769037 0.47630167 0.43055183 0.50781655 0.5400233 0.63019896 0.6103451 0.5714475 0.6314356 0.6393908 0.51910067 0.48751494 0.4616068 0.2984234 0.353061 0.41280565 0.31057003 0.4302882 0.45115277 0.21078445 0.46373194 0.16816193 0.11076731 0.28834662 0.05460921 0.12992176 -0.016434178 0.12475448 -0.125247 0.13384914 0.14561892 0.0942818 -0.018048927 0.111131534 -0.20811811 -0.04275337 0.07775645 0.0113186445 0.025376309 0.01625301 0.019666182 0.037684835 0.1718776 0.02814751 0.24238703 -0.0062889084 0.29801837 0.33431286 -0.009193525 0.30555552 -0.12549284 0.29293203 -0.044707727 0.2170367 -0.10220832 0.2857949 0.16505986 0.26605368 0.21732935 0.255979 0.24537258 0.25577152 0.25025716 0.25402808 -0.0016145706 0.25268432 0.21325296 0.05186357 -0.021820702 0.05513616 0.18075018 0.24227065 -0.04410582 0.31242204 0.31934807 0.31436205 0.3150773 0.4240284 0.28823137 0.2837434 0.43164074 0.44868955 0.3426513 0.40011525 0.56360734 0.44194442 0.5007616 0.547895 0.62084925 0.6164035 0.5839325 0.6238487 0.6262866 0.49672192 0.4556436 0.39545628 0.38070798 0.48124814 0.37449336 0.21706656 0.2830825 0.38653913 0.24453092 0.2803897 0.38722396 0.4147976 0.20351696 0.42661846 0.15193486 0.37914938 0.2157616 0.13044089 0.18637908 0.12371964 0.045013167 0.045970805 0.074295 0.06979686 0.086937375 -0.25231454 0.041931942 -0.047696754 -0.13061221 -0.004341718 -0.07493186 0.016238768 0.08213914 -0.053194627 -0.05700992 0.10520331 0.0024330374 0.18632676 0.13147071 0.036851443 0.19466776 0.090602614 0.14727454 0.14733453 0.25081187 0.00029995595 0.1815128 0.18316995 0.40436602 0.46199235 0.18496574 0.42201895 0.21277471 0.20335785 0.22972491 0.2874971 0.2540334 0.085216254 0.27975836 0.026678752 0.27980906 0.24196379 0.029269032 0.13712412 0.03753158 -0.13042352 0.04826756 -0.17291304 0.057819325 0.037954286 0.21757548 -0.06712238 0.29474196 0.2938227 0.08558833 0.28099445 0.27081317 0.35366338 0.26408094 0.3965884 0.38430297 0.36692843 0.43975365 0.5439366 0.4609828 0.509054 0.54006827 0.5866367 0.596169 0.58637995 0.6052711 0.48265624 0.43877277 0.48809677 0.47287714 0.42766142 0.24699202 0.1910255 0.39076132 0.29141766 0.09120123 0.101715334 0.3594064 0.31034452 0.25868455 0.26367834 0.30616617 0.2959246 0.23535477 0.26944378 0.24340387 0.20261948 0.18916775 -0.058510903 -0.057815555 -0.062029876 -0.09695417 -0.06699984 -0.1951274 -0.051909056 0.078251414 -0.24940681 0.16258036 0.29164043 -0.27984816 0.16064882 0.2715727 -0.10823745 0.09593832 0.4466483 -0.09587383 -0.039500453 0.10533957 0.5270423 0.40984163 0.07993211 0.19393954 0.23010032 0.55025375 0.5203212 0.23993313 0.47434723 0.00015102327 0.23180291 0.054483637 0.17072646 0.41161075 0.48029155 0.16716833 0.102866426 0.5127971 0.18877915 0.4845065 0.21442768 0.37738827 0.26809677 0.240503 0.16273475 0.21155402 0.33852318 0.08370021 0.57416266 0.41176385 0.29562503 0.67547035 0.41601312 0.16780743 -0.0138248615 0.15477552 0.4885641 0.67818797 0.47789782 0.5224741 0.2338855 0.20028065 0.4840036 0.26831818 0.27378947 0.22539279 0.24068439 0.2756505 0.10395931 0.19441403 0.18958521 0.19147876 0.42887548 0.4558242 0.4564385 0.45192468 0.49110454 0.46644235 0.5070058 0.42642704 0.36910814 0.36882272 0.18507051 0.22999795 0.28842992 0.3103687 0.41829506 0.108195916 -0.023948804 0.2551426 0.4235364 0.41257358 0.0043570995 0.37633955 0.33706787 0.12537573 0.30843565 0.109771766 0.3666234 0.20250781 0.11011928 0.15882361 -0.12706958 -0.011823638 -0.14252758 -0.16222891 0.19977096 0.29885632 -0.22223563 0.36256045 0.4366495 0.343936 0.41552883 -0.29177684 0.4263523 0.53252494 0.46299857 -0.151115 0.5995127 0.5584836 0.27640396 0.27827072 0.62602454 0.60525656 0.29692388 0.2925767 0.3826821 0.23426647 0.29262155 0.23998913 0.2770116 -0.47888273 0.3237989 -0.26062387 0.4302122 0.4945054 0.22463745 -0.13389942 0.5493798 0.5263561 0.21077755 0.22546089 0.4154861 0.23989432 0.25817004 0.25442612 0.5066253 0.4138466 0.11330229 0.6192135 0.61823153 0.5798345 0.67215747 0.70818824 0.51929957 0.117200986 -0.08049013 0.5077678 0.72431326 0.72567266 0.67851806 0.54679024 0.4327298 -0.17144763 0.5689312 0.6803733 0.6398896 0.576875 -0.1332379 0.33345902 0.50228703 0.5607044 0.064236656 0.0051350147 0.071654886 0.13267031 0.11346778 0.16214913 0.22836864 0.34156543 0.15269184 0.42593008 0.44354272 0.37992322 0.121445544 0.14480144 0.28286237 0.28105402 0.45837873 0.43837655 0.29111752 0.03898534 -0.11938092 0.23999712 0.45202044 0.40498918 0.41454464 0.6068348 0.29764256 0.48871017 0.117694065 0.32282868 0.48798165 0.10040607 -0.015584651 -0.06452088 0.06906509 0.32298687 -0.17176734 0.44388264 -0.11063274 -0.19504331 0.50473905 -0.15487067 0.5355257 0.49267876 0.42736244 -0.124093704 -0.21735935 0.60573435 0.6265658 0.5552839 0.65184414 0.20873103 0.66084045 0.2968625 0.30724323 0.5756951 0.38477638 0.18351033 0.2967292 -0.45676908 0.30959138 0.35676602 0.41727507 0.4816128 0.2323751 0.54132557 0.22906324 0.54472643 0.2019392 0.42805052 0.16953218 0.2984273 0.5194634 0.4841858 0.33348137 0.04073923 0.5931324 0.66626 -0.033263616 -0.2722441 0.50722545 0.5537134 0.7056146 0.6840379 0.35317117 0.57719654 0.57705647 0.6456207 0.59031117 0.48044252 0.472844 0.54388887 -0.115892895 -0.11345696 -0.4595535 -0.07670363 0.05436085 0.35334784 0.22632994 0.15583993 -0.22984752 0.051027 0.10935381 -0.11502826 0.86435664 0.06326894 0.6203568 0.8452954 0.78564876 0.5428231 0.70692784 0.79267216 0.8309915 0.69841063 0.78932613 0.40760973 0.4280393 0.3217051 0.34303576 0.34604603 0.20148599 0.23997557 0.25668117 0.2442762 0.442829 0.38578635 0.28251967 0.11751509 0.23278195 0.24092704 0.42542985 0.0857849 0.21294942 0.6064373 0.75396454 0.36169732 0.37835288 0.7709059 0.80554014 0.24568482 0.7527758 0.14777513 0.619776 0.3439391 -0.01835391 -0.04872896 0.5301725 0.5626077 -0.10175498 0.59614277 0.20107116 0.6223875 0.55250704 0.49168372 0.34546956 0.2646048 0.6249267 0.6412277 0.13520646 0.21047565 0.269436 0.46775043 0.69579923 -0.47327337 0.20592426 0.15674785 0.65314955 -0.5546595 0.29106194 0.5178731 -0.3458246 -0.010018043 0.015317433 0.21323517 0.27796876 0.25833213 0.15930657 -0.20124996 -0.45829085 -0.04454702 0.19608937 0.22562717 0.3211071 -0.21351567 0.37323028 0.4652027 0.54796875 0.57652575 0.17022765 0.5565617 0.026776273 0.16787335 0.2893532 0.10450879 0.39669174 0.14879842 0.19216242 0.54695606 0.42856354 0.6032726 -0.21485166 0.53344756 0.5977683 -0.06283811 -0.22164187 -0.21179575 0.5314958 0.54905117 0.5368353 0.43589175 0.27855057 -0.054043036 -0.034247868 0.3883689 0.49306968 0.4498753 0.04724409 0.057285607 0.067499645 -0.21631674 -0.5450746 -0.4708799 -0.36388922 0.17079735 0.26275274 0.115386724 0.08262911 -0.015948184 0.40063602 -0.3686172 -0.2310169 0.043640215 -0.02276273 0.08013378 0.22984312 0.6506843 0.23074384 0.22442137 0.31396762 0.27917618 0.22109193 0.42988136 0.7290991 0.4091437 0.41083997 0.4914021 0.5174088 0.61019075 0.7181894 0.6530062 0.48910576 0.51874024 0.5435338 0.50325954 0.64683497 0.71864784 0.73052955 0.35608372 0.45852268 0.49074903 0.5082914 0.48616078 0.428353 0.21439826 0.23412636 0.4029348 0.32587135 0.05845764 0.31639516 -0.0761777 0.6156378 0.726318 0.76382357 0.238064 0.2979204 0.7852706 0.240325 0.8131067 0.24522336 0.76826566 0.19262555 0.028847512 0.5162286 -0.080130346 0.5613226 0.58346003 -0.105248176 -0.04176736 0.601367 0.22517827 -0.102761984 0.59188247 0.6128833 0.53886676 0.46442404 0.3310572 0.5527332 0.62070465 0.1573059 0.2633975 0.34079915 0.45341358 0.6394211 0.56946146 -0.52138805 0.38288093 0.3023397 -0.52567524 -0.47464848 -0.15050794 -0.09132427 -0.022702344 -0.09383941 -0.0452817 0.13424052 0.23450503 0.3890378 -0.039892547 -0.2525487 -0.12066619 0.18460464 0.37123305 0.5484567 0.5988632 0.17737463 0.4968864 0.42973024 0.4143591 0.11837115 0.07350604 0.39610553 0.18095015 0.28580847 0.48400378 0.37776428 0.39576006 0.35863152 0.40369326 0.37385353 0.09895444 0.2816474 0.39793164 0.423114 0.3836425 0.25482854 -0.022009462 0.046407446 0.20131946 0.11136321 0.12079063 -0.21946633 -0.24371931 -0.35766378 0.057560913 0.14484255 0.13998666 0.113225445 -0.19646937 0.27161792 0.14507203 0.15073906 0.17837669 0.4021378 0.36564532 0.4497857 0.30041885 0.42549348 0.49208167 0.39974084 0.42629895 0.5532117 0.5663557 0.5373702 0.42663264 0.5262091 0.64157134 0.5832979 0.5233656 0.41288912 0.44300234 0.5224888 0.5791966 0.5822317 0.53109556 0.3485539 0.45194948 0.5060352 0.5327233 0.5026215 0.28634825 0.46251974 0.36674356 0.19041143 0.02680126 0.24972937 0.076161705 0.37395322 0.565712 0.6768957 0.73193187 0.24001499 0.23905706 0.6817206 0.7330724 0.2569995 0.74490666 0.2788785 0.26619548 0.682668 0.2646451 0.22765508 0.4642576 0.17663637 0.40781778 -0.017888058 0.552218 0.5649836 -0.12927014 0.58996326 0.5986314 0.54262817 0.5956714 0.36076182 0.15081038 0.2914839 0.3721726 0.46378526 0.548774 0.5032494 0.4304732 0.27626553 0.47818255 0.41610864 -0.30420116 0.2