# vtk DataFile Version 2.0
Really cool data
ASCII
DATASET POLYDATA
POINTS 6738 float
16.381365 -5.922275 196.195
16.092392 -6.041366 196.89462
16.072021 -6.124986 197.50854
16.229656 -6.038818 198.06702
16.263813 -5.119535 195.89513
15.993942 -5.5164223 196.75037
15.890233 -5.4662533 197.47447
16.08299 -5.4968247 198.08122
16.284468 -4.5867033 195.98703
16.068892 -4.735941 196.78148
15.974322 -4.8614087 197.40799
16.155935 -4.8744435 198.041
16.415932 -4.099862 196.46196
16.234085 -4.254323 197.14662
16.160578 -1.8242681 191.10216
16.231667 -2.0175498 191.24254
16.196093 -1.8906801 192.25401
16.367483 -1.2690119 190.12416
16.1667 -1.3979014 190.7391
15.979881 -1.37651 191.52603
16.084398 -1.3644052 192.329
16.28346 -1.4125378 193.16306
16.3591 -0.7860806 190.02753
16.124674 -0.6733492 190.73936
15.953019 -0.6641457 191.5588
16.053339 -0.6995102 192.47797
16.419146 -0.53599334 193.32248
16.467102 -0.79380417 194.12035
16.296652 -0.16378799 190.69977
16.158361 -0.016547412 191.40369
16.364561 0.48307014 192.49532
16.369116 0.46527296 192.99991
16.339893 6.996506 210.45747
16.198582 7.7128377 209.76436
15.935127 7.7696033 210.63065
16.027147 7.8214316 211.21977
16.331694 7.948502 211.83861
16.101372 8.474409 209.68666
15.8597355 8.486697 210.51521
15.963417 8.488564 211.28477
16.302473 8.395544 211.88596
16.191856 9.042722 209.71709
16.101643 9.182582 210.45259
16.134106 9.168524 211.30312
17.330496 -11.086283 194.7754
17.253393 -10.911588 195.24474
17.397465 -10.2974825 194.22102
17.21759 -10.564407 194.74068
17.205236 -10.35722 195.28508
17.29914 -9.742334 194.70393
17.291365 -9.812193 195.284
16.99277 -6.916453 196.64993
16.718433 -6.8801346 197.48924
16.867563 -6.811276 197.9754
16.840275 -6.1330757 195.55907
16.386614 -6.4986534 197.7535
16.534191 -6.1904964 198.27586
17.005705 -5.987267 198.79982
16.856491 -5.277912 194.91661
16.537426 -5.4976683 195.46222
16.423777 -5.4142933 198.47772
17.08399 -5.34429 198.93184
16.996765 -4.6740336 194.76915
16.51198 -4.9231 195.3792
16.56757 -4.717572 198.39478
17.060139 -4.910099 198.9881
17.162561 -2.5803976 191.0961
16.930325 -3.3549786 195.35962
16.732061 -3.5865045 196.49353
16.524773 -4.063284 197.44704
16.937977 -4.078204 198.13727
16.966536 -1.8749131 189.77234
16.773254 -2.1208 190.61937
16.638025 -2.3015676 191.45413
16.547354 -2.2253265 191.99048
17.266405 -2.5795074 195.40118
17.220385 -2.7502933 196.3236
16.96336 -1.3884525 189.22192
16.718975 -1.3434365 189.55878
16.687973 -1.4327323 194.4391
16.768747 -1.8848916 194.90843
17.41218 -1.3603824 196.329
17.031506 -0.5875264 189.13725
16.7071 -0.7562748 189.50185
16.6756 -0.27741194 194.42368
17.126238 -0.8113315 195.48341
17.165495 -0.7411325 196.26743
17.029827 0.13051882 189.71053
16.594082 0.1497778 190.55579
16.585325 0.5552139 191.20473
16.47412 0.5894178 192.72116
16.593136 0.41571063 193.65361
16.84626 0.52807665 194.41621
16.971672 0.38115415 195.48796
17.186773 0.32641098 196.56819
17.320923 0.350066 196.93152
16.924763 0.85239977 191.04436
16.914968 1.2421213 191.76971
16.746155 1.2072294 192.4514
16.883831 1.1215144 193.36862
17.050426 0.81923574 194.8541
17.228283 0.89706445 195.71338
17.290771 0.89236975 196.04942
17.153488 1.6744184 192.52126
17.229683 1.6337022 193.26534
17.138128 6.069015 209.67262
17.097704 5.861442 210.27965
17.174978 5.889038 211.65256
17.408155 5.423118 212.09445
17.092308 6.7966948 208.97383
16.635895 6.8853626 209.63235
16.592081 6.7695494 210.77074
16.751143 6.5703697 211.22171
17.156183 6.6937833 212.38365
16.948446 7.543768 208.82138
16.545185 7.3439302 209.4878
16.747751 7.705404 212.17769
16.73683 8.475829 208.91087
16.59918 8.627341 212.27763
16.760324 9.218455 209.04803
16.500343 9.357551 209.43413
16.770454 9.41077 212.4299
17.059702 9.371846 212.80977
16.760363 9.829339 209.51529
16.67832 9.988598 210.69685
16.717548 9.960837 211.40128
17.007496 9.933575 212.41595
17.308865 12.953395 212.46487
17.362207 13.590563 211.67943
17.289955 13.607449 212.45793
17.38197 13.480642 212.9504
17.43134 14.039642 211.6748
17.38469 13.995725 212.42824
18.238293 -12.723153 195.51752
18.20673 -12.719039 196.24834
18.234926 -11.953707 193.53503
18.057756 -12.262602 194.58159
18.012325 -12.313855 195.694
18.023205 -12.295357 196.53339
18.199947 -12.162894 197.00786
17.904177 -11.182593 193.76208
17.722069 -11.544293 194.47571
17.58014 -11.488089 195.54999
17.836908 -11.447556 196.45796
18.129513 -11.673696 197.03271
18.388624 -10.032809 189.93254
18.394201 -9.997771 190.30275
17.911232 -10.843434 193.64902
17.689165 -10.575671 196.13254
18.145647 -10.8034725 196.68207
18.399895 -9.521769 189.57104
18.379763 -9.53858 190.09808
17.586643 -9.896465 194.0738
17.587635 -9.53062 195.62553
17.781828 -9.658403 195.95605
18.076916 -9.156525 194.1909
17.72822 -9.112405 194.53203
18.14942 -9.162274 195.83607
17.720196 -6.7459702 195.37979
17.730375 -7.372724 197.01025
17.52507 -7.2549443 197.55832
17.578424 -6.8959804 198.25368
17.374712 -5.973029 194.85852
17.723627 -6.6021595 195.32304
17.555382 -5.9346266 199.00497
18.131666 -5.8303204 200.80872
18.264265 -5.7597656 201.2928
17.747635 -5.2764673 194.32384
17.474264 -5.6411757 194.54456
17.446383 -5.115816 199.45276
17.891499 -5.3862057 200.76991
18.033375 -5.3233886 201.35692
18.234312 -5.161732 201.79611
17.961939 -4.320395 193.87282
18.17193 -4.372369 199.89801
17.917545 -4.5795836 200.59042
18.008507 -4.7134323 201.3664
17.515226 -2.7440078 191.56766
17.498955 -3.215234 194.17197
17.293573 -3.8412263 197.74832
18.005533 -3.4937649 198.50385
18.035908 -3.936375 199.29626
18.186277 -4.0198393 200.89896
18.192743 -4.213917 201.23793
17.724876 -1.7282072 189.09213
17.672535 -2.0772498 189.63101
17.996763 -2.5310671 190.59447
17.442945 -2.764857 197.08043
17.539236 -1.4327304 188.97276
17.63637 -1.6009339 196.48346
17.485622 -0.89918774 196.93188
17.334278 -0.4721232 189.00352
17.620102 -0.3746058 197.35756
18.199703 -0.49859384 197.8882
17.383118 0.05373901 189.17494
17.52495 0.35077605 189.62886
17.443531 0.7068362 196.79962
17.709087 0.36433238 197.36009
18.237103 -0.048152473 197.8505
17.606598 0.6696042 189.97586
17.603718 1.1239991 190.62314
17.474329 1.4839418 191.45456
17.656986 1.5773894 194.42596
17.587782 1.369516 195.59488
17.801075 1.2945998 196.50282
17.855017 1.1023878 196.955
17.73735 1.832264 191.92773
17.755938 1.963201 192.33344
17.682432 1.8045752 193.37119
17.92579 1.8439779 194.58357
17.716782 1.6765264 195.25824
18.274206 3.233358 212.76349
18.121998 3.9709728 211.53117
17.956837 3.762489 212.62727
17.993477 3.8213973 213.35728
18.283176 3.7925334 213.96326
18.180887 5.011679 210.14587
18.087082 4.485952 210.78648
17.583958 4.8147182 211.39693
17.679401 4.485344 212.7166
17.719564 4.6078634 213.20792
18.17836 4.605982 214.12616
17.881296 5.861963 208.97328
17.478798 5.6470537 209.65533
17.43298 5.421742 211.0587
17.80069 5.2826304 213.66968
18.24479 5.680774 214.34872
18.218372 7.077621 208.03304
17.51354 6.714923 208.57437
17.59322 6.5865216 213.27202
18.159615 6.351187 214.09229
17.63479 7.4713216 208.16678
17.921808 7.376764 213.33481
18.015871 8.536104 208.15201
17.635744 8.098676 208.48935
17.74337 8.624899 213.07341
18.38209 9.961843 190.02463
18.422647 10.012025 190.42769
17.940468 8.966289 208.32825
17.42772 9.111717 208.54991
17.392475 9.3711605 213.04364
18.411211 10.459562 189.96486
18.369883 10.477606 190.52078
18.418222 10.402011 190.97903
17.929564 10.036458 209.16844
17.435863 10.399556 209.98907
18.366087 10.936346 190.49861
17.79259 11.986979 212.57675
18.271479 11.551701 213.54181
17.949665 13.045792 210.65192
17.500622 12.96148 211.59732
17.649887 12.80169 213.27367
18.112858 12.800064 213.76443
17.494682 13.702185 211.43994
17.579935 13.483338 213.2623
18.078646 13.547626 213.70178
18.043123 14.33129 210.90463
17.684752 14.365988 211.51988
17.62522 14.328522 212.49924
17.872456 14.177748 213.1094
18.017359 14.787521 211.61461
17.98263 14.694514 212.34073
18.744238 -12.706246 193.90941
18.666338 -12.849196 194.8313
18.706408 -12.983971 195.64934
18.590178 -12.943905 196.45312
19.244757 -11.807599 189.87213
19.1231 -11.866503 192.11565
18.978125 -11.887308 192.64659
18.502108 -12.385528 193.71341
18.426424 -12.557242 194.19704
18.658941 -12.382945 197.23445
19.169466 -11.156207 189.10167
19.0358 -11.383236 189.7289
18.867073 -11.276051 190.3535
19.228296 -11.203579 191.29332
18.512072 -11.672656 193.09119
18.548971 -11.761302 197.36502
18.974443 -11.682814 197.57
19.05765 -10.385414 188.87196
18.575512 -10.303788 189.50609
18.687193 -10.419102 190.92442
18.745667 -10.718302 197.18658
18.681448 -9.557699 189.08043
18.503626 -9.673837 189.30344
18.468748 -9.181791 190.42287
18.81593 -9.747226 192.77536
18.856007 -9.020501 189.07143
18.84294 -8.631738 189.74413
18.734514 -8.75415 190.23656
19.245789 -8.933645 193.14992
18.360598 -9.070371 193.9895
18.290224 -8.762268 194.58769
19.17425 -8.281828 194.55125
18.582668 -7.081688 195.41647
18.553272 -7.2791185 196.15053
18.205492 -7.088968 197.9346
19.220972 -5.839346 182.82263
19.168083 -5.8230605 183.18083
18.366743 -6.583382 198.84453
18.665653 -6.1195426 200.82092
18.642578 -5.9572406 201.36458
18.791637 -5.8153114 201.78195
19.27021 -5.327793 182.2069
19.072254 -5.39531 182.62044
18.958803 -5.3163705 183.35806
19.218966 -5.0960927 184.06274
18.56656 -5.3078604 193.89622
18.62908 -5.3138556 202.02174
19.308334 -4.6870637 182.1022
19.014002 -4.7080173 182.73204
18.947657 -4.6818914 183.30922
19.189596 -4.663165 184.0468
18.42325 -4.61875 193.83943
18.59372 -4.6002812 202.02003
19.204086 -4.179436 182.8026
19.145166 -4.190263 183.35313
19.378885 -4.1488776 183.83328
18.341839 -2.8848875 191.60469
18.524616 -3.1761322 192.48055
18.345402 -3.739834 193.36603
18.554792 -3.4501188 198.93147
18.426037 -3.8608608 201.25374
18.993277 -3.8770938 201.9573
18.219877 -1.8631762 189.16815
18.07249 -2.1584976 189.7591
18.53361 -2.309658 190.33528
18.912313 -2.9320505 199.62988
19.096268 -2.610983 200.23608
19.158422 -2.9571252 201.12708
19.384766 -0.84303665 186.59583
[...]
POINT_DATA 6738
SCALARS features_00 float 1
LOOKUP_TABLE default
0.6510402 0.7396977 0.739511 0.6882894 0.59220713 0.7014939 0.7123705 0.66795015 0.54621613 0.6190601 0.64941347 0.6112461 0.47587848 0.5342291 0.6703838 0.6631013 0.6024872 0.7267065 0.6869365 0.6454738 0.5828768 0.4168194 0.71337193 0.66935706 0.6234759 0.5264018 0.3906512 0.29476097 0.63436955 0.59088945 0.47966418 0.42942333 0.48495632 0.5918095 0.5979827 0.55646944 0.48238158 0.6452154 0.6639892 0.5961407 0.5003669 0.65052944 0.6800917 0.61672056 0.6364019 0.6794467 0.6566516 0.6802216 0.6992323 0.67683 0.6977671 0.68433744 0.70601654 0.6689935 0.5226767 0.71457934 0.65924585 0.57708395 0.44947964 0.5369693 0.609905 0.50781673 0.40814358 0.5128597 0.5285702 0.4450438 0.6029138 0.2888952 0.33993143 0.46366823 0.39622498 0.7624208 0.6888015 0.6341204 0.6012219 0.09780786 0.104125105 0.81725216 0.7879404 0.20301026 0.12331079 0.21050225 0.761794 0.7532529 0.31086826 0.27038208 0.33013588 0.62528586 0.60035515 0.5382619 0.45398253 0.3744186 0.35501844 0.3860437 0.44673747 0.45842484 0.50111175 0.46563804 0.449862 0.39336842 0.3718641 0.4198541 0.4383248 0.40820903 0.3795008 0.36909968 0.3270538 0.30626008 0.29388592 0.44171628 0.47325706 0.4320547 0.38918436 0.3577332 0.48620075 0.52693915 0.41109073 0.52557206 0.44018787 0.5202315 0.5887989 0.44928074 0.3337465 0.55179155 0.6663114 0.5987787 0.3926719 0.76095027 0.78466237 0.81622374 0.8186165 0.8133553 0.83652055 0.62999237 0.7270304 0.40987587 0.5202293 0.65080196 0.73699474 0.74643266 0.5093725 0.5516228 0.6653188 0.70700294 0.72053033 0.6162771 0.6038182 0.54102993 0.67947733 0.66539824 0.6493975 0.6378288 0.6128838 0.67557013 0.66042864 0.40895212 0.5320167 0.6083705 0.4242523 0.6205187 0.6325011 0.6114906 0.41294557 0.42004776 0.50072 0.54898226 0.631539 0.30594307 0.37425837 0.3897453 0.54520994 0.63432884 0.6879594 0.19294077 0.30080324 0.4573092 0.60601646 0.5056463 0.28984246 0.3075366 0.16542912 0.22577143 0.41834754 0.52362907 0.7527567 0.68760663 0.54011285 0.09612852 0.81317747 0.17951429 0.3604749 0.7549279 0.42636195 0.3797124 0.6367756 0.5609397 0.46389234 0.45692214 0.40785813 0.49110767 0.42329252 0.41289765 0.353199 0.4123634 0.4530293 0.464159 0.37207 0.35744923 0.34669632 0.3400247 0.38648868 0.2919134 0.22484283 0.3028522 0.3587784 0.37692404 0.20189677 0.19734013 0.24727935 0.32667297 0.36404026 0.39897817 0.3263707 0.3081 0.2680629 0.38426688 0.39560872 0.30756423 0.40125307 0.32569587 0.34935308 0.37271765 0.2592889 0.31112242 0.3936213 0.22657701 0.63567114 0.6487794 0.330559 0.40414768 0.22806185 0.63773894 0.66179717 0.6743921 0.31898212 0.45788795 0.6668831 0.591955 0.44815928 0.5709708 0.7245455 0.7371481 0.6831651 0.7772304 0.8138412 0.75771534 0.73545647 0.8193829 0.8544409 0.84008193 0.83371913 0.86512864 0.44902757 0.5593192 0.65896356 0.76418394 0.52376133 0.29216284 0.31372824 0.42379886 0.4834754 0.75426054 0.5553833 0.53880066 0.49420214 0.3779586 0.35678968 0.71535146 0.69584084 0.58860654 0.6042403 0.50501406 0.6182368 0.6513901 0.6440119 0.6172559 0.27338594 0.6745777 0.63692856 0.6030501 0.09618963 0.29742712 0.35984337 0.1420207 0.20216304 0.421316 0.55870914 0.7919028 0.8050349 0.44301194 0.5083452 0.60859764 0.6354717 0.75897926 0.79586667 0.8110403 0.7240671 0.1565828 0.70038056 0.7259489 0.7753247 0.7779675 0.697512 0.1284273 0.7059543 0.70301574 0.70363796 0.6292137 0.36473006 0.012532845 0.018823937 0.15516141 0.45333773 0.5624695 0.63362557 0.59859276 0.47942156 0.14873107 0.14186987 0.25029844 0.20857385 0.6588375 0.056938592 0.18746787 0.2172868 0.24629879 0.69992447 0.34395605 0.18417507 0.21845391 0.20293754 0.40285856 0.17446819 0.18028314 0.18585841 0.13480486 0.11657319 0.37775213 0.44955188 0.4426295 0.09699473 0.21874884 0.24230714 0.3004101 0.17740561 0.12253934 0.11326392 0.26066723 0.29869437 0.28676322 0.24110568 0.28102326 0.34474277 0.42658174 0.4371236 0.32854363 0.2844988 0.26894748 0.17276993 0.26295412 0.31163853 0.32463446 0.32449904 0.20745797 0.3089681 0.27640474 0.05847357 0.17158641 0.37069428 0.35071254 0.36830062 0.3825492 0.34415913 0.2849998 0.04112184 0.39138874 0.41164908 0.4731303 0.46594387 0.45452008 0.38436508 0.21801336 0.4203595 0.48283562 0.5242133 0.5449612 0.4818613 0.439319 0.36125094 0.3971522 0.5492109 0.56693923 0.5197889 0.11640468 0.20886607 0.32821858 0.36535072 0.60899353 0.6293684 0.6268391 0.14565985 0.1432782 0.5839224 0.61775124 0.63984597 0.6587978 0.63662255 0.21471809 0.27028406 0.118405856 0.58233076 0.62364805 0.6996294 0.22063118 0.30239597 0.3738491 0.5527526 0.6244442 0.6662046 0.7324846 0.6875276 -0.010345087 0.4786688 0.58167434 0.6531818 0.67631793 0.6191646 0.45276415 0.42543015 0.5752755 0.63740087 0.47943354 0.46002018 0.41674668 0.694594 0.45829976 0.5224866 0.6550648 0.7781115 0.7364452 0.6906909 0.809616 0.8520534 0.8066309 0.6585748 0.4628643 0.4417318 0.51353735 0.6167688 0.76790833 0.80586076 0.52588564 0.5308756 0.5008487 0.39100796 0.75466394 0.72439647 0.50376725 0.53144205 0.5411345 0.69218254 0.50423455 0.54628277 0.62360436 0.4482301 0.60937536 0.12945186 -0.0784366 0.10818148 0.1268676 0.535473 0.5957438 0.36181492 -0.01611751 0.0822832 0.43898734 0.71022093 0.7479762 0.73976666 0.71789354 0.075084 0.3776356 0.48281252 0.5398326 0.712296 0.7646513 0.6714797 0.029700618 0.5767855 0.6782372 0.50879556 0.19744334 -0.083612084 0.6483226 0.60351133 0.4654187 0.20088427 -0.117655635 0.43840188 0.029377595 0.08736125 0.07016833 0.331313 0.10853703 0.1683537 0.46215552 0.46867663 0.12406251 0.21559104 0.20032556 -0.15799193 0.39702696 -0.02132003 0.008878589 0.36319375 0.39884531 0.43525273 0.14808357 0.17213303 -0.09813313 0.25080618 0.30057928 0.34482712 0.3361255 0.27108595 0.2674005 0.15149863 0.16363338 -0.06998408 0.2401047 -0.081545986 0.21971136 0.13301902 0.22228096 0.25293654 0.28434497 0.2710466 0.307086 0.17776309 0.1701645 0.051471934 0.33293015 0.26893187 0.32132146 0.27771512 0.24560663 0.06697467 0.12792952 0.27529588 0.28387398 0.2860845 0.28589657 0.21686159 0.16194409 0.16445091 0.19831659 0.19716772 0.18027511 0.21813506 0.26822412 0.32532442 0.2699394 0.28575835 0.32998157 0.3212433 0.036704414 0.3098784 0.1985944 0.106464244 0.15132792 0.04697883 0.24166942 0.2960437 0.12391308 0.33723113 0.28669176 0.39198023 0.2429168 0.055157326 0.12643178 0.07076219 0.2482923 0.21475959 0.41861135 0.2724802 0.16471426 0.16338113 0.13120838 -0.016695872 0.4121315 0.41097707 0.4745351 0.34073395 0.28133494 0.14061712 0.17780218 0.17662594 0.17105582 0.13875687 0.0049736947 0.39388132 0.485914 0.5329006 0.45183668 0.14549103 0.16956052 -0.01197049 0.33582634 0.36149806 0.49764478 0.5432046 0.48566192 0.5441567 0.59575933 0.5565148 0.23007768 0.18420489 0.11010058 -0.028255627 0.031642854 0.2780899 0.57071936 0.4959861 0.30777025 0.27127272 0.20770732 0.15772162 -0.08945115 0.4565724 0.5108423 0.5057205 0.38757193 0.3346946 0.33396113 0.27144316 0.17920679 0.07714564 0.018548248 0.4167887 0.43208575 0.45907602 0.515411 0.5702619 0.47334176 0.35796997 0.38689288 0.4021171 0.3220684 0.20022838 0.09507062 0.007105518 -0.17806363 0.46182674 0.44803238 0.49817657 0.59982634 0.5378554 0.50529647 0.35579157 0.4164557 0.44813997 0.40416223 0.32037783 0.20172846 -0.085362956 0.06995341 0.53332436 0.548651 0.6075934 0.53097284 0.36252394 0.44211844 0.47851205 0.4042371 0.2569834 0.23956367 0.23988609 0.58171785 0.57697964 0.43852675 0.48349732 0.45686877 0.3910985 0.42551494 0.5807656 0.6647097 0.64743066 0.43906045 0.42056245 0.6031975 0.6826443 0.78581184 0.7166282 0.42183226 0.41671917 0.42335987 0.4267258 0.46103448 0.55707073 0.7763221 0.48293206 0.4775867 0.69753623 0.47284228 0.4903488 0.6387967 0.40564653 0.5591334 0.40155536 0.24288356 0.21984288 0.19818433 -0.34823763 -0.15649661 0.6507888 0.5961493 0.18182074 0.19169588 -0.23821177 -0.20211421 0.017840918 0.2669687 0.62713253 0.65436673 0.6800984 0.6108099 0.25350267 0.15561505 0.15274312 -0.19575457 0.29427344 0.3200113 0.35874325 0.60365975 0.6470204 0.08113672 0.039577983 -0.08779664 0.31298572 0.28186363 0.5033259 0.09155174 0.008513716 0.026079006 -0.004200598 -0.13315767 0.26951832 0.3504855 -0.006384425 0.0010132464 -0.033604037 -0.34989098 0.23916048 0.26978707 0.2611313 0.4297983 0.45772147 0.4776083 0.23360085 0.028911136 -0.113674484 -0.07910302 0.110929646 -0.037055194 0.054360624 0.23458813 0.19140245 0.41563535 0.46845877 0.47557694 0.45273727 0.28494805 0.2611672 0.19289735 0.0057839155 -0.44623527 -0.0076882765 0.050908506 0.10734388 0.12954125 0.10226131 0.14986259 0.3591864 0.37176296 0.37034857 0.3617259 0.3638227 0.16001597 0.14639398 -0.054963067 -0.045060992 0.1024576 0.12888883 0.13109037 0.060210742 0.031378023 0.25469485 0.2290676 0.42907596 0.3945272 0.31100166 -0.0483547 -0.03442611 -0.037490986 -0.040931314 0.050193466 0.118377425 0.114610806 0.1450036 0.15020622 0.016458996 0.035488203 0.22550939 0.1296499 0.44936064 0.41061926 -0.13346913 -0.06457891 -0.037749298 0.035540096 -0.093442276 0.19150218 0.44212198 0.42857784 0.34283835 -0.03915462 0.009018734 -0.070898466 0.15917216 0.2812115 0.37971646 0.29906923 -0.25835258 -0.14143537 -0.15493107 -0.11545373 0.043284528 0.10215348 0.045722235 -0.118005544 0.085218266 0.04895637 0.36352122 0.16742244 0.040449373 0.1276182 0.38358 0.39078856 0.13665824 -0.010770468 0.085657865 0.35853434 0.36406106 0.4289466 0.29172477 0.17951915 0.38145953 0.14301714 0.087312326 0.095117286 0.33508018 0.43164146 0.47000217 0.4317086 0.3059709 0.19919026 0.19234551 0.100771025 -0.09454395 0.32908726 0.4567219 0.26199055 0.15693568 0.22175834 0.2653674 -0.04141625 -0.1382622 0.26124212 0.27651936 0.29311934 -0.079529 0.301518 0.37254417 0.3749373 0.30592468 0.30492938 -0.039336864 -0.13612401 -0.24768482 0.4181059 0.33275527 0.33620846 0.37843132 0.3460771 0.30016193 -0.07243085 -0.14394954 -0.1375296 0.44668752 0.39246827 0.34145236 0.47418886 0.40726945 0.21438198 0.29675853 0.17892861 0.04350498 0.4964925 0.27964264 0.38023937 0.2701509 0.19753814 0.075355254 0.3575003 0.5033404 0.36361948 0.37114644 0.32477772 0.21092191 0.10338143 0.3086798 0.22553807 0.33675224 0.36231416 0.38496798 0.39342406 0.37104774 0.40736082 0.50468326 0.37220544 0.3585559 0.3238374 0.3832838 0.3620172 0.3129789 0.5275221 0.20426574 0.21597701 0.0046165055 0.19887283 0.2084428 0.581439 0.5492132 0.5178443 0.19735034 0.18088052 0.041304003 0.53367496 0.5767982 0.14929098 -0.26550493 -0.3590647 0.24068746 0.14452893 0.52687895 -0.013766944 -0.46094257 -0.4946105 0.1784403 0.1509707 -0.06469364 -0.5341685 -0.46186313 0.11255078 0.26635775 0.24609138 0.17780268 -0.096908525 -0.1981869 0.15491568 0.2595539 0.27935076 0.26550576 0.21610838 0.39968407 0.4108386 0.4194665 0.4226969 0.27312332 0.22699186 -0.05085732 -0.21099485 -0.40419134 0.16378362 0.2370529 0.22282505 0.16542497 0.19641477 0.4173808 0.28960326 0.2898065 -0.006548967 0.13841365 0.17100766 0.3768263 0.3517428 0.021148225 0.114786446 0.070837386 0.0918174 0.42946142 0.43753996 0.14334176 0.4389336 0.4474552 -0.042583562 -0.16053906 0.37347522 0.43854806 0.44368136 0.42380613 -0.12819853 -0.05189112 -0.05753558 -0.07286914 -0.13299991 -0.1650593 0.32042518 0.5458354 0.40090597 -0.2850754 -0.2073439 -0.15459639 -0.12329511 -0.12535484 -0.03971333 -0.018124908 -0.009808514 -0.108339034 -0.10319518 0.19288234 0.50485355 0.5858109 0.2768714 -0.24570397 -0.301807 -0.35001284 -0.19320291 -0.17660822 -0.19566847 -0.011473175 -0.002818402 0.0036650263 -0.021459086 -0.060493607 0.19847581 -0.23625349 -0.06162337 -0.018701546 0.027673788 -0.05773811 -0.011190891 -0.052385785 -0.08720345 0.1926621 0.06866004 -0.2602264 -0.10744262 0.008509763 0.07697318 0.11288853 0.13041215 0.021179318 0.31394958 0.2798011 0.26758504 0.35607168 -0.017921485 0.11980404 0.19094972 0.24727234 0.2415146 0.06625876 0.06640122 0.28946427 0.3470171 0.3317868 0.3011015 -0.0125909 0.0050240383 0.1852482 0.3128622 0.28281322 0.026959345 0.22948854 0.25235438 0.25537038 0.24227935 -0.12756371 0.20633939 0.27935863 0.2503442 0.07325062 0.26966876 0.032642327 0.1429401 0.29737648 0.26490682 0.18024457 0.037745032 0.22312263 0.16786194 0.26379383 0.2661119 0.16341957 0.12006977 0.21973503 0.23902497 0.053854104 0.17704633 0.21803954 0.19454561 0.09755438 0.11381302 0.28878042 0.269959 0.22495095 0.11143781 0.1552652 0.17182289 0.055844165 -0.043402538 -0.048209257 0.22978681 0.263827 0.25835422 0.25067943 0.26144737 0.20314533 0.21562184 0.1815171 0.11866654 0.096603125 0.10695334 -0.04377058 0.24323209 0.23860267 0.20173112 0.21312837 0.23962118 0.2699038 0.21130091 0.15078013 0.18556027 0.25486463 0.3001203 0.28505903 0.19412933 0.31017032 0.6330124 0.60955703 0.58482695 0.5800375 0.5859266 0.5343602 0.52546775 0.50662756 0.48882985 0.5402252 0.41627845 0.4245178 0.53241545 0.52666175 0.2895683 0.32398576 0.32028946 0.27025414 0.32376504 0.41787773 0.26489395 0.2612015 0.2686446 0.27117848 0.18316731 0.3116997 0.3531085 0.23261844 0.21054064 0.36785984 0.34218097 0.23827118 0.13182785 0.23436715 0.20526658 0.06807657 0.10847126 0.13130309 0.20766585 0.11425292 0.11603158 0.43086636 0.38785997 0.02705021 0.42700517 0.41680974 0.38391775 0.3643279 0.012633856 0.29958582 -0.1273635 -0.3391189 0.12442239 0.21017547 0.19951972 0.08485161 0.08219918 0.17091706 0.3453817 0.32351267 0.1413773 0.05330511 0.19142401 0.15994582 0.2808976 0.3281269 0.23327309 0.19465724 0.22320941 0.32004464 0.05998104 0.094558336 0.39273795 0.14472054 0.29802427 0.4206489 0.4098218 0.42562592 0.50761825 0.568491 0.42919993 0.4259283 0.56541693 0.6066963 0.4165503 0.6353989 0.65634185 -0.31952205 -0.31172568 -0.267829 -0.23428136 0.5057156 0.59579366 0.12871066 -0.11267708 -0.0635844 -0.2869205 -0.20872067 0.01093344 0.1793893 -0.14683294 0.04261991 -0.20577192 -0.13364862 -0.22779477 0.12674832 0.21361494 0.14637436 -0.27450407 -0.059680525 0.21908535 0.19350559 -0.2679911 0.18595117 0.19576287 -0.16977984 -0.20990813 -0.4004371 0.023991074 -0.1056896 0.15821163 -0.012162238 0.11759838 0.14345297 0.13149396 0.15293254 -0.014488159 -0.18472196 0.14873394 0.2551659 -0.006014116 0.0031404272 -0.15360056 -0.30747485 -0.07470175 0.30018044 0.053090855 0.112686135 0.12064754 0.05583854 -0.04265724 0.27250966 0.25788802 0.2016677 0.17376912 0.21043041 0.048521936 -0.06399691 0.26331726 0.34186247 0.31152475 0.27913326 0.29487124 0.24852413 0.2373493 0.2086513 0.013198018 0.2686445 0.32318842 0.3029366 0.32103997 0.33978873 0.33473736 0.2654523 0.21353787 0.12374298 0.049330115 0.1495435 0.23567261 0.28630644 0.2701007 0.42545477 0.4075429 0.40350807 0.3274597 0.3300686 0.31961837 0.29755557 0.31788072 0.6333605 0.63080186 0.5917929 0.5066055 0.60863227 0.6390599 0.62766725 0.56677544 0.49399102 0.42322022 0.55511457 0.58148897 0.49147937 0.42774713 0.40981138 0.49608958 0.46440902 0.24312422 0.27370954 0.511469 0.48549995 0.15720657 0.11485247 0.3492382 0.42934865 0.4671895 0.45604372 0.18975571 0.16955268 0.18961352 0.24181108 0.17920129 0.16625872 0.11306153 0.031335346 0.067363486 0.15323777 0.33956227 0.40973765 0.24165878 0.20442937 0.16944487 0.11893099 0.010828536 -0.10392041 -0.013033136 0.28942207 0.26772225 0.021451555 0.10283768 0.1032521 0.25658408 0.07437241 0.15395012 0.18440263 0.13184328 0.09447978 0.2327782 0.1613758 0.048188023 0.039612636 0.31471694 0.35678244 0.34255567 0.29072332 0.28145358 0.20470339 -0.029775606 0.09497282 0.19956206 0.30658984 0.30930644 0.26375258 0.26683137 0.20178485 0.39692628 0.41352066 0.23206106 0.23227467 -0.1072187 0.036577728 0.054644037 0.15871455 0.13340741 0.19029753 0.15706676 0.14041948 0.043899767 0.24416316 0.37625185 0.4151185 0.39482087 0.38623625 0.3507052 0.051877566 -0.00388393 -0.038189683 -0.022568017 0.37618637 0.3765157 0.3623913 0.378775 0.37829837 -0.18239695 0.23541349 0.40378484 -0.042652447 0.09166032 0.18355906 0.18628937 0.28642496 0.38517433 0.3261165 0.5200707 0.5942092 0.3702677 0.32238173 0.64013374 0.70535713 0.6196673 0.6959251 0.2598094 -0.03462785 0.25910765 0.45860547 0.23917133 0.21123928 0.11807961 0.057175405 0.06044847 -0.025852889 0.14720272 0.022007652 -0.035537153 -0.24892548 -0.060422108 -0.4853804 -0.5003279 -0.10961524 -0.2081816 -0.3356089 -0.023479402 0.09944297 -0.26385698 -0.4507193 -0.5734614 0.17161544 0.03738096 -0.31911674 -0.41725016 0.25714993 -0.06388671 -0.060881354 0.016627684 0.36686018 0.11111586 0.26512656 0.15505669 0.19103271 -0.075923026 0.20388675 0.32171494 0.25756717 0.2755917 0.36809364 0.20159179 0.3050859 0.3336148 0.34199062 0.3306399 0.38400874 0.30686325 0.03541607 0.06316977 0.42341623 0.4094832 0.39241564 0.34269643 0.10557 0.09382081 0.08817762 0.07783267 0.21657291 0.27372447 0.33410427 0.3049763 0.296227 0.29762685 0.39859134 0.4654174 0.45072865 0.38708752 0.34778243 0.45510384 0.48289365 0.528569 0.54521286 0.5670969 0.46860325 0.45517343 0.53079724 0.34515893 0.46348417 0.44154024 0.17100364 0.17051949 0.4592793 0.43811485 0.13131653 0.44287628 0.43129933 0.016703308 0.08438937 0.34870818 0.39107165 0.42548338 0.27690518 0.19849387 0.15611497 -0.029401928 -0.08086627 -0.08841157 0.30938333 0.3023721 0.050956476 0.14556253 0.2946286 0.18615226 0.11256825 0.093295105 0.38917375 0.37420553 0.17224099 0.12214235 0.098244734 0.048891153 0.2391625 0.3182361 0.37312192 0.3239839 0.18074344 0.16936843 0.055749062 0.082556345 0.13373908 0.15468042 0.27399185 0.37245196 0.4008332 0.39524394 0.27221158 0.24106236 0.22337657 0.15586977 0.031038044 0.03974712 0.41429192 0.39995217 0.38649973 0.31378496 0.31390667 0.40976563 0.4049699 0.19899116 0.04589352 0.41086283 -0.12662682 0.18577471 0.027193122 0.0053996295 0.27347723 0.1333756 0.42142254 0.081958026 0.45271692 0.55402637 0.6377809 0.6600126 0.27858847 0.69904983 0.6839726 0.70265263 0.2951869 0.030563872 0.40628123 0.49807918 0.2765349 -0.15423116 0.21251696 -0.12717195 -0.111418135 0.07049978 0.06293052 0.24388465 0.2627046 0.06391165 -0.16538802 0.047051515 0.29540998 0.28901213 0.14226452 0.08328363 0.13377523 0.31217492 0.23182341 0.120079145 -0.038826272 -0.08550163 0.19999298 0.22228768 0.18554138 0.42541522 0.47658786 0.53668797 0.53438824 0.55683345 0.52543104 -0.0058483407 0.43212956 0.49007833 0.60493594 0.63501203 0.67379296 0.6440853 0.58725613 0.068770126 0.3473366 0.4271411 0.48194993 0.6844493 0.7073312 0.67244613 0.1428706 -0.05184315 0.20062464 0.24204624 0.25494412 0.42155877 0.46146828 0.25160763 0.2679059 0.2380187 0.29596987 0.3289866 0.3562949 0.38213268 0.2983134 0.40863234 0.42802292 0.41291228 0.14614137 0.20298988 0.26326442 0.25528455 0.28168455 0.34866184 0.4286391 0.42353597 0.43418288 0.40859574 0.35908502 0.26117727 0.17298916 0.21489447 0.26600957 0.31302863 0.32778218 0.33353147 0.39022666 0.35491922 0.3084584 0.26840374 0.3024314 0.16342767 0.35432917 0.08419359 0.11479595 0.052904498 0.089691885 0.17232478 0.06050747 0.08740956 0.051584356 0.08966389 0.37823525 0.0037977807 -0.12400999 -0.007345654 0.37330896 0.3846666 0.32616824 0.2726927 0.19740711 0.15435277 0.010004818 -0.12274422 -0.053767394 -0.19204868 0.32762474 0.3268002 0.10491716 0.30521232 0.037741207 0.3202095 -0.115539044 0.27694544 0.33107817 0.38407242 0.28322697 0.23172116 0.034058593 -0.21148151 -0.054670103 0.16603234 0.19045106 0.041652583 -0.019394793 0.13773414 0.16377157 0.055906527 0.11626144 0.3020244 0.3485964 0.3548447 0.2670889 0.08804366 0.11192837 0.33716702 0.33169854 0.2844585 0.24403211 0.047038287 0.014496729 -0.13986227 0.2962702 0.34362108 0.42438644 0.36218736 0.38267195 0.21626568 0.33763605 0.42700464 0.41407818 0.327768 0.4028281 0.4212658 0.327572 -0.10727674 -0.09843735 0.13400303 -0.2506567 0.3567044 0.5413379 0.5845705 0.65389323 0.6618793 0.62082374 0.6741576 0.25434843 0.22873086 0.47339416 0.26001468 0.04377632 0.20709793 -0.08115849 0.15427808 0.23271012 0.2730846 -0.009590708 0.31353623 0.32450062 0.10748851 0.12486888 0.34793225 0.32677016 0.2590673 -0.27308092 0.25511557 0.3568937 0.20826386 0.21762021 -0.29439428 0.4687584 0.4145605 -0.3643731 -0.2143346 0.5171473 0.5195817 0.60312724 -0.1221518