# vtk DataFile Version 2.0
Really cool data
ASCII
DATASET POLYDATA
POINTS 2432 float
37.192543 5.329903 188.1022
37.105316 5.335126 188.23521
37.10757 5.9857435 187.24875
37.100628 5.6896896 187.69867
36.855003 5.7576675 188.29118
36.88428 5.9035316 188.98534
37.19013 6.4693265 187.07571
36.813698 6.589605 187.66997
36.666054 6.6939774 188.44342
36.97501 6.238905 189.38675
37.27006 6.1257777 189.87888
37.195698 7.0475364 187.05952
36.911926 7.348913 187.75558
36.828 7.4264746 188.46149
36.916775 7.3135386 189.0489
37.22441 7.9050713 187.79523
37.168346 8.014363 188.3406
37.108242 7.914489 188.91017
37.636475 5.16588 187.79361
37.65779 4.9785557 188.4964
37.877083 4.921957 189.4729
38.253483 4.6975036 190.66406
38.182564 5.006588 191.13438
37.73699 5.922985 186.87209
37.33905 5.472895 187.45364
37.614975 5.975389 190.64604
38.013687 5.530227 191.22601
38.32491 5.748448 191.78107
37.963146 6.478638 186.46161
37.602924 6.5559764 186.71767
37.921757 6.4248815 191.36792
37.596256 7.1892643 186.83423
37.36551 7.663284 187.31975
37.813435 7.5160394 190.11992
38.053288 7.009008 190.94884
37.763954 7.7871666 187.13345
37.653934 8.116258 187.69722
37.598495 8.26767 188.46208
37.68908 8.136157 189.10982
38.673332 4.2788625 189.68253
38.82206 4.247487 190.33693
38.86331 5.367839 187.24109
38.437824 5.125605 187.56784
38.487328 4.7049704 188.49072
38.640446 4.5284214 191.43687
38.65166 4.940803 191.9532
39.04155 4.795459 193.0536
38.278233 5.920693 186.70741
38.900276 5.5027046 193.27426
38.401077 6.57234 186.46657
38.352554 6.425872 186.51913
38.486866 6.314865 192.05536
38.839573 6.22099 193.17686
38.294163 7.0122933 186.47136
38.398872 7.2291503 186.64122
38.92903 7.12358 192.70155
39.202137 7.07781 193.17836
38.36769 7.855025 187.07191
38.50874 8.263319 187.70053
38.278507 8.451358 188.47212
38.443745 8.319508 189.25305
38.622368 7.9413896 190.2837
38.368156 8.521229 188.71852
39.34722 4.3571367 188.98537
39.681305 3.9745364 190.90533
39.725338 3.9273171 192.44028
39.247463 5.3146715 187.3141
39.52257 4.476407 193.40295
39.573616 5.0808144 193.96016
39.1199 5.760373 186.91272
39.610924 5.6886315 194.61044
39.768387 5.8754134 195.13126
39.090683 6.647849 186.63725
39.69974 6.364736 194.52461
39.98014 6.215417 195.51218
40.165375 6.254011 195.89401
39.407726 7.35692 186.96385
39.727562 7.1392307 194.10112
40.179558 7.0941343 195.05438
39.25039 7.7592087 187.20255
39.39585 8.080786 187.66101
39.82529 8.468693 188.56859
39.24483 8.401471 189.70613
39.56989 8.251445 190.51077
39.79448 7.720568 192.61629
39.996822 7.703072 193.22487
39.553574 8.57063 188.5766
40.555527 3.241587 191.94159
40.535732 3.2105052 192.92905
39.94685 5.0553794 188.18127
40.493042 4.5957856 194.69592
40.91328 4.7958274 196.0842
40.031296 5.7813025 187.258
40.754257 5.672703 196.62541
41.35839 5.7373776 197.1908
40.838833 6.463644 196.62537
39.801685 7.451069 187.28801
40.523636 7.351478 187.63863
40.36045 7.318683 194.77138
40.60046 7.305985 195.5145
40.74607 6.9823146 196.19781
40.15763 7.9266024 187.89468
40.193653 8.369424 188.55591
40.07927 8.509726 189.11581
40.663837 7.750256 193.77158
40.091595 8.556304 189.32368
41.701393 2.124115 192.71434
41.79201 2.050069 193.16849
41.751278 2.3544881 191.37263
41.608234 2.97128 194.17397
41.860218 3.835085 195.46954
41.87613 3.9661381 196.36989
42.382 3.5427206 197.37373
41.8831 4.768679 197.56044
42.281254 4.492938 198.00285
41.57195 5.9631543 188.9351
41.57578 5.5673604 197.5222
42.27791 5.8552995 198.4272
40.91863 6.3902507 187.68793
41.419632 6.7569213 188.5652
41.53523 6.697834 197.181
41.905888 5.984405 198.07344
40.69526 7.6199155 188.08012
41.4274 7.4587655 189.61818
41.681747 6.799808 197.36942
40.87773 7.98806 188.82802
40.942783 8.053049 189.38084
41.16734 8.085023 191.1504
41.17218 7.906781 192.41153
41.365177 7.8052654 193.42332
43.10181 -0.057367787 191.8812
43.20837 -0.37511656 192.45184
43.207863 0.0057911575 193.266
42.82914 0.83443 191.73848
43.109493 0.74435246 194.08293
42.712036 2.063701 190.09808
42.50966 1.8684005 190.747
43.051113 2.7043622 189.04839
42.848488 2.8996377 197.29042
43.025692 3.0745547 197.77115
42.759933 3.7762609 188.64691
42.454117 3.611697 197.52724
42.95279 3.6894999 198.23326
43.069954 4.570957 198.65027
42.05803 5.539569 189.40056
42.87559 5.825669 198.89494
42.94961 6.402531 199.20265
41.798733 7.431875 189.9696
42.613976 6.873675 190.71765
42.461926 7.144869 198.45993
43.305443 7.5987725 200.1799
42.104324 7.666791 191.69038
42.220844 7.628032 192.50612
42.821255 8.491336 197.66107
42.582302 8.270444 198.23653
42.96437 8.604114 200.19601
42.619415 9.627603 198.76619
42.51021 9.4533205 199.06474
42.94903 9.572011 200.36859
43.260845 9.394406 200.78516
43.16427 10.215848 197.92853
42.88117 10.34126 198.56665
42.882263 10.418625 199.4548
43.075 10.032507 200.31439
43.30635 10.076408 200.69318
43.343548 10.784735 198.06961
43.134235 10.826834 198.55382
42.963882 10.726682 199.25226
43.337643 10.811931 200.03246
43.86456 -0.72703624 191.80327
43.605988 -0.7553384 192.41191
43.796707 -0.7581073 193.131
43.907993 -0.3184385 191.26588
43.575184 -0.37606338 191.48802
43.493134 -0.35011944 193.33789
43.880184 -0.22755748 193.91574
43.55124 0.91978073 190.56015
43.889656 0.41279924 194.2787
44.14059 2.3026896 187.95274
43.9484 2.1794147 188.7609
43.28696 1.3711994 190.4285
44.479984 2.428174 179.61533
44.147026 2.7273703 187.59935
43.320248 2.6898248 197.33482
43.679638 3.056688 198.12456
44.38026 3.2080417 186.22246
43.64177 3.62833 187.65503
43.40401 3.496263 198.42809
43.86083 3.8288949 198.79164
44.20612 4.2931967 186.92508
43.9109 3.9840832 187.43008
43.54526 4.4433613 198.96432
44.300575 5.6160264 188.48349
43.38037 5.710423 199.26584
44.06133 5.976115 190.0478
43.518074 6.4795012 191.2028
43.4293 6.75941 191.50412
43.099365 7.3740172 192.79584
43.325134 8.030661 194.95709
43.665485 8.577496 200.98657
44.06787 9.746395 197.08234
43.69632 9.508186 201.08087
43.848682 10.290545 201.04831
44.01602 11.375498 197.59036
43.56412 11.626665 198.75475
43.474693 11.3420925 199.19669
43.957134 11.356857 200.39455
44.11866 11.021869 200.99445
43.709923 11.793787 198.57971
44.146626 12.134342 199.35732
44.2516 11.6973505 200.42868
44.348797 -0.92073417 191.94421
44.79992 -1.1563737 192.34875
44.65157 -1.0547221 193.53085
45.204132 0.26862755 179.73248
45.17523 0.2795281 180.12361
45.189205 0.31283915 185.5253
44.729183 -0.27538037 191.07959
44.611145 -0.5620831 194.10689
45.02677 0.86533487 178.8041
44.88822 0.6283054 179.52618
44.96763 0.6340401 180.27348
45.198975 0.8377779 184.0333
45.172012 0.55944115 184.59625
44.98295 0.6762413 185.57278
45.15734 0.5882161 185.95876
44.583797 0.6975412 194.85434
45.267464 1.7271925 178.05937
44.850517 1.3376027 178.84029
44.569366 1.5048649 179.63849
44.741528 1.3369212 180.41896
45.06458 1.4143093 180.85834
45.123444 1.1509533 184.24205
44.789883 1.2319952 185.61682
44.628525 2.3258402 187.6283
44.39769 1.7284164 195.33029
45.068336 2.1731381 178.16234
44.739418 2.5106666 178.78197
44.569298 2.551015 179.68939
44.747066 2.3796241 180.40395
45.207603 2.4799414 184.2274
44.87282 2.5580685 184.68845
44.714066 2.0104585 185.30045
44.640213 2.3292751 187.20963
44.429905 2.9872072 198.11642
45.273445 3.4727423 178.11378
44.913353 3.4030194 178.69957
44.656696 3.4701936 179.67699
44.722054 3.511683 180.1924
45.41405 3.698297 183.74568
44.940914 3.0376186 184.67189
44.735607 3.6059837 185.61063
44.249676 3.4540553 198.56274
44.18444 3.6841736 198.74907
45.077114 4.189816 179.09355
45.01216 4.1477504 179.51138
44.936283 4.0079503 180.26498
45.13559 4.1730156 184.89084
44.737663 4.143672 186.04924
44.395607 4.5216374 186.84076
44.21202 4.302237 199.0882
45.115814 6.675471 189.02824
44.853004 6.657109 189.47098
44.45914 6.984162 192.34914
44.070168 7.3261123 193.68724
45.10983 7.9795775 192.65369
45.066593 7.70691 193.10168
44.297897 9.69759 201.43677
44.733368 9.819359 201.59415
44.54225 10.591214 201.42075
44.900986 10.58516 201.64891
44.703053 11.634102 197.17598
44.67455 11.473256 201.05911
45.063686 10.957437 201.60541
44.96263 11.984747 197.26585
44.705173 12.293049 197.71571
44.419415 12.491367 198.40259
44.76249 12.16621 200.26146
45.00892 11.81604 200.95457
44.828312 12.658416 198.06021
44.83867 12.820719 198.65585
44.936134 12.774591 199.3396
44.90866 12.628961 199.8515
45.067623 -1.0942192 192.08067
45.57079 -1.1724899 192.80322
46.255615 -1.0147142 194.7068
46.31423 -0.9559566 195.09842
45.614025 0.16067234 178.96559
45.795677 -0.007116437 179.1897
45.57001 0.14439914 180.22673
45.80067 0.21407507 184.1648
45.772022 -0.019681454 184.71832
45.37712 0.1939845 185.4564
46.211704 -0.37418923 194.9606
45.779995 0.8388344 178.05632
45.538 0.40036047 178.53455
45.65187 0.64451706 181.00845
46.136772 0.5383015 183.29254
45.72492 0.87636894 183.52266
45.409462 0.45996356 186.10097
45.41561 1.1525888 189.91998
45.86374 2.0015643 177.28598
45.57142 1.5985473 177.81322
45.648224 1.219162 181.2199
45.24367 2.2211115 195.8879
45.966156 2.6192396 177.17572
45.36786 2.3997796 181.0237
46.045547 2.8275318 183.11339
45.64091 2.7816465 183.33809
45.517593 2.6394076 196.90678
45.026363 3.188578 198.06241
46.08467 3.4549565 177.03503
45.56534 3.2465258 177.57489
45.994247 3.886738 182.37526
45.169132 3.640032 198.3392
44.991432 4.1518893 198.79115
45.94003 4.2539616 177.71663
45.61219 4.463218 178.71568
45.29688 4.4545317 179.898
45.340122 4.406684 180.24675
46.15351 4.6299486 182.12662
45.94859 4.64953 182.82988
45.547592 4.4927864 184.38275
45.096184 4.5765715 198.85661
46.120495 4.8945165 178.72679
45.490585 4.6045375 179.87637
45.915073 5.1411486 183.53493
45.805145 4.977519 186.07733
45.399696 4.981409 186.21964
45.828083 5.605023 199.09544
45.353928 6.208011 199.99664
45.75276 6.5922365 200.55318
45.95534 6.6398983 200.86919
45.67528 6.733382 188.5265
46.025932 7.0198116 189.98004
45.9671 7.2057004 190.27922
45.68541 7.3163266 191.46184
45.735237 7.628104 201.35307
45.67747 8.40577 192.40018
45.424274 8.659395 193.37376
46.060925 8.802149 191.98242
[...]
POINT_DATA 2432
SCALARS features_00 float 1
LOOKUP_TABLE default
0.77706933 0.7717484 0.8572267 0.830654 0.81553257 0.7781426 0.8845249 0.90784615 0.90910625 0.7542045 0.6357003 0.9057493 0.9271981 0.90051776 0.8424294 0.90339386 0.8666535 0.8148352 0.7552781 0.69177955 0.5964775 0.43175486 0.41437536 0.84055394 0.8113261 0.49238837 0.4195698 0.3895343 0.8638133 0.8758513 0.42303652 0.89426327 0.9166801 0.6758374 0.50113755 0.90013385 0.8825085 0.82257116 0.74754155 0.4979028 0.40381527 0.76494163 0.73984534 0.6500343 0.3630246 0.3683021 0.34881973 0.8268453 0.38606173 0.85975134 0.85465133 0.39199397 0.41981223 0.8702363 0.87141514 0.45292252 0.45852393 0.87191355 0.8184383 0.7600392 0.67080396 0.61499995 0.7234582 0.5674702 0.28371665 0.24961886 0.74449265 0.31868312 0.36525214 0.7965324 0.4038552 0.40877548 0.8492448 0.42373955 0.40913698 0.39292383 0.8054644 0.44247663 0.4154917 0.77973604 0.70444536 0.61572766 0.5929152 0.51736575 0.44208038 0.45302057 0.63804007 0.14570424 0.181459 0.6558382 0.30817947 0.34130242 0.79840654 0.32579365 0.27911058 0.3273949 0.7097423 0.5919634 0.41554075 0.3860342 0.36076576 0.6040226 0.5805822 0.5646893 0.43516225 0.55095154 0.21288732 0.20876046 0.22331688 0.15735283 0.25477487 0.33988935 0.40479183 0.33691245 0.38009858 0.36866075 0.27413943 0.26867214 0.622965 0.4510514 0.23236644 0.2517632 0.54592335 0.41559684 0.207093 0.5068484 0.47975135 0.30889463 0.30090994 0.33672428 0.49314445 0.5352167 0.47050726 0.35877195 0.34523296 0.11560655 0.1915181 0.098861344 0.40514955 0.44709685 0.16785724 0.41493803 0.45046207 0.42188054 0.22368293 0.28576303 0.24771377 0.33487773 0.054988086 0.21954706 0.33328986 0.12969491 0.13070491 0.36982295 0.37555873 0.48951042 0.45809224 0.4756934 0.5271338 0.507998 0.45719844 0.482638 0.5322561 0.54495704 0.53521764 0.49835467 0.51185167 0.53061926 0.5741335 0.51214635 0.53691757 0.5116672 0.45763054 0.48604083 0.4809581 0.39101404 0.2892438 0.30903512 0.19485706 0.13032193 0.20375234 0.6759044 0.23127338 0.42379034 0.4589879 0.252862 0.26464728 0.46183467 0.45144665 0.27138385 0.28411415 0.44147038 0.19598356 0.31009972 -0.12005375 -0.21401298 -0.13963032 -0.07614782 -0.2281664 0.45621663 0.42984992 0.5000584 0.5307579 0.5967609 0.5955775 0.5753297 0.59798646 0.55810297 0.62692237 0.71097434 0.623054 0.4988169 0.47409996 0.45527917 0.6200024 0.60114694 0.4419272 0.379361 0.33979443 0.65605927 0.6680274 0.6319908 0.43332845 0.44522417 0.4357258 0.40345716 0.12982371 0.6188773 0.67867637 0.71615267 0.67701995 0.64600897 0.44436443 0.39248118 0.19721395 0.15580174 0.6320088 0.65964854 0.6648171 0.65264 0.3191834 0.30114743 0.35309294 0.21166065 0.4348026 0.60645247 0.60050523 0.5710595 0.5272897 0.2293208 0.24731055 0.21247041 0.44059294 0.44007537 0.49966824 0.4857192 0.43162328 0.19262092 0.2285948 0.26055855 0.41555473 0.12150514 0.05462995 -0.27045858 -0.31822017 -0.021595422 -0.06776035 0.5075431 0.51846904 0.5499857 0.5581303 0.6259611 0.59484816 0.5750602 0.6846123 0.7288354 0.76216406 0.6805515 0.62732804 0.77680075 0.8101901 0.7937273 0.7430142 0.42202926 0.34679335 0.4732371 0.52736604 0.6047033 0.57648456 0.5481676 0.38346484 0.39612842 0.427624 0.40744662 0.5937655 0.615701 0.48687097 0.26779175 0.39036956 0.3598335 0.042927884 0.5758538 0.5964997 0.5112809 0.24693732 0.574355 0.5582715 0.28329033 0.29024836 0.32345164 0.3901884 0.5604406 0.6000004 0.16237834 0.3676213 0.3586644 0.5553494 0.47778958 0.391139 0.34117252 0.16148026 0.2112007 0.1891022 0.3198125 0.4132427 0.36002967 0.22208436 0.17657183 0.2022872 0.10516997 0.17090836 0.2778365 0.31347135 0.1695649 0.06857254 0.020490672 -0.07735655 0.35090652 0.12055348 0.14488366 0.2552553 0.2777847 0.25841808 0.5173199 0.3560872 0.5552539 0.6063224 0.60617006 0.5821557 0.74497855 0.6889467 0.62861806 0.79510945 0.8131753 0.78992283 0.7338836 0.7660253 0.7591723 0.7043607 0.63398427 0.76852465 0.7662398 0.7172832 0.610414 0.7290341 0.7137029 0.6705445 0.5627358 0.5608283 0.5372944 0.6226697 0.09823681 0.026930764 0.2893491 0.3464957 0.63215065 0.55849916 0.5420768 0.46802467 0.28858915 0.058045156 -0.05687888 0.60971165 0.5153615 -0.26308355 -0.18300298 0.52034724 0.3181206 -0.3124651 0.49545056 0.5132494 0.29390824 0.49454743 0.5299682 0.21969411 0.5294032 0.49605012 0.49522418 0.33832073 0.29706004 0.09578286 0.18604314 0.18746606 0.20846298 0.18691438 0.19169945 0.35442024 0.18526265 0.17854923 0.1626819 0.36572558 0.3433694 0.34804714 0.4229049 0.39755934 0.4683453 0.42460746 0.37912744 0.5427814 0.6077351 0.59479535 0.57436395 0.7493371 0.76243263 0.7262397 0.68638825 0.631052 0.79993844 0.78986955 0.7509728 0.721548 0.70425105 0.7288159 0.6800994 0.7360071 0.73943865 0.6826533 0.6292584 0.6952454 0.5711949 0.5098742 0.60379624 0.52594054 0.35123876 0.36681777 0.517192 0.1177968 0.1806461 0.46854287 0.46135956 0.27964455 0.32013068 0.36861742 0.62157893 0.63293374 0.12410306 0.10868007 0.14423501 0.35291213 0.47217625 0.47694534 0.16681804 0.6222305 -0.18649873 0.6065134 0.57292634 0.39454675 -0.4317782 -0.5151341 0.43040994 0.45825487 0.28560692 0.45094973 0.40189636 0.4596904 0.46448398 0.50049317 0.47208336 0.2632901 0.39414397 0.44045323 0.16745473 0.07081286 0.07904203 0.12796311 0.19999191 0.19462028 0.10103987 0.36514413 0.4490053 0.17809182 0.15534352 0.15087521 0.3877955 0.37391174 0.37071759 0.43798923 0.4682865 0.4281709 0.22601809 0.5714167 0.70401216 0.68888414 0.6528114 0.6519672 0.6432051 0.5998689 0.61058736 0.5798074 0.61115485 0.5538759 0.48799178 0.42059487 0.42407978 0.3826177 0.3410487 0.34526 0.48126227 0.0729727 0.060441706 0.6021388 0.6164025 0.07541276 0.59019154 0.18532193 -0.050151467 0.49902862 0.53553647 0.27641797 -0.43036994 0.42994082 0.2366435 0.33982652 0.1250318 0.38009256 -0.30195674 0.4094106 -0.092221886 0.26987445 0.43053174 0.49852037 0.18776348 0.51820433 0.09237914 0.10801234 0.08751905 0.04504931 0.11131659 0.18108286 0.17812344 -0.016140262 0.5049909 0.10997296 0.11028587 0.113651946 -0.056434453 0.4746955 0.35068953 0.4003155 0.46410838 0.42979613 0.3243554 0.26211205 0.29050317 0.39256668 0.5389914 0.44358376 0.42901838 0.3847255 0.32499516 0.4396486 0.4396469 0.4269397 0.42248228 0.32890373 0.13916308 0.15501712 0.2882272 0.2516436 0.51921606 0.4087848 -0.11456372 0.21885222 0.1717161 0.450572 0.37022042 0.40561837 0.35320327 0.2999786 0.22243881 0.10171982 0.055971887 0.061658747 0.56297886 0.057313606 0.50529563 0.270643 0.46425435 0.32902443 0.16789412 0.16685645 0.16578281 -0.10726922 0.3801998 0.21262266 0.46954268 0.5067626 0.40924034 0.5451039 0.5432718 0.44645882 0.46106863 0.4348855 0.12944347 -0.025143702 -0.17434172 0.54235804 0.5383297 0.23684295 0.14701599 0.111047894 0.069059774 0.17551333 0.12219098 0.5192163 0.5335079 0.5102708 0.41951877 0.2604562 0.48275483 0.3349801 0.3805595 0.39571804 0.39927188 0.29693374 0.29457116 0.27003115 0.31939328 0.43092003 0.41059202 0.37645885 0.24927747 0.19860248 0.00972867 0.030692674 0.5638771 0.45608506 0.45255214 0.28933287 0.42341858 0.51655835 0.60056937 0.586257 0.59740496 0.4258898 0.41467407 0.36802086 0.5635244 0.35462058 0.31001386 0.28641164 -0.018013641 0.09464856 0.2007707 0.1185305 -0.109116524 0.09469538 0.14545849 -0.00072577596 0.29697263 0.38542956 0.44753796 0.5194818 0.42568815 0.41310048 0.5124346 0.55320156 0.47834265 0.10241786 -0.2632234 0.5618862 0.5624822 0.54528713 -0.059928507 0.07422285 -0.20412618 -0.12342778 -0.06000864 0.08949739 0.12840831 0.5305762 0.5358056 0.5347183 0.52570456 0.42099142 0.19290724 -0.022558726 0.24485931 0.18090439 0.20406064 0.028258413 0.49053392 0.50558984 0.5024818 0.46781182 0.37873775 0.26294672 0.34944677 0.41463718 0.5151881 0.5140345 0.5692625 0.59693336 0.60818815 0.55870384 0.4681065 0.60936385 0.6461663 0.6429188 0.57398283 0.4136406 0.376908 0.35026 0.2534211 0.050461385 0.02392568 -0.056841407 -0.078372814 0.016413376 0.48636323 0.42499182 0.5633651 0.6450533 0.53068155 0.52217424 0.45996854 0.5259612 0.6510185 0.6570458 0.615589 0.47235817 0.44117773 -0.22264937 0.2052929 0.38906348 0.5871498 0.40029848 0.3472519 0.43999743 0.2986179 0.23141459 0.041724786 0.06519619 -0.017740436 -0.05550708 0.047694772 0.043451898 -0.12844485 -0.22163808 -0.21671948 -0.28773487 0.07370981 0.41769475 0.2538512 0.4455679 0.5418064 0.46827453 0.54377306 0.54021275 0.4781462 0.5210497 -0.16204575 0.5264314 0.5238255 0.515089 0.066696376 -0.051056564 -0.15935467 -0.07753195 -0.053705603 -0.063236356 0.09439322 0.1827946 0.32561892 0.47131103 0.5032123 0.48854202 0.2487568 0.24415985 0.2725681 0.3166191 0.29629397 0.23448263 0.32771462 0.30739146 0.43143034 0.5746067 0.4515143 0.4355678 0.6253272 0.66143525 0.6592785 0.59078896 0.521767 0.67369235 0.69405925 0.68753844 0.6421418 0.77942574 0.3808158 0.10445768 0.06396153 -0.017193716 -0.044882298 -0.048596308 0.31033888 0.32153305 0.5562324 0.5216685 0.22623283 -0.033547625 0.2933111 0.5607109 0.6152613 0.638102 0.6108812 -0.13987006 0.5432732 0.39348117 0.42430586 0.324019 0.32420745 0.18415225 0.2386871 0.18899283 0.085474804 0.038127255 -0.0046790466 -0.005824823 -0.06329392 -0.10559318 -0.24043927 -0.16734694 0.052115567 0.0056867227 0.23615971 0.37100458 0.35674304 0.40622932 0.45550853 0.09281775 0.51523614 0.4351084 -0.031788237 0.022462092 0.12177348 0.11905107 0.37357506 -0.0023054034 0.08588954 0.03586708 0.052732214 0.37204033 0.36661088 0.3095609 0.19340503 0.37298375 0.40128657 0.3753334 0.3724882 0.36228406 0.5649082 0.62674296 0.51078165 0.46342605 0.645993 0.6839872 0.6592387 0.60505235 0.54406536 0.66479135 0.644324 0.77595913 0.74421024 0.75636554 0.7811626 0.7720011 0.692546 0.2973441 0.33033532 0.7134629 0.7720242 0.78267777 0.70655596 0.012235865 0.17089131 0.27863082 0.33145425 0.39603186 0.4071292 0.39925987 0.6986777 0.74739355 0.7669594 0.23904577 0.22527882 0.074962705 0.013237165 0.35141772 0.3569935 0.33783126 0.46673697 0.22973213 0.45444286 -0.0194761 0.23802188 0.29486933 0.6043776 0.58499557 0.44305232 0.5254723 0.50810397 0.4380085 0.3429237 0.30530414 0.18920067 0.18940252 0.17113666 0.13443497 0.15004851 0.0091831805 0.0073681325 -0.068817556 -0.047830038 -0.055911325 0.5598515 0.1638185 0.61149085 0.5710639 0.60398775 0.18310288 0.16846015 0.20312041 0.33688885 0.1692064 0.21360706 0.1326361 0.06704764 0.3269739 0.3922098 0.37849158 0.45321256 0.3270592 0.3528278 0.5630634 0.41979712 0.61705184 0.61450064 0.5474457 0.54157877 0.5054933 0.6336601 0.5893882 0.57715064 0.44235694 0.6841656 0.7479073 0.7358645 0.42232376 0.38517055 0.6042968 0.67827046 0.57179976 0.23040032 0.32165325 0.42545092 0.42417514 0.5950567 0.6560132 -0.05169484 -0.13579202 0.18994588 0.4076165 0.59260046 0.6159481 -0.023034176 0.3586581 0.34721702 0.4720838 -0.047140185 0.27256864 0.4167109 0.3350183 0.38802266 0.2844601 0.30334997 0.23464471 0.19644095 0.15949392 0.12609589 0.06274896 0.01407133 -0.09640898 0.003741309 -0.13618444 0.56740236 0.6439965 0.66526496 0.668448 0.6603081 0.61809087 -0.009302005 0.32769996 0.4503633 0.1839799 0.22025576 -0.0109307915 0.13994671 0.32986447 0.30245173 0.68216467 0.07543832 0.06204079 0.078885056 0.23319599 0.3010237 0.35054752 0.3427685 0.28334877 0.53862935 0.5214768 0.48014194 0.53369474 0.5064807 0.49256504 0.47146237 0.4656051 0.5015199 0.5273044 0.39709914 0.40534112 0.38947427 0.47974867 0.47420526 0.47155592 0.48162007 0.5072777 0.56170785 0.35843998 0.4580331 0.46392912 0.45232007 0.4121716 0.51361585 0.5663565 0.5655652 0.56623346 0.44552928 0.2793784 0.39164755 0.40257078 0.35401657 0.5751982 -0.0012601689 0.24494949 0.22032052 0.23435749 0.32439303 0.5621376 0.07928775 -0.25074637 -0.08740321 0.08983284 0.38386747 0.5410534 0.52636766 -0.010006513 -0.43605295 -0.2910513 0.27939647 0.5160021 0.29321665 0.2020622 0.18616709 0.34163663 -0.2488666 0.07350192 0.31440753 0.22223952 0.2339058 0.2660882 0.12286112 0.21503316 0.15223628 0.15911862 -0.056627765 0.09990773 -0.10213154 -0.09824009 0.088922895 0.1652059 0.63915926 0.64891267 0.64665264 0.6784777 -0.061633512 0.6782558 -0.014803991 0.5566876 0.6224183 0.5566555 0.48217362 0.65004253 0.5927633 0.6838582 0.6635044 0.29312024 0.25192675 0.6957408 0.68780607 0.6315235 0.14705403 0.08574037 0.18516496 0.25976667 0.3131029 0.68158925 0.6727364 0.32809168 0.33173501 0.2090149 0.222407 0.3189397 0.40464652 0.5388539 0.37924883 0.33389854 0.43441114 0.492186 0.53284097 0.3376642 0.3620746 0.3570633 0.32324463 0.38599306 0.3968663 0.39182657 0.35313642 0.32224864 0.4694451 0.517119 0.59390247 0.64327276 0.6603268 0.37681434 0.4066164 0.35587388 0.24818254 0.47467524 0.46405637 0.5514413 0.59121066 0.63433695 0.64857864 0.48795938 0.3356822 0.28519845 0.58514285 0.6146199 0.546337 0.505332 0.046902176 0.2615401 0.5319944 -0.10331097 -0.27795702 -0.30440402 0.08734391 0.13745134 0.16184069 0.5248058 -0.3889249 0.26067626 0.4486936 -0.36027756 0.27652198 0.12752733 -0.054808795 6.876141e-05 0.0090273395 -0.22119951 0.18524548 -0.068058535 0.03736864 0.023725446 0.122905925 0.036774956 -0.14821358 -0.042991474 0.249733 0.53560996 0.5973944 0.49560696 0.5737531 0.26262727 0.4267133 0.50535804 1.0 1.0 0.44780818 0.22931522 0.27177572 0.37853625 0.45246136 1.0 1.0 0.26583 0.25597033 0.9514089 0.15125301 0.23593752 0.29530063 0.277184 0.6473788 0.6710413 0.25332725 0.18222588 0.66537964 0.63072777 0.53456277 0.021650888 0.5639626 0.5022578 0.33548963 0.013259888 0.22627687 0.36205673 0.4363219 0.4892912 0.4862169 0.43961644 0.4751851 0.50306153 0.22606397 0.26313454 0.3500886 0.25626045 0.28394854 0.31601956 0.49372858 0.49207062 0.16072842 0.14115801 0.29226065 0.36074245 0.44286856 0.508065 0.60589117 0.7098181 0.68380594 0.6620072 0.11018479 0.6651808 0.63770056 -0.0661736 -0.37869745 0.4648883 0.01857911 0.27308917 0.53987944 0.28911155 0.50760055 0.5768736 0.20557395 0.4959423 0.21875846 0.19810683 -0.1256493 0.59253955 0.45863843 0.36263365 0.26162001 0.116953924 0.40278214 0.3230272 0.027117455 0.08389185 0.15241298 0.1481343 -0.08719236 0.08998197 0.06461289 0.13328038 0.044351105 0.24058227 1.0 1.0 0.37050417 0.37689126 1.0 1.0 1.0 0.81405497 0.534736 0.34290472 1.0 1.0 0.36001465 0.35052687 0.33142933 0.9686743 0.82794917 0.19670114 0.29159078 0.3202962 0.30824453 0.57968974 0.15017456 0.18631744 0.6292969 0.60528195 0.21801361 0.0827893 0.026920892 0.03956695 0.2587447 0.25767818 0.19249657 0.29861403 0.5700188 0.5033823 0.41640854 0.2731944 0.13771024 0.3537765 0.39106753 0.41989583 0.20149237 0.21765861 0.20387778 0.5559348 0.51909727 0.4085359 0.16284871 0.21409798 0.20351848 0.13496543 0.14927833 0.55533457 0.56440806 0.49721587 0.3527844 0.079362795 0.15774864 0.10138771 0.52344906 0.49202424 0.5522114 -0.007336378 0.11894043 0.3338271 0.4897285 0.597011 0.67661715 0.65480983 0.6604115 0.6280689 0.62854964 0.3101995 0.17806679 0.57446426 -0.098033026 0.09320055 0.39427075 0.5789305 0.61762595 0.60784394 0.58298105 0.50122225 0.5295779 0.5480089 -0.08770776 0.6384363 0.038670164 0.24644849 0.6594517 0.6398059 0.39834404 0.6957817 0.6707462 0.56577325 0.47392976 0.40298337 0.41549167 0.67304397 0.62024164 0.4843439 0.29387492 -0.04524062 0.027363766 0.44588935 0.19694208 0.2347663 0.29242343 -0.212015 -0.14628348 0.046777077 -0.12127213 -0.0152126625 0.014646523 0.12716386 0.0152914375 0.26595256 0.20491512 0.21028443 0.33100826 0.29513556 0.30574474 0.38362885 0.34095263 1.0 1.0 0.58735764 0.47124666 0.44152045 0.4101016 0.37195206 1.0 1.0 0.19528472 0.23857012 0.3722036 0.4139548 0.40663654 0.9364233 -0.07960984 0.06770241 0.08465716 0.32804126 0.5995161 0.6592053 0.21112528 0.053635783 -0.04990241 -0.038787678 0.10308603 0.14770198 0.6574053 0.71292806 0.35629135 0.21263455 0.1102294 0.6060351 0.5839603 0.47703236 0.6382652 0.31349942 0.3868719 0.3782787 0.5818942 0.25432286 0.25378412 0.35975832 0.56063795 0.4195241 0.41072953 0.17056099 0.17714922 0.2096355 0.32091644 0.5528663 0.52363217 0.291831 0.5408789 0.44089454 0.4458507 0.49230763 0.5126778 0.63153803 0.63232565 0.3132936 0.579268 0.56890696 0.203999 0.48755455 0.31678867 0.11825105 0.49007872 0.5829299 0.5938192 0.15198398 0.5901725 0.5745417 -0.13741848 0.52843666 0.4860509 0.34456706 0.036543615 0.6284201 0.34915727 0.69028056 0.38857687 0.4378358 0.7156789 0.46426952 0.71885973 0.70235586 0.66555446 0.54975235 0.46856403 -0.013493635 0.47341543 0.008525573 0.028101943 0.09809773 0.40912613 0.37333396 0.36552122 0.04026998 0.04019703 0.041921742 0.13180193 0.27931482 0.3063946 0.32138237 0.22971563 0.1816163 0.06492244 0.37339067 0.3931863 0.5093831 0.35205933 0.19073501 0.30054268 0.38234442 0.41786498 0.4109892 0.72308266 0.57299113 0.12741497 0.12666766 0.20610324 0.25255835 0.37972918 0.79894334 0.48466772 0.16054612 0.09513666 0.09182491 0.043935433 0.015545884 0.029130956 0.21537048 0.83689165 0.18499327 0.023305453 0.81281614 0.7964984 0.79132295 0.66704226 0.70804983 0.7158845 0.5362663 0.45272335 0.56024235 0.71170926 0.73966026 0.765097 0.28919438 0.3158542 0.37078804 0.67125344 0.70572853 0.29392263 0.31023443 0.23846301 0.68372047 0.32177466 0.37307495 0.29769996 0.4870259 0.44419003 0.4100718 0.35343218 0.35434675 0.3688938 0.39183345 0.37370098 0.45516324 0.1896651 0.067575276 0.23948345 0.39618143 0.2140739 0.49024835 0.44256943 0.37119734 0.45279062 0.50301015 0.5147671 0.47173792 0.41927403 0.4487206 0.5404478 0.5310524 0.48736167 0.39771158 0.22341093 0.45154095 0.42424908 0.7110011 0.4710703 0.72577715 0.49007392 0.7192143 0.6919817 0.65943134 0.5835404 0.30597186 0.49328667 -0.021365702 0.13448669 0.47115898 0.25209704 0.27286047 0.33246857 -0.0027478002 0.1564533 0.14571598 0.07035943 0.044592574 0.19585548 0.2844243 0.056247324 0.23151232 0.22805892 0.2506817 0.7302674 0.5555515 0.14511374 0.09431965 0.0859121 0.24579954 0.27545777 0.24113332 0.22521524 0.84647274 0.82911175 0.75715053 0.5259949 0.060163364 0.09203698 0.095140755 0.061389215 0.8699338 0.8945619 0.8826628 0.9185425 0.90720165 0.84306717 0.69985557 0.73494446 0.7781142 0.430248 0.5832918 0.6450181 0.7795738 0.79344684 0.76742166 0.30222467 0.31613678 0.7217604 0.29431993 0.6418872 0.31789896 0.21642247 -0.02531454 0.31977102 0.017006092 0.088582575 0.25090048 0.3523537 0.18059345 0.23622389 0.45798963 0.20006378 0.52409524 0.1261768 0.12525173 0.22743264 0.5498323 0.256481 0.30715007 0.5531419 0.27077895 0.5513594 0.24789222 0.52559817 0.4381643 0.35255733 0.43949223 0.48004353 0.4949314 0.6568644 0.5430033 0.51341295 0.64461064 0.5545434 0.4029085 0.3310957 0.5529579 0.51006687 -0.056521326 0.56581956 0.23397514 0.13774109 0.14939262 0.39018098 0.4858617 0.528144 0.28665975 0.33008832 0.20351525 0.16296086 0.08764599 0.09808996 0.19374904 0.1843272 0.074890554 0.24010585 0.22688544 0.15647483 0.15789802 0.2318496 0.22970466 0.08285765 0.08782984 0.8468656 0.8347853 0.10703801 0.11982518 0.89534307 0.90091217 0.8713337 0.7225322 0.75633764 0.7800343 0.6057357 0.70399624 0.8093084 0.83509225 0.3763409 0.3805706 0.50080067 0.8136052 0.31616908 0.35310265 0.77021587 0.26313826 0.29672462 0.6813454 0.46788955 0.2853116 0.33666208 0.4043381 0.28906953 0.23257291 0.36538655 0.35060692 0.21641335 0.40296608 0.21715356 0.17894427 0.4519485 0.2919972 0.2518367 0.22841328 0.5429398 0.2975779 0.19593741 0.15550882 0.546749 0.121224254 0.09958096 0.20081268 0.2935233 0.30320495 0.55806184 0.14552963 0.31744444 0.30195096 0.5318647 0.3082003 0.31299803 0.33443528 0.36912012 0.15871094 0.40917563 0.3622651 0.4847858 0.4882218 0.37293327 0.27215183 0.54714155 0.40963602 0.36365187 0.23622863 -0.08737124 -0.08177431 -0.48522824 -0.07705083 -0.08832219 -0.2853734 0.5572602 0.014113814 0.37823197 0.4216891 0.4944911 0.51805943 -0.06800497 0.25554758 -0.03160026 0.29733664 0.12200695 0.30026197 0.18069775 0.05218342 0.15818967 0.13499197 0.09996547 0.7275498 0.795351 0.8294157 0.38452977 0.39628875 0.4602127 0.6542866 0.8236275 0.8157891 0.28559124 0.38470525 0.74822956 0.30866924 0.29639253 0.5570179 0.43361145 0.4554445 0.3590613 0.3506079 0.29203686 0.36997786 0.3887061 -0.15059079 0.3156629 0.37848195 0.3964934 -0.18375246 0.20640168 0.395