# vtk DataFile Version 2.0
Really cool data
ASCII
DATASET POLYDATA
POINTS 12281 float
-67.80162 53.030506 140.75633
-67.91821 52.876484 141.58842
-67.77296 52.791553 142.12856
-67.78809 53.76962 139.95718
-68.10227 53.713745 140.65504
-68.2295 53.602615 141.44829
-68.022934 53.640274 142.28647
-67.76747 54.80109 139.18268
-68.07799 54.634678 139.77696
-68.20513 54.61744 140.45764
-68.21761 54.406666 141.5572
-68.137024 54.218456 142.07796
-67.75785 55.336346 139.14334
-67.995056 55.37461 139.61217
-68.09167 55.31774 140.43872
-67.95285 55.2338 141.20567
-67.93031 54.98966 141.96967
-67.8264 55.81571 139.61296
-67.82365 55.883545 140.2411
-66.95683 52.057434 140.85303
-67.04161 51.764637 141.69424
-66.766624 51.534 142.19531
-66.9253 52.98708 139.86581
-67.4976 52.617283 140.84886
-67.42968 52.387352 141.49922
-67.17005 52.29093 142.76726
-66.98777 52.471382 143.27423
-66.81913 52.94564 147.48102
-66.67888 52.87937 148.40135
-67.25461 54.179176 139.05536
-67.66097 53.676006 139.7782
-66.55138 53.681927 144.6046
-67.202034 53.697987 146.53416
-67.071335 53.42295 147.4347
-66.96839 53.682766 148.53316
-66.75471 53.44281 148.96396
-67.45505 54.719696 138.97519
-67.26571 54.52973 143.10902
-67.36351 54.422836 146.29877
-67.36168 54.31017 147.49947
-67.183754 54.618214 148.1375
-66.60655 54.260468 149.37231
-67.36764 55.392567 138.9294
-67.603516 55.51086 141.65598
-67.39318 55.37644 142.35527
-67.23897 54.866955 143.0083
-66.73426 55.573948 145.25832
-66.998825 55.373566 145.77504
-67.2992 55.44424 146.58636
-67.32048 55.36409 147.34454
-67.07048 55.28529 148.54121
-66.92459 55.45931 148.83354
-67.38185 55.797844 139.10103
-67.36521 56.09321 139.62988
-67.42322 56.13208 140.2135
-66.9815 56.0348 141.32152
-66.79633 56.73762 145.76527
-67.20134 56.32541 146.63773
-67.01339 56.821465 147.35197
-66.902596 56.443794 148.3747
-66.66892 56.17958 149.06451
-66.835 57.421993 147.48332
-66.75366 57.132744 148.21838
-66.628494 58.296307 146.91061
-66.60004 58.380768 147.30081
-66.04894 51.164967 140.91449
-66.11738 51.0349 141.67294
-66.2884 51.03252 142.15645
-65.839615 51.100212 143.5711
-65.577805 51.12029 144.8599
-65.990555 51.65409 140.1338
-66.513245 51.708763 140.68843
-66.17915 51.443943 143.70972
-66.061134 51.808376 144.39894
-66.19403 52.30163 147.62498
-66.03528 52.26409 148.33377
-66.38879 52.629795 148.53621
-66.25089 52.837288 149.05347
-66.403534 53.54787 149.43898
-66.01132 53.769188 149.91508
-66.41372 54.712345 138.60243
-66.43017 54.134262 144.17622
-66.142746 54.60514 150.10962
-66.567566 55.284058 138.66806
-66.450195 55.18926 143.38788
-66.45391 54.989674 149.6549
-66.17564 55.402718 150.01799
-66.75998 55.945778 139.06544
-66.733765 56.27069 139.69879
-66.633575 56.290623 140.40105
-66.34111 55.842 142.30046
-66.286804 56.47494 145.0669
-66.281555 56.752506 149.5051
-65.86158 56.33224 150.09814
-66.07392 57.35577 145.34396
-66.36514 57.44594 145.76768
-66.403114 57.508633 148.66696
-66.00868 57.476585 149.25398
-65.92225 58.24036 145.70926
-66.36393 58.73237 146.56566
-66.43731 58.73899 147.64905
-66.20376 58.485065 148.54721
-65.959984 58.13267 149.0967
-65.96953 59.25788 146.09776
-66.24718 59.17073 146.81512
-66.26696 59.185688 147.40633
-65.8187 58.87391 148.76588
-65.78368 59.83552 146.6042
-65.83305 59.844257 147.33783
-64.750275 50.29538 141.17268
-65.26188 50.2679 144.6482
-64.83361 50.088886 145.61145
-64.82878 50.232822 146.13675
-65.251686 50.627262 140.53117
-65.693405 50.806507 141.66066
-65.19949 50.691532 142.35522
-65.57212 50.663296 143.53592
-65.471825 50.612137 144.35268
-65.275215 50.57364 145.3151
-64.96278 50.503952 146.36606
-64.951256 51.09001 146.88092
-64.59839 52.08669 134.92497
-64.618774 51.994633 135.38974
-65.23581 52.07718 139.11942
-64.87725 51.29409 139.3608
-65.56555 52.102283 148.27057
-65.154526 52.299088 148.96474
-64.60458 52.617157 134.8979
-64.6658 52.335293 135.55856
-65.5406 52.737167 149.33078
-65.168755 53.335308 150.13069
-64.573 53.039333 134.74434
-64.64194 53.09125 135.36931
-64.52972 52.95409 136.80435
-65.05527 53.123882 138.15273
-65.48754 53.86988 150.46152
-65.04652 54.071297 150.71706
-65.63451 54.24859 150.48817
-65.25179 54.342247 150.72888
-65.92207 55.015965 138.462
-65.25553 55.472786 138.72887
-65.664795 55.412586 143.00822
-65.461655 55.111935 150.67197
-65.43791 56.110374 140.24289
-65.583015 56.06036 141.0618
-65.87535 55.88028 142.08745
-65.477936 56.21984 150.45175
-65.07657 56.352673 150.64177
-65.34174 57.22065 145.16449
-65.57037 57.704422 149.56557
-65.2618 57.27704 150.15736
-65.03504 58.256836 145.25926
-65.56716 58.568382 145.52458
-65.19141 58.68092 149.42473
-65.041046 58.157032 149.7741
-65.08372 59.43509 145.09465
-64.837585 59.08532 149.4104
-65.003334 60.21777 144.90416
-65.20284 60.68429 145.4821
-65.452515 60.3919 146.25679
-65.02715 60.58375 147.36185
-64.96746 60.366894 147.89217
-64.89712 60.88498 145.0587
-65.01406 61.137463 145.57042
-64.98047 61.259926 146.35426
-64.90871 60.796825 147.2865
-64.753204 60.84704 147.77896
-64.57788 62.214306 146.44054
-64.70117 63.374264 147.05232
-64.86917 63.63711 147.51111
-65.255035 64.082054 148.05632
-64.80677 64.010445 149.2034
-64.858345 64.52034 147.12703
-65.11437 64.52861 147.58913
-65.25685 64.65507 148.51285
-65.03845 64.56649 149.03868
-64.78003 65.04538 147.21576
-65.0461 65.17672 147.8459
-65.0821 65.26145 148.4787
-65.00466 65.13878 148.97282
-64.75335 65.71442 148.02853
-64.80882 65.62674 148.46683
-63.735092 42.140778 130.92223
-63.83913 41.947018 131.79677
-63.863922 42.04346 132.25769
-63.92174 42.72266 130.82458
-64.21391 42.523415 131.6894
-64.14024 42.605053 132.43976
-63.95628 42.630016 132.87039
-63.94203 43.469334 130.78328
-64.27544 43.43705 131.61783
-64.27771 43.314445 132.3381
-63.92684 43.23349 133.10844
-63.81201 44.031162 130.87413
-63.993084 44.098644 131.47998
-63.94483 44.164585 132.3224
-63.817623 44.022057 133.01639
-63.828693 45.80041 138.9948
-63.899666 45.83529 139.4738
-63.857334 45.947147 140.0312
-63.715004 46.79338 138.15451
-64.02076 46.52171 138.76385
-64.16643 46.541733 139.4909
-63.905872 46.518692 140.3206
-64.04981 47.313217 138.80287
-64.15888 47.395367 139.44878
-64.0108 47.345127 140.45592
-63.876137 47.14327 140.72986
-63.88273 48.658237 138.84016
-64.042274 47.98683 139.88239
-63.97236 48.669193 140.108
-63.88974 49.167233 143.44499
-63.673595 49.003136 144.78671
-63.663456 50.111626 137.89833
-64.13249 49.493824 138.65215
-63.772953 49.645412 142.62302
-63.8502 49.555744 143.228
-64.56942 49.812176 144.3334
-64.329216 49.701443 145.51646
-64.517746 49.971767 146.27122
-63.86166 51.202374 134.6887
-63.94153 51.024452 135.86853
-64.096214 51.241646 136.41098
-63.76388 50.297134 137.84023
-64.12144 50.856094 147.32085
-64.02803 51.87953 134.01405
-64.23374 51.678158 134.71231
-64.404434 51.6824 135.41602
-64.29758 51.469254 136.31511
-64.4881 51.593575 138.27809
-64.74424 51.638184 147.28528
-64.43785 52.13254 148.42508
-64.9314 52.338226 148.78368
-63.74908 52.772343 132.95444
-64.08693 52.425037 133.80283
-64.44766 52.29625 134.56117
-64.67612 52.798164 149.25468
-64.67098 53.184433 150.04845
-63.736584 53.423016 132.86151
-64.119125 53.397545 133.6519
-64.34862 53.390766 134.32242
-64.31519 53.492786 136.07222
-64.619705 53.626556 150.37173
-64.53289 53.90722 150.65987
-63.736282 53.909237 133.05191
-63.85332 54.35784 133.81728
-63.98949 54.396717 134.43947
-64.16665 53.754356 135.53918
-63.751354 54.26182 136.1314
-64.23288 54.066532 137.23918
-64.290886 54.62837 150.77014
-63.65383 54.810856 133.9174
-63.66449 54.959187 134.5018
-64.9114 55.313293 143.50803
-64.58567 55.245354 144.26865
-64.64161 55.3841 150.86761
-64.62658 55.812428 139.864
-64.68413 55.718372 140.36937
-64.37345 55.599842 143.17932
-64.78238 56.761887 150.68
-64.308105 57.050747 144.84804
-64.32961 58.357376 144.87323
-63.92962 58.73067 150.22572
-64.451294 59.47106 144.69894
-63.885094 59.339252 149.90027
-64.566635 60.39683 144.69525
-64.42721 60.256958 148.29907
-64.20508 59.833538 149.07999
-64.34268 61.120964 144.77122
-64.2862 61.84673 147.22075
-64.10521 61.649734 147.86739
-64.038246 62.020546 145.08394
-64.25411 62.102367 145.3359
-64.299965 62.72593 146.95743
-64.34339 62.95856 148.35333
-64.086754 63.15335 149.16908
-63.94639 63.324223 145.84569
-64.58047 63.819065 149.26352
-64.30094 64.19659 146.34453
-64.411995 64.79787 146.66919
-64.35337 64.7718 149.84312
-64.27312 65.21758 146.98575
-64.55488 65.43671 147.37714
-64.200195 65.44243 149.4959
-64.078094 65.068634 149.92935
-64.40829 65.73421 147.79907
-64.44893 65.80414 148.47145
-64.12654 65.74996 149.21333
-63.066208 41.436466 131.55676
-63.130596 41.426453 131.94128
-62.96525 42.179905 130.28001
-63.24413 41.80697 130.82906
-63.33626 41.592354 131.38329
-63.37405 41.742268 132.35388
-63.44524 42.045265 132.8019
-63.178047 42.72621 130.25107
-63.57179 42.55325 130.51555
-63.48123 42.729904 133.26183
-63.311657 43.277603 130.2045
-63.604336 43.56597 130.44162
-63.556072 43.58004 133.41492
-62.915173 43.732883 134.07362
-63.170353 44.052284 130.31363
-63.426743 44.208744 130.64314
-63.508198 44.47075 133.4358
-63.024616 44.57044 134.15645
-63.240288 45.36156 138.82448
-63.24892 45.331913 139.59001
-62.976604 45.396748 139.97882
-63.38489 44.9702 132.03824
-63.0393 45.43667 132.18675
-63.085464 45.449722 133.43529
-62.825314 45.444622 134.23715
-63.24943 45.981037 137.9328
-63.504726 45.542282 138.84511
-63.578484 45.47914 139.59482
-63.329514 45.638268 140.1073
-62.80716 46.324757 143.66216
-62.672054 46.222588 144.26811
-62.906975 46.779938 137.203
-63.448734 46.678574 137.81358
-63.264645 46.94001 141.11627
-63.166122 47.086506 142.91237
-63.110897 46.830982 143.69682
-63.1475 46.933693 144.05008
-62.788475 47.098778 151.80121
-62.906128 46.964737 152.732
-62.82619 47.010723 153.08986
-62.75637 47.329865 136.90791
-63.488106 47.52075 137.8819
-63.25176 47.511795 141.34209
-62.879105 47.53613 142.25162
-63.278828 47.25921 143.67804
-63.176098 47.25578 144.27249
[...]
POINT_DATA 12281
SCALARS features_00 float 1
LOOKUP_TABLE default
0.5056688 0.5090172 0.4842562 0.62666196 0.63124025 0.63145137 0.60728556 0.7578583 0.75482416 0.7495693 0.6899714 0.6430286 0.7866537 0.79834354 0.7902266 0.7289064 0.63987553 0.810208 0.8062947 0.3494637 0.3398361 0.29620212 0.3879001 0.432674 0.41324028 0.3546248 0.32330537 0.49728614 0.5368286 0.67013884 0.60315037 0.14742276 0.3966143 0.4994965 0.5327132 0.5609113 0.7378442 0.5055679 0.36514962 0.46841615 0.47360587 0.54838204 0.7738308 0.66749716 0.58791804 0.5343631 0.26566967 0.34577182 0.408031 0.41595942 0.43011677 0.4241845 0.7882093 0.8053032 0.7995525 0.6840079 0.37457323 0.41319337 0.37831807 0.36622426 0.38115597 0.3788219 0.36049175 0.4094097 0.40331376 0.25035784 0.24265498 0.23941633 0.18667345 0.19013295 0.2271656 0.29556227 0.21005823 0.1913104 0.4073214 0.45704088 0.5271061 0.55863905 0.5886469 0.6051803 0.68834877 0.19643274 0.57029897 0.74173814 0.446935 0.5089385 0.49543878 0.7656441 0.794117 0.7539377 0.4775287 0.28851065 0.35548866 0.3963676 0.31139565 0.3509318 0.3510486 0.32764375 0.3396286 0.40428898 0.39392075 0.36370483 0.3222726 0.39786124 0.408821 0.3910222 0.3360466 0.40022194 0.37592733 0.08495172 0.16714323 0.20179623 0.2459985 0.17922208 0.2064386 0.1483478 0.15131415 0.16695961 0.1940966 0.2717401 0.29586273 0.5034511 0.4721089 0.13644762 0.09362216 0.37576613 0.42084646 0.5090569 0.46192986 0.53435254 0.58722746 0.5172365 0.4648993 0.34313425 0.0862031 0.60547376 0.5886711 0.5999311 0.59002185 0.6999953 0.63284266 0.2707586 0.5612823 0.49417382 0.427139 0.38186476 0.41900736 0.3851642 0.2380554 0.2956899 0.28145617 0.27350488 0.3362609 0.24565676 0.23768444 0.37109524 0.20842509 0.39241147 0.39933252 0.38275224 0.27176598 0.24930167 0.3769161 0.36087036 0.2885895 0.24345616 0.18197988 0.22545528 0.42738155 0.54642963 0.698286 0.6836845 0.6178274 0.6730769 0.7796119 0.77912974 0.66560954 0.72911495 0.7765258 0.78621876 0.7356758 0.7663839 0.95247215 0.91340375 0.88351464 0.9405565 0.9660431 0.879593 0.82876223 0.8815009 0.94187653 0.8549353 0.74489856 0.8180503 0.8368092 0.76090264 0.67248416 0.6820769 0.682588 0.6497979 0.5109186 0.6501565 0.68192846 0.61753213 0.51967 0.5663112 0.5131996 0.4960879 0.24824734 0.4811182 0.3333671 0.081915826 0.15266237 -0.07799669 0.023395784 0.0048649795 0.07264393 0.15791741 0.20971364 0.2719077 0.50005245 0.35966498 0.25745213 -0.086207986 0.2981435 0.58843195 0.50703514 0.4605055 0.31677777 0.009334572 0.24291806 0.2519981 0.3765915 0.6909108 0.6179542 0.53611445 0.4604277 0.5512562 0.6748098 0.62077516 0.5553001 0.39713213 0.5599947 0.5574907 0.6444825 0.5765774 0.5161748 0.43980533 0.36397138 0.31087476 0.5331483 0.54987466 0.4828057 0.0356123 -0.10848297 0.51149464 0.28096387 0.23495714 0.032837126 0.29483074 0.118433885 0.22796205 0.13227394 0.3116163 0.10914655 0.34847468 0.1821097 0.16265401 0.30298913 0.13890126 0.060611144 0.21816766 0.24000378 0.2589354 0.4158644 0.42032993 0.24396104 0.6157962 0.43904194 0.55430216 0.6494752 0.5992994 0.6725652 0.69263744 0.6256256 0.69112897 0.7446021 0.70964986 0.862093 0.83763003 0.9086618 0.9245246 0.89747864 0.8350271 0.81665003 0.8873987 0.9174595 0.7398546 0.85750276 0.8530661 0.6542653 0.5553929 0.7922362 0.77995026 0.5911452 0.5418511 0.6142798 0.6006549 0.5560411 0.6695734 0.5654505 0.5435687 0.5202259 0.5958897 0.64781404 0.6374961 0.5959434 0.44382936 0.49804902 0.34831405 0.470235 0.43076795 0.17638138 0.3432964 0.35497916 0.7357548 0.72669464 0.73132074 0.16863778 0.3073728 0.27580133 0.050996073 0.24264598 0.3211206 0.33501732 0.8215363 0.80162156 0.785052 0.040899873 0.07722843 -0.04631314 0.1439097 0.20330983 0.8869133 0.8536471 0.82616556 -0.09097904 -0.08810724 0.34313303 0.3262533 0.8376074 0.84920514 0.5351841 0.37556252 0.024292946 0.24157573 0.69250375 0.600562 0.22497904 0.70715463 0.7134291 0.6942712 0.6822173 0.37539238 0.46181196 0.6652027 0.6424164 0.6007345 0.32370442 0.5115243 0.5839275 0.5359311 0.47759315 0.4038679 0.10506899 0.04867602 0.019893654 0.053958733 0.48083562 0.13578139 0.061536867 0.15403634 0.5576143 0.069818795 0.12976874 0.5024675 0.5164474 0.49966842 0.14515714 0.09727297 0.4980507 0.45237777 0.20013931 0.24451461 0.07898661 0.22371463 0.008128962 0.16971302 0.2043215 -0.019859545 0.1630314 0.0731615 0.243227 0.16172716 0.18965241 0.4228778 0.3982764 0.4701832 0.45352864 0.5132697 0.53254807 0.4908995 0.46009326 0.6474248 0.6276489 0.5293391 0.8370155 0.78421396 0.90092623 0.87324226 0.8135841 0.75321615 0.7136543 0.86339533 0.6327438 0.82947695 0.5245317 0.77152 0.4849183 0.32032335 0.46236354 0.5135676 0.50085807 0.60388505 0.6120067 0.49330541 0.4893419 0.464688 0.42802018 0.5003909 0.53246415 0.54011035 0.4662339 0.53157806 0.5598504 0.48384294 0.41365838 0.43137068 0.4688762 0.3288377 0.50116515 0.47153372 0.6553371 0.63110805 0.6536298 0.6881783 0.12021967 -0.074195236 0.4021479 0.77799666 0.7492459 -0.056077562 0.76819396 0.7923376 0.7567497 0.2164912 0.18795374 0.68956435 0.7659205 0.80344754 0.76684403 0.36900282 0.3678024 0.19235067 0.2567737 0.7167932 0.63226414 0.5023488 0.20536107 0.69816357 0.70769596 0.15889393 0.6776197 0.19090097 0.6580206 0.64584434 0.0002706796 0.12924364 0.5720562 0.45209497 -0.12043078 -0.09903133 -0.0542856 0.22336423 0.31892535 0.27346173 0.3112667 0.06935154 -0.076423734 0.24609044 0.26194894 0.26358894 0.41673177 0.178424 0.253769 0.42831624 0.46074176 0.4779085 0.08958748 0.4123916 0.4647503 0.47479725 0.41562334 0.3722816 0.09872174 0.4253587 0.4387078 0.23875076 0.06876156 -0.0029853368 0.25091684 0.21592616 0.18672366 -0.008955374 0.13368821 -0.15542178 0.28381214 0.34583923 0.3165298 0.051787615 0.15142652 0.06707114 0.29511926 0.32913703 0.32673085 0.11716105 0.13774012 0.17212448 0.12691405 0.36832988 0.181148 0.28552097 0.445657 0.17181599 0.41450754 0.34213167 0.4297624 0.46122158 0.37826538 0.49490744 0.50637954 0.5177548 0.5603508 0.58870065 0.60007155 0.60010886 0.6170454 0.63095945 0.7473804 0.8138524 0.76282585 0.7155217 0.6885984 0.62158906 0.8340264 0.75222504 0.56429595 0.77278554 0.4696271 0.7563364 0.35288373 0.34772158 0.34921613 0.33361176 0.4043886 0.42580885 0.5539712 0.29461086 0.3450368 0.4730932 0.54179657 0.5257454 0.37790987 0.44621134 0.48490167 0.5336076 0.6131252 0.58579046 0.37923968 0.019998852 0.41764933 0.49346197 0.62486815 0.57191694 0.24791116 0.14020222 0.26444805 0.5215752 0.64857066 0.6209767 0.5765306 0.0450122 -0.22388327 0.09832754 0.5981062 0.6553841 -0.27257586 -0.27391526 0.592043 0.6324996 0.6570054 0.6487243 0.05116315 0.1727499 0.5741888 0.6573037 0.70229053 0.5365098 0.242481 0.16398016 0.71566665 0.6590887 0.7102072 -0.105656445 -0.087708905 0.60724425 -0.42025787 -0.27957124 0.13992023 0.24033844 0.5377484 -0.1684113 -0.22542307 0.35180575 0.062258095 0.10031851 -0.15253207 0.36639223 0.26645043 0.13214317 0.062712245 -0.17293888 0.31952763 0.3860512 0.3085382 0.33271992 0.027379118 -0.06504687 -0.11299687 -0.1924997 -0.18082663 0.29648805 0.34344232 0.33508295 0.35647047 0.082017094 -0.029462732 -0.02476906 -0.059686884 -0.09480335 0.03937366 0.21360886 0.35561118 0.36908534 0.17967129 0.10033569 0.112704575 0.25420403 0.29712415 0.16958475 0.19046155 0.12313709 -0.044819266 0.16629855 0.2460438 0.28914648 0.019392 -0.13422872 0.05943221 0.08580898 0.21866107 0.2614897 0.30568525 0.26283777 0.16954869 0.014289439 0.05697526 0.159782 0.26852015 0.27747273 0.25407535 0.1992265 0.08232547 0.04767403 -0.03133045 0.15472117 0.39639872 0.37248448 0.29924172 0.16917726 -0.22338176 -0.0564686 0.27938527 0.41418636 0.37998134 0.2897644 0.14574447 0.20389855 0.25981408 0.0021435916 0.0044076145 0.027985528 0.029538453 0.06771447 0.37101507 0.3326393 0.25904655 0.35430408 0.35732898 0.392509 0.08534771 0.44653863 0.40941224 0.4834451 0.56068677 0.5004606 0.48037487 0.5069635 0.59376305 0.59601223 0.5575304 0.61641276 0.6427411 0.63186854 0.6115748 0.60295355 0.672493 0.6622579 0.6455957 0.5224783 0.5507294 0.69452155 0.6762409 0.657009 0.6481918 0.4368306 0.4796016 0.5191856 0.5146383 0.6212378 0.6063149 0.5036735 0.33902377 0.41041124 0.3906392 0.44863868 0.5888463 0.48029518 0.15352541 0.18421495 0.30235437 0.090322405 -0.098385334 -0.24793376 0.15263459 0.26668346 0.2585576 0.41185108 0.539796 0.5159727 -0.22728816 -0.2552966 0.10743528 0.4930666 0.22607645 0.57241684 0.20988877 0.5268596 0.20903303 0.14782618 0.38409668 0.5050405 0.40893447 0.5165058 -0.33294183 -0.41713068 -0.009192452 0.4725685 0.4780317 0.5416212 0.5507135 -0.47413555 -0.40613365 0.006838307 0.43035462 0.5662961 0.59777653 0.039495252 0.25186875 0.07000178 -0.6490302 -0.35670164 -0.18271047 0.22545995 0.34060866 0.20148012 -0.40915206 -0.27647746 -0.26445863 0.39843777 0.41055465 -0.016232448 -0.22746554 -0.50691307 0.42444742 0.1660642 -0.032434106 -0.0701348 -0.20398042 -0.16056992 -0.20706834 -0.28860715 -0.5736258 0.39969236 0.26016885 -0.115859 0.36837927 0.29558736 0.28097504 0.29441974 0.29270136 0.05658719 0.23128024 0.17252225 0.12973367 0.15243614 0.073316455 0.14751387 0.20537972 0.22445564 0.19571696 0.041691866 -0.048280835 0.18281287 0.2542799 0.29197016 0.2639513 0.014680259 -0.15478691 -0.25804055 0.28435805 0.3594426 0.39608586 -0.10368644 -0.0112706125 -0.08453325 0.4565565 0.41484594 0.42046487 0.11504024 0.08258972 -0.011194073 0.06540072 0.017490312 0.51216644 0.5715519 0.40379214 0.31780124 0.2854253 0.11327051 0.12571748 0.10647886 0.043457747 -0.0800365 0.07812244 0.3756631 0.5198654 0.5972787 0.22813922 0.1563181 0.19387966 0.09397412 0.10995422 0.23635055 0.379871 0.54067254 0.6019842 0.2784554 0.31691402 0.5189968 0.3832188 0.4417115 0.5796368 0.50857633 0.5729191 0.6890409 0.6203693 0.55920523 0.52712035 0.59218055 0.6767025 0.6730497 0.6766014 0.7350119 0.7290667 0.5290082 0.6015401 0.64747566 0.5919332 0.6984824 0.69807994 0.68850875 0.47873732 0.526449 0.6008835 0.64479005 0.634327 0.4909063 0.5968691 0.65830076 0.6706207 0.5798226 0.5807792 0.4434531 0.54271543 0.5768734 0.13050933 0.36410028 0.5467047 0.61482036 0.61605823 0.5430198 0.53125453 0.49650005 0.47061783 0.4051858 0.28859612 0.3229334 0.35145035 0.39381355 0.08023352 0.17979577 0.28352815 0.39598894 0.47860536 0.53930235 0.48405161 0.44270495 0.32617855 0.19149314 0.17958364 0.06525141 0.18579014 0.25371444 0.38787282 0.42557728 -0.2905709 -0.33576933 0.11803089 0.09541743 0.21859404 0.10605516 0.16593 0.4701559 0.1422621 0.42823064 0.68941367 0.10889062 0.18825807 0.4257378 0.63071764 0.6348516 0.5758774 0.04607275 0.3903856 0.5199566 0.52649593 0.51843417 0.49827418 0.43084008 0.06539039 0.085656494 -0.04893318 0.32945254 0.35804036 0.43023753 0.4454664 0.45282966 0.17527917 0.09160069 0.08432476 -0.17202263 -0.19282722 0.36363813 0.3746844 0.38894394 0.38520747 0.37297046 0.34683967 0.28888276 0.17213467 0.26206797 0.20699245 0.22960073 0.13387123 -0.015547414 0.27885103 0.36011833 0.25467566 0.27579916 0.11316368 0.22167416 0.32502306 0.27312422 0.29283035 0.26482892 0.22519381 0.11225273 -0.04404667 0.38017687 0.38105905 -0.040655468 -0.33250645 0.4103573 0.05768513 0.09944387 -0.20770536 -0.26480484 -0.40204674 0.37606135 0.15505967 0.32238942 0.19492829 0.19758947 0.21155486 0.1920779 0.07616703 0.11590861 0.14972724 0.17449307 0.22420642 0.25987965 0.27930224 0.24384882 0.2673077 -0.4693328 0.3270055 0.2794144 0.338363 -0.33067012 0.4670636 0.39627206 0.6667447 0.34881085 0.28741923 0.027984051 0.62795967 0.67773724 0.18414737 0.08328465 0.116530985 0.080600455 0.050025985 -0.010805966 0.11470224 0.24880517 0.5526383 0.6192353 0.65697503 -0.011795625 0.07028778 0.17169641 0.22560185 0.39190117 0.5342076 0.58817196 0.5160353 0.46638352 0.54637194 0.5250247 0.51939416 0.5515947 0.65001935 0.63745517 0.5673048 0.6173187 0.7074026 0.7473867 0.73778427 0.39837885 0.44950247 0.5423213 0.47333062 0.47022584 0.4603663 0.54579985 0.6905539 0.74712795 0.72514933 0.6933713 0.4394537 0.49661493 0.576138 0.6376649 0.6379613 0.46201724 0.46137926 0.43117437 0.30044222 0.45269477 0.7001052 0.67834747 0.36378515 0.4522103 0.6277465 0.58511204 0.442399 0.39496237 0.3325856 0.13131514 0.20839322 0.6469721 0.26576996 0.39026028 0.4705905 0.03298027 0.5701988 0.43386564 0.38337687 0.25176072 0.25144127 0.27240837 0.02621312 0.028339796 0.38937053 0.39713335 0.32432276 0.30024102 0.21574128 -0.052225664 -0.11631915 -0.17998987 0.06806114 0.076106414 0.31958812 0.312913 0.27404714 -0.22280627 0.11330517 0.10260731 0.05113876 0.19656308 -0.2547049 -0.12284998 -0.11030421 -0.010960717 -0.101586476 0.08132567 0.24701403 0.8426882 0.81643045 0.7654019 0.69883275 0.6675741 -0.268023 0.026204959 0.8165902 0.7545097 0.69434965 0.5292376 0.30049077 0.1057403 0.42511034 0.724522 0.644765 0.38235927 0.18807168 0.13689835 0.51833713 0.43034646 0.14806452 0.192765 0.16500485 0.42808747 0.38183206 0.33308285 0.32423663 0.29641342 0.30396014 0.25160804 -0.50007844 0.18405902 0.28871882 0.40948036 0.1836388 0.34258074 0.23581508 0.26335868 0.2743095 0.29056984 0.25855792 0.19529547 0.28277573 -0.034410216 0.26145098 0.33548003 -0.017456219 -0.018860042 0.20226973 0.28733382 0.005738829 0.14593786 0.041279167 0.012113362 -0.022448031 -0.0806674 -0.02906074 -0.05005381 0.18701649 0.17997661 0.3326173 0.22637565 0.47976953 0.26200482 0.65964085 0.7043987 0.17042165 0.028351549 0.6139071 0.65549827 0.11522285 0.15444793 0.053348716 0.027023552 0.12485719 0.19373053 0.35165763 0.489438 0.553113 0.25470388 0.39453733 0.19119208 0.14717938 0.29311 0.2133635 0.42783704 0.4393642 0.5839912 0.48875955 0.47752684 0.43162078 0.39176118 0.34489316 0.6978015 0.7231449 0.71896005 0.33253318 0.38911447 0.47360373 0.4192471 0.4620753 0.4643069 0.4383564 0.3595578 0.6998887 0.66751903 0.31923187 0.5994867 0.5954187 0.42281333 0.4595642 0.6365675 0.2987144 0.51424867 0.40015537 0.623517 0.21637958 0.33794773 0.2801034 0.5166492 0.09678368 -0.17130122 0.35351488 0.1157087 -0.14151914 0.037989777 0.22515787 0.19859552 0.15994778 -0.21494108 0.09270282 -0.00068201125 0.049938574 -0.014154322 -0.19027138 -0.15523767 0.105047494 0.22854668 0.82769525 0.75441504 0.6538317 0.576342 -0.052486267 -0.13362095 0.087401904 0.17695649 0.30492783 0.85312724 0.8390391 0.5849803 0.50289965 0.0019848347 -0.06597608 0.80099106 0.830932 0.33870438 0.42479968 0.5401408 0.7844887 0.7496209 0.01481133 0.006080676 0.34852964 0.4440499 0.5259696 0.6614272 0.54803836 0.047060635 0.076646835 0.61562717 0.5001505 0.052415308 0.330591 0.2626691 -0.2796233 0.40822017 0.40298498 0.23283306 0.19246688 0.33052176 0.15151386 0.21373332 0.19336948 0.24029239 0.2517475 0.25418857 -0.008452341 0.14461914 0.033071525 0.12994625 0.08509585 -0.061401553 0.19422522 0.16957359 -0.10621673 -0.053459905 0.37974218 0.19040948 0.09004964 0.15573093 0.35758474 0.41505435 -0.10685984 0.17547707 0.32058063 0.38839078 -0.08833251 -0.10033284 0.30262005 -0.018589895 0.11419885 0.18793288 0.26550788 0.3898825 0.32970738 0.3194248 0.4385281 0.3994747 0.3667657 0.1536671 0.5920347 0.6769066 0.58919007 0.616986 0.25117186 0.22405346 0.23995662 0.40846294 0.49519002 0.31035182 0.31119233 0.20537259 0.1800533 0.14864022 0.17987034 0.21537349 0.34687555 0.3547928 0.23171535 0.20058152 0.38811803 0.37464178 0.32614094 0.32018608 0.36351514 0.41328532 0.38923755 0.35888907 0.23016618 0.63173425 0.6607945 0.3354972 0.3261344 0.64708567 0.63119626 0.17913206 0.46079308 0.27698776 0.20471294 0.20393458 0.2649849 0.48282686 0.14636008 0.16950823 0.09076035 0.32769972 -0.03557414 -0.3823161 -0.35726038 -0.01907637 -0.15646732 -0.2692558 0.18907443 0.24980986 -0.052341506 -0.04895415 0.32995808 0.8001815 0.7020587 0.5884012 -0.05809652 0.3967846 0.44398603 0.84092474 0.82524043 0.5038519 0.4496976 -0.05870478 0.50391394 0.51286566 0.782758 0.8063984 0.209512 -0.074355334 -0.045170352 0.5523965 0.5552092 0.7511796 0.0132148415 0.25173163 0.4976164 0.53761613 0.7309346 0.6968629 -0.07041316 -0.18920386 0.6452358 0.53267854 0.6129277 0.48400488 0.38956338 0.4021662 0.3557119 0.23507026 0.19803138 0.1920898 0.18856521 0.16272558 0.12880145 0.2074398 0.086931735 0.14556028 0.03287039 0.16817805 -0.0031048488 0.67866576 0.22346096 0.53506374 0.64997494 0.6701355 0.26321012 0.23202266 0.49527884 0.5831769 0.60507905 0.25647464 0.4749401 0.5314944 0.03402199 0.44555524 -0.11035516 -0.08927855 0.37569422 0.1953071 0.2456316 0.27140203 0.38447863 0.17843568 -0.36602968 0.46280986 0.42186522 -0.06191416 0.50782853 0.4663747 0.44723952 0.46048284 0.17357746 -0.18656325 0.5284192 0.26250914 0.1480937 0.29043296 0.28856513 0.063399166 0.06259916 0.19173296 0.2538908 0.28554943 0.28709087 0.36574864 0.07875382 -0.07288216 -0.045422852 0.1433986 0.17924404 0.15154561 0.41025704 0.4123447 0.17027172 0.046376083 0.45902324 0.4751349 0.54435766 0.5085999 0.60948324 0.5149876 0.5897012 0.42480448 0.44834113 0.46763456 0.47469714 0.25871363 0.30704564 0.2856704 0.32354382 0.3232922 0.25044072 0.034287483 0.2855253 0.39421034 0.3835746 0.39172158 0.3076239 0.23140939 0.013707116 0.28211623 0.22128601 0.06178472 0.04191351 0.03307496 0.094903216 0.19242948 0.30066878 -0.081193596 -0.04796791 0.3676758 0.5602671 -0.038647234 -0.029471723 -0.047253616 0.43370435 0.8190414 0.7972785 0.6641827 0.5472734 0.46576196 0.27520034 -0.047685523 0.5017787 0.7510947 0.760821 0.09625291 0.009651974 -0.13907135 0.56158614 0.56278634 0.7501715 0.7429707 -0.11750902 -0.21904352 0.2161287 0.47745222 0.5524585 0.7403225 -0.3667373 0.7129256 0.68287385 -0.31980562 -0.11664201 0.5397575 0.26189134 0.26202676 0.23494855 0.17605679 0.017737672 0.009953409 0.13794726 0.01558353 0.16675116 0.5985857 0.65796417 0.6973854 0.25710872 0.50641894 0.6880257 0.66965127 0.3112666 0.6167837 0.3025105 0.27323997 0.52129805 0.21092848 0.06908684 0.45870715 -0.05957766 0.33931693 0.06652191 0.16150539 0.4461777 0.40265965 0.5403107 -0.46556768 0.042331643 0.58118457 -0.0812165 0.5087466 0.3102501 0.04849805 -0.03688828 0.22077507 0.21033952 0.25972235 0.2873745 -0.061266214 -0.044765763 0.13525957 0.22283483 0.24127741 0.26891124 0.336512 0.37471783 -0.04784791 -0.018149517 0.05935298 0.10306521 0.4450418 0.47785974 0.53456175 0.36583793 0.15286127 0.6185974 0.64419204 0.5909773 0.49545425 0.70893717 0.7169037 0.6823141 0.59993017 0.63280284 0.63368297 0.6384963 0.58363885 0.47809982 0.49386352 0.5735003 0.61253726 0.6113168 0.5679417 0.26880932 0.28391096 0.2749382 0.44047338 0.437896 0.4595094 0.46723455 0.4711389 -0.029969726 -0.04045447 0.3833152 0.42014152 0.17092453 -0.015795587 0.27119452 0.33528918 -0.34587672 0.09809388 -0.009178074 0.00010224432 -0.080380075 -0.067050226 -0.07447282 0.17296748 0.26623338 -0.08019202 0.3558987 -0.038567644 -0.0851903 0.40462917 0.3646579 -0.031697404 -0.021477915 0.4628724 0.70605576 0.63472086 0.46812922 -0.008374415 0.49911392 0.7123387 0.6636169 0.53566843 -0.28914878 -0.13051331 -0.087510236 0.74467534 0.73488176 -0.41113007 0.70086145 -0.22960103 0.026322149 0.41455272 0.27145576 0.07833741 0.2973448 -0.008739119 0.06554638 0.29211184 0.2378517 0.19645053 0.039465703 0.0022576451 0.019252732 -0.30364296 -0.055412173 0.09060034 -0.16920553 0.53043556 0.6462301 0.68804455 0.6687924 0.19202375 -0.2901562 0.6593561 0.58113444 0.31677842 0.51517296 0.20188046 0.31362373 -0.09458375 0.20070161 0.25504836 0.44875073 0.33592355 0.08361504 0.5048358 0.11665572 0.55303967 0.11886068 0.16626295 0.58789504 0.16383806 0.39081442 0.21449001 0.03672292 -0.13662939 0.7060977 0.46124572 -0.315464 0.20680958 0.7800526 0.7451055 0.64014137 0.49898458 0.19695212 -0.016191069 0.08945263 0.81738234 0.7987818 0.7321967 0.66201377 0.14117546 -0.08713027 -0.019188557 0.044091955 -0.0055539757 0.0997792 0.20502427 0.77403873 0.74589694 0.47074127 -0.07632221 -0.22502391 0.2658301 0.55427706 0.63507277 0.66169107 0.5927147 0.45483476 0.7401465 0.7778876 0.8186039 0.8454894 0.61527175 0.70066667 0.74853754 0.7478017 0.77354944 0.6113167 0.66577995 0.65056556 0.500119 0.5792099 0.47630966 0.499649 0.56748605 0.42536157 0.28741708 0.15110055 0.120031305 0.45385736 -0.06464912 -0.05755