# vtk DataFile Version 2.0
Really cool data
ASCII
DATASET POLYDATA
POINTS 11543 float
-10.754753 54.73139 176.17577
-11.036163 54.855995 176.58046
-11.122997 54.956722 177.31436
-10.895546 55.126823 178.21585
-10.682181 55.208332 178.8641
-10.815755 55.511917 175.89078
-11.273739 55.616215 176.62434
-11.317085 55.524525 177.38727
-11.123263 55.57613 178.26141
-10.854171 55.872364 179.2761
-10.667004 56.059402 179.66515
-10.858901 56.16701 176.07635
-11.043626 56.32108 176.54823
-11.232056 56.30032 177.39075
-11.098914 56.41736 178.52008
-10.911039 56.33069 179.26578
-10.700743 56.901478 176.93195
-10.814846 57.007996 177.65201
-10.928482 56.86706 178.68048
-10.739194 56.85249 179.3619
-10.949134 65.06301 172.89865
-10.920323 64.92057 173.426
-10.792999 65.062126 174.1913
-10.965759 65.61523 172.77267
-11.123151 65.54547 173.43073
-10.967854 65.64582 174.18744
-10.62285 65.85008 174.92961
-10.8700695 66.13135 172.78583
-10.940457 66.3212 173.47212
-10.779721 66.21603 174.35194
-10.63994 66.69941 174.07985
-9.613223 49.968834 173.5548
-9.59776 50.917336 172.02795
-9.848716 50.743534 172.75772
-9.891176 50.6273 173.30322
-9.7026615 50.94393 174.07135
-9.641293 51.524647 171.95015
-9.873518 51.388557 172.65723
-9.959188 51.330765 173.47684
-9.665344 51.582027 174.21628
-9.784329 52.053654 172.62007
-9.820068 52.099903 173.20369
-9.7610855 54.20505 175.53488
-10.298678 54.255302 176.79419
-10.043672 54.25063 177.21101
-10.095507 54.53092 175.65929
-10.591903 54.56222 177.64848
-10.5257635 54.771023 178.28484
-10.340069 55.19759 179.17921
-9.566505 55.899952 171.6446
-9.663026 55.532944 174.90569
-10.218111 55.342148 175.46637
-10.519518 55.57011 179.54002
-10.307055 55.82025 179.80637
-9.524351 56.114796 170.67099
-9.575094 56.12143 171.4681
-9.523651 56.283566 171.95052
-10.059036 56.456093 175.31265
-10.145623 56.641 175.77713
-10.609603 56.695366 179.64389
-10.279944 56.401985 179.9088
-10.198966 57.093464 176.48752
-10.44008 57.397575 178.60176
-10.390062 57.25182 179.29066
-10.044754 57.1313 179.77673
-9.934613 57.745667 177.44122
-9.947385 57.735023 178.02655
-9.684085 61.218338 170.0467
-9.78857 61.125034 170.5467
-9.751957 61.02397 170.9591
-9.774558 61.543247 169.9148
-9.972603 61.60895 170.53587
-9.845707 61.56502 171.31662
-9.537988 61.546093 172.67813
-9.822018 62.61046 169.99635
-10.105363 62.350666 170.63966
-9.957119 62.528538 171.22633
-9.874629 63.55119 169.95775
-10.198092 63.767094 170.5779
-10.246658 63.64044 171.1982
-9.8566 63.496788 172.05452
-9.737229 64.0484 173.25278
-9.657042 64.24856 174.6268
-10.009806 64.254585 170.18933
-10.115135 64.39266 170.60497
-10.355437 64.57553 171.41635
-10.305452 64.52008 172.30168
-10.41729 64.73921 174.30402
-10.313096 64.98779 175.03955
-9.664569 64.78218 175.76965
-9.888783 65.27408 170.8457
-10.304866 65.647095 171.74338
-10.309456 65.64772 175.37776
-9.878124 65.815605 176.05823
-10.300184 66.067924 172.00049
-10.517551 66.40745 172.53862
-10.488883 66.506195 174.72382
-10.200246 66.48346 175.42738
-9.862418 66.4454 175.99042
-9.75989 66.93682 172.20813
-10.182859 66.963135 172.8932
-10.271664 67.05294 173.54507
-10.111612 67.05488 174.45706
-9.961746 66.981895 175.34503
-9.7703705 66.86692 175.88643
-8.870172 48.181248 172.90997
-8.843448 48.16503 173.4272
-8.874562 48.25364 173.83879
-8.849321 48.94782 171.9074
-9.023823 48.509033 172.74162
-9.095207 48.53533 173.41385
-8.906137 48.622643 173.99152
-8.965039 49.62046 171.89038
-9.356585 49.272896 172.7516
-8.9242325 49.443665 174.29305
-9.299768 50.691605 171.71046
-9.285822 50.786865 174.40492
-8.860445 50.658543 174.7394
-9.33321 51.19585 171.53102
-9.391517 51.61558 174.4116
-8.7302685 52.68392 171.11049
-9.196325 51.99652 171.50932
-9.463065 52.567436 173.16898
-8.97023 53.043804 174.98625
-8.660043 53.95653 169.24602
-8.862304 53.747913 169.67427
-9.044432 53.705845 170.47101
-8.859192 53.824444 171.03958
-9.113183 53.296577 172.64328
-9.3573885 52.94412 173.03767
-9.461085 53.94197 175.97044
-9.270402 53.743076 176.70445
-9.1638975 53.790394 177.28616
-8.69171 54.326893 169.20744
-8.90894 54.481853 169.50403
-9.258141 54.6565 170.66902
-9.322674 54.899364 171.34926
-9.460069 54.80509 174.4475
-9.527499 54.519394 178.4838
-9.388772 54.98497 179.22379
-9.02265 55.55475 169.76787
-9.30856 55.74327 170.36177
-9.419855 55.249958 171.20697
-9.369465 55.501778 172.1516
-9.30933 55.76778 173.62541
-9.354563 55.302998 174.60516
-9.675397 55.794292 180.04329
-8.977165 56.53484 169.8456
-9.3809 56.50833 170.62888
-9.426811 56.57455 171.4186
-9.180437 56.63518 172.64442
-9.152775 56.251526 173.95772
-9.290955 56.496643 174.50781
-9.745221 56.595276 180.08475
-8.918016 57.015533 169.92892
-9.290513 56.83765 170.74977
-9.080284 57.262535 171.61203
-9.058783 57.06635 172.33707
-9.383586 57.464687 175.527
-9.478891 57.143723 179.97423
-8.878949 58.78656 173.79503
-9.057929 58.977905 174.59166
-9.438653 57.828968 178.79478
-8.871558 60.11616 170.52153
-9.078679 59.99663 173.33925
-9.143421 59.536083 175.39822
-8.808739 58.957535 177.15508
-8.530054 60.441322 166.83893
-8.549643 60.742733 167.16295
-8.6342125 61.034134 168.55626
-9.518321 61.093224 169.85583
-9.488887 60.73228 170.65648
-9.315866 60.754074 171.23813
-9.327658 60.93033 173.26471
-9.199665 60.62012 174.17607
-8.584196 60.699238 176.31255
-8.57394 61.028336 166.99268
-8.589901 61.327686 167.25224
-9.417664 61.97471 169.33234
-9.543818 61.972958 169.53357
-9.447013 61.63578 171.79567
-9.46078 61.830147 172.74112
-9.392805 61.338993 174.35768
-9.082304 61.10919 174.9923
-8.627052 61.254337 175.81726
-9.022333 62.263416 169.14716
-9.522978 62.822178 169.62163
-9.409749 62.614353 172.25072
-9.381093 62.10326 174.2491
-8.872616 62.212376 175.35246
-9.332329 63.527092 169.49236
-9.617631 64.02364 174.40158
-9.130283 64.332375 169.41394
-9.442465 64.52757 169.8411
-9.358621 64.652145 176.05429
-9.191688 65.0712 169.99236
-9.510083 65.43162 170.61447
-9.441513 65.604645 176.38988
-9.108121 65.46624 176.5864
-9.248721 66.04104 171.00192
-9.270692 66.536354 176.42635
-8.964322 66.50191 176.56557
-9.182093 67.06734 172.02577
-9.3509445 67.30118 172.61829
-9.459401 67.47616 173.53282
-9.598139 67.43832 174.62135
-9.396788 67.38091 175.46754
-9.299253 67.07699 176.07364
-8.993827 67.575 173.65283
-9.131187 67.63805 174.22675
-8.9664955 67.6386 175.2957
-8.087992 48.088627 171.9107
-8.394535 47.84583 172.80145
-8.444313 47.871456 173.42049
-8.386077 48.11989 174.03279
-8.130639 48.85485 171.32535
-8.316358 48.528736 171.61229
-8.283704 48.47452 174.3835
-8.137881 48.890293 174.65031
-8.334401 49.185596 171.29091
-8.672354 49.274483 174.45584
-8.405488 49.81641 174.7619
-8.435492 50.49793 171.17876
-8.574329 50.687416 174.8486
-8.311439 51.441513 170.94629
-8.529306 51.371567 174.98303
-8.39632 53.101036 169.75377
-8.527723 52.7685 170.43243
-8.427311 53.27893 176.8476
-8.197819 53.712486 169.10855
-8.538891 53.546562 169.33568
-8.293829 53.466904 177.24918
-8.30563 54.5133 168.95926
-8.321564 54.5883 178.56085
-8.958602 54.711098 178.80734
-8.425409 55.113297 169.0248
-8.735215 55.790287 179.96233
-8.203618 56.285526 169.18962
-8.654441 56.49312 169.48584
-8.734577 56.72953 180.14554
-7.6398745 58.033283 165.59184
-7.7771344 58.144936 166.30745
-8.651868 57.436985 170.04976
-7.600558 58.422592 165.21355
-7.698056 58.546078 165.48633
-7.911617 58.568775 166.42313
-7.896982 58.953323 167.10765
-7.8928623 58.449757 169.81177
-8.292763 58.233234 170.79573
-8.439444 58.351383 172.6321
-8.39336 58.416794 179.27504
-7.6153355 59.145298 165.0059
-7.88693 59.346943 165.6496
-8.1762905 59.58592 166.4823
-7.656122 59.351776 167.89667
-8.307481 59.87706 170.2793
-8.160931 59.23979 171.30547
-7.890576 60.14746 165.27458
-8.172275 60.673656 165.65913
-8.405638 60.371277 166.36644
-8.487676 60.310863 167.17772
-8.381399 60.36015 168.55873
-8.153682 60.652493 176.9047
-8.018461 59.960903 178.77542
-7.7269735 60.68832 179.55441
-7.6528125 61.053516 181.15059
-7.686548 60.99129 182.54617
-7.794918 61.55795 165.04257
-8.106864 61.416523 165.60011
-8.432816 61.21289 166.57095
-8.360287 61.588783 167.43236
-8.241667 61.313927 176.34883
-7.868979 61.119816 177.31442
-7.7066627 61.201954 179.91089
-8.121935 61.61226 181.62149
-8.099097 61.82 182.33487
-7.788189 61.805527 182.8351
-7.7489634 62.614143 165.04463
-8.029307 62.326263 165.56479
-8.2295 62.177574 166.49997
-8.185201 62.580658 167.50455
-8.617236 62.19043 168.88141
-8.535778 62.829716 175.50017
-8.000707 62.402077 176.56224
-7.69594 61.919537 177.12595
-7.7381744 62.361645 180.5157
-8.349476 62.529022 181.68413
-8.223187 62.412193 182.3008
-7.8423824 62.59239 182.85283
-7.6945453 63.01793 165.116
-7.8576407 63.045036 165.52855
-7.876747 63.20375 166.21434
-7.6513953 63.230137 167.53908
-8.058405 63.68465 176.67314
-8.0264 63.070133 180.92154
-8.182327 63.267956 181.57608
-8.063611 63.267147 182.28398
-7.901071 63.06954 182.703
-8.439581 64.50946 169.29568
-8.817697 64.75246 169.59875
-8.276576 64.19323 176.49222
-7.8135395 63.678417 181.10773
-7.897695 63.695477 181.71742
-7.86328 63.63492 182.12567
-8.435394 65.210495 169.76077
-7.883544 65.0758 177.09415
-8.323741 66.273834 170.85025
-8.811102 66.007965 176.71085
-8.496866 67.056015 171.74461
-8.775085 67.36134 172.36835
-8.552355 67.24637 176.31874
-8.209832 67.69443 173.0226
-8.442381 67.686714 173.22249
-8.346441 67.83952 174.49634
-8.43902 67.76646 175.26813
-7.5076365 72.53948 136.56187
-7.5828876 75.01904 134.93394
-7.5784216 74.87969 135.48854
-7.5705485 75.50062 134.81273
-7.59004 75.5725 135.26082
-7.5464807 76.062386 135.11993
-7.6227527 48.048233 171.71823
-7.545878 47.6322 172.52493
-7.5386543 47.635242 173.52176
-7.6231017 47.977177 174.11388
-7.5211053 48.682705 171.22589
-7.621855 48.378395 174.49301
-7.8928113 48.713375 174.60571
-7.501638 49.597294 171.02757
-7.331942 49.69557 175.13899
-7.48885 50.370823 175.25056
-7.081509 51.086864 170.84041
-7.6892085 52.08183 175.45848
-7.8134174 53.25918 169.28168
-7.2802043 52.534218 176.06844
[...]
POINT_DATA 11543
SCALARS features_00 float 1
LOOKUP_TABLE default
0.61436 0.67858577 0.71855205 0.7125511 0.71388954 0.5405236 0.71357775 0.78330195 0.75116384 0.73605025 0.7266676 0.53276205 0.62355715 0.7657207 0.75406855 0.73488384 0.5922989 0.66745436 0.72070074 0.71415496 0.593678 0.5879381 0.6060344 0.6472061 0.6891625 0.6764424 0.6314659 0.6801557 0.72722536 0.68464446 0.6919042 0.6423158 0.49865508 0.5885954 0.6209974 0.5656489 0.43611333 0.5447546 0.5947422 0.51900107 0.4918003 0.5450866 0.437196 0.57764757 0.5426835 0.4985709 0.6266978 0.6506018 0.6953503 0.29601833 0.25025433 0.41951418 0.7162045 0.7075944 0.3834672 0.31585467 0.24486212 0.2932421 0.37424612 0.7170131 0.70956945 0.47405934 0.64743143 0.67596483 0.67553246 0.4791878 0.53102994 0.34903067 0.3692461 0.35137272 0.3569972 0.39174482 0.33154666 0.12163147 0.40615326 0.41908455 0.3737377 0.4353568 0.45078075 0.42021304 0.27446446 0.30495223 0.37932107 0.44418532 0.45360225 0.4597491 0.45310992 0.5331742 0.5468956 0.44356555 0.45757967 0.5190892 0.5874633 0.555637 0.5576179 0.6400712 0.6556751 0.6189822 0.5935936 0.54096246 0.6297598 0.6598375 0.6409561 0.6220227 0.6070003 0.76330215 0.7323693 0.7012233 0.69218504 0.7491628 0.7089815 0.6689713 0.6075416 0.70043504 0.5800178 0.47461465 0.51438826 0.45969617 0.40072405 0.46764308 0.2649492 0.33132952 0.4666612 0.15530238 0.48805583 0.4551066 0.37621742 0.3219961 0.21874411 0.34959275 0.43187422 0.41547403 0.3801789 0.49381328 0.48755944 0.42244086 0.3400824 0.14189279 0.48286945 0.5652795 0.4635715 0.42142305 0.36076206 0.19839838 -0.032502323 0.16939417 0.67435133 0.39817938 0.37157682 0.30767208 0.099592626 -0.021216378 0.04466831 0.6818732 0.35934407 0.34876442 0.25354 0.14148912 0.13501243 0.63712287 -0.08437329 -0.00685557 0.5071002 0.18424511 0.044511575 0.099024035 -0.009961888 0.27291936 0.22856683 0.08274034 0.31902695 0.33246437 0.29237813 0.0838936 0.09686006 -0.011014283 0.24704126 0.20717128 0.29602182 0.3277666 0.2513578 0.11064817 0.0830135 0.07963042 0.0007729009 0.25173628 0.37899983 0.17696491 0.039875403 0.0042778775 0.40119773 0.31998426 0.40613577 0.4252281 0.3799947 0.41705978 0.44711986 0.50504136 0.4604423 0.45558196 0.5712522 0.5539269 0.46633163 0.50055176 0.53826505 0.5942222 0.59793603 0.59562206 0.4940032 0.5277653 0.56450164 0.7764828 0.7973552 0.7443967 0.68708616 0.6658244 0.71983314 0.6383252 0.57257974 0.62306744 0.5713255 0.4885116 0.47137466 0.42365742 0.33336276 0.33976892 0.4435557 0.3361886 0.19547509 0.48209405 0.47909528 0.2024714 0.48883915 0.18524513 0.37020034 0.47389764 0.54415315 0.38456237 0.39157903 0.55393493 0.39232773 0.3393793 0.3027444 0.4061787 0.38446283 0.32685983 0.2731647 -0.042892605 0.115196854 -0.037270732 0.24237558 0.3758106 0.35551143 0.32160613 0.18262437 0.027397383 -0.13063094 0.33652896 0.33462903 0.31395465 0.23631957 0.07402837 -0.048111662 -0.17929326 0.0010318384 0.5785365 0.7531324 0.37177235 0.361202 0.29801857 0.18994969 -0.04243787 -0.07059994 0.256605 0.7317089 0.8158109 0.8234153 0.41754127 0.40372312 0.34661096 0.21914761 0.15916324 -0.03362131 -0.09616822 -0.10164371 0.52190393 0.8021455 0.84009993 0.8475275 0.4302667 0.42894685 0.42413878 0.31079873 -0.01969081 0.69963664 0.7857401 0.81104445 0.82550967 0.3474977 0.3858708 0.15226515 0.7271689 0.77666813 0.7869109 0.34169084 0.29175034 0.3376087 0.49957857 0.37964252 0.42895174 0.5631065 0.40025592 0.43043524 0.4653878 0.523635 0.42355287 0.35668346 0.3390463 0.3896418 0.39103326 0.40950316 0.7590512 0.89375293 0.7512177 0.66419053 0.6795947 0.6125319 0.5831928 0.54670846 0.43734264 0.36225176 0.27612215 0.13767864 0.46315005 0.07033539 0.08752168 0.4603445 0.084337026 0.12117654 0.44868422 0.12831908 0.34120974 0.37443003 0.3898083 0.51679194 0.43222356 0.32030606 0.22984952 0.2986954 0.5573069 0.5053009 0.4305948 0.33617595 0.25022307 0.051553838 0.27691418 0.49613035 0.432152 0.009438021 0.36272243 0.34658095 -0.021947779 0.697006 0.31184286 0.70022404 0.73642445 0.3407317 0.7867924 0.3301691 0.38946027 -0.16567807 0.33411634 0.83152723 0.43271056 0.43729308 -0.20901963 -0.029309079 0.7792875 0.79400015 0.4400651 0.40939176 0.24438319 0.7033148 0.7434974 0.16347998 0.23492259 0.21001065 0.41186088 0.5232494 0.40304324 0.3005271 0.33508956 0.45127088 0.34189367 0.61297834 0.4997247 0.44809258 0.41914824 0.38214684 0.4295591 0.44010133 0.42959598 0.474585 0.5548432 0.65310985 0.7149043 0.6090237 0.5369414 0.4934075 0.4333129 0.447033 0.55681527 0.6794142 0.73532975 0.50809366 0.40708464 0.48295745 0.6008301 0.6563778 0.5860338 0.2692487 0.40107045 0.45871776 0.54059047 0.5508801 0.22602433 0.24002992 0.28821293 0.31008518 0.34500998 0.3232413 0.31234363 0.2811354 0.27142474 0.5331496 0.3272354 0.3551374 0.3860144 0.3621998 0.2713251 0.45544517 0.53486085 0.34163976 0.35700202 0.40183514 0.4032569 0.3638131 0.47031236 0.5332339 0.32494742 0.35919887 0.36225644 0.28676566 0.76249796 0.690765 0.60841656 0.5960549 0.67431736 0.5900254 0.56666553 0.39126688 0.24937862 0.25554472 0.08114867 0.16922545 0.8949399 0.08048108 -0.018954128 0.067159064 0.3862288 -0.0037237182 0.37955543 0.03743174 0.21747942 0.40915698 0.44566548 0.6025084 0.3884396 0.016397864 0.11094758 0.443973 0.65287614 0.6320448 0.47332 0.36912906 0.38531643 0.39455146 0.5567426 0.59626937 0.30340052 0.34168264 0.5296371 0.5080929 0.46350938 0.42057532 0.6276183 0.63852143 0.22894572 0.2389957 0.6858599 0.22260049 0.7458133 0.14536746 0.7603823 0.19771478 -0.10448993 0.70304126 0.72141135 0.11948083 0.13614662 0.44761404 0.42778334 0.20028424 0.029793493 0.072897255 -0.10291687 0.58796096 0.6893892 0.33776897 0.29004607 0.23509747 0.1883744 0.05044802 0.5146283 0.3812923 0.30362132 0.28827685 0.07964731 0.03817404 0.13909934 0.045139022 0.6726917 0.58860046 0.4886197 0.40188634 0.34368753 0.3075472 0.15816337 0.2668163 0.22848262 0.48142967 0.6022295 0.7499342 0.6260181 0.35110515 0.33941188 0.23083796 0.34381437 0.37101135 0.3611002 0.5097572 0.45627296 0.371637 0.40453684 0.53094286 0.6262943 0.6825871 0.73790723 0.6632943 0.59427273 0.38896933 0.29274 0.522802 0.4691082 0.37695214 0.3984522 0.7119941 0.63023424 0.68339676 0.64361286 0.55429065 0.5041678 0.45997813 0.30355963 0.32122135 0.46139485 0.5031272 0.42879122 0.3293896 0.5241476 0.43437183 0.38668305 0.493322 0.52767843 0.49033028 0.441817 0.43240902 0.3137 0.5202563 0.56783587 0.60590893 0.59751487 0.4103085 0.26783776 0.24464047 0.4924636 0.64378357 0.65560925 0.65918076 0.3511625 0.2864746 0.18582562 0.44451684 0.5369936 0.5622318 0.6676394 0.669367 0.3030801 0.31434527 0.22279346 0.5578685 0.5759994 0.5564516 0.28485686 0.3071815 0.25976977 0.21316507 0.029937565 0.44883668 0.5252105 0.5617217 0.532851 0.30516693 0.3023572 0.24258566 0.23442757 0.37129295 0.46023136 0.51316285 0.23398423 0.2247284 0.2682826 0.12269411 0.1902872 0.15217721 0.1707646 0.49116707 0.50843036 0.55453396 0.47403926 0.55251193 0.5907656 0.59500736 0.5635401 0.49282235 0.5873707 0.6352197 0.6124709 0.55750656 0.5801059 0.595361 0.58189434 0.48281586 0.6103389 0.60197824 0.572194 0.5897621 0.53982544 0.5056928 0.56023407 0.3268858 0.8117025 0.84557444 0.078806214 0.77863544 0.82080936 0.87701404 0.8868176 0.8697754 -0.0044875154 0.79115117 0.843937 0.89535046 0.8720885 0.8475708 -0.054731835 0.80086637 0.8468534 0.8481904 0.8089962 0.800925 -0.03188844 0.74059486 0.72596145 0.726195 0.16510706 0.18409055 0.4123999 0.45895356 0.61453235 0.5004762 0.24025741 0.18872917 0.45630756 0.43042856 0.66614187 0.3566613 0.5904552 0.6270503 0.2919221 0.53522974 0.19198054 0.45738196 0.4284318 0.62453353 0.61591136 0.5695815 0.6668986 0.042861685 0.05385034 0.56938154 0.4126603 0.5156468 0.67181844 0.7409241 0.1505631 0.04494678 0.58567643 0.37583733 0.41569087 0.50983995 0.6741886 0.79277134 0.8542709 0.20109826 0.003029652 -0.0680265 0.010379132 0.032410912 0.60552025 0.38456178 0.40334746 0.4412554 0.5604971 0.7395725 0.86412096 0.9200789 0.27086425 0.2174008 -0.14238068 -0.1948404 -0.01065889 -0.01659475 0.423032 0.45068377 0.5695268 0.70825624 0.848355 0.91905695 0.500647 0.4891435 0.10975139 0.051336817 0.042048637 0.014423631 0.016385913 -0.034126304 -0.009861127 0.4582724 0.50990003 0.7117144 0.82959044 0.75148594 0.64144355 0.04974953 -0.090409644 -0.11055198 0.17996156 -0.057065807 -0.076674335 0.37514532 0.39176854 0.49527225 0.5899432 0.8304146 0.14565393 0.05170978 0.29769403 0.52886486 0.4678733 0.3812824 0.5930667 0.7825181 0.7453226 0.15541346 0.2949747 0.55145806 0.54865956 0.51103795 0.72472286 0.6882958 0.6331342 0.5663195 0.41714534 0.38734215 0.5332594 0.33664447 0.6126436 0.53125674 0.42641187 0.49324188 0.48613453 0.398683 0.35013747 0.55740714 0.51571494 0.47975743 0.22924875 0.3916748 0.43616664 0.6107013 0.64260435 0.6622301 0.6026336 0.42003593 0.5101792 0.5031945 0.6455212 0.67059594 0.67208016 0.6593162 0.380592 0.3240059 0.4936042 0.66946816 0.6682993 0.33642012 0.29922515 0.4564893 0.26354057 -0.042659026 0.45481053 0.21339318 0.22285861 0.04118074 0.22219506 0.21565278 0.19664682 0.21082033 0.2653933 0.24061507 0.20365694 0.18189773 0.16777244 0.16026247 0.1443251 0.25729463 0.35157967 0.26796252 0.18758234 0.14554363 0.15399712 0.15181004 0.33234292 0.3632592 0.38286364 0.38475418 0.43558562 0.47643417 0.3954568 0.45546737 0.48080558 0.5217444 0.54117703 0.21964788 0.33008677 0.44154412 0.5298995 0.45852798 0.18815309 0.26825327 0.46784303 0.41687214 0.17164531 0.26894572 0.40833333 0.5160111 0.47385734 0.39466542 0.38766086 0.40998033 0.32935742 0.2475749 0.29484925 0.46291906 0.4872627 0.4093126 0.46312308 0.47188216 0.4482532 0.37764 0.44293886 0.47490257 0.47282842 0.39678615 0.40117502 0.41365126 0.3878362 0.59646446 0.37470704 0.3885039 0.59073466 0.6208358 0.6219992 0.35495114 0.24534586 0.2807963 0.77164006 0.82643986 0.83090556 0.57760894 0.6335381 0.6489645 0.121666536 0.20252876 0.7477802 0.78299844 0.85651904 0.816856 0.58314276 0.61934626 0.64488757 -0.084568545 0.7328452 0.79511476 0.10290357 0.02538842 0.74981636 0.69880724 0.7091772 -0.22384423 0.73237616 0.7013096 0.656698 0.6359551 0.11480537 0.29687017 0.38163358 0.43368196 0.6667427 0.65047354 0.59408385 0.57395476 0.5976056 0.3790142 0.2545599 -0.16290565 0.4084826 0.41087845 0.60075635 0.32494023 0.5288196 0.50161815 0.26288182 0.4441151 0.16513462 0.20735213 0.29604313 0.0390758 0.22358695 0.42880118 0.05817208 0.082043394 -0.026367256 0.30352247 0.39103392 0.3991955 0.5543461 0.7117405 0.7439542 0.14334127 0.10959868 0.27995256 0.4064121 0.3079238 0.30216604 0.3539443 0.75785124 0.8077022 0.20862359 0.19255956 0.37122548 0.3018264 0.33825612 0.35029858 0.8832804 0.17893279 0.42990428 0.30628312 0.31850964 0.3567555 0.9544082 0.96930474 0.26875764 0.20719555 -0.18072206 -0.19634561 0.3574949 0.28897262 0.22625625 0.31215665 0.39648837 0.9331235 0.47067428 0.38885915 -0.13478121 -0.042511947 0.034159463 0.1737628 0.31525648 0.37916905 0.4087095 0.43926397 0.56005573 0.7376267 0.82058144 0.8727902 0.66792005 0.57349944 -0.06371757 -0.11801115 -0.20224807 -0.09846109 0.21357654 0.26062632 0.39381325 0.34915662 0.35962766 0.4095924 0.52027655 0.3268072 0.35758558 0.3818217 0.44502118 0.8245146 -0.022490196 -0.13928568 0.51004815 0.45885748 0.52771735 0.5088327 0.8029294 0.12251796 0.26017612 0.5292312 0.19038358 0.71458924 0.6866083 0.32957304 0.3270136 0.5595894 0.55030066 0.30213028 0.6451081 0.608047 0.47645178 0.4238985 0.55501086 0.53722626 0.14014813 0.0018074065 0.5413835 0.2010523 0.33526075 0.55844444 0.4947234 0.49675018 0.4558748 0.38216162 0.3598833 0.65046465 0.6611485 0.5971736 0.53040844 0.4026338 0.3631604 0.6639487 0.6424341 0.6156448 0.34477168 0.33108532 0.32605457 0.27160195 0.28433144 0.2989505 0.1996946 0.1267682 0.14147899 0.18816756 0.24756455 0.3093038 0.26606768 0.26063117 0.35016155 0.34872803 0.36454135 0.3420683 0.3204553 0.20273802 0.23930638 0.30806085 0.37233716 0.4068529 0.30500054 0.27795112 0.096911 0.13158496 0.16805126 0.2825298 0.3795448 0.4044762 0.078670405 0.20260431 0.22170913 0.34612605 0.3274438 0.35209292 0.35687268 0.40803844 0.43910873 0.4795699 0.28263527 0.33216882 0.4973196 0.44160804 0.14473963 0.44635648 0.054436985 0.10017517 0.31006023 0.17325029 0.23589125 0.17164859 0.30170506 0.2775569 0.2855178 0.32685995 0.19545266 0.24920528 0.30420172 0.29608658 0.32435936 0.39583296 0.21008901 0.2552677 0.28862247 0.26364875 0.2958139 0.39855862 0.41647983 0.53885615 0.57854456 0.5759685 0.3532571 0.32288164 0.30246383 0.46491903 0.55407774 0.5933339 0.5732299 0.58024895 0.19847348 0.21441796 0.43750882 0.39580905 0.5275016 0.6242471 0.6377803 0.2537903 0.32004875 0.25462037 0.24812007 0.14924517 0.7035141 0.70947653 0.7014738 0.7753108 0.36651522 0.529707 0.65258044 0.640199 0.24307159 0.3004613 0.1277231 0.11617377 0.68972486 0.4306274 0.5900628 0.641985 0.629205 -0.0452201 0.5982557 0.6776105 0.34604692 0.41063273 0.49418935 0.565127 0.5683714 -0.2425748 -0.19185907 0.61653847 0.101533204 0.044079047 -0.29072455 -0.36893967 -0.07925351 -0.10210969 0.67023593 0.5348662 -0.43407226 -0.17933981 0.2744242 0.6012951 0.5837735 0.5512763 0.51267695 -0.01701378 0.32138112 0.52342516 0.4067857 0.47168055 0.34569448 0.034918576 0.30159324 0.28770483 0.30458605 0.2690405 -0.09716724 0.28667164 -0.17740786 -0.18317457 0.2821163 -0.06859184 -0.1582497 0.40506583 0.5214291 0.80129755 0.12663943 0.088550285 0.19147997 0.32249737 0.80801046 0.049213197 0.19622335 0.19875753 0.123337336 0.07191442 0.22878832 0.7907426 0.82086086 0.1356208 0.04050927 0.34015432 0.3308028 0.25491238 0.22536042 0.121008545 0.0050492957 0.21444562 0.90406144 0.053073943 0.10057872 0.114055954 0.3142509 0.34299916 0.35010824 0.33956194 0.2567674 0.15427066 0.26253647 0.9515439 0.20407599 0.42591745 0.30420095 0.35200238 0.36494404 0.29770982 0.09565836 0.100966126 0.89788187 0.22315538 -0.26105925 -0.27309078 -0.25289318 0.41804177 0.2125646 0.36160263 0.12763959 0.16613851 0.26397473 0.67910933 0.8022885 0.87769186 0.4028725 -0.23535928 -0.13996765 0.009655297 0.19587918 0.3309254 0.40721172 0.35618877 0.32088035 0.28046674 0.3147094 0.27784777 0.1764111 0.2552658 0.2901363 0.32734966 0.3975128 0.54022324 0.70897937 -0.19170608 -0.22700568 -0.11513317 0.24680164 0.3679887 0.39041117 0.39298314 0.38502842 0.21763858 0.7265135 0.642902 0.089820296 0.09718735 0.093301006 0.2160765 0.19310026 -0.09972215 0.24088293 0.48271418 0.3852979 -0.28118488 0.66494775 0.5875099 0.19882463 0.42163798 0.46827722 0.3901415 0.1834668 0.53196967 0.089832366 0.56641054 0.34337533 0.51205814 0.5349119 0.5408531 0.43640137 0.5985626 8.186698e-05 0.29715782 0.36307773 0.5547385 0.5858344 0.5824149 0.5795255 0.1744959 0.23366673 0.32555184 0.40627167 0.3544823 0.6316839 0.4985428 0.32883883 0.619233 0.48570368 0.4412888 0.4636602 0.42417005 0.34442428 0.31058115 0.58033335 0.5540079 0.49971017 0.34050196 0.32410488 0.31693956 0.28506434 0.2879592 0.19340512 0.22960511 0.26611713 0.23003112 0.17794245 0.3167437 0.2614196 0.31439257 0.33235285 0.2887399 0.3502738 0.33003435 0.29050532 0.2118715 0.090382606 -0.0011481419 0.20111613 0.16216405 0.28603187 0.22228552 0.16248286 0.12643436 0.17247549 0.15136006 0.13315317 0.3423945 0.27763858 0.29700544 0.23728374 0.18502083 0.30610523 0.34374857 0.3237005 0.2687615 0.5614511 0.5765903 0.38581073 0.38192976 0.36971125 0.39942276 0.40489957 0.2602598 0.3184733 0.34848845 0.36235029 0.35624915 0.42616796 0.42261243 0.16193032 0.23238659 0.37719774 -0.04101373 0.086009845 0.18723378 0.26655346 0.35022137 0.17171124 -0.014531277 -0.034088913 -0.06736131 0.23648754 0.24966642 0.41066498 0.34244937 0.3004422 0.2615408 0.15723163 0.02731271 0.06776099 0.27828676 0.27275 0.42108232 0.3041937 0.2816506 0.2559674 0.20799877 0.16872728 -0.13349289 -0.046911813 0.29972652 0.28313747 0.24503839 0.22217876 -0.024020486 -0.055609018 0.13842042 0.14514059 0.24352863 0.21635212 0.4659649 0.060295604 0.1159222 0.1404144 0.15708208 0.2774768 0.45870072 0.5672529 0.38939017 0.46112975 0.5408936 0.49229115 0.2159116 0.2973367 0.17366706 0.16034229 0.25918952 0.44273645 0.5989798 0.30052507 0.39046746 0.50936294 0.11764478 0.12060338 0.36950362 -0.005840108 0.33933818 0.48978543 0.59532 0.23093295 0.33560747 0.1645471 0.4098003 0.16718552 0.04496646 0.08969303 0.18111746 0.3726526 0.56269217 0.5931879 0.4620441 0.22849008 0.2656722 0.60101473 0.10984415 0.21621665 0.23691341 0.26984626 0.40238285 0.13462462 0.038650513 0.064402446 0.17335114 0.55585253 0.49772513 0.35398132 0.27178472 0.49178112 0.035818294 0.070568785 -0.23637715 0.04352948 0.5028056 0.21508212 0.28213206 0.44461024 0.5542996 0.5741929 0.1365107 0.061067782 -0.026721809 -0.191867 -0.3205049 0.52471286 0.13708304 0.2784061 0.3368598 0.4076659 0.4107523 0.248694 0.25343964 0.18924272 0.1350425 -0.054868616 -0.20100582 -0.34760132 -0.1537312 -0.096706934 -0.09159316 -0.11000921 0.562925 0.3849574 0.34927538 0.28089747 0.2689657 0.23567802 0.16280271 -0.14256057 0.1880646 0.52135754 0.5098583 0.49446875 0.45171514 0.44767445 0.15534788 0.18775102 0.20877142 0.06737018 0.21835345 0.49306518 0.48693323 0.4612643 0.5981143 0.666787 -0.07516756 -0.14051294 -0.09563798 0.26656225 0.49120617 0.6019753 0.692346 0.682013 0.019511878 -0.074422546 0.3071462 0.35146844 0.39207125 0.44279397 0.48036578 0.655725 0.70025086 0.7037345 -2.5011599e-05 0.304821 0.29349256 0.30491036 0.37490344 0.40107137 0.5179192 0.5649773 0.56963366 0.54584944 -0.07867473 0.28274587 0.14500296 0.2539835 0.33969116 0.36230475 0.3586207 0.4820066 0.4053548 0.0005772617 0.15633708 0.21384872 -0.06142596 -0.007801524 0.10056645 0.12705381 0.10728738 0.31178832 0.7266735 0.079031646 0.011075595 0.01784221 0.17966887 0.17664877 0.053863473 0.046445835 -0.0334811 -0.015291687 0.81402713 0.03425858 0.28693306 0.1604612 0.14943393 0.108477026 0.068602085 0.024581073 0.6763695 0.18969712 0.32140267 0.33773717 0.5104704 0.67808676 0.0069763325 0.22959536 0.3127883 0.3210633 0.6012958 0.6848383 0.0024972782 0.25734967 0.71384907 -0.067692034 -0.251485 -0.30592617 0.42644882 0.4086901 0.37594163 0.18666735 0.18505408 0.22787908 0.25021684 0.34589717 0.46341252 0.640561 0.7764178 0.5078582 -0.17075753 -0.22846176 -0.19405712 0.41965187 0.41643068 0.37423128 0.37875825 0.18524934 0.19569746 0.16577712 0.15299682 0.35586393 0.41651165 -0.23989789 -0.28142822 -0.18571678 0.4133538 0.38245565 -0.21364185 -0.17171898 0.10230225 0.118783295 0.099549964 0.18762492 0.22562131 0.59900486 -0.112683356 0.0027502477 0.27738816 0.38563138 0.4147089 0.3918628 0.42110124 -0.048660807 0.31206188 0.43908325 0.43796235 0.5039941 -0.36224493 -0.14078914 0.43277764 0.5751838 0.5228983 -0.13740064 -0.12521967 0.27942187 0.24321897 0.5171247 0.61382097 0.54414034 0.5533246 0.50723976 0.16441348 0.22768047 0.1080634 0.29909882 0.639652 0.65657544 0.64514804 0.617174 0.53394127 0.5055895 0.2693218 0.26636958 0.32490763 0.35470462 0.3259445 0.68524945 0.67527735 0.42910057 0.2751954 0.29411158 0.393855 0.38680476 0.24322394 0.10876813 0.22963047 0.102804005 0.11884551 0.20353466 0.22391273 0.18682307 0.11377438 0.15280603 0.14340913 0.47868717 0.2228468 0.097441636 0.5580424 0.5188861 -0.067673594 0.18671158 0.6143465 0.56497836 0.41864425 0.162209 0.017373472 0.53982824 0.4664337 0.3700878 0.26862824 0.052729733 0.15168895 0.084306665 0.08094719 0.42220768 0.40540484 0.3408202 0.32702613 0.5162036 0.5352664 0.5558919 0.3176241 0.3558878 0.36068624 0.3925926 0.5186721 0.6040362 0.6238028 0.34283668 0.31159115 0.2524242 0.4317634 0.52108705 0.5995665 0.6649795 0.33836347 0.4006595 0.5216266 0.3893343 0.41340315 0.40651348 0.38585496 0.38293684 0.38594848 0.38023287 0.38684568 0.3354733 0.29955453 0.36738682 0.23089595 0.34015846 0.21096282 0.16726193 -0.06291054 0.12666248 -0.04162288 -0.19007568 -0.1086782 0.11152092 0.18324596 0.7168981 0.6121026 0.44928718 0.35132918 0.25207236 0.1863305 0.07880746 -0.12704796 0.2140111 0.19831243 0.76911974 0.73412395 0.64057505 0.4611104 0.20042707 0.6976514 0.5836799 0.4310193 0.29850608 0.5466509 0.2914922 0.19987719 -0.032457367 0.26473