# vtk DataFile Version 2.0
Really cool data
ASCII
DATASET POLYDATA
POINTS 1865 float
-21.61734 105.7632 9.614034
-21.666712 106.03039 10.287468
-21.635191 106.76323 8.526221
-21.641958 106.50621 9.556337
-21.628225 106.31605 10.245783
-21.600014 107.132195 8.044898
-21.638708 107.43765 8.529766
-21.604235 107.192764 9.232765
-21.011812 105.107635 9.009873
-21.064194 104.99769 9.638858
-21.0034 105.05237 10.288357
-20.860966 105.7994 7.56309
-21.169563 105.58527 8.44925
-21.4163 105.397995 9.459658
-21.49291 105.869545 10.5242195
-20.971554 105.68776 11.040027
-21.065042 107.038315 7.005355
-21.40926 106.591934 7.8508334
-21.459887 106.50366 10.644861
-21.058609 106.74208 11.1618
-21.522514 107.73824 8.348515
-21.47679 107.70475 9.487361
-21.406155 107.461555 10.60013
-21.10903 107.59866 11.184368
-20.784346 107.39531 11.677072
-20.63909 108.70494 5.5274835
-21.342203 108.05984 8.005491
-21.379572 108.133896 8.477898
-21.368874 108.07267 8.98601
-21.063076 108.30897 10.461264
-20.831215 108.28999 11.226523
-20.663015 108.00378 11.747207
-20.920689 109.720695 6.0617194
-20.833977 110.993576 2.1418977
-20.94289 110.739944 2.56899
-21.377897 111.1332 3.7409487
-21.287256 111.08776 4.1763306
-21.06759 110.72551 5.3167567
-20.766386 110.364746 6.4792037
-20.922077 111.49025 2.0756154
-21.238312 111.36628 2.6963165
-21.431162 111.6708 3.4609556
-21.301208 111.57902 4.312201
-20.680977 110.82307 6.3529367
-20.90063 112.55849 1.8186694
-21.184723 112.43577 2.4401464
-21.27902 112.26454 3.3912685
-21.212093 112.23066 4.065807
-20.739916 112.137955 4.956714
-20.801582 113.15349 1.867156
-20.917353 113.18688 2.45782
-21.007105 112.95846 3.2698736
-20.26589 105.13663 8.010665
-20.155848 104.75874 8.7877865
-20.324778 104.67392 9.49393
-20.636019 104.82532 10.220008
-20.483486 105.312584 11.000109
-20.427214 105.583755 7.33863
-20.452435 106.10252 11.576804
-20.261768 106.13333 11.744281
-20.472797 106.34647 6.5005207
-19.798603 107.38654 4.7419147
-20.376553 107.35403 12.133499
-20.045702 108.16763 12.040753
-20.57185 109.65275 4.201635
-19.970144 109.13013 9.612116
-20.294668 109.07883 10.531149
-20.319239 108.81637 11.312575
-20.167728 110.60262 1.8397192
-20.299883 110.62054 6.7269583
-20.284428 111.71737 1.3951038
-19.931866 111.31737 1.466269
-20.409597 111.03621 6.4384007
-20.393188 110.79925 6.6913834
-20.250574 112.53562 1.2739983
-20.167934 112.36006 5.122136
-20.18227 113.1926 1.3234446
-20.323503 113.40984 1.573994
-20.56043 113.602844 2.704196
-20.515566 113.38076 3.4431098
-20.24275 113.1065 4.277754
-20.231873 113.69111 1.8469999
-20.308432 113.748955 2.3758051
-18.63197 95.75394 20.114016
-19.033405 95.958374 20.81648
-19.065836 95.92153 21.474394
-19.097792 96.35324 20.682106
-19.28845 96.625114 21.76531
-19.13856 96.647224 22.265081
-18.571793 97.65011 19.7059
-19.190338 97.28645 20.91804
-19.235346 97.43638 21.609629
-19.083546 97.36034 22.312872
-18.869707 97.32117 22.707638
-18.85349 98.00264 20.64204
-18.979607 97.92359 21.736626
-18.853598 97.96677 21.92946
-19.084255 105.20758 6.9529266
-19.23523 104.99522 7.9678426
-19.6862 104.68831 8.780676
-19.851526 104.530876 9.720766
-19.805067 104.9808 10.990554
-18.766922 106.08153 4.091073
-19.099072 105.83589 4.788196
-19.304802 107.77595 4.0408
-19.043695 108.40282 3.5478544
-19.767605 108.15736 12.164329
-19.714865 109.897705 2.2539697
-19.429436 109.44935 10.25363
-19.508636 109.28662 11.239158
-19.717617 110.631775 1.6770769
-18.989473 109.86576 8.54638
-19.01503 109.61392 10.397935
-19.456724 111.527405 1.3612809
-19.671276 111.21934 1.5230119
-19.297764 111.16618 6.690574
-19.275135 112.77019 1.1962013
-19.56634 112.57018 5.4548683
-19.469948 111.93725 5.9684854
-19.772625 113.134384 1.234998
-19.80095 113.54505 1.3972238
-19.72755 113.393845 3.9402115
-19.774557 113.79452 1.8541429
-19.647703 113.922676 2.454944
-19.468206 113.78672 3.2561128
-18.38869 95.172844 20.569618
-18.28571 95.11326 21.31798
-18.194567 95.31018 22.066332
-18.09154 95.70587 19.563402
-18.53507 95.44129 20.428638
-18.400629 95.629944 22.206295
-17.692501 96.431694 18.162886
-18.57217 96.42653 22.80091
-18.579279 97.345566 22.783096
-18.54948 98.12626 19.948385
-18.498272 98.42233 20.656404
-18.467564 98.38015 21.557327
-18.437979 98.02713 22.30228
-17.925098 98.69446 21.044123
-17.854599 100.791794 18.052511
-17.739681 101.930916 15.576847
-17.937202 101.49054 16.542292
-17.936745 101.135 17.741539
-17.76941 101.30624 18.093262
-17.942822 102.52882 15.715741
-18.093565 102.85958 16.1993
-17.860445 102.30503 17.49475
-17.976843 103.11205 15.981042
-18.035383 103.108795 16.560102
-17.785614 103.03757 17.18759
-18.339941 105.10746 5.459167
-18.354 104.957146 8.596094
-18.590145 104.57341 10.197988
-17.677593 106.11439 -0.48411468
-18.116095 105.58155 4.0807924
-18.482805 105.54656 4.3658605
-17.778337 106.53841 -0.96330786
-17.97014 106.67905 -0.30785495
-17.870955 106.44611 0.22052671
-18.717524 107.08279 12.865163
-17.958622 107.220276 -0.71612597
-17.757412 108.06303 1.949336
-18.677046 107.1548 12.811548
-17.986902 107.955414 -0.5234333
-18.223248 108.74029 13.297069
-18.022867 109.44207 13.143643
-18.309956 109.913574 9.569944
-18.79972 109.77368 10.082455
-17.978167 110.095535 12.032127
-18.525925 111.731125 6.171544
-18.758104 110.85508 6.754338
-18.082973 112.20144 5.97686
-18.910563 113.5898 1.6656395
-18.313751 113.484276 4.378953
-19.135258 113.64547 1.7940725
-18.375479 113.618965 2.5498147
-16.953213 95.3154 18.214483
-17.6078 95.28674 18.82375
-17.697124 94.86661 20.76353
-17.670284 95.033104 21.71744
-17.278358 95.61145 18.170107
-17.363155 95.509224 18.336327
-17.627506 95.51532 22.472784
-17.422436 96.1588 22.941525
-17.428843 96.34561 17.97983
-17.736063 96.84264 23.084549
-17.03246 99.064926 17.946096
-17.348598 97.73335 22.731913
-17.072891 99.82915 16.532255
-17.506718 99.8917 17.87476
-17.343338 99.183914 18.657782
-17.082775 100.74024 14.890996
-17.110966 100.50839 18.982573
-17.292315 101.74973 14.992601
-17.506403 101.61274 18.604181
-16.831215 102.25693 18.739965
-17.575594 103.24032 17.18376
-17.044594 102.90725 17.981222
-16.677692 105.235 -1.085662
-17.748558 105.16374 4.8294067
-17.488777 105.01343 5.9227285
-17.259842 104.95427 6.0866485
-17.791477 104.84374 9.31022
-17.135515 103.87877 15.629357
-17.34206 103.81844 16.624727
-17.398987 103.660866 16.97028
-16.817324 105.96365 -2.1824827
-17.03072 105.879715 -1.3558326
-17.41173 105.81381 -0.33662865
-17.31932 105.61472 0.31573224
-17.320854 106.0849 1.1103693
-16.67058 106.740456 -6.1589108
-17.25175 106.700775 -1.9163072
-16.913794 106.46872 2.2330089
-16.731012 107.54206 -6.401125
-16.900995 107.44002 -5.790582
-16.810183 107.723755 -4.9805756
-16.914547 107.289894 -2.5984423
-17.451653 107.49694 -1.535291
-16.822811 108.22518 -5.9392204
-16.819967 108.69064 -5.4638844
-16.65981 108.685074 -4.3700185
-16.728935 108.33972 -2.1024697
-17.553589 108.23442 -1.3454051
-17.225693 108.75067 14.00904
-16.628466 109.41225 -5.794164
-16.715967 109.2889 -4.822794
-17.061434 109.321495 0.0054676235
-17.36732 109.23395 13.802784
-17.116226 110.46844 0.9234474
-17.584694 110.11881 10.322394
-17.46749 110.429955 11.280364
-17.150957 110.51035 12.312005
-17.399023 109.87846 13.233934
-17.869421 112.96287 1.6665792
-17.037823 113.421974 5.1826234
-17.500832 113.81284 4.3348255
-17.030167 113.72732 4.8319826
-16.685555 95.17306 18.226038
-16.326801 95.0104 18.602322
-16.568138 95.34344 22.172697
-16.386585 95.60885 17.903582
-16.679117 97.884445 17.429888
-17.012257 97.61698 22.8361
-16.184809 99.70009 15.000353
-16.34988 99.063805 20.802101
-15.720633 100.660286 13.543351
-15.718226 102.07631 12.727559
-16.532343 102.5322 18.56788
-16.178816 102.34396 18.892899
-15.78145 104.30663 -1.2664108
-15.87488 104.31333 -0.64038795
-16.49026 103.48093 14.127953
-16.570333 103.380104 17.599888
-16.68685 103.0761 17.936447
-15.823085 104.96119 -3.0304682
-15.848503 104.53186 -2.8336952
-16.227524 104.62318 -0.58220977
-16.002598 104.77917 0.34206215
-16.674767 105.358826 5.01701
-16.937439 105.17042 5.471448
-17.042488 105.18158 6.3451085
-16.323637 105.016945 9.1790695
-16.16411 106.03097 -6.0244117
-16.005192 105.79465 -5.741931
-16.040138 105.53878 -3.2413585
-16.849243 105.523735 4.324342
-16.433645 105.57548 6.495903
-16.34919 105.179054 13.926931
-16.036177 106.823105 -7.247454
-16.43918 106.597275 -6.30087
-16.485292 106.44642 -5.5067945
-16.647623 106.06087 13.715573
-15.676344 107.34667 -7.9524703
-16.12094 107.46091 -7.34196
-16.427223 107.12112 -3.9768028
-16.115438 108.10566 -7.2820826
-16.481604 108.50275 -3.5350149
-16.554747 108.714294 14.45301
-15.793682 109.22902 -2.1688728
-16.511118 109.767265 14.250111
-16.283298 110.50961 -5.435163
-16.704218 110.4254 11.097315
-16.880209 110.46545 11.439109
-16.451765 110.47477 13.550367
-16.0806 110.277 14.083841
-16.14233 111.46748 -5.606818
-15.705771 111.00241 -2.6777484
-16.549854 110.61478 11.654263
-16.292557 110.7538 12.438738
-16.1025 110.59753 13.55792
-15.761923 112.48552 -6.4970236
-15.954383 112.38736 -5.3187594
-15.990726 112.45487 -4.7998033
-16.289284 112.55064 5.4320264
-17.155134 111.94457 5.8188686
-15.72143 112.88138 -5.824155
-15.955134 113.05432 -0.29947284
-16.655361 113.40288 5.1535745
-16.130157 114.06195 0.6458843
-16.364622 114.32123 1.5280732
-16.303738 113.8059 4.8031387
-15.8835125 114.71349 1.1899581
-15.214299 95.330315 17.943422
-15.423542 94.99889 18.357098
-15.660329 94.70354 19.222376
-15.716268 95.61531 17.871946
-15.082612 96.80575 17.090998
-14.715498 97.936646 16.16934
-14.56492 98.45845 28.61694
-14.578679 98.40212 28.949106
-15.649947 100.92066 13.330824
-15.714163 102.566895 18.707489
-14.836208 104.39697 -5.228942
-14.969883 104.32471 -4.3909082
-15.110236 104.02443 -3.1716852
-15.171373 104.05175 -2.670098
-15.326995 104.08066 -0.5818609
-15.273682 104.26936 0.06947349
-15.680601 103.036415 18.143381
-15.194021 105.14867 -6.107074
-15.175438 104.75623 -5.36372
-15.478791 104.85531 -4.55548
-15.621314 104.37537 -3.1449342
[...]
POINT_DATA 1865
SCALARS features_00 float 1
LOOKUP_TABLE default
0.6450542 0.62963575 0.51992285 0.5786751 0.60480154 0.4741546 0.47206542 0.5065078 0.60892487 0.64640296 0.6665913 0.5514901 0.6028074 0.6512668 0.6394032 0.6378617 0.46249795 0.5271889 0.5889928 0.56995016 0.44839364 0.49061584 0.53716516 0.5398819 0.53473663 0.3437588 0.39782795 0.41226453 0.44653508 0.5352914 0.5292244 0.5250674 0.39274293 0.664276 0.6411869 0.61956227 0.57870424 0.44214952 0.37352955 0.73122835 0.7265073 0.68374074 0.58380055 0.3867271 0.84094167 0.8138616 0.7171306 0.641466 0.5201754 0.8178468 0.816954 0.7568406 0.51074916 0.53361493 0.592008 0.65719336 0.65555155 0.50268483 0.5831918 0.5634699 0.46694598 0.29998744 0.5081455 0.4977591 0.4372844 0.3515157 0.45997968 0.50586426 0.5835122 0.35031408 0.71910346 0.64753383 0.3862041 0.36416757 0.8012326 0.48370808 0.76947314 0.77571154 0.785076 0.7356801 0.61298954 0.7629849 0.7680509 0.6316813 0.76181793 0.83829284 0.7586235 0.84285104 0.8677869 0.5031813 0.6941954 0.711097 0.7751366 0.80776703 0.5896898 0.6747378 0.6855893 0.3518229 0.39167768 0.48422977 0.5718094 0.65035653 0.39296678 0.4238842 0.26718867 0.06220313 0.47983277 0.49719423 0.27901518 0.3868601 0.5472445 0.090326354 0.23983417 0.61430395 0.6018474 0.30755523 0.6965722 0.40795103 0.36514294 0.7351712 0.7309494 0.5988146 0.7223176 0.7068776 0.6874397 0.67484736 0.7482786 0.79423374 0.5320796 0.6738531 0.8527113 0.37808308 0.92103785 0.8180297 0.4731127 0.55125606 0.60530245 0.70268977 0.5274897 0.44632018 0.52759415 0.5420383 0.49626034 0.5169297 0.56087464 0.594847 0.5574789 0.5852607 0.5916156 0.55780685 0.4553256 0.31908566 0.5059172 0.3587138 0.4668605 0.46767783 0.34834653 0.3593224 0.37447816 0.37402213 0.33613497 0.2981339 0.3735736 0.3389063 0.41938797 0.5050359 0.15083654 0.20222825 0.40653855 0.2939533 0.248286 0.31499702 0.64329934 0.40827873 0.66473734 0.57138884 0.34390724 0.40281898 0.625861 0.7257873 0.3652077 0.37734735 0.78746104 0.8536558 0.35843188 0.8892567 0.1623971 0.7867351 0.3223889 0.29789275 0.19417644 0.36590397 0.39340073 0.4459409 0.5271527 0.4543416 0.5419724 0.46412155 0.37896848 0.47911733 0.43769196 0.43305048 0.29817557 0.54842937 0.5401357 0.5235139 0.31327784 0.3495563 0.35991204 0.36116898 0.36718133 0.4814279 0.31631723 0.32639885 0.4678486 0.40996325 0.30315736 0.18514617 0.29864594 0.3708258 0.28627717 0.21330138 0.16501108 0.26403248 0.48849186 0.2617792 0.21351092 0.10321788 0.53659296 -0.22233954 0.28310436 0.34427297 0.51632535 0.5883589 0.4781861 0.33090264 0.3148374 0.31801122 0.32381648 0.30051577 0.6706853 0.29566705 0.31913042 0.80645186 0.27760687 0.50346094 0.2197517 0.23883294 0.413131 0.37095714 0.42888936 0.41526118 0.34161237 0.4095717 0.43106046 0.33921418 0.3795051 0.4065812 0.4030502 0.4577067 0.45043647 0.41817147 0.028895188 0.48528528 0.45547146 0.2662232 0.46871 0.4035753 -0.041841865 0.56580293 0.49736375 0.42363143 0.04722546 0.58927405 0.55305624 0.20137833 0.51287544 0.13282512 0.5590848 -0.0030609518 0.6341255 0.20499326 0.4218861 0.4322431 0.66061497 0.670872 0.21729001 0.027446952 0.48207057 0.5824236 0.6704023 0.2824487 0.22782367 0.22384791 0.3110839 0.33302602 0.26899025 0.27260265 0.3202139 0.27098578 0.25452223 0.30464083 0.34632993 0.24053295 0.2548168 0.27249378 0.26257578 0.16795683 0.1795655 0.47388595 0.48604727 0.22087048 0.32713568 0.42017964 0.40848005 0.428869 0.44381607 0.4295097 0.41548312 0.31845027 0.47869456 0.41458672 0.3701944 0.3925696 0.39661878 -0.04280311 0.5912347 0.5615123 0.14200228 0.40662172 0.4032271 0.60081625 0.3487329 0.28559554 0.13315415 0.59524107 0.26957414 0.5895084 -0.016390592 0.5573694 0.4841532 0.13511798 0.06363652 0.015356913 0.64531755 0.5959517 0.20398815 0.06961857 0.42289704 0.6758959 0.39919144 0.15781952 0.559113 0.611404 0.66866446 0.679366 0.5506854 0.4833166 0.24263193 0.27320367 0.58722115 0.58207744 0.46793455 0.32560575 0.27664974 0.2870177 0.29657155 0.60956395 0.47573555 0.38057762 0.3396518 0.34113365 0.28991187 0.36862648 0.45844674 0.21419081 0.45451173 0.60674965 0.18340209 0.4125428 0.45400444 0.06140414 0.5163435 0.1837178 0.12766188 0.23165202 0.19019222 0.11869788 0.0037292242 0.47663224 0.47868574 0.5111274 0.6513815 0.27940398 0.51025367 0.5163556 0.5341811 0.6643683 0.30179337 0.21623562 0.39094675 0.29931056 0.43722832 0.43131754 0.4591514 0.49744573 0.47992724 0.43910038 0.39646816 0.47431752 0.44885486 0.36226007 0.049243003 0.5822926 0.5579437 0.60493803 0.601082 0.084082514 0.3075021 0.3278324 0.3307282 0.6035394 0.1461672 0.5173319 0.053045757 0.23751014 0.60025 0.5890448 0.5587308 0.6544264 0.66197276 0.49527448 0.58617115 0.62803537 0.661126 0.54682386 0.5332375 0.57369196 0.58027184 0.33163786 0.2784829 0.3236032 0.27320096 0.5911045 0.5984009 0.35075295 0.3995109 0.39952806 0.43694967 0.49232388 0.5778317 0.5643604 0.5669776 0.46130902 0.46509498 0.37001634 0.6274035 0.67155325 0.7097898 0.27008092 0.2377593 0.6489825 0.71319944 0.19653744 0.22259247 0.19574535 0.18018998 0.70945394 0.20373671 0.7360692 0.29976517 0.614285 0.644824 0.6896564 0.7186177 0.3307026 0.56597304 0.58546984 0.52562654 0.46993294 0.5531176 0.041125685 0.44000524 0.4387853 0.47520962 0.5053021 0.49624088 0.47144344 0.5127856 0.4784516 0.44201988 0.5753133 0.5236771 0.24690044 0.31743336 0.599819 0.58215845 0.17234665 0.6045345 0.49799103 0.4703279 0.5801555 0.24610716 0.5419277 0.52583295 0.31900766 0.4357216 0.61139727 0.59567416 0.5722548 0.6082634 0.6297884 0.6450944 0.330233 0.27200782 0.62614465 0.48935497 0.5561126 0.5478561 0.551359 0.48856956 0.52075577 0.4457086 0.28775403 0.0708873 0.48578936 0.5772382 0.5039259 0.43630797 0.51504374 0.5657003 0.6158138 0.611835 0.52613217 0.5473051 0.5452544 0.51761794 0.42621398 0.5072653 0.31423917 0.7546127 0.7213733 0.1294293 0.7164854 0.6747478 0.65600014 0.217721 0.72109103 0.72414696 0.686864 0.7010387 0.54683316 0.25385913 0.4256972 0.42486194 0.53726375 0.60947204 0.6369753 0.6541323 0.6705628 0.5703134 0.5968739 0.4284497 0.46416888 0.51151586 0.5157884 0.49106014 0.40506697 0.41549408 0.48969042 0.510098 0.2909416 0.5369994 0.3838579 0.3160528 0.5641654 0.3410458 0.36553764 0.5761873 0.56005466 0.38176572 0.3434621 0.50294477 0.51441747 0.4326375 0.5515038 0.5925054 0.18279012 0.29967812 0.42184228 0.24472627 0.3467229 0.2298491 0.5654423 0.5054711 -0.02839382 0.4036004 0.6302984 0.606158 0.23176727 0.3626364 0.46179968 0.65191734 0.63645685 0.44433028 0.47484073 0.5120306 0.5046222 0.4987855 0.69702995 0.65384394 0.63680065 0.59684247 0.71289283 0.7061827 0.58241117 0.58119226 0.57174146 0.55466765 0.58102965 0.5678835 0.54362994 0.65990686 0.7487997 0.7084955 0.31706065 0.6644527 0.3299997 0.32685968 0.5980419 0.63260555 0.39552003 0.30684763 0.68339366 0.7094489 0.6122867 0.6747252 0.69402343 0.50832987 0.64879286 0.6667919 0.6181761 0.56304246 0.51514155 0.50308645 0.6298735 0.6244229 0.301687 0.4512716 0.4907214 0.51388264 0.45298684 0.4033481 0.44547498 0.48416469 0.49767828 0.4688904 0.5747296 0.32608873 0.26012644 0.31586912 0.39819646 0.51443154 0.44285178 0.2820629 0.50764525 0.48640668 0.41353226 0.40602103 0.4179855 0.54369605 0.3356528 0.34398878 0.5102541 0.26630786 0.09562592 0.38630453 0.378071 0.52436745 0.46169257 0.2739705 0.17873423 0.61124265 0.2647766 0.59589565 0.36185992 0.4731083 0.43606174 0.44256067 0.3704331 0.14059997 -0.0022498742 0.5617457 0.5410792 -0.12822898 -0.1337917 0.6369843 0.62739944 0.60271823 0.46344626 0.51282865 0.48267782 0.6951681 0.646498 0.6102179 0.77035844 0.765878 0.7360035 0.6839593 0.78706706 0.5819875 0.571798 0.59114575 0.6273229 0.54993 0.48871702 0.50445235 0.53298765 0.54736745 0.6183149 0.28355104 0.5343675 0.48413292 0.3546849 0.57825947 0.51681775 0.6225139 0.6628723 0.5189959 0.6792189 0.6946254 0.6372044 0.6601254 0.68107855 0.5701761 0.5999732 0.57779515 0.28074777 0.53521216 0.548066 0.63672745 0.64609945 0.62289566 0.6471199 0.6648449 0.55917966 0.45397133 0.47368872 0.46993124 0.6061021 0.5418247 0.4000719 0.3256598 0.5716884 0.6043892 0.5559789 0.53753513 0.46738148 0.2737596 0.3759212 0.4678248 0.4831278 0.47953767 0.48013002 0.3971954 0.0066453256 0.39272285 0.4783018 0.5139263 0.5606487 0.52827895 0.5349735 0.46452188 0.45897105 0.592819 0.5550879 0.13608402 0.6187471 0.6190685 0.64506024 0.038447227 0.20704377 0.54961896 0.26915017 0.4538898 0.40891108 0.50547886 0.50042844 0.5561476 0.28055865 0.70473766 0.72101176 0.81471455 0.8318464 0.75906676 0.75845164 0.81414044 0.7977053 0.6756535 0.63320524 0.61621517 0.67710614 0.6236347 0.57483006 0.5147135 0.34972814 0.51611406 0.5189044 0.3662148 0.55735785 0.555586 0.3244416 0.42530975 0.6505462 0.55265486 0.58169866 0.61485916 0.5938387 0.55586773 0.6616898 0.6312299 0.23223945 0.4158259 0.5772593 0.5497334 0.43849525 0.39507467 0.36859387 0.30315286 0.38390368 0.55746794 0.5644428 0.6690371 0.6494869 0.62930465 0.65402186 0.6408379 0.6015591 0.6120268 0.58602643 0.5688932 0.13385703 0.51703966 0.23927154 -0.049252607 0.49932736 0.32426623 0.032723412 0.48370734 0.5300746 0.5085585 0.40320134 0.59466136 0.04965336 0.6324854 0.639272 0.59441876 0.5547557 0.43132293 0.41183132 0.32057482 0.29316986 0.4447248 0.45474643 0.70882416 0.6734266 0.76562834 0.82684016 0.8109795 0.7616216 0.7499636 0.8228623 0.8100632 0.6469529 0.6693567 0.7043481 0.7096882 0.6136602 0.65051126 0.65410227 0.60321176 0.24532345 0.25063717 0.27337542 0.21516128 0.24653783 0.27454817 0.18262608 0.21588258 0.28248858 0.61639845 0.31213197 0.35955343 0.2986599 0.61626744 0.63978446 0.59005356 0.47705865 0.43661296 0.39435628 0.370793 0.6363125 0.62935793 0.57801354 0.5220323 0.4100452 0.4731431 0.60139674 0.51202786 0.47393727 0.41654694 0.52690655 0.5663721 0.6459655 0.6299863 0.6212836 0.59246963 0.17666137 0.61081636 0.1848133 0.2663757 0.35032755 -0.055572115 0.020589903 0.5502739 0.45607322 0.03927598 0.6188829 0.032212175 0.0747806 0.6198077 0.55459297 0.54471076 -0.033628717 0.43005407 0.08763015 0.38858035 0.3459468 0.43513256 0.7119147 0.6593846 0.6246602 0.61226356 0.7923825 0.716053 0.7569196 0.67037964 0.67177415 0.60809755 0.47574317 0.43978003 0.42876804 0.4927379 0.37470716 0.32227337 0.22716871 0.43025696 0.39892733 0.4012453 0.5723247 0.5151166 0.43490237 0.53669864 0.6457063 0.6581355 0.6374574 0.5267601 0.62942505 0.3227199 0.26500905 0.5821649 0.21091309 0.14824246 0.0036396757 0.27808693 -0.06336595 -0.0848512 -0.09331477 0.45247817 0.52203935 0.5274784 0.51249766 0.31211627 0.35259467 0.4310669 0.4735719 0.44615006 0.5122542 0.5811347 0.66375625 0.6285229 0.6363078 0.5868857 0.489599 0.54754406 0.5893529 0.20949937 0.31619516 0.5078477 0.21016864 0.41484594 0.17815003 0.34713995 0.007964574 0.25919104 -0.091780424 -0.03614912 -0.10515997 0.09792442 0.46397462 0.46314657 0.19295263 0.55423045 0.56975216 0.54790986 0.22721288 0.55343664 0.5104532 0.4518308 0.3161865 0.5253062 0.5492153 -0.018803757 0.116078824 0.35509002 0.3680488 0.33946845 0.4689661 0.31257957 0.39118695 0.29299024 0.11714591 0.3085149 0.49127626 0.5340191 0.55643374 0.3157616 0.5795655 0.6011183 0.21242405 0.5863071 0.47475213 0.7579318 0.82749945 0.82330644 0.74580455 0.69730777 0.7857448 0.7949443 0.71517277 0.6486205 0.6881275 0.7422707 0.74635875 0.6442912 0.53603417 0.7055017 0.73710513 0.72006696 0.5870738 0.5218755 0.71832556 0.72331494 0.65972936 0.5597744 0.3744365 0.4195762 0.18820933 0.33210045 0.378847 0.38134325 0.3638107 0.3378077 0.23973574 0.28028196 0.007222183 -0.03196843 0.048073743 0.32122117 0.44913423 0.10072877 0.48356438 0.51563936 0.5605561 0.5597377 0.5893413 0.4527037 0.5992891 0.5923043 0.54810905 0.50651294 0.37178707 0.35765553 0.58304083 0.5017941 0.8059703 0.8334055 0.83124596 0.7033715 0.76861143 0.6324581 0.61520284 0.719411 0.70210993 0.57923055 0.68398106 0.68963206 0.42271066 0.70344764 0.7091648 0.42522293 0.7106116 0.71867996 0.7178458 0.48261052 0.47488004 0.70926344 0.63437223 0.4859749 0.20907576 0.15206166 0.2651885 -0.023249496 0.36530495 0.36615378 -0.07827146 0.13230547 0.13962942 0.24349234 0.37528616 0.12799653 0.43910903 0.4836508 0.55155826 0.31201965 0.59887445 0.52314097 0.39224532 0.5944444 0.5549606 0.3934511 0.33525613 0.4106402 0.48846936 0.5345203 0.3317135 0.7797555 0.8070962 0.80459654 0.6654074 0.77095276 0.7828698 0.55747753 0.76014876 0.46793133 0.71234703 0.6893767 0.3169624 0.69116324 0.69356257 0.3097615 0.69424087 0.69306684 0.64307153 0.43537217 0.27193367 0.03717996 -0.0738332 0.17223532 0.3594516 0.21186428 0.5376085 0.50298166 0.46508944 0.3127349 0.31643024 0.32105735 0.45387286 0.2545973 0.6096456 0.11077138 0.21893902 0.66146445 0.6561341 0.22837952 0.17768815 0.22211833 0.6112856 0.24889019 0.38383427 0.4975608 0.50591946 0.5378935 0.54191655 0.75041413 0.74149036 0.69828117 0.7547338 0.7450468 0.46685696 0.75631976 0.36077863 0.7415489 0.36320874 0.6623006 0.30471116 0.63358223 0.60350764 0.29394242 0.30183622 0.2602123 0.28362504 0.2481753 0.30008674 0.39288932 0.38042808 0.4272874 0.24396524 0.26766822 0.3223383 0.38798338 0.42666125 0.2625273 0.23797496 0.38619518 0.120012596 0.07492626 0.03176734 0.5613971 0.11444293 0.56856483 0.5651306 0.5589008 0.52109456 0.14454398 0.5472332 0.50924987 0.47704762 0.57288533 0.57402885 0.552312 0.6494835 0.6449115 0.65473986 0.36349916 0.3367079 0.31339929 0.5155101 0.6160324 0.6394136 0.368227 0.4628808 0.57552207 0.5972538 0.6114969 0.549215 0.55354106 0.71635056 0.6924268 0.7231762 0.6938275 0.6318391 0.6613966 0.7336769 0.6932739 0.24569273 0.7127446 0.25188297 0.5393982 0.2900375 0.4340549 0.30173448 0.1686649 0.28756002 0.26846313 0.29873204 0.32256114 0.22637512 0.27539223 0.3475322 0.3353771 0.38299036 0.3984998 0.3619306 0.4152438 0.4135553 0.40165314 0.21367726 0.20094797 0.36358628 0.22143763 0.21602207 0.20067987 0.19980933 0.3108728 0.18053728 0.26298732 0.36287123 0.34281725 0.1201442 0.4066545 0.34798902 0.22837846 0.1623092 0.3945902 0.3854664 0.25473338 0.43988094 0.5768664 0.5818242 0.5794984 0.1176945 0.5816457 0.23169783 0.5673509 0.6086166 0.56596506 0.4683129 0.3250599 0.32895762 0.32928067 0.59492093 0.6166043 0.63885343 0.47555506 0.5804529 0.21259627 0.393004 0.1208037 0.3333614 0.39356783 0.30895758 0.3611329 0.09648782 0.32519162 0.21449484 0.3509245 0.10189034 0.38425022 0.3671565 0.23723245 0.22084938 0.33710182 0.2262556 0.26272094 0.283489 0.22464177 0.21105435 0.15392607 0.32650355 0.27193785 0.2111376 0.3006809 0.2606204 0.3555399 0.32237464 0.31234562 0.29296324 0.3449179 0.34191504 0.19070418 0.326057 0.13726534 0.31730628 0.11166416 0.31847706 0.17843407 0.6380663 0.15764503 0.6135379 0.15538856 0.6309098 0.25366157 0.68561065 0.6670182 0.6936267 0.6391316 0.59704065 0.679743 0.1938448 0.30369127 0.45869586 0.3090588 0.4660111 0.49322557 0.46151942 0.42671618 0.033054702 0.382144 0.13167918 -0.008086678 0.36153674 0.34386224 0.33427992 0.2882221 0.3279965 0.24167317 0.27436152 0.37181312 0.33344272 0.26652202 0.46134892 0.35165948 0.27158952 0.26390114 -0.015822295 -0.06927327 0.21599539 0.25541255 0.1750642 0.7427782 0.21833114 0.7330848 0.25242478 0.22780508 0.76902044 0.24847466 0.75548464 0.7662462 0.5993787 0.5162373 0.71998537 0.64371073 0.59621865 0.5172191 0.57279605 0.70686245 0.7479637 0.41890806 0.77622175 0.3590297 0.76267433 0.3437221 0.74379945 0.13062054 0.5772638 0.5740747 0.07950905 0.55177414 0.01879558 0.30886862 0.091528326 0.34165475 0.3697275 0.2185962 0.32470176 0.37886265 0.3594946 0.30939102 0.25347856 0.6010742 0.5077613 0.32357538 0.5827614 0.317193 0.6104107 0.5583651 0.2968538 0.15891385 0.31081042 0.3547873 0.3270825 0.76949966 0.71087074 0.6642009 0.2811995 0.79843855 0.8040134 0.7648797 0.6902373 0.20226988 0.7957803 0.8207038 0.76128125 0.65208006 0.79947793 0.7793956 0.7068845 0.63885033 0.56979996 0.6823504 0.66307044 0.52556163 0.71310425 0.78076637 0.7991222 0.44476733 0.51598173 0.80565953 0.80509543 0.42578864 0.7882546 0.42882925 0.76942766 0.45458087 0.72941566 0.4034229 0.49279794 0.5839753 0.59089756 0.065390766 0.63659906 0.45373827 0.46865097 0.27539235 0.30730394 0.41337842 0.3938728 0.40258843 0.23907435 0.37329966 0.6052511 0.6325468 0.29115283 0.66168225 0.6371939 0.33039677 0.6727076 0.65657973 0.33770674 0.6963472 0.66167 0.336766 0.3470978 0.6041988 0.15687668 0.2891732 0.2818288 0.22695479 0.2737147 0.38857007 0.7712989 0.7884252 0.8099293 0.47361666 0.5605488 0.6965212 0.7878704 0.8165059 0.81645846 0.45162344 0.46368298 0.5133991 0.81634057 0.8063274 0.46159017 0.46409118 0.7893821 0.46035582 0.4280828 0.7800758 0.2563008 0.57350355 0.08297701 0.121619314 0.5479523 0.5895401 -0.06828211 0.6336396 0.32034546 0.03420132 0.395496 0.086156815 0.39729965 0.3730846 0.029874898 0.6147291 0.02742397 0.66673666 0.65841174 0.68150723 0.6996769 0.6956236 0.38930145 0.70456314 0.36124957 0.3941937 0.5256329 0.3202673 0.12918606 0.34743178 0.32268745 0.24417913 0.3756407 0.7308228 0.8029753 0.81366265 0.7375741 0.8054689 0.81729543 0.49838352 0.7571703 0.8122748 0.81281114 0.7922829 0.02463144 0.1276951 0.34215605 0.33308983 -0.10656062 0.60967803 0.6931819 0.6882802 0.28171363 0.3323592 0.7103802 0.7035775 0.37458116 0.65792286 0.59827125 0.36794654 0.37631646 0.59599364 0.2985656 0.32525757 0.3668208 0.39353865 0.28987283 0.2678052 0.3312514 0.1929715 0.18085559 0.22081585 0.20316255 0.28270736 0.43254796 0.4622035 0.24691254 0.44320863 0.26358396 0.36222273 0.46133116 0.40291655 -0.07822074 0.59549624 0.43002307 0.1306428 0.63128173 0.48985434 0.29933345 0.32557774 0.63843155 0.33750457 0.3523406 0.63863367 0.5673843 0.428999 0.3520239 0.3556544 0.2939501 0.3411962 0.39766628 0.3916445 0.36628222 0.3181918 0.3361299 0.44657886 0.47635087 0.19795087 0.49048138 0.5300596 0.21594606 0.52498686 0.32391393 0.5071944 0.3235254 -0.032334574 0.27602762 0.07806049 0.28984275 0.29881507 0.31089196 0.4123143 0.3985703 0.4452756 0.42817426 0.39458457 0.34060365 0.11922732 0.41350606 0.41533583 0.11988418 0.41641527 0.53477454 0.20288861 0.2874518 0.55591875 0.260607 0.35295302 0.6071551 0.37675428 0.6073513 0.5674504 0.3188618 0.49846643 0.10090654 -0.019168548 0.21479863 0.23811084 0.33947754 0.21498951 0.39374897 0.5368538 0.5244211 0.50639564 0.47958845 0.4375862 0.48690593 0.50758845 0.51514304 0.55342865 0.34689373 0.49087462 0.4779213 0.25162563 0.3388787 0.504778 0.55027616 0.5485626 0.36192814 0.58082736 0.4884073 0.58956605 0.5708158 0.5706595 0.5495015 0.49373028 0.39121848 0.4646455 0.1513284 0.1666347 0.5634996 0.5057355 0.44355923 0.57449234 0.5529203 0.5188509 0.5823527 0.58757544 0.59254056 0.54370797 0.5805638 0.24084525 0.52131796 0.5302208 0.51776344 0.5289396 0.59803045 0.50125605 0.5397364 0.6191482 0.58611554 0.5844836 0.48567683 0.52651066 0.5351697 0.48685053 0.43432176 0.4109308 0.113551944 0.05337417 0.10905221 0.2646331 0.35251826 0.19833446 0.46982253 0.47438198 0.5769298 0.5507362 0.5231242 0.55354404 0.5804879 0.5755843 0.561617 0.5389652 0.50315064 0.5421928 0.47453323 0.49421895 0.5900738 0.3850829 0.48651177 0.5081899 0.61789006 0.5993539 0.5339335 0.31509677 0.6057434 0.58140993 0.33844945 0.573651 0.47811663 0.44607586 0.43933094 0.19820075 0.03844876 0.41931722 0.4385028 0.53423536 0.5214493 0.5055563 0.5110568 0.47652802 0.29434323 0.5587593 0.38408297 0.5429286 0.21622223 0.32670736 0.13776362 0.29476815 0.29367813 0.2504516 0.16404372 0.16517396 0.16909894 0.5362042 0.51654655 0.5229521 0.31127876 0.5217775 0.28488526 0.6237695 0.3088298 0.6662046 0.6631743 0.59146374 0.54237527 0.58567286 0.59097236 0.57891446 0.5050028 0.6165304 0.6287769 0.6329726 0.68117476 0.37734398 0.43976817 0.7210346 0.7100377 0.36280093 0.46711656 0.56458044 0.74230003 0.6773095 0.44371015 0.6065396 0.6660334 0.7152174 0.740111 0.63512206 0.6534742 0.6990078 0.7220563 0.81832165 0.8117417 0.7529814 0.67434525 0.7560471 0.80821 0.7752687 0.6233264 0.70698285 0.75539076 0.7714199
SCALARS features_01 float 1
LOOKUP_TABLE default