# vtk DataFile Version 2.0
Really cool data
ASCII
DATASET POLYDATA
POINTS 6888 float
-19.731209 94.96158 27.83729
-19.970516 94.9101 28.643656
-20.006622 94.96127 29.1479
-20.096552 95.69826 27.978008
-20.276522 95.64059 28.439262
-20.104187 95.62306 29.29309
-19.77705 95.40637 29.821438
-19.976212 96.104515 27.859291
-20.197489 96.2892 28.635979
-19.966505 96.302765 29.41089
-19.778502 96.19925 29.759706
-19.760336 96.85432 28.126764
-19.793362 96.97601 28.658081
-19.760212 96.899475 29.20028
-19.714775 99.240036 21.951561
-19.668541 99.629715 21.066967
-19.942953 99.75485 21.510801
-20.04551 99.93847 22.320253
-19.701603 100.02406 23.24898
-19.858185 100.466064 20.935505
-20.189503 100.53489 21.642696
-20.179115 100.5206 22.312819
-19.800245 101.35751 20.992613
-20.083757 101.17165 21.635263
-20.00419 101.32602 22.382454
-19.820908 101.23457 22.983465
-19.788067 101.76807 21.676239
-19.733688 101.77802 22.21884
-18.803614 93.34872 27.548347
-18.955559 93.57616 28.165804
-19.1236 94.08364 29.690504
-18.707293 93.90764 30.388058
-19.098835 94.36419 27.255041
-19.544806 95.08278 27.416988
-19.243208 94.34502 29.548967
-19.37454 94.80735 30.03987
-18.876118 94.95096 30.621916
-18.746885 95.73219 27.012882
-19.332819 95.247826 27.518387
-19.21651 95.30833 30.291918
-18.83254 95.22617 30.699852
-19.127806 96.369995 30.24918
-18.643822 98.05254 24.264996
-19.400665 97.230415 28.131395
-19.512894 97.25007 28.439846
-19.226086 97.445435 29.306797
-19.06451 97.01699 30.003237
-19.236286 99.19552 20.796999
-19.291481 98.92609 21.4864
-19.035496 98.817696 22.633114
-19.047743 98.64604 23.11377
-18.885918 97.77345 29.343082
-19.045992 99.95092 20.213612
-19.33983 99.576935 20.703707
-19.60265 99.302185 21.331919
-19.387413 99.49243 23.46851
-19.145761 99.75206 24.241405
-19.11115 100.51477 20.150606
-19.478868 100.500984 20.502958
-19.544077 100.87147 23.622337
-19.050383 101.37311 20.174875
-19.355692 101.34032 23.568697
-19.157238 101.03709 24.13448
-19.030396 102.23853 20.815868
-19.128271 102.37517 21.509302
-19.324291 102.189926 22.086155
-18.799809 102.16782 23.310167
-19.01699 101.759995 23.833122
-18.727734 102.6525 21.89147
-18.737144 102.61177 22.452658
-17.680134 88.98808 27.09352
-17.644321 89.08769 26.081179
-17.71602 89.298645 26.489939
-17.642986 89.55989 27.352028
-17.607622 90.97305 28.054478
-17.6673 91.73532 22.07831
-17.792446 91.89752 22.603958
-17.90518 92.081566 29.49331
-17.76011 92.234 22.058878
-17.831247 92.23213 22.36437
-17.764565 92.26306 23.14919
-17.882196 92.879135 26.593988
-17.9609 92.370544 27.52779
-18.384941 92.787735 28.402119
-18.235918 92.79691 29.367962
-17.93746 92.88713 30.050228
-17.694494 93.32493 22.515028
-17.872364 93.67597 23.389774
-17.88795 93.702515 24.27792
-18.056293 93.68177 25.918177
-18.387825 93.88615 30.563623
-18.393803 94.099106 30.765516
-17.988016 94.63224 24.063509
-18.20066 94.66561 25.350502
-18.55809 94.545616 26.479729
-18.325045 94.637375 30.940174
-17.99481 95.20703 23.697113
-18.186882 95.671745 24.273205
-18.69999 95.792336 30.514288
-18.369482 95.42724 30.841688
-18.137682 96.28051 23.78818
-18.395153 96.2682 25.410824
-18.347382 96.67562 26.995314
-18.633621 96.16368 30.53478
-18.220964 96.333954 30.682571
-18.183697 98.16951 22.48443
-18.098223 97.14469 23.465801
-18.403585 96.98474 25.327805
-18.496407 97.27499 30.118113
-18.358772 98.892586 20.827553
-18.498695 98.50922 21.357645
-17.8632 98.0035 25.93495
-18.363333 97.982544 29.468678
-18.18437 97.70714 29.950207
-18.503132 99.826385 20.073515
-18.349228 99.60804 25.35498
-17.903347 99.08178 25.788246
-18.291454 100.56783 19.609985
-18.308205 100.83774 25.172136
-17.765276 100.464714 26.371584
-17.828835 100.94136 27.747967
-17.790598 101.06573 28.272694
-18.144005 101.19028 19.383482
-18.470533 101.41703 19.601494
-17.895117 101.467255 27.720703
-17.752888 101.58707 28.388618
-18.36541 101.99953 19.699018
-18.31604 102.13901 24.050272
-17.807512 101.92785 26.949417
-17.727242 102.21959 27.640343
-17.670355 102.09481 28.22311
-18.188932 102.967766 20.814016
-18.343132 103.05388 21.338161
-18.144617 103.050385 21.890848
-16.932533 87.97885 26.101
-17.209393 88.13819 26.682665
-16.98788 88.07135 27.259617
-16.73502 88.79241 25.024439
-17.268816 88.72711 25.660461
-17.474558 88.535934 26.535059
-17.495499 88.610146 27.11832
-17.151018 88.65396 27.774504
-17.15559 89.28576 25.235655
-17.536621 89.85809 26.005821
-16.95258 89.746704 29.125994
-17.096375 91.16577 21.784355
-17.406088 91.21003 22.370367
-17.001366 91.13791 23.65703
-17.263565 90.51681 28.697172
-17.125088 90.90524 29.688967
-16.932796 91.0797 29.859768
-16.899437 91.912285 21.22461
-17.30763 91.65986 21.693016
-17.47277 91.34356 23.13809
-17.234177 91.85421 23.967665
-16.90604 91.95327 30.462128
-17.046791 92.07564 21.334372
-17.249838 92.40121 21.491707
-17.525515 92.6614 30.376917
-17.167873 93.34486 21.80211
-17.6575 93.71984 30.85686
-17.05884 94.05246 21.97912
-17.613516 94.59249 31.10063
-17.555689 94.955956 22.768776
-17.641047 95.43511 31.010593
-17.489206 96.109566 30.834446
-17.501766 97.241234 30.241245
-17.617836 99.24636 20.349087
-17.835064 98.59963 21.260977
-17.656696 97.888756 29.860928
-17.565802 99.781944 19.882479
-16.974686 99.94157 28.344585
-17.426123 100.57065 19.372381
-17.467964 101.097374 28.867512
-17.856749 101.2071 19.306824
-17.258743 101.542534 28.964415
-17.750074 102.58797 19.95515
-17.572397 102.41501 24.204943
-17.380054 102.1599 25.427864
-17.463146 102.25231 26.768908
-17.465988 102.394325 27.534235
-17.365278 102.36044 28.396957
-17.083805 102.17577 28.910599
-16.82543 104.15033 16.562782
-16.963968 103.8096 17.407951
-16.763546 103.58796 18.344568
-17.410769 103.16329 20.659737
-17.620773 103.351685 21.613132
-16.908346 103.45494 22.449165
-17.056757 103.052284 22.994513
-16.990406 102.57802 25.683151
-17.14445 102.64743 26.784592
-17.193394 102.696304 27.568563
-17.01425 102.71699 28.306614
-16.748577 104.82556 15.936675
-17.164719 104.42883 16.855272
-17.367886 104.66735 17.448212
-17.173122 104.56844 18.369514
-16.791983 104.29096 18.806562
-16.77136 105.59277 15.532288
-17.27135 105.624374 16.774143
-17.357824 105.52189 17.383078
-17.29088 105.31214 18.080914
-16.791004 105.459465 18.838518
-16.730556 106.53154 15.214181
-17.035288 106.55019 15.665286
-17.14076 106.610725 16.461023
-17.150688 106.32882 17.287786
-16.819775 106.32421 18.23506
-16.866007 107.11892 15.770585
-16.923967 107.18867 16.363337
-16.780981 107.0388 17.334177
-16.633022 106.78381 18.252344
-16.085974 87.45763 26.865406
-15.96793 88.121666 25.103546
-16.468437 87.94528 25.647547
-16.414959 87.64754 26.37768
-16.284437 87.66472 27.21993
-16.117516 88.05365 28.095783
-16.248924 88.656006 28.48639
-16.0022 88.675354 29.031937
-15.9795 90.153206 23.01481
-16.066969 89.65615 24.469067
-16.6416 89.51613 29.471067
-16.308264 89.64347 29.759487
-16.483292 91.224014 21.355696
-16.282303 90.83371 21.531733
-16.395887 90.46817 22.169476
-16.39645 90.642136 23.633022
-16.397978 90.56265 30.249075
-15.836038 91.08083 31.001345
-16.369934 91.68506 21.025688
-16.27206 92.409294 20.831898
-16.104198 92.18078 30.89541
-16.046358 93.18543 20.997442
-16.944733 94.2274 30.987524
-16.523743 95.536316 22.28233
-16.666376 95.45078 30.903326
-16.081371 96.37512 22.332014
-16.611286 96.01647 22.509459
-16.351154 96.127914 30.469875
-17.055223 95.91928 30.892073
-16.550127 98.353935 21.861567
-17.161333 97.34877 29.96081
-17.14129 98.146416 29.12103
-16.635784 99.89179 19.782457
-16.460503 100.43649 19.586416
-16.552181 100.94414 29.307821
-17.030712 101.15371 19.168503
-16.30528 101.6505 29.42131
-15.875 101.75165 29.549343
-15.972322 103.31494 17.81921
-16.400223 102.28714 29.181814
-16.441961 104.04845 16.251768
-16.560886 103.79991 16.7314
-16.332836 103.60861 18.519327
-16.225601 102.83427 24.80369
-16.3446 102.68352 25.581013
-15.985947 103.100624 26.168268
-16.441525 102.99875 27.647778
-16.413223 102.82139 28.4737
-16.339178 102.6763 28.860188
-16.107193 105.06763 15.055646
-16.23828 104.49774 15.7774105
-15.744343 104.831856 19.939007
-16.562601 103.73094 22.197725
-16.19717 105.63574 14.91496
-16.21315 106.32344 14.784509
-16.60403 106.457146 18.53755
-16.486818 106.151276 18.98318
-16.257055 107.21118 15.111878
-16.522676 107.391525 15.5233135
-16.534134 107.51943 16.643023
-16.489317 107.40096 17.30271
-16.226128 107.049644 18.45314
-15.836688 106.98398 18.999306
-16.331364 107.634995 15.776876
-16.344269 107.699135 16.42867
-16.024876 107.71194 17.30871
-15.633928 87.3825 26.654005
-15.647817 87.431404 27.01823
-15.606161 88.12546 25.132326
-15.399802 87.73315 25.766867
-15.398055 87.63632 27.540443
-15.653605 87.89824 27.896687
-15.563704 88.40528 24.885561
-15.256758 88.61267 29.382885
-15.166363 89.13408 29.940409
-15.771943 90.35446 22.072872
-15.916071 90.47497 21.910952
-15.266405 90.88718 31.25155
-15.6729765 91.69673 20.905981
-15.23865 91.4998 31.42899
-15.677506 92.601074 20.764784
-15.308952 92.204056 31.343395
-15.410497 92.92745 30.892752
-15.263604 94.024185 21.48224
-15.764262 94.459 30.541084
-15.525177 95.046585 21.788937
-15.608497 95.46133 30.267515
-16.226166 95.76634 30.693352
-15.720789 96.15995 22.50767
-15.499423 96.14514 29.4602
-15.857272 97.78558 22.358503
-15.676677 96.91235 28.88885
-15.240934 98.971 21.029518
-15.483962 98.624855 21.505054
-15.804673 99.97127 19.765669
-15.338323 100.64452 29.304672
-15.094897 101.143845 29.669085
-15.584357 101.59886 19.131933
-15.403064 101.59278 29.705063
-15.26589 103.3228 16.92628
-15.556612 103.04309 18.543636
-15.417531 102.5531 29.408276
-15.0513525 102.09387 29.770538
-15.486499 104.275024 15.6364
-15.452435 103.62337 16.612307
-15.570674 102.881874 25.099182
-15.169327 103.19962 26.765068
-15.41666 103.254906 27.91983
-15.465162 103.062004 28.524721
-15.268249 102.74583 29.22787
-15.416186 104.94528 14.872295
-15.509135 105.521416 14.6149025
-14.826481 104.79708 21.091759
-15.383574 106.196815 14.430027
-15.359694 106.16659 14.537713
[...]
POINT_DATA 6888
SCALARS features_00 float 1
LOOKUP_TABLE default
0.53734565 0.7185718 0.7287358 0.693329 0.7808641 0.7741927 0.6588095 0.68659925 0.8020773 0.77141845 0.71715736 0.7335229 0.7749667 0.76537085 0.61794996 0.6416594 0.6615435 0.68043655 0.607052 0.68875396 0.7225678 0.7041589 0.72288465 0.7144456 0.62632775 0.5778161 0.62376463 0.5685476 0.27584943 0.42025197 0.4943893 0.46856523 0.28855532 0.438204 0.53818023 0.5667529 0.5487807 0.308502 0.4439729 0.58380747 0.55902445 0.6351513 0.16351303 0.6937913 0.7369617 0.72717714 0.67140853 0.60254896 0.59091085 0.5371273 0.46471643 0.67878395 0.60770124 0.6206691 0.62279534 0.53821886 0.41464722 0.6242931 0.65578866 0.5319972 0.67126703 0.49901026 0.44237274 0.613473 0.51740336 0.5051834 0.4048224 0.4272121 0.4336515 0.4007045 0.59253716 0.63114715 0.5913631 0.5121846 0.25847718 0.5943612 0.55768675 0.2805022 0.56982875 0.55419457 0.4951576 0.17655358 0.22017375 0.34154162 0.36477387 0.36023572 0.46979594 0.3101805 0.13052616 0.065334044 0.47337902 0.49539632 0.10272761 0.021457385 0.12776893 0.5275175 0.1411503 0.081528604 0.58211935 0.55804217 0.109477 0.03048054 0.30027786 0.5922678 0.58158994 0.43016547 0.110948995 0.02518706 0.6316247 0.5585567 0.5550529 0.037339874 0.6046138 0.6099184 0.57244277 0.14535443 0.06597833 0.56217444 0.2624835 0.23929314 0.5590954 0.63456094 0.5748751 0.6126635 0.59280103 0.661046 0.6473315 0.29319048 0.50439715 0.5966743 0.6471199 0.4932962 0.430399 0.36816517 0.72104347 0.6861396 0.66449946 0.6283429 0.6650218 0.65873426 0.63185936 0.5958791 0.5905576 0.51853514 0.4291658 0.6334106 0.6074658 0.5583375 0.33407617 0.3116697 0.31045973 0.6355833 0.62127674 0.57325685 0.4690143 0.3131287 0.62070376 0.59281874 0.32505834 0.5488959 0.45541525 0.49835116 0.53395015 0.3605949 0.56037724 0.5647728 0.5579492 0.49105525 0.5024771 0.5590843 0.48485082 0.5607763 0.46541262 0.68484366 0.5456915 0.69640994 0.60979235 0.1324453 0.18806162 0.46098316 0.5735883 0.65704167 0.6846745 0.5939218 0.6400055 0.658015 0.4359721 0.3472811 0.19006316 0.17490675 0.21738945 0.4238987 0.5510861 0.63610923 0.62073064 0.6677315 0.7110052 0.7042727 0.6962526 0.71412134 0.7203617 0.66912377 0.63879627 0.55463064 0.7233498 0.7296926 0.6497057 0.58705175 0.51020133 0.66903627 0.6223139 0.535246 0.47381663 0.6773444 0.68421483 0.7388103 0.7252318 0.65478575 0.5777 0.54559577 0.5302434 0.49567434 0.3845585 0.4650129 0.48315102 0.6583277 0.65530944 0.6187657 0.46842873 0.40299296 0.54099476 0.6572076 0.6564808 0.4819767 0.6105211 0.5067337 0.3026759 0.51810884 0.111167416 0.26340765 0.46632493 0.55244446 0.16482225 0.5226352 0.4657153 0.3393416 0.3033141 0.6501168 0.39981505 0.64568484 0.61604565 0.4731906 0.6451382 0.5288391 0.54177195 0.6286269 0.11963898 0.21426487 0.28593463 0.5274064 0.6209233 0.63097703 0.5921256 0.5378374 0.38700145 0.14591168 0.6454822 0.6599717 0.4678719 0.43681437 0.6504164 0.65687346 0.5832863 0.51520157 0.43444198 0.36814725 0.64079225 0.5969814 0.4764374 0.67388964 0.6445317 0.673666 0.70367825 0.5851521 0.57160276 0.62218094 0.5162651 0.5290819 0.60656583 0.62808704 0.64085644 0.6711906 0.6299882 0.62982523 0.6012322 0.5097698 0.3790593 0.35086244 0.30488673 0.330526 0.45399725 0.1318003 0.2902313 -0.016603723 0.3300596 0.1331553 0.123245925 0.1933746 0.5981328 0.5640606 0.013573276 0.58842266 0.2787366 0.27947563 0.57272065 0.5605801 0.43698668 0.35017085 0.14713377 0.30322418 0.4978916 0.54639935 0.5579828 0.51012075 0.55811965 0.02525504 0.5590639 0.5602961 0.5268824 0.3688757 0.28989932 0.5480954 0.51205534 0.5587999 0.37880868 0.6530179 0.64306337 0.5728533 0.51489824 0.49732363 0.49474746 0.50371903 0.5019543 0.556095 0.64819944 0.63056636 0.68594784 0.6736385 0.6617876 0.49610442 0.63037986 0.44738093 0.44473976 0.49295598 0.3718955 0.28730285 0.30575892 0.23661348 0.17923954 0.102900065 0.110432625 0.11831713 0.11456731 0.11374094 0.27268785 0.09113246 -0.027282845 -0.010338963 0.51560056 0.5965831 0.62972534 0.6275739 0.05891563 0.5283767 0.5263311 0.6528195 0.698081 0.7152324 0.19879133 0.46092063 0.49342862 0.70114243 0.7584286 0.7724701 0.76981384 0.3792808 0.027449138 -0.04549416 0.44454348 0.4713375 0.070692405 0.31823254 0.086765684 0.028208345 0.04132681 0.1720083 0.61487293 0.5541842 0.4996773 0.5562817 0.49560076 0.4858797 0.49905664 0.461667 0.538205 0.5936013 0.69256485 0.54803383 0.5162508 0.69592416 0.48265666 0.4987551 0.5928033 0.62902576 0.30506253 0.41421455 0.40136665 -0.0058526136 0.11609085 -0.00782045 0.017138377 0.23896542 0.0658616 -0.007623762 -0.07443844 -0.040847562 0.11969842 0.19440736 -0.089425325 0.10347374 0.11240469 -0.10582568 -0.14436178 0.09020526 0.0947492 0.08379407 -0.092902415 0.5268587 0.5428034 0.5488601 -0.023379525 0.069196366 0.53372717 0.54445136 0.5679043 0.58162 -0.06883126 -0.0067014704 0.5116682 0.5409372 0.546187 0.5793975 0.6117428 0.6235106 -0.057526745 -0.048217654 0.46050686 0.53540576 0.57346594 0.6225629 0.69904673 0.6910173 0.029185854 0.6068629 0.6677425 0.74517745 0.75874937 0.22097611 0.29537988 0.30112946 0.2673743 0.6398616 0.70516825 0.76782143 0.80387115 0.7975261 0.0996951 -0.022237249 0.27205777 0.35115063 0.12624347 0.09394203 0.13869917 0.101265684 0.06127 0.07197191 0.1532554 0.08266338 0.08126801 0.20670865 0.1800153 0.1371325 0.16611005 0.31769344 0.37817502 0.3555427 0.15338977 0.165519 0.24505787 0.4165097 0.4193737 0.4333647 0.20183592 0.21241535 0.27856812 0.42078036 0.45343107 0.3187675 0.32938886 0.2939481 0.39272255 0.36539882 0.3633737 0.5693421 0.57329196 0.53937614 0.48936716 0.5264318 0.58027756 0.47671634 0.47688815 0.5125451 0.5404607 0.5735706 0.47043043 0.5084927 0.57360744 0.49381953 0.45991224 0.5343789 0.64890766 0.17681856 0.22167994 0.2866355 0.48476833 0.5438383 0.5404042 0.527167 0.51935023 0.50375766 0.50605667 0.06125436 0.1867498 0.309911 0.34295136 0.563376 0.55259573 0.49265707 0.47201675 0.45318094 0.16166101 -0.024822433 0.24221289 0.56254494 0.55044556 0.4742277 0.5316175 0.079334304 0.040710762 0.006474346 -0.15908347 0.38055205 0.035858683 -0.026586037 -0.019517384 -0.1580733 -0.13398789 -0.14287193 0.45498365 0.45193964 0.4708351 0.47892362 0.48293507 0.047406342 -0.227365 0.22413728 0.50779897 0.51802766 0.49582905 0.5006001 0.19575721 0.15630674 -0.11393514 0.51421094 0.53130144 0.46746442 0.13611528 0.1327138 -0.0048562735 0.48713958 0.51330936 0.61151695 0.20390695 0.4706577 0.54349685 0.05443921 0.006494336 0.2947685 0.6898761 0.7555187 0.77789545 0.7899461 0.07141912 -0.048292816 0.25916693 0.32805622 0.3454458 0.27964392 0.6766329 0.73249614 0.14290679 0.15659145 0.15575029 0.14417966 0.12790506 0.15985253 0.15519495 0.19953305 0.28234267 0.5213128 0.4932722 0.4829629 0.13450684 0.13096425 0.112277076 0.16244775 0.22649907 0.45672137 0.57130474 0.57425463 0.5238992 0.059285816 0.36238268 0.28218478 0.48618338 0.5724817 0.5862484 0.5320968 0.15620685 0.42437187 0.49627078 0.4576949 0.51533484 0.5545363 0.5519775 0.15024738 0.2507565 0.43143237 0.47163922 0.46737924 0.3853864 0.46078336 0.50373966 0.52333105 0.3079793 0.33387843 0.28071702 0.20848069 0.25336346 0.36460477 0.4592395 0.35187867 0.40985096 0.43534195 0.3733704 0.28959826 0.22332212 0.5547924 0.58819395 0.5878363 0.52918285 0.395005 0.33037755 0.71067154 0.7202592 0.7281846 0.6669972 0.5176576 0.76785934 0.7679967 0.7105196 0.54464066 0.57723653 0.6140102 0.62348723 0.5513245 0.5343214 0.51023346 0.5461911 0.5648666 0.58080876 0.48987642 0.44538355 0.44637161 0.4621541 0.47979397 0.38105887 0.42496347 0.3500367 0.37709445 0.36433733 0.37855035 0.46446818 0.4511149 0.17620932 0.27671224 0.3118528 0.50314224 0.5195737 0.4331758 0.0949938 0.21513605 0.3234513 0.4903022 0.48853067 0.524126 0.47934866 0.15793589 0.06394599 0.2872072 0.4630482 0.5432228 0.38462323 0.2161015 0.21548446 0.3007339 0.3865105 0.17979725 0.3212641 0.49540967 0.41641027 0.35524964 0.14192288 0.09529735 0.35762256 0.1536343 0.14684646 0.30542916 0.32809746 0.29420495 0.14976494 0.18477985 0.17465226 -0.18827656 -0.20081297 0.122015044 0.42247355 0.09127562 0.1838752 0.19693066 0.1870874 0.15615997 0.17944394 0.13977051 -0.11858251 -0.117473856 0.4801919 -0.0093661845 0.1316735 0.16045927 0.14098214 0.19499439 0.10775408 0.04154571 0.19139937 0.4940372 -0.026154995 0.016966745 0.12406562 0.2259085 0.4173681 0.42562008 0.5108899 -0.0012502698 0.359701 -0.14922516 0.18436965 0.4192832 0.6202852 0.5812782 0.66407377 0.062862895 0.26878214 0.24715446 0.18936 0.09430261 0.30501658 0.30134693 0.4155816 0.08258238 0.12669595 0.3090689 0.23649989 0.33046067 0.44521037 0.34351328 0.135801 0.15146555 0.34975904 0.3821687 0.3828286 0.32764938 0.4459098 0.1434519 0.2894804 0.36710566 0.39922598 0.29628983 0.348087 -0.105645224 -0.076733105 0.20357877 0.19823746 0.3208922 0.51473814 0.44283384 0.2852795 0.23250175 0.47935468 -0.13320525 0.28897533 0.572739 0.5981921 0.5138157 0.3936988 0.3197728 0.4724254 0.08082013 0.10804327 0.45404968 0.41146243 0.6132888 0.6428229 0.6074336 0.4009278 0.34175283 0.3535734 0.4173563 0.11158958 0.41882458 0.4761724 0.47977218 0.61269486 0.61361074 0.5773361 0.47994757 0.26814666 0.246757 0.33928123 0.426979 0.17627664 0.19051027 0.56655645 0.53015685 0.5614497 0.55633247 0.2726141 0.20192131 0.60989 0.6660266 0.43483517 0.33074033 0.7281949 0.7554207 0.76304024 0.6586606 0.58936536 0.7344099 0.47533533 0.53122115 0.48718354 0.46732685 0.4298314 0.48557884 0.45533282 0.3912645 0.45926708 0.025000177 0.31752047 0.34768674 0.33541209 0.42948 0.030902753 0.528928 0.5166427 0.44804513 0.253344 0.22579262 0.36380056 0.071581535 0.31160066 0.5175061 0.4859647 0.44381493 0.26654926 0.17360821 0.06315803 0.15271953 0.35856575 0.2834535 0.48864213 0.42682648 0.31150776 0.028827786 0.14639646 0.25739384 0.28233543 0.2920652 0.1464367 0.1897788 0.16552901 0.03281452 0.16387405 0.12394154 0.18418583 0.35591668 0.30744433 0.0985645 0.08151469 0.06670709 0.07034481 -0.067447335 0.14121078 0.2176832 0.24759698 0.1830743 0.08439378 -0.17762284 -0.2670964 -0.3836981 0.1805969 0.31114566 0.30325443 -0.0021684691 -0.067709774 -0.30162948 -0.25897568 -0.26457533 -0.38810554 0.17418765 0.39366293 -0.0153911635 0.31325752 -0.12185413 0.007990843 -0.2255487 -0.05087496 0.20622921 0.22398636 -0.25273606 -0.30771154 0.049990892 0.11094421 0.058115575 -0.16226234 0.024013981 -0.27351302 -0.21662182 -0.09385826 0.16977558 0.09669362 0.17594254 0.1060063 0.05551431 -0.08648928 -0.20915356 0.019144379 -0.110842004 0.1584057 0.12464699 -0.0027084872 0.38339037 0.37768525 0.046144377 0.29349184 0.13960582 0.034960296 0.1973296 0.02506248 0.34631658 -0.0030295942 0.14356425 0.28597355 0.4301467 0.42830858 0.02598437 0.1097798 -0.23213416 -0.20915735 0.2605721 0.3870461 0.4372759 0.46150568 0.40394157 0.34394407 -0.23989692 -0.21204363 0.23785818 0.49203876 0.5027692 -0.18389644 -0.14730197 0.34850153 0.5133076 0.58048356 0.012567133 0.012806468 0.3329936 0.39896116 0.44130638 0.5839996 0.58744556 0.24776043 0.14417897 0.1749576 0.10373844 0.55816716 0.47823706 0.41569605 0.2424298 0.40101033 0.18303606 0.61441004 0.2881882 0.21978073 0.21575135 0.6160462 0.68815196 0.6076963 0.42774025 0.677021 0.41386366 0.41735834 0.41083035 0.4006437 0.4224663 0.4343036 0.4323873 0.41835666 0.39380065 0.27398372 0.41507 0.3732351 0.34279492 0.3995624 0.26217046 0.29220635 0.33214003 0.23112944 -0.008543555 0.15463233 0.52919704 0.053472437 0.16253968 0.53858674 0.5343389 0.42750537 0.21297225 0.53094095 0.26808682 0.25002903 0.5029524 0.5126032 0.26041424 0.3000798 0.3320413 -0.19224384 -0.13764623 0.0575374 0.14039858 0.1929332 0.23014602 0.062495902 0.29771662 0.24031395 0.08659102 0.12594515 -0.25440124 -0.37493014 -0.32779077 -0.09316273 0.09898277 0.08265933 0.09580537 0.20746739 0.036134504 0.12328471 -0.42426085 -0.37007132 -0.45804834 -0.43570846 -0.39045775 -0.40767115 0.17368627 0.16913728 0.016015813 0.19380236 -0.08611927 -0.2156133 -0.32047185 -0.3777082 -0.30064958 -0.4273167 0.2306298 0.19768046 0.27341944 0.30816254 -0.04810377 -0.1833081 0.19413827 0.5277182 0.3870857 0.2566265 -0.0031917766 -0.17573647 0.30441287 0.5231343 0.48855987 0.31980708 0.1397757 0.036165085 -0.20024152 0.50891745 0.45502737 0.3795722 0.350414 0.17160396 0.15952599 -0.26209903 -0.2929424 -0.14537388 0.50015163 0.5538279 0.14856708 0.15491182 -0.3186069 -0.21934736 0.1481557 -0.21286143 0.3136077 0.31299594 0.4341197 -0.03223425 0.13194436 0.26725945 0.38124818 0.4443608 0.38130742 0.2722096 0.2442294 0.45858407 0.42532757 0.39967006 0.3614997 0.31549248 0.47907856 0.5156771 0.5504678 0.08758418 0.077676624 -0.046694957 0.48820737 0.4180879 0.31506193 0.05139028 0.061027676 -0.07017843 0.06885336 0.036479656 0.49353546 0.6085239 0.5752394 0.5389176 0.47884044 0.3964483 0.5847406 0.4971648 0.6516671 0.6632063 0.68847764 0.514069 0.62399673 0.6910601 0.7215585 0.6902368 0.5832155 0.60011303 0.6146178 0.6480712 0.6185595 0.53683853 0.569107 0.59778327 0.58894515 0.38885874 0.41032058 0.40348473 0.38783506 0.4870236 0.33753347 0.34822565 0.38654202 0.5119642 0.4869985 0.470326 0.44966197 0.341268 0.33918604 0.45942357 0.46736443 0.4438799 0.25094825 0.10396735 0.53785527 0.5226369 0.01717871 0.034370523 0.53282046 0.5182599 0.18842143 0.10088846 0.20075695 0.294319 0.32690242 0.32658464 0.2030895 0.0052596927 0.22323161 0.36653256 0.3358267 0.38728356 0.2548358 0.1184351 0.1554186 0.27179876 0.31024575 0.25014144 0.11185258 0.056904476 0.041793145 -0.24659011 -0.29054266 0.2309761 0.17205608 0.11640229 -0.017008454 -0.20784685 0.17157948 0.14852329 0.09403324 0.1716979 0.15433875 0.13487314 0.25680807 0.27870163 0.1347197 0.31740275 0.5249857 0.4907422 0.40232983 0.15585043 0.3392899 0.5274135 0.540078 -0.08608113 0.52886665 0.5042402 0.63634664 0.66026765 0.3155284 0.34237027 -0.10900833 -0.1692247 0.21608678 0.50682986 0.6158335 0.6671264 0.2083289 0.60008967 0.6493872 0.69450724 0.25543743 0.06310965 0.05843423 0.21662018 0.26867837 0.12422936 -0.16178246 0.3259861 0.37447992 -0.03986443 0.23229936 0.31983525 0.34378037 0.24103495 0.39781466 0.39253968 0.44014764 0.4458223 0.45444816 0.4852996 -0.027289163 0.485242 0.48122686 0.29751697 -0.034372352 0.22998169 0.18922764 -0.16791393 -0.032665536 0.06813887 0.21014863 0.08169437 0.35211933 0.3935038 0.2255339 0.33497378 0.3664565 0.43902498 0.46372434 0.5162518 0.51832795 0.4940545 0.44088212 0.4000648 0.24029766 0.32596874 0.47695017 0.54560924 0.5644513 0.54671097 0.45705754 0.24874496 0.33211687 0.48340386 0.57208323 0.6489108 0.6453122 0.5261005 0.5512526 0.4756501 0.3559439 0.4066115 0.56908715 0.65421057 0.53513265 0.5565475 0.42461944 0.50843066 0.5188669 0.5591236 0.49330923 0.16131231 0.49660563 0.37860373 0.5479816 0.55612206 0.6782137 0.6746744 0.3803422 0.32195 0.37574217 0.6404885 0.62983596 0.5546324 0.44131 0.37075257 0.59393203 0.5616448 0.53598464 0.4120794 0.19541985 0.30366755 0.55492705 0.51143634 0.46210408 0.09074858 0.39404088 0.32244658 0.055411965 0.32129067 0.29559466 0.06443733 0.1747984 0.27738965 0.26364127 0.3679446 0.42546153 0.35204342 0.33567983 0.08204436 0.42588997 0.4953158 0.3475718 0.3529875 0.34212208 0.48206192 0.22862354 0.27831757 0.31880355 0.4192446 0.20176807 0.19590446 0.18285206 0.16505142 0.16672935 0.16408996 0.14596339 0.26610354 0.2764982 0.35090443 0.18215716 0.3070045 0.45350438 0.43477756 0.37476954 0.39476067 0.4670179 0.59804815 0.39621466 0.43231523 0.6655365 0.29724497 0.7206683 0.70116293 0.32748958 0.30061972 0.24854478 -0.07688233 0.43075532 0.6038635 0.6967603 0.7271785 0.37298498 0.33189625 0.06523919 0.37901956 0.38345304 0.12604254 0.1880638 0.26227814 0.30767348 0.14694454 0.23377416 0.1791811 0.28913388 0.32830495 0.16144836 0.40490252 -0.019917855 0.40980148 0.41201952 -0.055627126 -0.049651507 0.40883535 0.07878557 -0.05691141 0.069457635 -0.21521828 -0.20559071 -0.111827046 0.11650787 0.1604502 0.32652852 0.38303182 0.376177 0.4392869 0.20920669 0.10227333 0.57006645 0.4615199 0.1771285 0.23368284 0.64544624 0.47130054 0.08428221 0.16318062 0.18586722 0.23271906 0.3959601 0.5750609 0.6469053 0.6714208 0.43483752 0.055593245 0.16379926 0.20088243 0.42123258 0.5506691 0.6080451 0.39735284 0.41074774 0.07454546 0.029709347 0.07753408 0.17534207 0.19058149 0.3801608 0.24661489 0.231574 0.15124957 0.53073883 0.3885336 0.521454 0.39396834 0.60153985 0.7034538 0.70330775 0.6487165 0.55981493 0.637532 0.70965815 0.7345631 0.70100975 0.7392272 0.3261969 0.34373975 0.70569205 0.71927553 0.69236255 0.21426031 0.3227657 0.6397997 0.6639924 0.3981864 0.60209453 0.5959554 0.08186974 0.56260467 0.5304073 -0.0151483435 0.44183907 -0.05314356 -0.05181867 0.035569787 -0.11851473 0.03091237 0.12779585 0.033204623 0.22901239 0.28661773 0.50438845 0.62353075 0.37571138 0.3268972 0.21877456 0.12499536 0.5973761 0.62770617 0.25916433 0.3368878 0.585743 0.2152628 0.24959947 0.52855086 0.19099385 0.20815623 0.49881446 0.1857224 0.19430062 0.24393865 0.14275554 0.2380588 0.28782734 0.15619226 0.298866 0.32743114 0.36063415 0.35739982 0.33766067 0.36403024 0.5786781 0.23361158 0.6444145 0.2668414 0.21698447 0.6975943 0.68797374 0.34136057 0.27967548 0.1284878 0.6256347 0.71223456 0.71182466 0.37578738 0.17201373 0.38070133 -0.029398065 -0.13073134 0.03395053 0.12149754 0.24955639 0.34978884 0.31989467 -0.026193842 0.22023398 0.2360284 0.22572397 0.22718036 0.2318125 0.34663427 0.24983357 0.24681841 0.35320687 -0.02979391 -0.06308726 0.01936233 -0.006723404 -0.39154315 -0.30048475 -0.2749714 0.121302575 0.11332331 -0.42322242 -0.3377897 0.3431978 0.26872247 0.04459296 -0.3710485 0.51596797 0.4613983 0.30667052 0.16148809 0.61932856 0.549293 0.22179064 0.007854991 0.11954111 0.19740687 0.06795747 0.6395775 0.23649982 0.21749029 0.20822024 0.06227629 0.12778528 0.28435174 0.44050932 0.55636626 0.6159239 0.1822305 0.22211814 0.17783652 0.18324688 0.13768643 -0.07300839 0.18940103 0.20010948 0.065327205 0.3129451 0.27780765 0.31632453 0.4211951 0.42028847 0.31716597 0.5332551 0.6033017 0.6897752 0.5980979 0.433078 0.5888691 0.6320168 0.6390507 0.62399703 0.6058297 0.75048864 0.62777054 0.50378513 0.38626593 0.2617548 0.7482022 0.75342166 0.70925117 0.56832486 0.25372344 0.236936 0.68330365 0.74482054 0.23698121 0.6205874 0.6458799 0.09685891 0.22539964 0.3048099 0.5729785 0.21193825 0.2931046 0.49558434 0.43274903 0.21342297 -0.017136179 -0.22978856 0.21792376 0.42808646 0.51700526 -0.08474183 -0.13037014 0.33471507 0.56924295 0.60854316 0.618587 0.36662918 0.3652221 0.27418992 0.14299658 0.09594126 -0.05951567 0.62331206 0.6278548 0.23248346 0.2446096 0.27556023 0.65407753 0.17972049 0.6404971 0.52062476 0.16591883 0.072515205 0.052573726 0.05005774 0.22557032 0.079575375 0.048858114 0.33044714 0.4262346 0.44780347 0.11936082 0.5508559 0.5505909 0.22457471 0.5811168 0.6205201 0.3335233 0.31558123 0.41798484 0.6216087 0.36572772 0.3606246 0.32272255 0.36567327 0.37159476 0.361649 -0.2372979 -0.037789367 0.33802766 0.3923751 0.3004514 0.08712104 0.31212008 0.23620546 0.076437116 0.30641907 0.30972704 0.14273801 0.3364316 -0.013461478 0.23290856 0.320726 0.3752648 0.45200086 0.4663151 0.33425945 -0.3074836 0.19346981 0.47259763 0.47561997 0.32347214 0.11492206 -0.15054254 -0.3302927 -0.34480935 0.3311744 0.45141673 0.44368374 0.36809057 0.11150968 -0.1851499 -0.39617997 -0.18303649 -0.39875865 -0.33098075 0.39218485 0.45734197 -0.13859637 0.012454119 0.04036998 0.4695147 -0.060056634 0.5384311 -0.04542511 0.08785849 -0.08934269 -0.1383133 0.31513584 0.50477004 0.56053525 -0.12581654 0.1120626 0.075298004 0.14112331 0.24155363 0.07109887 0.068826616 0.22021478 0.21872073 0.22497077 0.34006542 0.25294548 0.05680582 0.21504006 0.40071076 0.2885196 0.19732773 0.34759012 0.4145825 0.41676235 0.30295062 0.22835833 0.34878457 0.51709634 0.68017995 0.6981565 0.6746404 0.65677434 0.6668378 0.6509199 0.62223506 0.56451106 0.63180774 0.17922696 0.7698876 0.7352215 0.6819045 0.18230785 0.22214444 0.69505215 0.7711513 0.6510569 0.38286746 0.12827465 0.34944904 0.6027088 0.66873544 0.56798255 0.0322483 0.37033314 0.28758347 0.3223948 0.38104406 0.