# vtk DataFile Version 2.0
Really cool data
ASCII
DATASET POLYDATA
POINTS 4816 float
-16.526506 20.034883 7.9323053
-15.807062 18.868584 6.9549108
-15.962866 18.724913 7.72055
-15.97558 18.870949 8.428703
-15.83735 19.085043 8.943189
-15.611218 19.969042 5.6433063
-16.06675 19.445717 6.864298
-16.352062 19.629038 7.6110473
-16.3259 19.657562 8.420337
-16.01799 19.686066 8.9965105
-15.748421 20.308226 5.9892483
-16.017056 20.579351 6.7409463
-16.352531 20.45571 7.572627
-16.319262 20.458794 8.474775
-16.041721 20.425978 8.984079
-16.075336 21.145746 7.736887
-16.037163 21.111835 8.375138
-15.878624 20.991617 8.866729
-15.1212435 18.150583 7.0072203
-15.479215 18.245975 7.7933893
-15.280191 18.350676 8.552202
-15.204892 18.802502 5.853223
-15.613829 18.886728 6.7188683
-15.468553 18.385738 7.2120223
-15.667366 18.410406 8.212351
-15.330888 18.70875 8.956966
-15.264958 19.60588 5.396114
-15.445168 19.630299 9.403677
-15.165803 19.80943 9.594397
-14.556159 20.636942 -0.47395238
-14.542519 20.17641 0.1713526
-15.086958 20.263756 5.035767
-15.420852 20.373205 5.462093
-15.436887 20.465874 9.395662
-15.132438 20.146301 9.605708
-14.618536 21.492424 1.902969
-14.560344 21.710583 2.2263188
-15.189458 21.092888 5.742942
-15.594091 21.305107 6.7916126
-15.684752 21.453245 7.568828
-15.622987 21.420065 8.504629
-15.358766 21.047943 9.089444
-15.056321 21.71759 6.772463
-15.1285305 21.699244 7.8511877
-15.291217 21.622187 8.223728
-14.8221035 26.128498 -4.2510695
-14.971874 25.97173 -3.4427269
-14.924809 26.03938 -2.6824317
-14.999052 26.63708 -4.1398168
-15.21604 26.747559 -3.5570748
-15.059027 26.606043 -2.6841094
-14.725608 26.418776 -2.0387866
-14.632296 26.987803 -4.7840047
-14.913732 27.244482 -4.1205196
-15.203478 27.140167 -3.4492376
-15.043266 27.229633 -2.8112435
-14.832702 27.827267 -3.3805854
-14.778206 27.876907 -2.9594612
-13.776596 17.182474 5.7311
-13.7416935 18.018414 1.8034511
-13.637718 17.814844 2.3455172
-13.589054 17.262907 3.1307979
-14.171108 18.010855 4.7191267
-14.472777 17.872475 5.4132915
-14.513403 17.84555 6.339984
-14.47839 18.098612 8.217327
-13.675798 19.125393 -1.1978487
-13.94436 19.013987 -0.2943311
-13.963438 19.024231 0.22135426
-13.891592 18.578203 1.2555581
-13.782832 18.74378 2.6202376
-14.006771 18.340397 3.5432818
-14.407218 18.406416 4.65039
-14.392231 18.87156 9.234707
-14.00696 19.666206 -1.1764201
-14.304323 19.699606 -0.5080554
-14.396199 19.62727 0.49505505
-14.186487 19.190702 1.4706806
-13.858058 19.1614 2.4901004
-14.324964 19.573053 3.6341524
-14.151737 19.34134 9.525343
-14.432626 19.669638 9.658599
-13.7858305 20.737022 -2.0431948
-14.258952 20.544886 -1.2300019
-14.399677 20.323814 -0.78770876
-14.429031 20.8794 0.91922235
-14.36957 20.646315 1.1425544
-14.127523 20.778936 3.3176515
-14.339861 20.664242 9.486496
-14.5944395 20.440296 9.624955
-13.924595 21.551357 -2.047434
-14.229438 21.397354 -1.2880708
-14.353389 21.245596 -0.77510786
-14.266774 21.619026 1.1534714
-14.104182 21.382626 4.8157396
-14.388684 20.957039 9.278168
-13.862556 22.468426 -2.1375465
-14.141347 22.145405 -1.5168161
-13.937354 22.344147 -0.6579088
-14.376338 22.305101 1.7617186
-14.373219 22.38519 2.2555168
-13.966906 22.559305 3.3130274
-13.847641 22.499176 4.644198
-14.542763 21.931824 7.5065093
-14.784157 21.566229 8.642232
-13.77284 23.018375 -1.4292356
-13.766523 22.94196 -0.762866
-13.864935 23.32843 1.5475842
-14.222007 22.93013 2.100727
-13.833546 23.029654 3.7131832
-13.920537 25.06905 -4.185516
-13.774741 24.921165 -3.3032632
-14.055952 25.124357 -2.7400453
-13.709061 24.788424 1.6276046
-13.822071 24.480944 2.2245722
-13.717771 24.648302 3.4626431
-13.705295 24.660858 4.159902
-13.534175 24.368456 5.040856
-13.6791525 26.15584 -5.7634
-13.901875 25.853872 -5.2301297
-14.487435 25.788147 -4.2871585
-13.664613 25.965792 1.8713729
-13.560904 25.407104 2.496947
-13.678714 25.345905 3.4732976
-13.555736 25.077444 4.2372437
-13.738271 26.632145 -5.926984
-14.0563 26.489475 -5.4522896
-14.044446 26.841677 -1.0191357
-13.762508 26.621695 1.468692
-13.708498 27.255123 -5.8497405
-13.992872 27.251978 -5.43912
-13.836771 27.45248 -0.03138583
-14.09156 27.734629 1.5325284
-13.610389 27.239952 2.563877
-14.138204 27.833292 -4.8060393
-14.229937 28.268608 -3.8630135
-14.41674 28.108744 -2.3453548
-13.8202095 28.43661 -1.8725479
-14.164512 28.343788 0.7375861
-14.133205 28.385439 1.5239434
-13.857316 28.572533 2.187712
-14.142971 28.639677 -3.2456572
-13.808122 28.655828 -2.4024904
-13.74774 29.018684 0.044681102
-13.687586 29.306614 0.65915096
-13.882952 29.094534 1.5112183
-13.6765585 28.954128 2.324537
-12.643942 12.137568 4.9955564
-12.6751 12.193937 5.173472
-12.72928 12.819338 4.115724
-12.83762 12.531496 4.700081
-13.001585 12.825656 5.4564276
-12.835504 12.705707 6.085666
-13.096962 13.506218 4.6931844
-13.129935 13.511726 5.532629
-13.065281 14.374599 5.593897
-13.029298 14.673667 6.206087
-13.033414 15.765059 4.684955
-13.4468775 17.038359 2.562025
-13.117183 16.404194 3.1483085
-13.356917 16.904785 4.3848114
-13.637099 17.219494 6.178939
-13.323607 18.134098 0.43929562
-13.377795 17.689596 1.3860326
-13.552085 17.906733 8.07838
-13.274007 18.851889 -1.2478209
-13.342068 18.467945 -0.17608672
-13.782199 18.708542 8.9433365
-13.261753 19.857512 -2.1242964
-13.542895 19.29619 -1.5350119
-14.098975 19.776587 9.627663
-12.921552 20.604897 -2.6617155
-13.426285 20.661528 -2.4274375
-13.719751 20.285465 9.4899235
-13.080749 21.375128 -2.8868003
-13.507055 21.591774 -2.6147742
-13.320905 21.437975 8.19143
-13.405267 21.638409 7.977649
-13.549157 23.162756 -1.2353432
-13.428157 23.29281 0.57848144
-13.067555 24.626822 -4.526448
-13.101186 23.936775 -1.751668
-13.006445 24.22185 0.7671
-13.305604 24.495203 1.39747
-12.9140415 24.867964 5.8061676
-13.183261 26.002436 -6.0279126
-13.461333 25.490091 -5.32488
-13.386042 25.32913 5.0723457
-12.821071 25.432592 5.785123
-13.301761 26.580238 -6.2180243
-13.469113 26.066086 3.751353
-12.861299 26.555685 4.651755
-12.751092 26.41911 5.151961
-13.155837 27.289757 -6.2286043
-13.163432 27.670288 3.125906
-13.0958 27.01581 3.832174
-12.994033 27.911503 -5.9016666
-13.4464 28.141365 -5.1084614
-13.617064 28.681105 2.685102
-13.363933 28.361757 2.8950179
-13.074994 28.66069 -4.043318
-13.384954 28.976448 -0.14547613
-13.497382 29.528242 1.7063006
-13.333879 29.291363 2.3867984
-13.13857 29.149847 2.70121
-12.666032 29.84175 -0.36072367
-13.11792 29.868765 1.5521007
-13.0664 29.710493 2.156755
-12.756834 31.713755 -2.6586637
-12.649142 31.53282 -1.5484397
-12.674187 31.871222 -2.8997736
-12.700978 32.1817 -2.3028438
-12.766874 31.935516 -1.9652113
-12.61589 32.46129 -0.5522589
-11.673453 11.279562 6.70751
-12.202188 12.176958 4.0468144
-12.365398 12.037314 4.6263056
-12.159891 11.682465 5.471174
-12.138333 11.7273035 6.3915567
-11.835698 11.720765 7.222061
-11.70731 11.9826145 7.8897634
-12.325665 12.630595 3.9121654
-12.279445 12.479471 7.1569343
-11.872522 12.661769 8.136088
-11.598647 14.198768 2.3513782
-12.343976 13.262109 3.5712452
-12.115579 13.243394 8.182533
-11.754354 13.564804 8.936485
-11.838407 14.886883 1.7453935
-12.525118 14.822026 7.626125
-12.195936 14.417826 8.353229
-12.17972 15.944288 1.3850467
-12.378885 15.129804 8.138941
-11.7420025 16.293755 0.26282632
-12.721957 17.22197 7.946946
-11.957507 17.960005 -1.2167252
-12.349578 17.81664 8.174512
-12.344351 18.491196 -1.5525271
-12.625028 18.30574 8.355284
-12.265477 19.890306 -2.8668945
-12.927489 19.486107 9.102966
-12.252473 20.532984 -2.847389
-12.862651 20.676998 8.573336
-13.051048 20.499815 8.750726
-12.166623 21.317656 -3.2855508
-12.89961 20.98668 8.388153
-12.304719 22.205875 -3.2487957
-12.396198 21.76813 7.3430567
-12.559575 23.4145 -3.117524
-12.513412 23.483608 6.194153
-12.789142 24.939577 -5.065971
-12.115951 24.741512 6.254671
-12.578403 25.867744 -6.029158
-12.44267 25.46922 6.064719
-12.6477785 26.604763 -6.4074907
-12.243582 26.453882 5.548908
-12.390726 26.075089 5.862211
-12.55404 27.300991 -6.3523283
-12.155643 27.311121 4.478091
-12.3719845 26.777233 5.14446
-12.617381 27.827246 -6.0198727
-11.824386 28.74264 3.476614
-12.4537325 29.395359 -4.0537577
-12.812936 29.526953 2.5890992
-12.585242 29.211332 2.9837897
-11.959738 30.287762 -3.9989738
-12.55593 30.912115 -3.2113647
-11.859077 31.238651 -3.9969509
-12.174309 31.483301 -3.565863
-12.432328 31.562185 -0.62887084
-12.320455 31.57778 0.23490363
-12.106261 32.51 -3.0759835
-12.405673 32.581898 -2.4423745
-12.515091 32.848835 -1.2566236
-12.4828615 32.466766 -0.24586248
-12.381096 32.408485 0.14599012
-12.166202 33.09735 -2.166648
-12.274717 33.376022 -1.3476453
-12.232159 33.4712 -0.65633386
-12.1340885 33.252228 0.07166508
-11.866861 33.969437 -1.3964797
-11.903734 33.96023 -0.7624457
-11.256431 11.258371 5.213271
-11.31225 11.096557 5.763475
-11.292511 11.02808 6.485119
-11.210296 11.187832 7.3351817
-10.8203 11.218954 8.108803
-11.783286 12.095993 4.0246153
-11.68599 11.62392 4.7503715
-11.178036 11.844683 8.431598
-10.999597 11.972831 8.955662
-10.711275 12.65054 -0.33342433
-10.696268 12.476848 0.2728771
-10.834386 13.00747 1.2513784
-11.280342 13.075893 2.937741
-11.588571 12.394184 3.6834733
-11.575019 12.562553 8.593957
-11.131276 12.883256 9.539059
-10.778751 12.772884 10.030064
-10.857501 13.223862 -0.20760444
-10.987729 13.420305 0.5247859
-11.0770645 13.480446 1.1986986
-11.379065 13.3383255 9.349151
-10.952016 13.530659 10.24239
-10.899324 14.208568 0.03178528
-11.201338 14.786956 0.6627825
-11.54488 14.356998 2.2639127
-11.449566 14.635308 9.601542
-10.891548 14.567552 10.421181
-10.807597 15.240455 10.452788
-10.724051 16.787298 -2.7909372
-11.066919 16.947832 -1.8132105
-11.517468 16.743973 -0.18858689
-11.142619 16.418322 9.187865
-10.873629 17.595316 -3.3671231
-11.347515 17.489437 -2.277943
-11.908585 18.056934 8.002277
-10.909836 16.872969 8.919235
-10.55667 17.404276 12.451642
-10.541056 17.848783 12.974639
-10.719363 18.85011 -4.7422915
-10.835178 18.647982 -4.4105034
[...]
POINT_DATA 4816
SCALARS features_00 float 1
LOOKUP_TABLE default
0.9015216 0.57279813 0.7230842 0.8419521 0.89523053 0.47995067 0.6491653 0.82097805 0.91821426 0.9259879 0.56005216 0.70876074 0.85175633 0.9211634 0.9192355 0.8070707 0.85320354 0.8786168 0.47122073 0.66759604 0.78215116 0.3651985 0.51293904 0.55811167 0.7625377 0.84228605 0.37673765 0.8726586 0.83486533 0.37979317 0.3443277 0.29669735 0.42917967 0.86776 0.83188975 0.16840917 0.15156311 0.42929748 0.6968668 0.76427907 0.8178916 0.84784484 0.66214275 0.74343574 0.771539 0.62556803 0.62570757 0.6054851 0.6529697 0.6576241 0.62279266 0.54571855 0.6475851 0.65545857 0.65576136 0.6243208 0.6211921 0.59650755 0.093424775 0.11838058 0.08296569 0.04583109 0.09674461 0.15931454 0.26063526 0.6770779 0.3465864 0.33042455 0.30075252 0.18824258 0.105551146 0.07505702 0.12844631 0.7060659 0.39602053 0.37848863 0.31221613 0.20294103 0.12633957 0.077887714 0.67693454 0.73356175 0.41137254 0.4269414 0.4039377 0.26863092 0.2555568 0.097284876 0.7180722 0.7587471 0.45099995 0.43781668 0.38851887 0.21026804 0.032540083 0.7276702 0.4209507 0.40963042 0.25915003 0.15574495 0.14664206 0.08409205 -0.012002371 0.68998337 0.7584393 0.23559797 0.16705634 0.07572246 0.12888235 0.06857905 0.5421424 0.48801684 0.5039419 0.07222012 0.09863169 0.1799187 0.25255218 0.34436476 0.658743 0.607838 0.59681934 0.12631372 0.12253114 0.23533456 0.3177014 0.685513 0.6512306 0.33133045 0.21080095 0.679708 0.6598544 0.24421355 0.39203164 0.32966614 0.6058137 0.5716222 0.5115755 0.34788215 0.44737065 0.44317585 0.406204 0.5268048 0.4159152 0.32937375 0.43383944 0.4522373 0.39939582 0.5223544 0.5271037 0.45386446 0.5065999 0.5196924 0.50488764 0.47036916 0.4792329 0.3491224 0.31655374 -0.034035657 0.061410505 0.05960661 0.012466047 0.14644265 0.19509643 0.10859934 0.4171182 0.2895155 0.25515643 0.54590625 0.3219367 0.3457778 0.68657374 0.25824666 0.34526435 0.6348747 0.27551073 0.37456137 0.47389227 0.47488362 0.1723713 0.015174726 0.43542308 0.13586137 0.021185867 0.07047844 0.4091715 0.664924 0.59638864 0.42013448 0.4136786 0.6974039 0.30512872 0.34664696 0.37566185 0.6804552 0.29898307 0.26998726 0.5767099 0.51252764 0.37408414 0.3436812 0.3242736 0.25701958 0.42811686 0.3853665 0.35099232 0.12064296 0.38743368 0.3696875 0.41986275 0.36868906 0.42313224 0.44528854 0.42535874 0.42755264 0.53242624 0.46168256 0.50191784 0.5334018 0.5251841 0.46984723 0.40535983 0.43360084 0.42352828 0.33878773 -0.030445471 0.31241718 0.29467368 0.27151257 0.0046211258 0.3084983 0.25517476 0.062086836 0.2374303 -0.011139233 0.12166659 0.034318 0.16918884 0.14450689 0.24089387 0.15362337 0.43466777 0.16436318 0.3722632 0.45825446 0.13454784 0.34817505 0.16050936 -0.1161052 0.17171034 0.1422636 0.50997454 0.3198501 0.62829924 0.39279372 0.6778214 0.35853335 0.38617474 0.64132017 0.21923184 0.33001536 0.56005377 0.14919233 0.09488584 0.32679775 0.28094253 0.107679725 0.3037335 0.23653403 0.34113938 0.33230975 0.28702855 0.42020142 0.4524651 0.46021545 0.42107055 0.39476863 0.46445101 0.48487157 0.48924184 0.46113467 0.49281728 0.5062016 0.48545277 0.53015053 0.5516962 0.5108152 0.47254166 0.43943688 0.48202017 0.39175445 0.36221743 0.41252643 0.40110004 0.22972862 0.14511022 0.38932872 0.33061934 0.3129628 0.32244518 0.34255028 0.25761375 0.15032825 0.29365194 0.3167477 0.19103469 0.054738276 -0.025714073 0.26522595 0.2907876 0.18714373 0.08530057 0.03281116 -0.061489858 0.1013859 0.17897114 0.07695265 0.1258204 -0.09918286 0.30341488 0.36651766 0.2881117 0.27626994 0.16020533 0.13714275 -0.017050572 0.17999619 0.10288496 0.03366515 -0.003849484 0.027825385 0.08014294 -0.06963652 0.004044302 6.4074993e-07 -0.0033134278 -0.05777861 -0.14372703 0.013138764 0.10262653 -0.06609631 0.395464 0.46803617 0.48883373 0.316908 0.6012593 0.33915126 0.575555 0.16149572 0.44053027 0.19787613 0.097642906 0.06775904 0.05480839 0.15185542 0.059931602 0.10978141 0.08077965 0.0074886717 0.33104157 0.3903759 0.07682986 0.37406522 0.41148606 0.26789773 0.3911683 0.4622609 0.49261323 0.41209134 0.39952445 0.4586215 0.5346528 0.5417213 0.49835977 0.49911648 0.49018064 0.45836544 0.41610202 0.37264132 0.42342776 0.3974549 0.34727734 0.45508167 0.44856882 0.33240098 0.31670883 0.27729806 0.32718658 0.32558557 0.32652068 0.0733334 0.15225792 0.2844615 0.008677844 -0.022856437 0.18635552 0.17436445 0.22264487 0.050004784 0.2780489 0.3797447 0.4528265 0.3225147 0.3063528 0.20017892 -0.10525976 0.05957871 0.2194017 0.35431013 0.41585702 0.46891218 0.46270153 0.3387957 0.33796048 0.18628928 0.3107571 0.46068895 0.45412457 0.2662997 0.15247202 0.3655814 0.38627064 0.19024321 0.0010212623 0.012585586 0.0777614 -0.01065319 0.051493645 -0.04925601 -0.13777804 -0.15563804 0.100813344 0.10883412 0.415168 0.14471073 0.24403006 0.55010295 0.5303571 0.56436443 0.2979971 0.15578207 0.59942734 0.665506 0.66028476 0.12446518 0.040325172 0.10801184 0.028724618 0.32537815 0.20306005 -0.0024986016 -0.010294426 0.20039344 0.08555111 0.08961593 0.08878067 0.09960724 0.22294202 0.16771598 0.17557004 0.30467266 0.35942405 0.36097938 0.29942802 0.22712176 0.27144414 0.36978954 0.39163703 0.415648 0.34352702 0.5709111 0.55023617 0.47668743 0.34907582 0.46810865 0.5219494 0.5038917 0.46872705 0.5539407 0.54806066 0.53461576 0.479735 0.4011559 0.27096337 -0.038155925 0.017481364 0.16082418 0.40020487 0.33581653 0.4864161 0.43588507 0.2993934 0.32815123 0.36210752 0.26006174 0.25768316 0.15295292 0.0055205747 0.42603135 0.40980214 0.3216287 0.43622875 0.4011358 0.31608865 0.42781788 0.400239 0.328275 0.16435924 0.18472068 -0.04204744 0.06547064 0.20302877 0.01229503 0.025887266 -0.07273081 -0.08792765 -0.052953355 0.13910821 0.16675708 0.23151793 0.25035635 0.09513235 -0.06352641 -0.046484727 0.29459682 0.32114413 0.36598217 0.39695305 0.08456165 0.18938273 0.5285715 0.5262018 -0.15724784 -0.14359234 0.39120248 0.49520618 0.6738726 0.64223015 0.59229934 0.72362727 0.7067344 0.68246114 0.086614415 -0.0015825704 0.2653633 0.41002488 0.39059803 0.44132733 0.44282663 0.3953631 0.1742554 0.20910987 0.2205912 0.39095706 0.25816786 0.24974869 0.29323435 0.27623644 0.39838704 0.38383704 0.34332317 0.38376492 0.38854492 0.36197448 0.33657157 0.4213739 0.4180391 0.61473525 0.61660457 0.57913315 0.53733 0.4261523 0.06938864 0.38045406 0.46733552 0.48009843 0.6053133 0.59960604 0.33373985 0.029150002 0.084386125 0.3789681 0.5118077 0.19632174 0.40001035 0.30219442 0.062087066 0.6715205 0.6444467 0.61405265 0.08541736 0.1988208 0.6731585 0.6543207 0.6072727 0.20652974 0.14486344 0.33734256 0.22029305 0.32487968 0.25021517 0.31908077 0.18320975 0.17276153 0.08875846 0.10880208 -0.015179321 0.06719037 0.028716505 0.10645246 -0.0006901175 0.13895622 0.1575909 0.17555629 0.18320002 0.25992614 0.2868783 0.17833269 0.36134678 0.1575034 -0.027520675 0.45578295 -0.05088751 -0.10522121 -0.0657095 0.03291159 0.12599431 0.060815945 -0.05823566 0.08188345 0.64201653 0.5803648 -0.029804852 -0.055778228 -0.010997377 0.07184165 0.00040455535 -0.04239059 0.3361649 0.69857466 0.67022794 0.22087105 0.6520585 0.7065519 0.6910991 0.6587546 0.3183443 0.0035097525 0.44273123 0.09392611 0.08617136 0.29572278 0.5011709 0.47775868 0.17260224 0.18605152 0.3399521 0.38961506 0.5139798 0.4480419 0.28575847 0.42582637 0.24695137 0.13440625 0.32274505 0.39937347 0.32768768 0.35566354 0.4268005 0.45382285 0.4461649 0.39718908 0.39489913 0.3778742 0.36609656 0.40693283 0.61609256 0.64975905 0.6465833 0.612965 0.51549315 0.08889602 0.10060917 0.15794015 0.6423535 0.044477787 0.089561224 0.10492002 0.35513598 0.28413016 0.5751984 0.024998955 0.15200919 0.15948805 0.39032364 0.12822637 0.14389703 0.6490082 0.62767833 0.59895295 0.022289531 0.04747699 0.696818 0.6774529 0.6447525 0.60571736 0.032396466 0.05601781 0.13219488 0.340888 0.39804655 0.69075143 0.6943585 0.64877975 0.3625995 0.4476071 0.64329 0.64873147 0.58800125 0.34844834 0.4508841 0.18065803 0.21127471 0.35383087 0.1423801 0.0781449 0.11740498 -0.0025672168 0.039187245 0.1211547 0.024052799 -0.035524767 0.1578064 0.17532101 0.14997289 0.23332661 0.18086168 0.32102585 0.16673733 0.33343983 0.118059985 -0.047473248 -0.0062221065 0.5219072 0.013721708 0.004150085 0.5697886 0.24505952 -0.25586197 0.5292878 0.5693848 0.6143459 0.45297614 0.33996642 0.001017645 0.0263003 0.1681546 0.13740803 0.5107076 0.1612368 0.4759789 0.55681753 0.653782 0.7186105 0.575535 0.6236341 0.6145778 0.71451676 0.7615409 0.6230932 0.5666503 0.27949065 0.4428935 0.572983 0.68904227 0.30211583 0.33263227 0.28191876 0.40860683 0.42745575 0.4219063 0.464868 0.42778444 0.39024377 0.3727686 0.39557898 0.6467077 0.6356131 0.5970782 0.65646404 0.65113974 0.5625033 0.10455474 0.14789738 0.28122544 0.68394744 0.6458958 0.63738394 0.22694024 0.39946714 0.3324306 0.2961559 0.47448376 0.60466695 0.07148778 0.3180979 0.2209925 0.21203123 0.18361934 0.52891207 0.5409298 0.5594043 0.5041091 0.5912944 0.61605835 0.5244664 0.032718733 0.056598462 0.05783284 0.16097395 0.38460433 0.6162169 0.6552361 0.45408815 0.12737447 0.16394162 0.3452623 0.43040633 0.65239656 0.49841303 0.52224517 0.574116 0.5673023 0.0993126 0.45839128 0.49999887 0.48742244 0.48682192 0.356048 0.1239997 0.40788463 0.44213113 0.12638372 0.31165898 0.06491061 -0.027550101 0.19627032 0.17489246 0.12192632 0.19349986 0.19408807 0.2053938 0.2238568 0.21337306 0.24239601 0.09182985 0.27442878 0.34543535 0.60727084 -0.4675882 -0.5355651 -0.106369026 0.025241848 -0.1504284 -0.16847591 -0.22994374 0.39643174 0.2822174 0.35235688 0.5532246 -0.059317473 0.0717842 0.21727423 0.6277294 0.6914982 0.6523696 0.745894 0.78223073 0.7120167 0.79818875 0.8091439 0.7131857 0.68073183 0.4744932 0.6540599 0.75142914 0.8028218 0.6648633 0.4110015 0.34382114 0.35288158 0.6145059 0.47045586 0.3974398 0.37176314 0.51640344 0.4684968 0.42639664 0.38696814 0.37286907 0.6304604 0.6283798 0.6289108 0.59785485 0.27119637 0.20131998 0.14577147 0.2491418 0.70431423 0.7459651 0.7150782 0.6515554 0.59857845 0.29183984 0.52406204 0.48012805 0.39499605 0.4625119 0.45456672 0.39103872 0.41462016 0.2854492 0.2976553 0.49452472 0.48441288 0.49128217 0.14134608 0.17012389 0.14569157 0.52696764 0.53446805 -0.14039549 0.5642195 0.50384754 0.5727647 0.51679766 0.41827142 0.5137435 0.3763194 0.36423165 0.31407154 0.29100963 0.4343401 0.15774116 0.07061834 0.1199282 0.26933 -0.058972858 0.029622292 -0.065158576 -0.19597411 0.16775072 0.13898647 0.22654706 0.17826071 0.08447303 0.48614928 0.4970442 0.3231203 0.064809434 0.5177282 -0.3408941 -0.41915035 0.12190686 0.8702849 0.025357448 -0.24946448 -0.41135758 -0.07988453 0.14311425 0.13369377 0.69817996 -0.1142945 -0.36559254 0.70483637 -0.17323834 0.6992582 0.043114603 0.22464323 0.79425615 0.70879686 0.70187044 0.29417834 0.82278454 0.8196235 0.7167591 0.70975554 0.5973542 0.79263794 0.828496 0.48523182 0.28845754 0.13853917 0.35431805 0.4042127 0.40060717 0.4774516 0.6553343 0.74942476 0.5079144 0.4126683 0.5276868 0.48389646 0.45482004 0.4250636 0.46955553 0.44256914 0.36528105 0.7664361 0.77228826 0.5543215 0.38556835 0.2954402 0.22762509 0.7107616 0.7702327 0.76596665 0.7174494 0.58578503 0.5079044 0.17964625 0.59356785 0.5608476 0.34778798 0.35962763 0.27696252 0.06801516 0.20639537 0.017409235 0.28929743 0.48367193 0.45459968 0.4566312 0.19284225 0.21687782 0.0981166 0.045052823 -0.075809725 -0.26100743 -0.55668575 -0.45552754 0.23443769 0.34611017 0.36672127 0.48720503 0.4087831 0.40509528 0.49599218 0.41962296 0.47753602 0.41308993 0.44701448 0.45617998 0.32854438 0.20653471 0.37026778 0.40083897 0.21466842 0.21878721 -0.03783314 0.33139843 -0.13198337 -0.011038572 0.19335195 0.058865167 -0.047067642 -0.040240236 0.09764727 -0.043091364 0.027502429 0.108549364 0.27052537 0.3619004 0.25985074 0.3637957 0.44449747 0.32492632 0.53895175 0.55750835 0.2645445 -0.3374285 -0.35821834 0.03219209 0.22493508 0.39246455 0.5880182 0.6146473 0.6672863 -0.07210009 -0.27792683 -0.35928196 0.09959329 0.06914923 0.36582994 0.5552042 0.6142836 0.6955509 0.7051571 0.40088418 -0.3033495 0.08162707 0.06538396 0.09033844 0.66190016 0.69634044 0.7014551 0.69062984 0.1203782 -0.40926686 -0.3548156 0.68423235 0.672142 0.30183396 0.36598366 -0.0158524 0.615672 0.67812085 0.65580386 0.589167 0.37897596 0.3040812 0.39821115 0.43858963 0.010293663 -0.13614413 0.6940689 0.73916656 0.6643808 0.61426836 0.38131174 0.3112547 0.07688776 0.060107484 0.09068841 0.7656695 0.7914146 0.6598631 -0.023513734 0.054031163 0.33996803 0.44405955 0.5939174 0.75550026 0.81265235 0.5326021 0.5536734 0.26793355 0.118175134 0.3129901 0.4162909 0.48734993 0.6200319 0.73064876 0.5673042 0.57295996 0.5323804 0.46306056 0.41563386 0.50325257 0.46606153 0.4723733 0.45146087 0.3937034 0.46407917 0.38958448 0.17148316 0.7401997 0.78268695 0.7864696 0.74362874 0.12037337 0.13572526 0.6614149 0.5525802 0.23885627 0.0848119 0.055134345 0.026772235 -0.3197547 0.5344571 0.40564647 0.46087486 0.4245066 0.065524116 0.0578222 -0.080148995 -0.24511041 -0.32499984 -0.22450863 -0.6020652 -0.57338786 0.11910342 0.24516267 0.28826767 0.31480363 0.46406916 0.30181745 0.33560008 0.4579072 0.3015135 0.40032172 0.25855187 0.29963288 0.10984621 0.47440347 0.0670876 0.46914226 0.41231588 0.06166994 0.34815925 0.2511635 -2.285093e-05 0.052110516 0.20879358 0.049456846 0.2918564 0.25996876 0.4307034 0.35104227 0.50502634 0.48644054 0.33805543 0.04489352 -0.175122 0.61072916 0.37600103 0.1558671 -0.0049456693 -0.1313592 0.71787983 0.49832636 0.5672521 0.7338735 0.7442558 -0.026656881 0.6264658 0.6909061 0.7407206 0.62827206 -0.07519502 0.62518835 0.6102241 0.47785038 0.46274674 -0.28504845 0.27152 0.0021793395 0.6022419 0.5151758 0.5906629 0.3959741 -0.016372599 0.39045182 0.5913918 0.69383967 0.43363115 0.2581009 0.061778538 0.18512224 0.24932033 0.3253358 0.45049164 0.6002384 0.6987747 0.6435 0.36452642 0.14267467 0.20211212 0.29183123 0.35950303 0.43176502 0.5571057 0.6996961 0.6099842 0.6309224 0.6412121 0.6304188 0.5059314 0.6059945 0.61579007 0.56683725 0.4546581 0.4405916 0.37965328 0.4014697 0.2795123 0.21816656 0.2599411 0.052323986 -0.11303277 -0.037692174 0.6559446 0.6645448 0.5022255 0.34871808 0.29272926 0.16257052 0.11732003 0.1548235 0.12480583 0.06228006 -0.038877998 -0.21803266 0.532838 0.4033434 0.42667288 0.36714277 0.4649534 0.38272893 0.0011574998 -0.026418965 -0.17674553 -0.566641 -0.52570796 0.40992355 0.11372212 0.16600683 0.26526946 0.46268585 -0.22855276 0.45467758 0.22954012 0.4168313 0.23791412 0.15646322 0.35045007 0.46389222 0.16090822 0.49107122 0.104936376 0.45777762 0.11266596 0.35586986 0.42764592 0.43202743 0.51724184 -0.24392697 0.520463 0.5869166 0.57791495 0.028611071 -0.30749166 -0.19114086 0.59071994 0.67067075 0.6428606 0.593634 0.506704 -0.09818904 -0.09808101 0.72727096 -0.024118815 0.16511026 0.042727936 0.46934605 0.7682599 0.20185424 -0.020507716 0.63302255 0.73142207 0.78259945 0.7844155 0.27658153 -0.04142367 -0.0774443 0.14178136 -0.20153806 -0.20434968 -0.009222683 -0.041805074 0.69848895 -0.22059822 0.067672 0.10411951 0.28405505 0.30331394 0.76395917 0.7982583 0.69312537 0.26795638 0.73264027 0.7367024 0.6961418 0.6695757 0.68075335 0.6825769 0.6333152 0.6583363 0.6767915 0.38071626 0.494387 0.6207489 0.65409404 0.6845119 0.32915598 0.11466293 0.18175592 0.47019985 0.5553535 0.60429555 0.66248685 0.14983766 0.12702554 0.3627428 0.47378886 0.3544456 0.3398658 -0.008095603 0.05772394 0.00982308 0.09903839 0.4603475 0.37998897 0.30558896 0.28386882 0.2657714 0.10345956 -0.14631012 -0.124838136 0.47380406 0.39563128 -0.04711415 -0.31791452 -0.5356336 -0.12499851 0.077385135 0.16972262 0.4927359 0.2587277 0.35507914 0.40310252 0.48836613 0.4697911 0.36543092 0.41767776 0.32185972 0.3604905 0.34088403 0.24882333 0.30864456 0.3592227 0.32900593 0.33229178 0.43125707 0.23781186 0.21264938 0.43770015 0.39050713 0.17201295 0.36660224 0.31243438 0.3908466 0.70062053 0.65184975 0.49171564 0.7187227 -0.47744995 0.5200822 0.73773515 0.7352389 0.5104399 -0.08732716 -0.072680935 -0.0652163 0.12144852 0.65256274 0.7376727 0.7038429 0.63964236 0.12196692 0.12471257 0.8190155 0.752059 -0.10436293 0.025799163 0.08369924 0.79168904 0.24142152 0.31260318 -0.010102202 -0.02638343 0.38068712 0.005488228 -0.17486951 -0.011278652 0.0064102784 -0.00070152804 0.51160175 0.09991327 -0.03635192 0.54302895 0.65062654 0.68550277 0.69108224 0.6781637 0.25671798 0.04622814 0.047983423 0.68568933 0.6710615 0.6673931 0.6305403 -0.07970668 0.48608172 0.44145 0.42969817 0.41823238 0.41109097 0.0052966624 -0.03358337 0.48932463 -0.010607373 -0.027309041 0.075671054 0.5137261 0.10595667 -0.0879312 -0.12551776 -0.053497817 -0.17010313 -0.0901283 -0.10172127 -0.23661862 -0.1725399 -0.035177402 0.43082505 0.5211892 0.52097434 0.17236468 0.48745453 0.49159658 0.47869205 0.43763453 0.39332938 0.4008203 0.2688442 0.41433483 0.25414756 0.19562456 0.38783884 0.25685203 0.24977203 0.33597296 0.3371473 0.25639343 0.24268314 0.3207398 0.18194234 0.17682366 0.11890932 0.17179137 0.23888996 0.1749421 0.6052344 0.7330974 0.72168165 0.2881494 0.76739025 0.78041273 -0.077667624 0.16439985 0.51169 0.8001587 0.8027358 0.69416165 -0.044264283 -0.053350993 -0.05224519 0.47351307 0.7579769 0.77319133 0.70385313 0.65840316 0.13876067 0.025802538 0.11729913 0.1704196 0.057411917 0.6534842 0.20025012 -0.08309103 -0.12521206 0.26860225 0.33240318 -0.064534366 -0.061335836 -0.023175297 0.38274956 0.25838807 -0.0016032141 0.5599065 0.5988679 0.40280926 0.2026853 0.63146055 0.55356306 0.55860734 0.3923854 0.6456466 0.6756902 0.6557487 0.6635908 0.36596984 0.4359112 0.60283 0.29396284 0.49942392 0.49875283 0.46937793 -0.042219758 0.40189928 0.55955815 0.537959 0.52588636 0.48516 0.47160527 0.46599862 0.032487284 0.17040417 0.27922237 0.18029219 0.30685163 0.34574997 0.5645097 0.33394653 0.044946574 -0.067534 0.12043932 0.123022825 0.5827863 0.021914102 0.36801288 0.45729887 0.53531086 0.5510146 -0.38271284 -0.1468086 0.21359584 0.54826754 0.47656852 0.50237167 0.46599495 0.3771928 0.32382947 0.44483495 0.12948446 0.05526384 -0.10081572 0.40622646 0.09867617 0.28936294 -0.033932783 -0.22031693 0.17121843 -0.042032573 0.16524681 0.0006881058 0.19696659 0.23339702 0.23404092 0.5485164 0.2653033 0.75307405 0.6942216 0.26939234 0.78614646 0.78675425 0.7335665 -0.20451468 -0.3590602 -0.10319315 0.80687976 0.8099797 0.78955734 0.71734405 0.6021401 -0.11166595 0.032584988 0.12219321 -0.22639096 -0.36888242 0.14921798 -0.17165364 0.054588214 0.03405294 -0.081516914 0.23822576 0.27987015 -0.0356017 -0.004845711 -0.0337241 -0.08071931 0.32011798 -0.0067935633 -0.025746131 -0.051878817 0.48571348 0.56557 0.63712037 0.6204562 0.66673803 0.63698316 0.6334182 0.6259799 0.6392678 0.60186636 0.5607981 0.24561246 0.53920174 0.54981065 0.5290052 0.5630017 0.46283364 0.09823223 0.18139443 0.31821054 0.47222763 0.5073751 -0.023204777 0.02573765 0.031190544 0.29011834 0.39055154 0.5886756 0.5794912 0.5644752 0.5342588 0.5146414 0.5272738 0.10590338 0.08487427 0.09354675 0.34298077 0.40025577 0.6038233 0.016855553 0.6146799 0.6383761 0.07979627 -0.06936325 -0.15175721 0.46425584 0.5154378 0.58326495 0.3936172 0.5184542 0.5373975 0.49576968 0.47705376 0.44800907 0.3424666 0.3980375 -0.2237671 -0.0797821 0.3559741 0.32142407 -0.20569849 -0.23898818 0.16790234 0.18471298 0.2228789 -0.04978071 0.2414436 -0.08492936 0.23098308 0.23254994 0.6750052 0.20417601 0.74837095 0.61018866 -0.27358183 -0.1971342 -0.06273877 0.055089697 0.19797584 0.22434843 -0.26892275 -0.6185554 -0.0025146753 0.30160642 -0.03569034 -0.030277748 -0.0032080542 0.01654454 -0.043722104 -0.33485538 0.3450653 -0.020760749 -0.026894301 0.2672463 0.37650314 0.42751813 0.4771152 0.5458924 0.4790219 0.36303356 0.47306052 0.49356288 0.58117425 0.6264068 0.6069083 0.55463135 0.3332414 0.3913237 0.423917 0.4342451 0.446392 0.35988477 0.38508347 0.42360145 0.4201302 0.4247136 0.39543587 0.4100938 0.71700406 0.7234543 0.7028665 0.65715647 0.6952568 0.57054794 0.52225447 0.27669123 0.35794657 0.46013224 0.23906179 0.40012836 0.18652304 0.27752453 0.07185037 0.14466962 0.37464