# vtk DataFile Version 2.0
Really cool data
ASCII
DATASET POLYDATA
POINTS 4990 float
42.448288 37.056366 21.99216
42.407337 36.963207 22.451174
42.431786 37.42301 21.759724
42.39613 37.460636 22.379208
42.434734 37.378777 23.044687
42.426247 37.933662 22.54842
43.4363 29.80242 13.519513
43.44396 30.522045 13.1425085
43.34272 30.514788 13.626042
43.335384 30.461447 14.386158
43.384384 30.945938 15.445485
43.346485 31.398808 13.771777
43.275 31.533962 14.3693285
43.410797 31.796616 15.291878
43.38853 32.34823 13.833102
43.335667 32.49649 14.56086
43.3484 32.400837 15.353152
43.452507 32.516453 16.291948
43.384777 33.135178 14.6175165
43.362064 33.000378 15.435238
43.033653 36.02082 21.823751
42.96985 35.85884 22.407719
43.049725 35.87205 23.141336
42.84629 36.943325 21.17185
42.671436 36.796734 21.576735
42.573906 36.556835 22.479603
42.73372 36.68721 23.33257
43.030277 36.848854 23.82445
42.924988 37.52801 21.084513
42.589703 37.57239 21.545332
42.635384 37.504467 23.392418
42.963367 37.50549 23.843824
43.03774 37.977337 21.151783
42.85394 38.18666 21.654392
42.756695 38.291695 22.452898
42.82417 38.13645 23.246937
43.10323 37.979195 23.832432
43.23386 38.678024 22.005718
43.13199 38.711807 22.505495
44.069992 28.985806 12.854392
43.843723 28.890211 13.550706
43.958046 28.78041 14.2689295
44.03723 29.093298 15.062367
44.28984 29.40061 11.859734
43.653267 29.573006 13.003365
43.569866 29.494894 13.443114
43.560963 29.519743 14.313215
43.77874 29.760828 15.400619
44.195816 29.766132 16.261927
44.303673 30.08644 16.790565
44.01782 30.343058 12.193153
43.62203 30.36183 12.767482
43.643757 30.179813 14.7857065
43.717464 30.301413 15.663801
43.943962 30.56266 16.485851
44.23111 30.675062 17.204567
43.798813 31.512508 12.787997
43.552322 31.63478 13.318482
43.55729 31.475658 15.558984
43.647285 31.493443 16.549576
43.860554 31.843254 17.246813
44.2861 31.295023 17.74825
43.795044 32.557632 13.103069
43.634315 32.609783 13.421371
43.569546 32.572533 16.357006
43.869137 32.557194 17.262392
44.24212 32.865444 17.680079
44.053745 33.103813 13.097471
43.762196 33.405937 13.662995
43.60306 33.634495 14.296039
43.79483 33.507217 15.756991
43.705067 33.38263 16.223354
43.993908 33.304386 17.156939
44.01357 33.957478 13.981302
43.922318 34.13651 14.397065
43.95642 34.087284 15.295526
44.145172 33.87143 16.304895
44.037952 35.191296 21.338058
43.937477 34.755573 22.69659
43.774582 34.974903 23.200617
44.15164 35.542915 20.938662
43.443214 35.474415 21.741932
43.539177 35.361866 23.449018
43.761703 35.657803 23.869446
43.85023 36.547962 20.847479
43.617226 36.61804 24.117033
43.526844 37.523148 20.802702
43.60196 37.45027 24.19444
43.402992 38.353836 21.21614
43.374817 38.514244 21.46021
43.543552 38.522778 23.540602
43.5141 38.094196 23.938976
43.777157 38.831474 21.734112
43.587044 38.925472 22.596615
43.624283 38.766453 23.22453
45.069965 27.996063 11.062751
45.100674 27.892265 11.385958
44.70155 28.12299 12.692165
44.514404 28.195625 13.577728
44.61269 28.366566 14.334792
45.152386 28.468098 10.766724
44.528183 28.656235 12.317992
44.35197 28.563604 14.606139
44.632362 28.712523 15.178858
45.216103 28.801569 16.069605
45.376797 28.901007 17.146627
45.28467 29.662619 10.295865
44.925194 29.435867 10.871766
44.560463 29.468754 16.335737
44.765537 29.82909 17.385649
45.03938 30.110586 10.810052
44.382484 30.464867 11.858005
44.935814 30.536385 18.071043
44.7309 31.070597 11.852228
44.78544 31.504011 18.310692
45.324413 31.618591 19.087673
44.363213 31.940691 12.402996
44.45826 32.32969 12.605707
44.548325 33.172855 12.897733
44.594757 33.713047 17.604858
44.67725 33.41403 17.903769
44.55636 34.429096 22.18994
44.40979 33.80344 13.259816
44.55119 34.160805 13.748153
44.382446 34.43562 14.319657
44.36344 34.446075 14.988205
44.652317 34.01037 17.265024
44.657024 34.61169 21.679667
44.38179 34.63346 23.162163
44.63627 35.00577 23.930016
44.52701 34.525276 14.634713
44.89122 34.632618 15.194301
44.38689 35.408924 24.05909
44.493965 36.806602 20.613413
44.67224 36.481873 24.470638
44.81648 36.09364 24.549665
45.2326 37.063187 20.125608
44.71417 37.560642 20.70387
44.545 37.055866 24.430634
44.602085 38.122967 20.961836
44.380657 38.232613 23.94514
44.438457 38.998596 21.942722
44.45828 39.04925 22.64617
44.448673 38.862316 23.234005
46.350193 12.057504 8.984503
46.314423 11.990006 9.667599
46.354313 11.977823 10.235889
46.301426 12.486463 8.729341
46.175014 12.594425 9.390985
46.212128 12.574193 10.238887
46.292534 12.744392 10.877181
46.34147 13.288612 8.630674
46.199623 13.418276 9.576429
46.200523 13.317528 10.460507
46.34621 13.718627 11.078184
46.484127 13.91712 12.161644
46.300087 14.161859 9.591283
46.34463 14.270167 10.638483
46.41926 14.090817 11.396796
46.113113 24.065191 18.015738
46.06398 23.896425 18.59118
46.077465 24.031458 19.28233
46.29036 24.106321 19.679758
46.474476 24.890554 8.476947
45.971878 24.52073 18.014757
45.826572 24.453663 18.56239
45.902775 24.476824 19.237741
46.17749 24.695404 19.721695
46.403778 26.085672 5.0868807
46.362366 25.947605 5.5004663
46.345165 26.046013 6.085733
46.20974 26.11742 8.72955
45.898136 25.223152 18.587046
46.008385 25.194485 19.323496
46.20177 25.036621 19.754833
46.43023 26.499172 4.870575
46.266853 26.410746 5.5656905
46.03359 26.588509 7.747012
46.140152 26.510849 8.364106
46.06635 27.056341 9.273515
45.961002 26.652561 10.450182
45.987938 26.958296 11.550407
45.580227 27.391 12.324012
46.415752 27.134153 17.415606
46.172573 26.018986 18.641027
46.320686 25.771202 19.530407
46.430344 27.418306 4.9308395
46.298088 27.52613 5.5274606
46.21555 27.225609 6.4599633
45.95586 27.121723 7.6869454
45.942795 27.216406 8.695002
45.965843 27.198004 9.704868
45.704205 27.339363 10.297771
45.583843 27.36551 11.367725
45.58051 27.651703 12.606307
45.445015 27.816566 13.224477
46.107315 27.741251 14.068029
46.06721 28.112253 16.943491
46.25408 27.312767 17.509163
46.111347 27.659643 18.280037
46.326298 28.390635 5.8034616
46.157356 28.379389 6.703898
46.327732 28.540388 7.613711
45.74377 28.69055 9.735015
45.43948 28.78855 16.625757
46.191822 28.55609 18.92633
46.47025 28.925377 26.7627
46.45668 28.94879 27.117289
46.4334 29.217981 6.7089105
46.354206 29.285795 8.926676
45.94245 29.290531 9.44973
45.80888 29.763952 19.143436
46.143524 29.853895 19.885714
46.445885 29.222948 26.726423
46.424618 29.114769 27.067682
45.751232 30.219185 10.180165
45.516327 30.351871 10.445417
45.679028 30.439056 19.432436
45.963276 30.776037 20.374306
46.340992 30.984793 22.096758
46.046303 31.189924 10.80093
45.26203 31.293531 11.78954
45.626293 31.196386 19.506805
45.8135 31.266417 20.43464
45.486782 32.452553 19.00552
45.708134 32.11313 19.887064
45.173405 33.314575 12.941142
45.65096 33.705776 18.055119
46.426785 33.632572 18.966265
46.28864 33.446663 20.251188
45.44786 34.292046 21.8983
46.070377 33.929207 22.602514
45.43584 34.385815 23.158033
45.44386 34.110153 13.686514
45.682465 34.442417 14.3911
45.90807 34.451984 20.408596
45.468468 34.631245 23.322311
45.435406 35.026814 24.0568
45.108967 34.550415 14.518505
46.07029 35.507652 17.412855
45.801495 35.86436 19.441845
45.55956 35.52285 24.457155
45.64504 35.862408 24.6732
46.41749 36.663372 16.691067
46.22934 36.34093 17.597235
45.82098 36.44965 24.80185
46.448696 37.237476 16.53653
45.892677 37.148876 19.780252
45.303036 37.69159 20.441034
45.449516 37.528004 24.387218
45.88568 36.89734 24.75941
45.39085 38.501797 23.508696
45.985916 37.881744 24.195553
45.796352 38.57519 21.884027
45.127335 38.936886 22.76262
45.401062 38.73087 23.187813
47.071087 11.357515 8.832641
47.024826 11.2143755 9.4941
47.091072 11.259537 10.242499
47.041157 11.962044 8.026642
46.67664 11.785648 8.695192
46.587906 11.579604 9.587949
46.58001 11.789059 10.384057
46.950394 12.103994 11.361815
46.717873 12.717828 8.015129
46.48973 12.392868 8.451404
46.513317 12.613901 11.184389
46.905384 12.762336 12.380287
47.113712 13.06722 13.311589
46.691364 13.20714 8.060011
46.492287 13.509203 8.376261
46.53721 13.925842 11.678097
46.573185 13.559644 12.448046
46.795097 13.734687 13.142859
47.283276 13.762375 14.239059
47.03878 13.998989 8.049781
46.76538 14.352905 8.682335
46.557297 14.600803 9.548492
46.546745 14.57555 11.246326
46.66379 14.20693 12.599275
46.736576 14.20372 12.978838
47.222977 14.184435 14.051186
47.168037 15.264279 9.036216
46.804024 15.203433 9.600181
46.65539 14.959828 11.505218
47.02786 14.892363 13.012256
47.212353 15.666935 9.766255
47.36655 17.996923 12.703702
47.14538 18.861048 12.539745
47.320953 19.878092 10.552627
47.17688 19.222052 11.89495
47.11645 19.471376 12.501833
47.23199 19.409473 13.018542
47.266376 21.101011 8.917887
47.188683 20.52792 10.5747795
47.31395 20.605753 11.5968895
47.1965 20.165665 12.362635
47.2424 22.034119 7.9184003
47.231857 21.75002 8.395903
47.06562 21.522488 9.6785555
47.298798 21.45001 10.639842
47.264538 23.087227 2.957297
47.22478 22.899206 3.5052483
47.261696 23.125336 4.517484
47.085114 22.293888 7.83623
46.966724 22.35083 8.601619
46.98059 22.476881 9.422645
47.289433 22.637684 10.277967
46.605618 23.43145 18.631214
46.853664 23.339756 19.083431
47.21419 23.532627 2.9030612
46.98941 23.750383 3.564171
47.083603 23.442911 4.2167125
47.264286 23.682085 5.4344616
46.843933 23.329325 7.939517
46.793808 23.606312 8.314538
47.06876 23.591158 9.654488
47.243805 23.276726 10.108197
47.095768 23.953762 17.18535
46.557125 23.882095 17.623446
46.456512 23.529978 18.860748
46.6175 23.594795 19.333643
46.745487 23.938524 19.86784
47.199512 24.57197 2.6741517
46.928978 24.60662 3.4854565
46.9606 24.22302 4.7902374
47.10113 24.362942 5.5893936
46.704254 24.366083 7.591882
46.68458 24.40677 8.248437
46.77682 24.86916 9.273562
47.158993 24.85854 16.241215
46.937027 24.325882 16.804108
46.53164 24.56077 19.989925
47.163273 25.126316 2.7699273
46.88306 25.33862 3.5986907
46.57218 25.54309 4.9115853
46.733326 25.247534 5.5432444
46.53733 25.840569 6.8455253
46.517773 25.480818 8.84246
46.446487 25.86975 10.408072
[...]
POINT_DATA 4990
SCALARS features_00 float 1
LOOKUP_TABLE default
0.8115835 0.814402 0.8247129 0.84189075 0.85508883 0.8662853 0.4741677 0.453144 0.46120316 0.45082596 0.4009493 0.46577796 0.46377462 0.44580552 0.518353 0.5234378 0.48256826 0.45821005 0.58251226 0.5257748 0.7483541 0.74910766 0.76413774 0.77775294 0.7848386 0.78921354 0.81305325 0.8096225 0.78927356 0.823503 0.86923075 0.8584404 0.7990603 0.8382259 0.87854964 0.8982228 0.8779454 0.8593106 0.88474953 0.46622118 0.47025177 0.4459427 0.36958688 0.4459387 0.4746259 0.4780116 0.4640141 0.36206746 0.2671097 0.254319 0.41978243 0.44580024 0.42956483 0.35720962 0.31542155 0.27519798 0.42966557 0.46310532 0.4158594 0.38192612 0.37668914 0.27952892 0.5083132 0.5299958 0.459562 0.42185318 0.38133937 0.55045986 0.60188735 0.62234414 0.5498432 0.50240564 0.4451544 0.61908513 0.62385464 0.615316 0.5101673 0.6258135 0.5927156 0.62739074 0.65556246 0.70315385 0.6882815 0.6793451 0.7021794 0.74308044 0.71602714 0.80171716 0.7874187 0.81573254 0.86937505 0.85102916 0.8274796 0.86794865 0.8654394 0.30949587 0.3074129 0.37983656 0.40866536 0.3800172 0.33652893 0.42704925 0.38737065 0.3026655 0.15067422 0.064334184 0.26586467 0.35256442 0.22128505 0.18400893 0.2984516 0.37873924 0.17942004 0.32758754 0.2248707 0.14090496 0.3919671 0.42156333 0.5126153 0.36922514 0.33488733 0.4856074 0.5780083 0.57234824 0.5878876 0.5990646 0.37065881 0.46881977 0.526718 0.57251453 0.57662714 0.5249373 0.6167364 0.5325108 0.63787174 0.62232983 0.36089915 0.54945254 0.671718 0.6421702 0.73375195 0.78684914 0.7574216 0.74061054 0.66603065 0.638008 0.60119003 0.65862745 0.62257725 0.56498533 0.48781955 0.60603845 0.5644762 0.49000582 0.4129935 0.35348374 0.5034599 0.41916436 0.37112215 0.6627896 0.6852095 0.68433684 0.6543361 0.06915332 0.66261554 0.69337523 0.6766581 0.6230984 0.2997926 0.2606907 0.22162515 0.057012517 0.5983279 0.58618796 0.57370234 0.3375767 0.2933324 0.12763672 0.07282848 0.10852831 0.12999022 0.17572588 0.22831795 0.10620935 0.4220141 0.45717642 0.39773124 0.3829946 0.3172558 0.19629923 0.12019798 0.14293112 0.18731163 0.2330682 0.24345037 0.2721196 0.15493865 -0.0068411008 0.06591985 -0.0013754219 0.42175233 0.38075227 0.29336923 0.23646373 0.07829201 -0.026375327 0.48720863 0.5112603 0.3567105 0.12537351 0.16781366 0.053141754 0.032491956 0.48132783 0.50785685 0.20085411 0.23296207 0.08700331 0.0818065 0.08619211 0.1791122 0.27622673 0.106212504 0.08984835 0.113671534 0.04916478 0.4485063 0.17518187 -0.06639911 -0.19015232 0.31798822 0.25088325 0.42073816 0.4578979 0.41546184 0.0070055425 0.45036057 0.55452275 0.50080186 -0.20085186 0.14347497 0.58576757 0.58034134 0.18803754 -0.074552305 0.5682094 0.27021572 0.21219744 0.4185766 0.58826613 0.56320196 0.57092345 0.5332549 0.5035097 0.6114907 0.56892073 0.7109344 0.6811677 0.614267 0.70688844 0.69029856 0.6576619 0.5942962 0.47747403 0.6671597 0.67554456 0.4651745 0.39794427 0.40506613 0.6210964 0.5807321 0.36575723 0.36898732 0.37689444 0.38761383 0.47806436 0.44228232 0.44750065 0.34379435 0.33041805 0.33650148 0.3628428 0.28732497 0.35120732 0.3032729 0.2819484 0.25756043 0.27703443 0.35898462 0.28899884 0.32803583 0.38785136 0.4000874 0.30667153 0.29583943 0.30175403 0.37724698 0.27993605 0.29676872 0.28594342 0.22895229 0.659888 0.60768807 0.49357027 0.26236647 0.27826497 0.25483373 0.18024677 0.59331155 0.5529388 0.65196407 0.54467237 0.48863938 0.2915318 0.15655923 0.15656048 0.15438612 0.14843187 0.46605158 0.5818598 0.6277498 0.61424553 0.60224664 0.59541667 0.48600215 0.3377332 0.1975913 0.056783713 0.07724045 0.054486275 0.20655228 0.40282103 0.5878742 0.515134 0.41515902 0.28746688 0.2068181 0.1376974 0.06564532 0.09056982 0.039898917 0.30558908 0.49040312 0.43341672 0.4196015 0.38656092 0.38414887 0.09334011 0.05663316 0.3707714 0.26671085 0.17793104 0.44288597 0.4341053 0.4123376 -0.056850217 0.3760565 0.4872418 0.549271 0.5602998 0.4599148 0.45358688 0.44313464 -0.04161524 -0.061207626 -0.053582937 0.0029714778 0.4161955 0.46154743 0.5191089 0.53945917 0.45656425 0.42165226 0.3691459 0.1695961 -0.00780268 0.015479393 0.04583569 0.39844704 0.46614355 0.51797915 0.5504261 0.5643025 0.35735992 0.30352527 0.06664119 0.084083766 0.0891698 0.08328679 0.3811852 0.45088822 0.56687653 0.6079505 0.041464522 0.11233208 0.15005717 0.07371446 0.56316197 0.6077386 0.0139026 -0.120967075 0.07977472 0.20138377 0.17880386 0.33380818 0.20150599 0.072783746 0.27087966 0.5017401 0.5140362 0.37661865 0.35907227 0.3319135 0.5041884 0.52098054 0.375056 0.42131907 0.3497718 0.33663607 0.48159575 0.4994563 0.49554378 0.5101298 0.5047266 0.41505462 0.48317865 0.5376805 0.5643145 0.5018484 0.45151153 0.7767529 0.7811722 0.72093725 0.632715 0.74009573 0.73349154 0.48994744 0.36625433 0.3526833 0.60550505 0.6619226 0.38796124 0.41100013 0.42814982 0.4062406 0.39796814 0.4221534 0.39197594 0.38141912 0.40644324 0.429837 0.23978586 0.297547 0.34759015 0.35331315 0.1754821 0.13670121 0.21176627 0.18766569 0.09011326 0.20664911 0.16910967 0.25454032 0.040037274 0.18171886 0.22872481 0.20771168 0.25582352 0.33802548 0.29145053 0.2822101 0.24913423 0.28280932 0.38589203 0.35771108 0.24992815 0.2972672 0.37221888 0.33906764 0.6910651 0.64407337 0.544653 0.225733 0.13916534 0.72117674 0.7070184 0.6437869 0.5726454 0.40343374 0.047168437 -0.102777176 -0.14762908 0.47351065 0.3740363 0.39014184 0.39812747 0.7263099 -0.12711215 0.10744976 0.4488021 0.62191856 -0.15017736 -0.18796179 -0.11982099 0.2527475 0.5292689 0.497288 -0.24122795 -0.0461858 0.3867273 0.5286491 0.4302237 -0.053217985 -0.07499862 -0.10148032 -0.04659145 0.10519294 0.06269744 -0.0371892 0.38702732 0.5703297 0.6171292 0.4175563 0.4274524 -0.13336281 -0.115130916 -0.0020733438 -0.025240716 0.0019604173 0.56019866 0.5433849 0.4511117 -0.1112027 -0.040534034 0.046434395 0.16767094 0.5429162 0.5261588 0.4491099 0.44098884 0.37887788 0.03519571 0.5394572 0.56604064 0.32275176 0.26284474 0.15667996 0.0682098 0.5797373 0.08426893 0.059146382 0.01880206 0.2746659 0.53880817 0.57868403 0.58242863 0.05050866 -0.10215028 -0.14983422 0.42352834 0.45707792 0.5348122 -0.098785736 0.41611218 0.4093212 0.28736874 0.43493384 0.3392083 0.35813963 0.44232458 0.48490098 0.35193726 0.39442062 0.13967752 0.38483694 0.40277702 0.4554914 0.41096717 -0.056197386 0.4628333 0.52164125 0.49635142 0.38993222 0.57965714 0.5866379 0.54973316 0.7681049 0.796399 0.75400627 0.61385214 0.57035804 0.63008875 0.6966069 0.7404356 0.37790334 0.45763686 0.57727367 0.5771457 0.6219449 0.47135776 0.47538483 0.4946475 0.44639027 0.44845292 0.39780742 0.4315646 0.7104784 0.64655536 0.51358765 0.37596536 0.5692905 0.14963752 0.11336605 0.31518266 0.08593747 0.061201904 0.0796288 0.1754942 0.16260903 0.18427016 0.138181 0.23213196 0.11334178 0.058401518 0.6506944 0.6692816 0.6020257 0.55724645 0.11843835 0.19881845 -0.19732362 0.032348067 0.023816824 0.073464654 0.6967511 -0.31949258 0.24443378 0.1653739 0.21531174 0.2506651 0.26331943 0.42409205 0.44394135 0.4576969 0.682492 -0.20483243 -0.30603984 0.41343075 0.4406938 0.44984627 0.60961676 -0.28321013 0.3544715 0.32790354 0.52091265 -0.28591067 -0.17291056 -0.011814259 -0.23068872 -0.16858444 -0.00916443 0.039584145 0.17653677 0.4474978 0.36139637 -0.13875595 -0.06314421 -0.0037487969 0.5951435 0.53942513 0.3697896 0.40830025 0.515715 0.39141253 0.37422767 0.49958283 0.21044682 0.20389138 0.53534484 0.4912126 0.13643312 0.07069927 0.06628198 0.5307249 0.056911122 -0.015102562 -0.041462243 -0.15457158 0.27102953 0.28581968 0.48952317 0.4708571 -0.2662056 -0.15276788 -0.19882903 -0.1290689 0.28696007 0.20303321 0.36385587 0.24483359 0.29949927 0.20885259 0.356506 0.3172896 0.03736988 0.3541957 0.3827654 0.041334704 0.41067088 0.35630244 0.474868 0.5466666 0.4439296 0.5240176 0.59673864 0.6355414 0.61882114 0.73285764 0.70941484 0.5952464 0.36779743 0.5365478 0.6636127 0.7396846 0.7916807 0.6700752 0.68179834 0.26516694 0.68314207 0.6870919 0.49593893 0.5087522 0.56673396 0.45304495 0.74971855 0.661978 0.39808849 0.79586613 0.7050646 0.8091639 0.7557913 0.6960539 0.42058808 0.072777264 0.15997282 0.046919912 0.161262 0.14813188 0.16480032 0.47942907 0.031295285 0.15659899 0.1577464 0.36916032 0.47051615 0.49169832 0.091276795 0.041761503 0.3604437 0.4441271 0.42736706 0.47296268 0.6098093 0.6148726 0.5436994 0.43529284 0.27556062 0.07473396 -0.064227045 -0.16453633 0.008779362 -0.1262252 -0.03009953 0.32077524 0.38001692 0.41711575 0.4128068 0.6030388 -0.073777355 0.40715778 0.4468909 0.46028537 0.44301748 0.6059121 0.032125015 0.3054897 0.451236 0.46414095 0.4850504 -0.1020544 0.19967303 0.42425328 0.46844885 0.34602603 0.47932005 0.5334447 0.4869476 0.20624283 0.42894715 0.2706725 0.25808012 0.40789968 0.14485832 0.4491343 0.39126682 0.01862559 0.41195804 -0.002100098 0.031759646 0.015581541 0.3430917 0.34725136 0.39186347 -0.05953125 -0.10631703 -0.22859785 0.13157202 0.2794671 -0.2569123 -0.1738581 -0.1352264 0.08198838 0.2036536 0.23465073 0.030015439 -0.09867294 0.21455239 -0.16692305 -0.09744844 0.22444534 -0.14083982 -0.18336079 0.31028807 0.16169272 0.419886 0.38509536 0.5094134 0.55775785 0.6133417 0.57290196 0.5230135 0.5807911 0.59749424 0.5709052 0.65577483 0.6355189 0.5879982 0.5988395 0.79466367 0.87727344 0.8512893 0.63007194 0.5237558 0.40738344 0.19979054 0.32951757 0.36884904 0.771765 0.7506809 0.26742983 0.2390278 0.61439395 0.6002114 0.43147326 0.4471249 0.77713996 0.6830497 0.37192225 0.83259845 0.22426333 0.83428335 0.13345832 0.75417304 0.5829701 0.18584369 0.19906741 -0.11027438 0.15897375 0.11016885 0.42217934 0.4691266 0.49118444 0.40020317 0.4496546 0.49799183 0.47114712 -0.08313848 -0.014064971 0.38998425 0.42597452 0.44382775 0.37879577 0.28817388 0.26903266 0.13208015 0.3303195 0.38868946 0.4982368 0.44519752 0.43309373 0.40838918 0.5076377 -0.14752766 0.47102517 0.42532462 0.35931292 0.34500563 0.37285656 0.2258359 0.24520016 -0.0011508986 0.16682318 0.332802 -0.070749275 0.18770868 -0.037549928 0.26232037 0.030976642 0.08399349 0.28961596 -0.006565657 0.28541282 0.25489226 0.053866558 0.24769767 0.3117358 0.29681647 0.27032638 0.23316082 0.061395746 0.1776616 0.34243968 0.35567224 0.35327333 0.2060206 -0.29667124 -0.31558776 -0.12976651 0.38991326 0.36447942 -0.28247982 0.039103314 0.0729853 -0.13085245 -0.24659368 -0.1015321 0.21264265 0.09188541 0.30849028 0.32880569 0.2842964 0.45593104 0.51385283 0.4763372 0.40854898 0.34305406 0.4242282 0.5470239 0.55525047 0.5827626 0.746164 0.8586119 0.8382126 0.7784445 0.7831102 0.32565516 0.04652188 0.6860899 0.5245724 0.38183385 0.5398325 0.7242654 0.65552616 0.7827852 0.037744604 0.5692737 0.60330176 0.7736604 0.4744104 0.20993835 0.5088014 0.49417043 0.52649516 0.5615299 0.5435018 0.19786865 0.4218297 0.42383614 0.44715375 0.4899531 0.0021922677 0.3907807 0.44154346 0.48508918 0.46652138 0.32063705 0.3804447 0.38916647 0.35441384 -0.33129975 0.17035362 0.044825435 0.25782037 0.33288413 0.30917728 0.21088645 0.14720969 0.32053244 0.31248364 0.32152495 0.39511216 0.33971953 0.33005902 0.32740164 0.4141568 0.34007278 0.37439686 0.2518121 0.24015224 -0.09637145 -0.049044773 -0.1238368 -0.017448694 -0.06390288 -0.034149237 0.13332023 0.099190064 0.18736877 0.10184544 0.19421254 0.23320182 0.22583024 0.18489018 0.15450077 0.32825136 0.33590972 -0.026376449 0.112657756 0.28967956 0.4224332 0.34641248 0.3701877 0.38421774 -0.18197119 -0.011036098 0.0365389 0.10100323 0.25649726 0.41627932 0.374403 0.39311945 0.37923327 0.32631475 0.23385343 -0.016796634 -0.4037891 0.37986574 0.35719994 0.3176046 -0.015632087 -0.004317431 0.048045494 0.037803628 -0.21043709 0.12062304 0.22797346 0.24707872 -0.06904485 0.021173317 0.297413 0.0892899 0.31774518 0.3151034 0.30218363 0.3454714 0.3799017 0.33663014 0.48659676 0.6022555 0.5907357 0.603575 0.65151274 0.68271685 0.6808294 0.79737186 0.8082904 0.32131016 0.63888115 0.7364342 0.74711764 0.1803168 0.6963241 0.4227787 0.12535496 -0.055051982 0.42974138 0.6782912 0.6072673 0.4348864 0.59446716 0.66618156 0.6947951 0.7031629 0.6730167 0.6276113 0.08170319 0.48297668 0.5089735 0.57409614 0.65637046 0.67091787 0.68931496 0.028588519 0.033032045 0.44950438 0.4979687 0.602828 0.6343181 0.17805165 0.17227921 0.34697282 0.4167961 0.4263118 0.43555152 0.45577264 0.18854587 0.0988577 0.44268614 0.4066377 0.38989574 0.34151784 0.2972901 0.26740274 0.3159793 0.2838937 0.07564545 0.23956852 0.21078217 0.17346747 0.17652228 0.08004202 -0.05582828 -0.050195716 0.058816463 0.2789004 -0.037927903 0.15244167 0.27872163 0.35630375 0.29112062 0.18802938 0.19340694 0.18706167 0.3612944 0.41420186 0.35898763 0.30688256 0.46633407 0.45968008 0.32870734 0.1456394 0.35452208 0.4708959 0.05781363 0.14879254 -0.120027624 -0.063698605 0.3103931 0.470544 0.09674218 -0.032111928 -0.019589767 -0.034766704 0.019474689 -0.029730093 0.07412626 -0.18538791 0.10148169 0.08547851 0.19936392 0.40460575 0.48039627 0.5062031 0.31337595 0.4498976 0.48313963 0.5026319 0.31932485 0.34198594 -0.20676811 -0.07433644 0.4031502 0.44942826 0.47988677 0.33000204 -0.4336121 -0.064867616 0.0027272403 0.080628715 0.09668666 0.19593696 0.34858143 0.39587623 0.32953155 0.28508198 0.27459744 0.24872085 0.15840691 -0.1933 0.08764518 0.1013708 0.25384897 0.25070333 0.10047075 0.13863905 0.1289692 0.12387798 0.174312 0.3086334 0.25513005 0.2451553 0.35816938 0.38199002 0.033786267 0.13409562 0.3986317 0.3341108 0.2184366 0.42283204 0.529953 0.59551036 0.6700785 0.62007 0.68802106 0.71272695 0.7199078 0.21838465 0.33889169 0.38682073 0.05649065 0.24979442 0.17479816 0.6112329 0.6693065 0.70064086 0.11405028 -0.034211468 -0.026177729 0.16915047 0.13875508 0.5390625 0.57673275 0.6793162 0.70528674 0.6998391 0.09440063 0.3604147 0.48874614 0.68685657 0.33717662 0.03472083 0.03482218 0.36396956 0.2720116 0.26892525 0.034382164 0.3155856 0.34164613 0.32374677 0.32402813 0.32612514 0.24423859 0.16121563 0.31396192 0.31436333 0.093336925 0.34459132 0.35657007 -0.06567459 -0.038169425 -0.64612657 0.3865301 0.39933002 -0.060045227 -0.6219199 -0.46797615 0.4304441 0.43445182 0.17975922 0.13929977 0.48748487 0.4964037 0.525153 0.65493965 0.36186785 0.49299198 0.51712644 0.69414806 0.67265815 0.55597156 0.2719811 0.31251281 0.7006716 0.6386408 0.44612798 0.19618657 0.6109041 0.37259924 0.051730663 -0.009140544 -0.031640604 0.012350373 0.26682454 0.44570068 0.47125965 0.10880825 0.47639698 0.5153733 0.5257959 0.5135294 0.5268356 0.21703978 0.45908162 0.50409514 0.18570712 0.31941542 0.39101493 0.23438479 0.19182381 0.020603359 0.12055366 0.12306841 0.20467003 0.3198741 0.21883926 0.2582036 0.17449412 0.13089904 0.13463017 0.16126034 0.38845167 0.118797615 0.20691861 0.20723772 0.17973495 0.33609506 0.39423704 0.33085072 0.19506212 0.14213893 0.4246409 0.4262854 0.18846303 0.17054269 0.4497329 0.41982198 0.32774103 0.36278597 0.113470584 0.32905695 0.5243873 0.44942397 0.6033747 0.6719103 0.7185863 0.6331986 0.7247126 0.7631787 0.7677062 0.40708375 0.42961746 0.25446048 0.2966265 0.4121409 0.2936373 0.65273076 0.71000206 0.7072331 0.6929616 0.020858057 0.03500835 0.23710483 0.4062461 0.542307 0.66393685 0.27412376 0.07972604 0.16296153 0.30814376 0.3769347 0.63341767 0.37453413 0.020005416 0.06222318 0.054015256 0.3098057 0.4857086 0.041159805 0.25728863 0.30355787 0.0597584 0.1635133 0.2461915 0.29152665 0.1203228 0.29785937 0.28089917 0.31776166 0.3248742 0.25857803 0.3831897 0.34959367 0.15222989 0.4130705 -0.09773664 0.079595864 -0.633765 0.46755406 0.19488934 0.17179461 -0.07835073 0.5213057 0.5025084 0.4335081 0.23542254 0.518246 0.64016485 0.5623932 0.44900763 0.43639904 0.4788958 0.7107877 0.28777975 0.72327876 0.6873114 -0.01415994 0.6172932 0.5376639 -0.13105413 0.07326254 0.27726164 0.3924949 -0.014826571 0.2822939 0.4627437 0.48520163 0.52487683 0.076717354 0.5265936 0.17941374 0.23924339 0.47096407 0.32033455 0.21051888 0.3629625 0.40070885 0.24920934 0.20754342 0.17362404 0.39426464 0.21041329 0.11452652 0.16866522 0.21543147 0.45342183 0.4481002 0.14155671 -0.041351058 0.097809575 0.47513565 0.5392665 0.5286976 0.3167727 0.04104109 0.14073063 0.21767427 0.2269674 0.41978022 0.5082515 0.5523671 0.44364858 0.43160695 0.14328445 0.107021704 0.43882567 0.42919353 0.25791878 0.36575362 0.13400812 0.28247917 0.5278741 0.61903805 0.6858945 0.7176196 0.67100084 0.6925392 0.7556508 0.7684659 0.6981308 0.67706746 0.78820366 0.82561594 0.7456865 0.75191534 0.8108243 0.86324465 0.8318713 0.34991068 0.46381217 0.43071783 0.38945776 0.5772376 0.69877213 0.70579964 0.6796113 0.61266917 0.038184654 0.30365202 0.2516587 0.45107874 0.2236198 0.079319224 0.20284805 0.34035856 0.38409877 0.5036933 0.339135 0.101976015 0.1122058 0.2623809 0.2962238 0.14715436 0.33944392 0.046199597 0.088648215 0.21071976 0.32210407 0.13312379 0.1418924 0.09238221 0.34307316 0.38926375 0.37514287 0.33395207 0.4305227 0.4636305 0.16350737 0.10510149 0.4369939 0.44196755 0.3114782 0.19151685 0.45192465 0.6103279 0.483454 0.3401498 0.41461506 0.6984768 0.6599333 0.04998398 0.70220137 0.7076005 -0.024840482 0.6928976 0.6746224 0.68126905 0.63447237 0.46799856 -0.09340064 0.5458671 0.4235044 0.21684405 0.123238385 0.23556998 0.29457748 0.3973381 0.14200103 0.13354756 0.083185956 0.4153449 0.45664492 -0.03965693 0.48876083 -0.029938571 0.5059344 0.4843343 0.14808722 0.42225954 0.28171068 0.3461036 0.2556518 0.29683062 0.2786026 0.3485644 0.28165057 0.2748487 0.24273673 0.19107138 0.022437952 0.44757107 0.38692158 0.27439594 0.0064549185 0.004473267 -0.05269207 -0.055141687 0.50795066 0.21087304 0.2461303 0.5156135 0.5343953 0.52125984 0.31484616 0.24006692 -0.03194012 -0.005945027 0.102381304 0.15552084 0.43651503 0.49105996 0.5087722 0.3190878 0.16766363 0.041887347 -0.071783096 0.116656356 0.40580997 -0.10475105 -0.037813865 0.08481493 0.026956134 0.1889638 0.51107 0.6142396 0.63374496 0.49112302 0.42858034 0.51499844 0.53039587 0.7978947 0.549502 0.798158 0.8420862 0.71666193 0.73779523 0.88765323 0.895025 0.7140701 0.70433974 0.7467809 0.8200786 0.8821982 0.9144974 0.73443425 0.7581264 0.66559863 0.7050225 0.82870567 0.8132101 0.7929066 0.6651305 0.77118146 0.94993734 0.8997693 0.8099029 0.4067948 0.93948853 0.8282526 0.80016243 0.58248556 0.6513233 0.650244 0.6420374 0.042939525 0.22071442 0.37221175 0.85225475 0.46593958 0.52047884 0.59816873 0.18635917 0.0040412094 0.12551048 0.19327277 0.39946088 0.37420893 0.2526952 0.24318771 0.15592864 0.12431058 0.30630088 0.22264719 0.31658643 0.5818504 0.733003 0.31244582 0.28534743 0.1267641 0.0908899 0.14020798 0.72529703 0.8269696 0.859202 0.40178254 -0.18102273 0.6844528 0.79043067 0.8447442 0.49367356 0.45352477 -0.027270757 -0.07211951 0.7231824 0.7926276 0.47742677 0.66801006 0.38737866 0.044200793 0.3161783 0.10658388 -0.06669825 0.30903018 0.1694314 0.17229362 0.18265194 0.30766803 0.54109716 0.38542485 -0.10797201 0.6064961 0.67115736 0.6254387 -0.06910069 0.69181144 -0.057838444 0.6768863 0.6323837 -0.31846318 0.17145677 0.5600627 0.4879878 0.28942415 0.3257954 0.18011796 0.34909266 0.17038229 0.19138232 0.04815124 -0.023497812 0.3418554 0.15160975 0.4317097 0.09830413 0.33106607 0.27512097 0.24957469 0.2816072 0.2542326 0.28753793 0.042772874 -0.10477266 0.38345766 0.35113984 0.24534868 0.26046118 0.030184414 -0.058803897 -0.10480502 -0.16760701 0.44987285 0.04078259 0.49487042 0.46698663 0.06812052 0.0136071965 -0.06381355 -0.08579457 0.15765075 0.4102611 0.44991475 0.4513664 -0.13682358 0.03552641 0.24218394 -0.36595455 -0.25577468 -0.069672346 0.06459427 0.03678158 0.31997278 0.7189004 0.7295239 0.3632748 0.799147 0.80218744 0.6112974 0.8853245 0.8392348 0.6364588 0.61804867 0.66042674 0.8097575 0.878307 0.906095 0.64829856 0.745808 0.8263769 0.7282615 0.6714366 0.6442253 0.81806827 0.7661853 0.66573364 0.6397038 0.58540773 0.5700295 0.62196696 0.63786864 0.700251 0.73754007 0.8251294 0.75599813 0.68570924 0.60973 0.5620755 0.523218 0.5853237 0.7523391 0.7634345 0.814013 0.76693887 0.651899 0.5736034 0.4921618 0.7713874 0.7644466 0.52939606 0.7418157 0.75402546 0.42678425 0.8441089 0.7748328 0.4780688