# vtk DataFile Version 2.0
Really cool data
ASCII
DATASET POLYDATA
POINTS 8623 float
10.280582 29.077961 15.809841
10.331355 29.166552 16.349812
10.34887 29.182106 17.050077
10.0654335 29.90715 14.830427
9.957069 29.782307 15.567952
10.047548 29.645237 16.31426
10.271503 29.668196 17.106348
9.8807125 30.65937 14.918712
9.7704735 30.3828 15.52048
9.769067 30.500109 16.112766
10.155324 30.144331 17.080566
10.348436 31.924664 12.673455
9.843262 31.31402 15.797753
9.914412 31.15161 16.231354
10.361815 32.574974 11.517841
10.013985 32.61847 12.810053
9.707834 33.06503 13.849745
9.8901205 32.656837 14.238905
10.320676 33.06493 11.59994
9.815545 33.433304 12.974305
9.687221 33.5629 13.6469
9.678119 33.671436 14.1642065
10.0332365 33.87682 12.737366
9.8176985 34.20674 13.617641
9.821319 34.279316 14.198902
9.913088 34.080086 15.126889
10.186623 35.019505 17.262777
10.08581 34.90446 14.407904
9.87608 35.572796 15.771664
9.777754 35.774567 16.395674
9.97056 35.64109 17.531025
10.093857 35.83566 18.127983
9.988632 36.18362 15.821454
9.894347 36.371357 16.495012
9.940427 36.25099 17.614782
10.107488 36.314346 18.21783
10.382869 36.387024 18.736761
10.174187 36.912792 16.074453
10.179981 37.041042 16.50585
10.10759 36.9909 17.323805
10.364016 43.897045 22.912495
10.363964 43.91166 23.58573
10.309528 44.32094 22.691982
10.208374 44.509403 23.55448
10.40415 44.74872 24.294573
10.329994 45.389423 22.906668
10.275913 45.37009 23.337269
10.223449 44.988747 23.89408
11.333018 27.687683 14.580743
11.160428 27.843512 15.462001
11.156747 28.077944 16.29336
11.205793 28.267231 16.838491
11.109307 28.591585 13.859155
10.734726 28.767632 14.654546
10.550149 28.700727 15.816071
10.702521 28.739273 16.812252
10.833843 28.86308 17.313559
11.064991 29.020163 17.85034
10.898899 29.176052 13.890136
10.527819 29.557917 17.514599
10.859435 29.644272 17.958517
11.087916 31.149035 12.128487
11.169759 30.559877 13.541804
10.466617 30.023909 17.575027
10.87237 30.177303 18.08972
10.914613 31.920246 10.940796
10.5929985 31.967283 11.400807
10.6323595 31.670185 12.127381
10.71676 31.294394 13.737592
10.846536 30.971981 17.70511
10.840064 32.600464 10.776892
10.450664 32.1415 16.059309
10.791101 33.132336 10.980954
10.548645 33.420273 11.475925
10.350297 34.828693 17.308964
10.546377 35.19695 18.396544
10.389741 35.487232 18.490448
10.677136 35.74639 18.910995
11.13672 35.835365 14.320477
11.308766 36.8701 14.6396055
10.406427 36.622013 18.69618
10.600099 36.28466 18.921572
10.939134 37.000183 15.217734
10.414567 37.33694 16.12393
10.476341 36.78288 18.656734
11.066662 38.266937 16.368258
11.067851 38.144535 17.379921
11.214329 38.050625 17.933842
10.910735 43.359646 22.772247
10.955423 43.224796 23.239365
11.095354 43.19629 24.105993
10.841084 43.83061 22.103949
10.666274 43.69096 22.537903
10.602217 43.52829 23.537188
10.87665 43.637135 24.412762
10.859103 44.01881 24.7665
10.757266 44.695618 21.943142
10.465763 44.441692 24.328474
10.908027 44.4832 24.85887
10.835732 45.141388 21.932327
10.512092 45.69597 22.58689
10.504579 45.26759 24.316097
11.128058 45.46645 24.883486
11.224888 46.49363 22.162266
10.696679 45.985374 22.756123
10.575058 46.05033 23.504314
10.800598 46.002373 24.217417
11.924422 27.28584 13.890737
11.922962 27.093794 14.842919
11.87782 27.156939 15.396154
12.133915 27.17747 15.963934
12.21019 27.745783 12.990514
11.734268 27.723358 13.623677
11.489066 27.63814 14.30303
11.431989 27.484594 15.208606
11.644777 27.8695 16.44158
11.598091 28.128923 16.897617
12.385916 28.987797 12.268236
11.577296 28.451933 13.192474
11.371456 28.620605 17.556807
11.343678 29.05469 18.035372
12.198294 29.84459 12.096765
11.455749 29.369934 18.209093
11.895628 31.043705 10.86745
11.310716 31.159773 11.545037
12.051337 31.929688 10.138839
11.514514 31.575642 10.645743
11.9151 31.634682 19.252056
12.34283 31.512867 19.791914
11.552222 32.551853 10.29754
12.363507 32.006123 19.979324
11.760918 33.06326 10.3515215
11.501072 33.246952 10.569722
11.763214 33.81549 10.942603
11.80157 34.131664 11.432889
12.1083145 36.017643 13.885779
11.422659 36.65846 19.143883
11.702563 37.413315 14.14869
11.568445 37.54903 14.307274
12.0324545 37.26251 19.15172
12.140024 37.93187 14.02676
11.874185 38.251736 14.526382
12.091647 38.81592 15.009724
11.947586 39.06428 16.816574
11.574798 38.703823 17.213074
11.507363 43.004967 22.804594
11.292158 43.027576 23.552004
11.557714 42.95669 24.152443
11.378405 43.825 24.960169
11.523796 44.42105 25.121151
11.857398 45.770687 20.918953
11.487799 45.459984 25.03445
11.229322 46.12147 24.515434
12.042445 47.109283 21.645163
11.805782 47.157806 22.440367
11.855275 47.063717 23.204975
12.255435 47.622498 22.804483
13.194959 26.425852 14.007313
13.082137 26.41522 14.257863
13.012908 27.0586 12.6981945
12.904295 26.849977 13.409971
12.772943 26.603132 14.623284
12.47331 26.821447 15.43567
12.809275 26.962303 15.857123
13.1374855 27.691792 11.620068
12.627727 27.445099 12.984369
12.660093 27.781101 16.883327
13.141517 28.59758 11.397934
12.195653 28.999105 17.988035
12.553579 29.213589 12.036943
13.018417 31.060942 10.056508
12.9544325 30.376017 19.566551
12.893591 30.779839 20.13633
13.195614 31.099255 20.854795
12.738287 31.638664 9.877534
12.693721 31.54257 20.623878
12.956334 31.656826 20.991316
12.78347 32.18139 9.80299
12.99321 32.337437 21.044285
12.387475 32.899746 10.20655
12.181033 33.239197 10.435829
12.55728 33.201473 19.539232
12.371501 33.902462 10.849541
13.279672 36.30532 20.687738
13.404075 36.74085 21.09492
12.580695 37.817276 13.689363
13.2036 37.127666 20.347538
13.330657 37.244457 21.023096
12.483784 38.63743 17.994635
13.3340645 38.097385 20.85012
12.889378 38.92494 14.310307
12.821953 39.12909 14.517989
12.635699 40.154137 15.73098
12.41242 39.7547 16.088501
13.171642 41.424534 15.308164
13.042927 42.32942 22.040497
13.406754 42.095695 14.581991
13.418165 42.54096 15.4930725
13.3010435 41.90078 16.476768
12.925185 42.693172 24.323114
13.032612 42.964035 24.632843
12.56284 43.8191 20.978065
12.176455 43.662197 25.107063
12.69137 44.51711 20.607634
12.378573 45.62438 20.468563
12.163231 45.181866 25.207952
12.538836 46.92739 20.886206
12.551658 47.227913 23.71067
13.157421 46.80268 24.399628
12.51946 47.618725 21.6631
13.81363 26.260061 13.743256
13.760151 26.343657 15.078996
13.646334 27.182383 11.758522
13.744315 26.678984 12.824254
13.4432745 26.501616 13.441632
13.164866 26.616148 15.42583
13.481779 26.904753 16.004278
13.793257 27.803717 11.120829
13.404323 27.399935 11.666824
14.103175 29.09694 10.307812
13.827402 28.54136 10.74883
13.5383215 29.856842 10.583251
13.63631 29.807888 19.195642
13.537386 30.56636 10.141397
13.455305 30.609493 20.593752
13.706516 30.95727 21.08385
13.669158 31.464792 9.706447
13.611873 31.651985 21.349903
14.032694 31.637726 21.544024
13.362679 32.44847 9.796389
13.62195 32.470715 21.382969
13.482758 32.81448 9.960222
13.939254 34.308975 21.180304
13.54577 35.503143 20.830112
14.051944 36.908447 12.707528
14.084761 36.674717 21.60364
14.018967 37.5119 12.714846
13.655245 37.1923 21.364965
14.141996 37.41761 21.930897
14.216813 38.33621 12.736046
13.287307 38.458607 13.783696
13.776294 38.488438 21.469698
14.147642 38.33169 21.867086
13.713281 39.38229 13.756623
14.021518 40.60662 13.652309
13.9400625 41.481403 13.664659
13.76798 41.536354 18.077444
14.210069 41.318233 19.33835
13.591127 42.006508 23.393135
13.810874 42.26575 24.043991
13.863974 42.422752 13.9113655
13.566839 42.522343 14.459991
13.581913 42.683136 15.823464
13.516799 42.358017 16.502583
13.584403 42.313377 17.03764
14.270275 42.63333 19.003391
13.762189 42.590744 24.39953
14.150239 42.998455 13.9566555
13.874657 43.071377 14.534414
13.869677 43.256107 15.109305
14.11343 43.198387 16.28388
14.4625025 43.57465 18.580952
13.671585 43.579117 20.061058
13.106141 43.538033 24.712326
13.546963 45.304893 25.35488
13.744987 46.12191 25.099745
13.413781 46.874687 20.655964
13.376832 47.767906 21.56242
13.880904 48.332005 24.421907
14.165278 48.7303 26.185581
14.116145 49.12137 24.59375
14.158598 49.43385 25.518854
14.080317 48.986782 25.89246
14.2555485 49.787266 25.254917
14.534547 26.226881 13.679434
14.737167 26.117323 14.727953
14.51273 26.312986 15.326184
14.238462 27.096434 11.640442
14.420875 26.703215 12.492236
14.869218 26.598831 16.047169
14.709923 27.138405 16.79757
14.318455 27.65756 11.079716
15.122902 27.689232 17.455055
14.840659 28.94616 10.079906
14.447237 28.539488 10.539828
14.684322 29.72784 9.848696
14.08083 29.614828 18.48159
14.812908 29.742887 19.440144
14.519496 30.144987 20.417631
14.37919 30.70504 21.05639
14.801682 31.480984 9.670061
14.591645 31.393974 21.449749
14.369606 31.79091 21.554913
14.241074 32.346554 9.822514
14.359086 32.381184 21.602648
14.507213 33.35055 10.725263
14.594858 33.186333 21.604082
14.380803 34.4761 11.91205
14.512565 35.3128 21.495087
14.4558935 35.477703 21.53387
14.575962 36.730293 21.785696
14.77138 37.27743 12.243375
14.471441 37.47612 21.982748
14.619627 38.25021 12.407802
14.5665245 38.37685 21.982294
14.4853525 38.853542 12.905983
14.9648 39.385315 21.209497
14.82416 40.982147 13.226913
14.970437 41.604404 13.097528
14.357653 42.21718 23.868982
14.930783 42.41385 13.267094
14.304585 42.581463 13.558788
14.1346245 42.806633 24.462305
14.5053625 43.11304 24.630295
14.588514 43.252163 13.873031
14.388071 43.49343 14.416325
14.501617 43.648743 18.916533
14.741434 43.80885 24.912512
15.153639 44.07867 14.481414
15.177219 44.59615 15.592161
14.575057 43.869045 16.387758
14.227297 44.45305 25.22091
14.905921 46.354725 20.387056
14.647139 48.05071 21.882507
14.836024 48.576416 26.835194
15.048375 49.129833 22.277613
15.158975 49.279568 22.315462
14.662441 49.55264 26.293045
14.977103 49.148415 26.731937
14.793155 50.05978 24.697811
14.685826 50.03169 25.44087
14.820359 49.95182 25.967133
14.97881 26.445332 13.190395
15.619118 26.114933 14.238148
14.907234 27.102629 11.969399
15.313467 26.657234 16.657059
15.984669 26.873835 17.335499
15.46588 27.409733 11.31122
[...]
POINT_DATA 8623
SCALARS features_00 float 1
LOOKUP_TABLE default
0.4498173 0.45765147 0.46027857 0.4034989 0.46955484 0.47517675 0.47137633 0.40880644 0.4813962 0.49851894 0.47842622 0.36448082 0.46711776 0.49521357 0.566505 0.40233678 0.30906433 0.29467928 0.5738771 0.3732602 0.31570417 0.28251404 0.36024517 0.28392953 0.27524596 0.21253118 0.5139229 0.28103894 0.35678953 0.44555146 0.53287387 0.5157608 0.37701005 0.46467862 0.5255014 0.51135224 0.5036049 0.43067947 0.47668856 0.5296695 0.6991559 0.71622145 0.71600807 0.7453716 0.7520774 0.7255742 0.74654526 0.7590487 0.4295619 0.4261185 0.42086 0.42549008 0.3678803 0.41317338 0.43750322 0.44470757 0.44831014 0.4446363 0.30872473 0.46617007 0.45069242 0.298392 0.14819759 0.4676235 0.42714638 0.58109 0.53822064 0.40486658 0.22051524 0.40707135 0.6185118 0.40186846 0.6176295 0.5935316 0.49533486 0.4642425 0.4828859 0.44912714 0.2546163 0.2401335 0.50581837 0.4844774 0.30604374 0.44448292 0.508027 0.41785085 0.4664514 0.49406117 0.64763576 0.6633591 0.7012363 0.6505654 0.6700805 0.6953981 0.7271695 0.73780006 0.6757992 0.74786675 0.73249966 0.65424955 0.6818824 0.7502701 0.70747006 0.583607 0.6617606 0.708537 0.7260078 0.4256149 0.42720014 0.41660947 0.39347303 0.39664468 0.41161162 0.42750296 0.4265267 0.40603435 0.40889978 0.289829 0.3410577 0.42846924 0.4287386 0.15619364 0.41267112 0.41035736 0.37653285 0.5315603 0.5487141 0.3290398 0.4155867 0.5721656 0.41895884 0.5455527 0.5661657 0.52009135 0.48208794 0.18964818 0.43905205 0.218032 0.22536016 0.37052897 0.20897745 0.23109773 0.26772246 0.34638464 0.38613415 0.58267707 0.65603817 0.6922624 0.72413754 0.69661474 0.56041986 0.66812575 0.68219495 0.5443499 0.5614865 0.5478148 0.5009612 0.40993848 0.4113292 0.40536088 0.41034028 0.41601974 0.40222567 0.3643209 0.40182698 0.40507808 0.3277301 0.34492165 0.35125318 0.26765904 0.3761844 0.40336308 0.45947263 0.47861546 0.45046496 0.46744344 0.4674664 0.45956284 0.44220644 0.48897782 0.49679318 0.36179277 0.4218853 0.3054448 0.3902418 0.19034801 0.26645163 0.39955777 0.3891459 0.41291204 0.21582587 0.23513174 0.21822247 0.23815274 0.31001467 0.57678354 0.463691 0.3689519 0.2153423 0.39719456 0.38091484 0.28637192 0.62898946 0.26972988 0.5131104 0.5902692 0.52883315 0.437326 0.4414706 0.49530637 0.39325643 0.3713396 0.40475404 0.3945741 0.40137124 0.37173948 0.30480143 0.3642472 0.40547997 0.20759316 0.28773397 0.2196281 0.3122602 0.27133042 0.4724569 0.4651467 0.34853286 0.44276997 0.4098556 0.40160865 0.39443982 0.37895828 0.24127974 0.31596112 0.31100315 0.43087962 0.31469142 0.4441259 0.50086033 0.28887632 0.18341385 0.5444864 0.563047 0.11750314 0.30549857 0.49367207 0.055254802 0.032910556 0.36039135 0.3051244 0.53602695 0.4904033 0.34790602 0.25021383 0.16842201 -0.047788747 0.30658126 0.5555285 0.5083773 0.46014905 0.31557387 -0.036266405 -0.109890774 0.38466907 0.43620273 0.4507661 0.39861742 0.36091104 0.41711724 0.6742709 0.5600064 0.6693394 0.6630666 0.6789275 0.37520885 0.3857559 0.34282696 0.3885253 0.37780124 0.23033269 0.15728599 0.35251564 0.09226243 0.21445213 0.25600985 0.20132029 0.13431516 0.16541871 0.40489605 0.4321912 0.28591233 0.37483716 0.37355262 0.32283214 0.33814532 0.23847423 0.27104628 0.13526139 0.2962341 0.31793243 0.44779477 0.3482456 0.5169268 0.33259356 0.55928826 0.24868698 0.49312365 0.4282102 0.5369646 0.29527137 0.5813794 0.5604229 0.29943827 0.29830796 0.5795389 0.54634494 -0.109003395 0.30186892 0.57671726 0.5013405 0.363562 0.33829764 0.074479565 0.22716399 0.7073275 0.40018082 0.43194443 0.7244354 0.71901345 0.7178043 0.7217849 0.7286227 0.33971292 0.34099174 0.34724653 0.13320087 0.06796607 0.2684735 0.04828437 0.22697437 -0.10470499 0.27341682 0.23500627 -0.01399228 0.29337507 0.26128972 0.33286655 0.25644892 0.26999813 0.30227017 0.24445753 0.24145946 0.21569994 0.18001282 0.2382969 0.11649503 0.1926342 0.2548428 0.3594075 0.32286346 0.47115007 0.35030186 0.34066772 0.49012148 0.322395 0.46454442 0.23259407 0.55929136 0.23706919 0.28656924 0.61538124 0.6169144 0.27155697 0.6227994 0.5846921 0.2928901 0.4204813 0.16759014 0.29757887 0.07093193 0.6098021 0.6713553 0.4554136 0.7129316 0.7014599 0.5252958 0.5535836 0.7195301 0.7487885 0.7242712 0.7161329 0.18023649 0.043823987 0.20652345 -0.0526367 0.31799924 0.29293987 -0.1289702 0.32189316 -0.15147157 0.3458275 0.29899517 0.21831217 0.17320584 0.17025965 0.12377801 0.11835949 0.13274437 0.10338521 0.23175855 0.31245315 0.342833 0.34679317 0.35652167 0.35482365 0.3333487 0.20857798 0.46554983 0.04118911 0.5447533 0.21212602 0.272601 0.58705944 0.28148627 0.5941044 0.6057352 0.27855736 0.27759427 0.6044698 0.6167727 0.31142533 0.48697156 0.16827267 0.38672876 0.05530625 0.42788458 0.5165806 0.2118852 0.5869118 0.6472957 0.49308255 0.71161884 0.6759292 0.5334076 0.5826829 0.71599025 0.7118967 0.58347213 0.57857096 0.51410663 0.33024523 0.4496562 0.49049532 0.54538536 0.6284716 0.5362143 0.5545078 0.45170653 0.2877333 0.38478333 0.45960352 0.5312891 0.6183194 0.67189485 0.69943666 0.09220186 0.28925243 0.44326133 0.5114458 0.59813213 0.65447325 0.6723385 0.46509802 0.45524672 0.5518856 0.27200612 0.14622946 -0.103654705 0.3486424 0.44208607 0.33492368 0.20282416 0.33090737 -0.027344815 0.35160935 -0.023091206 0.3527283 -0.08803206 0.0670145 0.27163813 0.015873566 0.19379568 0.1770499 0.07114688 0.23013157 0.17252663 0.1758071 0.033629544 0.21275972 0.24818172 0.118689515 0.28376937 0.051550046 0.23091799 0.30026433 0.071372524 0.1546067 0.43095618 0.10628252 0.069061644 0.5289075 0.079881266 0.56328964 0.5428882 0.23152673 0.2685095 0.57152224 0.56750715 0.23082584 0.27165985 0.56959397 0.5597036 0.34656176 0.38669583 0.42225525 0.28690338 0.16295487 -0.08341985 0.45327345 0.5556538 0.6293963 0.5191049 0.5375126 0.6538621 0.67445445 0.6743689 0.53875035 0.56511676 0.66503346 0.6939025 0.6996937 0.5935631 0.57854855 0.4621092 0.533551 0.5256194 0.58109915 0.3388229 0.22431733 0.40650758 0.47880125 0.55001086 0.63421285 0.6704465 0.70845175 0.49572536 0.68805236 0.7156609 0.36070052 0.6954062 0.52981114 0.60980296 0.29330912 0.4649675 0.31570843 0.31257328 0.19223289 0.3127014 0.074663185 0.31984168 0.10246475 0.2567864 0.042824615 0.08972994 0.26421514 0.30529973 0.27389985 0.07251869 0.30166733 0.023401693 0.28078866 0.23488846 0.21032923 0.22028588 0.036437012 0.21693666 -0.1353066 0.077338286 0.27104312 -0.100176245 -0.13163328 0.081640415 0.24932864 -0.03190717 0.056746572 0.03205128 -0.04044524 0.10108323 -0.0067254603 0.06782062 0.47363758 0.17745411 0.5105242 0.32059532 0.142511 0.5257841 0.5048339 0.3239202 0.130667 0.1614559 0.48928282 0.31589326 0.4019801 0.44494504 0.5383189 0.48253173 0.48200354 0.4857751 0.4556952 0.548818 0.5327196 0.58031017 0.61432683 0.6228944 0.55216664 0.59175146 0.613989 0.3907618 0.566739 0.43081054 0.308569 0.49996185 0.49784845 0.13310994 0.3075644 0.59457517 0.67195237 0.7052791 0.42255774 0.73424137 0.23957916 0.22695735 0.7144005 0.57651246 0.25826293 0.40239313 0.2737092 0.24747674 0.15261334 0.27165094 0.28507635 0.11243358 0.11319254 0.23610611 0.10894976 0.25076205 0.20847738 0.07981707 0.119224936 0.32815954 0.3416441 0.1297534 0.35946822 0.32694805 0.28187943 0.038712073 0.230261 0.19998178 0.06696765 0.22657906 0.22481266 0.1659776 0.067001306 -0.4858667 0.103232875 0.091786586 -0.07804513 0.05704604 0.31569117 0.2687112 0.27915695 0.37297854 0.21434993 0.56514454 0.48308462 0.49456728 0.63315797 0.5516434 0.5824921 0.5423749 0.5384984 0.66833496 0.6947965 0.6369978 0.63191104 0.61546344 0.5916088 0.6171138 0.6351174 0.64079 0.6231178 0.633976 0.45686626 0.40559757 0.38568318 0.441135 0.49251842 0.49695057 0.46380544 0.4115212 0.40982687 0.4659288 0.46416786 0.45839527 0.4309597 0.3811456 0.34856766 0.39616293 0.4103365 0.21721312 0.24288768 0.3165 0.3936354 0.43686923 0.35316798 0.088908784 0.16901274 0.500688 0.61083984 0.39966947 0.37797207 0.2925595 0.72033167 0.39525017 0.37680727 0.6787139 0.32388633 0.49080354 0.39417267 0.23114593 0.23107222 0.13000831 0.2389479 0.21716183 0.18079503 0.06903676 0.23632494 0.042682216 0.3228077 0.114893824 0.36109272 0.37749934 0.040127408 0.04327159 0.36675552 0.3657832 0.06837914 0.13586189 0.0030900985 -0.104070306 -0.0401224 0.13091657 0.25743914 0.27108824 0.23600495 0.03907974 0.32181627 0.37584704 0.31346446 0.44372964 0.5107325 0.61262 0.37718844 0.40216845 0.4824263 0.50744915 0.6160147 0.66415495 0.6873745 0.73474956 0.7447175 0.70510197 0.7286415 0.7406583 0.74596345 0.60461366 0.655251 0.67730045 0.62222815 0.6835325 0.696951 0.6297152 0.67284083 0.63988173 0.6235261 0.6480791 0.630149 0.45041737 0.4913717 0.47361422 0.42378783 0.43031996 0.5059151 0.5122266 0.5195523 0.49992043 0.42998764 0.5148988 0.5065972 0.5223855 0.49878904 0.49438012 0.46846414 0.42872632 0.38183874 0.341475 0.09752334 0.03060691 0.25197667 0.44510683 0.33606178 0.32897028 0.16085097 0.45095867 0.3896883 0.3819089 0.60663795 0.39112836 0.42891073 0.46753162 0.44182014 0.41715908 0.41949278 0.2084474 0.23878855 0.21176688 0.20013005 0.057546027 0.1881067 0.2542178 0.34796092 0.30263793 0.014631756 0.37571323 0.37940407 0.007821674 0.046166744 0.3096006 -0.0039391145 -0.12639043 -0.035486378 -0.011620291 0.2380262 0.09753665 0.27630275 0.34227443 0.40972626 0.39843935 0.33850345 0.37755662 0.55532885 0.65888166 0.65166426 0.5866769 0.6650924 0.6466079 0.69302773 0.6852355 0.7189803 0.7717757 0.774872 0.72945654 0.7346491 0.75891143 0.77381253 0.76952684 0.7510733 0.75675714 0.585688 0.576368 0.5873448 0.57632667 0.56759024 0.55177706 0.5557579 0.5369993 0.530971 0.48547798 0.52449626 0.45195276 0.46869504 0.5101813 0.52387756 0.54172575 0.55382526 0.5747127 0.5503336 0.4587152 0.51224464 0.562121 0.5893861 0.5303585 0.5025432 0.59693426 0.6316654 0.60808283 0.5779749 0.57525635 0.42109138 0.47550392 0.45607233 0.4396258 0.47016138 0.4833672 0.46150064 0.49893665 0.49174902 0.45398608 0.49199754 0.5113708 0.4213457 0.50889856 0.33587974 0.27584207 0.24725914 0.31708467 0.28894538 0.21296445 0.22182462 0.554222 0.53103465 0.51562285 0.36635202 0.35364288 0.22342789 0.5734663 0.52740985 0.4902476 0.36884886 0.307698 0.5484866 0.5044484 0.4936779 0.4389464 0.3815907 0.31766585 0.3014473 0.36029673 0.4381839 0.33450484 0.31930578 0.376633 0.4223248 0.27915895 0.2848997 0.34546787 0.39619404 0.35708973 0.31057018 0.29819643 0.28953373 0.35829782 0.4412774 0.4617163 0.23491794 0.22495157 0.18928021 0.30847162 0.26068604 0.25022158 0.22716254 0.2813658 0.36095726 0.45788848 0.47576153 0.1008752 0.22538456 0.23536009 0.27733025 0.36956042 0.48323455 0.14009294 0.14345352 0.230564 0.26126534 0.35198176 0.43556505 0.5332869 0.19626719 -0.21678488 0.28680372 0.09823186 0.25189766 0.29927492 0.2059919 0.12522106 0.0022039562 0.18558569 0.18174925 0.06572521 0.2450417 0.25318772 0.3161857 0.295368 0.30896378 0.41456923 0.5853654 0.61063206 0.5437654 0.70585024 0.7077648 0.73112047 0.7253082 0.76198465 0.74244297 0.6725404 0.6212366 0.6616789 0.6305158 0.5727818 0.5683596 0.5226254 0.5608602 0.52313983 0.29525867 0.48516172 0.30383658 0.3653741 0.37236804 0.40107477 0.41506082 0.3457771 0.4220268 0.28197768 0.34725496 0.34794733 0.21326697 0.38579428 0.42633036 0.4540048 0.42157662 0.4617588 0.52753156 0.5161817 0.5319012 0.5573805 0.5391433 0.54387003 0.37452304 0.35217446 0.38806194 0.3953247 0.4119795 0.40879452 0.40395814 0.44049677 0.42602503 0.4104442 0.34357098 0.41700605 0.25796643 0.34484074 0.16613238 0.26924554 0.25509703 -0.06862208 0.25521454 0.2545643 0.5086677 0.5099971 0.48584563 0.45698988 0.31083578 0.2662023 0.25185156 0.54150236 0.53987825 0.5113827 0.47471714 0.32192403 0.464247 0.48052216 0.4231973 0.30797592 0.45497984 0.40251085 0.44668853 0.30448943 0.3064027 0.45412165 0.42965215 0.469849 0.2946466 -0.079421416 0.37073952 0.45593572 0.48442298 0.27473408 0.51291996 0.51546186 0.22059982 0.060352743 0.057840437 -0.08957652 0.18944415 0.563114 0.5679066 0.22984608 0.104481876 0.15924096 0.2616952 0.33405036 0.57661545 0.5887656 0.5851802 0.16110763 0.19958246 0.3038481 0.36272317 0.44756874 0.5739345 0.5993402 0.15600733 0.28427792 0.26643467 0.43094277 0.5701956 -0.08661248 0.2960811 0.23088792 0.23557004 0.28403613 0.15779084 0.28118828 0.27654535 0.005765956 0.27534276 0.25583175 0.26345527 0.26466087 0.5197842 0.27863228 0.34629643 0.37248978 0.55494434 0.5028072 0.54068494 0.70453954 0.60781527 0.6088834 0.6499961 0.6509167 0.58069515 0.6055094 0.55035233 0.5119319 0.45570576 0.4048341 0.41129917 0.25900075 0.2918127 0.38215405 0.25723964 0.31443143 0.32767403 0.28488553 0.27757758 0.027690984 0.057515487 0.17306185 -0.011068709 0.30404052 0.32358533 0.1914838 0.47980142 0.343839 0.33665812 0.31578714 0.32121366 0.1963144 0.38206983 0.32218724 0.22694415 0.24719797 0.2691706 0.22308661 0.18156055 0.16001089 0.21820098 0.24905498 -0.21219464 0.2429412 0.44957232 0.41979164 0.38829064 0.04257784 0.5072113 0.33467078 0.32444656 0.4738097 0.21377927 0.29714638 0.23920795 0.41470784 0.40989858 0.42745307 0.29411638 -0.22379377 0.42459512 0.46082392 0.29422534 0.2797816 0.49402285 0.510477 0.2734461 0.2660702 0.5210433 0.25306326 0.55450046 0.28176975 0.040704608 0.07588569 0.57990396 0.3334662 0.14179757 0.27726257 0.24919319 0.60176885 0.5911125 0.25296646 0.26362893 0.31099653 0.38346055 0.40680778 0.5006003 0.5667864 0.6027541 0.115494736 0.2854343 0.28737533 -0.016706116 0.23415251 0.26726812 0.2878785 0.18486471 -0.054474134 0.3039266 -0.07496716 -0.07542693 0.32920304 0.32227367 -0.051746268 0.31369853 0.041774433 0.2807929 0.27064544 0.29789412 0.27934107 0.33150718 0.36202645 0.4616021 0.519425 0.50967705 0.78331983 0.7648802 0.578787 0.60809624 0.6309682 0.5170128 0.7472687 0.7182003 0.679754 0.6636201 0.5250922 0.5629693 0.52664804 0.48888525 0.31124914 0.38358688 0.1665483 0.21772712 0.20012338 0.1343765 0.072838455 0.1929976 0.07985815 0.07413925 0.16273113 0.19085957 0.37807143 0.15133908 -0.047888152 -0.06981595 0.28926134 0.44719833 0.5022552 -0.32713908 -0.17917399 -0.084668756 -0.10667926 0.38886267 0.5029817 0.56241864 0.56822306 -0.29320955 0.082551055 -0.018585376 0.5182238 0.5670022 0.30554652 0.13273434 0.1651182 0.12798688 -0.00037503242 -0.022951223 0.06419719 -0.11739077 0.14373241 -0.13312253 0.18124805 0.12811382 0.16342455 0.16132395 0.23037867 0.32826725 0.27113408 0.09694801 0.68294454 -0.16347179 0.46323687 0.07152872 0.65726876 0.07732552 0.2781029 0.1808956 0.19201565 -0.28456607 0.43797904 0.25017875 -0.25319943 0.47573388 0.18448645 0.49730974 0.25022212 0.5211988 0.34106147 0.5491368 0.3805219 0.17393275 0.56429315 0.34839758 0.31801108 0.29108232 0.51515275 0.56864166 0.15289126 0.058227547 0.19869131 0.32932797 0.3491501 0.36878508 0.41505724 0.4437663 0.17788249 0.2926837 0.19981135 0.29720724 -0.060883254 0.3455851 0.35262972 0.046415742 0.35278952 0.33863103 0.14793062 0.3001864 0.276759 0.15642533 0.14823055 0.29195875 0.372815 0.3616966 0.38895315 0.4322887 0.43185794 0.7927853 0.81041205 0.83714324 0.82848704 0.7937584 0.7797396 0.79818916 0.79546666 0.77867043 0.7310947 0.54981995 0.5073541 0.5716547 0.55126953 0.7037144 0.655975 0.61918604 0.4753898 0.44455665 0.42628825 0.3393964 0.4339596 0.43417704 -0.054155145 0.34173805 0.10829926 0.20759209 0.19929221 0.19287002 0.12769678 0.08678631 0.07542665 0.12363498 0.19683614 0.3592119 0.4461852 0.048560675 0.24920097 0.4071597 0.4643588 0.50315404 0.16374496 0.121308275 0.5191923 0.5472899 -0.09772557 -0.10017367 -0.114548944 0.01663734 0.14798178 0.56580675 0.16488844 -0.26213938 -0.13245022 -0.05184355 -0.09229712 0.1542673 0.31422254 0.5604141 0.54908925 0.22528291 -0.47824624 -0.32658562 -0.074671924 0.0017639995 -0.028424662 -0.062467247 0.05681856 0.2484461 0.38138092 0.50911367 0.5101032 0.22191745 -0.34787852 -0.19462582 -0.04063252 0.2117253 -0.050648987 0.180254 0.004876055 -0.04967067 0.10862129 -0.15547012 0.021375805 -0.00783747 0.09500854 0.16337866 0.015098408 -0.17255557 0.017694466 0.14348489 0.10932751 0.57845503 -0.22378786 0.09464657 0.12826225 0.76703745 0.74679554 0.6817856 -0.1390169 0.10920514 0.09108098 0.7579993 0.73173785 0.31395233 0.064268366 0.005240284 0.64038885 0.10742499 0.050999362 -0.31848824 -0.029190078 0.043550834 -0.28514162 -0.3360693 -0.3611832 0.4360353 0.09023897 0.44175887 0.18321364 0.3137883 0.4931739 0.38871026 0.3753639 0.4581768 0.51303494 0.36491144 0.31855816 0.435656 0.47202206 0.22339153 0.031747915 0.29955944 0.32176933 0.27143496 0.37383246 0.42956483 0.02649862 0.28245127 0.27581784 0.32126486 0.30372873 0.27281654 0.13356057 -0.07307446 0.25577408 0.3343498 0.3364966 0.29074007 0.19991763 0.24868518 0.18814577 0.24559468 0.23836832 0.2609834 0.26103508 0.15607959 0.22622576 0.7581259 0.7830597 0.8575333 0.83856016 0.7882221 0.71106315 0.7173922 0.6934397 0.630541 0.5542919 0.59892094 0.5766338 0.34015912 0.37867972 0.5235566 0.48658738 0.5237333 0.43019837 0.41521704 0.32193202 0.22181705 0.24392523 0.2802896 0.19292356 0.18028842 0.14783524 0.3969312 0.2029548 0.16147883 0.44632566 0.2942657 0.24092351 0.21166444 0.47733587 0.28188625 0.25317067 0.18902473 0.5297755 0.48249686 0.16378799 -0.005893396 0.51396704 0.22632656 0.42964607 0.23130798 0.009831235 0.027255572 -0.0010364726 0.005348201 0.24760267 0.2803623 0.22188997 -0.14496471 -0.07033873 -0.09031755 -0.25671595 -0.04597895 0.16010588 -0.090256654 -0.14725767 0.010486454 0.07056341 0.07963248 -0.13418353 -0.16183518 0.09810916 0.045800693 0.022071185 0.052897513 0.73184395 0.6588297 -0.015322953 0.08775083 0.06182178 0.77221704 0.7600608 0.06336623 0.75272924 0.18301737 0.026824092 0.6839089 0.5666231 -0.062465943 -0.04719168 0.2187678 -0.27404836 0.33356655 -0.3151249 -0.39068663 -0.32165372 0.34570783 0.0012499103 -0.0037892526 0.39637107 0.12463736 0.036886413 0.24053857 0.33987868 0.20674717 0.16032082 0.366427 0.292984 0.3716731 0.23935956 0.34490988 0.033525594 0.1948311 -0.04550745 -0.007337112 0.10201639 0.056023724 0.31521145 0.26863042 0.23977467 0.05840694 0.1784755 0.2400831 0.3244233 0.19369087 0.32144934 0.30772775 0.059628874 0.32663533 0.13672931 0.11854406 0.14033914 0.25474933 0.68869066 0.7018341 0.75861377 0.80500793 0.7512907 0.8196616 0.7876345 0.6406131 0.6962756 0.6485722 0.81634504 0.7637582 0.69752336 0.2751421 0.32240668 0.51365095 0.7044868 0.6499436 0.6480229 0.4936372 0.2756437 0.28058633 0.446984 0.4171902 0.61964107 0.59003377 0.53515756 0.41470098 0.34845325 0.2811302 0.4255216 0.3868521 0.55932635 0.21716115 0.2147897 0.17118825 0.14841902 0.11143053 0.22756214 0.26214826 0.2507328 0.26184955 0.31566793 0.32070023 0.33259264 0.37012675 0.31019315 0.32770944 0.29520676 0.39803293 0.34429333 0.22114773 0.30300283 0.19212401 -0.007003613 0.17522638 -0.17878248 0.026859567 0.1326699 -0.28187996 -0.062416654 -0.053398795 0.019417688 -0.008460037 0.021418937 0.74195576 0.7030562 0.6090907 0.037377667 0.18595216 0.7489817 0.7166097 -0.03634453 0.23974167 0.3197616 0.7341256 -0.1106502 -0.07528658 0.12662607 0.38261956 0.48786464 0.6273281 -0.57407284 -0.13594173 0.37379688 -0.6050401 -0.1959452 0.03866247 0.047352288 -0.6222766 -0.22152689 -0.04762771 -0.061622687 -0.016085405 0.19112548 0.04086901 -0.10347139 -0.094696045 0.08376281 0.3257873 -0.2610505 0.0983064 0.19630352 0.0361131 0.32628495 0.08080253 0.35830897 0.05973904 0.3580456 0.3651563 0.24035582 0.24735305 0.33686042 0.36401075 0.35455525 0.62551486 0.65304685 0.6543294 0.894821 0.976941 0.8885515 0.78250086 0.46181035 0.48309994 0.44113314 0.5516364 0.5965374 0.82367086 0.8749258 0.7088859 0.6438693 0.32097334 0.33800602 0.27871272 0.520129 0.7214132 0.4812935 0.4101361 0.29317486 0.30398846 0.44327652 0.6103262 0.6289345 0.3340015 0.2845106 0.37381455 0.32814097 0.56483155 0.29250693 0.22429673 0.22651678 0.14963424 0.49985018 0.19584003 0.005350746 0.09313035 0.33665586 0.14438808 0.3523857 0.20518968 0.3542133 0.34056783 0.25112334 0.32744104 0.21107087 0.19393325 0.21047464 0.07928116 0.047021426 0.06365887 -0.05894336 0.035325058 0.038958363 0.14347792 -0.06274322 0.06334382 0.1887116 0.32582