# vtk DataFile Version 2.0
Really cool data
ASCII
DATASET POLYDATA
POINTS 10377 float
-38.72419 14.059929 -9.036261
-38.681553 13.863475 -8.445233
-38.65174 13.957288 -7.939513
-39.00265 14.809175 -9.2352295
-39.07581 14.586122 -8.539269
-39.06898 14.868224 -8.021621
-38.772614 15.746814 -9.746771
-39.269238 15.56959 -9.104388
-39.36193 15.616288 -8.461599
-39.078636 15.421014 -7.8473725
-38.7894 15.92802 -9.705569
-39.165474 16.350277 -9.059575
-39.280624 16.223589 -8.523907
-39.120796 16.178728 -7.962904
-38.63321 19.803806 -8.44566
-38.62207 20.341267 -8.548077
-38.606113 20.544794 -7.651537
-38.5291 20.819946 -6.5169463
-37.90631 13.189688 -9.019503
-38.11255 13.195931 -8.383527
-37.954384 13.1335335 -7.951481
-37.881428 13.974895 -9.897148
-38.307644 13.639131 -9.171255
-38.378685 13.435802 -8.447729
-38.301228 13.655396 -7.7918015
-38.20096 14.717328 -10.030747
-38.641125 14.535944 -9.582525
-38.59818 14.412415 -7.5962033
-38.335087 15.341959 -10.144057
-38.409813 15.503733 -7.192675
-37.958385 15.990166 -10.417962
-38.53374 17.081345 -8.668199
-38.4189 17.127926 -7.973133
-37.602455 18.889114 -14.067692
-37.68723 18.56344 -13.385585
-37.713497 18.690071 -12.647743
-37.597298 18.377424 -10.086547
-37.806152 18.673906 -6.9894056
-37.97432 20.004585 -13.5757265
-38.17598 19.600811 -12.253362
-37.908104 19.403086 -11.523454
-38.082497 19.698584 -10.505304
-38.366905 19.746704 -9.454737
-38.41138 20.047274 -6.759026
-37.680862 19.575638 -6.1446276
-37.699066 20.264187 -14.12923
-38.103012 20.262123 -13.275903
-38.144318 20.443089 -12.604552
-38.095924 20.320765 -10.560414
-38.364307 20.592152 -9.201204
-38.505196 20.583765 -8.698842
-38.405655 20.572483 -6.364949
-38.0636 20.626781 -5.702463
-37.825558 20.776285 -5.3256307
-37.65286 21.292795 -14.055668
-37.877853 21.076324 -13.359697
-37.913692 21.097803 -12.5627165
-37.79464 21.046658 -11.420237
-37.830807 20.96434 -9.79683
-38.379753 21.021185 -8.405449
-38.305748 21.395222 -7.419698
-38.36113 21.390017 -6.517818
-38.194187 21.310163 -5.873032
-37.904938 21.628967 -8.153597
-37.998608 21.85986 -7.2128315
-37.99781 21.87649 -6.400082
-37.959373 21.79656 -5.9396377
-36.638226 10.163266 -5.3731804
-36.5825 9.93912 -4.666903
-36.766045 10.674405 -5.4221582
-36.77159 10.509421 -4.6378717
-36.68475 10.665999 -4.016364
-36.780804 11.389839 -5.320033
-36.778236 11.438659 -4.408618
-36.6566 11.435354 -3.9761412
-37.55754 13.0659485 -8.985084
-37.194717 12.840397 -8.368909
-37.26958 12.814874 -7.8475537
-36.60117 12.281404 -6.1747837
-37.525364 14.2234125 -10.154281
-37.522762 13.464801 -9.545451
-37.336014 13.792119 -6.6148067
-37.23843 14.867067 -10.476423
-36.972103 14.774392 -6.076379
-37.152046 15.698512 -10.852114
-37.467472 15.374059 -6.495062
-36.971336 15.499558 -6.1411514
-36.919056 16.90464 -6.3712626
-36.766518 18.127577 -14.762709
-37.076897 17.997591 -14.32817
-37.427803 17.89366 -13.571741
-37.338436 17.904991 -12.086092
-37.166687 17.125416 -10.416077
-37.632397 17.673452 -7.2325096
-37.01264 18.644316 -14.759468
-37.36836 18.476274 -14.200234
-37.0043 18.997581 -5.8639536
-36.976616 19.60881 -14.963594
-37.395985 19.210539 -14.530552
-37.218628 19.26994 -5.794159
-37.117073 19.848326 -5.1357746
-36.88751 20.891525 -15.178354
-37.44503 20.537836 -14.58642
-37.624676 20.797464 -5.265345
-36.946743 21.468292 -15.142647
-37.41114 21.594555 -14.377507
-37.574593 21.66259 -13.037271
-37.458164 21.376802 -5.3053327
-36.89908 21.8818 -14.931644
-37.016 22.164759 -14.354875
-37.175602 22.060621 -13.590797
-37.08716 21.97997 -12.899874
-37.022224 21.803547 -11.939621
-36.830593 22.04015 -9.442351
-37.37316 22.013462 -8.1194725
-37.23147 22.161678 -7.3561316
-37.52912 22.156029 -6.446082
-37.41511 21.93752 -5.7355022
-35.59184 8.776731 -12.839601
-35.60784 8.588815 -12.464063
-35.68349 8.79402 -11.940299
-35.960983 9.231495 -5.1561275
-35.859947 8.904266 -4.3424525
-35.855217 8.910802 -3.7525363
-35.577095 9.366325 -12.888273
-35.662422 9.593545 -12.6283865
-35.772057 9.559187 -11.735053
-35.621696 9.473582 -10.490833
-35.874424 9.686032 -6.0741925
-36.374226 9.783078 -5.382862
-36.3809 9.620534 -4.4760623
-36.095425 9.549704 -3.6653728
-35.904976 9.695455 -3.2828186
-35.658558 9.951308 -12.34841
-35.563625 10.153948 -11.954846
-36.259174 10.826571 -6.4985743
-36.451885 10.761409 -3.5830297
-36.0486 10.688416 -3.2483695
-36.05995 11.62329 -7.6892085
-36.404926 11.297623 -3.5257118
-36.018986 11.184626 -3.2669199
-36.56646 12.805345 -4.6703415
-36.263763 12.190359 -3.9167361
-35.788647 12.876203 2.7634022
-35.86856 12.771032 3.5543838
-35.730385 13.024302 4.522878
-36.52308 13.575489 -9.883071
-36.22005 13.37255 -4.5948873
-35.971565 13.014941 -4.091519
-35.669228 13.709308 2.1779492
-35.84678 13.527451 2.7034724
-36.09924 13.603195 3.4613063
-35.949226 13.515945 4.28144
-35.72239 13.429819 4.723422
-36.65553 15.174887 -10.863015
-36.573982 14.339385 -5.6010776
-36.251286 14.203255 -4.9810786
-35.921528 14.4543915 2.809388
-36.035748 14.3538 3.5939348
-35.871212 14.204393 4.307052
-36.508682 15.541763 -11.024157
-35.719933 15.311864 2.697062
-35.748325 15.139194 3.3948858
-36.34332 17.3454 -13.902114
-36.390846 17.293407 -13.770848
-35.81622 16.78652 -4.2005115
-36.340405 18.002605 -14.82872
-36.472107 17.607111 -14.372151
-35.653343 17.485767 -3.408034
-36.309643 18.557383 -15.081501
-36.062653 18.432297 -5.297787
-36.134853 18.481964 -4.6410003
-36.03039 18.679876 -3.843641
-35.686893 18.325844 -2.9798417
-36.27131 19.691208 -15.308317
-35.972034 19.104109 -3.6914322
-35.75872 19.021353 -3.1796207
-36.06314 20.434053 -15.557604
-36.546307 20.768166 -15.406654
-36.116383 20.756887 -4.6433997
-36.074368 21.145693 -15.523651
-36.445164 21.531628 -15.328353
-36.587 21.170864 -5.0870585
-36.345806 22.140013 -14.983296
-36.494698 22.431614 -14.527216
-36.672527 22.461676 -13.878663
-36.625324 22.338152 -12.623268
-36.180374 22.264917 -11.451007
-35.95714 22.220402 -10.175992
-36.307514 22.255096 -8.791291
-36.421307 22.292463 -6.5907416
-36.563602 22.128109 -5.8811126
-36.20274 22.59512 -14.081927
-36.30977 22.608236 -13.462218
-34.837814 6.948591 -13.2186
-34.923313 6.918526 -12.740703
-34.811405 7.050583 -11.799797
-34.765667 7.683052 -13.688411
-35.027836 7.5074687 -13.306094
-35.23027 7.530298 -12.617707
-35.16717 7.628931 -11.751352
-35.111305 8.00436 -11.045922
-35.23582 8.416883 -4.079149
-35.144646 8.458967 -3.9103286
-34.77607 8.420339 -13.63547
-35.290928 8.680303 -13.181169
-35.435932 8.239878 -12.374406
-35.382824 8.623248 -11.311697
-35.143803 8.650297 -10.376791
-34.90274 8.677091 -9.268303
-34.9347 9.112601 -8.31023
-35.618202 9.277854 -5.849977
-35.37421 8.87117 -5.1045456
-35.319607 8.572014 -4.3056192
-35.473072 8.707121 -3.6068997
-35.43972 8.993819 -3.2080054
-34.837685 8.965161 -13.622166
-35.119743 9.399179 -13.30279
-35.493378 9.932732 -10.56909
-35.44904 9.458234 -9.633485
-35.17307 9.695338 -8.25929
-34.9893 9.441726 -8.049002
-35.67363 9.535191 -6.0596285
-35.269066 9.657251 -2.9382427
-35.156475 10.163631 -12.976862
-35.452076 10.196657 -12.522073
-35.529137 10.221466 -11.819595
-35.45712 10.672374 -9.99292
-35.409462 10.728681 -9.585325
-35.371502 10.520505 -8.693642
-35.00093 10.75857 -12.1304
-35.171707 12.159041 2.772071
-35.32483 12.097064 3.4327886
-34.991486 12.149111 4.6026993
-34.801533 12.068636 4.9287868
-35.11256 13.088519 -9.6115265
-34.970867 12.4037285 -3.416024
-35.152023 12.652872 2.0950737
-35.506966 12.68412 2.557725
-35.56895 12.443329 3.4310663
-35.57781 12.752971 4.484043
-34.975372 12.755844 5.156756
-35.04453 14.1263485 -10.385079
-35.427197 13.56351 1.9998816
-35.28018 13.498651 5.0482492
-35.787052 14.952567 -10.82377
-34.95523 14.769907 -3.5200868
-35.196846 14.34462 1.7722846
-35.49917 14.415516 4.6510267
-35.310608 14.332817 4.8484755
-35.468204 15.6951065 -3.7255142
-34.955288 16.08355 -3.2258446
-35.124397 15.488985 1.8289123
-35.532413 15.660809 2.5944552
-35.440517 15.628238 3.4658475
-35.2576 15.244928 4.21605
-35.773197 17.214363 -13.20734
-35.571915 17.156805 -12.775771
-35.198822 16.713926 -3.1548996
-35.201584 15.993454 2.6045604
-35.202206 15.988522 3.2634256
-34.828526 15.989469 4.0030317
-35.80029 17.904104 -14.763859
-35.662746 17.74742 -14.505925
-35.049812 17.352465 -2.5384197
-34.88236 17.565256 -2.3577406
-35.67406 18.490217 -15.037467
-35.311695 18.903414 -2.352657
-35.05876 18.554281 -2.1159422
-35.51686 19.882265 -15.394351
-35.489235 19.320583 -2.718186
-34.819664 19.507362 -1.7091277
-35.51074 20.548862 -15.575017
-35.498238 20.018953 -3.3223567
-34.84342 20.473589 -2.3961916
-34.72698 20.219305 -1.7773265
-35.63911 21.17373 -15.573348
-35.463207 21.51119 -15.402624
-34.689354 20.70948 -2.875014
-35.475998 22.064037 -15.071378
-35.525913 22.465702 -14.5526
-35.557716 21.99702 -6.257357
-35.188915 21.795597 -5.837955
-35.790115 22.662663 -14.131824
-35.305893 22.662731 -13.626687
-35.650784 22.6386 -12.890146
-35.46213 22.597252 -11.54268
-35.651432 22.533525 -9.386233
-35.00499 22.866585 -8.903209
-35.07202 22.797138 -7.8646216
-33.650635 3.1074731 2.8584497
-33.596687 2.9382634 3.265299
-33.762 3.7531872 2.7201593
-33.783302 3.5899627 3.4132519
-33.651833 4.085694 4.329846
-33.786755 4.544388 2.2415938
-33.96833 4.5399566 2.6608531
-34.05212 4.610165 3.3364642
-33.77918 4.6825747 4.323252
-34.11859 6.429124 -13.072677
-34.139862 6.3739533 -12.51317
-33.95258 6.3660803 -11.998983
-33.670406 5.6810727 2.2739224
-33.96971 5.248773 2.5924768
-34.05751 5.1855884 3.430973
-33.757328 5.509484 4.2074137
-34.276375 6.964051 -13.716016
-34.42245 6.733584 -13.400191
-34.560383 6.5481377 -12.60279
-34.22104 6.610183 -11.789809
-34.273376 7.17767 -10.9344425
-33.668823 6.190659 2.7431686
-33.73441 6.0644836 3.3879027
-34.40574 7.5150623 -13.820117
-34.2521 7.597103 -10.589219
-34.790367 8.429902 -4.2277465
-34.80322 8.426175 -3.93601
-34.28345 8.312035 -13.835849
-34.716053 8.442099 -9.211528
-34.39138 8.5690565 -8.608664
-34.240067 8.928351 -7.620995
-34.362545 9.1183 -6.2282076
[...]
POINT_DATA 10377
SCALARS features_00 float 1
LOOKUP_TABLE default
0.64014983 0.6157987 0.5913894 0.6965509 0.6843355 0.6776116 0.6433836 0.7373224 0.7342865 0.67064196 0.64574873 0.7171658 0.7206735 0.6509652 0.30947357 0.35330448 0.5208956 0.6736821 0.5656097 0.5559458 0.5152432 0.5708834 0.6031609 0.5803077 0.53952235 0.5678967 0.64734703 0.5778638 0.54886866 0.4591019 0.4416397 0.5784215 0.48579144 0.60417795 0.5667903 0.48909184 0.11816469 0.1276205 0.5733118 0.40653348 0.29391634 0.19017075 0.19534191 0.58014995 0.37946373 0.6378455 0.5519632 0.4753649 0.22827956 0.30159968 0.3587831 0.6587335 0.64875406 0.65579766 0.70403194 0.6072933 0.5087136 0.35036942 0.27894235 0.43569076 0.5934261 0.6910265 0.71769345 0.48278797 0.6190828 0.70505965 0.7275313 0.5797715 0.653762 0.55130666 0.6168481 0.6233932 0.5122336 0.52937114 0.53045344 0.54142773 0.4706638 0.4286866 0.29799294 0.4972543 0.55946696 0.31987476 0.4167561 0.15079355 0.36879742 0.18266468 0.08703826 -0.028556123 0.67869914 0.662031 0.6248541 0.39858836 0.26261902 0.022396207 0.6591959 0.6309097 0.1066234 0.67758554 0.6329322 0.21483198 0.36377922 0.77294433 0.7025058 0.64995277 0.8218186 0.7643717 0.6000291 0.6983496 0.8429639 0.7941791 0.68954533 0.59736955 0.4603228 0.23373806 0.44580626 0.5385982 0.68357295 0.7138876 0.7539339 0.72228503 0.6361753 0.6199414 0.70167667 0.7646797 0.7420374 0.71898305 0.6002911 0.44253618 0.47016573 0.5919347 0.6877405 0.7723057 0.80625993 0.6945932 0.6507429 0.3717898 0.62879926 0.6692629 -0.11139476 0.54023707 0.56437516 0.3156331 0.42780095 0.7106365 0.74343556 0.71586 0.39106467 0.15496773 0.24770552 0.7423017 0.75734025 0.7856617 0.75193 0.71026033 0.31963563 0.08652401 -0.004177898 0.815907 0.7954687 0.7588848 0.26740333 0.81620526 0.774871 0.72665757 0.73123074 0.16969436 0.69744605 0.6994828 0.28212905 0.6967191 0.009648789 0.10948023 0.26113647 0.36119002 0.7192749 0.29727453 0.38720128 0.7651092 0.7739747 0.39825332 0.8189334 0.84156036 0.5997303 0.86776686 0.8325323 0.7457304 0.5708168 0.39840877 0.14108941 0.2073049 0.4805763 0.56221956 0.781181 0.69270706 0.9695746 0.9268785 0.80262375 0.923435 0.9166262 0.851819 0.73084414 0.5815866 0.7169002 0.73486984 0.84186614 0.79089224 0.74158007 0.56705475 0.4417826 0.33955497 0.24925701 0.5048438 0.5982247 0.6941356 0.77407205 0.8183603 0.79802644 0.7686362 0.44919437 0.34854817 0.24354805 0.2156562 0.4598024 0.8655334 0.7390125 0.716234 0.63341874 0.346905 0.30105865 0.2545721 0.70699036 0.61734444 0.68077654 0.65304446 0.6235541 0.082726635 0.2900024 0.6116964 0.6717917 0.71356833 0.7050761 0.6422447 0.12466207 0.70337176 0.67012465 0.20113462 0.026970364 0.776934 0.7175893 0.6919439 0.07419914 0.10596795 0.9234657 0.833176 0.7722912 0.72950023 0.72857803 0.6066654 0.1844325 0.85480845 0.7965597 0.7599884 0.72278214 0.7309701 0.2654851 0.29025745 0.73181534 0.4640423 0.43942943 0.76156944 0.47000563 0.5862508 0.7890558 0.38289902 0.57956135 0.60827756 0.825645 0.8442874 0.5235102 0.8536923 0.8162086 0.2682065 0.20327663 0.779617 0.7001897 0.62629795 0.4283997 0.15162584 0.29157925 0.30450237 0.61676145 0.60993207 0.6358826 0.62671554 0.5277792 0.6595875 0.6830984 0.6908704 0.5734323 0.97628105 0.9109764 0.8349186 0.6211301 0.684494 0.69597125 0.6168702 1.0 1.0 0.92544615 0.80745673 0.6666868 0.5903733 0.61074436 0.9607743 0.567156 0.6808857 0.71514094 0.85975313 0.3331431 0.24968372 0.14683498 0.24983567 0.5369456 0.63489974 0.73459923 0.7822304 0.7720695 0.7657126 0.8202078 0.7440579 0.71358657 0.57929796 0.66790366 0.518131 0.5084166 0.54706204 0.5418005 0.59759736 0.17096655 0.5052691 0.61642337 0.61243826 0.0046441965 0.5400429 0.6064961 0.63620555 0.62189585 0.0978114 0.09395541 0.030431435 0.03162573 0.69764906 0.6142591 0.056203105 0.9668331 0.68461585 0.64541435 0.032211676 0.16728471 0.9095432 0.81423366 0.7504798 0.66326976 0.6052417 0.42122084 0.24400964 0.31709188 0.71712744 0.6732275 0.46529853 0.7206546 0.67382455 0.6134538 0.79409635 0.6113816 0.59956527 0.8098647 0.73940325 0.062195633 0.5338058 0.58350754 0.8098204 0.72907823 0.64220464 0.5608526 0.19225782 0.0949053 0.6869812 0.51102626 0.40137935 0.4155867 0.34595603 0.5849637 0.58872586 0.5736934 0.59628886 0.5939137 0.52005196 0.3485306 0.5881126 0.6059734 0.4951666 0.33286965 0.54553235 0.47064975 0.35684615 0.97405547 0.8987299 0.79336643 0.55855465 0.42359346 1.0 1.0 0.71698356 0.6633636 0.49410042 0.5496187 0.5773094 0.5411633 0.4463892 0.9621579 0.43343705 0.47370106 0.49024308 0.4534248 0.8407599 0.1515548 0.08221483 0.5886276 0.65122515 0.7183341 0.6115327 0.59432745 0.72081935 0.61638314 0.51407343 0.4442864 0.292332 0.31879976 0.46976838 0.51558423 0.57693666 0.30597076 0.33566564 0.3726839 0.58491737 0.5799586 -0.0075276867 0.025906244 0.33855936 0.57766175 0.15995339 0.49537814 0.5902401 0.059606217 0.5471239 0.5492934 0.33060002 -0.008588737 0.8174608 0.56628835 -0.16984537 0.038960043 0.0233756 0.8518059 0.7738797 0.7694021 0.70247746 0.5149149 0.18166074 0.24448353 0.6062651 0.54468036 0.44701385 0.37153506 0.6021435 0.436414 0.5889112 0.6223497 0.24760911 0.56459117 0.7499814 0.71064895 0.54972875 0.4051042 0.18834022 -0.027321955 0.39095122 0.43738294 0.5587642 0.5504136 0.68133163 0.6067211 0.46471834 0.2146788 0.26898274 0.11460411 0.38085914 0.45563924 0.49524587 0.482889 0.33948633 0.32250875 0.5558393 0.554855 0.43274873 0.4153608 0.4464116 0.530447 0.40859228 0.26848403 0.31443766 0.45069563 0.5340153 0.28935996 0.15628046 0.45950496 0.27369964 0.83095974 0.7565049 0.26865178 0.159868 0.9852996 0.81472003 0.71959895 0.59047616 0.26890108 0.38439608 0.24357475 0.13088948 0.91826826 0.9371239 0.31052944 0.1410909 0.061326858 0.38077283 0.46212798 0.2295304 0.8006998 0.6817627 0.052140165 0.013343915 0.3128916 0.44068557 0.53403723 0.06279217 0.1743711 0.45206827 0.38894853 0.20327884 0.1526415 0.24016623 0.36087626 0.4638067 0.33413014 -0.012307305 -0.13810343 0.21255237 0.5315182 0.09484869 0.011871181 0.29186895 0.5456163 0.3471756 0.035452873 0.41025844 0.3693806 -0.12548506 0.43851918 0.48533475 0.49396122 0.40056658 -0.085169025 0.7755357 0.5560913 0.45373994 0.13504592 0.7475724 0.70263624 0.6464516 0.33415735 0.020212851 0.11770337 0.14812887 0.4401571 0.2976716 0.31586298 0.3217113 0.34166688 0.7318274 0.46320736 0.47245485 0.53161144 0.5354843 0.81701267 0.7947571 0.73263025 0.5335673 0.54693484 0.78152776 0.76375794 0.7704452 0.77030134 0.76664853 0.7891287 0.7927967 0.782333 0.8062823 0.35864547 0.44791192 0.4876514 0.47467756 0.4508033 0.3285095 0.4356683 0.42074054 0.2806483 0.3108257 0.322456 0.32403442 0.09671837 0.4618306 0.3774397 0.096787035 0.020369813 0.03322266 0.17229623 0.41081327 0.44482023 0.46729225 0.44642887 0.32154378 0.060642764 0.12733898 0.2671583 0.30089694 0.41660613 0.4674458 0.5043693 0.7824937 0.670064 0.517415 0.26009357 0.09117728 0.03115037 0.04957433 0.34083843 0.39388484 0.477976 0.5300387 0.58301175 0.8277476 0.8250863 0.60623366 0.45258862 0.21528631 0.06810184 0.16042194 0.25251356 0.049991168 0.04834927 0.31915107 0.44622982 0.4850226 0.56992614 0.6687002 0.5415454 -0.007673487 -0.01805266 0.18776822 0.332246 0.2879739 0.0721504 0.0637434 0.052305527 0.45458817 0.40385848 -0.043016374 0.00063968543 0.15793313 0.27815747 0.27240694 0.3490178 -0.0765463 0.019390356 0.10122405 0.085512824 -0.36883616 -0.1748106 -0.006012909 0.36623406 0.2729493 -0.24325666 -0.24645278 -0.14397728 0.3518642 0.3692719 -0.027619272 0.39576638 0.40986538 -0.094840355 0.32627392 0.38359612 0.8483243 0.39438057 0.36744952 -0.12392803 -0.22563106 0.6835063 0.561713 0.33589602 0.27001703 -0.086447574 -0.0049287826 0.1369132 0.24129839 0.3666646 0.26596978 0.04498915 0.41402245 0.32306734 0.4229524 0.4550187 0.5651622 0.7467975 0.51784015 0.5083143 0.52910715 0.55063623 0.5740762 0.5720327 0.6972898 0.6345252 0.54922104 0.5650954 0.85174334 0.82967746 0.7737729 0.7448013 0.8491271 0.8312985 0.66481483 0.6432745 0.6968506 0.7024788 0.7116432 0.70323 0.69867796 0.74650013 0.7569716 0.7350306 0.7216974 0.6655575 0.7360089 0.74212253 0.36154965 0.4418192 0.6275421 0.6966772 0.76216567 0.7848872 0.3256947 0.47178274 0.44715518 0.414241 0.6513485 0.6915376 0.7386513 0.24402621 0.4204689 0.5285759 0.381287 0.25688592 0.55800563 0.49251452 -0.011088289 0.13161969 0.22356814 0.3124634 0.3992225 0.41365278 0.5312295 0.50952387 0.1546751 0.26342884 0.36221063 0.429416 0.45327955 0.40893757 0.5116934 0.5535847 0.39911586 0.43414748 0.35685214 0.2787874 0.20746423 0.5981288 0.6230202 0.23729213 0.2358321 0.3367044 0.367474 0.38417143 0.08669392 0.13251488 0.33737648 0.5137421 0.610458 0.6859392 0.6812191 0.45335034 0.26839617 0.04238993 0.15078905 -0.29596674 0.056496315 0.40358096 0.47471216 0.54529744 0.64764214 0.71863407 0.7122199 0.27615073 0.06955147 -0.075503014 -0.14376928 -0.21425167 -0.14913602 -0.06615798 0.072446615 0.15603793 -0.18202688 -0.15093592 -0.16189814 -0.17726295 0.22443256 -0.05486828 -0.30540085 -0.16688243 0.23837326 0.25284794 0.65641856 0.72354007 0.75889874 0.2892641 0.6886599 0.7948752 0.8410016 0.7566979 0.33558926 0.14640944 0.3097684 0.7015044 0.7594689 0.8382269 0.85735595 0.71508807 0.33640063 -0.0059988797 0.71242225 0.76779836 0.75003374 0.6592283 0.30611825 0.2411957 0.09472706 0.056292415 0.027372919 0.0720175 0.085129656 0.24217296 -0.004191652 0.034004837 0.3665168 0.45084646 0.29631692 0.14710547 0.4448469 0.5407585 0.5182566 0.32562602 0.54819065 0.61520284 0.60384613 0.58307374 0.7006522 0.4490417 0.5942556 0.5922504 0.5803442 0.7123761 0.605681 0.79191226 0.8102765 0.7245007 0.64562804 0.8463013 0.8533766 0.81406295 0.59479654 0.6085874 0.6211186 0.6418483 0.6395787 0.61276805 0.5527062 0.5576913 0.6413225 0.5945319 0.55508304 0.61602455 0.6182574 0.33540726 0.37957317 0.3541466 0.31581512 0.5242521 0.57571626 0.5456809 0.24211225 0.30829352 0.37926066 0.3375331 0.5038602 0.5612041 0.58781064 0.6018281 0.6526072 0.16442034 0.18322787 0.16966718 0.19846669 0.19726446 0.51507425 0.5940195 0.4688004 0.38031894 -0.030978978 0.16354804 0.2251513 0.1856601 0.61751056 0.35742193 0.47727126 0.46172345 0.33252475 0.58350253 0.35981205 0.42370218 0.46541715 0.45425564 0.6240573 0.64500636 0.2585347 0.3032947 0.3357831 0.20280147 0.6810478 0.65724987 0.05392886 -0.12540916 -0.23802556 -0.30021584 0.044862345 0.35522574 0.472723 0.66402 0.70200026 0.69970226 -0.05279669 -0.1336648 -0.116384044 -0.1680466 -0.23010416 0.02290167 0.5745768 0.6579587 -0.23719065 -0.14915018 0.00091607124 -0.2061353 0.08937347 0.1570991 0.1818979 0.52941334 0.6163697 0.63532245 0.1721411 0.181663 0.5054003 0.5189438 0.62948644 0.65362215 0.5781335 0.29141766 0.23730433 0.059733227 0.5372035 0.59278804 0.5663021 0.29423195 0.2638082 -0.10481019 0.5086035 0.5691702 0.5944799 0.58695734 0.55703926 0.5126597 0.25773054 0.121173 -0.18756461 -0.17266673 0.045860685 0.033271663 0.4805629 0.49888468 0.5986999 0.46492413 0.12089053 0.04274334 0.3500239 0.22034423 -0.565 -0.6492074 -0.0045546517 0.4734475 0.50279945 0.24075498 0.03026098 -0.048016775 0.5705714 0.5707702 0.5220583 0.08728693 0.08300042 0.6188116 0.6287688 0.6092084 0.551298 0.49719405 0.3185679 0.25638628 0.62431306 0.6053747 0.5862527 0.51303697 0.42274082 0.6279237 0.5574204 0.4888209 0.6884451 0.74096096 0.7577723 0.67901266 0.5954765 0.78117675 0.7422714 0.6953428 0.49511915 0.61627907 0.41328025 0.4952186 0.58522785 0.62563634 0.374157 0.48334518 0.5361985 0.56156826 0.32078543 0.43547207 0.46954554 0.51896596 0.47007325 0.3044331 0.17451973 0.14074299 0.306374 0.3289066 0.34559828 0.4913267 0.25519267 0.3055394 0.28020394 0.27061832 0.4847412 0.12103625 0.14725083 0.19576782 0.47453892 0.29607788 -0.056756057 0.30336207 0.31623638 0.31687433 0.46309075 0.5066301 0.031105436 0.23975506 0.16467318 0.118354574 0.12737525 0.14621153 0.45956418 0.49356028 0.41316128 0.36461872 0.0017130524 0.12957464 0.16801228 0.090505585 0.11590935 0.265352 0.3022438 0.31748396 0.45358533 0.50726247 0.38741076 0.73351693 0.40438557 0.14409328 0.23708151 0.3120014 0.28050664 0.34386468 0.5092267 0.50240755 0.49454156 0.5483795 0.5591239 0.51111573 0.436808 0.5276081 0.55916256 0.5933387 0.33860445 0.3942081 0.45804065 0.4264084 -0.018837795 0.58573306 0.5381385 0.2291543 0.27075052 0.29422855 -0.09500578 -0.16583548 0.65138733 0.19557782 -0.032987177 0.32835618 0.42914376 0.64380187 0.5902167 0.19725266 -0.21950917 -0.09131911 -0.043546446 0.6077435 -0.038030714 -0.25362805 -0.0808403 0.338746 0.33331552 -0.10550657 0.09249814 0.40746194 0.34791672 0.45555353 0.5070549 0.21008164 0.108181134 0.422678 0.43523705 0.541943 0.51518345 0.036072925 -0.17678796 -0.17321342 0.41519716 0.51471204 0.49127907 0.20404723 -0.20202133 -0.21774301 0.4283656 0.44015557 0.46242917 0.45016986 0.44572645 -0.15911886 -0.02806665 -0.0028853863 0.39727423 0.42510286 0.43586674 0.24964152 0.37941855 0.34889543 0.4003593 0.264226 0.19570959 0.38673282 -0.099264435 -0.12857395 0.08942245 -0.07879765 0.11188616 0.11129885 0.16252053 0.16032703 0.1631729 0.3147898 0.31345916 0.5824573 0.23194046 0.64592475 0.6778982 0.60617566 0.5014906 0.5385768 0.45708627 0.5890373 0.6916235 0.7287804 0.36134553 0.4496897 0.535731 0.6588525 0.72112656 0.7287481 0.30565098 0.41687018 0.67572916 0.69497216 0.18307334 0.26629877 0.3630403 0.59931207 0.6534656 0.10441482 0.5300527 0.16775927 0.03975232 0.03267643 0.3796495 0.42320886 0.35400015 0.2029052 0.38413745 0.3674286 0.0600935 0.33605412 -0.047554515 0.116895676 0.2532157 0.24086025 0.19468744 -0.02188293 0.26985553 0.45658284 0.5041139 0.36122444 0.4059456 -0.07504747 -0.27561206 -0.21210425 -0.0054825284 -0.10893923 -0.10284225 -0.08005811 0.12833513 0.22122607 0.3290593 0.40426153 0.5294313 0.56232893 0.3511655 0.4027259 0.42982125 -0.18261278 0.42844114 0.4881644 0.51751256 0.29017442 0.37155944 0.32525364 0.3528494 0.23499778 0.24925922 0.44734928 0.30904475 0.33121085 0.38406935 0.41771832 0.38888344 0.42131993 0.5076107 0.5075983 0.5439303 0.3915931 0.35822174 0.3932067 0.44694576 0.4348275 0.41090482 0.20448577 0.59809244 0.62869495 0.53602314 0.5139543 0.46303543 0.44243735 0.46347013 0.46085626 0.3978166 0.5874914 0.6284844 0.66811484 0.5570549 0.54739493 0.5323255 0.48847175 0.4594756 0.32225144 0.33526972 0.3972396 0.33144137 -0.1149039 -0.11351667 0.0068002045 0.46769142 0.56592536 0.6348567 0.6794996 0.5616094 0.55720437 0.53267 0.46652368 0.19664887 0.24323462 0.26853025 0.088696204 0.42530727 0.41082847 0.16763051 0.013049796 -0.046404168 0.09497541 0.30645993 0.24185206 0.56520677 0.44037843 0.35886604 0.24351424 -0.11226052 0.44793457 0.51364255 -0.1480943 -0.1361062 0.41088623 0.39855292 -0.163964 0.1765379 0.37468725 0.36899242 0.37942332 0.36144298 0.22874686 0.24853823 0.42739362 0.4193797 0.37442034 0.3494619 0.25584683 -0.008315407 0.29053754 0.31394494 0.4964462 0.35775697 0.34553564 0.25257272 -0.019774571 0.022088207 0.24463594 0.4636141 0.4500956 -0.19299261 -0.123799324 0.12808369 0.0764409 0.36485213 0.42987943 0.40962273 0.09594116 0.043580912 0.35328734 0.15665723 0.16576949 0.16338842 0.35535812 0.37952897 0.23512954 0.18430826 -0.094332606 0.33858415 0.36131844 0.3208031 0.23008339 0.08491082 0.10605103 0.28395298 0.27110583 -0.033830836 -0.13489154 0.27784497 0.30530906 0.30314648 0.058040958 -0.10385944 0.099894896 0.07037859 0.09413716 0.116895996 -0.036968194 0.14886862 0.4354939 0.16657619 0.2672033 0.35916406 0.254471 0.41782683 0.5567103 0.6989554 0.74523723 0.7537504 0.3236777 0.7498332 0.7448262 0.2187689 0.72674906 0.20486915 0.16251035 0.6125289 0.06853583 0.50079244 0.5069335 0.55185544 0.5563962 0.08535085 -0.0008904338 0.29173324 0.46675682 0.4222458 0.38674986 0.47947085 0.5015436 0.52252203 0.1721693 0.23232342 0.09555788 0.4936825 0.431558 0.39161897 0.29652503 0.38944402 0.43337545 0.46545368 0.41400212 0.45216602 0.18735279 0.14845802 0.11140023 0.4784447 0.40476888 0.29726043 0.24478334 0.20413552 0.36261964 0.26613232 0.47238564 0.4573034 0.42207068 0.19760926 0.2069506 -0.033205204 0.15077284 0.08515332 0.048029885 0.11815683 0.20599973 0.37057716 0.43160552 0.54176164 0.5809431 0.6659169 0.6815243 0.66522455 0.6526762 0.45384586 0.43281603 0.4090648 0.340407 0.19207335 -0.27230692 -0.5483121 -0.18794502 0.5748889 0.5642297 0.6704016 0.6765284 0.66651523 0.66182286 0.31271264 0.37438744 0.26753104 0.5423943 0.5070537 0.6475949 0.2855521 0.25107497 0.25187984 0.31870383 0.21637994 0.20638679 0.24891615 0.13158055 0.101285905 0.096254244 0.4329753 0.3291126 0.29529035 0.3366713 0.12204008 0.4640011 0.5429029 0.4937973 0.42043412 0.3968672 0.35986245 0.30874005 -0.009529654 0.65198874 0.5373173 0.3572213 -0.0700966 -0.053653315 0.70785135 0.5547694 0.56050915 0.21983404 0.3088043 -0.14665231 0.57794714 0.6394577 0.68503004 0.54611206 0.55019265 0.53844213 0.42935848 0.04918441 0.11368736 0.1274881 0.22651285 0.22539276 0.047594815 0.07303158 -0.044533458 0.3447846 0.48660117 0.5134168 0.5099695 0.5123422 0.47920224 0.46975937 0.3530429 -0.03441895 -0.15578493 -0.103119075 0.59723 -0.01285902 0.4925784 -0.27922025 -0.06888062 -0.046003897 0.019241177 0.37394708 -0.22842622 -0.3092925 -0.11986973 -0.04914928 -0.084182434 -0.012318879 0.2420885 0.22222371 0.3577617 0.3790388 -0.3392962 -0.13394023 0.44080514 0.35656554 0.37149343 -0.20868567 0.08853338 0.40157 0.3749475 0.33479187 -0.009509027 -0.31236252 -0.12491957 0.13299426 0.40718535 -0.0742446 -0.22043425 0.3920972 0.45745078 0.24254583 -0.10022038 -0.07661522 0.35222924 0.35524493 0.5894892 0.16933054 0.12189484 -0.48562053 -0.07731699 0.21811074 -0.061650783 0.20041263 0.26397288 0.32859915 0.72813094 0.7158001 0.6220224 0.4651279 0.30967396 0.32891017 0.2929083 0.18138099 -0.003024064 0.03819726 0.14238775 0.24464574 0.2644191 0.24058588 0.101323485 0.7975895 0.7758735 0.6677905 0.14014125 0.22045833 0.23322435 0.22024341 0.8044499 0.7812078 0.7529955 0.063475385 0.103243105 0.16294768 0.16244337 -0.009179004 0.12002892 0.15613547 0.016610876 0.13720258 0.07352711 0.053863846 0.24357189 0.29374754 0.23957369 0.24604468 0.3087551 0.40758365 0.3656829 0.27585518 0.6352093 0.74630517 0.6959719 0.6755043 0.77244496 0.7324713 0.7066426 0.78947324 0.7430887 0.7310242 0.19437599 0.5846255 0.7327161 0.73965216 0.20473972 0.18083645 0.72694445 0.2273847 0.21245363 0.70355165 0.2302005 0.2251505 0.37706336 0.5457751 0.16356935 0.29959497 0.5210202 0.43973595 0.3959883 0.51378006 0.5573844 0.55854094 0.52515125 0.27536845 0.31029958 0.019478574 0.49185526 0.44217718 0.5203483 0.5115367 0.40026608 0.2571432 0.19902116 0.26515225 0.32242212 0.38461685 0.3178976 -0.09275406 0.022744685 0.43864876 0.41768652 0.33775023 0.5023919 0.53025365 0.5485909 0.56632197 0.5085895 0.44249177 0.3441493 0.21186133 0.27103332 0.33536494 0.32126933 0.40383908 0.32907456 0.5613238 0.58902097 0.59320617 0.61482716 0.60929227 0.6164433 0.5130584 0.48685485 0.2649203 0.17156543 0.23392002 0.11040528 0.06997535 0.44720355 0.5482414 0.60704744 0.6127643 0.65671825 0.6420077 0.6500628 0.63546836 0.43191162 0.17318217 0.08977622 0.16476898 0.08948356 0.5957167 0.6501385 0.6620281 0.65849006 0.6515282 0.30024183 0.075048484 0.027571056 0.08196057 0.51522267 0.6085347 0.6097574 0.6358166 0.6191505 0.6081332 0.2420952 0.11459206 0.04517035 0.10413188 0.17598741 -0.015099563 0.5212355 0.536435 0.37276098 0.15526207 0.12280473 -0.14855057 -0.44089994 0.49543256 0.16085845 -0.5085302 0.69163 0.69326425 0.5385632 -0.19981365 -0.14588779 0.511315 0.6636424 0.5063425 0.5095322 -0.07538601 0.035063993 0.12551852 -0.16966438 0.24718119 0.39626926 0.49865574 0.46325687 0.4564889 0.43691373 0.21333763 -0.004296005 -0.0056817234 -0.0084809065 0.029662788 0.39578938 0.4889956 -0.13127604 -0.067567214 0.32676357 -0.2983451 -0.15895689 -0.0693637 0.07345675 0.28079802 -0.14784391 0.101135924 0.29608628 -0.41139477 -0.3521828 -0.20989314 0.2866335 0.3065905 -0.11701375 0.2783245 0.304402 0.35523075 0.2765317 0.36854392 -0.13529918 0.34688807 0.4788828 0.20068929 -0.14696561 0.15022765 -0.32617256 -0.0032449344 0.295761 0.32225975 0.6575594 0.7471335 