# vtk DataFile Version 2.0
Really cool data
ASCII
DATASET POLYDATA
POINTS 10029 float
-26.689901 4.958811 27.16809
-26.766863 4.9221387 27.558037
-26.695692 4.8139195 28.316032
-26.700346 5.616769 26.880972
-26.851963 5.5186005 27.472158
-26.726336 5.3803134 28.405561
-26.651127 6.1232443 26.858112
-26.758402 6.238333 27.569847
-26.694778 6.1348014 28.294645
-26.605831 5.973056 28.780434
-25.758057 1.1230732 32.798733
-25.702276 0.8684749 33.418728
-25.679777 1.0008525 34.10353
-25.853378 1.4460436 32.7845
-25.897043 1.5447965 33.316227
-25.79832 1.5750887 34.07635
-25.573177 1.5566995 34.944866
-25.7707 2.266741 32.94257
-25.78447 2.287209 33.425144
-25.688816 2.1522427 34.339325
-25.810736 4.1195164 26.939863
-26.30248 4.2125397 27.64399
-26.10589 4.143557 28.582663
-26.203894 4.564059 26.836512
-26.527561 4.486283 27.499823
-26.143473 4.63917 29.03898
-26.09476 5.571897 26.215672
-26.46801 5.69045 26.510323
-26.458998 5.3521085 28.886793
-26.131662 6.161617 26.31344
-26.364141 6.285751 26.62809
-26.501375 6.601666 27.296326
-26.394485 6.5776567 28.426914
-26.150682 6.321461 28.958384
-26.109785 6.771682 26.886736
-26.073328 6.980695 27.554884
-26.123163 6.899449 28.3186
-25.875956 6.788601 28.89201
-24.925669 0.27332002 32.89379
-25.063274 0.26582384 33.390842
-24.955671 0.17686015 34.411987
-24.736416 0.119502366 35.116055
-25.330618 1.044555 32.232803
-25.368963 0.69009066 32.660206
-25.39725 0.49597645 33.34104
-25.305126 0.5835217 34.493954
-25.08984 0.6607239 35.209824
-25.275995 1.5261443 32.052628
-25.3769 1.6894875 35.349335
-24.91432 1.4814467 35.962666
-25.541107 2.6358535 33.00414
-25.480696 2.310805 34.671192
-25.309353 2.2890942 35.34214
-24.952614 2.413434 35.90994
-25.271687 4.031345 26.705643
-25.45813 3.784121 27.472958
-25.109388 3.8974342 28.754887
-25.311876 3.9153748 29.059877
-25.156588 3.0151992 33.692287
-25.116344 2.999791 34.4792
-24.929873 2.9738405 35.361668
-24.735432 2.8946452 35.753624
-25.29031 4.611697 26.219662
-25.564062 5.4831266 26.013075
-25.560171 5.583132 29.499916
-25.552914 6.3222547 26.174814
-25.688969 6.559535 26.397669
-25.696661 6.5014725 29.218071
-25.548357 6.8771715 26.691904
-25.360167 7.1981826 27.578777
-25.408875 7.159384 28.477861
-25.34066 6.871792 29.011337
-24.017061 0.38443318 32.228985
-24.40778 0.18195063 32.702457
-24.410627 0.02289638 33.359295
-24.438673 -0.12964192 34.546337
-24.328527 -0.04128951 35.309345
-24.199759 0.08887589 35.741665
-24.383736 0.7143918 32.001534
-24.282436 0.65406847 36.175205
-23.667402 1.9232419 37.17039
-23.937761 3.1113715 27.33187
-24.619844 3.387372 28.375797
-24.237349 3.1466386 29.227257
-24.30142 2.4839878 36.375397
-23.743069 2.0593076 37.159065
-24.228504 3.9361646 26.145504
-24.303862 3.7496915 26.38734
-24.599339 3.5413358 27.507973
-23.959621 3.480609 30.048248
-24.30136 3.20275 32.181957
-24.495167 3.4947155 32.793854
-24.607584 3.4016335 34.46806
-24.480108 3.265213 35.290535
-24.229944 3.0147264 36.07008
-24.471575 4.4795527 25.862349
-24.320333 4.732056 30.153105
-24.202412 5.365663 25.741734
-24.049507 5.47498 30.211674
-24.534384 6.345495 26.05536
-24.833092 5.902516 29.696905
-24.64667 7.2203293 27.614368
-23.50915 0.1910629 32.670803
-23.537584 -0.23620349 34.546555
-23.474173 -0.24090365 35.246777
-23.734917 0.5821211 32.00511
-23.221346 0.46709865 32.346676
-23.680885 0.63723695 36.593212
-23.020718 0.7943535 37.37888
-23.254755 1.5943164 31.60135
-23.447554 1.6669863 37.36142
-22.933804 1.662756 37.781673
-23.62666 3.3646553 26.713245
-23.720541 2.9792302 27.651503
-23.70503 2.9335442 28.804974
-23.138994 2.8626425 29.041702
-22.765003 2.6407762 30.88604
-23.26158 2.381838 37.534904
-22.896084 2.360647 37.823467
-23.588995 3.9235716 26.09988
-23.405844 3.54261 36.20452
-23.060785 3.2115898 37.344242
-23.691153 4.5232434 25.820488
-23.499807 4.674187 30.505056
-22.944843 4.9024453 30.832842
-23.563797 3.5986176 32.73979
-23.724813 3.5244718 34.538788
-23.432981 3.7526188 35.525105
-22.950966 3.8101697 36.46756
-23.523716 5.7284927 25.833117
-23.697912 5.4686027 30.382587
-23.505396 6.176273 25.977823
-22.795221 6.3526053 30.267378
-23.422653 7.1411166 26.849707
-23.815664 7.0294943 28.531057
-23.48333 6.772655 29.626263
-22.598995 14.976233 33.74133
-22.663193 15.547214 33.55499
-22.641027 15.5677185 34.223778
-22.643959 16.099709 33.685165
-22.621988 15.968777 34.134434
-22.528158 21.047794 30.229723
-22.544067 21.74889 29.962925
-22.568455 21.623354 30.357655
-22.51657 22.209862 29.975536
-22.527868 22.154758 30.177465
-22.909098 0.116929054 33.12805
-22.842812 0.15657908 33.358425
-22.621176 -0.023810059 34.386917
-22.40943 0.047998786 36.711975
-22.407413 0.20011753 37.127857
-22.650959 0.5165363 37.334656
-22.426422 0.9052646 37.765217
-22.19243 2.392008 27.907019
-22.388987 2.316113 28.667385
-22.451189 1.5970435 37.97661
-22.410692 3.004837 26.878454
-22.746212 2.6638818 29.16219
-22.328707 2.2906845 38.07564
-22.566845 3.8746595 26.27376
-22.354502 3.3940883 26.555454
-21.938791 3.4136834 37.940083
-22.415316 4.2190337 26.254332
-22.918633 3.5221093 33.191856
-21.770737 4.27018 34.7415
-22.226183 4.3371587 35.711227
-21.892805 4.483835 36.617916
-22.022665 4.0150657 37.146397
-22.98783 5.3411193 25.931103
-22.531982 6.4575725 30.237955
-21.744123 6.063796 31.605846
-22.70643 6.8014727 26.771757
-22.136703 7.5602913 27.763016
-22.290277 7.433929 29.174221
-21.62321 7.866542 27.101011
-21.803904 8.178563 27.267153
-21.653976 11.146635 34.015324
-21.647455 11.048582 34.479496
-21.600931 11.240152 35.038387
-21.747452 11.434772 34.00277
-21.808756 11.422184 34.558784
-21.629267 11.280948 35.177387
-21.763264 11.9813385 36.229664
-21.855497 12.324273 33.9861
-21.933773 12.350087 34.52449
-21.961046 12.585745 35.764164
-21.817291 12.622303 36.38396
-21.660788 12.466857 36.731598
-21.856712 14.176366 32.700294
-21.779953 13.771524 35.60361
-21.85548 13.207409 36.20035
-21.643797 12.925523 36.757767
-21.785826 15.027553 31.17513
-21.975729 14.713949 31.700832
-22.215818 14.794541 32.507393
-22.53048 14.729107 33.783108
-22.342808 14.823078 34.451763
-22.018562 14.615917 35.08963
-21.78315 15.535386 31.07701
-22.119856 15.486392 31.777555
-22.414648 15.377691 32.73326
-22.522392 15.380472 34.56116
-22.284758 15.472648 34.934803
-22.321934 15.9906645 32.599854
-22.4089 16.406786 33.42171
-22.417685 16.247278 34.44139
-22.045637 16.118088 35.07194
-21.980604 16.903528 32.90575
-21.912573 17.44091 33.710766
-21.781078 18.393312 33.617565
-21.639727 18.696861 34.190994
-21.803427 20.17764 29.931536
-21.632322 19.334206 33.720764
-21.972433 21.015076 29.041655
-22.187231 20.71801 29.76204
-22.26942 20.551594 30.346064
-22.164463 20.586979 31.367498
-21.962852 21.487257 28.927246
-22.396599 21.403294 29.607927
-22.49065 21.36 30.799746
-22.340878 21.570642 31.157753
-21.930368 21.62451 32.140488
-21.726492 21.797638 32.8111
-22.005838 22.211464 29.060406
-22.308002 22.416933 29.58945
-22.376726 22.415527 30.392633
-22.071892 22.344185 31.543499
-21.802599 22.344124 32.296238
-22.031548 22.992052 29.817663
-22.058437 23.073862 30.42453
-21.672379 23.328867 31.516523
-21.673412 22.96099 32.288692
-21.605637 0.18517613 34.610073
-21.191956 0.13547605 35.169083
-21.514828 0.02620563 36.62262
-21.905449 0.23826602 37.33505
-21.92709 0.80813 33.22961
-21.634817 0.4924175 37.566093
-21.312576 0.99176353 37.97937
-21.66949 2.1817527 28.720184
-21.580101 1.8084588 38.309856
-21.759457 2.9278111 26.98175
-21.41976 2.5354104 27.598825
-21.044601 2.2413888 38.551712
-21.589499 3.6503816 26.612688
-20.82537 3.5246496 38.557003
-21.27234 4.1759443 26.513699
-21.395119 4.6452394 37.491043
-20.81244 4.4926267 38.327915
-21.59425 4.978414 35.511486
-21.053812 5.282046 36.731766
-20.715687 5.4993734 37.76823
-21.86173 6.2625017 26.598656
-21.61543 6.8103366 31.346703
-20.927973 6.44687 32.04247
-21.034306 7.9199777 25.877266
-21.467869 7.45309 31.22285
-21.226282 6.8636465 31.638193
-20.802702 8.558634 25.65872
-21.084513 8.635928 26.32122
-21.432644 8.634916 27.495983
-21.344872 8.679242 28.409657
-21.440283 8.483041 29.750559
-21.299046 8.329546 30.653831
-21.105982 8.176287 31.043587
-20.604343 9.294107 25.222197
-20.738077 9.523747 26.51216
-21.167503 9.015573 27.50455
-20.913927 9.123242 28.471079
-21.182888 10.838109 33.611176
-21.402512 10.760179 34.552773
-21.439993 11.053969 35.274296
-20.939116 11.193289 36.154625
-21.210047 11.554296 33.167747
-21.587585 11.568289 33.548862
-21.35448 11.710512 36.442627
-21.222605 11.9726925 36.88135
-21.083824 12.507113 32.908424
-21.319502 12.637408 33.51225
-21.35204 12.66012 37.041615
-21.462364 14.164723 31.521976
-21.32371 13.60529 33.028595
-21.607723 13.204237 36.713867
-21.421705 13.241963 36.886932
-20.783115 14.805941 30.296165
-20.905254 14.523158 30.592617
-21.68349 14.97672 35.533962
-20.949947 15.406777 30.291431
-21.197231 15.490192 30.633614
-21.504934 16.144873 31.128284
-20.92382 16.247395 35.48792
-21.60313 16.977823 31.988724
-21.515593 17.92512 32.531635
-21.183483 17.523298 35.115547
-20.719498 18.427357 31.350565
-21.423048 18.471607 32.399563
-21.46782 18.763582 34.646152
-21.215012 18.53038 35.163513
-20.733809 18.53056 36.06848
-21.592419 20.342278 29.179817
-21.253876 19.979933 29.7952
-21.250376 19.84277 30.332808
-21.390963 19.782328 32.26344
-21.38425 19.673992 33.51895
-21.304798 19.450949 34.2205
-20.979055 19.19851 35.438595
-20.788563 19.154081 35.829075
-21.053543 21.007933 28.393982
-21.325289 20.694818 28.7262
-21.431488 20.042608 33.23249
-20.685879 20.49199 34.09697
-21.22745 21.341867 28.384592
-21.47362 21.467375 28.512402
-21.317797 22.069696 28.421612
-21.430668 22.505224 28.742147
-21.074955 22.50395 33.41079
-20.82369 22.221699 33.711933
-21.12092 23.04432 28.94142
-21.699812 23.36977 29.917625
-21.48718 23.55527 30.496075
-21.00508 23.419333 33.000813
-21.124405 23.830704 30.0395
-21.365051 23.737898 30.31913
-21.016106 23.983183 31.757904
-20.986769 23.900192 32.315548
-20.876171 23.805845 32.80708
-21.08347 0.3313167 34.64539
[...]
POINT_DATA 10029
SCALARS features_00 float 1
LOOKUP_TABLE default
0.87704766 0.8873273 0.8808923 0.8719995 0.89913285 0.88803685 0.85756475 0.8884548 0.87425876 0.8365398 0.7345201 0.722935 0.71649396 0.743207 0.7358698 0.7160872 0.687068 0.73427653 0.70809823 0.67298305 0.74760056 0.81147766 0.79212666 0.82734513 0.8511859 0.8391423 0.821715 0.84462726 0.8448854 0.81709445 0.83826625 0.8625181 0.8391251 0.77891254 0.82934636 0.84598583 0.82318056 0.7602093 0.68821186 0.69277096 0.67803407 0.66652787 0.71395373 0.71122324 0.7088562 0.69768023 0.68620527 0.74079597 0.65773207 0.64196646 0.7163083 0.6395132 0.6032703 0.55521196 0.6697445 0.66653776 0.59618706 0.6289829 0.635414 0.58050525 0.5297748 0.5122231 0.74915653 0.80433786 0.6605466 0.7821641 0.7970165 0.69948447 0.7962822 0.7989785 0.7451753 0.67852557 0.5975465 0.6467781 0.65263057 0.649016 0.6521433 0.63897336 0.6317085 0.6278171 0.5171253 0.508207 0.49703196 0.4147173 0.5236565 0.51610893 0.57907176 0.5755858 0.55421394 0.49343583 0.57436526 0.5678813 0.50134885 0.46377376 0.47025114 0.6344209 0.46435225 0.6629042 0.31480858 0.70662373 0.48369607 0.7300035 0.55880237 0.6104001 0.60962665 0.55437297 0.5085608 0.56541336 0.51322824 0.4296022 0.5071287 0.48199436 0.52504396 0.47441676 0.39818427 0.3371725 0.02555196 0.46515304 0.45209095 0.53431654 0.37084988 0.4378845 0.561882 0.3086462 0.1741506 0.47723424 0.3781449 0.32368875 0.32227522 0.5581137 0.2722063 0.54866785 0.220032 0.49790373 0.47192755 0.3090965 0.46794003 0.4698189 0.4588982 0.45781186 0.4578395 0.6559992 0.6656088 0.63398945 0.65465087 0.6385504 0.49017483 0.47442323 0.44696334 0.51233685 0.5104193 0.5121865 0.49545872 0.4813376 0.4127734 0.47462663 0.44306913 0.296755 0.44139618 0.44281042 0.42973673 0.37582016 0.41558367 0.40647948 0.16713594 0.22164494 0.25107175 0.31117603 0.49226525 0.20027792 0.07636455 0.38814127 0.1737249 0.14740364 0.28580087 0.2799688 0.47333097 0.497751 0.5292736 0.468503 0.5080161 0.53807974 0.56782407 0.41898313 0.47513175 0.4918611 0.5157191 0.5480782 0.346543 0.36368126 0.43554062 0.49793905 0.42487174 0.4199556 0.42827576 0.45632964 0.4358425 0.3851975 0.42986482 0.4392383 0.45689535 0.44000223 0.41112816 0.43475038 0.43349826 0.4404034 0.40473643 0.36612082 0.35393915 0.29673254 0.2973103 0.6414207 0.27276957 0.703115 0.69047993 0.6577431 0.50315225 0.7118496 0.6926739 0.5901749 0.54303515 0.39116088 0.33125257 0.7106055 0.6773076 0.60965174 0.5163231 0.4388489 0.631124 0.57280064 0.47177798 0.45122945 0.28208587 0.29373804 0.48987323 0.5022537 0.2867298 0.50308293 0.49650788 0.47102892 0.44948334 0.42015338 0.47452092 0.3855086 0.36375552 0.2853861 0.31370655 0.30911478 0.31726253 0.20128495 0.25890926 0.32358098 0.39950776 0.113693506 0.10244008 0.5987693 0.14184782 0.12100158 0.6752894 0.5118783 0.31236553 0.22364278 0.18573634 0.2190474 0.22113477 0.74822444 0.52843666 0.33483422 0.2602509 0.4572677 0.48710048 0.5279428 0.5393711 0.3725595 0.42034897 0.5809523 0.57100224 0.25313336 0.32251596 0.54365325 0.37537318 0.25509065 0.45644405 0.4554648 0.38783157 0.3900914 0.3691111 0.38915598 0.40584183 0.4046001 0.24591827 0.32538372 0.27949417 0.32759395 0.16366613 0.2570589 0.3102104 0.3373913 0.33594424 0.64189625 0.55413824 0.49999708 0.22974165 0.26987168 0.2912312 0.34185648 0.34311765 0.62460154 0.64069104 0.24799925 0.22648567 0.6505081 0.6778747 0.664148 0.6835985 0.34156162 0.27417168 0.6252727 0.57263416 0.48840213 0.36500412 0.4695086 0.47654015 0.36307472 0.3627932 0.34498644 0.22074285 0.31397077 0.42422944 0.17777419 0.48818377 0.4975857 0.46752658 0.32467353 0.33952102 0.38835475 0.43341225 0.22306918 0.329001 0.2530589 0.27634904 0.24905448 0.15310636 0.32937342 0.3151869 0.22405371 0.20804527 0.30974704 0.3189699 0.72150373 0.76818204 0.23521669 0.7930126 0.75672156 0.4904423 0.3981866 0.24723725 0.37401563 0.43665552 0.46170765 0.7975501 0.7492894 0.5944122 0.42617345 0.14437377 0.45841056 0.51077443 0.2909296 0.5401438 0.49793965 0.5144664 0.5448551 0.5717028 0.57149243 0.47416914 0.5065919 0.5018699 0.4996643 0.31837595 0.33723933 0.44294155 0.4484936 0.47984448 0.4879406 0.5112964 0.34878522 0.118571535 0.43470612 0.4616729 0.5016275 0.5461974 0.3497442 0.20679367 0.123671114 0.24392995 0.18879783 0.30284995 0.5398034 0.34721085 0.32260916 0.573284 0.31468582 0.2703364 0.60826147 0.08453044 0.5852409 0.25110477 0.30738243 0.42519277 0.38259768 0.33481783 0.2901167 0.24209625 0.23290837 0.28622466 0.36551645 0.013107565 0.078881 0.41984043 0.10042631 -0.040115077 -0.06901847 -0.054385 0.4671443 0.27027893 0.37755132 0.18958487 0.38717455 0.1257559 0.28874224 0.48662263 0.06780358 0.26110238 0.2960654 0.20097993 0.57524884 0.058249556 0.20117469 0.73667103 0.7539963 0.7925991 0.33207718 0.33986485 0.77654296 0.72592545 0.5948868 0.38589847 0.22564068 -0.17543522 -0.12795338 0.4645483 0.5977402 0.61496496 0.57993996 -0.010319042 0.4682055 0.43635267 0.4987375 0.5620353 0.5226605 0.5141993 0.342126 0.44326776 0.49565613 0.5102726 0.21749099 0.27385193 0.3725655 0.5069908 0.540203 0.2917948 0.030194802 0.37622717 0.5604392 0.5995096 0.6052229 0.31008524 -0.08130448 -0.21125376 0.36010778 0.40088883 0.47758204 0.56614006 0.61226976 0.20929146 0.42811275 0.45767882 0.5761227 0.097427264 -0.054590553 0.018558174 0.26663765 0.29900575 0.25189036 0.5400482 0.50631493 0.55004007 -0.025590673 0.25598875 0.53178567 0.3326122 0.43600464 0.42662436 0.4758441 0.45800382 0.45696694 0.46546137 0.09895878 0.16873266 0.3806646 0.42096394 0.41105914 0.39872414 0.29413754 0.24999174 0.37176263 0.4804201 0.4911031 0.45575097 0.3110866 0.5078092 0.039178908 0.16560227 0.19194527 0.15530854 0.38959345 -0.09631383 0.4320302 0.4826206 0.5048182 0.21307781 0.15703052 0.476982 0.5033681 0.39724278 0.45866174 -0.043690123 0.3651425 -0.036421463 0.16651693 0.36843193 0.20522028 0.11971495 0.4824353 0.06137386 0.05577375 0.6493148 0.10193974 -0.04150878 0.7060371 -0.034864724 0.55794644 0.520203 0.49567103 0.6809297 0.64122707 0.5346494 0.18873568 0.21498288 0.34880254 0.44009924 0.51141113 0.50053144 0.015743122 0.35286862 0.5064981 0.50725865 0.07410652 0.061064783 0.5066994 0.5202641 0.13060746 -0.33440298 0.5353998 0.5428446 0.18732172 -0.312819 -0.25132596 -0.07307166 0.58137107 0.20318653 -0.35179013 -0.022721745 0.16359636 0.60997653 0.5863772 0.0837861 -0.21405262 -0.18387644 0.2300161 0.34441203 0.46175385 0.56747264 -0.12447015 -0.035302363 -0.12544581 0.33270818 0.30364615 0.30608514 -0.12915634 0.36373466 0.34942573 0.13198037 0.052636795 0.5026976 0.3784972 0.025566693 0.53881276 0.31686705 0.5028974 0.3962332 0.43478817 0.45069084 0.43243212 0.3668683 0.44899914 0.45658803 0.3752282 0.13400349 0.35946232 0.47344503 0.50590444 0.21401155 0.5244224 0.53992194 0.5209399 0.40608698 0.41775268 0.5525385 0.53835964 0.5099401 0.3934889 0.34522825 0.3539867 0.3099117 0.31671324 0.37648064 0.38369462 0.42826903 0.44633394 0.39566863 0.3955774 0.38398394 0.4564782 0.47037357 0.4714967 0.36808667 0.47313595 0.47904855 0.46648222 0.4138096 -0.08151649 0.29899555 0.4505657 0.4958105 0.42908967 -0.14666215 -0.11620758 -0.050448075 -0.063711084 0.5281555 0.5494739 -0.21998931 0.5563997 -0.10055719 -0.22071719 0.50064754 -0.17262754 0.39644876 -0.10197388 0.09682339 0.19717407 0.019516528 0.2928481 0.01735863 -0.063660905 0.41017285 -0.10872576 0.42169708 -0.22961257 0.09222236 0.43329254 0.44130188 0.592257 0.35001767 0.27401102 0.06503581 0.43850204 0.46114403 0.49910638 0.019161278 0.5038543 0.5014572 0.098008394 0.06122736 0.49440163 0.13699627 0.48763216 0.1567213 0.4944569 0.09973142 -0.41273725 -0.2660959 -0.011276528 0.51488936 0.06261435 0.1066422 0.1891319 0.51107806 0.4703824 0.31862968 0.31074965 -0.049686193 -0.12502995 0.36817253 0.39252144 0.3710708 0.33992618 -0.1351487 0.39819545 0.40928137 0.3883081 0.5096157 0.27211794 0.46821702 0.3548769 0.36217982 0.40409434 0.41098183 0.31860518 0.39552462 0.42309576 0.41220534 0.35722175 0.4685902 0.5068464 -0.011347644 -0.024462521 0.32772273 0.389219 0.5572785 0.5600414 0.34218287 0.43760014 0.4334963 0.4358163 0.3874398 0.5759778 0.55956507 0.52870035 0.45852733 0.44650307 0.3622548 0.41500258 0.43451634 0.43552846 0.32966968 0.3825523 0.42740297 0.42746663 0.39108217 0.3857863 0.34278125 0.413302 0.40245607 0.39485618 0.40043733 0.22790974 0.28565508 0.38194016 0.39029598 0.41378802 0.2554545 0.29518405 0.38209373 0.39042348 0.38759488 0.375858 0.33121154 0.6036241 0.4378755 0.4470739 0.2882181 0.31722665 0.37427184 0.4844999 0.44997245 0.19582392 0.1933388 0.13423961 0.1595751 0.4042822 0.49005556 0.51327896 0.44560558 -0.25892493 -0.15861075 -0.07759312 -0.25126705 0.53818804 0.5383195 -0.34096944 0.56521344 0.031918965 0.52427423 -0.36575794 0.3843938 0.38891584 0.06640378 0.2003142 0.2251302 0.24516797 0.1895606 -0.06069742 0.19866139 -0.013867676 0.07604049 -0.08135852 -0.02571094 0.31423822 0.23171777 0.17266962 0.100245796 0.2764061 0.36203897 0.46330985 -0.03924063 0.47059923 0.47600448 0.085301496 0.4425282 0.12004361 0.39870676 0.10507522 0.365832 0.09699332 0.049519606 0.39522618 -0.0643944 0.42383003 -0.3823612 0.20171249 0.31465822 0.3765653 -0.27488422 -0.084384486 0.085032254 0.4023068 0.39740923 0.3821103 -0.10358338 0.21763527 0.21048023 0.29090917 0.03570024 0.16585627 0.33685315 0.30457094 0.47653186 0.50705147 0.24468732 0.44643155 0.49364585 0.5086912 0.47511232 0.20226817 0.24154606 0.42576185 0.4582594 0.49170923 0.5527501 0.17311636 0.33605894 0.3267729 0.6029849 0.5995211 0.3404429 0.24241346 0.30425206 0.42525393 0.45718318 0.44476247 0.39193624 0.44778484 0.41718745 0.6108346 0.56294733 0.52010703 0.46675962 0.47125316 0.5875765 0.5315824 0.453398 0.3960515 0.44837356 0.5415178 0.4799205 0.4093021 0.3884954 0.44152 0.41454467 0.37813273 0.40908998 0.3785447 0.3837983 0.39081442 0.11915425 0.123976566 0.39704624 0.47577605 0.0030641109 0.45619476 0.5018813 0.13901359 0.37572938 0.67356694 0.6595967 0.6765625 0.66926193 0.33506548 0.30972993 0.42067492 0.578367 0.61196375 0.6338851 0.6415751 0.31128907 0.32312307 0.44644612 0.38143703 -0.017314576 0.2701953 0.23452133 0.41177166 0.47581768 0.33572596 -0.18897805 0.07939198 0.4603967 0.5016104 0.51590747 0.29674488 0.5292262 0.21552153 0.3165695 0.24494001 0.18906087 0.21851291 0.2641134 0.23927811 0.05462023 0.2695374 0.24169552 -0.0058684796 0.2558856 0.21816635 -0.22847177 0.13271827 0.21179296 0.25495893 0.14498702 -0.13646728 0.2393058 0.32776296 -0.028804641 0.3709012 0.039078854 0.31143963 0.06388609 0.21423903 0.045570053 0.123755574 -0.16208175 -0.17210881 -0.33850458 0.47812268 0.34662396 0.21488464 -0.31600705 0.32755363 0.49082744 -0.32056195 -0.3226111 0.2967173 0.4754457 -0.14458506 0.25099516 0.19364573 0.2570371 0.30859366 0.28149837 0.003397882 0.24786273 0.2882008 0.23740125 0.1315264 0.10673196 0.010435335 0.013876352 0.290686 0.40440258 0.4135669 0.43818313 0.29188576 -0.3218698 -0.03442961 0.42491898 0.47408813 0.49225566 0.46616524 0.4286812 0.35391885 0.47750586 0.38661373 0.4640901 0.48884642 0.27073243 0.41054684 0.46223372 0.45505586 0.40507913 0.55569565 0.5746061 0.25093064 0.19484718 0.22170807 0.32842854 0.3725878 0.587021 0.58100826 0.2639647 0.30903596 0.3545155 0.30793917 0.33931977 0.3667577 0.3925925 0.39359617 0.27167976 0.6342844 0.6134844 0.569109 0.6650722 0.6389391 0.5777502 0.5288632 0.5157148 0.5029836 0.47417408 0.63772225 0.6207998 0.43745655 0.38813627 0.564104 0.41158977 0.37687036 0.46029574 0.067047186 0.009156112 0.5073815 -0.049224973 0.5549792 -0.05416468 0.41227698 0.6284079 0.696833 0.6900871 0.6608697 -0.0058959853 0.32223466 0.60798717 0.039690927 0.40118644 0.18979377 0.10549782 0.3891681 0.43047518 0.4039234 0.25208095 0.37313285 0.4326826 0.47588414 0.40822226 0.46592766 0.47662568 0.33419716 0.5052877 0.43424326 0.23440212 0.3965944 0.29115897 0.060984686 0.1220064 0.28749764 0.038233593 0.24249378 0.27445376 -0.29823288 0.40852815 -0.1253196 -0.16060099 0.42021894 0.3210982 0.036955617 0.13883822 0.30627805 0.39171368 0.30399173 0.2064935 0.29886085 0.3121781 0.30745202 0.22933783 0.0042766677 0.26036325 0.17678079 0.19741258 -0.17090707 0.10931878 0.311215 0.07336053 0.01939521 0.32436264 0.40930006 0.32249293 0.3529595 0.36790085 0.39215335 0.4979794 0.39584577 0.4256973 0.3311895 0.39965683 0.5007609 0.5340946 0.6178256 0.44594532 0.4866179 -0.077255905 0.062133614 0.5532299 0.58220494 0.6495688 0.76226795 0.7081078 0.6995532 0.46222055 0.4388103 0.47073516 0.03875512 0.039938413 0.039820366 0.4195439 0.53281504 0.59724677 0.64601874 0.7452569 0.70854115 0.69139355 0.03456281 0.063880324 0.14884669 0.097169586 0.09690811 0.10267986 0.54028106 0.5735215 0.7056091 0.69092846 -0.027514309 0.12407757 0.14568904 0.15311417 0.13399898 -0.20726097 -0.26260293 -0.20684129 -0.054615483 0.23503667 0.32705477 0.35546243 0.20349878 0.21403222 0.24602363 -0.21803921 0.33602685 0.28243804 0.35026494 0.41957277 0.32874522 0.28785026 0.35037345 0.51683784 0.32777297 0.2546773 0.55328006 0.5577201 0.5108428 0.2685671 0.29264998 0.46531537 0.27432334 0.28663248 0.16296285 0.12917177 0.13496041 0.31627423 0.32760283 0.27312964 0.191224 0.2657436 0.7004554 0.67217314 0.65658975 0.6338961 0.5901747 0.56104577 0.69054526 0.68453336 0.67423654 0.5341432 0.4818711 0.66883683 0.65138507 0.41708764 0.50442475 0.29939136 0.29033184 0.4427446 -0.019421834 0.48163724 0.5142648 0.17394377 -0.07252705 0.507673 0.037004232 0.6846885 0.6638122 0.62318027 -0.262802 -0.18861184 0.34157825 0.5726179 0.5666562 0.5467694 0.5131375 0.31718397 0.27799696 0.28957412 -0.15958539 0.16158943 0.45261088 0.34681076 0.43406254 0.4938058 0.48553735 0.45328033 0.54821455 0.55080426 0.39332098 0.5244943 0.55772734 0.2592548 0.5060125 0.26657212 0.43825167 0.2564562 -0.043451726 0.26987368 -0.14379218 -0.08818269 0.41687548 0.41542673 -0.27474433 -0.5878077 0.5324393 0.5797194 0.48644188 -0.19540077 -0.10467549 0.23314306 0.6034226 0.46813536 0.24074447 0.44924158 0.37733746 0.2503683 0.23046777 0.19632588 0.26252052 0.0048234835 0.17938763 0.11105424 0.10607535 0.3094017 0.3049612 0.34184542 0.36549234 0.37527236 0.3837084 0.45583576 0.6404704 0.3495071 0.6549357 0.749963 0.8355563 0.8094727 0.7569357 0.71147966 0.36189526 0.38677603 0.7055841 0.76634794 0.86524165 0.8388899 0.8019545 0.7150004 0.68372166 0.6810813 0.334871 0.35352504 -0.056553684 -0.6014689 0.7016077 0.76255345 0.86652565 0.86327404 0.80936694 0.68251294 0.6730444 0.21645686 0.27346367 -0.03644488 -0.53650594 -0.019603997 0.3928296 0.49686822 0.66655636 0.72968036 0.7925215 0.8306658 0.75061685 0.70100313 0.6811826 0.66910875 0.22969083 -0.0044011325 -0.30237567 0.1480652 0.7469591 0.6640533 0.62734103 0.65750706 0.6504145 0.11980463 -0.34888226 0.45850953 0.46437144 0.39065385 -0.0720419 0.2894969 0.39512488 0.46917227 0.48583418 0.48669058 0.40056187 0.19329709 0.016156785 0.15040103 0.2588302 0.43476707 0.16097169 0.15132415 0.23164742 0.11094762 0.1029903 0.10866088 0.2428444 0.26838833 0.1985575 0.010581814 0.045681763 0.06390725 0.13152535 0.7117879 0.7098695 0.70557684 0.6944585 0.6508062 0.59137523 0.6989935 0.7093133 0.5431766 0.48712558 0.41678947 0.28171006 0.64593136 0.5817482 0.21305776 0.69730866 0.63455343 0.5195121 0.3157725 0.42360947 0.64350325 0.48558855 0.3309744 0.34898388 0.39737517 0.59412146 0.48812062 0.32386106 0.34506688 0.4055636 0.25541127 0.5277949 0.3831178 0.35901707 -0.13066228 0.37478137 0.1276833 0.5234788 0.47091293 0.25829506 0.34145594 0.41621822 0.5457657 0.41725916 0.48662847 0.50877976 0.5722281 0.5918628 0.43327817 0.39570883 0.57485235 0.1638925 0.52891654 0.54714036 0.20321193 0.16536845 0.37129724 0.46649915 0.24375221 0.4207166 -0.27853376 0.5546868 0.47030294 -0.14182708 0.10484127 0.60301316 0.021643251 0.64388525 0.66468394 0.61377114 0.19459932 0.12178095 0.5501402 0.3979069 0.30989155 0.05230882 0.018628836 -0.049437948 0.21152967 0.23337243 0.2740694 0.39561036 0.2777381 0.44324246 0.6254864 0.7263335 0.29757392 0.7577611 0.7666105 0.8675897 0.8511534 0.8412933 0.81847405 0.73608005 0.25255194 0.7890719 0.7879964 0.8728607 0.85925275 0.7082778 -0.42443836 -0.66116834 0.811769 0.8100021 0.8867477 0.6559201 0.6305416 0.16124627 -0.49304163 -0.6494155 0.7974585 0.8244518 0.8263264 0.79390943 0.6195855 0.084787145 0.06160628 -0.15250623 -0.35067275 -0.36552596 0.59613276 0.72121406 0.78546476 0.8109281 0.76942194 0.71567154 0.602096 0.5825184 0.5909095 0.60868466 0.5856505 0.1598011 0.25626194 -0.46568456 0.49128777 0.5216937 0.5087696 0.5199567 0.5449387 0.3169979 0.33071318 0.4244231 0.4139276 0.38991725 0.24175975 -0.42854983 0.5275435 0.5372261 0.4669706 0.44826317 -0.21932924 0.52460647 0.54375 -0.2464069 0.28537756 0.40081024 0.48346204 0.035172097 0.101738565 0.17753027 0.13577175 0.13581333 0.19030589 0.53446734 0.5196229 0.05277626 0.029401902 -0.06833065 0.11981876 0.1749625 0.20865941 0.60834587 0.5920639 0.48517635 0.24249163 0.15390389 0.7000656 0.7004868 0.69332445 0.6817684 0.64864016 0.6127044 0.6923393 0.6517019 0.54916525 0.47392696 0.65495217 0.41333443 0.6925716 0.75302184 0.6998562 0.56173074 0.8405129 0.79389286 0.23214847 0.81965613 0.7691491 0.31164807 0.70864284 0.6381587 -0.17060599 0.5880921 0.40629104 0.15871952 0.24660364 0.18631008 0.11950965 0.2633177 0.002396413 -0.070003144 0.4941914 0.43028915 -0.003992186 0.16965735 0.50655824 0.23176347 0.3811373 0.45510656 0.49132246 0.6090247 0.45708477 0.40744218 0.60579014 0.20710362 -0.10821207 0.41038445 0.524337 -0.02015087 0.16983706 0.3705091 0.13478239 0.018436521 0.5229373 0.42914158 0.59741217 0.58447266 -0.051392198 0.1983234 0.24676502 0.6469043 0.2206077 0.18547472 0.6868551 0.7003064 0.015493877 0.6985378 0.0037200488 0.64826185 0.5667885 0.44306025 -0.10435888 -0.12290444 0.030543394 0.1344755 0.21900277 0.2766077 0.19375609 0.5965729 0.7040118 0.7141249 0.75176334 0.87179863 0.8555129 0.7436896 0.52038145 0.17989066 0.2189006 0.73866737 0.7661352 0.88620245 0.5653242 0.41784275 0.11471108 0.12677322 0.8220772 0.8147509 0.85371673 0.41842636 -0.004784398 0.053522095 0.83229184 0.79637194 0.037532292 0.022612073 0.66760325 0.78182095 0.79982007 0.72895205 0.39822012 0.15121634 0.11343144 0.29528204 0.43706107 0.4422479 0.42954755 0.42889884 0.34423137 0.42599213 -0.16759875 -0.66536885 0.5346982 0.3868057 0.37936884 0.39299762 0.45037335 0.4548 0.4404462 0.42244488 0.52650446 0.40826684 0.44226182 0.42536148 -0.2881213 0.4121409 0.47541153 0.12041281 0.12519574 0.18751532 0.18950535 0.5059443 0.21693231 0.58935905 0.5906857 0.0012286603 0.2233774 0.22996671 0.6290337 0.6351817 0.61017877 0.5450926 0.43653005 0.12009129 0.09167764 0.18301433 0.6412039 0.62335587 0.5631443 0.63519 0.629921 0.62425303 0.6022042 0.56950986 0.5883112 0.59146905 0.53798616 0.5063114 0.8064308 0.7664969 0.32346088 0.8824202 0.80253553 0.92744464 0.06035803 0.90096223 5.353731e-05 0.3538273 0.3627903 0.84109277 0.7135794 0.22526039 0.401421 0.4235004 0.5581027 0.39917102 0.3907847 0.38837004 0.40547207 -0.07704954 0.4501372 0.42098767 -0.22913939 -0.18802616 0.47893175 -0.13309556 0.058637295 0.17271194 0.47778434 0.5918138 0.44986856 0.3411762 0.55382174 0.13577643 -0.11526334 -0.35069817 0.34516385 0.4992898 -0.5122485 0.059104532 0.37417534 0.24830954 0.55856985 0.5229066 0.33277544 0.19025913 -0.6560084 0.2433405 0.23300031 0.63438463 0.62492883 0.1623871 0.68738747 0.6573412 0.044599026 0.12177807 0.6944495 0.6799606 -0.054505847 0.06834155 0.1578191 0.6825596 0.55531424 -0.016471818 0.50839823 0.05936653 -0.11247701 -0.29394847 0.014571939 0.019055314 0.13668776 0.11701093 0.13199238 0.20674297 0.19606926 0.16300951 0.47449362 0.6601721 0.18429774 0.63867974 0.8539382 0.71453285 0.57356745 0.45582512 0.26732337 0.0804683 0.69810754 0.83030015 0.76176107 -0.072930455 -0.057423353 0.78934693 0.77597314 0.69563043 -0.47675213 0.016294815 0.27378744 0.4437184 0.70917034 0.8123393 0.72889584 0.6935488 0.07492949 0.60182625 0.73224294 0.6139308 0.11613144 0.44198072 0.35831848 0.3437951 0.3160293 0.25731665 0.14112398 -0.09892025 -0.058813706 -0.05