# vtk DataFile Version 2.0
Really cool data
ASCII
DATASET POLYDATA
POINTS 9700 float
-28.571928 79.87877 69.14626
-28.619635 79.89257 69.43977
-28.58832 79.981224 70.05458
-28.584646 80.22638 69.06063
-28.660347 80.40062 69.498695
-28.646294 80.30008 69.99184
-28.663382 83.190834 72.88328
-28.69457 83.50419 72.667984
-28.690325 83.6929 73.32705
-28.6006 84.16213 72.16736
-28.711056 84.23465 72.76194
-28.631222 84.33361 73.44452
-28.608932 84.8068 73.089645
-27.963799 79.27256 68.974976
-28.114426 79.27332 69.45003
-27.965921 79.26369 70.0513
-27.828953 80.02291 68.29519
-28.284534 79.70245 68.904144
-28.389605 79.55256 69.43416
-28.309628 79.71214 70.19863
-27.874872 80.45966 68.27082
-28.285572 80.40858 68.69015
-28.490658 80.77763 69.170815
-28.422812 80.425354 70.300995
-27.909813 80.54399 70.99375
-28.101974 81.07796 68.7423
-28.327265 81.18547 69.488525
-27.702383 82.02561 71.54822
-27.780346 82.13496 72.98528
-27.830738 82.19391 70.17102
-28.359268 82.73764 72.721
-28.352762 82.94968 73.402466
-28.021841 83.05165 74.093735
-28.381046 83.68399 71.70997
-28.486813 83.37678 73.68696
-28.181402 83.61918 74.160324
-28.156404 84.31361 71.80238
-28.357716 84.740425 72.290764
-28.45228 84.692116 73.63512
-28.089746 84.36331 74.28668
-27.830647 84.06876 74.590385
-27.967228 84.948044 71.861725
-28.148453 85.25384 72.69855
-28.185894 85.27948 73.473564
-28.089354 85.02341 74.02197
-27.807896 85.697044 72.88755
-27.779829 85.727905 73.39279
-26.820215 79.07996 68.18697
-27.373701 79.061104 68.82537
-27.529497 78.94795 69.55072
-27.769825 79.19275 70.12516
-27.235699 79.73058 68.08496
-27.702644 79.47864 68.55845
-27.72761 79.463425 70.63763
-27.00974 79.91653 71.40847
-27.208347 80.57376 67.80331
-27.022236 81.08198 72.11496
-27.173384 81.09009 67.88194
-27.633657 81.70518 68.710495
-27.259066 81.80592 72.43857
-26.976019 81.97298 68.17026
-27.021 82.29994 68.55731
-27.64155 82.80211 74.21047
-27.22667 83.32527 70.131546
-27.204695 83.36008 70.39313
-27.170815 83.41741 74.880165
-26.996975 84.37226 70.21309
-27.318375 84.34031 74.76117
-27.019756 85.31821 70.98493
-27.60095 85.36481 71.825836
-27.447647 85.29878 74.33328
-26.782042 85.62781 71.16
-27.239464 85.767166 72.00877
-27.229015 85.925255 72.680374
-27.612146 85.70582 73.676994
-27.23229 85.708084 74.0491
-26.123917 78.32616 68.86821
-25.916752 78.265564 69.041214
-25.83401 78.4081 70.40244
-26.023293 78.82389 68.0452
-26.348862 78.59056 68.562065
-26.576797 78.64937 69.484825
-26.37905 78.60594 70.05975
-25.732746 78.63876 71.57676
-25.934744 78.982994 72.6437
-25.947227 78.97399 73.575294
-25.791069 78.774124 74.35455
-26.338972 79.53016 67.74286
-26.54463 79.44381 71.642044
-26.270435 79.49312 73.47483
-26.224712 79.66262 74.327515
-25.735115 79.378815 75.151344
-26.4716 80.890114 67.39367
-26.693645 80.78011 67.52016
-26.352057 80.18218 74.41445
-25.810228 80.60389 75.33197
-26.225037 81.01687 67.38591
-26.518774 81.23505 67.54031
-25.795797 81.959175 75.54631
-26.38197 82.101654 67.99802
-25.850979 83.23068 68.464806
-26.085526 84.09424 69.028824
-26.600471 84.357414 69.813126
-26.208218 85.04633 70.08501
-26.549713 85.57927 70.870445
-26.119331 85.95672 71.20467
-26.352451 86.05992 71.66932
-26.589533 86.341156 72.84673
-26.253157 86.42483 73.50239
-26.609365 85.94431 74.14369
-24.759237 77.34331 68.633125
-24.754963 77.326836 69.23193
-25.120333 77.72111 68.53728
-25.553179 78.04067 69.30028
-25.572815 78.303055 70.945656
-24.80717 77.906425 72.78914
-25.23756 78.19428 73.83246
-25.091564 78.07707 74.34044
-25.09894 78.32808 75.00632
-25.451782 78.72528 67.88923
-25.432278 78.41555 68.33303
-25.58624 78.387764 73.75049
-25.530092 78.4903 74.47367
-25.182142 78.61567 75.219894
-24.978886 78.91707 75.70697
-25.155037 79.60638 67.60231
-25.600952 79.340805 75.38258
-25.22218 79.66729 75.83922
-25.531656 80.49759 67.4711
-25.57911 80.15218 75.45707
-25.266502 80.40263 75.973656
-25.82376 81.21826 67.4369
-25.69192 81.643616 67.66993
-25.144043 81.56364 76.193245
-25.59158 82.23337 67.95181
-25.124817 82.62021 76.06819
-25.435745 83.367775 68.33989
-24.91454 83.50368 76.06847
-25.451607 84.1141 68.75001
-25.1485 84.613754 75.90361
-25.475952 85.083664 70.072075
-25.09109 85.499275 75.512115
-24.698206 85.24202 76.238945
-25.516996 85.93576 71.29994
-24.85091 86.232605 75.01881
-25.663013 86.79261 72.85653
-24.843918 86.65646 74.52318
-24.14738 77.12685 68.09448
-24.17852 76.990204 68.70568
-24.49473 77.179 69.54435
-23.911798 77.09622 70.42113
-23.7746 77.28607 71.186676
-24.15046 77.71839 67.542534
-24.61315 77.6801 70.34911
-24.42487 77.62954 70.92906
-24.412786 77.97054 72.18777
-24.121447 77.60766 73.62868
-24.455387 77.76661 74.03528
-24.501915 78.01708 75.08008
-23.866648 78.40792 67.09734
-24.484507 78.42416 75.55791
-24.316956 78.810585 75.90199
-23.99772 79.35809 67.21708
-24.46551 79.70145 76.30422
-24.956713 80.79218 67.67105
-24.130346 80.576454 76.77234
-24.991379 81.050835 67.61008
-24.346725 81.216446 76.66169
-25.002224 82.21388 67.90535
-24.22891 82.553825 68.45562
-24.273891 82.91483 76.342094
-24.858715 82.90715 68.29455
-24.680655 83.37737 68.52334
-24.547953 83.61689 76.4572
-23.905523 83.92164 76.94308
-24.030659 84.547676 77.00882
-24.212877 85.496796 76.48558
-24.208424 85.06547 76.732704
-24.06911 86.364204 70.28989
-24.33806 86.46015 70.939995
-24.524645 86.47197 71.39671
-24.019722 86.419754 75.804565
-24.178764 85.99488 76.22724
-24.586706 86.87256 71.72
-24.108927 87.36637 72.60371
-24.648388 87.09712 73.19835
-23.676336 87.702644 72.0233
-23.582117 89.572975 76.57893
-23.526304 90.09199 76.504654
-22.993965 77.202446 67.027756
-23.262371 77.0825 67.50076
-23.439953 76.67745 68.66665
-23.18212 76.49524 69.49714
-23.40124 76.84986 70.316925
-23.153078 77.269264 71.202805
-23.60086 77.419716 72.72679
-23.405233 77.15908 73.36755
-23.133354 77.04715 74.41561
-22.808931 77.153336 75.054695
-22.857464 78.08092 66.30802
-23.35864 77.77228 66.83313
-23.416817 77.54308 71.96024
-23.691908 77.50354 72.738434
-23.663855 77.51578 74.57496
-23.557917 77.90726 75.30004
-23.411793 78.16095 75.696915
-22.868584 78.92511 66.25533
-23.479115 78.53064 66.697655
-23.62229 78.88355 75.99139
-23.219503 79.33873 66.77076
-23.791054 79.53092 76.30147
-23.3354 79.95086 76.72483
-23.677902 80.48856 76.88356
-23.388603 81.27971 76.941734
-22.808346 82.68458 62.64973
-22.885263 82.70024 63.51333
-22.943947 82.81214 64.26959
-23.401474 82.48444 68.70084
-22.655254 83.493965 62.08862
-23.03061 83.69036 62.738255
-23.220158 83.67805 63.420525
-23.211859 83.65983 64.31245
-22.85918 83.40705 65.13896
-23.836819 83.25136 68.767624
-23.334625 83.724 77.222824
-22.666962 84.20128 62.1393
-22.970804 84.34018 62.71018
-23.194103 84.551 63.529408
-23.218964 84.31649 64.25526
-22.96789 84.23352 64.89333
-23.54102 84.38599 77.22652
-22.76822 85.17407 63.04623
-22.88386 85.17553 63.502796
-22.957802 84.95395 64.296814
-22.93098 86.10845 69.32064
-23.060614 85.50289 69.83811
-23.438768 85.557304 76.95696
-23.75609 86.11421 76.45513
-23.178473 87.450584 69.61628
-23.623554 86.625435 75.84693
-22.66417 87.92558 69.05167
-22.892601 88.36125 69.61135
-23.296053 88.14422 70.44405
-23.226772 88.25846 71.2407
-22.863728 89.15154 74.95218
-23.041767 88.6749 76.08128
-23.38618 88.93268 76.83613
-23.133286 88.78988 77.263664
-22.808199 88.72474 69.97958
-22.8259 88.82357 70.410934
-23.14246 90.01738 74.48591
-23.38244 89.393166 75.94676
-23.342741 89.45085 77.261314
-23.078362 89.43796 77.71789
-22.834389 90.67117 73.87061
-23.121397 90.67877 74.41791
-23.314112 90.42942 75.77863
-23.364862 90.47374 76.49527
-23.271957 90.28379 77.170235
-22.989668 89.97992 77.775734
-22.876247 90.9588 74.07817
-22.921013 91.20987 74.52045
-23.066236 91.13938 75.34476
-22.882265 91.38061 76.50175
-23.005503 90.95477 77.06152
-22.660608 91.79544 75.67512
-22.619326 91.727905 76.76038
-21.564585 48.77808 66.33531
-21.540386 49.5995 65.84978
-21.589594 49.668064 66.40342
-21.565697 50.34876 65.92169
-21.564535 50.533085 66.4251
-21.524294 50.918427 66.29019
-22.258823 76.41826 68.17702
-22.43415 76.44397 69.538704
-22.082762 76.40984 74.20982
-22.364492 76.985504 67.069176
-22.380304 76.6352 67.77765
-22.697145 76.53849 68.37215
-22.554207 76.50329 69.78835
-22.527079 76.71021 70.46521
-22.381207 77.00877 71.38354
-22.614798 76.866005 73.14146
-22.421017 76.620705 73.9009
-22.453236 76.6149 74.31833
-22.270966 76.96641 75.28014
-21.702805 77.01277 75.946495
-22.234262 77.733116 66.25984
-22.637945 77.53113 66.62835
-22.204117 77.68993 76.04723
-22.232485 78.53439 65.963905
-22.30364 78.8836 76.30367
-21.645142 78.18958 76.80371
-21.642622 81.09455 63.551132
-21.906342 81.14909 64.49554
-22.745247 80.8214 76.87054
-22.264765 82.128426 62.075912
-22.333048 81.92825 62.459076
-22.341036 81.84933 63.5713
-21.710112 81.32637 65.186264
-22.58499 81.30993 76.70943
-21.968372 82.88102 61.272633
-22.185226 82.54484 61.693916
-22.481424 82.291626 62.218292
-21.735376 82.07729 67.880424
-21.723331 82.322105 68.02714
-23.026358 82.47211 69.42282
-22.585712 82.53691 76.41166
-22.507254 82.0315 76.72616
-22.289574 83.35165 61.577694
-21.955074 83.200836 65.71844
-22.214666 83.67031 70.130875
-22.4107 83.515144 76.93727
-21.822865 84.564766 61.150772
-22.203003 84.3361 61.551044
-21.789839 85.005295 69.20874
-22.230865 84.39286 69.95278
-22.341673 84.725945 77.16168
-21.784086 84.87956 61.141304
-22.051617 85.08872 61.811745
-22.435667 85.24469 62.67546
-22.556583 85.48634 63.638287
-22.494408 85.41641 64.2477
-22.382416 85.01517 64.95268
-22.18037 85.71862 68.878784
-22.452555 85.612686 69.37132
-22.224203 85.66679 63.44816
-22.489664 86.66746 68.835335
-21.78399 87.19591 68.12915
-22.300814 87.47023 68.65178
-21.685429 87.74743 74.43136
-22.036476 87.71352 75.77805
-21.639162 87.97983 79.92235
-21.575945 87.940735 80.25116
-22.220884 88.63993 68.947784
-21.988756 88.36821 72.84792
-22.551947 88.95331 74.793205
-22.61416 88.43277 77.497765
-21.749975 88.390945 78.300316
-22.241074 88.89908 69.10864
[...]
POINT_DATA 9700
SCALARS features_00 float 1
LOOKUP_TABLE default
0.72117424 0.7179925 0.6862762 0.72363055 0.7164333 0.69309574 0.6296235 0.66004306 0.67564565 0.65475583 0.6903504 0.6971581 0.6843619 0.6740383 0.67313766 0.622604 0.7048793 0.71247995 0.70245767 0.6551312 0.708146 0.7188283 0.7092979 0.65456104 0.46610028 0.6911063 0.67706066 0.36913222 0.39225176 0.49365905 0.5485856 0.5910018 0.58961844 0.5888299 0.6442532 0.64765173 0.57110727 0.6338382 0.69431734 0.67788255 0.6457635 0.5441813 0.62324226 0.65940183 0.6768441 0.5806531 0.60141206 0.5592621 0.60233116 0.5807321 0.58829665 0.65473115 0.67182195 0.5372675 0.28283632 0.64783263 0.12195556 0.6108829 0.6117909 0.23051807 0.5149565 0.48262578 0.51850843 0.3702016 0.36695614 0.4764511 0.37949678 0.5894654 0.34259066 0.48954412 0.6145396 0.31754464 0.4488272 0.4961004 0.6002406 0.56602275 0.3830868 0.34581932 0.23024374 0.45264977 0.44718397 0.41180128 0.3288863 0.13521042 0.20092705 0.3407057 0.42417294 0.56983685 0.20022045 0.2987195 0.41522563 0.45413744 0.51540196 0.5577767 0.39164868 0.40896112 0.4786971 0.5017546 0.22475055 0.4444841 0.363691 0.38977605 0.387976 0.28194177 0.27419907 0.23409812 0.2947239 0.4202665 0.41300064 0.45671636 0.33105925 0.2893055 0.32140258 0.28770176 0.15688159 0.18492536 0.3546899 0.39722243 0.43469766 0.3894612 0.3634264 0.3574558 0.42666698 0.44481754 0.43935293 0.41632053 0.45524138 0.44443482 0.45638996 0.43730643 0.42790055 0.43127912 0.40716648 0.3360818 0.3832507 0.21265359 0.34484497 0.25788778 0.35676044 0.31284243 0.2020684 0.290149 0.33637857 0.18070297 0.24293439 0.29721573 0.2533394 0.4185158 0.38157946 0.28613687 0.21758303 0.11481837 0.4090866 0.19124855 0.11986554 0.094012484 0.2550196 0.32779196 0.404097 0.3756296 0.40950662 0.3945903 0.26989648 0.41535097 0.38384897 0.4092571 0.3727857 0.38330343 0.3459248 0.27154022 0.28531468 0.3146229 0.2840091 0.3190565 0.39434445 0.3997015 0.33630878 0.3688812 0.24319333 0.14176258 0.1460307 0.24088293 0.29533756 0.1597575 0.152166 0.24038678 0.11473837 0.5884518 0.59284484 0.4549832 0.46496335 0.42218792 0.35424075 0.24740526 0.12875225 0.11902903 0.20131996 0.31398433 0.3216105 0.38098043 0.4270797 0.07181257 0.12295381 0.33055094 0.33591175 0.3055338 0.30560958 0.36574668 0.3196467 0.27150977 0.35309958 0.30576715 0.364491 0.29658848 0.46507812 0.49234748 0.5462557 0.10764187 0.47847897 0.56092954 0.6346159 0.6743283 0.63462126 0.15524612 0.40079758 0.49732774 0.5693008 0.64785707 0.678754 0.65211964 0.4439702 0.55587137 0.592195 0.63465345 0.28679967 0.18542239 0.4077681 0.3062123 0.44403085 0.19392112 0.5007683 0.5176407 0.39412993 0.25679576 0.5567272 0.54116 0.5443497 0.5021945 0.5259346 0.49292845 0.6039921 0.60057867 0.5551324 0.52663434 0.5766263 0.6002887 0.6130354 0.58693695 0.5581741 0.5283276 0.5909145 0.6049421 0.61133146 0.5677121 0.5436647 0.60839784 0.54781914 0.58652914 0.5975164 0.5975949 0.63638866 0.65585804 0.6893397 0.4259193 0.338103 0.3271063 0.44731736 0.4492405 0.4325837 0.3134036 0.22971934 0.1129999 0.18471062 0.29033554 0.3279968 0.33873177 0.35873783 0.3790964 0.42411226 0.2908077 0.3011066 0.22144675 0.32366738 0.2694515 0.25295871 0.1585608 0.37135252 0.36155176 0.33509612 0.23219652 0.10080163 0.38650393 0.38930732 0.40048915 -0.2528033 -0.26750135 -0.12695074 0.18996912 0.13269153 0.43569002 0.45088738 -0.23512486 0.27491653 0.39735058 0.43904093 0.05244175 -0.033706985 0.43633404 0.39299396 0.44006062 0.5081349 0.54209226 0.54569864 0.55550724 0.18848634 0.15406159 0.4860775 0.36850846 0.40497366 0.45478547 0.25576633 0.28594825 0.5004246 0.5573751 0.54526407 0.02881904 0.50379694 0.40435144 0.24514018 0.56090486 0.5691059 0.53546506 0.4593635 0.44752228 0.43785492 0.5490813 0.45472592 0.5911429 0.6049152 0.4951577 0.45424974 0.40451717 0.6007999 0.6097348 0.6145263 0.56876147 0.50328195 0.89233744 0.5430423 0.5575988 0.82883656 0.9216789 0.9328356 0.53475964 0.5707029 0.5789144 0.5577014 0.7738333 0.87277365 0.87244964 0.5785554 0.5959405 0.5851228 0.56202286 0.62686336 0.688424 0.7624745 0.80418324 0.62344366 0.63697445 0.5967835 0.5868914 0.5891509 0.5774013 0.6337883 0.6906626 0.685064 0.65705323 0.68481016 0.68031794 0.6846881 0.71346086 0.7242086 0.72157145 0.72797847 0.733307 0.7580184 0.75596774 0.4070188 0.29549396 0.299615 0.3682898 0.38986552 0.40288347 0.21713309 0.10935846 0.1459518 0.25018862 0.38969332 0.38082334 0.37994173 0.31967092 0.38320574 0.3677892 0.35786048 0.21701649 0.3156247 0.3273734 0.28831124 0.215455 0.14925525 0.11579959 0.28831613 0.28936794 0.024128802 0.28677458 0.30294195 0.3181069 0.0039727725 0.36435062 0.124614835 -0.31314722 -0.15717675 0.13563925 0.55323946 0.30802417 0.35063705 0.059215114 0.14460333 0.54121095 0.49272084 0.3519358 0.38630563 0.432616 0.14380394 0.5902543 0.6206262 0.6447427 0.5037992 0.3831764 0.35578728 0.36022827 0.3938331 0.3077975 0.550579 0.6310637 0.6358535 0.6310175 0.38897914 0.04428541 0.2919652 0.5993091 0.6334927 0.628137 0.48481208 0.51907265 0.6233822 0.6189232 0.56140834 0.57990706 0.41000122 0.46220887 0.54035246 0.5623778 0.39910588 0.54729605 0.3896353 0.45746958 0.5476011 0.57641137 0.43645495 0.38778484 0.38445902 0.5896027 0.60025823 0.5700414 0.52697617 0.50080967 0.44713283 0.43296736 0.7421682 0.836046 0.89276266 0.88937056 0.45793918 0.4936649 0.50783825 0.46652144 0.6830956 0.733181 0.9283433 0.9038048 0.46724468 0.5215224 0.37534016 0.53350925 0.87351036 0.8726718 0.50597495 0.53622603 0.4387328 0.36402473 0.70201206 0.775389 0.8083871 0.6126634 0.58762455 0.54605985 0.57657933 0.612161 0.6477813 0.68367666 0.6559694 0.6671213 0.6686686 0.70020974 0.7235753 0.6532966 0.6488583 0.70594907 0.7252476 0.76300955 0.7413111 0.694908 0.27717906 0.29595 0.33980584 0.34272775 0.33395314 0.29187337 0.23600559 0.27799022 0.3076951 0.33069408 0.34608164 0.45041347 0.44017506 0.4120305 0.36088812 0.3162957 0.32086724 0.32417703 0.27841905 0.49673474 0.5124176 0.47270766 0.37713856 0.30227602 0.28794336 0.20473233 0.48504084 0.44783196 0.40433377 0.3252581 0.28469133 0.35316914 0.28462195 0.4123226 0.4639634 0.40490586 0.3917627 0.32227778 0.39949185 0.39025024 0.31653446 0.34399605 0.1893787 0.06385461 0.015362471 0.207133 0.38756835 0.3783455 0.15241045 0.18743321 0.36504418 0.35750902 0.34659493 0.3020157 0.22749586 0.34720123 0.33079875 0.33332372 0.340349 0.19367398 0.32014412 0.3137446 -0.09374797 0.2675655 0.1869719 -0.20678793 0.606534 0.56676126 0.4722839 0.24485496 0.09091364 0.021200279 0.59750426 0.6009744 0.5834327 0.4585272 0.16431838 -0.4817888 0.57587814 0.61290586 0.6249304 0.56641996 0.5662882 0.5463613 0.49174467 0.3707284 0.3111812 0.12275103 0.13126764 0.03256751 0.358038 0.630973 0.63776296 0.52381283 0.5245726 0.49366158 0.41055351 0.30661726 0.2146582 0.19464888 -0.057222694 -0.30315608 -0.25309592 -0.059431825 0.43922988 0.6375088 0.6215881 0.2513649 0.2230122 0.18137175 0.30102724 0.61509347 0.39760247 0.5911976 0.53380895 0.5530976 0.49846977 0.3090402 0.07186219 0.47873306 0.55316806 0.39830786 0.42439207 0.76351637 0.7673023 0.7676575 0.47617584 0.5316874 0.39870808 0.7914719 0.80606353 0.79758465 0.5624133 0.562124 0.53286815 0.4472177 0.4241591 0.44431436 0.41583467 0.41049522 0.81544334 0.8237066 0.81181693 0.643803 0.7150458 0.5755619 0.6555587 0.7925838 0.8056586 0.8173239 0.38005143 0.3343825 0.18652868 0.34537324 0.861215 0.4132762 0.40474638 0.8196411 0.47844842 0.494592 0.7419542 0.7335905 0.559732 0.5387808 0.61954165 0.6442175 0.59062016 0.40811616 0.5600801 0.58505136 0.66008234 0.672402 0.42363852 0.46674398 0.6635556 0.70690966 0.5876918 0.5063186 0.48685655 0.46745974 0.43304703 0.44954336 0.42163396 0.3169394 0.26074415 0.2732546 0.37159437 0.43735057 0.48114988 0.3849228 0.32282716 0.2112298 0.18187067 0.2216055 0.28254515 0.3262785 0.3724658 0.40505064 0.3933164 0.33269906 0.2975979 0.2658013 0.29204252 0.21111506 0.23040394 0.28435448 0.30816287 0.278417 0.3622868 0.41683635 0.2724399 0.22110596 0.18801482 0.23086987 0.37382942 0.43889794 0.17003763 0.15096086 0.13298902 0.38749546 0.44051304 0.40551794 0.19962938 0.095671095 0.11114751 0.32564607 0.27915627 0.2759848 0.056257267 0.058749877 0.41384318 0.27300128 0.33579996 0.23178385 0.3680492 0.2866368 0.21773209 0.28265506 0.48653898 0.37906832 0.31890664 0.043927617 0.32359567 0.45059115 0.16386513 -0.0016437471 0.00021845102 0.38078618 0.37733856 0.12792715 0.34953457 0.32235476 0.10654153 0.035651065 0.34148362 0.34111965 0.33934635 0.22274753 0.21643485 0.32544127 0.3285512 0.33959433 0.12098007 0.22659028 0.28714907 -0.10477269 -0.15522042 0.55078155 0.4168017 0.2629001 0.030383734 -0.1721226 0.58627117 0.57094383 -0.22858441 0.5813437 -0.31622228 0.5728705 0.51626 -0.5044115 0.28880286 0.5743997 0.6020335 0.45700598 0.47531962 -0.23042202 0.59222656 0.37366578 0.29201037 0.23370425 0.17160672 0.14326811 0.07932889 0.5666592 0.56903607 0.2547274 0.27212465 0.2486489 0.38082057 0.3389429 0.5503467 0.50696325 0.25442126 0.2954824 0.21904284 0.50297904 0.6569446 0.61626494 0.43274122 0.45869368 0.691669 0.72790104 0.7156918 0.70709515 0.73335445 0.46796253 0.40249586 0.4042257 0.73095655 0.7705969 0.7876203 0.7483125 0.69472885 0.44930476 0.43304288 0.38327768 0.38582355 0.40558836 0.4143148 0.4066549 0.78928053 0.8242837 0.82837737 0.7833751 0.7074046 0.8205145 0.7983887 0.76351523 0.6419363 0.2322168 0.4529292 0.5948938 0.6780237 0.7293929 0.25236243 0.012052409 0.7674148 0.19147877 0.7823167 0.35897142 0.5847165 0.68834925 0.50903165 0.5923741 0.5412477 0.10132576 0.0016623475 0.27047968 0.36528397 0.50482804 0.60209066 0.54642415 0.27507073 0.63810533 0.5708046 0.518511 0.50908655 0.46067244 0.51800066 0.5183949 0.5012957 0.44863772 0.31989294 0.44184685 0.47610116 0.4893664 0.49069405 0.2893144 0.08691062 0.18062243 0.1994686 0.23199718 0.29097164 0.376476 0.38031316 0.35707468 0.31537503 0.2699908 0.29899842 0.25688025 0.22524127 0.17670423 0.269171 0.2025038 0.1767342 0.20035025 0.2810068 0.0963853 0.12033081 0.1414733 0.24609756 0.30418453 0.0561964 0.021912713 0.19043654 0.32962525 0.29450828 0.30075324 0.2006883 -0.1412466 0.16671538 0.308483 0.37549487 0.3831417 0.17010416 0.11855461 0.2020238 0.22169319 0.3476136 0.3898226 0.39186844 0.26953217 0.17587572 0.14219064 0.28758097 0.2506449 0.19445434 -0.053032737 0.7216784 0.6948993 -0.025768831 0.18714654 0.68321884 0.68066597 0.65845203 0.30919963 0.23208159 0.22375089 0.29156604 0.60780597 0.5739647 0.5902674 0.16889313 0.12698627 0.3188152 0.36564633 0.18486115 0.1809131 0.12800866 0.37181336 0.30718917 0.50605756 0.18563923 0.43468928 0.48784393 0.10770423 0.1427431 -0.14799128 0.48219162 0.36729825 -0.19158824 0.32062006 0.51546973 0.43509626 0.44817784 -0.26271778 0.4846783 0.3462407 0.4717028 0.24174991 0.08719376 0.13371149 0.19612119 0.18448448 0.40055215 -0.08662894 -0.025894567 -0.31167492 0.47849572 0.46452683 0.28067747 0.21055885 0.22579993 0.2394611 0.21831742 0.4697082 0.45401806 0.3764283 0.3366623 0.4564068 0.584457 0.49083912 0.15607706 0.45958874 0.42438304 0.3584905 0.41324955 0.4338553 0.6461059 0.6034532 0.40455562 0.22891115 0.33179414 0.3379941 0.38175866 0.6797333 0.4716792 0.35770914 0.34481394 0.24039125 0.22806254 0.28843865 0.70943385 0.7195615 0.5351311 0.7133168 0.7080889 0.63989586 0.638309 0.5818176 0.40948385 0.43012336 0.4082957 0.34522358 0.36549515 0.3104087 0.23319015 0.04845594 0.27261618 0.36546567 0.47146797 0.53305215 0.29669517 0.5240479 0.6732796 0.6665144 0.5489937 0.64850825 0.029357512 0.47909412 0.31974798 0.02072766 0.08814174 0.3214836 0.38593704 0.4880271 0.17238092 0.11862508 0.06649863 0.6336782 -0.076510035 0.020775348 0.61561185 0.62631196 0.4444546 0.33254886 0.59983194 0.4961504 0.5725942 0.48318714 0.5679812 0.6123379 0.6214868 0.5746493 0.57083917 0.6190978 0.6404605 0.6130525 0.59548706 0.6249935 0.8045684 0.810365 0.77285606 0.7010766 0.7745222 0.7817082 0.6851479 0.64777327 0.65268207 0.6450544 0.46167362 0.50991464 0.4723975 0.36282438 0.31587487 0.19091685 0.63259864 0.6195163 0.6262768 0.54431796 0.6564039 0.65584236 0.44572055 0.48869836 0.31858385 0.05121576 0.11017946 0.25790718 0.45826486 0.46075776 0.48735613 0.46582916 0.47776523 0.2710481 0.3646633 0.42559952 0.23158935 0.20344004 0.15955248 0.1751452 0.097180635 0.08115272 0.1463368 0.13342121 0.04201875 0.17616159 0.25891787 0.2995643 0.13074222 0.35406774 0.30636704 0.1347491 0.1554714 0.37977046 0.33030003 0.2220054 0.33492416 0.3659107 0.75589234 0.69815 0.25798905 -0.15465751 -0.08863702 0.75717705 0.74554825 0.66257715 0.5670242 0.24569674 0.21782514 0.12860133 -0.13715322 -0.13528727 0.043737955 0.12679315 0.19036976 0.6991087 0.6973124 0.5169056 0.36829826 -0.395788 -0.09135455 0.15002976 0.25439695 0.27366024 0.5745507 0.49695304 0.43813616 0.17271051 -0.18009417 0.36649173 0.2363943 0.3502385 0.33495662 0.32484123 0.322179 -0.3646714 -0.003250102 -0.033587173 -0.03186641 0.35104465 0.56665224 0.514746 0.43023086 0.18505724 -0.0711155 0.009311788 0.3100667 0.3221239 0.57824683 0.51003075 0.4185562 0.2475753 -0.116555884 -0.21990868 0.13529487 0.2605922 0.5077616 -0.1559503 0.08012668 -0.09979119 0.31729403 0.37693363 0.16893199 -0.29736072 0.22309668 0.35803336 0.074125245 0.21962899 0.3838089 0.38282228 0.36325717 0.3513319 0.37296593 0.41093725 0.003456816 -0.012656395 0.43278873 0.3273915 0.09201956 0.44109112 0.46659252 0.12653463 -0.41584754 0.43596 0.46077502 0.38898736 0.0859124 0.47861528 0.4589432 0.38497353 0.30205792 -0.31550497 0.28360927 0.3686412 0.40354657 0.54388446 0.17886408 0.20867616 0.01084426 0.19734222 0.3457917 0.6154041 0.3307579 0.24342425 0.110069625 0.056342877 0.62654626 0.4863165 0.40037662 0.55614763 0.56536305 0.54239064 0.5051072 0.47193432 0.4886185 0.47407842 0.4156567 0.45348054 0.4421814 0.39831418 0.4219638 0.4384604 0.4013313 0.28656706 0.25866228 0.3533754 0.3940049 0.0808566 0.3007769 0.33718285 0.39866978 0.45132628 0.325482 0.33006164 0.46419874 0.14018899 -0.060475543 -0.06481776 0.46270955 0.38608184 0.42461538 -0.27285513 0.3005798 0.3486833 0.5565086 0.5765054 0.574788 -0.099335566 0.04260932 0.09489192 0.58568 0.61866367 0.634042 0.6262852 0.6156397 0.112369575 0.062210064 0.54957354 0.60124826 0.63414645 0.62431234 0.3203229 0.21216905 0.13101573 0.30941108 0.5071969 0.5418887 0.5796007 0.6077347 0.41591942 0.3505882 0.5735363 0.5825442 0.48360562 0.35064125 0.22517672 0.4595877 0.5204106 0.44267052 0.5033582 0.4453273 0.73699385 0.66267294 0.56924415 0.39438647 0.2317248 0.45754126 0.5351492 0.5549245 0.4703556 0.8016585 0.7786467 0.6839601 0.37481076 0.46261713 0.5249147 0.5788243 0.59456444 0.5681305 0.83035004 0.8338722 0.71900326 0.5210618 0.51325536 0.82941043 0.8191292 0.78116107 0.527128 0.5110334 0.538115 0.7365711 0.8110216 0.80726624 0.75404704 0.65312076 0.55827266 0.60614467 0.6156051 0.5940114 0.5676161 0.3223831 0.2661945 0.20991698 0.6467263 0.69128513 0.62580764 0.6122911 0.6371856 0.6400784 0.6321349 0.58641374 0.36952215 0.37291795 0.32481688 0.14896521 0.5418551 0.6237123 0.65149295 0.64536077 0.6217526 0.5641824 0.39900437 -0.008932926 -0.021754302 0.053012617 -0.013770103 0.056283027 0.14913721 0.48659205 0.6318449 0.64296174 0.6295482 0.6230539 0.3922245 0.43121207 0.34737387 0.34780347 0.19388793 0.75530124 0.75319123 0.5265168 0.40095976 0.100279115 0.71610343 0.7809087 0.8254938 0.8225049 0.554277 0.45373124 0.23296094 0.11531763 0.72623825 0.7901398 0.8378036 0.83515954 0.52686703 0.44520164 0.3398227 0.25381047 0.26594147 0.80361474 0.8219226 0.41796628 0.21021378 0.02965372 0.2578183 0.13613775 0.14565495 0.7280033 0.7280649 0.70127094 0.48534656 0.246734 0.096135475 -0.067880824 0.087047875 0.083895795 0.7209796 0.7535747 0.53379655 0.22658604 0.1801 0.08224341 -0.035775647 -0.14202118 -0.1611872 0.0066683516 0.1483786 0.1666441 0.7062993 0.2250697 0.03178802 -0.4619071 0.2054252 0.1834153 0.5430535 -0.2529115 -0.47326326 0.22269079 0.53073615 -0.06787386 -0.4309127 -0.39002344 -0.4093818 0.30281758 0.58032906 0.5618079 0.5417519 0.4696147 0.18014993 0.319215 0.5927929 -0.17481437 0.17996766 0.26145905 0.26362675 -0.28595078 0.4577372 0.2939359 0.19919287 0.54665196 0.5083365 0.39815477 0.20594971 -0.221459 0.23675331 0.3833045 0.43014497 0.54168034 0.49753904 0.045617253 0.4290277 0.40846634 0.1117519 0.38755935 0.009457927 0.012378603 0.35765743 -0.07119505 0.35573813 0.37507507 -0.061659407 -0.120880365 0.14769605 0.39250863 0.39499462 0.30058473 -0.2084643 0.37944937 0.30819142 0.016799461 0.42912027 0.383321 0.29915357 0.14294866 0.12926671 0.32608536 0.44969064 0.12982474 0.37408143 0.10060375 0.08827323 0.11410205 0.37145215 -0.13915256 -0.02553083 -0.11945354 0.08455542 0.5434515 0.3063338 0.27106008 0.0853268 0.4465389 0.49485236 0.482647 0.43328375 0.05655223 -0.058971755 0.55974305 0.41225284 0.3847385 0.4984452 0.5327849 0.5323108 0.4800514 0.55357325 0.51462454 0.50942594 0.42900354 0.43687484 0.51979905 0.54502213 0.54167664 0.44813418 0.43990582 0.34063676 0.39153692 0.42590144 0.40460044 0.28239068 0.22099888 0.3497647 0.36815518 0.24972105 0.18241322 0.15257576 0.3632296 0.36972415 0.2658934 0.38456368 0.42866123 0.34756184 0.43927157 0.473164 0.5166467 0.517222 0.21606018 0.50959635 0.4981175 0.46427286 0.43228942 0.027731217 0.07366798 0.45208246 0.38104022 0.38293397 0.435242 0.37747085 -0.19513349 0.36855528 0.40292013 0.42317095 0.42915744 0.39622223 0.35694027 -0.20737483 -0.17566204 0.1965596 0.27368006 0.32904303 0.4225196 0.44458953 0.3996678 0.32863948 0.3645403 0.5156205 0.40117863 0.52171534 0.0434863 0.10601144 0.15385005 0.40251562 0.42648566 0.19794832 0.060045928 0.3199083 0.3813618 0.4141951 0.51914966 -0.11659753 0.33578563 0.28744587 0.16697766 0.069928795 0.09169841 0.3164938 0.387831 0.41756892 0.26722154 0.5142027 0.22552867 0.17887062 0.43050146 0.15446228 0.10462448 0.037547346 0.28069618 0.3206053 0.2992711 0.31520796 0.50140345 0.26915064 0.6044593 0.5308033 0.119783625 0.042806454 0.07122746 0.26387933 0.17503354 0.28135806 0.36508834 0.48756915 0.52296066 0.48453432 0.3009954 0.30850005 0.74277085 0.71348894 0.15929109 0.061647132 0.3087065 0.4042455 0.44946593 0.44923884 0.3661059 0.3957965 0.78100693 0.7930422 0.22497906 0.16137096 0.11434198 0.39375848 0.4785571 0.39458016 0.78943264 0.8177735 0.6682962 0.21213193 0.2252467 0.108485594 0.44785213 0.47358543 0.4654527 0.40339655 0.82144386 0.84166443 0.2086294 0.18087211 0.076741025 0.2402509 0.15170498 0.8405189 0.82009065 0.7398876 0.39422715 0.47364107 0.40991828 0.6629137 0.6952532 0.43382156 0.43850648 0.44868764 0.17192209 0.112161584 0.1617751 0.105581984 0.064850956 0.46849465 0.55710685 0.563199 0.4658271 0.35630545 0.27644905 0.11284883 -0.01853754 0.50734735 0.5916792 0.6125255 0.4888751 0.27826023 -0.034887504 -0.06539277 0.4758424 0.45799312 0.62164056 0.61025023 0.5577631 0.5311638 0.46798903 0.2597826 0.2444192 0.41359997 0.625841 0.60750973 0.57448137 0.18172814 0.18944725 0.34322995 0.5161438 0.51900023 0.44406396 0.36124378 0.10640271 0.037701067 0.6912898 0.65098953 0.6512979 0.5034303 -0.07692382 0.5900685 0.6325747 0.72276837 0.6111613 0.10004848 0.60830307 0.66833496 0.82226735 0.7190548 0.5712491 0.12612112 0.70377994 0.76292086 0.8172122 0.7939016 0.4597567 0.34096473 0.21899398 -0.0057116784 0.17527324 0.15128142 0.45938006 0.62492704 0.6657219 0.76921827 0.7800208 0.29658264 -0.17264818 0.111197546 0.5952302 0.6328218 0.0070644617 -0.09532124 -0.0019603074 0.27030748 0.4870342 0.550611 0.66433215 0.64459187 0.1557544 0.2050961 0.019410513 0.063877076 0.07257336 0.21186413 0.35216025 0.6731422 0.2741197 0.04835403 0.11477555 -0.12659416 0.10882037 0.10754541 0.6183873 -0.36711025 -0.35345113 0.14884627 0.62060964 -0.46087462 -0.40545273 -0.53580654 0.14131963 0.43826395 0.4494508 -0.46794364 -0.50179183 0.22407469 0.44737554 0.40035692 0.27501386 0.4604666 0.24530424 0.6331424 0.5300886 0.39363 0.07648534 0.6121272 0.647032 0.6041479 0.59174234 0.533175 0.404985 0.56085527 0.49311686 0.38107955 0.3834977 0.04720796 0.34039178 0.33549282 -0.01589642 0.093932144 0.0