# vtk DataFile Version 2.0
Really cool data
ASCII
DATASET POLYDATA
POINTS 1752 float
-26.735912 71.97686 54.04681
-26.899717 71.81557 54.74941
-26.919336 71.73334 55.48359
-26.769152 72.01452 56.104973
-26.90274 72.65569 53.845123
-27.125023 72.67674 54.622253
-27.115448 72.458176 55.374855
-26.860874 72.36828 56.033993
-26.714035 73.38566 53.27968
-26.899498 73.46133 53.674786
-27.072912 73.32629 54.402622
-26.928108 73.303085 55.38152
-26.663258 73.316315 55.932106
-26.772032 73.93176 53.702553
-26.785011 73.99414 54.51919
-26.764523 73.84595 55.038223
-26.452896 71.13652 55.39629
-26.33619 71.27246 55.96952
-26.38536 71.72837 53.868893
-26.559599 71.56068 54.385258
-26.326822 71.78742 56.373413
-26.254642 72.79469 53.000572
-26.587608 72.27977 53.630833
-26.454817 72.38363 56.387886
-26.120726 72.424126 56.59576
-26.384811 73.352455 53.03589
-26.640747 73.6346 55.66381
-26.33623 73.226906 56.22178
-26.252884 74.00605 53.173687
-26.310104 74.27305 53.57543
-26.396412 74.437965 54.18001
-26.383438 74.123535 55.358673
-26.197609 73.94213 55.94314
-24.714582 68.08022 53.531715
-24.673216 68.10752 54.68161
-24.733797 68.30565 55.172283
-24.734934 68.69358 51.91721
-24.904297 68.64567 52.437416
-24.992245 68.7729 53.081356
-24.939463 68.65107 54.150475
-24.906494 68.66917 55.48372
-24.83045 69.10521 56.088463
-24.827223 69.53267 51.73143
-25.176249 69.32876 52.547703
-25.2601 69.28028 53.186417
-25.233225 69.3589 54.166992
-24.829994 69.2624 56.129562
-24.869759 70.12455 51.869354
-25.096983 69.93927 52.243023
-25.32961 70.51927 54.03953
-25.244219 70.773476 55.996334
-25.120214 71.260506 53.00123
-25.305307 71.81748 56.589474
-25.847345 72.73047 56.704044
-25.817245 73.59945 52.824894
-25.126972 73.37652 56.871525
-25.086935 73.90316 52.79103
-25.901247 74.4658 53.45335
-25.615753 74.264565 55.98328
-25.455345 74.77777 53.867264
-25.753115 74.762665 54.555447
-25.45725 74.72227 55.5752
-24.801172 74.91768 55.94062
-23.902122 67.240685 53.022118
-23.922203 67.2362 53.373257
-24.009268 67.338 53.94609
-24.16126 68.102005 51.743774
-24.218298 67.71816 52.586136
-24.256794 67.56373 53.534348
-24.290768 67.656204 54.314907
-24.16582 67.96161 55.48563
-24.0049 68.19658 56.064465
-24.094717 68.8092 51.009224
-24.47868 68.6733 51.58436
-24.625723 68.41622 55.674114
-24.326263 68.573166 56.110485
-24.026484 69.04154 56.642662
-24.19996 69.46571 51.030315
-24.61452 69.72227 51.411438
-24.322134 69.42791 56.4719
-23.91212 69.539825 56.632984
-24.203655 70.00121 51.083107
-24.205406 71.277954 51.552868
-24.1023 71.87049 56.728786
-24.21839 72.17448 51.9851
-24.066292 73.52126 52.416992
-24.871666 75.06329 54.42252
-23.433247 67.01454 52.905533
-23.341812 66.89521 53.52071
-23.389587 67.028366 54.25182
-23.40766 67.3133 54.99352
-23.452053 68.15105 50.92718
-23.381977 67.69913 51.605186
-23.281748 67.94583 56.08959
-23.176798 68.87394 50.39745
-23.360178 68.539925 50.62565
-23.350471 68.941315 56.846294
-23.006084 69.324684 50.340305
-23.42466 69.23709 50.46532
-23.44315 70.024445 50.604237
-22.748487 71.69791 57.45708
-23.17758 72.98949 57.105587
-23.442533 74.204315 52.47561
-23.340769 75.06494 55.922684
-22.935188 67.40329 51.9495
-22.735567 67.012024 52.721107
-22.497524 66.821 53.5429
-22.715158 66.91932 54.2861
-22.795229 67.14486 54.86183
-22.690649 68.131546 50.772274
-22.645092 67.83382 56.085674
-22.277248 68.34227 56.75268
-22.71225 68.8374 50.347706
-22.625792 68.349304 50.578365
-22.719378 69.20684 50.314007
-22.318735 69.94728 57.517284
-21.737574 70.04534 58.88631
-22.10401 70.46475 58.585796
-21.777958 70.88751 59.080284
-22.143152 71.84838 50.79031
-22.510588 71.41428 58.076862
-21.723135 71.08503 59.115696
-21.676237 71.904015 58.848316
-22.563452 73.10763 51.22719
-22.577984 73.70672 57.146496
-21.83865 74.61848 50.029537
-21.661978 75.42083 50.032917
-22.03705 75.15212 50.580044
-22.269117 75.914505 56.881535
-22.133797 75.0927 56.756615
-22.076052 75.96942 59.515495
-21.982773 76.14215 60.275433
-21.790354 75.73841 51.010593
-21.723083 76.45615 55.25364
-22.082548 76.53581 60.528008
-22.076197 76.713715 60.797245
-21.600899 77.00542 55.37472
-21.683395 77.51609 56.31741
-22.073286 77.44315 57.635048
-22.368568 77.47977 59.095364
-22.471664 77.50778 59.891106
-22.352018 77.48487 60.47549
-21.9848 77.59086 61.113186
-21.679771 77.95901 57.38308
-22.081387 78.14674 59.071415
-22.00624 78.40201 59.796642
-22.087353 78.22077 60.47745
-21.926262 77.982346 61.094624
-21.728893 78.68823 60.07166
-21.898756 67.226944 52.74209
-21.870619 67.0656 53.28879
-21.919062 67.12532 54.15882
-22.098568 67.308624 54.93423
-21.967112 67.74866 51.744835
-21.662304 67.74662 55.333107
-22.047495 68.74473 50.597736
-21.672709 68.8282 57.136353
-21.665756 69.60296 50.852837
-21.301853 69.651535 58.750538
-21.064625 69.84785 59.16428
-21.623264 70.76414 50.85494
-21.472073 70.35661 59.216286
-20.951168 70.66518 59.605343
-21.473524 71.48059 50.685936
-21.3651 71.09052 59.48645
-21.153875 71.09281 59.585247
-21.122019 73.73406 49.681355
-21.237764 73.25841 57.78052
-21.3685 74.67613 49.622337
-20.94614 75.07788 49.430687
-21.233536 75.42527 49.679527
-21.309671 75.9507 60.37695
-21.404228 76.3064 60.873318
-21.029022 76.116264 49.953075
-21.208332 76.23812 50.491932
-21.253284 76.31799 51.2078
-21.431875 76.85113 61.295048
-21.45636 77.26778 55.511124
-21.58993 77.5379 61.447777
-21.215185 77.55007 61.617523
-20.868248 78.18121 55.719448
-21.50985 77.82385 56.65567
-21.538507 78.33391 58.65578
-21.634518 78.53997 60.79995
-21.288973 78.33862 61.29775
-21.28298 77.95008 61.61487
-20.880339 78.668655 58.088768
-21.125174 78.95718 59.071648
-20.936079 79.11194 59.488274
-21.369385 78.84524 60.40082
-21.310003 78.708275 60.9241
-20.899584 67.80568 53.574757
-20.857681 67.93232 54.27132
-20.893078 68.23832 55.80309
-21.111095 68.955345 51.5031
-20.838083 68.88022 57.191822
-20.196272 69.04701 58.342144
-20.360897 69.3147 58.953896
-20.478598 69.68886 59.328953
-20.321194 69.95338 59.589127
-20.573502 70.6461 59.663406
-20.662012 71.21822 59.65379
-19.858965 72.24624 50.14721
-20.004538 72.31452 50.447613
-20.710667 72.341805 59.27451
-20.783525 73.72558 49.57429
-20.245483 74.14688 49.345444
-20.414822 75.17639 49.279694
-20.569668 75.62069 49.498325
-20.802668 76.07436 60.604923
-20.654764 75.89601 49.65849
-20.575766 76.544014 50.294323
-20.337101 76.88831 61.34976
-20.878124 77.069725 61.550667
-20.726068 76.57825 50.315174
-20.689257 76.6874 51.48678
-20.670977 76.806366 53.626026
-20.731276 77.50734 61.609623
-20.690882 78.14239 55.70786
-20.585869 78.2061 56.314243
-20.48763 78.601654 61.531433
-20.234474 78.34838 61.625465
-20.072033 78.59554 56.51797
-20.22655 79.53556 59.769424
-20.2523 79.4925 60.36268
-20.196795 79.03589 61.295532
-20.061829 79.55206 59.49151
-19.823872 79.65076 60.865173
-19.057331 68.37351 52.717976
-19.163725 68.711044 53.016632
-19.271978 68.94996 55.746918
-19.57729 68.852264 56.651924
-19.347944 69.084274 57.818264
-19.622849 69.34733 58.55778
-19.721148 69.64049 59.21049
-19.028667 70.68163 50.20144
-19.818977 70.40983 59.652256
-18.870106 71.21586 49.98847
-18.797712 72.37047 49.862526
-19.42616 73.78766 49.379
-19.487953 74.325775 49.244724
-19.984602 75.108696 58.847633
-19.305681 75.3443 49.3139
-19.173555 75.57352 49.52313
-19.952936 76.14106 60.45423
-19.703934 76.02512 49.63709
-19.470253 76.971375 61.15352
-19.266602 77.47445 61.414288
-19.456022 77.97812 61.70735
-19.509481 78.584625 61.74109
-19.287895 78.55287 56.983646
-19.658182 79.41692 58.889824
-19.3219 79.388115 61.365147
-19.477283 78.937935 61.66943
-19.288157 79.809456 59.888622
-19.392006 79.76727 60.401577
-19.276796 79.66921 60.97201
-18.414616 68.456055 51.443012
-18.07688 69.03783 50.577667
-18.553589 69.22737 55.0052
-18.839514 69.12748 57.621
-18.100763 69.71373 49.89015
-18.196009 69.609085 58.80958
-18.810112 70.259544 59.311176
-17.663256 72.20688 47.98368
-18.887922 72.209015 59.129295
-17.659126 73.113434 47.808475
-18.810122 74.65189 49.261356
-18.50119 75.11045 58.0833
-18.403326 75.59974 49.744915
-18.501091 75.674164 58.6056
-19.11192 75.90429 59.58889
-18.586792 76.65079 60.046375
-18.704437 77.6365 61.267838
-17.729807 78.546326 50.889465
-17.870481 78.403145 52.434574
-18.628534 78.43341 55.093555
-18.44635 78.58446 61.463127
-18.88274 78.48983 61.679573
-17.78792 79.48761 51.542503
-17.685812 79.439415 52.28656
-18.716772 78.87159 57.58299
-18.340899 79.16559 58.550613
-18.268108 79.56809 60.529797
-18.607206 79.27356 61.269024
-18.949099 78.976845 61.668404
-17.570686 79.85316 52.354378
-18.748236 79.636154 59.01365
-18.64261 79.68541 59.641174
-18.654623 79.72289 60.553017
-18.791239 79.67334 60.935238
-18.040834 68.44879 51.548706
-17.655027 68.43582 52.046734
-17.819864 68.9491 50.665577
-17.714384 68.52598 51.518887
-17.702143 68.91759 53.20683
-18.07028 69.106064 53.907883
-17.805527 69.23742 57.50924
-17.431929 70.13663 48.695675
-17.235027 70.18244 49.60556
-17.470121 69.920616 54.882133
-17.438791 69.74073 58.555134
-17.902664 69.9323 58.96097
-17.266888 70.68115 47.286312
-17.598963 70.319786 59.02273
-17.025232 71.70836 46.952568
-17.740147 71.4516 59.117676
-16.77294 72.54198 46.629177
-17.461508 72.72182 47.448536
-17.011147 73.21848 47.085777
-17.383577 73.73408 47.86261
-17.571325 73.06796 58.183517
-17.054533 73.96532 47.649715
-17.700226 76.48325 58.23566
-18.065912 76.73229 59.242973
-16.774305 77.53538 50.090664
-17.65083 77.36611 58.539215
-18.178553 77.88313 61.097664
-17.528337 78.18809 50.65717
-17.652462 77.96852 57.50796
-17.554861 78.448746 60.450214
-18.073982 78.668175 61.151608
-17.007479 79.75383 50.293224
-17.573 79.65013 50.86716
-17.13974 79.29061 53.29533
-18.058401 79.37996 59.0317
-17.662706 79.18753 59.53983
-17.919056 79.30519 60.509533
-18.250309 79.3254 60.917984
-17.148947 80.242134 50.778507
-17.32175 80.41823 51.48025
-17.294191 80.423996 52.10507
-16.872097 80.28962 52.947342
-16.851585 80.78237 51.112247
-17.012505 80.80945 51.514374
-17.012102 80.6802 52.167217
[...]
POINT_DATA 1752
SCALARS features_00 float 1
LOOKUP_TABLE default
0.6564026 0.74137145 0.77399194 0.7204939 0.75447464 0.82274127 0.8042275 0.73201716 0.76605225 0.79834294 0.83391356 0.75831413 0.6953129 0.7886324 0.7898891 0.75048673 0.6754875 0.6460352 0.5419206 0.6069056 0.6509724 0.6419497 0.64882207 0.6829171 0.6380007 0.7167781 0.6959409 0.6597791 0.72691274 0.74855405 0.75534385 0.6781105 0.6331637 0.502545 0.5103142 0.4966284 0.5535013 0.521016 0.47771758 0.4665131 0.45097795 0.38565072 0.51131326 0.4610706 0.4193718 0.38903707 0.36924678 0.44557223 0.43162787 0.32174283 0.39425325 0.30458498 0.48774186 0.6053137 0.63293976 0.52537686 0.526717 0.7049957 0.5819363 0.6753105 0.6842077 0.59140843 0.5063572 0.5833982 0.57252204 0.5521028 0.62504464 0.5718305 0.5368116 0.52893096 0.50470096 0.46642894 0.60673064 0.58443797 0.47377115 0.44601044 0.38827246 0.5727707 0.52183247 0.33769184 0.30990878 0.5220074 0.3337623 0.24462429 0.23470965 0.22960325 0.59842527 0.6229821 0.6124426 0.5918317 0.5624718 0.6444413 0.6738423 0.4714052 0.60304594 0.61930025 0.38696632 0.56792545 0.5935141 0.5283378 0.17354041 0.08223628 0.17374764 0.19372824 0.6740635 0.6547855 0.62973005 0.6096849 0.5812923 0.62714815 0.4617945 0.3851319 0.5839095 0.60718894 0.56005764 0.34168056 0.45446327 0.4090361 0.4322725 0.2015329 0.30714005 0.42339888 0.35088074 0.16579217 0.026141815 0.50124246 0.53288364 0.5050724 0.19604239 -0.09323014 0.7284078 0.75403154 0.4990444 0.2901662 0.8027478 0.81359154 0.27877748 0.25064448 0.2665206 0.6043799 0.8001087 0.83930516 0.8250858 0.26637542 0.5383131 0.6626675 0.7629533 0.8061833 0.678416 0.6296427 0.6021321 0.55499643 0.5265163 0.65081006 0.4345308 0.5590555 0.37185568 0.4976915 0.4852058 0.5007444 0.32981002 0.47072774 0.49464428 0.0897056 0.45338666 0.46619034 0.38178492 0.12292531 0.50304526 0.50153077 0.5258598 0.6913289 0.74801123 0.53391373 0.52833676 0.48422325 0.78428173 0.2666122 0.8095709 0.789971 0.24019012 0.25231403 0.43710268 0.76295215 0.78665113 0.79313004 0.3452545 0.5098901 0.58027 0.70909154 0.7616114 0.35902816 0.31877017 0.25439632 0.5475818 0.33158246 0.45358574 0.521322 0.5336062 0.5391499 0.5127631 0.48444226 0.0077129155 -0.0024392754 0.4186042 0.3722849 0.41680884 0.4794826 0.5065416 0.6777172 0.52025414 0.5236452 0.7191069 0.75707364 0.52785516 0.43232065 0.17073348 0.7639061 0.2363368 0.25749198 0.7833186 0.78056836 0.26327452 0.66707206 0.7324892 0.79330635 0.64440215 0.7885037 0.316827 0.23307757 0.052564677 0.2163217 0.396014 0.49564335 0.53888685 -0.039678305 0.5397841 -0.05100513 -0.0039765537 0.3195661 0.38574186 0.25826794 0.42168972 0.4120388 0.58975565 0.4599923 0.6904278 0.7291347 0.7618412 0.7969909 0.32469782 0.5765395 0.8158567 0.8097371 0.7445766 0.774894 0.80764234 0.43620005 0.36675462 -0.041596286 0.37640238 0.16637543 0.49661875 0.48970723 0.29900903 0.5212195 0.32761782 0.310187 0.18975006 0.2790923 0.2577626 0.3374431 0.49343634 0.74460816 0.56453323 0.485677 0.15801449 0.80675375 0.7999223 0.5825653 0.5588305 0.51779294 0.614077 0.8207352 0.8239697 0.8171085 0.57810026 0.67605054 0.7590528 0.8066621 0.8158698 0.453671 0.44048023 0.41350132 0.453624 0.3260708 0.104476005 0.35980466 0.19557135 0.14038529 -0.082966104 0.46830916 0.4855585 0.3470839 0.4411563 0.36001974 0.38955456 0.37711066 0.35914952 0.3727436 0.32590178 0.16215472 0.3505156 0.31737375 0.3857534 0.260931 0.61128646 0.7819136 0.49736577 0.6468667 0.8519914 0.81554466 0.578303 0.5889691 0.49133086 0.70466673 0.7851995 0.83398044 0.8277458 0.59832484 0.6090528 0.60926485 0.5776813 0.61975 0.6218873 0.61930907 0.71394175 0.6509994 0.6417953 0.68378127 0.65865993 0.43053594 0.4295028 0.57278687 0.49795562 0.40218523 0.07902807 0.14637694 0.21241732 0.45233583 0.41823357 0.41083023 0.28116253 0.38813847 0.38027292 0.3757915 0.26930392 0.3537584 0.31344277 0.2592256 0.17604858 0.02425924 0.41062105 0.7515849 0.5895096 0.6057731 0.52658266 0.62378365 0.6341194 0.6268761 0.5563715 0.7237171 0.7496107 0.7234317 0.7481519 0.7651427 0.7669187 0.69691396 0.71494085 0.7479998 0.72434765 0.7097772 0.6604239 0.5372408 0.29498485 0.29696518 0.0072541907 0.29832917 0.39451516 0.36991096 0.36305127 0.33826917 0.31077537 0.2619985 0.2564798 0.2486472 0.552289 0.5115887 0.32160512 0.6192565 0.61981726 0.56243014 0.5775705 0.64821047 0.6629869 0.6625675 0.6393425 0.6802246 0.7204466 0.7197536 0.60878646 0.74865675 0.7175659 0.5239212 0.7269608 0.54077035 0.5485213 0.49684662 0.6369699 0.61990494 0.6552155 0.56414485 0.5631611 0.52969 0.5566146 0.6984822 0.6367014 0.6899402 0.6098203 0.36076832 0.36492363 0.35999826 0.31370434 0.41603032 0.40756017 0.28416672 0.40331185 0.39368892 -0.19651905 -0.41319755 -0.42442226 0.28783172 0.40686855 0.3443147 0.42602184 0.37097502 0.3556227 0.29631418 0.3312279 0.261608 0.3001536 0.2567545 0.21166782 0.38609624 0.32162 0.38448465 0.39375722 0.43231612 0.30758995 0.47167516 0.5445814 0.48758736 0.42309698 0.5030932 0.5156964 0.52165276 0.48103976 0.51301074 0.5256151 0.57001764 0.6304163 0.424056 0.6499721 0.6293732 0.4287515 0.63801473 0.5197659 0.71226835 0.53506947 0.54305005 0.6475452 0.551918 0.5616932 0.45847127 0.48771757 0.49332654 0.55968046 0.5545545 0.5269418 0.49973792 0.40074104 0.3216928 0.33541045 0.39651078 0.41486654 0.40800923 -0.052166924 0.29903883 0.40919065 0.41511843 -0.28384894 0.2647774 0.42546526 0.43882868 0.40030372 0.32236323 0.2709805 0.21728814 0.13026549 0.19011453 0.19767517 0.1655008 0.2108345 0.44867003 0.44418555 0.2673285 0.45807904 0.34263828 0.38495353 0.3901621 0.38246575 0.4404444 0.50802016 0.48373216 0.43252343 0.39015776 0.48650992 0.46980906 0.48043242 0.46232608 0.4484678 0.46732724 0.49937114 0.47742942 0.42013037 0.4331023 0.5150922 0.4325032 0.4193569 0.48171198 0.4719746 0.51939297 0.6362648 0.5403068 0.5481029 0.54214334 0.45487523 0.17584413 0.5267031 0.5332881 0.10362758 0.27218932 0.23245142 0.4249174 0.21829395 0.34670225 0.4218732 0.12938654 0.26432136 0.25521374 0.4063046 -0.13043422 -0.14953147 0.24575847 0.41738573 0.40241727 0.5146854 -0.45293626 -0.21298689 0.3028993 0.42957664 0.3362194 0.27407706 0.15715098 0.14424331 0.019658325 0.12268299 0.033412002 0.13475847 0.26674643 0.18010129 0.40587085 0.47919923 0.33306798 0.4043457 0.40841568 0.45960605 0.44054252 0.41269514 0.40735254 0.44632167 0.42417288 0.42493376 0.42252812 0.4202518 0.45274436 0.40800133 0.38957065 0.39717332 0.3267534 0.40250474 0.25904414 0.42610225 0.1814191 0.4659323 0.46582857 0.47176895 0.22043318 0.46555895 0.48428884 0.4994884 0.1990815 0.1977998 0.16656624 0.16109404 0.26895142 -0.12429529 -0.033658773 0.051231768 0.30376655 0.351573 0.34689772 0.4356925 0.109643385 0.074508145 0.08135338 0.12736496 0.106650025 0.3293126 0.3840614 0.22922814 0.44381353 0.425465 0.3584083 0.34602493 0.4151854 0.43006217 0.42837414 0.39933404 0.3901022 0.40683448 0.3522176 0.36807096 0.37466753 0.41340536 0.38968706 0.32370186 0.33305085 0.3725279 0.3479989 0.372586 0.34080207 0.3164059 0.25202775 0.25136596 0.24446112 0.39134765 0.19409141 0.19179653 0.34686503 0.15424769 0.39421698 0.4333139 0.16559169 0.43321925 0.16965525 0.16823742 0.13788754 0.2529105 0.31500894 0.009069797 -0.22934303 0.099015296 0.19998008 0.40298843 0.3969422 0.25363168 0.42913693 0.47124067 0.51045203 0.51789594 0.5125466 0.4219084 0.19895457 0.31987512 0.23107313 0.25501353 0.44249403 0.38427755 0.3706298 0.4324242 0.4331305 0.3123364 0.36265194 0.41545922 0.41905707 0.34332764 0.36405474 0.3052122 0.28385526 0.3163085 0.3567437 0.34335965 0.31340602 0.19492404 0.3070223 0.30392775 0.15813042 0.28297654 0.23352572 0.20465717 0.13491377 0.16554448 0.1287511 0.17535657 0.14294589 0.2800684 0.28138545 0.33590835 0.51591635 0.5080884 0.4909913 0.06284087 0.5690279 0.5523915 0.5684289 0.10658641 0.46946165 0.34373185 0.35028374 0.37644914 0.42117643 0.28275847 0.47786134 0.39135337 0.47705752 0.5050408 0.494075 0.43823624 0.434184 0.43865716 0.3909882 0.3978911 0.43512177 0.3324669 0.36759695 0.25867757 0.36032003 0.33441666 0.09879814 0.26761478 0.30671227 0.30420786 0.31191418 0.3071412 0.3417515 0.29092538 0.11194846 0.2778194 0.11273651 0.2295764 0.21767548 0.17892613 0.036736164 -0.0071056485 0.26353687 0.33326268 0.068064064 0.14004289 0.25634107 0.34450746 0.47105622 0.61776334 0.45049638 0.59218603 -0.08742076 0.06581703 0.57565236 0.57019997 0.22526783 0.07513658 0.44800845 0.3720736 0.30507743 0.3909771 0.47384524 0.29869282 0.5477923 0.5834497 0.4015398 0.412358 0.5586299 0.5107748 0.44818616 0.43331087 0.4393322 0.43044567 0.42234597 0.1873297 0.2995822 0.32786354 0.32334173 0.0580647 0.039684877 0.06742459 0.020834617 0.21238391 0.26379815 0.53672063 0.2673896 0.29732326 0.2969641 0.65104395 0.59621835 0.2984774 0.66047454 0.61053324 0.47996953 0.28466094 0.6428242 0.5702827 0.25294408 0.45838076 0.25101236 0.17290056 0.080490425 0.50013214 0.58665514 0.28647748 0.06492391 0.012584545 0.09362597 -0.017355181 0.6498941 0.088260144 -0.055762947 -0.04090952 0.05275877 0.1029253 0.12667039 0.28059945 0.16017699 0.032051697 0.14867945 0.14928944 0.49831623 0.34586895 0.26426274 0.3051913 0.50578725 0.29173344 0.57287043 0.52121884 0.5881885 0.54490817 0.49055898 0.44683242 0.42412108 0.5354917 0.49575686 0.062322415 0.152326 0.2129241 0.19634962 0.09859918 0.024076879 -0.0218568 0.026514884 0.15923382 0.21971935 0.19145344 0.2708093 0.62161034 0.5803507 0.33393356 0.27861422 0.66621494 0.28138706 0.69881976 0.27312407 0.24118297 0.6312853 0.21858402 0.58024013 0.50182956 0.44178355 -0.08441657 0.4614774 0.3861525 0.0004899837 0.6195744 0.67181146 0.6548581 0.5782232 -0.11515589 0.69576025 0.69822323 0.6503452 -0.043899436 0.41215098 0.26634055 0.07440364 0.38778055 0.17874172 0.3989213 0.3745798 0.2562305 0.2358065 0.18709019 0.2165215 0.5573734 0.41671324 0.5468259 0.4969697 0.4642856 0.5365864 0.48966354 0.46109977 0.29447556 0.16242415 0.2876644 0.21838361 0.21680512 0.06832045 0.09678653 0.19386876 0.24441564 0.64030147 0.540666 0.2806792 0.69081485 0.35226148 0.72708786 0.73294985 0.68828183 0.17891438 0.6158236 0.06298228 0.38150325 0.5388355 -0.25917748 -0.27851623 0.6321446 0.6702232 0.27847987 -0.26669607 0.63026476 0.69616127 0.6930094 0.7077459 0.6808025 0.7083005 0.45632815 0.56003845 0.6762626 0.75938845 0.46344978 0.43290502 0.44828022 0.4496534 0.33790457 0.23161414 0.61785245 0.61721945 0.6434916 0.44398618 0.5168935 0.4816407 0.5194044 0.3506036 0.21286856 0.042034104 0.044745155 0.31596553 0.373944 0.2815897 0.59581995 0.30601478 0.3622828 0.66334444 0.39027923 0.7013185 0.33996874 0.6460643 0.2872935 0.28167918 0.57779986 0.46311817 0.3089303 -0.13651353 0.5699055 0.5924653 0.6055136 0.5139084 -0.36535054 0.11295425 0.21515444 0.17898409 0.33153757 0.42587084 0.5934966 0.59139824 0.17306617 0.20070751 0.1912118 0.22001284 0.40692407 0.58103216 0.60571444 0.5787561 0.669677 0.6652554 0.5492629 0.44576252 0.23173998 0.19033416 0.5163316 0.64213836 0.6057849 0.5045333 0.003768161 0.38786697 0.5346919 0.730167 0.66530406 0.51054657 0.50244457 0.14749649 0.3553073 0.47695047 0.6733837 0.6687573 0.46359777 0.7198714 0.719402 0.6918216 0.701786 0.69747216 0.68049586 0.5889524 0.08677296 0.029870085 0.08130363 0.43390912 0.44463742 0.054467026 0.27487963 0.4248518 0.40861875 0.2003094 0.39937723 0.40235153 0.4413154 0.39659902 0.6118846 0.36336136 0.6117735 0.50318027 0.31680185 0.565897 0.3544829 0.15156999 0.5018363 0.55808926 0.5857048 0.5813383 0.441517 0.51526535 0.4979651 0.5312871 0.48477924 0.46653813 0.442222 0.53248364 0.52102506 0.5130018 0.4743482 0.47194663 0.1466941 0.5385781 0.5059273 0.021447306 0.14602558 0.05586252 0.28225642 0.5617125 0.5168687 0.23218402 0.25812232 0.53664714 0.45067996 0.22191814 0.09814319 0.6184626 0.4087267 0.6144045 0.59109735 0.43695182 0.43212023 0.38733888 0.62150514 0.62759113 0.7380687 0.7234762 0.6821638 0.7282032 0.74521625 0.7035167 0.67396754 0.64135444 0.41353866 0.56563413 0.31335312 0.5042647 0.54135275 0.53603244 -0.06279972 0.066233344 0.42860287 0.4570096 0.44737706 0.08175015 0.42928353 0.15696533 0.3287512 0.24691114 0.30258468 0.36305532 0.53453875 0.46387988 0.4150738 0.4197482 0.481094 0.4350419 0.48316747 0.45228875 -0.14748593 -0.079107754 0.47112256 -0.15839912 -0.17285317 0.3997213 0.092627 0.099085644 0.12237886 0.41580406 0.33209437 0.40474403 0.346559 0.5137473 0.56543344 0.47268724 0.48073816 0.47095597 0.4299962 0.44441852 0.63587487 0.6355767 0.6125629 0.5100875 0.500579 0.4623369 0.6522503 0.647427 0.6626854 0.7709149 0.7181243 0.6968832 0.6432002 0.68506885 0.7079644 0.5574372 0.49102092 0.5921588 0.56333697 -0.08148786 -0.1059535 0.4434011 0.54032815 -0.02859819 0.47047532 0.4799651 0.09873256 0.09829812 0.4086321 0.026705384 0.4047212 0.45448488 0.38111475 0.40030944 0.41544348 0.37366596 0.16522789 0.3631578 0.318132 0.32351336 0.36378685 -0.17519015 0.3632991 0.288967 0.44728485 0.58915913 0.5883539 0.6491815 0.59282476 0.55689085 0.5457387 0.5193546 0.4987638 0.45564502 0.68151706 0.7086525 0.76013285 0.5431035 0.51536316 0.75238943 0.77007174 0.68469226 0.6223617 0.61977524 0.6094738 0.60392976 0.5875398 0.47379696 0.07660413 -0.051220514 0.29638994 0.432311 0.55731046 0.55766 0.6743196 0.68180215 0.45435238 0.58221173 0.66424966 0.65577775 0.65221584 0.65815175 0.32522193 0.5023245 0.49950796 0.24606799 0.4227636 0.26086825 0.2662734 0.28914505 0.30643243 0.40054595 0.25351146 0.42557982 0.3073271 0.21690679 0.343941 0.35480803 0.4263403 0.19114979 0.4493363 0.2635352 0.46134767 0.532711 0.39160353 0.3470574 0.28855413 0.5702329 0.45666787 0.42979872 0.39379102 0.743545 0.766621 0.86448705 0.5519457 0.51953816 0.4994108 0.47056568 0.81383824 0.83392316 0.8544688 0.4284824 0.21483007 0.2199198 0.106227495 0.6809617 0.6977747 0.7102018 0.36300966 0.37551033 0.12979077 0.2448279 0.6533719 0.689883 0.7193285 0.37008336 -0.10368726 -0.061499484 0.07613817 0.6575335 0.673324 0.38120204 0.6687034 0.35237697 0.59543705 0.19417354 0.5806155 0.16269445 0.2429513 0.5860512 0.56369233 0.5445965 0.3361128 0.33557284 0.5742364 0.5421743 0.48421818 0.33690387 0.38256803 0.40160957 0.45088962 0.2432556 0.4772083 0.21445464 0.5563007 0.5733327 0.32086965 0.6522522 0.72546446 0.5500245 0.4772076 0.41706628 0.3729983 0.36665514 0.35367823 0.8035834 0.85834765 0.5088155 0.4876064 0.4289375 0.8244091 0.8526398 0.88278663 0.90002453 0.43474478 0.2154283 0.70398426 0.71652687 0.7207454 0.3279076 0.28117666 0.044472348 0.5634951 0.6705575 0.71938527 0.75264096 0.38750687 -0.14171419 -0.03638956 0.7569349 0.40092707 0.01973688 -0.0146494955 0.19258788 0.7287128 0.32373014 0.5972066 0.6056427 0.11498916 0.26540676 0.5896511 0.3166543 0.3808515 0.57462966 0.5421013 0.43842232 0.3979445 0.4380343 0.3192999 0.60131395 0.45791674 0.40639248 0.5423961 0.62698436 0.49831498 0.47070998 0.5874337 0.54184836 0.5573743 0.62407833 0.36410654 0.28220305 0.48070076 0.7240063 0.7977052 0.40897387 0.35754955 0.31891066 0.28885782 0.34642148 0.7811872 0.81916237 0.849382 0.8398583 0.85067546 0.8686271 0.89263976 0.42958248 0.41489103 0.35248423 0.19216518 0.7138957 0.3211426 0.25218433 0.19221121 0.5606725 0.66793346 0.7148365 0.7547795 0.77107805 0.35370135 0.752615 0.3916536 0.107375495 0.70062745 0.3836726 0.34746784 -0.037726767 0.6036155 0.64259386 0.07544162 0.6353046 0.6344807 0.06087301 0.21190271 0.38793743 0.6129632 0.58573073 0.34107596 0.1866287 0.4442689 0.5764532 0.53222513 0.45782304 0.4057842 0.09362322 0.68850994 0.35640073 0.23865147 0.7449907 0.39193395 0.4016487 0.37685952 0.14634898 0.65223145 0.7503749 0.47218233 0.45985684 0.46262556 0.6187 0.6576853 0.64583665 0.74139804 0.22085223 0.5941911 0.5966132 0.69107854 0.76658523 0.78275144 0.26201683 0.2397694 0.8034793 0.8181064 0.4313941 0.4332049 0.4091369 0.35043782 0.3177344 0.24533585 0.19703773 0.19129989 0.62626076 0.64557564 0.70855355 0.7309077 0.25985315 0.22463652 0.2739821 0.32002705 0.5278363 0.58111644 0.6480669 0.68771803 0.33361286 0.28263527 0.42339754 0.6040357 0.64272416 0.2937284 0.24751106 0.3512627 0.55822384 0.31924862 0.61574006 0.37702715 0.664733 -0.11219673 0.6681607 0.6703942 0.28848413 0.21948367 0.37995857 0.43715388 0.6376488 0.6044549 0.552884 0.44017094 0.41611218 0.5583309 0.6611906 0.54197794 -0.040742204 0.8121217 0.9027647 0.855357 0.44454294 0.6590191 0.7159314 0.7787416 0.12539928 0.10256617 0.12447591 0.5846169 0.6230346 0.41654414 0.44086576 0.4381953 0.23472661 0.34213936 0.2193411 0.4674489 0.54888064 0.46132052 0.51707864 0.53848493 0.28175128 0.41273117 0.45496872 0.5063256 0.5161004 0.39779508 0.41893372 0.4698034 0.61174893 0.6000874 0.21096803 0.23008028 0.31155148 0.6757947 0.6753547 0.23240706 0.07396743 0.013969645 0.19837286 0.68098265 0.68229735 0.6338512 0.53373355 0.41270137 0.30382648 0.06712463 0.16996941 0.48837793 0.5114489 0.4447379 0.662358 0.63708454 0.4856152 0.44780302 0.404524 -0.100034826 0.54670364 0.552111 0.73950315 0.33249632 0.8342166 0.39888155 0.867587 0.44603366 0.66422 0.7590779 0.82474065 0.32014012 0.23695226 0.15718701 0.09612164 0.5219773 0.5827805 0.64867866 0.72013867 0.14839518 0.44732732 0.432331 0.42509902 0.462622 0.43913418 0.4983161 0.5541456 0.59248024 0.27441046 0.727631 0.18637644 0.7297152 0.65758145 0.14460814 0.324606 0.605906 0.59780145 0.5359564 0.4262572 0.22290598 0.20795405 0.52453494 0.6751305 0.6349774 0.54481006 0.41521174 0.3266113 0.13829802 0.17439443 0.1770862 0.63564736 0.51051354 0.4438589 0.1346935 0.29773194 0.5399517 0.5715693 0.58031845 0.56417 0.59584534 0.6088725 0.44547105 0.48337328 0.37607315 0.3509661 0.62226784 0.70625216 0.7832215 0.46495727 0.49165034 0.6334836 0.6962299 0.7873217 0.47491485 0.49320582 0.46584022 0.40698007 0.34319863 0.46674806 0.5528809 0.5662642 0.61921763 0.69321287 0.43757147 0.35249782 0.30264157 0.25789064 0.6467105 0.525341 0.49280465 0.5384223 0.5093191 0.5107203 0.5353186 0.5834505 0.6365373 0.70487577 0.2877105 0.7631692 0.40896666 0.30388343 0.71692 0.38005605 0.61957526 0.4502104 0.53290313 0.55394006 0.53377956 0.58479995 0.52560985 0.61488885 0.636021 0.63486063 0.6309206 0.52016914 0.56058407 0.5491199 0.5034998 0.6399298 0.648473 0.63951707 0.630587 0.504251 0.5087203 0.4994766 0.46375978 0.6173308 0.6336999 0.6185127 0.59768844 0.5018761 0.49789566 0.4509644 0.40245277 0.58956754 0.59017134 0.5830137 0.6275706 0.6437546 0.629011 0.65374124 0.66312814 0.6322182 0.63401324 0.7063202 0.7343969 0.6296334 0.64845437 0.48756367 0.29666027 0.6591363 0.7268997 0.7578974 0.77134407 0.56954575 0.5937532 0.5741967 0.48800218 0.36711836 0.5943511 0.6878058 0.73096853 0.72527874 0.50260895 0.6295881 0.6353059 0.6914363 0.57486945 0.6609174 0.6668104 0.65083987 0.6177919 0.65996766 0.6050577 0.6048391
SCALARS features_01 float 1
LOOKUP_TABLE default