# vtk DataFile Version 2.0
Really cool data
ASCII
DATASET POLYDATA
POINTS 670 float
23.297918 39.193604 20.741728
23.274754 39.10328 21.581821
23.354647 39.178925 22.043545
23.287584 39.712776 20.60771
23.136227 39.49255 21.49895
23.285452 39.451878 22.069014
23.328686 40.336956 20.53419
23.166012 40.307533 21.535246
23.308804 40.454144 22.078081
23.38527 41.061646 21.190239
24.070704 38.337063 21.55088
23.591076 38.963352 20.70223
23.613316 38.741024 21.379873
23.73781 38.914707 22.213741
23.84687 39.451168 19.8448
23.45691 39.25073 20.57322
23.787508 39.269173 22.709908
23.519806 40.3856 22.518173
23.723158 40.653515 22.760366
23.692715 41.362934 20.68325
23.663622 41.61309 21.997284
24.187199 41.03605 23.209394
24.149113 41.99681 20.632132
23.977272 42.230488 21.481794
23.945835 42.136974 22.090843
25.379463 37.15485 15.42987
25.418232 36.957245 16.323595
25.378407 37.627396 13.990539
25.160332 37.89982 14.570248
25.0373 37.57746 16.401829
25.295609 37.86064 17.5097
24.376257 38.376904 20.808653
24.71096 38.172432 21.05757
25.397118 38.24738 13.140356
25.12924 38.6722 13.626838
25.059855 38.425243 14.170428
24.965672 38.34132 15.725782
25.251188 38.192467 18.186657
25.359268 39.27659 13.218417
25.249382 39.43986 13.819912
25.259916 39.54143 14.52098
25.202637 39.39306 15.474445
24.94492 39.139477 16.662247
25.159678 39.598625 17.228188
24.463804 39.29135 19.280073
24.899342 40.179832 23.710985
25.23623 39.706463 15.7626915
25.343042 39.71643 17.19328
24.41006 40.75346 23.363087
24.652151 41.630966 23.488167
25.088285 41.528496 23.990406
24.982134 42.147125 19.89953
24.31926 42.60347 21.016932
24.477953 42.522827 22.547817
24.51709 42.24938 22.912146
24.577261 42.8384 21.494614
24.509031 42.764553 22.095192
26.161068 36.992523 12.413933
26.207466 36.35933 13.699745
25.941511 36.513382 14.490822
25.76705 36.656242 15.529892
25.599005 36.635178 16.869968
26.116543 36.590847 18.4975
26.248102 37.65744 11.890827
25.80698 37.79092 12.405378
25.465412 38.05605 20.889599
25.30093 38.10748 21.022923
26.431396 38.089565 26.886118
26.217064 38.39523 11.855729
25.441502 38.806847 12.971737
26.212294 38.747597 26.61404
25.707638 39.438152 12.948328
25.469864 39.454025 17.723648
26.0257 39.552734 25.034695
25.891836 39.462765 25.77126
26.038801 39.400684 26.28078
26.300055 39.341846 26.86944
25.600779 39.827583 13.571639
25.83517 40.07802 14.092241
25.983625 40.037235 14.980274
25.568417 39.98557 16.090117
25.54018 40.421474 18.71504
25.94766 42.215023 19.275305
25.740532 42.23106 19.40726
25.42364 42.13638 23.988756
25.797804 43.11517 20.163742
26.16428 43.58114 20.802132
25.65157 43.4616 21.656868
25.603899 43.094322 22.650043
26.034441 43.233505 23.09334
26.152802 43.676224 20.826267
26.133202 43.71777 21.235706
27.104353 35.32195 15.575546
26.984354 35.027924 16.099234
26.82442 35.232914 17.066956
26.573483 36.302532 12.701244
26.901503 35.425896 14.324559
26.585552 35.771942 15.670819
26.437313 35.65866 17.845993
26.83095 36.691658 11.950984
26.997818 37.27826 26.748247
26.935177 37.34013 26.982605
26.852573 37.776344 11.402637
26.660065 37.640766 11.543259
26.503103 38.266018 21.315842
26.979923 37.59861 25.738554
26.674166 37.634087 26.738651
26.786745 37.6576 27.205614
27.151924 37.66506 27.700726
26.891285 38.30052 11.361631
26.839525 38.618378 11.47683
26.63253 38.43106 27.470232
26.992342 38.486103 27.816317
26.685253 39.037037 11.895673
26.70494 39.346127 27.411716
27.061604 39.285957 27.811264
26.550064 39.84237 12.969983
26.170876 40.129276 13.65539
26.248632 40.17965 14.238073
26.836979 40.5588 17.94875
26.534512 40.604645 26.549576
26.754793 39.97089 27.129347
26.73065 41.585087 25.582178
26.55429 42.16834 24.608007
27.12519 42.119694 25.34244
26.321846 43.162292 19.900612
26.381094 43.552647 20.588013
26.593586 43.557575 23.037643
26.682892 43.78183 20.76978
26.709745 43.99486 21.56093
27.059147 44.02549 22.414915
26.684195 43.736076 22.895613
28.249748 30.938927 18.074677
28.278084 30.924545 18.54145
28.341051 31.749306 17.025839
28.045227 31.612038 17.775326
28.052727 31.479025 18.761976
28.405376 32.038403 22.756062
28.372046 32.13211 22.957151
27.952383 32.958572 18.093817
28.299078 32.48678 18.951212
28.277117 32.395164 22.76321
28.240267 32.566475 23.259983
27.97646 33.557262 22.751534
28.039045 33.244614 23.177237
27.80259 35.04602 13.961716
27.345552 35.146896 14.238429
27.586782 34.545456 16.1098
27.348776 34.811268 16.37136
28.116209 34.206474 22.854319
27.893744 35.99393 11.949095
27.767027 35.548058 12.617972
27.626957 36.71049 11.565355
27.31192 37.106945 26.863901
27.564743 37.18095 27.29824
27.368334 37.72071 11.310745
27.59762 37.76267 27.868958
27.270124 38.318375 11.337783
27.462315 38.69176 11.501555
27.59244 38.314724 28.078644
27.616 39.034817 11.874838
27.28599 39.51072 12.452731
27.533323 39.05988 28.121693
27.561829 39.595142 12.827171
27.502003 39.94719 13.7601185
27.466467 39.89645 14.331835
27.937593 40.414616 27.967234
27.361801 41.00137 26.997383
27.867098 42.147102 18.773338
27.93004 42.268986 26.145699
27.417772 43.36176 20.126661
27.749714 43.567646 20.445452
27.955608 42.72703 25.755848
27.388449 43.85004 20.746485
27.581888 44.100704 21.46988
27.703598 44.060326 22.471437
28.894411 30.292044 17.923092
28.940866 30.30381 18.733065
28.79381 30.355137 18.909664
28.744862 30.845016 17.042995
28.587543 30.66879 17.80197
29.012926 30.452967 19.497595
29.131685 30.746061 19.741343
29.130009 31.953707 16.348694
28.939526 31.350712 16.640594
28.771389 31.816187 23.183037
28.477982 32.36809 21.435467
28.484533 32.484 23.538502
28.851555 32.48064 23.911758
29.093195 34.236153 15.267424
28.629742 33.405735 23.978004
28.500046 35.164097 13.06259
28.424135 34.92185 13.698013
28.882996 34.03761 20.66049
28.415613 35.824398 11.98
28.315203 35.525723 12.293398
29.000021 35.582485 21.178825
28.905191 35.17328 23.759687
28.630875 36.524776 11.600187
28.313486 37.345825 25.095633
28.135551 37.105965 26.838055
28.434946 37.319633 27.331184
28.265652 37.093815 11.434591
28.706526 37.49629 11.72895
28.43206 37.5913 22.571136
28.231127 37.835728 27.94196
28.198776 38.399616 11.69242
28.456463 38.493774 28.202343
27.841007 39.06117 11.924876
28.210646 39.044056 12.467439
28.510162 39.07056 13.99064
28.652933 39.062912 14.936809
28.557425 39.401405 28.381664
28.718826 40.271626 28.346806
28.497751 40.865967 17.69656
28.748236 41.28372 27.617464
28.707962 41.09873 27.867706
27.93231 42.957043 19.920439
28.472563 43.308422 21.013369
28.41439 43.33157 23.491396
28.54615 43.24016 24.165163
28.800243 42.94911 25.723885
28.976353 42.768623 26.096987
27.965937 43.761513 20.739006
28.127544 43.930164 21.540504
28.13523 43.95095 22.452158
29.483196 30.380432 16.99962
29.5669 30.00499 17.575945
29.810297 31.195295 21.550339
29.733603 31.255926 23.041256
29.58596 31.285898 16.276413
29.539883 32.22074 24.081041
29.727123 33.80891 15.599573
29.552828 33.199547 24.549522
29.547619 33.574432 24.795622
29.617214 34.73098 14.566458
30.062275 34.33285 25.332365
29.092873 35.94977 12.062012
29.511435 35.97 12.462187
29.656395 35.97594 25.544981
30.069317 35.434322 25.785929
29.215767 36.46647 11.935035
29.563852 36.863277 12.32272
29.07193 37.246723 11.867248
29.410995 37.324905 12.267236
29.006227 37.561604 27.414799
29.598312 38.262245 27.890297
28.912804 38.09579 12.104265
29.067568 38.317463 12.662471
29.345753 38.197937 13.302463
29.286852 38.745388 28.193504
28.712435 38.7593 12.7800865
28.861845 38.701756 13.265359
28.706654 38.819874 14.255496
29.784748 39.391243 17.14278
29.26522 39.49047 28.400799
29.59196 40.324326 17.7437
29.313608 40.306847 28.365213
29.636036 41.53833 27.395206
29.669771 41.045143 27.90588
29.405054 41.757687 18.621805
29.636538 42.042282 23.040806
29.454645 42.503864 26.388851
29.165249 43.096634 24.875006
29.199783 43.07367 25.338049
29.306961 42.77984 25.993208
31.261503 23.007372 19.113361
31.16485 22.799158 19.644075
31.090239 22.827717 20.444956
31.189047 23.000397 20.924631
31.10156 23.458641 18.903624
30.779984 23.617857 19.782772
30.853882 23.487867 20.373867
31.066015 23.59034 21.1241
31.320305 24.189165 18.145142
31.1037 24.50199 18.656874
30.930693 24.471529 21.274513
31.101461 24.685192 21.6918
31.056845 25.68001 18.977093
30.713243 25.325432 19.913912
30.773394 25.691849 20.651646
31.050919 25.26558 21.534716
30.872015 26.177366 19.589203
30.815239 26.35097 20.132467
31.087444 26.268984 21.382914
31.34872 26.326056 21.72809
30.916574 28.81289 19.542381
30.118563 30.281069 16.928602
30.483824 30.066029 20.599564
30.433517 30.639486 16.577911
30.380108 31.170618 22.960049
31.174198 30.862118 23.845781
30.862226 31.73743 15.957848
30.58891 31.577316 24.05251
30.566793 34.158794 15.1832
30.73203 33.90917 25.407368
29.721933 35.185528 13.887461
30.712627 34.782207 25.796267
30.31127 35.956383 14.168746
30.782179 35.765537 26.165705
29.71999 36.42301 12.468371
29.863003 36.62187 13.205233
30.516027 36.0028 14.50339
30.312113 37.547752 26.856901
30.374916 38.70919 27.788033
29.993864 39.63207 28.22195
30.694868 40.351265 18.068716
30.565025 40.5658 27.529182
29.937162 40.12439 28.176495
29.885164 41.380184 18.271679
30.16968 41.385616 18.55857
30.569153 41.50086 22.633764
30.393917 41.202553 27.245857
29.879068 41.007015 27.840515
30.838217 41.83404 19.134228
30.498552 42.00391 19.576836
30.210623 42.51505 25.485872
30.506298 41.93657 26.285568
29.873167 41.898983 26.867355
30.058975 42.64649 25.779379
31.97684 22.430557 18.858982
32.091743 22.272024 19.110338
31.722914 22.32518 20.340582
32.17203 22.683014 17.960897
31.616583 22.783129 18.619967
31.387676 22.601774 20.66812
31.502893 22.846199 21.068335
32.226486 23.41351 17.39859
31.910156 23.521135 17.58306
31.47553 23.28639 18.242119
31.813034 23.558962 21.617304
31.894722 24.116405 17.401674
31.618952 25.011969 22.026459
32.03168 25.092808 17.353252
31.75624 25.366777 17.719069
31.40551 25.560934 21.941256
31.860216 27.441048 18.18751
31.883745 28.248926 18.008972
31.938423 28.728575 23.351946
[...]
POINT_DATA 670
SCALARS features_00 float 1
LOOKUP_TABLE default
0.60607225 0.62124896 0.62285376 0.59943396 0.61943173 0.624532 0.61402786 0.634591 0.6231586 0.6285504 0.58608806 0.60148203 0.6108483 0.60461766 0.5367615 0.597665 0.5934624 0.5958122 0.5600851 0.5999061 0.5733504 0.4965968 0.5454461 0.5544598 0.5459571 0.36027232 0.31311116 0.5195684 0.500654 0.39156944 0.41568494 0.5972515 0.58729607 0.6590654 0.6343266 0.58709174 0.50562185 0.32345724 0.68938726 0.64084435 0.5933052 0.5207341 0.43563575 0.36844182 0.42166555 0.35785785 0.4906971 0.3447212 0.46763074 0.4604054 0.38883233 0.4351565 0.52096206 0.5073179 0.49428263 0.511515 0.51367694 0.6786828 0.43254685 0.33030206 0.28361356 0.282897 0.31536108 0.73105264 0.71174693 0.48531625 0.53751945 0.6915966 0.7675923 0.7059088 0.6223143 0.73992974 0.3176332 0.4322918 0.50846004 0.5530578 0.59939325 0.6725868 0.6487185 0.55468524 0.38442034 0.13722318 0.37227097 0.38081646 0.36903802 0.44961318 0.49008602 0.4962312 0.4798754 0.44474488 0.4923767 0.50321054 0.19924176 0.17481709 0.17899957 0.6335604 0.31162497 0.20661634 0.24110001 0.73850894 0.70260835 0.72444636 0.7708572 0.7548542 0.37282717 0.5746148 0.70091516 0.72795415 0.7337321 0.78398466 0.7824085 0.70321405 0.7218157 0.79733837 0.6380577 0.670465 0.78108746 0.69900084 0.65589625 0.17954832 0.48716676 0.578542 0.3122415 0.28187627 0.33581388 0.4470529 0.48864907 0.48609903 0.50291437 0.53391594 0.55100584 0.51505 0.53795683 0.51545763 0.5526568 0.5445472 0.48721367 0.41788387 0.42527115 0.40691373 0.3956319 0.42255855 0.43499777 0.43143624 0.43866885 0.40820664 0.3406867 0.15949424 0.15236408 0.4309234 0.7695023 0.6541065 0.8049723 0.7034421 0.72284806 0.79282165 0.7336639 0.7890508 0.77992165 0.73109585 0.7509265 0.7394414 0.6992423 0.67182755 0.6531478 0.62227225 0.64725536 0.5259712 0.28605735 0.44762287 0.45275256 0.47556 0.43596697 0.5033832 0.53718925 0.53921115 0.5437034 0.49003884 0.48468727 0.5527501 0.5474744 0.3661611 0.30421555 0.4806544 0.544449 0.41267732 0.3999905 0.43179914 0.42081738 0.24860848 0.44284874 0.62196016 0.49672246 0.22713616 0.7686678 0.7253582 0.12717214 0.4047249 0.78454095 0.43567395 0.66040236 0.66834426 0.8061545 0.75200856 -0.25372317 0.6980512 0.74826497 0.6666745 0.730382 0.64481556 0.504262 0.41651046 0.64603525 0.6234784 0.25911033 0.5437884 0.57559 0.39325517 0.44864506 0.42229146 0.40482542 0.44035357 0.44604617 0.4970919 0.5338352 0.51933813 0.5326679 0.5273746 0.23625058 0.3769843 0.4858544 0.39150834 0.16272643 0.35168374 0.31754464 0.36227027 0.19065121 0.74392605 0.6835246 0.1606947 0.18184555 0.73723793 0.66669846 0.72529954 0.67134356 0.5899755 0.55532527 0.68535745 0.6196295 0.52504027 0.5983864 0.5940243 0.54037917 0.46963292 0.09641616 0.61502445 0.20119077 0.60272217 0.4764967 0.54168046 0.21866858 0.2708093 0.43654138 0.3980897 0.4160903 0.43589193 0.6207067 0.63870764 0.64231414 0.62665576 0.6161693 0.6464828 0.63152874 0.5984289 0.5678887 0.586039 0.54763544 0.5129103 0.5060676 0.5406411 0.50961626 0.49393058 0.45235083 0.44603148 0.47637838 0.44604445 0.22616264 0.46127927 0.026055183 0.41208512 0.33189708 0.18756336 0.31326297 0.30059618 0.19751173 0.16838281 0.53818864 0.16930862 0.47251493 0.14866845 0.6549406 0.5618838 0.31908482 0.338367 0.5376246 0.5891359 0.21440852 0.5048988 0.5846527 0.22763619 0.23807743 0.14115876 0.45892376 0.53238285 0.271612 0.25824037 0.39639992 0.41901314 0.43931264 0.4086566 0.59686303 0.60001713 0.645736 0.571928 0.59415734 0.6423272 0.6154964 0.5464076 0.5539479 0.58271194 0.54809624 0.53485596 0.4697529 0.50141144 0.4825999 0.4610538 0.24851786 0.067609996 0.26074517 0.25746277 0.29161555 0.13341478 0.1917024 0.2699827 0.16860665 0.193241 0.05382681 0.13541983 0.49526244 0.27829295 0.3904482 0.30894387 0.3555361 0.3942128 0.40133023 0.5659236 0.5430886 0.6219178 0.6304293 0.5340841 0.55649364 0.5210726 0.51857966 0.45566905 0.46392494 0.37636727 0.31352615 0.27392352 0.15085562 0.2500361 0.20835938 0.15410717 0.16470152 0.1494123 0.1524203 0.11741821 0.12376269 -0.12298845 0.3038161 0.22878806 0.32150126 0.6134249 0.49183637 0.48921847 0.49319667 0.46572 0.4923997 0.2802924 0.25179422 0.19477773 0.18791085 0.15973838 0.23941283 0.16863525 0.23961392 0.2678439 0.109469086 0.29976165 0.41195643 0.36629647 0.09064918 0.18494569 0.20353837 0.17382213 0.5015132 0.633518 0.47814563 0.58987534 0.36760813 0.009297739 0.1666049 0.13792211 0.15269622 0.16986786 0.26731503 0.17533645 0.19882986 0.28119493 0.2096912 0.33431327 0.11916843 0.36000425 0.3379509 0.3359916 0.54164875 0.5344006 -0.06963823 -0.083483264 0.6229787 0.23224507 0.09047316 0.049237475 0.16535898 0.20344824 0.103711925 0.58743846 0.57581073 0.63112473 0.5198517 0.66464806 0.46181318 0.6532453 0.66595423 0.5863851 0.25575173 0.1494913 0.24469286 0.68552244 0.028246984 0.7872286 -0.041620154 0.68579733 0.52569866 0.1195941 0.31409955 0.22621116 0.34925532 0.36178005 0.27665687 0.35620582 0.43364123 0.3590672 0.3600511 0.48203987 0.31782037 0.5469954 0.56921303 0.26288036 0.65505385 0.35325396 0.59718406 0.587789 0.6198269 0.64374936 0.5661801 0.58354855 0.6690534 0.68325543 0.4907279 0.67620784 0.41081867 0.5598048 0.26352963 0.6713446 0.65069425 0.8168093 0.764398 0.07509074 0.853597 0.7903094 0.8411896 0.7553569 0.20908555 0.29582834 0.32238275 0.3352575 0.23896147 0.35816574 0.48080984 0.46167737 0.51072526 0.5197789 0.40895954 0.36515343 0.53680676 0.5613512 0.44022164 0.39817667 0.64691544 0.6416172 0.60476494 0.5249111 0.51693386 0.5697731 0.6185643 0.6007088 0.53171384 0.53470814 0.57524407 0.62178767 0.5756444 0.653152 0.57774377 0.3361694 0.6740762 0.63114274 0.106075935 0.7479959 0.71446866 0.83213115 0.2191805 0.89344704 0.21463738 0.8484255 0.31149885 0.7933464 0.66386974 0.3673288 0.11560251 0.05871307 0.25800887 0.1034338 0.25821036 0.32862747 0.370055 0.37471244 0.47251478 0.44320244 0.53974867 0.49692395 0.3747077 0.46296173 0.6201085 0.6067656 0.551935 0.42374456 0.6020466 0.58558285 0.53092957 0.5082182 0.54359794 0.6180444 0.5688909 0.5235518 0.48334324 0.56984365 0.6291088 0.38839805 0.58374804 0.6440196 0.2802671 0.69616 0.6681748 0.5879705 0.8364545 0.7401801 0.34493104 0.86921084 0.38223302 0.8323797 0.6715196 0.39207667 0.62542665 0.10328523 0.15526831 0.14405951 0.45502424 0.26402462 0.4903775 0.49041647 0.5307077 0.52020264 0.47436452 0.51756775 0.49491382 0.3172652 0.27413785 0.26684067 0.2871869 0.6574433 0.27926058 0.40206593 0.7066901 0.633458 0.5534519 0.4922219 0.70372397 0.5979962 0.6329504 0.5492401 0.47981504 0.5365598 0.48481077 0.47749567 0.48107293 0.44625744 0.45123327 0.34410262 0.41293374 0.47549474 0.52511084 0.52011067 0.5067065 0.51365775 0.5321804 0.52933407 0.32570016 0.3176723 0.37220442 0.41316757 0.47484678 0.49897856 0.31826538 0.5535077 0.5035572 0.41660544 0.5374755 0.5401422 0.48870263 0.29602167 0.34586793 0.51675147 0.4995436 0.32725367 0.28008014 0.48621202 0.49783832 0.29156077 0.3180255 0.32409912 0.3691419 0.46170408 0.29647574 0.23188293 0.3277319 0.37687218 0.4350652 0.41763756 0.44966328 0.49007753 0.47916332 0.5085812 0.4540135 0.3894738 0.43122157 0.5221444 0.40324557 0.43792862 0.5127312 0.40783727
SCALARS features_01 float 1
LOOKUP_TABLE default
0.089849316 0.09437795 0.09470747 0.08813316 0.09431976 0.09557595 0.092177875 0.09964319 0.096178606 0.09811055 0.08240136 0.088040665 0.091119215 0.088194005 0.06906583 0.087090336 0.08493106 0.0874873 0.07698681 0.08876953 0.08070136 0.058801714 0.07326228 0.075052485 0.07242569 0.02589868 0.02030154 0.06034987 0.049812708 0.028773388 0.03053163 0.08510695 0.08273937 0.10304311 0.08769296 0.0704519 0.04284354 0.002115788 0.10473176 0.08341679 0.06622532 0.045289926 0.026721802 0.004043524 0.021959594 0.021466365 0.03835681 0.0008715377 0.051576618 0.048065327 0.028954752 0.04677633 0.065869175 0.061163694 0.057448294 0.06261905 0.06285049 0.112748094 0.046216447 0.023992894 0.016874613 0.017489886 0.025565656 0.12750801 0.122830674 0.058681007 0.0710087 0.11797212 0.13713565 0.116035104 0.09415508 0.12432616 -0.018456224 0.024458356 0.05565864 0.07148105 0.08737461 0.094497 0.0845527 0.058031544 0.022420797 -0.058267396 0.032965537 0.03547432 0.025162047 0.049901906 0.058954347 0.058713727 0.054008827 0.045996826 0.059492577 0.061915223 0.0023437648 0.0014670885 0.0041389707 0.09888874 0.016030138 0.0059863515 0.012721186 0.13116641 0.123469554 0.1310898 0.13790841 0.13387062 0.040410783 0.0821234 0.12201482 0.13212726 0.1345063 0.14038083 0.13832119 0.12288907 0.13003337 0.14466117 0.10102349 0.11234593 0.13957186 0.1053068 0.088530555 -0.025088489 0.053364 0.082471155 0.008326381 0.0045013046 0.01168015 0.048707668 0.058498237 0.055433556 0.061901998 0.06955336 0.073158056 0.062943436 0.06943366 0.06460398 0.07165819 0.07085778 0.05883578 0.042771008 0.0445385 0.035755914 0.037363507 0.044024274 0.046553772 0.04542519 0.04690313 0.024425492 0.016629288 -0.0051619275 -0.0020632152 0.044293437 0.13667394 0.09604397 0.151823 0.12349022 0.13030118 0.1441061 0.13449636 0.1419168 0.13920553 0.13354532 0.13095261 0.1289672 0.12213878 0.10884913 0.10029507 0.087007545 0.10454464 0.0645592 0.018268516 0.040696215 0.049004212 0.054861553 0.036374807 0.061909854 0.07051 0.0692554 0.0693634 0.05625607 0.056062337 0.072246365 0.07121324 0.031702615 0.022193993 0.051744282 0.07025692 0.04230841 0.036511518 0.045988202 0.043893978 -0.0521198 0.047248185 0.06953305 0.02989345 0.014307674 0.13141856 0.11303712 0.00083254476 0.034100503 0.1407679 0.04336162 0.10577702 0.11048459 0.15113598 0.13346219 0.0012468996 0.12164701 0.13160379 0.110811785 0.12522677 0.10105105 0.062406525 0.037644893 0.10401463 0.096848235 0.017031277 0.07342314 0.0827542 0.03649359 0.05015827 0.032950006 0.028989676 0.04145727 0.04509812 0.060326282 0.06939184 0.063888185 0.06572863 0.061791353 0.009515069 0.036146633 0.055290166 0.03786113 -0.06530005 0.02902503 0.022031888 -0.06587541 0.0011362776 0.12006737 0.09512671 -0.017829241 -0.0038113706 0.12245655 0.10067103 0.1232611 0.10579137 0.08526355 0.07494273 0.11351876 0.09416077 0.066784605 0.08817095 0.08735342 0.072835326 0.054100562 0.0030060117 0.09328183 0.010562155 0.08996064 0.05627776 0.073068775 0.0105138365 0.01783524 0.04554769 0.033970263 0.037451558 0.04364522 0.09519445 0.1006617 0.10189868 0.0972899 0.09408018 0.10276005 0.09814216 0.08884293 0.08037636 0.08515695 0.07328014 0.06322195 0.0568672 0.06551125 0.055339847 0.05548575 0.038087115 0.034565408 0.046548363 0.03977594 -0.03872889 0.046498887 -0.011792053 0.036778282 0.02843189 -0.00013328996 0.01939844 0.019970492 -0.07241339 0.0018634372 0.007505156 -0.0004770818 0.001832582 -0.010204314 0.09124833 0.06211997 -0.045292836 0.01520371 0.06910628 0.08389517 0.009128418 0.06176011 0.08354299 0.01185301 0.012754168 0.001910949 0.052024517 0.07045845 0.017204968 0.01605701 0.036861144 0.042971693 0.047377203 0.039569017 0.08810751 0.08888562 0.10284627 0.08085485 0.08734505 0.10192897 0.09411118 0.074146174 0.0763445 0.084309034 0.07503746 0.070907466 0.05233921 0.059740502 0.053619396 0.047478363 -0.025932437 -0.079123735 0.0003950512 0.0011391414 0.00966658 -0.024370145 0.0015159482 0.014529184 0.0044636116 -0.026965061 -0.055257436 -0.008386391 0.058008756 0.01621791 0.03622467 0.020834936 0.031109355 0.037357304 0.038999543 0.07861603 0.07095506 0.09502596 0.098122574 0.07042474 0.07621741 0.06704777 0.06531138 0.050775368 0.047444098 0.02839184 0.014400611 0.009014482 0.003292 0.006505185 0.0048955083 -0.008920713 0.0058214176 -0.014513057 -0.03577115 -0.025335604 -0.037901677 -0.020952603 0.019705443 0.011765912 0.021718804 0.09070741 0.057438552 0.058570113 0.05789112 0.049991395 0.054625962 0.011779527 0.007183456 0.0035978754 0.0047530816 0.0049105687 -0.0028139828 0.0060400944 0.013078184 0.016578985 -0.009525598 0.02160169 0.04442519 0.032077882 -0.0052892207 0.0068097375 0.008500515 0.0062698466 0.061221514 0.09514046 0.053942494 0.085764565 0.028271262 -0.010557169 -0.0068644797 -0.0075981054 -0.0043644705 0.0026824786 0.0034953582 -0.004478334 0.008715266 0.005846995 0.0020761816 0.02663905 -0.0018341914 0.03203484 0.02775024 0.027211878 0.07275933 0.07146511 -0.02335057 -0.018462092 0.09432065 -0.0152943265 -0.0077936063 -0.026974618 0.0050450233 0.0067405608 -0.018004375 0.08618487 0.07659451 0.09197097 0.067301616 0.10540069 0.050897382 0.10381123 0.10793325 0.08247919 0.014552791 0.00642273 0.010933061 0.11512281 -0.0037541715 0.15482932 -0.0118385665 0.109448195 0.044425674 -0.0021640006 0.021973675 0.012150669 0.029960934 0.032420646 0.016859248 0.030657833 0.04452357 0.030224042 0.03096108 0.05645405 0.021981185 0.07392983 0.079797365 0.014380045 0.101843484 0.016461685 0.0889707 0.08563061 0.09353558 0.10001063 0.07990367 0.08497451 0.10804785 0.11408048 0.060141176 0.11135483 0.04145459 0.0717176 0.010529234 0.10761682 0.10064768 0.16562636 0.14317232 -0.0005728416 0.18183528 0.15629785 0.17459908 0.1344161 0.006860419 0.021172635 0.025253866 0.02769608 0.009366673 0.030229485 0.054155454 0.047940645 0.06302368 0.06556144 0.039802477 0.028323933 0.07043526 0.07748756 0.04654464 0.038316462 0.10236905 0.09779878 0.090575285 0.0682647 0.0658232 0.08011577 0.094077736 0.089948684 0.070237145 0.071057156 0.08215457 0.0961248 0.0824358 0.10443715 0.07537285 0.018237192 0.10692779 0.09030144 -0.003763315 0.13362443 0.12092066 0.17001677 0.008712979 0.19940999 0.008360067 0.17787239 0.017798632 0.15400365 0.10212294 -0.00022043404 -0.03302089 -0.03234332 0.014015596 -0.02458827 0.016312078 0.025271773 0.018760204 0.03236291 0.048607666 0.046836305 0.069579616 0.056555122 0.025494413 0.052564755 0.092867754 0.088698156 0.0738712 0.04433273 0.09013055 0.08491669 0.06980842 0.06440355 0.07358917 0.09499656 0.08031148 0.06628214 0.05720781 0.08043199 0.09776628 0.03484986 0.0812086 0.09591339 0.006478514 0.115703024 0.10651149 0.081478864 0.17244814 0.13380314 0.022529509 0.1884775 0.031714093 0.17173542 0.10527129 0.031059187 0.08955969 -0.017344201 -0.0151287895 0.0036888793 0.051149465 0.015348596 0.05959229 0.059660006 0.07028372 0.0676683 0.055264123 0.0663862 0.06114191 0.011229924 -0.0004146453 0.00074989535 0.003130131 0.1056661 0.009079626 0.016005501 0.12449606 0.0998327 0.07610538 0.050259005 0.121735714 0.085048355 0.09337094 0.06638136 0.04853036 0.06113185 0.045631018 0.047485568 0.04839463 0.035629474 0.04913106 0.028898444 0.040826127 0.05427564 0.06820753 0.067069374 0.06418773 0.06464282 0.07000938 0.06992236 0.005118438 0.005533615 0.022428788 0.022844357 0.038346253 0.046477154 0.023694923 0.07261274 0.059991457 0.040585194 0.060323123 0.06535284 0.05270045 0.019563613 0.025741301 0.05581963 0.052744523 0.0215898 0.017436001 0.047726084 0.051413715 0.018771231 0.019543383 0.017890908 0.026461892 0.04340919 0.015626708 -0.0031940623 0.008883506 0.027829245 0.042840052 0.039999608 0.047040142 0.058325253 0.055006433 0.06313479 0.044169564 0.03270485 0.03894909 0.056597896 0.034037907 0.03938211 0.053797726 0.033275716
SCALARS features_02 float 1
LOOKUP_TABLE default