# vtk DataFile Version 2.0
Really cool data
ASCII
DATASET POLYDATA
POINTS 8398 float
1.4008776 19.004894 15.092437
1.3584306 18.895687 15.607801
1.4132698 18.822767 16.215342
1.403827 19.558304 14.973851
1.3540943 19.439312 15.57031
1.4165494 19.381817 16.063156
1.4631758 19.954239 15.09527
1.3819506 20.051632 15.2751255
2.1095178 17.845623 15.019918
1.9073145 17.949835 15.490063
2.0127745 17.932716 16.468079
2.1790874 18.075449 17.393578
2.2831564 18.172028 17.796694
2.1985445 18.772638 14.184747
1.8226881 18.630781 14.68175
1.5721712 18.500286 15.360135
1.6208074 18.584875 16.500713
1.9507065 18.554058 17.378376
2.2047005 18.64311 17.880314
2.1026661 19.558895 14.032877
1.5611535 19.712635 14.724791
1.5745277 19.352545 16.545048
1.9853104 19.311516 17.455542
2.2340324 19.195389 17.824436
2.2240615 20.378788 13.750423
1.5907917 20.395426 14.675748
1.557139 20.285616 15.560347
1.6950576 20.30634 16.191216
2.0500507 19.969114 16.843895
1.9986238 21.571447 13.917941
1.7068707 21.598839 14.545235
1.68196 21.406015 15.199929
2.0845587 22.107275 13.962183
1.9337268 22.373543 14.596561
1.9708558 22.428083 15.364186
2.3392842 22.005976 16.176004
2.236621 22.887287 14.364807
2.2503932 23.232555 15.370191
2.3921232 23.114819 15.96765
2.810674 17.367418 15.028068
2.649391 17.343767 15.505337
2.8157744 17.370625 16.27276
2.820289 17.93289 14.314284
2.5844283 17.664558 14.754693
2.4578557 17.440342 15.513507
2.53174 17.548943 16.550495
2.7777507 17.749249 17.454905
2.691819 18.08496 17.9329
3.162517 19.139093 13.253515
2.831621 18.469349 13.931706
2.6717796 18.609592 18.172905
3.2045932 19.456268 13.149668
2.8510566 19.167875 13.592793
2.630013 19.355104 18.074762
2.9616957 20.555843 13.398033
2.6717381 20.437912 13.44509
2.461681 19.777624 17.621195
2.9324074 19.889565 17.934366
2.860881 21.391241 13.267832
2.4900622 21.436907 13.5745125
2.9071794 22.117636 13.333313
2.4410818 22.374975 13.708631
3.0965636 22.722267 17.298288
3.4012337 23.056072 17.895788
2.7352548 23.324896 14.083738
2.5442243 23.610252 14.615033
2.4952123 23.819992 15.903075
2.5331266 23.270575 16.211905
3.0516152 23.714504 17.34899
3.2442887 23.4421 17.799196
2.896401 24.332697 14.794114
2.7804585 24.383108 15.527114
2.7480965 24.159092 16.091387
3.2152507 24.533379 17.274298
3.3635237 24.196556 17.867619
3.2612746 25.065989 15.003515
3.0431347 24.791447 15.538362
3.371623 25.068733 16.753002
3.3404927 24.892792 17.169058
3.2769804 17.32668 14.914398
3.1711185 17.190004 15.609895
3.3838224 17.314375 16.397366
3.543983 18.260555 13.797495
3.4444058 17.514236 14.679606
3.3247564 17.596357 17.287174
3.2862282 18.030182 17.976934
3.568528 18.78631 13.3025465
3.9677365 18.387894 13.601618
3.2753615 18.532587 18.252438
3.2647753 19.402473 13.071305
3.4229684 19.051384 18.343403
3.9800045 20.486713 12.769535
3.4089625 20.585592 17.369751
3.3208418 19.957304 17.993778
3.9366603 21.836334 12.946769
3.4430969 22.666576 13.2633295
4.105391 22.926525 18.468245
4.1686277 23.12004 18.590899
3.9867055 23.285448 12.936791
3.394313 23.73657 13.880647
3.6733203 23.53524 18.25618
4.1338286 23.713436 18.68175
3.884648 23.924599 13.284033
3.926176 24.546474 13.449165
3.441392 24.701897 17.69417
3.9334645 24.406715 18.383627
4.1316843 23.981953 18.646515
4.3330655 25.034742 13.010947
4.043687 25.280382 13.711277
3.8802848 25.604496 14.580238
3.5501485 25.441427 15.528874
3.6164355 25.470346 16.389004
3.8075845 25.391066 17.43969
3.993855 25.145721 17.999073
4.2546024 25.82685 13.96575
4.0828075 25.87627 14.693027
4.010169 25.87707 15.470081
4.0764036 25.801605 16.714457
4.2083664 25.86453 17.336184
4.1432123 17.342398 15.356351
4.035865 17.42485 16.581257
4.685774 18.253872 13.680897
4.109941 17.585852 14.675088
4.661852 17.729881 16.483505
4.146857 17.660976 17.157488
4.5554767 18.829107 13.0596895
4.4469123 18.547686 13.358762
3.8958163 18.725285 18.143589
4.297422 19.651878 12.760906
4.4571376 20.38748 12.715984
4.3672824 21.622625 12.830933
4.9434834 22.233662 17.966133
4.8159623 23.08407 12.092146
4.381689 23.119894 12.75325
4.2493467 23.524632 18.723145
5.182483 24.688824 11.587678
4.642373 24.737555 12.3149605
4.8561573 24.33535 18.910837
5.0861607 25.298891 12.008709
4.7408257 25.28335 12.586481
4.4669085 25.68662 13.470562
4.5416026 25.367973 18.235912
5.1280284 25.095634 18.623478
5.1150093 25.909372 12.650215
4.698899 26.052868 13.817007
4.538474 26.283089 14.498228
4.7231 26.374172 15.630171
4.639326 25.928629 17.330544
4.945842 26.589108 14.523487
5.9547596 17.376554 15.78282
5.717925 17.429007 16.09065
5.589281 18.092728 13.659615
5.6892304 17.591112 15.38013
5.2606473 17.670296 16.154924
6.053427 17.521065 17.393303
6.0298643 17.951626 17.707426
6.165391 18.670649 12.286945
5.2180967 18.718733 17.81391
6.429984 19.86399 8.08594
6.356828 19.776106 8.43107
6.2160516 19.92352 9.429364
5.975832 19.728745 18.057663
6.3643136 20.410019 8.053153
6.230862 20.621466 8.425544
6.1578074 20.691568 9.086829
5.322102 20.251047 12.381707
5.0384836 20.511415 17.429132
5.84778 19.980701 17.735289
6.377555 21.124567 8.08343
6.318429 21.159273 8.3880005
6.368705 20.993488 10.260929
5.8311777 23.824333 11.0166
5.6570086 23.759848 19.142252
5.811886 24.323492 10.967425
5.9023824 24.133371 19.282074
5.899846 25.12471 11.153128
5.6632204 25.462166 11.50851
5.9637833 25.337759 18.967112
5.6960278 25.905003 11.944726
5.331854 26.179495 13.088909
5.617371 26.40246 13.348093
5.1764927 26.510178 14.203102
5.575293 26.651707 16.83601
6.1190114 26.479849 18.242691
6.0449247 27.36845 17.610262
6.2583766 27.419168 18.179304
6.392995 26.988781 18.856392
6.2915535 28.033606 16.115503
6.217913 28.203293 16.771717
6.077575 27.918245 17.446909
6.3625946 27.86329 18.02075
6.78019 17.352064 14.306711
6.3266106 17.430698 15.118388
6.786583 17.250673 16.951279
6.748058 17.377617 17.602951
7.2729416 18.251165 10.228015
7.302561 17.559963 11.811436
6.5314283 18.009878 12.695122
6.642759 17.56998 13.476753
6.826908 17.806358 18.150564
6.9999413 18.998466 7.846137
6.840564 18.807049 8.497954
6.5739856 18.933342 9.250242
6.8511086 18.830114 10.478111
6.7186856 18.716047 18.526566
7.1219063 18.288498 18.623453
7.064597 19.829042 7.341476
6.732716 19.588428 7.74498
6.546021 19.303371 8.23865
6.4748707 19.427973 9.506793
7.106906 19.548244 18.563042
6.949685 19.505888 18.677011
6.9762564 20.178791 7.363627
6.5967073 20.64358 7.7344584
6.890099 20.017118 18.238821
7.155221 20.998278 7.367298
6.7206635 21.253454 7.878401
6.5615 21.548628 8.472259
6.676191 21.597586 10.014136
6.6954846 21.767298 8.394357
6.596206 22.65867 10.4918585
6.4377456 23.082893 19.034433
7.159128 22.737326 9.599774
6.646611 23.316648 10.553585
6.6885624 23.558098 19.276754
6.701853 23.983715 10.5701475
6.8663907 24.795176 19.592691
6.292108 25.127144 11.022532
6.766902 25.70318 11.383136
6.566929 26.37145 12.129074
6.2793374 26.446692 12.953507
6.81037 27.290445 14.756166
6.825781 27.296314 19.229929
7.2012806 27.414633 19.6916
6.9922814 28.587824 15.562205
6.682891 28.686102 17.482174
6.891039 28.419832 18.35333
7.1825843 28.16836 19.121353
7.3431144 29.320984 15.8141165
6.92531 29.204638 16.736876
6.533971 28.742931 16.96907
7.425893 34.532993 13.965897
7.255784 34.757862 14.664114
7.2925587 34.654068 15.404854
7.3963494 34.977097 14.163897
7.256606 35.257 14.771177
7.3105717 35.338234 15.416271
7.4244742 35.400963 15.918014
7.40912 35.98224 15.467113
7.737833 16.958683 11.853505
7.66212 16.727215 12.202882
7.856816 16.679476 13.74035
7.249346 17.144249 15.394298
7.2679076 17.267159 17.539597
7.3933883 17.377602 17.906822
7.6344943 18.394377 8.16203
7.7231154 18.210442 8.464199
7.834728 17.862238 9.626172
7.7756867 17.649822 10.750249
7.533345 17.52333 11.319628
7.761351 17.690369 18.482197
7.508668 18.157467 18.672459
7.565685 18.828487 7.7404075
7.546807 18.465334 18.8608
7.5857744 19.485361 7.292735
8.263462 20.230957 24.227226
7.6433086 20.412287 7.1476645
8.213899 20.821663 23.09984
8.056923 20.700136 23.568718
8.0897455 20.631308 24.367313
8.209704 20.78329 24.989786
7.6618724 21.040377 7.316079
7.53553 21.50164 7.6351566
7.6635776 21.8229 18.089867
8.160602 21.553112 23.094887
7.8759756 21.545147 23.686869
7.8528347 21.530203 24.352898
8.132055 21.472599 25.136965
7.6984415 21.888832 7.961097
7.5843244 22.114824 8.357965
7.5276613 22.926943 18.541624
8.125085 22.406294 23.704683
8.021054 22.351778 24.51285
8.091274 22.174084 24.95312
7.5090427 24.095043 19.483955
8.216108 22.811579 24.257534
7.486828 24.516987 10.747346
7.4276037 24.85454 19.555456
7.435052 25.475737 11.050811
7.59821 25.870888 11.232558
7.4514656 26.326216 11.879679
7.6061687 26.377148 12.187948
7.605352 26.615255 20.182749
7.844557 27.382692 20.188068
8.123201 28.742706 15.011283
7.3336143 28.599092 18.657925
7.5313087 28.233309 19.432325
7.771234 28.020481 19.836954
8.013232 29.321749 15.071778
7.409321 29.261944 15.516502
7.6128974 29.19851 18.454094
7.5898814 28.718912 18.882607
7.7485676 30.18747 15.85471
7.788994 30.53911 16.217976
7.8354454 30.30425 17.235617
8.299939 30.913794 16.981018
8.4085455 32.659107 8.799717
8.45874 32.33203 9.650962
8.33296 32.797424 10.464861
8.235967 32.94859 12.440208
8.433413 33.098446 9.737967
8.2300415 33.603336 10.583324
8.016701 33.35806 12.414607
7.844333 33.635933 13.267704
7.5121317 34.082993 14.307035
7.576889 34.094967 15.491442
7.739314 34.13013 15.785961
8.2725725 34.27431 11.037367
8.1156645 34.515217 11.437964
7.7913284 34.314507 12.512009
7.600076 34.53719 13.584507
7.4853344 34.34791 14.1358
7.426936 34.788277 15.736574
7.700714 34.706013 16.03334
8.241787 35.36113 11.760122
7.9338408 35.26192 12.585197
7.5773864 35.096783 13.572686
7.722799 35.521107 16.140877
8.19639 35.28322 16.559654
8.292332 35.90336 12.697083
8.016789 36.255306 13.86549
7.6279254 36.384922 14.780015
7.5825076 36.350506 15.488939
7.894697 36.65076 16.37812
8.154047 36.54628 16.725191
8.049701 37.216736 15.009929
7.989527 37.34175 15.655952
8.068716 37.229797 16.297792
8.260421 36.985302 16.722456
8.278873 37.657825 16.053288
[...]
POINT_DATA 8398
SCALARS features_00 float 1
LOOKUP_TABLE default
0.62740505 0.6508301 0.6894486 0.5799283 0.6012053 0.62017184 0.55314523 0.5443013 0.7165194 0.74675745 0.79169047 0.81496334 0.8122888 0.6167834 0.6685239 0.69662243 0.7456178 0.7946849 0.7926343 0.555277 0.56457764 0.6643981 0.74509317 0.75910175 0.4866475 0.52263033 0.5159333 0.51802766 0.628833 0.4590893 0.48441076 0.47045106 0.43262747 0.45258367 0.4369974 0.37237573 0.41800067 0.4214003 0.3989234 0.65266746 0.68579376 0.69409573 0.5951556 0.6577616 0.7078197 0.75796413 0.78968024 0.80344844 0.43944615 0.5422231 0.7779596 0.4198075 0.48202315 0.735804 0.38923442 0.42323408 0.6982046 0.66055346 0.35264826 0.40321705 0.32940087 0.38198292 0.40035355 0.44995922 0.35900506 0.3928443 0.40103388 0.39569455 0.46148777 0.4682173 0.37228954 0.38936108 0.40078282 0.462754 0.4798769 0.3467257 0.3725174 0.42051744 0.45087457 0.5963591 0.6168008 0.6022892 0.46608543 0.56487966 0.70661247 0.7679931 0.4241535 0.41220623 0.7516303 0.41554078 0.68858224 0.32465512 0.42483774 0.5920353 0.24576809 0.27172786 0.41937262 0.42903274 0.23601487 0.31083816 0.47088003 0.46525186 0.27995062 0.30091995 0.47689348 0.4821957 0.47339657 0.30755973 0.30961692 0.31820494 0.34520522 0.38216454 0.4376368 0.46704125 0.30928177 0.3103857 0.3223346 0.36180812 0.37353918 0.4748389 0.48711014 0.3298813 0.4725341 0.35346618 0.51858795 0.32813674 0.35004961 0.6593925 0.3472374 0.30304605 0.22551431 0.2756187 0.19888623 0.20739102 0.45101088 0.36545295 0.3254199 0.4662224 0.38269383 0.33872983 0.31333372 0.4332263 0.42994773 0.3564985 0.3062675 0.28977805 0.27372938 0.32507095 0.26333275 0.1616153 0.18880278 0.16209418 0.19624831 0.24982627 0.3105179 0.36939052 0.01771 0.38054088 0.7065371 0.6838739 0.6105661 0.23960099 0.6977307 0.6618531 0.6058755 0.21925496 0.046691474 0.16815935 0.6752761 0.6444019 0.4883893 0.25543407 0.4100231 0.31802946 0.41007376 0.38703918 0.4105217 0.37311697 0.40744781 0.3363414 0.31021085 0.26458493 0.1661983 0.2125052 0.22534081 0.2582388 0.26114604 0.27776882 0.2781936 0.25703228 0.2799281 0.09144725 0.13086486 0.24460596 0.32792604 0.29736146 0.053887445 0.061872177 0.08849616 0.3745933 0.73555624 0.6619195 0.58366144 0.27413356 0.39341208 0.39453554 0.76703143 0.7417728 0.70679796 0.5868292 0.36636135 0.36589128 0.7538335 0.71552837 0.24196626 0.7230476 0.68573725 0.6110456 0.43419498 0.59950304 0.15105231 0.3006562 0.25161237 0.17110799 0.30503798 0.23639785 0.36271507 0.36941087 0.3800987 0.38105577 0.33395576 0.10325596 0.30749202 0.3525637 0.30640948 0.32021466 0.3089732 0.32574403 0.36755896 0.37618423 0.3328963 0.5073618 0.58642006 0.6370492 0.5365023 0.6021889 0.6566248 0.6895983 0.701568 0.08406137 0.080122486 0.040798403 0.07988307 0.30241835 0.3310677 0.60690135 0.544931 0.3669941 0.18448071 0.10161098 0.3447274 0.38097766 0.7058302 0.40120324 0.7793206 0.76240563 0.7673702 0.67206764 0.7550608 0.80190325 0.7688918 0.71546644 0.6660822 0.029136062 0.67804086 0.79459906 0.823295 0.7658466 0.5873013 0.5188683 0.17469096 0.64266443 0.71464646 0.7376809 0.2859395 0.59141433 0.24559516 0.34763917 0.32632172 0.3264568 0.3386765 0.3186805 0.38843477 0.4090942 0.2246911 0.3267251 0.3521415 0.37841713 0.27403057 0.34353527 0.34262016 0.3430233 0.4053301 0.42184037 0.38346514 0.33695737 0.37816858 0.31430486 0.3203657 0.3212585 0.34987256 0.37408516 0.38835663 0.39824024 0.50573015 0.63284606 0.6374038 0.39611349 0.4067473 0.43779734 0.47269237 0.5100577 0.656694 0.65498316 0.43610138 0.46488094 0.46994537 0.70899695 0.6873666 0.4710101 0.5779941 0.6950631 0.74875814 0.813475 0.8154523 0.8479593 0.8748971 0.86756146 0.8571522 0.90379924 0.11371308 0.09733288 0.22128767 0.29921448 0.3702587 0.20297252 -0.06888504 0.56059194 0.43380314 0.34243885 0.29733407 0.61830044 0.74279153 0.3650242 0.6243806 0.68270683 0.711964 0.7083561 0.7358041 0.19832799 0.5183412 0.57541674 0.7170179 0.648206 0.6879119 0.5553583 0.7111883 0.64943767 0.49809426 0.46842426 0.06314076 0.4755697 0.6599013 0.12386676 0.4321609 0.5345213 0.49993634 0.5456207 0.03093348 0.30922323 0.3639928 0.22762778 0.39471072 0.19068623 0.13752119 0.3986053 0.38116106 0.3251452 0.27156383 0.31585687 0.24615282 0.25098643 0.19594677 0.3007504 0.28641638 0.37791103 0.37162122 0.2998926 0.33296546 0.21523212 0.14077978 0.22811168 0.25871494 0.3752988 0.3986082 0.38769543 0.27448118 0.2271008 0.17514215 0.48070648 0.50846934 0.33875328 0.38759246 0.38140213 0.61125183 0.6064895 0.3830326 0.33764833 0.40173858 0.62770283 0.40449858 0.42252368 0.7366708 0.4052137 0.40125334 0.8387555 0.49237293 0.72958034 0.90044385 0.88131714 0.8184624 0.9234244 0.92410845 0.5194931 0.46955097 0.39760143 0.34884387 0.40202123 0.45311514 0.42694423 0.35395834 0.28643852 0.23308365 0.29336908 0.3803671 0.17622674 0.10809572 0.20328388 0.14803049 0.03621766 0.3447591 0.038304426 0.39530396 0.36939585 0.4290847 0.58487153 0.42701018 0.24724829 0.47240046 0.48212963 0.46541116 0.57465786 0.64298975 0.62007225 0.00738433 0.40590096 0.5698692 0.64043766 -0.48226312 0.2747779 0.38899246 0.5301985 0.3254416 -0.27561447 0.35732937 0.5268385 -0.083237186 -0.2271944 0.25381947 0.33037966 -0.043527372 -0.08211458 -0.13308841 -0.01610431 0.07071035 0.24206343 0.3901803 0.3921154 0.18213648 0.2874276 0.38942605 0.40897804 0.40493008 0.28655285 0.25269863 0.18417338 0.24490634 0.4194315 0.4244123 0.23947784 0.2833134 0.26649347 0.082325436 -0.07859746 0.22210726 0.19372745 0.2084193 0.059552792 -0.0071540624 -0.08139767 -0.11880231 0.2605807 0.19367212 0.19631347 0.23552638 0.1699704 0.092376165 -0.17882289 0.26763424 0.27888277 0.24372715 0.22284636 0.19787055 0.1373693 -0.17161866 -0.18116271 0.21664758 0.22275472 0.3454601 0.34794334 0.31982422 0.29602635 0.19559129 0.51514053 0.5004426 0.42988676 0.42437187 0.38823006 0.31504196 0.09256441 0.17422311 0.6097651 0.58853054 0.56549007 0.49165738 0.3992656 0.30977866 0.3178131 0.5151901 0.640086 0.60782546 0.5637399 0.44414848 0.38269615 0.380579 0.5732286 0.61312354 0.5874573 0.5476658 0.27435067 0.36228955 0.7444983 0.2791335 0.31669894 0.32138297 0.8367578 0.33069018 0.44825375 0.5885128 0.922629 0.89829075 0.72204816 0.8867917 0.9377016 0.5309696 0.5431371 0.4916957 0.41586724 0.35848457 0.4909831 0.5203028 0.5380414 0.45909482 0.35714096 0.41333187 0.39592355 0.46584064 0.46857995 0.3179196 0.21904813 0.11404019 0.0757527 -0.031850487 0.18795767 0.20372766 0.28658816 0.16273272 -0.028052792 0.025489409 0.31204516 0.22863005 -0.12896115 0.43385628 0.34880108 0.33327577 0.1757261 -0.3627964 0.03605391 0.13769251 0.014163431 0.14458974 0.23528804 -0.2542799 0.29193988 -0.08858678 -0.045194015 0.39317733 0.40231806 0.2143018 -0.00827726 0.4063494 0.3913976 0.24726284 0.27190688 0.023045406 0.27726096 0.35279372 0.41756642 0.42406812 0.4039439 0.2239176 0.1252987 0.33316636 0.38387525 0.16489357 0.20122965 0.1999582 0.14499557 0.16429219 0.16074507 0.25564116 0.23299809 0.13607657 0.39113066 0.36899826 0.32199153 0.15825957 0.51495564 0.47587776 0.5907685 0.5952113 -0.07153624 0.5705948 0.61156875 0.3216444 0.29353502 0.22433768 0.15508631 0.11921284 0.47920156 0.63404715 0.6274269 0.57500434 0.49699277 0.44734114 0.3493055 0.17105414 0.60368574 0.5735589 0.50933105 0.27413064 0.23005527 0.8439913 0.2893046 0.37987477 0.57251227 0.7955121 0.85322416 0.5311113 0.70763123 0.83002436 0.89801514 0.6413274 0.5173414 0.51971895 0.5046934 0.3422869 0.2984358 0.32189274 0.41491944 0.57769644 0.6360882 0.65972245 0.45338506 0.4915156 0.38775647 0.2401246 0.3608244 0.48967087 0.61148804 0.63962275 0.3663174 0.2881229 0.31563485 0.39473957 0.5575769 0.06357204 0.03044717 -0.0993409 0.20853283 0.074401215 0.029173393 -0.14111461 -0.05328398 0.2409969 0.077721685 -0.14268059 -0.1730335 -0.090114094 0.03377997 -0.055560283 0.19687888 0.02842684 0.11854379 0.2753262 0.18011422 0.21572433 0.24303111 0.221353 0.3326556 0.21143262 0.43477547 -0.01774171 0.43784308 0.19935723 0.37397823 0.40337825 0.2307403 -0.30402052 -0.020383887 0.389774 0.36935532 0.34652346 0.14240873 -0.39466196 0.23750141 0.34413072 0.39583793 0.39247328 0.11075415 -0.36528197 0.1156439 0.09282406 0.0043394193 0.17271161 0.19933625 0.32411873 0.30061728 0.48355132 -0.007766459 0.49382687 0.5392354 0.015432563 0.52368987 0.18944257 0.13149354 0.118307345 0.10963722 0.043368526 0.54964924 0.6092853 0.4507518 0.39253375 0.33185172 0.045206025 0.041639276 0.15494469 0.6266368 0.6262475 0.53325075 0.47494933 0.39751887 0.1498115 0.18690887 0.61435175 0.24834186 0.28924572 0.6949737 0.71187055 0.6069074 0.6106986 0.6361195 0.6974989 0.6871994 0.7677359 0.830768 0.8275943 0.85917133 0.90901434 0.93513507 0.87757516 0.8475904 0.8880831 0.8912351 0.8525106 0.8336977 0.45521128 0.56303024 0.6096511 0.628296 0.48935562 0.47333804 0.22526559 0.1775933 0.31418246 0.45912993 0.56264323 0.65099585 0.61733425 0.39969796 0.45246857 0.36387062 0.5526688 0.29917127 0.1641135 0.1793643 0.041459203 0.09650494 -0.03903974 0.16284758 0.16811603 0.15590197 -0.058962714 -0.023993164 0.19079518 0.23113488 0.21547571 -0.031104567 -0.24045625 0.22946246 0.2085247 0.06078166 0.07034826 0.062559225 0.17198439 0.14820714 0.17596468 0.25422555 0.34669906 0.282059 0.2780604 0.478437 0.23085317 0.41922736 0.43459326 0.11697541 0.39233285 0.16570745 0.33568427 0.3199509 0.16022256 0.098879054 0.13585429 0.23353612 0.34830981 0.3818257 0.34097517 0.1211281 -0.20134026 0.35833812 0.069178276 0.095274754 -0.06145122 -0.022610463 0.120260976 0.09393958 -0.11618125 0.099042945 0.12261628 0.28834122 0.22085154 0.06610493 0.11734633 0.32569468 -0.026182974 0.064523235 0.013170257 -0.012356169 0.30331355 0.4182701 0.0838017 0.07603572 0.48538947 0.33111355 0.3122332 0.14563796 0.56833273 0.57585925 0.6069843 0.51853865 0.41988963 0.3634731 0.16909423 0.23293032 0.28466386 0.21429142 0.18526809 0.8032415 0.8100267 0.78738064 0.8375949 0.87444496 0.78362083 0.7052864 0.8049772 0.83742046 0.80497444 0.703496 0.60549974 0.61150765 0.6380589 0.69121706 0.70991164 0.5765052 0.5848617 0.6299299 0.62486386 0.62450993 0.55866385 0.5176492 0.65726256 0.733418 0.72896624 0.8184093 0.79802644 0.790359 0.8345716 0.8132374 0.78335583 0.7600821 0.7938625 0.7815908 0.30484512 0.37998062 0.48099542 0.51244706 0.56288147 0.5801508 0.42744398 0.43877777 0.39701587 0.3359564 0.30505455 0.50162596 0.3434269 0.27587497 0.17820516 -0.0029736124 0.087322846 0.12695852 0.0075339004 0.19059929 0.10789549 0.031039752 -0.022606738 -0.04741612 -0.019886177 0.09309878 0.037927393 0.065130726 0.16906703 0.12973836 0.20735908 0.25327548 0.42107865 0.48968816 0.52176476 0.23645422 0.4876486 0.5002721 0.46706602 0.48490536 0.18785748 0.3825184 0.4207322 0.3449877 0.31833 0.22908081 0.03596151 0.29227826 0.29955742 0.29902405 0.30275422 0.30409506 0.17653579 0.22492328 -0.05099725 0.3042451 0.34034747 0.10377996 -0.018756106 0.07051629 0.16754003 0.22800606 0.17307279 0.1792603 0.24887419 0.3108465 0.16005342 -0.024851741 0.043650813 0.1829015 0.31513235 0.32480368 0.29311168 -0.013752455 -0.057566278 -0.024167873 0.47300327 0.40874907 0.22618803 0.027566116 0.021872118 -0.027896434 -0.03027908 -0.01756842 0.49732396 0.47811007 0.309721 0.2976614 0.314265 0.11236676 0.23087989 0.09601585 0.05965088 0.48480153 0.4751115 0.5323767 0.5257924 0.47205737 0.3682888 0.2793206 0.309852 0.34828213 0.26201314 0.16814786 0.76362634 0.75996774 0.7213664 0.7262756 0.77460825 0.78229153 0.74068546 0.6419312 0.7598932 0.78642935 0.5884733 0.55778337 0.5944433 0.7224691 0.5300757 0.5730996 0.58374685 0.6213118 0.60143983 0.527253 0.5922786 0.4811964 0.41758305 0.65988344 0.32439616 0.3173014 0.7319864 0.37205833 0.5963849 0.6865921 0.7355975 0.7265533 0.6019007 0.71445405 0.7182402 0.21770579 0.23615853 0.29536852 0.32095832 0.3794638 0.3754368 0.33508107 0.31990027 0.16735458 0.19917768 0.28037882 0.06965429 0.31708354 0.37487942 0.22022906 0.2932483 0.3554961 0.40917718 0.44787684 0.45185345 -0.07925966 0.060351923 0.3013479 0.4448711 0.46154657 0.46552742 0.097338185 -0.03895728 0.38835245 0.42833996 0.44872028 0.37012455 0.40446895 0.40779173 -0.003168894 -0.06017221 0.103408985 -0.08158831 -0.09633439 -0.07449333 -0.028894372 -0.013918072 -0.04171503 0.0108622145 0.06740684 0.17714325 0.093789496 0.43686604 0.19222082 0.50023 0.171163 0.4961638 0.09902918 0.009510662 0.462441 0.4816122 -0.020451989 0.38762546 0.42211932 0.3999161 0.41801333 0.3777061 0.3846002 0.28104916 0.15182084 0.32797825 0.34812436 0.35657874 0.21716121 0.23954424 0.07681392 0.24688934 0.044131547 -0.10753468 0.19986212 0.37832606 0.44837618 -0.040528204 0.036331885 0.35779434 0.4360271 0.48875743 0.36591834 0.24454014 0.16655497 0.30350563 0.41927487 0.51438975 0.17986058 0.29506195 -0.25353336 -0.3654914 -0.2049973 -0.18915007 -0.204206 -0.11499984 0.05763004 0.19350733 0.3232505 0.41379055 0.51416475 0.34472495 0.23994873 -0.17768776 -0.0732459 -0.13541432 0.01202007 0.45539525 0.13001081 0.2190578 0.25627846 0.114901155 0.20642944 0.06120994 0.4399954 0.4593914 0.4010483 0.3028355 0.32510954 0.1895884 0.2820462 0.33677542 0.30194023 0.42096716 0.3038222 0.25839517 0.07587001 0.7334408 0.7248992 0.68627644 0.70124495 0.7196706 0.5757958 0.35103932 0.63972974 0.51132405 0.49943006 0.49811354 0.6768547 0.38681483 0.5180178 0.5551317 0.60926634 0.49121457 0.35364512 0.36333746 0.6191075 0.3380474 0.08868118 0.60579973 0.46157742 0.39454132 0.29857233 0.18843946 0.54186374 0.56290674 0.47832865 0.4235516 0.37388593 0.24715544 0.27306584 0.5826477 0.49173242 0.16227628 0.16234457 0.17853732 0.19327119 0.15371014 0.11919929 0.029919513 0.21846594 0.29516798 0.2725504 0.23211418 -0.029405283 0.14223206 0.008319419 0.23471288 0.33221763 0.35609162 0.33908832 0.11242163 0.09324034 -0.26507238 -0.24785525 0.4028092 0.42365515 0.30306038 0.4551261 0.4273855 0.08847834 0.43451214 0.37647283 0.041840494 0.34472603 0.026523994 0.00964561 0.110106856 0.24682374 -0.09672376 -0.033596538 0.28547394 0.36076558 0.35053727 0.4372365 0.38506222 0.4168389 0.3715058 0.29913676 0.46430197 0.7600022 0.21093322 0.3004424 0.44866 0.082656145 0.011203927 0.17762053 0.44195497 0.07330339 0.09553164 0.3897184 0.060816832 0.0709083 0.27632806 -0.1233329 0.18231095 0.5035939 0.27759963 0.28361166 0.28057244 0.22711635 -0.1740391 -0.12775657 0.5754169 0.6611166 0.3396886 0.32555497 0.3326431 0.3148396 0.26327488 0.15050425 -0.120935656 -0.28519315 0.6013634 0.7049871 0.34680873 0.37069097 0.37953842 0.25217304 0.56936616 0.63880646 0.47089022 0.30413982 0.33508748 0.35816473 0.34389004 -0.47340155 0.017515294 -0.013444319 0.045617677 0.18262725 0.283024 0.5068662 0.59553254 0.66402876 0.44090816 0.23460394 0.15945682 -0.118914835 -0.046693582 0.31970513 0.29890653 -0.207704 0.2140907 0.15084456 -0.14885397 -0.022589043 0.011994168 0.053238034 0.0349439 0.1922716 0.11165409 0.5499561 0.57009685 0.41125977 0.25571078 0.18700401 0.14119701 0.24041891 0.30306187 0.2859036 0.59270644 0.6011767 0.34471595 0.27474484 0.16159675 -0.039931234 0.008374192 0.087390825 0.18573388 0.26537004 0.2705175 0.23689592 0.23893413 0.20974672 0.08471723 -0.012558373 -0.046505425 0.022561777 0.25600487 0.32061324 0.32751977 0.33391178 0.3580633 0.35790786 0.61201626 0.49519068 0.55813664 0.42858234 0.39114225 0.5205499 0.56372327 0.6103592 0.6217118 0.32409668 0.5709884 0.44777602 0.13415629 0.16528574 0.45363963 0.48994413 0.537338 0.5160189 0.18539006 0.14542359 0.20614165 0.31459528 0.3918096 0.40985206 0.516873 0.43169838 0.41117197 0.30698076 0.22903782 0.1707565 0.34750593 0.2878405 0.40854877 0.41983193 0.45431584 0.60802215 0.5169184 0.42970836 0.23572913 0.2776031 0.29456818 0.06251443 0.13745706 0.11677529 -0.0056398436 -0.08640309 0.019844882 0.1429416 0.17332932 0.25409305 0.1739274 0.6246475 0.6277691 0.51538527 0.34795213 -0.2102568 0.1022348 0.0140347965 0.27927485 0.24871543 0.6165614 0.55845004 0.49366307 0.30235922 0.15209986 0.06024107 0.09953893 0.044448145 -0.004474058 0.24292687 0.16474098 0.48204374 0.42501962 0.2766965 0.80514383 0.8057512 0.758559 0.49711797 0.31111178 0.765114 0.79874814 0.79902685 0.7384006 0.67867607 0.474492 0.3219041 0.37841347 0.6905538 0.74689114 0.7778307 0.70765173 0.6573405 0.36299238 0.25176468 -0.03334883 0.34408128 0.6627797 0.66969645 0.65802073 0.6070986 0.5347825 0.08296214 0.0015204968 0.5177096 0.52901673 0.3039064 0.29649153 0.39114338 0.36686847 0.310691 0.06693742 0.15482514 0.18206583 0.3265817 0.35277137 0.23198618 0.025777457 0.6054736 0.6462209 0.5581664 0.19385357 0.111825526 0.08133573 0.092910305 0.16583106 0.21917754 0.22982532 0.24695647 0.21103168 0.12041198 0.28444278 0.32761905 0.5082352 0.6625439 0.6838645 0.59442246 0.5738786 0.16782546 0.18913774 0.14467424 0.056337323 -0.01319547 0.1320524 0.19026864 0.24065535 0.24169068 0.20773283 0.16084002 0.018865613 -0.019490585 0.015197478 0.6543331 0.5606499 0.6655557 0.6828595 0.620427 0.19185483 0.1752703 0.18103877 0.16481785 0.21351682 0.21027677 0.20953386 0.18723993 0.07043271 -0.016881563 -0.029631838 -0.07756904 -0.13834482 -0.09047912 0.70999634 0.56881475 0.61721486 0.6481168 0.61647844 0.24804181 0.24411252 0.22751322 0.17571206 0.20198119 0.11470996 -0.16328815 0.7687893 0.3837352 0.36774394 0.2924403 0.18257657 0.3086486 0.71153605 0.74811566 0.4758191 0.45017996 0.39302245 0.26259756 0.24444517 0.6476079 0.6737451 0.48971426 0.46792787 0.104292236 0.1758551 0.14158776 0.09622377 0.09606937 0.07400017 0.5178541 0.5987154 0.4235553 0.39360765 0.32989365 0.3977508 0.36122286 0.33280516 0.10333407 0.23476335 -0.11557838 -0.023664474 -0.062529854 -0.0033148602 0.17011979 0.114399284 0.47424734 0.5343755 0.4824373 0.5365931 0.45769164 0.32355058 -0.04221393 -0.07104762 -0.019337982 0.03651072 -0.0003604144 0.15754275 0.55162996 0.60535413 0.63687 0.6054214 0.5338933 0.28176302 0.21741079 0.24785529 0.16836551 -0.017185122 0.5984085 0.63994944 0.66816354 0.16643003 0.13749759 -0.0020792596 0.07124001 0.26453257 0.11613239 0.1009475 0.21027334 0.092573345 -0.02707053 -0.066887274 -0.08850809 -0.06734627 0.050689355 0.2745453 0.3341555 0.37140352 0.3332772 0.28338426 0.3956275 0.3070423 0.27444422 0.27278337 0.20975617 0.24253502 0.1803483 0.16961974 0.3295185 0.37193224 0.35350427 0.4444552 0.44382662 0.43378103 0.4061823 0.3855369 0.37441057 0.3665241 0.34746516 0.2677704 0.13727114 0.44019574 0.425785 0.4104643 0.4033442 0.4145582 0.4272098 0.43062326 0.39381728 0.29687214 0.40119082 0.39162198 0.37466943 0.39749584 0.42682368 0.4124369 0.40406227 0.39291275 0.3626632 0.34917644 0.28443038 0.31700382 0.4053939 0.48428917 0.52613336 0.2578776 0.30502272 0.5877797 0.60778713 0.120196536 0.6287702 -0.0228352 0.627158 0.22918084 0.5609798 0.347488 0.30454546 0.42939132 0.48055315 0.4342388 0.20553762 0.23876823 0.2672578 0.33765167 0.48961467 0.43914074 0.15574872 0.17015709 0.21966729 0.28532055 0.2887028 0.25894344 0.24240208 0.23659328 0.5266422 0.5546994 0.5986176 0.50825244 0.41240132 0.32060552 0.36133283 0.4521606 0.49482292 0.51866734 0.48418987 0.1784895 0.06520942 0.05884923 0.19644973 0.686281 0.6417693 0.56974316 0.42587417 0.2798418 0.040377475 0.06654277 0.032973386 -0.021026462 0.0014050193 0.01878526 0.023492686 0.2144886 0.28707576 0.42596328 0.6677922 0.67030984 0.063514486 0.15087739 0.34874058 0.44315386 0.49481875 0.6062611 0.6236743 0.35047504 0.41981125 0.47705534 0.5294849 0.5014508 0.23139876 0.35026377 0.4941394 0.3711713 0.080792814 0.09648673 0.24705103 0.15379347 0.040514164 0.050534014 0.1926062 0.16169515 -0.03978929 0.0772534 0.04829821 0.409796 0.17925106 0.04110501 0.09510264 0.7289744 0.7820764 0.7967099 0.72542465 0.4933812 0.44015175 0.121482104 0.62165016 0.61443835 0.74933016 0.7015938 0.63007593 0.5072899 0.41425574 0.6541567 0.62200475 0.61043334 0.59468925 0.68485844 0.5305866 0.35739875 0.4347879 0.5034398 0.6761029 0.6540054 0.6212969 0.60426795 0.57010293 0.54252756 0.43697488 0.35464856 -0.09106682 0.27669105 0.45265093 0.51816696 0.5353601 0.6575172 0.63225114 0.587098 0.5855224 0.5051516 0.25749022 -0.02071333 -0.031749625 0.50