# vtk DataFile Version 2.0
Really cool data
ASCII
DATASET POLYDATA
POINTS 2701 float
38.189156 -9.939099 85.415474
38.409607 -10.094773 85.899315
38.10886 -9.215371 84.051994
37.85307 -9.30597 84.63885
37.85826 -9.345679 85.28412
38.177006 -9.299661 86.016174
37.934235 -8.5516 83.96943
37.589813 -8.480612 84.6316
37.69494 -8.514661 85.25925
38.049934 -8.4228 85.96303
38.069813 -7.8900723 84.09226
37.968395 -7.744301 84.610634
38.001877 -7.8006983 85.34521
38.96039 -10.752294 85.63999
39.054863 -10.7442665 85.972885
38.917 -9.95568 84.227615
38.580334 -10.16069 84.690674
38.52118 -10.380705 85.4201
38.759735 -10.269675 86.22093
39.171444 -10.054438 86.76809
38.532066 -9.280208 83.922195
38.516724 -9.411429 86.49334
39.211994 -9.062831 87.199135
38.7117 -8.487111 83.64262
38.99366 -8.50715 87.1367
39.38919 -8.019877 87.774994
38.537712 -7.7882705 83.925224
38.764282 -7.698233 86.65643
39.19888 -7.3461323 87.3456
38.80554 -7.368409 84.2665
38.495064 -7.284223 84.54976
38.74645 -7.0219607 85.34375
39.009228 -7.200564 86.00106
39.4154 -10.72462 84.97069
39.438164 -10.885118 85.50156
39.578022 -10.73514 86.232056
39.372486 -10.0318575 84.19862
39.702614 -10.433046 84.542046
39.207985 -10.491045 86.43827
39.43334 -10.311678 86.72181
39.420307 -9.291604 83.7619
40.01818 -8.975883 87.93919
39.42828 -8.531786 83.58137
39.543133 -8.6822195 87.54951
39.94618 -8.1838255 88.189514
39.61995 -7.6532373 83.76185
39.817394 -7.5111375 88.08573
39.382263 -7.2405643 84.129944
39.706764 -6.5930552 87.707146
39.700848 -7.020629 88.02355
39.86734 -6.304587 84.84816
39.690556 -6.3003893 87.08427
39.963142 -10.693351 85.02029
40.22984 -10.746908 85.54534
40.104786 -10.703178 86.12479
40.000023 -9.945208 84.16267
40.266327 -10.479386 84.83394
40.60131 -10.506549 85.36956
40.262062 -9.335852 83.90254
40.877926 -8.807804 88.463196
40.206825 -8.533008 83.61812
40.489567 -8.608622 88.41437
40.859184 -8.399527 88.667786
40.291306 -7.065161 83.88695
41.214466 -6.4951873 89.061356
41.2183 -5.5957065 88.90037
41.245914 -4.212664 86.10351
40.84445 -4.7671857 86.78409
41.233112 -3.402988 87.50545
41.3868 -2.4542491 86.77504
41.40807 -2.2737942 87.45327
40.803364 -10.2591305 84.941475
41.32085 -9.818519 87.569244
41.038223 -9.297757 84.085556
41.16943 -9.405194 88.12304
41.26471 -8.447809 83.82786
41.679165 -7.3954425 84.04403
41.710804 -7.311172 89.248886
41.422173 -7.0421724 84.14527
41.695976 -6.574873 84.605095
41.99767 -6.2175393 89.45525
41.762665 -5.2944384 85.38572
41.61414 -5.2114573 89.35166
42.09357 -4.3863993 91.05471
42.23047 -4.0211215 91.83507
42.227142 -3.877516 85.33298
41.64167 -3.5805497 85.68727
41.56261 -3.173697 90.92528
41.707436 -3.4481874 91.3318
42.09066 -3.3192067 92.03877
42.329716 -2.5078952 85.068596
41.658833 -2.7161822 85.8796
41.57152 -2.4332201 86.41094
41.57995 -2.2885704 88.26436
41.605568 -2.754128 90.58471
41.78752 -2.6598835 91.32565
42.138638 -2.7393658 91.99401
41.899734 -1.9742455 85.93698
41.679905 -1.7548165 86.72654
41.661587 -1.7717915 87.5902
41.933846 -1.8265407 88.56052
41.87041 -2.1826386 90.11249
42.204544 -1.9287091 91.27409
42.361053 -1.8956913 91.82016
42.04418 -1.1806623 86.81109
42.081024 -1.1931219 87.32226
42.07435 -9.651722 86.15168
42.513416 -9.282844 85.155304
42.68881 -9.502266 88.52182
42.936516 -9.342961 88.74123
42.682194 -8.548458 89.03254
42.49389 -6.324346 89.77938
42.423374 -4.68543 91.11035
42.649307 -4.11514 92.22323
42.497448 -3.2756827 92.422745
42.931416 -3.139298 93.01321
42.448524 -2.506031 85.000305
42.59109 -2.4807277 92.410835
42.998337 -2.4317105 92.92039
42.87459 -1.8162951 84.69165
42.547264 -1.4909354 89.83744
42.424385 -1.874726 90.60182
42.566128 -1.5744779 91.54097
42.89343 -1.6666982 92.316986
43.079037 -0.8939477 85.34047
42.76273 -0.74035347 86.375755
42.619423 -0.7900717 87.31225
43.07266 -0.8764633 88.457115
42.732037 -1.2530799 89.26109
43.158516 -1.0646309 91.813675
43.249695 -1.0076909 92.23436
43.627987 -9.699203 86.037575
43.644436 -10.0660925 86.720795
43.536175 -10.248453 87.381035
43.433193 -9.977315 88.25768
43.38004 -9.200439 88.91631
43.535915 -7.9771147 89.55476
43.978104 -5.1352158 84.80199
43.680534 -5.037326 91.771774
43.522125 -4.9885077 91.85495
44.262302 -3.9792278 83.01472
44.01288 -4.2160873 83.91527
43.466755 -4.46752 84.80054
43.584896 -4.3025947 93.24889
43.982685 -3.4746594 83.10153
43.46325 -3.4935315 93.56185
43.607445 -3.3659978 93.65145
43.9616 -2.580477 83.02334
43.581497 -2.4257233 83.53825
43.707844 -2.7593672 93.75659
44.033566 -1.9912097 83.1831
43.421635 -1.9111199 83.88506
43.491985 -1.7143725 93.116974
43.940598 -0.74689186 90.75149
44.18931 -0.4855577 92.64766
43.88021 -1.1129961 93.079956
43.697834 -0.29017588 85.70137
44.29141 -0.11809957 88.68445
45.07198 -9.858891 85.5764
44.680973 -10.1839 86.45711
44.692783 -10.273483 87.59892
44.08294 -9.650307 88.64588
45.1238 -7.8738933 84.45264
44.23459 -5.940497 90.810074
44.778553 -5.370527 92.172585
44.864197 -4.6655946 93.67216
44.790188 -4.0249166 82.80574
44.620388 -4.578199 93.55389
44.816437 -4.1931734 93.91328
44.55223 -3.4694438 82.74497
44.87854 -3.4085653 94.2025
44.664288 -2.5897574 82.70282
44.841805 -2.78051 94.24287
44.60778 -1.8477372 82.984146
44.784462 -1.3762764 93.491356
45.319336 -1.0498557 95.24959
44.848682 -0.77568865 83.90581
45.22956 -0.5379726 95.19682
45.414326 -0.40188396 95.81178
44.919327 0.47129083 84.91316
44.938854 0.5298823 88.47752
44.38161 -0.35589626 90.8794
44.78125 -0.1617231 91.44603
44.911182 0.21561962 92.391045
45.124245 -0.00811401 93.81573
45.289425 0.23053679 94.36965
45.34878 -0.057670444 95.5453
45.105755 1.260055 84.63816
44.80492 1.6224887 86.19179
44.637035 1.2108551 87.09597
45.06761 2.131472 86.501076
45.17657 1.8436075 87.573715
45.47568 3.59414 83.47805
45.832565 -9.807983 84.87919
45.64864 -9.995438 85.420845
45.520905 -10.346283 86.76393
45.33795 -10.3515005 87.37582
45.53458 -10.223581 88.0221
46.49029 -10.335401 96.77021
46.459896 -10.267254 97.05888
45.675735 -9.091789 84.16626
45.860912 -9.521019 84.43365
45.84329 -9.335721 92.153336
46.407494 -9.376644 95.60944
46.3504 -9.39622 96.45043
45.746544 -8.71203 83.94731
45.60874 -8.497797 92.12221
46.37925 -8.627355 96.29105
46.455044 -8.304369 97.06262
46.159218 -7.270493 83.750114
46.407833 -7.9869304 95.86872
45.410618 -6.3649073 91.48765
45.969303 -6.8998723 91.83182
46.172283 -6.380694 92.776566
45.194828 -4.665121 83.28638
45.169598 -5.3503327 92.420906
45.363102 -4.3513823 82.947365
45.75592 -4.294319 94.00682
45.262012 -3.4194794 82.63505
45.32933 -3.5308795 94.153
46.278507 -3.8581395 94.88077
45.053852 -2.3080947 82.692726
45.28564 -2.4273906 94.333885
45.432056 -1.3752935 95.58334
45.689102 -1.0333529 96.12488
45.531517 -0.50962627 96.106575
46.15447 -0.57078785 96.73132
45.98734 0.016296478 83.63425
45.46339 0.89602333 84.31603
45.573868 0.3919273 95.69265
45.811382 0.422764 96.1708
46.20105 1.7526463 83.215744
45.4987 1.0948557 84.20582
45.630936 1.3758154 92.0313
45.45757 1.6929405 93.48125
45.62606 1.3550794 94.62767
45.733364 1.2066169 95.13745
45.799286 3.1786404 82.92792
45.476067 2.2476323 84.303696
45.98725 2.4998043 88.39877
46.043777 2.195135 92.75971
45.88078 1.9514086 93.18515
45.937946 2.3999615 94.277565
46.21774 2.031438 95.37987
46.109962 3.7619307 82.242294
45.82055 3.6669343 82.65093
45.577213 3.590613 83.39469
46.277023 3.96854 85.342575
46.305943 2.9870186 89.32948
46.065025 4.393242 82.258064
45.785774 4.4872265 82.67708
45.564804 4.574132 83.36847
46.24535 4.877915 82.21625
45.954166 5.4412875 82.95583
45.826405 5.503381 83.673706
45.770634 5.6386065 84.14196
46.33313 5.389894 85.68795
46.163265 6.2304983 83.18201
46.12926 6.6093564 83.637955
45.91385 6.3302803 84.3423
46.1229 6.10963 85.11294
46.321766 5.958368 85.703285
46.205666 6.877298 83.893425
46.178238 6.8823347 84.371185
46.18005 6.773497 84.89494
47.32361 -12.732798 96.88922
47.23546 -12.056081 94.60612
47.18491 -12.516598 95.93338
47.030167 -12.360496 96.6338
47.117252 -12.350059 97.42829
47.153885 -12.001002 97.944
46.986717 -10.799325 92.23306
47.088715 -11.337585 93.75874
46.86447 -11.55372 94.66111
46.755398 -11.545629 96.4185
46.791172 -11.396241 97.382286
47.08839 -11.049052 98.4227
46.584526 -9.816339 84.82914
46.458374 -10.033385 85.47245
46.43821 -10.271707 86.386406
46.322758 -10.24991 87.44023
46.518364 -10.163586 87.99639
46.407776 -9.882063 90.05399
46.665203 -10.105842 90.55094
46.677048 -10.543922 94.72514
46.551662 -10.186516 95.37274
46.628613 -10.889413 96.10291
46.64325 -10.784262 97.68618
46.804398 -10.339275 98.22687
47.229717 -10.422044 98.89523
46.428226 -9.185051 84.09493
46.567265 -9.578543 97.25602
46.87281 -9.245332 98.46863
47.118015 -9.633411 98.810425
46.37875 -8.50588 83.79985
46.610447 -8.513284 94.47487
46.560505 -8.128806 95.31171
46.525455 -8.144951 97.54167
46.764214 -8.573662 97.965294
47.279125 -8.992954 98.808945
46.684067 -7.4438496 83.74867
46.669296 -7.6594296 94.85114
46.5686 -7.837384 95.34761
46.693836 -7.3081565 96.71952
46.614014 -7.7743497 97.58847
46.88635 -7.3886003 98.39675
46.72129 -6.603279 83.68257
46.986477 -6.6990366 94.410675
46.689877 -6.6011925 97.3807
46.80478 -6.4760437 98.15815
47.180706 -6.497304 99.00643
47.46571 -6.279473 100.36704
46.449318 -5.4743705 83.790665
46.512062 -4.809459 93.82363
47.10469 -5.411852 95.142975
46.895008 -5.865312 97.47491
47.012722 -5.778408 98.38998
45.82322 -4.2195387 83.12395
46.53402 -4.069321 83.506836
47.23436 -5.0252914 98.58151
45.983833 -3.5942304 82.90907
46.443504 -2.757665 82.942085
46.832275 -1.864223 96.358734
46.36528 -0.29634383 83.15882
46.353172 -0.5779455 96.874596
46.906277 0.5557012 82.6
46.90271 2.0406344 82.869736
46.469616 1.4387164 96.37103
46.916035 1.4137319 96.83463
47.20543 2.0517058 98.419205
47.384785 1.7054925 99.06773
46.39881 2.9404142 82.43733
46.55872 1.9619437 91.144135
46.7312 2.4818847 92.21428
46.88884 2.4391942 95.68567
46.900097 2.6554635 96.210625
46.959827 2.6895442 97.831696
47.18691 2.098127 98.822266
47.255302 2.6064703 98.8208
[...]
POINT_DATA 2701
SCALARS features_00 float 1
LOOKUP_TABLE default
0.896649 0.80960584 1.0 1.0 0.9520837 0.75541043 1.0 1.0 0.9782648 0.77173877 0.918175 0.9061331 0.8704009 0.86236334 0.8431605 0.8919883 0.95041186 0.88820374 0.77938 0.6718334 0.96210426 0.6569545 0.5020267 0.9037229 0.48413026 0.40624484 0.85385674 0.52967525 0.4191336 0.7823143 0.80302763 0.76116073 0.6357869 0.85315716 0.8588624 0.8244686 0.81089437 0.79440373 0.78078806 0.7056147 0.8021008 0.40148723 0.8136001 0.4300873 0.384202 0.74238527 0.382235 0.7185509 0.394189 0.38917542 0.5999029 0.37435693 0.80282795 0.78640234 0.79519755 0.7258487 0.73902833 0.7000048 0.6986142 0.37140107 0.7150774 0.38258746 0.35898304 0.6410173 0.24350722 0.17579627 0.2833013 0.27767405 0.32459658 0.36821687 0.36555314 0.6387363 0.40737668 0.6167564 0.36447442 0.62099385 0.54534066 0.2671934 0.5507608 0.4489079 0.1503063 0.083763815 0.058100384 0.396344 0.48912644 0.2463052 0.28991002 0.49033853 0.5031762 0.49247563 0.32429683 0.33012584 0.3620084 0.30312783 0.4341066 0.46469253 0.46637338 0.3733331 0.3880415 0.3532665 0.2750861 0.33069086 0.40600652 0.41921055 0.38144916 0.34863907 0.3297196 0.3339303 0.33126724 0.3202743 0.28742516 0.10406551 0.32787764 0.4820288 0.47876891 0.45355475 0.3233497 0.44143653 0.42222998 0.32564032 0.24771528 0.34536335 0.38398087 0.39859092 0.33662266 0.3671773 0.31402174 0.16614737 0.19592015 0.3467406 0.3551402 0.22757612 0.30697712 0.4092894 0.3927297 0.31256807 0.25449383 0.3250434 0.26285 0.30045235 0.5680661 0.50127953 0.3544612 0.4522163 0.5633997 0.43984443 0.42934167 0.51335716 0.43887 0.40223312 0.4332217 0.34278774 0.3742912 0.2121113 0.2626638 0.31854618 0.22810695 -0.0486311 0.37657169 0.30998924 0.35499623 0.3774028 0.51303107 -0.058968905 0.08920937 0.26687366 0.5373229 0.31091583 0.30361557 0.5696565 0.31354517 0.5491915 0.29447576 0.4468418 0.20926313 0.22696707 0.14511743 0.24435787 0.27793086 0.072953545 0.0025816225 0.16446911 0.1644036 0.15276432 0.14465511 0.20538779 0.26131523 0.08220453 0.1933215 0.12554884 0.17893621 0.11480518 0.40745795 0.538541 0.45417032 0.33919793 0.3254681 0.2804984 0.4012649 0.41306454 0.594223 0.58439314 0.099539444 0.27239898 0.30169493 0.59781003 -0.12339325 0.24451211 0.2552699 0.4613078 0.1884352 -0.20586371 -0.20803103 -0.24927162 0.40313333 0.058745947 0.40010458 0.1721861 0.5010275 0.2659358 0.055682227 0.52898955 0.2005066 0.21826717 0.28349197 0.28946167 0.32030874 0.06320144 0.06241417 0.25757283 0.27357817 0.14242753 0.07229987 0.100805745 0.26219755 0.25287184 0.2315239 0.39230645 0.15099217 0.037029795 0.17804323 0.22571692 0.28504816 0.21120112 0.4919713 0.47206873 0.4150196 0.30999616 -0.0038424209 0.5287971 0.53128093 0.5279044 0.53711283 0.5635153 0.5810456 0.58925474 0.39033577 0.5915242 0.60362625 0.5897883 0.52466625 0.44273657 0.60028636 0.58647263 0.5551911 0.6139503 0.447645 0.53150123 0.58553314 0.61949617 0.6098753 0.29318738 0.3981154 0.45748776 0.53491384 0.5633654 0.5398754 0.58478236 0.52300197 0.4340545 0.34819597 0.3130082 0.09320277 0.20943516 0.41478676 0.34417412 0.4402312 0.50865436 0.47325653 0.47630763 0.6164142 0.36392605 0.36743274 0.40826166 0.5998255 0.116843194 0.16606262 0.25915575 0.29612923 0.32524306 0.5181322 0.08136678 0.14408568 0.1891745 0.23760405 0.20592944 0.405868 -0.08633862 0.19944711 0.21466169 0.20739624 0.32102096 0.15213531 -0.022598684 -0.29683965 0.21428454 0.23523557 0.2771253 0.113136455 0.22931711 0.32289445 0.2602362 0.28905538 0.11044115 0.32183856 0.09293325 0.17772989 0.18232886 0.15870228 0.31874326 0.33189648 0.3835023 -0.048231255 0.12227048 0.21890742 0.22277781 0.31894618 0.33612686 0.3502885 0.479403 0.024000175 0.014895011 -0.0031111836 0.003665261 0.19007197 0.2463643 0.3132566 0.36961633 0.35645837 0.376921 0.36707726 0.5149157 0.09779594 0.024549507 0.45632988 0.49659318 0.4931299 0.46804106 0.40556616 0.5280875 0.54574007 0.57431257 0.5648015 0.53336716 0.56246734 0.46894225 0.41954803 0.57308567 0.5848671 0.57633024 0.54063696 0.560843 0.47414216 0.5201142 0.5868287 0.6378008 0.6474579 0.43592042 0.46636263 0.47884387 0.5648812 0.637333 0.625812 0.33271644 0.38956088 0.5843473 0.5326067 0.60049736 0.5559171 0.47907078 0.39920402 0.30720127 0.47075185 0.6196009 0.61127305 0.42280385 0.60591745 0.28810304 0.34125876 0.5082244 0.17080215 0.37193874 0.41986912 0.46703428 0.36190176 0.4189445 0.42335913 0.27726787 0.3012102 0.36381507 -0.045418963 0.20233329 0.21976838 0.14867389 0.18214837 0.20629624 0.18447426 0.3440498 0.3339571 0.29402226 0.30490115 0.37556136 0.26954752 0.21114345 0.33967584 0.32633698 0.29814485 0.31814772 0.33899954 0.32566747 0.26857752 0.3682968 0.34204322 0.31725314 0.4786201 0.4841686 0.11638631 0.45965022 0.4671685 0.38946268 0.35199684 0.4864527 0.4932378 0.5691788 0.60895574 0.59076536 0.48909873 0.5064519 0.48855785 0.49959522 0.4927531 0.43615946 0.20006254 0.4723323 0.5154636 0.5040479 0.47473675 0.51077366 0.60110813 0.6877024 0.6715828 0.43224528 0.4591005 0.6146213 0.5722771 0.34719226 0.51334214 0.39684743 0.33395278 0.41699243 0.58453983 0.54317737 0.46663985 0.23747578 0.35960627 0.19471654 0.60950154 0.57645464 0.31186658 0.34434366 0.5589824 0.575554 0.39848256 0.40180272 0.47549367 0.49878365 0.4126199 0.33676597 0.17136967 0.17223233 0.31922036 0.3905812 0.07521651 0.27196944 0.36034268 0.40862054 0.31258255 0.40089005 0.46154714 0.43333584 0.22583123 0.2930724 0.41035748 0.46316564 0.36592537 0.35334867 0.25846922 0.14719664 0.12963746 0.24701422 -0.016432796 0.28575498 0.3673982 0.18005796 0.31606314 0.3085751 0.41060168 0.22500417 0.2410995 0.35948434 0.33459592 0.3100626 0.47002923 0.4448598 0.21094489 0.6200548 0.64640796 0.59529483 0.51791173 0.44399494 0.05727876 0.07841046 0.16599968 0.45355064 0.44469225 0.43773353 0.42696685 0.75911045 0.76729953 0.70828235 0.47895837 0.52026874 0.67757905 0.57747066 0.26691195 0.3399139 0.4896499 0.06860787 0.34420973 0.5209448 0.40884405 0.3169701 0.23135777 -0.03793122 0.23943156 0.5152718 0.4619973 0.21573299 0.29337847 0.31506038 0.025454553 0.32192677 0.39626995 0.42152554 0.4202274 0.4074191 0.41614294 0.23411158 0.20325048 0.35582268 0.2818398 0.40881348 0.42815822 -0.037484158 0.08650563 0.44177467 0.34531578 0.391879 0.38235915 0.16360359 0.18758303 0.22916579 0.22414246 0.2588892 0.27536148 0.10825305 0.26692498 0.27285314 0.25260946 0.27760246 0.279889 0.3802539 0.23314351 0.33520848 0.35736576 0.30036443 0.30294353 0.31831276 0.29276207 0.35559964 0.22397336 0.2234677 0.5313607 0.5347218 0.37713644 0.28661352 0.30563372 0.3780188 0.20886081 0.37292054 0.13166162 0.16423625 0.3655246 0.35082883 0.3106589 0.3476184 0.4978677 0.5417127 0.6868259 0.71295536 0.2799554 0.29634243 0.4415248 0.46946317 0.13866487 0.38702202 0.67582583 0.690223 -0.036024876 0.26378477 0.24325895 0.21103102 0.6527312 0.6849445 0.6873345 -0.04830192 0.15977722 -0.0021577775 0.21507627 0.32597172 0.5773308 0.6429517 -0.0681924 0.3001142 0.3734124 0.41835395 0.373593 0.42874306 0.3956434 0.3580706 0.33268195 0.40562105 0.34421584 0.38035542 0.38361394 0.29766583 0.2514274 0.11172564 0.35855496 0.3763153 0.2743201 0.3884864 0.33549583 0.23359956 -0.01807338 0.16539794 0.23559433 0.2948257 0.2759145 0.33879685 0.27622536 0.28559306 0.33195823 0.2841636 0.22499426 0.3008093 0.22634181 0.22848886 0.31624264 0.30156446 0.28542286 0.20414175 0.4215847 0.19987246 0.29644534 0.19881687 0.2501064 0.34706596 0.3960681 0.45626235 0.40193892 0.47584033 0.45776308 0.4848042 0.4727515 0.4220187 0.4505182 0.092591435 0.13154049 0.56043816 0.6794734 0.7027887 0.71605766 -0.0059062615 0.13543177 0.08225051 0.23361646 0.603834 0.7033336 0.7032583 -0.01638101 0.15141734 0.24309093 0.63679767 0.66969454 -0.03193418 0.15692356 0.53846025 0.08653246 0.0092650475 0.31346998 0.09504538 0.2934116 -0.03978828 0.03650563 0.34549952 0.09863018 0.039611116 0.26243097 0.008984029 0.085330874 0.092074074 0.007385159 0.20188273 0.117001496 0.25392765 0.2801382 0.2850044 0.4024618 0.37100953 0.2907569 0.40908638 0.307234 0.2867725 0.3922835 0.06987207 0.20365292 0.08682661 -0.15156104 0.37467247 0.3160273 0.09338529 0.15305494 0.22519135 0.44152725 0.44354725 0.17625245 0.46085918 0.49427426 0.4892914 0.4798048 0.034870435 0.21063235 0.21642354 0.09477767 0.31851554 0.4340464 0.40020084 0.41235185 0.45580214 0.49397862 0.45352978 0.80078113 0.740203 0.6253413 0.5033841 0.46954793 0.5298008 0.5924082 0.6702315 -0.03467734 0.33632335 0.33608317 0.39392 0.50429946 0.70554894 0.7137255 0.117411 0.044816736 0.7076972 0.6888341 0.03121981 0.04047171 -0.33573705 0.5700805 0.54190624 0.4844308 0.08408987 0.3343612 0.39748853 0.42430508 0.11234397 0.37998015 0.46908394 0.4968416 -0.01244832 0.09433638 0.1906001 0.4393491 0.5088121 0.53778696 0.018354956 0.048225485 0.053631168 -0.0043468364 0.024127292 0.16119641 0.0092378035 0.00908941 0.19415468 -0.011195444 0.022478111 0.24917069 0.32502615 0.23847583 0.34097064 0.3427238 0.39813977 0.43014038 0.40802827 0.3842733 -0.03640902 -0.19883354 -0.14526066 -0.14061138 0.37328556 0.12293309 0.13151368 0.22846018 0.4606846 -0.040542874 0.52039975 0.5954976 0.55476606 0.5223774 0.49988595 0.034646362 0.17654073 0.58930594 0.34538043 0.28939795 0.1527851 0.40424138 0.3812214 0.48292172 0.4500022 0.42186445 0.44795895 0.78627956 0.8321435 0.83731157 0.82281303 0.5839195 0.72185135 0.8087565 0.8222304 0.8050792 0.5266657 0.7756598 0.74961185 0.74864364 0.44095087 0.6444081 0.31290656 0.553083 0.18853101 0.26173136 0.47268474 0.4373568 0.3641407 0.43452054 0.44997764 0.50086415 0.47907174 0.015501596 0.2625648 0.32881984 0.6541743 -0.062809184 0.62282735 0.04905577 0.028586954 -0.19576278 0.5156476 0.043575116 0.042696916 0.35259527 -0.022273239 0.46639296 0.09959249 -0.03385179 0.5300862 0.52372575 0.565101 0.5837934 0.5822717 0.17294106 0.15959643 0.12508559 0.24141407 0.50284946 0.5655532 0.59553385 0.09061185 -0.15612394 -0.08709535 0.09073979 0.2550653 0.30289882 0.3463363 0.09787428 0.3622756 0.15895249 0.33231688 0.36737293 0.2783414 0.30473447 -0.019156195 -0.06487625 -0.07523808 -0.07888226 0.35032067 0.103185095 0.014281705 0.36908352 0.47411203 -0.01631952 0.43395525 0.5425729 0.56559587 0.5117353 -0.04195854 0.61175036 0.6070546 0.38723895 0.35952726 0.43528748 0.4383735 0.46148813 0.44364202 0.7293164 0.82858884 0.83810335 0.8083631 0.6224164 0.67675793 0.77015465 0.3947522 0.7337086 0.7087723 0.30200598 0.33445525 0.58966357 0.27728596 0.5091295 0.17070502 0.4333905 0.3062161 0.30451697 0.04585909 0.34560063 0.3175887 0.3830018 0.37416673 0.39415434 0.44097787 0.016697057 0.11061922 0.45343596 0.49687374 0.015645558 0.005293824 0.048636306 0.07842952 0.37884763 0.46424884 -0.02729414 0.56850374 0.094626844 -0.09374499 0.6074945 0.60539925 0.30730474 0.27372336 0.08954355 0.05860889 0.60530347 0.61506855 0.2949713 0.23577951 -0.01848552 -0.05520502 0.16214323 0.49224812 0.5530281 0.59289074 -0.14773351 0.28161746 0.13034558 0.14314851 0.35027736 0.07543119 0.36435688 0.22135822 0.14347367 -0.09143898 -0.021232218 0.00074012205 -0.0035728477 0.13002911 0.49058542 -0.05957559 0.06243083 0.46265483 0.5163827 0.5823102 0.5694448 0.56442976 0.59421587 0.6000043 0.16372512 0.356893 0.3159057 0.3777561 0.42554492 0.43440926 0.44263446 0.46272814 0.4340579 0.42031962 0.69405717 0.8227358 0.8184825 0.7361684 0.52733207 0.69327724 0.40672597 0.60893273 0.30673087 0.17751308 0.10055813 0.2489576 0.25432462 0.041242503 0.049902454 0.25792795 0.2424368 0.25378844 0.2944356 0.34666917 0.3627664 0.34087318 0.018419065 0.025125585 0.27366793 0.10207032 0.08731632 0.27828506 0.12360326 0.43403208 0.12651 0.462654 0.091238916 0.60553896 0.6142415 0.6102975 0.61493814 0.3600454 0.35789186 0.2901907 0.05465299 0.3942774 0.5678169 0.5948669 0.26175636 0.3256241 0.30594698 0.23712292 0.031331263 -0.3652403 0.21104923 0.07821816 -0.014196515 -0.12087165 -0.4059277 0.14721227 0.72796035 0.6966897 0.18820955 0.21904163 0.2524287 0.78376985 0.75773853 0.71864593 0.631533 0.08786872 0.26662397 0.7508639 0.70493203 0.25264183 0.74155235 0.66827893 0.64907503 -0.06408581 0.10287605 0.13674858 0.2323446 -0.011441752 -0.116473414 -0.10372729 -0.014933212 0.019186549 0.19639999 0.4514227 0.3345223 -0.014969332 0.1884782 0.43421024 0.49636585 0.5263761 0.54780996 0.5389297 0.18746509 0.5479635 0.56648934 0.56097317 0.27307025 0.31667078 0.07928551 0.19147867 0.34957492 0.24794182 0.42574054 0.3807887 0.42032015 0.6359785 0.59543824 0.47897327 0.3263862 0.51818377 0.49946582 -0.040842593 0.1589188 0.17128877 0.16113043 0.18633284 0.17403595 0.17496149 0.2954972 0.33948576 0.3504855 0.32258862 0.19381613 0.12869325 0.28718174 0.2760305 0.26652402 0.1293669 0.3328783 0.14141373 0.36760223 0.40578017 0.12507156 0.12893718 0.4563346 0.10631106 0.5679023 0.1007186 0.51231474 0.5835067 0.13293651 0.56693006 0.14018163 0.3086164 0.2617981 0.2037532 0.24489932 0.31543586 0.20114358 0.12899178 0.06689833 0.015892874 0.8337107 0.7769761 0.6914649 0.5666401 0.29389754 0.33868575 -0.01663332 -0.11251947 -0.06736144 0.8395917 0.7918453 -0.19890475 0.8148389 0.07574929 0.7548567 0.725694 0.09861207 0.36041367 0.114209585 0.12257218 0.22998305 -0.011962727 0.19110548 0.16668007 0.20448059 0.31652436 0.32284015 -0.16114774 0.24416132 0.22168165 0.35152724 0.48418677 0.48352808 0.14784421 0.2548313 0.2407425 -0.25823987 0.28996867 -0.11170345 -0.15025485 0.28786355 0.28978077 0.04215972 0.30799776 0.37325728 0.3884122 0.46726263 0.3480456 0.31747502 0.30240017 0.3421883 0.31778383 0.3655462 0.2821992 0.33305484 0.044337735 0.29641536 0.034999695 0.0702349 0.2850326 0.26854676 0.23519126 0.25992614 0.009964369 0.33664787 0.1407982 0.39099085 0.1211025 0.42382595 0.11124168 0.3816973 0.1320497 0.4129283 0.2090149 0.3691542 0.4210108 0.22591716 0.21944264 0.3351263 0.3875429 0.30367875 0.26216227 0.26584214 0.2953396 0.85079634 0.77859735 0.67995894 0.51778054 0.3561764 0.23269458 -0.0040558726 0.0070030987 0.23361887 0.8513212 0.8625504 0.01888081 0.009411421 0.004517868 -0.017129749 0.2783635 0.2931569 0.82051 0.79987013 0.7179683 0.62578535 0.05551623 0.6512348 0.56657183 0.42477137 0.37903753 0.040518858 0.14681968 0.37272066 0.25046393 0.15395738 0.13368241 0.046210963 0.07964747 0.14513853 0.20367166 0.23981756 0.26715574 0.21464723 0.15054981 0.13730241 0.2245349 0.26095587 0.19396338 -0.17680255 0.155429 0.17873043 0.17385566 0.17417678 -0.078114524 0.07600722 0.20645662 0.1640255 0.30640942 0.5210138 0.55161244 0.47306326 0.48384407 0.28364772 0.18703382 0.37409842 0.13483413 0.39889252 0.38425952 0.084429696 0.4027288 0.07852902 0.38436934 0.14180881 0.3665412 0.34393877 -0.024857976 0.19269197 0.2487224 0.30454707 0.34196818 0.28514665 0.21496776 0.21877159 0.1731608 0.35173985 0.08364368 -0.025629267 0.37611565 0.29615897 0.31327385 0.3292026 0.16206053 0.31039548 0.33796728 0.24702126 0.20132565 0.2820962 0.2626818 0.24608418 0.3043527 0.306965 0.41078833 0.365328 0.2551119 0.21749535 0.25115368 0.79776573 0.63779545 0.46734655 0.331376 0.40992987 0.39820772 0.34733084 0.2907287 0.8768449 -0.0033406261 -0.0102720335 -0.028496444 0.7974039 -0.116722316 -0.1345576 0.27635613 0.38945824 0.42412728 0.7523588 0.08977191 0.6838325 0.63660085 -0.09479903 -0.103279844 0.077942625 0.22409208 0.18268429 0.4679351 0.37119052 0.36741486 -0.091135085 0.1554238 0.22595379 0.09790262 0.20505658 0.14712718 0.15557191 0.12846236 -0.1942166 0.39543083 0.26145932 -0.0341628 0.35529828 0.16547295 0.10967264 0.14604908 0.49993512 0.63710755 0.31495053 0.31270432 0.20866977 0.66058004 0.70986664 0.7241676 0.41129053 0.5578922 0.63699704 0.70775354 0.71137375 0.3859587 0.39270124 0.50416416 0.60153425 0.6789048 0.5649102 0.6066167 0.5143343 0.56637764 0.61740744 0.6601871 0.41860074 0.35545486 0.22987616 0.4220416 0.39463627 0.2284713 0.4270991 0.42662835 0.4339607 0.1525642 0.4237564 0.17287004 0.40408987 0.16856901 0.13178751 0.17082466 0.37761092 0.29581153 0.10702532 -0.0159567 0.054154962 -0.06150935 0.19885345 -0.0062053427 0.20301588 0.10410307 0.23832145 0.27372324 0.28696495 0.29333645 0.09035092 0.105750896 0.28278983 0.28797692 0.1984999 0.2592704 0.2613499 0.27163976 0.21593878 0.33204806 0.8130634 0.66591686 0.40650022 0.41566968 0.2636438 0.8611487 0.90353185 0.46001738 0.42287856 0.42696786 0.85018265 0.36042342 0.051699407 0.20581129 0.049448714 -0.02075988 0.016530648 0.25921863 0.43876716 0.45490658 0.8350184 0.804085 0.21624239 0.07030036 0.7922991 0.7419747 0.7638453 0.40167046 0.30633396 0.20515254 0.20768979 -0.10369028 -0.094915345 0.045905687 0.13794921 0.19668567 0.21278498 0.43096632 0.15913051 0.124499425 0.21774447 0.009244043 0.24697685 0.06947217 0.03176643 0.312541 -0.19154704 -0.08513397 0.2260925 -0.29683927 0.28474236 0.4522811 0.05514817 0.42379683 0.47285333 0.46187663 0.13973606 0.2313965 0.63479245 0.68878365 0.3750782 0.25068593 0.72594935 0.72104704 0.33553368 0.3578599 0.7220138 0.3585566 0.35114157 0.32710394 0.46372205 0.68586105 0.4337671 0.5861623 0.6501396 0.66132724 0.6040871 0.51510537 0.5504412 0.6114316 0.6323412 0.57033825 0.37696907 0.42708802 0.48721373 0.4554987 0.38703364 0.4463625 0.092813574 0.43477803 0.07761048 0.38214037 0.34668136 0.172771 0.25235224 0.21234432 0.24802709 0.36995637 0.3396744 0.14912468 0.3497032 0.3263273 0.2630879 0.06063912 0.0396799 0.29425955 -0.081607796 -0.027767748 -0.009023219 -0.0644221 0.23555551 0.27524745 0.11650607 0.0007264614 -0.3823787 0.24072348 0.43376318 0.84407914 0.10749511 0.43616968 0.91162246 0.91171885 0.80325615 0.6544723 0.44776022 -0.01754859 0.44587645 0.88266754 0.90695536 0.7198858 0.25496134 0.28881785 0.16124761 -0.0679246 -0.17727965 0.14535208 0.86952126 0.89289564 0.34648833 0.24215594 0.14442141 -0.060571954 0.8665681 0.88347757 0.8396778 0.780138 -0.16710614 0.03427002 0.09295352 -0.015944555 0.20484135 0.12248456 0.30572623 0.19537163 -0.00096702576 0.26686835 0.276591 -0.23885898 0.2807795 0.47735286 0.56143695 0.49466062 0.6813075 0.4705368 0.3919255 0.30424234 0.26018247 0.67197 0.7068953 0.31506693 0.31070784 0.699655 0.30289933 0.31321895 0.51989186 0.6806598 0.7338057 0.6250634 0.7013366 0.6874267 0.73260844 0.51125234 0.5471444 0.578927 0.38158163 0.42460057 0.5094688 0.5133903 0.38026762 0.37710297 0.4203688 0.057715334 0.3651178 0.27442148 0.0630438 0.11968555 0.44234565 0.46634442 0.305959 0.22117311 0.066324435 0.38342854 0.37176663 0.39592278 0.20533977 0.39300492 0.40552145 -0.24482244 -0.2418217 -0.050909817 0.3669904 -0.07168597 0.3600007 0.42380887 0.3726529 0.22736835 -0.02737349 0.051386297 -0.33081236 -0.3878283 -0.33164895 -0.028211946 0.025772939 -0.45861572 -0.4925339 0.22712469 0.14826882 -0.11061278 0.23959357 0.3400429 0.13359265 0.18869448 0.42900968 0.09321586 0.9135386 0.81047714 0.03668444 0.93495166 0.92907727 0.886222 0.7796502 0.30462083 0.28188184 0.25643092 -0.047026746 0.4862313 0.92225313 0.9227178 0.8919386 0.8493558 0.32003257 0.30906862 0.18135434 -0.000134971 0.0152824 0.008631326 0.027005717 0.10361179 0.93681693 0.9033661 0.88872457 0.8383401 0.31502345 0.15413538 0.11408223 0.09299938 0.8963611 0.2149226 0.15607633 0.29931182 0.353375 0.38206768 0.64820266 0.41770464 0.6474831 0.56523067 0.6277887 0.62194115 0.553424 0.60649085 0.48221114 0.36072177 0.3017743 0.2558899 0.614047 0.20803258 0.21816112 0.6133782 0.2765422 0.31938443 0.6740588 0.31919062 0.35959238 0.75320673 0.7253791 0.7783625 0.81388795 0.7921161 0.7941747 0.3477056 0.37451333 0.3773157 0.34847313 0.27091292 0.37275416 0.12396223 0.31093082 0.10041811 0.5489612 0.56888884 0.2591523 0.040288538 0.49197042 0.530733 0.52303374 0.48858237 0.22112495 0.0005681217 0.44243643 0.4642238 0.4390205 0.04238692 0.4783879 0.027659185 -0.022987008 0.46894217 0.47952121 0.463773 0.3674932 0.6190475 0.42161804 0.5269424 0.1531379 -0.2637762 -0.17129505 -0.0022056699 -0.17078249 0.15526152 0.1764499 0.36724323 0.06576455 0.3863697 0.07902578 0.09072665 0.3839546 0.43207455 0.07249174 0.05718789 0.18864056 0.8440198 0.31898996 0.31420386 0.3051879 0.27167046 0.3230159 0.009526901 0.1141