# vtk DataFile Version 2.0
Really cool data
ASCII
DATASET POLYDATA
POINTS 8213 float
39.332806 24.252184 78.52767
39.25081 24.663752 77.92725
39.142212 24.68003 78.47164
39.20088 24.800613 79.44494
39.22213 25.060226 80.24371
39.25784 25.437582 77.921906
39.05719 25.495825 78.684654
38.992214 25.580624 79.523834
39.105064 25.686102 80.47229
39.244614 25.812176 80.91077
39.239513 25.789444 78.15662
39.292442 26.258823 78.74775
39.05866 26.232817 79.60763
39.10508 26.389252 80.44145
39.23695 26.314894 80.87282
39.334568 26.824528 79.85777
39.234146 26.797571 80.309715
40.015438 23.985147 77.20215
39.56166 24.14253 77.83844
39.62318 23.979908 78.478455
39.612534 23.983665 79.011734
39.83481 24.693657 77.07267
39.517464 24.600891 77.47708
39.40326 24.61946 79.599846
39.70653 24.734495 80.26844
39.745724 25.026289 80.80076
39.862408 25.385466 77.15878
39.527924 25.544043 77.55918
39.652657 25.73667 81.220436
40.29853 25.795004 76.84412
39.754536 26.053305 77.72595
39.47451 26.437359 78.664635
39.535168 26.390451 81.11232
39.887367 26.816654 78.83603
39.64682 27.0768 79.6817
39.763794 27.208155 80.381996
39.650906 26.913292 80.93231
41.07925 18.2868 84.05268
41.01479 18.301142 84.71597
41.14297 18.256735 85.053734
41.415794 18.828289 81.159424
40.865093 18.759077 83.894005
40.74334 18.73179 84.55661
40.877502 18.758583 85.08171
41.26987 18.923037 85.617424
41.100876 19.646809 82.87569
40.795345 19.570202 83.57621
40.62172 19.388216 84.58628
40.84252 19.386356 85.171074
41.246384 19.291555 85.68358
41.115395 20.431917 82.69324
40.870243 20.17866 83.62255
40.83557 20.1654 84.43659
41.045483 20.107325 85.10225
41.408615 22.139315 76.99438
41.309757 21.212177 82.672935
41.100773 21.105139 83.60743
41.150517 22.774742 77.809296
41.191696 23.407763 76.28415
40.702953 23.712967 76.7293
40.430454 23.85133 79.59158
41.302414 24.215792 75.69757
40.500328 24.423365 76.49025
40.408813 24.444927 80.31432
40.93482 25.262232 75.961296
41.070038 25.510921 81.581955
40.34288 26.775307 78.12657
40.791473 27.240355 78.61032
40.64549 27.447426 79.452995
40.51235 27.48243 80.24289
40.657124 27.041542 81.218445
40.71827 27.583757 79.58509
42.47703 11.920894 87.973656
42.456528 11.805693 88.08992
42.433968 12.237588 87.94225
42.43102 12.050284 88.20459
42.326168 17.318914 80.61985
42.19615 17.287937 81.071526
42.160496 17.885897 79.974144
41.967274 17.73764 80.6371
41.94505 17.706326 81.26985
42.19158 17.799551 82.023
41.47869 18.145012 83.75996
41.646023 17.932314 84.62382
41.57758 18.053757 85.17469
41.88681 18.613667 79.83874
41.649956 18.435505 80.6043
41.56951 18.652477 81.638664
41.57006 18.679235 82.6621
41.315845 18.484509 83.40789
41.42806 18.564085 85.58167
41.75762 18.66239 85.826866
42.14571 20.119 78.03832
41.96087 19.788198 78.844826
41.70452 19.461586 79.85323
41.480503 19.222816 82.46944
41.43883 19.22133 85.766205
42.1862 21.219427 76.69337
42.02503 20.71279 77.47578
41.76889 20.402817 78.58855
41.59727 20.383385 79.45928
41.622932 20.041142 80.17768
41.635593 20.291267 85.50206
41.915123 20.066101 85.792984
42.031357 22.019056 76.322525
41.764904 21.810059 76.82082
41.87092 21.280102 77.19422
41.600952 21.478128 78.255486
41.94983 21.712748 79.807526
41.42206 21.616806 83.41061
41.50586 21.216402 84.28243
41.85381 20.903334 85.16933
42.017498 22.891346 75.91664
41.54947 22.54984 76.527084
41.911465 21.977749 79.734276
42.466476 22.172695 81.47001
41.974926 22.310982 83.37108
41.839188 23.469921 75.63415
41.90269 23.870266 82.21314
42.135624 23.640844 83.16078
41.81046 24.721886 75.10216
41.904903 24.237991 75.44499
41.70205 24.761238 82.323074
42.00921 24.53747 83.166695
41.918674 25.361488 74.99372
41.515575 25.536663 75.49789
41.61189 25.577078 82.34348
42.229794 25.500187 83.266685
42.313076 26.788347 73.68796
42.21346 26.230429 74.44238
41.50267 26.364603 81.71541
42.248665 27.94582 73.659065
42.130234 27.110409 74.44019
41.95877 27.80528 75.23268
41.492897 26.761978 77.18923
41.628616 27.445278 80.48322
41.293133 27.174742 81.168625
42.168182 28.04567 73.76246
42.00456 28.49634 74.59808
42.179535 28.710941 75.38734
41.49169 27.586882 79.47698
42.25595 29.509527 74.75543
42.312393 29.79479 75.455605
42.469143 29.457859 76.49623
42.403408 30.031015 75.64121
42.455025 30.077642 76.67991
42.479958 30.736736 83.31502
42.462006 31.177359 83.24957
43.345516 10.220502 87.98714
43.252487 10.211782 88.37186
43.14279 11.019625 87.28123
42.941727 10.992306 87.64398
42.902004 10.86872 88.49374
43.24261 10.697279 89.23093
42.936424 11.649974 87.19502
42.660576 11.570749 87.60067
42.57442 11.622389 88.39364
42.85918 11.6648445 89.15163
43.18923 11.734837 89.752525
42.998295 12.312911 87.14666
42.65062 12.303713 87.55151
42.60508 12.511829 88.49651
42.86335 12.416729 89.2643
43.169796 12.729435 87.24551
42.883152 12.954587 87.91532
42.93643 13.048802 88.67355
43.085056 13.063577 89.180664
42.756126 17.15632 80.19018
42.72912 17.091269 80.462776
42.739952 17.083483 81.38859
42.49792 17.616192 79.890144
42.328613 17.441713 80.24005
42.35689 17.51738 81.77037
42.95785 17.80472 82.52911
42.473034 17.933533 83.587746
42.438255 17.745897 84.6854
42.578365 18.219933 85.891304
42.650867 18.524504 79.00366
42.571793 18.644697 86.08225
42.66865 20.355253 77.25685
42.69594 19.648514 78.059296
42.554745 19.310379 78.678375
42.556057 19.303432 86.222015
42.610874 20.881956 76.74538
42.467373 20.603018 77.29687
42.886658 20.433315 86.24513
42.828754 21.694094 76.03702
42.310566 21.446108 76.43865
42.67197 21.388218 85.29473
43.048122 21.013521 85.840164
42.67284 22.849339 75.65593
42.712547 22.02055 84.40399
43.092648 22.025732 85.27332
43.31337 21.90346 85.91532
42.330025 24.18038 74.95675
43.143944 25.054537 73.55775
42.522266 24.52267 74.64125
42.53329 24.953434 83.75913
43.27557 25.82968 72.170044
43.11301 25.77958 72.54568
42.613064 25.97303 73.88917
42.407536 25.614046 83.43758
43.12604 26.59755 71.93306
42.75728 26.446997 72.59773
42.558647 26.22567 73.31834
42.874577 26.248837 83.33272
43.270733 27.99882 71.20396
43.138165 27.799685 71.58209
42.652836 27.496819 72.797585
42.453888 27.533188 80.03223
42.46704 26.685158 81.52495
43.005512 26.650694 82.38734
43.30472 28.526154 71.18941
43.078503 28.485155 71.633965
42.698627 28.398666 72.758896
43.238415 28.909979 71.61475
42.986633 28.986517 72.30418
42.54309 29.313265 73.79073
42.42768 29.67945 74.5146
42.637764 29.242895 77.53825
43.00589 29.445955 80.044205
43.303646 29.642452 82.08475
42.737144 30.058176 82.78433
42.651237 30.158215 83.492966
43.035606 29.91677 83.93059
42.62422 29.777346 74.20282
42.714615 30.109163 74.69003
42.550392 30.124592 75.35356
42.562634 30.479755 76.28073
42.825493 30.37616 77.749695
42.905743 30.437712 78.5615
43.04007 30.324228 79.12189
43.21996 30.367073 80.14821
42.887196 30.386456 82.14594
42.565918 30.433174 82.78913
42.572 30.448374 83.738785
42.882282 30.775114 84.57959
42.887524 31.241026 75.33208
42.790524 31.211416 76.67708
43.143677 31.40939 77.70874
43.205116 31.525532 78.041145
43.313564 31.005768 79.14482
43.126717 31.486586 81.47049
42.65397 31.607155 82.68428
42.53822 31.731758 83.40761
42.66398 31.449944 84.42069
43.077656 31.841105 85.09815
43.25918 32.291332 75.6725
43.223545 32.243668 81.90236
42.904663 32.164032 82.64784
42.754166 32.31085 83.710556
42.856678 32.402073 84.5259
43.170673 32.7054 85.15545
43.22641 33.010612 83.001465
43.02053 32.83374 83.88362
43.257767 33.370525 84.585266
43.296677 33.14229 85.209946
43.44729 33.858547 84.77887
44.161613 9.345128 88.10041
44.12704 9.295062 88.50935
44.18545 9.326062 88.88058
44.42906 9.120024 96.184044
43.789017 9.867369 87.81206
43.637573 9.771431 88.446495
43.781975 9.748413 89.081985
44.218437 10.219267 90.13228
44.371128 9.681856 95.85785
44.34924 9.717483 96.31874
43.67305 10.836462 87.13528
43.409866 10.462892 87.61756
43.42814 10.380522 89.5007
43.761208 10.627076 89.96477
44.154396 10.841095 90.75806
44.341442 10.284203 95.79599
44.313736 10.4692545 96.35962
44.437054 10.295618 96.82782
43.451447 11.625905 86.95299
43.663395 11.480412 90.181595
44.23192 11.5675745 91.029785
44.408245 10.912342 96.15014
43.388172 12.374729 87.00848
43.79773 12.247383 90.40477
44.168045 12.173379 90.812355
43.45477 12.857139 87.24055
43.51482 13.358721 87.73901
43.48184 13.573227 88.228195
43.427628 13.319522 89.31758
44.014145 13.30736 89.940674
43.60449 13.679165 88.8561
43.8243 13.751663 89.2661
43.623444 17.159319 79.88115
43.357296 16.85914 80.71645
43.361332 16.922604 81.29176
43.49486 17.211294 81.81047
43.582027 17.688051 79.18831
43.733776 17.539038 79.401474
43.48452 17.535341 82.37692
43.311237 18.055164 83.79886
43.2434 17.818224 84.70957
43.027092 18.104527 85.77548
43.650772 18.765522 78.247215
43.4906 18.813505 86.23507
43.637894 20.02412 77.18752
43.26105 19.219162 86.42648
43.84998 19.350193 86.65564
43.507965 20.641645 76.79536
43.815327 20.408682 86.88145
43.16941 22.073776 75.7958
43.39961 21.072071 86.55019
44.21008 21.181133 86.99293
43.57799 22.962288 75.16262
43.370335 21.885809 85.67026
43.48218 23.553467 74.7731
44.172554 23.822174 86.615555
44.37658 24.08951 87.12532
43.82313 25.099165 72.59534
43.526054 24.78874 73.51217
43.910038 24.106565 85.55266
43.83278 24.659239 86.33161
44.319252 24.657757 87.59751
44.375206 24.911253 88.00632
44.09913 26.112455 71.37888
43.75088 25.780413 71.83721
43.34451 25.525246 72.54107
43.309402 25.353878 84.16022
43.82211 25.645058 85.16762
43.79687 25.527302 86.485535
44.13179 25.411852 87.3121
44.26614 26.01998 88.466805
44.197174 26.051758 89.76334
43.80665 26.750237 71.2191
43.58193 26.374783 71.559
43.887367 26.114183 85.70377
43.921185 26.284767 86.35467
43.965263 26.16779 87.23735
43.973793 26.640736 88.618706
43.876755 26.681873 89.43388
44.055557 26.757198 90.16572
44.161957 28.047642 70.408516
43.900608 27.796213 70.684204
44.06176 27.531445 81.034584
43.78545 27.196363 82.124626
44.230255 26.821434 85.71823
44.234715 27.564447 88.03652
43.876976 27.403196 88.667915
43.79681 27.422026 89.502174
43.97363 27.483803 90.22284
[...]
POINT_DATA 8213
SCALARS features_00 float 1
LOOKUP_TABLE default
0.6284983 0.6215368 0.6571101 0.6781478 0.69928944 0.6248361 0.69117 0.7443718 0.7507911 0.7353329 0.63905716 0.67118263 0.7510085 0.7731236 0.7679026 0.7284448 0.75875735 0.43195766 0.56446594 0.57523036 0.5911235 0.49766585 0.56769896 0.6536695 0.6301575 0.6246456 0.5243676 0.58109236 0.68259984 0.47282925 0.56637627 0.6443869 0.7530321 0.61670315 0.6838939 0.7126109 0.7520575 0.66158235 0.7504354 0.7586634 0.3554629 0.6539725 0.7482768 0.76746 0.72906065 0.48386377 0.61662275 0.76337576 0.75432205 0.7035494 0.4735847 0.6104847 0.6996739 0.6765851 0.272639 0.39756036 0.50399935 0.2753337 0.2248915 0.27506617 0.49895772 0.2089442 0.3238463 0.5306211 0.27051723 0.44032198 0.53094953 0.5340725 0.595029 0.6221893 0.625439 0.59144115 0.834464 0.8237603 0.8414345 0.8271435 0.59063876 0.5769297 0.52059245 0.5218856 0.5198459 0.5010457 0.5746976 0.69612885 0.73983973 0.43346536 0.42547184 0.36964852 0.41570204 0.5326446 0.73211837 0.6883936 0.29474467 0.3217909 0.37554127 0.39502463 0.68651706 0.3038386 0.29044265 0.2952703 0.3402888 0.3317852 0.54012746 0.5320258 0.28328413 0.28601518 0.2867821 0.2735965 0.21664357 0.38031793 0.44492203 0.4111626 0.24715811 0.260335 0.19042751 0.007716179 0.17066856 0.21916391 0.09170681 0.041657533 0.1683766 0.19722044 0.17346132 0.12569194 0.13405128 0.15455723 0.25344458 0.18503004 0.2729034 0.17232788 0.39359972 0.296654 0.23790929 0.26284066 0.37761593 0.4411916 0.4589979 0.29142293 0.26831257 0.23847388 0.49714997 0.2365703 0.21625566 0.21701062 0.21096605 0.22259706 0.52612185 0.5254826 0.78511655 0.76627386 0.81252754 0.8055942 0.77123845 0.71417344 0.83058333 0.8268125 0.7970315 0.7451723 0.65335095 0.84893894 0.8467369 0.8198714 0.7419858 0.8559648 0.8459625 0.8099673 0.72892284 0.6307134 0.6334277 0.60865605 0.5701382 0.58064693 0.55219686 0.43851006 0.42482603 0.6398018 0.6374161 0.44243604 0.58939564 0.31353116 0.30475616 0.33336136 0.52608085 0.31593865 0.31017023 0.36384767 0.30052245 0.30123764 0.2901224 0.28980246 0.2540083 0.2507275 0.21269321 0.18188393 0.18055199 0.32604462 0.16063014 0.15033242 0.43882942 0.41826355 0.24579506 0.18793651 0.4562562 0.3953781 0.3142026 0.17453419 0.58953214 0.5356383 0.37932318 0.17987354 0.13272959 0.053583182 0.60794765 0.53796476 0.35886297 0.54194874 0.4022792 0.2696551 0.24144974 0.19884789 -0.013263978 0.38666204 0.4915378 0.5046294 0.50206226 0.23742598 0.21651885 0.21051878 0.20631179 0.22606952 0.2060955 0.1870642 0.06498182 0.48824406 0.51214296 0.524533 0.5160532 0.25575146 0.23598255 0.26036564 0.25498807 0.19002174 0.3635381 0.49103007 0.51954544 0.51854634 0.47797358 0.40611959 0.39754164 0.46128362 0.50644284 0.4985569 0.48557198 0.46189588 0.49724966 0.5109741 0.4968697 0.52884644 0.79194176 0.7755297 0.7517582 0.7143926 0.7962945 0.7695737 0.73200417 0.6242212 0.70927465 0.7065005 0.8148523 0.80030715 0.6854453 0.6192074 0.5532575 0.68968093 0.680344 0.66993463 0.8426526 0.5715985 0.48291355 0.6561532 0.8531172 0.52558076 0.47344103 0.85388345 0.842139 0.82362735 0.65705013 0.47313046 0.72738713 0.5918874 0.69308066 0.67899084 0.63550884 0.55546165 0.60444856 0.64401305 0.42299584 0.24900962 0.5156903 0.62118345 0.41644815 0.41601247 0.31693238 0.41952014 0.28320664 0.32577863 0.26751623 0.28397623 0.26368767 0.1726516 0.20793775 0.19134653 0.17157829 0.13265158 0.13803297 0.4341812 0.34578627 0.14155023 0.18674195 0.14241806 0.13626763 0.47308058 0.4539322 0.42840093 0.081991754 0.07932204 0.18335691 0.1741879 0.23532507 0.30962515 0.5167923 0.4749958 0.11830159 0.15319914 0.18376713 0.3421417 0.42449728 0.43823615 0.6693773 0.6381784 -0.42195195 -0.22815296 0.06412095 0.3459186 0.43642086 0.49941456 0.47129184 0.40873733 0.6833973 0.6653641 -0.3995483 0.30510488 0.48151582 0.4823395 0.4187972 0.6356779 0.55986077 0.2598382 0.28863752 0.44645807 0.44253266 0.5104932 0.18800862 0.40223336 0.35668066 0.3500898 0.13520779 0.44328487 0.4048096 0.4491527 0.45192257 0.402102 0.30625072 0.12427918 0.2013142 0.45610428 0.43187165 0.47847965 0.47772944 0.45224375 0.40576714 0.3177603 0.42658794 0.50983894 0.48060232 0.5170021 0.5361667 0.5315694 0.515895 0.5297901 0.53361243 0.6823308 0.7486595 0.7423763 0.7251431 0.7900997 0.77398926 0.7125139 0.67324567 0.7035968 0.7056984 0.6661898 0.73513174 0.7636055 0.7688091 0.74281526 0.70464647 0.7807511 0.79153275 0.6706772 0.68742156 0.70464605 0.7005559 0.65837574 0.5399536 0.7237563 0.76916754 0.7865524 0.74772286 0.6958864 0.75760865 0.54532576 0.6394355 0.6700866 0.6352874 0.5192786 0.671046 0.68246543 0.73659 0.71532035 0.75368524 0.4303669 0.6101742 0.6051519 0.620754 0.5745858 0.590475 0.5848277 0.756369 0.35469994 0.48111862 0.80679095 0.34588593 0.34197864 0.69359523 0.3924575 0.24469717 0.62105584 0.5929996 0.59066683 0.52917826 0.3200275 0.032839254 0.0981317 0.23509614 0.30388522 0.16427663 0.30868 0.30208892 0.15050608 0.069192335 0.24730855 0.10801575 0.3359816 0.20334016 0.057771467 0.063637204 0.4439357 0.4177193 0.3616354 0.12608892 0.057932075 0.09691329 0.09005787 0.4723554 0.45417714 0.19520305 0.22174957 0.53764826 0.33750033 0.26850268 0.65456563 0.62285864 -0.083776265 0.01982114 0.37129048 0.31388316 0.68129665 -0.56009406 -0.09887796 0.29493368 0.11527446 0.28290692 0.37704465 0.34643397 0.3299291 0.6784506 0.6659031 -0.082637556 0.29624695 0.3983072 0.36701602 0.36594534 0.32206205 0.6112198 0.4724974 0.2953745 0.2653005 0.3524498 0.23412938 0.28991312 0.4580394 0.46363735 0.34988138 0.30773547 0.39676878 0.4785393 0.47211006 0.40058196 0.3731386 0.30394006 0.26358116 0.3894172 0.33091837 0.47568396 0.47643927 0.43819898 0.34215733 0.30200505 0.36278 0.44642276 0.5313043 0.51419854 0.46653008 0.5001112 0.52060497 0.617637 0.6362575 0.54238456 0.6765152 0.6952218 0.6629963 0.6722747 0.6526665 0.76396525 0.73124254 0.6680305 0.57170916 0.607906 0.5351752 0.46116185 0.69091046 0.7075521 0.60224926 0.7515953 0.5461027 0.4684708 0.5224556 0.44531336 0.68746483 0.63312864 0.6762614 0.6136229 0.4316622 0.44489363 0.40691411 0.63495266 0.6083907 0.5503088 0.6142218 0.4440865 0.42325765 0.5351721 0.53716856 0.5308571 0.6729189 0.6962917 0.67836547 0.58425766 0.09714857 0.45362094 0.4090795 0.42008895 0.42066485 0.4192772 0.43283588 0.4206351 0.7500864 0.72738326 0.7068631 0.3592047 0.37949693 0.47554988 0.5680983 0.7593217 0.730214 0.7081666 0.11101893 -0.009867981 0.71068466 0.23727308 0.015777025 0.19136865 0.47725356 0.42790604 0.37086457 0.34831482 0.14582156 -0.13061604 -0.09704714 -0.06639977 -0.011889845 0.51066524 0.49272418 0.37292117 0.37367332 0.10470685 -0.0022647083 0.19222961 0.24896683 0.26727882 0.039929383 -0.040330403 0.25422394 -0.0108872205 0.36331466 0.05395776 -0.057059996 -0.06602972 0.08993884 0.36283576 0.4073423 0.34117755 -0.033584684 -0.014705613 0.43941242 0.40445334 0.098248616 0.056346193 0.08265934 0.53095347 0.21653473 0.13992138 0.15306732 0.6087107 0.29041675 0.22646648 0.21939325 0.64051574 0.28844535 0.24474606 0.6467223 0.63037866 0.23534748 0.2492382 0.2434815 0.5653394 0.16933998 0.17275274 0.1944128 0.42297006 -0.20590225 0.49671176 0.009668775 0.5187432 0.50122344 0.24329358 0.11654246 0.5100627 0.4831341 0.41310632 0.24220416 0.26838717 0.2417391 0.4700826 0.09593727 0.27238312 0.34167242 0.40273786 0.49172217 0.36654747 0.41167122 0.4829622 0.4511572 0.4075249 0.5708508 0.53734064 0.56914186 0.47739524 0.16499409 0.40059566 0.37237364 0.60548115 0.41725263 0.6678653 0.64536905 0.36953634 0.21599382 0.16032489 0.14892033 0.39361656 0.37793553 0.61385417 0.38002092 0.5638679 0.35544837 0.54649734 0.2597054 0.30435777 -0.052611142 0.4235545 0.43834955 0.47041813 0.47176367 0.6212802 0.6375083 -0.23140867 0.43864563 0.465571 0.42267296 0.66123235 0.05946719 0.05864101 0.1324603 0.38076425 0.46421245 0.3638524 0.37485215 0.6706799 0.6639097 0.018719845 -0.08132382 0.24492224 0.29742584 0.38753268 0.46363378 0.4298206 0.47362584 0.5913191 -0.2180173 -0.29036328 0.30985987 0.29094118 0.44685268 -0.007678002 0.0031294674 -0.009379044 -0.07337399 0.43088496 0.47242236 0.42438474 0.32555133 0.4073804 0.36206138 0.28600055 -0.13885507 -0.08013579 -0.040425703 0.14008741 0.031898722 0.4307847 0.5233934 0.46687877 0.38307542 0.3133937 0.29454735 0.14808553 -0.042608872 -0.13136679 -0.018501475 0.51541936 0.48403525 0.45484206 0.37910628 0.28421292 0.26626348 -0.04912314 0.297935 0.37780935 0.39541548 0.2703541 -0.1388641 0.25713655 -0.20549592 -0.23282677 0.20558341 -0.29834497 -0.02603166 0.075602435 0.11849895 -0.057523265 0.09306824 0.132131 0.14155321 0.37996578 0.24235705 0.12740758 0.07858379 0.029174408 0.0036769211 0.058621954 0.15118831 0.21147165 0.32686397 0.0673681 0.14494175 0.20767896 0.24584912 0.39238262 0.45034927 0.5621381 0.46473634 0.23946965 0.40949902 0.46859813 0.54379666 0.58212054 0.53953266 0.23423374 0.31460634 0.42777246 0.52415013 0.5808196 0.5253716 0.36045974 0.12728325 0.1410566 0.18615596 0.37081888 0.44398355 0.5638253 0.20112196 0.041340537 0.004295906 0.10295236 0.09666212 0.4256369 -0.2404165 -0.19153567 -0.13686728 -0.01389046 0.51972634 -0.050374642 0.07136139 -0.04573361 -0.121860296 0.5393297 0.18888716 -0.04470264 0.059134517 0.53861594 0.52582884 0.47187173 0.34159064 0.16657278 0.25160226 0.14200671 0.34212786 0.08566261 0.16509779 0.13046937 0.4015085 0.4710697 0.46595162 0.38100174 0.46678117 0.51169103 0.5473876 0.49502194 0.58133894 0.58672535 0.51840264 0.32868224 0.31350434 0.435095 0.4125519 0.26627445 0.26459342 0.3638307 0.42371842 0.3345785 0.17705423 0.054866895 0.12979218 0.3833264 0.34341353 0.509266 0.24749458 0.18543577 0.3408898 0.51194704 0.2229738 0.40838712 0.42637464 0.51391864 0.36214012 0.008373305 0.46534163 0.47359058 0.5833701 0.03813473 0.49259895 0.46918485 0.4539217 0.6001419 0.11493916 0.08179397 -0.16288026 0.5195309 0.53271204 0.42697966 0.3740682 0.28725493 0.5281405 0.03759609 -0.014223909 0.5007896 0.25125268 0.37499714 0.44765195 0.0776716 0.037554115 0.042511456 0.12892851 0.16241732 0.27422833 0.41995966 0.43216044 -0.036171198 0.03909778 -0.21192421 0.12428238 0.10109729 -0.1381712 0.23941524 0.07476358 0.16728619 -0.047617063 -0.12709832 -0.16398658 -0.14640146 0.37784785 0.30390194 0.236774 -0.16797325 -0.2293218 -0.07467045 0.2834165 0.3578759 0.30592313 0.3024465 -0.23975596 0.045795903 0.21785037 0.28237137 -0.16938816 -0.05656988 -0.2546698 0.07802173 0.1439122 0.10856739 -0.14856237 0.11263463 0.19436546 0.2179825 0.19845226 -0.07686724 -0.20072702 -0.011246274 0.029022232 0.06498963 0.21109349 0.24144259 0.29158324 0.18869288 0.15989201 -0.09111953 0.22870144 0.29386556 0.41313136 0.47034907 0.4862756 0.53082585 0.12246075 0.5807276 0.61753845 0.6446569 0.6954881 0.18649098 0.30807626 0.46399984 0.570147 0.6611948 0.70313394 0.03577163 0.08454047 0.07029328 0.14942764 0.34523553 0.55074453 0.35443598 -0.1369006 0.010988489 0.06620659 0.49490547 0.06370816 0.009986207 0.51835877 0.108183324 0.048884884 0.11307402 0.53064436 0.5247394 0.18260503 0.087064065 -0.089154504 -0.08333746 0.06498282 0.2563166 0.3650365 0.50183433 0.4401713 0.18554032 0.13992195 0.07103206 0.011186324 0.008787483 0.017126307 0.026241727 0.0991373 0.28468868 0.42004487 0.44251376 0.0031728446 0.059165962 -0.040891632 0.24582434 0.31382826 0.53317845 0.5362693 0.6123439 0.43064347 0.40678102 0.44529554 0.5797123 0.6507595 0.6567841 0.72169423 0.7279637 0.73908097 0.5980302 0.53814965 0.4342388 0.56475127 0.68571544 0.74811137 0.757784 0.79735005 0.81882966 0.82772565 0.72862583 0.6662927 0.72766376 0.81691015 0.81656456 0.8521552 0.85634315 0.7974921 0.4379268 0.40434283 0.3742792 0.5877999 0.5620361 0.51586115 0.47893667 0.38788077 0.38852465 0.36019278 0.27560484 0.4693048 0.56324947 0.52875245 0.48645744 0.14175808 0.2371963 0.2915722 0.3959009 0.41058594 0.0954892 0.26720783 0.42062223 0.16375741 0.15752089 0.21932325 0.44734037 0.058720663 0.124384046 0.40678874 0.48221797 0.11495931 0.020671919 -0.045886803 0.4407506 0.48310226 0.4757784 0.4704752 0.26035145 0.1218126 0.48013127 0.47442314 0.47426474 0.47368035 0.4771805 0.3691395 0.4725615 0.34346747 0.16327387 0.33333474 0.22692543 0.44426072 0.4790665 0.29624036 0.15826127 0.1211216 0.17518507 0.21236508 0.40334246 0.31888554 0.29947516 0.21357718 0.34148338 0.123597786 0.109302685 0.109521404 0.08665009 0.065743834 0.10576817 0.09986827 0.11070982 0.09139468 -0.18696602 0.2272169 0.14872795 0.28016803 0.1920692 0.28087106 0.23046355 0.28599787 0.2461972 0.20361988 0.13039699 0.016784888 0.14625435 0.15785636 0.13137731 0.22883774 0.18075219 -0.0659128 0.16091299 0.2074771 0.21775253 0.19546604 0.18415082 -0.06442329 0.26912874 -0.061617643 0.40588298 0.37118334 0.49296823 0.28963867 0.10523372 0.68433535 -0.018847853 -0.14664286 0.7322829 -0.26882005 0.67206085 0.7122492 0.045513242 0.3867236 0.4804476 0.5645498 0.6410226 0.17597672 0.09032422 0.061158627 0.3901188 0.4371125 0.20648085 0.5094348 0.50383896 -0.14409778 0.35327977 0.48622382 0.44761476 0.3171672 0.0935186 -0.008670256 -0.08056796 0.4031164 0.3662685 0.36915767 0.2760802 0.25853595 0.21482164 0.5387604 0.5920248 0.5493838 0.5018921 0.35857758 0.46354872 0.31906548 0.35735992 0.73541385 0.6777514 0.6652587 0.5444923 0.4469573 0.5003009 0.534467 0.8157749 0.73398954 0.6856676 0.51507473 0.4459043 0.66418505 0.71000266 0.81007874 0.86880845 0.8566059 0.7921433 0.84429455 0.83434486 0.71304506 0.493809 0.4866344 0.49557078 0.5589713 0.58824944 0.5701133 0.4584669 0.47368163 0.4487548 0.44207415 0.40661532 0.6108191 0.59858334 0.5806104 0.552433 0.5190513 0.40036005 0.4159002 0.5322092 0.54273 0.44856852 0.37445796 0.2311019 0.21368659 0.19486126 0.42836607 0.4826076 0.48689693 0.10351424 0.1075689 0.0194536 0.3855249 0.3516392 0.4434197 0.121255204 0.11117607 0.3940488 0.24506387 0.026224881 -3.6228448e-05 0.19745198 0.30483744 0.3549564 0.028665528 0.4411353 0.34427536 0.3799998 0.44150597 0.42002928 0.28578836 0.6381965 0.5622874 0.37434238 0.21372744 0.43997023 0.4701863 0.11694955 0.60484046 0.42337173 0.4605533 0.15822718 0.47301397 0.38522875 0.3845095 0.122753166 0.14457917 0.15024059 0.38864455 0.2449358 0.23051414 0.07969184 0.009670667 0.107078135 0.10776885 0.082395315 0.1722094 0.09386426 -0.009958267 -0.07129863 0.053841505 -0.21753527 0.086242735 0.08617313 -0.25058395 0.021621756 -0.040622573 0.12768093 0.059232324 0.17119119 0.26565155 0.29128534 0.20431414 0.11625411 0.15505299 0.109563164 0.10078114 0.148144 -0.02743335 0.11592379 0.20774446 0.2998284 0.32317507 0.34903023 0.09428598 0.08099483 0.09983757 0.16797583 0.32956803 0.36110368 0.14057374 0.15066159 0.14945568 -0.08863821 0.08344912 0.1461761 0.27592933 0.32356045 0.20296323 0.20269288 0.17211436 0.16218461 0.1519739 0.32303226 0.22410065 0.13802429 0.37962404 0.28369066 0.38937756 0.5893464 0.28372356 0.19242823 0.7110942 0.740762 -0.08454768 0.6529486 0.70162714 0.027287077 -0.0362712 0.34548217 0.48221213 0.5582625 0.59684175 -0.030808255 0.37884778 0.43730134 -0.0015764683 0.22345084 0.033477142 0.3332143 0.1983901 0.44114745 0.35214216 0.2974515 0.33230418 0.34135956 -0.08315854 -0.07110546 -0.012926556 0.4671099 0.47237322 0.20895131 0.63565755 0.54144704 0.6235324 0.30086926 0.62524784 0.7781501 0.58254755 0.68734396 0.42342722 0.3222661 0.739236 0.76465523 0.8358994 0.8371506 0.8267755 0.7219609 0.752622 0.74410206 0.661905 0.3371421 0.78788525 0.8114903 0.80549765 0.7659882 0.52494127 0.55052304 0.58720076 0.65865946 0.6913631 0.59918857 0.5953889 0.57824814 0.48050076 0.50420684 0.6421933 0.64941823 0.58908224 0.59884477 0.597968 0.55381095 0.5226518 0.37604597 0.5585821 0.5654607 0.57201767 0.55956507 0.28244328 0.1666531 0.20581543 0.4098022 0.54795384 0.51960325 0.49457163 0.049268145 -0.115541026 0.37871188 0.36865973 0.39181894 0.019517124 -0.10232733 -0.07849856 0.3515423 0.23283488 0.34525442 -0.067091376 0.03876895 0.08788149 0.28526986 0.38712502 0.39157295 0.68597275 0.6043632 0.5169005 0.21979545 -0.077946156 0.12081067 0.3640474 0.06209571 0.14743152 0.30867133 0.36811078 0.35139036 0.7239505 0.31228006 0.24378076 0.28936994 0.30585393 0.6943469 0.24912481 0.32528028 0.17810851 0.18984738 0.5847643 0.24684599 0.1907925 0.12926745 0.111501954 0.12520818 0.09351093 0.50128865 0.44845313 -0.117006354 0.3714529 0.36954445 0.08059388 0.10839784 0.0824517 0.08294374 -0.044752 -0.07298845 0.374884 0.33019036 -0.08347289 -0.05911456 0.04712827 -0.19097543 -0.08440441 0.012289479 0.020072766 -0.456136 -0.06462252 -0.061512373 0.27134207 0.13695267 -0.039803736 -0.11183636 -0.15372075 -0.20779982 0.058445454 -0.48966318 0.07395786 -0.0054334216 0.26668826 0.14087172 0.03663072 -0.13765484 -0.14132497 -0.19809958 0.1417659 0.48353335 0.32729962 0.3381344 0.29886377 0.15585855 0.07295874 0.021761246 -0.39843473 0.32706282 0.48212975 0.5023592 0.33929485 0.34313557 0.27280033 0.10983032 0.04769686 -0.07895887 -0.3246597 -0.11356859 0.30898768 0.50415754 0.5141354 0.03218688 0.030072123 0.06602194 -0.20291308 -0.1818962 0.22409295 -0.021630932 -0.16734722 -0.23390281 0.08537628 0.085105374 0.26312292 0.29402167 0.025364721 -0.49431503 0.0590865 0.3457095 0.3385799 0.15370199 0.34881276 0.3258015 0.28267705 0.6140961 0.12211163 0.5952729 0.024020817 0.55744785 0.15134569 -0.12287173 -0.110576615 0.42907536 0.5241152 0.1615318 0.07064478 -0.16358417 -0.043208536 0.026505575 0.051069617 0.19171937 0.2587254 0.28804138 0.30609527 -0.06627856 -0.02803643 0.37765914 0.40631658 0.06668169 -0.13251173 0.5941879 0.43032628 0.16941449 0.08691382 0.7201203 0.73140794 0.71538603 0.48011008 0.5216412 0.22787309 0.76987094 0.7851494 0.7523836 0.75246763 0.6288965 0.5131702 0.4070384 0.30585474 0.7809103 0.797848 0.8003379 0.55992466 0.652334 0.72354674 0.72917545 0.7245405 0.70983475 0.46798313 0.5249299 0.6848651 0.58000267 0.5772226 0.5590608 0.49182382 0.382451 0.40764856 0.5221876 0.56109667 0.27506712 0.47711885 0.54169095 0.5637002 0.320715 0.46296525 0.5134692 0.053295217 0.3363215 0.074369214 0.038163953 0.2783612 0.32529914 -0.0044167396 0.02360164 0.010929484 0.051786892 0.099809214 0.37850988 0.36879978 0.67502725 0.57274294 0.4285976 0.2931032 0.10237089 -0.01325687 -0.29222006 0.36759007 0.34663397 0.69177735 0.68086714 -0.31486455 0.3154469 0.24779648 0.6920638 0.04791343 0.13710898 0.09216973 0.618194 -0.2242707 0.2377184 0.12911622 0.1108416 0.45267263 0.3785224 0.37412977 0.046201617 0.043723695 -0.11589421 0.07558414 0.09105651 -0.07074497 -0.0919969 0.37447152 0.3698518 -0.08732964 -0.24919507 -0.6374232 -0.070111334 -0.088609025 0.34551868 -0.18502095 -0.12060851 -0.2976753 -0.073001385 0.28605342 0.43178397 0.4957496 0.5579294 0.2764631 -0.1463219 -0.12689948 0.4073578 0.48412997 0.52623206 0.60744965 0.28498894 -0.14283861 -0.12760746 -0.10971238 0.38911122 0.430714 0.45584238 0.52079 0.5707525 0.6225546 0.28754988 -0.043568313 -0.4172929 0.44380862 0.49866015 0.5180025 0.5622035 0.10773416 -0.3456183 -0.47682488 0.058594257 0.48422945 0.50380605 0.5411911 0.18652251 0.041541614 0.26452115 0.037707552 0.3059848 0.31973028 -0.12345603 0.32315832 0.2643955 0.24223807 0.14789476 0.24390912 0.15056127 0.34624356 0.13180985 -0.1258095 0.29905894 0.17452502 0.20813595 0.18200152 0.12832706 0.1974247 0.074747816 0.0012934059 -0.075296655 0.22101392 -0.006434381 0.05479394 0.07811759 0.17389546 -0.046726458 -0.0068288743 0.3175128 -0.1565108 -0.03744422 0.4449221 0.36702484 0.07357773 -0.026968017 0.6301762 0.65823036 0.66617185 0.61863124 0.40055585 0.36312142 0.16422352 0.7774844 0.78095967 0.7490387 0.70256525 0.3685217 0.21337724 0.3016587 0.3815922 0.79188836 0.4142009 0.51656204 0.50525403 0.56001395 0.5921814 0.67004323 0.72299355 0.7273786 0.724262 0.7147267 0.50334024 0.5413244 0.67596376 0.53915405 0.51861876 0.460276 0.30964643 0.36576116 0.408614 0.6220753 0.44412005 0.20698372 0.40890914 0.4894203 0.3091083 0.21412018 0.46611935 0.19421747 0.24206437 0.050614253 0.08583184 0.09979335 0.15004252 0.41084975 0.23265678 0.23075561 0.0077764504 0.025697937 0.17083378 0.42452157 0.26171303 0.55501