# vtk DataFile Version 2.0
Really cool data
ASCII
DATASET POLYDATA
POINTS 2457 float
-15.682386 -9.000773 -33.916965
-15.675226 -9.439971 -33.37938
-15.807623 -9.012851 -32.780334
-15.732113 -8.457906 -33.92337
-15.900089 -8.459728 -33.45468
-15.900167 -8.533589 -32.915134
-15.617625 -8.636765 -32.141174
-15.837179 -7.8501205 -33.444492
-15.705772 -7.7508197 -32.510628
-16.004858 -7.2663035 -30.271322
-15.992874 -7.1599646 -29.632812
-15.635444 -7.24541 -33.090294
-16.09026 -6.543041 -30.986721
-16.273382 -6.322457 -30.371813
-16.218458 -6.362546 -29.486317
-15.74923 -6.500341 -28.498695
-15.645247 -6.128528 -28.189611
-15.714943 -5.816676 -8.023663
-15.703672 -5.843768 -7.7424407
-15.610149 -5.7919755 -7.1004725
-15.907623 -5.869466 -30.97092
-16.06729 -5.7506623 -30.45853
-16.115839 -5.6700945 -29.77877
-15.902381 -5.6893215 -28.879211
-15.568543 -5.729107 -28.01003
-15.6987705 -5.065272 -9.061689
-15.871655 -5.303705 -8.22353
-15.926426 -5.290806 -7.569142
-15.794588 -5.295579 -7.037346
-15.823573 -5.2223854 -30.037754
-15.815098 -5.263158 -29.65751
-15.676809 -5.1965384 -29.019302
-15.667168 -4.6154957 -9.235475
-15.955155 -4.6433306 -8.288779
-15.985917 -4.6040473 -7.65939
-15.779774 -4.6333804 -7.0145464
-15.646646 -4.1691294 -9.072454
-15.753577 -3.9906776 -8.082526
-15.800756 -4.152016 -7.61142
-15.7152405 -4.1277094 -7.162391
-15.562024 -0.41897166 -24.415897
-15.612582 -0.5157878 -23.584064
-15.530128 -0.3438956 -23.065111
-15.534139 -0.016436018 -24.322395
-15.573448 -0.03446287 -23.465673
-15.124207 -9.909946 -33.903046
-15.237132 -9.996468 -33.320034
-15.179915 -9.976288 -32.83298
-14.857854 -9.894772 -32.225502
-14.61977 -9.798352 -22.76162
-15.394796 -9.276976 -34.060806
-15.529535 -9.59788 -33.641487
-15.454477 -9.619839 -32.601128
-15.306846 -9.474818 -32.19266
-14.7528715 -9.247383 -23.172924
-14.822458 -9.275 -22.49539
-14.752832 -9.160644 -21.860909
-14.943118 -8.726055 -34.595882
-15.370479 -8.569363 -34.277725
-15.081241 -8.266858 -29.860144
-14.783864 -8.670153 -23.019962
-14.894054 -8.652281 -22.411211
-14.732446 -8.567018 -21.807371
-15.3336735 -7.6181026 -34.114628
-15.4714985 -7.359735 -28.581245
-15.389822 -6.9591565 -28.036352
-14.816921 -6.9304137 -27.28458
-14.698369 -8.080931 -22.442839
-14.606562 -8.137055 -21.8139
-14.829745 -6.6214166 -7.5332284
-14.885878 -7.1128736 -34.131527
-15.2288685 -6.8449855 -33.188557
-15.534442 -7.1209455 -32.61457
-15.350881 -6.7147894 -27.825645
-14.88351 -6.6265593 -27.212166
-14.932479 -5.873387 -9.949459
-15.022797 -6.127436 -9.219106
-15.374113 -6.0111074 -8.534508
-15.433718 -6.101157 -7.477668
-15.119727 -6.0390606 -6.5727835
-15.476427 -5.4950757 -30.971615
-15.307174 -5.55336 -27.836273
-15.102063 -5.280594 -10.135801
-15.347222 -5.328419 -9.633774
-15.565526 -5.6332626 -8.814789
-15.404289 -5.5349603 -6.5665436
-15.116904 -5.444502 -6.264313
-15.443935 -5.138717 -30.391243
-15.436283 -5.0149097 -29.544186
-15.333843 -4.9098005 -28.604103
-15.051483 -4.884065 -27.915163
-14.830434 -4.1942873 -10.703684
-15.2311535 -4.5411873 -10.256791
-15.444131 -4.6348257 -6.624309
-14.973844 -4.712038 -6.2698755
-14.651374 -3.1926928 -18.185955
-14.859175 -3.1968288 -17.369589
-14.903802 -2.9912715 -16.643118
-15.040416 -3.8560953 -10.191841
-15.408194 -3.9909718 -9.507853
-15.362127 -3.7333808 -8.182476
-15.479443 -3.8274858 -7.5466366
-15.404371 -4.106687 -7.0195904
-14.820905 -2.007567 -24.994843
-15.029792 -1.9978911 -24.528324
-14.910341 -2.0906677 -23.607067
-14.823564 -1.9013883 -23.032673
-14.877402 -2.3949378 -18.012743
-15.063583 -2.4093442 -17.407051
-15.084471 -2.4093156 -16.63198
-14.771 -2.375146 -15.978176
-15.107732 -1.4457027 -25.194405
-15.391036 -1.1940928 -24.504051
-15.337761 -1.3261043 -23.448032
-15.069164 -1.3759392 -22.801468
-14.868617 -2.020464 -17.842043
-14.905912 -1.7739093 -17.486588
-14.969853 -1.7121342 -16.602222
-14.892603 -1.9659144 -16.06695
-15.013335 -0.57078755 -25.816992
-15.282879 -0.38977513 -25.41613
-15.525922 -0.64446646 -23.163216
-15.333143 -0.55210596 -22.716648
-14.978496 -0.27038908 -22.275753
-14.700855 -1.2451439 -17.199846
-14.823746 -1.2901814 -16.659752
-14.866449 0.17245005 -25.84955
-15.190511 0.26306558 -25.17393
-15.316633 0.40513754 -24.377552
-15.396309 0.37420118 -23.389633
-15.215263 0.2758786 -22.699848
-14.800679 0.19870375 -22.236124
-14.824719 0.6770896 -25.29942
-15.122963 0.73852664 -24.178839
-15.074733 0.8368833 -23.43677
-15.056689 0.7584344 -22.905733
-14.016035 -10.609464 -33.231716
-13.83903 -10.890458 -23.607977
-14.4784565 -10.004193 -34.140648
-14.54698 -10.34859 -33.42933
-14.722863 -10.289988 -32.829147
-13.8362 -10.525899 -24.26888
-14.222986 -10.217013 -23.461086
-14.07156 -10.425666 -22.448092
-14.143241 -10.011169 -21.804176
-14.228704 -9.050444 -34.66442
-14.2728195 -9.491854 -31.713099
-14.728892 -8.68828 -30.198923
-14.008232 -9.620907 -24.199947
-14.397322 -9.403526 -21.514507
-13.987805 -9.215967 -20.996847
-14.285645 -8.47418 -34.751637
-14.693726 -7.8498163 -28.24607
-13.908938 -7.69188 -27.2375
-14.231717 -8.874128 -23.795149
-14.417517 -8.784209 -23.611612
-14.521831 -8.578127 -21.478449
-14.191401 -8.590595 -21.015078
-14.431178 -7.671361 -34.618553
-14.759209 -7.658522 -34.475998
-14.618735 -7.2864876 -27.326557
-14.2432575 -7.416436 -27.162037
-14.488977 -7.96066 -22.885414
-14.515202 -7.846368 -22.438372
-14.308834 -7.7658343 -21.662107
-14.0103855 -7.848348 -21.059288
-14.150777 -6.7486973 -9.483677
-14.036159 -7.0564656 -8.428226
-14.322365 -6.7952147 -7.372567
-14.053382 -6.7203407 -6.929283
-14.738931 -7.0568075 -34.258263
-14.718683 -6.60576 -33.64843
-13.763884 -6.361126 -26.188131
-14.310923 -6.0209465 -10.45159
-14.275899 -6.553432 -9.144201
-14.569946 -6.494889 -6.737086
-14.404933 -6.1105695 -6.2378
-13.782291 -6.030205 -33.85732
-14.164528 -6.1789465 -33.496418
-13.7652445 -5.754266 -32.801838
-14.000821 -5.506806 -31.070904
-14.190822 -5.777273 -26.518051
-14.256339 -5.395975 -10.941254
-14.597891 -5.715684 -6.0325003
-14.565627 -5.1923633 -31.014933
-14.669642 -4.8424273 -30.082262
-14.18553 -4.791749 -27.06727
-13.997529 -3.8654857 -17.986818
-14.206057 -3.913829 -17.347475
-14.123947 -3.8925667 -16.881622
-13.898021 -3.7787414 -15.936316
-14.040866 -4.7353168 -11.19118
-14.467562 -4.863984 -6.102136
-14.034601 -4.3025985 -29.151705
-14.248586 -4.2357755 -28.308405
-14.199754 -2.8351274 -24.902748
-14.385305 -2.7580378 -24.692833
-14.094981 -3.1447546 -23.502562
-13.913267 -3.0634851 -22.948706
-14.15312 -3.0710812 -18.644182
-14.228074 -3.5261683 -18.240992
-14.571995 -3.5960407 -17.819788
-14.262921 -3.298833 -15.923864
-13.909469 -3.100692 -15.293349
-14.369187 -4.0835266 -10.948576
-14.808876 -3.6701155 -7.3853555
-14.764718 -4.0596657 -6.651696
-14.585916 -2.399018 -24.674898
-14.561988 -2.5980468 -23.94209
-14.474209 -2.307705 -22.881187
-14.600651 -2.359861 -18.35767
-14.298317 -2.5209076 -15.450875
-14.306605 -3.2813644 -10.4332485
-14.702096 -3.3974626 -8.629337
-14.690748 -1.5349586 -22.473753
-14.61731 -1.4539847 -16.034592
-14.668155 -0.12766409 -26.16147
-14.634429 -0.47884262 -22.09585
-14.27747 -1.1340475 -17.982826
-14.175083 -0.8626505 -17.436825
-14.234188 -0.8601099 -16.880102
-14.170981 -1.2142472 -15.902743
-14.637104 0.43282026 -22.206167
-14.514851 0.8402171 -25.340513
-14.497254 1.1553714 -24.311733
-14.372885 1.4202816 -23.355516
-14.286352 1.4439142 -22.926643
-13.56934 2.2420647 -22.471207
-12.826317 -11.627013 -23.758066
-13.287314 -10.744291 -33.88562
-13.177932 -10.981713 -33.368023
-13.381332 -10.844013 -32.761475
-13.319515 -11.183929 -24.2484
-13.421943 -11.269524 -23.44541
-13.281614 -11.253628 -22.905783
-12.993174 -10.886516 -21.80734
-13.162968 -10.081221 -34.56666
-13.782621 -10.456654 -32.197872
-13.3103485 -10.476701 -24.95122
-13.231842 -10.555491 -21.58808
-13.387269 -10.00502 -21.134674
-13.240942 -9.294415 -34.872917
-13.723209 -9.692191 -34.551964
-13.252878 -9.677924 -24.921352
-13.378076 -9.463807 -20.772804
-13.40523 -8.609946 -34.96379
-13.813545 -8.523763 -28.852816
-13.4827175 -8.17947 -27.899113
-13.353219 -8.53648 -20.494064
-13.070387 -7.599419 -8.873125
-13.67325 -7.6494856 -34.87091
-13.634618 -7.520171 -26.925928
-13.229465 -7.907219 -24.074446
-13.531668 -7.726945 -23.344313
-13.761092 -7.442615 -21.437069
-13.087891 -7.7875304 -20.685461
-13.11832 -7.2057323 -10.007231
-13.423873 -7.271962 -9.207632
-13.34479 -7.4319425 -8.632697
-12.955614 -7.4718237 -7.7415104
-13.494313 -7.0217566 -7.008938
-13.597018 -6.7929106 -34.629543
-13.681531 -6.3161087 -34.35792
-13.397678 -7.2726307 -22.405134
-13.5407915 -7.270571 -21.729406
-13.179111 -6.349595 -10.963207
-13.955709 -6.3605943 -6.4104166
-13.444667 -6.2881823 -6.3791065
-13.458896 -6.055376 -34.147774
-13.700786 -5.656126 -32.87598
-12.807024 -5.9611335 -24.518671
-12.625449 -5.748716 -24.066193
-13.605422 -5.3313985 -11.360704
-13.632746 -5.5287614 -6.1143227
-13.0245 -4.6142297 -30.414085
-13.26475 -3.9715624 -24.07649
-12.889462 -4.1251125 -18.268797
-13.559869 -3.8066444 -15.50848
-13.22729 -4.8318324 -11.461161
-13.34862 -3.9310942 -29.06861
-13.496393 -3.5584283 -28.213324
-13.449408 -3.5125852 -24.354382
-13.261577 -3.3418012 -18.905767
-13.619509 -3.5628538 -15.494975
-13.354044 -3.6671665 -15.233961
-13.577612 -4.004462 -7.034944
-13.256703 -3.0719006 -26.510843
-13.463104 -2.596782 -22.271881
-13.283808 -2.3383148 -18.98187
-13.219302 -2.836157 -11.579412
-12.870819 -2.4387424 -10.751496
-13.76329 -3.0466135 -9.590717
-12.752896 -1.2822747 -32.429424
-13.222099 -1.2331855 -31.513315
-12.878446 -1.4179275 -29.145058
-13.024462 -1.7500731 -26.820942
-13.425015 -1.7956781 -26.256475
-13.5033655 -1.8756392 -18.788116
-13.472407 -1.5624752 -14.480719
-13.333461 -1.1546667 -13.505133
-12.891252 -1.7141742 -10.780244
-12.734777 -0.7967064 -32.690792
-12.904311 -0.5727628 -32.280838
-13.1991625 -0.5195796 -31.474123
-13.098732 -0.56099516 -30.553047
-12.89504 -0.34307924 -29.577589
-12.77064 -0.67460746 -28.615147
[...]
POINT_DATA 2457
SCALARS features_00 float 1
LOOKUP_TABLE default
0.78853774 0.76010907 0.74695134 0.78514373 0.7837192 0.76397526 0.67072237 0.75408983 0.65976363 0.6071382 0.62799513 0.6441567 0.54649365 0.61118567 0.60979104 0.5548056 0.54281294 0.748721 0.77821785 0.829435 0.5506285 0.5940522 0.5924178 0.5788399 0.53388166 0.68238306 0.75833493 0.81904453 0.8504954 0.5691509 0.5734525 0.55998755 0.686141 0.77200794 0.81210864 0.8422538 0.7043499 0.76986283 0.8000575 0.8155141 0.6557466 0.6459281 0.63732004 0.63345015 0.63160026 0.7443062 0.7157649 0.6831566 0.5967717 0.7479148 0.7796972 0.7627586 0.69669044 0.6395154 0.7462914 0.7575354 0.75338084 0.7184304 0.76795197 0.447558 0.7401066 0.7517902 0.7520474 0.70243824 0.51606905 0.4974291 0.44861984 0.72996616 0.7418774 0.69753397 0.5929097 0.55728996 0.5494995 0.49716932 0.45746148 0.5726785 0.58294415 0.6610042 0.7778869 0.8068315 0.502065 0.5219976 0.60798526 0.6241865 0.66841143 0.85513055 0.8514019 0.5232502 0.53079313 0.52329516 0.5212796 0.60556805 0.62682736 0.84924495 0.8508843 0.76905537 0.7956192 0.7770461 0.6184606 0.66109115 0.72611916 0.7712747 0.808583 0.4906636 0.51855814 0.5210014 0.5473014 0.81793493 0.80747306 0.76269966 0.67188954 0.58183354 0.62789536 0.6065693 0.60018337 0.80919576 0.776997 0.69907796 0.65416306 0.5799031 0.6275536 0.637732 0.63097227 0.6169573 0.7006102 0.6545712 0.5300926 0.59167165 0.58972293 0.5994069 0.60988003 0.59796333 0.51899314 0.5419948 0.5367795 0.5605221 0.61124563 0.6734489 0.7035457 0.66377455 0.6398797 0.6721044 0.7155396 0.68996966 0.69693434 0.6207051 0.4458565 0.3015152 0.6765884 0.73694384 0.7096597 0.6075531 0.41535813 0.32979044 0.69353855 0.70931816 0.75019026 0.74287695 0.59123504 0.63370496 0.42435956 0.3894988 0.70646024 0.7132219 0.72440517 0.73486876 0.46363086 0.51800346 0.6273602 0.6195413 0.5700798 0.5193151 0.37491196 0.51265156 0.50387263 0.7094646 0.72531354 0.43412933 0.44173586 0.33206427 0.22769268 0.4558607 0.54756284 0.7818808 0.33727837 0.425397 0.49473006 0.66848993 0.7083528 0.6770144 0.5295799 0.55760247 0.84080863 0.37100554 0.41797578 0.40277335 0.42952973 0.41864637 0.4240132 0.7164196 0.70884335 0.7535261 0.6333175 0.50460464 0.55570704 0.73003554 0.7921702 0.46134245 0.45824072 0.49550304 0.81128037 0.5589504 0.46617112 0.63103557 0.5724373 0.5741388 0.4894554 0.59369755 0.7543051 0.6453742 0.561934 0.47545642 0.57456875 0.46147403 0.4294206 0.39016712 0.3964536 0.36069536 0.54916537 0.57799 0.55332875 0.53680766 0.60741717 0.62698996 0.6118717 0.5320946 0.51355517 0.52169603 0.6080169 0.5489069 0.5734477 0.45744026 0.56830657 0.55351156 0.6013894 0.46304634 0.24660602 0.21035005 0.68658626 0.43475103 0.49953896 0.3133565 0.56303954 0.63057995 0.69297636 0.6994103 0.38462445 0.42367482 0.45653725 0.50082815 0.5619049 0.47148824 0.4591139 0.5874404 0.64080715 0.3946599 0.6502398 0.60949504 0.43621963 0.33434945 -0.18296768 -0.20997119 0.49269557 0.651337 0.18549246 0.3416785 0.53007567 0.45396742 0.43968827 0.27120522 0.20063496 0.38662556 0.5969523 0.48535496 0.3980667 0.7791593 0.019896302 0.44043177 0.62542254 0.13659711 0.056349784 0.33164173 0.67945135 0.62409145 0.12018554 0.05010309 0.25369886 0.6813166 0.30087775 0.29536703 0.09901075 0.6632149 0.6537409 0.58474624 0.41763556 0.2756896 0.11485815 -0.0009904057 0.29848373 0.4141146 0.6022306 0.5608994 0.58228076 0.27727002 0.29792967 0.33625963 0.2531564 0.621555 0.54757345 0.46639895 0.26516607 0.24423864 0.32962418 0.3092338 0.4020159 0.40605098 0.3962568 0.24088317 0.36440653 0.40010995 0.40846086 0.4052661 0.30509236 0.33900312 0.35493284 0.5186248 0.5403019 0.35494992 0.4161702 0.5024369 0.5987524 0.592448 0.48357487 0.58376414 0.61971974 0.6006291 0.50194573 0.511636 0.50112706 0.5167905 0.52771467 0.48660922 0.38993713 0.51357085 0.49419492 0.48293537 0.47330284 0.44310522 0.4041955 -0.0051897317 0.40434068 0.38142696 -0.035038907 -0.08723411 -0.16089918 0.3989517 0.37609684 0.39741784 0.44019502 0.4723997 0.3044899 0.37029263 0.51848674 0.5262858 0.40227348 -0.07785042 0.28242207 0.55089504 0.5752271 0.41134587 -0.0857027 0.23869374 0.08936986 0.48464593 0.37320337 0.41274354 0.11401436 0.3521238 0.34561136 0.5053272 0.61087316 0.47744352 0.49551964 0.48153305 0.17816426 0.45511383 0.64528817 0.11267437 0.024323568 0.07482946 0.47868645 0.5574161 0.63290775 0.6223978 0.581558 0.3453855 0.30004185 0.18536371 0.07702696 0.33055413 0.28257418 0.31165445 0.43164527 0.49360782 0.52982354 0.6041949 0.5082588 0.39683884 0.17301226 0.16044526 0.23732626 0.37358117 0.29011494 0.33682996 0.37867782 0.39867502 0.3851421 0.31375802 0.41453016 0.49693924 0.24850081 0.51296055 0.38519263 0.34050572 0.5777009 0.5701803 0.3765424 0.47291875 0.54286796 0.61470306 0.5967896 0.56525457 0.59064275 0.6135782 0.60062194 0.77096546 0.7798105 0.77503693 0.7904234 0.78996927 0.7783606 0.79539114 0.4152223 0.40984243 0.4141649 0.47635806 0.4892326 0.49028504 0.44584996 0.368257 0.4122877 0.43225506 0.45729804 0.02382758 -0.032598257 0.060778886 0.4052984 0.35121796 0.46572697 0.41445643 -0.032693394 -0.09680648 -0.15066579 -0.16413781 0.27018124 0.43106976 0.35969746 0.40017378 0.4242693 0.4342789 0.4218457 0.41643476 0.21169217 0.29369825 0.45574677 0.33050522 -0.0028962046 0.034617826 0.05644729 0.026227476 0.01376377 0.3354708 0.26822641 -0.045030523 -0.13898481 -0.16992854 0.31224012 0.24627417 -0.06724871 0.15055236 0.25181517 -0.023068838 0.47725898 0.28513035 0.22772487 0.0073218876 0.6327311 0.28573713 0.30355585 0.6578815 0.34641358 0.4984963 0.63647056 -0.1179828 0.5384658 0.6139641 0.5785718 -0.06830611 -0.08525503 0.13053156 -0.04066474 0.11155855 0.5459038 0.54528034 0.58153296 0.43946034 0.34741193 0.1316399 0.16705681 0.3463316 -0.023475232 0.38548917 0.5158282 0.13217635 0.10510759 0.19011977 0.23194689 0.30515522 0.31960994 0.36116663 0.26716703 0.3816312 0.44954616 0.52744335 0.5344167 0.5027127 0.5694127 0.57741433 0.5634712 0.7431584 0.7466078 0.72065824 0.7319139 0.76180685 0.75248027 0.7021991 0.72645307 0.75721586 0.77837515 0.7306044 0.7224562 0.7367561 0.7571231 0.80682504 0.8257863 0.75820625 0.81474805 0.28270042 0.25700983 0.41669768 0.46728992 0.48112315 0.4801295 0.44093943 0.35065642 0.23006994 0.4704682 0.41843802 0.5052545 0.47895575 0.039166473 0.007811995 0.05624686 0.08016385 0.35985506 0.49647343 -0.09683891 0.24191095 0.22811106 0.48074448 0.17978552 0.29140472 0.29484236 0.3359049 0.33866268 0.49214634 0.19587442 0.16156717 0.04590995 0.058237217 0.16134779 0.32447448 -0.04243291 0.01918177 0.04425407 0.15555295 0.021559842 -0.111721866 0.10075522 -0.059194177 0.08702528 0.36186773 0.38639912 0.6025876 0.48270607 -0.2659089 -0.06069695 0.12549621 -0.037169974 -0.09252652 -0.06918444 0.19256283 0.012347482 -0.01292105 0.07460585 0.034108907 0.06898162 0.11787432 0.054376513 0.23690604 0.32230413 0.3845663 0.41308177 0.20284116 0.40324086 0.65293515 0.5231428 0.52933013 0.51433843 0.47848833 0.7070454 0.64954007 0.5838256 0.6761829 0.6486139 0.69799095 0.67652404 0.74200165 0.73133266 0.71819836 0.7120898 0.76738894 0.71947694 0.7053203 0.70483637 0.6828042 0.6742244 0.24516065 0.29738715 0.37783605 0.46236593 0.47812396 0.36608475 0.31853598 0.27437246 0.25050738 0.19817197 0.22793725 0.47867393 0.46096003 0.5237795 0.5098926 0.44015336 0.53022325 0.31616324 0.5329305 0.26055652 0.246878 0.24234392 0.20794931 0.24324113 0.23998821 0.20104545 0.21881378 0.5116747 0.2093772 0.4817987 0.4432711 0.18286303 0.31053615 0.12917624 0.096680224 0.4352125 0.28056014 0.26423174 0.28098416 -0.11174306 -0.061238687 0.45451355 0.16776615 0.0071860403 -0.01930572 -0.07318209 -0.053231746 0.008963019 0.025606453 0.060851667 -0.066297695 -0.08467697 -0.0076064207 0.2233178 0.31074768 0.34454393 0.11697698 0.29956728 0.049298443 0.011215813 -0.045342308 0.69664395 0.31274977 0.7701507 0.7743132 0.7723246 0.7539774 0.53304034 0.47838986 0.42006746 0.44937435 0.41129795 0.37992644 0.29068097 0.791076 0.79958105 0.784552 0.31909585 0.44356182 0.59415483 0.41826433 0.5093584 0.50693727 0.66145253 0.60227615 0.6275336 0.6816945 0.63986814 0.6594035 0.66088355 0.6718596 0.6286455 0.6422889 0.6535197 0.26563612 0.44805324 0.45116526 0.17055556 0.30948132 0.3349241 0.31337208 0.28220582 0.2641029 0.20264554 0.20477986 0.38000366 0.42844105 0.45317125 0.46888915 0.4140596 0.27562478 0.5269057 0.5190558 0.2850191 0.52522635 -0.024569064 0.13794792 0.27555606 0.24972124 0.15886043 0.1285595 0.16820222 0.13987494 0.508224 0.14209956 0.12177941 0.46930802 0.289142 0.42404673 0.26552194 0.13966492 0.026983302 0.14501463 -0.017819092 0.16187993 -0.115983546 0.40359056 0.08953048 -0.07811879 -0.14589238 0.37651485 0.39030978 0.637905 0.66547847 0.15121613 0.03640583 0.08124694 -0.024042927 0.06472322 0.22739607 0.22163364 0.7389014 0.68521595 0.70556325 0.2838075 0.24090314 -0.18302643 -0.12599051 0.2738227 0.07643832 0.1000726 0.32320625 0.7542659 0.7592814 0.7402563 0.30099106 0.25437924 0.1458878 0.7625914 0.793628 0.806309 0.7867409 0.32227436 0.23099652 0.78160346 0.79968643 0.8142348 0.8106314 0.35457465 0.47511142 0.3986282 0.57207763 0.44493663 0.6392741 0.5511936 0.6028244 0.62095517 0.651046 0.6098154 0.60232234 0.6083003 0.24013188 0.2945662 0.31761277 0.23223715 0.18369149 0.23386464 0.25839883 0.23859188 0.27301776 0.36456102 0.4022949 0.41264886 0.41195518 0.26486558 0.19409078 0.20220666 0.37345016 0.35433125 0.49095494 0.35034594 0.1938041 0.5120493 0.49520922 0.06338844 -0.00015056133 0.20140846 0.225665 0.17227125 0.13080145 0.15735096 0.13735716 0.5032799 0.48810244 0.138346 0.1663152 0.22681552 0.49125335 0.37386072 0.37368247 0.38361531 0.287147 0.026178055 0.3516138 0.34817025 0.24956037 0.32375124 0.22595713 0.071933776 0.11175041 -0.17816716 0.09158139 -0.13998485 -0.23105106 -0.13161644 -0.51596683 0.09392853 0.33120993 0.6111489 0.64197314 0.66638875 0.19973144 -0.11452365 0.0029667318 0.041209504 0.3290524 0.3148124 0.68755877 0.2732201 0.15405975 0.13518266 0.25230885 0.30893564 0.34722123 0.3728681 0.41291726 0.69465554 0.7008061 0.31497297 -0.26909792 0.19537744 0.23795977 0.25618172 0.20113021 0.3374586 0.72994643 0.7924741 0.7549208 0.33133888 0.7625636 0.80113846 0.8212913 0.80082095 0.3292879 0.32044637 0.46419287 0.46254998 0.40129983 0.64635485 0.46261668 0.5346413 0.5849462 0.6044841 0.6264731 0.57059443 0.584805 0.29162535 0.28993163 0.25985414 0.22743145 0.2225838 0.363317 0.23661491 0.13697283 0.19396232 0.301415 0.31959206 0.27331078 0.4092751 0.21337381 0.20104416 0.18155618 0.45051214 0.094086416 -0.0185484 0.1428772 0.24033307 0.22364669 0.15832278 0.12270807 0.12620127 0.44511086 0.14719215 0.19637856 0.32236183 0.5155892 0.35711268 0.37714946 0.34731185 0.3852142 0.3262433 0.13223507 -0.47993594 0.37031326 0.33869642 0.24975857 -0.14638911 0.12551725 0.01631055 0.5788289 0.13586304 -0.32460663 -0.29042864 0.6313398 0.20002419 -0.34438318 -0.19685148 0.63256204 0.6312749 0.2714303 0.14847244 0.10177516 0.21027622 0.21465215 0.30702806 0.41058546 0.4212298 0.6779891 0.6436902 0.31111458 0.018412754 0.1750337 0.23217681 0.28073505 0.31243458 0.23540854 0.34230173 0.37568 0.40178788 0.6376981 0.70592964 0.655015 0.3378504 0.24714586 0.69017935 0.7416556 0.7811526 0.7690475 0.33975315 0.09437558 0.3260391 0.32247126 0.33381718 0.62478226 0.39343953 0.46463156 0.58841634 0.6107677 0.20710236 0.1623548 0.2024874 0.10743797 0.13969828 0.15544751 0.16228078 0.06833046 -0.082288526 0.15439104 0.1577358 0.11498689 0.25566435 0.30910793 0.21627617 0.07383566 0.052183572 0.024403557 0.26922244 0.25626722 0.2348761 0.1599488 0.14229462 0.16709249 0.025813844 0.18916392 0.17805985 0.30016035 0.34966102 0.36563182 0.21505749 0.3769258 -0.13127606 0.35460314 0.3662805 -0.044551477 -0.1629873 -0.3849746 0.3208571 -0.14008279 0.2686947 0.16400996 0.124081984 0.051659442 0.19506767 0.08527847 0.56442 0.067062475 0.124341495 0.13100463 0.08402087 0.3798405 0.57793105 0.60433644 0.1831724 -0.119269684 -0.046863377 0.18692243 0.13397056 0.27535263 0.4595475 0.45475408 0.5932858 0.62202084 0.268293 0.1658436 0.11331581 0.20550069 0.30068004 0.31908044 0.24415717 0.28154877 0.33355078 0.358455 0.4225924 0.5071295 0.66965073 0.32546997 0.23409623 0.25167117 0.27956647 0.5837582 0.65950423 0.6969638 0.36180118 0.40579838 0.35151893 0.3495251 0.32486936 0.2908008 0.24385896 0.28023684 0.48053628 0.102670714 0.04380943 0.2803431 0.24208125 -0.020196483 -0.011737302 -0.24381801 -0.0524679 -0.01700145 -0.008782474 0.23116875 0.21772975 0.177978 0.14823075 0.14476141 0.16119456 -0.21215937 -0.125777 -0.10751266 0.17492117 0.18585736 0.24080592 0.2864651 0.28253025 0.3178659 0.5861366 0.30324757 0.52845156 0.14113635 0.24848382 0.27103308 0.21266203 0.21539661 0.1751408 0.18733747 0.14021961 0.16826585 0.13872477 0.022865936 0.09755909 0.48802263 0.10500856 0.16752948 0.32695043 0.081187084 0.5433206 0.09900509 0.15696545 -0.08859493 0.13362172 0.23545183 0.37357777 0.44294238 0.5866303 0.16961682 0.06050098 0.01868955 0.009834029 0.23426728 0.27987227 0.25528735 0.22464721 0.23626842 0.32774466 0.34282357 0.42599538 0.6989712 0.50488734 0.57006323 0.6233775 0.35818893 0.3417228 0.27793455 0.31661555 0.30309215 0.26006544 0.43930793 0.4103995 0.40484637 0.40263474 0.26172963 0.3821501 0.3583023 0.16049646 0.15697795 0.25112376 0.097841464 0.0768741 -0.056886736 0.04224463 -0.123717666 -0.04889389 0.18683858 0.116912216 0.109323196 0.1276029 -0.1839478 -0.090552345 0.03588579 0.04523821 0.08428718 0.072465725 0.17510384 0.26701915 0.28275064 0.60354924 0.46432444 0.28903008 0.63775504 0.63665724 0.27878484 0.593277 0.558374 0.51023245 0.4582246 0.31213373 0.08958072 0.09244559 0.18581268 0.0998885 0.16812883 0.21453258 0.15426725 0.11549674 0.19246915 -0.30095607 0.45233902 0.48159584 0.20399448 0.15231627 0.37249213 0.5091678 0.16020012 0.1201827 -0.14159943 0.32738364 0.5610447 0.542076 0.005524993 0.14260621 0.15167719 0.41413844 0.46453768 0.53670037 0.6334146 0.35661978 -0.000519678 0.37539518 0.3187273 0.5349168 0.34158668 0.32901973 0.2700566 0.33114576 0.3132012 0.26860815 0.24349517 0.4130626 0.40842074 0.3631663 0.34349936 0.4134127 0.45154256 0.44094968 0.23271498 0.26795158 0.3727588 0.37866494 0.19533576 0.078232706 0.042470086 0.07839053 0.08402787 0.016482003 -0.0064680735 0.21282193 -0.07527019 -0.013815339 -0.2616216 -0.15385306 -0.005182881 0.02200213 0.10400731 0.16114658 0.234604 0.27107117 0.5991578 0.47930455 0.11516782 0.15213878 0.22253776 0.26541275 0.63572025 0.23157296 0.6137397 0.5240998 0.4184876 0.27223483 -0.0057762256 0.030929808 0.15044236 0.2271968 0.23354161 0.26393804 0.2770129 0.24058646 -0.24887145 -0.25640014 -0.17452334 0.46259695 0.22224429 0.14155816 0.4339243 0.4854562 0.22282341 0.21900952 -0.068190835 0.28259146 0.31085533 0.3963818 0.40678233 0.43743616 0.47825673 -0.05127888 0.017335057 0.06982231 0.04615636 0.015925352 0.14778456 0.33132926 0.06095911 -0.02675604 0.24474096 0.33490443 0.40086025 0.45477045 0.5415212 0.31224382 0.12549983 0.10948111 0.3093493 0.30069414 0.2312245 0.28247827 0.34005204 0.3091325 0.3995951 0.45355183 0.36108178 0.41580755 0.44599414 0.45301718 0.3964088 0.29463717 0.33934894 0.28745365 0.3050236 0.17457807 0.063278385 0.06430391 0.068840675 -0.016959041 0.026023302 0.022533346 0.17076913 -0.024327787 -0.020989574 0.098953895 -0.039085075 0.49679923 0.43557012 -0.021977074 0.14894326 0.21438801 0.6120962 0.5804428 0.048130825 0.043695986 0.5619428 0.5220803 0.53716236 0.5013641 0.48978603 0.2633018 0.20618767 0.29690707 0.30582207 0.33784088 0.24390471 -0.098891065 -0.12708677 0.22501299 0.3312711 0.3708964 0.37488794 0.22637185 0.3748216 0.3695331 0.23627272 0.097827695 0.13214588 0.079092555 0.4698704 0.24952263 0.26354522 0.2734287 0.37175044 0.40474045 0.49360886 0.5170968 0.29564166 0.30185327 0.32234997 0.12896526 0.44771478 0.4725031 0.3074688 0.32187843 0.33009577 0.29673082 0.25568056 0.31765112 0.29045582 0.3145815 0.39465344 0.30810526 0.34330112 0.34054363 0.33146542 -0.02234416 0.29836738 0.02465437 0.010884441 0.14141779 -0.026541807 0.023709157 0.34484714 0.22870016 0.010399278 -0.054946937 0.22115617 0.27537265 0.3217033 0.49446982 0.40113938 0.08434521 0.52759033 -0.0021038651 0.4940785 0.4665048 0.41175437 0.2806819 0.35581267 0.4353673 0.36634642 -0.04439252 0.31101352 0.3572033 0.4025233 0.37796426 0.23058166 0.37505418 0.4027263 0.18672132 0.16392635 0.1233789 -0.108539134 0.041751083 0.29370335 0.39548793 0.37831593 0.1694799 0.18132204 0.18930012 0.075843014 0.17898998 0.45038417 0.21253422 0.24028876 0.32649744 0.10852685 0.11657551 0.15319276 0.17829438 0.16616946 0.12356284 0.06776526 0.2509013 0.38739353 0.48124146 0.49750516 0.27337068 0.35138994 0.3392428 0.24953267 0.36278033 0.4701761 0.6473608 0.546 0.47820413 0.42844984 0.6643924 0.19828902 0.51208544 0.60589087 0.16214211 0.47522718 0.33674794 0.32892925 -0.06860596 0.32145226 -0.21147701 -0.025530556 0.21144253 -0.018758873 0.36010945 0.46578574 0.46524388 0.02046971 0.15478942 -0.06837155 -0.044575516 0.20532009 0.40868595 0.29017907 0.391815 0.26797527 0.2243137 0.22347145 0.470896 0.29647774 0.30177712 0.47286296 0.38921747 0.25707707 0.43997353 0.29844636 0.35422748 0.20949565 0.37006742 0.3705696 0.35351264 -0.08225763 -0.1595142 0.330409 0.33060545 0.34688875 0.38892552 0.38424242 0.19504438 0.3607009 0.39759243 0.3107029 0.16633284 0.09588159 0.10687044 0.23449856 0.088482946 0.3680491 0.048921086 0.09575102 0.40183467 0.2315425 0.09318769 0.16335195 0.16047971 0.17258322 0.14778018 0.18444853 0.3450813 0.36633956 0.43490142 0.4224909 0.6167134 0.41126624 0.73209506 0.7509921 0.6621468 0.4979682 0.74330723 0.7333002 0.4511279 0.6614375 0.70705354 0.69337255 0.24816497 0.27010846 0.64321816 0.6269382 0.63226104 0.29038882 0.47911936 0.5576243 0.326607 0.33434898 0.33212107 0.2110385 0.18345465 0.3260469 0.31317574 -0.14760117 0.23878735 -0.036960285 -0.10770999 0.21093151 0.39379382 0.49419397 0.493922 -0.28561682 -0.07166639 0.19152361 0.4426154 0.34833178 0.2911456 0.39802504 0.4162099 0.38484538 0.35017607 0.21637338 0.32939672 0.3016653 0.35088402 0.15980724 0.33235794 0.3371532 0.06962947 0.30832747 0.31540316 0.19068614 0.29626322 0.36795145 0.32008886 0.16949654 0.37794015 0.25295016 0.44051212 0.36784938 -0.087865196 0.104514815 0.55179286 0.1623313 0.095153034 -0.09408134 0.0963509 0.45931074 0.36406475 0.16671912 0.21582294 0.19240582 0.20107666 0.13256857 0.19921947 0.31574535 0.36172432 0.35410976 0.7472434 0.7840164 0.797301 0.80502725 0.75064135 0.79178756 0.788218 0.6713692 0.7110926 0.71050483 0.4565339 0.65302837 0.7154974 0.708266 0.69468427 0.3162015 0.6510502 0.34188682 0.28564695 0.3705246 0.2143985 0.3818361 0.3509481 0.36450243 0.2262184 0.3263973 -0.10881199 -0.089875884 0.287913 -0.02750481 0.07704733 0.15710287 0.40102333 0.5122496 0.21395385 -0.11814303 0.17255023 0.4432772 0.37265557 0.1435452 0.19507927 0.2893774 0.41797298 0.14978784 0.42321375 0.41831633 0.35457528 0.29567355 0.21354792 0.16709763 0.24786194 0.43919608 0.34415054 0.21904337 0.31405067 0.323429 0.2827741 0.19004905 0.2597434 0.46945053 0.3689165 0.32028186 0.515255 0.5497149 0.5695659 0.4646144 0.42153037 0.59482944 0.5860166 0.4699819 0.41887915 0.3327628 0.077876456 0.13427104 0.24679807 0.23659086 0.24445139 0.17563114 0.06597277 0.25268385 0.3565569 0.5511654 0.43122306 0.6911808 0.40440872 0.09598169 0.4261287 0.40715086 0.28278357 0.27584165 0.39428756 0.747267 0.69968075 0.6689948 0.60339475 0.45889455 0.74446416 0.73874986 0.6794603 0.67146885 0.69493055 0.69136095 0.42593414 0.41388607 0.6893376 0.67752934 0.3368475 0.3632281 0.6391702 0.3388541 0.457968 0.3776958 0.3850068 0.36831728 0.35350996 0.36346596 -0.02549091 0.16153196 0.20152414 0.27227977 0.25049454 0.21105276 0.14396623 0.013864819 0.49833968 0.16999625 0.2907149 0.15461932 0.25735182 0.34814477 0.3564756 0.38283998 0.15579511 0.29766113 0.3074631 0.34221852 0.26702252 0.59287024 0.57909775 0.20221427 -0.28473777 0.14365588 0.21657032 0.21447642 0.2497964 0.03801954 -0.2905962 0.20054543