# vtk DataFile Version 2.0
Really cool data
ASCII
DATASET POLYDATA
POINTS 7891 float
-26.79667 -6.6649656 -1.0531907
-26.855846 -6.7833276 -0.45616388
-26.876959 -6.6621046 0.23544347
-26.745205 -6.1458526 -1.7790413
-27.029808 -6.22307 -1.2971475
-27.210918 -6.2838635 -0.49232084
-27.130785 -6.266933 0.33704752
-26.912554 -6.1938295 0.7662549
-26.857735 -5.6109304 -1.8010961
-27.195385 -5.6466475 -1.2701342
-27.34703 -5.605024 -0.40867266
-27.256971 -5.627151 0.2676392
-26.911795 -5.670976 0.8564315
-26.96875 -4.881747 -1.2376759
-27.05144 -4.7868366 -0.26818046
-26.879839 -4.7356234 0.2741148
-26.333124 -6.8052015 -1.2614014
-26.506363 -6.937486 -0.33112115
-26.452785 -6.7933955 0.36348212
-26.035234 -6.6499915 0.7467562
-26.389843 -6.266714 -1.9014679
-26.579172 -6.5085077 -1.5818882
-26.70634 -6.6019754 0.5903965
-26.438171 -6.3612146 0.9150294
-25.875717 -5.358474 -2.5820987
-26.314535 -5.4646597 -2.22862
-26.052212 -5.2253637 1.3422451
-26.242453 -4.810388 -2.1846824
-26.64891 -4.55762 0.17081574
-26.175816 -4.7263727 1.0328369
-26.132626 -3.8192863 -1.3380127
-26.499235 -4.2403593 -0.12886417
-25.97826 -3.9254165 0.39560372
-25.599062 0.7690199 4.1167083
-25.774723 0.86611736 4.6462708
-25.685915 0.7863153 5.224286
-25.755215 1.5026679 3.9353728
-25.867855 1.4575976 4.4711456
-25.986015 1.739178 5.5772667
-25.857414 1.685403 6.3086123
-25.766438 2.0602245 6.997867
-25.748894 2.3809438 4.010648
-25.8621 2.607441 4.5619617
-25.993853 2.37416 5.3051243
-25.901436 2.4908438 6.4379773
-25.792671 2.5473344 7.001571
-25.656488 3.3102486 4.567245
-25.800074 3.2357292 5.599496
-25.786285 3.1463773 6.366491
-25.6257 3.1850262 6.827427
-25.67892 -6.9201055 -1.203415
-25.576036 -7.0017796 -0.37038472
-25.547832 -6.866664 0.23252548
-25.738276 -6.634926 0.74315274
-25.449324 -6.1739936 -2.2724357
-25.619524 -6.257764 1.0484021
-25.174198 -5.3144894 -2.9560423
-25.398067 -5.506403 1.4497671
-24.903166 -5.1593757 1.7383298
-25.32646 -4.5736556 -2.8966546
-25.52992 -4.7684255 1.4416016
-25.178843 -4.9067764 1.6521598
-24.877623 -4.0646024 -3.039824
-25.29832 -3.691783 -2.4199789
-25.390186 -3.539914 0.43414807
-25.665712 -3.96807 0.87787044
-25.036566 -2.9329572 -2.0600302
-24.92961 -2.607936 -1.5313034
-24.702127 -1.9896729 -1.3869032
-24.679375 -0.31550896 -2.7514496
-24.818579 -0.25875407 -2.369029
-24.95632 -0.31894156 -1.5665992
-24.750362 0.0037056766 -0.872908
-25.09551 0.2740242 3.9959002
-25.158838 0.18847537 4.5161967
-24.96922 0.10636324 5.021782
-24.596577 0.09103878 10.70676
-24.588604 0.1362768 11.007729
-24.861158 0.4445807 -2.4372907
-24.970772 0.43101585 -1.7401015
-24.725918 0.27047563 -0.6592543
-25.371277 0.7406622 3.8393874
-25.51816 0.53191066 4.5492606
-25.567654 0.5981004 5.009287
-24.714243 0.93593174 10.042632
-24.696295 0.67162734 10.765374
-24.627455 0.57196677 11.215981
-24.71886 1.5695904 -2.3690863
-24.842667 1.1938243 -1.4733583
-24.716558 1.2978787 -0.7810045
-24.965284 1.7292645 2.8082163
-25.45239 1.5067563 3.5473266
-25.327888 1.6433947 7.4483666
-24.620491 1.5553738 9.702897
-24.630713 1.2149026 10.852628
-24.600557 1.1221467 11.272449
-24.652445 2.0941215 -2.168805
-24.718554 2.064806 -1.487497
-24.62386 2.064007 -0.8509088
-24.690607 2.4206772 2.0051754
-25.231213 2.7062652 2.7877955
-25.414532 2.579386 3.3829513
-25.377457 2.6790268 7.487214
-25.256435 2.5278728 7.696437
-24.531717 1.9492875 9.89241
-24.543207 2.035942 10.345081
-24.64976 3.7008169 2.1283774
-25.10422 3.5623865 2.742506
-25.453262 3.370637 3.532437
-25.34145 3.6966338 4.1355095
-25.539907 3.5882635 5.384927
-25.553291 3.4998767 6.498507
-25.389235 3.2232528 7.1450567
-24.953342 3.9306908 2.8192794
-25.191555 3.9473803 3.6674438
-25.094938 4.094727 4.443078
-25.019707 4.174507 5.896649
-25.105413 3.9981039 6.4724255
-24.999405 3.8281155 6.953562
-24.737467 -6.662731 0.18802804
-24.377241 -5.8947277 -2.8640337
-24.251387 -6.350782 0.5701947
-24.58181 -5.9773602 1.2159426
-24.586857 -5.178059 -3.2104278
-24.468332 -5.2227964 1.7324483
-24.451027 -4.6604013 -3.3348732
-24.535076 -4.802319 1.8410884
-24.45864 -3.8526068 -3.1095974
-24.405174 -3.6152205 1.3829181
-23.830606 -2.1975071 0.7054508
-23.82875 -1.5881071 -2.9973288
-24.43108 -2.12547 -0.8429117
-23.743696 -2.0415573 0.5187258
-23.799145 -0.74692035 9.760833
-23.87474 -0.8510408 10.46363
-23.9086 -0.65739655 11.178351
-24.134293 -0.31216377 -3.2901669
-24.405941 0.026002854 3.882242
-24.597097 -0.05099076 4.397628
-24.745289 -0.048537195 4.9578385
-24.64346 0.4130037 5.932343
-24.12617 -0.30772567 9.813914
-24.201035 -0.43285075 10.4678545
-24.194414 -0.12587845 11.45228
-24.00267 0.008328766 11.813025
-23.812756 0.37621477 -3.6349058
-24.301077 0.44613776 -3.172996
-24.078892 0.98826766 0.10545373
-24.077852 0.83316314 2.760108
-24.565891 0.7468438 3.3761013
-24.051783 0.47725275 8.810472
-24.449024 0.7429772 9.648093
-24.48923 0.48323914 11.50259
-24.105034 0.55441135 11.919143
-24.147274 1.6461022 -3.16287
-24.15798 1.5405529 1.8584455
-24.45284 1.7435443 10.832485
-24.475506 1.2373765 11.375471
-24.140667 1.1449263 11.880641
-24.038359 2.3982253 -2.9506903
-24.414082 2.306745 -2.4448621
-24.508545 2.5182729 -1.3056983
-24.367844 2.4787316 -0.53384113
-24.134882 2.3521023 0.76422876
-24.560158 2.456954 2.0822315
-24.386656 2.5849962 9.857976
-24.43605 2.3099694 10.314001
-23.969927 2.5590012 11.123103
-23.870188 1.9427162 11.794064
-23.878695 2.7000768 -2.7693129
-24.119751 2.77184 -2.3020642
-24.21014 2.8388865 -1.82992
-24.25874 2.7544167 -0.91709083
-24.161266 3.145573 0.9344133
-24.281002 3.4804227 1.5831954
-23.749304 3.506759 7.9904904
-24.057272 3.0408149 9.447206
-23.875961 3.4231653 10.124976
-23.801525 3.1149406 11.086057
-23.886318 4.3275304 1.6333171
-24.594896 4.3498373 2.8619235
-24.630733 4.4457984 5.4653997
-24.267956 4.4544516 6.2481704
-24.659481 3.7557778 7.289647
-23.893011 4.637266 2.795834
-24.199791 4.74566 3.614235
-24.295359 4.6871567 4.3419867
-23.322784 -6.690826 -2.0182824
-23.153585 -6.804564 -1.2775254
-23.654652 -6.6679816 -0.35589072
-23.942217 -6.5879254 -0.041428
-23.460741 -5.9628935 -2.9444149
-23.417925 -6.4313807 -2.397435
-23.466633 -6.3461003 0.35696003
-23.841232 -5.7607036 1.3170459
-23.500668 -5.5361085 -3.1887262
-23.913862 -5.5749865 1.4740584
-23.527327 -5.017393 1.5785488
-23.706081 -4.888298 -3.3610446
-23.962894 -4.4424963 1.7839993
-23.71716 -3.805257 -3.126001
-23.519573 -2.5959651 -2.851728
-23.073105 -2.4663353 1.3420556
-22.711561 -2.1412659 7.967614
-23.11891 -0.9319479 -3.641453
-22.576826 -1.372232 5.786718
-22.571972 -0.8370513 6.1558676
-23.055656 -0.9890346 8.851844
-23.37408 -1.1190764 9.805974
-23.421265 -1.0869911 10.529854
-23.335571 -0.7550455 11.325999
-23.11599 -0.3538825 -3.7709005
-23.654226 -0.7297085 -3.5029829
-23.254955 0.010436028 1.6940802
-23.231451 0.07451126 2.8371882
-22.606813 -0.6711691 6.6123557
-22.874538 -0.19221464 7.89603
-23.204916 -0.33329093 8.696375
-23.6944 -0.58540237 11.354666
-23.452267 -0.12703311 11.9535055
-23.436954 0.7680326 -3.686032
-23.614145 0.64992774 12.200531
-23.305351 1.4352882 -3.5912821
-23.185072 1.5118932 -3.4698
-23.418356 1.3981854 12.135855
-23.397661 2.3131697 -3.298314
-23.60974 3.0128367 -2.489383
-23.34108 3.328806 11.551823
-23.040924 4.145408 -0.052632064
-23.23949 4.6464763 0.70604706
-23.630484 4.464349 1.6178052
-23.334463 3.7854133 8.479585
-23.059017 4.0902195 9.32365
-23.057718 4.2626915 10.255748
-23.014927 3.9871879 11.301772
-22.772867 5.123094 0.5419607
-23.178818 4.9860067 1.5723505
-23.457876 4.9600453 2.709281
-23.526335 4.970467 3.6906843
-22.621199 5.634692 6.99862
-22.551516 5.8623037 7.8588414
-22.722063 10.119238 -0.1696223
-22.74948 10.557156 -0.3461342
-22.855087 10.742184 0.43255472
-22.812029 11.342397 -0.16127165
-22.83066 11.475429 0.42692766
-22.689981 11.341687 0.98021305
-22.665367 11.868652 0.028267577
-22.666811 11.863685 0.4290396
-22.717058 -6.729668 -1.9606886
-22.516125 -6.8051558 -1.6650859
-22.543219 -6.6785636 -0.67424005
-22.639032 -5.948173 -3.0423155
-22.625673 -6.475047 -2.4228027
-22.418665 -6.477479 -0.08578901
-22.701002 -5.6419015 0.88024104
-22.340479 -4.9684668 -3.5601528
-22.29418 -5.6305056 -3.2397594
-22.26508 -5.3406878 1.1838698
-22.122002 -3.8806798 -3.5524423
-22.342468 -3.6354845 -3.352337
-22.355316 -3.7919366 1.4823345
-21.904903 -3.0169463 7.0701466
-22.11876 -3.0148816 7.6376624
-22.13759 -2.9185328 8.183054
-21.925325 -2.0660992 1.7198609
-21.884932 -1.9414382 4.3142114
-22.08833 -2.0992224 5.4258366
-22.172861 -2.4450746 6.6519117
-22.460224 -2.301808 7.2588224
-22.424458 -2.5479207 8.372535
-21.995617 -2.683695 8.961891
-22.125937 -1.3855963 -3.585486
-22.332048 -1.013117 2.0325718
-21.706457 -1.3913778 3.8530865
-22.316765 -1.4122019 4.761954
-22.468306 -1.4310977 5.97165
-22.529566 -1.3073316 10.205382
-22.69635 -0.97653407 11.168008
-22.82956 -0.3467753 -3.847509
-22.400852 -0.550439 2.6496804
-22.63764 -0.2499902 12.028048
-22.642546 0.5620803 -3.7889261
-22.625881 0.47636184 12.355254
-22.912554 1.4828116 -3.6839867
-22.32868 1.7014606 12.39955
-22.721495 1.9046464 -3.5498793
-22.791063 2.400144 -3.3663597
-22.459217 3.1620104 -2.733231
-22.478472 3.2339418 -2.6487966
-22.312267 3.7001576 12.403428
-22.186481 3.860824 13.288198
-21.9022 4.042419 14.12193
-21.848528 4.134088 -1.7941797
-22.081366 4.5134773 -0.85093653
-22.47186 4.478899 -0.4971874
-22.416939 4.47278 12.731116
-22.2816 4.6316442 13.725957
-22.058344 4.587649 14.269742
-21.76756 4.8613997 14.616504
-22.149866 5.3883467 0.3084349
-22.443428 5.400377 4.083044
-21.926184 5.665009 5.310648
-22.463634 5.4254227 8.197069
-22.223501 5.2343874 9.594064
-21.833029 5.07835 10.89082
-22.172503 5.3950725 13.571171
-21.923233 5.324866 14.278637
-22.007444 6.445879 1.6440394
-21.669247 5.821513 4.9404097
-22.053743 6.523862 6.426787
-22.23697 6.3391466 8.272168
-21.952827 6.3155 9.411821
-21.855555 6.0242715 13.558318
-21.768251 5.978403 14.02178
-21.727943 7.6827145 0.7055356
-21.933622 7.076567 2.2270334
[...]
POINT_DATA 7891
SCALARS features_00 float 1
LOOKUP_TABLE default
0.84888554 0.8698908 0.867656 0.77208495 0.8338083 0.8985949 0.90146613 0.8763299 0.7529291 0.84833497 0.97006243 0.97511935 0.9237392 0.8596256 0.9206539 0.8729793 0.8035604 0.84262645 0.8276379 0.77038145 0.73261786 0.78966916 0.84965646 0.82182455 0.595199 0.66893005 0.818913 0.6316489 0.82093215 0.7983779 0.6046086 0.7413835 0.68589914 0.48162705 0.51345086 0.5335471 0.50716776 0.53480303 0.5828 0.5338269 0.45246047 0.51315033 0.53396 0.5554368 0.48577678 0.4496209 0.49574056 0.4936152 0.46940243 0.43991157 0.76594466 0.7366595 0.7020898 0.727538 0.5882598 0.7219865 0.52086526 0.7094679 0.62300223 0.5122918 0.707209 0.654469 0.4667849 0.48297787 0.55373645 0.6640047 0.41060755 0.35814875 0.27847597 0.5232508 0.50730896 0.39043617 0.36830106 0.442074 0.45223242 0.43444884 0.6320682 0.64417815 0.587914 0.5072277 0.37878406 0.4639438 0.48393226 0.50592625 0.5333868 0.59217155 0.6231476 0.5783188 0.47693256 0.38943368 0.41450137 0.47756922 0.36334684 0.42948127 0.54312336 0.57132983 0.53808045 0.46423075 0.37198314 0.3146457 0.40987283 0.4596813 0.38200608 0.34470928 0.39585328 0.42627567 0.33476982 0.4014744 0.46078938 0.46472323 0.4755319 0.44429612 0.40420854 0.39104742 0.4381862 0.43871665 0.42474753 0.4060725 0.37080473 0.5460448 0.49606043 0.48227394 0.56794065 0.49129048 0.5623635 0.46911567 0.5513574 0.42469695 0.4918378 0.26189452 0.254214 0.24192458 0.2424207 0.5342791 0.6179952 0.6674288 0.47220948 0.35226017 0.37965924 0.39982098 0.3824261 0.571203 0.6327339 0.6785993 0.6900117 0.47459555 0.56636894 0.24534862 0.31310892 0.40358293 0.447751 0.54104817 0.645156 0.67033607 0.6008168 0.23837893 0.48107097 0.5656953 0.61774594 0.5862245 0.5658265 0.44129068 0.30082142 0.10147537 0.31836528 0.30578172 0.38926995 0.39276433 0.5204841 0.5654174 0.5358782 0.48744905 0.35655075 0.14949857 0.26092774 0.10512355 0.20058733 0.24756476 0.32615024 0.25897828 0.35870227 0.39463168 0.31120658 0.3169917 0.30036 0.3318261 0.3470344 0.5053816 0.46325988 0.3936519 0.4129015 0.4896738 0.49928725 0.370566 0.46667612 0.47968453 0.48241413 0.4179654 0.45707035 0.45345604 0.3410687 0.15543975 0.1851291 0.29066646 0.24587935 0.21109235 0.15654695 0.31297502 0.49932033 0.58277166 0.6470683 0.31803986 0.351588 -0.07746284 0.010807887 0.13130717 0.15554018 0.32680765 0.6731575 0.7020298 0.44445103 0.6952648 0.46900144 0.46439302 0.64666075 0.5284769 0.51579845 0.28032517 0.10025554 0.12283932 0.2458407 -0.0084378645 0.032033317 0.1270119 0.21089846 0.027093725 0.15652339 0.23471007 0.22462302 0.102540806 0.14032172 0.62354624 0.651881 0.6628485 0.66427004 0.66668814 0.65362155 0.654222 0.64987624 0.48693484 0.47903958 0.39035258 0.45719564 0.47360143 0.3340484 0.32168096 0.4024322 0.43625206 0.29228902 0.21686728 0.19454035 0.16317238 0.36809564 0.41339067 0.43126714 0.021966547 0.18692486 0.24920434 0.30409348 0.3002019 0.38541234 0.3923907 0.09241729 -0.35171977 0.09089154 0.16236849 0.22934102 0.43273354 0.551659 0.27983594 -0.3242942 0.6110569 0.32258686 0.6004137 0.41287595 0.46924362 0.4208771 0.45743543 0.41357037 0.40306824 0.34438732 0.61064327 0.7053391 0.0186581 -0.026757885 0.0136061385 0.47855145 0.69076127 0.73727375 0.76472616 -0.036860716 -0.050028056 -0.057879798 0.06898532 0.01919311 0.0891769 0.70500267 0.7615592 0.029175252 -0.16314006 0.13992299 0.20498672 0.20178208 0.69034487 0.7383499 0.072034895 0.038945585 0.20332748 0.25689298 0.28731894 0.30193293 0.23627555 0.09347357 0.22152013 0.3331744 0.5385817 0.56178653 0.51940477 0.4861719 0.5805955 0.6174295 0.58873034 0.6319773 0.6278088 0.5289924 0.61989826 0.6210894 0.59720385 0.3855004 0.43787307 0.43486482 0.335829 0.28994206 0.23552147 0.25588247 0.15588312 0.15691698 0.40932858 0.45714474 0.14298435 0.13902067 0.22356245 0.3228749 0.42726532 0.45691586 0.43872133 0.024605578 0.121137336 0.09834334 0.21019924 0.3636173 0.23026045 0.0545913 0.3173441 0.42782244 0.090077154 0.32020593 0.39042827 0.17263982 0.25216797 0.25901127 0.29495755 0.3107481 0.31696752 0.20433795 0.6569923 0.7093936 -0.1443841 0.7369468 0.7562144 0.6071849 0.5038447 -0.18201442 -0.1041076 0.7778995 0.77874017 0.5589941 -0.08930874 0.3175078 0.5100446 0.67588675 0.7364338 0.7629007 -0.05932294 -0.07815406 -0.14942595 0.10622962 0.28397787 0.27175307 0.51140213 0.59682786 0.67660403 0.18112591 -0.038247198 0.072164744 0.19222838 0.30755404 0.34582922 0.34720922 0.30041283 0.31360176 0.46094057 0.3202772 0.55205315 0.6765169 0.3735634 0.4667975 0.41588002 0.5351697 0.611347 0.6984755 0.37148458 0.39715576 0.60346323 0.6583785 0.69885826 0.45659745 0.62278306 0.66935265 0.68696004 0.40197286 0.39164475 0.36723474 0.2791164 0.3789199 0.13808346 0.21504307 0.13885736 -0.026598334 0.32121068 0.4034923 0.44329965 0.112964705 0.13443318 0.24794649 0.41180855 0.040592086 0.16841951 0.17100623 0.10400151 0.1728238 0.07092002 0.14497408 0.20047379 0.1611636 -0.03539987 0.18766865 0.101150766 0.5834523 0.69456124 0.5928435 0.5934395 0.72017187 0.6273984 0.037433997 0.75883 0.59700596 0.57505476 0.4563 -0.29705477 0.7036843 0.7465762 0.5139773 0.4784352 0.1418005 -0.25906447 0.2159911 0.14461207 0.3594017 0.51226056 0.667444 0.38661653 0.04143109 -0.25502115 0.34373772 0.2634501 0.22964792 -0.30825 0.19178571 0.24360798 0.17051348 -0.2042017 -0.09240122 0.12699746 0.65263313 0.1175166 0.69404256 0.10641639 0.24714002 0.013153568 0.42746577 0.69437313 0.68632543 0.31091243 0.23939186 0.16109115 0.53348094 0.5410587 0.6392826 0.6663621 0.67534405 0.45173758 0.46095833 0.29562065 0.24801403 0.15895343 0.607632 0.49722427 0.49492228 0.4953217 0.34261343 0.31790885 0.5252173 0.54932445 0.5464258 0.47634375 0.40872493 0.4024017 0.5659225 0.51985586 0.4620797 0.4536506 0.48982874 0.45429778 0.45570016 0.3752719 0.38681728 0.32883304 0.14753455 0.082114816 0.34041435 -0.0265169 -0.09543887 0.07901433 0.059252854 0.019654065 0.27844843 0.076867566 -0.015162289 -0.14183323 0.08602871 0.31868568 0.40278137 0.3728041 0.23929965 -0.06953713 0.35835263 0.2886781 0.21980119 0.1851258 0.17502311 0.2925201 0.23364902 0.2997589 0.17720336 0.29938683 0.1453463 0.078149006 0.53680646 0.46649146 0.51621217 0.5188201 0.5609837 0.67240524 0.5620107 0.5700382 0.6395331 0.69877076 0.52480185 0.563776 0.6666367 0.7164911 0.45751107 0.111982614 0.25223225 0.33280182 0.5939783 0.36576664 0.32305223 0.13131334 0.071343556 0.10196678 -0.07760667 0.5058396 -0.044526473 0.5865269 -0.04654518 0.61492515 0.27655232 0.63068163 0.64348066 0.41598272 0.3653812 0.3888387 0.5602892 0.5894085 0.4326231 0.4451298 0.30722633 0.44616818 0.46967536 0.39783788 0.3800161 0.53197026 0.45525354 0.44638327 0.5618336 0.48120993 0.44953725 0.45573294 0.46332756 0.4578493 0.5586464 0.49146914 0.46383056 0.47563523 0.46020335 0.552379 0.57824993 0.2905986 0.4371375 0.5372847 0.60808325 0.6178099 0.11424439 0.11122353 0.43425095 0.51778567 0.62489784 0.63222975 0.28179199 0.19074608 0.13752195 0.13274466 0.123416714 0.2872046 0.23466139 0.3246227 0.37404644 0.3000503 0.31176147 -0.056569293 -0.039515056 -0.096400715 0.20024015 0.33891547 -0.094279975 -0.17576018 0.3235276 0.20717882 0.17081358 0.3235817 0.27106002 0.3513448 0.25291467 0.29347655 0.36226913 0.23070654 0.27356282 0.34232372 0.27853665 0.22809237 0.12641905 0.04993274 0.30846322 0.3095432 0.34139282 0.4626074 0.49527526 0.44820625 0.6189952 0.45434207 0.5449486 0.4233587 0.37684745 0.07665212 0.28696972 -0.03571699 -0.026477743 0.15466866 -0.0679645 -0.028019734 -0.11725356 0.14787753 -0.104097836 0.33178645 -0.039858818 0.51968133 0.19911118 0.17810494 0.538228 0.34693658 0.2895151 0.30517596 0.34007007 0.43342417 0.3980379 0.2687113 0.101657726 0.424505 0.43952703 0.5306008 0.37037846 0.56792444 0.57631445 0.4403056 0.6027722 0.6335388 0.6617737 0.57745695 0.5676874 0.48346603 0.4536535 0.70057327 0.6826085 0.63146436 0.64427364 0.41448596 0.46636635 0.5057298 0.65900457 0.63277596 0.6351928 0.62330085 0.10423923 0.06914313 0.20111936 0.37565595 0.42174038 0.5326804 0.55937505 0.53587437 0.6971383 0.6870187 0.6703588 0.13467155 0.11683463 0.08061779 0.06817087 0.6107223 0.57290655 0.7412825 0.72860205 0.7189925 0.72444916 0.12338469 0.13602997 0.6181018 0.59191465 0.17869727 -0.041235402 0.28095278 0.3706727 0.4840713 0.56748754 0.2663365 0.22572273 0.17833668 0.19134493 0.2299478 0.32583678 0.27877328 -0.25276816 0.34834087 -0.42904803 0.094533026 0.19054098 0.23801363 0.34964606 0.3418243 0.2703107 0.2777272 0.3619765 0.30215108 0.36425647 0.29620934 0.29734045 0.33161968 0.21576259 -0.27121386 -0.010662124 0.017889287 0.24848565 0.22406587 -0.07249434 0.22040562 0.22073628 0.37243313 0.2031893 -0.045849502 0.21556652 0.31904295 0.25354916 0.19802523 -0.0729842 -0.07476792 -0.056159504 -0.006767705 0.02358295 0.09761428 -0.069849744 -0.27449048 -0.122948475 -0.0610163 -0.20565979 0.00814303 -0.19423738 0.18114236 0.22732854 0.17370588 0.3192165 0.2857505 0.2249412 0.30370966 0.32266188 -0.0004413724 0.1559283 0.15981466 0.38365686 0.48096812 0.2994792 0.56133115 0.3712042 0.35669604 0.6610758 0.46567458 0.4089972 0.71621776 0.7916794 0.81530356 0.6821284 0.56470895 0.4455868 0.5064337 0.33461538 0.3377255 0.55984795 0.57912886 0.5838209 0.2984195 0.3252815 0.32865074 0.340465 0.35416102 0.5636074 0.5065606 0.4641567 0.42923784 0.599059 0.6409778 0.6026437 0.56532145 0.21543823 0.23411617 0.26188308 0.2957358 0.36510864 0.40530926 0.4218915 0.70588493 0.65536606 0.56907773 0.51460725 0.28227443 0.5246954 0.576 0.4975025 0.08698156 0.08634819 0.04104369 0.49216384 0.47863823 0.77413046 0.75211346 0.7060916 0.6230734 0.55070883 0.4126371 0.40509287 0.38475463 0.50987417 0.79297113 0.7767867 0.745628 0.7255894 0.7155285 0.69926906 0.5174199 0.7680152 0.7457781 0.70951504 0.6859195 0.14638749 -0.10198354 0.47861445 0.24304983 0.2134637 0.36506534 0.3913011 0.26129812 0.20640442 0.11592152 0.18313594 0.3286956 0.15871091 0.18848036 0.3217144 0.29729855 0.2314146 0.31811315 0.2537068 0.31226718 0.25671318 0.24581355 0.22695388 -0.23776706 0.07790122 0.14053702 -0.27679214 -0.08175248 0.43026114 0.27851886 0.16802263 -0.19348317 0.48741296 0.43834174 0.29446772 0.48252136 0.4283063 0.29130393 0.2923115 0.30407828 0.16874406 0.19262938 0.26847002 0.27077174 0.048338145 -0.07315864 -0.06951615 -0.05765558 0.25135332 -0.09887863 -0.15237592 -0.08678427 -0.07025362 0.7331492 0.62640256 -0.23166624 -0.28881532 0.110627115 -0.064282745 -0.14839956 0.024710067 0.08502571 0.13703756 0.18778536 0.1900536 0.20030494 0.11177076 0.09471497 0.34342235 0.26020777 0.38776314 0.39579046 0.39754555 0.5161509 0.5739864 0.44101918 0.4473371 0.6384539 0.473656 0.37530607 0.70156264 0.7785413 0.820264 0.66404295 0.57954115 0.4175474 0.44274518 0.43816522 0.2708325 0.3126801 0.32898015 0.3390954 0.35106546 0.34821844 0.39496824 0.35095692 0.26037818 0.32865173 0.3879423 0.51257694 0.29622984 0.34464765 0.34919226 0.33003712 0.64742684 0.50505614 0.35900342 0.44403976 0.0999038 0.07023409 0.11361882 0.32292527 0.36250025 0.77557755 0.71349144 0.35949677 0.038026907 0.066392034 0.40448028 0.4076223 0.8100363 0.2711874 0.015824988 0.44359893 0.44104826 0.8134442 0.7936932 0.41030183 0.037145615 0.16138357 0.3372028 0.22449963 -0.23269504 0.4610411 0.79712826 0.7694713 0.6820328 0.60744727 0.47819215 0.4523422 0.37857455 0.18983908 -0.1273307 0.12432519 0.106013045 0.27758804 0.2543165 0.09947659 0.087538466 -0.03360781 -0.3524049 -0.10045886 -0.25766447 0.45160764 -0.24869253 -0.18997175 0.5003549 -0.091938235 0.16615812 0.50478476 0.24073222 0.27119118 0.44463944 0.27433497 0.22493266 0.1883805 0.18753758 0.5350715 -0.072532766 0.2610399 0.21654502 0.7739709 0.7251818 -0.1331514 -0.081810065 0.18842857 0.3299858 0.3183092 0.29741284 0.84917784 0.79781306 0.21245463 -0.3051826 -0.17962652 0.16278173 0.2903515 0.36547908 0.41198483 0.38554576 0.8602914 0.80710626 0.67326784 -0.14575234 -0.07724005 0.40233845 0.44559115 0.8227432 0.7579236 0.5957552 0.15099688 0.0047039017 0.07230055 0.20401207 0.16481307 0.12712823 0.06413041 0.15454474 0.09677925 0.3322426 0.4512833 0.4631016 0.51889664 0.49123937 0.5030057 0.48830128 0.6208842 0.607625 0.36295933 0.39329743 0.46710277 0.4951619 0.6658515 0.70509386 0.7270857 0.6235615 0.44694227 0.28440738 0.23223804 0.027814992 0.044816777 0.13047616 0.3796759 0.33288056 0.26395148 0.13139476 0.12922062 0.24602291 0.29900295 0.31798998 0.31922746 0.5255935 0.36413455 0.30712962 0.24238132 0.13375342 0.074973114 0.104592524 0.20663056 0.13020822 0.32100207 0.30467957 0.7149255 0.58875865 0.48053488 0.03385818 0.08332098 0.77908003 0.76148903 0.32389897 0.78754807 0.79446256 0.050678626 0.26454094 0.39930254 0.8031719 -0.16156769 0.43583852 0.80648506 0.71938956 0.6086968 0.44387293 0.28321183 0.046728045 -0.028024115 0.0052343234 0.1109322 -0.40154815 0.37944892 -0.12494395 0.16618001 -0.08876255 -0.054585107 -0.0012421533 -0.17515631 0.1577387 0.16908541 -0.14941087 0.1382616 0.21855107 -0.22253795 0.09864652 0.1306031 0.23720667 -0.014097169 0.023828685 0.3546629 0.26810017 -0.38008893 -0.3658741 0.44511825 0.44375402 -0.36660945 -0.06535894 0.11475624 0.1419484 0.180652 0.48525673 0.48166233 -0.32834548 -0.16435814 0.15546681 0.18995155 0.30270833 0.44992208 0.47378102 0.4739303 0.48096135 0.44635224 0.5120571 0.52968585 0.2721835 0.3850097 0.5101192 0.5327395 0.42481557 0.498092 0.5250016 0.6456128 0.20806198 0.22624129 0.7030684 0.07340886 0.30351526 0.8696821 -0.25700125 -0.19208965 -0.17747945 -0.39484787 -0.21878609 0.12031233 0.18659145 0.39627528 0.34086868 0.88046277 -0.37791643 0.14965896 0.3116187 0.3973414 0.44533592 0.41378602 0.8033863 0.7340158 0.33400744 -0.2507583 0.22191799 0.15124734 0.27704617 0.41469014 0.43830752 0.6190639 0.5937873 0.09619847 0.28792083 0.28281984 0.0017802306 0.017420024 -0.02217567 0.3464282 0.049223073 0.51700515 0.43531096 0.46367335 0.47020042 0.5204885 0.52485824 0.28260317 0.32101607 0.37450802 0.46737242 0.6620165 0.71532047 0.7227508 0.5849981 0.59910905 0.6635237 0.63545895 0.3258667 0.36762697 0.37814754 0.05133593 0.09398826 0.35490054 0.25368324 0.20179582 0.09687912 0.01317402 0.10891177 0.048586 0.07137999 0.093853295 0.16630918 0.557661 0.33537042 0.25873187 0.20908117 0.053066857 0.13913643 0.73067135 0.6568737 0.1343909 0.7817422 0.77299315 -0.038256306 0.78494644 0.7707333 0.7530782 0.6832187 0.70920026 0.61060154 0.4495496 0.19741459 -0.041343033 -0.07085656 0.103472754 -0.10970907 0.3314412 0.3042935 -0.036070198 -0.13653784 0.36160433 -0.061327815 0.051435135 0.3722527 0.30554008 0.21596715 0.2597742 0.64236 0.64431 0.62865055 0.2847262 0.5474467 0.5926277 0.6241044 0.620236 0.17646725 0.33221912 0.43440908 0.52642363 0.59256136 0.58665824 0.20073768 -0.041158266 0.051404893 0.12853956 0.23543535 0.29832485 0.47515565 0.533019 0.54969954 0.28523022 0.2290895 -0.3783689 -0.06438472 0.018597439 0.3625441 0.38193992 -0.5522008 -0.4727504 -0.2990654 0.12494397 0.22778502 0.26687896 0.4188097 0.50145155 0.5133742 0.38449693 0.5307293 0.5392694 0.5450645 0.5531533 0.48747832 0.5396237 0.49244422 0.22334974 0.39283347 0.7201105 0.068884775 0.8638616 -0.35964102 0.33931893 0.2785208 0.84015656 0.13566217 0.1358738 0.027622148 0.3556816 0.76932657 0.67674965 -0.19341677 0.15345132 0.21349719 0.21946925 0.37116653 0.36052275 0.3272584 0.602156 0.4926497 0.23433895 0.06877514 -0.023472339 0.24468532 0.2931999 0.30895537 0.2790346 0.028509427 0.12198216 0.15142128 0.29707238 0.3309794 0.34545875 0.14695464 0.3104644 0.36698723 0.38147908 -0.0067879558 0.5009266 0.07896458 0.14670567 0.28731316 0.35193044 0.44868106 0.49922514 0.30545935 0.75910544 0.75427467 0.7308291 0.7388054 0.6629071 0.6395896 0.59593594 0.6662311 0.71874833 0.721359 0.4969868 0.54773015 0.40809724 0.19465505 0.3087157 0.47683996 0.49474126 0.48699874 0.40789372 0.3478082 0.020103658 0.03451185 0.11665253 0.46425182 0.45697898 0.25203782 0.20099115 0.107333906 0.017651878 0.12341383 -0.0202395 0.03375287 0.32224023 0.5643747 0.39808762 0.29901838 0.027414812 0.7475589 0.7138517 -0.055768937 0.79019517 -0.1113617 -0.00862883 0.7379168 0.6425667 0.011832207 0.2704196 0.50744253 0.5529721 0.7177289 0.62528354 0.5026545 0.27275437 0.45680895 0.5403049 0.57719076 -0.0284504 0.24871145 0.36918604 0.423438 0.29371476 -0.06900163 0.05040934 0.52417916 0.4243337 0.0874684 0.47006 0.3644135 0.23898241 0.6002525 0.628831 0.6067189 0.2760277 0.28039485 0.40806973 0.58334386 0.63328105 0.639452 0.6121542 0.52437574 -0.15367821 0.3036799 0.29430565 0.30752605 0.4925229 0.5892718 0.5511111 0.23468195 0.29779512 0.4951403 0.19194534 0.0754372 0.14975157 0.04674583 0.22928855 0.18054464 -0.06328547 -0.11403335 -0.08351362 -0.04273396 0.39692754 0.22835685 0.27758488 -0.6008364 -0.42317486 0.27755505 0.43568254 0.53823555 0.10065643 0.5837201 -0.07852845 0.538395 0.5752205 0.23535852 0.4186453 0.49235386 0.3796302 0.7469817 0.20029213 0.7930769 0.6234892 0.25991774 0.67669725 0.42413974 0.23530027 0.2352702 0.13728485 0.046580464 0.23271234 0.18445985 0.20806997 0.041289512 0.024842925 0.082256794 0.20382825 0.32102054 -0.015440232 0.10900399 0.10657105 0.12873213 0.30848938 0.38440406 0.41394666 0.41448683 0.016236026 0.13154057 0.15985091 0.16537595 0.4248758 0.45977613 0.0386668 0.09675562 0.22121552 0.33822346 0.7582818 0.7831993 0.79952943 0.7476359 0.7721338 0.7699661 0.75089973 0.7420616 0.7089652 0.66043615 0.59081787 0.62313414 0.62035143 0.6001107 0.47288328 0.53996015 0.55859476 0.5809418 0.5146893 0.48423588 0.5266886 0.4723873 0.5754733 0.60494465 0.6188554 0.67379475 0.6541382 0.41463515 0.42674935 0.49282777 0.49721515 0.48866048 0.59988785 0.076067105 0.2211735 0.4937265 0.4733011 0.051184777 0.07336431 -0.081812255 0.42637062 0.23242185 0.1293077 0.05418509 -0.08963291 0.12280063 0.5025325 0.31849146 -0.08044195 0.7179535 -0.1686112 0.011514942 0.13191791 0.28186142 0.6627741 0.59112144 0.00043424033 0.1925261 0.33006454 0.4991867 0.5471509 0.6412701 0.5306956 0.43201172 0.56969595 0.59611094 0.60005504 0.55572593 0.48809084 0.32039988 0.61191905 -0.01814372 0.46216214 0.51181555 0.5269454 0.18900976 0.38687032 0.5861851 0.56384224 0.16110227 0.50473267 0.50682604 0.5450204 0.5225284 0.45108944 0.2235113 0.23913643 0.50439745 0.54855895 0.570783 0.32824367 0.25925562 0.33797505 0.45562497 -0.09635315 0.2825642 0.22451907 0.4497042 -0.08252569 0.027014859 0.17433244 0.3754903 0.11748957 -0.007270843 0.16862573 -0.106548205 -0.06362644 0.3825325 0.35559434 0.16676137 -0.07978563 0.3249152 0.20498359 0.15042597 0.19604245 0.18971737 0.50427806 0.6072537 -0.24174699 0.5398869 0.5853692 -0.08214472 0.20627467 0.41565835 0.51813996 -0.13515146 0.54533374 0.23835891 0.17999029 0.16720772 0.025318094 0.18087107 0.06855159 0.027890133 0.17013511 0.18296954 0.017893879 0.26212177 -0.018736893 0.15521917 0.15225548 0.4427541 0.4268699 0.08503545 0.18889809 0.2082065 0.16454011 0.3651555 0.49170852 0.54471076 0.54283834 0.5290204 0.3320534 0.3582146 0.22435492 0.10225864 -0.096068345 0.59330285 0.6152786 0.6141273 0.8189541 0.69515526 0.7810569 0.82750845 0.81775975 0.70474494 0.7600759 0.6935941 0.60231006 0.6240212 0.57431114 0.5127679 0.5036826 0.40632477 0.3233847 0.45868737 0.4278379 0.11487958 0.45650858 0.44323614 0.4724365 0.33117467 0.33870557 -0.29016006 -0.16786651 0.420709 0.3952822 0.37862626 0.3685725 0.01857106 0.009774603 -0.16626382 0.53795177 -0.18962634 -0.060237348 0.1747805 0.20125765 0.35576475 0.4566865 0.48915902 0.34227455 0.0169774 0.5515709 0.54637015 0.619187 0.5353205 0.28914344 0.4957397 0.6032932 0.6504352 0.6787379 0.50963783 0.21561603 0.2475692 0.3855905 0.60655785 0.646353 0.5612153 0.20595948 0.45261884 0.5653173 0.55948496 0.13928626 0.42119306 0.3595184 0.26184636 0.5346319 0.46898043 0.18958539 0.35261655 0.22260429 0.18092531 0.09032209 0.21325901 -0.009210795 0.26114947 0.09183804 0.0886254 0.24170172 -0.026652962 0.2509858 -0.11740245 0.08967677 0.29580033 0.10327969 -0.15895648 -0.17806782 -0.14468448 0.27331898 0.1645279 0.24884976 0.15624352 0.13276552 0.16013917