# vtk DataFile Version 2.0
Really cool data
ASCII
DATASET POLYDATA
POINTS 2351 float
-6.6300097 12.86592 47.70487
-6.583314 12.800191 48.42123
-6.957393 12.924411 52.5594
-6.787197 12.882654 53.23971
-6.599003 13.416872 47.428814
-6.5569563 13.696367 48.76558
-6.930751 13.355544 51.812756
-7.13611 13.4978695 52.564953
-7.080081 13.374164 53.122475
-6.878589 14.080471 53.886307
-6.551603 13.901888 48.86608
-6.8972754 14.1936865 51.868805
-7.1458373 14.229621 52.66459
-7.0444016 14.572124 53.4853
-6.8223357 14.755337 54.301872
-6.617104 15.012355 54.726902
-6.8123584 14.983398 52.658634
-6.8887568 15.377835 53.70698
-6.7545877 15.424372 54.42848
-6.6360574 15.435147 54.820175
-6.6973233 15.82289 54.198376
-6.01713 12.058054 46.980843
-6.0287566 11.884231 47.338066
-6.017181 11.674354 48.570175
-5.6589518 11.359086 49.43944
-5.703968 11.944766 49.910305
-6.143022 12.212337 52.033195
-6.2929144 12.150375 52.298794
-6.149563 12.682782 46.681343
-6.407633 12.562146 47.239075
-6.5072846 12.872301 48.76705
-6.230409 12.356607 49.310745
-6.078679 12.45177 51.180283
-6.292756 12.459274 53.61293
-6.1834583 13.038419 54.183258
-5.797218 13.211555 46.248974
-6.33295 13.393095 46.785442
-6.3249497 13.622561 54.354126
-5.771139 13.897253 55.039833
-6.121013 13.929241 46.767315
-6.3768535 14.24802 47.891514
-6.3536444 14.252529 48.58857
-6.0418215 14.315802 49.23984
-6.5710273 14.234767 54.453182
-6.2473903 14.763218 55.03552
-5.7228713 15.043727 47.69919
-5.8829684 14.943319 48.527206
-6.104746 15.525875 51.86786
-6.3842173 15.392341 54.936535
-6.2289495 15.902753 52.539406
-6.4474645 16.018133 53.505245
-6.3299437 16.078447 54.531082
-4.725403 8.771464 55.740803
-4.8006744 8.854094 56.300877
-4.887104 9.387578 55.61024
-4.8258486 9.355459 56.55159
-4.6551914 9.263492 56.896496
-4.855727 11.217858 47.086216
-5.308606 11.195579 47.65056
-5.313171 10.901408 48.50642
-5.221721 10.896445 49.31698
-4.757198 10.131468 55.693226
-4.77227 10.094921 56.247494
-4.6704264 9.908288 56.955307
-5.3412237 11.887599 46.680504
-5.5863113 11.942205 52.037224
-5.535933 12.580835 46.25228
-5.5244355 12.478103 54.39159
-4.8845935 12.913327 55.16234
-5.5952034 13.563247 46.18752
-5.649144 13.370098 54.566994
-5.0620394 14.798383 46.152203
-5.4441156 14.701859 46.490005
-5.424434 14.8649025 55.40661
-4.9546576 15.163334 46.234215
-5.319258 15.083687 46.70374
-5.0462737 15.511979 47.86476
-5.3372025 15.130299 48.782257
-4.953299 15.390255 49.43324
-5.7355657 15.445669 55.28059
-5.0557804 15.209825 55.524094
-4.906889 15.861582 47.290684
-5.4892464 16.036932 55.134922
-5.3538785 16.750515 52.861526
-4.9286337 19.847282 48.005047
-4.9924955 19.52747 49.267883
-5.2412553 20.704956 48.12237
-5.378394 20.78254 48.453575
-5.2137012 20.423727 49.677475
-4.9208326 20.15615 50.132225
-4.6343265 20.559525 52.3465
-4.7120004 20.380915 53.555286
-4.669636 20.669926 54.352997
-5.0511885 21.238415 47.960262
-5.2971253 21.421803 48.5167
-5.3292103 21.400816 49.170856
-4.84042 21.455595 53.762093
-4.6678386 21.65497 54.299706
-4.9162116 22.027483 48.514156
-5.0771656 21.931042 48.98779
-4.6593757 22.275505 52.94291
-4.739726 22.159338 53.49873
-4.696359 22.000175 54.10982
-3.7395842 7.142789 54.1109
-4.0014353 7.0305433 54.77686
-4.040791 6.7804737 55.70324
-3.9428873 6.871672 56.1802
-3.6383047 7.5749645 52.80223
-3.8041773 7.494595 54.053974
-4.133857 7.346037 54.592014
-4.384009 7.622648 55.77176
-4.316883 7.77832 56.386734
-4.081373 7.793623 57.004566
-3.693765 8.825298 53.07486
-4.471986 8.388547 56.719933
-4.2093306 8.734117 57.26405
-4.353333 9.411266 57.251152
-4.43532 10.761549 47.695976
-4.435432 10.499599 48.80275
-3.948162 10.775936 50.106186
-4.36953 10.280314 54.16283
-4.140287 10.355319 57.26567
-4.5512314 11.557382 46.731182
-4.782195 11.518478 51.815784
-3.9959416 11.015125 57.171425
-4.6620684 12.504817 46.087433
-4.217674 12.392857 56.08076
-3.665841 11.943752 57.148464
-4.2288814 13.415649 45.703712
-4.4334373 13.996026 45.747303
-4.1572704 15.509612 45.94903
-4.6205697 15.584576 46.328022
-4.572177 15.900899 46.507866
-4.326802 16.262005 47.7287
-4.2563767 16.354055 48.4835
-3.9374313 16.792439 49.676327
-4.250451 16.301956 55.23595
-3.8665757 17.546564 50.89527
-4.1420956 19.055208 47.756462
-4.4015555 18.59264 48.559196
-3.828188 19.45745 47.114628
-4.468258 19.390945 47.749516
-4.2689376 19.993341 51.514694
-4.4966826 20.007421 53.966064
-4.1321373 20.63959 47.05788
-4.554675 20.162567 47.45028
-4.4435787 20.30694 54.472713
-3.9557452 20.585764 55.187347
-4.084279 21.364885 47.052586
-4.675872 21.473188 47.65831
-4.015434 21.562199 55.289143
-3.7174795 21.59081 55.660065
-4.253503 21.859068 47.33136
-4.2381797 22.366507 47.812756
-4.621559 22.163807 49.52858
-4.3359036 22.417395 51.69938
-4.4963164 22.34255 52.468773
-4.307558 22.32475 54.42548
-4.03658 22.324808 55.04596
-3.7232766 22.00979 55.67936
-4.0423512 22.872076 48.79083
-4.189879 23.013855 52.611023
-3.9865665 23.040682 53.266125
-3.710829 22.700626 55.09827
-3.6344748 23.771177 50.7632
-3.7814848 23.759079 51.258873
-2.772402 6.298083 54.03393
-2.9956198 6.1235957 54.562122
-3.2490273 6.0879498 55.592457
-2.864586 5.740434 56.663692
-3.0248823 6.1353 57.388557
-2.896596 7.1556373 51.94058
-3.1037374 6.9464345 52.705578
-3.2032459 6.49393 53.7434
-3.5833719 6.430999 54.87856
-3.612235 6.4093156 55.91813
-3.3045084 6.592215 57.45464
-2.9910145 6.7656693 57.946907
-3.0733657 7.72427 51.832176
-3.350734 7.4280925 57.6585
-2.7378998 7.1119246 58.192642
-2.810623 8.288992 51.356274
-2.857601 8.412682 58.171753
-3.512618 10.430765 48.309254
-2.74646 9.563863 51.02103
-3.272025 10.918186 47.22744
-3.743469 10.606147 47.755074
-3.3467152 12.231917 46.3202
-3.5080757 11.656399 46.68647
-2.782795 11.582097 58.54406
-3.711785 13.17945 45.671467
-3.5699143 12.179355 57.159496
-3.1212811 11.958305 58.079964
-3.6665087 13.201344 45.670963
-3.0221553 14.366271 45.549675
-3.3098414 16.293144 45.9528
-3.3929372 16.231028 55.311474
-2.8324213 16.969929 45.744984
-3.4808085 17.156246 46.70834
-3.1589336 17.48652 55.016205
-3.1844366 18.786417 46.725098
-2.9700978 19.41366 46.179596
-2.9523342 20.084496 55.278584
-3.2092552 20.686659 46.305782
-3.5262222 20.498688 46.529686
-3.4555159 20.468641 55.263382
-2.9671702 21.141895 55.863987
-3.1683226 21.107372 46.3495
-3.4114432 21.459394 46.585213
-3.2396595 21.573524 55.927246
-3.3023984 22.211145 46.916725
-3.5628257 22.236956 55.671738
-3.1314247 22.322079 55.891575
-3.1724591 22.935627 47.26045
-3.2736077 23.213205 47.697308
-3.415862 23.205679 53.77572
-3.2358835 23.149897 54.606144
-3.4154954 22.83565 55.211563
-2.931153 22.689447 55.804947
-3.1394064 23.622309 48.049076
-2.933085 23.76414 48.202873
-3.0434432 23.992168 49.158356
-3.3244846 24.248806 50.586433
-3.2827976 24.486156 51.22563
-2.7830596 24.161415 52.836967
-2.6511827 24.867128 50.054092
-2.903367 24.91751 50.686535
-2.6474874 25.242567 51.322624
-2.730345 24.73916 51.874657
-2.5547757 6.3774953 52.770092
-2.6699119 6.245682 53.52505
-2.2942917 5.906121 54.2797
-2.314081 5.585781 55.774544
-2.3702168 5.7112064 57.495937
-2.5085206 6.0947514 57.93735
-1.8545966 7.113229 51.182434
-2.3695068 6.9520707 51.6379
-2.6914358 6.483132 52.895977
-2.3380938 6.6235337 58.270134
-2.255004 7.4493794 51.19572
-2.4345102 7.781185 58.39333
-2.0982976 7.4891305 58.549812
-2.2101297 8.430353 58.404743
-3.0234725 11.000361 47.221565
-2.0413342 10.939521 48.07841
-2.6324086 10.670565 58.309696
-2.4367325 11.118893 58.781536
-2.6776807 11.721458 46.80382
-2.2770362 11.438938 47.411877
-2.236945 11.654681 58.988503
-3.0986338 12.567112 46.069473
-2.3482814 12.516525 58.529697
-2.237376 12.083534 58.90016
-2.3045046 12.763281 58.28022
-2.0419054 14.888113 44.776497
-2.6648996 14.195061 45.56111
-2.8356767 14.208343 56.509
-1.9621462 15.62869 44.3021
-2.413286 15.893357 44.558086
-2.7696626 15.189158 55.951313
-1.9938997 16.380852 44.192505
-2.5379384 16.686901 44.817986
-2.2562704 17.131844 44.657673
-2.0523474 18.819124 45.399136
-1.8759646 18.833248 45.390663
-2.342329 19.382515 45.70609
-2.497102 19.938177 45.981544
-2.2753894 20.28368 55.547928
-2.401957 20.836473 55.7935
-2.4574392 21.61018 46.4274
-2.7019818 21.710466 46.52289
-2.5648406 21.59478 56.045437
-2.5076349 22.1514 46.68966
-2.5205734 22.365276 55.92203
-2.4601996 23.066288 47.21411
-2.5327206 23.4489 47.59286
-2.7985263 23.485518 53.996265
-2.542366 22.91574 55.429398
-2.701862 22.68609 55.776955
-2.5255928 23.697023 47.885128
-2.4812853 24.631796 49.584663
-2.5062034 23.637669 53.66966
-2.2590213 25.20732 49.92002
-2.2909138 25.441513 50.532845
-2.5171366 25.294306 51.35059
-2.1763985 25.227888 52.23713
-1.9832048 25.615265 50.661278
-1.9136264 25.71428 51.27136
-1.6517391 5.271479 55.926895
-1.2784406 5.0600786 56.562035
-1.1306503 5.174287 57.107643
-1.3433063 6.119138 51.783382
-1.1593235 5.887891 52.413242
-1.6222503 5.994692 58.06989
-1.0287051 6.8012547 50.82491
-1.4755371 6.4479685 51.463806
-1.7165234 6.315939 58.29321
-1.0070562 7.604105 50.21277
-1.3247108 7.579122 58.54595
-1.5602483 8.592011 58.4001
-1.1541595 9.308277 49.530018
-1.7010574 10.844185 48.082127
-1.8553776 10.431409 48.39742
-1.3718878 10.574648 58.987514
-1.3227452 11.551685 47.440735
-1.3951706 11.572336 59.20018
-1.3536063 12.235755 59.102306
-1.4636314 12.99626 58.504684
-1.697774 12.7374325 58.807343
-1.6113092 15.19335 44.250977
-1.545764 14.749058 44.654766
-1.442517 15.763101 44.02017
-2.0169713 14.885166 56.03655
-1.3123639 16.482265 43.993984
-1.3198136 17.382305 44.244926
-1.35569 17.247652 55.10741
-1.469925 18.043192 44.712543
-1.4827546 19.401741 45.43151
-1.4582968 19.468493 45.57017
-1.1620054 19.311739 55.347103
-1.7839981 20.07324 45.88836
-1.9835687 21.246376 46.31826
-1.6842782 21.862665 55.863552
-1.8916487 22.259943 46.854534
-1.9959159 22.292517 55.798775
-1.7548631 23.29372 47.665222
-1.7974708 22.75026 55.18387
-1.1307272 24.371527 48.89046
-1.693676 24.29042 53.31968
-1.4350749 25.249254 49.566673
-1.2206255 24.811283 52.99751
[...]
POINT_DATA 2351
SCALARS features_00 float 1
LOOKUP_TABLE default
0.6949502 0.64984834 0.56452644 0.5459038 0.693285 0.6115361 0.5268376 0.57047164 0.5539964 0.52003956 0.585361 0.53748393 0.5761841 0.5579233 0.5317825 0.53168124 0.57760954 0.56187975 0.54917425 0.5412604 0.55647004 0.679709 0.67366296 0.5824077 0.40906358 0.2836513 0.3961969 0.45301807 0.69426847 0.7025049 0.6173184 0.45858997 0.24480468 0.4926988 0.43272394 0.66626227 0.6900005 0.45530593 0.41871762 0.6491051 0.6009704 0.5618111 0.44523787 0.4963865 0.506026 0.46944064 0.44482774 0.46141613 0.5356417 0.5376679 0.56571394 0.55775505 0.4093811 0.41301185 0.40622067 0.40947676 0.4074907 0.5658977 0.6180239 0.58232534 0.46641594 0.4016444 0.39837575 0.39302507 0.62377703 0.28597844 0.6438633 0.3179788 0.20932835 0.64568484 0.38317254 0.49537045 0.5324495 0.48012477 0.43979216 0.47174263 0.36360627 0.36228937 0.1979836 0.5198043 0.46166265 0.3583157 0.509313 0.4765588 0.5116465 0.5186608 0.5638095 0.579329 0.5355953 0.39589614 0.4193473 0.52284646 0.61456996 0.56160194 0.5824956 0.5759016 0.56715727 0.6114671 0.5603051 0.55776477 0.5011186 0.5540816 0.59706753 0.3441468 0.389521 0.43800822 0.47175062 0.33091167 0.34514844 0.38682595 0.43865687 0.45423526 0.46688908 0.3309676 0.43451998 0.41441432 0.3888039 0.5304302 0.5539671 0.277972 0.26636633 0.33838737 0.5188169 0.11385903 0.26855606 0.53963214 0.094617754 0.22915071 0.48170567 0.5357311 0.3290942 0.36639136 0.33861673 0.26818138 0.1514051 -0.1431233 0.22671327 -0.24114001 0.39770424 0.41213244 0.36502895 0.44797665 0.16176668 0.5364449 0.4533112 0.47840294 0.617867 0.6580153 0.47624123 0.53848284 0.67616284 0.6929631 0.50604177 0.5252017 0.4449281 0.27467883 0.42863935 0.6172714 0.6588458 0.6991271 0.4527362 0.41042024 0.48981783 0.64840627 0.27552506 0.28419617 0.3236394 0.34584755 0.4237936 0.5772183 0.57957435 0.34992456 0.32860288 0.3209496 0.3722608 0.45827112 0.550727 0.5505766 0.3347376 0.5122169 0.5382691 0.3045854 0.43731052 0.39833802 0.18336684 0.32696366 0.41968662 0.36873123 0.37335944 0.4344284 0.39144522 0.24100956 0.37283075 0.38479328 0.35044035 0.18456374 0.07926434 0.20118797 0.08995328 0.083674744 0.22442995 0.29115793 0.519968 0.36112943 0.3787765 0.6273595 0.68037736 0.37866545 0.42127177 0.70323193 0.45067406 0.7015627 0.71040225 0.44363326 0.436 0.49247494 0.5749513 0.649678 0.69524693 0.39243847 0.37416786 0.33291197 0.3447231 0.3788324 0.34898552 0.38746405 0.40927395 0.44138592 0.4195346 0.33363795 0.31547672 0.32176858 0.4788226 0.6300126 0.59606445 0.38201016 0.36835054 0.32968527 0.5661965 0.35725343 0.50317585 0.5203898 0.43124974 0.29432034 0.18274008 0.38573116 0.47335804 0.26217628 0.21098804 0.5106774 0.3316105 0.4738466 0.50836265 0.4430895 0.44019845 0.3065933 0.10650715 0.54269475 0.49063557 0.034231234 0.5819339 0.43398625 0.45283943 0.26692083 0.27627662 0.26700017 0.30262458 0.5063261 0.63056016 0.37462878 0.3982219 0.71196723 0.41695625 0.7111951 0.40877128 0.39104146 0.44438493 0.64731246 0.6921029 0.37344414 0.36077517 0.36657915 0.41311193 0.4465768 0.44848612 0.45056063 0.46822643 0.4835376 0.5470068 0.6306956 0.6628324 0.42355198 0.4208359 0.6280664 0.41717783 0.4123397 0.59595305 0.35798526 0.51427305 0.41044644 0.14856477 0.15226142 0.13298912 0.4836766 0.14890976 0.5559391 0.5650853 0.51210004 0.5378733 0.5528585 0.49208006 0.61878216 -0.020763941 0.6400236 0.5353647 -0.12304555 0.39517358 0.26288217 0.2615003 -0.049624193 0.27664295 0.32631874 0.68814623 0.38181895 0.6947883 0.3312369 0.59211236 0.3055651 0.2986278 0.42547548 0.34170645 0.47725892 0.50252694 0.5091944 0.48626107 0.3703581 0.538177 0.60218835 0.63878 0.45147276 0.4531966 0.42412725 0.6292341 0.43079662 0.59221697 0.30455014 0.5362861 0.21170507 0.09113127 0.094173774 0.5331816 0.09657786 0.5622667 0.07810455 0.03092349 0.56070375 0.44289404 0.08490223 0.6461133 0.57778716 0.6722863 -0.26475787 0.6867871 0.649297 0.52802134 0.25598726 0.26681203 0.26387528 0.25800347 0.2963829 0.44069368 0.3366009 0.23879892 0.24717885 0.2985689 0.30834904 0.36839938 0.27362072 0.51163596 0.49128053 0.38545585 0.5854583 0.43406653 0.33802712 0.17242768 0.5927192 0.61123776 0.60302025 0.43911925 0.5614297 0.1850066 0.059078705 0.076948255 -0.016079582 0.33494106 0.01919164 -0.022027098 0.43551737 0.5134711 0.50229514 -0.14595616 0.5785562 -0.10578591 0.65918106 0.6141352 -0.12422649 0.6815226 0.65950745 0.13123375 0.26757568 0.40978503 0.40517464 0.4079339 0.41235542 0.21855845 0.42672515 0.21486868 0.17653438 0.008056683 0.2347317 0.22730671 0.25978288 0.2702567 0.31827852 0.32691818 0.34187984 0.3778705 0.31806877 0.060555607 0.3391078 0.5660953 0.4070696 0.49485886 0.56701505 0.4440689 0.48472416 0.31719875 -0.05508357 -0.06481956 0.09659156 0.34519404 -0.078602664 0.2711378 0.48622668 0.24792744 0.106184036 -0.25774616 -0.20517544 0.5224747 -0.054111734 0.6320356 0.42036366 0.08592073 0.23279421 0.051647954 0.3797736 0.42175788 0.07850919 0.44287303 0.4380809 0.32479435 0.1947445 0.14874443 0.24952966 0.2598544 0.32723325 0.29179686 0.31895322 0.39175195 0.5850556 0.45471698 0.4764164 0.64142376 0.71782637 0.67898536 0.058722027 0.036062732 0.13539767 -0.0630824 -0.042133164 -0.035338007 0.018679347 0.035229456 -0.08003042 0.24547324 0.002160959 0.36386347 -0.08148045 0.42645556 0.4353966 0.4237733 0.43926352 0.31033882 0.3917523 0.23908277 0.28235102 0.20421559 0.31595114 0.3814884 0.5344273 0.51390696 0.6002209 0.7679746 0.8329018 0.77209896 0.66094565 0.2269501 0.19303046 0.12104638 0.22084758 0.18530478 0.24450049 -0.008013345 0.02485478 0.05166236 0.0407227 0.030788224 0.11230453 0.12658581 0.21823055 0.34814173 0.58893186 0.5352537 0.47844222 0.39439994 0.4413967 0.2947473 0.3584062 0.25869566 0.13799597 0.13136145 -0.005644724 0.38578045 0.4664678 0.4792272 0.58345294 0.5952363 0.5864617 0.68636537 0.6556034 0.6057261 0.7491373 0.8479376 0.8288351 0.7508901 0.43149936 0.3237337 0.55033207 0.5676057 0.5585428 0.46494263 0.30700734 0.50286746 0.42754114 0.3573677 0.21626556 0.2004812 0.033110563 0.08632023 0.15080613 0.106005184 0.064861804 0.12832779 0.0025982186 0.1151083 0.1241654 0.3801729 0.34754574 0.21150626 0.51860887 0.50239694 0.23240098 0.6025737 0.5987135 0.23423173 0.5962783 0.28563187 0.5278653 0.4530254 0.19997266 0.3289721 0.076059155 -0.075808436 0.14314088 -0.2037184 -0.050370254 0.053966176 0.18474111 0.40072587 0.40399307 0.57277465 0.6088628 0.63141644 0.60275984 0.6889595 0.77210855 0.7675835 0.730899 0.7815164 0.83184993 0.8253474 0.5895546 0.61868256 0.5838411 0.5523051 0.56124914 0.54602265 0.5026623 0.5207384 0.52233845 0.40358782 0.36495635 0.29130298 0.2092569 0.09556039 0.10614732 0.1769183 0.17596038 0.01170931 0.14361946 0.15220399 0.14649576 0.20681089 -0.04374274 0.38711005 0.31112713 0.25389034 0.5465504 0.5601274 0.5386932 0.5592332 0.5751881 0.25964966 0.5036284 -0.07889643 0.23935929 0.28139138 -0.17523469 -0.07232966 0.80680764 0.7598891 0.11488223 0.0062625036 -0.34070235 -0.10688527 0.9113647 0.8974122 0.834556 0.82255006 0.33083594 0.91287524 0.97585124 0.9818422 0.9082885 0.5340842 0.46009386 0.9169791 0.979746 1.0 0.9432409 0.68166316 0.6234004 0.98397446 0.71489275 0.7626711 0.75435686 0.5900812 0.6450356 0.6377574 0.54011106 0.5351292 0.49821672 0.54060215 0.33550948 0.42790806 0.5251187 0.43774337 0.45043713 0.28662354 0.35308683 0.2245566 0.2434583 0.17055917 0.2159307 0.22106427 0.38416755 0.15124403 0.43705916 0.052207183 0.35816497 0.13066547 0.19240671 0.14263986 0.13595605 0.28773534 0.30722463 0.3646346 0.36344695 0.3951475 0.4037804 0.3374061 0.2808401 -0.09764814 0.30056226 0.18138348 -0.17677352 0.72043514 0.7171762 0.70293546 -0.03919693 -0.11212178 0.8453729 0.7482897 0.7166958 -0.0002097413 -0.029668182 0.4447196 0.3687415 0.79111433 0.86442244 0.83325475 0.8267586 0.8653767 0.9246969 0.8901556 0.84099317 0.85023755 0.8991605 0.923061 0.87730217 0.6062657 0.6319853 0.57941073 0.48351222 0.5104208 0.54593325 0.2711987 0.45513093 0.12156709 0.19851564 0.43036044 0.43466797 0.37847823 0.34616068 0.31310797 0.44248712 0.4370367 0.22882244 0.24027167 0.50440466 0.17067824 0.49264285 0.5013434 0.122398056 0.45970526 0.41827446 0.1688542 0.15749806 0.27931753 0.30516532 0.17052512 0.38476288 0.2585768 0.19473274 0.44590604 0.13117209 0.48525634 0.18840869 0.45274568 0.14413565 0.37682825 0.38180774 0.1844235 0.19430584 0.18510023 0.33685142 0.34722292 0.5039431 0.5072224 0.23653638 0.2466359 0.24171272 0.5764492 0.57675743 0.51533145 0.26481405 0.15727428 0.7054851 0.7686793 0.72752196 0.2457282 0.16939154 0.083490685 -0.019936174 0.13684975 0.7174829 0.77334666 0.35129678 0.75081664 0.7725136 0.78586125 0.48176613 0.54087037 0.7949259 0.832045 0.82521755 0.7933974 0.5977721 0.63185966 0.64944845 0.67483234 0.6019545 0.55603814 0.5037141 0.5324815 0.56466234 0.6159648 0.5480303 0.4401483 0.5138145 0.5623263 0.53141534 0.051753134 0.26116467 0.35308355 0.39284277 0.5073626 0.54014647 0.31885418 0.55446655 0.18478838 0.55550766 0.48966658 0.4344735 0.40968376 0.038597748 0.15500994 -0.3809315 0.43491468 0.095078856 0.47888112 0.0851714 0.51805675 0.075200275 0.09378399 0.4284408 0.43503523 0.10396145 0.35489395 0.38426 0.14826018 0.26803258 0.31480795 0.4738531 0.42359293 0.37240642 0.3849892 0.09957953 0.16304813 0.10160634 0.19069448 0.52080446 0.46177834 0.20572272 0.52207243 0.12967683 0.17204183 0.06300093 0.27054968 0.5943623 0.72522235 0.21170641 0.27852914 0.24691942 0.5574287 0.41650432 0.6067152 0.6883571 0.67753226 0.6672288 0.4551696 0.47391605 0.50244045 0.5674375 0.732782 0.73689437 0.69166344 0.6314269 0.59690124 0.5748863 0.72495794 0.70416975 0.7102077 0.6526315 0.75185263 0.7353822 0.7400243 0.5392139 0.58000684 0.6069732 0.49412882 0.5674982 0.3483947 0.3471764 0.41549864 0.53546935 0.17241085 0.25497088 0.3146758 0.44591296 0.51618534 0.54911214 0.5508998 0.5740237 0.5910076 0.56285465 -0.14663391 0.51269394 0.31691158 -0.31232834 -0.39940572 0.01311278 -0.4377736 0.35656762 0.070244975 0.034825917 -0.07506792 0.46147865 0.500279 0.08662111 0.50289273 0.031678632 0.45353547 0.36172545 0.4047879 0.33924896 0.2761713 0.03363519 0.25106788 0.29439673 0.3259216 0.4507339 0.43573153 0.28636506 0.24961174 0.027657136 0.16854621 0.20906648 0.23844244 0.024498232 0.09072934 0.1995646 0.01814939 0.060255907 0.098258 0.3778877 0.32608953 0.49363554 0.5086274 0.46237293 0.6080837 0.56524944 0.3091422 0.47520584 0.56159914 0.555861 0.6188824 0.592585 0.5869855 0.6285411 0.76296556 0.684776 0.61193204 0.73339105 0.72307694 0.71465755 0.7064326 0.69975126 0.68900895 0.6047681 0.62836957 0.5869526 0.59605634 0.25455335 0.20441028 0.35852623 0.4383231 0.44374707 -0.13782871 -0.09369241 0.010155611 0.19576037 0.4561833 0.5465807 0.8334896 0.8017141 0.7624988 0.16544776 0.57329035 0.5876107 0.8446163 0.79776835 0.67381144 0.6475245 -0.21462737 0.5833702 0.850518 0.7834496 0.66885984 0.5736782 0.52491415 0.3534784 0.3542052 -0.34569472 0.7635674 0.6629201 0.5902155 0.51054245 0.3314163 0.32635078 0.29714566 -0.27646688 0.7347104 0.64020765 0.24536389 0.27431864 0.05006337 -0.308003 0.011225056 0.2444348 0.030885292 0.31175423 0.4247088 0.48459017 0.3848088 0.45940202 0.47851342 -0.03176804 0.3530366 0.42439997 0.4397774 0.31839785 0.26682478 0.1900772 -0.01558996 0.0046513677 0.28852272 0.32390758 0.3929615 0.4565357 0.36379227 0.27495104 0.2037496 -0.06546734 0.25050214 0.28388044 0.4502554 -0.066655144 0.1673889 0.4517549 0.32972744 0.21382318 0.4533123 0.25250274 0.089866936 0.002763927 0.4520514 0.3891745 0.34199193 0.4707569 0.0370419 0.51926804 0.50337386 0.33496785 0.431028 0.5408373 0.5994081 0.5492414 0.7167518 0.61979437 0.7039938 0.6813885 0.6609962 0.6517905 0.6419342 0.6854268 0.6617853 0.7709286 0.65545285 0.8452264 0.8211719 0.7877821 0.6235601 0.73010683 0.0540635 0.06204632 0.8767822 0.8481098 0.7978921 0.7555088 0.67693394 0.5165084 0.5140244 0.11413422 0.8911444 0.85874414 0.5861448 0.50396377 0.3398894 0.40724686 -0.33263215 0.8865298 0.86564493 0.451603 0.35922554 0.35835695 0.3501783 0.2990698 -0.2016437 0.08078162 0.7843461 0.7440978 0.47359326 0.3768411 0.29694855 0.69913864 0.6538913 0.64785576 0.35290754 0.35417873 0.24659736 0.110652626 0.21962589 0.40741497 0.39959937 0.3357502 0.05403222 0.045002937 0.042501867 0.3829541 0.39199817 0.37482864 -0.0324812 0.30112714 0.3302219 0.23574367 0.22298688 0.07264067 0.19111468 0.27788568 0.27237153 0.16914421 0.129034 -0.01298321 -0.20019406 -0.13313718 0.042281684 0.1484972 0.2587796 0.29131576 0.29072458 0.40568027 0.2758786 0.2791327 0.44662642 -0.0726576 0.018231414 0.22410557 0.3234662 0.0014901124 0.38429764 0.36647484 0.3154146 0.4037219 -0.079864696 0.3284176 0.42217666 0.3742155 -0.047628637 0.2870317 0.119797155 0.36490032 0.5164558 0.36567283 0.55234486 0.5611414 0.6513812 0.6467856 0.65761834 0.6630401 0.67562544 0.67681754 0.6702523 0.6718359 0.6836249 0.73340917 0.755804 0.7300321 0.63476837 0.6605403 0.71017677 0.6571057 0.8759839 0.83124435 0.81474006 0.59485537 0.62067044 0.9282568 0.89259887 0.7434311 0.53476554 0.1096386 0.102465376 0.09611629 0.93290114 0.48910058 0.2729531 0.06714487 0.87406737 0.39775014 0.31022608 0.34499866 0.26324654 0.75650156 0.3411812 -0.03590276 0.18666796 0.27656442 0.63922906 0.34623796 0.18366897 0.3041762 0.5693786 0.42896324 0.34729254 0.38610548 0.31779456 0.11986369 0.3136263 -0.11735953 -0.063576184 -0.13195904 -0.19710344 -0.10106103 -0.31213862 0.13627665 0.2767134 0.13596056 -0.25889248 0.10840449 0.23666713 0.18745637 0.27129638 0.3501826 -0.09473495 0.3624223 -0.00013605133 -0.07842901 0.36391312 0.32587564 0.12779593 0.12362692 0.24938655 0.3424798 0.59330904 0.6137706 0.6685363 0.6720022 0.6890761 0.7239442 0.7312344 0.71050286 0.69140697 0.7095921 0.7096766 0.6897211 0.625091 0.52971447 0.9261323 0.88371235 0.8469901 0.45955503 0.8903332 0.914245 0.77476716 0.7699926 0.14421949 0.21341853 0.2632932 0.27287847 0.28034046 0.85389805 0.3900037 0.22955307 0.24813336 0.29840404 0.2619006 0.15161124 0.1508893 0.008212879 0.07286548 0.12922639 0.827395 0.36227256 0.04479254 0.114801705 0.2537283 0.10250315 0.32347184 0.72485703 0.6724074 0.03185857 0.066538855 0.2881669 0.6350137 -0.13042815 0.28519842 0.23642929 0.3139479 0.31711924 0.5437552 0.39564905 -0.058713138 -0.13238439 0.27911508 0.3261806 0.2829692 0.3151967 0.30192629 -0.29288983 -0.142741 0.13052604 0.11768085 -0.084691696 -0.0799218 0.23236676 0.1339618 0.26365227 0.2831506 -0.13553925 0.25465727 -0.2212998 0.320691 0.33098155 0.12842485 0.16151653 0.22339988 0.20132084 0.57437396 0.52919555 0.65074086 0.6249566 0.6671312 0.71417093 0.7274481 0.68834174 0.68613535 0.7126337 0.7414193 0.7436911 0.72934854 0.7168021 0.5897569 0.6707224 0.56983095 0.1873916 0.15844703 0.1567705 0.18344517 0.44413173 0.36142868 0.16579852 0.1551218 0.117302015 0.12915845 0.1664077 0.21693134 0.2276465 0.46218017 0.8171725 0.78330135 0.7563131 0.10212852 0.17467657 0.20472981 0.09679279 0.7653552 0.69498366 0.4084636 0.11103002 0.1000185 0.19628856 -0.089109704 0.04070811 0.14693849 0.7257197 0.66893387 0.08289872 0.6556325 0.36758152 0.5396838 0.36281297 0.25771868 0.32932064 0.17107818 0.3827505 -0.07831133 -0.032397766 -0.069066525 0.41168773 0.15534927 0.15059556 0.017986532 -0.021519154 -0.0068346015 -0.09386467 0.07321075 -0.13542205 0.14728007 0.22668158 0.29341692 0.28677768 0.2546016 0.23186211 0.50791395 0.67640805 0.6311898 0.75693846 0.76588815 0.734002 0.7594819 0.62257814 0.6432831 0.66886616 0.6630709 0.5686988 0.6211463 0.64079165 0.6123427 0.23501703 0.16879371 0.26308292 0.28915918 0.20635992 0.17354243 0.14493892 0.14861621 0.13869569 0.30879188 0.20343867 0.17602426 0.15337746 0.17190695 0.34873754 0.30577946 0.22601438 0.16677085 0.12676226 0.5969054 0.13717681 0.011872619 0.028408438 0.62697625 0.48352593 0.4059573 0.42481747 0.27508634 0.11493061 0.5934472 0.4476113 0.29496205 0.38678503 0.45282426 0.45997 0.33947337 0.3273605 0.22307268 0.40350646 0.42382836 0.15251075 0.05864902 0.5214681 0.19294833 0.5032381 0.5444013 0.5500868 0.5946369 0.20495889 -0.011937824 0.290044 -0.08391363 -0.07698281 -0.0790846 0.29974994 0.3759598 0.34093195 0.36027852 0.34424728 0.3721945 0.4643951 0.6736374 0.6882242 0.70783216 0.27838975 0.5724849 0.63226163 0.6781109 0.6842592 0.71929085 0.22449142 0.2541147 0.12505512 0.15384261 0.66306365 0.70109427 0.3201573 0.27361518 0.17842832 0.1593873 0.06438395 0.6002699 0.66515875 0.38562292 0.09963919 -0.1423856 -0.12848744 0.2674942 0.3121575 0.26593438 0.30159205 -0.35302803 -0.10612658 0.02323704 -0.1611042 -0.033904225 -0.30493256 -0.04706771 0.34150258 -0.19939047 -0.026447963 0.2753476 0.43126616 0.24778496 0.26492712 0.4512174 0.25057417 0.33197412 0.29762077 0.33827722 0.30567953 0.23857488 -0.08057094 0.467502 0.31204462 0.56789577 0.632818 0.4356828 0.6619985 0.33139986 0.5587181 0.5838951 0.65317976 0.644086 0.6841326 0.48348734 -0.051320363 0.52398634 -0.011176118 0.532025 0.37986934 0.1523893 0.14056702 0.31687474 0.44878665 0.35061964 0.36625826 0.37079313 0.34851062 0.31521726 0.43064547 0.30951452 0.39812922 0.5036083 0.6933211 0.7326338 0.7782867 0.37029213 0.29707092 0.24468571 0.25098386 0.25996658 0.7537829 0.7829176 0.25765443 0.119916596 0.10944477 0.75195456 0.294218 0.039987206 0.7251342 0.27945793 0.24743289 0.2734397 -0.3931394 0.04999187 -0.3017862 -0.2633649 0.008887313 0.40406102 0.44302714 -0.0972627 0.3337673 0.5145654 0.5297376 0.2137411 0.4276651 0.3698151 0.11206969 0.30104214 0.33947933 0.279444 -0.3497297 -0.3026262 0.48870414 0.19739206 0.6270968 0.30812362 -0.05729106 -0.11169406 -0.2818528 0.46722835 0.70347655 0.6943116 0.4916094 -0.14360315 0.08211469 0.5900265 0.6914687 0.72257954 0.7165669 0.527535 0.73990977 0.73281676 0.74708694 0.55257297 0.5473243 0.5352122 0.51488066 -0.006854022 0.29648057 0.3857202 0.32101277 0.33663985 0.3249979 0.19711676 0.4532286 0.42389053 0.34880382 0.32824698 0.43522105 0.41505012 0.45934042 0.46921667 0.40832117 0.38352835 0.5018371 0.3955928 0.3647563 0.40149525 0.36906168 0.680483 0.7520859 0.80309284 0.4406911 0.459087 0.3733594 0.7991071 0.8127113 0.45536453 0.78064597 0.6075429 0.31215036 0.41905767 0.30166155 0.18250927 0.5430448 -0.11590602 -0.020468958 0.08602001 0.239582 0.39305067 0.497324 0.524824 0.50855446 -0.113951825 0.44568503 0.3972575 -0.01837024 0.36954865 0.34228194 -0.0018149242 0.2721776 0.27456418 0.46741176 0.45799834 -0.082861215 0.6066848 0.5243972 0.12279019 0.3662156 0.7150804 0.68368375 0.19920348 0.41087174 0.68627346 0.7626797 0.7418562 0.5490463 0.29875547 0.77854264 0.77529883 0.7705426 0.5416276 0.5292559 0.26744002 0.36535296 0.52611095 0.5164816 0.50111824 0.02019246 0.35639396 0.27510485 0.3060248 0.31420597 0.3080482 0.36165562 0.4126439 0.42132 0.45181307 0.46966162 0.4682567 0.40726992 0.3647579 0.5575845 0.5482363 0.5078409 0.33939812 0.2749565 0.71578753 0.7663757 0.5576712 0.63409805 0.7108357 0.77337325 0.51775634 0.55763674 0.7237112 0.1861074 0.49780703 0.23441328 0.5292372 0.5910281 0.56993854 0.0128338635 0.081355244 0.14505632 0.22866713 0.29760817 0.5584615 0.17511839 0.3099608 0.3910197 0.45081902 0.46728075 0.49011928 0.49303547 0.4248377 0.37384504 -0.06823361 -0.09296234 0.03745412 0.20316908 0.42087424 0.3342575 0.026760504 0.05712098 0.49706388 0.51935554 0.45945948 -0.17146146 0.59279895 0.51072 0.52693075 0.5206308 -0.10147302 0.44507194 0.6890587 0.52330935 0.517732 0.60971653 0.71093327 0.73830795 0.75113523 0.7469204 0.5123383 0.49696475 0.19246736 0.6637086 0.7668479 0.7590516 0.7620813 0.52796936 0.51416004 0.49706322 0.48752025 0.50642705 0.6832673 0.5189712 0.5114451 0.36245647 -0.08290986 0.5865008 0.5651531 0.41185746 0.12437415 0.4183334 0.39202338 0.29184824 0.31452754 0.47157067 0.46734962 0.47681522 0.45151994 0.40472636 0.37414533 0.5475135 0.55775905 0.52390873 0.33735317 0.49651077 0.5167309 0.45575854 0.6102476 0.23062593 0.45393014 0.29467347 0.20581278 0.22449374 0.21799016 0.2491411 0.61204004 0.17518255 0.6203254 0.070299596 0.62263274 0.103265226 0.18163776 0.20157254 0.2