# vtk DataFile Version 2.0
Really cool data
ASCII
DATASET POLYDATA
POINTS 6851 float
-9.862111 26.147041 36.002403
-9.908254 26.098999 36.437138
-9.861408 26.161636 36.92727
-9.751425 26.978745 35.35453
-10.042618 26.647827 35.81717
-10.222237 26.612648 36.47348
-9.985211 26.592537 37.15915
-9.873612 27.679785 35.307915
-10.174101 27.399382 35.770065
-10.320132 27.547192 36.500664
-10.066792 27.423506 37.276062
-9.787633 27.382856 37.81475
-9.830355 28.47522 35.249977
-10.062277 28.451288 35.67021
-10.201446 28.367384 36.401165
-10.024951 28.282246 37.17281
-9.9016485 28.985052 35.635483
-9.864369 29.170033 36.348225
-9.832893 28.969791 37.01741
-9.202025 26.28367 35.372086
-9.413415 25.99129 35.952305
-9.357399 25.832375 36.510498
-9.368541 25.984945 37.125088
-9.568516 26.863825 35.28793
-9.611234 26.478292 35.483627
-9.672807 26.3653 37.435333
-9.330614 26.857288 37.952995
-9.634536 27.661346 35.12803
-9.402752 27.518602 38.15732
-9.437331 28.38601 35.003788
-9.329617 29.116512 35.12282
-9.462261 29.441696 35.57315
-9.535618 29.51529 36.38479
-9.200436 29.383812 37.27151
-8.52375 29.389418 42.476673
-9.162789 29.706854 35.75497
-9.1896105 29.718458 36.410225
-7.5915484 24.73548 27.946287
-7.6285906 24.765537 28.300434
-7.5952597 25.23147 27.862244
-7.6034884 25.244152 28.486917
-7.581259 25.180658 28.941402
-8.363767 26.060818 35.922394
-8.76552 25.76817 36.2362
-8.6501045 25.900642 37.390667
-8.289307 26.19114 38.142883
-8.582654 26.579988 35.359222
-8.729333 26.6035 38.434944
-7.857673 26.608953 38.841324
-7.6083784 27.211771 42.890667
-8.322221 27.597483 34.87149
-7.9690523 27.894558 42.03919
-7.8345075 27.817753 43.691788
-7.6666117 27.675385 44.00776
-8.615378 28.574667 34.799713
-8.548663 28.448694 39.126377
-7.8377156 28.36701 40.634483
-8.344181 28.582247 42.26174
-8.246853 28.703579 43.384495
-7.9621162 28.64932 44.257713
-8.787562 29.316088 35.141384
-8.078771 29.77425 41.082577
-8.36999 29.378807 41.538567
-8.419957 29.563185 42.417366
-8.231086 29.308117 43.41394
-7.849895 29.31718 44.290478
-8.5444355 29.789316 35.716595
-8.2123785 29.897907 37.216484
-8.012269 30.132439 41.2592
-8.268971 30.18934 41.824234
-8.174686 30.313992 42.370895
-7.908806 30.341255 43.160244
-7.7291045 29.830494 44.07946
-7.811237 30.794598 41.982162
-7.915007 30.733799 42.335403
-6.754266 23.293974 29.698174
-7.1138654 24.03309 27.883327
-7.1942835 23.868744 28.592176
-6.977768 23.675055 29.354311
-6.7331753 23.697958 30.099512
-7.099194 24.72679 27.2265
-7.3494005 24.596977 27.635975
-7.4883604 24.404259 28.44052
-7.365623 24.464739 29.228802
-6.71538 24.487328 30.553806
-7.0046887 25.355412 27.139557
-7.3911204 25.46577 27.63833
-7.504083 25.598696 28.388252
-7.4324737 25.251652 29.072208
-6.787901 25.245565 30.148975
-7.486477 25.860115 37.043068
-7.0939393 25.703966 37.212486
-7.3461447 25.866041 38.066032
-7.268773 26.18238 38.827072
-6.760842 26.257462 42.75174
-6.8185816 26.28438 43.247456
-6.8651567 25.941807 27.313284
-7.1215577 26.072561 27.782785
-7.1481194 26.230179 28.34033
-7.0372396 26.16232 29.025446
-7.740515 26.695667 35.45856
-7.1742516 26.819382 39.13126
-7.1095295 26.82564 41.97195
-6.9289675 26.402359 42.75436
-7.256432 26.917082 43.398666
-6.9186754 26.756033 44.015022
-6.714207 26.682215 28.277647
-7.321679 27.64846 35.179306
-7.5429416 27.988224 39.652218
-7.468934 27.891315 40.964733
-7.427169 27.406948 43.680233
-7.326181 27.697613 44.472828
-6.961563 27.657028 44.771732
-7.2965574 28.539318 35.05677
-7.3126383 28.596825 44.847324
-7.4809065 29.62879 44.47117
-7.1631002 29.305859 44.885616
-7.4029922 29.93374 38.230087
-7.004335 29.731907 40.19116
-7.3984566 30.439064 41.01314
-7.540759 30.479544 43.451298
-7.200158 30.07666 44.27131
-7.0485377 29.770443 44.738697
-6.8768234 30.59606 36.84187
-7.218449 30.773739 41.152596
-7.5273685 30.869076 41.765728
-7.493673 30.944027 42.50784
-7.2068963 30.812593 43.046627
-6.9689794 30.61897 43.807358
-6.376137 23.051563 28.5383
-6.1565757 22.760971 29.41065
-6.224772 22.966635 30.024263
-6.0763083 23.88033 27.185648
-6.336133 23.49315 27.780779
-6.452228 23.594715 30.514072
-6.2156367 23.79652 30.947292
-6.442901 24.659645 26.931795
-5.9910026 24.50883 31.153074
-5.807868 24.983587 37.404617
-6.564276 25.572989 26.951399
-6.1103535 25.222454 30.847853
-5.7506413 25.580784 35.97344
-6.4513917 25.652933 36.868683
-6.5460234 25.729147 38.444653
-6.1055336 26.016546 42.000195
-6.272741 26.016132 42.551373
-6.2852182 25.961147 43.234818
-6.319234 26.195957 43.929424
-5.5256867 26.914406 19.413952
-6.356243 26.238386 27.221224
-6.204328 26.578833 27.503286
-6.606245 26.536236 29.30705
-6.3109603 26.001139 29.9648
-6.91519 26.410034 35.991123
-5.952997 26.273449 39.37911
-6.3887577 26.648329 44.397984
-6.250498 27.03074 44.71617
-5.5323334 27.13998 19.43388
-6.1867127 26.738749 27.777807
-6.350546 26.919876 28.493746
-6.2826123 26.742958 29.14845
-6.599881 27.28145 44.578915
-6.40779 27.548248 44.958847
-6.563809 28.424086 34.98931
-6.445623 28.582802 45.133568
-6.7693763 29.508268 35.239635
-6.4641237 29.401691 45.004692
-6.5669117 30.170391 35.75537
-6.5672994 30.281471 37.800354
-6.271118 30.33593 38.684376
-6.7429423 30.521402 40.84669
-6.1712418 29.997602 44.820232
-6.247029 30.59596 36.455307
-6.775475 30.99971 41.6084
-6.5982714 30.951208 42.745293
-6.461916 30.87628 43.486443
-5.175267 22.261698 28.827694
-5.4935675 22.308964 29.631643
-4.7101583 22.220892 30.820288
-4.8594055 21.754139 34.78978
-4.809146 21.846937 35.342014
-5.1294966 22.729113 28.10721
-5.723994 22.549583 28.697237
-5.399047 22.52166 30.08168
-5.0361547 22.738499 31.22436
-4.640027 22.8524 32.959522
-4.767205 22.360388 33.734962
-5.121494 22.617771 34.486008
-5.0785184 22.48141 35.308018
-4.947465 22.63374 35.9277
-5.1917386 24.187584 26.923878
-5.188334 23.729445 31.580442
-5.1523485 23.805902 31.861242
-4.923874 23.419855 33.78889
-5.178071 23.359968 35.485153
-4.952691 23.650513 36.306606
-5.6991205 24.474049 26.809881
-4.909881 24.264915 33.827366
-5.354774 24.498396 35.43381
-5.1267705 24.548466 36.32492
-5.1712093 24.840807 37.335587
-5.129727 24.7871 38.34506
-5.2765894 25.223278 38.889442
-4.904454 25.178936 41.974888
-4.8413672 25.114391 42.31337
-5.0771976 25.381365 42.94108
-4.9847317 26.079056 18.617397
-5.0973854 26.017328 19.458782
-4.684632 26.237518 20.729792
-5.889149 25.258762 26.659876
-4.8931375 25.54904 31.47732
-5.4933367 25.31428 35.326653
-5.466512 25.699467 41.600414
-5.5094075 25.572199 42.35424
-5.5700574 26.050663 44.068336
-4.877032 26.66456 18.034042
-5.2613564 26.672626 18.631254
-5.4328413 26.614157 19.575085
-5.2663274 26.590605 20.111433
-4.757762 26.922777 21.165379
-5.514874 25.975033 26.913729
-5.310594 26.59504 29.863516
-4.7075253 26.851173 30.798134
-4.731999 25.846466 31.773989
-4.6452847 25.964643 34.140907
-4.7615623 26.907476 34.425285
-5.604702 26.468618 44.574566
-5.4578996 26.776339 44.881393
-4.876398 27.25797 18.031965
-5.294987 27.347185 18.709934
-5.421602 27.434366 19.575642
-5.3322086 27.369371 20.050743
-4.853097 27.284002 21.014456
-5.5090027 26.782082 29.454723
-5.398494 27.640675 45.196568
-4.7838182 27.887774 18.204828
-4.936271 28.090881 18.651655
-5.087426 28.087326 19.419199
-4.9036803 28.263826 19.991701
-4.8979435 29.042751 29.586954
-4.917838 28.643797 30.83021
-4.751841 28.76442 32.30911
-4.835126 28.549795 33.3663
-5.2101793 28.51773 34.532948
-5.557923 28.789661 45.139145
-5.000349 29.55574 29.586782
-5.154381 29.84712 30.229208
-5.226772 29.656855 31.352283
-4.8693094 29.39364 32.74093
-4.822477 29.218296 32.97726
-5.2782803 29.266056 34.80024
-5.772087 29.32363 45.03818
-4.76346 30.63708 29.03411
-5.0143137 30.3896 29.60336
-5.1252837 30.460878 30.41672
-4.9496646 30.620155 32.260193
-4.679077 30.238592 33.420708
-5.5109744 30.520746 35.70742
-5.5581865 29.95644 44.838562
-4.770145 30.892515 29.165497
-4.761412 31.026209 29.586147
-4.7483673 31.04984 30.631615
-4.851459 31.01462 31.566523
-4.7522388 30.922577 32.296963
-5.3750153 31.246408 36.681095
-5.036028 31.759878 37.4397
-5.502421 31.06199 38.236927
-5.217634 30.796803 39.20751
-5.4203773 30.749453 40.374878
-5.6893973 30.857769 43.49606
-5.9396844 30.607075 44.16621
-4.688444 32.821796 36.860283
-5.033913 31.92074 37.565792
-4.9819064 32.519188 38.077854
-4.6595454 32.76973 38.968513
-4.8618646 32.995934 38.02092
-4.625606 34.529137 37.808285
-4.621316 34.46151 38.019722
-4.5807877 35.153698 37.777744
-4.574246 35.15709 38.297585
-3.7618895 18.184856 21.657589
-3.7343068 18.136992 22.599895
-3.6126912 18.712027 20.917536
-3.8432677 18.589998 21.616453
-4.019425 18.75734 22.463081
-3.7910106 18.756393 23.316738
-3.686821 18.940739 29.776396
-3.7096038 18.879826 30.199774
-3.746967 19.427143 20.931728
-4.054803 19.366117 21.732344
-4.141073 19.51435 22.635288
-4.0145597 19.28248 23.163652
-3.6747386 20.080147 27.944944
-3.6506808 19.836977 28.764805
-3.7824962 19.695244 29.671707
-3.819273 19.563135 30.093925
-4.0400543 20.384699 22.46122
-3.8900034 20.238482 23.132746
-3.7223945 20.651892 27.764027
-3.8097696 20.546324 28.570736
-3.7319186 20.82532 30.981655
-3.7733228 21.097078 32.758453
-4.00447 21.23191 33.30048
-4.321967 21.208723 34.9101
-3.9288304 20.947998 35.27488
-3.7225714 21.178024 21.79478
-3.623519 21.310371 22.514053
-3.60852 21.083954 22.943287
-3.6991777 21.182983 27.692987
-4.5811296 21.893185 29.42306
-4.16193 21.93378 31.48647
-4.531511 21.403372 34.748196
-4.4067574 21.362278 35.6843
-4.168873 21.471436 36.129288
-4.737352 23.200436 27.703606
-4.4098935 22.887568 32.643387
-4.2548103 22.907173 36.840237
-4.894014 23.760967 27.373934
-3.9904397 23.394066 37.297638
-3.9758914 24.235826 38.220577
-3.9435506 25.351067 18.66315
-4.088403 25.38654 19.232414
-4.419429 24.53223 27.009176
-4.485712 24.102613 33.348446
-3.8743942 24.975273 39.595387
-4.1390433 24.834938 41.710556
-4.475269 24.990406 42.6567
-4.5544314 25.331594 43.24146
-4.338427 26.026203 17.953749
-4.408281 25.6289 18.571278
-4.104983 25.44725 19.578844
[...]
POINT_DATA 6851
SCALARS features_00 float 1
LOOKUP_TABLE default
0.8641362 0.8650555 0.829728 0.8447188 0.8714844 0.89053035 0.81948626 0.8540287 0.8800153 0.92831594 0.8422399 0.7206836 0.84326583 0.858491 0.8793504 0.86484045 0.8214897 0.78898615 0.7808336 0.79631996 0.8286843 0.80387205 0.7460696 0.82493603 0.8400093 0.74815464 0.6406927 0.8264569 0.6012981 0.8108238 0.7894424 0.78159994 0.74230623 0.63809896 0.7034131 0.731519 0.686727 0.7757166 0.7623885 0.79081875 0.7671734 0.7403119 0.69483674 0.7436514 0.6065727 0.47458202 0.7265476 0.5026957 0.318052 0.48309612 0.7039219 0.51065207 0.61078626 0.60005844 0.7376929 0.32238504 0.3893945 0.6659483 0.7293271 0.73572433 0.7373556 0.6136348 0.6621714 0.6967988 0.7238778 0.7102847 0.64611065 0.44001096 0.60458636 0.65071094 0.6696381 0.66175103 0.66697884 0.63003284 0.6490133 0.56344956 0.77306193 0.71645975 0.6477381 0.55662906 0.8267238 0.79348326 0.7407702 0.7042942 0.55901575 0.83277935 0.8055782 0.777642 0.735219 0.62718046 0.4416354 0.32881197 0.3364262 0.28044033 0.42392567 0.46373975 0.8214916 0.8050492 0.78417677 0.7328348 0.6300893 0.2281558 0.3786474 0.43163282 0.50139505 0.52506006 0.7776228 0.5718785 0.037940577 0.31235567 0.5462625 0.61263865 0.6081443 0.52483684 0.71273375 0.66305256 0.6589538 0.117505826 0.309498 0.5284523 0.6233207 0.60904807 0.61649776 0.2267003 0.5217941 0.59946716 0.6234578 0.598349 0.564894 0.6254778 0.49371684 0.45312697 0.7735721 0.75143355 0.47238013 0.4294241 0.853909 0.3926373 0.027778441 0.83705926 0.40090916 -0.045231804 0.14392138 0.21297145 0.3426912 0.39431596 0.43211892 0.49486083 0.81380695 0.8056259 0.78552324 0.656595 0.5111551 0.39119864 0.10477224 0.5287121 0.54406536 0.8069489 0.77297926 0.7293335 0.6479507 0.5622529 0.586778 0.24723676 0.6545481 0.34437507 0.5817843 0.27112386 0.07336387 -0.15521717 0.40104342 0.51780105 0.12750787 0.5013095 0.5470262 0.51626927 0.41905463 0.38924462 0.14118093 0.39591497 0.4135983 0.5853212 0.5245024 0.3529717 0.18230319 0.10183103 0.29500228 0.34152436 0.3940484 0.38953424 0.6370709 0.21764559 0.13529782 0.2257366 0.30783564 0.2329545 0.7471748 0.16587472 0.15125525 0.09313415 -0.0047255605 -0.0051104985 0.020583156 0.27507034 0.31525353 0.37779492 0.8825563 0.81792593 0.54083747 0.80097747 0.20101283 0.045078747 0.2526073 0.35850596 0.47931796 0.92099386 0.89571524 0.79291207 0.70234966 0.46703315 0.71927273 0.36023888 0.02508369 0.117118366 -0.088320546 -0.24864854 0.5047386 0.5036684 0.9017737 0.8631886 0.7792528 0.71341497 0.52727675 0.46750867 0.5469197 0.8623618 0.8278462 0.7677626 0.6899972 0.39526197 0.24412909 0.17766348 -0.047048792 -0.22357838 0.5054675 0.40945613 0.42250285 0.3878024 0.23969805 0.16428675 -0.08868244 0.48119512 0.3546282 0.39912358 0.42205644 0.3527054 0.21099287 -0.003029108 0.42454666 0.34432214 0.34947842 0.38229442 0.36174986 0.3146245 -0.034858584 0.040811375 -0.095444925 -0.22476535 -0.10320248 0.38584372 0.45718902 0.18954979 0.06761868 0.1678527 0.17980485 0.25105467 0.49027872 0.47019053 0.56512225 0.54662955 0.3845161 0.3779179 0.37545046 0.418822 0.44855374 0.4005929 0.361475 0.36528265 0.40993637 0.47446477 0.4588014 0.4354287 0.16507383 0.24687023 0.30572987 0.32087106 0.369648 0.33500943 0.13153838 0.16301292 -0.0036895908 0.11122153 0.23484677 0.37029237 0.3413068 0.30777368 0.24475044 0.23159814 0.094402246 0.15946063 -0.076174274 0.38147223 0.38721344 0.35888794 0.5981043 0.025905967 0.26493648 0.59953934 0.11265022 -0.12522486 0.7221217 0.7066519 0.518999 0.06707834 -0.18259513 0.18676238 0.3286453 0.38098058 0.86367464 0.7888869 0.70275235 0.63501894 0.1950576 0.47459093 0.021527797 -0.2066853 0.36489064 0.4151759 0.9093416 0.36814335 0.2540265 0.4747283 0.5204178 0.40349013 0.42797136 0.8881328 0.3886221 0.2852528 0.21472579 -0.05408894 -0.21217923 0.8425103 0.81597435 0.7608272 0.6385776 0.45294687 0.24617907 0.32987082 -0.07796969 0.78707033 0.7158592 0.45018443 0.32845512 0.27768472 0.4533401 0.37382692 0.37514308 0.28547826 0.32014024 -0.06002044 0.23336267 0.45968786 0.46803916 0.4628561 0.4097488 0.26772183 0.28335646 0.33974385 0.3282209 0.2270625 -0.120406725 -0.060574353 0.2011556 0.38126183 0.26320553 0.45806324 0.45025682 0.4153688 -0.033362128 0.19258934 0.045350637 0.48472956 0.53270435 0.52066785 0.3065543 0.2726243 0.35159785 0.58449817 0.60141563 0.45162037 0.44334704 0.48069844 0.56045973 0.59398973 0.5818437 0.56441504 0.61036605 0.62514156 0.22571981 0.21362275 0.21185529 0.22302914 0.27701172 0.33878037 0.30561453 0.2653495 0.24251777 0.25207904 0.36232042 0.37400702 0.36102623 0.29967344 0.34524766 0.30011335 0.2437695 0.25455403 0.17094326 0.30915606 0.37516302 0.37102497 0.33279765 0.3294772 0.35273045 0.172953 0.15689722 0.27605337 0.28686005 0.11986469 0.19211589 0.31490007 0.33239853 0.39117134 0.23951957 0.019858122 0.119828194 0.2906151 0.31143224 0.3090602 0.35505527 0.3009898 0.22257008 0.141063 0.2824081 0.218597 0.31821588 0.31067628 0.18291132 0.11609368 0.060684696 -0.039969493 0.126279 -0.011224404 0.024957955 -0.20141011 0.11749058 0.22194076 0.651032 0.5371407 -0.12652412 -0.078129806 0.32813373 -0.20951532 -0.09726947 0.30194917 0.31005383 0.8060837 0.03925221 0.0012781881 0.3160023 0.3493222 0.34265807 0.3064698 0.8767861 0.85636914 0.09569883 0.10899754 0.036249638 0.32996872 0.84537554 0.14979228 0.03197769 -0.1432788 0.80077934 0.22211525 0.06958217 -0.044486746 0.2758195 0.73385847 0.5881638 0.09540665 0.07809582 0.09879885 0.15399893 0.2062904 0.20517188 0.39790314 0.1945647 0.2606355 0.39478844 0.1279808 -0.07574079 0.34297633 0.30463973 0.44852263 0.4297611 0.2544149 0.10353466 0.103257865 0.21024856 0.15884258 -0.14066291 0.47620982 0.41933903 0.39205387 0.34898943 0.32307118 0.025265954 0.106055774 0.1498001 0.12667273 -0.11415725 0.14475013 0.5205444 0.6127139 0.5933951 0.3670371 0.342809 0.16315638 0.19556671 0.18655957 0.3964893 0.2686573 0.4967485 0.607525 0.31096527 0.1769141 0.21659702 0.4525509 0.5322103 0.59003377 0.6408176 0.60907054 0.33686316 0.34199417 0.4551812 0.4006425 0.4154939 0.44411668 0.4801191 0.8518333 0.8501642 0.78946537 0.80722344 0.803336 0.7769908 0.6889458 0.73111475 0.7409477 0.56574094 0.5921831 0.60238755 0.62227094 0.48404306 0.49179208 0.8145928 0.8214785 0.5534619 0.7696293 0.8329463 0.8323131 0.56959826 0.8230412 0.871556 0.8692358 0.31282783 0.4752143 0.5912257 0.7192095 0.8213885 0.8723959 0.31063336 0.254239 0.198328 0.15205783 0.31714964 0.51798487 0.581267 0.6791938 0.18968064 0.19073257 0.17800432 0.17085561 0.15395303 0.22187549 0.19917557 0.18383266 0.24877939 0.24580541 0.22582823 0.27234104 0.20634645 0.3088941 0.30102456 0.28042608 0.2626546 0.20135404 0.31047508 0.31379846 0.39075613 0.18372229 0.24901041 0.023550088 -0.07227451 0.34545738 0.46200615 0.23433146 0.0062676966 0.17730615 0.26851654 0.29075792 0.25334996 0.1870265 0.0681699 0.2873039 0.3369677 -0.023091726 -0.21180046 -0.24033743 0.0742643 0.038901724 0.3171292 -0.14544675 -0.1255185 -0.10409067 -0.3720634 -0.3720625 -0.37041873 -0.13944332 0.29163533 0.22364356 0.6008791 -0.16826366 -0.21088077 -0.2762769 -0.37057987 0.22816259 0.6977949 -0.2052325 -0.23110159 -0.31034422 0.24476436 0.64017296 -0.23086938 0.267453 0.6066011 -0.29680416 0.25713238 0.68252313 0.6212392 0.2913244 0.15247048 0.25249538 0.2717882 0.35976043 0.43404138 -0.11029768 -0.2833622 0.4876318 0.45431438 0.44802517 -0.010894645 -0.26543337 0.58100617 0.43134314 0.41328415 0.38272431 0.04418799 0.07735579 0.1448334 0.09232811 0.060695305 0.44994023 0.56571126 0.38055664 0.3523632 0.30135888 0.051970027 0.18420798 0.19253367 0.09422353 0.14343618 0.16253741 0.1566465 0.34502 0.17874971 0.28031906 0.21686138 0.10234551 0.10266879 0.15035392 0.27034122 0.36308166 0.4481408 0.4094739 0.37104946 0.33677936 0.30942777 0.3627597 0.3635751 0.40114778 0.42145172 0.43099868 0.3843807 0.3454764 0.3891045 0.4561777 0.4841603 0.46701828 0.3803835 0.36636847 0.43580312 0.47189242 0.44703025 0.38842475 0.41289955 0.43916336 0.8359779 0.8763585 0.8636023 0.83320427 0.6659697 0.7943174 0.8364501 0.8287057 0.79271114 0.6051667 0.71164834 0.7212565 0.5472627 0.5741995 0.566252 0.46942395 0.36693093 0.40488693 0.36192042 0.35577974 0.32653835 0.4100639 0.7252817 0.7871402 0.80607766 0.25323546 0.2505912 0.1774994 0.3287022 0.53693944 0.8142613 0.80919594 0.38777736 0.4129563 0.40951344 0.35869166 0.2820713 0.16934541 0.025038145 0.19965744 0.32928053 0.8378054 0.82068706 0.35150805 0.38392812 0.37660694 0.3417888 0.27103043 -0.070009075 0.11371661 0.8153323 0.31156456 0.3556847 0.29932767 0.1838164 0.065465935 -0.118569225 -0.041023895 0.06432216 0.5117809 0.5772886 0.19591561 0.27938285 0.11380088 0.08110403 0.14005308 0.029174447 -0.08698571 -0.16527328 0.2665828 0.34792575 0.43370035 0.48251516 0.040424228 0.074296474 0.057514995 0.12404823 0.17657423 0.008852407 -0.048875228 -0.13534635 0.093516506 0.22508687 0.65885663 0.25999174 0.20864563 0.16629884 0.62292427 0.63187253 0.23912661 -0.036506996 0.4031178 0.55225825 0.58084744 0.27142254 -0.014782991 -0.050258793 0.3413439 0.51585585 0.30552596 -0.38299698 0.19373086 0.2695455 0.13119923 0.23360907 -0.36836925 0.13122267 0.18787766 0.11309764 0.12605049 0.3847503 0.29993445 0.108599104 0.42625517 0.36033496 0.3832267 0.10880059 0.22622035 0.082883164 0.2552962 0.30485818 0.34981713 0.31785044 0.3940279 0.4190632 0.41286558 0.5287665 0.5008391 0.41173214 0.104161195 0.13097967 0.48855305 0.50783926 0.38640657 0.37561384 -0.15656173 0.0058571603 0.14662006 0.13524765 0.037670624 0.2471877 0.25041515 -0.06477696 0.11960594 0.14373305 0.10964845 -0.184657 -0.015473485 0.1496206 0.18377897 0.08052067 0.08708369 -0.17400685 0.05058826 0.24033429 0.19540587 0.2892493 -0.019748922 0.10233828 0.19695318 0.31515658 0.26631653 0.2769999 0.2794545 0.21982944 0.25016558 0.24600996 0.315229 0.37133053 0.24394077 0.20096415 0.27415916 0.32932422 0.40267482 0.36420685 0.281951 0.8588511 0.8533087 0.68791735 0.8036195 0.85451543 0.86603194 0.84298956 0.63342273 0.7344121 0.8134723 0.7643546 0.44696802 0.6648252 0.4417923 0.3997661 0.44046986 0.18559775 0.15215902 0.1834121 0.27871042 0.71863663 0.72609884 0.36356223 0.41007 0.38898522 0.30325598 0.22635835 -0.07130162 0.24861176 0.68858016 0.74382085 0.24766448 0.36288145 0.4066694 0.4225381 0.38446218 0.29313558 -0.027197145 -0.011101428 -0.13924381 0.7579118 0.24267371 0.34255534 0.17542669 0.2184659 0.22554627 0.030737137 -0.061317373 -0.086799145 0.72518456 0.2306121 0.29143798 0.14490667 0.1444384 0.10551857 -0.14196733 -0.12878922 -0.13014089 0.49689484 0.60232174 0.4631985 0.144369 -0.08969906 -0.16051033 0.39832875 0.6417944 0.63196206 0.5159087 0.36646983 0.090531394 -0.04801269 0.6540804 0.68073857 0.68076634 0.59562755 0.49889666 0.048811868 -0.05338978 0.031889975 0.6875739 0.6700641 0.67033476 0.6101717 0.21276878 -0.12782216 0.021705016 0.65062773 0.67738235 0.6268809 0.588263 0.42109185 0.13087466 0.6330683 0.6272366 0.27367932 0.5738169 0.548366 0.5299386 0.2983962 0.4148835 0.48155588 0.2585707 0.14257921 -0.007278991 0.24411803 0.008980922 0.29532626 0.25318912 0.15939675 -0.010469209 0.07699582 -0.054614745 -0.15424943 0.16261993 0.07851964 0.21887155 0.22883365 0.24510789 0.30249768 0.28709742 0.3758598 0.42179635 0.37485373 -0.36038452 0.35884416 0.26720005 -0.2642346 0.15244178 -0.33472183 -0.12211418 -0.19799384 0.03990061 -0.113105424 0.1194352 0.13831498 -0.035081055 -0.0232784 0.045211546 0.07522446 0.23504373 0.40139043 0.15533431 -0.22487155 -0.14244255 -0.12877937 -0.15516141 -0.0007614847 0.15633148 0.07024968 0.3291233 0.47707957 0.53699166 0.1666954 0.16112825 0.17425 0.0660176 -0.19058824 0.094150014 0.120713264 0.16852413 0.22021426 0.16922516 0.14212796 0.13590336 0.12647367 0.092084765 0.024045423 0.052898616 0.281678 0.25772104 0.22247484 0.18700106 0.15921764 0.13965476 0.20219919 0.29086977 0.26853594 0.24735159 0.21066815 0.37319064 0.4210161 0.33762553 0.30268642 0.18961072 0.2548806 0.32978278 0.31128415 0.31130236 0.3449984 0.3459143 0.38608837 0.41327 0.3361589 0.77550995 0.78230286 0.72340876 0.7683306 0.77440095 0.7628895 0.5844674 0.5853368 0.74235415 0.30816382 0.3768174 0.62159526 0.35119694 0.13330004 0.12799597 0.3007207 0.60943735 0.05565718 0.3018149 0.57358193 0.52512276 0.5653853 0.43522575 0.17289227 0.10591102 0.41195172 0.35378706 0.27955058 0.2727027 0.1406183 0.030796453 0.467722 0.09979166 0.13359803 0.20045948 0.20416693 0.108790755 0.13575916 0.12959746 0.5640155 0.15307975 0.10756348 -0.08648802 0.10633704 0.13784577 0.5407919 0.2201558 0.16542776 0.13895872 -0.11210327 0.029660828 -0.024194136 0.03286484 0.06152466 0.48048818 0.35018703 0.2551939 0.039361484 -0.060704723 -0.16850153 0.39348602 0.560402 0.5749017 -0.2840655 0.26219293 0.6332722 0.7528913 0.5962552 0.62942374 0.31963354 0.7444032 0.5544942 0.49380708 0.34489435 0.17958656 -0.043007113 0.6417923 0.5909259 0.28254858 0.23717025 0.59778285 0.56314725 0.27974874 0.5084844 0.22038579 0.38915408 0.16768402 0.09982905 0.187026 -0.014536805 -0.10641619 -0.1171283 -0.06820873 -0.19560419 -0.0014764965 -0.17922087 -0.32058614 -0.16927557 0.14293683 0.022968411 0.1356492 0.1896705 0.21013522 0.19010188 0.18163049 0.24465376 -0.4691108 -0.1955812 -0.059528463 0.11608249 0.27287206 0.379185 -0.0717209 0.038132615 0.41862535 0.5117846 0.5312154 0.49215418 0.57800496 0.59635055 0.17101917 0.14436068 0.40236163 0.51436156 0.5769254 0.60425067 -0.012092795 -0.029065907 0.045361087 0.026818842 0.3081227 0.51829076 0.538831 -0.020772472 0.009776128 0.16623941 0.15474609 0.35342398 0.3509614 0.28471595 0.35123727 0.41155967 0.35052642 0.31962088 0.40950787 0.352365 0.2677187 0.38100877 0.38179073 0.37087455 0.3423466 0.3795471 0.4051779 0.34181374 0.36487892 0.48366344 0.49140483 0.5551511 0.64788616 0.60911477 0.5601069 0.7058705 0.68462706 0.6457429 0.6629354 0.37778544 0.57767016 0.6305273 0.61141765 0.58042383 0.3880725 0.38660276 0.32130086 0.6104176 0.63117623 0.6057331 0.52800894 0.37019032 0.3765188 0.2711227 0.39343157 0.4833055 0.5791677 0.62480855 0.4499489 0.29837853 0.43063083 0.48367292 0.03701997 0.43974584 -0.00069105625 -0.102072254 -0.015605329 0.0758054 0.06213728 0.48155153 0.089335896 0.02260392 0.01661525 -0.058479726 0.03204338 0.083446614 0.4857105 -0.056885112 0.0060182586 0.29227024 0.26239187 0.13520926 -0.07699268 0.38798654 0.4082899 0.338326 -0.15389611 0.50943506 0.35846213 0.36125034 0.4924278 0.39132202 0.51816696 0.34013265 0.41634125 0.505144 0.55787057 0.64839363 0.4486376 0.4493319 0.54328007 0.57994604 0.3967893 0.31921488 0.26748964 0.2199181 0.09792994 -0.21035145 0.5546161 0.3197683 0.32738104 0.45424193 0.30264908 0.13392428 0.3251519 -0.015399303 -0.07302882 0.07855137 0.023758143 0.009382568 -0.14137572 0.12179995 0.35192686 -0.04124581 -0.36181265 0.22334838 0.3323714 -0.20703647 -0.37346417 0.2653966 -0.15971683 0.18138872 -0.07084296 0.05019121 -0.089497566 0.14933282 0.28520188 0.27491277 0.16554324 0.3898881 0.4217705 0.12032854 0.27768618 0.52136075 0.5456035 0.6344527 0.4697854 -0.04365307 0.099974245 0.4716568 0.43437296 0.6560652 0.6979809 0.7530309 0.17563505 0.5435604 0.49706712 0.75109434 0.7871977 0.82739615 0.8492063 0.22720173 0.20235218 0.5648618 0.5856017 0.7792367 0.8147297 0.84144104 0.14969201 0.06360609 0.19647577 0.4567526 0.51737267 0.54218465 0.11996388 0.28383493 0.05629638 0.2727064 0.21026441 0.25300083 0.44950625 0.42024344 0.525853 0.5107093 0.34133163 0.36521363 0.36164874 0.31326097 0.34977752 0.53532684 0.4974202 0.6232909 0.62860835 0.66597974 0.57272905 0.6017419 0.686332 0.6851966 0.6845829 0.60432446 0.6939173 0.7752774 0.7907914 0.76659 0.72772753 0.36747828 0.3249543 0.14098318 0.33613798 0.40277678 0.5549183 0.5649334 0.52438855 0.40413195 0.39537463 0.0806005 0.13980854 0.47932988 0.53086835 0.45062506 0.3164745 0.38045716 0.36404544 0.4173331 0.41513726 0.34056598 0.17940328 -0.028188787 0.2859511 0.4268661 0.41975152 0.3506111 -0.09542633 -0.06266929 0.44731706 0.46147048 -0.3612127 -0.2923585 -0.13842188 -0.13487394 -0.11240316 0.4848212 -0.09174849 -0.05063107 -0.20325783 -0.16102037 0.49577385 0.50902694 0.3579981 0.21019429 0.02883704 0.46507984 0.4731058 0.4332812 0.36415616 0.4071737 0.35774884 0.3853283 0.2970694 0.09726779 0.061943606 0.2268661 0.4123944 0.51264876 0.38007236 -0.22199658 0.42384413 0.33708215 0.35523868 0.06410843 -0.23196335 0.38103658 0.50865406 0.565592 0.36599967 0.35933578 0.32642123 0.20204224 0.43694603 0.08445861 0.55646276 0.13311441 0.07727959 0.073875725 0.19699048 0.1275402 0.13641052 0.16384505 0.12510756 0.30817854 0.13265567 0.11439718 0.36286741 0.043467462 -0.04455272 0.4051733 0.41312635 0.27517995 0.3790642 -0.25198796 0.313343 -0.2544622 0.04472489 -0.2046385 0.3439332 0.25304547 -0.08054046 -0.16122268 0.11149055 0.11957507 0.37960184 0.36491215 0.30628896 0.22259858 0.2294078 0.15122977 0.39385408 0.394841 0.19391027 0.48911357 0.54329526 0.616673 0.7359802 0.45068914 0.63369834 0.7035879 0.85731447 0.49414703 0.77377605 0.8239838 0.8541775 0.108284734 0.45084107 0.50957 0.13426356 0.12959981 0.20043541 0.23571628 0.37936056 0.43485063 0.52022386 0.3318862 0.3173956 0.29088563 0.23690599 0.11630614 0.5260495 0.66225004 0.6817609 0.52035546 0.35199705 0.3174291 0.6649198 0.56744915 0.6985596 0.70874774 0.70324683 0.6424036 0.79363525 0.84208107 0.8257342 0.75860155 0.84035236 0.3118543 0.23825341 0.185139 0.19060901 0.22393951 0.23437446 0.21880269 0.46224782 0.45535666 0.4214616 0.28095213 0.078240424 0.2810126 0.19309218 0.23788896 0.2782112 0.28924084 0.342 0.16171373 -0.029819198 0.33470973 0.359277 0.3839465 0.20351945 -0.035815872 -0.05040063 0.076505095 0.088723026 0.08684336 0.37852073 0.3942839 0.12240137 -0.18828751 -0.020225389 -0.05204159 0.37704504 0.4275146 0.062400177 -0.3035053 0.44444644 0.47142464 0.60863423 0.5586543 0.47572 0.35961908 0.19399956 -0.118108764 0.44461757 0.4793108 0.58679706 0.55418575 0.115917444 0.27462614 0.3818457 0.5153993 0.47305202 0.079060435 0.25155026 0.40492722 0.35022587 0.1569741 0.2300496 0.17740718 0.21762832 0.056105863 -0.3608907 0.02718344 0.0033320058 -0.12913193 -0.086021915 0.029573193 0.1089731 0.12112728 0.2072888 0.16472729 0.6515512 0.823283 0.8443551 0.28054765 -0.012446009 -0.39119792 0.31685543 0.49756718 0.66884446 0.7635981 0.84809566 0.313897 0.33729792 0.3277412 0.28289783 -0.39521253 0.6909557 0.78326654 0.27285317 -0.022204038 0.52563834 0.51318866 0.20231257 0.44080985 0.23831332 0.2092163 0.23231581 0.20603435 0.36207104 0.17041752 0.3888328 0.4119454 0.1177097 0.07251582 0.44354945 0.4571461 -0.31429997 0.26680475 0.033404663 -0.21637231 -0.28413385 -0.10400287 0.3194965 0.29579878 0.23858292 0.018823877 0.23204926 0.35751927 0.33681175 0.27201355 0.3707641 0.18358529 0.30417073 0.42910802 0.37908745 0.20608827 0.32378533 0.43902332 0.38800842 0.29126534 0.530546 0.36531806 0.60318035 0.689973 0.7970737 0.17259619 0.38645685 0.7714114 0.87166107 0.8907697 0.09584106 0.36944765 0.41224533 0.0736455 0.04305768 0.2430787 0.12997243 0.3807425 0.54379916 0.2986467 0.30942464 0.13729236 0.06356348 0.6791754 0.5365304 0.37173188 0.67363816 0.7092889 0.7158974 0.6914633 0.59889656 0.71944016 0.7986765 0.79471004 0.77558947 0.15616761 0.20672521 0.25472495 0.25911325 0.13149627 0.23898709 0.29242867 0.2922428 0.2781168 0.16584642 0.23364712 0.31167865 0.18877628 0.09351892 0.061927065 0.20162886 0.21141115 0.1592364 0.09818848 0.14132357 0.18552057 0.16758734 0.30202797 0.31354186 0.1872063 -0.024080135 0.022707367 0.07668986 0.113265134 0.1254597 0.1623311 0.17979777 0.060319867 0.33461094 0.070056506 0.06769047 0.2933864 0.32995117 0.058068465 0.057546977 0.3393356 0.5394154 0.3487571 0.4105526 0.659562 0.6198087 0.4572193 0.32431668 0.030721825 0.42165115 0.57740426 0.6183463 -0.12292056 0.14653477 0.45469266 -0.036085058 0.06419814 0.2872477 0.2620668 -0.24534014 0.18974791 -0.24603896 0.09574398 -0.25566578 0.041942284 -0.115892895 0.10413403 0.048763692 0.23911262 0.24007511 0.18216667 0.5430126 0.61776125 0.8472077 0.89680