# vtk DataFile Version 2.0
Really cool data
ASCII
DATASET POLYDATA
POINTS 4305 float
54.191105 34.936016 42.575367
54.235607 34.872658 43.441437
54.226086 35.167683 44.09254
54.255527 35.56282 42.162773
54.00433 35.676178 42.728756
53.946384 35.64173 43.408066
54.215584 35.707386 44.24585
54.300823 36.257904 42.224815
54.024437 36.376827 42.70643
53.9205 36.454353 43.47286
54.120495 36.38871 44.174854
54.321655 36.15254 44.77402
54.207153 37.003918 42.915176
54.167953 37.023193 43.52624
54.24833 36.997807 44.086178
55.208477 32.65028 42.687347
55.206642 32.64634 43.37399
55.081314 33.623913 42.003403
54.79556 33.748806 42.731976
54.881195 33.725727 43.08874
55.106544 33.53898 44.18262
55.398643 34.936485 36.02684
55.3708 34.9599 36.342888
55.388786 35.03005 37.27003
54.647 34.91802 41.870155
54.726833 34.263874 42.29056
54.689034 34.441185 44.19167
54.92925 34.748775 44.951653
55.331158 35.32469 36.049473
55.285744 35.496323 36.52048
55.345394 35.597366 37.448166
55.44272 35.55717 38.07786
54.389164 35.475185 42.017574
54.437317 35.326756 44.68058
54.983704 35.60556 45.584454
55.184128 35.807617 46.012596
55.384136 36.016415 36.581936
55.40714 36.106018 37.534985
55.40751 35.930206 38.166843
54.592525 36.23989 41.95267
54.40729 36.696682 42.342926
54.61301 36.576324 45.23433
55.129265 36.669743 46.00042
54.681927 36.8238 42.19935
54.715523 37.238277 42.74049
54.50228 37.37605 43.62703
54.556618 37.214592 44.30922
55.007576 37.329926 45.365715
55.183773 37.187634 45.885715
54.851677 37.593006 43.702847
55.005558 37.624752 44.85639
55.263184 37.695866 45.28405
55.310574 40.93273 34.090412
55.30556 40.73832 34.5893
55.32052 40.7287 35.10986
55.326435 41.380775 33.993454
55.207527 41.248165 34.6505
55.249386 41.438713 35.14971
55.40133 42.644352 33.96144
55.346375 42.5551 34.54344
55.35282 42.513397 35.117744
55.4019 43.051357 34.229862
55.409668 42.96621 35.11292
56.216125 29.791122 23.883577
56.164337 29.603659 24.406206
56.168514 29.772163 25.351845
56.081535 30.753212 22.972155
55.87001 30.81492 23.437124
55.68087 31.02544 24.382076
56.010067 30.764914 25.600267
56.259468 30.218353 25.796629
55.991512 31.519583 22.833017
55.699203 31.416426 23.42159
55.671803 31.3527 24.159782
56.087738 31.277733 25.791246
56.094 31.493351 26.20385
56.115128 32.062828 27.429873
56.099655 31.976015 42.051563
55.73001 32.06441 42.638577
55.76602 32.036766 43.32525
55.849937 32.19654 43.888016
56.08846 32.230682 22.905378
55.7908 32.12434 23.55218
55.775703 32.23322 24.334337
55.76502 32.54481 26.581268
55.943344 32.638817 27.416737
56.22067 32.692863 28.00325
55.783363 32.783012 41.790302
55.51611 32.411404 42.274574
55.492603 32.362873 43.68828
55.682922 32.802536 44.320374
56.293934 32.911976 23.7062
56.0611 33.33625 25.149834
55.86198 33.247963 26.683426
55.921013 33.283276 27.227556
56.248802 33.152756 28.004784
56.144295 34.33395 35.793064
55.980057 34.171757 36.68996
56.029995 34.240856 37.453102
55.653015 33.434933 41.601196
55.64651 33.932713 45.12138
56.084515 34.221523 45.644775
56.257935 34.074062 26.021034
56.098896 33.94949 26.750738
56.07953 33.793484 27.136862
55.680225 34.846653 35.68867
55.56612 34.617687 36.411266
55.530025 34.90636 37.720837
55.931667 34.65995 38.39683
55.330082 34.591175 45.434357
55.684322 34.97705 45.912228
55.9318 35.385223 35.260544
55.628063 35.555744 35.52219
55.483997 35.29704 38.0696
55.92862 35.589073 38.993202
55.522484 35.022175 41.38552
55.743923 35.607895 46.3144
56.041718 35.931477 46.611042
55.594604 36.10216 35.883553
55.6622 36.446503 36.52013
55.612923 36.392426 37.627426
55.763275 36.332867 38.441303
56.097206 36.521618 38.831406
55.64857 36.464443 46.405907
55.92851 36.352974 46.599266
56.215992 36.712406 36.109932
55.993523 36.83105 37.936718
56.07496 36.799282 38.511806
55.367195 37.364914 42.68199
55.44723 37.611362 45.73447
55.6263 37.291122 46.121166
55.451298 37.810467 44.78207
55.645443 37.800583 45.4593
55.847996 37.700493 45.879555
56.02694 40.022945 33.775208
55.762653 39.937004 34.552376
55.830532 39.901127 35.381203
56.276424 40.004642 36.309727
55.993267 41.032536 33.16473
55.613926 40.650063 33.81472
55.463818 40.385303 34.380756
55.506252 40.573845 35.35144
56.115753 40.595146 36.30507
55.81833 41.810802 33.2139
55.473 41.56313 33.668674
55.526802 41.514538 35.62108
55.914257 41.450954 36.131077
55.941296 42.714745 33.118492
55.515278 42.756657 33.785397
55.531433 42.495846 35.65471
55.88478 42.481174 36.22468
56.007076 43.344204 33.184643
55.718414 43.41572 33.714714
55.609283 43.544666 34.38006
55.70742 43.46135 35.398537
55.89233 43.273598 35.90102
56.08407 43.90645 33.679127
55.923985 43.960026 34.449917
56.043926 44.019703 35.137478
56.830055 28.999128 23.848759
56.775707 28.934572 24.533148
56.59854 29.075441 25.207823
56.889812 29.198048 25.845772
56.609596 29.713245 23.242615
56.68689 29.521872 25.932365
56.710114 30.895353 22.347872
56.66368 30.427992 22.688112
57.17607 31.262188 41.99057
56.782772 31.335375 42.810127
57.08052 31.21258 43.20606
56.765186 31.515188 22.180338
56.507828 31.629684 27.554276
56.872242 31.82435 28.567055
57.04809 31.907751 29.10991
56.9556 31.751827 41.64835
56.595337 31.546804 42.632587
56.45553 31.586172 43.26391
56.38405 31.95324 43.989464
56.904564 32.470367 22.334148
56.610455 32.566257 22.675129
56.566795 32.29679 28.489794
56.954872 32.43074 29.167944
57.29978 32.702354 29.695385
56.460793 32.951916 44.92367
56.78397 32.85432 22.871029
56.675076 33.16827 28.60602
56.9561 33.239132 28.829557
56.593258 33.937336 36.0069
56.5928 33.847893 36.575333
56.301666 34.01411 37.323975
57.19778 34.058453 38.69033
56.81198 34.019978 40.88425
56.81266 33.69108 45.604313
56.388424 34.315136 26.8656
56.76163 34.21079 27.741161
57.20364 34.3265 28.118412
56.33258 34.78675 35.297077
57.41017 34.620853 40.037457
56.628525 34.79885 46.18464
56.58685 35.721416 35.064487
56.827072 34.87895 40.871403
56.39712 35.394825 46.50275
56.524143 35.7492 46.636425
56.353977 36.567917 35.74841
56.9422 35.91893 39.450157
56.214184 35.773113 41.445904
56.55326 36.391747 46.668854
57.28062 37.279125 34.95585
56.922695 37.636868 36.51779
56.87816 37.51857 37.59474
56.466633 37.237423 46.302345
56.499947 36.889694 46.59653
56.805676 39.312706 34.316105
56.69894 38.96891 35.339523
56.81179 38.952717 36.331047
56.886948 37.836475 37.247517
56.17751 37.61066 43.916943
56.563633 37.78448 44.803795
56.39708 37.79719 45.48237
56.230793 37.703487 45.908733
56.635868 40.00937 33.208527
56.521515 39.4104 33.96747
56.71535 40.414616 32.869797
56.553646 40.794254 36.986755
56.356735 41.760933 36.570023
56.859566 41.041294 37.244614
56.453037 42.31847 32.81185
56.645054 42.171383 36.86303
56.54941 43.37556 32.97346
56.362015 43.47657 36.214355
56.60089 43.875885 33.21525
56.478695 44.107986 33.610764
56.53545 44.339725 34.48875
56.53046 44.19665 35.46692
57.087006 44.02723 36.14496
56.99246 44.56453 34.303547
57.133842 44.553074 35.276623
57.89865 28.37469 23.860914
57.78751 28.298334 24.687885
57.87084 28.345495 25.21516
57.44166 29.0246 23.02335
57.32921 28.86023 23.306135
57.418888 28.4823 24.34028
58.007225 28.727692 26.044569
57.975895 30.134237 22.164692
57.387497 29.73231 26.546074
58.07319 29.845097 27.344753
57.5785 30.551268 22.13719
57.64869 30.99715 28.336071
57.56668 31.248617 29.15548
58.001896 30.8537 41.85174
57.639553 30.827934 42.400337
57.535904 30.904984 43.061966
57.500294 31.351192 43.93979
57.52792 31.47994 21.852873
57.48059 31.557487 29.435333
58.121105 31.785645 30.309336
57.791203 31.521027 41.15656
57.328033 31.7793 44.35216
57.483734 32.182106 21.90566
58.07641 32.547806 30.350746
57.83044 33.26007 36.158707
57.646416 33.242435 36.472305
57.64051 33.038578 37.228916
57.8893 33.1395 37.998756
58.3593 32.840664 39.083687
57.344234 32.77272 45.085373
57.52302 33.108704 29.873695
57.778854 33.660633 35.83306
57.303226 33.78369 38.342575
57.636593 33.86304 39.356956
57.400074 33.284855 45.346268
57.902805 33.81152 22.411575
57.402264 33.84094 23.738707
57.747643 34.366886 24.24455
57.59927 34.01511 29.282555
58.312954 33.91138 30.115005
57.256668 34.383865 35.397335
57.152542 34.299942 35.411316
57.32015 34.890434 46.091034
58.21633 34.849678 23.875338
58.33344 35.59127 24.191996
57.4937 35.086563 25.661167
57.57017 35.54999 35.126667
56.951447 35.388264 46.52717
56.964157 35.74107 46.669224
58.22798 36.16701 23.82033
58.240437 36.64113 24.374214
57.856945 36.505466 25.8217
57.842846 36.20167 26.762623
58.29036 36.298817 27.26493
57.368465 36.284687 35.020367
56.86104 36.50707 42.73998
57.497513 36.606174 43.94892
57.32626 36.34584 46.459267
57.116295 36.373474 46.58257
58.422527 37.13177 23.566648
58.367065 37.186024 24.726366
58.03742 37.74227 26.082314
58.246296 37.489918 27.13893
58.181316 37.312946 33.56944
57.503063 38.2148 34.373577
56.996548 37.115265 43.616074
57.15014 37.34476 44.603634
57.262436 37.340046 45.35585
57.006794 36.924835 46.384193
58.13752 38.672966 26.743296
58.123283 38.63358 27.551983
58.250877 38.604435 28.312235
58.289513 38.81247 28.933422
58.382492 38.69688 32.777317
57.84726 38.61576 39.209496
58.303745 38.96785 42.022972
56.80005 37.59541 45.69361
58.059162 39.524124 26.950785
57.899696 39.629395 27.392319
57.90569 39.96865 28.1033
58.355602 39.996616 29.383781
57.461334 39.701122 33.06089
57.77174 39.45579 38.66471
58.117054 39.573 41.42476
58.366096 39.740383 41.782166
58.112885 40.5712 26.791237
57.881626 40.444016 27.375637
57.884872 40.670982 28.3852
58.197315 40.612778 29.268194
57.588356 40.849075 37.940624
58.145596 40.141724 40.21927
58.31963 40.002525 41.457848
58.145267 41.39731 26.957651
57.876514 41.5015 27.636688
57.894127 41.382732 28.39228
58.35883 41.84382 29.54922
57.88064 41.123146 32.53907
57.683308 41.661255 37.51593
57.69351 41.00233 37.739277
58.2157 41.874187 27.142576
58.13721 42.05173 27.643791
58.191708 42.11892 28.36537
57.458836 42.37702 32.56873
57.273884 42.806053 36.897266
58.2223 42.577843 37.96714
57.84316 43.23389 37.212025
58.39828 43.653233 39.262318
[...]
POINT_DATA 4305
SCALARS features_00 float 1
LOOKUP_TABLE default
0.6099507 0.620831 0.6361687 0.64054537 0.6802782 0.70172656 0.683693 0.68773353 0.7179035 0.7418905 0.7275713 0.7061928 0.7423688 0.74947095 0.73830104 0.5090117 0.5207683 0.4817969 0.5273013 0.53699636 0.52474815 0.7291352 0.714741 0.6633038 0.54655516 0.5302247 0.5543997 0.56015825 0.7235713 0.6905118 0.6289706 0.58369803 0.615749 0.6278696 0.6717645 0.7151247 0.6517283 0.5785971 0.55591965 0.6389843 0.71061766 0.7478274 0.8076482 0.68470895 0.72395444 0.7358402 0.7359138 0.772798 0.80587953 0.7211188 0.7594286 0.78971803 0.5753443 0.5633284 0.54742414 0.5950924 0.58644867 0.5781331 0.65159047 0.6402078 0.6242126 0.673481 0.65175474 0.5646235 0.5484544 0.48954666 0.61563075 0.6165571 0.56176317 0.4167022 0.4176141 0.6175364 0.61748195 0.5770617 0.38266376 0.354657 0.3778907 0.43901652 0.47949243 0.48789504 0.488852 0.58500606 0.57985175 0.5237672 0.4181426 0.40785906 0.40544993 0.45691574 0.48812252 0.5065487 0.50098014 0.45509243 0.36359268 0.4280238 0.4253887 0.41538072 0.68446434 0.6606739 0.6153796 0.43242815 0.5058693 0.52448934 0.32417792 0.40213257 0.4212531 0.7346841 0.708122 0.63401747 0.56883925 0.55365026 0.5999809 0.72751427 0.7331331 0.59543705 0.49820662 0.47111106 0.6807866 0.7236099 0.6933773 0.60637033 0.53589827 0.49412102 0.44386065 0.8030448 0.78129685 0.58394325 0.45934606 0.42945772 0.7293267 0.8192537 0.83808506 0.76564085 0.81350434 0.84389627 0.49319872 0.51061726 0.49467275 0.39968532 0.55236584 0.54859793 0.54273283 0.52720046 0.42836314 0.60599005 0.5996381 0.5455575 0.47416043 0.6559465 0.66041255 0.58907616 0.50680864 0.6787219 0.6907879 0.6943171 0.66645586 0.6099415 0.68506 0.69016165 0.6692871 0.4663236 0.46699286 0.46677765 0.4125638 0.5343301 0.41790545 0.55987436 0.5643462 0.34533727 0.42097843 0.41375825 0.55192107 0.33861846 0.3689341 0.37716502 0.34157392 0.4281233 0.45468098 0.46609867 0.5017068 0.52572703 0.38853168 0.38509285 0.3844457 0.46872646 0.4714647 0.39884475 0.39120358 0.5904793 0.5697397 0.57683796 0.31090975 0.16259927 0.48587996 0.3627112 0.37923902 0.33894205 0.6921605 -0.02118662 0.58017486 0.65522313 0.16573288 0.6532535 0.69362265 0.62161314 0.41171664 0.54545116 0.768216 0.14167525 0.28476998 0.30974674 0.86364293 0.8273802 0.35892448 0.3334185 0.14564309 0.23038474 0.80893993 0.8145618 0.8381429 0.8584144 0.4331729 0.39688563 0.4675194 0.30070102 0.3794847 0.23465568 0.61950266 0.31547108 0.6466833 0.5654363 0.6433868 0.65551937 0.63609743 0.6098612 0.52551484 0.5760155 0.53867024 0.3106048 0.3346298 0.30507162 0.38141432 0.39198524 0.39377612 0.24919508 0.3951584 0.298028 0.14122829 0.45184487 0.25509357 0.32461023 0.25274587 0.32166827 0.36513546 0.40508333 0.45070708 0.3549592 0.32687932 0.19233073 0.42343754 0.43173027 0.36787918 0.35579577 0.39894545 0.40393198 0.33161125 0.05565487 0.4345681 0.3862826 0.3619113 0.34114462 0.13718212 0.46469104 0.27700657 0.18946454 0.021042112 0.34724194 0.32243007 0.49473527 0.5088177 0.5875939 0.028794631 0.07243805 0.04426598 0.52511984 0.64031094 0.6726135 0.1544945 0.14773093 0.07098873 0.08016084 0.055897057 0.46769965 0.68048835 0.6982657 0.7305073 0.7407669 0.26342252 0.15863664 0.11029249 0.11255862 -0.1399636 -0.0705621 0.7173121 0.8041495 0.871717 0.83287644 0.21239893 0.2324228 0.23255482 0.2361269 -0.13866115 -0.016838156 0.56151974 0.867478 0.37115997 0.3949746 0.42217714 0.2913012 0.26884466 -0.057938885 0.45121384 0.49433297 0.57470715 0.5454013 0.5160268 0.3876378 0.023409683 0.18897852 0.4209435 0.6136619 0.6162828 0.60075724 0.5142027 0.44364023 0.09922686 0.05209954 0.61258304 0.61584187 0.60056955 0.5112429 0.29253262 -0.032757066 0.18791482 0.13408922 0.56206524 0.5296668 0.45357284 0.4337478 0.26849267 0.24312724 0.5554999 0.4545592 0.57985854 0.584422 0.5788051 0.5579804 0.58266294 0.6020256 0.6041365 0.5706186 0.54295444 0.52087295 0.5193577 0.5414121 0.56756324 0.53497374 0.4976477 0.5234771 0.5112247 0.5924029 0.6085392 0.48267123 0.42919707 0.41428113 0.39861178 0.42345077 0.45188743 0.49479094 0.54440105 0.53779477 0.5060419 0.31036967 0.3251864 0.35010433 -0.028498352 0.4024083 0.45930454 0.3582891 0.26605868 0.2094448 0.06635192 -0.018032894 0.3370226 0.1914175 0.33496964 0.12831089 0.10800891 0.124008425 0.122732416 0.25727618 0.08517205 0.057612255 0.18746796 0.2513099 0.34732306 0.31402886 0.35852632 0.3336383 0.30683228 -0.07704091 0.10247074 0.34246242 0.25084454 0.3201968 0.37860417 0.2431648 0.27554768 0.30024707 0.3919583 0.29598856 0.35806525 0.23938283 0.47628343 0.51605743 0.013291508 0.25793448 0.58578444 0.40626425 0.25474954 0.18250027 -0.07804475 0.041301604 0.32975248 0.50809306 0.49647176 0.3284422 -0.035478063 -0.1797255 -0.12635803 -0.09416263 -0.12190648 0.6655227 0.7712266 0.56539094 0.37808353 0.33594495 0.036408804 0.07188614 -0.08123726 -0.10278 0.44631496 0.57777286 0.5156284 0.41093022 0.28974965 0.13936464 -0.14337128 0.5571308 0.22520486 -0.2003441 0.5672467 0.32617956 0.20115016 0.17358038 0.3997011 0.47730824 0.58310556 0.60098064 0.34408566 -0.08249876 0.0335619 0.34075505 0.5855144 0.5986809 0.56987655 0.5025622 0.36945865 -0.06718722 -0.062648006 -0.012728669 0.5683762 0.53810984 0.51763225 0.4361986 0.32137182 0.13283119 0.17593436 0.5190514 0.37595087 0.2740431 0.27903408 0.34723496 0.5638199 0.67145336 0.3566606 0.4085752 0.36932355 0.19534001 0.17255066 0.34739318 0.408854 0.4069633 0.5401291 0.6380826 0.68748647 0.49371755 0.53641605 0.5832619 0.67375314 0.4887643 0.45935154 0.52521473 0.5491409 0.54631484 0.538902 0.499296 0.53092074 0.49959862 0.5435197 0.5723772 0.531695 0.49725193 0.5955498 0.64872575 0.5859564 0.4776857 0.49956453 0.48672926 0.44321895 0.5013187 0.59610486 0.5707737 0.43582252 0.4481997 0.3749192 0.46161702 0.3410734 0.4498481 0.3480693 0.1817514 0.5018579 0.36202025 0.041112766 0.25978023 0.23806289 0.27813464 0.2743081 0.38707772 0.33274657 0.6335666 0.5812721 0.46010008 0.24204251 0.08959003 -0.0038714334 0.2799366 0.2028769 0.18083572 0.18731183 0.20268852 0.16851658 0.60538477 0.35031253 0.057109345 0.07338473 -0.0267637 0.14968233 0.12604275 -0.006917231 -0.015429422 -0.016566537 0.1198289 0.14366232 0.17904736 0.14709496 0.106906325 -0.005602706 0.33816397 0.35917628 0.03709288 0.138055 0.16939168 0.17871557 0.052377798 -0.0554227 0.09250842 0.23760232 0.24515584 0.13737483 0.10566476 0.24111356 0.120761976 0.31449795 0.11456187 0.30362833 -0.021900447 0.24186924 -0.023668116 0.1003041 0.31676346 -0.22226545 -0.020257793 0.4233563 0.36796963 -0.14135168 0.10236725 0.56540734 -0.19860367 0.6189725 0.59344584 0.21997789 0.6371315 0.6236741 0.58982146 0.4766188 0.64555997 0.6104353 0.45999837 0.45958355 0.46346927 0.071842685 0.516552 0.48067355 0.006956205 0.49238446 0.49933857 0.43201566 0.42193878 0.32324854 0.54639316 0.62560284 0.15840258 0.25758496 0.6798715 0.24435937 0.25630516 0.33338967 0.36497122 0.7158105 0.73879385 0.31561688 0.62798727 0.69419515 0.7261305 0.45433074 0.508497 0.54829204 0.633023 0.6904813 0.7204981 0.5259956 0.47422504 0.41196728 0.40431345 0.5125833 0.4573544 0.43150452 0.46854872 0.45086032 0.4745903 0.32696548 0.5613471 0.5851098 0.29277828 0.43144736 0.34669155 0.6008585 0.50255394 0.24495693 0.44188973 0.38949415 0.27034226 0.29992738 0.17212982 0.69338536 0.6769749 0.5045614 0.2654384 0.5953936 0.62423813 0.13784766 0.16237831 0.15425569 0.1378575 -0.15794456 0.24407732 0.40576953 0.46665928 0.5685776 0.5636282 -0.024834093 0.102879226 0.11642921 0.04504373 -0.059816614 0.1099278 -0.054222733 0.022412177 0.26569527 0.41083604 0.47123843 0.5037347 0.49619648 -0.047366172 0.0044824854 0.20857644 0.39117676 0.48014104 0.16732693 0.21786928 0.3340304 0.43122554 0.3904497 0.004418144 0.16387889 -0.04778371 0.3295806 0.054444835 0.18649568 -0.14455637 -0.04797212 0.25643593 0.1833039 -0.16450682 -0.14448999 0.15559866 -0.04336779 -0.32553086 -0.3684753 -0.15250228 -0.21826215 0.22364709 -0.3176109 0.348389 -0.20506477 0.5289967 -0.20303923 0.6273342 -0.24747145 0.32401925 0.26872182 0.6594467 0.6626881 0.21179202 0.37684357 0.3296193 0.65365136 0.55576766 0.3072313 0.36468482 0.45175064 0.40572244 0.36073866 0.46901944 -0.10030979 0.3316631 0.47473258 0.47052866 0.29825443 0.19947875 0.5071391 0.41089562 0.26665196 0.40684307 0.39881137 0.29464015 0.3209767 0.6389231 0.28160843 0.2432332 0.11364954 0.06647183 0.7454829 0.09854829 0.14073375 0.739799 0.74170375 0.33037162 0.7269645 0.730724 0.4262315 0.62684804 0.7030029 0.7215049 0.4756127 0.48457932 0.6879823 0.79891145 0.96180934 1.0 0.67867255 0.7942969 0.9797752 1.0 0.8028914 0.8932199 0.33672184 0.19790658 0.14501476 0.32354724 0.35183924 0.33473498 0.3504859 0.38442543 0.36863136 0.3145386 0.03178467 0.058778398 0.14008969 0.4020593 0.48591357 0.5202677 0.02899754 0.045176685 0.1222279 0.73102295 0.6542417 0.5296266 0.3962912 0.089907825 -0.057881303 -0.074951045 0.6845446 0.11269363 0.06590185 0.34044802 0.593734 0.630274 -0.100703426 0.04315132 0.44346574 0.47726136 0.5080338 0.54885024 0.013226345 0.531054 0.4935038 0.45523313 -0.13949226 -0.011965193 -0.04300043 -0.049143672 0.49656427 0.47985294 0.23157515 0.44057086 0.4400749 0.18986632 -0.06528517 -0.10864771 0.36178517 0.19187102 -0.11509848 -0.109203346 0.22176811 0.104136445 0.018723033 -0.098903336 0.14227936 -0.29286125 -0.26867664 -0.31592858 0.10203859 -0.3215209 0.19729972 0.11959047 0.27192307 0.40970325 0.447848 0.4122424 -0.35116768 0.14143762 0.20337254 0.27161843 0.4564678 0.59442914 0.26346338 0.2813364 0.39577815 0.51069295 0.54826516 0.6289704 0.62642765 0.39072353 0.37977862 0.30179757 0.35513097 0.47046888 0.48085684 0.6305908 0.5270687 -0.43031263 0.31827757 0.3913867 0.42676997 0.37733147 -0.22661431 -0.17981815 -0.031470746 0.3736388 0.4249273 0.42046797 0.3001368 -0.021010676 0.49537504 0.50411904 0.48407465 0.4518863 0.26660034 0.3869955 0.4685839 0.40825036 0.24426413 0.25483823 0.55641055 0.23102596 0.18407053 0.13617425 0.12300022 0.718848 0.105701596 -0.05199634 0.0019070543 0.66545093 0.2739678 0.6607926 0.70832336 0.30330312 0.37628335 0.58903146 0.6562377 0.6875764 0.40463665 0.41021866 0.39355278 0.5232749 0.63183093 0.7978385 0.9810138 1.0 0.45817566 0.4856887 0.6018811 0.7796675 0.94921845 1.0 1.0 0.3690538 0.42508847 0.48189446 0.5843743 1.0 1.0 0.20134765 0.22208536 0.31062773 0.5148226 0.60323614 0.7423732 0.89607745 0.994879 0.17417294 0.089122996 0.06495629 0.18155763 0.56068504 0.6876043 0.7457212 0.0806209 0.0056833997 0.113245316 0.10974023 0.19048719 0.2559805 0.31859565 0.05610655 -0.0010518059 -0.009502515 0.21617824 0.28635952 0.29358107 0.7074827 0.15628758 0.15768814 0.2592239 0.69919264 0.736954 0.7203204 0.65536416 0.49885017 0.120238855 0.12830672 0.6756654 0.2525635 0.62664735 0.35588187 0.5498587 0.5291222 0.46640858 0.44029063 0.4544696 -0.13227294 -0.14974709 -0.1433308 0.4691857 -0.31485784 0.42363632 0.3311308 0.37941238 0.5567431 0.47555915 -0.5846716 -0.119787484 -0.08190405 0.22605205 0.52689713 0.37124285 -0.42053455 -0.08716801 0.013295902 -0.051777758 0.09913676 -0.11045708 0.04166942 -0.031456873 0.095433146 0.060797274 0.3125721 0.3908965 -0.07638647 0.39601183 0.48878503 0.50658774 0.540392 0.4488126 0.47189277 0.5165968 0.5220684 0.46586198 0.5193185 0.34585565 0.36948037 0.39101 -0.15392035 -0.13590209 0.21653125 0.54489243 0.0055699497 -0.12304166 0.084523916 -0.42861912 0.26738608 0.43229538 0.35608065 0.56689894 0.6496556 0.06851058 0.13207239 -0.28050256 0.43943322 0.38117832 0.43289554 0.34256178 0.62706447 0.68305993 0.69808793 0.20442817 0.18194354 0.18418103 0.15439612 0.11684651 0.06500869 0.52715164 0.082770064 0.5099269 0.3123116 0.48062995 0.6017474 0.45191526 0.42126173 0.27784297 0.24675572 0.6146716 0.55312604 0.39248008 0.66157866 0.65452325 0.6327964 0.6196735 0.46567655 0.47839493 0.65616894 0.80151373 0.94236505 1.0 0.58534026 0.59200984 0.5727942 0.54355645 0.55361634 0.47539175 0.4502272 1.0 1.0 0.6583828 0.6373807 0.5753284 0.44446823 0.49225086 0.49283192 0.42049423 0.4375729 0.3558165 1.0 1.0 0.68170214 0.6683228 0.62554556 0.5045601 0.41062856 0.2583459 0.23674205 0.2867525 0.3435089 0.20218752 0.29075325 0.29918265 0.29509482 0.29765323 0.281548 0.82603693 0.93053985 0.672803 0.6098 0.61162585 0.2481643 0.039548755 0.15909047 0.03862675 0.004997298 -0.02615191 0.11153701 0.13238621 0.22585541 0.25741938 0.24886969 0.26505122 0.3543947 0.6478406 0.7092719 0.8050431 0.64540553 0.5479229 0.5502031 0.2493279 0.15499046 0.26627716 0.21565747 0.19056337 0.6190089 0.6712023 0.24481265 0.13127385 0.06591381 0.17634001 0.11369227 0.69076884 0.6983037 0.7315652 0.6745021 0.04458627 0.66615725 0.6740218 0.6216334 0.2436055 0.54510874 0.3821794 -0.3317026 0.40768522 0.6265602 -0.66983056 0.39992207 0.69509184 -0.4903832 -0.59874845 0.3779235 0.6801648 -0.5457109 -0.20148861 0.29261357 0.33262688 0.6290755 0.4622024 0.039576538 0.27165008 0.2867539 0.36652252 -0.13535985 0.38424143 -0.123302124 0.4358273 0.45167845 0.2664111 0.47405666 0.4339371 0.08399065 0.29013637 0.4263412 0.3497581 0.24672946 0.09749435 0.5527772 0.25898317 0.12614292 0.63723445 0.4752699 0.42062232 0.25251174 0.069831565 0.20343423 0.19722979 0.27804378 0.47636643 0.6260537 0.7186289 0.72554713 0.5486988 0.38943025 -0.0327246 0.049576074 0.25955585 0.621483 0.6569364 0.73580045 0.75931907 0.089117 0.08980606 -0.09884463 -0.009135231 -0.016298272 0.047381 0.072738655 0.42456487 0.28684175 0.16059197 0.46644706 0.31800193 0.5306172 0.63523924 0.6541588 0.522668 0.42221695 0.65526104 0.64009 0.6124392 0.6312604 0.62387115 0.6607654 0.664866 0.63924026 0.5842438 0.64971185 0.641686 0.6284127 0.5994127 0.6892077 0.7691237 0.8412882 0.90548325 0.6114516 0.61207867 0.9529611 0.73110294 0.6825339 0.6448232 0.5663288 0.47504413 0.29336375 0.28310776 0.33772016 0.4123296 0.9440961 0.7189119 0.69112486 0.50217104 0.19478671 0.0025435146 0.072865605 0.060623348 -0.038921826 0.28500098 0.86910486 0.6856178 0.06586526 0.18111841 0.19353633 0.7248579 0.76232266 0.62039894 0.640951 0.68506765 0.700256 0.18932252 0.072672 0.114841454 0.68193257 0.70567524 0.651482 0.53704846 0.6462463 0.657004 0.6596953 0.6409237 0.14676069 0.025949687 0.6156508 0.6110495 0.047701806 0.5276799 0.4920239 0.23958153 0.29167864 -0.0298215 0.34664083 0.68013984 0.6239711 0.23149984 0.3981962 0.7151591 0.6823948 -0.6539415 0.3693254 0.74612117 0.37205046 0.728379 0.69607687 0.66361433 -0.08263332 0.14787869 0.14745286 -0.057008047 -0.003468193 0.22918937 0.17509541 0.21266729 0.43228546 0.50348634 0.5070455 0.6350963 0.7101122 0.6520104 0.13893291 0.014615584 0.0055155605 0.080352135 0.29619864 0.7460537 0.69064105 0.75636387 0.72484684 0.61022604 0.40768474 -0.08359367 -0.058141403 0.5454762 0.6641269 0.7513638 0.76531076 -0.28744543 0.031220216 0.643523 0.6934978 0.7243993 0.012936454 0.10769141 -0.025899433 -0.005178146 0.26908618 0.46416312 0.37744856 0.5199424 0.6303255 0.637629 0.5236238 0.614316 0.63842785 0.62984395 0.52990717 0.62595665 0.62632185 0.5032761 0.5818117 0.6691716 0.6507352 0.5888888 0.549861 0.61103904 0.6973736 0.68970686 0.8156665 0.7835818 0.7070945 0.65756416 0.55238354 0.4676234 0.4392212 0.18729341 0.14399378 0.10185102 0.78630793 0.80755544 0.8047193 0.36745086 0.12507924 -0.00974153 0.12693961 0.19186582 0.78429115 0.7681881 0.7426853 0.7571318 0.7707732 0.5986361 0.6796516 0.7269672 0.73292387 0.004514158 0.07503859 0.25219634 0.23302306 0.38055778 0.31740445 0.411516 0.32123387 0.61568046 0.5426092 0.11790411 -0.021464279 0.18530113 0.6119097 0.52159214 0.2619633 0.64667594 0.55936134 0.24323167 -0.095426574 0.28466907 0.7452595 0.7146232 0.5797639 0.2669649 0.7352371 0.67966366 0.3251403 0.4370878 0.6531704 -0.03232196 0.15125126 0.3097453 0.46073455 0.22028476 0.19031829 0.16252086 0.24899775 0.5034232 0.3357084 -0.038358673 -0.04229276 -0.062412456 0.24271749 0.21782763 0.42559576 0.57646376 0.43226922 0.53266805 0.672451 0.69950616 -0.04725419 -0.0156213045 0.3093353 0.68693066 0.6325802 0.76576823 0.7489598 0.5191182 -0.087362535 0.14659587 0.67711395 0.6972226 0.70667875 0.6349323 0.56048703 -0.106815666 -0.10071644 -0.115 0.23018052 0.24985802 0.62222004 0.6671853 0.6979803 -0.015602283 0.093631536 0.084022775 0.009359656 0.19863471 0.091472514 0.038968563 0.3977022 0.37860385 0.325953 0.5671858 0.6039337 0.57651484 0.44028792 0.3838498 0.5249225 0.59531355 0.6083593 0.53623736 0.46776107 0.4163074 0.5489378 0.51690143 0.598424 0.5143672 0.2698439 0.4528203 0.58891773 0.58619785 0.5597484 0.39030856 0.4692374 0.57406235 0.0011840509 -0.045259178 0.4653142 0.5493919 0.64417106 0.855948 0.82429796 0.7568072 0.6044731 0.4658261 0.37617055 0.043192364 0.059887305 0.02241556 0.40974396 0.56833476 0.6794224 0.8485304 0.85251486 -0.12845048 0.034230426 0.13699903 0.097914815 0.6168934 0.7255647 0.8468784 0.735278 0.7565973 0.79356456 0.68953276 0.25491393 0.36713696 0.4381814 0.3635055 0.3799942 0.45766774 0.35239682 0.4684854 0.30247122 0.35224903 0.39187813 0.43277293 0.2618197 0.32374126 -0.08296972 -0.06686688 0.10640961 -0.10775881 -0.07719794 -0.1602247 -0.050907698 0.12214055 -0.1605874 -0.15583138 0.04166576 -0.09953952 0.06850222 0.28497335 0.45013177 0.53073925 0.56993055 0.49555042 0.56574774 0.4255346 0.50009537 0.33913267 0.36202478 0.4893161 0.45769045 0.20553425 0.5921614 0.07920264 0.6061486 -0.1041763 0.5302906 0.40480065 0.26712754 0.34146568 0.39260727 0.37480804 0.49898988 0.5778004 0.61459076 0.051778063 -0.056034595 -0.048923425 0.7283191 0.71921694 0.57131815 0.48338127 0.3735737 -0.08394745 -0.09820053 0.31995967 0.4243676 0.5261284 0.54935086 0.598698 0.6360082 0.6966858 0.6376379 0.54897916 -0.028944796 0.3320263 0.5445068 0.6103573 0.6270904 0.11355263 0.3207593 0.16972032 0.19641073 0.17221768 0.08101615 0.20721008 0.40151864 0.40829074 0.29274568 0.21429875 0.45848876 0.38001406 0.68644035 0.57482773 0.61609435 0.62471354 0.6318945 0.5373004 0.5912046 0.44676995 0.5407996 0.5252759 0.4526954 0.38707146 0.1481118 0.023460558 0.16521007 0.6030798 0.39108482 0.39574635 0.43449488 0.90245557 0.88659704 0.7950374 0.7247286 0.31279415 0.20652473 0.17229503 0.2682695 0.330853 0.41018695 0.4270094 0.5215667 0.8846257 0.89637387 0.6558646 0.10465571 0.3939588 0.8673695 0.28772154 0.3811999 0.837929 0.8080012 0.38353026 0.44501776 0.07213391 -0.16037716 0.4333495 0.4312834 0.46140927 0.42713496 0.44166648 0.4777826 0.45500094 0.448984 0.3896247 0.40886968 0.4055183 0.07206533 0.29480302 0.2531731 0.09131644 -0.17288913 -0.40445846 0.029006397 0.112116694 0.061300542 0.040294904 -0.086936936 0.11640472 -0.103103705 0.51645494 0.27319717 -0.14162795 -0.17172256 0.55433804 0.58222544 0.5960626 0.08371141 0.54030716 0.35236502 0.2930549 0.39189672 0.5189689 0.4519952 0.60112274 0.09745938 0.6171939 0.5657178 0.462036 0.28243142 0.32168737 0.3690233 0.40045244 0.49246275 0.5238452 0.14667954 -0.068018556 -0.046828493 -0.11420107 0.1961202 0.51287603 0.56588995 0.65225935 0.639153 0.58053285 0.43427938 -0.025046857 0.4001928 0.35463482 0.40403306 0.5352842 -0.1238098 0.015686285 0.37591827 0.15761878 0.08777316 -0.0046673454 0.2687339 0.32941678 0.35621372 0.2021212 0.22907892 0.08074695 0.2022761 0.7660594 0.76912385 0.6561264 0.71283567 0.6994786 0.5826489 0.54436207 0.08000784 0.084062435 0.41920727 0.28862208 0.28033817 0.25425 0.25914615 0.18268493 0.3138417 0.37782377 0.38948917 0.9106798 0.8305291 0.39794725 0.2757226 0.25520766 0.18637748 0.20414527 0.34647644 0.39786574 0.40538925 0.90792286 0.86306334 0.784774 0.38970622 0.19332139 0.19334063 0.35319087 0.38691545 0.88577795 0.8795326 0.8220922 0.6997689 0.54073495 0.37713468 0.82088107 0.7414798 0.65245605 0.63161063 0.5870409 0.5105432 0.49140292 -0.0717012 0.509992 -0.042529225 -0.019816428 0.52038246 0.5051639 0.43293348 0.4332047 0.3452856 -0.16750446 0.26807395 0.4386434 0.4769718 0.4072036 0.35111976 0.23844624 -0.14128697 0.08145337 0.20524667 -0.15496834 -0.17539367 -0.40052667 -0.44097304 0.14236516 0.110945664 0.023481973 -0.53984845 0.39080748 0.31563655 0.15213163 -0.19855615 -0.10