# vtk DataFile Version 2.0
Really cool data
ASCII
DATASET POLYDATA
POINTS 5463 float
20.47275 18.932886 33.420197
20.45467 18.902674 34.248093
20.420147 19.672125 32.739006
20.435143 19.415888 33.354237
20.467491 19.503927 34.05121
20.40325 20.203972 32.92106
20.430782 20.00004 33.32334
21.332226 17.1818 33.938976
21.35373 17.296247 34.12124
21.324167 17.907682 31.593637
21.249641 17.67407 32.594864
20.83043 17.975155 33.513523
20.972599 17.767162 34.314865
21.218662 17.69291 34.983166
21.226068 18.586542 31.158684
21.062449 18.467278 31.594645
20.645323 18.725273 32.75058
20.595297 18.476875 33.626236
20.58677 18.553072 34.247116
20.896885 18.672424 35.115704
21.372108 19.464724 30.937756
20.674572 19.702293 31.885489
20.503935 19.657417 32.604088
20.51494 19.86827 33.695816
20.587772 19.385303 34.36062
20.89091 19.319368 35.071293
21.1904 20.52301 31.261353
20.83145 20.435608 31.665413
20.56768 20.67336 32.482502
20.585135 20.559801 33.31965
20.838444 19.86664 34.5078
21.060772 19.840916 35.00733
21.231146 20.891525 31.339087
20.717632 21.121172 32.615147
21.26044 22.82634 32.127003
21.017729 22.206678 33.860386
21.023014 22.596975 34.5209
21.187382 22.836338 35.414764
21.132816 23.497612 31.783884
21.107922 23.487839 32.282772
20.771343 23.713287 33.489407
20.882332 23.607964 34.555195
21.078985 23.53215 35.36093
21.306377 23.405878 35.909122
21.468365 24.729336 25.267368
21.231688 24.695906 31.041943
20.965843 24.543478 31.699612
20.802069 24.569874 32.58704
20.783884 24.400013 33.73057
20.847383 24.592499 34.311493
21.085535 24.468988 35.03506
21.352617 24.078278 35.82174
21.443249 25.180649 25.448908
21.19645 25.57855 31.018574
20.955523 25.481346 31.671799
20.839111 25.32083 32.369225
20.997385 25.422121 33.632603
21.060303 25.37014 34.135403
21.266218 25.287214 34.864822
21.162474 26.331184 31.64232
21.128979 26.410185 32.284813
21.180445 26.017523 33.381832
21.279661 25.882725 33.966984
21.328571 26.753412 32.20105
22.340635 15.743011 34.78646
22.379566 15.812232 35.122173
22.40812 16.137012 36.024765
22.197317 17.36256 30.800997
22.022726 17.229654 31.385862
21.687014 17.316944 32.47376
21.882595 16.807878 33.771816
21.679749 16.897581 34.530903
21.874243 16.78188 35.2993
22.287783 16.590311 36.06511
22.180904 17.997961 30.311514
21.842003 17.772448 30.737984
21.617462 17.554394 31.552454
21.48643 17.536364 32.593807
21.62574 17.307737 34.81304
21.36633 18.01979 35.404053
22.084312 17.517159 36.131233
22.087433 18.384457 30.246805
21.765644 18.46285 30.455366
21.905956 18.322777 35.932896
22.039131 19.192318 30.110767
21.728815 19.561073 30.580395
21.59448 19.61107 35.442726
21.968334 21.30449 30.79502
21.56641 22.070612 35.492554
22.195444 21.560234 36.109917
21.789171 22.640455 30.984753
21.720846 22.283464 31.326164
21.722294 22.698757 36.14212
21.915546 24.118494 24.685371
21.92042 23.924482 25.42899
22.03767 24.00266 25.923431
21.753939 23.680977 30.619331
21.713963 23.604013 36.27365
22.082302 24.56639 24.168547
21.654013 24.698174 24.646465
21.515675 24.70088 25.459278
21.658747 24.730852 26.205439
22.236692 24.852364 27.306929
22.06463 24.493622 30.26149
21.645182 24.18538 30.626852
21.563095 24.712965 35.547604
21.767487 24.314835 36.02147
22.049408 25.290195 24.196993
21.751833 25.333185 24.636229
21.56186 25.492872 25.339798
21.618734 25.500944 26.387514
21.795652 25.62392 27.069588
21.414066 25.674887 34.703728
21.646618 25.473375 35.034615
22.043493 26.067896 24.74126
21.883915 26.292063 25.562817
21.810911 26.266514 26.34276
21.903418 26.047052 27.127792
21.744873 26.202494 30.540838
21.391783 26.609152 31.41731
21.459833 26.373228 33.464203
21.830196 26.111961 34.308872
21.769176 25.776793 34.835464
22.24583 26.726828 25.690876
22.172577 26.76474 26.068644
22.275448 26.722115 27.064959
21.74058 26.796373 31.037931
21.7208 26.956707 31.63594
21.680445 26.99631 32.416687
21.754444 26.7393 33.112587
23.059837 15.126267 34.13994
22.89209 15.1157675 34.6675
23.008692 15.067965 35.276386
23.165585 15.161237 35.83987
22.866598 15.558161 33.900154
22.557495 15.538349 34.609444
22.588516 15.576239 35.456543
22.769608 15.9457035 36.24097
22.235939 17.1895 31.047394
22.782043 16.954508 31.53844
22.481289 16.76857 32.419754
22.520018 16.567709 36.504845
22.8148 16.908417 37.049618
22.420792 17.687227 30.37106
22.512207 17.463795 30.511932
22.480972 17.576996 36.560196
22.695538 17.21038 37.06893
23.272873 17.981052 41.472702
23.326452 17.982212 42.602173
22.442556 18.392242 29.965704
22.600643 17.882973 36.615574
22.986883 18.407919 36.725117
23.147657 18.581627 40.862827
22.938044 18.583704 41.73701
23.060759 18.569109 42.342915
23.26106 18.515442 42.868835
22.973192 19.1782 29.524538
22.766731 19.447449 35.776127
23.363585 18.964966 36.98271
23.29124 19.518425 39.94103
22.850752 19.549261 40.859585
22.814468 19.530083 41.513332
23.06421 19.528572 42.275978
23.20491 19.382524 42.77606
22.628777 20.33594 29.62256
22.918346 21.02429 36.91649
23.323355 20.183533 40.154152
23.052912 20.18523 40.645615
22.967587 20.112148 41.457832
23.063992 20.016335 42.09271
22.553179 21.216152 30.233389
22.871647 21.552986 37.093746
23.156263 23.406218 25.888737
22.681723 22.120575 30.398544
22.76431 22.458101 37.059757
22.376884 24.058405 24.244665
22.439552 23.737743 24.651772
22.236883 23.68899 25.3712
23.076164 23.788935 27.027685
23.167173 23.417707 29.864801
22.31311 23.409515 36.65459
22.594374 24.621387 23.927723
23.023949 24.57074 27.6998
22.38385 24.35423 36.289024
22.419056 23.846916 36.615807
22.625868 25.425474 23.825178
22.484125 25.009476 35.71901
22.858376 26.397333 24.05034
22.539646 26.529095 24.577963
22.64575 26.587076 27.49861
22.660751 26.313175 27.861053
22.385653 26.400557 30.141912
22.496202 26.25525 34.31682
22.413227 25.868744 34.945282
23.13322 26.850796 24.155273
22.902863 27.071737 24.74947
22.768059 27.158617 25.43534
22.71785 27.131435 26.219929
22.40227 26.835833 26.96208
22.729805 27.081417 31.030481
22.39733 27.220097 31.69217
22.357811 27.173584 32.335632
22.239548 26.722912 33.48579
23.552586 15.051467 34.02388
23.662249 14.783162 34.66247
23.59554 14.815091 35.322456
23.58032 15.229471 36.111267
24.27933 14.860218 45.82558
24.20412 14.943948 46.39346
24.245949 15.127592 47.388878
23.963776 15.497378 33.580357
23.473598 15.584792 36.583443
23.675663 15.975955 37.02694
24.139853 15.443167 45.847675
24.001896 15.492371 46.57475
24.145247 15.584177 47.43678
23.689743 17.29133 30.765053
23.535387 16.921133 31.429659
23.706875 16.676216 37.447388
23.954702 16.917429 37.89528
23.992624 17.300232 41.348183
23.892963 17.259516 42.030033
24.124655 16.245623 45.73381
23.976345 16.240807 46.556675
24.146505 16.391153 47.39204
23.608042 17.97483 30.01834
23.842827 17.622375 30.335281
23.895842 17.616701 37.89399
23.75391 17.886066 40.70375
23.531645 17.609692 41.938454
23.491589 17.676863 42.53757
24.175549 17.420744 43.012386
24.369774 17.029697 45.80395
24.24504 17.029722 46.256786
23.213264 19.048391 29.362198
23.411942 18.701065 29.528484
24.094694 18.497284 38.19273
23.962906 18.705734 39.840614
23.734169 18.530874 43.283695
23.489962 19.246284 29.26272
23.751656 19.173506 37.734825
23.582142 19.54086 39.964466
24.166672 19.718489 43.625206
23.542439 20.218376 29.191816
23.959276 20.241495 37.749546
23.607225 20.002924 39.81596
23.43401 20.620014 41.896732
24.054369 20.414755 43.192326
24.273268 21.59708 24.648256
24.098322 22.006681 25.56069
23.522982 21.224987 29.498991
23.915909 21.351696 38.321407
24.148323 21.24325 40.66548
24.201355 21.208195 41.36585
24.21768 22.292593 24.288153
23.864433 22.491936 25.728556
24.251919 22.881727 28.020653
24.163713 22.20001 29.356972
23.70904 22.110197 37.773014
23.95041 23.88871 28.207151
23.573162 23.5598 36.816288
24.47165 23.829119 42.238297
23.32678 24.942938 23.615993
23.695166 23.924578 36.8008
24.461006 24.877678 43.004215
23.892717 25.585094 23.232725
23.338438 25.72471 23.5448
23.723722 25.104229 35.707474
24.447199 25.194536 42.6245
24.469227 25.440948 43.2429
23.92686 26.197037 23.31035
23.564669 26.537024 23.627783
23.450169 26.722904 29.692179
23.000156 26.25355 33.75187
23.0393 26.054802 34.34582
23.622316 27.062471 23.989294
23.487164 27.395288 24.525305
23.496008 27.4273 26.428438
23.47584 27.14822 28.970802
23.595676 27.389225 29.60947
23.806355 27.61187 30.128357
23.704853 27.672081 24.834345
23.624506 27.68256 25.337376
24.352491 28.63688 28.681524
24.312666 28.527191 30.06593
24.341642 28.942076 29.370745
24.95031 14.241538 45.79807
24.995043 13.97279 46.90329
25.033499 13.961799 47.470734
25.339224 14.051063 48.39573
24.41797 15.121469 34.031307
24.264315 14.74631 34.78662
24.40403 14.81261 35.46248
24.342989 15.018541 36.140232
25.05708 14.616885 45.07464
24.652157 14.55701 45.542797
24.39896 14.574542 46.14575
24.844242 14.492852 47.76008
25.370268 14.82179 48.810863
24.14581 15.759232 33.324783
24.595856 15.841264 37.22475
24.734442 15.845966 44.781757
24.672667 15.655407 48.1445
25.257153 15.721171 48.78985
25.01387 17.256191 39.18115
24.616398 17.205908 40.640327
24.539951 17.04354 42.02627
25.01443 16.864433 44.10415
24.462282 16.394028 45.032944
24.529987 16.294388 47.98717
24.288822 18.01261 29.912172
23.93816 17.413525 30.612476
24.482872 17.18188 47.2019
24.097769 18.46 29.534962
24.93961 18.826202 44.693676
24.937147 18.086502 46.067352
25.212988 18.105253 47.421616
25.32102 20.245815 24.004713
25.21638 20.199608 24.26536
24.961945 19.711308 45.384075
25.271048 20.718819 23.01308
25.047037 20.698748 23.648771
24.873892 20.700357 24.393204
24.658695 20.88781 25.128595
24.870749 20.930521 26.19611
24.919882 20.38583 28.897316
24.77403 20.088898 44.30996
24.7434 20.23422 46.119892
24.751272 20.624088 47.446575
25.2312 20.750025 48.160583
25.275873 21.489809 22.687258
24.86797 21.590912 23.488142
24.630814 21.308588 24.255322
24.716354 21.541283 26.362402
24.657398 21.76727 27.135979
24.600454 21.410116 39.210255
24.46972 21.56754 40.659904
25.319683 21.281214 44.567413
24.690191 21.467836 46.74347
[...]
POINT_DATA 5463
SCALARS features_00 float 1
LOOKUP_TABLE default
0.4380877 0.45838654 0.3961985 0.4142555 0.42475358 0.36381978 0.37445796 0.39509162 0.40264094 0.49964377 0.45861125 0.4593475 0.44709074 0.42092 0.51244426 0.5137094 0.45917034 0.46025038 0.46907336 0.46484715 0.4641819 0.43926004 0.40318683 0.3859982 0.4401318 0.44418657 0.34442362 0.37409812 0.34165943 0.3185125 0.3899024 0.37940484 0.28384385 0.29324603 0.21652608 0.22697902 0.35068446 0.43620884 0.29049206 0.3115918 0.40769303 0.44907773 0.47279376 0.4738068 0.7618708 0.41978842 0.41918498 0.46188033 0.47672093 0.48560756 0.4939534 0.4947605 0.7494323 0.5313337 0.54975474 0.54868686 0.50966334 0.49769333 0.5020828 0.55955076 0.5792794 0.5366556 0.51488906 0.5658039 0.47842592 0.47800517 0.45570958 0.5064993 0.4990604 0.44047588 0.35190037 0.37850845 0.38812894 0.4116345 0.5021558 0.5108576 0.49673194 0.4474718 0.3948214 0.41362405 0.35487226 0.4946908 0.49966824 0.33416262 0.45337725 0.43619365 0.32334906 0.17274477 0.32890308 0.18922648 0.1403336 0.13703063 0.4185863 0.7365169 0.68165386 0.6305268 0.22097534 0.47810984 0.72917867 0.76287353 0.7543208 0.71275276 0.6449275 0.3188932 0.2998989 0.50013965 0.49284312 0.7099469 0.74477273 0.73272175 0.67806447 0.62043643 0.50724757 0.5037763 0.6662755 0.6273809 0.59278417 0.560603 0.44803476 0.52573687 0.544003 0.51826185 0.5059115 0.5529928 0.53854406 0.47829282 0.46065295 0.50944376 0.54915196 0.5552356 0.604981 0.60552716 0.60958856 0.5953742 0.5234479 0.52354896 0.52489626 0.49641138 0.5021018 0.45680752 0.39594436 0.42114156 0.38139057 0.4996856 0.49744505 0.3170329 0.34176582 0.5634241 0.53373754 0.48503613 0.27218115 0.17187412 0.61398864 0.599936 0.57228065 0.5294267 0.43081248 0.12491834 0.039239347 0.5248543 0.5964204 0.6081682 0.5531746 0.50543416 0.3332023 0.00054761395 0.47230595 0.5152434 0.55202615 0.5335686 0.1780446 0.12381502 0.2945326 0.0653864 0.34121835 0.6803256 0.63393205 0.61208 0.28364173 0.019211352 0.46385413 0.6379068 0.38809776 0.47243035 0.4717505 0.6081184 0.48590738 0.56339693 0.5869389 0.40279764 0.37362164 0.2419754 0.50032187 0.48949456 0.53298223 0.5307879 0.5035727 0.4683851 0.4659229 0.28970185 0.44578165 0.50974977 0.5367873 0.6095624 0.64191127 0.63601995 0.5836626 0.5809373 0.5945143 0.5919748 0.47575733 0.53711927 0.48991144 0.57757246 0.6002146 0.5938523 0.40861636 0.36987534 0.4085844 0.3430585 0.43796915 0.45365596 0.542463 0.57377106 0.55939126 0.44781518 0.4140534 0.24298131 0.5241404 0.51629555 0.5084616 0.3873753 0.44740596 0.47616398 0.42517442 0.43776172 -0.0041548014 0.4493677 0.45138848 0.38125426 -0.06305901 0.50856423 0.26256397 0.28003925 -0.16861558 0.40942505 0.4412575 0.28168297 0.34237677 0.20384091 0.15580714 -0.13913989 0.18719578 0.20277037 0.31378037 0.1433396 -0.17131071 -0.107961714 0.14731477 -0.036978446 0.37102324 0.3041408 0.47678745 0.34190944 0.39323616 0.40015283 0.4966973 0.34883863 0.41101322 0.44252855 0.43193567 0.48690534 -0.05429361 0.46333575 0.444092 0.49024504 0.4926754 0.3689884 -0.05049038 0.03911162 0.14186011 0.45689413 0.43074223 0.329292 0.3355668 0.35693812 0.5666601 0.59107596 0.6000871 0.6045624 0.51646936 0.59536314 0.5670238 0.5316107 0.52613795 0.56372494 0.58616185 0.58592546 0.53159744 0.3664741 0.43964595 0.48845696 0.5317186 0.44142383 -0.004658073 0.25792432 0.3388788 0.17424463 0.47091886 0.5086472 0.3492124 0.38525832 0.45176947 0.36250216 -0.028487176 0.18817033 0.27615374 0.50846153 0.4813885 -0.016700253 0.53464997 0.48818225 0.42311117 0.3450436 0.25850734 -0.0058334917 0.055317663 0.22353521 0.47960776 0.3794501 0.47680762 0.42304942 0.39636093 0.1945909 0.087426595 -0.13497542 0.047581732 0.15982583 0.5057852 0.5295435 0.48655477 0.3168906 -0.08518018 0.11173493 0.0039426163 0.31958473 0.4657078 0.5063193 0.501958 0.25687233 0.10636428 0.0018233061 0.21159399 0.25670233 0.2754696 0.23465092 0.24998063 0.32818198 0.32371297 0.37311557 0.37985215 0.38804322 0.34538513 -0.053456225 0.22355454 0.2700491 0.22321264 0.3691139 0.41495794 0.42362982 0.45862532 0.44493783 0.33314633 0.4880285 0.49268198 0.47717032 0.3981335 0.5087973 0.5318558 0.514678 0.34253478 0.19145793 0.2580074 0.33869803 0.3285476 0.35635498 0.3983521 0.3787229 0.37206903 0.41734916 0.39679173 0.6492088 0.68129027 0.6601831 0.5077605 0.5514375 0.5999708 0.63749886 0.6384702 0.6138344 0.4241588 0.421537 0.37385088 0.35924548 0.5550476 0.1675888 0.309637 0.37847632 -0.032127768 -0.0108668655 0.121345475 0.29585016 0.1553301 0.14334363 0.22750938 0.19518974 0.1847271 0.59875214 0.57156056 0.48946112 0.38829485 0.22693609 -0.10134066 -0.17432478 0.15523015 0.5488912 0.5616137 -0.1486013 0.29862618 0.26881874 0.48781574 0.39069742 0.34320837 0.38087338 0.46813822 0.46531224 0.31726488 0.20847492 -0.21121177 0.090278834 0.34845978 0.18384969 0.14112866 0.16433352 0.14186789 0.16872332 -0.15266979 0.12264186 0.11823439 0.2377888 0.41328377 0.26943842 0.31004238 0.43112376 0.4157828 0.20457488 0.24840157 0.13879347 0.449184 0.49616835 0.52309483 0.4945665 0.28100735 0.07257089 0.31047177 0.33792886 0.4267171 0.49515033 0.48511302 0.033244774 0.27673268 0.37117624 0.4158561 0.40328974 0.37260824 0.61398244 0.6701941 0.7018491 0.672398 0.62903666 0.5420279 0.58007574 0.36865515 0.29889065 0.3667519 0.33879554 0.2958644 0.43263704 0.54415053 0.47644836 0.30602413 -0.05896128 0.20033753 0.14573391 -0.12869263 0.07836625 0.105838746 0.35896343 0.25107774 -0.098006725 -0.030603766 0.26960135 -0.0730252 0.20756696 0.48503876 0.43914098 0.32487234 0.24747801 -0.13759634 0.17034253 0.13200022 0.61596 0.6037028 0.5385772 0.14489761 0.60689545 0.16569018 0.11919132 0.48816484 0.19947365 0.4336164 0.42791164 0.2994402 0.3883661 0.48661384 0.37594536 -0.014320016 0.16851723 0.15309805 0.51575524 0.39136958 -0.059040163 -0.0033373926 -0.044000044 -0.052285254 -0.10102302 0.51286113 0.41129196 -0.56373626 0.05491914 0.122518316 0.40613794 0.06055621 0.08652869 0.10055729 0.31182665 0.16585213 0.16878091 0.27361482 0.05338031 0.17230824 0.27101976 0.25705 0.0733985 0.43708527 0.42363006 0.29303887 0.047917698 0.2900371 0.31110007 0.3123041 0.38938582 0.3443985 0.34455222 0.3369214 0.33604977 0.31448948 0.33886647 0.3750692 0.3249465 0.65390325 0.52113605 0.41557068 0.2948497 0.33216116 0.36859173 0.41430888 0.3783617 0.800673 0.7871952 0.7044195 0.504352 0.4265095 0.3890568 0.4274384 0.41169629 0.34035903 0.32604763 0.3823346 0.4071787 0.84690154 0.844334 0.76746047 0.6026568 0.4972114 0.40315467 0.46888214 0.3873846 0.3955465 0.85933554 0.84624445 0.76279 0.6417714 0.5023869 0.43930233 0.6779182 0.6872591 0.63422585 0.54899526 0.44908658 0.5337883 0.45187515 0.4504006 0.4423949 0.4085808 0.366475 0.24524969 0.065427125 0.14394015 0.16487087 0.25544846 0.4330117 0.4573418 0.3233054 0.24608272 0.04276439 -0.17262961 0.08154187 0.13171291 0.35194373 0.30733818 0.23897615 0.21408743 0.20260343 0.14522237 0.46809953 0.30033743 0.28543743 0.019556858 0.12029551 0.5889121 0.56189543 0.5068226 0.3241359 0.5837998 0.14903452 0.11238403 0.5166931 0.48969573 0.14185748 0.5439805 -0.19763121 0.60498226 -0.47388732 -0.21927176 -0.13937415 0.6135216 -0.11474012 -0.37350255 -0.08180626 -0.029719315 -0.07412857 0.5483664 0.42003363 0.024109 -0.0891905 -0.025794692 -0.0009707734 -0.06584994 0.41789654 0.0771485 0.008174434 -0.032575086 0.10456078 -0.00899151 -0.006962836 0.19757828 0.038563866 0.20246899 0.25418103 -0.0010814667 0.02803098 0.043259595 0.09259616 -0.25133264 0.20910582 0.1052957 0.01965569 0.05508934 0.28546867 0.06518776 0.39082462 0.28829247 0.31824502 0.27978098 0.29559547 0.22220457 0.22108005 0.1780961 0.19967416 0.25010753 0.08871448 -0.104669206 0.6423975 0.59164 0.45598656 0.2824582 0.06623903 0.11779311 0.22853604 0.36094475 0.3284467 0.2475761 0.34269497 0.19691929 0.7791239 0.21558587 0.45601168 0.46304116 0.35878104 0.3182967 0.39768583 0.3718031 0.78424376 0.8286175 0.3877614 0.23578563 0.47152233 0.48652458 0.45735624 0.40150028 0.3222437 0.37412095 0.38812584 0.36421657 0.8510351 0.84053445 0.774306 0.6346218 0.47112554 0.406577 0.32550323 0.49450764 0.50024956 0.47560585 0.3922823 0.823488 0.69308996 0.5381615 0.53021824 0.5035586 0.44926956 0.44454247 0.43271917 0.45016676 0.40950102 0.36738175 0.4082798 0.44464454 0.45537114 0.414194 0.36387423 0.097144425 0.14682768 0.15377717 0.12564462 0.33246353 0.34735042 0.42055845 -0.24736847 0.07443699 0.08717845 -0.020235553 0.3059403 0.40832978 0.40717575 -0.16922686 0.36711556 0.2153236 0.33367848 0.11512184 0.3610596 0.49439627 0.37123448 0.13306594 0.046990387 0.35403985 0.38417792 0.4966547 0.4765442 0.2857265 0.39068803 0.46651477 0.45977968 0.42172164 -0.16148992 0.52855635 -0.20122916 -0.08722768 0.5829581 -0.62930125 -0.1650317 0.032051846 0.61853737 -0.2724455 -0.4534105 0.024636373 0.25705206 0.5577473 -0.18900067 -0.55109394 -0.14810842 0.2888852 0.36637488 0.5026924 0.3794725 -0.29390806 0.25834242 0.45734465 0.49189526 0.49649677 -0.03445231 -0.15284322 0.078646876 0.58217967 0.57845676 0.54985946 0.24329555 0.17301506 -0.1571772 -0.08389219 0.1301706 0.5564863 0.6090204 0.60586095 0.4783708 0.36954755 0.23567374 0.23035556 0.18707892 -0.025453258 0.074268736 0.15795003 0.17990926 0.54170716 0.014012799 0.20002687 0.1138383 0.16619097 0.24551119 0.6640236 0.69787395 0.25867483 0.2319085 0.08909006 0.21810612 0.36081457 0.5249818 0.6261656 0.7587409 0.7825681 0.14608856 0.29957342 0.30367863 0.3439862 0.28522372 0.17364965 0.19578712 0.4496556 0.6316186 0.7224388 0.7799319 0.8208082 0.830768 0.27541164 0.36844864 0.5076158 0.46174037 0.3353762 0.29248777 0.28620726 0.71261984 0.788187 0.8233821 0.80508924 0.6807127 0.5322474 0.50708187 0.4023404 0.63647383 0.6047313 0.6323422 0.5431753 0.4258157 0.5624362 0.5769786 0.35756218 0.10942891 0.059989758 0.37667233 0.34649146 0.28045917 0.36291927 0.41337204 0.33754766 -0.1467224 -0.062336788 0.039660066 0.12902814 0.059642196 0.018627793 0.078796685 0.20809083 0.25259474 0.3587128 0.36834764 -0.4183135 -0.15388112 -0.2346999 -0.050274655 0.36961955 -0.120479636 0.2258144 0.2822687 0.31739724 0.3444293 0.04954166 0.038373433 0.41382176 0.42648214 0.4300604 0.3843913 0.0797327 0.16699657 0.41462135 0.44221732 0.44176698 0.43700278 0.29593277 0.43716347 0.42468902 0.3634655 0.22763897 0.41088277 0.33834568 -0.057696853 0.4125737 0.36507744 -0.036047444 0.44565713 -0.049111262 0.5404599 -0.4176534 0.19970834 0.53107584 0.33608052 0.4826951 0.31466287 0.2634313 0.48061234 0.059404027 0.5640639 0.24869046 0.095151685 0.61115193 0.60671604 0.5880437 0.44256186 0.17664973 0.18654017 0.57872695 0.6054952 0.5013079 0.45159787 0.27392197 0.5805343 0.68674845 0.58381677 -0.058953382 -0.07949419 -0.07377619 0.1705544 0.69091505 0.7936993 0.6456495 0.024182864 -0.049299777 -0.029786246 -0.018912617 0.20636082 0.2629552 0.10793267 0.34622738 0.84838873 0.8667191 0.75555325 0.7602395 0.37975165 -0.022926573 0.23585594 0.37862462 0.21571623 0.1073271 0.09886933 0.30003333 0.52266073 0.73004067 0.85235035 0.8972396 0.23973675 0.3366126 0.30566984 0.44971418 0.2486907 0.8303859 0.43960825 0.5034314 0.48876026 0.48561868 0.5166913 0.62799466 0.64336973 0.5858823 0.48114997 0.5830958 0.6146815 0.5424981 0.44331643 0.10861704 0.08318208 0.07719827 0.5156097 0.1961059 0.011738196 0.06860884 0.049045917 0.047889568 0.15911512 0.18757594 0.38382643 0.17937766 0.0035218764 -0.018206492 -0.20280915 0.12469488 0.20052734 0.23636721 0.32755664 0.31194314 0.26272503 0.2796149 0.2928859 0.30402678 0.4018067 0.38325772 0.2731949 0.43213275 0.44279015 0.3611914 0.49425292 0.46099582 0.34564537 0.24810767 0.31959638 0.17617822 0.31461164 0.33868104 -0.052783266 0.39242923 0.29413864 -0.03176716 0.28417256 0.08081995 0.09776756 0.33588162 -0.10832152 0.3596276 -0.20445737 -0.06329484 0.53259766 0.5893048 0.3591926 0.55844545 0.582342 0.4339583 0.43424183 -0.087478876 0.8897126 0.40314192 0.9249899 0.121082395 0.07276519 -0.0204239 0.11996879 0.12480675 0.27900553 0.5542221 0.6868925 0.85068554 0.9151657 0.942858 0.105913684 0.21115114 0.30233607 0.18130971 0.14085793 0.1347873 0.751222 0.83242583 0.28666866 0.36704728 0.44686943 0.5372598 0.526183 0.6791966 0.6437644 0.40857393 0.4783948 0.53921634 0.5851513 0.66049504 0.6090927 0.54294276 0.5171805 0.57236975 0.6418854 0.5988027 0.53639734 0.58285534 0.6189951 0.63904995 0.58691645 0.4476477 0.39335394 0.53245497 0.27612555 0.12187131 0.12154355 0.13287434 0.0839994 0.1376558 0.15232696 0.14740308 0.43636295 0.10712516 0.07406193 0.07613102 0.1917779 0.0101462025 -0.08310069 -0.16715477 0.11860536 0.22495857 0.21706064 0.22727104 0.24092916 0.21784034 0.103348695 0.25500378 0.28476143 0.19764522 0.39671212 0.41890046 0.47349203 0.49090248 0.42012462 0.4513666 0.46481904 -0.5431577 0.3488946 -0.22921604 -0.18040976 0.4792642 0.2849574 0.31387392 -0.3035915 0.44470263 0.44128132 0.23601633 0.35416615 0.16096073 -0.08119453 0.24614282 0.2171897 -0.006319102 0.24087086 0.19164237 0.05046394 0.0551576 0.1744187 -0.08000876 0.65087414 0.70724744 -0.024094358 0.32548913 0.5325213 0.6994213 -0.070679925 0.48261902 0.67160404 0.76737714 0.44653755 0.46808282 0.23421428 0.42468664 0.2829174 0.05493374 0.784052 0.7958523 0.9033789 0.24201503 0.029465795 -0.36689353 0.10324034 0.27652028 0.52409613 0.6902567 0.77483785 0.8653885 0.2592629 0.32754156 0.58987504 0.5892225 0.04931611 0.17500027 0.22185872 0.2042594 0.13454932 0.7445668 0.26942044 0.5034037 0.6269269 0.3687684 0.17458278 0.15200044 0.21481594 0.335513 0.38103306 0.47580847 0.6255039 0.6084589 0.49632856 0.4254449 0.48100492 0.560773 0.6248457 0.63835144 0.6313908 0.62325907 0.5843265 0.49878806 0.43836772 0.5906391 0.57558256 0.6011494 0.54802775 0.43861523 0.28810212 0.14092714 0.103855185 0.09846173 0.15346375 0.18083064 0.37844777 0.22787938 0.18417427 0.16574349 0.22962411 0.17946866 0.0024579614 0.14887163 0.29805532 -0.10799948 0.07502183 0.17978312 0.2330226 0.22399774 0.34029967 0.19925016 0.41306475 0.18625015 0.28219837 0.27575555 0.5279159 0.55244887 0.4980893 0.32443637 0.3809115 0.41800663 0.5009412 0.5351286 0.3200067 0.34944028 0.44753844 0.11167113 -0.06858273 -0.18398583 0.4467438 -0.00043025613 -0.059243128 0.34779269 0.36833087 -0.061990462 0.14167199 0.15779649 -0.01141116 -0.03247352 0.09442607 0.15600711 0.24488765 0.4751826 0.11020563 0.21000335 0.3051703 0.4103044 0.40088722 0.58571565 0.3481867 0.25469604 0.7041353 0.71162415 0.19417036 -0.050956264 0.78283525 0.80212975 0.13334905 0.1554381 0.063986704 0.31779772 0.27766895 0.7579565 0.8214467 0.838747 0.31674916 0.2701203 0.34613264 0.79363436 0.84119785 0.35736215 0.46113753 -0.09824974 0.39469284 0.4483707 0.3072459 0.40702796 0.5311291 0.6573759 0.22113867 0.18643644 0.5324168 0.5631315 0.7085191 0.3270402 0.25622004 0.28097045 0.25610572 0.25619397 0.287263 0.46542233 0.6468965 0.6323737 0.5780574 0.33561644 0.18798918 0.6005405 0.6825489 0.71627057 0.69855237 0.58784807 0.60439146 0.47320664 0.3870778 0.6083126 0.606567 0.5562054 0.45093435 0.7245991 0.7935686 0.837636 0.8413412 0.6219065 0.6543126 0.7743306 0.8138452 0.8308973 0.5516983 0.44515252 0.57207304 0.6848124 0.47020647 0.44773763 0.38622966 0.16527599 0.14699247 0.010576725 0.091724604 0.29336852 0.23018639 0.11046344 0.10471438 0.33695805 0.29965627 0.012896251 0.11341797 0.36637494 0.34463996 0.4368338 0.38842282 -0.02371654 0.46217722 0.4648715 0.5319866 0.48354086 0.27156234 0.5399345 0.5191892 0.4429837 -0.1121339 0.49897438 0.52990496 0.5232719 0.39220095 -0.14951527 0.17747371 0.2911311 0.48214945 0.53938115 0.32571676 0.18117636 -0.04774025 -0.18044691 0.48463053 0.035393756 0.4553753 0.04337232 0.21752417 0.28834212 0.30876178 0.5136776 0.49675393 0.3472445 0.24546628 -0.116830915 0.34949708 0.49742472 -0.11909242 0.6203307 0.45639306 -0.10956938 0.7120644 0.27701902 -0.07777947 0.8271692 0.10409624 0.11503586 0.1885485 0.8512075 0.85214615 0.08340285 0.28240502 0.7359245 0.8054681 0.83553267 0.21170858 0.31861025 -0.029454827 -0.17372006 0.19005425 0.3042841 0.3754938 0.06150219 -0.11450774 0.37851647 0.2595599 0.25411025 0.2637058 0.27230817 0.32581007 0.31654298 0.28855988 0.28704223 0.23100011 0.27278045 0.31645536 0.5321362 0.6470177 0.58205813 0.19734514 0.1721662 0.6893398 0.7603675 0.7868308 0.73871505 0.6943768 0.59607893 0.3391149 0.21838021 0.78071773 0.60332775 0.60953015 0.60207903 0.5499384 0.4227088 0.3449021 0.73526233 0.7789223 0.6475374 0.7053373 0.7549944 0.81392765 0.82238126 0.61457026 0.8066456 0.79438794 0.46072704 0.5244514 0.7657674 0.11974818 0.12108511 0.1523094 0.3196143 0.25072724 0.052371666 -0.015840922 0.03172086 0.076856904 0.3293115 0.36503 0.06325629 -0.086279355 0.31191972 0.39848608 0.40069926 0.3631614 0.32673985 0.25529376 0.42578512 0.41533184 0.1960991 0.4600215 0.46515763 0.27558455 0.4945082 0.49602848 0.38928893 0.28083205 0.21196067 0.0013163844 -0.13822652 -0.21773222 -0.2334775 0.5659872 0.5500232 0.37974846 -0.18257345 0.5565585 0.4976135 0.2625361 0.003494829 0.044852223 0.049798492 -0.37082312 0.21540084 0.30960822 0.512177 0.4674806 -0.044923127 -0.0097350925 0.03573809 -0.05157467 -0.50920045 0.3921687 -0.087751344 0.3738339 0.5238682 0.497923 0.3972049 0.34077913 0.17974624 -0.16420715 -0.12127959 0.36947948 0.5287695 0.51428616 0.72566247 0.14522946 -0.19335026 -0.05923657 0.06762013 0.6861302 0.77996755 0.065418184 0.12580621 0.11171304 0.6812531 0.7668072 0.055699326 0.0592528 0.041021414 0.6716126 0.7492379 0.78772 0.10463969 0.13704492 0.08093232 -0.07230023 -0.08127126 0.36727557 0.097041376 -0.4370432 0.24013439 0.26128158 0.10399808 0.31949612 0.30086097 0.27344096 0.26506695 0.23477314 0.23747265 0.26643467 0.31107605 0.6086769 0.693439 0.5733198 0.52264446 0.15982157 0.15499862 0.6873957 0.71994627 0.76855046 0.75380814 0.5561087 0.52018666 0.27237257 0.24654736 0.19230174 0.5714351 0.40117565 0.30420062 0.658262 0.67702204 0.70862997 0.60788834 0.6665027 0.7125348 0.75772166 0.5180797 0.57362604 0.7194953 0.69515455 0.39585096 -0.0017076749 0.37995467 0.38302892 0.32413563 0.23953243 0.17589371 -0.13660172 -0.06715466 0.3730054 0.42513007 0.41270298 0.33192143 -0.32782173 -0.36700797 -0.25600088 0.39744198 0.3658282 0.3360316 0.33191988 0.3496457 0.410936 0.3099058 0.33699006 0.46246722 0.3969678 0.46370757 0.47681716 0.45715272 0.39686468 0.20545797 0.0077871606 0.4155509 0.435254 -0.41841546 0.32105204 -0.4411565 -0.58432156 -0.24666283 -0.71799165 0.049847573 0.30320197 0.418907 -0.08176075 -0.111265525 -0.008171447 -0.019985674 -0.5589055 -0.53761697 0.4840852 0.5458082 -0.04784873 0.5293053 0.44242 0.35500076 0.3133912 0.18367584 -0.1275925 0.6061907 0.46484825 -0.20927644 -0.22454779 -0.3411575 -0.3525241 0.5581341 -0.23781529 -0.11127709 0.022942547 0.2303744 0.5095644 0.55318 0.030570049 0.12594351 0.1399349 0.2191545 0.22460282 0.20503493 0.5601828 0.57042325 0.6261902 0.047846947 0.3479942 0.10356299 0.31507757 0.26989654 -0.34778598 0.22404128 0.39283365 0.38491756 -0.33045915 -0.010528456 0.46293014 0.4920628 0.20131373 0.19309384 0.1619057 0.51940936 0.4962834 0.31618702 0.22237535 0.22455023 0.18619758 0.34041554 0.33353007 0.20641539 0.26682967 0.24543826 0.26400185 0.26242352 0.24113744 0.46210137 0.40941378 0.5064951 0.45253456 0.16165817 0.2260662 0.5225009 0.5869509 0.13708037 0.10975285 0.43656555 0.19926716 0.1708749 0.53989 0.2511533 0.23586869 0.6276523 0.65099335 0.57931507 0.5776491 0.59057593 0.61194485 0.61967087 0.46464854 0.5322997 0.47175592 0.4483103 0.22746432 0.42410666 0.40868485 0.36629066 0.33124575 0.30453756 0.21294445 0.13013187 0.0062698424 0.030528668 -0.14104068 -0.044422623 0.27945638 0.36418307 0.39893603 0.40155673 0.350177 -0.48841763 0.38434303 0.37455142 0.29022306 0.3525138 0.38385695 0.25543138 0.42925775 0.46396527 0.37217826 0.51827776 0.3442282 0.5210621 0.50001013 0.0010976344 -0.2770072 0.45194948 0.35301656 0.39896265 -0.15264419 -0.70594025 0.34524554 0.32066983 -0.29979736 -0.7086016 0.4801338 0.545947 0.60781586 -0.12044698 -0.11976017 -0.1934183 -0.30061722 -0.5715763 -0.48559582 0.5632343 0.60