# vtk DataFile Version 2.0
Really cool data
ASCII
DATASET POLYDATA
POINTS 2213 float
16.374405 30.768772 -0.18013498
16.391577 31.670444 2.5417461
15.924375 32.733593 3.654717
15.854043 32.78312 4.4186516
16.06022 32.62722 5.6251225
16.27079 33.299393 2.65667
15.899459 33.445507 3.6171582
15.767334 33.681366 4.6270723
15.887697 33.403942 5.37848
16.170853 33.56091 5.968051
16.343407 34.328194 3.175446
16.066093 34.190697 3.6303117
15.992876 34.267246 4.3819823
16.117119 34.28538 5.3571095
17.141394 28.202011 -0.35294634
17.118793 28.190914 0.40556046
17.270107 28.181084 0.96595573
17.211895 28.844963 -1.1137109
16.867392 28.669323 -0.3635277
16.880314 28.542055 0.2802155
17.05488 28.789543 1.1627108
17.312624 29.557373 -1.9182223
16.933907 29.663528 -1.180847
16.63679 29.266998 -0.36714062
16.719883 29.589947 1.4415507
17.191265 29.468166 1.9621073
17.164566 30.351572 4.6750994
16.703014 30.620914 -0.9663259
16.554829 30.487694 -0.66123
16.604805 30.508776 1.5529144
16.80085 30.435537 2.844772
16.546574 30.976448 3.0782895
16.891796 30.732904 4.349886
16.633675 30.982357 4.984253
17.067026 30.623682 6.332804
17.20667 30.702013 7.300775
17.366741 31.629978 -1.6519853
16.53714 31.182102 -0.48395976
16.506788 31.392033 0.30681816
16.919758 31.175617 6.592401
17.09313 31.915628 -0.8947109
16.690523 31.832136 -0.018863328
16.612114 32.792564 6.400587
17.173973 32.98137 -0.47988325
16.71787 33.85165 6.490829
17.29185 34.11966 0.60224074
17.148394 34.712135 1.664701
16.710644 34.29533 2.5300012
16.566095 33.88111 6.306371
17.271868 34.45755 6.766493
17.41968 35.564648 -4.0004067
17.386192 35.666557 -3.5942676
17.226208 35.656292 2.059124
16.660295 35.2059 2.7618723
16.644377 35.706066 3.9660673
16.614847 35.54804 4.344321
16.983982 35.64852 4.9573135
17.256907 35.255436 6.2886505
17.33819 36.737186 -4.2356644
17.279215 36.238167 -3.3554533
17.258406 36.465343 2.985345
17.15954 36.43811 3.3169885
17.17734 36.55672 4.2799726
17.362743 36.357403 5.42926
17.39221 36.095547 5.9696994
17.33561 37.673283 -4.192146
17.241919 37.58987 -3.5116544
17.214792 37.64483 -3.0042052
17.357847 38.161243 -3.5159492
17.63962 28.206114 -0.8544444
17.628538 27.926756 -0.25394693
17.693213 27.89589 0.46338445
17.703318 28.123442 0.986293
17.737385 28.935863 -1.9579948
17.612288 28.644289 -1.3614908
17.530968 28.389175 1.2674863
17.503632 29.13648 1.9172295
18.38136 28.7474 9.915172
18.129042 28.775496 10.731189
18.20038 28.691961 11.20562
17.96323 29.70753 -2.5950217
17.804771 29.615993 -2.394638
17.52167 29.349148 2.037778
17.62594 30.05008 4.7442374
17.806707 29.97384 5.865846
17.54657 30.00863 6.7461815
17.62807 30.07685 7.6888475
17.996996 29.410398 10.886508
18.113672 29.406713 11.519978
18.038956 30.166893 -2.6763008
17.665653 30.272398 -2.4856572
17.665367 30.220596 8.055868
18.068035 30.82037 10.755166
18.270092 30.451357 11.329655
18.32755 29.958254 11.887949
17.944006 31.489103 -2.1874294
18.08461 31.295687 10.487678
18.33831 31.469866 11.094034
17.93418 32.22709 -1.9870741
18.326525 33.827297 -3.5790045
18.169395 33.7978 -2.3919694
17.725317 33.164124 -1.0542567
18.366613 34.794106 -6.452162
18.231646 34.249138 -5.2920446
17.927137 34.70202 -4.6514425
17.64902 34.94011 -3.5390747
17.838512 34.502834 -0.65238905
17.59646 34.11536 7.0724564
17.930937 35.65799 -5.2936597
17.842476 35.4897 -1.6155936
18.03745 35.347946 0.63800204
18.036043 35.45095 7.189994
17.98264 36.48586 -5.2677736
17.523935 36.61224 -2.4528286
17.374346 35.958054 1.8409659
18.169989 36.179268 6.85421
17.875017 37.60894 -5.1283855
17.624678 37.825 -4.6722035
18.041325 37.773075 -2.0660436
18.068888 37.637333 2.7342699
17.800335 37.47354 3.420096
17.913572 37.38595 4.43922
18.000175 37.36825 5.265751
18.150517 37.156937 6.0682063
17.94884 38.10119 -4.9839964
17.768063 38.341145 -4.342449
17.593283 38.4165 -3.4286618
17.81057 38.35176 -2.645323
18.172106 37.833355 3.3497403
18.253145 38.004055 4.4891496
17.942623 38.73639 -4.0053897
18.01361 38.823475 -3.6448677
18.085526 38.752567 -2.8930783
18.142096 28.049522 -0.81776214
18.283087 27.922815 -0.2902199
18.308432 27.887308 0.34933597
18.41707 28.241213 1.1861382
18.983704 28.104496 9.806159
18.975613 27.846262 10.568844
18.658985 28.135456 11.373587
18.916761 28.112547 11.840776
18.509718 29.037226 -2.335172
18.728928 28.496046 -1.6188115
18.497965 28.478012 1.4698226
18.397688 28.735796 1.7851634
18.81543 29.398043 7.518129
18.64878 29.3647 8.350151
18.662243 28.655596 9.775717
18.690413 28.646347 12.000995
18.31229 29.72649 -2.777116
18.352737 29.306086 -2.5801363
18.287476 29.95058 4.192724
18.497654 29.58459 8.816919
18.790308 29.665972 12.358375
19.166277 29.760923 12.705658
18.56167 30.512476 -2.8506236
18.6931 30.287096 12.122831
19.157625 30.093788 12.681042
18.509037 31.494926 11.383745
19.188652 32.77873 -8.041248
19.278492 32.528645 -7.5956693
18.927591 32.969707 -6.976658
19.24465 33.202793 -3.5986655
18.61148 32.48392 9.7045765
18.483788 32.353695 10.060165
18.945467 32.203224 11.306447
19.281647 33.57107 -8.849584
19.001553 33.53665 -8.437424
18.770622 33.345905 -7.423635
18.673546 33.63 -6.5285707
18.880821 32.62345 10.614879
19.178123 34.807346 -8.761046
18.82252 34.446278 -8.2331
18.648556 34.472485 -7.7173185
19.187468 34.91143 -8.7930975
19.02631 35.09163 -8.244091
18.896605 35.5567 -7.2948246
18.762249 35.73076 7.399531
18.978748 36.317272 -0.08812101
18.687868 37.794212 -5.606137
18.378414 37.401035 -1.6592762
18.93217 37.517937 -1.2283787
18.835817 36.813248 1.3993471
18.36536 37.582047 2.2393909
18.3586 37.384914 6.031509
19.016912 37.18292 6.904505
18.632889 38.41275 -5.1747794
18.393074 38.47154 -2.2903368
18.922295 38.12148 2.6365077
18.63815 38.439774 3.801776
18.721453 38.147694 4.790439
18.90375 38.18557 5.402666
19.010748 37.88296 6.0627947
18.67004 38.896713 -4.426823
18.643139 38.998653 -3.428765
18.700172 38.832317 -2.7689095
19.088326 38.884476 3.7056217
19.193213 38.894424 4.270308
19.606342 27.25211 10.4178705
19.05525 28.210756 -0.066623665
19.908947 27.783604 9.285397
19.338863 27.600796 10.009537
19.400997 27.789564 11.988665
20.327032 27.409307 12.98545
19.205765 29.016123 -2.2250233
19.2797 28.568123 -1.4193642
19.440804 28.436459 -0.3837271
19.348587 28.53703 0.384877
19.658083 28.857578 12.780034
19.416842 30.045017 -2.7264862
19.481426 29.490725 -2.5600653
19.580797 29.984419 5.5448775
19.686651 29.375425 12.915364
19.089603 30.19462 -2.8564658
19.463379 30.597075 12.510134
19.333641 30.254898 12.6335335
19.800968 32.345802 -7.9818263
19.712015 32.30371 -7.4974794
19.346767 31.637152 11.970897
19.78026 32.953888 -8.792635
19.72387 32.526585 -8.293861
19.645456 32.595154 -6.629608
20.008108 32.91179 -6.035242
20.005732 32.99115 -5.061048
19.584232 32.27327 11.466883
19.411255 31.925402 11.773832
19.774841 33.634033 -9.130862
19.253838 32.86676 9.91683
19.56131 32.692608 10.976415
19.506063 34.49616 -9.070443
19.437624 34.964527 -8.892336
19.156792 35.81992 7.376034
19.693779 35.94509 -7.9926124
20.00431 36.56263 -7.679695
19.274332 36.661095 7.335936
20.212921 36.95537 -7.775312
20.190924 36.90154 -7.628492
19.567713 37.24602 7.0217094
19.567104 38.004025 -5.5725055
19.96504 38.579575 -2.2173958
19.446459 38.450554 2.6746526
19.60668 38.388905 5.6402307
19.964277 38.78762 -4.7376647
19.38383 39.057323 -4.28938
19.828648 39.206135 -2.9872255
19.71182 38.912666 3.007549
19.74581 39.262863 3.689053
19.768566 39.226994 4.3131447
19.741646 38.83739 5.116766
21.200735 25.210567 11.913268
21.268723 25.164738 12.626048
21.19029 25.290186 13.046091
20.803253 25.887789 11.351666
20.606998 26.049183 12.432546
21.090479 25.89329 13.66485
20.787508 26.701881 9.850215
20.621859 26.431152 13.064804
21.137989 26.615751 13.893708
19.915146 29.083324 -1.9022399
20.030294 28.95324 -1.4402192
20.102566 28.951279 -0.6826959
20.022425 28.901022 0.0029086545
20.33728 28.819172 7.762771
20.144905 29.409771 -2.0051827
20.4768 29.419174 -1.5368123
20.562437 29.376656 -0.7637545
20.213934 29.394175 0.8882636
20.427685 29.85849 1.5810809
19.899445 29.906662 2.2520442
19.797255 29.941233 2.8555665
19.862812 30.353521 4.7248197
20.429598 30.137167 -2.0863369
20.494505 30.500847 12.573985
20.326965 32.32065 -8.1149235
20.535168 32.270576 -7.52669
20.554844 32.285156 -6.9513426
20.274883 31.276825 -2.2358503
20.08989 31.036043 12.384755
20.669104 32.93815 -9.089321
20.405937 32.536987 -8.594104
20.220207 32.35492 11.181251
20.581505 33.366444 -9.352766
20.082882 32.86357 10.422956
20.522192 34.95614 6.78903
21.187006 35.769646 -8.883665
20.16117 35.761955 7.1507754
20.75905 36.063854 -8.694576
20.6208 36.549175 -8.330837
20.220165 36.367275 0.5161108
20.186832 36.54078 7.248683
20.729422 37.073357 -8.049079
20.939005 36.683826 -0.27334666
19.924091 37.007492 1.5854411
20.478296 37.415874 6.5997624
20.23254 37.039345 7.0471683
20.408419 38.700348 2.6903825
20.42602 38.55804 5.530385
20.37849 38.06107 6.146671
20.761816 39.55706 -3.586368
20.954563 38.93194 -1.910613
20.501507 39.31953 3.6670485
20.501148 39.324333 4.1781955
20.41822 38.86575 5.1610622
21.063469 39.67832 -2.6271677
21.67065 25.306507 11.22792
21.759102 25.09488 11.417168
21.729488 24.874626 12.268753
21.821114 25.001211 13.203931
21.946932 25.275532 13.899752
22.120155 25.453178 10.402633
21.733036 25.744246 14.152264
21.75331 26.612867 14.355927
22.244324 27.649214 7.529855
21.776846 27.393246 14.205827
21.56191 28.683338 7.874456
21.83313 27.832588 13.963311
20.722538 29.744333 -1.2989994
20.81616 29.737741 -0.3152935
21.791182 28.885744 13.162595
20.764603 30.747755 -1.8024728
20.8324 30.112963 -1.4647694
21.051964 30.814888 6.0338497
21.869596 29.85106 12.707244
21.247873 32.42691 -7.5257883
21.280819 31.840738 -1.460564
21.183237 31.4076 11.508156
21.253063 30.90247 12.00872
21.074581 32.785168 -8.908755
21.47318 32.468323 -7.9877825
21.681074 32.497166 -7.094489
21.682884 33.144184 -4.963081
21.02261 33.146008 -3.7890244
21.333935 32.484264 -2.4610243
21.422987 32.500847 5.8287363
20.872005 31.894196 11.351151
[...]
POINT_DATA 2213
SCALARS features_00 float 1
LOOKUP_TABLE default
0.4328703 0.26896885 0.36443055 0.43684995 0.44750345 0.28798562 0.36946207 0.44156632 0.4549231 0.4227389 0.31878316 0.3579408 0.41028446 0.4378467 0.7664574 0.7426541 0.6912253 0.703362 0.7327213 0.7211826 0.6121356 0.6452872 0.64435565 0.6911763 0.46545446 0.48467904 0.27708215 0.47752202 0.49137026 0.3575761 0.19238959 0.18791148 0.23378246 0.25362158 0.28722516 0.26616153 0.36135924 0.37186104 0.34934837 0.2877659 0.2950676 0.28342453 0.38561398 0.15045641 0.38078892 0.045933053 0.15093732 0.2515333 0.39282382 0.3633072 0.37271607 0.3888053 0.23956731 0.28425798 0.3426606 0.35638803 0.3688792 0.40523952 0.54386044 0.4866509 0.3313128 0.33444366 0.34672523 0.3834344 0.41407117 0.61164325 0.6250498 0.6330923 0.62853163 0.76069343 0.7874736 0.7596867 0.70317316 0.695176 0.7189628 0.66082495 0.5519502 0.34807006 0.5441456 0.59961426 0.6688976 0.66296345 0.5036623 0.28646457 0.28647137 0.24006721 0.2569708 0.61361694 0.6222415 0.6485921 0.6064217 0.22623351 0.5673384 0.57995653 0.5849935 0.47054285 0.57263947 0.59458745 0.20908345 0.21134785 0.055029772 0.103203386 0.4143875 0.25136355 0.25318196 0.2636832 -0.05094441 0.29787898 0.34173253 0.22384873 0.09979836 0.46470428 0.4659806 0.549384 0.24828894 0.5184015 0.58551073 0.60783076 0.56085515 0.3963133 0.38876224 0.3923304 0.42393845 0.4836464 0.6038078 0.6172086 0.62496364 0.5952294 0.42672107 0.45068935 0.61388755 0.60940516 0.5784286 0.78421384 0.80024666 0.78023994 0.6970811 0.31318688 0.4442159 0.56674755 0.57143414 0.70912266 0.7561682 0.6529023 0.5980799 0.17416167 0.17278202 0.30912456 0.6006427 0.6804013 0.68756646 0.23627225 0.15784115 0.5722722 0.5581293 0.6585572 0.5635395 0.5520357 0.5908165 0.7126093 0.70061815 0.6874306 0.1602002 0.59525335 0.6115317 0.6072962 0.7144551 0.71785736 0.6986104 0.5776856 0.6198473 0.51376677 0.5843704 0.57429254 0.4892385 0.44401476 0.3600598 0.5621718 0.02347672 0.51642793 0.48154342 0.2890264 0.3250713 0.3937687 0.5055983 0.63177335 0.5800506 0.5060775 0.47228628 0.502384 0.5163324 0.5642596 0.6025699 0.58687174 0.55499685 0.5025116 0.5866903 0.6199285 0.35983062 0.72668105 0.21792118 0.33387893 0.50083977 0.47384977 0.7255166 0.7096368 0.6482346 0.62781584 0.53892446 0.6937306 0.7058232 0.23473948 0.53799474 0.68874735 0.5322988 0.5419538 0.6777491 0.66746616 0.5609771 0.6998569 0.6916982 0.6390109 0.5563308 0.38468188 0.5634238 0.5649197 0.69451773 0.5901033 0.58403736 0.5865504 0.46214753 0.60783625 0.3008114 0.23068047 0.6295743 0.20238504 0.19619507 0.62324595 0.44839448 0.3109493 0.54265803 0.6531366 0.48029065 0.5259761 0.35867968 0.64339167 0.70383143 0.7046268 0.6801721 0.509764 0.6066072 0.6432557 0.39631945 0.56142104 0.65708256 0.19735856 0.5900071 0.6385323 0.64517903 0.6122802 0.5676662 0.52497804 0.04618577 0.60823244 0.5540488 0.5244978 0.44010785 0.3000627 0.32323548 0.2449245 0.14021114 0.51451516 0.4377694 0.6417621 0.60427606 0.5706552 0.31753054 0.48200965 0.6420113 0.65373087 0.49870378 0.6351702 0.53144515 0.4807769 0.26143923 0.59608173 0.24900696 0.23449709 -0.15892443 0.59899545 0.19974083 -0.13400973 0.3217485 0.5929612 0.58884996 0.69245636 0.6713586 0.6265745 0.26570278 0.19620417 0.7545267 0.73770773 0.6979428 0.23156916 0.40230364 0.4372574 0.5603723 0.6758127 0.6990845 0.31351474 0.67711955 0.6346939 0.15995906 0.5778158 0.10039586 0.51254493 0.49477005 0.456253 0.3197699 0.34689516 0.44464365 0.104233645 0.2988202 0.55218375 0.04395656 0.34652036 0.3325298 0.60294473 0.545528 0.48745942 0.1994159 0.08149645 -0.10384469 0.019054241 0.40282264 -0.076655135 0.025358558 0.21210988 0.5137274 0.045975797 0.44954005 0.44702223 0.277699 0.814868 0.6535813 0.54341406 0.8729783 0.57535887 0.55947506 0.19879946 0.6234845 0.6195042 0.7588731 0.7178068 0.6977273 0.27660084 0.2714615 0.23920041 0.37309122 0.53405803 0.7040907 0.22922093 0.20762075 0.6954093 0.23200539 0.19556838 0.64892244 0.6251021 0.2443139 0.54131037 0.36982572 0.3007309 0.25838512 0.28539455 0.30214772 0.008324916 0.3673702 0.13412817 0.24409327 0.476196 0.45455575 0.4177737 0.2058981 0.0071215015 0.56969386 0.3166828 0.57394654 0.42221218 0.57063586 0.4802826 0.39534009 0.42566058 0.32775205 0.12994659 0.713606 0.26502982 0.20679395 0.21764603 0.23512807 0.27775466 0.2851783 0.27209082 0.54361165 0.558154 0.48443395 0.7074894 0.7119041 0.30189636 0.41744477 0.41129237 0.5424161 0.32035476 0.32773265 0.27177644 0.2970662 0.17229009 0.17556825 0.59015656 0.17964661 0.3799589 0.6367037 0.5513509 0.08804831 0.5087336 0.4136013 0.6194604 0.02214371 0.59915245 0.5561784 0.26361647 0.47093725 0.43016273 0.26018244 0.4869402 0.21274564 0.2747668 0.24703428 0.2590497 0.25316834 0.5648321 0.6186036 0.67582077 0.5618073 0.7396015 0.7379462 0.49419028 0.44135046 0.3664695 0.7175053 0.54478985 0.4922823 0.4924494 0.454827 0.36370152 0.40227026 0.2501564 0.39570218 0.2315712 0.3751178 0.1379014 0.73437214 0.73195696 0.24671912 0.4699161 0.677523 0.6781769 0.20143959 0.049383588 0.119059324 0.14860705 0.23331946 0.45736897 0.5850798 0.5138123 0.66778475 0.004655257 0.089870095 0.028406836 0.63441485 0.19733338 0.548912 0.46035177 0.40740576 0.38305283 0.4318463 0.26137617 0.48836225 0.20262347 0.12227222 0.0726271 0.25973886 0.3837638 0.08553386 0.14876659 0.6491101 0.6793891 0.5960958 0.6505922 0.72501963 0.7535956 0.60251933 0.56725806 0.5076777 0.58035755 0.7514452 0.6217519 0.70887536 0.59753484 0.50876576 0.49111217 0.3834568 0.4632687 0.19815955 0.2704817 0.49561065 0.15523247 0.52649045 0.78202814 0.777148 0.7336118 0.5658408 0.43861437 0.7649646 0.75906634 0.6488743 0.61660075 0.5983278 0.72502685 0.17014267 -0.12604532 -0.10267881 0.63743293 -0.16516025 -0.13215607 0.17213234 0.55088246 0.50150955 0.1543686 0.4371355 0.3910923 0.36946175 0.16227826 0.37298852 0.40367383 0.06332656 0.093161225 0.08257533 0.21331671 0.07501308 0.11245458 0.66300416 0.7149055 0.63703644 0.66139483 0.6481233 0.6427648 0.6689652 0.71416783 0.7312738 0.66948617 0.68280685 0.5743293 0.6331476 0.63660866 0.6971028 0.66362333 0.41075262 0.5950533 0.25235707 0.17765108 0.60493577 0.5823207 0.43197417 0.7951783 0.7857078 0.7389909 0.6963638 0.5863493 0.79087555 0.7831591 0.68627805 0.7022592 0.6888778 0.65719527 0.74814534 0.74748886 0.27136397 -0.05147837 0.67575216 0.6867018 -0.17391871 -0.105448075 0.20011395 0.60880584 0.47996372 0.17731962 0.26520625 0.361323 0.16832119 0.33040458 0.13429315 0.30628884 0.1012327 0.45269597 0.37290207 0.032867096 -0.09210406 0.5638617 0.4649754 0.39579672 0.24675268 0.18118247 0.69144386 0.71687025 0.7091041 0.677285 0.6466978 0.65048945 0.49614677 0.3752752 0.58329636 0.36401966 0.21931788 0.53116006 0.5847508 0.56144595 0.67224526 0.56677383 0.6728039 0.6145412 0.7657192 0.74015224 0.4040172 0.38730776 0.7739099 0.75955427 0.72705996 0.6930951 0.7376249 0.75155437 0.69859666 -0.08520442 0.6904956 0.19527994 0.18202822 0.22859335 0.21960168 0.35159642 0.28803542 0.5003401 0.5262301 0.5773007 0.5882698 0.041745976 0.15835427 0.53873086 0.57395375 0.5891371 0.55133164 0.48802266 0.32199165 0.1917166 0.36401257 0.49446803 0.5412309 0.5549062 0.52294326 0.65413386 0.65870523 0.6020056 0.51160383 0.5419484 0.5470266 0.5249356 0.544057 0.58563626 0.6338434 0.5194187 0.40922293 0.42171666 0.6041268 0.6795313 0.7116283 0.669271 0.39030463 0.42316025 0.42711765 0.5045465 0.73736846 0.73667943 0.7380348 0.68264174 0.26546538 0.40270036 0.49163187 0.67184377 0.76421845 0.74442035 0.71084815 -0.09729181 0.70094836 -0.14497454 0.18566489 -0.013925124 0.4292187 0.33852473 0.45109224 0.49422202 0.47773638 0.5631126 0.5860163 0.5955047 0.60357964 0.59498227 0.5722483 0.44037914 0.21274918 0.34009588 0.39429623 0.48799372 0.56348085 0.5871116 0.5817195 0.5644189 0.5006027 0.3979111 0.42712533 0.43463504 0.39420247 0.4720707 0.2964663 0.400351 0.41176286 0.4221654 0.24524394 0.34965137 0.5209693 0.7249367 0.7178291 -0.007529538 0.66362005 0.3200671 0.3794834 0.3586252 0.43752557 0.39135823 0.48535857 0.45298958 0.4972409 0.53148836 0.5664934 0.59267414 0.59054124 0.57614326 0.51078606 0.42491543 0.3650446 0.50862557 0.56024915 0.54352784 0.4974464 0.4250179 0.46128738 0.48791796 0.3944915 0.3211694 0.34064975 0.4073738 0.43438053 0.41254702 0.4024615 0.43906903 0.27976033 0.3813293 0.42164424 0.4238879 0.4488895 0.4784693 0.49857414 0.25383493 0.32533705 0.31298393 0.46339846 0.5104997 0.17203735 0.18843123 0.26867947 0.55096376 0.551167 0.23856965 0.1379786 0.25906494 0.4618799 0.4490305 0.34921926 0.21463624 0.14223711 0.23774523 0.55962485 0.47485256 0.39254755 0.44920793 0.05976394 0.37618434 0.4827084 0.225351 0.60290587 0.6711427 0.11919977 0.7251649 0.71012366 0.61491495 0.4680711 0.34316438 0.2259658 0.43763325 0.4118811 0.4941789 0.4600925 0.5144252 0.47864026 0.56530005 0.58464056 0.4459887 0.5160103 0.5271485 0.46853268 0.34978765 0.13135193 0.22864607 0.49658507 0.5178959 0.27122706 0.3554986 0.45474827 0.47974348 0.5428517 0.5340994 0.48381317 0.4740826 0.36809266 0.2940201 0.33743858 0.19384319 0.22031328 0.23101026 0.12863867 0.26192656 0.25084534 0.28042114 0.1888102 0.3091743 0.40303797 0.1938529 0.4321524 0.18418598 0.47457206 0.32653743 0.1327554 0.4373268 0.33676594 0.47089273 0.45728362 0.3702357 0.479798 0.5302576 0.13554904 0.4817652 0.5310672 0.22313146 0.04731311 0.4605805 0.47664756 0.40029156 -0.06175518 -0.112904355 0.44513643 0.5368675 0.55237246 0.6346788 0.6200782 0.07756117 0.5534122 0.03932683 0.45504332 0.26583663 0.33264345 0.41641685 0.38336366 0.4146009 0.5222187 0.37185252 0.41589615 0.54066396 0.42577493 0.41628215 0.11422857 0.17262146 0.40219665 0.40505525 0.25118855 0.3026043 0.42524654 0.5209485 0.5704572 0.6029035 0.65867794 0.5257269 0.57516646 0.58634305 0.60999966 0.4689715 0.4766574 0.31994122 0.32202616 0.34303063 0.18519498 0.1260298 0.18168236 0.41520634 0.39769518 0.30339986 0.21718359 0.23174317 0.4492733 0.41749418 0.37868148 0.25829673 0.025821453 0.2721314 -0.048300967 0.15916398 0.25211382 0.37786263 0.34606493 0.2747343 0.25001067 0.42578012 0.31427026 0.4285617 0.15434492 0.35779107 0.40485442 -0.057765067 0.0857925 0.18513024 0.3167333 0.247943 0.061781317 0.54745716 0.10465188 0.3384512 0.08402658 0.417322 0.2694367 0.22992222 0.19033462 0.31407723 0.31556243 0.3670097 0.33995146 0.36240214 0.15022801 0.17863703 0.296893 0.2683124 0.23121685 0.35653627 0.4065996 0.56948936 0.6721094 0.7163316 0.49267894 0.4540944 0.50322986 0.56750363 0.6461854 0.7069144 0.7327281 0.5043497 0.46310434 0.68342066 0.432603 0.42024678 0.29408982 0.27606645 0.1364631 0.17491935 0.40384972 0.3203888 0.2068788 0.22673741 0.45185325 0.43218112 0.24904783 0.24058005 0.4620223 0.46471637 0.214997 0.23628289 0.45178553 0.37908494 0.18027839 0.123283416 0.065332614 0.06020564 0.31474888 0.06611127 0.33658504 0.11651914 0.37100154 0.23942815 0.17179796 0.2560009 0.09351995 0.16471796 0.2233962 0.21986589 0.26024234 0.11826132 0.23696996 -0.19534618 0.10828693 0.20151298 0.18756612 0.22188038 0.17311463 0.1931579 0.23617664 0.5382521 0.7053622 0.74009955 0.5383845 0.50267065 0.4520405 0.4438514 0.7455372 0.7472359 0.5336847 0.73577297 0.4536549 0.6773039 0.21343186 0.4105647 0.37311542 0.2527246 0.4308322 0.27455634 0.45504922 0.29956686 0.45032918 0.43671373 0.27301076 0.16062449 0.22297102 0.2857241 0.06670634 0.08794109 0.21464942 0.102231 0.13499993 0.30589202 0.17993192 0.20343792 0.2035351 0.21645322 0.24602336 0.118951276 0.20243944 0.27999273 0.25977358 0.282086 -0.030825783 0.28670013 -0.18529189 0.14292948 0.26918578 0.5074045 0.43260336 0.2164594 0.33728743 0.54198205 0.36261052 0.16771272 0.35520765 0.5558722 0.06549966 0.15486255 0.2727953 0.53208655 -0.09649441 0.18142402 0.15874428 -0.039788872 0.5201461 0.4787258 0.7036748 0.72532886 0.5674132 0.53032756 0.48115516 0.39691293 0.6330644 0.718921 0.5548694 0.73282063 0.6091312 0.32244748 0.3327675 0.34612226 0.27004388 0.38303334 0.2921039 0.41840595 0.3147887 0.40734825 0.3203295 0.36596304 0.269715 0.1905109 0.21243933 0.14088027 0.17189543 0.17483956 0.16422805 0.16789977 0.23420382 0.013444481 0.28348523 0.27774787 0.28621864 -0.04684642 0.29766354 -0.04545137 0.28186804 0.1630315 0.3856845 0.24967131 0.2939998 0.5277031 0.5067669 0.31776115 0.30439773 0.5451094 0.33468097 0.5537147 0.28477553 0.5237034 0.56729287 0.02433139 0.091366865 -0.09118487 -0.07514164 -0.10037872 0.6137645 0.5119617 0.61713165 0.63119185 0.58986926 0.4092955 0.50175524 0.6923659 0.5818442 0.6143198 0.453753 0.27064788 0.21563488 0.2186671 0.27719003 0.22998805 0.32095802 0.38406795 0.29733628 0.23358473 0.38497174 0.31655258 0.37244552 0.34442014 0.32073674 0.2877046 0.632315 0.009583741 0.15881602 0.60833156 0.6224507 0.08555031 0.61620617 0.08006366 0.012386743 -0.049468543 0.20908043 0.24606267 -0.07095073 0.21581674 -0.07308433 -0.082160085 0.23715937 -0.059762605 0.19233188 -0.039189152 0.4526469 0.44556785 0.48623493 0.31006348 0.49853945 0.52609897 0.3239974 0.49266493 0.23835246 0.22361633 0.032484435 0.014407821 0.2864513 0.2384933 0.63794863 0.5231166 0.45117837 0.62849164 0.6537367 0.3386189 0.23348796 0.5951263 0.49102038 0.39686427 0.15540293 0.19856183 0.2496736 0.18073255 0.3181553 0.345742 0.35971695 0.33932215 0.35096836 0.3174057 0.6550113 0.30183262 -0.044714633 0.5724066 0.6232354 0.67351097 0.6744667 0.12598541 0.4943291 0.574898 0.6595388 0.5180245 0.59140456 0.6330205 0.74927783 -0.019721307 -0.21802184 -0.23401812 0.6226572 0.683352 0.6984782 -0.26996186 0.5854523 0.0137146115 0.093639925 -0.26108116 0.14748943 -0.13607508 0.10589333 -0.07039292 0.0059074387 0.18303014 0.3207691 0.1644858 0.21666089 0.39146677 0.25086105 0.4066856 0.11638196 0.17413077 0.17455131 0.39608282 0.3684079 0.40328854 0.583918 0.50557107 0.43537593 0.6611049 0.6043982 0.48126465 0.40484557 0.3320577 0.5769137 0.62298584 0.24907517 0.48001325 0.32433593 0.2694798 0.15873095 0.27976802 0.27341723 0.026523855 -0.07601868 0.2840484 0.5111162 0.5773861 0.572658 0.26881105 -0.12730236 0.54091775 0.6117314 0.649299 0.64270073 -0.0055963695 0.70969 0.065405004 0.12456743 0.65581036 0.6424644 0.06753766 0.06523977 -0.16739707 0.32822233 0.51479995 0.57097536 0.28070864 0.30552185 0.39868045 -0.044722747 -0.271191 -0.17292345 0.15035963 0.28365603 0.34533805 0.3430813 0.35608742 0.001918057 0.089744136 -0.05745916 -0.15964821 0.04741312 0.028929226 0.122743696 0.077421084 0.2658828 0.14067717 0.2600662 0.3875432 0.53554684 0.4450832 0.40210056 0.60333395 0.56684446 0.462144 0.6453261 0.6208299 0.4164236 0.14479668 0.05532548 0.45414513 0.45748347 0.599483 0.2241363 0.2558928 0.25932312 0.27845648 0.35299772 0.4310275 0.4465564 0.26508328 0.27387336 0.29053575 0.2909844 0.31226796 0.50531423 0.48171636 0.3690269 0.32754582 0.60263795 0.531487 0.43207556 0.42752486 0.41948992 0.3400818 0.34578973 0.41786492 0.39628956 0.24306552 0.39957017 0.37562385 0.36265844 0.3148528 0.2552235 0.31705925 0.08106592 0.46524036 0.30806595 0.3064956 0.114525706 0.49477333 0.4888417 0.23253076 0.5159315 0.48736972 0.53676283 0.61029863 0.2023092 0.5228716 0.24756716 0.39324266 0.43360618 0.20885196 0.30564463 0.32267115 0.32189655 0.25708708 0.21691622 0.3311294 0.34832218 0.3407256 0.19531089 0.1619346 0.2060908 0.071764916 0.23186259 0.08168107 0.33710638 0.3475113 0.25696033 0.32740074 0.35612392 0.49106658 0.39331794 0.27443004 0.5828676 0.5530373 0.26394776 0.63089204 0.6060548 0.36838686 0.6681248 0.6611905 0.4302321 0.39782453 0.64746594 0.62161565 0.5062003 0.3270923 0.40819442 0.42653883 0.2705996 0.2962386 0.3067813 0.29848456 0.30153978 0.31996512 0.34881696 0.31362683 0.3153534 0.3191362 0.37252086 0.3658453 0.34891975 0.3404547 0.36531743 0.42242503 0.40547302 0.44339085 0.4528666 0.28766632 0.42826468 0.4384586 0.26073217 0.42365992 0.4119147 0.23933855 0.38226646 0.2807371 0.28663072 0.26465887 0.17710337 0.35720852 0.44328374 0.28647935 0.24650931 -0.13662976 0.4490353 0.14914353 -0.13153179 0.44950104 0.45805383 0.49872917 0.31482345 0.529126 0.31187657 0.37057912 0.41856903 0.29807284 0.33087158 0.38012475 0.36536247 0.29714358 0.28734553 0.27800965 0.120533764 -0.0872687 0.32497323 0.31633577 0.25588664 0.28922534 0.19222167 0.26102266 0.25766268 0.12712976 0.2013027 0.051904246 0.2937545 0.3065242 0.19902237 0.40367222 0.5193066 0.4353188 0.3355042 0.43247855 0.57750154 0.26976228 0.67108965 0.302707 0.7254395 0.6837195 0.3563005 0.73363316 0.68719566 0.6250615 0.45130214 0.37192905 0.40236682 0.34967828 0.2995678 0.34741306 0.31865716 0.33077207 0.3351291 0.35087904 0.33574364 0.34567758 0.31761354 0.3040662 0.5309587 0.49377474 0.47733545 0.54331964 0.37506372 0.2008335 0.39521843 0.4499812 0.45614195 0.36842993 0.15079798 0.45421004 0.44544023 0.44165203 0.28575456 0.37714687 0.42943418 0.25678006 0.2630545 0.41644806 0.2356556 0.23188424 0.339964 0.22345082 0.08721886 0.06234042 0.39921102 0.4242037 0.43398768 -0.105228506 0.48154908 -0.037612826 0.51657706 0.09061612 0.50257325 0.34729618 0.2949917 0.20275101 0.14155675 -0.3068086 0.41280878 0.36308044 0.29186916 0.20790088 0.31170005 0.35265887 0.357879 0.13936861 0.27530336 -0.03560757 0.23324028 0.17755787 0.18243667 -0.26507455 0.2187123 0.21943672 0.27190197 0.21793318 0.21505886 0.17705569 0.48023465 0.30461773 0.5023086 0.54237306 0.36334428 0.524225 0.63032484 0.77753985 0.2798677 0.7866612 0.788333 0.7537961 0.61030155 0.36551538 0.6607218 0.26548967 0.31124845 0.301065 0.39858493 0.42072907 0.44017583 0.42462257 0.3617252 0.529331 0.53979325 0.582044 0.6039425 0.52989864 0.28520033 0.42877346 0.43873718 0.5201304 0.5454727 0.13974541 0.42835116 0.4176133 0.4377597 0.4576298 0.42526078 0.31106824 0.34708938 0.24046656 -0.15207478 0.067522615 0.18635258 0.3404469 0.3697409 0.3976971 0.48495072 0.49703416 -0.23535354 0.51114666 -0.18290764 0.51177174 -0.25736618 0.5006982 0.08226403 -0.3100119 0.38307709 0.47209108 -0.10721366 0.27783936 0.06992519 0.09786199 0.03354984 0.05305885 0.2147377 0.036194988 0.05808226 0.21042839 0.123047546 0.02069471 0.28041333 0.15010843 0.20838937 0.35872322 0.22402038 0.21921754 0.20355299 0.21266037 0.61224043 0.55495524 0.58758557 0.57072955 0.41820875 0.44569355 0.5343871 0.5565164 0.287191 0.77782464 0.35302714 0.7860557 0.50210077 0.7788579 0.7421582 0.6498381 0.411332 0.46354657 0.49652183 0.38274986 0.41798288 0.4381056 0.45320344 0.44290382 0.6131995 0.5691478 0.6025462 0.2819258 0.3758285 0.4846052 0.34311554 0.2905369 0.198369 0.24521005 0.15456823 -0.089857884 0.11606774 0.23918074 0.30224955 0.07743512 0.44849825 0.49081916 -0.1301651 0.507712 0.5151275 -0.11850198 0.5049407 -0.103739396 0.4694417 0.42130387 -0.07904738 0.0025595129 0.26710016 0.08277053 0.06691228 0.25393903 0.2247195 0.12704958 0.10053244 0.14447021 0.2081204 0.073362865 0.08092154 0.14309362 0.09807499 0.032851063 0.09726523 0.12082436 0.14137903 0.2449061 0.298131 0.2686909 0.24911541 0.2316804 0.2460822 0.18788701 0.44702393 0.4446678 0.33109596 0.47316343 0.46617007 -0.30757928 0.5750172 0.59424484 0.155431 0.55335927 0.5651281 0.23374632 0.49941945 0.513618 0.559371 0.4310289 0.7755023 0.7221231 0.21262427 0.4780314 0.49181545 0.7714412 0.400456 0.46209055 0.48398617 0.7017024 0.6780796 0.37751266 0.127098 0.4000982 0.43139815 0.46131605 0.46602434 0.46219224 0.44010872 0.45447248 0.4535164 0.32955623 0.31134176 0.30702436 0.3177017 0.32475418 0.43688917 0.2495541 0.44770437 -0.123977 0.3560328 -0.14376709 -0.0068778694 -0.032894395 0.41228434 0.4560399 0.4882362 0.049295064 0.4537455 0.4883868 0.48884746 0.49756926 0.023914102 0.44081247 0.4722233 0.28229883 0.5557506 0.30730632 0.35521168 0.34887183 0.36352155 0.327846 0.02564288 0.02958826 0.12562904 0.4188215 0.30151224 0.2684645 0.2553982 0.042773988 0.012826689 0.11437988 0.14246094 0.16064003 0.5232861 0.23565978 0.19202456 0.36586702 0.4999872 0.53339833 0.6209058 0.251359 0.5627597 0.54780483 0.42101946 0.5087436 0.5577935 0.6353201 0.36661577 -0.048935235 0.3049601 -0.08239766 0.3241644 0.4236489 0.45115596 -0.09038222 0.24750307 0.38734353 0.42631954 0.29763466 0.419116