# vtk DataFile Version 2.0
Really cool data
ASCII
DATASET POLYDATA
POINTS 4439 float
17.140656 17.124529 7.683202
17.105862 16.972399 8.237657
17.2963 17.016975 9.3114805
17.237732 17.738642 7.26959
16.971777 17.533237 7.7065134
16.839895 17.520153 8.2589245
17.090311 17.518112 9.197178
17.21872 18.121725 7.2020187
16.915691 18.234776 7.7434144
16.79846 18.391365 8.508919
17.106739 18.312742 9.435013
17.222054 19.393932 8.104649
17.09155 19.305136 8.527296
17.097797 19.35136 9.290381
17.375998 20.074873 8.9196415
17.891054 16.345964 8.075302
17.885551 16.308764 8.464944
17.975826 16.36377 9.18041
17.807432 17.011204 7.2450886
17.647663 16.80912 7.591153
17.442387 16.629099 8.626744
17.852108 16.638245 9.567882
17.882246 16.864956 9.847081
17.563534 17.31744 7.1570835
17.401945 17.542944 9.816012
17.692623 18.304478 7.032808
17.662104 18.62891 10.183161
17.6383 19.105343 7.336962
17.61633 19.515331 7.6161475
17.86546 19.885496 7.648893
17.713833 20.312883 9.48596
17.66822 20.009668 9.906013
18.071747 20.692242 9.697364
18.70057 16.401491 7.649457
18.48008 16.234035 8.40962
18.488909 16.34544 9.376518
18.550303 16.795908 7.178291
18.640015 16.539375 7.440706
18.480146 16.524633 9.647606
18.546104 16.961996 10.130393
18.575172 17.543465 6.8692045
18.340729 18.648651 10.663221
18.859114 19.312023 6.9078403
18.552671 20.574678 7.830145
19.131332 21.135122 10.448383
19.364918 30.839014 -5.0728793
19.329012 30.852604 -4.6298623
19.381027 30.973724 -4.08083
19.387194 31.202215 -5.1722665
19.335472 31.283266 -4.446428
19.39529 31.297775 -4.078752
19.112677 16.381525 7.7883787
19.223759 16.330091 8.729013
19.216278 16.866375 7.2399426
19.42448 16.672382 7.5319633
19.315254 17.258228 10.470146
19.258175 17.469355 6.918558
19.803888 17.533825 10.63812
19.12114 18.148716 6.8703465
19.562931 18.299221 11.236044
20.01387 18.76345 11.631633
19.594599 19.264208 6.9857035
19.896378 20.7588 11.366198
20.345072 23.031172 -7.7801414
20.24534 22.938026 7.2720757
20.31726 22.298605 10.962793
20.367662 23.861023 -8.811048
20.20412 23.336306 -8.001207
20.117794 23.724133 -7.477023
20.319296 23.631653 -7.0571284
20.37616 23.219006 6.3049364
20.142319 23.17847 7.1327167
20.353785 23.47972 9.563086
20.39324 23.295282 10.311964
20.303896 24.63434 -8.864271
19.979328 24.578398 -8.248261
19.96553 24.558403 -7.637202
20.255575 24.479357 -6.9623027
20.399326 23.993073 6.26833
20.453653 24.50694 7.221784
20.088518 25.151451 -8.239555
20.200926 25.303326 -7.3874435
20.048794 29.95832 -6.3349566
19.843979 30.025831 -5.531675
19.836296 30.1043 -4.459825
19.989868 30.266088 -3.9298398
20.16073 30.466986 -6.871211
19.95362 30.434752 -6.380684
19.548054 30.771902 -5.616111
19.508263 30.476927 -4.465573
19.713211 30.722506 -3.8177338
19.977077 31.334354 -6.23307
19.569942 31.405867 -5.481008
19.467375 31.737549 -4.594636
19.67908 31.492002 -3.7117252
20.12161 31.473534 -3.2457216
19.733332 32.031643 -5.0792685
19.66163 31.987852 -4.466898
19.844698 32.12526 -3.898727
20.257566 32.68474 -4.231749
20.411602 37.00959 -12.167099
20.411263 36.888844 -11.731702
20.363136 37.493088 -12.27355
20.34952 37.52338 -11.647195
20.408615 38.020195 -12.158566
20.400015 38.040054 -11.83302
20.404371 43.024635 9.978182
20.400963 43.002792 10.368241
20.404455 43.138126 10.871296
20.3054 43.576027 9.944318
20.28745 43.527122 10.361523
20.358116 43.602837 11.083621
20.348066 44.261734 9.907188
20.194998 44.51032 10.462639
20.31242 44.45413 11.334814
20.378157 45.021076 10.14152
20.310997 45.1266 10.482598
20.32955 45.06719 11.15912
19.716532 16.615894 7.8433375
20.744028 17.113518 9.035552
19.915983 17.228113 7.504032
20.821281 17.62801 10.590968
20.478033 18.08007 11.17445
20.844563 18.38265 11.447866
20.20374 19.339725 11.661347
21.149876 21.108269 -10.632451
21.309874 21.086061 -9.858637
20.772055 20.647886 7.525303
20.635187 20.552639 12.107349
20.952782 21.545717 -11.224108
20.733408 21.85185 -10.558767
21.052269 21.809557 -9.593456
21.279078 21.795301 -9.199389
21.148216 21.072716 12.47188
21.166857 23.073875 -13.098542
21.074404 22.739569 -12.772274
20.763792 22.677668 -11.2673235
20.661179 22.547035 -10.494567
20.578648 22.902157 -7.559159
20.820616 23.0975 -6.8742404
21.041937 22.497684 5.7488403
20.825363 22.727325 11.637752
21.241045 22.359447 12.345921
21.214354 23.56783 -13.177148
20.967833 23.634924 -12.39819
20.736656 22.896812 -11.164867
20.772032 23.003788 -10.627266
20.639545 23.594084 -6.732312
20.8965 23.776085 5.447534
20.51575 23.778894 6.2042136
20.846863 23.783827 10.628981
20.919098 23.160746 11.465547
21.169537 22.899967 11.957885
21.10974 23.87162 -12.905587
21.100914 23.954666 -12.260533
21.182049 23.871939 -11.330686
21.267487 24.113258 -11.00251
20.501722 24.683226 -9.033336
20.499184 24.68364 -6.670193
21.019594 24.489714 -6.2891083
21.339132 24.876007 4.809799
20.668371 24.3559 5.9516573
20.556393 24.638262 6.498252
20.547956 24.681236 7.591745
20.59301 24.801107 8.056733
20.73334 24.644619 9.472602
20.9529 24.452087 10.34786
20.536783 25.298717 -8.814842
20.630396 25.237356 -6.706258
21.012566 25.024464 -6.371326
21.378853 25.49789 5.046259
21.075132 25.374659 5.7594247
20.83069 25.387745 6.816181
20.606071 25.188572 7.248938
20.886063 25.131659 8.413182
20.951078 24.978464 9.413038
21.055773 24.944513 9.934008
21.114643 26.438845 -8.436618
20.395386 25.736307 -7.4469333
20.918072 26.243887 -6.9953094
21.309525 25.832159 5.9559402
21.063246 25.808926 6.549225
21.193209 25.82886 7.1314406
20.812784 29.139545 -6.3941255
20.394299 29.630716 -6.790033
20.466852 29.472761 -5.995086
20.635626 29.560507 -4.768716
20.778748 29.896954 -3.9428637
21.043612 30.802378 -7.57861
20.663845 30.427427 -7.401754
20.33152 30.538748 -3.4655366
20.69225 30.950249 -3.0288777
20.705519 31.293869 -7.058571
20.623472 31.422733 -2.9206672
20.647396 32.094456 -6.36608
20.38575 32.51865 -3.472202
20.738499 32.423367 -2.9494054
21.00572 32.875034 -5.3202415
20.736103 32.9711 -4.5190973
20.603905 32.796772 -3.6089976
21.016827 32.869427 -2.9676595
21.040571 36.095814 -12.0885515
21.060717 36.06695 -11.385656
20.60862 36.85103 -12.427607
20.602688 36.63455 -11.549108
20.888681 36.724308 -10.939089
20.820244 37.526688 -13.078928
20.517237 37.506645 -12.596436
20.507607 37.736744 -11.303912
20.755621 37.563236 -10.98186
21.077728 38.416782 -13.336624
20.640615 38.272026 -12.345397
20.596601 38.16188 -11.602501
20.822058 38.063583 -11.136391
21.31612 38.964333 -13.335779
21.081306 38.82732 -12.3535595
21.054747 38.7245 -11.848176
20.990875 42.25697 9.857087
21.035301 42.232235 10.486809
21.095728 42.35207 11.001378
20.952427 42.90854 9.152952
20.647694 42.75566 9.648043
20.653336 42.545616 10.250677
20.84502 42.765812 11.275268
21.150808 43.007233 12.026468
20.865644 43.46314 9.156218
20.60319 43.41034 9.418645
20.585482 43.37441 11.405919
21.023169 43.6394 12.218867
21.128954 44.320904 9.2441225
20.663244 44.46568 9.580084
20.520851 44.79243 11.667705
20.782097 44.389088 11.984787
20.706955 45.213947 9.951955
20.488672 45.45664 10.526076
20.643011 45.409138 11.269065
20.737057 45.037586 11.80754
21.003582 45.693848 10.173645
20.82297 45.765015 10.685427
20.91791 45.762245 11.164021
20.785753 17.254345 8.990256
20.891453 17.728306 8.21358
21.310804 17.666126 8.646619
21.414433 17.579765 9.589421
20.96222 18.294453 7.7924814
22.12094 20.411848 -11.087289
21.802834 20.760792 -11.350992
21.56607 20.730799 -10.466206
21.629244 20.937296 -9.851731
21.690172 21.140556 -9.243448
21.964436 20.356012 12.965947
22.015408 22.043776 -13.334812
21.63924 21.42297 -12.155709
21.949623 21.416945 -8.876404
22.038792 22.356361 -7.946668
21.758726 21.251915 13.040337
22.172478 22.856667 -13.967394
21.66393 22.568626 -13.42164
21.677074 22.681522 -6.898851
21.627787 22.780174 5.303253
21.664488 22.609509 12.561316
21.888449 22.053856 12.978815
21.881823 23.405691 -13.896565
21.460978 23.179556 -13.512817
21.30169 23.390245 -6.326046
21.64238 23.720615 4.8589773
21.388218 23.635885 11.526803
21.8335 23.121935 12.29565
22.07462 24.08651 -13.885734
21.90239 24.30843 -13.611393
21.94473 24.66941 -5.9599705
22.00513 24.809052 4.2493544
21.603022 24.747868 4.5700827
21.494602 24.132664 11.081769
22.37622 25.47587 -13.610343
21.92425 24.961008 -12.865658
21.689108 24.958311 -11.933087
21.856339 25.83654 -9.706571
22.086552 25.397146 4.2414327
21.650259 25.433922 4.6215014
21.455164 25.641644 5.1595197
21.688013 25.39213 9.454249
21.715715 25.041441 10.165038
22.486366 27.069874 -13.519114
21.470901 26.630474 -8.763608
21.943562 25.907497 4.6988893
21.957067 26.185583 5.4033437
21.584173 26.132187 6.3707004
21.483301 26.01125 7.1120934
21.668827 25.691776 8.572416
22.090546 25.586306 9.278769
22.28727 27.787424 -13.71884
22.18421 27.75722 -12.493356
22.175709 27.97142 -10.728745
22.283873 27.315836 -9.889778
21.510275 26.85791 -6.770294
22.078642 27.343056 -6.1614842
22.34807 28.1544 -14.114043
22.327785 28.369654 -13.470302
22.100958 28.43913 -12.237438
22.343348 28.73008 -9.573608
21.648197 28.686998 -7.3873262
21.37674 29.15034 -5.1762075
22.425306 28.937794 -13.887787
22.417917 29.33671 -12.855506
22.285402 29.21531 -11.430433
22.193935 28.974937 -10.663409
22.316715 29.040339 -8.797922
21.26369 29.676233 -4.2508826
21.240427 29.784672 -3.995026
21.521463 30.781244 -7.763239
21.278435 30.38187 -3.2054706
21.899136 31.18659 -7.8962884
21.376211 31.495344 -7.445035
21.40232 31.333475 -2.6279857
21.603947 32.01997 -2.4008226
22.106716 32.438427 -7.096546
21.575136 32.56065 -2.5280623
21.573195 32.380955 -2.4389954
21.523321 32.728874 -6.171669
21.319864 33.037033 -5.5250816
21.491274 33.340324 -4.447313
21.502787 33.223656 -3.5246706
21.548115 33.048264 -2.94875
21.61166 36.163994 -12.905846
21.721478 35.653458 -11.967406
21.275948 35.77624 -11.630556
21.445002 36.034653 -10.861614
21.64548 36.91963 -13.630361
21.598433 36.362206 -10.53616
21.925924 36.67441 -10.375277
21.8052 37.671463 -14.153233
21.523794 37.563927 -10.572873
21.971697 37.039345 -10.330868
22.395184 38.04942 4.685256
[...]
POINT_DATA 4439
SCALARS features_00 float 1
LOOKUP_TABLE default
0.86822987 0.87794304 0.8245995 0.84554446 0.8603286 0.88021266 0.8552493 0.82235265 0.8135557 0.83672416 0.8311608 0.7074843 0.7190074 0.7142301 0.64242995 0.85155606 0.84865063 0.81212115 0.8427143 0.85877216 0.85859287 0.7891666 0.7559579 0.8468958 0.77993727 0.8080616 0.74698263 0.7384715 0.696244 0.6582624 0.5996023 0.58408976 0.51884085 0.79681104 0.8189628 0.7685192 0.7916908 0.7971169 0.7456704 0.6900967 0.7864632 0.643145 0.7396854 0.6051111 0.30099392 0.7098411 0.73464036 0.76322657 0.69887185 0.7463788 0.76584136 0.7572505 0.7570996 0.7398591 0.7231222 0.5970856 0.7254875 0.5436288 0.75879157 0.46924716 0.44725564 0.6492566 0.33651546 0.55464554 0.4239008 0.26000914 0.4900232 0.59629834 0.6598917 0.63443345 0.4768371 0.43082738 0.3613189 0.33404553 0.5018567 0.65267557 0.68460596 0.6448591 0.47340742 0.4481532 0.632959 0.6371588 0.6304508 0.68294287 0.7452345 0.7689013 0.61406446 0.6419108 0.6785154 0.7417693 0.7825223 0.63353145 0.67156243 0.72887045 0.7944453 0.83288586 0.70399857 0.74045825 0.78815037 0.7688648 0.82303566 0.85404086 0.789925 0.8208619 0.7723776 0.7882732 0.7919687 0.76529306 0.73799336 0.83186615 0.8147471 0.7778568 0.85301316 0.87192225 0.8376645 0.83997107 0.8504971 0.8492182 0.6771234 0.51103365 0.649505 0.5067547 0.4719172 0.45216286 0.4436435 0.5865853 0.49281085 0.33630508 0.38239652 0.64284897 0.5910214 0.4372797 0.35070118 0.41661727 0.5392992 0.5531893 0.48206154 0.4591817 0.5161226 0.557622 0.5467783 0.3030898 0.37096673 0.5057452 0.47897783 0.438443 0.3582752 0.60487247 0.5581373 0.48408103 0.37299114 0.32180074 0.34445992 0.47890174 0.4531747 0.3821607 0.29357454 0.42785215 0.60611 0.5483819 0.6196456 0.50117236 0.47211856 0.44518697 0.4420999 0.4093933 0.41487658 0.47968942 0.5566052 0.5151729 0.6015134 0.5333713 0.4805356 0.46141195 0.44238997 0.4220598 0.42721182 0.4048646 0.6037342 0.48169857 0.535035 0.50214934 0.46633697 0.5260317 0.5642055 0.6182443 0.69433546 0.71960473 0.4756034 0.53720546 0.7864004 0.82166886 0.5393892 0.8545087 0.60504615 0.82230526 0.8487632 0.6485365 0.7406827 0.80508006 0.83144414 0.8209661 0.88623136 0.8145504 0.8852314 0.94323194 0.7488505 0.76557183 0.8214319 0.8666509 0.71189755 0.74706054 0.7866628 0.80679893 0.6973567 0.71853244 0.73200214 0.7375391 0.68173474 0.6489543 0.81067866 0.7850317 0.734345 0.66267836 0.627636 0.81499857 0.82579994 0.7150192 0.66006666 0.77490026 0.81733763 0.8037747 0.73248935 0.8078287 0.83571213 0.8251402 0.7730228 0.7868957 0.81570685 0.80242014 0.50165343 0.48994184 0.4485106 0.45514584 0.46115816 0.49905154 0.53611714 0.54026914 0.48043883 0.3739004 0.62825495 0.5199639 0.5572348 0.28431392 0.19779082 0.5593975 0.48844695 0.5364117 0.39227766 0.5589775 0.42313945 0.51327837 0.4928928 0.5246683 0.5308419 0.59635484 0.36033356 0.39961624 0.44060966 0.44081753 0.38637397 0.64943177 0.63846374 0.39724776 0.18893689 0.37237698 0.33951765 0.1163677 0.67091197 0.64398575 0.59466106 0.4240449 0.4227844 0.14447051 0.18189494 0.63889563 0.57060987 0.5158823 0.4656626 0.42959905 0.41133922 0.21573235 0.1710648 0.10142819 -0.046676494 0.32202455 0.104566194 0.25137866 0.21365926 0.18486172 0.08970481 0.112866886 0.57983816 0.23992415 0.19602327 0.18053672 0.15148893 0.101676136 0.6590986 0.67700624 0.35722128 0.7468344 0.28902912 0.41302767 0.82239175 0.8294213 0.3665891 0.8398299 0.8384441 0.47258344 0.5722244 0.7016462 0.7759438 0.81135297 0.70042276 0.7287704 0.8230907 0.88555515 0.6939367 0.88039035 0.7879204 0.64723253 0.8694672 0.75893414 0.66098934 0.6214433 0.6755365 0.8056715 0.6677256 0.63493776 0.6552615 0.68245226 0.68001384 0.7084345 0.7285242 0.649626 0.64434624 0.6318169 0.6693665 0.62339586 0.67013395 0.5765575 0.56290394 0.60840416 0.5893638 0.5858387 0.7742183 0.604091 0.72667867 0.63586926 0.6062717 0.7425401 0.70933545 0.59231836 0.57235545 0.7269794 0.74932563 0.7411852 0.3857386 0.38314253 0.38971782 0.39613065 0.3147718 0.4108376 0.4633826 0.45484293 0.3977868 0.67606896 0.45940006 0.46886462 0.38076752 0.25485617 0.3761128 0.4372563 0.6876509 0.70814943 0.43180817 0.48652464 0.4976946 0.072875515 0.42813206 0.36043173 0.7157539 0.4486974 0.29718596 0.5925921 0.4338904 0.18469125 0.5619587 0.55412894 0.42354357 0.5417429 0.1964745 0.3021965 0.6202087 0.3574983 0.2147606 0.67906845 0.39679596 0.30265972 0.28356522 0.19689973 0.19479175 0.63209164 0.5520831 0.49073175 0.46191162 0.39486033 0.39530134 0.32076922 0.11712056 0.5270107 0.4970936 0.4313092 0.4354315 0.3682953 0.46912715 0.45622042 0.42538851 0.2993091 0.19316314 0.17308764 0.46168712 0.16117953 0.11391185 0.13877258 0.710762 0.111181945 0.7695676 0.2469528 0.30239624 0.79342633 0.30266476 0.4257061 0.6257522 0.71023077 0.80549264 0.48412538 0.6502571 0.7134432 0.62034214 0.5613842 0.7426337 0.510836 0.64667666 0.64280856 0.4808991 0.46950346 0.5799208 0.6571948 0.6672488 0.6556389 0.62651217 0.57095677 0.5543963 0.48545983 0.66629815 0.6182089 0.5729401 0.5672539 0.6066207 0.598157 0.62811434 0.62995535 0.60625553 0.5327495 0.59695673 0.6170007 0.60948586 0.60967594 0.59197044 0.5871388 0.5812422 0.8552499 0.52998865 0.4952607 0.911111 0.56358147 0.5788002 0.6253778 0.5464659 0.6232532 0.5098692 0.5510581 0.5005006 0.4214092 0.39774004 0.4873568 0.2595399 0.25336337 0.28969944 0.32959923 0.2973019 0.27801517 0.3772133 0.49630275 0.5773444 0.6473341 0.31716692 0.5786439 0.66620356 0.39527124 0.6434277 0.65548944 0.7119006 0.37501672 0.41629055 0.5699823 0.59972644 0.71961224 0.3617368 0.6580769 0.72139823 0.2131741 0.04704721 0.45992595 0.4117419 0.47678742 0.23079558 -0.0011029989 0.59421265 0.17129141 0.27626643 0.38592893 0.20641302 0.16802254 0.6733956 0.22235857 0.2571304 0.3723395 0.362441 0.288768 0.3360633 0.42316872 0.43815202 -0.11713067 0.49804947 0.4789886 0.47031096 0.42208222 0.39881742 0.07996502 0.54803014 0.20430589 0.7025571 0.18086997 0.23355404 0.2354772 0.18173958 0.63429487 0.7482356 0.20128414 0.23087743 0.14707127 0.26328593 0.27006698 0.31583032 0.50943005 0.58740646 0.5981877 0.3649478 0.3704962 0.48367956 0.48292276 0.60989165 0.60404754 0.3607909 0.19638944 0.62203145 0.63781464 0.4657108 0.3194846 0.6579679 0.40787277 0.3646114 0.4852061 0.30993277 0.6883881 0.66384554 0.3437963 0.69066745 0.6697804 0.33170047 0.40189338 0.6797316 0.40891698 0.49627188 0.4707568 0.45792177 0.4303665 0.37095314 0.4043112 0.35074228 0.37815017 0.43476874 0.51790655 0.6153209 0.65685344 0.27967706 0.29559475 0.29175776 0.6658895 0.678881 0.29574448 0.63549995 0.6757268 0.6566079 0.7084255 0.24283093 0.59948003 0.10396001 0.15633553 0.67293364 0.69223833 0.2466617 0.19456942 0.09753922 0.6225873 0.20171049 0.45363772 0.56283045 0.23814388 -0.12966642 0.4335128 0.111334845 0.35591084 0.24785998 0.19086675 0.24735838 0.25753018 0.14195237 0.23431481 0.037872627 0.20921288 0.26917145 0.25715217 0.318195 0.29221198 0.2767982 0.5177145 0.48632735 0.24586181 0.5267184 0.5136564 0.44177404 0.4638496 0.3771584 0.11491462 0.24866578 0.12940659 0.24670531 0.5531649 0.27752972 0.48922092 0.5820474 0.1310896 0.122449264 0.17565456 0.2255829 0.13631245 0.48437256 0.061180044 0.1587987 0.09741633 0.16931114 0.04110577 0.66281104 0.40476626 0.36362487 0.04842905 0.6995697 0.7053994 0.43139195 0.42241737 0.73492765 0.041865334 0.4549566 0.47408512 0.3857311 0.35465592 0.73193234 0.68691784 0.56200755 0.12220007 0.0885136 0.10851687 0.54406226 0.60327154 0.52426755 0.46446007 0.4125136 0.37150455 0.33816883 0.28200898 0.60046077 0.52602863 0.4818276 0.12858196 0.20436803 0.40892223 0.14960878 0.5474349 0.36371517 0.44625318 0.5096627 0.5162405 0.5778051 0.3417532 0.18664125 0.4172764 0.4450174 0.49736938 0.52099466 0.3378554 0.37063736 0.43312138 0.5207613 0.6239141 0.6684543 0.4608413 0.524107 0.29671088 0.3203405 0.3126822 0.671996 0.66873574 0.35408342 0.23752731 0.6543182 0.26130503 0.1840969 0.15779215 0.47506717 0.5569243 0.21784405 0.48674828 0.55955267 0.22527084 -0.0399198 0.1293839 0.00937555 0.29196408 0.4964366 0.23555881 0.21726537 0.17589025 0.22681908 0.18403591 0.60454226 0.21032432 0.17775224 0.21742958 0.07432698 0.42899615 0.28970858 0.23262355 0.5297086 0.45483154 0.19492352 0.2716341 0.2680832 0.5388627 0.1285678 0.037588462 0.34256756 0.53948474 0.5394572 0.063518785 0.05943722 0.053024456 0.30300146 0.3109588 0.5355015 0.52752423 -0.06526478 0.026909122 0.27840582 0.49663365 0.32036516 0.2838893 0.3679808 0.24547178 -0.055894084 0.20754808 0.39443073 0.3853512 0.25054178 0.19594035 0.1801333 0.25532436 0.28934994 0.26422593 0.4165469 0.37521946 0.32755604 0.22755413 0.13781628 0.1602681 0.17713635 0.5181279 0.41526774 0.14263538 0.17123818 0.22701012 0.6354648 0.08048766 0.21556182 0.5558463 0.06105096 0.04661663 0.08022216 0.5746552 0.64952767 0.090233214 0.57959807 0.3272109 0.07106412 0.67454594 0.6413554 0.3918451 0.1371294 0.70398325 0.42533404 0.3052421 0.72681713 0.7326373 0.101925194 0.106600024 0.45211518 0.48966905 0.3559898 0.34813377 0.7144313 0.6048726 0.49116048 0.063064806 0.55893517 0.41396338 0.3749562 0.39627773 0.33068475 0.29815736 0.13116258 0.6052877 0.51338995 0.44974887 0.42133743 0.20504561 0.6169249 0.61422116 0.15603755 0.68685365 0.5496756 0.58004695 0.24723776 0.48465556 0.49793354 0.4971506 0.15708564 0.35806453 0.43038547 0.4689505 0.44339055 0.5332182 0.61431795 0.66241175 0.51871854 0.6083124 0.6447203 0.69004726 0.33118019 0.35602623 0.36522353 0.37387773 0.40516025 0.66189253 0.64505064 0.4183222 0.6981801 0.29062212 0.23242144 0.27082744 0.6638392 0.49178442 0.34412503 0.17449185 0.55156815 0.2587594 0.28653133 0.3477582 0.42729768 0.43833077 0.26083115 0.26078802 0.27868748 0.26585615 0.084490076 0.24285105 0.27904359 0.232665 0.2120321 0.25098532 0.17553745 0.29978508 0.2958348 0.530959 0.541268 0.5383986 0.32768008 0.5431274 -0.037786983 -0.027362697 0.54446924 0.5409999 0.054456074 -0.060200356 -0.07666834 0.25926194 0.50217485 0.12267351 0.32397008 0.40455973 0.34907478 0.06740514 -0.043194447 0.3954979 0.16489342 0.3009977 0.26661062 0.028477639 0.10553246 0.5051109 0.19217557 0.19842218 0.18572286 0.58614105 0.32135135 0.5687478 -0.121833086 0.038843155 0.5962619 0.6821368 0.7290629 0.07669884 0.5565382 0.70268965 0.74276614 0.11076828 0.13718322 0.43852353 0.68691033 0.7591358 0.11140422 0.15671602 0.3624885 0.67606986 0.1365811 0.37801898 0.2919969 0.40442756 0.3580132 0.64828575 0.5696629 0.48858455 0.513011 0.37449646 0.36724406 0.43450606 0.33314288 0.15360679 0.4850132 0.41729474 0.42591357 0.40401608 0.39130023 0.16207576 0.51046884 0.39102477 0.17354901 0.49374494 0.5501856 0.58441615 0.5976417 0.1357392 0.10302076 0.53635675 0.30372575 0.4452843 0.32601812 0.23066996 0.44543898 0.4521005 0.42873648 0.400823 0.5106692 0.5970882 0.5533437 0.6262139 0.6725863 0.6998098 0.33952704 0.31267273 0.47452876 0.56185603 0.5994173 0.59508777 0.47054064 0.5332066 0.70684475 0.2535165 0.3106237 0.4612077 0.42057022 0.41318393 0.6773452 0.5495924 0.542523 0.44554952 0.099296376 0.16794682 0.3166364 0.46380073 0.3105402 0.5111902 0.3736034 0.38765 0.052947693 0.07938717 0.47019327 0.4816285 0.30967984 0.36906552 0.36674228 0.33441812 0.29122493 0.21867396 0.32626623 0.2949438 0.23967505 0.22398731 0.5162323 0.48706555 0.24609217 0.5396801 0.5321152 0.5003294 0.55081975 0.54906255 0.2776959 0.55917066 0.05858966 0.10757311 0.23736514 0.53906596 0.16207302 0.23444319 0.18954408 0.3425784 0.20421557 0.42417982 0.39333358 0.13580123 0.3895855 0.17458567 0.21144664 0.4007129 0.457259 0.3127715 0.08201699 0.07494891 0.5292164 0.31794217 0.4304768 0.50315964 0.28567442 0.04101427 0.5790139 0.5401219 0.67115104 0.6939409 0.1314548 0.10667923 0.57159525 0.74943686 0.16872895 0.5560471 0.51332915 0.7854481 -0.2916196 0.14779225 0.25994885 0.18056929 0.77766126 0.17488874 0.033636533 0.7220334 0.1932436 0.60220706 0.26534092 0.28348053 0.6118592 0.552426 0.34378904 0.13206574 0.19342215 0.3745545 0.36055332 0.35807517 0.21021236 0.19121423 0.36667928 0.48995614 0.31876555 0.35592124 0.18337691 0.4938671 0.4533189 0.15143386 0.2966212 0.4095556 0.34738883 0.28702188 0.36201084 0.3621462 0.27163386 0.25729775 0.21631171 0.27061334 0.64486974 0.6656989 0.37847272 0.52526677 0.48782676 0.5391027 0.62652856 0.6711598 0.6820202 0.61242557 0.19948229 0.39857292 0.4524021 0.6402497 0.66582906 0.62414 0.6117943 0.59042954 0.5009393 0.19340268 0.18089838 0.35246772 0.5032361 0.52015936 0.5277126 0.36394376 0.6022434 0.61967456 0.54838043 0.30517924 0.15785618 0.5474342 0.52011466 0.27961195 0.49526626 0.46296442 -0.006647192 0.36097428 0.41196138 0.3560563 0.35792577 0.46530282 0.25822186 0.3100038 0.40162605 -0.38813856 0.35551602 0.32352543 0.40989608 0.37385798 0.35809594 0.3499826 0.46697575 0.53867227 0.49796155 0.24586205 0.5709756 0.5618688 0.3326687 0.057713717 0.2528212 0.43723077 0.42032796 0.04024943 0.2814192 0.37945384 0.45189828 0.4651487 0.29943982 0.041277975 0.050544746 0.06350913 0.5428411 0.5690317 0.21808049 0.14221308 0.022463456 0.02356042 0.5784618 0.61934114 0.67002356 0.56618935 0.73630357 -0.24582292 0.12917757 0.5443356 0.52145934 0.76758355 -0.23146465 0.15986541 0.13702378 0.7441578 0.010127753 0.16062647 0.13664117 0.7171867 0.7393211 0.2423739 0.17589545 0.41444045 0.23728028 0.22372729 0.19643426 0.40621793 0.28466442 0.27141753 0.16957416 0.1667329 0.3779078 0.17331639 0.17621559 0.050635934 0.366803 0.33946243 0.3065441 0.3013705 0.21221787 0.30666012 0.3579921 0.42147708 0.29414546 0.42293984 0.5141355 0.16220595 0.5662917 0.3771788 0.5327249 0.5046972 0.47439682 0.4167826 0.37181747 0.30676174 0.24530385 0.61728454 0.63614875 0.65291035 0.6425197 0.62277454 0.4578124 0.52544606 0.60249156 0.64061534 0.6671982 0.66544485 0.49863905 0.16161868 0.42130208 0.5234227 0.57227117 0.34120426 0.3928514 0.43034154 0.48361188 0.56810206 0.5926392 0.64075565 0.13971794 0.13774404 0.25276986 0.59969056 0.61836433 0.3279748 0.33875605 0.3521117 0.39978123 0.49940377 0.5276867 0.59553564 0.45859948 0.39081806 0.3698484 0.44897476 0.4352404 0.48380208 -0.29533505 0.42337525 0.3967716 -0.5832131 0.43680286 0.34499392 0.4457057 0.45577508 0.35897696 0.45191348 0.21984768 0.46007842 0.2724812 0.1930401 0.51823926 0.45883483 0.1962032 0.5603026 0.5074369 0.4027669 0.40451 0.020948619 0.4127506 0.32262975 0.35985565 0.41177285 0.28302872 0.31542182 0.56228536 0.60575247 0.21919277 -0.0048547965 0.54010916 0.59462935 0.5809334 0.09990473 0.0031570569 -0.00942296 0.54829824 0.57878625 0.6024349 0.64760816 -0.033574503 0.574146 0.5776521 0.64776474 0.69677925 -0.09790897 0.13652147 0.049507998 0.57018495 0.5491791 0.6977823 0.74110675 -0.0050878227 0.098575145 0.20375524 0.70857644 0.7354125 0.19512711 0.06870074 0.27871102 0.20596561 0.665884 0.32704905 0.2698623 0.22008836 0.23204091 0.23828942 0.1432032 0.34634826 0.32083026 0.17888394 0.38440925 0.18585013 0.18931216 0.5694351 0.35543644 0.051603198 0.41165334 0.44589728 0.16606641 0.16162919 0.43747544 0.35870355 0.36704206 0.5993865 0.59567213 0.37264657 0.37609088 0.37436706 0.3638296 0.24685135 0.6159892 0.5969813 0.25006443 0.30703908 0.34343994 0.37846357 0.37251168 0.35139704 0.3101154 0.2696417 0.25705916 0.59389 0.29084912 0.07758735 0.19264415 0.42384988 0.6116359 0.67505896 0.7075182 0.3474791 0.75015044 0.49802017 0.66812354 0.5038586 0.5950781 0.3762071 0.24229291 0.46116087 0.5420937 0.5548511 0.57754713 0.5827526 0.6082148 0.67216367 0.6600177 0.6454482 0.6962951 0.6936284 0.67413175 0.603902 0.69201636 0.67942363 0.3790139 0.5154723 0.54594684 0.37302667 0.39532888 0.4072209 0.62519234 0.27713847 0.1945867 0.24637172 0.3138 0.4495442 0.3968365 0.37071297 0.40190476 0.4447363 0.44651392 0.4154162 0.42192382 0.4641909 -0.32005334 -0.44113022 0.19718675 0.22694331 0.2590039 0.2861727 0.26232082 0.32428473 0.025949277 0.022724614 0.31218067 0.38059592 0.48717773 0.5124075 0.47415864 0.35584778 0.35983872 0.13116942 -0.025980998 0.041751344 0.16236077 0.39272246 0.44652608 0.537645 0.5251476 0.47310877 0.31749293 0.32994127 0.53711814 0.5114479 0.47509575 0.20625249 -0.0072283205 0.14446768 0.043458275 0.42952886 0.072176054 -0.12732166 0.067866504 0.19793212 -0.011889871 0.43888068 0.19263375 0.24827431 0.29459232 0.3878759 0.52666295 0.51883435 0.39500383 0.26316315 -0.04334389 0.33915466 0.40440518 0.45198756 0.34623325 0.3149926 0.3999682 0.6227366 0.6867544 0.1363036 -0.0175347 0.36250764 0.6424284 0.66454625 0.61155605 -0.07342212 -0.031846058 -0.02678718 0.5221606 0.43237567 0.26506054 0.63140714 0.569592 -0.6441991 -0.119231686 0.5564152 0.47087517 0.35835838 0.24744079 0.22936395 0.53724897 0.4758211 0.36444438 0.12108298 0.25674766 0.39955518 0.46870863 0.6728339 0.15234748 0.09008221 -0.007968821 0.19343033 0.2022222 0.22988892 0.30346954 0.3997506 0.66691536 0.20958206 -0.012089584 0.22843006 0.18170814 0.20322743 0.27382293 0.2928564 0.052568898 0.11241755 0.35793358 0.47299078 0.60528815 0.3469985 0.47039098 0.48101616 0.55984974 0.59025 0.5341946 0.3468208 0.35668492 0.56559557 0.45576817 0.5148597 0.5924846 0.54134476 0.4368305 0.3655296 0.3660407 0.22529054 0.18004692 0.5727371 0.548264 0.41115505 0.48327905 0.49334776 0.4132692 0.366086 0.3579926 0.29515445 0.52971005 0.5537493 0.5557689 0.57438624 -0.11139539 0.21503976 0.57167804 0.68096703 0.7280743 0.05536942 0.7894686 0.44557357 0.78320146 0.49692345 0.45877618 0.70011324 0.7285893 0.48742712 0.60377014 0.67716634 0.12756793 0.5194753 0.4961223 0.6377604 0.6318363 0.60930264 0.6114806 0.6301424 0.6503241 0.7099722 0.6889372 0.6601042 0.6898979 0.70015025 0.71001756 0.34317315 0.66684735 -0.24252957 0.2262032 0.55456203 0.45270675 0.3604746 0.5019195 0.30835012 0.16644555 0.05665138 0.5269181 0.5387011 0.2014426 0.13718027 -0.3456393 -0.05899784 0.12752563 0.18872616 0.124687254 0.12738329 -0.16773987 -0.19454944 -0.10754439 0.30272967 0.24279168 0.2438153 0.09213015 -0.25939155 0.34873497 0.4603967 0.36589405 0.36215097 0.20101336 0.046836402 0.570952 0.37089148 0.18536635 -0.0022463761 0.5970514 0.6116675 0.61639786 0.6224793 0.26996398 0.042092197 0.60863626 0.5945803 0.3282596 0.2902257 -0.003037691 0.308678 0.29851338 0.27703425 0.002172174 0.33598873 0.32351092 0.6087229 0.64549214 0.6584513 -0.040330403 0.4338099 0.5331153 0.57813406 0.60357994 -0.008118719 -0.12630028 -0.07385923 0.36282456 0.47511175 0.5019015 -0.26524583 -0.16586822 -0.16796589 0.34349507 0.3644858 0.30438024 0.3373665 0.17970258 0.007409692 0.19436689 0.22540429 0.31463253 0.44450462 0.77033913 0.32601577 0.32343638 0.4542355 0.5462697 0.6570688 0.7296128 0.8075663 0.34479976 0.3575961 0.14534923 0.12211212 0.32913214 0.5151496 0.44617197 0.5618649 0.64169353 0.7730625 0.35406268 0.35294867 0.30362567 0.3173502 0.43435696 0.5057082 0.48641115 0.43157855 0.08681096 0.40073255 0.4771173 0.5939441 0.62918663 0.37745786 0.46070987 0.6357163 0.7438513 0.761906 0.050276116 0.2610814 0.79084516 0.79066944 0.79695654 0.7216546 0.20164514 0.5878216 0.6793704 -0.012193073 -0.043325298 0.6944957 0.7026751 0.58814794 0.65957445 0.6900244 0.69925416 0.6562004 0.6353284 0.6661586 0.69200367 0.7099459 0.705909 0.6956545 0.62672925 0.60226274 0.5684028 0.5531385 0.69371986 0.46016043 0.6312891 0.2729424 -0.05632098 0.18465194 -0.292406 0.006097153 0.14532185 0.07362963 0.54736906 0.5276611 0.101622544 0.19521978 0.5979325 0.60620016 0.08902274 0.13461195 0.2230646 0.03980514 0.22690679 0.15742084 0.025081264 0.21639033 0.022641987 0.12627475 0.03152211 -0.030460073 0.11625731 0.029714283 -0.08651054 0.14911024 0.4524898 0.37461472 0.21358149 0.24551475 0.31502348 0.5654586 0.60274684 0.50570375 0.53303295 0.5789963 0.6826906 0.7253356 0.28202718 0.46460238 0.70292985 0.28290504 0.2935211 0.07296416 0.34586746 0.6884116 0.30673355 0.22438747 0.09551423 0.14221594 0.2814935 0.11900251 0.17388877 0.31965283 0.6467893 0.6530162 0.72747487 0.4003263 0.14003076 0.14520903 0.11918844 0.16924989 0.37069297 0.47253585 0.37989295 0.39073426 0.18195228 0.44051975 0.4647919 0.59953445 0.7354238 0.7765902 0.18592323 0.1848559 0.70956373 0.76144