# vtk DataFile Version 2.0
Really cool data
ASCII
DATASET POLYDATA
POINTS 7919 float
-24.622879 0.8446278 -25.265823
-24.557259 0.65783226 -24.720942
-24.587545 1.6575102 -26.25055
-24.67405 1.652127 -25.187115
-24.629992 1.4301791 -24.726772
-24.556038 2.4852285 -26.2643
-24.590326 2.3935153 -25.487091
-24.574078 1.9202297 -24.752722
-23.870401 -0.0066375732 -25.896463
-24.035494 -0.07446846 -25.316875
-24.053974 -0.035405487 -24.565628
-23.925697 0.13141483 -24.043095
-24.09466 1.1711938 -27.03837
-23.972559 0.55324036 -26.30059
-24.398672 0.55404377 -25.385216
-24.44413 0.5119801 -24.476782
-24.240679 0.6687755 -24.018814
-24.24136 1.7219833 -27.26153
-24.463884 1.6008239 -24.428816
-24.15058 1.4170765 -23.85586
-23.72022 2.7887626 -29.266209
-23.958494 2.302463 -28.12132
-24.339716 2.6141918 -27.290676
-24.241495 2.4979038 -24.547613
-23.853456 2.0814955 -23.815674
-24.087357 3.362339 -28.01411
-24.361942 3.3784876 -26.5172
-24.290054 3.4403605 -25.510313
-23.979408 3.1454144 -24.673506
-23.685274 4.6295347 -28.721098
-23.885324 4.398499 -27.307388
-24.114382 3.8392239 -25.848232
-23.635557 5.601769 -28.56665
-23.83414 5.717802 -27.357128
-23.655884 5.379716 -26.00816
-23.605272 7.031057 -32.12675
-23.829124 7.055161 -29.757046
-23.875654 6.1872454 -28.11259
-23.754398 6.283068 -27.658148
-23.693949 6.1984367 -26.695353
-23.627798 7.292269 -32.278004
-23.862383 7.982774 -31.077269
-23.925858 7.6108446 -30.353384
-24.002314 7.6605806 -29.670132
-23.813568 7.7761283 -28.520594
-23.74414 7.424238 -27.66134
-23.634792 7.4858694 -27.164516
-23.735134 8.368304 -31.259333
-23.977081 8.531937 -30.329609
-23.922394 8.592006 -29.496527
-23.79938 8.453032 -28.82588
-23.658293 8.150229 -27.785686
-23.758581 9.018707 -30.278353
-23.754005 8.990461 -29.5905
-23.680988 8.771089 -29.026432
-23.000557 -0.5951828 -25.869555
-23.140148 -0.66845083 -25.32771
-23.06462 -0.6688211 -24.704796
-23.154396 -0.3421102 -26.253801
-23.462845 -0.4982631 -25.516384
-23.339752 -0.44469643 -24.447664
-23.269596 -0.10874534 -23.84449
-22.904535 0.20744881 -23.296947
-23.455385 0.70076746 -27.240955
-23.453848 0.2930373 -23.60675
-23.204414 0.55296856 -23.308582
-22.880138 2.22274 -30.709198
-22.92477 1.8621303 -30.189041
-22.781729 1.5051591 -29.710709
-23.474586 1.5959582 -28.369062
-23.361576 1.3710799 -23.14653
-22.98293 2.7647643 -30.927082
-23.283865 2.7231514 -30.42346
-23.398558 2.1524272 -23.503021
-23.199846 3.3427296 -30.852703
-22.926102 3.645199 -24.397888
-23.08616 2.8665836 -23.529114
-22.767923 5.157102 -32.684032
-23.017803 4.08704 -30.90098
-23.246403 4.342849 -30.428686
-23.192438 4.313166 -24.98358
-22.815521 5.281104 -32.805866
-23.168154 5.805048 -32.340305
-22.940994 5.210704 -30.71836
-23.299116 6.0420823 -29.597376
-23.382622 5.609915 -25.81364
-22.764273 6.907786 -33.699028
-23.03501 6.655563 -33.373203
-23.513063 6.947293 -32.65175
-23.458345 6.4730396 -31.255083
-23.230095 6.2295017 -30.72318
-23.454834 6.668223 -26.526217
-23.282515 6.331693 -25.886974
-22.861982 7.4384766 -33.685097
-23.16745 7.5717597 -33.337185
-23.50488 7.785872 -32.67683
-23.543219 7.8620315 -27.4084
-23.37497 7.479979 -26.813364
-23.05693 6.9634113 -26.074083
-23.123245 8.195682 -33.107983
-23.349669 8.354186 -32.52399
-23.555346 8.520753 -31.831009
-23.562584 8.668939 -28.404528
-23.376923 8.412841 -27.537348
-23.170382 8.1584835 -26.998388
-22.742563 8.690882 -33.192772
-22.830297 9.0730095 -32.4022
-23.326855 9.151868 -31.257343
-23.47774 9.292062 -30.250038
-23.327814 9.288876 -29.478657
-23.250948 9.039905 -28.644081
-23.024689 8.907816 -27.782772
-22.84446 8.69951 -27.144512
-22.746897 9.745012 -31.156395
-23.02503 9.63067 -30.246105
-22.106993 -0.6360991 -26.217714
-22.590322 -0.82613516 -25.550125
-22.284487 -0.7378627 -24.724932
-22.72443 0.0073878467 -26.79934
-22.659973 -0.47092935 -26.406092
-22.433691 -0.40673614 -23.865492
-21.95876 -0.1376079 -23.225266
-22.282625 1.2819557 -30.036428
-22.30576 1.1349585 -29.502985
-22.78579 1.1911418 -28.069653
-22.238985 0.91652256 -22.665144
-22.249842 1.9642502 -30.851492
-22.534815 1.5701652 -30.307642
-22.48648 1.6828927 -22.658222
-22.444086 2.5985048 -31.18202
-22.593332 2.0893478 -22.74528
-22.437765 3.8808818 -31.529474
-22.73973 3.3905208 -23.88216
-22.541245 2.9765 -23.221985
-22.254686 4.962298 -33.05876
-22.149979 4.4384556 -32.572872
-22.088282 5.9321494 -33.697456
-22.364597 5.5995507 -33.39705
-22.359722 5.3313036 -25.120005
-22.31225 6.490576 -33.83283
-22.38104 7.37585 -33.92889
-22.435003 7.1565456 -25.929672
-22.342192 8.116974 -33.771618
-22.5099 8.389384 -33.53989
-22.490482 8.344093 -26.601103
-22.330103 9.023023 -32.99972
-22.488258 9.433183 -32.346397
-22.498611 9.376198 -28.55073
-22.483923 9.051424 -27.615356
-22.471903 8.711876 -26.940392
-22.152096 9.843536 -32.15011
-22.286673 9.930016 -31.587452
-22.462318 9.891369 -30.369766
-21.959814 10.004454 -29.916277
-22.011747 9.635378 -29.016226
-21.384428 -0.92845106 -25.7344
-21.171875 -0.7852788 -24.506605
-21.723038 -0.063608855 -27.261955
-21.62671 -0.4370354 -23.656527
-21.812208 0.021448374 -23.082258
-21.700153 1.2679304 -30.17744
-21.672276 1.0750902 -29.63077
-21.411499 0.5684406 -22.665094
-20.834948 1.2177418 -17.916403
-20.803917 1.1121837 -17.48606
-20.744768 1.2507287 -16.536398
-21.594503 1.748219 -30.760752
-21.500374 1.5321547 -30.520147
-21.000076 1.4959306 -17.837006
-21.182894 1.7192872 -17.441462
-21.047983 1.7499229 -16.505325
-20.895754 2.0220418 -15.856639
-20.707546 2.1869874 -15.269695
-21.38061 2.7866333 -31.384779
-21.793629 2.0727215 -22.522064
-21.070005 2.410525 -17.909363
-21.241777 2.478523 -17.389889
-21.300436 2.4324076 -16.69165
-21.14672 2.7084515 -15.634748
-20.958012 2.8434327 -15.170602
-21.430172 3.8373806 -31.676844
-21.299784 3.2944753 -23.073393
-21.16665 3.6930342 -17.056446
-21.284832 3.407762 -16.356161
-21.23528 3.4952383 -15.5386095
-21.018202 3.4251845 -15.087756
-21.656656 5.0017 -33.248886
-21.837172 4.4788384 -32.50813
-21.69658 3.7340755 -23.947786
-21.121065 4.0280643 -16.339956
-21.102367 4.022085 -15.60857
-20.830513 4.0999117 -15.094021
-21.693777 5.686705 -33.61402
-21.355434 5.800723 -24.412714
-21.097376 5.123314 -23.804667
-20.71181 5.468831 -22.790375
-20.87228 5.5272403 -19.95443
-20.929382 5.364501 -19.575642
-21.378042 6.721515 -34.05509
-21.794449 6.4496474 -25.308393
-20.839666 6.192078 -23.378378
-20.734732 6.358857 -20.229145
-20.883728 6.3546305 -19.364891
-20.734846 6.437005 -18.473202
-21.382254 7.316891 -34.16564
-21.447645 6.8277445 -25.250069
-20.678865 7.493617 -19.576
-20.622854 7.410744 -18.329254
-20.590136 7.218338 -18.068407
-21.661135 8.133067 -33.967934
-21.544142 8.291061 -26.201227
-21.397213 9.130471 -33.269924
-21.380245 9.339127 -28.471277
-21.644917 9.109058 -27.6321
-21.63628 8.681274 -26.640574
-21.443417 10.108299 -32.265087
-21.31529 10.434302 -31.325132
-21.112406 10.387846 -30.5424
-21.735329 10.093059 -30.059425
-21.361195 9.642348 -28.988577
-20.896225 10.673866 -30.904188
-20.186064 -0.7945384 -27.29241
-20.35387 -1.1922767 -26.269108
-20.289076 -1.2084668 -25.583557
-20.490091 -0.9267217 -24.804785
-20.617119 0.1481147 -23.109907
-19.824678 0.18554036 -17.354713
-20.837545 1.2263746 -28.950224
-20.698792 0.9061037 -22.702894
-19.687765 1.0233731 -18.935078
-20.091589 0.8807502 -18.433956
-20.265638 0.661792 -17.39105
-20.257145 0.7916392 -16.67914
-20.013733 1.0895944 -15.837212
-20.914625 1.6002568 -30.377052
-20.317823 1.7334353 -29.697565
-20.766117 1.5834006 -22.63239
-20.476667 1.5013345 -15.815715
-20.181467 1.8796253 -15.193515
-20.174269 2.612239 -30.869862
-20.194582 2.3685434 -18.781765
-20.681671 2.288006 -15.30821
-20.4175 2.6546297 -14.827521
-20.292336 3.2365003 -31.516233
-20.449987 3.6925507 -22.9341
-20.011793 4.171506 -20.334707
-20.414522 3.40333 -14.644602
-20.19938 3.2297533 -14.410281
-21.083935 5.0750623 -33.111145
-20.39342 4.6242385 -22.833225
-20.172117 5.1368923 -21.298145
-20.402128 4.7128797 -20.766954
-20.50709 4.8597946 -17.930918
-20.446983 4.511761 -16.688826
-20.401108 4.198729 -14.702153
-19.840998 4.536032 -14.158779
-21.041775 5.876507 -33.50981
-20.505373 5.6020217 -22.200153
-20.405514 5.243831 -21.197853
-20.45248 5.685411 -17.877438
-20.057892 4.8139973 -15.580142
-20.154623 4.8022227 -15.029163
-20.93524 6.8450794 -34.02371
-20.55852 6.5795083 -23.069864
-20.457045 6.728239 -20.98703
-20.171928 6.5663657 -17.386122
-20.844643 7.5984163 -34.066696
-20.15443 7.065095 -24.124899
-20.172009 7.0593586 -23.36541
-20.250502 7.6010156 -17.716467
-19.564074 7.991225 -16.163473
-19.662794 7.5857334 -14.184843
-19.685196 7.855845 -14.011844
-20.70991 8.103974 -33.912487
-20.840073 8.522031 -26.551046
-20.175207 7.9952064 -21.208992
-20.45108 8.042936 -20.422525
-20.37787 8.365795 -19.632225
-19.681402 8.600458 -16.58451
-19.690998 8.35914 -15.324529
-19.843702 8.578806 -14.58696
-19.713297 8.5016365 -14.108087
-20.65588 9.363855 -33.1698
-20.260647 9.323513 -28.22659
-20.675478 8.800753 -27.08484
-19.77981 8.981228 -21.013441
-19.767624 9.410128 -20.41595
-20.244287 8.898252 -19.844383
-20.23913 9.110975 -18.631073
-19.845795 9.555185 -17.829628
-20.108374 9.728103 -14.951421
-20.066675 9.4651785 -14.508433
-20.163769 9.90106 -13.842892
-19.715284 9.762164 -13.068858
-20.268608 10.593859 -32.175007
-20.091259 10.1512375 -29.574108
-19.765362 9.808091 -20.00593
-19.83603 9.89658 -19.061993
-19.751184 9.981769 -18.425714
-19.81074 9.8059435 -17.908596
-19.548199 10.668167 -16.596575
-20.02385 10.665173 -15.249887
-20.284464 10.516637 -14.421093
-20.197111 10.485372 -13.682166
-19.843597 10.692664 -12.972632
-20.208342 10.744019 -31.934706
-20.177853 11.015986 -31.400236
-20.097094 11.081717 -30.688004
-19.641775 11.3954315 -15.9026575
-19.973192 11.550299 -15.202103
-20.165997 11.366037 -14.576004
-20.126844 11.236974 -13.746446
-19.74321 12.351881 -15.172468
-19.86597 12.260646 -14.552674
-19.81372 12.080875 -13.819622
-19.029196 -1.7677044 -26.384747
-18.852003 -1.8584329 -25.70898
[...]
POINT_DATA 7919
SCALARS features_00 float 1
LOOKUP_TABLE default
0.65224177 0.6884357 0.5601698 0.5852551 0.6206777 0.4926514 0.51840687 0.5723485 0.5983771 0.6683165 0.7072696 0.7073591 0.48929268 0.56879663 0.66735834 0.7041631 0.70324504 0.4618836 0.61169934 0.65258425 0.37600064 0.38390896 0.42438388 0.51784563 0.57581246 0.32791108 0.3951845 0.42523718 0.44893497 0.18498664 0.2419611 0.35152048 0.20124958 0.2792323 0.25072742 0.51210076 0.36454266 0.28698516 0.31739247 0.3240532 0.53872025 0.49415928 0.45711064 0.44878882 0.39765748 0.37128204 0.38098294 0.5095448 0.51271015 0.48448604 0.44844264 0.4077682 0.5081243 0.48800004 0.46559116 0.5125253 0.57010317 0.60064036 0.49628815 0.59543335 0.64849865 0.6496073 0.61635804 0.41801062 0.6741188 0.6561774 0.46446413 0.44718564 0.4251954 0.36158985 0.66467893 0.45188436 0.42804515 0.565018 0.41070634 0.27017897 0.44137603 0.4539261 0.3469755 0.25632152 0.19050236 0.48551625 0.49149498 0.19259189 0.19555601 0.23522602 0.6533242 0.6386349 0.5827935 0.35126138 0.2558697 0.34101522 0.2794404 0.6525738 0.63194114 0.57715464 0.39645892 0.3803941 0.3271666 0.5945029 0.5477828 0.51226306 0.4411927 0.42149314 0.41388607 0.574152 0.5083622 0.4986925 0.4949904 0.4674124 0.44811958 0.43835554 0.436176 0.45715103 0.46828133 0.37996504 0.47864726 0.49790254 0.4036184 0.43027002 0.55811834 0.53190464 0.4388817 0.40558398 0.3161414 0.58881634 0.4637105 0.45570332 0.5919999 0.4506496 0.5454887 0.36295515 0.3068195 0.38256562 0.46984673 0.37726253 0.58593297 0.5581441 0.06245719 0.6314195 0.6599426 0.3411226 0.6379888 0.6113745 0.43558306 0.5414586 0.48403227 0.42775482 0.43271965 0.43760884 0.44692048 0.42823797 0.4268248 0.36763632 0.3723703 0.33232167 0.36678052 0.2175051 0.4737196 0.52567136 0.4192254 0.38597286 0.50024164 0.51467574 0.5241715 0.514596 0.43204433 0.4192545 0.5358856 0.57042646 0.5618887 0.53337026 0.4829963 0.34654278 0.48241115 0.546775 0.5984926 0.6146647 0.5683429 0.5221162 0.25363317 0.20740995 0.47081316 0.57841027 0.55084217 0.5150501 0.45778024 0.36174268 0.10748709 0.45285958 0.48750672 0.4562592 0.54348046 -0.0413184 -0.0723165 -0.040775985 0.23364264 0.24304166 0.59774375 0.16399892 0.07846649 0.26262337 0.2823242 0.19454011 0.62803173 0.1510652 0.3176878 0.21641499 0.15967223 0.6432692 0.3660552 0.53352004 0.2817449 0.34911668 0.37429446 0.43723285 0.40230048 0.3758451 0.35152096 0.26945454 0.41899264 0.13313848 0.19019662 0.19862929 0.24174367 0.3393981 0.40400067 0.25686502 0.3445063 0.34736323 0.42639124 0.4658153 0.45520085 0.40176097 0.36045316 0.25334013 0.3348094 0.46376878 0.41011918 0.21482548 0.35708925 0.48882502 0.44379056 0.162676 -0.043949313 0.03570142 0.4424521 0.40207708 0.40160236 -0.17624071 0.071364895 0.11135258 0.09236577 0.23684621 0.3893563 0.24002182 0.4839732 -0.02560553 0.095710725 0.07137183 0.22571638 0.24330448 0.54257107 0.10277714 0.19744791 0.0034512617 0.5693765 0.070491455 0.10349471 0.09772157 -0.016191933 0.018747643 0.06011273 0.56413543 0.18363439 0.29542625 0.33266705 0.33798295 0.032943014 0.06380287 0.1230891 0.14579356 0.44739246 0.105842575 0.15724783 0.3625847 0.3663811 0.3595502 0.30080846 0.1717207 0.27099663 0.26443398 0.34054622 0.30152538 0.4321491 0.25071222 0.3557459 0.32383606 0.25739497 0.17606378 0.128162 0.32969368 0.3787431 0.38495895 0.34598148 0.44840166 0.47430623 0.47352338 0.27821112 0.3619269 0.4082415 0.41294622 0.365699 0.3960742 0.37380362 0.1302965 0.14354357 0.20705357 0.13265744 0.13910848 0.17916511 0.27326053 0.2946495 0.20425202 0.121162355 0.28582853 0.33157828 0.319479 0.26973414 -0.1007251 -0.054554984 0.19592158 0.38498053 0.2884754 -0.06997685 0.31818342 0.3204849 0.09160627 0.056313857 -0.09766513 0.31413472 0.25673205 0.10449294 0.09684629 -0.17837787 0.2356412 0.27483708 0.30996192 0.21265231 0.24454252 0.28152788 0.3597033 0.07449892 -0.108911194 0.11410709 0.298963 0.40336558 0.27234495 -0.09909631 -0.11507191 -0.0564555 0.12055691 0.26711944 0.3673398 0.26511958 0.08657071 -0.04840949 -0.10410349 -0.034577705 0.00037584454 0.046998605 0.21308902 0.26396614 0.334902 0.06916716 0.28971803 0.3518123 0.16490796 0.26686487 0.2489025 0.30548814 0.39099395 0.28699142 0.19823128 0.33594772 0.31119612 0.22976767 0.29282638 0.28491333 0.30014935 0.43961778 0.4760339 0.48465616 0.39595804 0.23166564 0.22801661 0.27233535 0.33358333 0.19183925 0.25774997 0.28831887 0.22333422 0.22908336 0.2884847 0.24750745 0.32993543 0.32209206 0.1804421 0.5421505 0.11825544 0.5188888 0.6547141 0.63543355 0.5697177 0.61105 0.755289 0.7509187 0.72429264 0.732944 0.78361464 0.83134234 0.7956768 0.80337495 0.86320156 0.20348826 0.1207236 0.16029538 0.24899533 0.24170548 0.19146734 0.2637845 0.24946173 0.20945828 0.14073102 0.105371535 0.22504348 0.25655586 0.26660874 0.26654354 0.24033195 0.24214481 0.08527933 -0.05831029 0.16225176 0.21768077 0.13687477 0.16786444 -0.13154174 0.1083248 0.09812122 -0.15264563 -0.25109822 -0.3635963 0.22667125 0.18685931 -0.19445157 0.2254374 0.0441688 0.11079869 0.22890237 0.29825652 0.35539615 0.39636528 0.4466612 0.04349443 0.3238264 0.41632402 0.0028819889 0.17523158 -0.17689171 -0.059399027 0.27919877 0.31615502 -0.009181621 -0.30447453 0.23577465 0.30166724 0.30881703 0.3845941 0.28057823 0.31520474 0.29262626 0.37447706 0.4062915 0.45329225 0.452486 0.34355184 0.27057153 0.05258444 0.07036263 0.3326782 0.15542257 0.16441908 0.2640873 0.27762952 0.3557804 0.3690884 0.450564 0.2239708 0.23810595 0.07642753 0.0706783 0.260626 0.42385578 0.47413942 0.51179594 0.51777744 0.23526195 0.24759033 0.015685216 -0.011527121 0.305732 0.57353795 0.580218 0.092566036 0.16398132 0.14145374 0.30219802 0.6131331 0.6676 0.6562026 0.30543306 0.3362645 0.3115302 0.26401064 0.7045649 0.8343518 0.7664735 0.5021 0.5347327 0.5022218 0.4530647 0.37897593 0.7417979 0.7911493 0.881775 0.8757659 0.5687673 0.56785965 0.56239486 0.5959789 0.58179533 0.20500822 0.21733706 0.1892316 0.27893096 0.24301618 0.13299474 0.08618066 0.12903649 0.22372366 0.20513393 0.09474537 0.14174001 0.24242777 0.29073393 0.30339244 0.26396793 0.27449843 0.14954303 0.06244359 0.1216502 0.19683689 0.2322695 0.26492068 0.27230033 0.23849243 0.21902452 0.22871375 0.11236882 0.15389393 -0.1324251 0.040330067 -0.07361159 0.07835514 0.0060290694 0.30517113 0.2923528 0.07314658 0.39566094 -0.16339298 -0.061532274 -0.24510796 0.3646745 -0.09817536 -0.23175442 0.20115072 0.16574416 0.19893703 0.27564535 0.6082896 0.26536965 0.17128837 0.36278373 0.4853232 0.5696461 0.65995157 0.3320757 0.0516024 0.45686364 0.45353395 0.33398956 0.24794513 0.36422652 0.30355737 0.38995206 0.48440307 0.58587277 0.69980156 0.35336754 0.39474526 0.40935332 0.24462426 0.46242934 0.4119103 -0.022116035 0.0045953244 0.3430894 0.15945421 0.33360636 0.3696124 0.4903079 0.4302942 0.10208158 0.3092612 0.41967297 0.19176386 0.16603836 0.17445053 0.5252322 0.22277324 -0.14142624 0.08125225 0.552722 0.19744597 0.025209796 0.03177709 0.044161737 0.68395483 0.1272006 0.60424197 0.7703998 0.4814751 0.31339702 0.6576755 0.8062241 0.83898395 0.8130188 0.5025978 0.56187177 0.49265802 0.40905178 0.79602456 0.80229187 0.5357556 0.58799094 0.6082447 0.5769739 0.4960384 0.4365621 0.2827697 0.14828931 0.0331932 0.18629631 0.18536007 0.14412305 0.25235838 0.28292522 0.2349228 0.108024165 0.18415566 0.10772147 0.065428 0.15362191 0.22507083 0.26665378 0.31810543 0.26927057 0.1878353 0.23326877 0.23280706 0.20514467 0.1916523 0.12688944 0.09645643 0.1087224 0.36820427 0.4609736 0.056332953 -0.09340935 0.41623193 0.47823077 0.5125568 -0.11057062 -0.13687113 -0.14875606 0.37681141 0.49306 0.5151623 -0.2311538 0.3950642 0.4824857 0.20242214 -0.18174091 0.25381294 0.32231298 0.46486145 0.43169236 0.007524729 -0.2669204 0.23471293 0.5371151 0.5457328 0.7032199 0.7299288 0.7347806 0.5316854 0.4969593 -0.27438807 -0.567809 0.5402279 0.64889437 0.736434 0.74480057 0.7428713 -0.2404584 0.2348852 0.4126659 0.4749518 0.73154056 0.7588532 0.75419074 0.3352344 0.007466538 -0.09952895 -0.36913252 0.16590124 0.2705418 0.72387093 0.39799532 0.413736 0.28254825 0.51510036 0.28334737 -0.059119776 0.15024298 0.58587617 0.5413392 0.27275056 0.18527843 0.09082726 0.46405667 0.38694495 0.3360439 0.18075353 0.1758617 0.48609984 0.57914674 0.5379859 0.50833714 0.55864275 0.6328368 0.1487833 0.12044987 0.6664672 0.11169406 0.24232337 0.13178624 0.71632445 0.26394397 0.14002723 0.27369264 0.75013506 0.7677547 0.4486897 0.35991582 0.71463156 0.71266615 0.7785914 0.518514 0.6017225 0.47930622 0.43414554 0.3539803 0.64843625 0.59875995 0.5347085 0.28480548 0.20217729 0.303316 0.27030355 0.209572 0.10829869 -0.017573504 -0.0496479 -0.01234678 0.10014583 0.07930133 0.2503033 0.18104564 0.24048036 -0.0025873184 0.029300496 0.07164371 0.15379037 0.23361596 0.29618314 0.24660215 0.22129497 0.14966106 0.6278269 0.61916625 0.13554876 0.20380436 0.18128648 0.3416627 0.600969 0.61438715 0.5946207 0.08213946 0.32210863 0.45081097 0.40891132 0.5448291 0.023269903 0.49623826 0.48886147 0.28107706 0.28450206 0.014221918 0.00093507394 0.48659062 0.31786418 0.32182205 0.299698 -0.06594205 0.458596 0.25469875 0.25403938 0.28555655 0.33533978 -0.2501566 0.3199693 0.16191122 0.15629475 0.23518346 -0.032090627 -0.19449174 0.43757963 0.35600403 0.08174617 0.5287298 -0.17188732 0.7150241 0.7320583 0.51099867 0.5101808 0.48231536 -0.20094894 0.56896645 0.73458683 0.73529065 0.4503397 0.35764247 0.02852007 -0.5557449 -0.43192095 0.74245095 0.68190557 0.25101796 0.19599018 0.3900597 0.5478196 0.5738963 0.4984767 -0.09335208 0.45677534 0.333485 0.1609785 -0.1586272 0.33952555 0.70964336 0.6569942 0.47166842 0.36715627 0.28293756 0.39735603 0.7166644 0.6959913 0.6497022 0.5697286 0.15637963 0.4870813 0.72399104 0.6914915 0.631513 0.10633319 0.5337392 0.63408005 0.24189328 0.23903984 0.10469275 0.61648715 0.6812298 0.6778801 0.33825397 0.16661862 0.47994608 0.40464944 0.31573373 0.5868075 0.64328164 0.60582066 0.46015778 0.42938507 0.27461302 0.18622267 0.048264965 0.010036148 0.025086395 0.008694848 0.009792611 0.02769341 0.22180916 0.28681475 -0.044244442 0.008142907 -0.03801005 0.15977193 0.24243046 0.19194958 0.6365839 0.08730956 0.07049214 0.14722306 0.19967787 0.11377044 0.621678 0.6359347 0.6229062 0.0739675 -0.07348253 0.09396009 0.07587473 0.2529171 0.3169163 0.5801352 0.6012571 0.56497824 0.06062948 0.08245673 0.36620405 0.33164647 0.500936 0.44920415 0.53771746 0.41097015 0.050606694 0.06283491 0.37501734 0.06699534 0.26802412 -0.023392774 0.35008577 0.1318851 0.08269188 0.25440463 -0.03677874 0.22059575 0.16553614 0.086669445 0.1475986 0.12208433 -0.26784188 0.20906514 0.15936269 0.1106729 0.12276189 0.09229187 0.053920843 0.20097463 0.097848155 -0.040222708 0.37040454 -0.11713398 0.49926925 0.6409189 0.68053937 0.7036928 0.49376738 0.47277778 -0.42454168 -0.23945126 0.3771407 0.702509 0.7147474 0.44867292 0.3836087 -0.3885306 -0.34787247 0.7158271 -0.2011401 -0.13118446 0.61429596 0.30795068 0.55500466 0.36691782 0.47016132 0.72477627 0.74427795 0.2114221 0.28431228 0.75215864 0.40062043 0.2522662 0.4100111 0.7520535 0.7407593 0.6869391 0.5859154 0.015041698 0.34297076 0.40167648 -0.08508397 0.042900022 0.05987946 0.3482812 0.3058111 0.49374804 0.2851883 0.5775532 0.61601746 0.60021526 0.49023864 0.04545383 0.055089608 0.009241097 -0.016267374 0.22756332 0.18098152 0.05406922 0.03902006 0.1784235 -0.16391946 0.06993906 0.21057105 0.18482341 0.14685972 0.09467974 0.59364325 0.5881026 0.564623 0.48182315 0.05805532 -0.13789316 0.026579168 0.060094923 0.07586118 0.5279752 0.48776066 0.11916667 0.05268059 0.1455786 0.23035857 0.27078754 0.54898405 0.42952394 0.08261078 0.28702393 0.6914134 0.60970545 0.39597023 0.38300416 0.017179959 0.2548928 0.7577226 0.7047437 0.5582129 0.2516715 0.18514843 0.09180475 -0.05785369 0.15652886 0.75894576 0.6714581 -0.20002437 0.088511385 0.18784213 0.30437356 0.32166618 0.6834115 0.30834898 0.33212376 0.3935692 0.37612444 0.32941544 0.16607992 0.08000627 0.34220272 0.37811655 0.4237855 0.4843413 0.053411942 -0.3097822 -0.048214782 0.122719236 0.21347126 0.3677978 0.48287582 0.46369874 0.3540393 0.20053004 -0.40227613 0.49235487 0.281612 0.41211903 -0.52551275 0.102360755 0.43646204 0.6363857 0.35021868 0.38011965 0.22096926 0.6194668 0.1388285 -0.0019299537 0.5595294 0.31822333 0.19884244 -0.0103033185 0.024114504 0.5288046 0.44664901 0.4992906 0.4631887 0.39388496 0.4477458 0.5009289 0.53639024 0.15708871 0.28441754 0.67913413 0.7357465 0.22953145 0.16147529 0.7413861 0.722666 0.68697274 0.53180945 0.30944887 0.03324361 0.06605605 0.17752273 0.022572456 0.06780098 0.14891806 0.07218012 0.1965416 0.41565812 0.37610465 0.70252305 0.42190218 0.5534154 0.61633414 0.6812717 0.12114391 0.35232323 0.46678168 0.54056865 0.6006861 0.019934379 -0.025432669 0.22702867 0.41782466 0.4327343 0.4797032 0.7019591 0.6982318 0.5683781 -0.083056435 -0.044014744 0.28029668 0.3435049 0.62785727 0.6179433 0.5565221 0.27434996 0.06724478 -0.030501515 0.11030315 0.14490639 0.5561559 0.493625 0.45409667 0.3953678 0.10080305 0.10991804 0.09082204 0.064085454 0.1153768 0.0040820763 -0.03664332 0.20608488 0.22343078 0.24281502 0.059723288 0.065614745 -0.20327877 0.05791677 0.11339952 0.111663505 0.112905666 0.26699677 0.44437075 0.4097541 0.42000535 -0.060642593 -0.008631501 -0.03450588 0.055729695 0.32967862 0.28694895 0.38410527 0.14452894 0.18746887 0.20648089 0.3312721 0.38027576 0.42234236 0.721056 0.575683 0.16045153 0.16503923 0.3715644 0.42100787 0.77435124 0.7183347 0.081773356 -0.028602019 0.24912983 0.3849284 0.40764904 0.7996752 -0.13066381 0.28924358 0.27633417 0.7895415 0.23852362 0.35132188 0.36369595 0.7533808 0.6608068 0.4617695 0.49319798 0.5528436 0.4886322 0.45368323 0.54727113 0.5339271 -0.23749065 -0.061936285 0.1169621 0.2819372 0.46569508 0.54964423 0.5273764 0.47998685 -0.38053948 -0.39699346 -0.016993493 0.2128762 0.49743852 0.4358068 -0.5148685 -0.47616303 0.5370821 0.2343085 0.22643586 -0.09349072 0.5084861 0.34821135 0.4305971 0.35315755 0.13818403 -0.038005754 -0.016678393 -0.09755223 -0.2812485 0.47475624 0.49474093 0.48285306 0.5407654 0.52275294 0.37967923 -0.22323811 0.32786062 0.37107378 0.25980854 0.21501593 0.27819967 0.4986688 0.024063628 0.5851232 0.6668954 0.5711138 0.45388862 0.16272314 0.05332911 0.040080503 0.19674544 0.41717768 0.30019766 0.27532274 0.27980715 -0.18552265 0.55514973 0.3888838 0.3439206 0.38024032 0.66584235 0.6277503 0.6691057 0.63259673 0.543736 0.6199658 0.7792645 0.80520785 0.5726655 0.52808094 0.46195328 0.49329522 0.6338294 0.7429799 0.7849156 0.8077712 0.4964171 0.41607863 0.68904763 0.7345028 0.7476721 0.44637972 0.4393614 0.29929644 0.108963415 0.12224097 0.66325414 0.65694565 0.77340436 0.74930745 0.6582693 0.5657686 0.20820498 0.24285462 0.007893766 0.5170067 0.51588106 0.7233683 0.74898857 0.7223816 0.6142317 0.44105908 0.30528268 0.19723506 -0.00429067 0.3243649 0.38708234 0.70040226 0.2927943 0.14647627 0.12646756 -0.09412569 0.35979742 0.38906386 0.463068 0.5300108 0.55469835 0.4339862 0.31399587 -0.044360273 -0.075470224 0.16392297 0.2597206 0.38236263 0.4291178 0.3304281 0.14530382 0.051275767 0.09604667 0.22059236 0.23913728 0.26770234 0.28407332 -0.056111403 -0.07396461 0.30591494 0.12801875 -0.009811036 0.25506052 0.32357004 0.38328078 0.42185545 0.41837174 0.7345045 0.6852246 0.5121482 0.10547351 0.4437988 0.45281538 0.45602107 0.80562973 0.15109003 0.4482196 0.44937718 0.82856566 0.8271567 0.3726093 0.42260903 0.813249 0.79136837 0.41456282 0.43863842 0.41294685 0.3894983 0.5811183 0.5711671 0.32215515 0.5955519 0.58140594 0.5634253 0.57634246 0.52832985 0.10432087 0.005476176 0.14130042 0.11511385 0.44764426 0.23387195 -0.17333947 -0.14708477 0.42387155 0.15172409 -0.11365441 -0.3115361 -0.26555812 0.41625595 0.42926162 0.49008998 0.53243375 0.5744018 0.5503117 0.4317038 0.32099748 -0.030899357 0.3145365 0.031875335 0.1047453 0.20479104 0.29655415 0.33601418 -0.034726165 0.39441806 0.3741187 0.31252557 0.15595189 0.044775113 0.48287135 0.17903239 0.1866661 0.49289376 0.51873004 0.4387257 0.3844407 0.46442485 0.5931606 0.5782424 0.4362056 0.39793816 0.4831224 0.6982019 0.70853186 0.66551375 0.55251944 0.5770155 0.738623 0.785119 0.6809914 0.6457847 0.58759797 0.50538087 0.7795129 0.8227023 0.6552033 0.6116041 0.5174215 0.43864793 0.34663063 0.4221792 0.6915887 0.7472489 0.83390725 0.84735656 0.5828405 0.789304 0.77330935 0.67709994 0.4771304 0.6953916 0.6877605 0.7270974 0.76201415 0.72562736 0.6453333 0.5301248 0.40948212 0.57042295 0.56509274 0.7050097 0.41907448 0.29137516 0.16984306 0.12757368 0.07347961 0.02730038 -0.017880082 0.47155935 0.08288284 -0.040758662 -0.3388774 0.18287584 0.3587476 0.51584375 0.5918153 0.6126605 0.20886597 0.17581236 -0.21461694 0.5021089 0.499906 0.2477685 0.30064505 0.24879198 -0.06183669 0.310658 0.30565348 -0.07129038 0.17443347 0.30470037 0.39030924 0.39123338 0.7429332 0.6710427 0.5255295 0.14073533 0.42639965 0.42901963 0.7779089 0.4421034 0.79472923 0.39936358 0.7880542 0.7571001 0.612551 0.31331366 0.30202147 0.57390785 0.2830699 0.602625 0.23553823 0.60601497 0.6053283 0.59329873 0.4237999 0.25891995 -0.05256047 0.1845308 0.29117835 -0.083014674 0.23199065 0.24054301 0.022160355 -0.3270609 -0.15228851 -0.355042 0.4276531 0.20644292 0.09944472 -0.2811385 -0.30460724 -0.21834624 -0.096096516 0.48698825 0.5310278 0.5834171 0.5647383 0.45610988 -0.26824307 0.021480119 0.58329463 0.080101505 0.17755271 0.027619626 0.30499426 0.2554616 0.20984468 0.0917109 0.20158559 0.04183747 0.16826878 0.5145441 0.22015488 0.35613778 0.45861566 0.60409343 0.45567125 0.64971155 0.5403074 0.65975463 0.7263737 0.6921922 0.64745176 0.54086006 0.5560774 0.76737607 0.6869203 0.7207544 0.6167182 0.683642 0.79952645 0.8457386 0.820148 0.68338895 0.6128441 0.69716644 0.6824465 0.57865804 0.4731664 0.7841002 0.8231298 0.6329181 0.6711495 0.42017737 0.22677907 0.67791516 0.7278867 0.8247169 0.86423063 0.5889859 0.8109393 0.67593443 0.62647635 0.47754064 0.6687222 0.69715047 0.682837 0.6728559 0.55012155 0.36104792 0.49521944 0.5630628 0.12167886 0.1366461 0.11374227 0.03484507 0.32813308 0.5788443 0.6427243 0.43032813 -0.23316135 0.37225926 0.5424718 0.6515443 0.67699766 0.6260526 0.20816544 0.5853102 0.2401011 0.49398667 0.29122505 0.1457947 -0.14135008 0.013632216 0.2587649 0.27811062 0.30142802 0.35107797 0.20845157 -0.13337103 -0.13251723 -0.26080215 0.29156017 0.3767125 0.34014785 0.3642788 0.71585 0.645023 0.36435932 0.7269385 0.61397636 0.32837242 0.69587016 0.5535139 0.21338466 0.6550931 0.13333264 0.4281234 0.117022276 0.5168646 0.49794185 0.1370584 0.582384 0.57847667 0.5166706 0.14613794 0.18528348 0.58404225 0.55976915 0.44354418 0.23164701 -0.046355493 -0.0058447663 0.18089306 0.22057289 0.045335982 0.38997453 0.1189635 -0.33820918 0.38413924 0.384333 0.3127972 0.27050117 0.12938336 -0.1840953 -0.30658767 -0.1685819 0.45594472 0.507654 0.5513364 0.5448988 0.43252587 -0.2773088 -0.08384255 0.11482267 -0.06309576 -0.20526126 0.08472069 0.10809097 0.09673887 0.079429224 0.14121099 0.063471064 0.23344386 0.18760735 0.46270037 0.24601007 0.4816978 0.5595654 0.55545676 0.44944465 0.5683948 0.5884098 0.5470829 0.63989985 0.65554565 0.621544 0.47831315 0.5181403 0.62501574 0.7100333 0.70832825 0.5386649 0.6089821 0.6438899 0.76692903 0.7515406 0.73886204 0.81968266 0.8319446 0.71149284 0.7101717 0.64260906 0.5139818 0.6656691 0.6895723 0.4783612 0.31300306 0.6119323 0.25996462 0.44725066 0.7763299 0.5264029 -0.023709368 0.09187859 0.43359298 0.7072419 0.77442336 0.432995 0.58661604 0.53988945 0.48273993 0.48960668 0.22843759 0.37074032 0.44189152 0.43620393 0.005151935 -0.012415299 0.0018565804 -0.020525977 -0.05769722 0.14539878 0.6045741 0.6421214 0.267783 0.3534687 0.5623876 0.6682929 0.6716697 0.21753517 0.18007214 0.6371838 0.5643732 0.55123746 0.5628636 0.53343314 0.48152673 0.24234018 0.25109524 0.2894888 0.46407932 0.52975154 0.45373434 0.44390273 0.24679768 -0.17619511 -0.0006823614 0.29345453 0.36323905 -0.18624339 -0.24584107 -0.29662776 0.26261806 0.31849077 0.1656532 0.40437627 0.3151632 0.103