# vtk DataFile Version 2.0
Really cool data
ASCII
DATASET POLYDATA
POINTS 7728 float
-7.611152 7.011065 2.8996058
-7.8698215 6.815964 3.7210357
-7.923688 6.7916694 4.3952966
-7.8483057 6.978482 5.054822
-7.8558335 7.7060823 2.9198802
-8.193216 7.6562376 3.7495658
-8.260321 7.5244517 4.42246
-7.957502 7.5489774 5.1705356
-7.789351 8.280012 2.9701314
-8.124293 8.362432 3.712127
-8.205278 8.361763 4.4982743
-8.046264 8.293437 4.9675174
-7.8559513 8.924592 3.8818202
-7.9405813 8.835801 4.416348
-7.8290324 8.747652 4.8807974
-7.516232 22.63565 5.023147
-7.520211 22.541084 5.1426773
-6.5193377 5.2975683 -1.1055824
-6.557315 5.5769567 -0.7330862
-6.680115 6.0907097 2.1192734
-6.926358 6.1470814 2.521774
-7.0103865 5.9866533 3.5027974
-7.209899 6.005422 4.4583616
-6.926363 5.921761 5.325391
-6.5577354 6.3765755 -0.4984326
-6.7542205 6.8733015 0.43252483
-7.1909094 6.981836 1.900968
-7.271479 6.582678 2.3912673
-7.4455104 6.347828 3.579018
-7.4401603 6.605177 5.388044
-7.012247 6.6824665 5.9411054
-6.6465764 7.3104777 -0.14890718
-6.842903 7.3779545 0.7666099
-7.120016 7.6726623 1.5944135
-7.2841597 7.3690677 5.822284
-6.7194114 8.372238 0.707217
-7.113028 8.409696 1.7993249
-7.311133 8.209754 2.5599098
-7.544564 8.343801 5.4106717
-7.418564 7.971246 5.656681
-6.672716 9.60703 1.8973109
-7.120019 9.277723 2.6197052
-7.3409786 9.237433 3.5801396
-7.621058 9.0469055 4.4560385
-7.633013 8.820437 4.980301
-6.8010316 9.787197 2.2953196
-6.7008796 14.875769 2.859458
-6.707407 14.883282 3.3234353
-6.724537 15.480336 2.7194242
-6.77381 15.4482 3.4696338
-6.671156 15.50897 3.899475
-6.648669 15.993752 2.9713943
-6.6511393 15.995026 3.5230474
-6.585836 15.968748 3.9386487
-6.8342843 20.87966 4.0302935
-6.953398 20.77907 4.6305385
-6.8543005 20.848862 5.3293376
-6.989428 21.688866 3.9623313
-7.239087 21.526844 4.6435556
-7.244777 21.586828 5.308539
-6.861149 21.748209 6.0219812
-6.980538 22.485737 3.9349606
-7.397943 22.530558 4.663271
-7.448373 22.541174 5.438086
-7.107513 22.51136 6.0154786
-6.952156 23.167315 4.1221614
-7.208114 23.23222 4.7427
-7.291271 23.207727 5.4469905
-7.0598803 23.161453 5.9403534
-6.914032 23.73255 5.1950603
-5.595765 2.0031393 -0.6650688
-5.542448 1.893881 0.20922893
-5.696994 3.0133643 -0.9313156
-5.7004523 2.6026378 -0.4519181
-5.667198 2.7735493 0.25407323
-5.56846 2.9063106 0.93287665
-5.6720586 3.7489831 -1.7744335
-5.863071 3.817622 -1.3282415
-6.090183 3.937851 -0.48801506
-5.867579 3.3602073 0.39264375
-5.675209 3.3628173 1.1029325
-6.0786743 4.8376126 -1.9199545
-6.3072095 4.7022758 -1.4039744
-6.4209995 4.628459 -0.7729103
-5.9774013 4.550775 0.3888322
-5.9610677 5.402261 3.122554
-6.239683 5.460674 4.5967693
-6.0005283 5.5367484 -2.1215494
-6.415416 5.698205 -1.5445607
-6.501626 6.0119624 -0.31813613
-6.395123 5.605956 0.37104496
-6.4727507 5.8794928 1.7690958
-6.4123645 5.6963167 3.6960206
-6.496004 5.5581875 4.0768194
-6.4842434 5.7473164 5.4993505
-6.4470744 5.8902655 5.851438
-5.884352 6.431553 -2.1713667
-6.345312 6.4611616 -1.3626391
-6.4142647 6.5211067 -0.7833164
-6.527495 6.551304 6.1873226
-5.8000307 7.3174577 -2.0673687
-6.1419473 7.2834706 -1.3108892
-6.4689913 7.7636 -0.5565226
-6.2476187 7.0479693 6.287038
-5.8117795 7.9221 -1.1444712
-6.4916143 8.27986 -0.12179832
-6.5354743 8.652565 0.3713461
-5.8274407 8.951919 -0.4795477
-6.245777 9.187769 0.6649063
-6.250604 9.667681 1.2559056
-5.980903 9.286999 4.6371927
-5.9715166 8.828147 5.3708715
-5.678478 10.139635 1.1682736
-6.2732964 10.111838 1.9283386
-6.0731697 10.351666 2.518531
-6.389157 9.856566 3.6472151
-5.8088446 14.232651 1.8867645
-6.1241784 14.246271 2.4902973
-6.0737934 14.219345 3.3368459
-6.2775326 14.764012 2.03017
-6.419523 14.577417 2.585773
-6.5886784 14.710158 3.4397864
-6.230004 14.802485 4.10561
-5.74995 15.267711 1.3483138
-6.208165 15.41376 1.8540362
-6.5248446 15.735578 2.3995383
-6.428845 15.814879 4.286604
-5.8623333 15.830989 5.123127
-6.028693 16.078047 1.9687022
-6.387856 16.136457 2.555367
-6.4450474 16.315996 3.484601
-6.434084 16.01901 4.194397
-5.9396443 16.508566 5.127218
-5.991865 16.880209 3.01422
-5.8629375 17.127588 4.510387
-5.65294 17.02391 5.4091883
-6.3938317 20.255632 4.0054293
-6.4711018 20.128893 4.5645614
-6.2430997 20.281929 5.4085703
-6.041161 20.847145 3.3297062
-6.4300294 20.546461 3.8086753
-6.4381094 20.483198 5.3869214
-6.5300074 21.128185 5.993275
-6.1436806 21.664963 3.0984702
-6.4936438 21.202555 3.5018008
-6.4248004 21.601078 6.183215
-6.011361 22.398067 2.8018878
-6.4202127 22.39959 3.4224272
-6.4926014 22.329208 6.354925
-5.6931868 23.54197 2.7089424
-6.4172645 23.232103 3.5962646
-6.5080295 23.239634 6.199607
-6.2664967 24.068062 4.679322
-6.566664 23.821856 5.4860077
-4.838125 -12.77622 18.951155
-4.8986564 -12.72025 19.330519
-4.750147 -12.755306 20.012955
-4.734441 -11.9346695 18.168953
-5.0098014 -12.319452 18.811777
-5.1163926 -12.36963 19.473064
-5.036471 -12.226636 20.16773
-4.882774 -11.821943 20.981243
-5.1791587 -11.824678 18.87679
-5.334604 -11.5605545 19.523895
-5.314749 -11.390849 20.525177
-5.1120954 -11.247623 21.250565
-4.7625437 -9.842591 12.899076
-4.8353806 -10.089461 13.615664
-4.7660966 -10.167325 14.100289
-4.960052 -10.513066 18.803186
-5.2945013 -10.599324 19.766415
-5.389262 -10.646231 20.581285
-5.232568 -10.435526 21.243376
-4.795997 -10.331066 21.862307
-4.6958117 -9.080391 11.608243
-4.9447556 -9.146346 12.64618
-5.048187 -9.394642 13.583164
-5.0098724 -9.495666 14.142356
-4.781891 -9.110736 15.074492
-5.0465374 -9.829561 19.723368
-5.2553697 -9.978691 20.575462
-5.041088 -9.765536 21.330898
-4.7336 -9.666719 21.937813
-4.6238747 -8.746744 11.184657
-4.7423534 -8.4379225 11.557444
-5.086075 -8.310914 12.670578
-5.1573615 -8.48652 13.605987
-4.9599237 -8.558768 14.376555
-4.626424 -8.706778 15.436579
-4.6790586 -8.877635 20.43652
-4.5952187 -8.437954 21.57232
-4.59309 -8.755269 21.916384
-4.714991 -7.494739 11.78802
-5.021478 -7.475291 12.373489
-5.1584783 -7.66905 13.451027
-4.9621162 -7.7435484 14.4166
-4.5865145 -7.0450025 14.914282
-4.560387 -7.886181 21.610243
-4.6091056 -6.096315 5.989594
-4.771378 -6.271976 6.634166
-4.7700253 -6.2711277 7.2439127
-4.6578503 -6.248497 7.7524543
-4.6343846 -6.6701574 12.046665
-4.866995 -6.8603287 12.621505
-4.894827 -6.611671 13.398335
-4.780386 -6.8005943 14.414501
-4.5743456 -6.322569 15.043254
-4.504536 -6.440891 20.06441
-4.6742477 -5.705075 6.068718
-4.83641 -5.662662 6.714445
-4.7566986 -5.4774837 7.415243
-4.594195 -5.877196 13.374143
-4.55431 -5.9424734 13.959
-4.7014174 -5.04122 6.582951
-4.7255716 -4.658053 7.3565874
-4.597759 -4.282517 8.024913
-4.795888 -3.0540853 7.9294143
-4.861246 -2.95017 8.714124
-4.856713 -2.4312117 7.824888
-4.9725695 -2.384934 8.4306965
-4.8261566 -2.4608397 9.080704
-4.8321166 -1.6535997 7.8133154
-4.951153 -1.6327852 8.47897
-4.74884 -1.463113 9.2396965
-4.592375 -1.4797003 9.760051
-4.7276173 0.39765784 0.17676072
-4.6005306 -0.6989898 7.6325216
-4.6464615 -0.5410644 8.464592
-4.680237 -0.89220035 8.975674
-4.8668056 0.9999399 -0.9923221
-4.9427857 0.76618296 -0.45801565
-5.005215 0.7385272 0.33937454
-4.7879415 1.0274575 1.2952296
-4.5829124 -0.11547529 7.815682
-4.5550404 0.01890026 8.257116
-4.9350886 1.955565 -1.8443933
-5.1186533 1.7679093 -1.4257876
-5.388756 1.4877448 -0.4439215
-5.395074 1.5143068 0.32183847
-4.97854 1.5253847 1.1526453
-5.0202146 2.6305661 -2.0227132
-5.356938 2.4894364 -1.5692818
-5.4731474 2.2723873 -0.6858021
-5.2126374 2.6833909 1.4221488
-4.905138 2.6967692 1.9353857
-4.62181 2.9064038 20.726175
-4.692673 2.9249914 21.542841
-4.6016235 3.0050716 22.065575
-5.2548327 3.3688083 -1.9447093
-4.680155 3.493459 20.711494
-4.7776556 3.549036 21.42553
-4.6362867 3.5176654 22.140684
-4.9788566 5.0826273 -2.7157633
-5.54541 4.846449 -2.356571
-5.4861965 4.7016625 1.6314604
-5.1074333 4.5918407 2.4504728
-5.0589385 5.281771 3.5868506
-5.7149 5.3509226 5.0038047
-4.6094837 4.0496693 20.906822
-4.672017 4.109608 21.526382
-4.6327853 4.052691 21.953856
-5.117543 5.6991563 -2.7811813
-5.6563168 5.534766 -2.432405
-5.5853953 5.478316 3.2812471
-5.7283754 5.5880585 5.494817
-5.0666246 6.6079764 -3.008125
-5.6233816 6.1436276 -2.4954371
-5.71571 6.40545 6.432992
-5.043509 7.3435955 -2.9486117
-5.5003085 7.4364295 -2.4259892
-5.3969517 7.0804453 6.237047
-4.8289137 7.9110913 -2.9228933
-5.1986623 8.231202 -2.1641338
-5.768496 8.481672 5.3699174
-4.5775495 8.77435 6.232068
-4.8207226 8.90885 8.50415
-4.760539 9.18671 9.100763
-4.9634356 8.957432 -1.4222969
-5.208378 9.599496 -0.33148283
-5.345438 9.097742 5.06778
-4.9356704 9.686306 7.6473308
-5.0213027 9.531996 8.647982
-4.8815904 9.610718 9.210494
-4.949565 10.195675 0.035631984
-5.3766522 10.398236 0.56352174
-5.5847435 10.556703 1.7515856
-5.629656 10.279381 3.7556674
-5.4418445 9.936622 4.263778
-4.6664276 10.402871 6.9428515
-4.9156094 10.42013 7.640488
-5.060403 10.282246 8.648641
-4.914567 10.635243 9.317912
-4.629406 10.8536825 9.816265
-4.924231 11.190869 0.73219436
-5.163015 11.014531 1.6049731
-5.481471 10.688712 2.1784039
-5.3670964 10.577317 2.9523392
-4.9764905 10.998215 8.055909
-4.781972 11.653369 8.847063
-4.8081717 11.447926 9.415514
-4.637135 11.581661 10.0403385
-4.624743 11.777943 1.8351239
-4.5653286 11.860272 7.807973
-4.7070274 12.027694 8.685561
-4.691307 12.076298 9.458552
-4.55993 12.009347 10.017044
-5.148664 14.046348 1.5059481
-5.2813177 14.016797 3.4944873
-4.982087 14.02748 3.924689
-5.278378 14.722225 1.0713034
-5.699862 14.298119 1.6584158
-5.4638033 14.559921 4.5697937
-5.5258384 15.143221 5.0757833
-5.480416 15.19557 1.15907
-5.4383855 15.646638 5.4122524
-5.365947 15.916533 5.835879
-4.7246165 16.084318 0.7697686
-5.1994925 16.249544 1.4369173
-5.3315516 16.464535 5.894328
-5.2512846 17.031069 2.5989869
-5.247917 17.27788 3.3712077
-5.5993404 17.25153 5.25597
-4.979061 17.121243 6.001279
-4.9109044 17.834412 4.510478
-5.6333504 20.104364 3.8286097
-5.2058716 19.888758 5.019118
-5.0020547 21.12233 2.414655
-5.072334 20.56236 3.4692416
-4.686659 21.984676 -4.430594
[...]
POINT_DATA 7728
SCALARS features_00 float 1
LOOKUP_TABLE default
0.5136882 0.64224094 0.75847435 0.8051125 0.56561726 0.74857986 0.82510215 0.8162209 0.56483215 0.70024997 0.754902 0.77813673 0.6567558 0.7061366 0.71835047 0.8081536 0.8208214 0.39850286 0.36503977 0.27180532 0.34659213 0.39772066 0.5429318 0.59685004 0.31104487 0.22897066 0.3583801 0.4046634 0.50462246 0.73007655 0.662723 0.25738186 0.23897047 0.32339677 0.7217282 0.26183864 0.3316884 0.44918644 0.73600554 0.7477951 0.29811895 0.42171445 0.55620426 0.64448637 0.6810336 0.34381688 0.74646306 0.74007356 0.7291752 0.71470964 0.68487346 0.70700264 0.68848884 0.6663265 0.6796237 0.7511239 0.7759533 0.6686549 0.77461475 0.8212084 0.8140366 0.6503337 0.7686615 0.83719295 0.8332815 0.6396418 0.737089 0.8088081 0.81915087 0.73725617 0.5350289 0.5105208 0.44760555 0.45569432 0.4094831 0.353579 0.43576133 0.42822555 0.37613535 0.34479457 0.27174258 0.429022 0.4206169 0.38763374 0.25827104 0.15734088 0.32975048 0.43547752 0.41488177 0.31065726 0.22361636 0.17944267 0.302382 0.33259448 0.5372164 0.5698971 0.42572892 0.3781948 0.3301081 0.5802939 0.38806206 0.3399049 0.27622402 0.50258636 0.30374697 0.2579319 0.25429425 0.21875963 0.24368398 0.24554427 0.4064505 0.40957987 0.21775354 0.27678084 0.31464055 0.43667543 0.5888489 0.7052645 0.7404549 0.6786335 0.73670125 0.74325395 0.6970427 0.55900156 0.66688836 0.714512 0.64992774 0.58377105 0.64719105 0.6952469 0.662883 0.64581054 0.5301478 0.6255536 0.5604763 0.44601104 0.64529085 0.70614874 0.686507 0.5280488 0.62556607 0.7174617 0.75406796 0.51571834 0.58807 0.767712 0.4526875 0.54095197 0.78502035 0.28991562 0.499026 0.7823982 0.535536 0.73382854 0.5601024 0.58440006 0.6060993 0.5060984 0.5671968 0.6076521 0.6327997 0.6492842 0.5899739 0.64858276 0.6578296 0.6307639 0.45996624 0.45254448 0.43877757 0.46888644 0.6122186 0.61668384 0.5472209 0.47066277 0.43487108 0.45945367 0.46900618 0.44967055 0.36154908 0.4591334 0.51687473 0.44573063 0.39588678 0.40926027 0.40964115 0.44267118 0.44794405 0.3905016 0.29973587 0.336754 0.31079742 0.33156127 0.33334386 0.35494265 0.3816769 0.31402433 0.20894136 0.28515717 0.45714527 0.45611632 0.43319118 0.38499805 0.2330158 0.28090093 0.2663513 0.23430514 0.14719827 0.28395328 0.45764607 0.44933486 0.3948448 0.20181538 0.18611811 0.44022906 0.350076 0.20639172 0.33066738 0.32373667 0.42436543 0.40906715 0.37677738 0.46893477 0.4462227 0.41344523 0.382023 0.6800158 0.44028008 0.42396054 0.4160174 0.6535604 0.6691832 0.6543802 0.5292127 0.4180325 0.40587407 0.5841332 0.59390324 0.5985614 0.5611367 0.49319917 0.5243358 0.52349937 0.5127652 0.33473822 0.25654304 0.7008654 0.65299773 0.6036606 0.45692024 0.76372457 0.7355697 0.6607688 0.3653051 0.4105516 0.038801238 -0.096009046 0.003300462 0.24166378 0.77134836 0.75998557 0.730723 0.40000004 0.42679185 0.11210549 0.36044377 0.41092265 0.42846638 0.3878351 0.39612317 0.39316052 0.29737723 0.3653611 0.32120693 0.38737 -0.07203016 0.34670475 0.33171272 0.18279025 0.15462112 0.2071422 0.39452338 0.42290074 0.38879782 0.13027567 0.17810933 0.22738911 0.320329 0.28840822 0.28147298 0.40404698 0.49034834 0.48069584 0.44248557 0.11041026 0.17725943 0.24442226 0.27988875 0.4549117 0.4718008 0.47453994 0.4340751 0.056142688 0.3714152 0.4495303 0.44924435 0.42205936 0.4145501 0.5577421 0.40508977 0.43157947 0.547091 0.56327873 0.5698074 0.49609506 0.5241171 0.44083282 0.3305842 0.47472072 0.39285254 0.48713964 0.5150856 0.45290807 0.28428766 0.5191644 0.5255428 0.55674684 0.33593634 0.38697544 0.47210783 0.4454577 0.560591 0.5742436 0.5676075 0.36722842 0.68359685 0.6321657 0.62362075 0.2618754 0.6391567 0.18720214 0.17601134 0.21298063 0.25721535 0.5855425 0.08550004 0.070099995 0.06947897 0.20842186 0.28293273 0.31208563 0.31740856 0.24984798 0.25547224 0.27475056 0.28793657 0.25874862 0.26912087 0.24861552 0.21916056 0.2452986 0.2550897 0.2671963 0.20796973 0.18156235 0.17676798 0.15284878 0.7105391 0.6965544 0.64652014 0.59491754 0.67360973 0.73740536 0.7470423 0.6762834 0.60591584 0.6338505 0.69514036 0.720865 0.6460074 0.5697388 0.58949924 0.5857325 0.57555485 0.5419831 0.5350665 0.5357083 0.5254908 0.5145635 0.44012314 0.53459257 0.55497146 0.5864974 0.45948395 0.52017474 0.6074527 0.61630476 0.6388738 0.622327 0.3801404 0.40676427 0.35939297 0.6270758 0.5587835 0.61609346 0.60896957 0.44399053 0.44239897 0.43460968 0.42939663 0.37122697 -0.061062813 0.24220295 0.46655646 0.58832896 0.46055585 0.38828862 0.44374973 0.31239718 0.19662017 0.14218079 0.24005914 0.35686994 0.33612907 0.3880412 0.39184994 0.338435 0.3209694 0.3919427 0.2527627 0.18989432 0.22929284 0.30812702 0.32165867 0.399888 0.4067242 0.20929565 0.28366935 0.2283614 0.10789472 0.24369906 0.27441323 0.2686008 0.42088485 0.44336694 0.44555205 0.41126162 0.3018096 0.14701462 0.19506902 0.22276172 0.10345233 0.0794289 0.10416319 0.20268384 0.24372423 0.2822505 0.22818628 0.42186362 0.44358885 0.23833527 -0.037993457 0.11877197 0.13099629 0.1577064 0.08717796 0.075908214 0.15018842 0.23216122 0.27590087 0.27836776 0.22696766 0.18384162 0.3789391 0.41723743 0.4260189 0.17740512 0.06537141 0.14965999 0.10667832 0.03420176 0.09590946 0.15242778 0.19804229 0.22335349 0.26969352 0.23024836 0.29629764 0.19429271 0.025078703 -0.015367672 0.05440344 0.162698 0.16541396 0.1699225 0.30353397 0.36085242 0.28385755 0.37177962 0.45130208 0.3931691 0.3514146 0.6932597 0.67915016 0.6231123 0.38268307 0.3969558 0.37792423 0.29201266 0.4086575 0.6329893 0.6627139 0.6848134 0.5055069 0.3498664 0.37858027 0.36668187 0.3450917 0.28930262 0.3658486 0.34424254 0.59235066 0.62737584 0.3709504 0.3147934 0.34714556 0.2543238 0.54500246 0.5729778 0.4237625 0.4327774 0.3428473 0.29640046 0.52680874 0.19057973 0.6875145 0.6714683 0.62675333 0.5921987 0.51087207 0.39645064 0.460658 -0.05606409 0.060656864 0.72334003 0.7512189 0.76325715 0.62716377 0.38382772 0.269626 0.3363144 -0.17978552 -0.067461394 -0.10630405 -0.02655521 0.116866276 0.12176233 0.7039162 0.74803007 0.7547784 0.70776343 0.60294145 0.38357234 0.11386339 0.69715667 0.71044314 0.40218806 0.029222354 0.03975872 -0.0034206323 0.39133042 0.38296774 -0.050476238 0.013413716 0.3508898 0.28374827 0.15419643 0.2849359 0.24873434 0.19508183 0.18041335 -0.013267763 0.20569658 0.26887107 0.32711184 0.30465162 0.044813026 0.030110354 0.3820892 -0.070030734 0.15689702 0.1420933 0.17824927 0.30655858 0.40205678 0.33415982 -0.031533554 -0.11574917 0.07156131 0.05173275 0.19115756 0.41999155 0.39013305 0.30730736 0.041126657 0.03499505 0.21760143 0.32099044 0.31860602 0.37408325 0.39393437 0.32894385 0.14834914 0.07356856 0.054652765 0.31832188 0.39284438 0.0721162 0.17580521 0.14362605 0.15925136 0.21615556 0.2370511 0.2130945 0.47218004 0.4590284 0.34595418 0.12865293 0.23298678 0.38160816 0.06643281 -0.022592992 0.10318911 0.19666943 0.48617113 0.4355091 0.37351763 0.22555074 0.30868226 0.13111329 -0.055112116 0.00816042 0.48678523 0.43840638 0.3393009 0.1518132 0.3610556 0.4123942 -0.07689304 -0.065987475 -0.015356892 0.26929072 0.084744945 0.10128226 0.07341339 0.35044792 0.13766995 -0.041705303 0.02879788 0.1643358 0.23611683 0.1534809 0.100525334 0.21668361 -0.1320976 0.047477335 0.47646326 0.39561412 0.3842919 0.36344624 0.28749183 0.25742817 0.561314 0.5839959 0.5457456 0.34814444 0.089067146 0.3289293 0.625409 0.6402435 0.6444768 0.60466856 0.5651591 0.41708595 0.106623664 0.18384404 0.51891863 0.649461 0.63850737 0.6183833 0.5894263 0.15306571 0.116816804 0.3127133 0.34093833 0.31148952 0.6257982 0.60911596 0.07850608 0.07032977 0.06426225 0.10708025 0.33936173 0.31976342 0.28950495 0.06949409 0.07090393 0.24195108 0.24845481 0.26101515 0.2652504 0.10864912 0.10542195 0.16896614 0.24090752 0.16140598 0.1341084 0.2101852 0.24737483 0.26440865 0.24965665 0.16337049 0.1579938 0.13668136 0.22575936 0.2478309 0.15181832 0.14916089 0.16014963 0.19308332 0.2971848 0.21488973 0.25132698 0.20626393 0.19902965 0.29072222 0.32823113 0.32486296 0.29840648 0.34060735 0.32994404 0.30022115 0.2631897 0.28304136 0.3204583 0.30017006 0.36478558 0.33410132 0.29493454 0.2523746 0.24706215 0.24596912 0.2545056 0.3065099 0.27620715 0.57219404 0.6193217 0.62113225 0.6422858 0.65353346 0.59645784 0.54201525 0.5925813 0.5527619 0.49772015 0.6579201 0.68990964 0.51354307 0.50723124 0.46715713 0.7147256 0.70625365 0.7329538 0.51837337 0.5164835 0.49881846 0.47006854 0.7308542 0.7486588 0.75764155 0.7516817 0.4690987 0.48641682 0.5119636 0.5073471 0.5042716 0.48708624 0.4674067 0.73955303 0.73864365 0.7347262 0.47269833 0.49357873 0.49380085 0.4889576 0.22422299 0.27702323 0.17405577 0.25768232 0.45721227 0.47828108 0.5372951 0.64610684 0.64641476 0.62959886 0.5498409 0.6680455 0.6519492 0.6288862 0.608671 0.47607476 0.4896294 0.30940044 0.26508635 0.07360818 0.65293485 0.63860476 0.58292115 0.555279 0.43157318 0.45951414 0.48721159 0.4917079 0.45089653 0.35552073 0.40480012 0.16868998 0.5724673 0.5891679 0.5702284 0.5422505 0.5229089 0.40878725 0.4447893 0.46388668 0.15847632 0.3500228 0.47604102 0.43787926 0.489133 0.33920065 0.3899206 0.35932449 0.37432766 0.29410797 0.36983484 -0.23396975 0.023873735 0.17099652 0.08451997 0.36128765 0.38729143 -0.22763556 0.15032195 0.11392213 0.050897084 0.35018 -0.10012298 -0.13324179 0.0007318235 0.14908578 0.16954058 0.1208456 0.08992064 0.107799076 -0.08176544 -0.0455767 -0.0460573 0.020923685 0.14560547 0.12324518 0.09381616 0.00067567825 0.083452836 0.11116938 -0.04122557 -0.0011632349 0.062356547 0.09102695 0.08449994 0.08941666 0.34284908 0.2940368 0.18513393 0.2205446 -0.0201012 0.25476044 0.23665991 0.28029644 0.26710165 0.14443798 0.08383004 0.6890749 0.6581639 0.36731723 0.24814291 0.12818724 0.11942059 0.14530328 0.4054607 0.4443786 0.42255998 0.3834353 0.2643555 0.27060214 0.6249012 0.6699031 -0.019029133 0.21720526 0.5739931 0.5412862 0.4031195 0.35252243 0.3342054 0.33582723 0.32137385 0.23988862 0.58480084 -0.053824604 0.28036132 0.2366698 0.20232813 0.11649939 0.6057701 0.57350755 0.59763753 0.4722008 0.42218727 0.4022262 0.26727983 0.25959766 0.29952055 0.487967 -0.2938528 -0.25907677 -0.28714067 0.02045156 0.09355962 0.12166578 0.307688 0.24714825 0.28079802 0.31409237 0.3515945 0.39187765 -0.18029748 -0.006221816 -0.008306183 0.048974372 0.02627699 0.66243124 0.21203718 0.28334615 0.33106184 0.36088955 0.20416024 0.6304858 0.5982264 0.5622014 0.29623032 0.32687965 0.35832572 0.36306453 0.37911505 0.31994748 0.0033751037 -0.11927507 0.47449332 0.52318347 0.6074749 0.6468386 0.55822647 0.35680676 0.36697128 0.3805353 0.38032693 -0.09181672 -0.13965699 0.33017862 0.43587637 0.5785327 0.6216273 0.3864914 0.3920018 0.38906467 0.37096974 -0.014897399 0.23812054 0.5196192 0.5939402 0.60689735 0.34026384 0.097226955 0.050552845 0.45709622 0.5283941 0.50703603 0.22086218 0.14495447 0.26581824 0.40960532 -0.09905906 -0.13128085 0.093526244 0.11210467 0.27744067 0.66977227 0.7511208 -0.08925054 -0.04000964 -0.68460023 -0.029620804 0.2275826 0.6005248 0.7038474 0.8065123 0.8577114 0.19219203 0.05238222 0.018224455 -0.38997084 -0.12971374 0.07734174 0.23993361 0.64196694 0.73376566 0.83516425 0.87564254 0.2563029 0.22571295 0.14850482 -0.1733295 -0.5101248 0.06699209 0.20017545 0.21461801 0.74705774 0.8299177 0.8689369 0.29276565 0.28877258 0.11790081 0.12796947 0.36336666 0.29818863 0.26474968 0.23367849 0.02576074 -0.016368434 0.016880393 0.18129094 0.16605356 0.5465226 0.5001548 0.43953073 0.33162335 0.2295705 0.049630694 -0.06637338 -0.121532515 0.031108081 0.20387377 0.178782 0.55999625 0.52049136 0.31182784 -0.034919247 0.07434736 0.10813706 0.17888698 0.01147335 0.17544997 0.32368103 0.38998204 0.5144955 0.46409184 0.010291204 -0.07760099 0.24646938 0.3950851 0.4339079 0.47570598 0.42290092 0.053549506 0.034557953 0.048314176 -0.01996494 0.14577521 -0.09286848 0.10513376 0.3018155 0.4153043 0.4514851 0.24947745 0.087482385 0.07736285 -0.01905508 0.16356671 0.1710463 0.17809296 0.050856285 0.07288239 0.4157339 0.50072026 0.45071477 0.11220446 0.051303327 0.5777019 -0.25276187 -0.1149121 0.6357635 0.6495929 0.060255624 0.124790154 0.22345468 0.28597575 0.24628836 0.2594099 0.3357459 0.68451214 0.6670191 0.5983231 0.5614692 0.08320879 0.10062572 0.27666917 0.29719844 0.64718485 0.6162981 0.5951283 0.063653804 0.26474357 0.20865694 0.11216152 0.10904073 0.19245103 0.22185731 0.19413981 0.2882464 0.20382327 0.1613462 0.18960014 0.11536446 0.21005353 0.27092463 0.23900723 0.19379441 0.16839509 0.21071383 0.19104269 0.2040306 0.28818142 0.29579937 0.31803852 0.32482344 0.22015372 0.28859407 0.28024614 0.30605558 0.27048355 0.2305758 0.23939055 0.45878014 0.3904497 0.19273664 0.22633582 0.18055296 0.16895312 0.5272233 0.49496624 0.22475669 0.099391304 0.17473766 0.191015 0.18021028 0.1377081 0.5580288 0.5075765 0.4545356 0.32536033 0.24975592 0.19837302 0.19247058 0.4106992 0.5300852 0.47239107 0.40361828 0.33555427 0.2600845 0.3294063 0.42924082 0.41834384 0.3786503 0.33121997 0.48410228 0.40505004 0.3960205 0.46391773 0.49600184 0.4587773 0.37582234 0.2401203 0.410008 0.5721683 0.6231148 0.63745666 0.6225815 0.23334843 0.3464673 0.4036795 0.67092687 0.70269006 0.73005176 0.43548742 0.71857595 0.73848677 0.35690504 0.44193593 0.4137252 0.71675813 0.72489 0.6923174 0.69131374 0.4232193 0.45118248 0.45684677 0.43019345 0.6515027 0.6608744 0.6404123 0.39810848 0.37328202 0.18489623 0.5278914 0.32981807 0.38036817 0.09453939 0.6157632 0.5981729 0.57050544 0.5101603 0.5001154 0.2210393 0.28917468 0.43785638 0.37838426 0.66653526 0.5355452 0.4621009 0.46155316 0.48079708 0.46459123 0.29341826 0.05790881 0.16344711 0.6213137 0.43515715 0.420753 0.46048295 0.37419882 0.09220933 0.6041861 0.4849025 0.24963024 0.18834487 0.48811948 0.40605986 0.3613381 0.2529662 0.28383934 0.24529007 0.22204435 0.2643243 0.2759928 0.15059564 0.07724146 0.085844 0.2907757 0.07040074 0.11713475 0.16378562 0.13932517 0.09257305 0.25132576 0.031697735 0.0432794 0.141426 0.16292055 0.16760188 0.22290297 0.017942972 0.074129835 0.020494469 0.05541242 0.08912334 0.14567152 0.15255232 -0.00990323 0.05876754 -0.021155812 0.06749006 0.08290927 0.09739424 0.11373539 0.37682736 0.34071255 0.07341399 0.031493455 -0.003239289 -0.0001463294 0.09745092 0.0980091 0.09076647 0.4006382 0.09065784 0.06027064 0.037367385 0.055681847 0.106918246 0.0881461 -0.13145262 0.12712365 0.07170446 0.1823837 0.21783666 0.07663499 0.5383842 0.54584676 0.025073979 0.15217414 0.054083973 0.46042067 0.4260877 0.24931942 0.1136866 0.28434175 0.19740923 0.12476574 0.168553 0.5267997 -0.22570506 0.120921716 0.52914727 0.57596475 0.54751766 0.50834036 0.32491195 0.44553244 0.31461284 0.33059898 0.40357748 0.061575342 -0.0076910295 0.5607394 0.35975456 0.24054503 -0.0061757043 0.43243998 0.35073778 0.38390976 0.42879516 0.22971843 0.15338457 -0.042557627 -0.09352085 0.24079473 0.38372377 0.43006444 0.38369435 0.45725343 0.4751412 0.31700736 0.28409642 -0.15886095 -0.22979417 0.24840823 0.36047596 0.53306615 0.532807 0.31094655 0.43286186 0.39713556 0.3125468 0.32379368 0.38587332 0.41789585 0.47241426 0.368722 -0.17095822 0.11315563 0.61284745 0.5865914 0.38997537 0.39894703 0.45406199 0.48204833 0.49936497 0.33878914 0.5601629 0.5540515 0.47299612 0.515708 0.52923536 0.54950976 0.48696384 0.48551822 0.54648465 0.5598229 0.3766058 0.41445038 0.14126842 0.30464935 0.40048483 0.5411792 0.71346897 0.7798116 -0.076929584 -0.58940375 0.095687285 0.07182146 0.46195537 0.5307455 0.59084 0.84654367 0.21529901 0.18736172 0.06972286 -0.68453234 0.55099905 0.62119865 0.8757496 0.8618603 0.26451206 0.23770407 -0.35301036 -0.4101829 0.09157629 0.70878136 0.69044757 0.72777504 0.80962014 0.84678483 0.3159489 0.29263902 0.12371166 0.11403832 0.7271253 0.71294755 0.46258914 0.362184 0.15256427 0.112930074 0.5656136 0.49356169 -0.166055 0.1568301 0.5739262 0.56868494 -0.018400237 0.38646472 0.42731088 0.53028756 -0.035813596 -0.14746448 -0.014174655 -0.037977174 -0.07077232 -0.21406311 0.47178626 0.47264448 0.40706268 0.45763966 0.48348278 0.5026015 0.108813316 0.3439893 0.45099187 0.43109846 -0.08727655 0.2840016 0.5053451 0.54771274 0.054346915 0.15675461 0.27044603 0.36467788 0.3935231 0.55894077 0.6310007 0.3531502 0.40539604 0.40753943 0.6766409 0.69167644 0.45499176 0.43952656 -0.03923264 0.31518573 0.38453448 0.3921103 0.6845438 0.58875465 0.5380148 -0.032368556 0.2594792 0.2264712 0.22067001 0.29707968 0.19878122 0.2755518 0.33055037 0.32667065 0.20066315 0.32101622 0.38423708 0.3362307 0.33034483 0.27128455 0.33791363 0.3853652 0.24732143 0.20872733 0.17621556 0.32186693 0.33909068 0.247663 0.13861999 0.08867594 0.50900316 0.11467133 0.06593715 0.10267209 0.12833817 0.16744938 0.14576423 0.1336756 0.24405986 0.1920217 0.29696754 0.17053129 0.20852321 0.37482098 0.47325525 0.29134342 0.2599418 0.4139771 0.39476764 0.35216647 0.2949576 0.44431174 0.2905455 0.23556799 0.2920703 0.3893626 0.48245794 0.2256507 0.22258016 0.2656803 0.43704706 0.43097925 0.33823374 0.23096935 0.28112483 0.588992 0.39740437 0.33100766 0.365242 0.18990177 0.66835994 0.64486444 0.3833949 0.32996914 0.32153225 0.34941626 0.7061096 0.6618104 0.34259364 0.2788871 0.08757302 0.34423316 0.28792635 0.38960433 0.42343813 0.421377 0.41669345 0.5539684 0.55958295 0.63640714 0.59588623 0.2437075 0.09952462 0.3062237 0.25698787 0.3851056 0.31720448 0.34630924 0.316441 0.25899887 0.3145432 0.34717882 0.38434377 0.46982297 0.54832006 0.59951776 0.6171899 0.58077574 0.59357524 0.58205056 0.29749125 0.32684088 0.35950294 0.38313904 0.5040647 0.63435686 0.6597862 0.33209395 0.5030601 0.64786595 0.6589825 0.75246274 0.7908221 0.28533995 0.3651705 0.42279503 0.4493274 0.346066 0.30848825 0.25309682 0.2312291 0.32654622 0.38416365 0.4045719 0.4596544 0.3523103 0.3724323 0.2848043 0.31227905 0.3491451 0.4621143 0.41703814 0.43287915 0.16991922 0.32596523 0.080660395 0.14860794 0.5011121 0.50023556 0.46060625 0.41688907 0.1551625 0.023247674 0.057262663 0.4721412 0.5575381 0.39027128 0.40211362 0.4219646 0.4401275 0.3538465 0.3081 0.22345544 -0.0027276352 -0.2013529 0.40125477 0.36350346 0.3375616 0.38579947 -0.04022745 -0.09857635 0.57272565 0.3320461 0.26630378 -0.13530496 -0.2843362 0.17635107 -0.061408266 0.14461897 0.025680909 0.13639307 0.1679972 0.15662712 0.07829589 0.15987155 0.16356969 0.11886634 0.15198818 0.099571005 0.11511458 0.09917019 0.1303477 0.053571217 -0.18155172 -0.14419737 0.021211274 0.2677496 -0.107163146 -0.13819456 0.08038143 0.06101224 0.22838601 -0.28680953 -0.17319688 -0.069949925 0.092871584 0.08225307 -0.015799945 0.043439217 0.09097955 -0.19928893 0.37924504 0.21640131 0.44322336 0.41849208 0.23030888 -0.09373778 0.4097103 0.49584225 -0.1174573 0.30198738 0.52262414 0.36669132 0.39034772 -0.08602138 0.21957834 0.098302096 0.41667956 0.4361639 0.23339608 -0.20674866 0.28749484 0.09193663 0.4883402 0.24708942 0.22176339 0.27762648 0.19286865 0.014749188 0.49084568 0.2771113 0.28863397 0.463495 0.5281574 0.51006204 0.2261665 0.5620152 0.5436787 0.42206126 0.4569283 0.08232037 0.5235704 0.5725381 0.6059049 0.6112951 0.05295116 0.37241304 0.31932247 0.08453335 0.16121814 0.238971 0.38424104 0.41703117 -0.24000175 0.2291846 0.27097028 0.17827299 0.25198627 0.3023683 0.6956166 -0.09894971 -0.04675942 0.10279844 0.16744408 0.3336202 0.37517738 0.80598116 0.19819532 0.12949006 0.11550294 0.020531781 0.48138964 0.7754692 0.7837117 0.22574976 -0.08113889 0.68068904 0.7660197 0.28797433 -0.00022954494 0.73121154 0.73148155 0.7096039 0.6924118 0.7027971 0.5562098 0.41571218 0.0044264942 0.60026747 0.578951 0.2117539 0.27646405 0.58514905 0.5535458 0.41444635 0.5574944 0.5284841 0.5037464 0.5313648 0.41386768 0.51731354 0.19954988 0.40532798 0.3455656 0.466605 0.42413557 0.38495523 0.37582844 0.5378233 0.57194936 0.39357293 0.639857 0.36735678 -0.13693222 0.38487184 0.6723529 0.6269087 0.5121863 0.49707893 -0.1428003 0.30372643 0.10596485 0.14408049 0.067573085 0.20786142 0.29720795 0.29978317 0.34368902 0.29373053 0.40812695 0.4521315 0.30060923 0.47682244 0.5531107 0.25040364 0.063966855 0.4436049 0.13626505 0.069908544