# vtk DataFile Version 2.0
Really cool data
ASCII
DATASET POLYDATA
POINTS 4736 float
34.353905 36.779816 -3.2169237
34.356102 36.865288 -2.596988
34.344494 37.56459 -3.2478712
34.299667 37.393974 -2.6751356
34.406513 37.449913 -2.1309633
34.382935 37.89664 -2.6300845
35.298717 35.177914 -3.5256107
35.324116 35.31084 -2.8957555
35.39978 35.713272 -4.870001
35.17938 35.72169 -4.3479505
35.041714 35.530254 -3.1314583
35.028294 35.69846 -2.8364375
35.35082 35.914745 0.53081125
35.38203 36.104763 -4.7756186
34.774532 36.75128 -4.0414195
34.506516 36.615524 -3.44117
34.546696 36.489502 -2.4856505
35.182457 36.533623 -1.5071266
35.358395 36.40972 0.5720537
34.962643 37.414448 -4.314748
34.480564 37.387802 -3.6252308
34.732464 37.513805 -1.8250383
34.917366 38.143215 -3.8919635
34.53222 38.02133 -3.401445
34.582375 38.177776 -2.5996928
35.217705 38.973843 -3.1682668
35.381676 41.074596 -1.8124338
35.147957 41.73419 -3.1688654
35.036987 41.82865 -2.5726275
35.090862 41.954376 -1.6532551
35.16793 42.43276 -3.4672532
34.891136 42.613632 -2.4007382
34.9734 42.67766 -1.843503
35.152752 42.70656 -1.2185541
35.204094 43.271282 -3.2277884
35.070095 43.369244 -2.5487804
35.078896 43.307785 -1.7159735
35.26225 43.08407 -1.1549145
35.235397 43.744846 -2.4863722
35.23766 43.72613 -1.886282
36.333973 30.192823 -9.414492
36.27102 30.774866 -9.986189
36.152966 30.691092 -9.479547
36.208954 30.688799 -8.639329
36.30762 30.973295 -7.8583603
36.18038 31.594923 -10.174326
36.01818 31.528053 -9.498021
36.088234 31.448895 -8.650991
36.3135 31.400612 -7.4276304
36.432438 31.620655 -6.924292
36.23807 32.270107 -10.066053
36.149998 32.283245 -9.600578
36.19276 32.084408 -8.326279
36.398487 32.492706 -7.6161375
36.429382 32.821163 -7.925821
35.813187 34.96892 -4.9602356
35.636868 34.913593 -4.301035
35.522396 34.899357 -3.6022723
35.83036 34.94146 -2.7625666
36.01519 35.009205 -1.8456278
35.731525 34.92365 0.019491564
35.881535 34.85965 0.50663173
35.9736 34.966625 1.131389
35.642925 35.849804 -0.967012
35.648617 35.552967 -0.8603499
35.568577 35.43575 0.6548208
35.79677 35.618126 1.1873626
36.13991 35.80514 1.729167
36.337166 36.56941 -5.805023
35.72994 36.349667 -5.2122493
35.772617 36.361977 1.2491595
36.285732 36.40313 1.6371459
35.837353 37.206997 -5.1175246
35.494743 37.08817 0.61159384
35.813026 37.115402 1.0074004
36.03506 38.232635 -5.023645
35.36283 38.202415 -4.41106
35.952507 38.127975 0.17159273
36.156284 39.40354 -4.1097326
35.619217 39.178707 -3.5217795
35.612732 39.05201 -1.6208916
36.08465 39.26167 -1.1103034
35.85311 40.845192 -3.3345919
35.490116 40.94912 -1.6237596
35.879124 40.850716 -0.53000915
36.165436 40.736588 -0.0056506693
35.661724 41.66448 -3.8086705
35.48509 41.107975 -1.2971678
35.43973 42.347027 -3.7935677
35.54332 42.252888 -0.7535697
35.94147 43.305347 -3.9528222
35.4548 43.31061 -3.6039202
35.77253 43.460365 -0.93466
35.821037 44.047005 -3.317855
35.85752 44.245247 -2.5221126
35.551052 43.942806 -1.6398
37.12487 29.459753 -9.172122
36.6595 30.164196 -10.071707
36.80335 29.77063 -9.431234
36.653854 29.87522 -8.86123
36.96218 30.083857 -7.778988
37.139603 30.38081 -10.881606
36.61811 30.516895 -10.305536
36.481125 30.475227 -8.190546
36.69697 30.496376 -7.721888
36.79853 30.919725 -6.5983315
36.73357 31.483437 -10.883967
36.468987 31.911814 -10.607942
36.519115 31.639988 -6.7523856
36.95706 31.243923 -6.2089214
36.54779 32.119465 -10.758258
36.498676 32.4509 -10.353055
36.638653 32.630875 -6.87287
37.320217 32.374165 -5.69033
37.191605 33.0156 -10.9472475
37.159763 33.322918 -10.751691
36.731213 33.243877 -9.335668
36.772392 33.225147 -8.616618
37.144936 33.695408 -7.258971
37.051815 33.528057 -7.0137067
36.72747 34.252705 -3.7055657
36.582844 34.319912 -0.22495568
36.573086 34.297962 0.5730259
36.75324 34.30204 1.0199015
37.0687 34.40292 -7.1694217
37.069054 34.5158 -6.50703
36.301495 34.780605 -2.5254025
36.58553 34.71221 -1.7796093
36.408176 34.682476 1.2294632
36.49437 35.02737 1.6902955
37.096405 35.641296 -7.19579
36.610035 35.828426 1.9508275
37.10026 36.349197 -6.786019
36.71278 36.794624 -6.304059
36.78228 37.371468 -6.198933
37.051353 37.521576 2.0381641
36.925438 38.03199 -5.901811
36.75779 38.245197 1.2696224
37.111855 38.6917 1.7399648
36.312912 38.880264 -4.7448
36.39174 39.30171 -4.4670625
36.57303 39.329723 0.50734633
37.12944 39.657997 1.3891659
36.498882 40.55803 0.5527099
36.87914 41.708977 -4.324824
37.121014 41.823425 0.69417715
36.491886 42.751568 -4.238948
37.022682 42.395138 0.45539308
36.54334 43.358894 -4.251526
36.79389 43.490124 -0.2464397
36.45561 43.95784 -3.9542885
36.416096 44.33054 -3.5252755
36.502155 44.496273 -1.9896377
36.759163 44.222626 -0.89572567
37.24092 44.15508 -0.1831748
36.938107 44.527714 -3.016227
36.599197 44.567276 -1.9059902
37.4643 50.588886 0.82335746
37.400497 50.770462 1.3264841
37.43727 51.09903 1.4067011
37.55573 29.416605 -8.796972
38.340157 30.017963 -13.314639
37.805634 30.015997 -10.940883
37.57985 29.686342 -10.419382
37.332798 29.533524 -8.766595
37.49738 29.72619 -8.102155
37.687355 30.084827 -6.660866
38.380894 30.822115 -13.810615
38.223785 30.924875 -13.558686
37.92198 30.53127 -12.081705
37.37804 30.53021 -6.303428
37.695038 30.656326 -6.157693
38.275124 31.637383 -13.785535
38.080544 31.54001 -13.311371
37.75384 31.642439 -12.225948
37.66319 31.349419 -5.7309175
38.07905 32.04417 -13.1028595
38.077034 32.701134 -12.549985
37.733044 33.50312 -11.364426
37.478783 33.65492 -10.446005
37.97904 33.7651 -3.8093877
37.66005 34.314007 -0.39824793
37.109436 34.102127 0.19134814
38.057983 34.03279 -11.269194
37.791763 34.05826 -10.624332
38.04462 34.38286 -9.371209
37.521194 34.63783 -7.95427
37.465416 34.765934 1.8756175
38.248005 34.672825 -9.966962
37.60181 35.346344 -8.179332
38.18812 36.0983 -8.393222
37.526466 36.907024 2.5201693
37.99187 37.6774 -7.1431804
37.630623 37.753704 2.306861
38.405983 39.003872 -9.571421
37.9239 38.422615 -7.361343
37.765865 38.00416 2.3883953
38.406487 39.414658 -10.076956
38.344353 39.57515 -9.625902
37.595787 39.582745 -5.840786
37.731342 39.655746 1.9630673
38.416706 40.064526 -9.930595
38.43734 40.32159 -9.717483
38.452103 40.45471 -6.9389462
38.239822 40.273136 -6.52624
37.885788 40.149605 -5.869739
37.711727 40.53607 1.5714557
37.780098 40.235374 1.7576952
38.465397 42.66902 -7.5504684
38.344975 42.302567 -6.3567986
37.71246 42.66573 -4.720803
37.327686 42.461082 -4.3595386
37.321537 42.82461 0.44402087
37.79014 43.469505 0.40044653
37.809902 44.033367 0.26478806
37.959248 44.773567 -1.2936198
37.539276 44.754944 -1.0394316
38.050125 50.060066 -0.11115517
37.8024 50.09844 0.45343226
37.95208 49.68824 1.3551834
38.04195 49.96013 2.0592682
38.28864 50.85043 -0.84303737
38.018337 50.598125 -0.3555816
37.61792 50.53967 0.6953718
37.53098 50.474323 1.5967706
37.83005 50.663 2.1925406
38.19042 51.27467 -0.3440556
37.74829 51.367973 0.64478105
37.584526 51.388573 1.4305536
37.82134 51.239326 2.0514712
38.072502 51.806454 0.7103775
37.888992 51.757366 1.4212544
38.019814 51.712868 1.8663651
39.16963 29.0213 -13.771638
38.92876 29.02706 -13.29504
38.846382 28.920805 -12.559103
38.778774 29.116524 -11.458568
38.73775 29.197134 -9.8869705
38.721703 29.338139 -8.04456
38.89405 28.993364 -7.1610847
38.988415 28.858166 -6.4859223
39.13695 29.030851 -5.813456
39.035564 29.709518 -14.098932
38.67973 29.539019 -13.4142
38.4774 29.57928 -11.163606
38.408775 29.540789 -6.4670186
38.839405 29.709827 -5.769782
38.707153 30.776323 -14.147501
39.224472 30.292406 -5.206973
38.744728 31.58872 -14.247047
38.897552 32.075798 -14.164615
38.54166 32.397354 -13.638314
38.416443 32.8858 -4.4191823
39.225376 32.84971 4.527848
39.114746 32.79244 5.5001726
39.106472 32.900932 6.3027315
39.208145 32.9446 7.2652907
39.208668 33.094128 8.047143
38.903633 33.035866 -13.188687
38.394855 33.474136 -12.143035
38.27132 33.6934 -3.790789
38.377705 34.2892 -2.9624143
38.952236 34.087006 0.18516465
38.682957 33.79733 1.4008942
39.018707 33.452446 3.5742002
38.666477 33.575603 4.7310276
38.62345 33.680164 5.384007
38.885185 33.37731 6.339573
38.908897 33.559288 7.5590386
39.044678 33.56775 8.1951065
39.043877 33.930656 -12.251473
38.630154 34.136402 -11.651172
38.66511 34.48518 -1.2607802
38.60901 34.361504 4.8356447
38.654015 34.345516 5.4945536
38.937077 34.465927 6.7019506
38.951202 34.387863 7.5983324
39.13615 34.37454 8.243734
39.266075 34.176044 8.676471
38.78027 34.683876 -10.979965
38.67138 34.724403 -10.46835
38.700977 35.737316 -9.326394
39.10027 35.038246 3.2513578
39.238556 35.035046 5.643262
39.168163 34.790436 7.7331276
39.155766 34.737083 7.903221
39.14997 36.97359 -10.376422
38.8368 36.70932 -9.620129
38.444317 36.44381 2.6559246
39.189255 37.5859 -10.806052
38.92643 37.20583 -9.7824745
38.570427 37.73901 2.4996219
38.4025 37.684074 2.5197878
39.041756 38.848454 -10.906106
38.69672 38.619835 -10.389199
38.573444 38.310783 2.377307
38.95262 39.527237 -10.894509
38.570587 39.647697 -10.459189
38.51439 39.457153 -8.438787
38.33168 39.380283 2.2218924
39.025635 40.23101 -10.82322
38.71713 40.397068 -10.412319
38.51393 40.62386 -9.714381
38.19572 40.43989 1.6950219
38.990868 41.015472 -10.262603
38.806503 41.13766 -9.624241
38.769577 41.57748 -8.437392
38.9172 42.664894 -8.408127
38.649498 42.700832 -5.4806604
38.32754 42.11106 0.8053013
39.061447 43.30247 -8.196027
38.653255 43.322556 -7.356958
38.537006 43.537136 -6.7694845
38.52004 43.35641 -5.3222184
38.533592 43.52063 0.44519305
39.031647 43.96655 -7.1281133
39.072697 44.31004 -6.4331546
38.679577 44.185467 -5.364255
38.570473 44.363914 -4.0414596
38.12492 44.50603 -3.3862908
38.816505 44.264694 -0.0037727654
39.288002 45.19782 -4.6700416
38.632164 44.778374 -3.3422825
38.66178 45.122765 -2.5406709
38.420044 45.21898 -1.8581815
38.58458 44.887974 -0.83176005
39.383675 47.92084 -3.2089436
39.22683 47.81824 -1.5754431
39.324425 47.83949 -0.4708106
39.25227 48.20735 -2.2046957
39.02824 48.47805 -1.1741827
39.06951 48.584717 -0.6348217
38.653336 48.990116 0.62508494
[...]
POINT_DATA 4736
SCALARS features_00 float 1
LOOKUP_TABLE default
0.55079746 0.5282739 0.5453646 0.5469748 0.5142269 0.5367873 0.42754483 0.3644337 0.46033865 0.50394416 0.42593637 0.40872884 0.5222968 0.45877582 0.52716243 0.54805005 0.48588276 0.390287 0.49591362 0.46355617 0.5370519 0.4591928 0.45046085 0.51713085 0.5219815 0.40750337 0.41603202 0.6203215 0.6070576 0.52924895 0.6738938 0.6539131 0.6123694 0.5680684 0.7180946 0.7060201 0.6533117 0.6005391 0.7136677 0.6811466 0.5732565 0.573546 0.59553826 0.5831182 0.53891104 0.5433841 0.58447635 0.57708275 0.51254416 0.48689598 0.4794448 0.50787854 0.50093126 0.39194754 0.34243566 0.42464533 0.4592809 0.4009139 0.29841578 0.28983802 0.49489218 0.53532714 0.5585751 0.35841972 0.36875072 0.5389066 0.54533094 0.5366046 0.18084694 0.349092 0.50586224 0.4899876 0.30424082 0.42205903 0.435808 0.23439251 0.35595024 0.24945873 0.14811125 0.2852264 0.17745061 0.07959114 0.35413617 0.3603342 0.24130856 0.23692095 0.52895343 0.36009264 0.621389 0.46911603 0.6247678 0.69448245 0.61517984 0.7032362 0.6958127 0.6682695 0.4605832 0.53287923 0.5197942 0.54011655 0.45487553 0.4669202 0.53777474 0.5438529 0.49775428 0.4427306 0.46985736 0.47059956 0.47939146 0.41976506 0.4302463 0.42817676 0.37490934 0.40837514 0.298053 0.28786063 0.34353942 0.29398915 0.13844202 0.17567082 0.29417524 0.43394825 0.5165839 0.5369481 0.049487364 0.022438148 0.24199128 0.24976066 0.5623493 0.5607759 0.020542474 0.5245 0.016098179 0.08215634 0.09215563 0.37161818 0.089116976 0.33020875 0.35759106 0.18041895 0.12521487 0.19319613 0.32785836 0.26078394 0.34218603 0.35872948 0.4832063 0.4011855 0.51432896 0.52376646 0.5840591 0.6079727 0.5906277 0.5722909 0.557593 0.4896981 0.5696048 0.7726527 0.826282 0.8274982 0.3689539 0.5161605 0.38829508 0.40967923 0.42229825 0.38645607 0.32207647 0.54718816 0.51419437 0.40745193 0.35128886 0.3216014 0.5177877 0.4788587 0.3870223 0.29954392 0.43856227 0.32813564 0.23088154 0.24534425 -0.020239756 0.21818489 0.38756847 0.19140725 0.2032076 0.0803203 0.020426527 0.53849894 0.0953987 -0.04016184 -0.12130664 0.32320502 -0.0023997538 0.34094054 0.33484343 0.0015131161 0.34610602 0.41301525 0.38536322 0.0023114383 0.40700608 0.4335948 0.41788363 -0.0009000283 -0.028799744 -0.052809 0.367809 0.39244315 0.27352688 0.10220665 0.08656098 0.26969147 0.44045132 0.5047136 0.5538879 0.49785995 0.51557463 0.5978502 0.69024074 0.7542697 0.8452914 0.5631596 0.6181325 0.7538229 0.8452593 0.8722478 0.6303066 0.7434554 0.81621504 0.84467196 0.70996666 0.77746654 0.7972722 0.614643 0.5637974 0.46769047 0.32143733 0.20632982 0.23770872 0.33292228 0.38871872 0.41650864 0.621593 0.5610783 0.317956 0.32807267 0.35901088 0.58924925 0.3538292 0.569428 0.54335237 0.469041 -0.057969168 0.4045452 0.44649535 0.50739145 0.61736304 0.6923405 0.3446403 0.2171205 -0.04985217 -0.031460427 0.038252935 0.111772165 0.39957643 0.55146056 0.61136436 0.6044236 0.6847184 0.7035743 0.12198958 0.1446554 -0.06510356 0.65688556 0.69107366 0.6682955 0.6634388 0.6826819 0.7044703 0.1160495 0.11015203 -0.21307305 0.24245569 0.52040917 0.634471 0.64688367 0.1122058 -0.04199122 0.16841276 0.21854813 0.12756662 0.29230937 0.30014658 0.40311402 0.35765404 0.34021387 0.45398408 0.44479254 0.21099804 0.4298179 0.47534823 0.46493858 0.41870862 0.4138099 0.45471263 0.40458465 0.2434679 0.3129741 0.051367007 0.38882744 0.32037428 0.30567306 0.27997297 0.12323198 0.50713193 0.30722988 0.24428068 0.16915484 0.07571127 0.20706141 0.55018294 -0.0040714033 0.11395223 0.24946637 0.40036714 0.5561258 0.29886964 0.2964612 0.25870937 0.35075068 0.31380343 0.3262125 0.46163687 0.46951705 0.398143 0.37802988 0.42884374 0.4720384 0.7484665 0.46594325 0.8702425 0.48583943 0.6214508 0.8080528 0.8031151 0.5295371 0.6057406 0.68305707 0.74105406 0.55792755 0.48320162 0.3502676 0.36220506 0.4071105 0.4606765 0.6325434 0.5893873 0.42530942 0.15411116 0.20642477 0.32926288 0.40228033 0.46381688 0.4785296 0.6380264 0.6418922 0.43480587 0.46116197 0.6332637 0.63392365 0.61598164 0.28184542 0.29924577 0.33312607 0.3634721 0.3598979 0.59369767 0.57474184 0.54772985 0.013846096 0.21559371 0.3209082 0.3496498 0.3981552 0.43554538 0.70207775 0.732821 0.44998974 0.28163978 -0.11861818 -0.16532086 -0.038298316 0.014740723 0.026954146 0.7515192 0.77968156 0.02644099 0.6988078 0.7268899 -0.06709515 -0.05914361 0.05920185 0.30413318 0.47675508 0.5243757 0.59045494 0.6305844 0.6767756 0.036316093 0.23840584 0.19443364 0.32161784 0.45219913 0.4224246 0.47235245 0.43447745 0.4630443 0.4447915 0.22607683 0.3728559 0.27017042 0.35014307 0.28433737 0.28057307 0.44986743 0.279799 0.31112415 0.50262964 0.5096097 0.08896425 0.3602897 0.008742996 -0.12135544 0.25454503 0.15414923 0.20807675 0.24209285 0.1661391 0.17006707 0.2641402 0.33038276 0.31686813 0.32988507 0.30096555 0.265041 0.24659775 0.22649205 0.3623719 0.44686508 0.48798847 0.5128392 0.33152294 0.41165403 0.51606673 0.4089482 0.2582952 0.10603765 0.20936123 0.31164277 0.36810443 0.45627454 0.6066384 0.61280334 0.09844626 0.47211152 0.45760953 0.5979942 0.44126266 0.56102747 0.3581278 0.5934042 0.28737038 0.21005167 0.28750387 0.30217773 0.32828033 0.42850322 0.5582188 0.68998045 0.4815131 -0.011082193 0.0067349225 0.75980717 0.79539627 -0.18252146 -0.07684091 0.8089515 -0.037110914 -0.047102105 0.7614305 0.7919998 -0.065830976 0.18735036 0.4360472 0.5412113 0.6017077 0.7130779 -0.025407903 0.09427438 0.2746145 0.089786835 0.10333589 0.0032893158 0.1297035 0.33575657 0.10380486 0.32641232 0.3988793 0.14452642 0.36587477 0.3495922 0.10515424 0.17212003 0.22003992 0.19564086 0.35957754 0.18323216 0.11360537 0.46265215 0.057382807 0.09366742 0.09069062 0.23606169 0.26531032 0.10960024 0.13213585 0.27617043 0.21402979 0.082834624 0.60217714 0.19913422 0.5846106 0.33531192 0.30416417 0.1197813 0.25672138 0.27079764 0.19285601 0.033733606 0.14540349 0.37256557 0.42154133 0.42202508 0.5627104 0.44542673 0.41675156 0.41560823 0.52259475 0.3300209 0.5282641 0.2844381 0.29366574 0.50258684 0.016102001 0.16341484 0.27601326 0.27725953 0.28923762 0.3485242 0.3865121 0.5255306 0.71700937 0.4440782 -0.23012626 -0.12857716 0.84750783 0.21198961 -0.34025633 0.84669626 0.26699346 0.8175851 0.2517982 0.21367957 0.10022241 0.07998444 0.6374544 0.7579366 0.23115094 0.15507069 0.10194631 -0.001425162 0.018449262 0.18485615 0.15759248 0.076289274 0.08444699 -0.015543794 -0.028177813 0.29291263 -0.027581196 0.2800359 0.005225839 0.19782531 0.22385608 0.024742356 0.1252776 0.238244 0.16392766 0.29141453 0.47366932 0.02987398 0.16032055 0.4242109 0.10065755 0.040560946 0.19361138 0.08074631 0.10808051 0.009867828 0.035066254 0.15022112 0.11326244 0.17937131 0.16134927 0.21771725 0.27609086 0.17963673 0.4860484 0.60212696 0.6656265 0.054115336 0.043689672 0.6689214 0.1420846 0.43994743 0.5695022 0.6493572 0.7316172 0.32366768 0.37510735 0.3009901 0.24525532 0.11288177 0.30996308 0.4513733 0.54464877 0.5906907 0.418885 0.4191327 0.38716233 0.2630784 0.27599105 0.46079326 0.52107847 0.37412453 0.17171884 0.20624945 0.15891178 0.15999225 0.15513821 0.44217408 0.41394347 0.26435965 0.31483775 0.13764346 0.16241738 0.09937501 0.31155676 0.33598506 0.31204355 0.35751584 0.4300553 0.30665368 0.035562225 0.059555296 0.15911363 0.49982578 0.5581445 0.7075081 0.0842471 -0.21539938 0.85307264 -0.15976648 0.83837426 0.35313156 0.7733149 0.7998508 0.33436513 0.29482186 0.36009395 0.46648455 0.7051852 0.24816519 0.06491475 0.07320844 0.30120215 0.2243321 0.18806005 0.15471908 0.121466175 0.11819591 0.2636168 0.08341978 -0.014615741 0.043720335 0.09349485 0.116844565 0.07742775 0.10383679 -0.2087903 0.1769502 -0.16813017 -0.11688798 0.16848604 0.10416219 -0.45815298 -0.044101793 0.048186876 0.034278184 -0.07716864 0.13777146 0.31313986 0.65320385 0.6457978 0.58508694 0.6074724 0.16690274 0.3528101 0.51951665 0.21607076 0.20270008 0.21537682 0.1391297 0.2324694 0.107024774 0.11565984 0.3460707 0.50162715 0.009395167 0.6009119 0.7100671 0.79708505 0.095414594 0.74565065 0.22583531 0.30615354 0.55904067 0.61322325 0.69499654 0.25779185 0.22801399 0.29717815 0.4575562 0.51676387 0.5673668 0.44005573 0.4266158 0.37664515 0.27165347 0.17117806 0.1587015 0.1657297 0.15717524 0.14432485 0.12161477 0.023387905 0.35248286 0.25264883 0.31612718 0.3505469 0.32167643 0.33353585 0.15659806 0.12574536 0.35548985 0.35337985 0.33897227 0.40820962 0.47717726 0.071106434 -0.060602896 -0.21291311 0.15736206 0.33119944 0.3479189 0.4422655 0.5227015 0.64070845 0.75108504 0.80730927 0.8375015 0.20120782 0.050545618 -0.27110094 0.83917767 0.31705594 0.5940429 0.74411416 0.8027606 0.28817576 0.33350608 0.5325032 0.5421525 0.324624 0.122125596 0.13680968 0.39274395 0.34407347 0.089229956 0.11732188 0.41749424 0.40137482 0.3450808 0.11740033 -0.0067575737 -0.17472224 0.39452797 0.35660702 0.32897097 -0.12778892 0.3728439 0.36234435 -0.034785833 0.0622559 -0.38463992 -0.07731382 -0.47026736 -0.06007663 -0.46217126 -0.27412498 0.6394887 0.6400957 -0.102948174 -0.0032750964 0.36435944 0.64211476 0.05597724 0.6057352 0.60512286 0.19275543 0.5623733 0.25827137 0.46126598 0.27654403 0.06086267 0.20777488 0.07105729 0.5516946 0.63849425 0.7644712 -0.059668887 -0.10234997 0.8502716 0.053273294 0.81569254 0.19927962 0.63647556 0.70173156 0.44570976 0.21900526 0.24789341 0.37031654 0.5297184 0.56598246 0.20704298 0.3304077 0.3434521 0.32822484 0.2764996 0.2200161 0.17112502 0.14626688 0.1675154 0.30600253 0.23259772 0.15160066 0.18475416 0.37138158 0.07758366 0.3304372 0.3667154 0.38732225 0.3590325 0.3867218 0.2594486 0.09630294 0.36028713 0.33778137 -0.099991634 0.31172064 0.35848266 0.46473688 0.5713786 0.68759024 0.7633848 -0.32790732 0.7693516 0.8052025 0.0679074 0.8281317 0.2198261 0.10202009 0.221413 0.5566274 0.7215736 0.7934217 0.20459034 0.22592151 0.15834257 0.17116648 0.33579212 0.33206403 0.09836447 0.38279575 0.3954454 -0.2538007 0.059623424 0.38975728 0.4115888 -0.29463956 -0.14396898 0.41422787 0.39973262 -0.31799546 -0.25171903 -0.10911413 0.3916332 0.37325436 0.36808193 0.30600673 0.2313762 -0.07556206 0.38462615 0.42169112 0.40811375 0.44907528 -0.15656997 0.45783612 0.4668839 0.07620224 0.08487207 -0.3332466 -0.21085079 0.10456169 -0.2510565 -0.14895925 0.5754656 0.5895034 0.11003061 0.05570608 0.60290194 0.61617774 0.13080344 0.5901 0.19473672 0.5058045 0.50407493 0.3089924 0.29998878 0.39180565 0.36473048 0.35780188 0.35322097 0.32391268 0.17952897 -0.004928652 0.12388978 0.5565476 -0.22650272 -0.21156153 0.53638244 0.735636 -0.07720071 0.8840213 0.33681613 0.17301843 0.8221966 0.42423546 0.40795803 0.5563457 0.6053605 0.68341434 0.4738083 0.47180575 0.22378889 0.39944512 0.5109864 0.5332532 0.5386228 0.45573816 0.23688808 0.22570351 0.2899426 0.2661016 0.2343899 0.21594216 0.20853448 0.5562735 0.47454318 0.27428392 0.27291226 0.21442112 0.30452833 0.22017239 0.14942187 0.1186817 0.08184553 0.20338511 0.22301263 0.21819319 0.31299293 0.2556688 0.35547346 0.3784265 0.35190928 0.34345984 0.4107285 0.4255488 0.3364827 0.4124157 0.16798653 -0.061758354 -0.10473321 0.26423943 0.26300842 0.27345666 0.39213064 0.44988012 -0.2924845 0.30701146 0.37145078 0.475111 0.62287843 0.7622446 0.010427557 -0.051679194 0.40607905 0.642236 0.7849234 0.104585685 0.105621785 0.36568943 0.1524831 0.18962714 0.27464333 0.29617533 -0.025999166 0.034722507 0.33270055 -0.48693028 -0.419016 0.3078006 0.35285535 0.3946515 -0.5390847 -0.1673151 0.3705826 0.1275393 -0.3276531 -0.08126004 -0.109297454 0.3501256 0.39103577 0.33197093 -0.019850157 0.43273482 0.47014406 0.49487567 0.50222623 0.46348357 -0.107764676 0.49492806 0.50377876 0.1679061 0.1481719 0.45855516 0.17145792 0.39288098 0.56634444 0.14285363 0.17302261 0.55028075 0.5305667 0.23301971 0.41272324 0.5206572 0.35313436 0.1764779 0.39018646 0.39679873 -0.023404405 0.3996614 0.2993074 0.2171794 0.12244478 -0.0504416 0.21158177 0.32463744 0.35910213 0.3873915 0.3528039 0.144696 0.46513045 0.59952307 0.4734616 0.47214994 0.27200252 0.52309823 0.5400352 0.2185171 0.61642814 0.5916085 0.5338997 0.42223024 0.21109305 0.5991781 0.576558 0.74604195 0.63780713 0.8120575 0.7677839 0.6375344 0.54176563 0.42064205 0.35000944 0.10187836 0.05365359 0.03632188 0.12161484 0.18432057 0.22328344 0.20719057 0.7985593 0.7432405 0.6732456 0.48996526 0.4083799 0.34339327 0.3028282 0.14864358 0.1282079 0.32910585 0.57820785 0.45134577 0.38152102 0.32978004 0.3478928 0.39997333 0.41285247 0.39568964 0.24265537 0.18837568 0.39868504 0.3148108 0.19907318 -0.06303906 0.065307364 -0.0791547 0.16455445 -0.04591927 -0.045920797 0.026263066 -0.01758894 0.047119677 0.26943216 -0.16185525 0.6238997 0.4160288 -0.36581987 -0.33638477 0.6862396 0.517234 -0.3592298 -0.23131451 0.021796443 0.65060043 0.57542247 -0.010602055 -0.22263913 -0.16854912 -0.06254868 0.07224996 0.10963081 0.19536468 -0.12484781 0.14751571 0.19220346 0.1342068 0.08933787 0.038201943 0.20564348 0.25561863 0.42671537 0.4752032 0.12612365 -0.06651601 0.18579158 0.2857825 0.47994152 0.49190414 0.47880173 -0.029331945 0.16479594 -0.09021717 -0.118203245 0.16590072 -0.046422794 0.13418351 0.16308603 0.19269231 0.18679646 0.18074836 0.38714856 0.3787768 0.19487157 -0.3159778 -0.21222204 0.08628756 0.7182895 -0.042490996 0.03697601 0.07100305 0.050832152 0.38170218 0.16028234 0.46283078 0.26814175 0.5355538 0.28778285 0.29363927 0.60410774 0.63631785 0.47552294 0.4678657 0.18003856 0.24916404 0.29732698 0.6380992 0.6143319 0.5888007 0.5563811 0.6046654 0.59613323 0.7015076 0.62121063 0.79892194 0.7465401 0.6550813 0.4719718 0.34047118 0.35843098 0.36790225 0.3471539 -0.015105315 0.06552142 0.1017234 0.14935058 0.8154521 0.8273314 0.3132557 -0.14265075 0.1165573 0.18035528 0.18761441 0.18381077 0.14137883 0.7918613 0.799954 0.12041189 0.7397132 0.64608884 0.32209808 0.3718658 0.35079274 0.475055 0.3749622 0.2277582 0.33965355 0.058107674 0.03873404 0.19561884 -0.17245957 -0.065754786 -0.085619904 -0.042301923 0.048419237 -0.07283357 -0.07437597 0.01222612 0.06929466 -0.06306601 0.043990985 0.5528736 0.48050326 -0.26485655 -0.14095187 0.33521807 0.7143905 0.6347352 0.50211537 0.7487321 0.717303 -0.04265524 -0.019964464 0.020786922 0.36574936 0.4570208 0.60677814 0.73522246 0.6710676 0.11030582 0.10005477 0.15105927 0.43944043 0.5544709 0.45961517 0.131456 0.25179207 0.21848167 0.23422018 0.13456716 0.21444009 0.27204347 0.25884628 0.17752054 0.29495153 0.27160054 0.39643586 0.34081692 0.346119 0.2136066 -0.013851538 -0.023297632 0.07088488 0.23884276 0.10406271 -0.103553936 -0.12690865 0.10586189 0.11617902 -0.091598794 0.24980438 0.3042235 0.31640467 0.34390074 -0.14363036 0.33304787 0.2760089 -0.58167005 -0.6506194 0.30368048 0.406511 0.55157304 0.5680814 -0.23444667 0.4812826 0.66163075 0.6229285 -0.07493359 0.8375014 0.8607353 0.70601726 0.64331716 0.051929675 0.057387292 0.58121467 0.58407384 0.80584776 0.71491957 0.65589464 0.20290454 0.39527854 0.26090243 0.21548058 0.5243419 0.56298655 0.29968044 0.27611414 0.62805974 0.27173635 0.29411992 0.64424175 0.63961816 0.6137855 0.5709276 0.5255873 0.6022446 0.5892577 0.6928045 0.6668289 0.5649486 0.43501478 0.26479474 0.32154676 0.34745404 0.32721072 0.7720889 0.7455174 0.30010313 0.29302752 -0.12531078 -0.102153234 0.051378697 0.05883227 0.10058601 0.15083596 0.77011013 -0.1510435 0.15217091 0.075869344 0.06473163 0.73920196 0.06936887 -0.0334872 0.6015277 0.22949716 0.040678527 0.26299638 0.26689765 0.34492838 0.19054309 0.22501081 -0.03862784 -0.056546427 -0.044626124 -0.062007852 -0.046033807 -0.057174698 -0.06406364 -0.04443481 -0.0809372 0.41407153 0.3701221 0.21029368 -0.018883932 0.04374905 0.40300655 0.28794563 0.6111959 0.5857839 0.47015136 -0.09553479 -0.032020334 0.32914263 0.59564185 0.64594424 0.72739273 -0.0032492764 0.30657294 0.5624085 0.6763134 0.7836939 0.093798615 0.28848305 0.66694546 0.6929084 0.7191222 0.66811943 0.464894 0.5794664 0.57444227 0.4370008 0.15431899 0.3505213 0.48762324 0.33088416 0.16099004 0.09575081 0.21807629 0.13111167 0.17033786 0.23674758 0.17697683 0.24634698 0.21378602 0.21449672 0.2085637 0.043974 0.11190935 0.2045402 0.7661326 0.08388837 -0.1095496 0.007394366 0.7616731 0.7905624 0.8183501 0.8094841 -0.0039963285 0.015213365 -0.14499725 0.7787039 0.80694044 0.86747974 0.8575242 0.050916135 0.8283583 0.8817717 0.2469675 0.25726503 0.29687396 0.26202443 0.23661253 0.2682308 0.40917704 0.17907295 0.49257097 0.45874685 -0.07710898 -0.141524 -0.26738653 0.10715429 0.5466178 0.53432465 -0.06676714 -0.07749668 0.5564065 -0.03777767 0.453593 0.54034615 0.64377266 0.62320215 0.2185316 0.4499368 0.5979848 0.6007238 0.30820647 0.2498222 0.2233914 0.5172767 0.27074742 0.59743327 0.6180737 0.1553935 0.24806198 0.2489728 0.27097157 0.30069274 0.29001433 0.62843394 0.62102354 0.59809256 0.5360888 0.5163529 0.27296698 0.29980907 0.55780935 0.48493195 0.28901955 0.23663804 0.29166508 0.19751483 0.7058352 0.69795704 0.14134842 0.011211224 0.10066521 0.04054823 0.6860542 0.65272844 0.056692652 0.5914862 0.46479893 0.3906811 -0.1521104 0.2641001 0.2344114 -0.12723015 0.11450128 0.050590307 0.12230953 0.41682518 0.058644723 -0.15452667 -0.033374898 -0.01683569 0.0091483 0.49373746 0.46688998 0.37382054 0.022584656 -0.019768845 -0.0026357956 0.07548685 0.48898202 0.46759087 0.15162621 0.34345526 0.39316386 0.44558397 0.4349848 0.46271497 0.5313171 0.5751893 0.64256954 0.64265037 0.62442094 0.6848624 0.6884119 0.6687459 0.55620545 0.64786077 0.5440947 0.46536693 0.24779558 0.4224551 0.52386737 0.1334373 0.016770571 0.15482113 0.04226757 0.07420242 0.13921797 0.114620924 0.57900923 0.61869895 0.6372446 0.098051675 0.08467221 0.66690373 0.7105893 0.6970933 0.69821775 0.7432519 0.16652 -0.28378683 0.077129275 0.64571506 0.712847 0.7486464 0.7650811 0.8018034 0.8257893 0.053235687 0.74190515 0.78588736 0.94350255 0.9505582 0.32054284 -0.1984251 0.0778435 0.71829796 0.805129 0.90493727 0.9831071 1.0 0.54551697 0.48383904 0.3772208 -0.12296392 0.14647068 0.03590615 0.48512816 0.17279316 0.13956535 0.38630128 0.3403489 0.31928653 -0.06254905 -0.06305959 0.4065891 0.4737739 0.024548043 0.45180407 0.5558743 0.06940329 -0.0144040845 0.086976945 0.2578609 0.5080146 0.5147704 0.2266038 0.4364245 0.42858505 0.47232938 0.3830845 0.30019265 0.22614908 0.18206184 0.25250414 0.57933766 0.51342654 0.3460418 0.13881166 -0.03827851 0.17429866 0.22308002 0.2783976 0.52952296 0.52064157 0.26707843 0.29232174 0.28763103 0.31019914 0.28824085 0.449186 0.104273625 0.1401866 0.0344245 0.13538632 0.22721681 0.25578952 0.25744814 0.27766156 0.19833082 0.45746836 0.40256917 0.124507956 0.18642268 0.18128014 0.5425279 -0.037799124 0.23925713 0.3706668 0.20986478 0.21462563 0.30010638 0.06322433 0.14985882 -0.02295611 0.024843413 0.041636884 -0.15520705 -0.15279932 -0.30764598 0.41239876 0.30915418 -0.34216785 0.0066818036 0.060909577 0.48374605 0.03591516 0.09284602 0.5033604 0.18714227 0.31211093 0.34714943 0.48225763 0.4018125 0.44667545 0.4213803 0.48586577 0.46086848 0.53007966 0.48109567 0.5351274 0.4670868 0.58121604 0.42737317 0.23161733 0.55901575 0.37707004 0.12687857 0.011449479 -0.13713828 0.1584889 0.46416906 0.5465244 0.5856537 0.2540518 0.18416683 0.18461561 0.28203306 0.36799034 0.4461408 0.45427635 0.55790895 0.61171716 0.3637512 0.1975497 0.26516622 0.29006815 0.41605675 0.4551564 0.6870992 0.7177471 0.46336263 0.44575658 0.081501156 -0.026165206 -0.0042613186 0.24814852 0.2551519 0.8753926 0.37637293 0.17721646 -0.19100636 -0.20281608 0.01527641 0.5294813 0.97174054 0.4619102 0.52154034 0.06293488 -0.080968715 0.049265243 0.6966007 0.785269 0.85848194 0.96104884 0.9663685 0.5256803 0.55056125 0.2801051 0.1952433 -0.09379184 -0.01823844 0.83153623 0.8911254 0.53576857 0.55009717 0.49655795 0.40891016 0.31461832 -0.39294514 0.04591377 0.5354011 0.47669545 0.43808746 0.35162985 0.2783671 0.33443934 0.40959036 0.50707144 0.50230765 0.5626687 0.022662787 0.63183016 0.18895766 0.66509473 0.68389845 0.34223494 0.3098981 0.20901823 0.20310834 0.28140798 0.43128157 0.5067953 0.6093879 0.4295665 0.45972073 0.38673806 0.1282181 -0.10639697 -0.034