# vtk DataFile Version 2.0
Really cool data
ASCII
DATASET POLYDATA
POINTS 4715 float
35.274784 21.19098 2.964347
35.182713 20.944288 3.6240158
35.17048 20.984438 4.1689744
34.948967 21.730742 3.1266499
34.86227 21.594921 3.5422843
34.94728 21.62697 4.180725
35.34506 21.384268 4.9129295
35.10421 22.42314 2.9597788
34.912567 22.350754 3.5540257
34.977364 22.391968 4.2624536
35.298004 22.231474 4.949562
35.332527 23.292435 3.89506
35.360725 23.226542 4.396174
35.42036 22.882881 4.814062
36.266197 15.898899 1.9598998
36.224922 15.793076 2.6006765
36.258556 15.939139 3.3501456
36.20017 16.509874 1.755533
35.98908 16.381586 2.457841
36.034283 16.558271 3.3887744
36.22283 16.660038 3.954954
36.242268 17.563791 1.5949599
36.001205 17.452536 2.6113105
36.00122 17.391317 3.4335485
36.1963 17.794367 3.8353102
36.28671 18.193298 2.4213705
36.379597 19.013208 2.3807864
36.14172 20.012976 4.388462
36.075577 20.593044 2.8469253
35.349243 20.722612 3.734593
36.033684 20.961443 5.330846
36.046715 21.578474 2.3538003
35.6056 21.572857 5.144798
36.21183 21.482815 5.6421256
36.024208 22.669819 -0.07471
35.79127 22.877415 0.36284214
35.69761 22.616896 5.239814
36.147804 22.42863 5.7256
36.038578 23.631569 -0.25132832
35.79249 23.454752 0.4583323
35.884426 23.572376 1.4641019
35.54794 23.512379 4.719038
35.746674 23.175856 5.257016
35.969578 22.99194 5.683828
36.242744 24.305588 -0.3394574
36.066917 24.386803 0.41096595
36.131313 24.226185 1.2086269
36.17447 23.911833 2.6567028
36.01892 24.3001 4.451458
36.185955 24.388525 5.1479254
36.344982 24.748526 -0.16835046
36.35111 24.883238 0.35900897
36.38423 27.641539 8.65007
36.306786 27.51819 9.609555
36.357788 27.62311 10.359902
36.333405 28.333553 9.635644
36.37211 28.348042 10.151274
36.44604 28.869 9.672691
36.68119 15.3903055 1.9553516
36.757114 15.275003 2.659277
36.97226 15.218591 3.4922311
37.19396 15.276103 3.7980342
36.885616 15.979219 1.1613482
36.52005 15.745588 1.8071008
36.46336 15.469297 2.4397068
36.538284 15.490394 3.3256562
36.83776 15.708791 4.0308914
36.758503 16.671585 0.99768806
36.650845 16.588974 4.2518306
37.29892 17.817854 0.047938317
36.83558 17.650255 0.7195324
36.429146 17.233227 1.371896
36.67821 17.723244 4.238118
37.20117 18.394047 0.13922764
36.9583 18.538622 0.53306514
37.150192 19.947594 0.13838714
36.608833 19.145172 1.6304885
36.73742 20.000662 4.8388753
36.59923 20.742619 5.553003
36.87335 20.956156 5.8916025
37.228207 22.102253 -1.2564434
36.960423 21.67509 -0.46358427
36.762554 21.705467 0.38558006
36.60024 21.414473 5.900956
36.917797 22.7261 -1.0784214
36.416107 22.421312 -0.40680763
36.465305 22.479673 5.9135675
36.741985 23.452538 -1.0583209
36.7799 23.559198 6.256342
36.742527 24.403454 -0.87325215
36.547497 24.58614 -0.6011139
36.370834 24.586042 1.5078548
36.568592 24.515255 3.197863
37.406624 24.043531 6.668141
36.55138 24.935532 -0.18511747
36.625687 25.065664 0.36551097
36.793728 24.90274 1.5533891
36.60088 24.68164 3.8652434
37.07243 24.997057 4.1683598
37.287247 25.663986 7.541013
37.2641 25.967995 8.4105835
36.909225 26.103313 9.55199
37.251324 25.912884 10.333015
37.070007 26.283773 10.891091
36.6486 26.966473 7.4706855
36.63005 26.677101 8.638735
36.5822 26.640337 9.710092
36.648605 26.659555 10.378061
36.89346 26.673069 11.038916
37.00283 27.65394 6.836038
36.622406 27.510536 7.534766
36.8038 27.59277 11.2322645
37.131172 28.401756 7.1770434
36.73785 28.227324 7.612473
36.55648 28.426453 8.671411
36.49645 28.711514 9.4983015
36.55282 28.469826 10.659784
36.867493 28.387863 11.138312
37.040287 28.783787 7.936528
36.848595 29.00897 8.833727
36.866737 29.27344 9.639916
36.864155 29.195345 10.295173
37.275658 29.009192 11.1380415
37.185104 29.595844 9.600314
37.93808 15.248931 1.3624573
37.62842 14.937024 2.3760266
37.452732 15.00324 3.465371
37.505096 15.24625 3.9814153
37.664043 15.783807 0.9556343
37.488987 15.503178 4.2402377
37.58219 16.077772 4.5814977
37.723324 17.021137 0.16790159
37.652824 16.32452 0.6981608
37.695175 16.862804 4.7545385
37.742092 17.670397 -0.15190169
37.74433 17.393513 4.621976
38.114178 18.290518 -0.62410194
37.493797 18.246815 -0.2032234
37.587776 18.18972 4.4225707
38.13596 19.6693 -0.9651872
37.683266 19.480389 -0.3191195
38.130703 19.932714 6.132128
38.078674 20.640089 -1.4151073
38.008396 20.492142 6.6688166
38.32836 20.940252 7.082204
37.586903 21.725704 -1.371228
37.835957 21.720898 7.0030365
37.64432 22.86134 -1.6628289
37.89418 23.002909 7.3313675
38.159122 23.527672 -1.792133
37.341934 23.228685 -1.4590538
38.207195 23.504799 8.068913
37.51627 24.144442 -1.3385935
37.55818 25.047205 7.19289
37.852844 24.727894 8.404506
37.67538 24.87386 -1.03728
37.230217 25.323322 -0.045187414
37.46619 25.392893 0.48457265
37.20856 25.112041 1.474859
37.706844 25.492542 4.327597
37.433132 25.801842 9.478658
37.697662 25.708624 10.556814
37.743942 25.841272 11.282668
38.210754 26.041452 12.272017
37.718544 26.783163 12.077768
38.393528 26.884396 13.178546
37.449978 27.79386 11.764335
38.282787 27.80826 13.565051
37.737965 28.277353 6.68986
37.82882 28.563095 12.29307
38.30266 28.424265 13.440178
38.020252 29.073206 7.4698176
37.630276 29.38122 8.738403
37.483883 29.515837 10.561653
37.74736 29.338669 11.142125
38.323345 29.46698 12.3534775
37.647846 29.711699 9.606092
37.750275 29.661812 10.532291
39.431286 8.810352 -2.1349952
39.410885 8.771878 -1.6523237
39.405937 9.121564 -2.099313
39.430397 9.237423 -1.7683666
38.572647 15.226936 0.8959437
38.51859 14.910221 2.8590395
38.108875 15.346173 4.2995944
38.84767 15.852951 0.18582833
38.448116 15.742848 0.47597975
38.203262 15.519571 4.290405
38.563404 16.792597 -0.07150778
38.06701 16.621283 4.596602
38.535347 17.950066 -0.5526448
38.51905 17.629978 -0.45340624
38.452496 18.805693 -0.7866774
38.454803 18.079794 4.826936
38.93587 19.01017 6.262522
38.852173 19.833967 -1.6016117
38.74552 19.683384 -1.5016074
38.58118 19.581589 6.4157476
38.77743 20.530268 -1.788303
39.0797 20.735168 7.729489
38.30691 21.469507 -1.7763836
38.52433 22.582653 -1.9752142
38.628197 22.918299 8.478231
39.26428 25.252943 -7.4060636
39.201927 25.188202 -6.9334455
39.02401 25.22204 -5.4880586
38.595028 24.520382 -1.9325348
38.451096 24.795345 -1.582276
38.778255 24.646881 9.850036
38.923416 24.72909 11.37452
38.912674 25.197943 12.193302
39.164032 25.875721 -7.9553394
39.039486 25.629478 -7.4081783
39.020752 25.585308 -6.4588614
38.82728 25.663393 -5.4162164
38.73509 25.683449 -4.4510007
39.13947 25.366291 -3.6190631
38.51125 25.449057 1.1152859
38.621407 25.087374 2.977473
38.223198 25.373215 4.05178
39.189632 26.405643 -7.9725676
38.96537 26.45731 -7.436198
38.889164 26.4432 -6.5193477
38.769043 26.309353 -5.502142
38.756344 26.472494 -4.457059
38.77301 26.628376 -4.0435963
39.08788 25.734413 -1.2905742
39.04554 25.86587 -0.2014803
39.078648 25.792046 0.11600201
38.439705 26.24141 5.00587
38.50697 26.58527 5.3318653
38.727898 26.623093 13.390563
39.021835 26.954626 14.203051
39.32129 26.922863 -7.845236
39.238987 26.929981 -7.598463
39.0811 26.959476 -6.585649
39.08536 27.109587 -5.302137
38.9851 27.018795 -4.5316467
39.073597 26.88105 -3.9439263
39.01624 27.147676 5.367802
38.575645 27.181711 5.634677
38.77743 27.781384 14.4435
39.054653 27.642492 14.7241
38.70184 28.270641 14.374541
39.08746 28.39684 14.852958
39.206196 29.743763 6.0731053
39.031178 29.48335 6.53843
38.98221 29.782587 7.0800962
38.660362 29.320513 13.669467
39.027294 29.32286 14.288288
39.283516 29.162846 14.808067
39.30963 30.453566 6.700757
39.26878 30.561567 7.0883102
38.860634 29.876677 9.602875
38.951393 30.030987 10.534206
38.514793 29.940283 11.098343
39.11637 30.536482 12.784115
39.13114 30.40656 13.458559
39.210533 30.065605 14.096378
39.290215 30.676695 13.387534
40.05282 8.213377 -2.7515423
39.96044 8.0614195 -2.32854
39.85732 8.089733 -1.5717629
40.16936 8.13305 -0.4247803
40.224113 8.251889 -0.0060789436
39.863407 8.749938 -2.8843806
39.62526 8.5689745 -2.4757938
39.55022 8.552948 -1.7197994
39.82429 8.602439 -0.6550641
40.102016 8.619245 0.017446548
39.877728 9.350505 -2.8676171
39.558407 9.412872 -2.3435261
39.53461 9.657527 -1.777791
39.737106 9.275474 -0.75399303
40.032448 9.40016 -0.017979413
40.11485 9.9312935 -2.763637
39.853065 9.957398 -2.3854952
39.857296 10.163092 -1.5816641
39.99561 10.13438 -0.5072268
39.478188 15.057029 0.59082836
39.343807 14.720971 1.5925196
39.18747 14.903929 3.3030596
40.16722 15.235829 5.2654824
39.52074 15.605643 0.20914814
39.178684 15.618095 4.486738
40.2728 15.403445 5.691966
40.19801 15.765641 6.4655337
40.189587 16.10877 7.640468
40.22975 16.14349 7.9143696
39.818943 16.2918 6.5646257
39.893612 16.66441 7.553902
40.155952 16.714523 8.116763
39.855125 17.196186 7.604944
39.32189 18.646759 -0.9160178
39.785442 18.314095 -0.5201974
39.598198 18.500517 7.0714693
40.020393 18.805073 8.19317
40.19257 18.876328 10.645401
40.27573 19.005756 11.059397
39.47559 19.9032 -1.6771163
39.598484 19.318087 -1.3108132
39.54493 19.486826 7.6194973
39.869072 19.226515 7.964528
40.17798 19.617903 9.540307
39.85072 19.734911 10.624268
40.09812 19.663322 11.258605
39.27219 20.432167 -1.8691068
39.507362 20.670488 8.195802
39.818016 20.836985 9.077738
40.002144 20.465395 11.333773
40.228466 20.758059 11.709998
39.479572 21.94765 -1.9242593
39.78292 21.77381 9.346493
39.87491 21.63345 10.501797
40.084915 21.392447 11.389894
39.578407 22.782454 -1.9645967
39.78364 22.331553 10.457017
39.33594 23.225128 -2.0580072
39.94559 23.681091 11.335888
39.66354 25.208513 -8.021202
39.657692 25.008184 -7.4927497
39.546387 24.955502 -6.6677074
39.893604 24.655697 -5.4265013
39.381287 24.830801 -4.2234435
39.81883 24.88073 -3.3876767
39.591805 24.71297 11.99489
40.010944 25.76844 -8.799545
39.562485 25.583942 -8.224394
39.099594 24.928463 3.0741868
39.556637 25.723078 13.175251
39.878017 26.255775 13.976049
40.06798 26.495403 -8.975469
39.51637 26.53885 -8.38875
39.54381 26.33325 -2.620242
39.92434 26.290226 -0.29526168
39.91406 26.052172 -0.0039075166
39.45446 26.1421 4.3716106
[...]
POINT_DATA 4715
SCALARS features_00 float 1
LOOKUP_TABLE default
0.55547845 0.6140531 0.6123993 0.6164971 0.6399245 0.6246407 0.52550066 0.5780612 0.6224717 0.59045935 0.5135986 0.51618755 0.516684 0.50414443 0.6479534 0.68383896 0.70226365 0.61664605 0.6828079 0.7325187 0.72617066 0.50313544 0.64884233 0.72907484 0.67433393 0.5110862 0.2834651 0.41616857 0.3829473 0.5985204 0.38781655 0.38607416 0.4742307 0.35289252 0.53440887 0.54901457 0.4534709 0.36617666 0.5818598 0.5620315 0.43841657 0.48114127 0.44206855 0.38858926 0.5670533 0.5257533 0.45533848 0.27270818 0.41682482 0.43960762 0.54832757 0.5101582 0.57153183 0.60510975 0.6228583 0.58285403 0.5918539 0.5622413 0.6389363 0.66242206 0.6516961 0.6294422 0.5395778 0.6318491 0.6700271 0.68243814 0.6566454 0.48509842 0.685895 0.33515128 0.39214897 0.50607526 0.596912 0.30884892 0.31750375 0.23296851 0.28355533 0.22344762 0.25923964 0.20516816 0.3966747 0.355155 0.3212026 0.2697917 0.46649066 0.48454905 0.3107687 0.5328578 0.2428677 0.559564 0.5649963 0.40226594 0.22329025 0.030704452 0.54030937 0.49420393 0.3719621 0.27104908 0.20148656 0.14608216 0.24540548 0.35629958 0.34022516 0.41009486 0.4979299 0.4537032 0.47571564 0.49000835 0.47992474 0.42637986 0.51701665 0.5823968 0.36751813 0.4648276 0.5351597 0.56266695 0.5803822 0.5579071 0.41855967 0.50730526 0.52906686 0.53725004 0.5037874 0.4892504 0.54682356 0.6274263 0.59306514 0.59048855 0.47804794 0.593138 0.583397 0.36191082 0.42064267 0.5604553 0.32848215 0.51698184 0.31563735 0.30808738 0.3768024 0.33318764 0.2870695 0.043414466 0.35078463 0.051753197 0.02252632 0.36426336 0.046571143 0.42542124 0.027567824 0.44130933 0.46275288 -0.064995915 0.48602945 -0.041464023 0.0025533885 0.5252178 0.49844354 0.42448252 0.3481932 0.01749356 0.27276918 0.28796846 0.30384928 0.26145458 0.3863144 0.37021494 0.4836294 0.4601751 0.22513577 0.40789217 0.4594907 0.24221766 0.41757828 0.46409684 0.43335363 0.36093813 0.42902955 0.4157544 0.79943585 0.77536166 0.79320204 0.7749649 0.4873581 0.49717712 0.51039106 0.42698044 0.43058437 0.5046842 0.3653033 0.52151 0.3257156 0.32639852 0.34508738 0.22670868 -0.028793909 0.41111133 0.39991325 0.025704168 0.41479272 -0.025577612 0.37033632 0.3846858 -0.114692934 0.72238547 0.69715834 0.6655282 0.3945768 0.46800867 0.09229788 0.14916426 0.17268617 0.7701583 0.7426236 0.7027296 0.6788116 0.64463246 0.6473006 0.1622768 0.00525178 -0.020381048 0.74892133 0.7179349 0.67972875 0.6403978 0.5485941 0.49830133 0.27687365 0.19630298 0.16395935 -0.11004537 -0.11240383 0.35504746 0.45546213 0.67586493 0.65785813 0.5933418 0.510205 0.47642148 0.44862837 -0.120130956 -0.08139515 0.5249889 0.5335444 0.53630084 0.57147086 0.3755523 0.31568465 0.31600305 0.49018776 0.55840206 0.5966586 0.43675303 0.40567225 0.2232383 0.18463981 0.25960964 0.40688032 0.50043935 0.55991554 0.4952446 0.80581915 0.7894845 0.7503796 0.61050355 0.560694 0.80307925 0.80591637 0.7766943 0.68272036 0.577401 0.778212 0.78319883 0.75593317 0.69448775 0.5865423 0.71881783 0.7413021 0.7170946 0.6291852 0.5189641 0.5554778 0.34364906 0.04670051 0.47547048 0.23523113 0.13122524 0.27169624 0.33774117 0.33861166 0.2868597 0.30025333 0.296255 0.22619097 0.38866198 0.3539605 0.018263398 0.013757683 0.44309777 0.4617948 0.431772 0.4171671 -0.0050991587 0.00041733682 0.21986568 0.41502118 0.45343816 0.4362521 -0.041644506 0.07071399 0.41489488 0.38503686 0.35952908 0.07643236 0.2773766 0.33076376 0.317074 0.1614946 0.35700727 -0.014145061 0.73883325 0.6856362 0.64735746 0.5383456 0.6143147 0.54346204 0.073551804 0.7894049 0.77301174 -0.07747329 0.20344967 0.31492594 0.7976514 0.75843364 0.3549446 0.012449086 0.018700352 -0.1474654 0.41757002 0.49167174 0.77283216 0.6480804 0.5883666 0.5177298 0.45198548 0.4281736 0.35860372 0.30877608 0.54332495 0.60211706 0.519668 0.48261487 0.41159165 0.3754599 0.3218475 0.033500854 0.13641438 0.5916167 0.4093333 0.32677168 0.62530464 0.48625946 0.116284564 0.08599226 0.15367037 0.58402705 0.62206244 0.5142183 0.49118954 0.43059444 0.25717184 0.402786 0.48721257 0.5810436 0.51165247 0.48826337 0.7801075 0.77062535 0.64511746 0.54375803 0.4840793 0.78331953 0.48311043 0.39792946 0.7245997 0.44595408 0.6869646 0.65311116 0.45807093 0.3644523 0.5970475 0.3683528 0.34751216 0.36522382 0.36146358 0.23892407 0.3340892 0.38719568 0.38309598 0.29710674 0.1799341 -0.06944954 0.08562589 0.2045272 0.28680015 0.32884037 0.33767784 0.4084702 0.31465834 0.29279253 0.26452357 0.42618316 0.37696445 0.103458144 0.20319846 0.46166745 0.4576473 0.37420857 0.46384484 0.44635534 0.42342582 0.36914703 0.38308316 0.30484796 0.2143291 0.14840993 0.09964891 -0.00419157 -0.02828604 0.7463338 0.69835556 0.6271348 0.47223127 0.4688155 0.018514555 0.032652948 0.81621253 0.7925648 0.7608353 0.15062721 0.830559 0.8197092 -0.03402406 -0.03979685 -0.15974954 0.46277213 0.7951795 0.7017219 0.01980213 -0.1787668 0.5565241 0.6496463 0.50126255 0.40732986 0.3290885 0.2723412 0.27154958 0.21596695 0.59505266 0.36954138 0.4171684 0.6388586 0.48461896 0.026267964 0.07197343 0.642128 0.5149009 0.52451205 0.4642487 0.3710881 0.1385535 0.33978143 0.4962914 0.5915586 0.6337279 0.36988258 0.40579063 0.4180168 0.36864808 0.4019301 0.34631485 0.2971706 0.1750227 0.48962936 0.2367872 0.29798228 0.31471714 0.31931573 0.3290877 0.33232695 0.24742591 0.3265239 0.21976615 0.21303739 0.029751323 0.09400021 0.12903868 0.22073162 0.13075852 0.028391182 0.1307679 0.098260105 0.17418954 0.28481528 0.30446285 0.31874913 0.28485012 0.095581785 0.26017043 0.092687756 0.39840603 0.4281302 0.10376953 0.0544246 0.437353 0.43840787 0.3259509 0.16980912 0.431467 0.19340652 0.28254944 0.11657599 0.077590585 0.040146805 0.19083764 0.002453804 -0.0073235026 0.7392901 0.6570306 0.5225575 0.40285078 0.13105673 -0.030403027 0.8201109 0.77973896 0.033456117 0.024486836 0.84495497 -0.045679588 -0.051722325 0.339672 0.3864946 0.8398676 0.8184474 0.16686246 -0.03569539 -0.047014255 -0.17187497 0.5062685 0.7622795 0.62220424 0.49915972 0.38698664 0.266446 0.25480834 0.23949233 0.56796587 0.2620481 0.25755316 0.2503766 0.5485881 0.44062775 0.4601947 0.5297346 0.49198526 0.4624598 0.40884912 0.20975068 0.015013038 0.09310889 0.19936872 0.38170266 0.59242487 0.22257143 0.21167462 0.29050404 0.25581107 0.22578217 0.49439064 0.1913151 0.47456118 0.372923 0.46781126 0.26436237 0.254971 0.29428566 0.21470381 0.20066465 0.30779985 0.3021729 0.17448126 0.2725841 0.11489269 0.1550436 0.00198666 0.057861254 0.25208303 -0.0472297 0.01651378 -0.32605222 0.06938091 0.19883384 0.2528305 -0.32145852 0.23434687 0.15340547 0.00899158 0.29462856 0.3961565 -0.06516676 0.41186553 0.3999591 -0.14110988 0.37563056 -0.21524294 0.30550602 -0.14614223 0.18585658 0.049377993 0.11781477 0.1472377 0.0299594 0.011359841 -0.002818346 0.049530208 0.048814394 0.692654 0.6159532 0.38326895 0.23017135 0.1395638 0.01083646 0.8264265 0.76404834 0.85069996 0.17489392 0.8505143 0.8291446 -0.016052421 0.09581455 -0.21344462 0.7686156 0.6193762 0.4885628 0.38877743 0.308366 0.2603466 0.256286 0.21116766 0.099656604 0.41001683 0.39426 0.2881233 0.25560534 0.2669146 0.009079173 0.32150006 0.36972973 0.3537357 0.5090926 0.40553066 0.33176512 0.1854836 0.04160158 -0.013436101 -0.06805317 -0.008488878 0.037855983 0.07451366 0.12854972 0.26047683 0.32554775 0.35709482 0.55482703 0.40328193 0.19036213 0.11838947 0.15777677 0.27500582 0.29892614 0.67562765 0.6243879 0.54735464 0.17692423 0.65557015 0.5990541 0.042829562 0.14689279 0.56185234 0.22948334 0.20529465 0.2015285 0.18706761 0.14364624 0.15419292 0.14256142 0.12896726 0.45561624 0.37667936 0.039845414 0.5294862 0.50876635 0.4586379 0.10764867 0.6182756 0.5757297 0.49082124 0.3723188 0.14738774 -0.4139552 0.09426406 0.6160391 0.3105684 0.37228325 -0.28113258 0.3796811 -0.2669103 -0.2270784 -0.3401227 0.29199874 0.118478626 -0.35195822 0.0988117 0.17944735 0.34941992 0.14954801 0.14879563 0.36683384 0.01796139 0.10294256 0.20893425 0.3163182 0.60807973 0.5243551 0.36206853 0.15242022 0.005356021 0.25648925 0.31113487 0.77892476 0.6718763 0.22288331 0.26879466 0.8383534 0.051058132 0.20083965 0.83070505 -0.14372635 0.76566905 0.6795968 0.5148381 0.40892398 0.35231933 0.22453019 0.12122519 0.107880995 0.45676517 0.37614453 0.3269633 0.26676667 0.29606232 0.2810076 0.2619917 0.33467567 0.22685944 0.3670104 0.30423924 0.171949 0.36380842 0.38742584 0.36662036 -0.045362808 -0.082996145 0.33282223 0.0039050207 -0.0883106 -0.032802388 0.021887343 0.05029354 0.120202914 0.34790683 0.33445507 0.39141762 0.37100434 0.4388596 0.34644735 0.16666204 0.21512407 0.27737954 0.34541902 0.37108654 0.32777017 0.6912002 0.6006852 0.50853336 0.21210031 0.24750693 0.73642063 0.07045853 0.7501836 0.69437015 0.5231369 0.42551485 0.09552957 0.12474435 0.26130965 0.21882558 0.25876322 0.1447564 0.24792273 0.25625467 0.53809047 0.12350109 0.19727409 0.66319025 0.59011096 0.66876864 -0.26346153 -0.073947996 0.6669986 0.62317944 0.5033022 -0.42442113 -0.059471264 0.18117566 -0.31037945 0.36648923 -0.21882078 0.21633804 0.2349164 0.3083259 0.36057884 -0.28038126 -0.1316171 0.17932814 0.24405584 0.3963225 0.41967756 0.1476818 0.08905067 -0.038996235 0.41023004 0.44635642 0.12284483 0.15470254 0.42382652 0.4921635 0.1200338 0.79494774 0.7331915 0.55834746 0.4576621 0.2581194 0.8374813 0.82594216 0.10881288 0.82441217 0.7950974 0.67413425 0.7780675 0.71103734 0.5394717 0.4701763 0.37527883 0.26101676 0.2540395 0.20287393 0.15719071 0.29252946 0.23817188 0.40196353 0.40527692 0.36481297 0.4188357 0.40119767 0.33661273 0.1772183 0.017911237 0.46496838 0.41833115 0.3874337 0.33492178 0.057121765 0.031022979 -0.0051730163 -0.017233264 0.16195281 0.20731165 0.31565633 0.057212576 0.19371091 0.22715238 0.23403119 0.3041649 0.40399435 0.40507698 0.3407839 0.45776206 0.33298454 0.17966719 0.23267052 0.18015093 0.67520255 0.5751976 0.22131634 0.09766373 0.79732955 0.7631656 0.79435384 0.7398187 0.69480526 0.6180171 0.41688308 0.021833822 0.035359472 0.13687888 0.11066231 0.17384167 0.29558238 0.13882247 0.31661198 0.2368659 0.2610521 0.6444032 0.6712253 0.68521535 -0.0952137 0.6763817 0.6737814 0.4392005 0.25490317 -0.17251971 -0.4155879 -0.24190433 -0.35701275 -0.06269136 -0.31630254 0.30968535 0.4042309 0.38103446 -0.12894742 0.28714973 0.32872236 0.3352399 0.31706032 -0.09633489 -0.105625115 0.11640118 0.23773667 0.34346843 0.3458736 0.14441577 0.41576922 0.4215527 -0.044625334 -0.3992069 0.45400226 0.45836967 0.14967659 0.45199162 0.45825285 0.13355999 0.14628844 0.2706737 0.2115698 0.19045141 0.8182599 0.5588261 0.2839709 -0.07495381 0.078103006 0.6373756 0.52099824 0.44377235 0.21128792 -0.24137811 0.48036107 0.396183 0.22736989 0.21998891 0.057362124 0.3044251 0.40160418 0.36467755 0.41515464 0.42477086 0.4260871 0.41318423 0.384398 0.20684081 0.042181373 0.29380614 0.1132147 0.115328 0.12052579 0.08281306 0.06507362 0.022657037 0.14293326 0.19091184 0.23525223 0.21125476 0.2582993 0.27975172 0.33109537 0.36424488 0.45403054 0.4831091 0.47609192 0.31588876 0.1711159 0.27837065 0.40423262 0.45680374 0.6343694 0.5724571 0.46882308 0.19822717 0.39170778 0.7870942 0.7211172 0.099148676 0.78351825 -0.03554219 0.7374493 0.6966566 -0.28571773 -0.34844926 0.5660965 0.43330067 0.22975373 0.28552634 0.3422451 0.17240286 -0.018619448 0.4097997 0.42274708 0.060867324 0.3834314 0.3748716 0.5311253 0.2817895 0.59884596 0.09639533 0.644663 0.62879395 -0.17756884 0.6056304 0.56713486 0.23225756 0.043582957 -0.17802632 0.0234184 0.39680964 0.43821767 0.43814844 0.41394216 0.033541366 0.35729763 0.3951032 0.32202396 0.3145053 0.28464952 0.30526933 0.2690925 -0.09273224 0.20029172 0.31742495 0.3236972 -0.12272554 -0.15825693 0.33468327 -0.26805592 -0.32387286 0.4419278 -0.13865483 0.44835037 0.17227882 0.16396622 0.34483847 0.29240656 0.052785415 0.29401368 0.002140861 0.11469097 0.34034425 -0.42040187 0.23895779 0.15813962 0.0611296 -0.29190254 0.229413 0.12550902 0.20399007 0.34081066 0.3996526 0.40970516 0.45093518 0.49808973 0.6020011 0.405701 0.3984382 0.3645338 0.24490945 0.09591641 0.45698345 0.66859126 0.7533304 0.78298664 0.08391784 0.10721839 0.12665868 0.12919658 0.12108293 0.01335053 0.034095988 0.06276324 0.13240995 0.12185192 0.17750487 0.40518075 0.58559656 0.70657647 0.79164493 0.7973625 0.3051627 0.28220972 0.6864005 0.7653676 0.7845497 0.66704035 0.7113795 0.4121573 0.5528869 0.53336143 0.55082333 0.25006714 0.2693783 0.15570956 0.47675925 0.51670694 0.5107059 0.14658695 0.47365537 0.3188953 0.4148208 0.21844804 0.30245495 0.04691862 0.051440228 0.68551755 0.33473736 -0.45435697 0.16315207 0.20021883 0.36589986 0.41079283 0.0426455 0.42881283 0.4319076 0.41159344 0.34213734 0.5578269 0.08954151 0.5872186 0.4871658 0.05616363 0.046172336 0.5466836 0.065228835 0.056039035 0.4035009 0.4065657 0.018513175 0.3080712 0.3719274 0.41169912 0.42668158 0.40615568 0.35221404 -0.2641988 0.27970433 0.19663516 0.12707537 -0.025274538 -0.23641479 0.24837112 0.15600973 0.08908316 0.21757266 0.31117082 0.04083864 -0.03214554 0.44684553 0.5309459 -0.19836596 0.5674441 -0.24664865 0.364291 -0.23270714 0.12003324 0.32687575 -0.0740841 0.36948496 0.36132142 0.33685806 -0.15972081 0.14320546 -0.20876163 -0.009849094 0.27961966 -0.12466415 0.41680783 0.36434072 0.41279238 0.63351154 0.7045588 0.39070803 0.38924485 0.3787097 0.7652236 0.7635677 0.06960603 0.098790854 0.09047039 0.023306232 0.79116625 0.77529335 0.11758633 0.12320452 0.078613944 0.048610494 0.20387329 0.24948946 0.44323486 0.77916515 0.77767396 0.18629307 0.32931307 0.3489911 0.34573728 0.297509 0.6175858 0.70692253 0.7451972 0.62963396 0.6329838 0.63777447 0.42311722 0.54970837 0.58686686 0.58784175 0.5820444 0.21984196 0.22693034 0.21564707 0.16372472 0.5056804 0.5139223 0.1764715 0.19009335 0.47674364 0.43420532 0.36709264 0.6321851 0.65833366 0.29806706 0.1075068 0.084190495 0.6501737 0.6822488 0.6168209 0.4835904 0.41881496 0.27947444 0.37228808 0.41709426 0.29020765 0.030817438 0.3778784 0.39981997 -0.059085403 0.4056452 0.3790731 0.43767908 0.21051395 -0.015467767 0.10875222 -0.15559165 0.3337552 0.371646 0.39680326 0.25388342 0.24403822 -0.0017686933 0.33102256 0.2554106 0.23285483 0.24840784 0.19457331 0.1941584 0.21066336 0.31619292 0.4020498 0.45557672 0.17599311 0.1840421 0.42515373 0.50758946 0.571012 0.6079937 0.50724554 0.3312176 0.1815403 0.12579867 0.55698514 0.61343884 0.6994662 0.62995875 0.14811718 0.07733039 0.6335795 0.69568074 0.675699 0.5785224 -0.13332513 0.44399792 0.5506866 0.6536965 0.610517 0.004437819 -0.11975631 0.33667883 0.40266678 0.39801416 0.45266265 -0.20877093 0.37252414 0.15039858 -0.2014252 -0.1924169 -0.10551327 0.042802393 -0.20088252 -0.11686864 0.17741857 0.22634289 0.45708245 0.32368696 0.35383654 0.30731577 0.0051016677 0.7175704 0.028649336 0.7276375 0.0035096202 0.7122829 0.7326741 0.27825776 0.32966742 0.33701327 0.30246204 0.25430137 0.38454932 0.561924 0.67816395 0.7235148 0.32561564 0.5997893 0.6598668 0.67834085 0.6683277 0.6501419 0.63574696 0.5873444 0.23039281 0.18671605 0.52080345 0.22178024 0.23629291 0.44429463 0.28001526 0.49877343 0.48850125 0.10508072 0.56688595 0.5555965 -0.0027926117 -0.03800597 0.07153459 0.60576797 -0.008937992 0.524306 0.2404835 0.38587302 0.34805828 0.28398538 0.21367064 0.30420077 0.34715056 0.30548668 0.21910864 0.116344854 -0.08346219 -0.45534042 -0.5561014 0.34309593 0.29435492 -0.29176432 0.23375048 0.9579594 0.9120566 0.81893104 -0.24141032 1.0 1.0 0.95607686 0.8450141 0.7733742 -0.14572535 -0.13908198 -0.27517503 0.20422673 0.2996502 0.35301313 0.28524202 0.90337217 0.8889126 0.86122525 0.7568048 0.14446917 -0.11528243 0.20936406 0.19895296 0.78854734 0.14768036 0.34606802 0.44864208 0.32631397 0.18495789 0.4156621 0.47597796 0.5703323 0.51263076 0.45301712 0.25409853 0.53173697 0.5705805 0.6404944 0.65045935 0.6203537 0.65631175 0.6441903 0.6190331 0.64103854 0.5456264 0.6071608 0.6007445 0.50605327 0.37813687 0.43810576 0.44540662 0.45355 0.17798178 0.48395258 0.15708187 0.18363246 0.10904507 0.362651 0.47207552 0.0051947013 -0.18829295 -0.1709832 -0.022395171 0.3352971 -0.083700195 0.00038783252 -0.05329922 -0.16423596 -0.16160265 0.007954992 0.13035062 0.17483869 0.25145453 0.31663823 0.29365158 0.32518893 0.19629791 0.56131995 0.6417243 -0.014610454 -0.026011081 0.5085106 0.61926174 -0.048143692 -0.06593306 0.5886985 0.6440979 0.24006307 0.28324047 0.22936243 0.14201248 0.06460399 0.19572304 0.10612257 0.42899954 0.60895574 0.56502694 0.35268205 0.367853 0.32194293 0.23749557 0.20827082 0.59282005 0.6514107 0.683712 0.662171 0.6449715 0.22862232 0.23282844 0.21717772 0.16786617 0.64482296 0.6387887 0.23896544 0.22781485 0.59381306 0.22764063 0.40926266 0.18242729 0.27753672 0.38408718 0.40630886 0.39747557 0.33589643 0.03827773 0.41930953 0.16426443 0.03862398 -0.030808993 0.49399793 0.322469 0.37097573 0.38968384 0.33469436 0.10928539 0.23945032 0.54198396 0.27052492 0.23711306 0.23970453 -0.011393696 -0.13030875 -0.22558326 -0.4957193 -0.600876 0.48249573 0.52106845 0.52858114 0.5242697 0.10735981 -0.010306209 -0.12857662 -0.29523134 0.36735985 0.398378 0.48357162 0.91633934 0.8230885 0.7685854 0.04002215 0.057698637 -0.015168369 0.9588967 0.9636848 0.8741325 0.7724867 0.7183858 -0.020859703 0.0299609 -0.37824512 -0.39908743 0.97263384 0.6997839 0.592526 -0.021984182 -0.37747765 -0.31783688 -0.17867394 0.87838566 0.7820236 0.64946175 -0.07923417 0.06100604 0.6920574 0.6669572 0.69378495 0.56670547 0.08568966 -0.013528973 0.1681917 0.2945801 0.37689584 0.62193555 0.6007419 0.49026972 0.4147781 0.40660822 0.47112978 0.59208196 0.49567527 0.51836854 0.6333853 0.5648731 0.59940803 0.5661396 0.58069026 0.5634727 0.51472265 0.5557849 0.53899574 0.47258827 0.5118383 0.3923379 0.15552545 0.49535382 0.1620327 0.19346458 0.53858376 0.086483136 0.35468933 0.07562117 0.09657821 0.037425116 -0.19163159 0.18025975 0.38638127 -0.10325535 0.0027679503 0.14688542 0.19984959 0.22965202 0.26690036 0.26668945 0.51075333 0.39974377 0.2615349 0.23705278 0.2598651 0.43212616 0.4511143 0.16982658 0.1323685 0.11385985 0.046159185 0.3549837 0.2962112 0.37776837 0.38559526 0.2917358 0.19366689 0.098905504 0.16428162 0.41625673 0.41633606 0.55294037 0.61029243 0.6077898 0.61429316 0.23818949 0.24754721 0.26419285 0.26295245 0.1322567 0.3247447 0.52498114 0.5611522 0.6056346 0.62489736 0.44088924 0.21300817 0.17788121 0.61445993 0.5215118 0.35887372 0.3408601 0.30158418 0.10745687 0.6295166 0.6061399 0.53180087 -0.016175339 0.035707537 0.59042907 0.5690817 0.49234486 -0.091453224 0.54926443 0.5241877 0.33815265 -0.2967275 0.4979009 0.5168605 0.49977857 0.5124536 0.4895385 0.43228692 0.21561652 -0.5964604 -0.44573697 0.42923993 0.5352093 0.5347841 0.53478336 0.52193356 0.5066097 0.1670417 0.5266085 0.50974286 0.006696433 0.3871047 0.36080462 0.30622393 0.45198077 0.47391316 0.8399639 0.8723302 0.7931458 0.70156395 -0.1360881 0.1568176 0.8223809 0.85923827 0.6425414 -0.3078043 -0.15958379 0.36061123 0.4276541 0.84404147 0.8880112 0.58346206 0.44154027 0.3071316 0.22996725 -0.22687508 0.15713885 0.3893168 0.79865134 0.44394067 0.3492559 0.31720504 0.2539262 -0.38968086 -0.18395276 0.35225195 0.6520729 0.6324358 0.48845854 0.4110733 0.32744208 0.10153607 -0.13148487 -0.12165546 0.16627756 0.13469556 0.6077024 0.59721935 0.5773058 0.5442696 0.4108623 0.3716666 0.3402349 0.13384882 0.2409844 0.32281777 0.58332485 0.37695146 0.41531235 0.48865864 0.5834929 0.43500775 0.4799911 0.48171818 0.47676706 0.47230065 0.487199 0.4213522 0.44098487 0.4045909 0.4106201 0.3731811 0.24167083 0.3824451 0.15869103 0.17490472 0.4111297 0.14643623 0.10193209 0.10107285 0.41918227 0.11014193 0.10542622 -0.2903853 -0.25301644 -0.19543166 0.018145015 0.06951472 0.07413397 0.15776825 0.13459942 0.26283145 0.19372119 0.37583333 0.40163547 0.23825903 0.44565234 0.49512416 0.48402846 0.41163427 0.3899262 0.505309 0.42155707 0.26520628 0.32631427 0.35731483 0.2929006 0.22160435 0.14529929 0.11103993 0.20428026 0.5156635 0.49835846 0.3625293 0.36683345 0.31536895 0.42197067 0.4650203 0.5069518 0.5305189 0.26104683 0.253844