# vtk DataFile Version 2.0
Really cool data
ASCII
DATASET POLYDATA
POINTS 3608 float
-9.79442 22.118914 -18.961342
-9.931433 22.066011 -18.444311
-9.901682 22.1205 -17.897228
-9.6700535 23.002613 -19.66899
-9.90016 22.626806 -19.215258
-10.201403 22.582655 -18.376755
-10.090606 22.611074 -17.69323
-9.847132 22.695171 -17.243017
-9.663844 23.442402 -19.68995
-9.957658 23.377085 -19.261053
-10.221473 23.34339 -18.467924
-10.1502285 23.315233 -17.730312
-9.803582 23.581356 -17.169481
-9.982592 24.035007 -18.592905
-9.796459 24.128119 -17.55582
-9.607799 24.122177 -17.11825
-8.876219 21.467644 -18.502522
-9.080919 22.215944 -19.721338
-9.311515 21.935701 -19.234371
-9.442852 21.71863 -18.506315
-9.356324 21.837763 -17.662788
-9.241089 22.201931 -17.048046
-9.182294 22.523424 -19.814558
-9.532635 22.443438 -19.548605
-9.347137 22.627768 -16.873312
-9.449727 23.47112 -19.832153
-9.31721 23.675655 -16.717884
-8.939759 23.688019 -16.27807
-9.150439 23.954653 -19.86351
-9.5463295 24.676344 -17.35874
-9.257032 24.514648 -16.834068
-9.017914 24.237585 -16.31679
-9.246441 24.868586 -18.88236
-9.429113 24.969938 -18.218668
-9.295475 25.154799 -17.528831
-9.084035 25.210943 -17.117456
-8.562177 21.449646 -18.966774
-8.398723 21.393848 -18.457249
-8.415558 21.948694 -19.679794
-8.500084 21.637302 -19.251877
-8.577511 21.581934 -17.712297
-8.564892 22.14796 -16.86008
-8.525855 22.679174 -20.024147
-8.426721 22.58447 -16.450283
-8.33638 22.913187 -16.218998
-8.741251 23.238077 -20.203667
-8.379635 23.512121 -15.986334
-8.298112 24.296947 -20.072294
-8.461031 24.203495 -16.060068
-7.8049426 25.281939 -20.023975
-8.164668 25.63525 -19.326836
-8.434419 25.383049 -16.5245
-7.6986327 26.572662 -19.76054
-8.358165 26.215097 -18.249891
-7.9610124 26.138313 -16.886402
-7.5773015 27.283707 -19.26267
-7.5706263 29.062153 -14.273797
-7.6579804 28.805248 -13.044069
-7.5835185 29.03729 -12.051277
-7.5846534 29.613325 -14.960738
-7.688951 29.586098 -14.256008
-7.684072 29.387259 -13.673135
-7.7580967 29.180035 -12.810963
-7.6643233 29.263296 -11.993434
-7.575798 30.196049 -15.010172
-7.7277584 30.186737 -14.323639
-7.720822 30.164955 -13.632983
-7.621232 30.686237 -12.591185
-7.6188874 30.579258 -11.878626
-7.5591087 31.3213 -12.37455
-7.57627 31.265352 -11.774396
-7.9041233 21.413557 -18.38401
-7.8021116 22.072378 -19.753468
-7.831117 21.730143 -19.236256
-7.6573524 21.54122 -18.3946
-7.767845 22.170134 -16.925474
-7.8279366 22.59268 -19.895561
-7.2906227 22.46319 -16.518057
-7.6361127 22.791666 -16.136702
-7.6131625 23.524923 -15.854385
-6.586844 25.039034 -26.991768
-6.611761 24.978249 -26.464584
-6.624935 25.131971 -26.106922
-7.0433183 24.50698 -20.428785
-7.5161057 24.1553 -15.876417
-6.654444 25.716537 -27.093597
-6.753986 25.50572 -26.621195
-6.7897444 25.428679 -20.52705
-7.5643997 25.355045 -16.138933
-6.610569 26.153284 -26.9976
-6.6726284 26.232767 -26.481207
-6.678373 26.126493 -26.075422
-6.873505 26.407497 -20.834463
-7.4980335 26.259302 -19.971779
-7.3060474 27.310957 -20.030706
-7.39446 27.686926 -19.40791
-7.595015 27.18705 -17.535425
-7.3034196 27.044878 -16.830885
-6.9807267 27.985472 -13.422258
-7.032997 27.983994 -12.377371
-7.0734253 28.226425 -11.926467
-6.8136077 27.807707 -20.42852
-7.095976 28.062183 -19.392836
-7.11779 28.176138 -18.697544
-6.8966923 27.799944 -17.65492
-7.4771795 28.49586 -12.530981
-7.2587943 28.644663 -11.687193
-7.081071 28.98233 -11.291809
-6.5801225 29.368872 -17.32739
-6.5930862 29.287167 -16.208504
-7.403181 29.926172 -15.3726
-7.4985094 29.493082 -11.703206
-6.9037075 29.758331 -10.770579
-7.0215826 30.529625 -15.725896
-7.365225 30.2926 -15.271518
-7.510239 30.592585 -14.6791725
-7.0614257 30.5922 -10.804692
-7.028414 30.915628 -15.171809
-7.06895 30.960773 -14.601518
-7.300098 31.447657 -13.101137
-7.445843 31.654768 -12.414172
-7.4369326 31.53147 -11.38486
-6.978096 31.606855 -10.579428
-7.1427884 31.836035 -12.8460455
-7.2003293 32.21498 -12.345579
-7.3006124 32.13265 -11.57497
-6.963699 32.287308 -10.842538
-6.716708 32.97354 -12.015119
-6.803261 32.845036 -11.517551
-7.1008244 22.159506 -19.32369
-6.488914 22.248478 -17.655733
-6.9184637 22.353287 -17.044327
-6.4229083 22.645348 -19.065563
-6.2027426 22.832624 -16.765667
-6.8597865 23.026596 -16.20789
-5.73659 24.092419 -27.676014
-5.92678 23.816666 -26.655754
-6.8261538 23.209497 -16.059694
-5.983114 24.523264 -27.76888
-6.2763705 24.727093 -27.327791
-6.4508 24.65185 -26.470068
-6.157099 24.609156 -25.79756
-6.3523183 25.007296 -20.741106
-6.5678368 24.248188 -16.050312
-5.827678 25.63419 -27.951597
-6.501528 25.396328 -27.3112
-6.5752273 25.64886 -25.70709
-6.308323 25.724146 -21.08567
-6.742787 25.80534 -16.11847
-6.1275196 26.089758 -27.656187
-6.3042893 26.2259 -27.33626
-6.513429 26.483782 -26.602976
-6.302532 26.565191 -25.755198
-6.4501996 26.533632 -21.175863
-5.9481373 26.87753 -15.584359
-6.0804415 27.336355 -12.908232
-5.891316 26.944414 -27.217237
-6.2332134 26.959097 -26.484547
-6.0777454 27.0816 -25.887383
-5.8940744 27.40885 -22.145443
-6.328452 27.276232 -21.373253
-6.0313144 27.634144 -14.003699
-6.416392 27.50963 -12.385644
-6.51331 27.854528 -11.748133
-6.0212126 28.320196 -21.335957
-6.4549203 28.665573 -11.0312605
-5.783711 29.139397 -8.869644
-5.8201957 28.887571 -21.382065
-5.9169774 29.334244 -19.873234
-6.25029 29.684128 -9.547388
-6.0024457 29.751404 -8.633567
-6.2769437 30.012327 -17.01486
-6.3792505 30.538898 -16.391504
-6.3381944 30.535683 -9.345093
-6.0441494 30.526712 -8.539137
-5.793424 30.327944 -8.054559
-6.5170374 30.878698 -15.900512
-5.978578 31.280184 -8.794202
-5.7135196 30.898592 -8.124304
-6.2744236 32.40361 -13.127877
-6.1900754 32.36813 -9.544357
-5.8276663 32.49588 -9.075784
-5.5505276 33.62642 -19.52715
-6.158624 32.844543 -12.911711
-6.253399 33.313595 -11.595727
-6.3271966 33.2007 -10.83731
-5.9680953 33.046524 -9.77179
-5.675979 33.968777 -11.5226345
-4.70909 19.280588 -32.093277
-4.71882 19.2994 -31.676186
-4.735508 19.797756 -32.70294
-4.862154 19.66151 -32.225758
-4.9851565 19.743212 -31.528679
-4.9059906 19.77446 -30.93654
-4.775733 20.594341 -32.80768
-5.0537653 20.523676 -32.35688
-5.2171135 20.54413 -31.513811
-5.11253 20.540165 -30.86262
-4.754319 20.710737 -30.138456
-4.8054357 21.203882 -32.78583
-4.977579 21.222265 -32.342747
-5.064348 21.317215 -31.580784
-5.0114603 21.18885 -30.87899
-6.1782975 22.32625 -18.33218
-4.790171 21.853981 -31.686344
-5.2517815 23.155985 -27.183357
-5.4610395 23.323109 -26.660633
-5.589638 22.625135 -18.488369
-5.6454525 22.563206 -17.358412
-5.9698844 22.924814 -16.717463
-5.2414823 24.034573 -28.101429
-5.564109 23.49524 -27.520279
-5.5627847 23.407873 -26.740671
-5.232685 23.748177 -25.697803
-5.065027 24.119287 -24.808512
-4.73838 24.047472 -22.674086
-5.1117563 23.828167 -20.393755
-5.362892 23.989773 -16.102936
-5.4244313 24.47979 -28.021875
-5.431632 24.61498 -25.25144
-4.978129 24.500366 -23.410028
-5.0151496 24.750595 -22.578783
-5.4078445 25.361631 -28.109974
-5.554368 25.956326 -24.795948
-5.1668134 25.714504 -23.965395
-5.146563 25.292461 -21.915585
-5.6530504 25.985302 -27.895033
-5.6205664 27.231428 -13.146373
-5.0228286 27.01774 -12.269283
-5.1617737 27.224905 -11.922082
-5.036567 27.635878 -27.275808
-5.553488 27.600084 -26.421844
-5.4162917 27.745785 -22.633606
-5.070961 28.139912 -26.966482
-5.199565 28.195667 -26.466576
-4.9866524 28.650393 -25.824251
-5.183667 28.387823 -24.566137
-5.3724375 28.838764 -8.588615
-4.740324 28.530508 -8.194375
-4.7324214 28.78481 -26.294712
-4.8105774 29.200287 -25.27777
-4.945182 28.965874 -24.689688
-5.1748614 28.970755 -23.909887
-5.300524 29.397463 -21.581083
-5.290782 29.633455 -7.733408
-4.794391 29.599867 -7.371477
-4.7816105 30.010117 -23.022772
-5.347457 30.444311 -7.683989
-5.0252614 30.252796 -7.413195
-4.9455757 31.066458 -21.99529
-4.9833517 31.672924 -21.361063
-5.1706038 32.075443 -20.719995
-5.072665 31.361647 -19.601551
-5.019339 31.210867 -18.89058
-5.3841066 30.90955 -17.319721
-5.403528 31.361736 -16.165377
-5.412345 31.635525 -8.369033
-5.1877155 31.081888 -7.8638825
-4.784584 32.535686 -22.169542
-5.079184 32.59822 -21.505941
-5.3847623 32.592907 -20.568594
-5.055126 32.47866 -18.590322
-4.944962 32.397022 -14.919749
-5.4637623 32.585487 -8.884143
-4.791184 33.24173 -21.873287
-5.010766 33.29986 -21.445982
-5.4343514 33.4648 -20.330915
-5.4714665 33.7014 -19.537708
-5.302496 33.577248 -18.708467
-4.7286673 33.320183 -17.74618
-5.5048714 33.41116 -9.549114
-5.2569847 33.23578 -9.282124
-4.74349 34.142673 -20.948275
-5.1155944 34.24777 -20.267616
-5.2574015 34.350563 -19.545921
-5.0130296 34.36009 -18.785105
-4.7743177 34.145058 -18.176558
-5.228424 34.127274 -12.210844
-5.3195424 34.43294 -11.353427
-5.1103077 34.376827 -10.705877
-4.9915543 33.97677 -9.830567
-5.0023766 34.6732 -19.511583
-4.900715 34.7864 -11.154777
-4.951937 34.624783 -10.846657
-4.2683945 19.08849 -32.272785
-4.371892 19.080673 -31.580702
-4.147624 19.164894 -30.920078
-4.280217 19.587955 -32.883675
-4.516343 19.397093 -32.52944
-4.6129208 19.529478 -30.815704
-4.331596 19.929789 -30.118277
-4.2846417 20.502867 -33.130436
-4.2980604 20.419603 -29.912968
-4.3683 21.245146 -33.001385
-4.6002812 21.639986 -32.641373
-4.1645703 21.46168 -29.852472
-4.1571817 21.886608 -32.811764
-4.332603 21.99388 -32.475235
-4.245445 22.389858 -31.441042
-4.0014787 22.272888 -29.686941
-4.77014 23.197786 -27.677002
-3.674232 22.472015 -23.513454
-4.3760715 22.77887 -19.073568
-4.0339837 23.158562 -15.6858015
-3.8161168 22.88281 -31.243324
-3.6539342 23.297695 -30.475489
-4.338059 23.338243 -24.457682
-4.413525 23.520397 -23.089561
-4.478056 23.698116 -22.67538
-4.3211527 23.750036 -21.548677
-4.3294377 23.688673 -15.642945
-4.7106314 24.916721 -28.231283
-4.5560155 24.507133 -15.534079
-4.28885 24.574657 -15.072664
-4.7924013 25.399868 -28.20285
-4.6293907 25.481514 -15.225098
-3.8315067 26.211172 -11.415323
-4.6301937 26.719095 -14.549358
-4.2909994 26.818888 -13.731554
-4.261539 26.810823 -12.37086
[...]
POINT_DATA 3608
SCALARS features_00 float 1
LOOKUP_TABLE default
0.86513925 0.91443586 0.93606603 0.789725 0.8428103 0.9228085 0.9097494 0.84584856 0.7622992 0.8194612 0.8861946 0.8265996 0.7266369 0.8012273 0.68473446 0.6603922 0.8489639 0.78754455 0.8256176 0.88426113 0.9118562 0.8379072 0.7774006 0.8083192 0.79399776 0.73403263 0.69124174 0.6877252 0.6556959 0.6205729 0.6098494 0.6319217 0.6017203 0.5961059 0.5717697 0.5597021 0.79982364 0.81227255 0.76985294 0.7856443 0.8665581 0.7614671 0.7345856 0.7058844 0.6876534 0.69181705 0.6792584 0.4555453 0.64144313 0.24957107 0.3345669 0.5528597 0.2727823 0.39832646 0.4832573 0.2832018 0.4015994 0.49064022 0.44434005 0.31582057 0.36915934 0.4265342 0.4581003 0.4361802 0.3073418 0.34853256 0.38001198 0.41062656 0.43445754 0.42511898 0.44499254 0.74822557 0.7323443 0.7293746 0.71084106 0.65128 0.70687187 0.5603817 0.6041825 0.60117424 0.6852771 0.67280626 0.652122 0.19995275 0.58717823 0.67156196 0.67386985 0.18087639 0.5408319 0.6472948 0.6442039 0.63795984 0.22389615 0.24751374 0.25591835 0.26301283 0.3026254 0.33960843 0.48314232 0.45729506 0.45204097 0.24266183 0.23944192 0.20872134 0.16502202 0.47713757 0.4400879 0.40552735 0.012673611 0.17493765 0.2827897 0.42415237 0.33996522 0.24810606 0.2862062 0.31864244 0.38762432 0.2659225 0.29258415 0.37725025 0.4319169 0.45800608 0.45470285 0.40746057 0.45020556 0.46588194 0.47612983 0.44159317 0.4538866 0.6608849 0.5282868 0.5285841 0.50816983 0.44442433 0.51175493 0.66642046 0.6289884 0.5008036 0.6717138 0.68303597 0.6653609 0.5823442 0.09387287 0.40068936 0.63563526 0.6793783 0.6239284 0.1066708 0.3269925 0.6251932 0.626969 0.6208508 0.580983 0.20085338 -0.29609197 0.2771473 0.5242058 0.5533092 0.4964804 0.12627731 0.20306826 0.19179109 0.3725782 0.417567 0.14939341 0.36249697 0.39182875 0.106917165 0.06930324 0.33859938 0.45426345 0.1014106 0.1809907 0.40139073 0.46155554 0.48081002 0.2127856 0.42328537 0.45791927 0.3640697 0.39369166 0.37324595 0.52561986 0.36346948 0.41550633 0.43547627 0.40313023 0.40695107 0.80430424 0.7854085 0.85387677 0.83507717 0.81574523 0.7924243 0.8626572 0.87337935 0.87915385 0.8399952 0.7321944 0.78504467 0.7955904 0.81945306 0.83328277 0.50368965 0.68359494 0.5730273 0.56224346 0.36954445 0.4041342 0.4003528 0.6230631 0.6379368 0.58869904 0.43078843 0.23760116 0.032217227 -0.059656724 0.05336052 0.6479441 0.41099492 0.055151246 -0.026901804 0.6199151 0.4723515 0.16878071 -0.113322794 0.59061134 0.14882615 0.026379853 0.09632381 0.37436146 0.39534706 0.094817825 0.32719576 0.31036964 0.24425843 0.15474537 0.3971598 0.37960598 0.25718272 0.18829778 0.14450799 0.04840426 0.010058284 0.49757618 0.49918994 -0.091088265 0.48249048 0.48927414 0.045585405 0.19203667 0.2946358 0.25998396 0.14356005 0.053472802 0.11450864 0.41322622 0.441939 0.2207974 0.27369285 0.35817516 0.41358212 0.0524019 0.36748254 0.2953841 0.33399948 0.45143554 0.5298106 0.55366135 0.4540935 0.38920945 0.3619904 0.41052222 0.4930201 0.5550542 0.5801132 0.5489105 0.371408 0.41713375 0.42387354 0.4219792 0.560413 0.4300296 0.4270137 0.78626585 0.75188184 0.7038566 0.83696234 0.823505 0.75872195 0.6988181 0.85222894 0.6473074 0.75757426 0.7096741 0.6176555 0.65113425 0.6371367 0.5475957 0.6116743 0.5357368 0.12730207 0.03970076 0.18763089 0.44068462 0.3837079 0.15310909 0.056905113 0.050621405 -0.1166476 0.14745477 0.5611453 0.07167193 0.1086366 0.54177606 -0.087175 -0.12019295 -0.24291207 -0.15542735 -0.13071512 -0.017159857 0.079129666 0.16392565 0.29971755 0.34752727 0.116161406 0.23074597 0.27294672 0.27742627 0.40692526 0.26153004 0.23107603 0.18074927 0.48676705 0.1785664 0.016118996 -0.06476702 0.47536874 0.1330007 0.12441238 0.40836692 0.32934082 0.28286487 0.18018094 0.0310532 0.31810123 0.3567788 0.37647742 0.3375979 0.2863026 0.40055227 0.061486475 0.071678564 0.314299 0.38975728 0.3769229 0.340819 0.35364115 0.4367 0.32366306 0.36906016 0.4128442 0.46591073 0.5540014 0.4289109 0.46202844 0.45481133 0.7807371 0.75320613 0.72065365 0.6035626 0.28287715 0.27871794 0.79848385 0.6067446 0.27493125 0.2852446 0.2699437 0.20577933 0.116956145 0.8246378 0.24546173 0.2726538 0.2576281 0.7028877 0.172651 0.22240776 0.14600885 0.054279383 -0.13073406 0.5828732 0.5766762 0.23484844 -0.27522337 -0.052165415 0.16747043 0.19121775 0.20138675 0.48103502 0.20588447 0.15533447 0.47224945 0.54177785 0.57928145 0.32953978 0.20915684 0.092093684 0.2980785 0.43880272 0.51105106 0.5474194 -0.24817616 -0.18882263 0.12750983 0.1423159 0.27124453 0.2183648 0.122645035 0.2554199 0.2606619 0.20905626 0.12294723 0.35873544 0.36024508 0.43803227 0.2252683 0.47621349 0.20309183 0.21601385 0.20717993 0.46227205 0.14732936 0.34891945 0.4200141 0.36269563 0.23780547 0.3057328 0.38737464 0.3964389 0.06904778 0.41249585 0.40076688 0.39851663 0.3347506 0.26109773 0.38309765 0.3306548 0.40496233 0.33535498 0.29690853 0.44573012 0.40700608 0.39789116 0.51657903 0.52257025 0.55854 0.4803937 0.29541183 0.624408 0.61849564 0.55968237 0.565503 0.50975084 0.39830458 0.5023302 0.5373428 0.53576285 0.49166226 0.31037068 0.44510806 0.46905473 0.48662448 0.48477006 0.41460848 0.27151155 0.36808455 0.46639517 0.5155791 0.53228563 0.33582908 0.26036593 0.18994826 0.37104565 0.46774375 0.50111985 0.5190864 0.6175696 0.4354429 0.2852596 0.25413236 0.2664948 0.113647774 0.29324389 0.3551195 0.4144046 0.40816706 0.63228947 0.04239344 0.25992268 0.1634335 0.08543509 0.6896749 0.057809047 -0.021922633 0.04483301 0.6511565 -0.052917447 0.13568905 0.17503232 0.08544863 -0.026353829 0.06436846 0.4265089 0.014435828 -0.14349288 0.12187778 0.50597817 0.56055117 0.62007415 0.72809935 0.77526164 0.331034 0.32184178 0.39296478 0.6201612 0.6646224 0.7375864 0.038591295 0.577561 0.68110836 0.15175676 0.5207224 0.3017141 0.16202998 0.32301494 0.55091727 0.420883 0.3303564 0.5539428 0.49356425 0.36919022 0.44558674 0.48501468 0.1146788 0.49130148 0.13843808 0.17412928 0.5119873 0.16567267 0.16286546 0.13696808 0.45772398 0.20298494 0.23089229 0.32476032 0.366301 0.09093663 0.14434761 0.3746059 0.40233344 0.2994618 0.4379592 0.29500568 0.38689083 0.16485327 0.2805885 0.56743526 0.6119015 0.5658281 0.29022804 0.2860502 0.24011007 0.7884381 0.7927284 0.69422007 0.6608656 0.575196 0.6031486 0.5499263 0.45327747 0.52258766 0.5653392 0.5904807 0.49642068 0.40807748 0.29085967 0.48434263 0.54381967 0.32750088 0.2907927 0.41175544 0.46657047 0.48790765 0.5146122 0.5066037 0.34542376 0.35704404 0.3740992 0.20610425 0.5018949 0.4253178 0.29165784 0.31229934 0.28306878 0.28114468 0.5093977 0.144841 0.20589253 0.18864949 0.22512613 0.5052881 -0.054171517 -0.27804828 0.08626414 0.07858198 0.09399563 0.52188045 -0.08647335 0.022457197 -0.13561727 -0.0035137534 0.5694163 0.63407 0.7680161 -0.18241921 -0.0020951182 -0.1658683 0.35666102 0.4168862 0.524838 0.6445019 0.7710581 0.8421224 -0.021749679 0.2880175 0.838321 0.16912137 -0.20087054 0.7463517 0.4760808 0.60940635 0.3291606 0.6133183 0.5816578 0.3190053 0.6144035 0.59102106 0.4333781 0.5963328 0.5502384 0.47425944 0.38492757 0.006347701 0.5087036 0.50054455 0.41442358 0.07398267 0.5472167 0.077316746 0.44253922 0.4763059 0.20975523 0.36224797 0.4206971 0.24070838 0.07000578 0.094600946 0.044242643 0.23396687 0.26179826 0.35562706 0.4479263 0.44139466 0.37380376 0.30379492 0.20538656 0.6402408 0.5849509 0.1810718 0.23190223 0.20732275 0.20250243 0.76209193 0.8605367 0.86762375 0.7667117 0.691979 0.21622738 0.54022676 0.58811796 0.59122074 0.4319799 0.49627763 0.34423032 0.38434553 0.37740034 0.41999978 0.42514372 0.32423693 0.3338445 0.37333018 0.37836564 0.40656233 0.29562068 0.32767308 0.35246566 0.38207343 0.35657316 0.2473794 0.23367283 0.244521 0.18366565 0.18285704 0.19162701 0.32874775 0.4507928 0.49236473 0.3510915 0.004845232 0.19483402 0.4379968 0.48534033 0.37972885 -0.0380909 0.08654365 0.20402503 0.39572492 0.38012424 0.20030892 0.31505617 0.5678535 0.68529856 0.7879101 -0.14952493 -0.15075262 0.16376749 0.21125987 0.312588 0.83253706 0.88617766 0.920534 -0.022220321 0.88537633 0.53612995 0.52838266 0.5907129 0.6001415 0.3338582 0.5920596 0.5963675 0.4121996 0.571735 0.5521984 0.5166826 0.5062082 0.4080457 -0.010907896 0.0017125532 0.54631376 -0.08618353 0.0082776565 -0.18498218 -0.13335966 -0.13912636 0.3963427 0.46734476 0.5116797 -0.07864101 -0.029870903 -0.017836157 0.38130307 -0.13058582 -0.03847381 0.17160538 0.27006394 0.09672314 0.33991626 0.46479768 0.683401 0.50752705 0.2423799 0.21462265 0.5529909 0.76866215 0.8046769 0.7474692 0.70686316 0.33017614 0.33970255 0.34080902 0.32494426 0.20751792 0.21743384 0.20370948 0.21541788 0.7373233 0.832303 0.84943795 0.81133187 0.37763816 0.4061951 0.40870437 0.32421434 0.25532752 0.43828207 0.46497172 0.46452814 0.45321298 0.3850362 0.3253291 0.49973467 0.47921318 0.39277327 0.4796714 0.5099131 0.51486516 0.40881473 0.3480668 0.44019276 0.32814652 0.34220567 0.27862695 0.35594743 0.30044514 0.28096193 0.2970215 0.33237603 0.3176822 0.2882369 0.089300126 0.29241484 0.20804414 0.24975047 0.12777932 0.2770071 0.36933136 0.44455853 0.4955166 0.5037175 -0.14388865 0.40823674 -0.4670477 0.268916 0.64796317 0.75804925 -0.066526204 0.3266176 0.7659051 0.8409637 -0.11331637 0.8397721 0.81512594 0.31125748 0.19346473 0.4574742 0.5055153 0.10506515 0.16918331 0.5429481 0.166733 0.23619148 0.5444261 0.5194669 0.15754461 0.21302162 0.2795734 0.39515272 0.5227171 -0.31929773 -0.6783999 0.21504478 0.32388246 0.44670278 0.47892457 0.43325445 0.008974671 -0.25155938 -0.36418158 0.37899405 0.5034939 0.14729819 -0.3859673 -0.15844007 -0.2244764 -0.19043261 0.27675107 0.47935838 0.2006935 -0.3178411 -0.2929341 -0.0054433346 0.21877816 -0.012093276 0.26086304 0.21409042 0.14999565 0.034144007 -0.20791692 -0.25185758 0.12297552 0.07722723 0.20474334 0.15572657 0.10624744 0.015936375 0.55278355 0.20671472 0.22534877 0.75517964 0.22992644 0.28852963 0.19511648 0.3396981 0.38390175 0.22011532 0.4456187 0.49919805 0.3405552 0.52382743 0.52532566 0.5066898 0.43244433 0.38293713 0.30990678 0.33993456 0.36101133 0.32427412 0.35604513 0.36166593 -0.018098481 0.12877227 0.3532612 0.3711751 0.20571841 0.22282025 -0.05702564 -0.044224825 -0.0038110167 0.22126506 0.18153358 0.19801651 -0.08814432 0.209497 0.11733684 0.17182031 0.2898301 0.41374108 0.44736457 0.13248065 0.49768072 0.0778902 0.51383257 0.47216576 -0.018591069 0.10466616 0.02932423 0.523266 0.68420446 0.2041212 0.17476775 0.5974364 0.7519049 0.25783008 0.47043133 0.14743724 0.023864437 0.056121938 0.08447894 0.12660065 0.4662997 0.13142987 0.35688722 -0.29982772 -0.5036421 -0.6569656 -0.05071342 0.32694858 0.2749048 -0.29917794 -0.29551575 -0.41794398 0.19104728 -0.51541674 -0.30957544 -0.19530278 -0.075936854 0.26438752 -0.15532397 0.2756223 0.2705234 0.23497824 -0.073275946 0.18276417 0.20740397 0.32888955 0.02036558 0.3638826 0.43400297 0.34057128 0.28477746 0.43664458 0.5159197 0.5260861 0.49220002 0.4251769 0.36834115 0.5149973 0.52966654 0.5124996 0.08306725 0.1852543 0.18947406 0.19729891 0.18656336 0.26996377 0.32544705 0.35513094 0.03132624 0.019909691 0.36984593 0.37209132 0.052853648 0.065436795 -0.014003696 0.11800059 0.34080544 0.07523653 0.046989486 0.10074358 0.3761571 0.26231906 0.13627823 0.1274285 0.17127286 0.39145052 -0.07891473 0.16693793 0.055550374 0.051910006 -0.2147163 0.0075246952 0.1442089 0.40894684 0.40403122 0.21794316 0.22827536 0.32608727 0.32941437 0.28326124 0.3237357 0.30298138 0.39566082 0.35192254 0.29245505 -0.046634287 0.40774596 0.37636882 -0.078611 -0.16814479 0.16719443 -0.5144561 0.24766308 -0.27900854 -0.30138135 -0.44651255 -0.005462408 0.15600254 -0.2742433 0.077390924 0.12664904 -0.1883217 0.26259705 0.23760414 0.32095185 -0.13552602 0.48891845 0.4820946 0.295158 -0.114607506 -0.1299238 0.24658298 -0.05662804 0.228753 0.19740537 0.21491382 0.23596013 0.2202547 0.3000128 0.2525469 0.2519977 0.197083 0.38112462 0.30969584 0.46432036 0.44947213 0.43806532 0.38023794 0.6868741 0.6827535 0.65522957 0.48495972 0.74646205 0.7696806 0.7498089 0.22369364 0.05904986 0.054144762 0.1394942 0.15009467 0.14315262 0.19332719 0.32583076 0.19281065 0.19562718 0.14400445 0.089037694 0.030275557 0.04473829 0.257999 0.2939716 0.01284533 0.45911115 0.43000895 0.3402988 0.2258443 -0.08851505 0.29979622 0.3748076 0.3950873 0.27891225 0.28147945 0.19288485 0.06351905 0.17941672 0.22007981 0.16066626 0.092635185 -0.074039534 -0.3363908 0.12314707 0.069497116 0.029311258 -0.20853734 -0.13991573 0.18452269 0.15034947 0.05199462 0.23932621 0.41479725 0.056500047 0.4704268 0.42516083 0.018267676 0.47799942 0.45174125 -0.050679684 0.43643513 0.14293033 0.30645946 -0.002202008 0.1801512 0.26529643 -0.09519565 -0.305175 0.2211568 -0.059239022 -0.47680774 -0.3037111 0.16287524 0.20000082 0.069569446 -0.12006247 -0.13923566 -0.38243136 0.2614032 0.2418608 0.12943073 -0.1713104 -0.13061284 -0.18075557 0.13103807 0.3149185 0.21846463 -0.13989468 0.3553012 0.39172012 0.46554798 0.3927847 0.27764052 -0.17309526 0.58454347 0.24520718 0.20260873 0.22474837 0.18727311 0.25117576 0.2509936 0.34273797 0.391106 0.28236133 0.30070254 0.2589314 0.29798052 0.44209746 0.46910393 0.24486724 0.32437006 0.5577042 0.6600723 0.641322 0.7850951 0.7900032 0.8044212 0.78106785 0.8117624 0.8357872 0.844467 0.8236056 0.2571488 0.24832125 0.20909481 0.14046527 0.16418925 0.10514669 0.12284726 0.118990496 0.037560254 0.19363636 0.23806125 -0.07602516 0.36347556 0.39196736 0.4468507 0.3867995 0.17069893 0.08791287 -0.23467055 0.30565536 0.34413385 0.37893176 0.40008825 0.45869023 0.4738255 0.23712729 0.28943917 0.3647861 0.38608572 0.40275693 0.30087373 0.4722358 0.42690438 0.20869917 0.19579679 0.47515464 0.2802959 0.20704222 0.08584219 0.43577766 0.26457185 -0.18195483 0.38859746 0.28993756 0.22479552 -0.028047502 0.041510493 0.0306115 0.3051435 0.038254514 0.44042638 0.062133193 0.4953009 0.48731768 0.49816516 0.47115898 0.4150943 0.245987 0.20213446 0.32361764 0.2654913 0.15426311 0.27509254 0.30302185 -0.10515767 0.30696467 -0.0008911863 0.27968428 0.030398093 0.0034014583 0.2774786 -0.1577164 0.20698246 0.34989914 0.3071942 0.16843337 -0.23305717 0.3885224 0.41834068 0.22902656 0.52379215 0.5408183 0.4806491 0.12868156 0.28492326 0.35442314 0.35930324 0.29818448 0.41448972 0.4226547 0.33082482 0.3390371 0.30846614 0.51274735 0.4705044 0.33916324 0.2983466 0.26462275 0.20977634 0.6333777 0.6044878 0.7710458 0.7869354 0.71010524 0.8117529 0.8755926 0.87893105 0.8359824 0.2865995 0.29780358 0.33012015 0.309752 0.29248875 0.26192158 0.24415472 0.22813681 0.24376161 0.09262048 0.34386042 0.34464282 0.2002131 -0.037706733 -0.014500245 -0.061167084 -0.22813812 0.30404782 0.34701854 0.37213555 0.37249348 0.4130575 0.3423098 0.0917777 0.10390927 -0.17581046 0.07027146 0.2712675 0.39518794 0.36740732 0.43352804 0.41494775 0.325631 0.46371406 0.436565 0.3723994 0.25843123 0.51405776 0.49670464 0.4165569 0.1226017 0.54463565 0.5044683 -0.044953752 0.16519482 0.45764172 0.4951303 0.40001488 0.4776955 0.5364497 0.44930083 -0.04404761 0.37948483 0.5161478 0.5290117 0.3408312 -0.025440663 0.30261958 0.4118821 0.480176 0.44399345 0.37125206 -0.0314767 0.48922268 0.5006589 0.4976282 0.05620029 0.4438091 0.43248737 0.2908384 0.28779575 0.21210936 0.3261561 0.3166046 0.2531662 0.079154834 0.28773686 0.2994428 0.29440358 -0.04720342 0.34457183 0.07616085 0.42333198 0.4678309 0.4532007 0.4409682 0.25460202 0.29590568 0.2124291 0.30880004 0.35116923 0.35775352 0.3635494 0.15428539 -0.00039021578 0.49820504 0.4560426 0.36826137 0.37592134 0.30900085 0.267171 0.6254954 0.5882052 0.6925163 0.71543634 0.7050813 0.65901756 0.7459561 0.7830643 0.8009408 0.7492453 0.40058684 0.4846589 0.30883527 0.38683677 0.3887583 0.41399783 0.43574232 0.25001538 0.27354422 0.3145861 0.32215318 0.29315296 0.2422925 0.22946855 0.12021894 0.22422671 0.24084735 0.2681532 0.2912219 0.31992388 0.24653253 0.024445742 -0.020245187 0.0020565242 0.17190923 0.06501659 0.33548754 0.32456285 0.361687 -0.20496935 0.32669544 0.41032648 0.4085566 0.37806317 0.31798324 0.26470286 0.16388406 0.46087062 0.42760947 0.40251133 0.090662554 0.51421124 0.48634553 0.16337182 0.311265 0.38436455 0.5494981 0.4379778 0.46942148 0.53238857 0.53583974 0.5274391 0.5112724 0.45934212 0.45390904 0.5064688 0.39664412 0.27002746 0.4261466 0.27200544 -0.015825365 0.45850086 -0.1314981 0.4150868 0.4796034 0.45115617 0.031803343 0.52980185 0.3858214 0.2969736 0.26823556 0.3444256 0.34338772 0.21772543 0.28446648 0.41283417 0.26400656 0.2797404 -0.30258673 -0.39352545 0.3126387 0.3402648 0.35525632 -0.024852462 0.37502518 0.25392395 0.37725008 0.38141996 0.30552793 0.3219729 0.13307396 0.21953446 0.36931497 0.3934209 0.32799467 0.3605733 0.41105595 0.17001848 -0.05893462 0.30885807 0.4817958 0.47082806 0.4263259 0.4181463 0.34196287 0.28607994 0.6296358 0.58260113 0.55695677 0.6664625 0.6667763 0.6345028 0.618073 0.7147669 0.7215382 0.6813269 0.44684422 0.5475515 0.61536586 0.60914093 0.32629102 0.29076442 0.2956347 0.252999 0.40804344 0.5647913 0.4450725 0.29296577 0.3249473 0.29750818 0.29217398 0.28931722 0.23579952 0.18637851 0.3099237 0.20017116 0.21661586 0.27470678 0.25995344 0.2586773 0.03654906 0.0717102 -0.14456756 -0.064835966 0.19470347 0.09463761 0.22151877 0.37795666 0.3339328 0.17063685 0.090416074 0.43465406 0.3873565 0.35019135 0.06064356 0.5002057 0.4620344 0.40466177 0.2885339 0.582965 0.39625704 0.34754926 0.58183247 0.3598832 0.4798474 0.35577306 0.35647148 0.25169146 0.2492997 0.2113159 0.23671767 0.15083387 0.5040322 0.3133906 -0.23878817 0.20692272 0.5680151 0.6095027 0.60837835 0.3598843 0.023035824 0.3876343 0.45983088 0.54207444 0.60161275 0.65342367 0.6558229 0.31300586 0.18289824 0.38587946 0.46761194 0.5254425 0.6091493 0.6659806 0.6841277 0.29711118 0.18683092 0.2059266 0.39332205 0.15474091 0.4183471 0.42344543 0.36053887 0.2600982 0.25608164 0.007893726 0.23791526 -0.25118253 0.32469806 0.29394883 0.2854175 0.32094896 0.38763702 0.3498984 0.095595434 0.15560189 0.405159 0.38889444 -0.036308173 -0.11253925 0.42753553 0.44527787 0.23029803 0.019870391 -0.19632228 0.21851477 0.39312688 0.47340024 0.4555507 0.46428573 0.4525476 0.4101752 0.32066765 0.4487877 0.5522197 0.53031087 0.56276274 0.62534285 0.5839014 0.5773972 0.30123138 0.28193066 0.29883158 0.51817524 0.5860317 0.6549443 0.6556313 0.2746147 0.28711355 0.29634887 0.30667946 0.42238915 0.559264 0.23031472 0.3126932 0.31628957 0.2544087 0.25058982 0.17116171 0.22151597 0.4088617 0.19793092 0.28182104 0.27195516 0.2077111 0.17576599 0.26356938 -0.18246232 -0.106936485 0.07259246 0.035739623 0.037521914 0.29079795 0.0320806 0.54570913 0.49989235 0.40451255 0.21955748 0.14992331 0.16376252 0.14556178 0.2074148 0.5932645 0.59020877 0.29689145 0.25876623 0.5765241 0.2657831 0.5199914 0.24426058 0.43540064 0.4256541 0.18304206 0.3429885 0.25844678 0.17282262 0.29541335 0.42079845 0.5093089 0.53946954 0.5775826 0.0300221 0.6528323 0.13476777 -0.15260667 -0.06742029 0.3115553 0.698651 0.71116126 0.26068774 0.26170087 0.0043148994 0.3978932 0.49914628 0.62532234 0.75088286 0.7619736 0.37878978 0.030817121 0.053503707 0.40839314 0.42169264 0.34615323 0.07628446 0.12718353 0.104837954 0.066988036 -0.022268489 0.18196842 0.19468816 0.40012676 0.20451954 0.20693354 0.43055296 0.089498594 0.18677713 0.19831125 0.46980083 0.47849903 -0.12835369 -0.030844603 0.47135854 -0.19928059 -0.09064056 0.09176651 0.4506424 0.47178197 0.47788262 0.3735883 -0.06386899 -0.006780416 0.120570585 0.3949346 0.47618735 0.47227246 0.43545398 0.34106815 0.27654094 0.32570875 0.33534664 0.27913108 0.2985867 0.5144495 0.5708512 0.63354504 0.64300287 0.3136137 0.5909527 0.59146094 0.5680816 0.16767971 0.29186213 0.26322147 0.27801782 0.2359208 0.3072488 0.47098127 0.1941024 0.1583901 0.21621674 0.30908358 0.29622722 0.21826544 0.18077442 0.14363979 0.024639305 -0.15004271 -0.1250939 0.12636913 0.03037237 0.2551765 -0.21847007 -0.38276154 -0.42159927 -0.05638791 0.03278203 0.03492777 0.21649662 0.022872701 0.48656148 0.37733975 0.16108187 0.037452094 0.08570403 0.18773317 0.23003373 0.562504