# vtk DataFile Version 2.0
Really cool data
ASCII
DATASET POLYDATA
POINTS 10754 float
11.366149 34.909927 -3.0216057
11.234076 34.911507 -2.2783759
11.013452 35.0078 -1.3863597
11.232098 34.8194 -0.56092924
11.277845 35.013557 -0.09860249
11.342934 35.50707 -3.167076
10.89824 35.804924 -2.1525006
10.764539 35.76014 -1.4513384
10.777882 35.622665 -0.84320956
11.119276 35.59869 -0.15344845
10.932904 36.2564 -2.1844141
10.714544 36.403767 -1.4840257
10.82266 36.391174 -0.72929454
11.225476 36.26836 -0.07077101
11.081316 36.9508 -2.0399914
11.038828 37.092278 -1.4606911
11.07634 36.985252 -0.7382514
11.872442 34.264515 -3.0770671
11.7512045 34.129944 -2.2841663
11.9257965 33.86123 -1.2944894
11.991139 34.00651 -0.3690007
12.057886 34.860275 -3.726348
11.708652 34.80068 -3.3384955
11.42912 34.73942 -2.8598526
11.489075 34.337036 -1.8250245
11.395337 34.581997 -0.29615858
11.695006 34.858887 0.14456284
12.009681 35.594322 -3.8149505
11.599801 35.42657 -3.424765
11.696389 35.430454 0.36249697
12.112414 36.079075 -3.7915251
11.862503 36.368233 -3.3578124
11.608707 36.271343 0.19473413
12.074848 36.95075 -3.0691667
11.5134535 37.22307 -2.1298482
11.388196 37.401283 -1.4730268
11.645198 37.314323 -0.5652919
11.872281 37.167706 -0.18448839
11.561878 37.562813 -1.6618371
12.789902 33.11066 -0.46204016
12.405505 33.455967 -0.9189261
12.587966 33.622204 0.11507504
13.0668125 33.78717 0.76867336
12.504845 34.9128 -3.988095
12.330486 34.873928 0.5946405
12.553758 35.56496 -3.9779904
12.627657 35.666073 0.8716737
12.897617 36.545834 -3.8265214
12.581595 36.982456 -3.31917
12.142523 37.486713 -0.41641265
12.264795 37.502876 -0.24414566
12.455147 37.701782 -1.1798362
12.13565 37.658024 -0.663241
14.303273 7.8936086 -33.974735
14.241493 7.7612257 -33.502106
14.271028 7.96491 -32.584373
14.196004 8.627179 -33.999645
14.040822 8.5293665 -33.567
14.09075 8.571586 -32.71109
14.388387 8.567625 -32.039265
14.271637 9.21602 -34.065357
14.069904 9.325431 -33.40786
14.13121 9.354253 -32.773907
14.337673 9.155675 -32.036884
14.170937 9.790286 -33.261208
14.215735 9.778354 -32.9515
14.421035 18.015158 -36.453735
14.453864 17.875605 -35.99684
14.223557 18.790922 -36.543205
14.339714 18.781174 -35.734085
14.374667 19.50008 -37.122726
14.258116 19.508703 -36.454243
14.323354 19.378485 -35.862087
14.33028 19.9077 -36.24694
14.393435 19.871218 -36.01183
14.359991 31.058311 -6.183309
14.355492 31.072794 -5.566409
14.395385 31.84862 -6.7506676
14.299379 31.581879 -6.3288093
14.185986 31.434553 -5.6684394
14.050984 32.399067 -1.0975173
14.270794 32.032345 -6.3863945
14.259014 32.331 -5.74964
13.738639 32.781376 -2.8129997
13.394129 32.706505 -1.1181921
13.4748335 32.647617 -0.15002543
13.906044 32.741985 0.49220753
14.144283 32.915394 1.038624
13.535747 33.759537 -3.5985777
13.642014 33.52617 1.0778437
13.79649 34.570026 -3.8906956
14.17316 34.740265 1.6975635
13.217977 35.640297 -4.1619654
13.121822 36.370083 -3.9110832
14.201591 36.71801 1.4253249
13.622534 37.217205 -3.1505048
13.064933 37.461525 -2.2120724
13.068176 37.739517 -0.71327233
14.279189 38.29961 1.3457873
15.023679 7.2659016 -34.043804
14.7530775 7.1936016 -33.55415
14.805936 7.208319 -32.80487
15.018295 7.2864747 -32.042698
15.048724 8.004011 -34.62129
14.63976 7.712173 -34.154083
14.449508 7.451003 -33.614216
14.507212 7.5053606 -32.672276
14.892319 7.8646154 -31.51486
15.068247 8.119686 -30.944656
14.849909 8.576043 -34.728104
14.466432 8.54595 -34.32412
14.680185 8.403081 -31.50704
14.990903 8.696171 -30.931818
15.134561 9.516201 -34.773087
14.627183 9.472706 -34.331425
14.694936 9.380039 -31.522175
15.112864 9.338647 -30.765417
14.733533 10.037677 -33.95931
14.666668 10.225803 -33.745895
14.655302 10.200742 -32.735493
15.182124 10.532005 -31.690966
15.30316 10.372582 -31.129917
15.150005 10.710503 -32.434765
15.336495 14.588253 -41.407227
15.323117 14.644517 -40.294422
15.328694 14.913793 -39.863094
15.3010845 15.343114 -41.29766
15.179763 15.572212 -40.655945
15.298338 15.585352 -39.679295
15.221212 15.64824 -35.498814
15.311614 15.647791 -34.656364
15.424693 15.965996 -34.24907
15.403505 16.166368 -40.917305
15.220136 16.114733 -40.1813
15.234141 16.302063 -39.851486
14.932503 16.40397 -36.897915
14.667365 16.790796 -36.225044
14.726294 16.629084 -36.000168
15.195785 16.774395 -34.657295
14.777028 17.653082 -37.120304
14.55058 17.565668 -36.51283
14.686771 17.333841 -35.731506
14.965321 17.708755 -35.028847
15.017996 18.619701 -37.940838
14.526214 18.555122 -37.207424
14.51884 18.497627 -35.530342
15.018967 18.491014 -34.94296
14.972402 19.59197 -37.890034
14.576975 19.388805 -37.455074
14.509717 19.52586 -35.54973
14.857248 19.40111 -35.17013
15.056351 19.942644 -37.814194
14.836589 20.229849 -37.236786
14.7128525 20.359373 -36.47143
14.858502 20.16406 -35.66827
15.052808 19.932209 -35.259056
15.20167 20.76267 -36.97071
15.090741 20.737083 -36.50562
15.162732 20.657713 -35.985966
15.10931 30.183743 -6.334288
15.067797 29.897547 -5.4490104
15.220834 29.845753 -4.8028297
14.934289 30.950289 -7.0331464
14.782752 30.656479 -6.470802
14.48192 30.746988 -5.741459
14.764145 30.736687 -4.6962266
15.344398 30.954628 0.965521
15.238137 30.861937 1.7603908
15.344243 30.857435 2.3382473
14.8586445 31.562107 -7.177588
14.44938 31.883535 -6.654531
14.600527 31.285868 -4.50769
14.959304 31.515867 0.66682965
14.981333 31.263746 1.7317514
15.106733 31.314444 2.2088697
15.273923 31.555262 3.0360088
14.929181 32.267685 -7.11051
14.468389 32.485973 -6.2785378
14.463418 32.95118 -3.0766332
14.079598 32.62744 -2.3395412
14.678106 32.585716 1.6194632
15.15517 32.234425 2.7395933
15.308577 32.085762 3.1573582
14.999251 32.771793 -6.86323
14.704591 32.781525 -6.3767524
14.71573 33.017586 -5.7600985
15.226445 33.219074 2.7891328
14.855679 34.636368 2.3757954
15.181144 35.9068 3.3946536
14.507742 36.888153 1.7627271
15.228694 36.543556 3.453535
14.99223 37.546055 -2.4239445
15.082416 37.353848 3.0533688
15.158119 38.396103 -2.1192477
14.476153 38.683987 1.8169974
14.77864 38.441906 2.34163
15.262772 38.337376 3.0529022
15.297123 39.23272 -1.2382598
15.087784 39.19546 -0.5698661
14.915579 39.262783 0.24516025
14.863641 39.254444 1.4954096
15.113536 39.14579 2.3609805
15.455398 51.683037 -15.272836
15.452924 51.95331 -14.899725
15.437299 52.32537 -15.256716
15.447819 52.319878 -14.999209
15.360087 7.2038126 -34.02982
15.46729 6.9751635 -33.404087
15.554045 6.947338 -32.70908
15.752625 7.048472 -31.989769
15.449807 7.9213686 -34.735252
15.410662 7.561739 -34.47908
15.42264 7.403204 -31.243465
15.454467 7.865559 -30.762348
15.528093 8.410494 -34.94441
15.358946 8.449392 -30.506102
15.743083 8.418453 -30.250826
15.96611 9.577996 -35.335205
16.008259 9.5143585 -29.78367
16.391788 10.473244 -35.329197
15.869661 10.587522 -33.976864
15.706468 10.385128 -30.537577
16.214771 10.263864 -29.607388
15.547656 10.707874 -33.16474
15.998117 11.476082 -31.682343
16.261587 10.911411 -30.117762
16.259495 11.641889 -31.268747
15.83758 13.964052 -41.884586
15.72125 13.809623 -41.435772
15.72329 13.837339 -40.642067
16.353817 14.239657 -34.50109
16.346563 13.844794 -6.1482296
16.29325 13.733005 -5.6600013
15.884639 14.491214 -42.164425
15.433618 14.328868 -41.670944
15.49072 14.312555 -40.284702
15.542052 14.883072 -39.32201
15.59096 15.101997 -34.788498
16.130796 14.813267 -34.063725
16.20094 14.41437 -6.0287943
15.992715 14.648287 -5.38449
15.899268 14.965604 -4.5746202
16.205696 14.844391 -4.0079365
15.823881 15.082799 -42.13545
15.482961 15.4773035 -41.56578
15.919717 15.281548 -38.31336
15.820969 15.65637 -33.863926
16.084785 15.547261 -5.778834
15.789478 15.4607935 -5.2518535
15.74658 15.518278 -4.576458
16.158016 15.553151 -3.815269
15.603627 16.100967 -41.07524
15.489378 16.663313 -40.237606
15.484671 16.515608 -38.16219
15.456127 16.590242 -34.305977
15.8042 16.34189 -33.862476
16.18596 15.975765 -5.752555
16.01219 16.136312 -5.346864
15.897563 16.270258 -4.5757484
16.152132 16.39668 -3.9472811
15.722766 17.12306 -39.68884
15.817221 17.781721 -38.608833
15.399209 17.264776 -34.434986
15.476943 17.19692 -34.274273
16.243904 16.712246 -4.966517
16.168823 16.705673 -4.603407
16.404411 17.761768 -0.3178605
16.388773 17.914768 0.3257373
15.380997 18.95701 -38.37466
15.420009 18.105679 -34.48539
15.943166 18.676031 -34.312614
16.353706 18.456846 -0.44438463
16.23704 18.851406 0.5243649
16.388998 18.675451 1.3304027
15.53037 19.499786 -34.86091
16.413376 19.05913 -0.8076024
16.328283 19.64326 -0.28418955
16.232733 19.533802 0.5566462
16.3387 19.36721 1.27361
15.663269 20.1829 -37.963493
15.361225 20.480915 -37.583973
15.501086 20.581373 -35.59334
15.730069 20.209896 -35.14963
16.373138 20.015722 -0.18124278
16.353449 20.068624 0.5643876
16.362007 19.93656 0.88534105
15.50782 20.881771 -37.025513
15.675446 21.01114 -36.433933
15.644687 20.838491 -35.874916
15.793446 29.2486 -5.5049396
15.936822 29.234446 -4.8072515
16.184492 29.30488 2.6617374
16.278713 29.282845 3.0275478
15.86285 30.038452 -6.866476
15.486272 29.67752 -6.096883
15.466928 29.472643 -5.498009
15.697118 29.494999 -4.584015
15.882555 29.605227 -4.2259965
16.131582 30.099974 1.0220803
15.843284 29.843641 1.8544806
15.93692 29.625238 2.5883195
16.139048 29.620258 3.1525233
16.259417 30.051111 3.683132
15.757738 31.127104 -7.57727
15.470631 30.73965 -7.2419066
16.030766 30.685675 -3.51729
16.178402 30.961018 -3.235146
15.738062 30.838572 0.50192857
15.53808 30.478045 2.5751245
15.717455 30.574686 3.2291894
16.200989 30.567562 3.7959042
15.64698 31.616568 -7.60387
15.305283 31.49096 -7.4843144
16.017195 32.015915 -1.2260463
15.592924 31.674143 3.4524093
16.09477 31.338428 3.8362627
15.73811 32.04761 -7.5753493
15.463874 32.243465 -7.3960323
15.539816 32.441727 3.307054
15.536222 32.84885 -7.044302
15.4171 33.255516 -6.4175415
15.432752 33.492134 -5.856957
15.839411 33.205456 3.3961244
15.374441 34.562668 2.9151957
15.573272 35.559258 3.4770286
15.826698 35.865135 3.7964134
14.999375 35.899284 -3.3457055
15.433428 36.39729 3.590345
15.724924 36.43765 3.7840557
[...]
POINT_DATA 10754
SCALARS features_00 float 1
LOOKUP_TABLE default
0.6420275 0.64987606 0.66843235 0.60178864 0.59919953 0.6557802 0.746256 0.7778162 0.7518208 0.6882931 0.79163873 0.83876145 0.82789433 0.7687964 0.81528056 0.80071104 0.7888689 0.5872109 0.5776784 0.5054011 0.4565161 0.6113325 0.62403023 0.6353757 0.5964966 0.5470073 0.5286511 0.6272135 0.643579 0.57771724 0.62192506 0.6573638 0.7201289 0.6677271 0.7668075 0.74539435 0.7212244 0.7024883 0.71689785 0.3711689 0.42759633 0.37034708 0.30962703 0.6011673 0.43916377 0.60760397 0.41337207 0.56561124 0.59028864 0.65385467 0.6154487 0.6068337 0.65139914 0.81297636 0.8395238 0.80119 0.8029063 0.8321771 0.7979787 0.69588673 0.74561346 0.7681182 0.7359604 0.6671568 0.70828885 0.6951771 0.5450414 0.5158052 0.65732753 0.62791777 0.72668386 0.73425204 0.70572 0.75332665 0.74705637 0.7205317 0.6770463 0.75232255 0.7388575 0.69119066 0.2827157 0.740679 0.68764204 0.39498052 0.34881353 0.2991203 0.22848244 0.18340468 0.6692575 0.22562206 0.57762086 0.16605279 0.56306124 0.54915714 0.29923034 0.43185115 0.56305665 0.50026846 0.43064034 0.7503886 0.79252267 0.7989211 0.721715 0.7265438 0.78245544 0.8176166 0.80983907 0.6521713 0.59513986 0.72065866 0.77303016 0.6323287 0.5642492 0.5850692 0.67280376 0.5906658 0.525755 0.6207819 0.61887443 0.6089035 0.48144978 0.46250373 0.49790922 0.7406255 0.6617109 0.58184755 0.6355578 0.58548856 0.5049799 0.36856085 0.37982714 0.37202263 0.46837825 0.48809516 0.43904585 0.30114284 0.3897593 0.38658488 0.39214227 0.45440662 0.47503942 0.445307 0.45763978 0.53512394 0.61411977 0.57638896 0.5410907 0.6390315 0.69577265 0.7021082 0.66216016 0.6564697 0.7331384 0.7605436 0.73641694 0.69634426 0.7321194 0.75073016 0.74402297 0.70112604 0.6306559 0.58417344 0.7412623 0.72501147 0.6808797 0.6049157 0.38894132 0.43638718 0.45754582 0.75167024 0.7519196 0.5799268 0.28315762 0.3766942 0.39935097 0.42368028 0.75080436 0.7310084 0.32607284 0.32557455 0.2058358 0.3290385 0.37841013 0.73972785 0.73056865 0.6785871 0.20051357 0.10324414 0.2559993 0.35825357 0.3004236 0.13417256 0.37187657 0.22608683 0.4692362 0.4652675 0.45101792 0.29428798 0.2831214 0.34900668 0.4616563 0.491073 0.8621861 0.8803429 0.9219887 0.91908014 0.71869624 0.7270466 0.7238958 0.6659845 0.67948806 0.70003307 0.6230073 0.57865334 0.64832515 0.546663 0.5305756 0.43555966 0.463235 0.30382538 0.43089 0.42077762 0.40655822 0.4792556 0.2703613 0.35460305 0.2576455 0.72180355 0.74603814 0.73805463 0.32013074 0.7575183 0.75188637 0.691949 0.75330263 0.68603605 0.48823255 0.3804522 0.3453617 0.7424909 0.7668911 0.77001965 0.7013229 0.6329529 0.598055 0.2651903 0.35587728 0.73719275 0.7820278 0.80306554 0.7410598 0.463194 0.37702662 0.27554873 0.378424 0.35625413 0.708564 0.72828376 0.74870455 0.7250204 0.24072218 0.18020016 0.40711293 0.39657956 0.66613245 0.67932504 0.42339295 0.451132 0.4628799 0.47267735 0.522648 0.46988893 0.5180194 0.51662564 0.62582123 0.4777904 0.53063697 0.5544075 0.550099 0.5519744 0.6615524 0.7081435 0.65206397 0.5405296 0.56800133 0.56742835 0.7066256 0.71663994 0.7124002 0.5748856 0.5182587 0.5510913 0.5655434 0.65950835 0.6499941 0.6042186 0.5290793 0.49496782 0.44155744 0.5093481 0.528845 0.54895276 0.5475209 0.64984757 0.69180626 0.4595257 0.40283632 0.34214216 0.4903841 0.5029331 0.52993894 0.6846844 0.71942127 0.12367571 0.4385919 0.4887855 0.6886361 0.725278 0.35195157 0.7232009 0.71172446 0.67125195 0.26431766 0.09820823 0.22707585 0.23383664 0.18671672 0.2861004 0.2736786 0.12803705 0.35762334 0.32485473 0.3569147 0.4388278 0.35239622 0.49572513 0.49969625 0.34663635 0.32089022 0.3637336 0.46526873 0.7421887 0.7044429 0.66215694 0.7965019 0.7744528 0.75304735 0.73530436 0.86084855 0.8431509 0.82654387 0.84153813 0.9150226 0.9428582 0.9328364 0.8932829 0.9244877 0.95429564 0.9419499 0.8111029 0.8337252 0.8481462 0.7215638 0.76365626 0.8133024 0.6280939 0.6750734 0.57773316 0.6204808 0.6444124 0.6313802 0.57006097 0.5660354 0.5472305 0.5873828 0.6186354 0.46836606 0.44964296 0.54648423 0.4235574 0.4167316 0.35246032 0.26446733 0.37366265 0.39174062 0.50891113 0.25221065 0.2963381 0.34127116 0.34940535 0.63491374 0.6186366 -0.016062126 -0.08605294 -0.016499802 0.1272756 0.2557661 0.76583856 0.7767128 0.7605579 0.7150733 0.59029925 0.65753376 0.40270254 0.25243872 -0.022302248 -0.033200324 0.7418691 0.7654034 0.75407535 0.69077206 0.6535293 0.6167276 0.0687145 0.2804197 0.69637156 0.72583544 0.6609681 0.5638777 0.26835757 0.68565893 0.6714145 0.6068634 0.55853015 0.4462052 0.2965355 0.33614913 0.31102613 0.62146306 0.6306468 0.5462805 0.34166688 0.3473602 0.38120693 0.67046666 0.6432357 0.32585385 0.18040481 0.20012692 0.07168755 0.3890059 0.6003122 0.5673982 0.5811564 0.2613582 0.37398356 0.38781607 0.4162162 0.4488803 0.5075358 0.69517547 0.6752496 0.6285505 0.42446652 0.10080525 0.4731937 0.40659356 0.50812733 0.55400544 0.5395118 0.68960446 0.6797284 0.6092079 0.5038422 0.53007555 0.4365455 0.49486297 0.55725276 0.5612878 0.5431235 0.3364182 0.6029571 0.54971457 0.4584157 0.5230816 0.5582092 0.5439478 0.5316473 0.5255283 0.5920017 0.62983334 0.64321697 0.48801565 0.51464254 0.58534265 0.51950485 0.46608806 0.5730011 0.5898221 0.5916269 0.54018176 0.42102146 0.3804596 0.57275605 0.580104 0.5756137 0.5569375 0.40517914 0.15452285 0.5611914 0.60655797 0.5381956 0.11276889 0.4893319 0.63608164 0.6259655 0.6217983 0.611326 0.6086534 0.19529448 0.35186994 0.23665094 0.23674005 0.3940803 0.38643825 0.29362038 0.3823952 0.4145968 0.4471789 0.434623 0.49524617 0.4167865 0.36849058 0.3255759 0.25378138 0.24507646 0.3598979 0.36165178 0.31792653 0.2549541 0.54417896 0.5185533 0.65659237 0.6582937 0.56764203 0.55616033 0.6831516 0.6778672 0.6878172 0.7734879 0.6966479 0.7943728 0.83014214 0.8297791 0.86737 0.844855 0.8485503 0.80390286 0.78716505 0.89900625 0.919255 0.94911826 0.8552733 0.8779138 0.89340186 0.89185274 0.7418872 0.75835377 0.83211625 0.8702962 0.59849745 0.65100384 0.7726017 0.792174 0.51675576 0.5384046 0.60581946 0.5640236 0.37673408 0.47273913 0.55038023 0.5349528 0.7060602 0.6848337 0.6279805 0.47978258 0.43631393 0.47062725 0.70925444 0.64212036 0.5361108 0.43678766 0.6752846 0.59161156 0.4612517 0.40369254 0.5099877 0.4555387 0.49819344 0.43349397 0.36651063 0.32088864 0.44302732 0.37928465 0.57957774 0.5625539 0.48994958 0.38577074 0.3985185 0.57905185 0.5662521 0.3919793 0.35719267 0.44194552 0.60997814 0.3553819 0.4339869 0.4667296 0.47837892 0.585305 0.27863646 0.30462873 0.4642632 0.49944195 0.50421333 0.46071735 0.4380346 0.22517024 0.11622219 0.22866823 0.7512276 0.76112443 0.7337574 0.6880957 0.45670766 0.47801656 0.47437564 0.42665738 0.45847374 0.431112 0.18100062 -0.15393156 -0.19627738 0.68505967 0.57592976 0.30275607 0.34290737 0.2413983 -0.0035611615 0.09987174 0.6515025 0.15475078 0.22393355 0.16386199 0.30130845 0.12534592 0.582631 0.16600168 0.16630487 0.5464062 0.44592977 0.17610231 0.49072993 0.1768662 0.2514526 0.67739546 0.6726086 0.49475104 0.49521258 0.2937917 0.44875658 0.69651616 0.6977432 -0.0104515515 -0.08453244 0.42332968 0.35558668 0.36147764 0.07464035 0.4909734 0.45710114 0.69185835 0.6861155 0.6590991 0.55788326 0.44374102 0.4458208 0.12094265 0.26866588 0.49964762 0.45811224 0.65577835 0.6262314 0.30015516 0.38361305 0.39381185 0.42284292 0.32887337 0.50349593 0.4797594 0.44921154 0.5527681 0.56414056 0.61403644 0.5153401 0.46070036 0.31308886 0.43536657 0.33983788 0.4094017 0.4316265 0.6126764 0.6357151 0.6805501 0.7976138 0.7850384 0.79080796 0.7801496 0.7611499 0.49920192 0.5002121 0.3902917 0.32948974 0.27298567 0.35448897 0.4341179 0.5393881 0.63217366 0.6615658 0.82365644 0.82488555 0.8082051 0.48224303 0.47882473 0.37281406 0.31909406 0.36290264 0.65711427 0.8799305 0.8940455 0.89157957 0.4545964 0.13555518 0.6063922 0.9072534 0.9209589 0.914675 0.4894936 0.51485205 0.5103513 0.52519983 0.34208173 0.56800336 0.46952593 0.19472292 0.4299089 0.008124888 0.4292215 0.41599733 0.41175115 0.44919544 0.44751936 0.4693991 0.48553705 0.48451275 0.46277717 0.42219716 0.22721258 0.36537156 0.33228284 0.23979619 0.22049455 0.24544615 0.30336136 0.41885662 0.6385169 0.55579185 0.603034 0.5388608 0.6625468 0.70583045 0.6920657 0.7253426 0.6685436 0.76721305 0.85596824 0.908646 0.98146784 0.7984241 0.81524634 0.9555559 0.88452256 0.79814297 0.5529736 0.53112423 0.43962535 0.42684582 0.57727146 0.6640473 0.6337789 0.59461486 0.57749593 0.50905424 0.44700378 0.36795545 0.24680471 0.27004248 0.5316545 0.50725293 0.7060748 0.7007407 0.42451632 0.38253456 0.29007187 0.23355961 0.22468287 0.43682683 0.47279382 0.49155024 0.73509055 0.7291018 0.37204698 0.34115982 0.25793973 0.20300317 0.12709446 0.21987331 0.7118821 0.6505042 0.3936578 0.37288427 0.33345556 0.5635998 0.5241633 0.45904908 0.4080282 0.38212186 0.21858999 0.28183338 0.344189 0.5644858 0.5139857 0.4565545 0.44546455 0.23012257 0.3880259 0.56832826 0.535983 0.39628816 0.2724768 -0.04615555 0.3771657 0.37114853 0.30782092 0.30784068 0.59256566 0.32008535 0.34800097 0.37064567 0.38517854 0.38025552 0.61041546 0.27734303 0.44463316 0.4118693 0.21993499 0.6939764 0.40783232 0.3086689 0.22889075 0.2738467 0.047305673 0.0022494271 -0.014013581 0.65668404 0.66014385 0.66175306 0.38844472 0.24865362 0.046479926 0.47453275 0.27054402 0.15609002 0.10513991 0.07713062 0.15237884 0.50785583 0.13975753 0.07811901 0.2743572 0.21189235 0.22500093 0.25061062 0.31677443 0.33102682 0.51370364 0.43331197 0.34945422 0.43228832 0.48392218 0.27214453 0.32532045 0.6580039 0.5520125 0.5597007 0.5721561 0.33444095 0.23373768 0.40038583 0.6928092 0.35661414 0.64027107 0.71485555 0.7135768 -0.10721058 0.41086215 0.4100694 0.6842731 0.6665379 0.22331849 0.32691228 0.7045547 0.7349297 0.74044204 0.05938846 0.034490224 0.40126595 0.63059616 0.5906613 0.3928129 0.023506895 0.33252925 0.155911 0.2538942 0.26345322 0.13441665 0.4298126 0.38523465 0.58125603 0.4341588 0.3612761 0.36175773 0.3498281 0.34552994 0.3591712 0.37476373 0.6541171 0.67923236 0.69925547 0.6411575 0.39790812 0.38511062 0.3369591 0.28612572 0.23797649 0.7052206 0.40544766 0.3935178 0.81556296 0.7910385 0.80034405 0.8056702 0.78322387 0.72909 0.3891496 0.12099676 0.07588219 0.7883563 0.789777 0.76923835 0.7236979 0.63349223 0.42811698 0.44476008 0.2519919 0.07256998 0.32313335 0.37649754 0.46426105 0.5554502 0.6790452 0.7978958 0.82953775 0.7676749 0.6522485 0.38362885 0.65936327 0.8436893 0.8755338 0.867771 0.77546465 0.4077597 0.37909812 0.9061746 0.9378431 0.93053746 0.42653835 0.41603088 0.32801056 0.9273311 0.95235264 0.9465296 0.45863825 0.12315175 0.4650955 0.4329284 0.30928004 0.388886 0.38483667 0.30343005 0.23758128 0.4097643 -0.022565491 0.4470971 -0.007529378 0.011270592 0.42858553 0.05007333 0.030135382 0.44708872 0.46050316 0.47022682 0.49174863 0.5211577 0.48596597 0.18069339 0.5794556 0.59755987 0.37981433 0.37736803 0.35611248 0.29701096 0.20890449 0.6446621 0.6430731 0.67121404 0.64504933 0.39086047 0.3595408 0.3114056 0.7045336 0.69717973 0.5677943 0.55982673 0.54343915 0.5019714 0.5537129 0.55128527 0.5386212 0.44418234 0.52109027 0.5292006 0.49704126 0.37373853 0.23214789 0.4776858 0.6034435 0.6112346 0.48529646 0.2590678 0.044292845 0.489676 0.549682 0.32291532 0.2542375 0.34662175 0.42789835 0.26584405 0.2690469 0.25517344 0.2941394 0.31055957 0.36988375 0.37986907 0.62511003 0.43360296 0.5055732 0.6193391 0.6157956 0.7899616 0.84170765 0.8867346 0.616602 0.71177095 0.8474468 0.9120889 0.44830203 0.48981148 0.8450738 0.32627827 0.76518893 0.51374507 0.49403843 0.4454923 0.4117786 0.42482027 0.60610205 0.61948514 0.5715567 0.5520636 0.53509176 0.67602247 0.45685065 0.49568337 0.6950164 0.12481317 0.16841711 0.23991793 0.66381514 0.32915843 0.18556811 0.10823022 0.6127571 0.37202045 0.13246393 0.23456681 0.31949374 0.41106164 0.57629323 0.5340953 0.48432225 0.49524286 0.26149476 0.033082075 0.42493835 0.4272417 0.25222224 0.25640672 0.2554105 0.21376285 0.4977131 0.40983588 0.2962278 -0.07937248 0.3511322 0.31987065 0.25744104 0.15736842 0.53694725 0.48702115 0.3011133 0.29595768 0.2819056 0.25779223 0.53087664 0.26940638 0.2698533 0.23656946 0.3465882 0.28173295 0.19496167 0.21481714 0.17944275 0.18353692 0.12870029 0.4957297 0.505913 0.22828054 -0.42326763 0.09451118 0.017140133 0.10279092 0.21348509 0.21517977 0.15739547 0.42357045 0.06286833 0.15313873 0.20026544 0.23826358 0.2355564 0.3401426 0.09544889 0.15858155 0.28038827 0.29667497 0.25897837 0.2660805 -0.0140582025 0.29301977 0.4584757 0.44779408 0.19622813 0.12233695 0.20401001 0.62581915 0.271461 0.6073327 0.5797257 0.34519333 0.40147507 0.6641307 0.18499687 0.4366724 0.7012976 0.68796706 -0.016139228 -0.06351175 0.41548914 0.17964044 0.60366833 0.6713383 0.7345562 0.7424142 0.7152642 0.19098938 0.38680726 0.38981473 0.6306218 0.49367437 0.39015922 0.10687181 -0.067385286 0.15018722 0.12975627 0.7227968 0.73844075 0.3412543 0.35847795 0.49000573 0.50001043 0.36608994 0.20139006 0.38780028 0.2876547 0.6684421 0.6952318 0.6973696 0.409513 0.40587735 0.25726387 0.176603 0.26450098 0.7054398 0.70490706 0.39821458 0.40745538 0.4097197 0.3491201 0.21329667 0.4010563 0.8073422 0.8154088 0.7523564 0.6559526 0.13481899 0.8073634 0.65602684 0.5587685 0.30186886 0.121944696 0.028068818 0.77595055 0.53075886 0.21293336 0.061878465 0.052157998 0.11960454 0.3838184 0.41560277 0.50886726 0.5298252 0.74453336 0.5356977 0.3146086 0.47189936 0.74238896 0.7040137 0.2738768 0.8263721 0.873783 0.8688042 0.78217196 0.36697665 0.33035833 0.66819406 0.90691894 0.94009876 0.9026984 0.82234806 0.37334013 0.5502096 0.63305783 0.6171941 0.35168922 0.19621278 0.19673005 0.4584693 0.55216926 0.20696655 0.38341326 0.47169703 0.3792992 0.34286863 0.27164537 0.38180655 0.42499155 0.075267345 0.12505451 0.37820077 0.02376248 0.43123424 0.3932293 0.13042496 0.10156707 0.43962187 0.42409918 0.45142102 0.45304924 0.6036584 0.36365286 0.69309735 0.6499247 0.39233646 0.38344908 0.3304026 0.25016144 0.72730553 0.7469002 0.74497604 0.72490454 0.6146455 0.6101895 0.5438197 0.7636989 0.5666133 0.58413994 0.60040855 0.5676011 0.4701942 0.5474302 0.5663214 0.2936652 0.4726794 0.5811025 0.6304606 0.50219154 0.62096155 0.5933058 0.5104442 0.54841375 0.38339406 0.35469872 0.44224554 0.417743 0.36669677 0.24450621 0.29603952 0.27952558 0.26229176 0.24222931 0.2992633 0.2845492 0.35665333 0.3823491 0.7307627 0.74644953 0.7961172 0.6466422 0.6862929 0.7395797 0.7896157 0.48293334 0.72491664 0.2928348 0.17467448 0.26394525 0.63958234 0.44181147 0.34927204 0.33834216 0.3351035 0.30998898 0.27560213 0.59931326 0.5649236 0.47853655 0.5726905 0.57598066 0.60129374 0.47789043 0.30827293 0.29142207 0.36003798 0.4048403 0.657887 0.31037077 0.058544874 0.0024275482 0.2605293 0.3273308 0.31029242 0.35873803 0.41830364 0.44333398 0.4209234 0.6298548 0.85823333 0.51679087 0.34775382 0.1826195 0.2088301 0.27482727 0.61755633 0.69197404 0.6937134 -0.13027692 -0.07267449 0.41187263 0.62130964 0.6703717 0.77418 0.66793096 0.6239086 0.15365231 0.5309634 0.63646877 0.6736151 0.6773621 0.40865755 0.35282767 0.24958876 -0.005090692 -0.07844366 0.35621688 0.5144001 0.59440124 0.6523341 0.54219073 0.09427827 0.50648016 0.5169977 0.6072731 0.6184367 0.43752196 0.40723836 0.41710228 0.4972363 0.48916668 0.37712038 0.5083758 0.3354811 0.25848034 0.3556841 0.17332996 0.0068081245 -0.051432468 0.06429812 0.18363714 0.11946977 0.066553876 -0.008828372 0.33048087 0.039307486 0.044192668 0.12173189 0.117274836 0.08788487 -0.03761366 -0.04362081 0.27737772 0.31884038 -0.038760334 0.08281609 0.22719055 0.20630522 0.12166287 -0.041120954 -0.033994243 0.18254846 0.14727858 -0.021326795 0.23752381 0.21597588 0.19167465 -0.043098543 0.1412092 0.08238329 0.26001772 0.24102125 0.06663034 0.40789822 0.48865682 0.4720949 0.20623009 0.103609174 0.20365 0.5710849 0.55583656 0.5259505 0.4910768 0.065342315 -0.014761098 -0.010449363 0.37932014 0.52071714 0.07816516 0.6533557 0.5198766 0.49726668 0.46110076 -0.049562994 0.39988023 0.6186323 0.46591797 -0.041687123 0.3787143 0.60521626 0.72005594 0.7069477 0.15118575 0.36956248 0.3785868 0.12712538 0.140849 -0.034892075 0.66463476 0.72305053 0.7171259 0.28942308 0.2840032 0.20262027 0.24054179 0.2311692 0.65858394 0.6830003 0.6823437 0.56719905 0.23511109 0.22726618 0.36375827 0.40401477 0.1333178 0.13947484 0.2398746 0.20768149 0.34477246 0.366866 0.31158236 0.31176227 0.2505803 0.30320498 0.2997812 0.15365599 0.2813439 0.33128497 0.36957705 0.31677574 0.28630394 0.26508886 0.30400506 0.1880263 0.7862103 0.73757017 0.6669184 0.53353846 0.41443038 0.21935184 0.26371795 0.05766791 0.004282981 0.759685 0.49134862 0.40891194 0.023580277 0.052762434 0.07447594 0.65676475 0.39398062 0.12063332 0.06497478 0.1606076 0.3539938 0.6479628 0.4326653 0.3680458 0.15907937 0.65520805 0.5333311 0.1592494 0.04689867 0.70275927 0.7485553 0.70723164 0.67573225 0.18048385 -0.07461233 0.46216363 0.6469836 0.66543746 0.6630391 0.7952163 0.83469945 0.8223465 0.781827 0.26072156 0.6459193 -0.6440447 0.6182916 0.23376909 0.5912414 0.6363708 0.31471884 0.17858562 0.4559695 0.34231853 0.32779753 0.1995068 0.064589806 0.3318965 0.45951608 0.60810757 0.35485822 0.69730854 0.3811059 0.37890753 0.33756125 0.28078514 0.17662887 0.5247884 0.7086743 0.79047126 0.7674978 0.6109655 0.5976683 0.5780961 0.3506806 0.7524349 0.8048727 0.8046113 0.5667561 0.58898413 0.1989045 0.40607727 0.5352502 0.6181499 0.6179199 0.47770098 0.4946324 0.5986303 0.37640536 0.41243458 0.5184495 0.3783989 0.4657783 0.36789542 0.37081048 0.35153404 0.35258818 0.27319828 0.39486694 0.30888817 0.5025451 0.33666912 0.3234237 0.33242905 0.59415835 0.3574736 0.41779003 0.53056026 0.52021253 0.6286931 0.28671002 0.29268986 0.29567626 0.35528263 0.5895117 0.26888552 0.5661574 0.5504041 0.28935772 0.5248422 0.23093036 0.3821013 0.33293763 0.40773496 0.40130672 0.4069028 0.58786535 0.6609714 0.73329556 0.022780478 -0.010798812 0.35767534 0.44860658 0.71685135 0.7451365 0.3421143 0.38718253 0.41961375 0.5618145 0.59629023 0.63328016 0.29259056 0.29464042 0.24850841 0.014954805 0.015835002 0.7603154 0.768699 0.18038034 0.3902502 0.3671132 0.56584287 0.43726495 0.74518645 -0.08754325 0.27234823 0.47678447 0.45967135 0.047613353 0.05405591 0.6656667 0.23652646 0.2398662 0.41423404 0.40991554 0.3653512 0.03143169 0.52656037 -0.24679781 0.13242817 0.20024812 0.38226074 0.32939205 0.34361523 0.2509199 0.096990354 0.0891351 0.00020992756 0.434645 0.46773666 0.43472737 -0.28270942 0.18638012 0.31457853 0.24468616 0.23395626 0.10464081 0.098806486 0.10321071 0.06508796 0.006197624 -0.23706916 -0.2903658 -0.0071532275 0.34115452 0.31923845 0.38106436 0.4222747 0.2510162 0.15468532 0.23552215 0.12007594 0.06565996 0.0017546993 0.05244064 0.09703189 0.39353156 0.3496732 0.29702678 0.18645702 0.009904981 0.10208417 -0.027284093 0.021427967 0.39088145 0.3094462 0.15767463 0.124786995 0.39050817 0.2757673 0.17558257 0.44471997 0.37253338 0.3390095 0.013213382 0.21939263 0.009194989 0.3694056 0.1863755 0.2611215 0.47973356 0.5045599 0.44573218 0.42821616 0.29659086 0.27985093 0.4684221 0.5034807 0.528669 0.33029562 0.07651341 0.018111989 -0.052316844 -0.12742788 0.5544733 0.46884298 0.50353086 0.47781438 0.3537001 0.3301472 0.06797467 0.3227523 0.52639747 0.6574234 0.44936687 0.38320333 0.30940977 -0.07745333 0.34874016 0.1852729 0.06740411 0.012530571 0.07950082 0.12426764 0.64010817 0.6740844 0.08378253 0.18259919 0.16530053 0.25667542 -0.20610139 0.5504095 0.084678054 0.17971295 0.13341898 0.15165716 0.22290596 0.11237541 0.13270947 0.13426317 0.19324031 -0.05018139 0.19830306 0.08297096 0.38533527 0.3969068 0.16356985 -0.1545858 0.18017086 0.21864891 0.34453374 0.36635035 0.37552106 0.16295947 -0.050119862 -0.03998293 0.23221228 0.3288969 0.36427408 0.3148885 0.17499661 0.14921913 -0.075841986 0.486494 0.4240073 0.2710624 0.27862647 0.4064709 0.30990067 0.2459687 0.07287215 0.022794813 0.07677616 0.57706344 0.60921824 0.6029429 0.5014196 0.36654162 0.32466474 0.28930905 0.26052043 0.03441572 -0.010372754 -0.041451894 0.07966285 0.066446714 0.6399586 0.666277