# vtk DataFile Version 2.0
Really cool data
ASCII
DATASET POLYDATA
POINTS 7797 float
-32.59398 -3.0049458 19.16036
-32.679714 -3.2790241 19.708542
-32.666325 -3.2857654 20.181837
-32.677227 -2.8184285 19.149427
-32.704025 -2.7349374 19.65116
-32.654114 -2.753786 20.291418
-32.593903 -2.142147 19.354187
-32.71324 3.020552 14.374005
-32.659195 2.8343647 15.246588
-32.714447 3.5469744 13.740592
-32.91527 3.7565415 14.532037
-32.772724 3.7422335 15.365677
-32.61572 3.6332905 15.9662485
-32.835674 4.4517927 13.929048
-33.109142 4.54757 14.642018
-33.062187 4.6852946 15.331865
-32.811317 5.402893 13.948203
-33.110573 5.469601 14.735003
-33.07204 5.437599 15.408391
-32.80019 5.4772105 15.973642
-32.704853 6.0597215 13.998744
-32.883575 6.0865893 14.517591
-32.871098 6.133811 15.313502
-32.55758 6.9840097 15.262978
-31.849916 -6.8715396 2.1150568
-31.943953 -7.0611887 2.7063828
-31.863852 -7.0913053 3.3821037
-31.89621 -6.3784614 1.8451042
-32.203186 -6.4449086 2.571861
-32.216827 -6.379799 3.2940063
-31.874266 -6.4841294 4.059862
-31.941124 -5.7175345 1.8035144
-32.24477 -5.568199 2.5781353
-32.191086 -5.567683 3.3714676
-32.039913 -5.674999 3.9695714
-31.928007 -5.0158443 2.1555986
-31.944464 -4.7887344 2.5872486
-31.806082 -4.533602 3.4229116
-31.792261 -4.9420624 4.0624886
-32.08182 -3.9552524 19.167206
-32.206184 -3.9683838 19.612438
-32.205715 -3.9877632 20.351454
-31.896984 -3.870596 20.890533
-31.578608 -2.9056966 5.280974
-31.779943 -3.253278 18.341524
-32.30568 -3.2328372 18.893118
-32.4854 -3.5472038 19.406574
-32.47249 -3.4902806 20.495167
-32.14146 -3.347127 20.929237
-31.59136 -2.5667708 4.752377
-31.615196 -2.4498723 5.491362
-31.630468 -2.0375519 5.9284987
-31.86626 -2.6485322 18.30875
-32.279537 -2.4971633 18.804926
-32.466637 -2.6502953 20.542847
-32.15941 -2.7083054 20.885048
-31.580576 -1.6849393 4.76012
-31.674208 -1.5028632 5.541572
-31.60246 -1.5598526 6.3490443
-32.19716 -1.6689769 18.966446
-32.266556 -1.7546364 19.545202
-32.315388 -2.0672967 20.337664
-31.704489 -0.18440297 18.510466
-31.52623 0.4395625 11.1837635
-31.669588 1.1124785 15.783191
-31.761497 0.39619702 17.997957
-31.706938 0.5937219 18.144512
-31.55718 0.29720855 18.959341
-32.106766 1.6681325 14.609007
-32.155178 1.8236312 15.798699
-32.2624 2.117507 16.279926
-31.652233 1.0786961 17.85437
-31.795942 2.5282853 12.889533
-32.418625 2.786614 13.699092
-32.430256 2.2517142 14.469005
-32.47774 2.850795 15.884312
-32.226288 3.5531924 12.824126
-32.532013 3.4239426 13.20997
-32.414772 3.859057 16.360804
-31.694202 3.1774666 17.176638
-32.233242 4.4125566 12.903988
-32.537674 4.216273 16.04736
-31.95808 4.671894 16.875948
-31.983887 5.6895447 12.9978695
-32.478134 5.6479635 13.370637
-32.507034 5.504435 16.330774
-32.065228 5.005796 16.681217
-31.980705 6.5050225 13.090459
-32.307556 6.3458643 13.483406
-32.435894 6.240513 16.036423
-31.809557 7.2227206 13.143103
-32.049152 7.4713845 13.6967325
-32.325863 7.521916 14.549082
-32.28984 7.399071 15.35825
-31.973192 7.514865 15.9061575
-31.920216 8.428081 14.056635
-32.08687 8.401666 14.567086
-32.016663 8.373416 15.224719
-31.761086 8.062324 15.8357725
-31.737625 8.873226 14.206964
-31.802828 8.91816 14.622954
-31.806602 8.847307 15.089987
-31.274052 -7.5739465 2.9374552
-31.205233 -7.6103683 3.2160263
-31.273005 -7.0623617 1.8516457
-31.576075 -7.3591056 2.6473634
-31.567621 -7.429478 3.199501
-31.290573 -7.254458 4.1902223
-30.858984 -7.2052913 5.337653
-30.817461 -6.850082 5.8590717
-31.214575 -6.3446507 1.2607443
-31.556934 -6.4722476 1.5198215
-31.30204 -6.736359 4.4801006
-31.238127 -6.4027185 5.3626714
-30.70204 -6.623258 6.1795053
-31.246737 -5.649969 1.2337058
-31.518978 -5.4187617 1.4701338
-31.307734 -5.6911755 5.0836606
-31.051348 -5.3211904 5.8160553
-31.052477 -4.691666 19.598614
-31.109858 -4.7863493 20.333078
-30.94369 -4.7360945 21.021626
-31.013319 -5.0878797 1.3506354
-31.362928 -4.919695 1.7104923
-31.271334 -4.301651 4.386878
-31.083727 -5.0247087 5.273262
-31.349257 -4.2528467 19.012592
-31.577238 -4.434762 19.620089
-31.550678 -4.4662066 20.497984
-31.093367 -4.3162084 21.315676
-30.804258 -4.2103214 21.597027
-31.489086 -4.1719017 3.8082447
-31.287243 -3.7407625 4.2831683
-31.066954 -3.1977553 6.2875457
-30.64131 -2.859039 13.40168
-31.017942 -3.2092025 18.059711
-31.426207 -3.5361898 18.489897
-31.477001 -3.4342432 21.355963
-31.068167 -3.423653 21.608097
-30.94173 -2.5182402 3.7483096
-31.390768 -2.5272062 6.440377
-31.090681 -2.6724381 7.421651
-30.990868 -2.0588245 8.314434
-30.866013 -1.9757862 8.936213
-30.703901 -2.3477907 12.487325
-30.804146 -2.4076984 13.504488
-30.727577 -2.422613 14.302339
-31.106869 -2.336071 17.833975
-31.360435 -2.8805597 21.361835
-31.220306 -1.588848 4.103859
-31.418291 -1.3082979 4.512244
-31.442827 -1.3641075 7.417979
-31.272537 -1.2509733 8.582112
-31.412651 -0.87491965 9.506261
-31.229652 -0.8925221 9.999443
-30.935629 -1.3562839 11.624545
-30.882421 -1.5804386 12.485218
-31.603369 -1.6203264 20.553467
-31.701729 -2.033052 20.91229
-30.999296 -0.9041233 4.11145
-31.327322 -0.7551576 4.707596
-31.336401 -0.40153652 5.5563865
-31.396181 -0.51374316 6.2807446
-31.45305 -0.48185343 7.512386
-31.40176 -0.63241154 8.708449
-31.43474 -0.44037068 9.209271
-31.321823 -0.81090426 10.284864
-31.34677 -0.28095698 11.421262
-31.309895 -0.046637945 12.090662
-30.80269 -0.8321414 13.3315
-30.83015 -0.08705336 16.364288
-31.20407 -0.39331645 20.139038
-31.156473 -0.056210756 5.551398
-31.017715 0.3749534 6.4636593
-31.223442 0.059671804 7.4001937
-31.357615 0.16744903 8.60077
-31.367258 0.4280004 10.490426
-31.410336 0.29875335 11.472602
-31.542728 1.0877634 13.880516
-31.355944 0.9425243 14.571481
-30.888704 0.45455143 20.273052
-30.810356 0.8932669 6.760954
-30.669615 1.3474936 7.4642453
-30.920874 1.1638212 8.454383
-31.019194 1.3975375 9.223266
-31.162613 1.5822812 10.386885
-31.330597 1.2807072 11.57344
-31.31156 1.6263716 12.528505
-31.228045 1.2983067 13.62261
-30.732803 1.2654564 20.29111
-30.61064 1.8237253 8.314706
-30.803957 2.0078275 9.794207
-31.011477 2.0138276 10.409833
-31.278706 2.649081 12.034583
-31.142782 2.5309956 17.945599
-31.031332 3.7803135 12.0108795
-31.41703 3.3349307 17.385986
-30.598997 3.0202835 18.814548
-31.354118 4.379192 12.181763
-31.656267 4.8484674 12.559936
-31.618328 4.9219522 16.95931
-31.521723 5.6194353 12.547903
-31.675646 5.62499 16.91901
-31.056976 6.350606 12.434204
-31.355114 6.654293 12.622896
-31.204039 6.1814966 16.798384
-31.207357 7.324679 12.818812
-31.642433 7.716734 16.094513
-31.299467 8.080291 13.312407
-31.42326 8.551442 13.690841
-31.683872 8.453219 15.641327
-31.36098 8.2468605 15.9685
-31.314941 8.978158 14.014357
-31.324932 9.207524 14.606811
-31.406376 9.017597 15.265936
-30.549408 -7.6915746 2.8043792
-30.616913 -7.7637134 3.333588
-30.320805 -7.7799582 4.356183
-30.161818 -7.62474 5.4849844
-30.56958 -6.733344 1.3295805
-30.379522 -7.2157583 1.8323828
-30.630947 -7.3850846 5.4841995
-30.35533 -7.038563 6.291344
-30.588013 -6.2459774 1.0833381
-30.466375 -6.6891813 6.4087625
-29.912653 -6.389096 7.3483686
-30.425617 -5.6551046 1.1031067
-30.108202 -5.3880672 7.1978946
-29.932976 -4.7312293 18.864077
-30.48609 -5.129704 20.680681
-30.351286 -4.8885436 21.38614
-30.679731 -4.9946322 1.3422774
-30.48091 -4.7895436 1.4647973
-30.481287 -4.280868 6.399302
-29.978388 -4.990369 6.9939246
-29.814754 -3.7086382 13.324516
-30.777533 -3.8881361 18.267397
-30.207354 -4.519824 18.772984
-30.360268 -4.3517733 21.705652
-30.321245 -3.4852126 2.59154
-30.413189 -3.4418995 6.882606
-29.969748 -3.2386842 11.856768
-30.36407 -2.9962745 12.631412
-30.156986 -3.3720953 13.867293
-30.130085 -3.2325637 14.38965
-29.80649 -3.4660802 17.454256
-30.326036 -3.6115134 21.798742
-30.246275 -2.6141899 2.8151867
-30.22901 -2.220902 10.408015
-30.50131 -1.9974611 11.850331
-30.303259 -2.5014658 14.9697
-30.51961 -2.3720431 21.38667
-30.44107 -2.9095004 21.666363
-29.949928 -1.8967351 2.9450612
-30.70417 -1.2759991 3.6949
-30.537745 -1.6733857 10.879148
-30.500422 -0.98227024 14.926999
-29.976198 -0.8707123 16.7802
-30.27137 -1.6066908 21.211117
-30.64178 -0.76524866 3.893509
-30.218264 -0.009321965 21.05688
-30.432487 0.17533311 4.7515597
-30.527828 0.5330746 5.3747993
-30.292805 0.574701 20.989656
-30.344196 1.0075282 5.7612605
-30.325584 1.3640306 6.4696636
-30.484133 1.5120894 20.476435
-30.055788 1.3665468 21.00397
-30.183672 2.0246603 7.8082547
-30.342972 2.2402644 8.664842
-30.130833 2.56469 9.16531
-30.23847 2.1018426 20.358238
-30.029922 3.3333068 10.7634
-30.174442 3.0244074 19.555344
-29.864332 3.2362237 19.925526
-30.187206 4.788488 17.821924
-29.819134 3.7969468 19.500795
-30.503975 5.512576 17.459867
-29.990856 6.818283 12.131561
-29.7938 5.7761803 17.543554
-30.41477 7.158056 12.377345
-30.52546 7.2386456 12.579149
-30.323788 7.6683755 16.446337
-30.274977 8.261782 13.014137
-30.661411 8.552602 13.421396
-30.643202 8.297277 16.071362
-30.766811 8.933684 13.798383
-30.781427 9.269846 14.574211
-30.622812 9.058188 15.291826
-30.57792 8.766024 15.746886
-29.27338 -7.771175 2.7975168
-29.24823 -7.9565525 3.8211148
-29.323578 -8.025876 4.3875623
-29.70997 -7.839023 5.7819242
-29.048103 -7.6557145 7.4628906
-29.56699 -7.0852594 1.8264794
-29.448627 -7.307972 7.385433
-28.968092 -6.9610324 8.534374
-29.726835 -6.3258367 1.3025873
-29.43066 -6.4540224 1.5217556
-29.359 -6.4475155 8.282373
-28.648628 -6.2818503 9.258125
-29.738686 -5.421265 1.3412778
-29.554342 -5.206523 1.5009096
-29.413425 -5.6244535 8.184146
-28.959333 -5.133441 17.820229
-29.264772 -5.194262 18.579872
-28.859877 -5.4891047 19.075348
-29.524704 -5.268599 20.364902
-29.713299 -4.834387 21.526817
-29.57151 -5.0128713 1.5478994
-28.861017 -4.453183 12.914448
-29.726809 -3.7577426 13.470213
-29.383385 -4.7019634 17.781511
-29.65779 -4.3477683 21.762272
-29.695107 -3.6721277 2.1277843
-29.657635 -3.5100665 2.4771721
-29.361223 -3.1604068 10.411059
-28.8844 -3.5234182 15.739749
-29.226025 -3.113652 16.661707
[...]
POINT_DATA 7797
SCALARS features_00 float 1
LOOKUP_TABLE default
0.74765193 0.8004497 0.8272811 0.7471293 0.78108144 0.8063261 0.7218579 0.40089947 0.40920046 0.40583542 0.44844747 0.45480752 0.4168076 0.46625435 0.50671136 0.5162153 0.4878664 0.5568956 0.54515177 0.49611384 0.5012802 0.5555813 0.5578483 0.5892338 0.8616688 0.79616344 0.69800615 0.8917316 0.8528443 0.7666831 0.6111777 0.8700421 0.83657944 0.68395066 0.55424744 0.8020485 0.73188853 0.48643363 0.41595453 0.7125423 0.7832757 0.8368478 0.811013 0.25736192 0.6001305 0.70372677 0.76999795 0.83928216 0.80844426 0.3168582 0.3187455 0.34958106 0.60542226 0.68504465 0.7975042 0.77332735 0.4174439 0.41457582 0.35486972 0.6165986 0.6734667 0.74174535 0.27239528 0.17134956 0.22531323 0.19536243 0.22343211 0.2646718 0.309052 0.32963276 0.31989285 0.19333738 0.25379872 0.34046465 0.35305798 0.38862517 0.35293284 0.3693475 0.38197404 0.23676953 0.38515776 0.4351149 0.33404657 0.37017703 0.41706586 0.45243004 0.37485385 0.3995976 0.43690753 0.4834544 0.451752 0.5626843 0.66099 0.62286323 0.5887897 0.7308488 0.76254654 0.75043464 0.68496597 0.7891149 0.8198898 0.8084949 0.70899963 0.6664642 0.8614545 0.7739705 0.6994659 0.561918 0.40939006 0.35407394 0.8610578 0.8895261 0.52161276 0.39040148 0.31550536 0.79918706 0.8078438 0.37707108 0.249288 0.64029825 0.7552204 0.75713664 0.6819782 0.69949687 0.24354157 0.26445743 0.5930375 0.72301626 0.80114156 0.7508997 0.7134536 0.32729554 0.21550572 0.16542329 0.3075176 0.44500715 0.56137073 0.73257416 0.6719922 0.37224334 0.25590143 0.18394351 0.18435584 0.14259043 0.22282283 0.29723614 0.32598576 0.38814825 0.6730367 0.42218244 0.4395442 0.27200148 0.2167673 0.19932754 0.17716117 0.1381034 0.174394 0.5900947 0.65019184 0.41354176 0.4410891 0.42126524 0.38417685 0.30234998 0.23901232 0.23216036 0.17172383 0.14563623 0.09951513 0.14080703 -0.016661353 0.33755904 0.39316738 0.33948123 0.32258466 0.28791 0.23190172 0.14244737 0.17993155 0.19110014 0.3600722 0.31531465 0.321809 0.31808156 0.3031832 0.22377819 0.09951676 0.07775932 0.164449 0.36346778 0.33565286 0.2909502 0.21768644 0.17259109 0.1310301 0.26441267 0.19374512 0.2259684 0.3023566 0.33525583 0.2900381 0.32135165 0.31132263 0.3152071 0.35805213 0.28346452 0.41064656 0.595716 0.54276633 0.67020965 0.7510878 0.6987623 0.76210666 0.84132004 0.8260666 0.67970103 0.6076622 0.5006824 0.36581707 0.82754093 0.8232386 0.3860213 0.31475183 0.7819218 0.29765236 0.23791273 0.7015964 0.17213894 0.37663406 0.7222324 0.72145283 0.616566 0.54606175 0.044030115 0.11980087 0.24700281 0.42488262 0.38999057 0.67971325 0.28875932 0.061095998 0.18537813 0.2653558 0.2886065 0.27380645 0.16771954 0.5939163 0.20456505 0.111464076 0.15776992 0.26077265 0.47090667 0.52814454 0.17554563 0.36262646 0.13216147 0.07235403 -0.15537922 0.33412993 0.37480882 0.37269413 0.33477235 0.3211765 0.3868571 0.28933954 0.28515556 0.3719198 0.38905883 0.35208416 0.34483415 0.33837804 0.36292905 0.1575095 0.31200194 0.3372153 0.11261997 0.27910936 0.15203677 0.30304822 0.14052057 0.35103643 0.3673189 0.45985252 0.46116066 0.56363857 0.6598521 0.6769631 0.8190328 0.81372416 0.7444699 0.63338906 0.5041809 0.4372021 0.33042 0.24011624 0.6914633 0.261492 0.128983 0.69100857 0.6600812 0.20036715 0.026333645 0.5956798 0.5259772 0.18340467 0.21461567 0.30301076 0.3477236 0.6413443 0.6636145 0.48791575 0.05425799 0.23371762 0.2113994 0.58483243 0.2539954 0.21352604 0.03878925 -0.15680599 -0.04822439 0.49735582 0.13416964 0.37722865 0.39661288 0.20376644 0.19453144 0.19308968 0.29444763 0.23022625 0.26999098 0.3585866 0.21703266 0.21139064 0.3820221 0.23207678 0.36223832 0.38080892 0.3921986 0.3696566 0.2971705 0.3668554 0.38631505 0.26789168 0.3187859 0.1533399 0.10349558 0.0971521 0.13222688 0.35198802 0.1354374 0.390013 0.420469 0.5241802 0.44088006 0.5369314 0.59967184 0.6848664 0.38587728 0.37030172 0.3650672 0.40882045 0.43076193 0.40570104 0.378559 0.41293448 0.47417295 0.5462632 0.60083574 0.33165985 0.39632353 0.41623828 0.41940397 0.37760615 0.34772938 0.41096136 0.48282894 0.5559664 0.60120004 0.583554 0.19891307 0.3653279 0.38778389 0.3704046 0.2855481 0.34477812 0.43141556 0.5877546 0.56986976 0.594805 0.47913432 0.21680847 0.22508094 0.098081455 0.019906148 0.069637895 0.24365507 0.34323794 0.22920713 0.29838395 0.3173324 0.4573624 0.5322987 0.5571995 0.008100998 0.5873457 -0.037286527 -0.048193295 0.518229 -0.07185192 -0.12348351 -0.17276636 -0.07857016 0.11417794 0.26511586 0.5005407 -0.10112596 -0.016429398 0.06791276 -0.16977344 0.47413954 0.14092886 0.316032 0.31509352 0.08555214 0.27736413 0.2937752 0.13030156 0.24425572 0.10785186 0.3602195 0.41643894 0.5223463 0.41628408 0.07531367 0.3633525 0.67407703 0.6753806 0.5927173 0.43788117 0.0928291 0.33376405 0.3920978 0.7122325 0.6307531 0.31648934 0.37201262 0.3426235 0.15712972 0.09949927 0.2025779 0.22272457 0.09475595 0.32963952 0.37832254 0.3929416 0.28091767 0.26202324 0.22769505 0.40893155 0.40695623 0.35676286 0.35256016 0.35685304 0.3450637 0.32841662 0.36047918 0.39144266 0.37309092 0.34356833 0.3566245 0.3893309 0.45463747 0.23284766 0.28133762 0.33772773 0.3739999 0.56179786 0.55906516 0.5142555 0.043431226 0.18375811 0.31419444 0.5496701 0.5145999 -0.063234314 -0.03696814 0.50782526 0.08401764 0.26044595 0.24273443 0.42566925 0.38699174 0.46607968 -0.15813836 -0.007679576 0.33340847 0.32446584 -0.090845436 -0.18479604 -0.1401779 -0.18903424 -0.15946488 0.1850952 -0.20157301 0.16636851 0.17883256 0.26365077 0.15415794 0.16086978 -0.017839061 0.13634513 0.10997921 0.23144272 -0.042307675 0.36013645 0.31748235 0.45362306 0.5134654 0.11903354 0.16602093 0.25458515 0.2790642 0.66717875 0.47593212 0.18633594 0.19331759 0.18707575 0.29492775 0.3616137 0.7213707 0.6995641 0.64373565 0.5501739 -0.041470066 0.30993265 0.6294795 0.29027057 0.2608149 0.2688757 0.1863273 0.3077156 0.2300852 0.2119886 0.337494 0.29329553 0.2533108 0.36857736 0.32924154 0.29274812 0.6120517 0.6117172 0.56009287 0.5771193 0.3155265 0.32603246 0.32365602 0.29563797 0.22542776 0.3035962 0.3458088 0.3939775 0.44635892 0.13795738 0.47740912 0.46497613 -0.07299249 0.033208866 0.09974723 0.4391188 -0.07443467 0.38946623 0.7010225 0.6914472 0.03613162 0.2638947 0.65431833 0.67540556 0.6691123 0.5305416 -0.32375994 -0.18809837 -0.23719373 0.22808458 0.6312581 0.6407521 0.63318276 0.52961683 -0.06870535 -0.12319515 0.10283239 0.23655403 0.31513083 0.56674266 0.5134634 0.48528418 -0.23860237 0.13544315 -0.13508894 0.0857812 -0.14629155 0.010032594 0.11951397 0.08639406 -0.14785586 0.15690732 -0.14099404 0.4349904 0.17385451 0.6135705 0.6167049 0.17609182 0.025647774 0.6612352 0.6328951 0.5681268 0.4977178 0.36658615 0.06229336 0.5659274 0.54797924 0.30539337 0.35921672 0.15494092 0.42078942 0.347903 0.19783305 0.46157992 0.40985668 0.22852014 0.22759613 0.40784508 0.30233738 0.2667979 0.24589713 0.19385941 0.24900244 0.2895285 0.27527592 0.670806 0.680854 0.5714331 0.6281972 0.6677174 0.68117326 0.6749885 0.5110034 0.51866645 0.57968116 0.59689796 0.6229735 0.6197262 0.65148866 0.4447031 0.61968267 0.47748435 0.54529727 0.53497094 0.52022594 0.5415555 0.5733135 0.6396369 0.6095257 0.5265601 0.30124146 0.4286518 0.40102556 0.43355897 0.43255955 0.22484374 0.2573849 0.25629726 0.28429702 0.6178046 0.5750896 0.5049385 0.36028072 0.15333727 0.16038707 0.34376872 0.3466779 0.38605306 0.58170044 0.1680631 -0.07653172 -0.0006910763 0.08985823 0.37578338 0.41587895 0.15296867 0.1407163 -0.063236214 -0.055186175 0.39784896 0.35147023 0.6545445 0.09538326 -0.07243496 0.3296473 0.6688515 0.6977582 0.6594783 0.5355916 -0.060386032 0.18112335 0.6151966 0.643355 0.52736 0.3179378 0.09927836 0.14256985 -0.22694388 0.25870162 0.38659775 0.5848772 0.60583854 0.3518622 0.08686006 0.21188655 0.06336872 -0.10494882 -0.18063176 -0.3177423 0.40867642 0.45792472 0.528051 0.55297303 0.5745325 0.4390322 0.37582844 0.34199625 0.13898006 0.17806509 0.18486416 -0.06737326 -0.13315031 0.38962853 0.4559524 0.48788428 0.43653566 0.36269373 0.32637805 0.049972586 0.09582815 0.042078085 0.3594517 0.37532976 -0.07273335 -0.2304849 -0.19711038 0.2062961 0.072597995 -0.03961856 -0.097851016 0.045926638 -0.1674962 -0.013039283 0.17551498 0.11849367 0.06996528 0.25736308 0.15114067 0.16195467 0.27352354 0.38367516 0.054346874 -0.1425522 0.55943704 0.49516284 0.44817978 0.38738227 0.13997178 0.24789274 0.535056 0.53542095 0.29480147 0.36107543 0.23361394 0.23408079 0.49427354 0.24049494 0.50828516 0.25702596 0.24690962 0.50103414 0.4643582 0.3695834 0.16738224 0.08480908 0.15882288 0.2287808 0.31155354 0.28432858 0.648533 0.45692325 0.5468117 0.61751163 0.6485876 0.6024194 0.63410914 0.62996936 0.60563815 0.49898016 0.4598943 0.5920237 0.6530845 0.5772567 0.43242627 0.5276085 0.5772631 0.6133932 0.57506955 0.63002616 0.4372553 0.47954687 0.6323445 0.3820398 0.5218545 0.491221 0.67103153 0.49025577 0.4939004 0.48793817 0.25405276 -0.03625407 0.6700919 0.6586559 0.31638932 0.14302304 -0.14203006 0.62023073 0.6197828 0.22453445 0.27090463 0.28671172 0.07410267 0.088208266 0.0756371 -0.0030659866 -0.21269055 0.22902577 0.6018551 0.57980406 0.4156077 0.28482902 0.17012137 0.1294315 0.024338305 0.32586402 0.31767404 0.53018886 0.045089524 0.33572614 0.33789188 -0.06685534 -0.026524086 -0.011888572 0.06418732 0.6153396 0.40947646 -0.055565972 0.58965456 0.60576516 0.20867975 0.03780298 0.048019864 0.029864151 -0.13674708 -0.18320447 0.4488778 0.51747745 0.52770317 0.5670613 -0.060580447 0.4998407 0.50768685 0.5050565 0.10775523 0.4239284 0.47345322 0.45490164 0.41730273 0.20166373 0.09626877 0.40285748 0.35965803 0.31358367 0.23375794 0.2033275 -0.12524672 -0.020029418 0.1479985 0.36545175 0.33938944 0.2699244 0.15160894 0.010063268 -0.027101263 0.35844642 0.33579 0.26920086 0.13606481 0.19673422 0.52671164 0.11229364 0.17711166 0.38767332 0.5211857 0.09784559 -0.0077081174 -0.058056556 0.39752385 0.5143092 0.10137788 0.37165853 0.19782582 0.045343384 0.110714 -0.06527993 0.09163306 0.18055695 0.11183013 0.3471536 0.14568771 0.19505301 0.20000103 0.21898068 0.19185926 0.24124475 0.18416168 0.3424055 0.33482802 0.26165906 0.45410278 0.46228188 0.26328972 0.27538002 0.51959884 0.034759127 0.28381735 0.267429 0.4800135 0.031830806 0.08205578 0.32518956 0.3592273 0.31137905 0.51515627 0.599277 0.6445385 0.6091877 0.5656013 0.3643256 0.36633897 0.52906215 0.5703212 0.43448174 0.47930634 0.5648862 0.6061034 0.54416585 0.354026 0.3469882 0.54639083 0.36292058 0.40009785 0.49430072 0.42155403 0.6239439 0.5988302 0.5630701 0.3706256 0.3193078 0.16783465 0.45051122 0.27602595 0.63859 0.65189725 -0.035633307 0.25184774 0.27316117 0.2344216 0.1604651 0.021936566 0.3434062 0.0652492 0.5803798 0.63469744 0.054292057 -0.010667213 0.015560672 0.15369034 0.13707495 -0.05258765 0.5125238 0.6121328 0.22757111 0.045292713 -0.05329922 -0.081311375 -0.0011253394 -0.11946674 0.57478374 -0.1591615 0.007260288 0.0721212 0.19004974 -0.26323998 -0.22893931 -0.14419976 -0.003398642 -0.16454047 -0.18802132 -0.23935664 -0.32713145 -0.09639384 -0.05877567 -0.057363965 0.12028912 0.5179032 -0.19220838 -0.23307921 -0.22682387 0.54638624 -0.15972969 -0.41531008 0.506755 0.48022652 0.5268614 0.4278508 0.47641444 0.3798858 0.4235294 0.30485743 0.088592395 0.33753183 0.36290863 -0.08177757 0.33253527 0.35217887 0.3605492 0.3485591 0.18599144 0.59617484 0.33960992 0.30751163 0.23420781 0.12588295 0.59186333 0.63947165 -0.01729399 0.59726053 0.63396406 0.12866254 0.17278342 0.16057959 0.44836348 0.5344404 0.23308837 0.2741843 -0.083568975 0.03882489 0.17580545 0.016685026 0.24530979 0.30548283 0.31972623 0.30324313 0.24580108 0.2177473 0.09544515 -0.14999151 0.07295939 0.15133241 0.20147496 0.15813908 0.016070306 -0.03149645 0.3138327 0.281726 0.26225528 0.09952642 0.14895734 0.18958572 0.22225687 0.27787554 0.28296253 0.41319317 0.27651897 0.2911077 0.4680385 0.47048074 0.07592624 0.280237 0.26437572 0.4506396 0.38635898 0.07015123 0.091413476 0.32236612 0.38067296 0.53553426 0.6248268 0.6336818 0.5720727 0.48613253 0.24519145 0.31177592 0.3405029 0.24169646 0.3939985 0.51241547 0.44005588 0.55979127 0.26169243 0.17226373 0.26137942 0.34226823 0.6074689 0.5940675 0.5495651 0.24925366 0.29207125 0.31560516 0.6083619 -0.14568086 0.15031631 0.5478964 0.59412587 -0.019268163 0.48008275 -0.10486577 0.36616403 0.1283901 -0.30567783 0.16156495 0.2454651 0.36564535 0.45947325 0.42361394 0.38512927 0.449875 0.20722598 0.18523645 0.21292618 0.2921462 0.5238489 0.32349074 -0.012335798 0.6186375 0.6710435 0.31512603 0.23621944 0.6898381 0.20739631 0.11457841 -0.003306251 -0.03452015 0.6305719 0.65554565 0.4663359 0.61901116 0.22837394 0.06822115 -0.14680317 0.06873138 0.43564892 0.29015285 0.32395238 0.048403498 0.12663463 0.15055688 -0.15072079 0.120316505 0.30807024 0.3237448 0.32120523 0.3101486 0.27357396 0.041049663 0.22156365 0.29902253 0.30895448 0.27514982 0.30583376 0.2618339 0.3667309 0.2857011 0.2298263 0.15316904 0.08339774 -0.073757514 -0.099974915 0.01702374 0.26467782 0.10538392 0.20622778 0.4294682 0.47372246 0.5167062 0.49951202 0.62839365 0.58071935 0.4979079 0.1628543 0.17406845 0.19876318 0.2933402 0.3992611 0.33478343 0.28479952 0.20384178 0.16158149 0.060722232 0.1386605 0.13204962 0.12769857 0.2661197 0.5724738 0.55185044 0.4900939 -0.056508034 -0.12064731 0.23800582 0.16781752 0.56851995 -0.24610285 0.17920853 0.035877664 0.48008066 -0.08752247 0.4327138 -0.18731588 0.33849508 -0.16736995 0.1322999 0.21841283 0.089978084 0.25746533 0.32827 0.44424856 0.33683285 0.2780028 0.12401762 0.15329021 0.085544735 0.13293663 0.15521592 0.17773649 0.20570683 0.5629033 0.2382418 0.62811834 0.7041395 0.24849164 0.7301505 0.71178234 0.19049382 0.15064806 0.05060149 0.6830472 0.69422287 0.08028285 -0.026407883 -0.07404573 0.17604315 0.60501695 0.13872269 0.49235123 0.22884789 -0.13271692 0.0014450643 0.050988454 -0.17479591 -0.39883438 0.11813244 0.23609471 0.24009927 0.23971222 0.22186962 -0.13150837 0.18803084 0.1868613 0.14991719 0.2788957 0.29086637 0.2712411 0.2253261 0.14728062 0.2370157 -0.018791527 -0.12003814 0.103982255 0.3190295 0.35803548 0.4207123 0.5240178 0.56479746 0.53768253 0.47723907 0.54851496 0.47239894 0.022670753 0.413373 0.07718621 0.16146195 0.36376715 0.2623659 0.3559004 0.17543682 0.2602504 0.03740109 -0.061067767 0.08975228 0.2717974 -0.07510409 -0.18468578 0.25799146 0.3470611 0.27327684 0.19740057 0.38470766 0.05952093 0.36030734 -0.14365028 0.3114912 -0.027655907 0.23800264 0.33020172 0.010360442 0.44499278 0.5524776 -0.025067128 0.5091404 0.22059646 0.44274747 0.2812279 0.25062028 0.32872167 0.24141568 0.15475409 0.13179442 0.19131793 0.16898899 0.12733373 0.12842032 0.21733513 0.22329247 0.11394373 0.22603928 0.21953428 0.1742616 0.5955651 0.35456577 0.68366003 0.7396706 0.40517792 0.32575816 0.7521179 0.3755833 0.32577533 0.22172308 0.7395363 0.7269741 0.19684225 0.08289195 -0.06110292 0.63231647 0.68217605 0.0054290444 -0.065627456 -0.14341122 0.40136892 0.16893142 0.117006384 -0.04263972 -0.2471818 -0.15004373 -0.09723461 -0.005253211 0.07652305 0.19887587 -0.12793645 -0.042279646 -0.2245373 0.10498829 0.31002313 -0.012419004 -0.05825288 0.13793655 0.079258874 0.30795917 -0.21805096 0.23387226 0.057598587 0.03363114 0.32175165 0.35735178 -0.29364654 -0.27175575 0.24234101 0.32686415 0.29015145 0.33609638 0.5257065 0.31511158 -0.10503727 -0.0635753 -0.10566361 0.36913866 0.38413498 0.4670939 0.6221947 0.59529924 0.5655406 0.29835245 0.36237872 0.403847 0.11055195 0.2716361 0.28865063 0.32516035 0.32880324 0.41004384 0.4426529 0.4244963 0.49777055 0.5787673 0.5627513 0.47286016 0.3703714 0.1784566 0.53322273 0.50101084 0.43147418 0.30020505 0.44302416 0.49102062 0.5524457 0.5078826 0.49706185 0.41998369 0.2914435 0.2756748 0.30868226 0.13644019 0.17921732 -0.025250897 -0.02750365 0.18233675 0.14539282 0.24289936 0.2855792 0.46919626 0.45116657 -0.2024732 -0.043637678 0.33716565 0.40777647 0.13692237 0.18132001 -0.004486941 0.15859607 -0.09032607 0.17398052 0.31062597 0.38244665 0.5063759 0.3045543 0.08963768 0.5407338 0.60491097 0.3144266 0.28087288 0.6028259 0.31458145 0.21131334 0.5580272 0.314602 0.38474435 0.25574607 0.18327351 0.20322551 0.1571443 0.23723587 0.21970618 0.13038257 0.10553284 0.27747598 0.29740638 0.3533979 -0.08553537 0.43752274 0.4222138 0.6388259 0.70787084 0.73540497 0.48461077 0.43276155 0.7273872 0.7539598 0.49565685 0.4587294 0.426666 0.7230432 0.73849976 0.3824039 0.29697245 0.19096386 0.60994345 0.6780217 0.7065536 0.034614936 0.10315359 -0.27993557 -0.25241432 -0.19956496 0.30865857 0.3201021 -0.268827 -0.28743094 -0.2614458 -0.1771634 0.43129292 0.34838516 0.13208643 -0.09548274 -0.15442626 -0.3063412 -0.31260458 0.07121453 0.12619051 0.4253788 0.32921457 0.180399 -0.026552826 -0.13484074 -0.10609959 -0.1984912 -0.24860853 -0.033204243 0.13939877 0.09960491 0.14335468 0.37910473 0.27162635 0.011855807 0.11040357 0.26466662 0.07824105 0.32614762 -0.13031414 -0.09008783 0.30451697 0.11122559 0.014536051 0.026477352 0.26176357 0.33714938 0.264149 0.38789323 0.31500345 0.052112654 0.2124062 0.24928308 0.26150212 0.45718905 0.3688509 0.18033479 0.29654676 0.41843098 0.45243543 0.39711863 0.26911673 0.08257657 0.17999814 0.40282556 0.3556441 0.2700158 0.21383364 0.2917685 0.38494492 0.24812376 0.15831913 0.19461441 0.49147606 0.4423809 0.33926675 0.35293406 0.4034775 0.4541011 0.40474814 0.19192131 0.40364122 0.48679727 0.4037965 0.37228215 0.33551356 0.38416302 0.33680856 0.26588953 0.35777694 0.48417702 0.50614965 0.5134993 0.45904562 0.360106 0.22754623 0.36553115 0.36722642 0.4347937 0.42227584 0.40106118 0.38723522 0.5131175 0.5193021 0.44380945 0.2166536 0.28289697 -0.04583241 0.22179472 -0.03183341 -0.014955577 0.35913768 0.40323558 0.49427667 0.4084202 0.5215596 0.2546817 0.51483095 -0.06988882 0.004198678 0.4109522 -0.14749251 0.40480375 0.5363712 -0.1705733 0.60097003 0.51231706 0.24912407 -0.19319126 0.3589996 0.460997 0.43021172 0.607147 0.6237472 0.42998224 0.39714926 0.6093194 0.39493802 0.37001744 0.5594274 0.3531913 0.48307675 0.29848015 0.20567697 0.19341774 0.2338045 0.0759397 0.26070625 0.28126043 0.11654012 0.1431336 0.23326549 0.30157602 0.31431425 0.20009978 0.19421868 0.48059115 0.51161575 -0.108897254 0.6358337 0.5164995 0.5030728 0.6297062 0.46694052 0.39584112 0.2153609 0.053332716 0.1459261 -0.31518084 0.29372737 -0.3520873 -0.34179023 -0.24170361 0.41992086 -0.46614334 -0.3958283 0.05370517 0.46941835 -0.3184672 -0.23472533 -0.17941621 0.14461267 0.18848595 0.4391135 0.4425274 -0.20923188 -0.26900798 -0.17295465 0.15132481 0.22651231 0.39158508 -0.21421574 -0.11692787 0.22916675 0.40949064 0.17769963 -0.1162422 -0.0070833564 0.15597422 0.22829525 0.51673466 0.49526423 0.16652846 0.3355506 -0.096147865 -0.07179372 0.06762456 0.17614695 -0.030767933 0.12938254 0.25427333 0.095700175 0.10989775 0.64913195 0.55425173 0.42398587 0.2932681 0.16859466 0.35363054 0.18794486 -0.14210612 0.03208355 0.13193516 0.012656242 0.033332366 0.20562899 0.3120991 0.3777918 0.28492367 0.19733715 0.1472064 0.6865039 0.6080934 0.5194709 0.3641397 0.10156372 0.25709182 0.29165846 0.35766134 -0.08384454 0.008724231 0.24274766 0.05769671 0.3521957 0.36430818 0.298981 0.21497044 0.3032179 0.6589284 0.61585605 0.53833604 0.11693105 0.24536115 0.40009737 0.41266245 0.4173987 0.55256355 0.55840874 0.55014026 0.5273569 0.5270746 0.5265143 0.48875225 0.37005216 0.24309629 0.08681674 0.4490667 0.46650183 0.36662683 0.20829654 0.011283353 0.34440213 0.49703336 0.41869122 -0.02445019 0.1077373 0.028075587 0.0074303336 0.17647332 0.22185403 0.416767 0.49084908 0.5419958 0.4375408 0.4497838 0.5630566 0.34834564 0.5579101 0.5851188 0.15872492 0.5365515 0.65783465 0.7741699 0.7088732 0.6611066 0.6078275 0.2908477 0.3010788 0.7502366 0.61668634 -0.38728857 0.12498337 0.63034594 0.5051822 0.5991055 0.51347554 0.58124167 0.59769875 0.41469693 0.45293328 0.54801476 0.34442973 0.22488949 0.44429052 0.23465982 0.043447174 0.19252963 0.10595802 0.09852156 -0.104470424 0.13925974 0.14903052 0.37740955 0.488467 -0.055166367 0.51