# vtk DataFile Version 2.0
Really cool data
ASCII
DATASET POLYDATA
POINTS 7842 float
-31.617847 -6.958379 46.084686
-31.588293 -7.0093775 46.385418
-31.617899 -6.871848 47.054066
-31.635002 -5.869409 44.973465
-31.617577 -6.4083633 45.789154
-31.699377 -6.563006 46.437813
-31.702024 -6.3645234 47.332745
-31.727057 -5.230614 44.512432
-31.705898 -5.4206 45.401108
-31.713621 -5.7328796 46.58462
-31.685883 -5.1113114 47.85552
-31.652504 -5.467593 48.309345
-31.621159 -5.5394816 49.432804
-31.595161 -5.069571 51.675964
-31.627962 -4.8684697 52.117916
-31.623993 -4.884981 43.935772
-31.709074 -4.6387825 44.43729
-31.644836 -4.616856 45.306286
-31.620586 -4.655014 48.552727
-31.682514 -4.5743318 49.65216
-31.919888 -4.3628945 50.817177
-31.968128 -4.3186593 51.62798
-31.843063 -4.407471 52.37525
-31.779482 -4.1182504 52.86991
-31.609737 -4.173063 44.58307
-32.039917 -3.5263445 50.846817
-32.15261 -3.5005932 51.537327
-32.127598 -3.4004765 52.43017
-31.849218 -3.5848596 53.039333
-31.578434 -3.0052369 49.52054
-32.125652 -2.721314 51.467304
-32.19844 -2.724986 52.17087
-31.877565 -2.7162335 52.959023
-31.812082 -1.7807298 51.66794
-31.63586 -0.38623184 52.4233
-31.980425 0.804598 51.971725
-31.921787 0.48789704 52.449017
-31.723541 0.99505776 53.705635
-31.872368 1.3485093 51.790134
-32.07021 1.4446483 52.441532
-32.10777 1.6725525 53.631306
-31.876379 1.7033026 54.418133
-31.737051 1.6222289 54.763435
-31.626823 2.0143652 51.58959
-31.914665 2.3025355 52.58488
-32.035168 2.5618484 53.438484
-31.885935 2.4352126 54.42867
-31.781229 2.24887 54.849903
-31.772703 3.1239612 52.907246
-31.865177 3.0728178 53.505756
-31.753948 3.035697 54.29501
-30.90508 -7.8143725 45.758747
-31.007402 -7.8899837 46.5405
-31.064283 -7.7746115 47.233555
-30.929955 -7.343326 45.10556
-31.266846 -7.346805 45.659073
-31.406897 -7.3763957 46.47796
-31.250134 -7.385246 47.3925
-31.192703 -7.0164485 48.36522
-30.70108 -7.3320208 49.003567
-31.123877 -6.4417295 44.614815
-31.459412 -6.52728 48.411808
-31.278345 -6.189142 49.387856
-30.988626 -6.328202 50.337822
-30.888527 -6.0431314 51.404167
-31.11307 -5.2061477 43.275864
-31.390974 -5.3123116 43.674152
-31.493742 -5.777826 49.1762
-31.532799 -5.3392386 50.32091
-31.162727 -5.5955877 51.724033
-31.271564 -5.121535 52.475197
-31.24152 -4.8694267 52.94524
-30.962729 -4.6276374 43.139538
-31.404661 -4.448961 43.662773
-31.363512 -5.1062965 46.686924
-31.384735 -4.5857797 47.672493
-31.449524 -4.426558 49.00599
-31.375307 -4.418275 53.187267
-30.915766 -4.0808096 43.263813
-31.356518 -4.0386944 43.911644
-31.27239 -3.7702394 44.5712
-31.252 -3.9426064 45.272846
-30.862906 -4.176576 45.934868
-31.350063 -3.339857 48.952106
-31.502926 -3.8096204 49.331226
-31.50047 -3.5903647 53.427273
-31.0031 -3.628764 53.86822
-30.756199 -3.0946398 44.454193
-31.385456 -2.5660577 49.81584
-31.570726 -2.3054273 50.70341
-31.42313 -2.9222412 53.55656
-31.02759 -2.745253 53.840244
-31.236242 -1.2823131 50.79116
-31.432594 -1.2895032 52.09755
-30.962643 -1.2754955 53.512257
-31.126938 -0.0611483 50.135437
-31.492874 -0.20844574 51.465637
-31.382751 -0.2603956 52.552708
-31.213428 -0.4629131 53.33016
-30.831755 0.1450338 49.42535
-31.288961 0.3641387 50.719906
-31.594933 0.5078463 53.57829
-31.093773 0.84313583 54.610638
-31.247923 0.9179176 54.765404
-30.686317 0.96061254 48.92134
-31.206867 1.0424033 50.068253
-31.475126 1.1366565 50.962723
-31.605238 1.4365933 54.70234
-31.306828 1.7025951 55.126698
-30.60014 2.0676389 49.33717
-31.040897 2.3722613 50.82108
-31.327427 2.5213325 51.67481
-31.260021 2.444977 55.21886
-30.62942 3.8894536 44.776237
-30.604456 3.8330703 45.403347
-30.654346 4.021234 45.875317
-31.290365 3.093032 51.997753
-31.514687 3.401817 52.79732
-31.56882 3.5513997 53.500996
-31.114536 3.539775 54.553875
-31.131187 3.0763493 55.003902
-30.67314 4.823415 42.93426
-30.749054 4.6515765 43.542355
-30.809696 4.4667754 44.69971
-30.750856 4.67197 45.541252
-30.635738 4.798742 45.99908
-31.18201 3.761514 52.852726
-31.270147 3.812049 53.46396
-31.053743 3.7200596 54.39286
-30.705042 5.4888153 42.874397
-30.83969 5.4677796 43.40229
-30.852743 5.383967 44.57597
-30.67322 5.345534 45.422585
-30.658735 6.084889 42.999146
-30.699759 6.2231073 43.55975
-30.719461 6.1928053 44.325073
-30.551369 6.226348 45.371704
-29.937277 -8.611059 47.122547
-30.024223 -7.808872 45.098835
-30.395758 -8.035389 45.623352
-30.346743 -8.33954 46.593647
-30.239786 -8.329371 47.48983
-30.09368 -8.168086 48.16605
-29.931664 -6.973453 43.517815
-30.276346 -7.184263 44.465176
-30.475826 -7.2893677 49.476673
-30.2139 -6.9611354 50.564377
-29.90513 -7.065799 50.98201
-30.102669 -6.372392 42.88266
-30.423222 -6.4461327 51.587955
-30.21483 -6.0163693 52.13209
-29.655674 -5.7369504 42.213375
-30.371576 -5.218687 42.753296
-30.455961 -5.5267825 52.41792
-30.542545 -5.0742884 53.123684
-30.545298 -4.214016 42.969906
-30.782429 -4.6223016 53.473537
-30.342419 -4.1639776 53.95991
-30.453428 -4.061932 43.05145
-30.693148 -3.7838416 43.61185
-30.50278 -3.444636 46.650883
-30.089317 -3.430224 54.48765
-30.012089 -3.0046687 54.672836
-29.589344 -2.1721852 38.67377
-29.5559 -2.275955 39.74128
-29.585215 -2.2081728 39.97454
-30.536161 -3.2160113 43.7644
-30.159721 -2.7084203 44.506683
-30.090448 -2.7114956 45.431034
-30.065203 -2.9523618 46.746338
-30.035067 -2.6158066 48.229153
-30.496107 -2.8444588 54.367958
-30.016777 -2.736986 54.752472
-29.56028 -1.5358065 37.9151
-29.614908 -1.6960539 38.662178
-29.601442 -1.6660594 39.44274
-29.634989 -1.2654233 47.707222
-29.918022 -0.9493394 48.88943
-30.397264 -1.9944178 54.43488
-29.873009 -1.6799868 54.78642
-29.610426 -1.0533946 38.378223
-29.550406 -1.0431627 39.03356
-29.663334 -0.6552943 47.331768
-30.289968 -0.7431989 49.347065
-30.417156 -0.6372423 54.21779
-29.94817 0.53377604 47.898056
-30.51379 0.6604749 48.630753
-30.25815 0.23882534 54.506557
-30.213568 1.0204127 55.11445
-29.854912 1.2731961 48.02235
-30.538023 1.2681915 48.894703
-30.825275 1.4255029 55.317383
-30.253822 1.9590437 55.632442
-30.01405 3.2453234 44.621445
-30.115025 3.2322514 45.33641
-30.217546 3.2337937 45.8816
-30.274668 2.58122 49.564148
-30.509052 2.4573913 55.645855
-30.281145 4.225637 43.017162
-30.171875 3.7819319 43.738163
-30.445717 3.8610377 44.278416
-30.424194 3.5127444 45.612488
-29.742838 3.3419917 48.62022
-30.096891 3.1243498 50.043358
-30.46795 3.1992164 50.72026
-30.350866 3.5817246 52.09758
-30.472519 3.1407583 55.46304
-29.900423 3.147712 55.869545
-30.3839 4.7960014 42.57508
-30.50683 4.3506656 43.20812
-30.38355 4.6040845 46.450485
-30.069962 4.7261724 46.930077
-30.172384 3.7013476 51.369312
-30.673912 3.9558115 52.781754
-30.645317 4.133641 53.41512
-30.594276 3.935818 54.39698
-30.625916 3.7359734 54.828606
-30.32026 5.3780217 42.238083
-30.491604 5.657678 42.537567
-30.462812 5.6738634 45.734474
-30.476393 5.4964375 46.181007
-29.989466 5.330547 47.096558
-30.126547 6.03497 42.17729
-30.286797 6.4435787 42.700382
-30.522339 6.510225 43.400543
-30.474302 6.4468064 44.46784
-30.469465 6.1785216 45.649384
-30.1883 6.269737 46.054947
-30.077305 6.8203735 42.7454
-30.117176 7.011789 43.47952
-30.06604 7.161126 44.85944
-29.844141 7.2858396 45.463894
-29.780378 7.086922 46.21236
-29.645432 10.127146 57.70606
-29.624233 10.1358795 58.302437
-29.739452 11.039996 50.790604
-29.598066 10.610039 51.47554
-29.652214 10.921118 52.109146
-29.710958 10.509689 57.686466
-29.709385 10.601344 58.46118
-29.64362 10.726772 58.934265
-29.793728 11.7622595 49.431087
-29.727554 11.500041 50.395035
-29.799316 11.429701 51.635826
-29.696499 11.518307 52.035763
-29.689682 11.650004 56.785755
-29.80769 11.460682 57.658363
-29.78529 11.342988 58.5081
-29.653952 11.264503 58.919624
-29.64077 12.401172 48.65869
-29.761444 12.395558 49.374275
-29.755417 12.526357 49.95944
-29.553715 12.094241 52.213337
-29.557848 12.479962 56.060356
-29.597765 12.537889 56.506306
-29.597696 12.121954 57.56988
-29.58624 11.916121 58.33231
-29.663795 13.007562 49.065357
-29.604094 13.038051 49.35047
-29.566322 12.865792 56.285492
-28.729885 -8.800587 39.01361
-28.851788 -9.032278 39.650703
-28.88439 -9.128737 40.356125
-28.988052 -8.700023 46.16313
-29.43856 -8.73619 46.60425
-29.293505 -8.775095 47.437187
-29.231028 -8.649009 47.972633
-28.789434 -8.417491 38.91226
-29.064007 -8.567965 39.672424
-29.119293 -8.619965 40.386265
-28.869436 -8.191035 41.327446
-29.456848 -7.717979 44.68953
-29.768887 -8.327979 45.69906
-29.760874 -8.527309 46.745472
-29.316963 -8.422888 48.54891
-29.374914 -8.051826 49.42232
-29.368082 -7.795308 50.05466
-28.74785 -7.541974 38.741898
-29.125418 -7.665237 39.705643
-29.145435 -7.744343 40.310383
-29.1502 -7.21974 42.67484
-29.64255 -7.2377577 43.506527
-29.550333 -7.3731627 44.33314
-29.475454 -7.351112 50.600086
-29.404697 -6.774128 51.59258
-28.785393 -6.8890433 39.518574
-29.003418 -6.831805 40.390076
-29.199144 -6.5651793 41.88955
-29.557089 -6.3666224 52.143585
-28.593443 -5.0059195 39.32553
-28.916111 -5.5636163 40.94836
-29.876127 -5.4554186 52.863316
-28.708725 -4.1648693 38.754066
-28.858335 -4.2909455 39.22709
-29.002508 -4.560712 41.07338
-29.18329 -4.667928 41.491066
-29.301039 -4.2138243 54.287956
-28.773245 -4.089262 54.657654
-28.820415 -2.8996074 37.77126
-29.030264 -3.1694298 38.428402
-29.118637 -3.3761766 39.60158
-29.216843 -2.9474216 40.72321
-29.430784 -3.661891 54.497673
-29.445015 -3.2093332 54.797832
-28.816113 -2.35913 37.324844
-29.354767 -2.0306983 37.784782
-29.51046 -2.3101544 38.533913
-29.064888 -2.100189 41.111286
-29.267433 -3.159977 42.324818
-29.486204 -2.731315 46.59998
-29.635628 -2.5347652 47.227818
-29.366104 -2.2647572 55.047844
-29.326775 -1.4391502 37.557076
-29.49074 -1.157181 39.450928
-29.319235 -1.3345983 40.348648
-28.90683 -1.9122362 41.107075
-29.324875 -2.3338032 45.47316
-29.110046 -1.1813555 46.69371
-29.24433 -1.4987003 47.32693
-29.24736 -1.5722728 54.840157
-29.325983 -0.8226721 37.70266
-29.494087 -0.8895674 38.315826
-29.373034 -0.88298607 39.626644
[...]
POINT_DATA 7842
SCALARS features_00 float 1
LOOKUP_TABLE default
0.45284712 0.44937938 0.42171037 0.47114792 0.43269983 0.41361266 0.3819247 0.5169498 0.4445482 0.3477523 0.2798875 0.30020905 0.30484545 0.41850892 0.4452705 0.5173306 0.52773565 0.47599256 0.24033538 0.28317076 0.38896495 0.46507224 0.48396027 0.4902818 0.5177738 0.38224334 0.4662648 0.51386523 0.49911273 0.23363444 0.38174194 0.4537612 0.46490398 0.23584172 0.2595001 0.3459192 0.35821474 0.50034773 0.3829276 0.47852415 0.61377966 0.61755884 0.6059855 0.38599074 0.5306672 0.6502955 0.69545484 0.67718947 0.5431825 0.63127166 0.69154775 0.4769001 0.49639434 0.48325187 0.43875366 0.4711973 0.46950966 0.45385307 0.40527207 0.42425847 0.45973438 0.37115332 0.34016645 0.36225504 0.3507128 0.44982582 0.49120796 0.314644 0.3429911 0.37453455 0.41248894 0.4244924 0.4505251 0.5031799 0.31667957 0.23056227 0.24472071 0.4490547 0.46560517 0.5063597 0.49623758 0.4537599 0.36616743 0.1926721 0.25420612 0.45588025 0.38664618 0.4410188 0.17564633 0.22519243 0.4118475 0.35023823 0.07602545 0.20781213 0.29133016 0.14937973 0.17663702 0.28245 0.30922568 0.18245651 0.19797313 0.4285238 0.4752959 0.49708235 0.21031152 0.2360082 0.2889034 0.5780786 0.59926206 0.21305406 0.28213152 0.37736082 0.6826025 0.5007471 0.49024215 0.48240852 0.39899382 0.50328904 0.5945279 0.6705904 0.7039804 0.5853312 0.57602805 0.5394908 0.48188293 0.44602764 0.4745146 0.5628247 0.64595234 0.58561075 0.58735704 0.52378625 0.44030756 0.5673653 0.54928964 0.4871871 0.37324306 0.5229895 0.39968538 0.45913315 0.5071607 0.512843 0.5011308 0.25441203 0.33909312 0.41485822 0.37006626 0.34592077 0.29155332 0.32526442 0.2918618 0.18097518 0.34287423 0.32478562 0.355385 0.40340054 0.391778 0.32846454 0.400517 0.46552247 0.15985546 0.27661625 0.26931852 0.41669732 0.3669173 0.3470556 0.43744582 0.34347123 0.2420336 0.022343464 -0.1828762 0.3015592 0.27132508 0.41154286 0.4093936 0.36658877 0.008028656 0.118744865 0.2905001 0.27156007 0.39779305 0.36603886 0.179429 0.13146472 0.22408795 0.1763045 0.18829048 0.27325872 0.410896 0.19149089 0.21767294 0.53345937 0.5615586 0.39133295 0.4129436 0.42787057 0.15871102 0.64123356 0.5257063 0.44813815 0.4816444 0.4653905 0.037358157 0.09755686 0.19098671 0.29954013 0.68487966 0.62001544 0.5688219 0.5514932 0.41917783 0.33582532 0.18565002 0.40367457 0.48501962 0.6032944 0.659331 0.55909836 0.5712173 0.3839794 0.3686589 0.28184074 0.52942985 0.5335836 0.5326067 0.44518787 0.35341325 0.3093573 0.5035664 0.48044723 0.354024 0.2946089 0.25668555 0.6131136 0.64626515 0.47197923 0.43312 0.45088354 0.62679857 0.6587072 0.66365385 0.43446237 0.48739013 0.49975213 0.49457234 0.5763509 0.6257993 0.65088224 0.6566362 0.40185046 0.4508947 0.5032738 0.52997184 0.56785184 0.5899106 0.6096809 0.62929755 0.44158897 0.46417943 0.5945699 0.54301155 0.52718824 0.5099673 0.5240128 0.5216557 0.5396241 0.5186284 0.54768133 0.520646 0.49675554 0.3776409 0.3159107 0.45035535 0.51720876 0.477888 0.4148293 0.3731444 0.5285135 0.46383986 0.43284875 0.10838646 0.23280832 0.29952288 0.34877568 0.27806407 0.33228394 0.21603717 0.07554087 0.21897906 0.005710967 -0.034552902 0.24929577 0.20690495 0.1400514 -0.025844228 0.01720465 0.20934358 0.17923376 0.36419237 0.35630593 0.29996103 0.23406601 0.22917846 0.23093824 0.37064755 0.41074246 0.41792178 0.18189117 0.04046102 -0.05398062 -0.27766386 0.24046151 0.3894825 0.3397306 0.25901607 0.17450544 0.18007621 0.1200802 -0.04767573 0.22952926 0.3687423 0.38875982 0.30684364 0.22062477 0.3399661 0.31559908 0.1735329 0.32169288 0.33748716 0.1918937 0.15680367 0.4825307 0.19458637 0.2594125 0.22227523 0.3426952 0.23078868 0.4818977 0.40709594 0.3882144 0.4697662 0.57124305 0.46130407 0.48466426 0.4814241 0.34212407 -0.11611804 -0.15620555 0.034166135 0.35701 0.4760267 0.5059813 0.5058743 0.16414069 0.020168055 -0.24141805 0.48526284 0.4799014 0.41653284 0.022884235 -0.11776081 0.40558994 0.21764748 0.13768674 0.35009268 0.3057677 0.20158839 0.16641352 0.39594924 0.58268654 0.32130745 0.35100776 0.53284603 0.6323897 0.6501179 0.3897745 0.29706275 0.29683173 0.38857853 0.42344844 0.39346242 0.3730409 0.07686811 0.33530676 0.4940117 0.66019166 0.5158888 0.45526373 0.3739987 0.19581982 0.26963007 0.48136565 0.51826847 0.4624146 0.64600754 0.6614911 0.64961207 0.5979387 0.52009034 0.38261518 0.37221006 0.5482396 0.5314321 0.5590532 0.60005796 0.60825336 0.623997 0.69140625 0.6992458 0.67283446 0.59863776 0.4900318 0.4084451 0.4737768 0.5549973 0.6164087 0.59708214 0.57234764 0.6021056 0.58048445 0.55649513 0.7022143 0.6829176 0.6088728 0.45109504 0.4240492 0.49617475 0.55642766 0.58945704 0.5277844 0.5369279 0.5533344 0.48319924 0.5409325 0.5312065 0.52359533 0.45268553 0.0976564 0.5727735 0.55714786 0.5309377 0.56082606 0.5683619 0.39870787 0.06018834 0.46713534 0.40763095 0.3616513 0.5303341 0.3093413 0.23018917 0.49458027 0.5722314 0.41113943 0.25629494 0.47821248 0.4969154 0.099649616 0.178047 0.3328853 0.22940052 0.19232193 0.2888199 0.15635332 0.13329102 0.040630676 0.46254262 0.15771785 0.14021999 0.10664591 0.07123762 0.079489805 0.094214365 0.39729804 0.07005432 0.41651404 0.28112653 0.19489478 0.11942397 0.0778434 0.014311846 -0.021525286 0.16859388 0.2970551 0.20784865 0.20220344 0.17981987 -0.08071504 -0.06484052 -0.049596805 -0.071541265 -0.17398325 0.22402169 0.32493097 0.23191792 0.46202973 0.4602281 0.37284958 0.23963398 0.24757183 0.058051646 -0.034721754 -0.10801716 -0.1435678 0.0688747 0.47828916 0.4310305 0.5006592 0.5124329 0.4984432 0.4765668 0.22716336 0.28882605 0.12355037 0.52527106 0.41605386 0.45697793 0.5081354 0.5075739 0.46204954 0.2530288 0.047762483 0.51343095 0.38388607 0.43845576 0.4500066 0.26525283 0.43020612 0.16358033 -0.21543975 -0.029847205 0.32343096 0.35916525 0.42080343 0.38163042 0.42857203 0.20602395 -0.22936822 -0.09619779 0.0010246411 0.29643303 0.38859376 0.4325023 0.50692916 0.5277771 0.10840087 0.052702487 -0.1303102 -0.16248412 -0.07813094 -0.060021535 -0.05881693 0.44803634 0.472974 0.49030334 0.5520227 0.5612296 0.08724214 0.1419775 0.08274159 0.14414023 0.103444844 0.031575236 -0.20477201 0.036815315 -0.14095135 -0.06270069 0.09033016 0.41674948 0.54422843 0.49148893 0.51814187 0.5420478 0.12131663 0.086055554 0.14165875 0.17453463 0.01976515 -0.014566384 0.6114748 0.3805101 0.017824199 0.6426851 0.5092875 0.41552272 0.6164416 0.5845397 0.55330276 0.5866173 0.5574895 0.47864228 0.6638522 0.3503898 0.5359066 0.5605782 0.5532067 0.47795615 0.47030675 0.686275 0.69388074 0.6606612 0.56248033 0.4684639 0.39062345 0.4877549 0.5231272 0.49136156 0.5660796 0.5496996 0.54410434 0.6561532 0.5022964 0.5254047 0.5460456 0.503467 0.51112634 0.52378356 0.47854915 0.52546763 0.5308842 0.21251601 0.21458596 0.5696879 0.5347029 0.48686707 0.63071495 0.5894365 0.50629264 0.50383437 0.42762873 0.3361045 0.42374608 0.42812103 0.2846225 0.6308694 0.65974265 0.6522079 0.38660115 -0.0037216246 0.36196056 0.5764779 0.5703298 0.15743893 0.11520801 0.42133296 0.19874696 0.18206562 0.1911186 -0.07909065 -0.2947734 0.08509742 0.36887482 0.45637602 0.30468038 0.17221005 0.0532172 -0.3242234 -0.014398873 0.5333095 0.3943898 0.2678311 0.17583515 0.17208111 0.3847771 0.24458742 0.72913 0.5985837 0.44713706 -0.10081742 -0.21165882 0.35983542 0.3878762 0.7382846 0.5928444 -0.17229922 0.11861956 0.12078054 0.27076307 0.41847897 0.42866924 0.44035825 0.44162905 0.6715741 0.567489 0.4811252 0.3439871 0.18175064 0.20666277 0.047434688 0.46275458 0.4520176 0.65555894 0.55498487 0.4148788 0.29458153 0.22877717 0.34352466 0.39999783 0.39739782 0.18265375 0.09027682 0.10889463 -0.1728463 0.045515567 0.20943654 0.35159498 0.36356097 0.37935925 -0.13096552 0.4444195 0.4342875 0.23210035 0.31647703 0.035839148 -0.036096424 -0.075539544 0.22120112 0.5302619 0.5096658 0.24567927 0.22770134 0.09098656 -0.27518952 0.009925462 0.25256485 0.5732952 0.55852735 0.121660694 -0.1432091 -0.13401489 0.50738114 0.5184011 0.5102995 0.5347955 0.5667046 0.12918219 0.14066853 -0.17413422 -0.21859565 -0.094356954 0.36874717 0.48278958 0.48334014 0.500947 0.2337132 0.26630175 0.5199334 0.4389119 0.49610293 0.16512033 0.3130541 0.5657543 0.61671436 0.38358 0.35107452 0.37579477 0.084077835 0.35254973 0.36288157 0.6464385 0.6442611 0.40961623 0.31439358 0.40382296 0.32160234 0.45976776 0.45421767 0.6323769 0.61312854 0.5570174 0.47080243 0.47860074 0.4839175 0.4877361 0.46912518 0.4480987 0.3590424 0.34993958 0.4178704 0.40579233 0.19693987 0.5233822 0.56961024 0.6602194 0.68344045 0.67635334 0.3597827 0.40538478 0.46438855 0.47033483 0.6078948 0.6585239 0.5974666 0.15875554 -0.05571346 0.25910044 0.061361935 0.6053989 0.5522083 0.22608149 0.19988096 0.12493001 0.2637073 -0.009761393 0.0062190294 0.19852343 0.20095713 -0.08207693 0.05033703 0.14083649 -0.29264766 -0.5568955 -0.053406745 -0.09819572 0.5343807 0.46922138 -0.097562894 -0.12690824 -0.4229002 0.002327932 0.08947415 0.72135425 0.68635553 0.55967563 -0.23322567 -0.10846112 -0.0041502565 0.04192511 0.30054176 0.32435447 0.3553619 0.80670595 -0.27448425 -0.28208634 -0.044489697 0.03994226 -0.07288852 0.28390473 0.32711494 0.3556385 0.37802023 0.38179916 0.8592097 0.010125808 0.03579513 0.14584658 0.42800087 0.42609984 0.81395924 0.74092865 0.41655633 0.37399754 0.6524854 0.5603191 0.08583783 0.38023514 0.30831185 0.08685034 0.10973094 -0.08798031 0.2959947 0.17164819 0.1366404 -0.28797507 -0.13021068 -0.13356237 -0.20608273 0.3886491 0.21562606 -0.2959788 -0.3390909 -0.15888779 0.5198305 0.23426208 0.2177535 -0.14913012 -0.34581706 -0.33873147 0.57632136 0.14398006 0.5601656 0.55680263 0.16481793 0.37832898 0.49074444 0.5156214 0.2641077 0.37886637 0.272768 0.071473576 0.50277346 0.23019496 0.2881982 0.19365974 0.21010885 0.15966573 0.5917752 0.59276295 0.49814194 0.3866486 0.24380022 0.25436166 0.29039964 0.31878373 0.3094699 0.26909357 0.58651197 0.5060119 0.3711074 0.40665388 0.3371166 0.4196201 0.41090634 0.42917663 0.43744648 0.43756485 0.40017602 0.2854932 0.33570063 0.52329594 0.6057201 0.6733843 0.6746348 0.19898945 0.007907391 0.40455738 0.2987408 0.4491508 0.6317835 0.5705275 0.2027917 -0.031281978 -0.025774792 0.5248866 0.3279853 0.50619316 0.2536159 0.22781304 0.2777561 0.33034652 -0.047950707 -0.0019817948 0.058757775 0.052243337 -0.1740939 0.032195866 -0.08052458 0.06387862 0.5649313 0.51186115 0.35047007 0.06323528 -0.28968358 0.06878129 0.10735668 0.13753644 0.56098473 0.48752898 -0.41541398 -0.52807134 0.106971666 0.12558791 0.2912906 0.35884523 0.37831903 0.7152041 0.6638643 -0.40895665 -0.39995873 0.07366538 0.19581664 0.31100667 0.36787945 0.35979068 0.77668947 -0.31300604 0.34992996 0.85733163 0.37367606 0.33288193 0.87766147 0.30473843 0.77287704 0.5490397 0.21996146 0.30814803 0.46293187 0.17745163 0.22573617 0.20015624 0.16870128 0.29738677 0.33507282 0.28059918 0.23078322 0.18469042 0.536772 0.22645806 0.14183766 -0.038387805 0.1036029 0.48625222 0.08807434 0.3940082 0.4702636 0.4870993 0.19460997 0.035733536 0.14631546 0.18596384 0.20400393 0.21923192 0.05546723 0.051643327 0.26365557 0.10689732 0.12730566 0.15856801 0.23990843 0.33940762 0.1613816 0.14285947 0.13590813 0.0795795 0.06521886 0.09691861 0.26504907 0.31069478 0.52149904 0.48473108 0.40454814 0.3635344 0.3232253 0.21822417 0.1652642 -0.032160565 0.0028701723 0.32540128 0.3470981 0.40889192 0.42338765 0.28955984 0.4422562 0.44654024 0.18152173 0.43670097 0.41425997 0.115659304 -0.031573318 0.59012425 -0.12197599 0.5291893 0.32864732 0.34236875 0.50142246 0.6131448 0.6073325 0.13836056 0.55530965 0.1001818 0.29181612 0.27726886 0.19322738 0.09411863 -0.14208859 0.13810696 0.18811327 0.01749208 0.09370951 0.33682877 -0.0022346042 0.010412216 0.12056096 0.12910001 0.59801257 0.55310047 -0.12526047 0.13241023 0.06709363 0.022551976 0.3333195 0.37358057 0.6262033 0.6108007 -0.24642509 -0.5076452 -0.62257934 0.10691609 0.28836057 0.36549646 0.38292286 0.3694132 0.70717967 0.65509844 -0.48729616 -0.3941381 -0.42445552 0.34563375 0.74973404 0.6988584 0.30720484 0.28500083 0.83777153 0.25394848 0.85825133 0.80050385 0.22068092 0.662835 0.6537758 0.44999248 0.21325052 0.11759688 0.17793581 0.06364863 0.32419103 0.42916822 0.22525823 0.40011245 0.44606215 0.5460783 0.4288532 0.31809616 0.1453978 -0.0414041 0.4567209 0.08768895 0.28617984 0.16124828 0.05236885 0.11473886 0.26713473 0.266074 0.3364942 0.22098978 -0.17293745 -0.1833681 0.39124104 0.45582294 0.31539598 0.35737675 0.17914124 0.18115196 0.0048441812 -0.014424344 -0.06271209 0.07348795 0.18655506 0.38061583 0.47549805 0.340361 0.26229876 0.24383016 0.2766521 0.3168933 0.37539282 0.4007653 0.41690558 0.41375715 0.13788465 0.090304196 0.071571246 -0.056782365 0.045087583 -0.17261979 0.49952334 0.3789056 0.19786191 0.21167009 0.2243579 0.2652522 -0.014764078 -0.21123335 0.5331147 -0.033149768 0.094251156 0.1941264 0.22866386 0.19941762 0.2509836 0.28659415 0.02280794 0.2358293 0.22847019 0.2679368 0.18733571 -0.22691414 0.115530506 0.29654467 -0.23453598 0.037318274 0.008830339 0.18752344 0.5790371 -0.34127623 -0.25243658 0.18282895 0.29076838 0.33289403 0.5927246 0.5775552 -0.38050908 -0.33028388 0.32403654 0.62701327 0.57613117 -0.43175605 0.28439435 0.24616006 0.677168 0.57856476 0.2266993 0.70795935 0.56484705 0.18835281 0.65360075 0.5236452 0.44203696 0.15840381 0.49971572 0.36333758 0.10423075 0.21542738 -0.061751258 0.35857898 0.16998956 0.6235119 0.25159764 0.67605484 0.6827637 0.63779134 0.5543424 0.28735033 -0.078678876 0.0046291947 0.13087213 0.5843973 0.4776246 0.29262897 -0.00352066 0.33698037 0.21657501 0.34770757 0.27283564 0.40588853 0.16550018 0.07094982 0.49858052 0.17036636 -0.009051252 -0.02859668 0.5209925 0.525 0.41506624 0.33383662 0.19920102 0.2085384 0.26727247 0.21040617 0.16377243 0.01634194 0.092923276 0.13353868 0.29666775 0.40289396 0.540769 0.5107913 0.4391315 0.35930806 0.24249648 0.23069197 0.7664126 0.6485154 0.26463926 0.31122875 0.68836665 0.7136712 0.49242288 0.21606687 0.31233054 0.33542722 0.59248304 0.3264736 0.074072346 0.20903763 0.06458405 -0.024676606 0.31033435 0.18653202 0.27694333 0.2806421 0.30681324 0.32410163 -0.09771457 0.08502554 0.44759747 0.11043414 0.07640416 -0.26569176 -0.060504578 0.3122543 0.27609593 -0.021853253 -0.09049401 0.37544507 -0.21156026 0.20464523 0.09957695 -0.25854662 -0.19234206 -0.1746905 -0.05236487 -0.07674575 0.20451397 -0.037752304 -0.12728447 -0.050273135 -0.05722548 0.04166293 0.14578201 -0.19150195 0.24804205 0.25239733 0.52185446 0.26897305 -0.67498213 0.23289798 0.52680516 0.46737778 0.17843814 0.51482075 0.42085826 0.13425091 0.55710554 0.44450855 0.10484375 0.5277358 0.08928877 0.07801084 0.12947214 0.15015069 0.23985945 0.5355598 0.3107841 0.63015413 0.28910542 0.3621158 0.6724688 0.39598423 0.45994812 0.69080263 0.6638459 0.43127438 0.60514057 0.62905276 0.5714015 0.46196437 -0.0077109486 -0.13679303 0.38795045 0.6892799 0.70552343 0.29435346 0.28408688 -0.032470025 0.6715599 0.7123302 0.35305002 0.16652638 0.33061737 0.12714219 0.019223228 0.33277965 0.2221874 0.09847349 0.38245735 0.25179186 0.50696135 0.4834091 0.14901128 0.24267223 0.096004784 0.015400036 0.19463995 0.33693576 0.41651225 0.46398163 0.57753444 0.59104985 0.55622864 0.34247288 0.20748177 0.2003244 0.20485604 0.253375 0.60345185 0.5682929 0.5119535 0.4304235 0.8114712 0.8006885 0.7389581 0.5300943 0.75700235 0.79755485 0.7934049 0.74040926 0.50679296 0.2632782 0.22583191 0.2208294 0.7154304 0.73288906 0.21437216 0.19913143 0.6247418 0.6079817 0.12447173 0.50686413 0.33858553 0.041989744 0.1951415 0.044482127 0.22133233 0.29248595 0.30064398 0.0421408 0.2116 0.11854452 0.25269884 0.21357355 0.24433163 0.2851323 0.29327825 0.30891138 0.31615752 0.2858753 0.04751102 0.015897166 0.27378982 0.14496356 0.062121596 0.27077222 -0.14605603 -0.069169745 -0.16694964 0.15486778 0.11953142 -0.1768148 -0.17398618 -0.041643295 -0.21141046 -0.093999274 0.021619426 0.09314307 0.22730115 -0.14465654 0.32710475 0.37240002 -0.1662024 0.24730767 0.36916706 0.294848 0.16118407 0.1166004 0.17311954 0.06930709 0.06882523 0.11634039 0.06848574 0.082336724 0.09203954 0.0893656 0.14637528 0.087177604 0.3034649 0.34480873 0.4040867 0.55711454 0.44292805 0.637289 0.5763076 0.4990707 0.6618741 0.63804626 0.5709971 0.44101238 0.14553848 0.06263057 -0.032835808 0.6635515 0.68732786 0.5322466 -0.006273411 0.072997354 -0.22002646 0.73765737 0.7165019 0.29718152 -0.12731142 0.568317 0.72431064 0.8110013 0.8031529 -0.040622927 0.8065572 0.18970212 0.1998605 0.17545193 0.2668297 0.12043829 -0.07455821 0.40088242 0.4681095 0.49212712 0.46015188 0.11603455 0.37170413 0.52833486 0.07825935 0.09730595 0.13309309 0.1758576 0.20802963 0.23985162 0.5903125 0.6061665 0.5852392 0.45410147 0.37151712 0.25564563 0.55025166 0.49211898 0.8012197 0.7943852 0.70330584 0.5452701 0.44650704 0.7387048 0.7838065 0.34930503 0.22919953 0.67053705 0.16953617 0.58265674 0.10683957 0.46103343 0.44270033 -0.016795801 0.08948763 0.15034288 0.17371967 0.025375038 0.09840315 0.23226751 0.30288583 0.30768657 0.2740403 0.028329987 0.077928305 0.034650646 0.105149314 0.23329732 0.2889385 0.23633158 0.011204721 0.0022578016 -0.067333594 0.2009078 -0.18762408 0.028387358 0.033577304 -0.08000177 -0.111610755 -0.17493579 -0.24953814 -0.018393958 0.06969216 -0.028603407 0.25480545 0.3821208 0.45169353 0.4178658 0.46721983 0.4929683 0.4519733 0.49526238 0.4538612 0.09249929 0.31666905 0.16054046 0.03422693 0.1564336 0.11969197 0.046633363 0.08715126 0.11219814 0.05235398 0.14237326 0.04216467 0.24307913 0.22058403 0.111129664 0.38202575 0.39867854 0.38958085 0.18459544 0.4471891 0.48003832 0.31885248 0.5601409 0.63462687 0.5536731 0.2811341 0.20865087 0.14161356 0.12023959 -0.13929766 0.28355083 0.6833098 0.77204466 0.7515042 0.8140148 0.78825533 -0.09354789 0.8233019 0.8578662 0.56688505 0.60272074 0.5871029 0.38598856 0.06598346 0.13776265 0.26394832 0.08671747 0.1691467 0.46057612 0.16793239 0.031094387 0.19221488 0.19228254 0.17504868 0.5513505 0.55297315 0.5550792 0.35569513 0.31834197 0.23691642 0.20769736 0.20081168 0.4828028 0.39547268 0.2723744 0.763772 0.7540736 0.6720826 0.5377308 0.43687892 0.68592215 0.7357085 0.31340098 0.64301765 0.61570644 0.1591486 0.5682347 0.54749596 0.42377645 0.0942924 0.5257611 0.554758 0.53107363 0.28703088 -0.15071842 0.026103504 0.03428322 0.48834175 0.4374834 0.16764681 -0.0058629513 0.14423168 0.2712219 0.24649796 0.10278684 0.072400995 0.017838992 0.037537288 0.13364348 -0.042894624 -0.12874052 -0.17566533 0.026095219 0.047149338 0.20221412 0.0123403305 -0.26603016 -0.14506242 -0.095674835 0.02416993 0.08923176 0.03943606 -0.17355618 0.033454843 0.14923866 0.114642814 0.34660268 0.4495687 0.4756912 0.17728564 0.49671367 0.51606536 0.18219751 0.10482065 0.52549696 -0.0028675832 0.479479 -0.17854396 0.3672161 0.13077624 0.09346548 -0.10616763 0.10653324 0.08088839 -0.064698316 0.062304124 -0.00877123 0.16047621 0.09275128 0.26208746 0.27122566 0.024854966 0.0048096776 0.4170447 0.33600247 0.30776152 0.54609126 0.34793168 0.40227628 0.2789802 0.3668561 0.65470695 0.69333327 0.5622461 0.7811421 0.7614114 0.6319367 -0.19717512 0.41631228 0.811951 0.8202363 0.7937268 0.694203 0.7087292 -0.1374324 -0.20682655 0.7669624 0.8367293 0.8355397 0.6911938 0.6638839 0.642316 0.5994975 0.3909089 0.6513515 0.63748443 0.3173555 0.64352816 0.7195128 0.723502 0.41477284 0.14630589 0.58207 0.67976576 0.73036695 0.45697278 0.24027629 0.20684183 0.23169398 0.2286889 0.1881485 0.29312846 0.26053488 0.6219367 0.5386847 0.46187055 0.58309925 0.6017624 0.5651371 0.38396555 0.48583376 0.5298462 0.5061377 0.47002733 0.46497852 0.49795017 0.21692291 0.19053754 0.49693805 0.5630265 0.5521885 0.36886215 0.4016318 0.45525318 0.45425847 0.4146886 0.34389392 0.11487812 0.28935635 0.45789185 0.5340196 0.35811692 0.25364134 0.2869299 0.42813045 0.4425792 0.32169867 -0.33480397 -0.14097187 0.1357942 0.35741174 0.3309143 0.14573386 0.24512337 0.29118532 0.3218994 0.21354845 0.20087564 0.33159223 0.5268465 0.16866021 -0.1844718 0.18898961 0.34730494 0.2024698 -0.21020111 -0.19351204 0.07352