# vtk DataFile Version 2.0
Really cool data
ASCII
DATASET POLYDATA
POINTS 11852 float
-32.578728 12.04059 32.587788
-32.572468 12.019592 33.137066
-32.56723 12.557862 32.16894
-32.647865 12.5498 32.526737
-32.646008 12.650107 33.28063
-32.649364 13.228583 32.47636
-32.625244 13.24266 33.08567
-32.615482 16.09597 39.972996
-32.603104 16.654812 39.061626
-32.63883 16.46441 39.56843
-32.61766 16.540241 40.280205
-32.64694 17.403093 39.659275
-32.589252 17.545536 40.655117
-32.604763 17.817503 41.031963
-32.660088 18.238869 39.9517
-32.621002 18.8448 40.6513
-32.625698 18.481173 41.205624
-32.559555 19.054703 41.197376
-31.954071 11.219557 32.79273
-31.98545 11.273344 33.281765
-31.98753 11.859236 31.928465
-32.311455 11.700503 32.65043
-32.31021 11.666446 33.376488
-32.03165 11.757983 34.011543
-31.79198 12.903445 31.439388
-32.295227 12.5260515 31.876926
-32.496647 12.371063 33.600563
-32.263195 12.503791 34.083103
-31.669527 13.065895 34.99764
-32.231823 13.4111 31.878843
-32.502495 13.566082 32.419918
-32.52062 13.206457 33.392548
-32.146133 13.389998 34.232475
-32.17108 14.236889 32.62026
-32.179634 14.094395 33.409073
-31.601288 14.690555 34.313282
-31.937366 15.354667 39.025227
-31.886076 15.282581 39.570343
-31.817705 15.284286 40.124123
-31.712036 15.026958 33.366924
-31.613052 15.065302 34.120884
-31.975842 15.966265 38.147087
-32.028084 15.965906 38.316475
-32.337765 15.734896 39.673496
-32.24764 15.741965 40.31728
-31.879913 15.839877 40.945908
-32.070072 16.81057 37.33938
-32.385025 16.376925 38.75644
-32.48477 16.311563 40.477196
-32.266415 16.6899 41.141376
-31.917564 17.07975 42.241997
-31.946861 17.539896 37.11322
-32.055534 17.067045 37.36926
-32.381336 17.610723 38.55054
-32.471622 17.681849 41.246845
-32.233856 17.852957 42.037052
-31.870726 17.939623 43.187405
-31.672531 17.977709 43.92918
-31.772234 18.581085 37.554882
-32.138767 18.482897 38.74066
-32.464123 18.370234 39.390446
-32.28851 18.371714 42.32824
-31.977598 18.587284 43.427433
-31.763987 18.549131 43.848167
-31.770866 19.180925 38.72504
-32.25551 19.179338 39.64279
-32.44092 19.39106 40.401268
-32.369534 19.302395 41.480606
-32.18801 19.202587 42.561462
-31.868752 19.319689 43.377186
-31.82701 19.008944 43.747616
-32.014206 19.97957 40.608215
-31.92667 20.135849 41.351788
-31.795467 20.18154 42.423943
-31.816236 19.828205 43.166878
-31.163166 11.318726 31.999775
-31.425728 11.083365 32.66268
-31.536509 11.104741 33.429688
-31.505808 11.268505 33.87069
-31.173439 12.007817 31.39524
-31.451096 11.661123 31.757471
-31.596949 11.498088 34.093708
-31.02998 11.930954 34.721615
-31.396809 12.491842 31.313248
-31.71477 12.438653 31.445002
-31.1512 12.620084 35.104103
-31.710709 13.207899 31.357857
-31.42957 13.546395 35.277946
-31.423353 14.042778 31.652058
-30.835045 14.144106 35.572308
-31.398882 15.300194 38.435413
-31.674143 15.077927 39.554806
-31.513752 15.059642 39.961086
-31.081978 15.215942 32.00177
-31.40904 15.378882 32.642735
-31.197607 16.027193 36.893723
-31.132162 15.711324 37.534878
-30.668863 16.230032 44.445454
-31.075926 15.947259 32.731075
-30.98198 16.149498 33.69157
-30.891258 16.311308 34.624733
-31.291113 16.918312 42.672848
-31.272741 16.785563 43.46796
-31.005177 16.579863 44.51372
-30.899408 16.956333 45.051365
-31.383665 17.497124 44.33615
-31.00256 17.487835 45.04187
-31.3229 17.965517 36.23479
-31.350548 18.596254 37.102608
-31.22568 18.313976 44.620235
-30.96233 18.237738 44.9689
-31.098513 19.167433 36.715
-31.356974 19.34684 37.661377
-31.589144 19.63108 43.582146
-31.303455 19.44931 44.03979
-30.875092 19.928484 36.88566
-30.74377 20.293135 37.526714
-30.783823 20.378075 39.006687
-31.649641 19.798035 39.285545
-31.713846 20.141966 40.30252
-31.450165 20.638155 42.485584
-31.387655 20.27951 43.28765
-31.175375 20.015177 43.77553
-31.17055 20.610313 40.74085
-31.081863 21.000423 41.787567
-31.012856 21.04227 42.462437
-30.894394 20.884373 43.088913
-30.591904 11.203879 32.09165
-30.923428 11.088292 32.558186
-30.512716 11.122963 33.205276
-30.623493 11.314163 34.027008
-30.748917 11.947969 31.377302
-30.342064 11.716825 31.660263
-30.450397 11.848633 34.578007
-30.373322 11.981041 34.91507
-30.56279 12.595681 31.231728
-30.598003 12.499511 35.24795
-30.356209 13.511998 31.200573
-30.661394 13.409416 35.620464
-30.093933 14.409165 31.428726
-30.85911 15.09223 38.72625
-30.16035 14.764184 39.564247
-30.776094 15.371846 41.436447
-30.515896 15.550947 37.531483
-30.046576 15.687347 42.550713
-30.210665 16.045355 45.101387
-29.77006 16.933615 27.056175
-29.873768 16.752207 27.539103
-30.054592 16.890676 28.24195
-30.429613 16.807798 45.484177
-29.89081 17.481632 27.072224
-30.143847 17.543087 27.633799
-30.226748 17.4668 28.42449
-30.002558 17.967575 29.332325
-29.918064 17.396935 32.655106
-30.519617 17.854092 35.157345
-30.399351 17.77053 45.54016
-30.113197 17.685324 45.771828
-29.730043 18.165554 27.128912
-30.095322 18.418272 27.795027
-30.255919 18.59144 28.540852
-30.244158 18.667051 29.025444
-30.493841 18.261879 45.29884
-29.89619 19.124376 28.025742
-29.964539 19.330507 28.599503
-29.913498 19.310608 29.282095
-29.992258 19.270605 35.172348
-30.348711 19.555134 35.828983
-30.413443 19.63396 44.490833
-30.275743 19.123173 44.883995
-29.771507 19.615065 28.623793
-29.742094 19.627855 28.979818
-30.3946 20.259077 36.606678
-30.443316 20.547604 37.396854
-30.690239 19.80299 44.188625
-30.05535 20.73268 36.935093
-30.004114 20.939915 37.47051
-29.816246 21.0871 38.33933
-30.45414 21.33362 41.612865
-30.479359 21.353558 42.39473
-30.418968 20.978325 43.296856
-28.78705 9.836363 45.647717
-28.76241 9.862796 46.280018
-29.823557 11.417804 33.809956
-28.832623 10.776384 44.79571
-29.002113 10.508886 45.67616
-28.889582 10.616573 46.386555
-28.653702 10.545957 46.830082
-29.809431 11.667861 32.113983
-29.906656 11.524353 32.4018
-29.763758 11.467766 33.255005
-29.815735 11.57373 34.22562
-29.790882 11.99139 34.858444
-28.62005 11.412252 44.601192
-29.011633 11.451863 45.78521
-28.995163 11.279526 46.147892
-29.574251 12.976173 35.396786
-28.678766 13.98098 42.535576
-28.959316 13.645785 43.55539
-29.354502 14.56562 31.11005
-29.276295 14.980683 40.07861
-29.019188 14.220243 43.18128
-29.513247 16.332779 27.541075
-28.778072 15.702538 28.288555
-28.923222 15.51526 29.545568
-29.210108 15.947565 45.893597
-29.302017 16.719479 26.836838
-29.614422 16.49553 27.273373
-29.326199 16.445559 29.001366
-29.320456 16.492579 30.662977
-29.481516 16.779306 46.040646
-29.474216 17.496096 26.751762
-29.347929 17.466084 46.15335
-29.15417 18.297884 26.828152
-29.593676 18.331854 33.619335
-29.136375 18.257063 46.084763
-29.18389 18.900702 27.266102
-29.426395 19.222782 27.672825
-29.706495 19.569853 28.345018
-29.69548 19.473639 29.47913
-28.75671 18.777925 33.026573
-29.310232 19.61443 28.06252
-29.437746 19.723366 28.453312
-29.438417 19.722517 29.270742
-28.859035 19.969776 34.57809
-29.503794 20.315166 35.891647
-29.558706 20.57969 36.392647
-29.441784 20.995861 36.9147
-29.379457 21.290274 37.60409
-29.276386 21.414942 38.262802
-29.22904 21.098886 39.23863
-29.517942 21.289616 41.936718
-29.793423 21.39413 42.46056
-29.797182 21.189623 43.127987
-29.684498 20.745825 43.726562
-27.539713 4.1707897 26.694973
-27.577332 4.501515 26.534672
-27.555704 4.562232 26.947933
-27.611654 4.875766 26.668293
-28.227808 9.153174 46.290367
-27.838226 9.685361 43.695736
-28.27735 9.56811 44.696815
-28.541994 9.366097 45.46658
-28.45091 9.506711 46.559296
-28.24893 9.7338915 46.975494
-28.313885 10.778753 43.817932
-28.325096 10.2336855 47.075314
-28.832018 12.070232 33.439686
-28.66697 12.21328 34.42885
-28.022985 12.006934 42.532192
-28.29036 11.189282 47.119762
-28.20329 12.888716 35.429096
-28.384315 12.657292 42.73383
-28.574097 14.018879 36.1046
-27.831043 13.359597 37.39146
-27.802246 13.619851 40.707336
-28.1264 13.359835 42.00799
-28.564114 13.448111 45.087486
-28.068037 14.998691 28.278038
-28.381973 14.320936 36.139526
-27.785341 14.331795 37.353886
-28.152514 15.13174 45.96645
-28.627321 16.19508 27.101284
-28.30004 15.5947485 27.934372
-28.587206 15.45833 45.936302
-28.773054 16.744118 26.687532
-28.546822 17.244581 26.489643
-28.663286 17.563522 26.533934
-28.520527 17.484005 46.52357
-28.054712 17.451605 46.69893
-28.578764 18.397491 26.77598
-28.2372 18.073755 46.588905
-28.547882 18.971266 27.213863
-27.930607 19.02806 30.657223
-28.0934 19.207659 46.194874
-28.840958 19.645712 28.026112
-28.8907 19.823328 29.15835
-27.820782 19.895967 32.851673
-27.976631 20.496334 33.971733
-28.262184 20.286432 34.12676
-28.703882 20.54157 35.93508
-28.159943 20.53228 36.37728
-28.486485 20.376156 42.24999
-28.812809 20.330492 44.29312
-27.881454 19.776121 45.917244
-28.436087 20.554014 36.090553
-28.687382 21.035618 36.842484
-28.44221 21.44575 37.759613
-28.596355 21.448256 38.374096
-28.27752 21.11561 39.047787
-29.07831 20.908316 41.83815
-28.904692 20.925333 42.491085
-28.89799 21.521568 38.075226
-26.745007 -0.15931502 39.047577
-26.986692 0.026526079 39.45617
-26.840202 -0.18135372 40.15395
-26.971823 0.7387007 38.93586
-27.197042 0.67872226 39.545387
-27.085901 0.58942807 40.242638
-26.650696 0.98325104 41.02435
-27.021088 1.2430123 39.138325
-27.10919 1.4293269 39.66745
-26.949492 1.4740936 40.495743
-26.918514 3.3193307 26.612167
-26.756147 2.080895 39.62377
-26.695871 2.360689 40.352722
-27.086393 3.805505 25.911943
-27.31847 3.8355281 26.518532
-27.169186 3.7845535 27.17489
-26.670164 3.6304173 27.799473
-26.843035 4.217629 25.385557
-27.237755 4.4481773 25.791458
-27.52143 4.2757893 26.263323
-27.390947 4.4659557 27.230574
-26.9316 4.465562 27.906273
-27.045517 5.171519 25.837719
-27.320349 5.2080765 26.582193
-27.233109 5.0989165 27.296675
-26.665178 5.6140804 27.848785
-26.952991 5.632335 26.58866
-27.033012 8.753941 43.883976
-27.0704 8.58838 44.12647
-27.215042 8.685898 45.617336
-27.810738 8.95561 46.48967
-27.68587 9.171823 46.818836
-26.960436 10.248651 37.997913
-26.83638 10.1482315 38.153988
[...]
POINT_DATA 11852
SCALARS features_00 float 1
LOOKUP_TABLE default
0.8560893 0.8419591 0.8336895 0.8245264 0.78799486 0.777903 0.7458266 0.49190226 0.49459624 0.49085635 0.46279117 0.45435703 0.41660035 0.40151787 0.43490463 0.44262516 0.42060262 0.45177153 0.9215665 0.9000655 0.8827498 0.88984394 0.86578524 0.8267982 0.7863855 0.8404074 0.800668 0.78244644 0.67974234 0.7743696 0.7461499 0.73386407 0.7193953 0.6273857 0.6097238 0.5083899 0.49553806 0.5016122 0.49669164 0.4236819 0.39043832 0.48646528 0.49058753 0.504856 0.49289364 0.4477834 0.47817233 0.5018398 0.46384633 0.39450455 0.3359086 0.3837682 0.4569726 0.42849723 0.3869992 0.3745752 0.3846602 0.40552664 0.31123844 0.3627976 0.41630965 0.40482286 0.41283906 0.4176028 0.32308114 0.40739608 0.44863442 0.46893963 0.45244628 0.44824815 0.4318054 0.45845902 0.50676996 0.515813 0.47905263 0.89224255 0.9266413 0.888505 0.8380268 0.8301928 0.8766093 0.8115444 0.66887254 0.7916193 0.8194261 0.6235957 0.7506572 0.6209283 0.66442233 0.46695903 0.45919678 0.4928077 0.48992568 0.48877603 0.40893698 0.40942353 0.43030292 0.41760927 0.29369956 0.22955664 0.1542325 0.3377234 0.3711306 0.4252496 0.43955937 0.4159817 0.4343254 0.2774232 0.297397 0.42508584 0.42708758 0.30453297 0.2982156 0.4638552 0.4460144 0.34333438 0.36810666 0.34119403 0.34012192 0.42082292 0.5533817 0.51285225 0.48540837 0.45249236 0.5905876 0.6025053 0.57888687 0.8655601 0.8901843 0.8075987 0.7255166 0.8209796 0.8312175 0.62265897 0.5771716 0.7319757 0.5492271 0.60204947 0.4831676 0.4810251 0.43334055 0.46177953 0.41154483 0.37204587 0.15479049 0.44581202 0.7458135 0.70096785 0.68105066 0.4437845 0.7989069 0.8100568 0.7747437 0.7028263 0.12375313 0.15244868 0.42931587 0.4205764 0.81602055 0.7832444 0.7172307 0.6835061 0.41998887 0.6882299 0.65386736 0.6276213 0.24326275 0.31787008 0.45160568 0.4110167 0.6451856 0.63124764 0.37086284 0.40088344 0.4695773 0.41411665 0.44801745 0.5049975 0.6290355 0.6510973 0.59812236 0.64718306 0.69440264 0.6354317 0.5308719 0.6357896 0.6934536 0.7120811 0.7817526 0.7869951 0.6870729 0.5847528 0.5088272 0.42225885 0.5879592 0.6427738 0.3942989 0.04194456 0.112303 0.2904944 0.43204522 0.006715961 0.61593664 0.38214326 0.25734398 0.3874917 0.7065487 0.6688676 0.47169712 0.28151432 0.39390206 0.7864108 0.3882053 0.779233 0.123298325 0.3826667 0.71601534 0.688284 0.6518191 0.60024923 0.12863657 0.63663244 0.624279 0.59125096 0.13413295 0.33035356 0.38851678 0.445575 0.503673 0.5558235 0.5800236 0.5868831 0.64946127 0.6324744 0.5632841 0.8244442 0.8523984 0.82835186 0.8533851 0.6845839 0.3011343 0.5071269 0.63404775 0.7031847 0.69798076 0.31754297 0.7014735 0.47800383 0.35667425 0.11757093 0.6840265 0.09525132 0.0899017 0.1063921 0.07172127 -0.028607834 0.0482284 0.39055958 0.18858323 -0.004900053 -0.057795063 0.2764828 0.56931424 0.33837754 0.33488107 0.6869912 0.7243206 0.7444109 0.37859765 0.38806677 0.702816 0.41721088 0.639549 0.3358913 0.47613525 0.60513085 0.5615847 0.12663595 0.11927223 0.11731173 0.33621782 0.40499908 0.330796 0.4335292 0.5426934 0.35486186 0.47866553 0.5867149 0.6023909 0.61497945 0.45915532 0.49084747 0.57180876 0.94411933 0.9411155 0.9679934 0.88297015 0.84620416 0.82781535 0.7470788 0.77110136 0.67424965 0.5881362 0.73912555 0.5533924 0.4444701 0.79747957 0.80082506 0.75227076 0.6612575 0.8002306 0.85215247 0.84513044 0.7893828 0.68891823 0.8609735 0.8572583 0.8054905 0.6685787 0.8134689 0.24842784 0.29630965 0.5440723 0.6528991 0.6453063 0.25573477 0.24964736 0.6272107 0.21188352 0.26876068 0.22869909 0.20986412 0.088536754 0.052552506 0.63377917 0.59335494 -0.06472596 0.16154818 0.55387056 0.59301555 -0.021273836 -0.006112257 -0.26185092 0.0539217 0.11130161 0.09806143 0.0043545626 0.46243358 0.044283234 0.026580963 0.086049065 -0.018476307 0.28144333 0.1028107 0.1197161 -0.08019257 0.55246013 -0.27792948 0.09763573 -0.22797067 -0.3831828 0.41111565 0.083053365 -0.26976162 0.46120524 0.50861895 0.44634986 0.30194604 0.012851492 0.5285009 0.52611464 0.5283239 0.13272752 0.5682007 0.49503565 0.3928109 0.5234392 0.5838856 0.584576 0.138101 0.61924404 0.6197524 0.96216464 0.9925837 1.0 0.8920823 0.93826413 1.0 0.92282563 0.88556063 0.90409976 0.50697196 0.5699893 0.63449824 0.57827306 0.5708615 0.7123527 0.50525796 0.38553736 0.30158395 0.76419187 0.7239251 0.5457145 0.5225441 0.28320864 0.2939842 0.36206466 0.5368555 0.7740381 0.5876501 0.49476936 0.23565581 0.23318478 0.34167793 0.42274386 0.78442395 0.5365504 0.42448357 0.091054 0.12012145 0.15266688 0.39437893 0.6873802 0.7566498 0.62818295 0.08313369 0.3063344 0.083060175 0.22298387 0.27697754 -0.22609837 -0.17415768 0.5239116 0.2226268 0.2299158 0.17777409 -0.078641035 0.019643795 0.5032225 0.55905825 0.47117692 0.4543705 0.4059631 0.004689865 0.1638105 0.10457757 0.5093217 0.5263133 0.48980138 0.47783107 0.4600581 0.30834442 -0.096651435 0.023017233 -0.010923218 0.5086609 0.53849816 0.49295145 0.48218536 0.4626885 0.32538894 -0.07203549 0.40673307 0.3090624 0.053635158 0.1487411 0.06482066 0.29989895 -0.16880628 0.42783824 0.32132268 0.26081416 -0.23105286 0.49187392 0.4350829 0.5276437 0.25171465 0.5982165 0.5607624 0.38812757 -0.06843324 0.03299547 0.11084547 0.3751216 0.39885125 0.51733744 0.59077555 0.6140423 0.43522707 0.3732602 0.10374783 0.12636577 0.59275246 0.46794012 0.94102025 0.96176183 0.95627487 0.81897926 0.8869806 0.91552067 0.6643989 0.86018425 0.4920221 0.3341112 0.21266976 0.8433895 0.4650061 0.2893881 0.42546624 0.4019947 0.37883464 0.8529727 0.49458963 0.4275874 0.422252 0.3694519 0.40925294 0.35723093 0.54649925 0.28057852 0.12057329 0.04266867 0.35266158 0.7052765 0.7065401 0.50448984 0.51507616 0.29904643 0.22221525 0.15266523 -0.11068661 -0.013176605 0.2878355 0.2854447 0.70065045 0.7265953 0.7429588 0.24188338 0.20200026 -0.1194396 -0.09155055 0.27483436 0.68108153 0.7324493 0.7541561 0.7460341 0.2241008 0.11752369 0.2701962 0.33311227 0.4992442 0.64421606 0.6949102 0.6957321 0.32639098 0.34748942 0.27644828 -0.054087646 -0.09826902 -0.14515492 -0.0022396562 0.3705804 0.5442791 0.56478286 0.5348635 0.5523108 0.54032415 0.41372746 0.4478529 0.3911444 0.36091614 0.22494209 0.11828909 0.09522712 0.10921136 0.057181656 -0.019786209 0.44548124 0.46262115 0.48028746 0.277658 -0.24552247 0.023259645 0.39333415 0.4421783 0.46508777 0.10745114 0.29783297 0.3499735 0.092190176 0.18723902 0.10407922 0.058337748 0.086521484 0.025748603 0.004876755 0.43665668 0.039386857 -0.13327354 0.097703874 0.5988997 0.099359624 0.45491624 0.66083276 0.5871624 0.018196017 0.21317099 0.18884124 0.50206375 0.5445043 0.62618136 0.6444113 0.69572103 0.63577735 0.5179913 0.45605424 0.39008108 0.21656555 0.2903032 0.71794784 0.65218306 0.53400975 0.49859512 0.49006367 0.48837954 0.39160722 0.6667024 0.5550275 0.54326415 0.5365186 0.92492723 0.89406765 0.8337491 0.5092622 0.50085396 0.89728594 0.8459929 0.75443083 0.60726315 0.5316893 0.3880666 0.42767686 0.4624597 0.85869646 0.8577362 0.464512 0.45687982 0.2816013 0.27436462 0.2909927 0.077444114 0.8341667 0.81704366 0.41577882 0.24170455 0.27820286 0.1074496 0.08181082 0.1947588 0.19063309 0.39086002 0.23013686 0.27657613 0.18459745 0.18701081 0.18052968 0.3835851 0.74951977 0.721536 0.62742543 0.5134369 0.46084744 0.46211672 0.4623237 0.43841898 0.17640714 0.15992294 0.15200967 0.24923716 0.36539584 0.7785928 0.7653457 0.708455 0.5370813 0.4939118 0.4963277 0.48543707 0.44680324 0.21229208 0.07569333 0.027367324 0.27264664 0.27863586 0.23412353 0.32477212 0.7691443 0.7517362 0.68641657 0.5446282 0.49568018 0.47527418 0.43930113 0.42042252 0.3465338 0.6185789 0.6591635 0.66031885 0.22537574 0.019880049 0.088550985 0.1841402 0.25778493 0.27862796 0.23299055 0.29984793 0.29213366 0.68434036 0.4253499 0.37730947 0.34323186 0.312186 0.2739973 0.6560943 0.69117725 0.70953095 0.25153062 0.24485925 0.20732391 0.18115966 0.22573906 0.11394769 -0.006760869 0.20718981 -0.11005492 0.25073427 0.38492996 0.36115995 0.31680286 0.40937787 0.36726016 0.3482132 0.6311064 0.69287133 0.2797215 0.22498576 0.0880505 0.08504647 -0.116671436 -0.05906775 0.03324289 0.23322833 0.22687368 0.44127488 0.49344313 0.4711498 0.45443332 0.46655855 0.46377546 0.3057405 0.22488302 0.18361549 0.22475597 0.13338129 0.1888527 -0.012950223 0.10661663 0.078548506 0.22941786 0.5444535 0.56090784 0.54926986 0.49455994 0.5241371 0.44682854 0.42145503 -0.07920674 0.0036663637 0.24167635 0.58515346 0.5907811 0.5847964 0.4860946 0.4636216 0.47196478 0.4425289 0.4016085 0.41016436 -0.028853074 0.54763794 0.4974727 0.36642975 0.44096953 0.41391867 0.37816262 0.08308972 0.24000987 0.071748085 0.13789916 0.11204478 -0.010306127 0.122381546 0.092709765 0.05585573 -0.0036325306 -0.0469565 -0.1877295 0.07103815 0.64986277 0.12447265 0.01924631 0.43975788 0.5209508 0.6829621 0.66409785 0.36649755 0.53918016 0.582469 0.6287426 0.6792411 0.7066136 0.68397963 0.5175418 0.5607432 0.60421515 0.74975204 0.73591065 -0.022628166 0.3597649 0.7782621 0.7583263 0.47091913 0.43173122 0.1673472 0.38226682 0.37906677 0.42821842 0.4246124 0.7712083 0.7294686 0.6170109 0.5866783 0.56144387 0.54051906 0.54143995 0.55022025 0.47861183 0.53201014 0.5405288 0.5025929 0.85133547 0.8219265 0.7002461 0.56695265 0.27038142 0.31783226 0.39736885 0.7782875 0.5459527 0.46999952 0.42222598 0.25781193 0.27548498 0.29646146 0.26902026 -0.027578803 0.084316924 0.39011893 0.75712985 0.4107743 0.35235822 0.25793013 0.25088954 0.045984216 0.12589931 0.19037841 0.17393018 0.106166355 0.14201829 0.35256797 0.3565034 0.63439405 0.5856264 0.5126858 0.42093432 0.4046589 0.4015929 0.39460677 0.14064881 0.15025422 0.18073763 0.16843884 0.09334486 0.073683605 0.3425798 0.71527386 0.6694248 0.5655093 0.43516517 0.41784728 0.3765006 0.022650346 0.18332624 -0.06695076 0.34229508 0.73957336 0.7638099 0.29205823 0.18623623 0.02649092 0.31819886 0.7474862 0.71343875 0.53882486 0.6005657 0.56446624 0.5834307 0.208384 -0.15061401 0.31461966 0.655586 0.6384481 0.48099965 0.44240415 0.2335855 0.16054918 0.557359 0.60771084 0.2055377 0.21824545 0.012402743 -0.12589413 0.28872865 0.38841444 0.35326543 0.29821554 0.27111354 0.25708532 0.45096934 0.2619472 0.22770992 -0.013728071 0.25820914 0.19412674 0.27596644 -0.079115726 0.5407979 0.11709876 0.16748717 -0.1044634 0.15197957 0.5418258 -0.011007749 0.20897534 0.46052676 0.48712215 0.42932892 0.29122388 0.14226043 0.28367937 0.36662197 0.3625707 0.17105964 0.23418356 0.28487524 0.090128615 0.15085879 0.14279483 0.17504445 0.18410532 0.5058732 0.4642343 0.15991184 -0.03182023 -0.08485317 0.22914547 0.24887684 0.536453 0.5751865 0.63040364 0.654722 0.6113436 0.6504843 0.6712848 0.49045444 0.3160222 0.57511884 0.5983446 0.6375942 0.72873616 0.6380403 0.7818619 0.61867297 0.7980696 0.79606295 0.35960376 0.4215551 0.45578575 0.5134564 0.8006393 0.7776936 0.7076187 0.5867947 0.5589237 0.53302115 0.5011545 0.4423201 0.45261133 0.572027 0.48578262 0.5281429 0.56190425 0.5606561 0.44886312 0.5432291 0.5327389 0.63181496 0.624248 0.60482305 0.22750343 0.24863186 0.4726106 0.65013534 0.5906902 0.54003876 0.44144446 0.4049484 0.24742395 0.0033594372 0.43485248 0.37485904 0.33463204 0.18760581 0.34425437 0.36784104 0.32723603 0.3397023 0.34468725 0.32081854 0.30719942 0.22785287 0.1533668 0.14802253 0.122694544 0.15200827 0.2358347 0.2869513 0.31021774 0.6248215 0.5316285 0.4117959 0.35642356 0.31543797 0.327666 0.1257531 0.11352361 0.28131902 0.5925997 0.6452582 0.25862187 0.19115855 -0.015726995 0.024820805 -0.012073146 0.24643911 0.6938602 0.728328 0.25117728 -0.047746196 -0.04218241 0.052890122 -0.038794614 -0.0735408 -0.09726022 0.28630283 0.68417335 -0.013084952 -0.06343811 0.24250343 0.40538925 -0.14665058 -0.13963647 0.0698001 0.10308306 0.3041852 0.3357035 0.6389368 0.5145182 0.46610296 0.099412106 0.024593007 -0.054729857 0.34513536 0.42948958 0.41684872 0.2939528 0.19666937 -0.0021722913 0.30909157 0.29643458 0.27488336 0.2621425 0.2110919 0.351672 -0.052403457 0.3352381 0.36165294 0.36358112 0.21367434 0.20920199 -0.118347466 0.47534448 0.11979051 0.16913958 0.21382679 0.2573335 0.3128876 -0.14126737 -0.108318016 0.53008294 0.08218268 0.11295511 0.28297257 0.12385139 0.14353356 0.22963336 0.2126841 -0.433846 -0.2781366 0.112508744 0.35617882 0.25884143 -0.31666782 0.31746888 0.35321975 0.3602265 0.28730583 0.18657859 0.018601716 0.1590735 0.73688334 0.69446236 0.7780683 0.7240452 0.7895965 0.78234124 0.4390937 0.4062362 0.40306312 0.4367374 0.56081486 0.67371416 0.7005751 0.77928996 0.7505988 0.71348315 0.55857766 0.5295855 0.5329091 0.4497183 0.47326022 0.52159685 0.3700972 0.49986058 0.5705975 0.56483746 0.5400081 0.6483888 0.646947 0.19590746 0.33214265 0.53399456 0.6699512 0.6612244 0.640941 0.62559795 0.1837507 0.46632245 0.547395 0.63048005 0.5792449 0.0726111 0.23659027 0.18860768 0.15298325 0.18302044 0.23161036 0.23522192 0.18073967 0.22017947 0.23365062 0.39237627 0.4095595 0.10852219 0.1654324 0.16542113 0.46807048 0.03323234 -0.10742741 0.02466666 0.07998366 0.07631556 -0.18183799 -0.058545716 0.00056276843 0.55486953 -0.073768675 -0.29754215 -0.07456977 -0.046879686 0.14046505 0.61970705 -0.2870605 -0.414354 -0.16949752 -0.12988944 0.04292721 0.28364858 0.53963757 0.42360413 -0.17449707 0.30575684 0.35411564 0.3525372 0.3207345 0.12922134 0.38250363 -0.12838583 0.14135037 0.5052309 0.23064616 0.5194164 0.32795578 0.2636261 0.26364845 0.56438684 0.1379924 0.10113248 0.07716356 0.09043404 0.17360446 0.20056067 0.1832596 0.16004695 -0.16033202 0.64633954 -0.017823972 0.3379051 0.638799 0.105170086 0.1595478 0.12708564 0.3360287 0.23498788 0.40416083 0.4088382 0.4119106 0.40859422 0.30755997 0.30093884 0.38002458 0.39668202 0.38496095 0.6451527 0.6254215 0.7341062 0.7549373 0.7155629 0.07766625 0.7534472 0.7373979 0.6351062 0.410329 0.20224927 0.31442112 0.32563916 0.2817326 0.39156827 0.4483139 0.51500875 0.6195246 0.6983274 0.7348233 0.7491883 0.71829116 0.47220537 0.52921486 0.57846713 0.35301775 0.3525198 0.32250327 0.2644822 0.24544117 0.292017 0.18569377 0.03312415 0.25735474 0.54502106 0.5368241 0.533363 0.6410656 0.6324311 0.14473884 0.1882264 0.17773455 0.009928167 0.46887407 0.652683 0.6522706 0.6317923 0.61951053 0.57807136 0.7519679 0.70129675 0.421072 0.09141403 0.12181548 0.24446031 0.541334 0.56342494 0.3741852 0.7011396 0.66688234 0.4090119 0.23756018 0.22618948 0.43414372 0.2983778 0.5448532 0.5166434 0.096065536 0.079082765 0.10973148 -0.1736514 0.285394 0.25935376 0.24912909 0.20374703 0.2180745 0.034360968 0.042229924 0.06369989 -0.058102023 0.09401692 0.19295774 0.17481095 0.04305245 -0.042956937 0.25049388 0.25179833 -0.09915827 0.1316057 0.034064338 0.16269186 0.10631618 0.37589493 -0.345338 0.11781019 0.3225989 0.25749657 0.31675798 0.20521377 -0.096457 -0.07231824 0.41915762 -0.121504396 0.07044351 0.62894267 0.5955448 0.28231144 0.66440034 0.62928 0.18564264 0.0860447 0.09042019 -0.098898694 -0.35218918 0.6040741 0.68796927 0.65021074 0.2636658 0.16946797 0.258261 0.009381846 -0.18915771 0.0017975573 0.34341443 0.6763293 0.7209777 0.715811 0.114939794 0.23561677 0.3479184 0.39878517 0.39934433 0.40628475 0.4026616 0.43876213 0.3796528 0.4892196 0.4374808 0.5264995 0.42948014 0.5226854 0.21695624 0.048494637 0.043399666 0.7031337 0.2888503 0.20180506 0.14305909 0.130777 0.09341345 0.10345037 0.11546339 0.758569 0.22028914 0.21296482 0.52546763 0.5945233 0.6591402 0.7291715 0.46915454 0.38204533 0.41716918 0.4087652 0.3926087 0.3367971 0.3835603 0.35405073 0.3296742 0.2929466 0.2349905 0.31233475 0.291896 0.111031726 0.056498423 0.46840754 0.6312554 0.62103784 0.81720334 0.7705337 0.64556396 0.1640599 0.14268324 0.37935442 0.41467968 0.61834383 0.6042919 0.5946482 0.8015115 0.78884375 0.7129437 0.5745273 0.46962014 0.33193964 0.17468792 0.13502946 0.12090479 0.43167377 0.59677625 0.37310916 0.7449732 0.6844319 0.3175093 0.21296743 0.08730814 0.07331818 0.33886042 0.33770907 0.6164242 0.037797395 0.14493379 0.14752525 0.24111752 0.20145985 -0.06726378 -0.03112214 0.18580598 -0.047217574 0.13591586 0.39083266 -0.10647178 0.17601985 0.2831215 0.33173448 0.11062817 0.35182935 0.10035768 0.30711725 0.190229 0.3114261 -0.084982194 -0.086059995 0.37201288 -0.048711658 -0.048789278 -0.18442544 0.36549854 0.42065623 0.44153512 -0.026067887 -0.0063015018 0.3782338 0.47385365 0.50620514 0.5595309 0.011787196 0.57983506 0.62410784 0.004321903 0.008865431 -0.18721119 -0.06100869 0.66825527 0.6719574 0.68555075 0.011310726 -0.09809506 -0.22912551 -0.057198785 -0.16797934 -0.1012965 0.13726777 0.6378061 0.70948195 0.7259233 0.72044003 0.3022619 0.31566328 0.30474347 0.18539459 0.043711424 0.19829963 0.14267063 0.31557852 0.7098843 0.7308624 0.36377516 0.355797 0.3299974 0.36647773 0.09394792 0.42242986 0.49219826 0.54628336 0.54289675 0.38879615 0.17798735 -0.20379612 0.058216646 -0.04436959 0.07052751 0.08554429 0.11886894 0.11670226 0.6444291 0.10341878 0.31799412 0.47613236 0.55478776 0.67010534 0.4661427 0.5624492 0.6252165 0.5620759 0.5527746 0.5036575 0.44708097 0.465214 0.5052477 0.4727572 0.45659065 0.34232533 0.40459883 0.40494558 0.2815003 0.3599308 0.31034645 0.21656841 0.19766617 0.14095691 0.8349602 0.7729198 0.6307271 0.5527418 0.49504134 0.28206915 0.20371912 -0.00451158 -0.010830905 0.5583897 0.5706719 0.5354503 0.8295857 0.8131039 0.43765795 0.24645133 0.1897501 0.11962707 0.1389915 0.43781132 0.41371503 0.7652116 0.24618986 0.250436 0.31906602 0.049791664 0.10588049 0.2535408 0.65569615 0.23394756 0.23976003 0.19624873 0.07661482 -0.04194437 0.08100101 0.45383465 0.1586436 -0.09426277 -0.0934965 0.30261594 0.44509596 0.48674387 -0.12938645 -0.1256888 0.07525204 0.1731443 0.52871305 0.48219034 0.09358303 -0.18202874 0.4399276 0.13575211 0.3746344 0.17888346 0.07177019 0.298831 0.029997544 -0.0860976 0.018395811 -0.022787124 0.05862212 -0.011555936 0.022615667 0.46942657 0.044919092 -0.008987531 0.5677177 0.5581713 -0.0021345373 -0.4028323 -0.13541575 -0.13845861 -0.11887473 -0.13953356 0.6680896 0.0025504977 -0.4165606 -0.030495312 0.11977209 -0.10578966 0.10296749 0.024132192 0.3210451 0.27453327 0.11248357 0.30909017 0.33142734 0.3120135 0.27763882 0.3091722 0.42877656 0.32449952 0.21140529 0.27538264 0.48932827 0.27147928 0.28367704 0.42340034 0.5126834 0.4588711 0.3577048 -0.030588984 0.52302337 0.46807826 0.500602 0.5220006 0.53155565 0.5343759 0.53151894 0.39766657 0.14445147 -0.12678345 -0.023292389 0.5138652 0.53494114 0.44584608 0.37890816 0.0680885 -0.025013452 0.48762292 0.09651457 0.08938511 0.14822224 0.25466007 0.28065765 0.36377618 0.4133405 0.42702642 0.5796285 0.6433815 0.6022136 0.51583445 0.47939608 0.42438048 0.4709897 0.44793522 0.3371679 0.3517087 0.37865695 0.25597456 0.3263529 0.30701992 0.25150794 0.16053426 0.34132677 0.32751703 0.7330745 0.7048428 0.60157174 0.54885876 0.49244124 0.3230147 0.115882926 0.743512 0.71006995 0.47704566 0.31542557 0.37179816 0.307483 0.15837502 0.16954675 0.39674377 0.4403802 0.4174935 0.2873909 0.7042769 0.37424493 0.27837867 0.08846205 0.14140634 0.6539934 0.6378633 0.343811 -0.055325843 0.069983736 0.019814685 0.43876794 0.50791067 0.55333143 0.17064631 0.30810204 0.43246728 0.54241014 0.5644784 0.54406285 0.055646017 0.195983 0.49192762 0.39537334 0.23027661 0.077391945 0.074725196 0.078288876 0.052625485 0.34155744 0.18756674 0.023539893 0.0435483 -0.071368575 0.3103263 0.035103425 -0.21875682 -0.061408535 0.02789358 0.30694842 0.23018461 0.13588643 0.012317929 -0.013685115 -0.394718 0.28942764 0.24381015 0.021864869 0.23417735 0.23910323 0.34547853 0.3182289 0.296418 0.15291199 0.23733333 0.21230568 0.3978957 0.23230946 0.21027216 0.15216547 0.39237022 0.50810075 0.54928136 0.40864685 0.46836 0.39890128 0.5605481 0.305209 0.11712021 0.11198029 0.10473302 0.1253503 0.19542183 0.58082134 0.10935951 0.12492371 0.25859696 0.36457458 0.48486832 0.5409301 0.5691347 0.37298384 0.45616326 0.62636614 0.5964824 0.61892474 0.64949775 0.6005658 0.52759993 0.47376382 0.44889438 0.4254861 0.35957623 0.33080912 0.36316657 0.34202945 0.32611424 0.3070687 0.30268595 0.2226375 0.3389349 0.3488442 0.024427442 0.6065041 0.562