# vtk DataFile Version 2.0
Really cool data
ASCII
DATASET POLYDATA
POINTS 6967 float
-41.77689 1.9875469 54.793167
-41.8251 2.0802448 55.456524
-41.82886 2.1494648 56.044353
-41.769855 2.808557 54.082573
-42.034786 2.7072632 54.610638
-42.244987 2.8014913 55.51505
-42.114414 2.853655 56.21845
-41.68414 3.063235 56.873234
-41.766655 3.625697 54.178566
-42.144787 3.493084 54.736908
-42.33129 3.4667933 55.56932
-42.179325 3.5243897 56.322857
-41.775196 3.3855655 56.8237
-41.909885 4.3936954 54.962345
-42.2497 4.064135 55.534367
-42.021294 4.2157083 56.264442
-41.667892 4.47288 56.77706
-41.668877 4.767193 56.4107
-41.66533 11.199341 60.380295
-41.81503 11.749811 59.847378
-41.777668 11.689218 60.446407
-41.6428 11.657382 60.83959
-41.775238 12.441744 59.80501
-41.804607 12.333526 60.40073
-41.6346 12.323325 60.858025
-41.657036 12.882266 59.82005
-41.668964 12.914238 60.236946
-40.547977 -7.160522 61.736485
-40.593662 -6.1569934 59.77457
-40.59075 -6.3036237 60.37793
-40.593224 -6.638975 61.5168
-40.559288 -5.7411666 59.52944
-40.64444 -5.717113 60.239624
-40.585304 -3.081525 51.668728
-40.621735 -3.0791388 52.108776
-41.013397 -2.2073429 52.57142
-41.15825 -2.1242151 53.260258
-40.755207 -2.5299466 54.10627
-40.536106 -2.0702372 62.63407
-41.039864 -1.2592441 51.980034
-41.197754 -1.5667994 52.684925
-41.287575 -1.4652028 53.443024
-41.06369 -1.4662884 54.24072
-40.641495 -1.6061242 55.039967
-41.00562 -0.36545667 51.843197
-41.290302 -0.5661696 52.7552
-41.239605 -0.5238881 53.777637
-40.860397 -0.36755747 55.163914
-40.99981 0.35563272 51.95094
-41.201378 0.1922369 52.363857
-41.258907 0.19261588 53.328026
-40.814053 0.58340436 54.81702
-40.75925 0.71059245 55.171253
-40.85626 2.1826632 39.102894
-40.91291 1.95195 39.72028
-41.007744 2.0082865 40.318634
-40.91118 2.0700097 40.892292
-40.890923 1.2096053 53.03878
-41.050407 1.3113055 54.514645
-41.271683 1.9125202 56.470665
-40.900475 1.9724014 56.90828
-40.92178 2.75076 38.822968
-41.266888 2.612099 39.639694
-41.360126 2.6485872 40.40714
-41.075264 2.6031024 41.110836
-40.856937 2.1936224 53.306816
-41.3387 2.5933778 53.753822
-41.433743 2.8789048 57.034348
-41.116486 3.4311519 39.077164
-41.38501 3.232412 39.705097
-41.431824 3.3552413 40.44608
-41.26897 3.109257 41.071697
-40.639416 4.179296 44.62673
-40.620945 4.1649847 45.259777
-41.367584 3.097972 53.754665
-41.372406 3.8038068 57.169926
-40.62095 4.756248 38.248455
-40.662495 4.77472 38.34109
-41.273438 4.395825 39.52704
-41.157036 4.220242 40.689667
-40.907917 4.3689637 41.34619
-40.877045 4.808323 44.725105
-40.767693 4.599322 45.423405
-40.6726 4.6706047 45.84106
-41.062122 4.340792 53.99754
-41.47167 4.7881246 56.76017
-41.282894 4.370711 57.168636
-40.744205 4.605013 57.771057
-40.966732 5.1824975 38.758587
-41.26139 5.4555407 39.682037
-41.2015 5.439419 40.650795
-41.09356 5.4341326 41.077995
-40.573166 6.0260673 42.651398
-40.890427 5.7375793 43.689827
-40.980743 5.631785 44.414047
-40.988895 5.612903 45.349564
-40.76955 5.5119457 45.86166
-40.71045 5.2622714 53.88042
-41.217987 4.967244 54.809032
-40.95405 5.533195 55.572887
-41.39888 4.8638763 56.545773
-40.64066 5.9981465 38.573032
-40.979256 6.0969653 39.51781
-40.939716 6.286946 40.24301
-40.952885 5.8921065 41.050167
-40.580544 6.5548897 42.256958
-40.866 6.3035975 43.795452
-41.147896 6.3090596 44.673897
-41.050846 6.675186 45.319393
-40.771366 6.5959086 45.884613
-40.761364 5.767813 55.524925
-40.702236 7.397079 43.455776
-40.919277 7.415926 44.635624
-40.89597 7.2771835 45.375618
-40.696476 7.100077 45.88819
-40.57382 7.7317553 53.09867
-40.55673 7.4736404 56.475185
-40.62999 7.8048663 57.383278
-40.675095 7.82402 44.76669
-40.63467 8.675929 52.712452
-40.571598 8.919525 53.945736
-40.582718 8.4039955 57.18604
-40.628216 9.410989 52.503315
-40.686127 9.316051 53.367233
-40.556473 9.70551 58.665916
-40.592506 9.327317 59.558876
-40.71546 9.462008 60.564026
-40.777866 10.028951 61.068836
-40.604527 10.117701 52.768253
-40.569847 10.4162 53.26606
-41.25295 10.694105 59.924973
-41.481552 10.890648 60.282776
-40.980072 10.560311 61.12536
-40.678204 11.274578 58.170773
-41.34972 11.662322 59.01464
-41.14899 11.448651 61.372795
-40.861645 11.984174 61.74113
-41.37057 12.468342 59.00761
-41.30605 12.437815 61.25121
-40.94075 12.501784 61.626385
-41.060158 13.226596 58.954773
-41.377632 13.218445 59.548264
-41.351192 13.345058 60.377556
-40.941856 13.286764 61.133705
-40.817436 13.753464 59.110405
-40.995434 13.767372 59.69238
-40.91547 13.796082 60.268044
-39.83614 -8.056642 60.145634
-39.916748 -8.139468 60.48713
-39.886932 -8.398945 61.58331
-39.946533 -8.248119 62.424133
-39.7739 -8.128223 63.047783
-39.719646 -6.8577223 49.922302
-39.784492 -6.809314 50.229515
-39.73558 -6.8075223 50.917286
-40.06477 -7.338126 59.757214
-40.360043 -7.340746 60.463684
-40.41913 -7.3696685 61.527996
-40.380207 -7.435037 62.41608
-39.979282 -7.458193 63.21931
-39.756416 -6.182543 48.98987
-39.92395 -6.320632 49.551716
-40.053215 -6.368829 50.524845
-39.94123 -6.2364383 51.152485
-40.004597 -6.2375646 58.838882
-40.28875 -6.5311146 59.426983
-40.467052 -6.68671 60.36261
-40.460987 -6.4957504 61.653805
-40.422775 -6.4725995 62.468792
-40.03458 -6.5881853 63.278812
-39.700768 -5.384817 48.747265
-40.10422 -5.393486 49.775253
-40.170277 -5.476622 50.530125
-40.0097 -5.653376 51.285225
-39.728775 -5.3316207 52.1744
-40.256214 -5.632989 58.947502
-40.487656 -5.4949546 59.35565
-40.46238 -5.966889 61.836456
-40.26736 -5.5248013 62.13645
-39.813896 -5.578942 63.117447
-39.554394 -4.386933 47.896763
-39.89229 -4.4435096 48.902912
-40.073315 -4.4068437 49.548046
-40.192753 -4.370739 50.632084
-40.104145 -4.853902 51.04062
-39.92205 -4.2453957 52.505432
-39.921963 -4.015154 53.232975
-40.03954 -4.6759133 58.776276
-40.414795 -4.979077 59.78952
-40.13886 -4.363579 60.499504
-40.12431 -4.9363675 61.65058
-40.029003 -4.9607234 62.096577
-39.688255 -4.171068 63.160656
-39.78542 -3.8792691 48.88615
-39.92969 -3.5539165 49.440945
-40.280796 -3.4902518 50.615505
-40.41584 -3.5846078 51.34711
-40.100212 -3.6602507 53.29761
-40.166763 -2.986636 54.56145
-39.61727 -3.1331954 55.476963
-39.546932 -3.841408 57.95613
-39.659557 -3.566295 58.651253
-39.769924 -3.729821 59.474266
-39.941296 -3.6905227 60.149498
-39.903297 -3.6191552 61.753433
-40.178364 -3.0878952 62.344193
-40.00354 -3.220675 63.476963
-39.915398 -3.037943 63.83021
-39.780834 -2.9837584 49.900803
-40.16975 -2.6122174 50.61539
-40.494606 -2.2480955 51.44444
-40.12812 -2.312358 55.12118
-39.53554 -2.3577814 59.749672
-40.024788 -2.5559325 61.007366
-40.38389 -2.4184036 61.855526
-40.417156 -2.3132987 62.657413
-40.36544 -2.1964645 63.231266
-39.87344 -2.3487968 64.13116
-40.37114 -1.7683668 51.15623
-40.58486 -1.3937849 51.350323
-39.826817 -1.5106611 56.026222
-39.692497 -2.0710337 60.146515
-39.729248 -1.6481824 60.672787
-40.286125 -1.6907641 61.775753
-40.43495 -1.6940916 62.58128
-40.316128 -1.5844724 63.44983
-40.034126 -1.5444808 63.956623
-39.84928 -0.7072119 50.893284
-40.441788 -0.6596439 55.685448
-39.621174 -0.95416945 60.878128
-39.865265 -0.5164068 61.802208
-40.12284 -0.79090416 62.687576
-40.110268 -0.9060216 63.37265
-39.84948 -1.0003123 63.91957
-40.248325 1.3401182 39.634094
-40.226913 1.3514185 40.35849
-40.08156 0.45379984 51.12564
-40.541443 0.4517131 51.55093
-39.576942 0.9107098 57.45883
-39.73048 -0.24554268 62.63676
-40.32663 1.7718855 38.93661
-40.314514 1.5460887 39.377163
-40.55881 1.6049049 40.475746
-40.262756 1.7365792 41.154957
-40.21046 2.0824978 41.678844
-39.780537 0.86433214 51.116776
-40.283592 1.5243528 52.930878
-40.682632 1.6907231 56.817085
-40.338757 2.6039014 38.279686
-40.551987 2.5744247 38.454918
-39.7412 2.494274 42.011753
-39.847767 3.2687638 45.307686
-39.926075 2.3510823 52.92831
-40.467453 2.6945138 57.305202
-40.386406 3.2848408 38.067627
-39.620808 3.250801 42.599907
-39.980247 3.923397 43.665424
-40.136665 3.7424006 44.52539
-40.361843 3.9321847 45.52621
-40.138546 4.038241 46.017754
-40.440887 3.3960626 53.33778
-40.13026 3.8337698 58.013466
-39.678574 4.540511 36.995586
-40.330013 4.112367 38.04731
-40.41912 4.102231 41.95617
-40.314835 4.658358 46.315907
-40.020584 4.8448224 46.6642
-39.95025 4.665821 53.059147
-40.304657 4.47534 57.990196
-39.789062 5.240973 36.97745
-40.030663 5.4742002 37.728424
-40.616776 5.8070483 38.398434
-40.43104 5.3811555 46.296055
-39.90494 5.7182903 46.752583
-39.564667 5.7563524 52.058132
-40.62455 5.182537 54.078915
-40.40704 5.3120275 57.93587
-39.516674 6.265169 36.72484
-40.07779 6.1602836 37.920586
-40.603233 6.010902 38.659996
-40.3065 6.582798 46.318024
-39.770844 6.9147525 51.734543
-40.350155 6.8424172 53.198776
-40.154133 6.952257 40.54215
-40.177074 7.241242 41.71296
-40.455887 7.236687 42.279064
-40.279167 7.6196074 46.01951
-39.71748 7.8090496 51.05668
-39.89892 7.7406807 51.550858
-40.455658 7.5552588 53.6209
-40.279118 7.465679 55.55183
-40.45737 7.766678 57.703
-40.172703 8.002311 42.653496
-40.113144 8.366053 43.835
-40.356033 8.15245 44.619484
-40.26754 8.087623 45.36753
-39.80788 8.665082 51.06326
-40.116386 8.351131 51.673916
-40.44521 8.945958 52.181118
-40.47317 8.38108 53.88084
-40.21354 8.389946 54.80466
-40.370377 8.689148 56.11822
-40.51401 8.276863 57.704357
-40.430176 8.056111 58.152348
-40.22135 8.8085575 59.78929
-40.51256 9.091257 60.341347
-39.85734 8.724021 61.087425
-39.57498 8.891092 41.66182
-39.966827 9.349635 51.156017
-40.4694 9.479982 52.387886
-40.170692 9.21164 54.99625
-40.055664 9.6895 56.19646
-40.154953 9.550264 57.348717
-40.338375 9.537032 61.369366
-39.8207 10.110141 51.21677
-40.26973 10.342466 52.064747
-40.353703 10.44008 52.352703
-40.45225 10.620907 53.434536
-40.117992 10.484789 54.333714
-39.677883 10.243499 55.378498
-39.949047 10.499169 57.364716
-40.448597 10.416976 58.498993
-39.581112 10.722366 62.875813
-39.8933 10.772089 51.81973
-39.934982 11.177905 52.622936
-40.112644 11.139764 53.495525
-40.11904 11.089716 53.931057
-40.326073 11.453745 57.8967
[...]
POINT_DATA 6967
SCALARS features_00 float 1
LOOKUP_TABLE default
0.47794193 0.52433956 0.5299495 0.43367577 0.5600594 0.6382586 0.59436667 0.5055391 0.46365327 0.6150266 0.6628962 0.5864978 0.5119907 0.59065646 0.64321315 0.5692004 0.49516723 0.52569 0.55376387 0.6396619 0.62141615 0.59667134 0.6837041 0.67330265 0.65796983 0.6901087 0.69029593 0.58901 0.41280067 0.4346261 0.482549 0.37296122 0.38200665 0.2270882 0.25083464 0.3168701 0.3497937 0.28197092 0.5065819 0.32907984 0.3547786 0.37408578 0.322315 0.22020128 0.32302925 0.3805446 0.34463626 0.22072774 0.26986906 0.32266086 0.34433842 0.22667302 0.22387317 0.59282994 0.60021776 0.58198404 0.5302124 0.2014562 0.30671132 0.43695194 0.3807282 0.5623795 0.62288535 0.61081266 0.5280746 0.12880358 0.29130334 0.46840924 0.5333943 0.60402274 0.588444 0.5370152 0.41136652 0.4399169 0.30293664 0.42727697 0.24433434 0.2614838 0.49150938 0.48880458 0.39492142 0.47159636 0.47775507 0.47904488 0.33986318 0.4721275 0.41721117 0.25391987 0.33176106 0.42588162 0.35625648 0.2822106 0.17462361 0.38838518 0.48836064 0.53604305 0.52724314 0.22198448 0.46964395 0.4396995 0.4903038 0.2873859 0.39566106 0.3294874 0.23343265 0.13968003 0.41844887 0.5326061 0.56105876 0.5387937 0.3481733 0.3586082 0.51716334 0.5371642 0.5175884 0.27390385 0.05881187 0.13304275 0.47557378 0.36160874 0.30326986 0.098940596 0.4340326 0.39095783 0.18830036 0.26921713 0.3046326 0.325229 0.46810824 0.44659483 0.46349645 0.4971907 0.38826388 0.3522546 0.597808 0.5057379 0.5271453 0.65250957 0.6483389 0.61100304 0.62041265 0.67183363 0.6772226 0.65095115 0.59164774 0.63176847 0.63676596 0.62163615 0.64242953 0.77981806 0.8575754 0.8442011 0.4306106 0.4264595 0.39221027 0.50610614 0.5339655 0.61282563 0.7771152 0.8135526 0.41217214 0.4382661 0.41604856 0.3703506 0.39128205 0.42243773 0.46820214 0.47674453 0.57135 0.67104 0.36289823 0.39692503 0.37974954 0.3395503 0.22684175 0.35482192 0.3460478 0.44039875 0.426458 0.45355752 0.31110764 0.28387743 0.28744394 0.26302263 0.29646122 0.18854414 0.17897165 0.23092484 0.30210805 0.23498318 0.29975638 0.33641922 0.31276408 0.23062631 0.20655128 0.20146269 0.21271099 0.22075728 0.14980996 0.0028181747 0.038407687 0.05567471 0.10341409 0.12569593 0.22073281 0.36131802 0.4295611 0.46185702 0.15716428 0.15524808 0.22522682 0.12791316 0.035324827 0.19000556 0.34989518 0.4869636 0.5487637 0.5437626 0.19955146 0.25030577 0.03054842 0.08803436 0.18433079 0.40237406 0.52647406 0.5933481 0.5969802 0.15429693 0.16427161 0.23837136 0.45980662 0.55114657 0.5922178 0.5991061 0.5219195 0.48037195 0.1647827 0.2146713 -0.07321407 0.52994454 0.54286414 0.5428944 0.515458 0.4341789 0.3743624 0.10135396 0.06538093 0.2916321 0.48720264 0.5211632 0.27377135 0.2977706 -0.042311203 0.33017528 0.40581828 0.12182927 0.20316008 0.31959027 0.41422963 0.40429187 0.11279431 0.17343631 0.052972898 0.26146683 0.30547798 0.4574622 0.44265074 -0.0033853175 0.16198154 0.05233603 0.13338399 0.25847858 0.50967586 0.48271793 -0.034885205 0.26430348 0.10870151 0.078672096 0.15004638 0.29722005 0.5045042 0.10030216 0.11152763 0.14506063 0.08659043 0.14981207 0.44574332 0.15316465 0.19064313 0.21575496 -0.012400398 0.12883104 0.19948125 0.3075492 0.40112513 0.41052413 0.28842747 0.29567415 0.38903177 0.26339447 0.13996285 0.08086383 0.10684844 0.08768509 0.18719728 0.2693168 0.17469454 0.24681282 0.383707 0.439788 0.17407909 0.011290375 0.005814185 0.26111725 0.41195488 0.46012893 0.465734 0.4270103 0.31319743 0.1227675 0.013003973 0.2593165 0.11986767 0.42411947 0.405061 0.37465286 0.33622053 0.3038401 0.32470518 0.5025817 0.60168755 0.5431976 0.57109356 0.5655072 0.57305235 0.59051526 0.70817566 0.7272358 0.78757596 0.8230407 0.38110918 0.37605527 0.6650991 0.69484377 0.7413007 0.83996296 0.81702924 0.37689137 0.39658082 0.40473682 0.34368205 0.25829318 0.48872888 0.7904667 0.75565284 0.26156142 0.31501636 0.37562096 0.32712018 0.2626972 0.19847444 0.34148738 0.6536219 0.33291245 0.32732117 0.34487626 0.12526628 0.34577417 0.4176087 0.4492773 0.3356186 0.35128194 0.33575326 0.022373438 0.12194285 0.316513 0.35744435 0.23662347 0.29454723 0.26376358 -0.0038545504 -0.16320385 -0.014089309 0.011352487 0.405864 0.44326818 0.17745087 0.14582911 0.12319224 -0.20124148 -0.09195419 -0.03910344 -0.02740091 0.5111362 0.4904055 -0.0010476448 0.02568322 -0.23133889 -0.2393162 8.515641e-05 0.5796995 0.5416867 0.14409971 0.28682005 0.29264075 -0.004843004 -0.18302013 0.13416004 0.5587331 0.57182634 0.39102972 0.44319987 0.39436743 0.28383318 0.0013767928 0.19596636 0.26854098 0.28601193 -0.03561869 -0.10888926 -0.14420274 0.43214068 0.44439024 0.5392346 0.43391114 0.2803082 0.073005 0.17768237 0.20394188 0.2585513 0.19119947 -0.023954704 0.08690232 -0.040780537 -0.015994698 0.8446168 0.7618228 0.6354617 0.5226925 -0.0011095852 0.3204517 -0.10735661 -0.020966824 0.840207 0.79446304 0.644186 0.32047305 0.33385846 0.27259147 -0.1358629 0.054902934 -0.0744537 0.7310413 0.73499215 0.61947274 0.38237375 0.24815804 0.036038756 0.3400759 -0.01662181 -0.116804555 -0.021617964 -0.05425131 0.69339377 0.6213454 0.54074603 0.23569688 0.029406823 0.031779446 0.020030476 -0.030175477 -0.07031038 0.349768 0.2642994 0.4411997 0.045818895 0.03586802 0.04443566 -0.10641411 -0.19741423 0.20495333 0.2864294 0.2903654 0.36386377 0.39734158 -0.031553484 0.030730233 0.045572065 -0.004372932 -0.066305764 0.093972966 0.28050798 0.29981515 0.3917382 0.36700308 0.21783315 0.22216651 0.2763803 0.16817658 -0.04247798 0.028235987 0.040217534 0.21660249 0.26813012 0.29458046 0.40284142 0.31164667 0.24584396 0.2594061 0.28616083 0.3052683 0.27955326 0.16794023 0.16566105 0.11796191 0.20593897 0.297314 0.1431308 0.25659013 0.2894363 0.31408107 0.31712294 0.32536018 0.30389237 0.37346762 0.40642583 0.13422762 0.20387807 0.2482747 0.27671033 0.27689707 0.36304915 0.34070992 0.2184242 0.021117244 0.18689394 0.2814745 0.27611476 0.30359432 0.29476932 0.1935138 0.1738149 0.28474063 0.26601323 0.2598256 0.26984984 0.2624444 0.40419626 0.2967354 0.38740483 0.4374168 0.4399687 0.48306835 0.7067998 0.6546335 0.64566743 0.60072035 0.5868901 0.5444248 0.5261285 0.52552694 0.30091098 0.71006525 0.730405 0.77679735 0.7874572 0.7893939 0.4684688 0.27070948 0.32202172 0.31659466 0.32181683 0.2699859 0.25996616 0.6047997 0.6811664 0.7607599 0.7853714 0.77635753 0.21369484 0.28793934 0.26076788 0.23005965 0.218878 0.7446323 0.746966 0.14926346 0.14604999 0.20214784 0.22969231 0.18867166 0.13025308 0.6631832 0.29796547 0.32511443 0.24907525 0.17221035 0.25435066 0.05021647 0.25562853 0.3925456 0.29750532 0.34340975 0.33434552 0.2786945 0.34970948 0.38489163 0.29474074 0.33128387 0.2917142 0.1763804 0.18133746 0.43393475 0.120877504 0.13549821 0.15404463 0.09561926 0.5079476 0.010287669 0.22651362 0.2590926 0.045187313 0.5356215 -0.1472348 -0.06011446 0.1919863 0.26137832 0.30578312 0.2993452 -0.15772995 0.5092714 0.17526206 0.2843753 -0.011299238 -0.12155266 0.44704187 0.8211895 0.70985925 0.57169855 -0.09995392 0.20714457 0.31369194 -0.29616046 -0.13736165 0.11387965 0.8710257 0.85876364 0.7349944 0.45636147 -0.085652985 0.009986434 -0.24503964 -0.15422685 -0.1593814 0.85447013 0.849826 0.172923 -0.13492528 -0.32418287 -0.30142498 -0.21959747 -0.11672359 0.80831075 0.75973016 -0.26494446 -0.1458192 -0.18320192 0.17548186 0.6670127 0.60124725 -0.2027549 -0.31146753 0.26726586 0.2549299 0.25621274 0.53095186 0.50524586 0.022564352 0.20765287 0.27819568 0.28589904 0.28108168 0.4044517 0.29941756 0.33236265 0.35846597 0.39727134 0.45517504 0.44826683 0.015361115 0.046633385 0.35709763 0.37846774 0.41254848 0.46832556 0.46318206 0.43810016 0.31290215 0.25497204 0.049271174 0.08836815 0.11370918 0.08011298 0.3372349 0.38364455 0.4127429 0.3198812 0.26523843 0.25762463 0.31978324 0.31600034 0.2822545 0.19706377 0.058693696 0.07213306 0.07394205 0.14938062 0.28982535 0.29994392 0.32244307 0.30399343 0.31845266 0.33474597 0.26886806 0.2658558 0.40938646 0.38100448 0.30561984 0.26205435 0.24950631 0.21133202 0.40097034 0.3469226 0.30596972 0.3066922 0.29921782 0.20514956 0.25902742 0.38715503 0.3730082 0.36083418 0.34195304 0.3268688 0.27214593 0.21125937 0.34167486 0.3375507 0.39643157 0.79109216 0.793223 0.75306875 0.6943983 0.69527733 0.7551756 0.76275015 0.7103398 0.66647995 0.634289 0.68418086 0.64573854 0.62720466 0.612412 0.5982206 0.6128113 0.52340174 0.554175 0.5622412 0.2612953 0.2771471 0.2763191 0.29093388 0.6579383 0.68536794 0.724185 0.7433338 0.4196716 0.41323435 0.39214462 0.1995922 0.29749757 0.28573313 0.5807642 0.60439485 0.6548162 0.7047907 0.72277606 0.21805738 0.0718818 0.011956135 0.08071861 0.060830086 0.050276205 0.105376676 0.22015879 0.139268 0.64370453 0.6493144 0.36166787 0.23321964 0.119994566 0.10272249 0.0755831 0.033665597 0.22886413 0.061781403 0.2269514 0.29299778 0.23962945 0.34426945 0.41385943 0.4673928 0.03362175 0.09205734 0.04451908 0.502694 -0.015995609 -0.038597126 -0.09897209 0.015681133 0.47678572 0.2136658 -0.02213373 -0.15792614 0.28201813 0.4538917 0.15431672 0.07171606 0.023731407 -0.092174985 0.23871306 0.8249488 0.7485869 0.46590137 0.1100334 -0.0068327375 -0.0421903 -0.09222504 0.86417407 0.85391575 -0.11849465 0.85032094 -0.26680854 0.7937418 0.7273297 0.17269722 0.24658231 0.623322 0.14937626 0.2451612 0.22840369 0.5201436 0.42190334 0.24902275 0.3985251 0.36253953 0.38963473 0.46481645 0.41919923 0.41685277 0.47612646 0.4663607 0.43817645 0.4556511 0.4608569 0.42888492 0.350407 0.24055701 0.1462745 0.15023813 0.1875891 0.17490968 0.16110718 0.03543228 0.21504259 0.39888874 0.45303178 0.31399053 0.33932626 0.31808272 0.27983063 0.26971698 0.40452525 0.38628095 0.45361936 0.4712608 0.4936527 0.43029064 0.47297812 0.4360699 0.4122302 0.39287877 0.078939684 0.15873629 0.33604628 0.3548383 0.41027153 0.4210076 0.3888401 0.2265968 0.28423104 0.45153686 0.42274904 0.56352776 0.55595005 0.7175073 0.7072647 0.73613656 0.7750187 0.70536506 0.6539726 0.6501992 0.6836562 0.5977625 0.6141514 0.5521655 0.49589396 0.18193975 0.21795444 0.26801747 0.569059 0.5648298 0.32771677 0.1799535 0.21430185 0.22719005 0.24237454 0.29313493 0.30642524 0.3126306 0.2606959 0.2660937 0.3058703 0.29484293 0.33622763 0.4052997 0.38366082 0.36711675 0.28497714 -0.13132411 0.022040993 0.08203855 0.20850462 0.47368675 0.41532606 0.3974341 0.32522935 -0.1411848 -0.062529534 0.0842969 0.06349966 0.20754048 0.3947328 0.3553738 0.30524242 0.035115503 0.07516119 0.33107537 0.2714588 0.24709845 0.2612353 0.22154415 -0.09068535 0.415961 -0.18213004 -0.024495946 0.38784492 0.33517063 0.21071857 0.06926974 -0.044869047 -0.042202014 0.32630092 0.28073663 0.37044764 0.45177704 0.27836472 0.32337093 0.39465278 0.7981043 0.75327694 0.516711 -0.17570755 -0.1695387 0.01447852 0.27173817 0.31679606 0.8285744 -0.33780342 0.121661365 0.19131643 0.23900461 0.26808965 0.8296238 0.7861848 0.2351997 0.36531186 0.67545116 0.21272647 0.13293728 0.16946484 0.30426407 0.3764463 0.58342105 0.47534093 0.1900976 0.10232512 0.21098736 0.4238553 0.1815609 0.411476 0.41892746 0.43474844 0.4615139 0.43235558 0.48075548 0.5028621 0.44331396 0.39639693 0.2642711 0.19399957 0.10592908 0.4817099 0.4988367 0.39132708 0.40837246 0.38314986 0.20689751 0.15995064 0.20703323 0.26036885 0.289544 0.4825585 0.34152997 0.46541727 0.49756157 0.46331394 0.38587403 0.3225118 0.51525027 0.5594686 0.5598851 0.36184126 0.56246674 0.52863014 0.46181497 0.41689736 0.3763272 0.27655703 0.08697702 0.39036813 0.4014672 0.39009488 0.39985868 0.4255446 0.48501664 0.5054375 0.49038643 0.5980172 0.7057492 0.7022542 0.6546217 0.60816836 0.712608 0.51631325 0.654129 0.6251298 0.49479643 0.4978919 0.49423975 0.5160181 0.5834749 0.505913 0.48879442 0.44491833 0.42033502 0.3934754 0.4646269 0.5045319 0.2755494 0.30323792 0.33525044 0.33900303 0.15695228 0.19556229 0.22507262 0.28005216 0.30609396 0.051959246 0.20442922 -0.1548725 0.03573328 0.31326008 0.31165668 0.022125345 0.08336263 0.271231 -0.3416183 0.035452932 0.30522835 0.20201695 -0.3990122 0.12496905 0.24651822 0.1276455 -0.11158484 0.026355773 -0.08916761 0.24493048 0.17152584 -0.01150617 -0.028980121 -0.0016643554 0.029936705 0.14799373 -0.2748981 0.3866331 0.36620706 0.32318094 0.31289908 0.37671453 0.3826964 0.40998113 0.4395165 0.6915109 0.5742093 -0.17628452 0.33679882 0.418029 0.7383926 0.17548923 0.43005192 0.5067444 0.46341762 0.42953652 0.4871414 0.37189716 0.3961957 0.45983627 0.34079322 0.3335425 0.17137858 0.31903765 0.34994593 0.3520505 0.31154838 0.37169486 0.3306875 0.4230431 0.5053552 0.35688746 0.32675695 -0.17976491 -0.36163014 0.52824485 0.44844058 0.28092498 0.064523324 0.17205817 0.5205325 0.53194785 0.51863927 0.074246064 0.21927921 0.2894662 0.3846776 0.39763498 0.34242103 0.47595006 0.5041996 0.5654583 0.55951655 0.47554332 0.44879565 0.32037288 0.19509563 0.29300308 0.45296717 0.4413805 0.5500059 0.5700705 0.09908879 0.3681685 0.574656 0.5623902 0.5174856 0.44571823 0.3634068 0.3328106 0.33329225 0.37004817 0.41277862 0.36090398 0.36726648 0.5311984 0.55440146 0.5118329 0.67831874 0.70166755 0.6459398 0.5808328 0.7740943 0.8433705 0.75123453 0.68011427 0.54780185 0.55540884 0.5569768 0.5547361 0.5108595 0.53435296 0.5404948 0.53482723 0.5338023 0.52819693 0.47844398 0.5076982 0.5138399 0.46397287 0.47509503 0.4331112 0.32534802 0.19288212 0.30106562 0.32954308 0.37316105 0.39068633 0.45585042 0.43160152 0.29281136 0.38978165 0.12759459 0.07913615 0.1355074 0.24328952 0.29851297 0.3295664 0.35222277 0.3418224 0.3314706 0.21392547 0.2963879 -0.03668426 0.25760138 0.13133885 0.0531245 0.3057871 0.14717844 0.09862969 0.09708526 0.118397355 0.056280255 0.018202081 -0.25837654 -0.046736527 -0.36881575 -0.2083492 -0.13761437 0.304072 0.54306716 0.48133492 0.23568952 0.029165512 -0.40317875 0.23396783 0.6067439 0.57805437 0.46169823 0.38217193 -0.07248853 0.009078659 0.4401264 0.37116107 0.6016778 0.5829929 0.5337444 0.31167802 0.13816981 -0.10588023 -0.12234415 0.254682 0.25304753 0.5597445 0.5328275 0.4097848 0.32003027 -0.10680082 -0.4581806 0.18476953 0.055984296 0.40510833 0.36654273 -0.119117975 0.04980059 -0.09615248 0.045181975 0.06983797 0.18463296 0.3241327 0.34141526 0.17233309 0.20421684 0.3299528 0.27896148 0.2720951 0.52629685 0.50968134 0.48355904 0.31901348 -0.028241554 0.4803837 0.47174412 0.2979409 0.2876121 0.23111771 -0.0065419376 0.29538202 0.20123719 0.47735626 0.16277587 -0.54037255 0.54513216 0.3595219 -0.1761039 -0.4919799 0.55944556 0.49824676 0.5326451 0.23337942 -0.0344491 -0.02287073 0.5171857 0.5368518 0.5780758 0.46217167 0.39186287 0.23069161 0.4555621 0.49458715 0.6152405 0.6147946 0.5971186 0.53149956 0.39874396 0.39652684 0.51220477 0.5466827 0.56274384 0.38498592 -0.170331 -0.33180565 0.42700326 0.564399 0.6376766 0.65267986 0.5177905 0.5131506 -0.19112672 -0.19308156 0.33245122 0.55546373 0.5347485 0.41431534 0.25069278 0.25331166 0.16930811 0.41252464 0.38784865 0.5987484 0.494257 0.69957197 0.6454862 0.5743058 0.77786267 0.8502859 0.8178488 0.7216082 0.6106065 0.60499924 0.589308 0.5440064 0.57060266 0.56734675 0.57590765 0.5381617 0.4855978 0.5231484 0.37380967 0.25440642 0.36599785 0.3307315 0.1938069 0.31565323 0.37731743 0.4086087 0.46169162 0.427783 0.43817478 0.20446675 0.21234332 0.039237246 -0.055440143 0.21324281 0.29153344 0.36126834 0.4000991 0.41206384 0.4045295 0.39070666 0.021063298 -0.23708393 0.04023191 0.13516702 0.3745175 0.30183464 0.2737974 -0.4100303 -0.22143824 -0.065027654 -0.14987677 0.2286653 0.40551275 0.36743954 0.20891324 0.5593923 0.5211535 0.42443097 0.06565322 0.5787997 0.5997683 0.1292563 0.3770675 0.48090547 0.42615652 0.37043327 0.5857438 0.5968541 -0.070701025 -0.4193033 0.06334498 0.27802205 0.54685235 0.5444849 0.48697168 -0.55339366 -0.22251198 -0.14918247 0.16268039 0.12053414 0.4792787 0.4227045 0.25841656 0.02272183 0.099656925 0.29156518 0.23308781 0.14368035 0.063594185 0.34114194 0.27266255 0.14274359 0.05058489 0.42214507 0.3985937 0.36751804 0.28985056 0.20098457 0.21278869 0.47120282 0.4796671 0.016759217 0.15483853 0.09586425 -0.1522062 0.16743691 0.2483747 0.4948734 0.31280917 -0.05084742 0.4228632 0.44221255 -0.053788196 -0.20388836 0.41546622 0.1519174 -0.198621 0.35053894 0.036456995 -0.6135204 0.46629494 0.30648035 -0.11859951 -0.60973907 0.5590808 0.42087066 -0.08757926 -0.13217121 0.5809158 0.5569185 0.15635557 -0.056370538 -0.68474126 0.50096166 0.5416858 0.6074668 0.627885 0.28584325 0.35278478 0.39608276 -0.008461773 -0.31305838 -0.55602 -0.51858974 -0.6901617 0.40133733 0.45245135 0.63686204 0.6526948 0.6203488 0.523226 0.6962266 0.25013006 0.16839612 0.23810387 0.7048514 0.74878657 0.7420803 0.4127159 0.42350155 0.37194037 0.17619559 0.17074329 0.12703821 0.16054606 0.3597216 0.3161887 0.19909278 0.3633137 0.42139342 0.5491657 0.53215885 0.52242464 0.6610749 0.7201619 0.77201474 0.7168113 0.6669939 0.77544284 0.82169163 0.8008801 0.6200036 0.5850359 0.6231465 0.6211889 0.5973294 0.5578393 0.39952695 0.46725887 0.5342274 0.34787494 0.39767334 0.38935587 0.35536867 0.42636567 0.18333173 0.27153128 0.24018097 0.13126978 0.122565225 0.2933807 0.3256136 0.40005958 0.39729577 0.2785908 0.37341905 -0.15066218 -0.04106813 0.41198093 0.35168368 0.19033262 -0.19824824 0.31712207 0.2681963 0.10047688 0.24870268 0.42456907 0.29805487 0.27638385 0.49886584 0.5308514 -0.092498556 0.46265733 0.5321438 -0.13704295 0.3361258 0.45031482 0.3856334 0.33394086 0.5321278 0.021008015 0.253527 0.2153413 0.49103776 0.17228629 0.12170648 0.4081594 0.40615126 0.11581817 0.09717742 0.6180767 0.6848288 0.7544996 0.76875985 0.3220237 0.049106345 0.7529142 0.7886173 0.77795535 0.7385383 0.29311928 0.008844543 0.6566566 0.6435609 0.6919862 0.6559181 0.38257524 0.2345041 0.35614294 0.3846448 0.50976294 0.43380588 0.4741454 0.014333794 -0.017263014 0.47832417 0.46369678 0.39077038 0.040162615 -0.15300249 -0.04878826 0.15748303 -0.2134063 0.10972331 0.28272292 0.2757664 -0.01697706 0.41237727 0.3085797 -0.038694613 -0.051780835 0.32695955 -0.122744106 0.29668197 0.3552956 0.2587331 0.32066768 -0.01759443 0.4425049 0.22492035 0.09839372 -0.53806543 -0.5224851 0.51742625 0.43953234 0.40605247 0.24546912 0.2146173 0.3026685 -0.17734379 0.512024 0.55120456 0.5412338 0.5590995 0.54704523 0.42956722 0.20642826 0.47205478 -0.08842486 -0.08764416 0.35399848 0.46305144 0.5845788 0.6266999 0.6328408 0.57627916 0.3460923 0.56702447 -0.055527605 -0.55596477 0.17397992 0.5528196 0.6178614 0.81960547 0.027518481 0.14184903 0.1570705 0.13752693 0.13047105 0.14212576 0.71083236 0.7495873 0.80019706 0.23079526 0.3370865 0.28594238 0.53593516 0.41769046 0.38106886 0.5164734 0.64084744 0.57827884 0.55119276 0.74358594 0.7213563 0.60707974 0.5909684 0.35481024 0.4068843 0.4422 0.42409316 0.57029396 0.6058905 0.5769899 0.5615586 0.44857365 0.39006913 0.37279207 0.3312176 0.3925764 0.38702217 0.3771692 0.50487804 0.2637231 0.34760398 0.399781 0.40028223 0.3701923 0.33550578 0.20324613 0.23777011 0.31601205 0.2739811 0.113839254 0.28585625 0.05645231 0.07322098 0.26522312 0.28908998 0.1599441 -0.19968137 0.31571162 0.25893894 0.20759332 0.106961235 0.023883678 0.061781753 0.37901336 0.12074222 0.21663433 0.43995178 0.09319442 0.19563898 0.48181427 0.123928964 0.27811873 0.3548581 0.34455225 0.4227558 0.04256067 0.25722542 0.40687245 0.13419192 0.0979209 0.63662577 0.70293593 0.7118745 0.3354629 0.3017396 0.09559951 0.44205815 0.5931227 0.6595514 0.7294543 0.73190856 0.72900295 0.1862988 0.41337764 0.7214637 0.5756179 0.32554036 0.4327929 0.08600254 0.2817446 -0.2622337 0.033899363 0.103971764 0.3887467 0.23574656 -0.035356857 -0.019029647 -0.21069284 -0.10312338 -0.35401112 -0.43758583 0.18933699 -0.2172759 0.19132432 -0.04424473 -0.06408332 0.2057614 -0.019461125 0.0025894493 0.25982776 0.021067902 -0.02521655 -0.17724313 -0.24385221 -0.39196193 -0.38882834 -0.46710098 -0.49466515 0.28076264 0.45939308 0.60531086 -0.3975635 0.48107827 0.5882468 0.58122665 -0.16638383 -0.18072852 -0.086168684 0.60302246 0.62055933 -0.048823632 -0.1605376 -0.18220423 -0.24277356 -0.16463889 -0.17472376 0.61742544 0.68834305 