# vtk DataFile Version 2.0
Really cool data
ASCII
DATASET POLYDATA
POINTS 6146 float
-24.598536 4.004271 3.7846136
-24.640846 3.7731614 4.3435745
-24.8692 3.9976826 5.7112494
-24.68179 3.767727 6.452399
-24.584757 4.821963 3.1340404
-24.660639 4.589368 3.5488718
-24.843771 4.498504 4.3733616
-24.978287 4.537758 5.5529947
-24.858093 4.529738 6.200869
-24.620289 4.5091543 6.795481
-24.677464 5.202898 3.6927392
-24.928759 5.228839 4.5960727
-24.931383 5.6102166 5.494324
-24.840826 5.2603765 6.1691146
-24.681522 6.1015162 4.730388
-24.733118 6.172984 5.6280193
-24.684994 6.014663 6.163967
-23.9058 0.090706825 5.0502715
-24.011477 -0.17470443 5.6418724
-23.94851 -0.1784659 6.4008093
-23.770761 -0.10163063 6.8678966
-24.114298 0.2089414 5.2449203
-24.287672 0.46108526 5.498255
-24.318163 0.45081386 6.2948284
-23.932735 0.64550775 7.2898297
-23.713501 0.95338285 7.879121
-24.344177 1.2707293 5.5772924
-24.03853 1.3468546 7.491814
-23.832165 1.6696122 8.012896
-24.110489 3.247418 3.8970416
-24.422024 3.0564084 5.555261
-24.198772 2.0442605 7.0945473
-23.713787 2.0141404 8.152707
-24.077866 3.7457016 3.0232673
-24.10723 3.536048 3.388652
-24.416025 3.4519906 4.921687
-24.332474 3.7132587 7.1013875
-24.159727 4.538481 2.7802265
-24.521557 4.5877028 3.2822354
-24.202173 4.5080256 7.1299057
-24.189587 5.310162 2.9422488
-24.386496 5.489299 3.292497
-24.576605 5.824788 6.452449
-24.23687 5.428923 6.8673806
-23.975512 5.7451262 3.1104796
-24.101933 6.0649962 3.6885266
-24.481161 6.3827724 4.724425
-24.499228 6.5565195 5.574059
-24.340738 6.3100247 6.3027067
-24.042864 6.130399 6.7007027
-24.13037 6.748165 4.859541
-24.140831 6.8376455 5.5657377
-24.109365 6.7320595 6.092601
-22.995836 -0.62567204 4.996935
-23.296646 -0.6512958 5.566623
-23.302893 -0.6929305 6.171166
-22.909645 -0.6107352 6.8763976
-23.240677 -0.3824185 4.9296346
-23.714705 -0.41359243 5.4132676
-23.642675 -0.39986858 6.566791
-23.35069 0.01223278 7.32712
-23.0568 0.22462279 7.83746
-23.022303 0.23339617 4.5107164
-23.5695 0.52244234 7.599608
-23.335909 0.9070684 8.21021
-23.362686 1.3716824 8.389663
-23.097025 1.6321682 8.595936
-23.422684 2.1481802 8.363209
-23.011559 2.1096737 8.605523
-23.184887 3.8761985 2.3880653
-23.584497 3.8448875 2.622641
-23.666168 4.6150618 2.4133744
-23.50093 4.5130363 7.4351583
-23.348257 5.170323 2.3364687
-23.678984 5.200872 2.4735181
-23.505924 5.4831667 7.1090965
-23.395267 6.2067804 3.002004
-23.654306 6.3343477 3.3181775
-23.605946 6.53386 6.5581126
-23.516685 6.0511785 6.8341064
-22.820526 6.735202 3.1722302
-23.066084 6.890746 3.8481853
-23.553753 6.9875402 4.8041544
-23.583155 7.020799 5.540626
-23.615986 6.8847256 6.0474043
-22.25793 -0.81901765 4.8984814
-22.368477 -0.9487945 5.638889
-22.289541 -0.8867061 6.3279805
-22.683582 -0.6064105 6.8434405
-22.04823 -0.21546215 4.0655217
-22.22734 -0.57789075 4.626108
-22.808119 -0.50462425 6.744
-22.529196 -0.2389262 7.40155
-22.41999 0.053692073 7.8190937
-22.123476 0.24906197 3.83041
-22.404387 0.72184074 8.376208
-21.81425 1.9715405 3.0783207
-22.228115 1.5836903 3.588559
-22.689344 1.4587176 8.667342
-22.398981 2.912309 2.8084333
-22.555384 2.1399596 8.670321
-22.595556 3.9622598 2.2029905
-22.649847 3.5982137 2.4903455
-22.267683 2.920377 8.330061
-22.344574 4.7892137 1.9661074
-22.614809 4.5278735 7.380992
-23.006275 4.2715383 7.5584927
-22.305511 5.436288 1.9882057
-22.634802 5.21825 7.03777
-21.91748 6.2896214 2.2168913
-22.535362 6.9546094 3.1713288
-22.371195 7.1345897 3.6600835
-22.404827 7.146572 4.4647675
-22.73308 6.843338 5.9898763
-21.487356 -1.061173 4.86078
-21.42486 -1.1974359 5.593833
-21.400724 -1.0696781 6.1677322
-21.371897 -0.7673911 6.875753
-21.366583 -0.2324928 3.8100069
-21.458797 -0.53006834 7.184185
-21.963295 0.09843403 7.878463
-21.264095 0.8663019 3.2297902
-21.555626 0.41673744 3.479176
-21.672483 0.47226197 8.08498
-21.217213 1.6497449 8.619182
-21.998896 2.2810948 8.599504
-20.957226 3.4524112 2.1317987
-21.845285 3.2669415 7.9629683
-21.428413 4.680123 1.7451901
-21.552788 4.4996867 7.1385984
-20.904274 5.512001 1.5591412
-21.930658 5.2367783 6.8189344
-21.658855 6.2128134 2.1362882
-21.5783 6.5185437 2.4077706
-21.699846 6.9095783 2.849163
-21.800863 7.0834475 4.7738543
-21.601233 6.9129653 5.2674065
-20.535593 -1.155564 4.645884
-20.760635 -1.305586 5.560982
-20.51622 -1.1034281 6.174596
-20.418941 -0.61915225 6.904496
-20.867727 -0.47108728 3.7871993
-20.688833 -0.13873157 7.4851875
-20.418236 0.77521586 3.2743094
-21.028688 0.6421659 8.177744
-20.155872 1.6658393 2.7431397
-20.755304 1.3167524 8.28305
-21.00296 2.3502653 8.350924
-20.272852 4.650999 1.2785332
-20.547901 4.437636 7.1326895
-20.162287 5.4409447 1.218334
-20.962933 5.3945546 6.7020144
-20.219303 5.9065576 6.5068517
-20.534185 5.7760553 6.593056
-19.77197 6.973724 1.8234068
-20.27696 7.0734935 2.6421137
-19.829659 7.5221453 3.331653
-19.934057 7.305095 4.497707
-20.710928 6.67503 5.614338
-19.936829 6.6901035 5.861
-19.104565 -0.9320035 3.9120982
-19.746511 -1.0193423 4.260371
-19.427015 -1.2121084 5.505636
-19.198694 -0.8541468 6.2063932
-18.778269 -0.16478345 2.7680378
-19.435246 -0.34458208 3.4217825
-19.52835 -0.1292319 7.104199
-19.612843 0.46563077 2.8959205
-19.285086 0.3982278 7.5827847
-19.064596 1.6732959 2.076116
-19.795439 3.1340158 7.683957
-19.439962 4.9802012 0.8437762
-19.781765 4.210563 7.1388783
-19.11681 5.8111954 0.6737958
-19.994095 5.1164484 6.764886
-18.963997 6.4014635 0.9201316
-18.770973 7.3701167 0.74013084
-19.23391 7.5032897 1.8439604
-19.616789 7.3893156 2.7163668
-19.61246 7.48702 3.3035839
-19.277887 7.8570967 2.8656638
-19.143648 7.8285713 4.431778
-17.644337 -2.019966 -1.3914404
-17.735746 -2.0349095 -0.8598335
-17.574762 -1.4867867 -1.850929
-17.714516 -1.407038 -1.4524964
-17.788826 -1.5241508 1.0105491
-17.920296 -0.9223603 2.039551
-18.700869 -1.2200409 5.347058
-18.816023 -0.7187418 6.2432528
-17.665241 -0.61440194 -1.3309709
-18.192875 -0.046379596 0.38650137
-18.290033 -0.6811968 1.740127
-19.071606 0.1199715 7.1827946
-18.632515 0.69476265 7.246893
-17.745686 0.9020884 -0.07409723
-17.891367 1.3236847 0.7329925
-18.964554 1.691172 7.7009034
-18.895115 3.5935197 7.202234
-17.878511 4.189633 9.424368
-17.663137 3.8615713 10.965388
-18.099243 5.0122848 0.30271262
-18.547276 4.4718575 0.73590815
-18.031355 4.966092 8.751796
-17.934946 4.4978514 9.334346
-17.761597 4.7000685 11.520917
-17.863974 5.7239447 8.373561
-18.206345 5.223095 10.442313
-18.02405 5.8664994 11.273719
-18.307789 6.7798524 0.32203054
-18.022234 6.544374 6.4259386
-18.017073 6.312067 6.7518835
-18.165228 6.4099035 10.500173
-18.138922 6.057793 10.930682
-17.984653 7.393268 -0.25901732
-17.96256 7.7407084 7.329183
-18.050634 7.417632 8.798121
-18.265062 7.111222 9.399802
-18.064846 7.504135 10.436503
-18.112265 7.759425 11.175203
-17.780542 7.5391054 12.190259
-17.919659 8.628528 -0.2551708
-18.077074 8.678181 6.244487
-17.949652 7.87852 8.495117
-17.957817 8.122922 9.783873
-17.885267 8.197323 10.643727
-17.827738 8.245666 11.38079
-17.71573 8.165202 11.943409
-17.761208 9.1105385 -0.21521997
-17.980293 9.353221 0.5312796
-18.478525 8.773391 1.6283143
-17.96997 9.336069 2.4796689
-18.409502 8.792305 3.2524507
-17.871275 9.280213 5.97004
-17.971546 9.136381 6.7040715
-16.937962 -2.6741285 -1.9090354
-17.046597 -2.7682302 -1.4711161
-17.03079 -2.7753007 -0.73747873
-17.12214 -2.3004017 -2.0734994
-17.394524 -2.4337587 -1.4836471
-17.450914 -2.463503 -0.77734154
-17.08462 -2.2027655 0.3255605
-17.285337 -1.7869916 1.4676918
-17.001677 -1.6618559 2.0289834
-16.946465 -1.2037916 -2.6562564
-17.146755 -1.4600247 -2.4071667
-17.90243 -1.224446 4.865138
-17.912731 -0.9891791 5.4951386
-16.92749 -0.7570899 -2.638513
-17.20264 -0.71047693 -2.3175073
-17.508648 -0.50057214 -1.6879603
-18.139734 -0.26482928 6.524683
-16.980234 0.29278782 -1.8740895
-17.211678 0.134348 -1.2565644
-17.153961 0.9734592 6.715096
-16.841486 0.7273198 11.854388
-16.726128 0.6701805 12.487878
-17.114075 0.95342094 -0.8067981
-17.359522 1.2042432 -0.31460792
-17.534851 1.6390121 6.8547506
-16.89114 1.2427884 11.697963
-16.857008 1.149529 12.480069
-16.641657 1.8097881 12.806362
-16.930304 2.4794207 10.42454
-17.10961 2.6971428 11.173882
-16.835419 2.2300026 12.264458
-17.243925 3.363017 10.822428
-17.327892 3.5138521 11.147809
-17.087551 4.723263 12.475268
-16.757063 4.544328 13.375108
-16.811071 5.1756835 14.179543
-17.050009 5.7216296 14.565977
-16.910358 5.7023478 15.300103
-16.733002 5.674516 15.842864
-17.308523 6.921665 -0.9468303
-17.402338 6.526475 -0.5114214
-17.44464 6.7137027 12.091843
-17.113352 6.5897746 14.661222
-16.96076 6.5049076 15.445548
-16.704424 6.622383 15.892102
-17.221899 7.604446 -1.2328539
-17.56441 7.2187166 12.327675
-16.892815 6.9369383 13.796886
-17.022596 7.0170536 14.7851925
-16.877296 7.063243 15.29398
-16.68944 6.8961077 15.861897
-17.23069 8.503141 -1.2095275
-17.253906 8.545603 8.647491
-17.468443 8.528213 9.720451
-17.33508 8.173413 12.309072
-16.917072 9.132228 -1.1058198
-17.556387 9.318974 -0.25552538
-17.403275 9.513473 2.4131417
-17.075155 9.094952 9.6107855
-17.441715 8.879445 10.715011
-17.10642 8.96444 11.336933
-17.037704 8.760469 11.853769
-17.132648 9.743794 0.10397322
-17.44963 9.780848 0.61018676
-17.444355 9.853434 1.2155021
-17.18135 9.868476 2.918008
-17.180147 9.807073 3.1354144
-17.168234 9.970486 5.0617905
-17.148912 10.125549 5.8562913
-17.234922 10.083118 6.565113
-17.030056 10.012378 7.17159
-16.24788 -2.8164594 -2.1184127
-16.427034 -3.006784 -1.4521908
-16.449043 -2.955016 -0.6052507
-16.465874 -2.795677 -0.15113273
-16.143263 -2.2015955 -2.6831255
-16.471874 -2.3660824 -2.4652991
-16.488771 -2.547173 0.5995874
-16.122492 -2.1058543 1.3781644
-16.50496 -1.7159971 2.4861383
-16.394512 -1.6025403 -2.8047445
-16.50456 -1.5104282 2.6759102
-16.87926 -1.3224416 3.2183204
-16.211044 -0.66314304 4.403793
-17.170078 -0.73477983 5.3153577
-15.661244 -0.67662597 11.309186
-16.503294 -0.9804183 -2.8543928
-16.258617 -0.15130019 11.478976
[...]
POINT_DATA 6146
SCALARS features_00 float 1
LOOKUP_TABLE default
0.57202935 0.55292606 0.5963261 0.59056914 0.6024306 0.59308875 0.58810055 0.64016753 0.65619755 0.6584521 0.6109973 0.65433633 0.71013975 0.69327086 0.68883765 0.7233272 0.71838975 0.6299192 0.67119336 0.65754026 0.622792 0.65991366 0.67580706 0.67789745 0.60647494 0.6048607 0.59780717 0.58198225 0.5827612 0.51275575 0.47396356 0.5146158 0.5651989 0.5639001 0.54917085 0.5137576 0.58112895 0.59055173 0.5959193 0.64383245 0.6064404 0.6098832 0.7086024 0.681059 0.5953809 0.5962323 0.6790228 0.7221314 0.719378 0.6940347 0.6659153 0.71008 0.7172037 0.5950711 0.63513374 0.6285123 0.5653204 0.5940932 0.6508962 0.6323248 0.5895622 0.5848605 0.48505107 0.60060716 0.60789394 0.6145893 0.61983895 0.57030904 0.59172547 0.49916446 0.54180396 0.5722406 0.5276918 0.5660823 0.58453315 0.59542453 0.5492742 0.5595635 0.6806745 0.6390196 0.50539196 0.53392786 0.6208806 0.67239666 0.6903467 0.55689096 0.5902239 0.5546312 0.550663 0.42096475 0.52268714 0.56635094 0.53658575 0.5474732 0.34548694 0.6085175 0.1181321 0.18850093 0.62967634 0.25974515 0.59588665 0.42152393 0.39026636 0.44763696 0.45165837 0.28877872 0.37038127 0.4825611 0.35424387 0.4283684 0.4784295 0.4627086 0.5166894 0.60062456 0.5299953 0.5447213 0.512333 0.469111 0.34177008 0.46565375 0.5217222 0.17280915 0.24595277 0.54285395 0.6170505 0.5733309 0.17985633 0.30029008 0.32683334 0.1491906 0.28677487 0.21349582 0.39178538 0.35906518 0.3478381 0.45412934 0.4354789 0.493154 0.5133406 0.44880852 0.40197784 0.33231908 0.41521484 0.15438828 0.5051147 0.055154104 0.5379688 0.4938536 0.17492498 0.12437518 0.19261687 0.15162882 0.1530555 0.16248855 0.19529371 0.17117774 0.15960145 0.18346627 0.26450402 0.19198684 0.32967234 0.42637593 0.4453251 0.3590395 0.031146467 0.17657821 0.3470962 0.1149708 0.32791638 -0.02706626 0.24570686 0.14980625 0.12945564 0.17739472 0.106183656 0.2299643 0.30582842 0.2282053 0.15963134 0.15975568 0.1713365 0.08852246 0.8043418 0.75502986 0.76954484 0.7430826 0.38872957 0.26149175 0.4043888 0.34038872 0.58361584 0.44598132 0.26819256 0.31546766 0.26583827 0.20853229 0.111621305 0.3290145 0.18332581 0.26874667 0.19247212 0.14319977 0.11818271 0.3085753 0.29182407 0.21926679 0.23439875 0.3203805 0.3483237 0.27054712 -0.09108041 -0.19184975 0.39016747 0.37330973 0.37851992 0.13191643 0.27147108 0.33313364 0.42922777 0.4839134 0.43589032 0.47058547 0.29894704 0.26090312 0.40476334 0.48879975 0.52894735 0.52171534 0.44654945 0.37521046 0.25536412 0.17049906 0.12759453 0.3575945 0.34717953 0.8622877 0.8431475 0.7671487 0.8466773 0.832173 0.76513517 0.53991026 0.35852176 0.33125114 0.7521343 0.7802351 0.29953918 0.31950855 0.68375653 0.6648441 0.5914047 0.28156966 0.4025861 0.39024672 0.21721898 0.50073797 0.53501236 0.15703256 0.11512986 0.19697055 0.42950535 0.49810874 0.4595712 0.2087233 0.21361803 0.3411326 0.17888288 0.16099761 0.13746706 0.15369721 0.41966838 0.52152693 0.5984416 0.63364625 0.37856305 0.29303196 0.34792125 0.5351482 0.6053257 0.6292956 0.4696526 0.3711797 0.40253818 0.54779565 0.59296614 0.62564594 0.48261887 0.31334555 0.428778 0.47198448 0.40648764 0.4266328 0.16039962 0.420878 0.50601375 0.49607703 0.48942828 0.35481995 0.32380065 0.25653437 0.10778977 0.09613818 0.2319643 0.3172992 0.3409488 0.32798785 0.86242855 0.85587716 0.7666471 0.6750299 0.8331646 0.8590842 0.5159042 0.41087124 0.3069321 0.79858017 0.2896219 0.23543537 0.1460076 0.2504991 0.51398504 0.72366226 0.55951524 0.56373036 0.5586562 0.58147174 0.5437144 0.17208895 0.49242198 0.5528631 0.53765386 0.5686618 0.4907206 0.05362346 0.5152041 0.59685624 0.48956764 0.41300374 0.2125698 -0.20865637 -0.34283343 0.048318855 0.39160043 0.49025717 -0.26443583 0.10549395 0.08238117 0.5517552 0.618554 0.2402302 0.65362036 0.4232098 0.65308917 0.66544235 0.45558316 0.58192414 0.6465608 0.4430593 0.4781675 0.3656665 0.3911328 0.3797585 0.4165389 0.40151268 0.43790123 0.21755004 0.15119605 0.044774532 0.10188816 0.2792807 0.30068234 0.3236711 0.37666625 0.37154126 0.20608604 0.8142203 0.8107447 0.7373413 0.612208 0.7931448 0.80599314 0.5014061 0.342587 0.77344483 0.25518963 0.19111294 0.33697724 0.40714097 0.45476645 0.53587854 0.66833794 0.19289507 0.5518229 0.54528975 0.56525993 0.19154309 0.10763947 0.53949964 0.51005566 0.6886435 0.64457786 -0.14515898 -0.020718664 0.5042649 0.668633 -0.03671604 0.00897706 0.39651197 0.6254225 0.5257107 0.40534204 0.22954446 -0.06483504 0.40363312 0.49900618 0.40887338 0.56375474 0.62809145 0.65915185 0.63183296 0.1485983 0.23974004 0.44061595 0.57545257 0.27208313 0.27374443 0.24838829 0.4531932 0.35913885 0.24091342 0.018763948 0.035090156 0.17109619 0.284287 0.2863847 0.26501206 0.33772624 0.43433064 0.36141455 0.21707013 0.1414272 0.085300505 0.16933042 0.29085696 0.31574774 0.26458946 0.77047575 0.76441646 0.6918862 0.6218148 0.75869143 0.74464166 0.73503566 0.67153805 0.6141968 0.5521059 0.38422483 0.3477046 0.39571023 0.41115355 0.7111136 0.6897083 0.2803803 0.29770195 0.32034603 0.37991482 0.43387616 0.46989936 0.49769986 0.53370845 0.22433266 0.1308642 0.24638803 0.4688085 0.49123114 0.6492826 0.56509364 0.400411 0.45291394 0.68481076 0.6579616 0.43332866 0.7043667 0.6972362 0.6693026 0.14711311 0.59320796 0.52285606 0.45360613 0.46544838 -0.28088683 -0.01001738 0.5533699 -0.06478165 -0.13054094 0.09163914 0.21005696 0.19799122 0.08246866 0.6474434 0.5737059 0.5360269 0.69208807 0.7556232 0.82214355 0.8209493 0.5428556 0.46144807 0.18169597 0.14814961 0.11239377 0.7800487 0.8273026 0.51627934 0.4524934 0.36724687 0.3500085 0.34894404 0.350559 0.34033614 0.368726 0.40220875 0.42057157 0.41037816 0.36262247 0.6956803 0.63588804 0.59571666 0.2936522 0.2956423 0.3488539 0.36517262 0.38950068 0.6343962 0.5955262 0.55363214 0.5348955 0.5413965 0.28760397 0.27572364 0.30452853 0.39375383 0.43405122 0.54963624 0.46679977 0.326327 0.34759375 0.2750205 0.3205166 0.6452131 0.63344884 0.59281135 0.38866508 0.18438272 0.20543537 0.08391939 0.33789468 0.6965543 -0.2943784 0.35247844 0.6999153 0.23412865 0.6831918 0.6428772 0.22142276 0.27692336 -0.0010484755 0.3997071 -0.06085447 0.2463071 -0.21909718 -0.17890248 0.574646 0.4705547 0.5121819 0.43970883 0.32279262 -0.041105725 -0.18221626 0.1059855 0.7040442 0.5856575 0.024056744 0.42066354 0.5188282 0.7768229 0.74925315 0.59372365 0.5707294 0.23434691 0.16422376 0.4725677 0.4552758 0.71528506 0.784225 0.8326973 0.8048477 0.7741708 0.5275847 0.4386238 0.34282637 0.242421 0.80383533 0.8320462 0.81753683 0.41377997 0.33707124 0.37184864 0.4300168 0.44418865 0.4332739 0.37213528 0.3855133 0.42393103 0.453066 0.44032258 0.3813271 0.31021523 0.3239615 0.31032944 0.31269416 0.4334597 0.31652218 0.3296951 0.33087635 0.33114222 0.217772 0.66114545 0.58531344 0.32048285 0.4198815 0.7200985 0.7006744 0.09434935 -0.12187745 0.43221313 0.48056617 0.7154876 0.41296422 0.61208916 0.30051333 0.5573032 0.39814705 0.068219244 -0.07133449 0.039534822 0.007230982 0.30082637 0.022874117 0.536482 0.42417315 0.4816347 0.5562568 0.67763174 0.55752456 0.08766615 0.059848983 0.4802919 0.23039319 0.19517805 0.731006 0.57447773 0.47971934 0.4628774 0.42744863 0.5941972 0.7601876 0.74932057 0.567075 0.49523315 0.33158162 0.46466494 0.4575729 0.75532424 0.8041563 0.8149768 0.78734064 0.43864703 0.3580135 0.2606178 0.30860227 0.43208218 0.3708445 0.35800952 0.4160413 0.4525177 0.44824398 0.52532107 0.50353754 0.4616354 0.41406178 0.36429292 0.31597185 0.5081609 0.22494403 0.22095057 0.37449223 0.11929826 0.71447635 0.69615865 -0.21605226 0.040305085 0.113066256 0.3049037 0.4908759 0.7369896 0.74222064 0.37980396 0.15264574 -0.17823212 0.52439296 0.73554796 0.75091183 0.46272132 0.7370651 0.35316142 0.17843337 -0.22600305 -0.061296135 0.08560766 -0.12909116 0.23787837 0.21411952 0.18658416 0.38057688 0.47065437 -0.020297483 0.42644647 0.694236 0.49519336 0.46064126 0.42734253 0.39976814 0.22775552 0.6972661 0.7086381 0.44462296 0.20230824 0.23512533 0.4456464 0.43423873 0.6356284 0.7115872 0.7536464 0.7411789 0.28809428 0.2226947 0.38059777 0.3299408 0.21319512 0.2604487 0.380282 0.43213868 0.5330504 0.5449343 0.56400144 0.52040845 0.44497555 0.3168022 0.26688203 0.52304965 0.19705224 0.43762702 0.06382051 0.7208023 0.6436787 -0.15398756 -0.064296015 0.13036914 0.4373682 0.4840973 0.77085674 0.8133927 0.7496923 0.7149471 0.5992794 0.4187389 0.24854332 -0.27767962 -0.32493147 -0.12131489 0.45811275 0.79276156 0.86244166 0.905962 0.757931 0.57421416 0.35318407 0.12362372 -0.14654607 -0.15695757 0.41842395 0.8242737 0.95587015 0.96191657 0.80993223 0.16628805 0.2980725 0.18627472 -0.09118146 0.14406648 0.45018542 0.524204 0.23350395 0.47444248 0.5374426 0.24143374 0.22629565 -0.118894204 0.62293214 0.5010734 0.39941335 0.36996615 0.32127702 0.14652331 0.15151504 0.48718098 0.5937563 0.34927344 -0.030038128 0.3835802 0.5643932 0.5942232 0.2911771 0.24102838 0.14213875 0.104502305 0.21360782 0.1286113 0.57883346 0.64088964 0.6513034 0.546705 0.5088878 0.56160915 0.2937172 0.45367593 0.5689573 0.23070744 -0.092457324 -0.13823324 0.39361465 0.5848777 0.65864587 0.6903614 0.75628 0.76363176 -0.09061452 -0.123480655 0.3589853 0.42295256 0.59529114 0.6645708 0.7079729 0.87215066 0.87134373 0.29131454 0.7707846 0.8351847 0.93423176 0.88395834 0.6734475 -0.3027183 -0.32092178 0.18798831 0.23924005 0.9554157 0.9749472 0.89281404 0.8665368 0.324153 0.4514925 0.35380226 0.2854935 0.092399 -0.26217332 -0.11828116 0.43800086 0.53699476 0.3921826 0.33020577 0.20744209 0.09109607 0.55546886 0.5514816 0.55873686 0.15267083 0.48733428 0.5346541 0.54418856 0.1511104 0.08399072 -0.178749 -0.12569275 0.1261067 0.33296728 -2.1854416e-05 -0.00987675 0.13146752 0.18409401 0.16786826 0.13886946 0.23932794 0.36444095 0.35663295 0.2199684 0.057795383 0.1681661 0.14383683 0.19377941 0.026397813 0.06794176 0.14949475 0.14526041 0.21634068 0.28815717 0.27755135 0.20396563 0.32436514 0.6123055 0.6835077 0.6769804 0.5892042 0.5168911 0.5806851 0.44816095 0.5037508 0.510918 0.2584485 0.541494 0.4747974 0.46241322 0.5076209 0.54094887 0.16474226 -0.13007164 0.5200297 0.25308803 0.24607897 0.21637464 0.48453152 0.49032152 0.59455794 0.6415409 -0.03124895 0.05227475 0.25218385 0.2446637 0.23962268 0.5599847 0.7471293 -0.28834683 -0.13150394 0.0857359 0.5941405 0.685698 0.7648437 0.20285222 0.06374146 -0.3367377 -0.53159356 -0.07405065 0.38513172 0.90278137 0.8298969 0.7574636 0.7152294 0.33009458 0.21475351 0.058341514 -0.3520565 -0.3069053 -0.050738215 0.44906974 0.40631294 0.39198375 0.4088962 0.32807052 0.20677212 -0.05993285 0.50046086 0.4360098 0.4261613 0.53949213 0.42417002 0.33967933 0.22468951 0.5492283 0.3050714 0.15716544 0.5266075 -0.061262324 0.43362874 -0.23246938 -0.114577085 -0.2754323 -0.26244766 0.22071695 0.21421215 -0.18907845 0.013146497 0.13591208 0.14842573 0.17468674 0.10168328 0.22102877 0.23218952 0.17948003 0.19451466 0.16272034 0.15438193 0.19049248 0.25583202 0.3364634 0.35868996 0.30910653 0.53850263 0.51025504 0.5104071 0.46672916 0.42648277 0.681425 0.64248353 0.5727574 0.462969 0.43398178 0.4015752 0.33589214 0.61215514 0.6501944 0.60881174 0.48805875 0.53133947 0.5205387 0.23015551 0.31941038 0.21584255 0.20888115 0.35479063 0.37347478 0.38056433 0.7516974 0.7669432 0.7694886 0.67222226 0.5685321 0.40694523 0.081991434 0.54704076 0.5603494 0.52116203 0.47683287 0.2676837 0.23287691 0.19417377 0.18708731 0.3907814 0.35954675 0.44756293 0.49683213 0.6952278 0.7566282 0.6944492 0.57231736 0.13185781 0.24097228 0.16989996 0.00240279 -0.079972066 -0.13075756 0.23984632 0.212351 0.18885699 0.14413826 0.37585348 0.5487354 0.5377733 0.56196135 0.6835412 0.50933313 0.30382234 0.17551455 0.13238104 -0.010130003 0.096816435 0.09926069 0.5001346 0.39843398 0.10077126 0.08626791 0.20691478 0.105540134 0.34472743 0.5792228 0.42842522 0.49548346 0.035948414 -0.12675154 -0.09965412 -0.09210289 0.018835831 -0.011838846 -0.18997088 -0.2867802 0.58687085 0.5715226 0.33928144 0.28967378 -0.10704799 -0.2770558 -0.1864956 0.7574248 0.70452404 0.6186886 0.600773 0.3108066 0.328201 -0.14351392 -0.26125634 -0.37193096 -0.2689969 0.41997468 0.40241998 0.39262825 0.4238205 0.42784774 0.4458691 0.43766814 0.43913853 0.379615 0.31185335 0.46793982 0.48354486 0.31025636 0.093946606 -0.44673443 0.12609598 0.39644265 0.47673088 -0.19963694 -0.2738454 -0.34847543 -0.2412333 0.049318638 0.03531672 0.074708685 -0.043243676 0.04069356 -0.11438325 0.13590737 0.16283801 0.1688309 0.11461635 0.08159419 0.14793718 0.17452475 0.0933081 0.21123907 0.22435942 0.12713581 0.19922271 0.24797434 0.31362385 0.3446495 0.5008818 0.55532956 0.50458425 0.4413856 0.3731024 0.42178446 0.5017171 0.39277756 0.37178648 0.34728983 0.38282034 0.24216309 0.35353303 0.18008545 0.29575753 0.3754683 0.7591801 0.7724186 0.76050246 0.73913157 0.50665975 0.5226626 0.49924374 0.45663643 0.28718987 0.34824926 0.3752251 0.7414448 0.7791412 0.7518728 0.70489705 0.14508244 0.15395309 0.5077822 0.40667728 0.6677624 0.7050455 0.49560204 0.12542285 0.14219305 0.14025156 0.18604732 0.2209382 0.16994265 0.13327739 -0.11910781 0.21249595 0.42872453 0.5808496 0.5899636 -0.12399484 -0.0077901147 0.028571501 -0.19409303 -0.19796367 -0.46638018 -0.37586027 0.50204206 0.45539564 0.48258486 -0.1412256 -0.047698583 -0.38316795 -0.15200186 0.1363562 0.4781586 0.5027902 0.38077435 0.37199962 -0.021633007 0.41450912 0.4938442 0.48023388 0.3291859 0.34091502 0.35740352 0.2696593 0.4236188 0.41027373 0.31566086 0.42998034 0.1393481 0.22629642 -0.33749124 0.32504445 0.4237882 0.45731634 0.00024162233 -0.15937813 -0.35259062 -0.36800176 -0.3084682 -0.31621397 -0.31312418 0.12524934 0.23234428 0.18211699 0.3499363 0.0012736153 0.059733104 -0.06534822 -0.0780791 0.12741151 0.20127058 0.22704181 0.06662621 -0.041901723 0.12046655 0.053134017 0.81115663 0.07284315 0.12642251 0.7598 0.8504275 0.85331774 0.06726612 0.1165196 0.15311861 0.11578892 0.23563978 0.26829278 0.12582116 0.13085067 0.84625137 0.8681575 0.6939939 0.64164805 0.32623696 0.18127519 0.77550435 0.71898305 0.61229324 0.4026112 0.32217407 0.88107634 0.847055 0.7679886 0.7022375 0.5502815 0.90038013 0.87523735 0.8272947 0.7198249 0.5887693 0.88948023 0.8093474 0.88150096 0.8828098 0.8141439 0.8442522 0.5015225 0.44795468 0.37229866 0.68997246 0.7859219 0.8187815 0.3871827 0.46890196 0.41452402 0.33035067 0.6368173 0.7272988 0.7912537 0.80746984 0.2937406 0.3369718 0.40305763 0.41571668 0.6158209 0.69994307 0.7336391 0.49573982 0.13121526 0.259419 0.40753946 0.42112264 0.7373477 0.74103063 0.72865546 0.69135046 0.5695918 0.5776128 0.613848 0.47698924 0.502804 0.10466916 0.4149537 0.69498086 0.7043303 0.12726955 0.37402946 0.38736004 0.35706025 0.63064766 0.08332718 0.16401798 0.10402596 0.18490075 0.11101047 0.32985416 0.5545801 0.0096665975 -0.35228655 0.35063168 0.46833658 -0.10808999 0.40132868 -0.018153321 -0.010485347 0.30464128 0.3715656 0.41393864 0.28790712 0.22842686 0.01704788 0.24178065 0.11616996 0.07345768 0.29668945 0.11540496 0.2590214 0.29261267 0.1973547 0.39460552 0.3935271 0.05563499 0.07702121 0.30466008 0.39085302 0.42617634 0.06326351 -0.29851523 -0.28972292 -0.27886784 0.18730576 0.1554581 0.107005045 0.12246868 -0.1097829 -0.09422001 0.014974251 0.10310544 -0.11768328 0.06788991 0.19929904 0.649916 0.032925606 0.040801518 -0.014721651 0.40015963 0.42752314 0.77109206 0.8064796 0.035325464 0.17245957 0.52011216 0.6895527 0.86142915 0.841239 0.15037154 0.18688758 0.105964504 0.057854757 0.11994617 0.058619566 0.059743408 0.038930982 0.31806883 0.76368845 0.8326794 0.8714499 0.8726125 0.55371326 0.08696028 0.009138182 0.80074143 0.84611404 0.86926866 0.9234403 0.32081193 0.25126004 0.17329608 0.9319641 0.3685127 0.33997002 0.9333502 0.90611434 0.55045617 0.5042571 0.93782485 0.91871506 0.8723713 0.75481737 0.6144365 0.93354535 0.9729838 0.9594596 0.9059401 0.8492801 0.9102707 0.9220934 0.91610456 0.8725327 0.7048294 0.8096946 0.8667636 0.90492415 0.8199308 0.7780075 0.79891545 0.8087201 0.4140048 0.4362705 0.37793487 0.34175953 0.30348128 0.21885288 0.6541514 0.78049207 0.86257076 0.87869847 0.70340073 0.67741466 0.72329414 0.7083442 0.36789945 0.22163936 0.24734251 0.30497926 0.49712694 0.5553571 0.84283125 0.39915937 0.40661383 0.46937278 0.6372495 0.68647224 0.34976673 0.2970523 0.22246215 0.19695804 0.06127239 0.20108429 0.4000241 0.6491742 0.69546837 0.6879241 0.58971417 0.37577927 0.48298827 -0.020163365 0.36886308 0.3104413 0.54713726 0.6250567 0.3244687 0.12204851 0.394208 0.31701213 0.5268098 -0.09592644 0.07324241 -0.0028727427 0.0074255876 -0.02218318 -0.11172577 0.34706566 0.48928064 -0.021487847 0.029998008 -0.014788579 -0.07218731 0.32568717 0.45327282 0.31546336 0.36385587 0.32099754 -0.11367389 -0.22880334 0.26842088 0.090087056 0.13851453 0.19907525 0.1835471 0.04943853 0.08987695 -0.010817655 0.07488985 0.29548293 0.30849454 -0.01126571 -0.008328121 0.25982702 0.3349542 0.34376612 -0.1391321 -0.09984104 0.09024495 0.042323716 0.36456132 0.3112181 0.20893331 0.4451789 0.3147044 0.21074261 -0.19014397 0.11446253 0.39685562 0.6416391 0.4629711 0.31436822 0.23363838 0.3632032 0.79529047 0.44945252 0.566679 0.57779896 0.8424326 0.20375544 -0.08487633 0.010304852 0.10418868 0.5350997 0.59991604 0.66282654 0.706725 0.88413167 0.8878994 0.32842994 0.4735585 0.5757029 0.6186513 0.7890336 0.87194955 0.89977026 0.9125515 0.8263744 0.23820448 0.9070629 0.22471273 0.270014 0.9371973 0.43384153 0.34264573 0.9243733 0.91359365 0.87716377 0.7221946 0.61789525 0.5372716 0.9125682 0.82463723 0.8904173 0.95099515 0.94130284 0.837301 0.7880031 0.8092544 0.7563623 0.34553072 0.2936046 0.67252326 0.80191255 0.8736174 0.91520965 0.7210456 0.7563745 0.6322992 0.2996908 0.36730272 0.31684533 0.2351537 0.20350093 0.1936003 0.49663165 0.5878396 0.9124309 0.64677 0.6219658 0.43887848 0.3687814 0.19689058 0.46001562 0.7744211 0.50956374 0.5127348 0.4847871 0.47509784 0.25967467 0.34287673 0.37204078 0.35836574 0.4075029 0.6035304 0.35718748 0.2599876 0.25972745 0.27978137 0.27292886 0.13290614 0.07056846 -0.08940329 0.31595945 0.38072518 0.4975048 0.22061038 0.31872985 0.26631296 0.49461365 0.5350167 0.4642964 0.37489414 0.2625125 -0.061922416 -0.012231879 -0.42235774 0.16838296 0.33060926 0.42455828 -0.22377348 -0.045404043 -0.01893248 -0.07195998 -0.42850083 0.4055681 -0.21237102 -0.31855226 -0.24242482 -0.2549336 0.40911523 0.37405682 0.42129597 0.19890842 0.3655007 0.4840511 0.4890039 0.05108123 0.15543815 0.36060908 0.4658198 0.52480453 0.003356371 0.19738486 0.1960639 0.1675247 0.1767058 0.026243417 -0.04558343 0.0077733174 0.105970494 0.2167128 0.2271953 -0.13763405 -0.16475952 0.23297939 0.09010193 -0.42340946 -0.12174255 0.3470776 -0.2921215 -0.12654448 -0.14843437 0.48128006 -0.30565387 -0.23336035 -0.050976366 0.4646928 0.6885829 0.5147914 0.5046325 0.53870696 0.8005191 -0.12204928 0.63559586 0.6244462 0.6026261 0.62514734 0.8571185 0.33228844 0.23809835 -0.07492454 0.05752782 0.2866276 0.42601117 0.50522494 0.6016772 0.6408812 0.6652138 0.775865 0.89059466 0.90275836 0.88196206 0.6430309 0.5251046 0.2985419 0.437265 0.5135493 0.7337682 0.33393487 0.33251977 0.8065517 0.7277727 0.2958014 0.29005605 0.36636543 0.8372225 0.78977257 0.6932542 0.619675 0.78511727 0.8108747 0.85456026 0.85368985 0.7752017 0.75327474 0.7595711 0.6869094 0.67294836 0.6382626 0.76078916 0.8421002 0.86689234 0.7434075 0.5034739 0.24734886 0.24480891 0.4578265 0.81230026 0.7047155 0.3540972 0.3215962 0.1899171 0.19897327 0.37707138 0.68231237 0.62219274 0.2373735 0.13408852 0.18486546 0.3298571 0.332061 0.20093818 0.13082851 0.17693318 -0.023092657 0.2555905 0.040334433 0.24421352 -0.17917645 0.003435731 -0.07577543 -0.32375383 0.10860337 -0.08979096 -0.36586335 0.15199402 0.41796702 0.2534328 0.20934287 0.095340334 -0.077673435 -0.03196723 -0.14831582 0.3105846 0.37713188 0.37758136 -0.0740635 -0.28581643 -0.15268755 0.42356062 0.32741994 0.32808352 -0.3824599 -0.41946998 0.43489158 0.26662672 0.4634416 0.18273732 0.5334865 0.49578083 0.40468574 0.52958405 0.5629543 0.5614724 0.18190295 0.18537441 0.06929