# vtk DataFile Version 2.0
Really cool data
ASCII
DATASET POLYDATA
POINTS 6431 float
-21.906982 -26.040224 25.936842
-21.968603 -26.084558 26.425219
-21.905445 -26.114635 27.297846
-21.748451 -26.019848 27.773851
-21.765102 -25.346478 25.232769
-22.107117 -25.34149 25.659801
-22.345854 -25.398592 26.515196
-22.201738 -25.336569 27.451277
-21.945557 -25.36208 27.895409
-21.991978 -24.950417 25.299164
-22.149035 -24.695362 25.717466
-22.393377 -24.594473 26.686777
-22.250002 -24.610725 27.352474
-21.92114 -24.719097 27.87155
-21.98512 -24.055132 25.862875
-22.049547 -23.757235 26.550524
-21.957308 -23.809278 27.170815
-21.745478 -23.882675 27.737669
-21.1752 -26.57846 26.759695
-21.044058 -26.578691 27.257399
-21.205282 -25.899473 25.192123
-21.464022 -26.213984 25.7482
-21.519459 -26.44257 26.410282
-21.446001 -26.30905 27.50492
-21.212646 -26.054914 27.968918
-21.439774 -25.404228 25.033426
-21.537695 -25.323366 28.165253
-21.431595 -24.63554 24.990324
-21.270205 -24.485746 28.15556
-21.150219 -23.910637 25.13153
-21.48885 -23.61066 25.694208
-21.57146 -23.603392 27.42707
-21.226274 -23.894659 27.904173
-21.062037 -23.212286 25.70014
-21.491995 -23.246628 26.621435
-21.153353 -23.201117 27.205452
-20.34215 -26.59723 25.955444
-20.558186 -26.69846 26.644188
-20.298758 -26.649918 27.093023
-20.66221 -25.861897 24.959488
-20.66281 -26.376915 25.640003
-20.374609 -26.485353 26.169102
-20.568954 -26.50562 27.490105
-20.469625 -25.969673 28.099825
-19.899164 -25.08783 24.306686
-20.418999 -25.3331 24.642555
-20.934942 -25.463476 28.32755
-19.868706 -24.237803 24.111713
-20.531832 -24.761208 24.523846
-20.686085 -24.370462 28.390831
-19.934118 -24.682981 28.542572
-20.128447 -23.858418 24.368591
-20.32589 -23.687485 24.554342
-20.445488 -23.746368 28.054148
-19.900705 -22.8495 24.9117
-20.10066 -22.619083 25.566347
-20.329351 -22.765259 26.44644
-20.446163 -22.976812 27.19536
-19.849266 -22.321695 25.626032
-19.425203 -26.660017 26.040354
-19.446732 -26.757195 26.522484
-19.45256 -26.648104 27.208668
-19.57197 -25.929382 24.992214
-19.408344 -26.419798 25.55832
-19.760687 -26.502645 27.40506
-19.490728 -25.8242 28.14126
-19.435251 -25.089565 24.141424
-19.704845 -25.365368 24.423546
-19.254171 -24.41669 23.899605
-19.489273 -24.677124 28.58324
-19.277515 -23.644197 23.999945
-19.432058 -23.507502 28.28283
-19.274382 -24.012669 28.532545
-19.144934 -23.006826 24.29077
-19.47341 -22.640318 24.779978
-18.835125 -22.820574 27.944965
-19.402817 -22.359322 25.08936
-19.517485 -22.239454 25.52365
-19.336151 -22.17467 26.180086
-18.813063 -22.211275 27.3699
-18.972927 -9.883393 32.68383
-18.832216 -9.9804 33.393604
-18.774635 -9.859902 33.8202
-18.751066 -9.259733 30.835268
-18.958475 -9.425773 31.547234
-19.25366 -9.24307 32.64575
-19.18966 -9.304415 33.401615
-18.88745 -9.313115 33.980484
-18.783434 -8.791099 30.771719
-19.108137 -8.508216 31.7258
-19.351795 -8.509973 32.59532
-19.30746 -8.571978 33.417603
-18.9759 -8.570727 34.007015
-18.943342 -7.828288 31.991102
-19.116234 -7.7895036 32.653027
-19.005138 -7.7245855 33.404102
-18.896862 -7.973209 33.90829
-18.746328 -7.3489323 32.82332
-18.879725 -7.389961 33.25452
-18.76009 -26.654772 26.466114
-19.070345 -26.715164 26.939243
-17.686909 -26.767372 33.52644
-18.601212 -25.862877 24.835546
-18.398943 -26.306606 25.465776
-18.361961 -26.496315 26.517885
-18.518415 -25.967001 27.79116
-17.777857 -26.310688 32.88325
-17.964705 -26.274405 33.58064
-17.934172 -26.094473 34.30137
-17.71833 -25.859888 34.96028
-17.60007 -24.783575 12.690123
-17.666458 -24.841665 14.375641
-18.49785 -25.15458 24.161318
-18.488052 -25.46312 24.408602
-17.757765 -25.75141 32.74153
-18.213558 -25.592125 33.77717
-18.241882 -25.332829 34.426174
-17.908401 -25.259644 35.065365
-17.604445 -24.117676 12.09561
-17.70223 -24.37733 12.588867
-17.763687 -24.416143 13.265246
-17.80244 -24.506756 14.680715
-17.700808 -24.396107 15.275618
-18.500586 -24.54122 23.831024
-18.29672 -24.6595 33.748924
-18.288635 -24.594852 34.430656
-17.953127 -24.548923 35.07182
-17.632517 -23.732933 12.013382
-17.76896 -23.605902 12.525956
-17.905298 -23.4974 13.565598
-17.862665 -23.64373 14.587972
-17.7478 -23.644629 15.269203
-18.602884 -23.682896 23.902565
-18.312344 -23.276037 28.461311
-18.072939 -24.000902 33.95449
-18.062468 -24.00946 34.43985
-17.970133 -24.061893 34.841724
-17.698986 -22.941097 12.700299
-17.701237 -22.718714 13.557942
-17.636055 -22.60723 14.436022
-17.579481 -23.013512 15.201197
-17.98755 -23.205189 24.145832
-18.573687 -22.606304 28.207563
-18.805895 -22.236963 25.074055
-18.108232 -21.797564 25.553009
-18.291494 -21.854593 26.281078
-18.333633 -21.791557 27.469446
-18.130726 -21.857512 28.094103
-17.66962 -21.218292 27.936321
-17.61987 -18.055742 27.61774
-17.632269 -17.943808 29.497978
-17.843897 -17.556684 27.779303
-18.029633 -17.27364 28.387802
-17.88586 -17.295307 29.276453
-17.852083 -16.748714 27.885021
-18.017103 -16.573454 28.676222
-17.84342 -16.51781 29.417803
-17.661663 -16.726408 29.752447
-17.811897 -15.984488 28.825443
-17.871647 -16.167727 29.13213
-18.05546 -10.61751 31.911171
-17.86056 -10.674592 32.17162
-18.110546 -10.578547 33.10204
-18.103828 -10.177789 30.641012
-18.503199 -10.257464 32.030663
-18.511274 -10.27107 33.43584
-18.33844 -10.019691 33.962246
-18.27928 -9.425898 30.254368
-18.499369 -9.345411 30.504574
-18.347857 -9.437174 34.3124
-18.194656 -8.733131 30.084755
-18.507591 -8.533205 30.48261
-18.371096 -8.555467 34.38904
-18.036203 -8.599638 34.589584
-18.032059 -8.046419 30.234617
-18.15841 -7.76457 30.748018
-18.518864 -7.6710453 31.356915
-18.70114 -7.482196 33.660213
-18.32711 -7.7529826 34.055946
-18.017668 -7.3518124 31.039612
-18.100796 -7.227899 31.68809
-18.435835 -7.1824074 32.72947
-18.330603 -7.274537 33.33983
-18.157164 -7.3967466 33.88273
-17.17998 -27.093788 32.788578
-17.23285 -27.107994 33.566067
-17.208914 -26.934484 34.177677
-17.505167 -26.057869 25.865673
-18.166008 -26.403408 26.29372
-16.995872 -26.494846 31.987972
-17.546307 -26.690546 32.68591
-17.517794 -26.57892 34.522602
-17.291204 -26.157318 35.090675
-17.241795 -24.762333 12.087116
-17.23564 -24.9586 12.530498
-17.348017 -25.01506 13.504846
-17.274563 -25.194117 14.605241
-17.286577 -25.016176 15.292178
-16.991098 -24.864758 15.809544
-17.795532 -25.086296 24.227757
-17.34411 -25.301529 24.559118
-17.266365 -25.29906 28.010017
-17.490387 -25.40001 32.462357
-17.488232 -25.438276 35.43369
-17.072962 -25.344711 35.70824
-16.870718 -23.990414 11.3901005
-17.267828 -24.37673 11.860683
-17.475414 -24.655634 12.293668
-17.47787 -24.560543 15.567971
-17.12904 -24.409073 15.992675
-17.618189 -24.502783 24.091696
-17.222063 -23.99977 29.020956
-16.581087 -24.543682 31.326519
-17.452053 -24.642784 32.646217
-17.597519 -24.71938 35.389626
-17.069239 -24.317413 35.895992
-16.883173 -23.28086 11.333676
-17.29738 -23.600273 11.657642
-17.479185 -23.358223 15.743529
-17.224611 -23.577568 16.071451
-17.960243 -23.461739 23.951979
-17.328903 -23.094404 29.090136
-16.72941 -23.33687 31.932795
-17.104055 -23.73274 32.89256
-17.358015 -23.565994 33.62974
-17.38178 -23.64976 35.25374
-16.905872 -23.781496 35.95766
-17.169577 -22.66461 11.705497
-17.384312 -22.36184 12.505345
-17.492859 -22.506548 14.807835
-17.41069 -22.947092 15.560763
-16.979214 -22.816956 16.015038
-17.738367 -22.514154 24.497417
-17.30546 -22.540874 29.16514
-16.777258 -22.041832 29.89118
-16.66733 -22.780909 32.120865
-17.335217 -23.302462 34.74408
-16.770748 -23.115637 35.55843
-16.758574 -21.559309 11.8164835
-17.134 -21.779783 12.648676
-17.289673 -21.773397 13.3869915
-17.226477 -21.825098 14.191276
-16.959917 -21.953043 15.207269
-16.790024 -22.275349 15.860879
-17.751165 -22.310175 24.881666
-16.945337 -21.237526 30.361416
-16.692488 -21.38144 31.336624
-16.741617 -21.12284 12.150849
-16.644089 -20.634008 12.68838
-16.708126 -20.67028 13.5801525
-16.78923 -20.954638 14.125016
-17.214727 -20.868013 26.778965
-16.767115 -20.199675 30.56521
-16.660166 -20.75526 31.375576
-17.159792 -19.145983 27.83156
-17.359121 -18.885048 28.689339
-16.799511 -18.492077 26.893114
-17.509037 -18.626621 27.996275
-17.319122 -18.550161 29.292318
-16.964228 -17.339005 26.704498
-17.58172 -17.33188 27.334394
-17.120396 -17.131496 30.217525
-17.201277 -16.68782 26.993822
-17.58936 -16.294415 27.684246
-17.315804 -16.599379 30.02401
-17.17665 -15.894208 27.272552
-17.393707 -15.62222 28.170118
-17.346502 -15.545187 29.443798
-17.019085 -16.132109 30.079313
-16.895195 -15.044631 27.878176
-17.141388 -15.217184 28.658855
-17.079046 -15.076067 29.016457
-16.52577 -12.336713 23.579943
-16.520185 -12.224585 24.053026
-16.513609 -12.092075 23.74695
-16.625809 -10.826042 29.315271
-17.581146 -10.816643 31.025549
-17.469528 -10.98917 31.63251
-16.923004 -11.223637 32.305725
-17.43853 -10.652126 33.239372
-17.312355 -10.287713 29.811794
-17.641842 -10.487931 30.317074
-17.556639 -9.988639 34.119038
-16.909876 -9.611708 28.860455
-17.330498 -9.299137 29.349195
-17.656427 -9.511633 34.425785
-17.63997 -9.104778 34.58167
-17.22199 -8.548672 29.436554
-17.72246 -8.201423 34.497845
-17.5395 -8.586943 34.574764
-17.010736 -8.009471 29.734726
-17.752266 -7.4953976 30.631489
-17.507755 -7.7254705 34.218403
-17.397333 -7.2391324 30.742783
-17.358774 -6.991459 31.477066
-17.489582 -6.975211 32.38645
-17.621656 -7.2325754 33.572144
-17.345177 -7.411313 33.793392
-16.126902 -26.70188 31.605673
-16.498686 -27.221094 32.549942
-16.46795 -27.379124 33.494137
-16.470587 -27.157202 34.34971
-16.295057 -26.822582 34.95994
-16.625134 -25.60514 25.102573
-16.65318 -25.846758 25.773756
-16.569477 -25.878569 26.414762
-16.14905 -25.72427 27.089167
-15.791011 -25.690092 28.701496
-15.805413 -26.073015 29.739313
-16.483204 -26.65253 31.685226
-16.220562 -26.529915 35.44142
-16.504745 -26.027449 35.79373
-16.739458 -24.930521 12.000851
-16.567804 -25.132217 12.404233
-16.514746 -25.266638 13.367115
-16.591932 -25.386757 14.503694
-16.56917 -25.24076 15.3707695
[...]
POINT_DATA 6431
SCALARS features_00 float 1
LOOKUP_TABLE default
0.8759037 0.9064194 0.9067924 0.89724207 0.80698496 0.8944416 1.0 0.9814751 0.9268125 0.82391846 0.8971385 1.0 0.932389 0.8699554 0.87430966 0.87547314 0.8337164 0.7749039 0.75666285 0.75654936 0.7585127 0.81047094 0.80728114 0.8380196 0.8372283 0.75728816 0.8764763 0.7292298 0.7527455 0.7005547 0.7567612 0.74775064 0.68965137 0.66810435 0.7518108 0.672195 0.64851725 0.67350775 0.6603879 0.69179004 0.7025809 0.65418845 0.70922613 0.77277845 0.6248595 0.65383613 0.8402226 0.638634 0.6525264 0.6538076 0.6198245 0.64216936 0.6387244 0.5427862 0.5565828 0.5254903 0.53289276 0.540818 0.47361702 0.5589005 0.5707635 0.5774877 0.6051274 0.56810516 0.613902 0.7092639 0.612271 0.61211926 0.6333243 0.5399084 0.64110684 0.36635357 0.36048067 0.5881157 0.53160006 0.26346618 0.48763132 0.45626578 0.40773213 0.32875496 0.79918003 0.8500118 0.898164 0.631816 0.7375723 0.9116794 0.9399947 0.9477612 0.64314455 0.7859154 0.93346155 0.974331 0.9695631 0.7890302 0.86027503 0.89684916 0.9231392 0.8325449 0.86613023 0.5168768 0.5410846 0.7244882 0.5451478 0.49157616 0.47197247 0.48669854 0.7158463 0.7435979 0.70765793 0.6410128 0.7512047 0.8750905 0.5851744 0.5638865 0.69491285 0.75730664 0.70990235 0.64106286 0.7272699 0.73121697 0.75364625 0.85198355 0.867169 0.61855704 0.71328723 0.67450404 0.6090691 0.7165706 0.7054539 0.70699334 0.72159916 0.74401176 0.63503927 0.16731879 0.60830617 0.6068233 0.5882863 0.67312235 0.6074434 0.56464076 0.625529 0.582124 0.201824 0.46774644 0.38329524 0.38347858 0.28144094 0.18594226 0.19344334 0.50233686 0.58602154 0.5525571 0.63969713 0.6377968 0.5798221 0.64586645 0.60830367 0.5641781 0.60241365 0.61189115 0.58281803 0.57893777 0.7165986 0.55387336 0.66646165 0.8125837 0.880304 0.55424494 0.5819415 0.9241492 0.5581428 0.60716635 0.93747973 0.9157883 0.57234466 0.61996514 0.69700843 0.884975 0.8975804 0.6480789 0.71953464 0.8069504 0.8430083 0.86934936 0.6384463 0.68831146 0.669455 0.40800285 0.45490608 0.5601905 0.678849 0.66170406 0.59813035 0.751668 0.7614414 0.8232595 0.907423 0.90972835 0.9157694 0.55476785 0.5183969 0.22253788 0.5941813 0.5838598 0.5299832 0.7441064 0.7458719 0.74896073 0.901664 0.91509163 0.5678853 0.126268 0.12681226 0.44989347 0.57186115 0.47805935 0.7157301 0.7221531 0.7055477 0.7885161 0.5992394 0.10598175 0.06774583 0.29652876 0.4590423 0.4724935 0.41709727 0.67653835 0.62407815 0.5533984 0.6208341 0.61156183 0.5029825 0.11484615 -0.06857122 0.05042082 0.44304997 0.34231296 0.5603694 0.56677806 0.54245424 0.50675786 0.5070275 0.5416033 0.4566477 0.013163775 0.009175241 0.54569817 0.55555844 0.5459576 0.5032821 0.14941631 0.034125812 0.026139723 0.39494282 0.5598637 0.26861572 0.5268869 0.5482496 0.34356377 0.48619014 0.4325561 0.42158422 0.5307318 0.4972242 0.43714002 0.5208733 0.51824135 0.4568593 0.40582377 0.47706723 0.45640188 0.523883 0.48566905 0.5050029 0.28211752 0.47908485 0.48785225 0.47400254 0.7068493 0.4411793 0.4873677 0.8565047 0.38613498 0.47446394 0.8797772 0.8889976 0.49120292 0.8854276 0.8821405 0.5165453 0.59840983 0.8523911 0.60121423 0.65872526 0.75677085 0.8219098 0.817837 0.34066826 0.5266137 0.5944154 0.5858197 0.5278733 0.45033723 0.36658734 0.29435426 0.15575455 -0.050373107 0.11051736 0.41997778 0.4878068 0.49217874 0.7629447 0.780248 0.84544206 0.90009105 0.8749176 0.8879332 0.48679727 -0.080819085 0.46810874 0.761557 0.75653243 0.9037205 0.46759066 0.41836458 0.3864718 0.7333529 0.9024178 0.41765887 -0.0104167685 0.33557498 0.33319274 0.63378865 0.57690305 0.4727607 0.23907804 0.29027995 0.29280186 0.5471039 0.5415583 0.50600237 0.5006621 0.4173858 0.16958396 0.060293496 0.061935563 0.13149828 0.20081931 0.18962228 0.5103476 0.5318861 0.5606965 0.4988028 0.4549932 -0.18569723 -0.002298087 -0.009363777 0.5399941 0.56701535 0.5679368 0.4990549 -0.14194635 -0.011762085 0.15230337 0.2683977 -0.112395614 0.30408102 0.036211938 0.2043561 0.3319055 0.023937043 0.257523 0.37245154 0.47466695 0.4217193 0.2506254 0.23445487 0.30830374 0.3561766 0.17529266 0.48338833 0.5181589 0.5137358 0.4628488 0.36020523 -0.031966135 0.20550016 0.19259968 0.13784409 0.4967504 0.5304491 0.5317738 0.4693117 0.35802594 0.11480451 -0.21835671 0.3800392 0.38383844 0.47831047 0.5152347 0.49111187 0.39045143 0.27701208 -0.13647762 0.305053 0.40804023 0.43354136 0.44255185 0.38732398 0.34419042 0.18710683 -0.025549293 -0.02719263 0.6600728 0.80555975 0.1998016 0.33557484 0.7998469 0.38513565 0.77205265 0.823254 0.43941715 0.5120957 0.7146541 0.7809231 0.5606204 0.60773075 0.6411264 0.7413573 0.24072593 0.1962758 0.23220383 0.45565444 0.45550302 0.41709697 0.42748198 0.32179713 0.14534582 0.39090526 0.77159905 0.73495764 0.66354954 0.7236423 0.78767407 0.86233956 0.35877278 0.3654201 0.7674036 0.7712343 0.79231215 0.82370305 0.26259753 0.34428805 0.7277837 0.8958664 0.27924958 0.06720087 0.30741534 0.59549874 0.514301 0.25247914 0.25428125 0.48293424 0.45823961 0.13060342 0.1507583 0.4839496 0.49667937 0.43474263 0.4015938 0.35328534 0.119839355 0.14975913 0.16234227 0.5098084 0.5612534 0.5414473 0.472976 0.4177205 0.4641871 0.41598946 0.20230082 -0.06000543 0.15392438 0.14488462 0.15532692 0.54933053 0.551454 0.47971594 0.45500845 0.33115232 -0.15232867 0.12337926 0.16677366 0.17149186 0.17384325 0.46263063 0.30245674 -0.24266724 0.0012380183 -0.02091376 -0.19612162 -0.07560547 0.45503956 0.40070504 0.18299785 0.0050974265 0.40858436 0.4337949 -0.18399666 -0.11517958 0.39575005 0.43649155 -0.028767273 0.2693383 0.39541888 0.41267753 0.1718219 -0.04194118 0.35168177 0.3965174 0.3931473 0.17580274 0.106472984 0.4970068 0.59201825 0.5273223 0.2375643 0.0086791385 -0.022152498 -0.017032668 0.53798676 0.62727827 -0.027589304 -0.019730885 0.26744714 0.61915594 0.63632715 0.36027575 0.43277657 0.59092534 0.62567574 0.7024813 0.42407483 0.48560786 0.6305766 0.665367 0.29167306 0.27333635 0.22836742 0.13843302 0.23040867 0.269474 0.20133129 0.14457956 0.2799005 0.20560756 0.29181808 0.5689894 0.53924423 0.47130024 0.1763597 0.23839667 0.55673045 0.5452198 0.40154743 0.2899452 0.5392378 0.5740526 0.5723929 0.5479108 -0.026929721 0.27550012 0.5949607 0.60028636 0.5644966 -0.075406075 0.24389705 0.54638064 0.56146187 0.5452581 0.46090713 0.03837958 0.1970155 0.43193477 0.44150558 0.43302613 0.3811492 0.10444641 0.17430454 0.4417493 0.40153342 0.48038697 0.3940639 0.1728488 0.4284506 0.45408282 0.3798819 0.52648884 0.19063799 0.22778061 0.48035863 0.48946136 0.49217024 0.45119178 0.5120162 0.48092514 0.19131465 0.22964215 0.49040338 0.4622172 -0.27912366 -0.06800922 0.10607225 0.16264528 0.1863759 0.2246798 0.42385653 0.11746541 0.030546598 -0.0067205057 0.12904947 0.30333504 -0.041906968 0.1186298 0.20108365 0.24759948 0.28326184 0.3352651 -0.10096014 0.063037366 0.32462978 -0.24839205 0.6198102 0.6125614 0.52918047 0.38167068 0.30587006 0.27236825 0.6405531 0.6351546 0.49702558 0.36845157 0.32071298 0.047434136 0.37375188 0.6870979 0.6461737 0.5082052 0.418249 0.31136292 0.1497555 0.06493615 0.38560957 0.4784322 0.65875816 0.6916493 0.6488026 0.5187798 0.41122317 0.3064705 0.1351994 0.1613472 0.10129246 0.05787952 0.451861 0.46111456 0.64327085 0.67507136 0.6416147 0.5421126 0.45770168 0.18627687 0.1954878 0.22477509 0.18457355 0.26858225 0.29221576 0.44167206 0.65620977 0.63415515 0.56725335 0.47031856 0.27731085 0.3209771 0.3230698 0.5760694 0.46596378 0.58299744 0.65546036 0.6207238 0.42601508 0.49707738 0.58514893 0.6779674 0.6545881 0.6081671 0.3956036 0.4616878 0.57465446 0.6459306 0.6349409 0.37398037 0.42148614 0.4495861 0.51769555 0.37125468 0.39854383 0.26456678 0.24364717 0.18605632 0.12166714 0.3198367 0.16972718 0.042156328 0.015608241 0.19061594 0.1842144 0.32395238 0.30991888 0.33902332 0.25261107 0.26772216 0.246646 0.14107321 0.30023193 0.5137673 0.44025475 0.38379973 0.31471637 0.20086014 0.27588594 0.2588213 0.54422843 0.078172885 0.21971115 0.17504548 0.17980208 0.19808683 0.53596234 0.15515962 0.46548605 0.46997797 0.35250822 0.44171718 0.36030218 0.42558286 0.38249692 0.30618504 0.053377353 0.32413554 0.2714613 0.22583431 0.22600773 0.15630814 0.34283048 0.34834328 0.2636152 0.23464102 0.36484313 0.3092141 0.36487234 0.3718373 0.31877428 0.5325896 0.24748921 0.24423686 0.4817784 0.46484756 0.18028781 0.25857377 0.25720704 0.07811814 0.027535621 0.23331241 0.26067686 0.18975827 0.151326 0.20377538 0.2588253 0.194198 0.1185823 0.14152254 0.31654054 0.24256513 0.22845516 0.10580015 0.010284215 -0.009733513 0.26882163 0.31213823 0.35365036 0.09213279 -0.09959406 -0.21627411 -0.019023687 0.32283702 0.5783132 0.58195376 0.43215024 0.016977668 0.037199575 -0.022240747 0.15297829 0.54938745 0.57741344 0.28285462 0.5423998 0.62043923 0.12800547 -0.02115827 0.5712754 0.2455805 0.018492036 0.23900068 0.58562243 0.25695324 0.14598499 0.21839717 0.2973169 0.31107515 0.26943654 0.5367675 0.62808186 0.60464895 0.5105448 0.31719694 0.18055573 0.26343793 0.32763928 0.28349736 0.57308185 0.4523589 0.40620092 0.37317896 0.31486383 0.31253338 0.49293983 0.49450547 0.45387632 0.4368552 0.53205687 0.3434233 0.4481926 0.507684 0.2985444 0.56517833 0.5416367 0.20605065 0.34795973 0.54586184 0.40275878 0.34810656 0.34703547 0.5103805 0.49128288 0.4865644 0.4631455 0.38340768 0.30028427 0.3411418 0.44739234 0.44566652 0.52159435 0.5317602 0.5329725 0.4793673 0.3353284 0.3471559 0.362074 0.37021106 0.37518317 0.5264129 0.4529922 0.35640588 0.21694538 0.111223616 0.27280736 0.33611277 0.33477193 0.3676771 0.090728596 0.18143651 0.21857187 0.17461285 0.1363692 0.11910423 0.1463846 0.30684894 0.4301082 0.48303217 0.20435776 0.13510321 -0.047957946 0.0895868 0.4367975 0.42448753 0.85447943 0.8402742 0.8032893 0.7373474 0.24583283 0.2267267 0.34026498 0.8432192 0.8328519 0.78979623 0.74090827 0.4882517 0.35272008 0.27275878 0.21849799 0.25374237 0.25551456 0.795887 0.77451336 0.7694683 0.70769155 0.39312068 0.7108551 0.7010802 0.6608907 0.6274504 0.10545507 0.15699759 0.10290001 0.1516171 0.6725323 0.61052233 0.56230414 0.09621021 0.26887035 -0.09370737 0.04486388 -0.011601429 0.2223956 0.13810056 0.031676613 0.018332146 0.2904824 0.095998585 0.09726715 0.026845785 -0.0025634747 0.4700283 0.10809484 0.2544038 0.22697856 0.18405469 0.49099588 0.23144035 0.1823802 0.2360964 0.42448637 0.23110223 0.17257692 0.2920823 0.24294844 0.2917315 0.25380576 0.25119984 0.41989708 0.42677307 0.3790968 0.25138304 0.19915879 0.09036538 0.02860833 0.07456228 0.13081858 0.4195102 0.44452786 0.23675613 0.047176033 0.029957533 -0.031425104 0.42598754 0.24366337 0.3139394 0.1405879 -0.0303861 -0.049421247 0.12378501 0.26966867 0.37129453 0.36543414 0.74772096 0.49831396 0.4597828 0.45884562 0.44852197 0.055864245 0.4181085 0.11607252 0.15432528 0.4163593 0.025153741 0.0987933 0.26941976 0.21787561 0.452502 0.29805315 0.25413135 0.15578243 0.3923452 0.28963476 0.27729705 0.28243798 0.4270029 0.5115112 0.50429595 0.46680123 0.24130674 0.52165455 0.5168422 0.4847971 0.57987744 0.5212061 0.52567536 0.56045544 0.61937106 0.68302023 0.41011947 0.41742378 0.49962392 0.51691806 0.63066196 0.6525593 0.5236329 0.6161548 0.18376833 0.04540857 0.044488274 0.4462332 0.36232185 0.3043239 0.1709936 0.40957677 0.47156745 0.44454575 0.38541076 0.36298695 0.45284468 0.48845893 0.36427903 0.3815999 0.3748343 0.45684606 0.4459278 0.47653198 0.14883518 0.21858045 0.30763265 0.33843526 0.37011045 0.26157343 0.110289276 0.01403635 0.03653661 0.36876392 0.3914166 0.2810351 0.27711564 -0.04569941 0.42479718 0.43169653 0.4496909 0.37891084 0.43256256 0.47488055 0.48811203 0.4126711 0.04528907 0.45588696 0.45236003 0.13152984 0.044647668 0.072594434 0.32666165 0.38385445 0.47370642 -0.16547745 -0.16198575 0.03512021 0.10340087 0.12934919 0.2652486 0.367207 0.48206636 0.55450064 0.51877224 0.8468632 0.82210726 0.11686636 0.050440516 0.06984255 0.46379083 0.8497013 0.85489905 0.7999289 0.7043493 0.11107732 -0.010384731 0.05091139 0.38876444 0.32583928 0.8438325 0.6296867 0.049634963 0.17532429 0.7990544 0.09448352 0.7159178 0.45983237 -0.0040424913 0.0005272329 0.0146626085 -0.06928149 0.11972661 0.1667253 0.6792805 0.66015756 0.5642877 0.5211232 0.0148525685 0.6251882 0.54283655 0.45906407 0.35072798 0.11636427 0.00667309 0.12081684 0.24627247 0.19639839 -0.044814155 0.013458714 -0.060306113 0.037110917 -0.014181842 -0.10556843 -0.27677354 0.41955388 0.107523896 0.12907752 0.23581073 0.18339635 0.16889238 -0.34094656 -0.264257 0.02848345 -0.24294999 -0.26956862 0.124423325 0.12136284 0.18124676 -0.16317412 0.1522868 0.21000719 0.13536112 0.29239038 0.13921891 0.29931092 0.34829378 0.27687436 0.24791642 0.14837523 -0.11934988 0.026252002 0.3728435 0.046268433 -0.0068723783 -0.12043789 -0.2274512 0.20059265 0.35991073 0.47627002 0.45338768 0.3605203 0.60120994 0.5995339 0.6934416 0.743069 0.69318956 0.6799779 0.186795 -0.34817073 0.22503024 0.67879045 0.71144664 0.70797 0.20116729 0.66282505 0.68650347 0.69006705 0.38794798 0.3259111 0.13197957 -0.042633086 0.4730938 0.09303154 0.5132422 0.45002487 0.39879787 -0.13999125 -0.020070847 0.14872493 0.104633376 0.4198866 0.38631368 0.24202648 -0.12405138 0.13699166 0.16260138 0.2250919 0.24464342 0.22846141 0.4550412 0.34400728 0.2524903 0.22759025 0.5071857 0.5319028 0.51230264 0.4416028 0.53852475 0.57795036 0.61153346 0.6620931 0.45769346 0.50998646 0.66753495 0.71817434 0.7162226 0.38706303 0.44800347 0.45288467 0.6867205 0.67672974 0.18434218 0.19049 0.6412488 0.6604529 0.07998942 0.5696972 0.13129348 0.09093126 0.40123704 0.24806896 0.33051422 0.4592641 0.3683936 0.44388467 0.46447963 0.38471544 0.41383183 0.2305516 0.37144342 0.3900993 0.27139637 0.33700806 0.3277437 0.22949617 -0.035311528 -0.07631439 -0.08917836 -0.074071415 0.06641591 0.3833317 0.088008694 -0.0015841872 -0.03241021 0.7209725 0.66969067 0.3913411 -0.0054568024 0.013999827 -0.05052335 -0.080679074 0.7429579 0.7225193 0.6223024 0.52718073 0.31449032 0.38934606 0.39872354 -0.092329875 0.0081411 -0.055890426 -0.12991758 -0.11779186 -0.1640124 0.45280564 0.51719624 0.7435322 0.6622468 0.59004134 0.39179027 0.37678444 0.013637751 -0.20164528 -0.06492378 -0.024488233 -0.25510633 -0.31660372 0.13070881 0.3728963 0.51920116 0.49045074 0.8284636 0.8107724 0.79585576 0.6360651 0.51822346 0.085060164 -0.3269183 -0.19643728 0.44032902 0.8027353 -0.041248456 -0.29556477 -0.40294695 0.7731964 0.7975255 0.26907277 0.11176472 0.14845261 0.7974369 0.12770496 -0.033514485 -0.15692316 0.15035939 0.21230143 0.22336653 0.7156502 0.13643122 0.09091638 -0.0068370774 0.005621165 -0.11229173 -0.0141265765 0.032332994 0.18094632 0.2223699 0.66864836 0.11481745 0.017067507 0.043905735 -0.22233681 0.2187366 0.6176719 0.5358895 0.4452128 0.23797877 0.13468671 0.23012431 0.38840786 0.3692009 0.31308386 0.23762171 0.14785954 0.14423425 0.13777241 0.16683081 0.12621187 -0.2566084 -0.23394518 -0.18945362 0.1325603 0.14130187 0.12274934 0.13507998 -0.26408696 -0.22697394 -0.17640963 0.10392308 0.08865139 0.13099633 -0.20466837 -0.17452042 0.05910043 0.038841486 0.21856867 -0.13839228 0.23178247 0.3058691 0.33851412 0.2707108 0.48517865 0.5066865 0.19557886 0.040982723 0.6288098 -0.20448463 0.023849411 0.12596539 0.63632834 0.6861648 0.6592833 -0.13995573 0.59959066 0.6545158 0.67595935 0.6740149 0.43319538 0.17756557 0.052036386 0.67607725 0.53710127 0.4723478 0.075386375 0.13760757 0.5428282 0.1318517 -0.015696213 0.5143788 0.47379228 0.08082859 -0.01226996 0.14109737 0.5191183 0.4852125 0.4778368 0.4382223 0.38092747 -0.08801933 0.23271376 0.10326801 0.19842058 0.17350954 0.5366248 0.54444194 0.53297824 0.5170317 0.5090971 0.40940338 0.2803879 0.57246757 0.62692595 0.6531437 0.6413733 0.5521651 0.42519557 0.47564083 0.44461995 0.3485277 0.5531774 0.61089814 0.6736065 0.65092003 0.5498121 0.4434 0.4753629 0.57335365 0.5902283 0.60950065 0.58223516 0.49679017 0.53470546 0.5670557 0.64197874 0.6644851 0.46768484 0.69955915 0.7092414 0.67004824 0.66233397 0.034141302 0.6391528 0.107675344 0.085247666 0.5711701 0.15612684 0.31469443 0.39181927 0.34316477 0.3781808 0.3427448 0.21853942 0.35712594 0.04174443 0.16941695 0.18169175 0.7056694 0.6806172 0.3304329 0.37810692 0.16037005 0.2040087 0.13356565 0.7226951 0.72583824 0.7150692 0.6481949 0.53466284 0.27097046 0.060316812 0.7241907 0.73687375 0.40686923 0.23169109 0.14327638 0.1295572 0.7139752 0.27687868 0.12415554 0.084297426 -0.31709856 0.32803875 0.4178723 0.43792188 0.44426268 0.77596116 0.7576994 0.74791527 0.6966179 0.28733626 0.18339963 -0.05921301 0.29325885 0.74934804 0.71781206 0.16795875 0.30692872 0.21908389 0.22271618 0.7307879 0.1197609 -0.124359876 -0.21064585 0.24931827 0.31147677 0.38857776 0.7189928 0.029856559 -0.006037265 -0.30275524 -0.389789 0.30432406 0.3537044 0.6709921 -0.0070521086 -0.002171433 0.0071823187 0.26441035 0.62423396 0.27721643 0.59212685 0.5634032 0.5132282 0.32387334 0.27305263 0.20013759 0.19286594 0.15717614 0.12721679 0.08830625 0.08272536 0.08742118 0.045694903 -0.005988173 0.024339627 -0.005697876 0.103320315 -0.13604653 0.038603544 0.113649175 0.15516286 0.08988123 0.14234851 0.4222539 0.09032685 0.51329154 0.54056734 -0.09262118 0.3703471 0.6341246 0.6274602 0.06850388 -0.37887278 -0.12076775 -0.05268019 0.52162445 0.6809664 0.65627396 0.27318525 0.102050185 0.64408815 0.6941895 0.6982827 0.5044659 0.16466191 0.64863276 0.6504025 0.578303 0.6000484 0.562598 -0.0012973323 0.0731987 0.58816135 0.52613026 0.483832 0.40576005 0.51996493 -0.06872458 0.5512316 0.52352273 0.45977348 0.40753904 0.41643187 0.51160026 0.45453194 -0.013461895 0.062465116 0.43895236 0.55708724 0.32389182 0.4340348 0.37064302 0.2976176 0.26834637 0.49262518 0.5368445 0.5006298 0.44247302 0.30690092 0.35557124 0.36512384 0.43477875 0.47434106 0.51903164 0.49920848 0.4043454 0.39787906 0.38541254 0.40782535 0.4708289 0.48403713 0.50270486 0.5295094 0.55799675 0.4897497 0.46218956 0.45937294 0.4094365 0.4609956 0.505585 0.56268215 0.51935023 0.4257658 0.39222682 0.44966316 0.4866356 0.5666308 0.645674 0.48814288 0.41253024 0.28472382 0.5958488 0.5109666 0.47034964 0.5166067 0.44963342 0.44359243 0.42058796 0.25646093 0.10175768 0.20567796 0.42369032 0.1893696 0.40593663 0.17545691 0.52750564 0.53663576 0.47852585 0.5082841 0.5071672 0.33147866 0.26502278 0.24500056 0.20411487 0.17401588 0.44392598 0.47340515 0.48249888 0.45284075 0.47297552 0.33569053 0.15295775 0.69692427 0.69245994 0.67705667 0.61117285 0.38824874 0.38318723 0.37685335 0.120505586 0.71223605 0.70887494 0.17436424 0.18439129 0.18361863 0.07065091 0.05331437 0.7033156 0.07523232 -0.11627372 -0.037979826 -0.018117525 0.68497145 0.09673857 0.0604059 -0.07075402 -0.14281625 -0.07258258 0.09151793 0.18640585 0.2552638 0.5593465 0.09116271 -0.08047211 -0.14416577 0.059941612 0.1384146 0.12373042 0.08205718 0.3519584 0.71345663 0.67375934 0.18101834 0.11005417 0.20874259 -0.06042524 -0.12755601 -0.28153735 -0.16941673 0.36621726 0.43227312 0.47731698 0.6735302 0.58721244 -0.0920683 -0.21924049 0.471004 0.48460865 0.6007743 -0.1215753 0.4469456 0.5871347 -0.36976072 -0.5250752 -0.07941682 0.5756819 0.54817045 0.24388021 0.5356 0.49608922 0.13939899 0.44113946 0.36676374 0.23981541 0.2609298 0.18349119 0.080559835 0.240378 0.38544744 0.43749213 0.09794805 0.02966994 0.15010585 0.31346905 0.38379437 0.07382788 -0.06947327 0.18127951 0.3411209 0.029597536 -0.32656235 0.06481086 -0.24209563 0.051862344 0.1482688 0.12848178 0.5018867 0.02304878 -0.17167673 0.58350146 -0.0061005875 -0.04329772 0.3711725 0.68442804 0.6573032 0.29831654 0.049528763 -0.04552155 0.008975886 0.66347814 0.6994237 0.70403624 0.7627402 0.76820797 0.7256713 0.49398577 0.10758275 0.69683176 0.71541715 0.6040602 0.34995663 0.62171054 0.06874909 0.61620665 0.63044345 0.27604917 0.2357282 0.56735957 -0.12367032 -0.13455299 -0.03823023 0.5491235 0.49760228 0.4776018 0.081441686 -0.07541948 -0.1442821 0.3419435 0.07984721 0.2968705 0.32886583 0.49196738 0.525075 0.25710025 0.2198597 0.06766546 0.3624038 0.28478202 0.13993694 -0.058426023 0.3264445 0.5236776 0.4673104 0.36918348 0.30073887 0.38623244 0.413399