# vtk DataFile Version 2.0
Really cool data
ASCII
DATASET POLYDATA
POINTS 4043 float
53.260986 15.68094 9.757905
53.11942 15.983032 10.596028
53.32569 16.723425 8.8182745
53.014206 16.61644 9.821794
52.970287 16.554174 10.397905
53.154003 16.576162 11.00943
53.271614 17.501022 9.075064
53.199505 17.351532 9.571444
53.071255 17.1239 10.39404
53.272106 17.079206 11.051444
54.441757 2.8405886 -3.4980617
54.42876 3.5232117 -4.2089357
54.42877 3.4468753 -3.3335478
54.404423 3.6715808 -3.0236318
54.412033 8.602908 -9.573547
54.4559 8.734504 -8.781637
54.399345 9.054589 -9.712247
54.16337 12.1210985 8.874748
54.087322 11.933564 9.647994
54.154972 11.989436 10.355538
54.244644 11.931469 13.487051
54.07355 12.958962 7.974892
54.007397 12.801596 8.529229
53.84137 12.463193 9.644987
53.962368 12.670394 10.375464
54.06543 12.616307 12.73179
54.041843 12.526808 13.328147
54.24998 12.646802 14.322991
54.362804 12.9191065 14.78925
54.03066 13.626314 7.7493973
53.71994 13.618315 8.463817
53.78944 13.21124 9.2948065
54.040714 13.047443 10.578206
54.017136 13.249372 13.556428
54.234364 13.343499 14.262986
54.340736 14.337092 7.1594987
53.957264 14.404857 7.701976
53.568417 14.495359 8.744965
53.813904 14.321481 9.602302
54.134556 14.776272 10.893834
54.29179 14.166095 13.768514
54.04839 15.1803 7.937884
53.637985 16.035769 8.677103
53.649677 15.293321 9.294657
53.58176 15.713884 11.214079
53.906612 16.696693 8.096295
53.740208 16.655066 8.350161
53.48213 16.630646 11.426525
53.91142 17.582092 7.876378
53.5393 17.38045 8.411505
53.621964 17.249315 11.252924
54.191692 16.986433 12.054643
53.702114 18.24561 8.675724
53.71366 18.29983 9.440773
53.5811 18.048948 9.92667
54.285038 18.880434 8.073698
54.204456 18.824926 9.022436
54.249588 20.905588 6.836266
54.12358 20.86606 7.8719854
54.312714 20.733353 9.27611
54.3668 21.878891 5.9892607
54.07167 21.473347 6.781856
54.01986 21.542025 7.2068534
53.99665 21.823006 8.490422
54.08991 21.40109 9.200931
54.374443 21.219156 9.773971
54.442226 22.709047 6.1309457
54.325314 22.681559 6.3155026
54.07574 22.40399 7.3986034
54.10065 22.391151 8.491807
54.1948 22.565674 9.004424
54.355156 22.131952 9.960858
54.32668 23.183945 6.8965845
54.190235 22.892628 7.6902237
54.256214 23.186216 8.321739
54.426506 23.092947 9.219145
55.110573 -0.018856183 3.0745082
54.937767 0.016018182 3.555465
54.947987 -0.04956171 4.1908245
55.230278 0.019612864 4.7103963
54.944633 0.554747 2.9524908
54.676144 0.5474079 3.608411
54.692024 0.6550705 4.248546
54.91902 0.72210735 4.769555
54.933983 2.1619155 -4.16792
54.906914 2.126631 -3.612653
54.976116 2.2989616 -3.058853
55.077263 1.3712927 2.8197527
54.68844 1.3212497 3.581909
54.72364 1.2599072 4.263799
55.35309 1.9925544 11.817104
54.97175 2.5788405 -4.818286
54.651016 2.8097856 -4.2660284
54.610317 2.6579342 -3.573961
54.866585 2.7164214 -2.7362692
55.123463 1.9756091 3.0543532
54.969723 1.9275638 3.6296012
55.155537 1.9587748 4.365063
55.491425 2.4943564 7.8301888
55.062103 2.7835464 11.802114
55.09216 2.6102512 12.46442
55.30423 2.6079023 12.953135
54.5873 3.3943791 -4.314252
54.617134 3.4603055 -2.626371
55.044273 3.5202446 -2.080601
55.290955 3.7287614 10.966335
55.065903 3.3624003 11.558015
54.971283 3.4269729 12.543348
55.258453 3.5190287 13.200043
55.274178 4.347927 -6.1963573
55.241764 4.1761074 -5.7460966
54.575775 4.410236 -4.454526
54.514404 3.9986544 -3.0971494
54.824368 4.304994 -2.6174576
55.26411 4.5075755 10.899147
54.8427 4.6679935 11.805618
54.880474 4.542295 12.45295
55.120834 4.533121 13.11576
55.074425 5.062643 -5.4254203
55.074776 5.2487187 -4.7756596
54.978237 4.995345 -3.6608715
55.19932 5.459962 10.925851
54.84111 5.2790523 11.743896
54.94822 5.5931406 12.495073
55.190235 5.5378675 13.167257
55.035946 7.2417345 -9.91216
54.98878 7.3000755 -9.50147
55.19824 6.297009 11.014532
55.09732 6.4396234 11.530744
54.93749 6.043305 12.15571
55.279305 6.406957 13.224061
54.906662 7.889885 -10.298801
54.70961 7.682975 -9.492304
54.7304 7.4785914 -9.014361
55.153236 7.464015 -8.081447
55.36937 7.5923724 10.585937
55.261932 7.7174463 11.875861
55.189735 7.8268366 12.849558
55.24386 7.554817 13.366672
55.41582 7.1297626 13.937133
55.003754 8.439706 -10.725223
54.70751 8.486788 -10.362597
54.491344 8.21984 -9.531757
54.606945 8.536861 -8.396757
54.672077 8.930263 -7.8343625
55.466084 8.305324 10.804442
55.328526 8.471831 12.621529
55.30747 8.339775 13.609205
55.41472 8.7099905 14.813354
54.983185 9.118061 -10.754223
54.638226 9.302381 -10.201933
54.574894 9.4903145 -9.56374
54.670933 9.682548 -8.353042
54.839092 9.63548 -7.553033
55.054707 9.566496 -6.9901915
55.375015 8.983465 13.150262
55.27959 9.123395 14.438379
55.413284 9.854579 15.297808
54.920788 9.802253 -10.071649
54.850346 9.954232 -9.3598995
54.96306 10.213767 -8.520428
54.964943 10.069601 -7.6283793
55.241158 10.215705 -7.1810217
55.0288 11.10255 9.948886
55.15041 11.080199 10.099806
55.05772 11.275003 12.605852
55.130096 10.869267 14.792989
55.40481 10.330827 15.756873
55.448055 10.373367 15.925472
54.820522 11.681306 8.524958
54.417202 11.478176 9.417623
54.966286 11.358718 10.577174
54.63146 11.91724 11.634211
54.47996 11.7836075 12.429803
54.46231 11.727738 13.791557
54.590496 11.764509 14.39115
55.372578 11.283701 15.701997
55.467125 12.725531 1.6062094
55.36506 12.9532 2.5149236
54.65929 13.090839 7.3006244
54.427578 12.4669075 8.096589
54.503155 12.255371 14.703679
54.75379 12.599086 15.231417
55.37738 13.279605 1.5718386
55.411934 13.157176 2.5777547
54.920845 13.502968 6.764126
54.498756 13.598819 14.676953
54.778572 13.39792 15.1608925
55.474777 14.42046 1.0509582
55.429207 14.40918 1.5613086
55.45252 14.448734 2.4714816
55.144432 14.535736 6.5344257
54.647285 14.553022 14.107185
55.47948 15.435538 2.3384526
55.46354 15.350943 3.194914
54.675243 15.515108 7.4707503
54.536697 15.256651 13.138586
55.19047 15.282529 14.4315
55.23767 16.635166 6.802484
54.480698 16.094166 12.635176
54.939476 16.111002 13.265266
54.83471 17.249361 7.079973
54.347202 17.866526 7.5371113
54.399677 17.485443 11.625186
54.43767 17.727055 11.9318495
55.21525 17.74692 14.106336
55.406418 19.064512 1.1148275
55.12136 18.614609 7.020809
54.901833 18.797552 11.789667
54.976097 18.200207 12.895139
54.84941 18.618595 13.577242
55.09454 18.630636 14.343363
55.297794 19.84269 0.5997655
55.048786 20.019001 1.2655524
55.39622 19.639357 2.0833228
55.200245 19.468716 7.2012362
54.823025 19.623188 13.6288
55.047016 19.4366 14.2704735
55.32645 19.699549 14.71123
55.36725 20.31111 0.16545571
55.173603 20.449797 0.679312
55.068035 20.521002 1.4301823
55.059772 20.566227 2.2990716
55.182842 20.650612 3.069291
54.435364 20.50926 6.9150085
54.44292 20.807777 9.672052
54.801064 20.604218 13.405658
55.105 20.675001 14.276961
55.318268 21.178076 0.75621384
55.176548 21.31374 1.6754193
55.099113 21.390495 2.3950427
55.19916 21.339306 3.200761
54.5174 21.361311 6.0700727
54.87026 21.198112 12.900767
54.91472 21.285862 13.3936825
55.131058 21.304804 14.103333
55.267178 21.869144 2.0686126
55.26708 21.92886 2.1703658
55.2396 22.475086 4.8781676
54.50436 22.580975 6.013135
54.586605 22.28565 9.991127
55.22566 21.910131 13.468969
55.137356 23.134632 5.1201186
54.654697 23.030293 5.7525244
54.534454 23.523735 6.280826
54.579025 23.628778 8.670908
54.64117 23.395443 9.605201
55.036995 23.412462 10.305398
55.180843 22.892448 10.922041
55.09767 24.32106 5.8224707
54.770138 24.136154 6.6677384
54.77802 24.287773 7.4144006
54.974354 24.483759 8.316276
54.86421 24.074148 9.211213
55.193638 23.970005 10.169012
55.341984 25.088303 6.1239834
55.295986 25.234695 6.529275
55.27146 25.209286 7.212889
55.131756 24.927666 8.019515
55.37254 25.043633 8.899593
56.198456 -1.68848 3.810119
56.176846 -1.6791656 4.3373804
56.297462 -2.010782 13.7842655
56.297844 -2.1025884 14.486154
56.368313 -2.047903 14.840394
56.094215 -0.96661556 2.8249118
55.81349 -1.1974051 3.6699376
55.815884 -1.1580749 4.4599648
56.180717 -1.4547846 13.760986
56.191193 -1.6042855 14.499551
56.3205 -1.5985737 14.865022
55.634583 -0.34706998 2.7545846
55.38225 -0.5367043 3.2413216
55.524338 -0.526702 4.7923045
56.34835 -0.037551656 8.08041
56.332123 -0.18867631 8.830806
56.264683 0.14586964 9.862156
56.185276 -0.4918837 12.561075
56.08363 -0.4954715 13.63242
56.20413 -0.7760115 14.237812
55.786842 0.55518764 2.2607434
55.465977 0.52848136 2.4846802
55.756092 0.44591403 5.2694855
56.17326 0.5621138 8.601052
56.27517 0.2859817 9.598908
56.254898 0.7745986 10.299279
56.12399 0.72914726 11.721484
56.03862 0.33020604 12.117122
56.00436 0.28724822 13.093752
55.506107 2.215925 -4.96925
55.527294 1.8534927 -4.366642
55.510975 1.802422 -3.7141824
55.72818 1.9378316 -3.0723946
55.49286 1.2356616 2.4010715
56.011505 1.306554 5.628338
55.514942 2.0401983 7.7760267
55.692093 1.7984464 8.611337
55.942078 1.5071886 10.693942
55.603294 1.7236242 11.755984
55.532898 1.7724171 12.182498
55.66831 1.8655941 12.989198
56.00949 3.120912 -6.9568
55.863827 2.7698436 -6.211824
55.693195 2.4373937 -5.638672
55.78694 2.9255183 -2.0366104
55.761078 1.8616267 2.337264
55.60269 2.2019312 2.7861695
55.506977 2.4398022 3.5610209
55.50971 2.212425 4.3212557
55.6801 2.5970657 6.982066
55.592346 2.55201 7.7433004
55.630512 2.5205977 8.530096
55.833553 2.6244256 9.672255
55.66438 2.6111734 10.116734
55.517456 2.739726 13.275948
55.915386 3.9065976 -7.0561013
55.612255 4.00456 -6.623361
55.437294 3.1758184 -1.939908
55.84726 2.6101427 3.100595
56.11703 2.8447273 3.164249
56.257538 3.5888941 5.7386584
56.017628 3.354708 6.7899194
55.63159 3.0044866 7.6861205
55.75747 3.3060527 8.170632
55.975243 3.8718233 9.573561
55.609703 3.7378209 10.499555
55.75487 3.6443164 13.511354
55.77973 3.6804526 13.755247
56.02349 4.795941 -7.234933
56.188305 4.1664433 6.8647494
56.10775 4.0266623 7.0611377
56.177208 4.891928 9.544794
55.471878 4.696457 10.71383
55.415234 4.6490397 13.49748
55.718002 4.4735246 13.78548
56.289112 5.517568 -7.4448028
55.685463 5.5710926 -2.5066614
55.965363 5.1049843 -1.8695995
56.411297 5.1914234 7.830357
[...]
POINT_DATA 4043
SCALARS features_00 float 1
LOOKUP_TABLE default
0.42529827 0.46731132 0.40393645 0.48076436 0.48297673 0.42251128 0.4498123 0.48027623 0.47973657 0.3960753 0.67506874 0.60049266 0.6428654 0.63510895 0.81429756 0.72852606 0.837417 0.39048505 0.3534711 0.27641612 0.2805398 0.37055486 0.3872708 0.3668963 0.2988634 0.27773923 0.3309129 0.32967117 0.32092273 0.33897907 0.36719352 0.37362915 0.27063125 0.3724442 0.3539334 0.24899459 0.292875 0.3369804 0.33879307 0.3178038 0.32139164 0.25698003 0.33766764 0.35608265 0.38163948 0.2951905 0.33136725 0.33158463 0.31573492 0.38502598 0.32978234 0.13166171 0.41113576 0.43673122 0.45444205 0.26478094 0.34415025 0.31574324 0.34317416 0.30195296 0.2727089 0.35393715 0.3791058 0.3795539 0.3545351 0.32234812 0.30141532 0.32112354 0.38598913 0.3734451 0.35488382 0.31687784 0.35180503 0.37768745 0.3593851 0.33898282 0.71292245 0.73855853 0.7166158 0.6442839 0.76222193 0.79276645 0.7745868 0.69769996 0.6989572 0.72358894 0.7471324 0.7474514 0.79465663 0.78198403 0.25519425 0.6343696 0.65380573 0.6897797 0.7331886 0.68436456 0.7043481 0.6586369 0.12065449 0.36625862 0.4022243 0.4015993 0.6058822 0.67547214 0.6872841 0.24213889 0.3609516 0.45112887 0.42368603 0.4150539 0.46567205 0.52869296 0.5938174 0.55631906 0.22243398 0.37849152 0.43612933 0.4120173 0.42605692 0.41811588 0.44996846 0.2208954 0.33427817 0.35201493 0.3283734 0.7999091 0.75131756 0.21576263 0.24813145 0.30821705 0.25340956 0.8671448 0.7748618 0.71049726 0.619962 0.15861769 0.16865902 0.17613484 0.18593308 0.18566868 0.9381433 0.8997417 0.80115783 0.678285 0.5849815 0.12702669 0.1322064 0.15889393 0.18182166 0.9566499 0.9050019 0.8245059 0.6538265 0.51563954 0.42086893 0.1145872 0.15420225 0.16344833 0.88308066 0.79239 0.67022836 0.51495665 0.42340785 0.25944284 0.22068137 0.0490285 0.11824559 0.19878235 0.2232082 0.36864525 0.35744035 0.18154532 0.12475701 0.14146514 0.26284227 0.2543592 0.20550182 0.3159426 0.27800518 0.32459953 0.3720603 0.2864203 0.27858976 0.3038358 0.2681082 0.26680145 0.3231632 0.29324326 0.3066186 0.28159043 0.23915663 0.15153769 0.27029276 0.2166507 0.17539191 0.18065652 0.14937624 0.13113445 0.046602715 0.07923893 0.034778133 0.15747763 0.2482678 0.17566985 0.11611058 0.2143409 0.45098796 0.104136944 0.10744002 0.08550343 0.233819 0.33583945 0.53425866 0.51681226 0.4089902 0.06645439 0.34512815 0.39268348 0.4350586 0.5698254 0.572438 0.5347123 0.4449431 0.33698934 0.2546 0.29698202 0.42549378 0.4851575 0.61395276 0.53963804 0.45186293 0.33289024 0.25077996 0.4030956 0.46289888 0.5096414 0.4943993 0.47917527 0.12803322 0.28614393 0.30962166 0.4691664 0.1967592 0.26572508 0.316296 0.33959615 0.32206646 0.28851283 0.21893299 0.3204518 0.334934 0.3361389 0.3271423 0.32344288 0.29796797 0.34804457 0.34489083 0.32941583 0.3222058 0.31011814 0.5806964 0.58119583 0.46042845 0.48975608 0.49495417 0.5746809 0.6141021 0.6130587 0.46102375 0.49204555 0.49050874 0.63619316 0.6587695 0.6109077 0.19577694 0.1705435 0.13611783 0.25910297 0.4134134 0.46613163 0.6749209 0.703125 0.5102662 0.19456017 0.15217735 0.10491094 0.026649024 0.06485237 0.23324312 0.6326424 0.6929225 0.7414185 0.7739795 0.7105684 0.40261284 0.14625806 0.15124473 0.13197784 0.18755242 0.23023023 0.28635955 0.39565265 0.4637548 0.5379298 0.76330346 0.6530359 0.62614065 0.5680316 0.5518876 0.1283365 0.12035844 0.107771285 0.08596617 0.12221891 0.39437065 0.36864936 0.40022296 0.74339986 0.5418505 0.47061825 0.09160806 0.11032702 0.10328512 0.081992626 0.02228078 0.15290806 0.37904233 0.36076096 0.29216436 0.12079161 0.11748481 -0.017061692 0.18386473 0.3693503 0.33717677 0.16311532 0.2681317 0.34077507 0.07753866 0.16836105 0.8247248 0.68878806 0.43620327 0.47089466 0.23762634 0.22215548 0.047281887 0.13742425 0.18569118 0.90164864 0.8661003 0.05346937 0.11436232 0.16181828 0.1772688 0.18516119 0.9329002 0.4128469 0.21986242 0.10943926 0.107792705 0.08933213 0.19714008 0.25743082 0.4237525 0.93106234 0.33781153 -0.059059568 0.05548067 0.31168756 0.41857308 0.46457243 0.86421025 0.8725879 0.8002763 0.4519921 0.3801362 0.22181422 0.12122935 0.34724808 0.33974153 0.21439567 -0.020000346 0.1947808 0.33038217 0.43883985 0.49165368 0.7371491 0.67948574 0.48454687 0.34891587 0.3580601 0.34348053 0.31620446 0.2970835 0.27304626 0.15022257 0.2783596 0.27857313 0.42452872 0.47776222 0.36514413 0.3500894 0.32784384 0.2693175 0.26010722 0.17110462 0.21627319 0.29389372 0.3460347 0.36303157 0.35614794 0.32656807 0.2512061 0.108862564 -0.013383925 0.22231361 0.32974434 0.32914805 0.17690766 0.06783034 0.12140999 0.2929238 0.25307173 0.16223311 0.016180366 -0.015601844 0.038853973 0.22881563 0.20788531 0.15182944 0.08481112 0.005201025 -0.111043856 0.0502384 -0.018986415 -0.15420191 0.18861844 0.38738552 0.43707722 0.28064448 0.005150847 -0.0059932545 -0.039787237 0.35571963 0.5192506 0.50520575 0.15899116 0.43962204 0.40212375 0.57253253 0.17344221 0.4861229 0.60678124 0.6315249 0.22687097 0.06372746 0.53407323 0.53335446 0.6229745 0.56789786 0.46473178 0.29564363 0.20420828 0.32941687 0.46875647 0.5096706 0.5750157 0.42085162 0.0733249 0.2077148 0.21802488 0.32919222 0.29718482 0.35105497 0.35493666 0.34438217 0.33001775 0.30345175 0.30433267 0.35251886 0.34964898 0.32424313 0.28784257 0.33401063 0.42642462 0.54776174 0.55704236 0.25731257 0.4502244 0.49122235 0.48688 0.53418875 0.54334676 0.5611316 0.4514047 0.13166606 0.1339988 0.33540604 0.47691607 0.57079935 0.17535952 0.1563718 0.15537892 0.13274488 0.4619103 0.4402973 0.6041633 0.21843882 0.1343703 0.45852172 0.66197693 0.6300038 0.7078836 0.62784755 0.22157736 0.3924257 0.61073506 0.5786642 0.5134909 0.25670636 0.31652683 0.13331984 0.26891884 0.228896 0.29491022 0.03167233 0.11630568 0.13378336 0.18153791 0.17202769 0.23861519 0.13835625 0.024628391 0.8149613 0.22020565 0.14231686 0.14431512 0.14468172 0.13788973 0.05158452 0.13322933 0.84666955 0.8504143 -0.032406066 0.14075583 0.16345948 0.08452403 0.06808965 0.07608949 0.08186185 -0.050422803 0.15793653 0.8328034 -0.029264973 0.042767398 0.059387125 0.119306974 -0.052888364 0.30402285 0.39005667 0.40360206 0.8155078 0.73832375 0.0035564145 0.019578986 0.26580644 0.21774492 -0.17929113 0.47397912 0.47820646 0.78205067 0.7304754 0.20191133 0.096352525 0.06577956 0.24192509 0.29520732 0.2674977 0.06746467 0.4977513 0.48597234 0.71848845 0.67362636 0.24871813 0.21675286 0.17892593 0.14188053 -0.057645876 0.036623873 0.45599198 0.26776052 0.25193596 0.25624353 0.33491695 0.3658312 0.31661785 0.1560608 0.25001 0.27708432 0.21782047 -0.06021689 -0.056841083 0.10531107 -0.009072326 0.16281778 0.108172044 0.26989874 0.444126 0.41726583 0.024153624 0.3643608 0.3042133 0.502466 0.5441429 0.41241306 0.3868008 0.495699 0.5568933 0.49694765 0.5521425 0.5840987 0.49118882 0.51285917 0.57747936 0.5739029 0.1820865 0.411196 0.27637446 0.2534117 0.20772658 0.32461977 0.25754657 0.22745237 0.31603786 0.33139 0.28509885 0.23711497 0.2859869 0.28887334 0.3000112 0.5930722 0.5823163 0.58171284 0.6049473 0.61639714 0.56396496 0.61462617 0.6259873 0.5543085 0.5716547 0.59556293 0.55552864 0.5450827 0.6185154 0.6329384 0.46621034 0.50270426 0.47315478 0.48241395 0.09762809 0.16998053 0.14829725 0.097356066 0.15919425 0.21330759 0.21339154 0.121792905 -0.013642952 0.15672725 0.17485425 0.12549135 0.12839788 0.0466454 0.35241163 0.490888 0.5053513 0.08483236 0.009473857 0.3914804 0.23235069 0.4751679 0.48944932 0.41111374 0.16782895 0.33635277 0.49921393 0.023656115 0.25595108 0.24014784 0.33900374 0.30631545 0.4391689 0.4584993 -0.05536336 0.44880122 0.2933631 0.31158143 0.050718956 0.57913226 0.20377752 -0.03797455 0.08616005 0.08831686 0.20842281 0.121721 0.021693284 0.073188886 0.04858274 0.14444657 0.7887078 0.69982016 0.038536333 0.048461206 -0.02729028 0.09008946 0.18662423 0.17505509 0.21198754 0.745347 0.6544387 -0.0031726714 -0.14621058 -0.044829905 -0.14344214 0.3241176 0.7128973 0.6724916 -0.024523124 -0.19395867 0.43538925 0.38569617 0.623434 0.6348993 0.0032113343 -0.10711646 -0.063586354 0.45686737 0.63079077 0.59366906 0.3494541 0.4074694 0.33696097 0.26571873 0.33223754 0.30727038 0.27935514 0.18865822 0.22987814 0.328282 0.051312815 -0.060108002 0.1448343 -0.07035022 -0.07592525 0.24440463 0.23139188 0.052077465 0.28209448 0.27335364 0.119722985 0.28941077 0.25580707 0.37998843 0.31709135 0.47943702 0.49740264 0.3826733 0.49074906 0.48080367 0.4291322 0.4242804 0.4516446 0.26051602 0.22028197 0.22734658 0.2321797 -0.105819315 0.25045592 -0.028125944 0.116831474 0.18716922 0.15287128 0.15033492 0.15716945 0.20991111 0.21377245 0.2327382 0.2751224 0.23314229 0.1712162 0.39878717 0.48792064 0.1870085 0.18627724 0.2155955 0.34659535 0.33566985 0.29228434 0.19285963 0.17611966 0.42573068 0.51692235 0.15910046 0.23372889 0.30700493 0.32607138 0.2891364 0.23251566 0.5320709 0.511145 0.53908753 0.5452847 0.47641432 0.5019022 0.4235714 0.5986938 0.61981076 0.63992506 0.532874 0.5421232 0.5991106 0.63747394 0.64578366 0.63840216 0.38243765 0.4953583 0.5123997 0.47917598 0.6336523 0.62763083 0.45036447 0.37465656 0.38936502 0.33061814 0.37285602 0.45500103 0.5556509 0.6029842 0.08189585 -0.04513445 0.18775871 0.258855 0.35719553 0.50082344 0.021870125 -0.114500165 0.014162064 0.19126716 0.27916294 0.10882802 0.15023614 -0.08825275 -0.056078885 0.044651795 0.11678589 0.10023429 0.08135244 0.05007282 0.44268632 0.4364133 0.037304282 0.055916212 0.043997094 0.42986655 0.4286343 0.27026907 0.18531351 0.050317023 0.038794313 0.45992714 0.35427225 0.488899 -0.056904055 -0.08961622 0.4365419 0.37373716 0.19914263 0.45189708 -0.14688227 0.6775488 0.22376925 0.1829758 -0.18637308 0.7252759 0.68412924 0.08865422 -0.033648007 -0.18959486 0.0033898111 0.717397 0.6733763 0.15585503 0.1482357 -0.02354138 0.11431965 0.13075837 0.16459486 0.15781213 0.101742305 0.10585205 -0.18464172 0.12462061 0.087126866 0.4609719 -0.28365237 -0.48237103 0.1918116 0.5466254 0.3990502 0.42897987 0.3133194 0.30372924 0.26637638 0.35330603 0.35806477 0.13609454 0.39907622 0.3831131 0.16364443 0.015753224 0.058700874 0.4070282 0.38143295 0.23286435 -0.3227447 -0.11170492 -0.25597265 -0.15200704 -0.08692494 -0.12972994 0.45159093 0.26761642 -0.06616493 0.5269317 0.2929487 0.015492149 0.2740781 0.24361834 0.024809185 0.33729908 0.26993537 0.30068535 0.224066 0.23698911 0.15874386 -0.18970951 -0.20507208 -0.24680622 0.088248305 0.14916883 0.16749048 0.055473663 0.13892984 0.16923943 0.19407284 0.27705663 0.347957 0.16340655 0.13913216 0.2513303 0.36287802 0.42756435 0.16870382 0.16600774 0.28801322 0.3897469 0.49758685 0.52533793 0.29283315 0.26361963 0.20800932 0.37885615 0.54403937 0.61794376 0.27931535 0.24764837 0.1961882 0.14604908 0.15611926 0.19581656 0.2215944 0.18473913 0.1205163 0.24724638 0.41076708 0.5292465 0.6433476 0.21315214 0.1746308 0.17994535 0.20572235 0.2559477 0.25282913 0.12706432 0.16943571 0.40550333 0.54115117 0.6657121 0.2829427 0.17752178 0.25779402 0.32176542 0.46187592 0.5483515 0.3785711 0.19030686 0.25313747 0.20247844 0.4211992 0.51726246 0.59301883 0.6351684 0.2674483 0.64163756 0.16461511 0.58600044 0.63915014 0.5998262 0.33403498 0.19702989 0.563243 0.5702966 0.63054204 0.41264814 0.15358804 0.04900004 0.4807607 0.53138846 0.37275198 0.049136806 0.1490658 0.051241394 0.016630892 0.19228196 0.0724144 0.052019987 0.056400526 0.40141627 0.36773312 0.14157437 0.1578993 0.080499105 0.13918588 0.511801 0.51125646 0.40184283 0.016891707 0.03756421 0.46383077 0.49031794 0.46534553 0.42752886 0.39458197 -0.102088824 0.07885625 0.34389657 0.43574992 0.44042084 0.43276227 0.3458572 0.50944996 0.6037522 0.6866851 -0.16415949 -0.22298343 -0.22290073 0.11433826 0.3376969 0.4800712 0.5645772 0.72949994 -0.1450384 -0.06531686 0.72171843 0.6290738 0.15351866 0.41896316 -0.059436154 0.119252235 0.040692665 0.24718453 0.18122695 0.1353322 0.26499975 0.20776238 0.13126557 0.08659191 0.14384623 0.2865873 0.21963397 0.23959616 0.31320912 0.21769474 0.27839622 0.38540947 0.15584719 0.4365845 0.43920666 -0.007523118 0.4030363 -0.15065181 0.1511948 0.51478255 0.54117596 0.57732016 -0.0026866347 0.5995436 0.6040901 0.30157357 0.281164 -0.18319416 0.26467472 0.4817147 0.56701857 0.59959984 0.31007788 0.29860562 0.55951667 0.59057546 0.2845989 0.27325007 -0.16145423 0.253308 -0.08580881 0.07352349 -0.2106365 0.10224253 -0.06406149 0.13055362 0.10185028 0.2200482 0.27003086 0.1924465 0.33774334 0.3676541 0.23018017 0.44625175 0.37731704 0.48338845 0.49494594 0.39698613 0.31668985 0.55651665 0.5483769 0.34281707 0.33297533 0.65396714 0.3417659 0.29018304 0.22660567 0.17432421 0.7041532 0.6494554 0.2446501 0.29042605 0.309348 0.284006 0.43416208 0.61896396 0.3477144 0.38185585 0.37462518 0.062149152 0.18598706 0.15880086 0.15872642 0.026082924 -0.017364493 0.32679713 0.38200998 0.45755166 0.45510328 0.058662187 -0.1338197 0.58101106 0.5796977 0.6628452 0.62644243 0.4854081 0.15903194 0.44836384 0.7011384 0.6888311 0.6328298 0.47832847 0.4665199 0.6791122 0.65631545 0.6104754 0.3083616 0.014661491 0.22356147 0.026623683 -0.04083027 0.22080493 0.3023041 0.24004656 0.24352086 0.5333388 0.5386627 0.53555673 0.34446448 0.3717034 0.5021608 0.5097846 0.46910527 0.3150306 0.57322574 0.64888966 0.47172207 0.2759004 0.06299573 0.65946233 0.6997356 0.6791106 -0.07793525 -0.23104855 -0.3665747 0.054715067 0.620762 0.6798941 0.7121271 0.717062 0.68542445 -0.11827541 -0.06419407 0.30800614 0.49082756 0.6441612 0.70074266 0.6416794 -0.13529418 0.048689984 0.17342708 0.601649 0.0579111 0.051918045 -0.08379314 -0.17813522 -0.06315959 0.10010669 -0.044358112 -0.029818274 0.0024414025 0.075895295 0.23164812 0.3042236 0.3519683 0.34394968 0.35355145 0.2609762 0.32105744 0.33046144 0.30905402 0.31929985 0.28136766 0.3594489 0.36663398 0.38802516 0.5250767 0.58652335 0.30297995 0.6031156 0.6018453 0.30878028 0.2989462 -0.18031402 0.52484477 0.59229374 0.56585383 0.28613755 -0.41189063 0.2801099 0.27645487 0.23791039 0.010853549 0.11992154 0.2280771 -0.22526565 0.16831593 0.18523091 -0.06832223 -0.1554876 -0.10250212 0.099000946 -0.027675724 0.003719505 0.009042314 0.21798025 0.3233617 0.28090414 0.36430484 0.4044518 0.4322346 0.49262983 0.49834234 0.48860946 0.4524592 0.37308723 0.5877491 0.38269684 0.35620445 0.29649925 0.11479667 0.14829215 0.1652165 0.61220586 0.25815377 0.36369255 0.57609195 0.59277016 0.31537777 0.3669597 0.38497722 0.27268845 0.48864 0.54208684 0.4286638 0.46202186 0.4268272 0.5455605 0.5401538 0.56110936 0.423348 0.32557234 0.43520564 0.38856804 0.35684443 0.07668638 0.04860242 0.039597757 0.16658406 0.012897104 0.30556515 0.2595054 0.053444684 0.50982326 0.5183077 0.38516682 0.48123556 0.3821819 0.6771389 0.6064226 0.3223812 0.7031953 0.6921233 0.30840716 0.69887316 0.6906144 0.6387456 0.4430826 0.48336262 0.4849388 0.28522018 0.12879749 0.55705714 0.5814996 0.5928457 0.53919125 0.31063017 0.4751022 0.53523606 0.48331964 0.29498416 0.6231491 0.6770319 0.7167007 0.03660708 0.08184171 0.25934482 0.6907809 0.73276603 0.4196054 -0.13891329 -0.42509833 0.7685313 0.53867006 0.4586041 -0.2792958 0.6473702 0.76253915 0.39019588 -0.1676428 0.13019781 0.3759184 0.58486533 0.42919108 0.26220617 0.009651072 -0.115384534 0.0758821 0.2336956 -0.35718963 -0.15856892 -0.3003057 -0.18784074 -0.11603885 0.06250258 0.23658302 0.06983951 0.30386052 0.34640872 0.24829023 0.35091385 0.25145778 0.30722547 0.27867252 0.23881295 0.22180071 0.087519884 0.024157114 0.32738033 0.21507697 0.45630187 0.27626303 0.28782213 0.3744836 0.50168455 0.27204156 -0.38452876 -0.0457941 0.024408251 0.27317122 0.25927484 0.10167718 0.17736167 0.72982776 0.80775 0.19655931 0.19768336 0.21146694 0.7398418 0.8506594 0.08511885 0.12420342 0.16885485 0.21060969 0.7204391 0.81436574 -0.048997566 0.15404104 0.20431039 0.24598745 0.2660384 0.2456211 0.37285835 0.5134317 0.46839607 0.30059427 0.52490616 0.43788758 0.5010986 0.4845257 0.47492397 0.44566673 0.38259184 0.10119269 0.136931 0.57019717 0.38829905 0.3848963 0.37312824 0.32734567 0.20569295 0.26108828 0.5617974 0.57309073 0.4182645 0.32029396 0.51208276 0.53501064 0.48130864 0.49295336 0.45353776 0.42634106 0.6453488 0.63856536 0.64395833 0.55926347 0.4964909 0.46952838 0.6085063 0.60922563 0.38556767 0.2802361 0.28973806 0.41139558 0.4061867 0.36935395 0.53727496 0.2500697 0.18563922 0.04944145 0.467013 0.13895267 0.56734025 0.63023096 0.32420176 0.6851723 0.25270048 0.6454289 0.096361205 0.56529146 0.33378592 0.49113166 -0.15204456 0.5294273 -0.087217145 -0.14415188 0.52403164 0.52263874 0.28008872 0.46519008 0.624303 0.6381235 0.613824 0.25389722 0.41681558 0.59956 0.6279774 0.482035 0.23233834 0.67674714 0.73135245 0.5996342 0.22770025 0.16367027 0.7876457 -0.12151447 0.8366208 0.33255714 0.33489877 0.80956495 0.17619883 0.29961836 0.6284366 -0.060729124 0.11086521 0.20150301 -0.18477856 -0.2995453 -0.17068046 -0.1931302 -0.0712605 -0.37662587 0.052284583 0.19877668 0.1554347 0.28062832 0.259771 0.2675142 0.20336352 0.25160104 0.22446412 0.1475778 0.18833557 0.12936778 0.1706873 0.23821019 0.22299086 0.20081855 -0.06813742 0.32552445 0.24753648 0.20685868 0.7690675 0.85850394 0.21608907 0.15082714 0.19154567 0.6540226 0.78636634 0.8838092 0.9629972 0.15854554 0.078710824 0.6233368 0.6961391 0.8975492 0.96913475 0.962687 -0.027795434 0.21045867 0.33169466 0.56942225 0.68932325 0.8643748 0.9413265 -0.015274346 0.12089489 0.22121939 0.3192724 0.46548015 0.7252462 0.84130716 -0.019305594 0.4021225 0.06853055 0.4823073 0.11594775 0.5722817 0.2676347 0.5907434 0.5762011 0.31493 0.5941657 0.5193083 -0.061750144 0.43888545 0.47835082 0.449651 0.40352905 -0.051691614 0.5138271 0.4000996 0.41031826 0.36930162 0.3540224 0.37043023 -0.019113904 0.42304373 0.5137537 0.55234677 0.44524717 0.44310284 0.45484263 0.424714 0.3629532 0.40655044 0.46400264 0.45453867 0.40279853 0.5426147 0.55136037 0.51271844 0.6793901 0.68997175 0.65988284 0.59089386 0.4686144 0.4288823 0.52998996 0.5452137 0.527809 0.4501654 0.6407932 0.64658296 0.3641342 0.5741584 0.090122476 0.44605818 0.36211652 0.5189342 0.22750461 0.48467863 0.4410274 0.40710443 0.4503327 0.5620686 0.4027641 0.443705 0.5331509 0.39329574 0.48763713 0.37613827 -0.20737407 0.54468346 -0.051606715 0.5370475 0.52951473 0.050807223 0.5050201 0.6458818 0.6592885 0.62252617 0.16509832 0.40270853 0.6459857 0.65579367 0.576673 0.4856211 0.38355815 0.02989287 0.32590196 0.62135816 0.617328 0.32138288 -0.113544315 -0.12437242 0.6079066 0.75364995 0.5219414 0.73821867 0.48068812 0.6769932 0.32064065 0.61095107 0.5727075 0.11130845 0.35295725 -0.12436745 0.021198258 0.20263903 -0.0009866804 -0.45875025 -0.39505816 -0.46503437 -0.17650613 0.072351895 -0.036797553 0.11506364 0.07772349 0.24481778 0.07938138 0.27292675 0.2618903 0.021236263 0.2436999 0.045605075 0.28537983 1.5676022e-05 0.071070425 0.1313571 0.016357765 0.24640878 0.04615833 0.23714279 0.5962591 0.63395536 0.72244895 0.13674869 0.14715381 0.3885301 0.8307585 0.9133961 0.14363316 0.12012604 0.93349063 0.9352225 0.062322892 0.9548842 0.93581367 0.93267304 -0.034902416 -0.042389706 0.27580807 0.69145095 0.8630253 0.88877714 0.118085004 -0.010334164 0.17738679 0.26573572 0.3461542 0.34961325 -0.054251343 0.57420695 0.65747607 0.64926416 0.27066755 0.61813796 0.5649915 0.43248248 0.39963505 0.43322295 0.34625024 0.31209219 0.41201827 0.36301917 0.3932319 0.46342778 0.5897131 0.09260262 0.49516523 0.5231778 0.62652624 0.6176801 0.6247442 0.4586307 0.42396915 0.35340303 0.45278427 0.5400131 0.49894804 0.6684073 0.69920963 0.69510335 0.6574998 0.5511857 0.36450788 0.4900766 0.59568983 0.63602614 0.6224871 0.523653 0.660581 0.46676672 0.3222319 0.60681254 0.27224422 0.53763205 0.46669263 0.33391976 0.5438591 0.5920634 0.33318004 0.50686014 0.41397923 0.47526133 0.52454126 0.26853487 0.18390009 0.36281878 0.13456073 -0.27746648 -0.2931931 0.34083134 0.03323534 0.3676709 0.48832715 0.3017944 0.46509016 0.65416175 0.6561744 0.6433433 0.5490286 0.48699027 -0.0059255064 0.07475002 0.62436634 0.6174583 0.6013719 0.5877387 0.3641629 0.16909954 -0.14154029 0.34383196 0.49550456 0.55548435