# vtk DataFile Version 2.0
Really cool data
ASCII
DATASET POLYDATA
POINTS 4158 float
30.192764 7.996115 13.001337
30.111599 7.99358 13.600431
30.14644 8.17674 14.313651
29.984266 8.650044 12.81235
29.771038 8.644064 13.611077
29.928387 8.636841 14.414808
30.152916 8.830228 14.937568
30.222538 9.106048 12.309783
29.832556 9.519984 12.822782
29.694035 9.491343 13.516041
29.815163 9.406641 14.363014
30.115595 9.346497 14.911042
30.070255 10.1823635 12.8028345
29.95985 10.275757 13.559695
30.017773 10.135097 14.150324
30.161179 9.831549 14.76334
30.23906 10.635762 13.451571
30.273294 10.62446 13.919034
31.360016 5.203105 7.1787844
31.25131 5.1069117 7.5963507
31.199266 5.0112367 8.23577
31.228374 4.9800367 9.486634
31.319498 5.0281844 10.187489
31.138336 5.842714 6.951335
30.984194 5.6105237 7.5560217
30.965239 5.505364 8.368728
31.046719 5.5374217 9.432713
31.202175 5.5780683 10.277616
31.38979 5.7847624 10.903128
31.09293 6.4612517 6.7431793
30.783182 6.514794 7.6049194
30.687363 6.470915 8.425735
30.635185 6.642403 9.317723
31.105799 6.45329 10.501077
31.148268 7.3851414 12.714633
30.94677 7.4153643 13.092844
31.374504 7.077599 6.246661
31.191332 7.2373266 6.7504845
30.835495 7.1756563 7.6047544
30.715528 7.6199226 8.423714
30.667063 7.623858 9.318028
30.552221 8.190796 12.242083
30.515377 7.675015 13.4994135
30.599411 7.895616 14.35093
30.743536 8.1257105 14.835867
31.331926 7.806829 6.9910793
31.005465 8.039733 8.009898
30.959112 8.16393 8.350472
30.941935 8.163613 9.151115
30.63642 8.696747 15.164606
30.339798 9.668648 12.193167
30.623407 9.325634 15.2126255
30.545105 10.574669 12.660776
30.42943 10.527401 14.159735
30.631445 10.048417 14.9090605
30.732967 10.780544 12.748164
30.652563 10.843356 13.585764
30.725616 10.77911 14.079112
31.38782 14.8427515 4.800918
31.234165 14.922651 5.320009
31.344505 15.188564 4.1583314
31.14744 15.751778 4.616662
31.099634 15.587068 5.4041905
31.257387 15.587301 6.3077793
31.238653 16.692652 3.9766564
31.07236 16.659445 4.551798
30.961597 16.590744 5.4721165
31.164305 16.59717 6.3521004
31.298412 16.510345 6.750392
31.339325 17.202528 4.1142397
31.13335 17.253408 4.6336036
31.04047 17.207628 5.351653
31.108612 17.046116 6.148417
32.02767 4.420182 7.736829
32.011204 4.206205 9.699536
31.970825 4.305843 10.353752
31.8187 4.9009695 6.9424915
31.694683 4.7172127 7.5716233
31.481087 4.770535 8.502983
31.543879 4.571043 9.745723
31.66003 4.6996145 10.593862
31.845013 4.8800583 11.011852
31.799713 5.7938232 6.166967
31.409399 5.641446 6.6699734
31.613441 5.473622 11.082827
31.774643 6.511944 5.9112554
31.393297 6.320044 6.367021
31.490152 6.608511 11.114216
31.407852 7.3291407 12.771894
31.810938 7.3647656 13.41675
31.843225 7.468574 6.0089483
31.397526 7.618443 6.757141
31.500029 7.647273 14.363719
31.501894 8.052738 14.924182
32.16634 7.9722815 6.072407
31.760714 8.304075 7.3181643
31.432703 8.674679 15.293371
31.893036 8.810783 8.10559
31.725918 8.656456 8.51528
31.516594 8.798937 9.915189
32.00968 9.647006 10.664118
31.334148 9.51604 15.387815
31.8598 9.156345 15.514094
31.712307 9.953072 11.13303
31.337017 9.902958 11.462969
31.65863 10.223876 15.171732
31.835163 11.053575 11.980527
31.358412 11.132293 12.79243
31.889448 11.30074 13.262075
31.644009 10.961888 14.293071
32.41857 13.113325 -4.893473
32.300007 13.187694 -4.3922534
32.376213 12.980407 3.8909686
32.019924 13.098464 4.653768
32.033627 12.764572 5.349947
32.11405 12.825723 6.5078807
32.283417 12.804143 6.931138
32.308746 13.859538 -5.00475
32.280663 13.4799 -4.5376134
32.13244 13.77426 -3.7402923
32.420868 13.590771 1.2507159
32.36666 13.361502 3.1823165
31.878044 13.5667095 4.5798645
31.685999 13.593993 5.533062
31.920311 13.320922 6.379089
32.163784 13.619036 7.378931
32.186825 14.579998 -5.085434
31.94818 14.6248455 -4.3067665
31.860313 14.651808 -3.5144289
32.06512 14.6409025 -2.8884304
32.20911 14.289763 2.97294
31.77426 14.74585 3.7048116
31.518967 14.51869 4.736187
31.562181 14.274723 5.6140947
31.664814 14.335178 6.7646604
31.74772 14.645192 7.1866326
32.160564 14.5153265 7.8989086
32.23156 15.505003 -4.9190483
31.982672 15.49402 -4.373832
31.932474 15.442896 -3.5539386
32.190075 15.398202 -2.8991928
32.199474 15.3577795 3.1248999
31.759186 15.420121 3.644775
31.752283 15.404828 7.3168674
32.237583 15.443337 7.979567
32.311893 15.96937 -4.776864
32.176216 15.986381 -4.3717523
32.16913 15.978008 -3.702299
32.30722 15.871931 -2.961326
31.60172 16.589758 3.7450426
31.772104 16.408012 7.157115
32.283558 16.09538 7.891813
31.720768 17.432394 3.7890654
31.40558 17.258846 6.6302357
31.898106 17.005907 7.205188
31.88313 18.083555 3.9781022
31.647078 18.17156 4.448531
31.693882 18.713072 5.2447734
31.67212 18.397278 6.12936
32.130646 18.962883 4.198535
32.222794 19.46348 4.6850796
31.9979 19.224522 5.469238
32.162563 19.383104 6.240443
32.363 19.845945 4.755709
32.913296 4.3378396 7.0975547
32.502594 4.33427 7.563012
32.617817 4.2355947 8.545626
32.55444 4.040352 9.722245
32.480556 4.096134 10.397099
32.4895 4.222944 10.808714
32.787872 4.972614 6.1455555
32.575706 4.68004 6.786023
32.529747 4.745921 11.334524
32.613308 5.68271 5.767883
32.584915 5.646485 11.847298
32.832455 6.9340906 4.863838
33.06072 7.504624 4.4172735
32.590744 7.7206554 14.454381
32.83377 8.412646 5.056168
32.683167 8.240999 5.2161174
32.307285 8.8695 15.39617
32.559555 9.11492 8.701732
32.35822 9.3667345 9.923776
32.444717 9.537878 15.43423
33.330612 10.633727 -0.021449402
33.188 10.791252 0.5845916
33.466835 10.863226 8.2056055
32.663452 9.861868 10.03698
32.671585 10.065509 10.480602
32.45119 10.424636 15.250214
33.340893 12.044245 -0.79198414
33.017666 11.429518 0.515727
32.96126 11.49448 1.5355918
32.982788 11.86972 2.310149
32.790077 11.847937 4.576095
32.56417 11.77885 5.2881193
32.84525 11.524153 6.1800017
32.759907 11.80007 7.2750177
33.16172 11.619089 8.059731
32.35866 11.350169 11.779506
32.936543 11.389755 13.602052
32.31493 11.176074 14.385294
32.456684 10.837625 14.901026
32.776333 12.982222 -5.31481
32.640217 12.758034 -4.500157
32.841797 12.680392 -3.7690005
33.202457 12.280215 -0.47598523
32.80001 12.567999 0.49856007
32.62585 12.5943985 1.354619
32.543816 12.999963 2.118876
32.795986 12.481039 3.205149
33.316456 12.787357 8.324487
33.00356 11.664205 11.612745
32.790485 11.63723 12.518832
32.87238 13.696554 -5.956935
32.666683 13.420965 -5.5532146
32.471687 13.210861 -4.8163686
32.52874 13.457726 -3.5818498
32.597687 13.964234 -2.65408
33.206146 13.842167 -0.88130856
32.80526 13.473976 -0.13410486
32.59433 13.5260315 0.42962426
32.56969 13.49693 2.5976171
32.553207 13.914646 8.130556
32.907402 14.391163 -6.0412416
32.447098 14.78813 -5.4906383
33.15239 14.240827 -1.8278605
33.315327 14.491716 -0.7688199
32.545372 13.997451 0.296199
32.599594 14.242653 1.2194535
32.651535 14.791887 2.6570187
33.14452 14.119481 8.69445
32.87869 15.21763 -5.7806435
32.597713 15.548054 -5.376483
32.389095 15.517955 -2.683639
32.938175 15.037748 -1.8912352
32.873844 15.039057 0.8819651
32.809624 15.31216 2.6029766
32.9799 15.4319935 8.505677
33.02788 15.166023 8.596556
32.736233 16.099474 -5.0777016
32.584072 16.393703 -4.4173536
32.512646 16.300694 -3.5683846
32.708927 16.146252 -3.0531874
32.701878 16.194439 8.077694
32.941364 16.620567 -4.34788
32.923256 16.576904 -3.8027554
32.380486 16.944334 7.5393558
32.920002 17.134502 7.7816267
32.523228 18.021269 3.6315043
32.71248 19.254177 3.7763395
32.47555 19.711897 6.660413
32.727596 19.363394 7.080073
33.089497 19.980392 3.9370317
32.874516 20.150211 4.5278554
32.657494 20.15093 5.5997252
32.849617 20.14272 6.4388375
32.621624 19.762264 6.7718134
33.115555 20.620964 5.6209517
33.24528 20.620632 6.136276
34.295494 4.2039695 -1.0145046
34.27762 3.9483063 -0.48524177
34.275177 3.9673169 0.21286905
33.57033 4.315259 6.6778574
33.89785 4.1791024 7.670257
33.643524 4.163536 8.314846
33.82883 4.124704 9.426687
33.277378 4.001569 10.268093
33.620655 4.289238 10.91914
34.316322 4.932447 -1.7826512
34.153763 4.6837416 -1.2059411
33.93084 4.715788 -0.3937595
34.043797 4.508461 0.5049292
34.138645 4.896009 1.5761694
33.78678 4.6634607 5.949874
33.17892 4.532943 6.6001525
34.25322 5.8344126 -1.9383309
34.021774 5.6272273 -1.4289653
33.76892 5.387981 -0.47875425
33.801018 5.5002246 0.5912319
33.911003 5.4657526 1.4089205
33.359154 5.6050653 5.3041353
34.284733 6.1310444 -1.9685514
34.00214 6.3631935 -1.2857598
33.842506 6.1443305 -0.6445892
33.788322 6.4926434 0.7467169
33.867626 6.4381056 1.4416264
33.98637 6.773263 4.3583407
33.25064 7.2792115 13.122815
33.107067 7.335505 13.815208
34.265625 6.9463735 -1.4018272
34.25611 7.4370613 0.5006331
34.281925 7.144788 2.3694963
33.50733 7.184006 4.195282
33.799877 7.458878 13.633044
33.0524 7.7352624 14.5123205
33.138287 8.248636 15.001779
34.013824 9.053884 0.745655
33.832886 9.088181 1.3177806
33.62492 8.381508 4.292754
33.51825 8.565392 4.4682755
33.448067 8.596174 15.051142
33.980312 9.7050705 -0.53576666
33.482216 10.001673 0.43366638
33.637974 9.790569 1.4785777
33.925774 9.398715 4.2689633
33.526722 9.325187 4.7989206
33.64271 9.313392 15.133902
34.04829 10.536884 -0.71774364
33.666107 10.600767 -0.24959958
33.412983 11.252277 2.800789
34.199306 10.306466 3.0251093
33.7812 10.065223 4.6465335
33.524254 10.813679 8.609407
33.31761 10.434188 15.106772
33.75784 12.314928 -5.1905518
33.830227 11.8684025 -1.3779922
33.49242 11.676842 -0.6540289
33.587494 11.680829 3.726014
33.7894 10.886644 10.044583
34.057995 11.3719 10.843959
33.114304 11.465599 13.552433
33.730507 11.18658 14.007223
33.66669 12.867636 -5.9012365
33.49151 12.697459 -5.637736
33.614216 12.469309 -1.2071893
33.80476 11.655257 11.494804
33.338303 11.597822 12.915879
33.868866 13.798782 -6.5219197
33.47626 13.701849 -6.3368564
33.8312 13.123914 8.515586
33.77651 13.852236 8.85192
33.6934 14.089268 -6.5385094
33.541756 14.412455 -6.376797
33.64361 14.576422 8.930751
33.557808 15.108834 -6.10212
33.674564 15.622554 2.4315524
33.52386 14.939295 8.830499
33.592793 15.806515 -5.698036
[...]
POINT_DATA 4158
SCALARS features_00 float 1
LOOKUP_TABLE default
0.7724955 0.8075864 0.86829776 0.87502515 0.9172543 0.92014575 0.90752566 0.8249653 0.85095537 0.89189625 0.9057877 0.8999999 0.7376207 0.77204317 0.8157724 0.85920775 0.72161293 0.7443054 0.5353266 0.53188396 0.5213717 0.5063773 0.4953531 0.55494416 0.54754645 0.53296274 0.502906 0.4767672 0.4485793 0.54296917 0.55606294 0.5729065 0.5706166 0.43497682 0.56585646 0.6618011 0.48003507 0.4867205 0.5135588 0.46842787 0.47720677 0.71116185 0.7401272 0.80089515 0.8377048 0.4386537 0.41227856 0.37806445 0.32347623 0.87154835 0.70779324 0.86766815 0.65269005 0.7528392 0.8185141 0.6306063 0.6748576 0.6990936 0.3304792 0.37620825 0.31681666 0.4021955 0.44932306 0.45347002 0.40210032 0.4533947 0.51812303 0.4749998 0.42954293 0.42871213 0.46963775 0.5196418 0.5003409 0.45158634 0.4815197 0.4927436 0.5038966 0.4962339 0.5035674 0.50480944 0.49630654 0.48489705 0.5403807 0.55056167 0.4607669 0.50448376 0.54111034 0.31160745 0.523674 0.559802 0.42334104 0.44694242 0.6693306 0.7448921 0.37246323 0.37243703 0.79742324 0.2546324 0.23712589 0.05879013 0.040976316 0.81220806 0.7662106 0.22247086 0.36444342 0.7774744 0.44886136 0.5664474 0.54633737 0.6551463 0.61877567 0.59407544 0.16359524 0.2102614 0.2539383 0.2927667 0.29114118 0.66615605 0.6185167 0.6117297 0.20606373 0.15727535 0.22535634 0.29591978 0.32066524 0.35826546 0.73337483 0.73715866 0.715173 0.6287012 0.18953934 0.25590014 0.29660806 0.3376461 0.39298555 0.40805098 0.382941 0.74924904 0.76076484 0.7389209 0.67537177 0.24600011 0.28588843 0.39151126 0.34082404 0.7362535 0.7423734 0.7353156 0.6935592 0.35654157 0.36825424 0.3041878 0.39416522 0.43860516 0.34383768 0.42503786 0.43911713 0.46967575 0.49881244 0.4144603 0.43301076 0.47104746 0.46813074 0.43460494 0.3529634 0.39436555 0.37452918 0.41873598 0.4526723 0.4547172 0.4151053 0.42063794 0.44029218 0.4710369 0.334571 0.3985052 0.28863233 0.509079 0.22666049 0.26971382 0.7135545 0.020510074 -0.0363436 0.727249 0.17128143 0.19236399 -0.10644191 -0.048278652 0.04474649 0.71947706 0.1804157 0.20285861 0.20626694 0.14391711 0.1260846 0.20016623 0.2249729 0.1822826 0.0878696 0.39760205 0.46488053 0.5959035 0.6575638 0.63413215 0.55227417 0.4745102 0.19618064 0.22982216 0.2113667 0.16192257 0.12495552 0.23491076 0.33418286 0.42567056 0.68872625 0.6703725 0.6211253 0.5632001 0.50812256 0.11731988 0.20106496 0.22349177 0.1508821 0.34998614 0.7088227 0.74082047 0.27286142 0.1204436 0.21202606 0.21148543 0.19910374 0.26447517 0.71473134 0.7260759 0.6548 0.50994027 0.23718505 0.1969176 0.26817966 0.27334887 0.71343726 0.72191834 0.7167481 0.6808792 0.2579997 0.69835496 0.69300115 0.28044885 0.20849955 0.3476424 0.36610034 0.4414628 0.40846878 0.37100345 0.41388023 0.4478771 0.4313208 0.43040195 0.4255535 0.41502863 0.51947457 0.55262864 0.55275095 0.28863454 0.22574142 0.22989008 0.19832866 0.32865238 0.2749679 0.42622638 0.4853142 0.539074 0.5475279 0.46624136 0.28418633 0.34113565 0.3169974 0.40393716 0.49239734 0.51212317 0.46470428 0.35912225 0.26303118 0.30960086 0.3965487 0.37810576 0.35991764 0.27309778 0.26249442 0.36989823 0.16642626 0.16175014 0.13745177 0.27375594 0.27220684 0.43906862 0.53525627 0.11290185 0.098487824 0.10299965 0.10819205 0.53474116 0.10529009 0.1864872 0.15791112 -0.14353263 0.007296603 0.62119246 0.11241512 0.15868418 0.03893582 -0.15565607 -0.2733705 -0.27576786 0.6355516 0.55184054 0.1124596 0.16930988 0.016759768 -0.027037635 0.119886264 0.44165844 0.41943738 0.6066248 0.6164261 0.15959892 0.23556194 0.38457945 0.5843257 0.6338649 0.19983545 0.18024373 0.61225003 0.6423777 0.19233191 0.6526722 0.13553098 0.21170203 0.6524877 0.6730274 0.5251887 -0.005552657 -0.014447808 0.14218736 0.66586274 0.6743133 0.6330316 0.5711119 0.14178382 0.20939466 0.3661427 0.29918164 0.38705158 0.4055541 0.3785935 0.35626912 0.3909456 0.37941283 0.3669143 0.5174859 0.50283194 0.2097156 0.23298454 0.49479735 0.5435628 0.52967846 0.47839427 0.20454843 0.12115705 0.17076644 0.13707875 0.21866672 0.17678453 0.38795063 0.45900992 0.48960447 0.3930186 0.22985834 0.23054309 0.1220956 0.30881965 0.3623832 0.17353682 0.27437 0.297972 0.14932628 0.14400037 0.33627725 0.2907197 0.23513374 0.011261206 0.13341717 0.08290466 0.055140365 -0.12458577 -0.039220497 -0.3021884 0.29902205 -0.056713838 -0.19141088 0.5173407 0.4778027 -0.053381488 0.3371066 0.38675213 0.5028146 -0.3324532 0.046306115 0.28182358 0.32329735 0.5222069 0.041757833 0.5451734 0.5326067 0.04878867 0.3339353 -0.26679605 -0.059976622 0.42476654 0.60411865 0.52276284 0.49490857 0.4225569 -0.14045787 0.051987816 0.58469874 0.5084287 0.5398288 -0.17841357 0.13924837 0.06162427 0.69680405 0.7751315 0.7471405 0.61276805 0.6458448 -0.071951196 -0.11381358 0.8551477 0.8592721 0.82194185 0.7434464 0.14777187 0.33254784 0.329743 0.8472383 0.8100195 0.7716685 0.2558973 0.33687484 0.3951125 0.36697856 0.29223648 0.22684284 0.32669166 0.35496235 0.34988722 0.3554856 0.4683276 0.40082172 0.2696623 0.3260495 0.3392666 0.47130102 0.47189832 0.45411178 0.41574 0.09954685 0.18329853 0.2226347 0.2593653 0.2216397 0.20567463 0.414926 0.37805566 0.26959282 0.07593885 0.13961327 0.18644735 0.17870553 0.12579252 0.30385414 0.06677325 -0.053315688 0.08643502 0.16619262 0.38380426 0.36417538 0.28682557 0.18228109 -0.06782149 0.40476817 0.40837288 0.37985885 0.31177548 -0.08912189 0.39884955 0.35810077 0.01549371 0.33474356 0.29870415 0.22935551 0.22802977 0.22209853 0.058868304 0.1341793 -0.22238229 0.25479895 0.36133337 0.26287708 0.41425478 0.041399114 0.31639004 -0.45624465 -0.22564527 0.3742273 -0.14808038 -0.055649575 0.08329402 0.21634685 0.29031724 0.3837551 0.16245216 -0.1638364 -0.034166932 0.32756507 0.3539054 0.3641013 0.3952396 0.4939981 0.4816305 0.49491552 0.59542584 0.18805033 -0.13445514 -0.1634655 0.71275735 0.6005548 0.57790315 0.6542214 0.7048265 0.7497426 0.6031256 -0.10094459 0.2513175 0.7823277 0.7080785 0.6710035 0.6371864 0.7003191 0.7301303 0.7530012 0.65571195 0.53808963 0.07093595 0.28360158 0.8051686 0.8004172 0.7818444 0.7249578 0.6935095 0.745522 0.75224656 0.24490942 0.30176967 0.31442973 0.75188315 0.36954808 0.27805126 0.2836405 0.2941504 0.5165997 0.5152096 0.24253571 0.2806246 0.55086815 0.5743423 0.50950956 0.34890315 0.47356248 0.5466955 0.25576538 0.21090338 0.21238898 0.21136364 0.15500507 0.14719819 0.3943221 0.5205305 0.6223877 0.65077555 0.24272856 0.23840886 0.2544002 0.38518292 0.30070448 0.11038651 0.1623556 0.21814543 0.24109647 0.2109595 0.18620044 0.58497643 0.15968814 0.09790022 0.17104861 -0.046262942 0.32081574 0.24627784 0.15867929 -0.075508595 -0.3034963 0.3691125 0.3778421 0.32207632 0.38766104 -0.15245216 0.37098926 0.37506256 -0.0764019 0.28825694 0.0781412 0.21290933 0.23605704 0.04927446 0.12962216 -0.11214998 -0.08352518 -0.06707221 -0.033920698 0.046816852 0.18552405 0.13681923 0.18961209 0.30320913 0.32712036 -0.14263166 0.3409851 0.45835963 0.5009613 -0.15576723 0.005759813 0.5690723 0.60739195 -0.15040152 0.69011354 0.63426006 0.67818236 0.70698136 0.504628 -0.03043506 0.19853741 0.6955571 0.7177961 0.7060201 0.6865803 0.66241646 0.7156687 0.7340789 0.6960738 0.2968471 0.24138877 0.72754925 0.4435786 0.42557526 0.18848321 0.2562561 0.5081466 0.09154408 0.19706303 0.53414464 0.5458801 0.38665372 0.27623796 0.21183333 0.54105043 0.5373135 0.54474884 0.4024697 0.34995034 0.4490987 0.5374743 0.5864471 0.61910206 0.64309704 0.28593853 0.46104434 0.5482161 0.6479627 0.6839296 0.25200188 0.27331698 0.2465646 0.23365419 0.114768006 -0.007437557 0.03408117 0.14536837 0.118716136 0.13023339 0.67585856 0.6775405 0.23057576 0.24684137 -0.06598824 0.086191505 0.100764334 0.44502696 0.53656024 0.5892297 0.6113634 0.17489776 -0.21714187 -0.15955754 -0.3701006 -0.17744906 0.011167262 0.49034166 0.38823414 0.33544925 0.26705414 -0.24132842 0.17655376 0.14317665 0.33471265 0.3524219 -0.038177557 0.20577517 0.22334445 0.18109927 0.17956999 0.33637065 0.35084403 -0.42522365 0.19114569 0.22394004 0.22566131 0.30473816 0.37607598 0.40843457 0.31187254 0.15544888 0.19640642 0.24744423 0.2931926 0.33430523 0.37299463 0.18983804 -0.05714932 0.1080194 0.24781194 0.26220345 0.3082348 0.32130608 0.007495351 -0.025541414 0.080940545 0.19007084 0.21662283 0.23650396 -0.08234453 -0.04906807 -0.052976903 0.031336173 0.09256555 0.18618713 0.19494009 -0.12231749 -0.22306588 -0.19049251 -0.13908772 -0.011901502 0.07850689 0.16868554 0.23928173 -0.13646191 -0.06358022 0.12185586 0.23549297 0.32877395 0.35201257 -0.14593944 -0.07410752 -0.059395622 0.19528598 0.308058 0.34330186 0.36949638 -0.16395521 0.03023645 0.36413598 -0.16454041 0.17882387 0.17339939 0.3357224 0.41648453 -0.11051506 0.13621068 0.532238 0.029511884 -0.096022554 0.36360967 0.4642244 0.62920487 0.4018918 0.18310422 0.6392805 0.616245 0.65073705 0.6554399 0.6246238 0.5376606 0.4155565 0.17056565 0.40701187 0.0175692 0.483124 -0.04199718 -0.03447528 0.4795598 0.5250657 0.14460614 0.537498 0.5207827 0.46099702 0.37045515 0.31260118 0.6402355 0.65051305 0.6197187 0.54838777 0.66077507 0.68989754 0.6761131 0.5982361 0.6363442 0.68929446 0.67567813 0.5455342 0.6245101 0.6610913 0.43398744 0.5584964 0.58761567 0.5905572 0.5827172 0.24772665 0.22983411 0.17934999 0.11878468 0.16213678 0.10747104 0.6443845 0.6262305 0.26257277 0.28849667 0.12531959 0.13389057 0.021688424 -0.098606855 0.0818931 0.66929895 0.03442221 -0.040579375 -0.011639077 0.6019461 0.44642496 0.422209 0.29914564 0.19444692 -0.32404494 -0.38090092 -0.31828988 0.26917225 0.47580728 0.43206394 0.1214138 0.093176395 0.440229 0.38927495 0.12247743 0.18950793 0.2814536 0.36781847 0.4224474 0.41138998 0.38480783 0.30244118 0.09488493 0.28683853 0.4213627 0.41746798 0.46863884 0.24219857 0.35038206 0.35672727 0.0035575554 -0.11147208 0.28230104 -0.1402631 -0.110916704 -0.059702065 -0.10612159 -0.11804098 -0.09878181 0.32014906 0.30083364 0.22893427 0.05004757 -0.2236279 -0.22490978 0.36837804 0.35979304 0.24396218 0.10394134 -0.13018683 -0.20963752 -0.24871331 0.20079982 0.28435585 0.37821162 0.39074412 0.4170286 0.25421807 -0.026238307 -0.1200507 0.3447091 0.3713889 0.39455315 0.42154634 0.015495149 0.3302028 0.36014086 0.39501137 0.40997916 0.19941995 0.21687704 0.34025806 -0.31961066 0.23788324 0.2555159 0.35640836 -0.37527046 0.5217984 0.16279238 0.3782833 0.49658436 0.46055028 -0.23326567 -0.11765744 -0.013180995 0.35568357 0.2541954 0.30824924 0.43384042 0.4482948 0.5339026 0.4986462 0.48717636 0.35605738 0.19337392 -0.18796636 -0.08149694 0.046339937 0.47647747 0.49628937 0.52046806 0.47728604 0.45896038 0.15663166 0.12743035 0.07749391 0.5349367 0.58402264 0.33569083 -0.054846693 0.040217534 0.21177694 0.21457615 0.3864496 0.3633062 0.37424505 0.3052476 0.32904762 0.33076984 0.56415904 0.5971148 0.56945086 0.50973517 0.5837372 0.6227517 0.5412338 0.4838776 0.28382295 0.55130935 0.6082742 0.42679796 0.28765386 0.16131532 0.24592891 0.51160896 0.2925576 -0.11830898 0.07202556 0.5444474 0.5584073 0.32287765 0.44960955 -0.21311876 0.094433546 0.048211824 0.13587788 0.38500327 0.55013937 0.5182904 0.5132227 -0.0085296 0.042810053 0.16203037 0.1556825 0.10270682 0.04562314 -0.10652292 0.16919869 0.52839804 0.53471684 0.023400897 -0.13316925 0.07912888 0.14275078 0.49533212 0.32647398 0.26928893 0.0026058182 0.4685459 0.4369077 0.30452967 0.016562104 0.49689168 0.2055259 0.33533022 0.32688007 0.30920243 0.5690954 0.6052295 0.64889765 0.6521145 0.4765237 0.371793 0.34278625 0.34626836 0.4755556 0.5461959 0.57897186 0.61877894 0.4182151 0.37233123 0.3404635 0.38424307 0.46193928 0.4703704 0.24816644 0.34764823 0.32233137 0.34399334 0.4135558 0.4549073 0.04849573 0.1089495 0.17609471 0.2511286 0.2987734 0.3405677 0.35894847 0.42771825 -0.12085112 -0.13609332 0.06371914 0.09921656 0.36139822 0.38628536 0.43213817 0.4871089 0.51659656 -0.13387395 -0.12687448 0.37450075 0.3925548 0.45267218 0.5023501 0.5323479 0.19214112 0.13995756 0.4531495 0.50573045 0.39108986 0.3621844 0.3281199 0.43332925 0.36380416 0.42330083 0.42373133 0.4399895 0.33739156 0.42571953 0.4555065 0.3723305 -0.24062322 -0.21398957 0.33536178 0.3531703 0.3847878 0.43035233 0.124503 -0.16198666 0.14925638 0.0034708232 0.2302857 0.14644025 0.21425413 0.17102996 0.28649336 -0.3355622 -0.4261995 -0.2591222 0.362184 0.35543925 0.31166592 0.35776147 0.41462284 -0.00644082 -0.2948285 -0.11775263 0.16187555 0.17539972 0.14761493 0.11792894 0.45994282 0.54415894 0.44343966 0.45144832 0.43015444 -0.28514224 0.078060485 0.08416085 0.03608944 0.120174155 0.24331461 0.36949688 0.6204661 0.6551926 0.73203015 0.10648984 0.13123095 0.14442141 0.28629303 0.57346785 0.6006829 0.6135285 0.67202175 0.7284924 0.7859372 0.23690505 -0.009453133 0.2480184 0.2299082 0.65997994 0.70417345 0.75376725 0.7964098 -0.038147703 -0.07836969 -0.00019546784 0.09368709 0.16809359 0.22395505 0.30013663 0.31100437 0.26477817 0.16130793 0.30083612 0.3142128 0.65043604 0.6634673 0.50044584 0.5208494 0.5026375 0.3949455 0.33189723 0.47917002 0.5963377 0.6467918 0.61968106 0.39338112 0.37127486 0.35673547 0.25462836 0.37895542 0.3981279 0.5229833 0.51440096 0.24589078 0.14383204 0.070039846 0.19314228 0.35996014 0.0068308935 -0.107103795 0.041488916 0.15888923 0.13555694 -0.05011928 0.11488261 0.43759036 0.1298949 0.10759226 -0.13056555 0.1355946 0.084574915 0.022069559 -0.0056212656 -0.05428228 -0.17583933 0.017046724 0.3527032 0.12691295 0.014541387 -0.10124038 0.39081305 0.3855189 0.1161831 0.1621702 0.013169333 -0.080216244 0.29110056 0.10984619 -0.03633012 -0.2544587 0.34130257 0.33198512 0.3403417 -0.088798195 -0.51896834 -0.04865191 0.58802485 0.6546215 0.68494195 0.6890825 0.46344042 0.19032127 0.24716216 0.26208296 0.26454437 0.49973977 0.54762113 0.6663232 0.45111126 0.28301105 0.2401548 0.17262237 0.57002616 0.34740126 0.36550936 0.28887975 0.16230455 0.056508727 0.5266599 0.34673822 0.2298198 0.2854755 0.48231566 0.33844253 0.21250379 0.2778157 0.010088839 0.020854324 0.54529154 0.58617955 0.19180396 0.31442434 0.3422803 0.5457327 0.56731987 0.3341208 0.022017706 0.2679485 0.35671896 0.42699307 0.5079958 0.5239338 0.54553515 0.43473735 0.22730973 0.37378708 0.47410312 0.46393397 0.4652106 0.37172416 0.4788003 0.44714075 0.46142077 0.4186739 0.38540494 0.3773905 0.31787002 -0.09838094 0.12031355 0.30375272 0.22218981 0.1631179 0.25494152 0.27671036 0.31660187 0.5164471 0.35267183 -0.09630528 0.7558621 0.12273426 0.17250657 0.23204982 0.28209698 0.31228995 0.2759343 0.47258353 0.84088314 0.2136022 0.12918757 0.22628501 0.2851839 0.29534298 0.6683817 0.8043694 0.8336735 0.85943675 0.29571098 -0.14121875 -0.029327516 0.087478824 0.16784932 0.21000652 0.21962045 0.20385955 0.69522727 0.73485017 0.80255294 0.84754217 0.38368756 0.40971878 0.39574876 0.32555556 0.25268123 0.59414816 0.6319114 0.6632968 0.66937345 0.3962651 0.38766408 0.36986673 0.3208532 0.30349863 0.62053335 0.6104966 0.28485155 0.3210852 0.16923824 0.54734993 0.50623035 0.18885256 0.23643114 0.42946813 0.2518168 0.353235 0.43988246 0.47460395 0.14979076 0.11177708 0.11565855 0.046142202 0.020675778 0.12203303 0.08106144 -0.060380787 0.16926205 0.11411297 0.0630732 0.13851133 0.17802589 0.12366725 0.1480078 -0.61262894 -0.025238223 0.5809622 0.63746154 0.67895734 -0.3446849 0.529723 0.57819104 0.63262343 0.6972711 0.6913794 0.037061155 0.093651205 0.20458823 0.20369019 0.19825274 0.14628221 0.37164056 0.21097258 0.059119053 0.03925983 0.45895398 0.31226864 0.40625942 0.27099225 0.4869745 0.20859812 0.010398686 0.5865085 -0.2378293 0.58623827 0.38645646 0.502681 0.5448217 0.44551063 0.41411808 -0.10554216 -0.16380496 0.39734018 0.4327147 0.42451644 0.45039555 0.4631309 0.00016202033 -0.1596868 -0.042036843 0.016964464 0.12531853 0.31254324 0.38957524 0.47391188 -0.06497547 0.011372009 0.46444494 0.37502676 0.12912787 0.28098166 0.30891848 0.43189552 0.36561 0.3521263 0.3637188 0.35668287 0.32991734 -0.042919546 0.0688327 0.3993252 0.38429064 0.19779763 0.24045941 0.24876033 0.20354791 0.48863158 0.65907204 0.18474141 0.19565631 0.22717331 0.2380056 0.013854668 0.09959792 0.30919585 0.26386592 0.87304705 0.07996766 0.21594715 0.30431208 0.32255977 0.58368623 0.8738333 0.3251841 0.36874235 -0.05406758 0.15723738 0.20975333 0.30940923 0.66328895 0.6991866 0.795104 0.84581625 0.8670871 0.45938474 -0.036983907 -0.14728099 0.039517503 0.15226975 0.20637241 0.21965128 0.48871124 0.46082628 0.39702415 0.252209 0.5291898 0.5807164 0.26483858 0.49870116 0.5692103 0.6212791 0.6527649 0.65010935 0.28191942 0.28331223 0.2793855 0.22413333 0.35993955 0.63993526 0.40258592 0.17485495 0.2562935 0.35325348 0.38216078 0.49601603 0.4683764 0.45433545 0.33525482 0.17069563 0.19466765 0.44373822 0.16136271 0.27367076 0.30421394 0.3575142 0.49043593 0.5128666 0.5894727 0.40290725 0.2857755 0.4024366 0.25786507 -0.15209372 -0.14248428 0.13890985 -0.070942655 0.003995359 0.200491 -0.06952314 0.19931787 -0.18638042 0.56548995 0.6232323 0.6653186 0.07848997 -0.23347524 -0.13869464 0.0037127547 0.44202483 0.5339092 0.67566204 0.120712765 0.18386643 0.15040809 0.07795352 0.47592327 0.22372212 0.4263054 0.31883103 0.26277563 0.321282 0.22438934 0.40191084 0.19439483 0.5452056 0.5566815 0.36297777 0.52907705 0.4196087 0.4075492 0.41970158 0.40675026 0.2783161 0.4072924 0.24813785 0.23903978 0.416843 0.24017307 0.283782 0.35833058 0.41297048 0.2702954 0.38312328 0.38202146 0.34699655 0.011876605 0.1776838 0.31958854 0.3967669 0.38979405 0.4399602 0.24415381 -0.016755044 0.41006187 0.41462865 0.26856804 0.25212735 0.4775474 0.1997335 0.25454485 0.34584096 0.8080728 0.3526529 0.4952454 0.61239076 0.6880353 0.80267143 0.83767855 0.40635493 0.20428684 0.31764323 0.36376145 0.37971237 0.6523265 0.7671829 0.8252914 0.46313184 0.4873566 0.08509641 0.09194982 0.15136012 0.19930606 0.2325428 0.22325179 0.52075124 0.49003053 0.40879822 0.32436785 0.21442482 0.22475815 0.23461103 0.41961637 0.44589722 0.49112287 0.53174627 0.5605356 0.26467264 0.2675104 0.43258554 0.46225116 0.546576 0.59067225 0.64155626 0.6850172 0.68662524 0.61040723 0.23487954 0.25318652 0.26228178 0.246567 0.20299697 -0.028130949 0.68435323 0.63643944 0.6273157 0.6046106 0.5166291 0.15078299 0.15036868 0.57294965 0.32461262 0.37328473 0.42124707 0.59617937 0.69473565 0.687307 0.55915093 0.57127064 0.3349569 0.6574837 0.45426422 0.3480785 0.15633884 0.18426868 0.023321204 -0.06509934 -0.12981413 0.55479896 0.5628554 0.74338335 0.70473075 0.24794814 0.033416614 -0.35681164 -0.20160106 0.40400583 0.46262914 0.5848134 0.5191584 0.76728344 0.76523244 0.76254356 0.6826992 0.018762961 0.040264163 0.0045738257 0.48931563 0.41089824 0.7820413 0.7858906 -0.093373805 0.7956936 0.78416175 0.6701809 0.3136633 0.20999633 0.14917487 0.3259629 0.27179688 0.43941206 0.28623736 0.35451108 0.4100203 0.38551208 0.34765753 0.35231107 0.21460664 0.30189788 0.22571984 0.323538 0.32206872 0.46610808 0.43072903 0.36712223 0.35645747 0.4360665 0.35473597 0.4919354 0.5077214 0.55241704 0.3150827 0.30841768 0.2896043 0.36029616 0.45703223 0.5283724 0.29774857 0.28453588 0.26267514 0.21655409 0.22977555 0.2136227 0.21258822 0.16748638 0.56539506 0.23700273 0.2137299 0.085590295 0.16195206 0.54436755 0.6660228 0.20732398 0.6664804 0.4047138 -0.024781613 0.20329353 0.37558964 0.38931006 0.46919614 0.041810524 0.12026155 0.17594862 0.22240908 0.3394838 0.35556942 0.5192045 0.50480324 0.46948987 0.25618556 0.17228171 0.17071366 0.20391473 0.2247382 0.23400694 0.22636575 0.43669778 0.3792916 0.28165638 0.4320286 0.4600159 0.5115008 0.28894293 0.2892018 0.23027322 0.26493654 0.41741055 0.447729 0.52693224 0.568883 0.57994056 0.7405482 0.71265674 0.6452599 0.25237206 0.2617779 0.20563841 0.5572933 0.69169974 0.7411679 0.75065225 0.6993638 0.30505764 0.21407613 0.45636788 0.35639298 0.38185924 0.5384451 0.7435496 0.58549166 0.29960993 0.35552177 0.7294053 0.5099089 0.45070368 0.27123326 0.3435078 0.34896544 0.2591021 0.2753945 -0.0037518777 0.63659954 0.49220747 -0.22368008 -0.34798133 0.7067368 0.71658194 -0.31291202 0.08682875 0.43140608 0.34889436 0.39298338 0.5045356 0.45761132 0.