# vtk DataFile Version 2.0
Really cool data
ASCII
DATASET POLYDATA
POINTS 5783 float
34.39246 14.063773 -19.547304
34.266693 14.961833 -20.221777
34.273693 14.639405 -19.524754
34.352955 14.54948 -19.00054
34.364166 15.321765 -20.235983
34.27436 15.365351 -19.697073
34.40643 15.872283 -20.026014
35.21061 13.341906 -20.011826
35.124043 13.316147 -19.363012
35.161865 13.296913 -18.919537
35.07302 14.141993 -20.857155
34.843742 13.892505 -20.253786
34.686882 13.731628 -19.328794
34.895203 13.737531 -18.639374
34.95933 14.597979 -20.8648
34.57739 14.624857 -20.49223
34.64853 14.416283 -18.551912
35.048195 14.60367 -18.029789
34.800358 15.512702 -20.754084
34.539013 15.503732 -20.44824
34.49434 15.094824 -18.66964
34.98981 15.269556 -18.019865
34.827915 16.165136 -20.32317
34.439926 15.805241 -19.320034
35.228874 16.526411 -18.450964
35.295578 16.015236 -17.836151
35.1793 17.04208 -19.306738
35.226337 23.989378 -18.088564
35.25782 24.068096 -17.23793
35.091877 24.229233 -18.036396
35.191906 24.390345 -17.644442
35.145313 24.720531 -16.534618
35.28258 24.932316 -15.72186
35.35114 25.40546 -18.575338
35.146584 25.475983 -17.384676
35.099762 25.435192 -16.377897
35.27875 25.414787 -15.608207
35.361626 26.172329 -17.286177
35.311123 26.325058 -16.168901
35.305786 25.943005 -15.517858
35.648624 13.271306 -20.076696
35.604424 13.160557 -19.403547
35.597397 13.267283 -18.769184
35.666153 13.885135 -20.92176
35.40047 13.497921 -20.368118
35.450222 13.4539 -18.499804
35.466557 13.829357 -18.104855
35.638092 14.487204 -21.201464
35.72485 14.638185 -17.613155
35.496304 15.176361 -21.22887
35.419064 15.221704 -17.641188
35.99332 15.589579 -17.221653
35.547024 16.36972 -21.000671
35.661064 16.47582 -17.541441
36.057648 16.3468 -17.237385
35.964554 17.478182 -21.030703
35.622738 17.584486 -20.512545
35.553143 17.13916 -18.279327
35.974533 17.7419 -18.073784
35.717022 18.630295 -19.937235
35.616146 18.229546 -19.40701
35.838875 18.010862 -18.3095
36.17094 18.181942 -17.923672
36.214825 19.385498 -20.743418
35.93998 19.424917 -20.16713
36.02646 19.463627 -18.872255
36.01857 20.159971 -20.099886
36.269207 20.507828 -19.799702
36.160877 20.498547 -19.062511
36.448574 21.36901 -19.783049
36.358494 22.018757 -18.97383
36.420803 22.48648 -20.448895
35.806847 23.133188 -18.489761
35.9636 23.122215 -17.711967
36.33782 23.317518 -20.8466
36.02348 23.815891 -20.426756
35.49453 23.572819 -18.357172
35.49584 23.656858 -17.49038
35.623627 23.673836 -16.932405
35.820152 24.061443 -15.944648
36.337807 24.460438 -21.000528
36.118446 24.672352 -20.680943
35.457947 24.52456 -19.079847
35.54071 24.66271 -15.5111
35.6168 25.0514 -15.224688
36.337082 25.045311 -20.920418
36.17954 25.196918 -20.50178
35.617058 24.94959 -19.30289
35.487408 25.165745 -18.687937
35.72362 25.695343 -14.964429
36.308315 26.09544 -14.297391
36.258606 25.761908 -20.135904
35.80827 25.933973 -19.054947
35.81234 26.528587 -18.200409
35.598503 26.424568 -17.617128
35.60148 26.707893 -16.209917
35.607136 26.427282 -15.225215
35.853107 26.368372 -14.87754
36.32209 26.717909 -14.140795
36.204056 27.168615 -17.589554
35.914505 27.273275 -16.357546
35.956493 27.395359 -15.446775
36.09579 27.264439 -14.650706
36.331253 27.34531 -14.16031
36.27024 27.807583 -15.491701
36.290493 27.693317 -14.699457
36.16196 13.319557 -20.344645
36.227894 13.178409 -19.610912
36.218826 13.22247 -18.917542
36.372017 13.791343 -20.910198
36.290707 13.503439 -20.511044
36.39775 13.46997 -18.43257
36.493687 13.954239 -17.936222
36.302734 14.311771 -21.218843
36.64852 15.077273 -17.22655
36.829376 15.790616 -21.33933
36.656857 15.641328 -17.118603
36.67931 16.7006 -21.430407
36.59117 16.297222 -17.06189
36.703968 17.270596 -21.443596
36.68736 16.973522 -17.153645
36.571583 18.250301 -21.25825
36.504684 17.922516 -17.302563
36.938984 19.433348 -21.171429
36.421513 18.970264 -18.002777
36.91185 20.458847 -21.099356
36.459946 19.975466 -18.463755
36.541504 20.199684 -18.07012
36.98535 21.019236 -21.011053
36.584686 21.55104 -20.419626
36.755577 21.182058 -18.428102
37.265278 21.883547 -17.674055
36.657467 22.879873 -20.896755
36.466766 22.764904 -20.521004
36.608658 22.615778 -17.701162
37.133873 22.868292 -16.920954
37.42585 22.67515 -14.506565
37.435192 22.879452 -13.956608
37.045387 23.77582 -21.65457
36.51054 23.713667 -21.227715
36.300346 24.150606 -15.369853
37.274647 23.661325 -14.509037
37.076565 24.54257 -21.752272
36.646843 24.597944 -21.397152
36.774418 24.70148 -14.626369
37.129753 25.345282 -21.653255
36.823395 25.351889 -21.304895
36.532703 25.29129 -14.545083
36.33888 25.821249 -14.268693
36.77404 25.781012 -20.933266
36.819706 26.317104 -20.281464
37.057262 26.631283 -19.677835
36.54409 26.646156 -13.937129
36.81496 26.916489 -19.34478
36.466644 27.18225 -18.272385
36.41064 27.594688 -14.443339
36.63353 27.46663 -14.057584
36.87999 27.930872 -17.419159
36.695442 28.006811 -16.627094
36.715923 28.10731 -15.378606
36.692165 27.935007 -14.592573
36.905384 13.67451 -20.402555
37.157864 13.65429 -19.430471
37.30442 13.875564 -18.50747
37.171917 14.692641 -21.025917
37.395355 14.607571 -17.607159
37.44602 15.005624 -17.42852
37.604797 15.760175 -21.303167
37.124817 15.469291 -17.076195
37.490192 16.63626 -21.591578
37.38936 16.69222 -21.482603
37.735577 16.333403 -17.216524
37.41485 17.190292 -21.571878
37.64028 16.99043 -21.479626
37.890816 17.983904 -16.830887
37.646877 18.406002 -21.437742
37.515236 18.442572 -17.017397
37.98264 19.89739 -21.60961
37.5504 19.091124 -16.932869
38.064148 20.442472 -21.59704
37.446087 20.657784 -21.381134
37.534546 20.244896 -16.900955
38.192226 20.555265 -13.579127
38.176186 20.879417 -13.005696
38.139927 22.061531 -21.91873
37.33856 21.472887 -21.296228
37.687653 21.839006 -16.449955
37.90892 21.710453 -13.438172
38.34018 21.639494 -12.563878
37.816784 22.647356 -21.831703
38.051086 22.472109 -13.108551
37.69762 23.662146 -22.029354
37.624603 24.580809 -21.988829
37.74324 23.967066 -13.611709
38.118107 24.403524 -13.303185
37.62111 25.282135 -21.84793
37.28756 25.616968 -21.514105
38.039413 25.280119 -13.333729
37.60451 26.26718 -21.007559
37.481464 26.438934 -20.693401
37.55552 26.75656 -13.685973
37.892326 27.078379 -20.167658
37.5955 27.379683 -19.443506
37.227757 27.021025 -13.664623
37.88901 27.797503 -19.160894
37.942024 28.310816 -18.215225
37.62684 28.366608 -17.414465
37.545776 28.397636 -16.19508
37.171497 28.418364 -15.103363
37.416573 28.201202 -14.58299
37.658424 14.276692 -20.260054
37.935703 14.144247 -19.259228
37.988255 14.180092 -18.840458
38.074127 15.057822 -20.24977
38.164917 14.472762 -19.81451
38.37954 14.583544 -18.888998
38.04468 14.662742 -17.930294
38.126434 15.6209955 -21.007032
38.24377 15.415577 -20.663322
38.359352 15.901696 -17.885853
38.219383 16.23482 -21.38857
38.33048 17.439184 -21.300793
38.44244 18.47627 -21.446442
38.380226 18.47335 -16.870182
38.483505 19.172726 -21.640621
38.67198 19.916845 -16.570957
38.764523 19.990816 -13.416459
38.75226 20.155485 -12.625492
38.492275 20.481686 -12.655629
38.869484 20.753145 -12.102561
38.56413 21.885847 -21.881796
38.806652 21.351652 -12.106696
38.374855 22.658487 -22.111744
38.57173 23.456873 -22.366259
38.708206 23.121286 -12.694806
39.073135 23.65799 -12.26786
38.781338 24.483671 -22.295008
38.91069 24.887468 -12.627785
39.33786 24.820398 -8.672271
38.404663 25.24575 -21.908764
38.774986 25.38704 -12.911483
39.301018 25.964085 -10.195298
39.166595 25.460976 -9.463004
39.27266 25.549433 -8.561953
39.448017 25.598227 -7.974121
38.351585 25.718248 -21.623552
38.39669 26.063572 -21.206858
39.217514 25.929045 -9.633919
39.27862 26.014496 -8.694772
38.829525 26.880243 -20.469337
38.70242 28.033348 -18.99751
38.605732 28.121426 -18.622728
38.52229 28.416946 -16.21224
38.27504 28.174698 -14.806159
38.001614 27.857063 -14.162932
39.46686 28.545958 -11.657118
38.471767 28.664713 -17.278841
38.33324 28.63453 -16.31509
38.614365 15.105008 -19.548704
38.901447 15.848203 -20.320576
39.19965 17.819426 -17.311136
39.588753 19.06673 -16.58655
40.304302 19.102396 -15.42176
39.96153 19.295292 -14.46278
40.285397 18.753565 -10.543007
40.340225 18.886698 -9.894261
39.55305 19.570791 -13.071138
39.72595 20.014532 -11.878941
39.985516 19.671516 -10.429045
40.229782 19.480711 -9.844926
39.764496 20.442005 -21.706507
39.361202 20.805004 -11.756202
40.063065 20.057178 -10.5897665
39.887157 21.179535 -21.589283
39.46877 21.619759 -11.726825
39.152042 22.990654 -22.547283
39.60876 22.619375 -22.497519
39.32636 22.249758 -11.983223
39.368984 23.473543 -22.589636
39.37548 23.834362 -22.491066
40.171806 23.364595 -10.818384
40.01072 23.832556 -9.685812
40.161438 23.64193 -8.806577
40.159286 23.92111 -7.8285017
39.688385 25.074516 -10.661674
39.64185 24.473745 -8.428137
39.79003 24.684875 -7.5756617
40.095066 24.721016 -6.817065
39.799458 24.951954 -21.580832
39.60189 25.230549 -11.906847
39.715733 25.45659 -7.4791126
40.0871 25.42608 -6.785972
39.56218 26.916264 -11.400294
39.529224 26.57098 -10.047022
39.573753 26.539867 -8.511791
39.78885 26.167767 -7.637867
40.22553 26.121733 -6.950268
39.652443 27.515396 -19.5782
39.490547 27.198542 -10.209771
39.590626 27.11158 -9.817313
39.98061 27.10262 -8.596097
40.250046 27.081337 -7.877695
39.290123 27.63062 -19.470331
39.372463 28.23045 -18.25164
39.478737 28.473125 -17.409145
39.166683 28.479435 -16.594599
39.40623 27.761055 -15.49732
39.90946 28.058878 -13.062859
39.611736 28.146715 -12.392235
39.79234 28.660593 -10.45291
40.26613 28.085012 -9.309794
39.18079 28.609207 -17.133648
40.290302 29.656307 -13.881878
39.975178 29.32732 -13.193947
39.877655 29.585989 -11.258789
39.930737 29.220037 -10.786051
40.294563 30.286795 -13.180814
40.23253 30.325695 -12.511527
40.190456 30.172775 -11.638692
39.783604 17.273521 -20.297808
40.38632 17.264421 -18.769829
41.38813 17.42784 -16.694866
41.381386 17.269772 -14.898167
41.065006 17.97244 -11.062736
40.796432 18.03475 -10.501258
41.009666 17.990368 -9.73797
41.242176 18.029438 -9.293108
41.134396 18.352043 -14.441509
[...]
POINT_DATA 5783
SCALARS features_00 float 1
LOOKUP_TABLE default
0.92925143 0.8243556 0.88871515 0.90222293 0.7867787 0.79290164 0.70866793 0.8892355 0.89607537 0.8939204 0.87734455 0.9096111 0.9232842 0.90437603 0.84292364 0.8528739 0.88743424 0.8200654 0.7194016 0.7482812 0.8278981 0.72409254 0.6601029 0.73366857 0.5356492 0.5884118 0.5165504 0.43293443 0.43927604 0.46201223 0.4791711 0.50793004 0.4809886 0.47634244 0.5398098 0.5483454 0.509208 0.5180755 0.5561855 0.5335745 0.8723023 0.8727057 0.87619376 0.86286676 0.88209975 0.8826604 0.86930144 0.83115065 0.75162184 0.74586093 0.6852878 0.6120954 0.60291713 0.521231 0.53338563 0.4595045 0.5274386 0.4353897 0.38099685 0.42518175 0.38387695 0.35297203 0.34622586 0.393115 0.38425672 0.3120873 0.32944587 0.2932194 0.25745875 0.23367742 0.11958155 0.2834928 0.2931491 0.28148228 0.37026748 0.37231153 0.37337816 0.37244403 0.36726075 0.3800035 0.4477198 0.43597874 0.46524835 0.43104917 0.44116884 0.461991 0.44687945 0.44959635 0.47772092 0.4806403 0.46650246 0.43484914 0.42084137 0.43041867 0.47804385 0.55316246 0.54555047 0.53303146 0.5331995 0.45659846 0.5412504 0.571394 0.5777992 0.58069205 0.5789316 0.59540373 0.84575546 0.8398423 0.84844494 0.8264229 0.83885527 0.8566491 0.8340087 0.8020155 0.6532926 0.5353646 0.5926084 0.43097043 0.52441204 0.3815334 0.45551816 0.37813005 0.38125476 0.33176067 0.3030076 0.27792373 0.2571768 0.21678165 0.2554559 0.27030617 0.12643588 -0.021621123 0.34302458 0.30686155 0.13782525 0.10091205 0.13363796 0.19786382 0.45091775 0.42579806 0.29631713 0.11854525 0.49101382 0.47451323 0.25861886 0.4930134 0.48207325 0.35352594 0.4272068 0.4652546 0.42757314 0.40005016 0.5127953 0.39191478 0.41074544 0.5966816 0.5913274 0.49858397 0.55118495 0.5945277 0.6086322 0.786563 0.77828866 0.8162277 0.661206 0.73377347 0.6654346 0.50734 0.5992137 0.4040334 0.40521407 0.4900464 0.36574122 0.374861 0.26090974 0.30261645 0.2867492 0.21223511 0.21930419 0.18244076 0.23636416 0.17212313 0.35461202 0.35211605 0.24976476 0.23139414 -0.06428562 0.31785315 0.3162732 0.32255533 0.2680974 0.44793707 0.5005934 0.13582368 0.10885863 0.49893308 0.4862157 0.12545605 0.44829053 0.43335307 0.4897943 0.3929065 0.40792525 0.5480741 0.42935243 0.5067563 0.5438833 0.5911672 0.60208046 0.61816037 0.6357214 0.6665706 0.70841455 0.5522244 0.5920353 0.64754456 0.7538735 0.5096522 0.5220376 0.60097694 0.41824663 0.31892443 0.2547026 0.1360161 0.1955815 0.021804053 0.31323177 0.3104477 0.3300496 0.29207736 0.21354255 0.29703847 0.32357237 0.39781874 0.19883701 0.08283309 0.41309482 -0.014628284 0.48774755 0.45385104 0.00019401312 0.26582688 0.38221848 0.4881094 0.5453518 0.44662333 0.42025545 0.35069022 0.45481092 0.3428665 0.43451297 0.46530688 0.5752398 0.6076427 0.6381887 0.4314872 0.54779255 0.5746867 0.52481854 0.44018134 0.11372461 -0.11431101 -0.2883788 -0.059405964 0.49104875 0.515314 0.21523587 0.22259232 0.38071507 0.46459678 -0.037205275 0.24380037 0.30353937 -0.0046482384 0.22431408 0.34537405 0.29295707 0.2164725 0.3632843 0.36137426 0.043021724 0.3370098 0.39454293 0.5400703 0.19479597 0.50610673 0.6228967 0.7276051 0.25184083 -0.15590891 0.61148906 0.7000486 0.15716884 0.300036 0.4449321 0.5464338 0.6219115 0.3270902 0.29816052 0.32943085 0.39979297 0.44799078 0.36933437 0.47571862 0.5232074 0.5448673 0.48953873 0.6059066 0.4838946 0.3365286 0.31566316 0.5405321 0.65000534 0.6219578 0.42015994 0.37434798 0.60741454 0.5517472 0.45676368 0.34584016 0.3230606 0.1800247 0.20539805 0.48504424 0.53623784 0.56062424 0.553411 -0.14456469 0.40392458 0.49128747 0.5392558 0.51968104 0.049548555 0.47981268 0.47034937 0.010976143 0.31240174 0.3889572 0.18420836 0.28778684 0.28029263 0.18232402 0.32994682 0.57153785 0.754462 0.32189158 0.7792068 0.7978114 0.0977943 0.1255363 0.73444325 0.76381326 0.090522334 0.22251242 0.04193385 0.6273896 0.7052624 0.058679804 0.3197297 0.40587875 0.29315752 0.4223652 0.48401147 0.46656513 0.53520256 0.30498755 0.3097369 0.33911753 0.6368784 0.32100576 0.30301252 0.6229152 0.6152611 0.41743633 0.38362253 0.33092207 0.59882134 0.5413698 0.49562693 0.40731034 0.3637534 0.38179076 0.28731427 0.3487019 0.38111782 0.25890943 0.25502452 0.17059676 0.35707593 0.5183187 0.18688115 0.12311311 0.19855054 0.5009928 0.5634056 0.5309423 0.1429006 0.49092373 0.0747277 0.063550085 0.4255512 0.3764395 0.04320088 0.29926443 0.20620336 -0.0006471649 0.05126016 0.338222 0.75537455 0.78841424 0.14236169 -0.010468602 -0.20412126 0.738083 0.33552605 0.22933173 -0.16487475 0.5783956 0.6564076 0.45766 0.5995575 0.5921654 0.41000834 0.29457954 0.2919598 0.34819913 0.45656598 0.49212587 0.60583705 0.6524168 0.36958572 0.28079066 0.6915808 0.61668587 0.65626276 0.6527039 0.53139585 0.29305452 0.75240815 0.76004696 0.7309125 0.59655964 0.59589577 0.32168698 0.30613002 0.7666769 0.7838503 0.758206 0.68242997 0.6005726 0.5984616 0.55530894 0.45133364 0.37132102 0.76846313 0.7860449 0.7776783 0.43459576 0.4312228 0.43601954 0.43274677 0.34725454 0.2891366 0.18635939 0.37996587 0.3997175 0.40152684 0.39855576 0.23947904 0.3111292 0.24326125 0.1555568 0.1136497 0.20479715 0.3856663 0.16194677 0.2037461 0.009842906 0.07188962 0.34723616 0.39997128 0.46206462 0.52542734 0.35321665 0.47224897 0.40595987 0.048713326 0.33283353 0.47926056 0.43072182 0.43103385 0.40295637 -0.02521377 0.017093599 -0.08987512 -0.12911156 0.32389012 0.07701628 0.022727538 0.6209307 0.72767603 0.22672191 0.18282789 0.12146591 0.14012845 -0.31195754 0.58246017 0.67952335 0.31582788 0.25274432 0.17353204 0.1694747 0.26025158 -0.08831818 0.5416962 0.41523093 0.33056176 0.19892731 0.3338501 0.17402154 0.31369328 0.43518376 0.3073251 0.21941823 0.5630158 0.4756809 0.4562843 0.27104598 0.26096523 0.6621554 0.6540009 0.62066364 0.5853852 0.3918598 0.2612947 0.26712224 0.61113644 0.49616015 0.47949874 0.6589972 0.6539649 0.4939505 0.5053321 0.2826678 0.25736207 0.6231198 0.70940876 0.6758449 0.5729624 0.5635836 0.5443849 0.54736793 0.40968728 0.23759735 0.7190486 0.76486194 0.77762854 0.68700135 0.6384723 0.44192356 0.45368856 0.41697964 0.4114434 0.46899515 0.48196495 0.47662848 0.3888452 0.4201772 0.44725516 0.36747092 0.27839518 0.13296884 0.33789366 0.46550602 0.44852728 0.41891634 0.356638 0.3552244 0.38187087 0.034265745 0.05275827 0.36319292 0.35996464 0.2843656 0.31640533 0.25084198 0.2567898 -0.04928043 0.17320637 0.48741293 0.51838267 0.59326494 0.59293807 0.5864193 0.109407276 0.118351854 0.08720872 0.52502716 0.50015056 0.58294404 0.5865404 0.57083476 0.008235209 0.41006738 0.5651653 0.5382798 0.533362 0.50114673 -0.047883354 0.3505689 0.49810505 0.4739867 0.4643739 0.38954583 -0.10182774 0.2161977 0.43503374 0.42710584 0.39779136 0.31717232 0.19823849 0.1322342 0.3893937 0.30115163 0.14101525 0.10475561 -0.12052756 0.01008492 0.27984875 0.0981806 0.054991856 0.108624786 -0.1559011 0.25195912 0.117095985 0.070495605 0.088801995 0.1556276 0.18088551 0.027563065 0.30656418 0.25218228 0.12553594 0.12356089 0.06870286 -0.09048769 -0.2996142 0.41071144 0.36632884 0.13068473 0.12154003 0.03361605 0.31392938 0.4650113 -0.0044121128 -0.035588562 0.4701464 0.095670305 -0.040505882 0.34529135 0.46027273 0.22037378 0.43331283 0.40994892 0.19821882 0.35235763 0.63581276 0.6234947 0.14245677 0.16767493 0.44642115 0.47914556 0.65967107 0.65803355 0.64422286 0.5552754 0.6115709 0.5396242 -0.018209077 0.16543247 0.6235293 0.6546973 0.6397307 0.6097775 0.19563603 0.17942445 0.16128995 0.61879075 0.64666426 0.61538947 0.5990643 0.32388958 0.26789504 0.3241537 0.3565355 0.3614015 0.3874449 0.35229307 0.22756636 0.22990671 0.37463588 0.45833826 0.4638161 0.34003103 0.3376022 0.4284258 0.37901807 0.34303987 0.34887597 0.36349297 0.22111438 0.2834319 -0.15787636 0.3759044 0.4458988 0.48785463 0.5918014 0.5861447 0.5868981 0.5757757 0.06385357 0.50708425 0.55424494 0.57397544 0.034096606 -0.08969257 0.42433798 0.5324447 0.5438558 0.32329792 -0.2008818 -0.19290997 -0.14784986 -0.16623914 0.28135684 0.49517334 0.14199135 -0.051124744 -0.24419074 -0.18522452 0.19466352 0.42552292 0.13296749 -0.26788923 -0.12012381 0.35912624 0.085939035 0.077665746 -0.17189986 -0.10554242 0.16902754 0.1751749 0.31927717 -0.15565968 -0.4630829 -0.17883033 0.4352985 0.39516202 0.103974506 0.050618194 -0.51756984 -0.12546764 0.4773936 0.18809985 0.4994867 0.568533 0.033137392 -0.03002575 0.47349396 0.5977164 0.6035208 0.6177382 0.06636123 0.41635698 0.5931599 0.6150719 0.13142633 0.48712713 0.54019713 0.5208609 0.23850653 0.3150422 0.48319322 0.53147066 0.54549164 0.30025482 0.26947168 0.2296508 0.36998653 0.58788395 0.5606855 0.56068134 0.26534146 0.23894988 0.21590975 0.16795559 0.16393144 0.41226545 0.28211546 0.23459578 0.23514895 0.20647779 0.31977156 0.4050081 0.47503996 0.2287276 0.17787226 0.12112637 0.07862175 0.21933778 0.2805262 0.35280624 0.29778385 0.29939735 0.22373502 0.27127615 0.35132778 0.2730999 0.28776914 0.23663685 0.18618888 -0.16008398 0.24385704 0.2679307 0.3802455 0.4484728 0.4830511 0.6103467 0.5701364 0.44875258 0.2683042 0.4415655 0.5834631 0.43769205 0.524359 0.31923673 0.42796022 -0.0285202 -0.41586387 -0.07944404 0.20633161 -0.26080412 0.014664017 -0.031232111 0.10351688 0.25562495 0.37075043 0.035770893 0.012134664 -0.5586634 0.2844856 0.38732767 0.33201087 0.13107316 -0.08815767 -0.39952707 0.2918782 0.42193264 0.48527056 0.39214367 0.24066167 -0.15641192 0.31861532 0.38520792 0.52105385 0.47996062 -0.10178603 0.25263742 0.5244148 0.4996158 0.44078496 0.53885376 0.5519459 -0.05143796 -0.04357305 -0.42803347 0.2589469 0.03708065 0.16373566 0.23565501 0.4983378 0.21065843 0.35712612 0.37863666 0.4223252 0.45034495 0.4871903 0.5003759 0.21678334 0.44878405 0.54076403 0.4729066 0.4894358 0.49368244 0.502535 0.35215586 0.50454956 0.5692644 0.59402704 0.36138302 0.3309851 0.25746125 0.24837577 0.21888085 0.45959622 0.5075657 0.5854159 0.60489297 0.34478703 0.2877426 0.3671159 0.40366888 0.33587337 0.2832226 0.2519861 0.22430927 0.07279795 0.2439846 0.24431802 0.19316185 0.19775856 0.23919033 0.22766545 0.17370576 0.090630695 0.14032 0.12805685 0.13510823 0.13392052 0.1338185 0.4191054 0.10535049 0.1884557 -0.10872633 0.16003089 0.5496971 0.59723055 0.37011763 0.3035579 0.05325441 0.521581 0.49320507 -0.07847977 -0.024722554 0.008539712 0.16199374 -0.084076434 0.26100904 0.3751747 0.36220682 -0.03681454 0.06753455 -0.40961716 -0.34508166 0.42215472 0.44520026 0.4262454 0.44548464 0.46230125 0.4845547 0.28336766 0.33251774 0.0024556816 0.41695708 0.5325792 0.20864947 0.03697133 -0.027290113 0.2444804 0.27474287 0.36952507 0.52045155 -0.007316742 0.40058374 0.14370872 0.32200947 0.12456345 0.340525 0.10356407 0.16684413 0.4312027 0.14772339 0.42611152 0.5019417 0.31626004 0.41844 0.4592604 0.48601824 0.20222566 0.52373433 0.57356244 0.45387986 0.3632623 0.61462957 0.62651724 0.39311373 0.60085917 0.62352896 0.41959554 0.43333492 0.10330213 0.17260252 0.23637658 0.46560538 0.5933028 0.62116694 0.50926423 0.49167198 0.4288136 0.31006703 0.5967194 0.57555544 0.60066473 0.599486 0.66407406 0.6647131 0.3236146 0.38065243 0.4032258 0.3578552 0.20427191 0.34545594 0.46998587 0.47489983 0.26837683 -0.034748614 0.26770946 0.4058826 0.3516603 0.1401774 -0.10473977 0.22769839 0.3266829 0.030370153 0.06384208 0.08214105 0.14185783 0.112344325 0.092956 0.15455788 0.12327699 0.048729613 -0.02635064 0.008874092 -0.080433644 0.30711126 0.34979653 0.39436436 0.5142556 0.5296646 0.3362555 0.38537097 0.49556944 0.5083501 0.30045834 0.43753833 0.017352816 0.07824192 0.37804574 -0.048608482 -0.09046378 0.16415396 -0.13625094 0.16359465 -0.064176254 0.27960724 0.09656307 -0.052471958 0.4065566 0.44746462 0.2557343 0.00995449 0.44656187 0.46289432 0.28843212 0.28154808 0.25808114 0.39403832 0.42804354 0.5116114 0.20012985 0.29696366 0.25256354 0.06645402 0.07188268 0.3732313 0.46778014 0.32976463 0.028768951 0.088937275 0.31084847 0.09595424 0.39766586 -0.008580887 0.3575686 0.055876218 0.10215816 0.41888392 0.39408928 0.4249305 0.52018917 0.2968148 0.41069263 0.41895634 0.4406579 0.26236928 0.5664008 0.5866589 0.37420547 0.6279402 0.39569473 0.6374017 0.64151233 0.47734702 0.2762999 0.33934927 0.5667702 0.62798226 0.54915595 0.55444354 0.2821894 0.18978521 0.60409 0.63167053 0.5765609 0.48062497 0.45440507 0.69458485 0.72007036 0.72409475 0.6812283 0.588724 0.7588316 0.7554139 0.7378484 0.5171515 0.53185433 0.3350901 0.37298703 0.3106753 0.15819603 0.4230888 0.48756915 0.51319736 0.46493733 0.2978437 0.08706939 -0.111254774 0.15245539 0.38547143 0.21518576 -0.22320928 0.24002491 0.38741904 0.26607287 0.21096617 0.05594287 0.040469304 0.3509377 0.06070248 0.01948004 0.5183064 0.5117477 0.46662778 0.025452882 -0.07250588 0.050414015 0.18263318 0.33935136 0.36624998 0.37434596 0.5101325 0.3500294 0.4787686 0.29743642 0.313515 0.42525947 -0.022457004 0.42325544 0.48187178 0.5138061 -0.03970921 0.5594109 0.62344694 0.55619264 0.6782056 0.7481638 0.76341605 0.5367259 0.7058795 0.7406926 0.7603767 0.41554627 0.29610738 0.7230091 0.72882867 0.58650416 0.6190977 0.38809884 0.6683967 0.402673 0.29073668 0.40495336 0.14800444 0.2316739 0.14518204 0.46840957 0.462703 0.3032159 0.25037 0.114136726 0.20277533 0.1317907 0.50503665 0.5055888 0.4034589 0.07372351 0.12064941 0.21957088 0.36216146 0.36362287 0.37260294 0.04167907 0.37412068 0.46079803 0.3356726 0.50134647 0.6043542 0.3205818 0.626382 0.38436162 0.6239432 0.62346005 0.49348682 0.623172 0.58700657 0.26746872 0.10034311 0.37085545 0.51004434 0.6398835 0.6672549 0.46973252 0.72518903 0.7476171 0.6874845 0.6554965 0.7713535 0.78599024 0.7811301 0.31658632 0.40253234 0.42360282 0.53440166 0.49364936 0.26033893 0.31204873 0.22144842 -0.09017898 0.15719056 0.48115903 0.23438588 0.3606856 0.279985 0.21911354 0.23445292 0.5550913 0.5340258 0.5428543 -0.10947127 0.104010776 0.24873318 0.26482546 0.43480983 -0.1079322 0.252762 0.25168842 0.48702347 0.40457284 0.29477143 0.031413987 0.31291837 0.31248006 0.49970034 0.47558004 0.4786086 0.22531766 0.42644718 0.4511422 0.3617109 0.05457721 0.37317652 0.43278837 0.48735422 0.5460905 0.26683527 0.11887793 0.21915342 0.3499108 0.5700495 0.6661403 -0.0044181794 0.74616575 0.35049215 0.10566073 0.66532725 0.7434783 0.728076 0.6626345 0.5467098 0.6575507 0.6834321 0.7046412 0.71455383 0.686322 0.72921443 0.69583714 0.064550385 0.3393603 0.72614527 0.68223464 0.6276504 -0.08499383 0.102364056 -0.09024808 0.114037275 0.14903368 0.41533396 0.3130433 0.103768304 -0.02864106 0.1246625 0.26751208 0.25804746 0.5025313 0.47877753 0.40982622 0.032737486 0.054403752 0.031343333 0.20056504 0.22582111 0.27649516 0.29537955 0.31796739 0.5428557 0.5170988 0.4551337 0.028716758 -0.18944308 0.38405457 -0.0782988 0.5226035 0.20962542 0.5818465 0.31119555 0.27019683 0.57977414 0.5955027 0.4525414 0.5919335 0.45877725 0.56497467 0.27470288 0.56589204 0.57259285 0.6281025 0.5965649 0.5033553 0.6956192 0.7198395 0.75642586 0.6831951 0.64622074 0.7669245 0.79065394 0.7614729 0.70073587 0.51945126 0.5244946 0.5058617 0.47406024 0.40985656 0.4554007 0.2952371 0.2993079 0.28261834 0.15968598 0.1151266 0.26544642 0.3659711 0.34912243 0.47323507 0.24505699 0.25802135 -0.08115524 -0.1010266 -0.0091286525 0.3098405 0.12518226 0.3431837 0.27091765 0.56410414 0.4858056 0.36025274 0.009863496 0.14478967 0.62329686 0.58796763 0.59916174 0.5836822 0.036912736 0.24780895 0.28333393 0.5905479 0.66137725 0.64483416 0.6011117 0.59214574 0.14345711 0.22339931 0.2793869 0.27269915 0.21798237 0.6404834 0.6745346 0.67708755 0.61269087 0.50154686 0.21948159 0.67635554 0.66774213 0.6494683 0.2528817 0.21320331 0.089584544 0.40295964 0.31696242 0.4154395 0.48667952 0.53038347 0.48942384 0.554757 0.63926417 0.6679126 0.6558001 0.6525302 0.31730092 0.5324163 0.5932894 0.6312862 0.6498375 0.73920727 0.7204273 -0.3811728 0.7477168 0.122585334 0.2188523 0.7317947 0.71485686 0.24645832 0.3623612 0.6642429 0.47755542 0.40456536 0.30822802 0.12923762 0.3506278 0.20371099 0.12733106 -0.1200576 -0.050080985 -0.39861363 0.19366342 0.090804815 -0.051006466 0.24571124 0.36911666 0.31305102 0.020454317 0.048924446 0.047610305 0.43739146 0.5233377 0.51175374 0.43662378 0.0019033104 -0.037950307 0.207993 0.3146402 -0.21188663 -0.109954834 0.5455826 0.19154528 0.5253998 0.25480193 0.4980967 0.55885667 0.39031482 0.40864468 0.25597408 0.4935667 0.57932776 0.5417348 0.6125399 0.58555955 0.64120525 0.72233605 0.6848588 0.64896 0.64994556 0.73311156 0.6832216 0.57486176 0.5743546 0.5636473 0.5171072 0.58493185 0.5775935 0.5522888 0.5511981 0.5263539 0.49233702 0.5089787 0.58033943 0.59210694 0.5623018 0.5719148 0.5093837 0.454257 0.32113332 0.57159823 0.53959525 0.5072977 0.26576766 0.040792886 0.19752257 0.46144158 0.38800868 0.43378133 0.22641036 0.25829166 0.073009744 0.118466154 0.04641966 0.44589797 0.4704522 0.45807713 0.44174257 0.5870801 0.53173864 0.3529492 -0.031451978 0.227523 0.4820983 0.47080693 0.47767523 0.54744464 0.5288974 0.51735973 0.3960787 0.5985709 0.5928669 0.17671391 0.20692143 0.2585752 0.27422842 0.234594 0.5960529 0.5182493 0.5766835 0.51792884 0.4180656 0.5719791 0.23405822 0.6020148 0.5490487 0.60815746 0.5983385 0.5227218 0.39550728 0.117033236 0.60702133 0.6572085 0.663046 0.6112447 0.56677806 0.28964975 0.32990974 -0.12255395 0.65089405 0.6369194 0.5943413 0.42527127 0.2976699 -0.19171649 0.22332531 0.36466765 0.5091812 0.5689532 0.590735 0.58590204 0.5778883 0.550854 0.5487079 0.09138553 0.48354572 0.639503 0.1775396 0.42089343 0.46787593 0.7444308 0.6647996 0.546572 -0.02562169 0.075011596 0.16036041 0.74838406 0.7245888 0.23634076 0.7316296 0.72117114 0.3799572 0.6604868 0.58926827 0.42154706 0.314362 0.32472506 -0.114674225 0.119197875 0.35784435 0.4192703 0.44379425 0.15832928 -0.0709502 0.03806118 -0.14671496 -0.052109405 -0.2682665 0.13257925 0.046991352 0.044682484 -0.08211831 0.2761134 0.24917069 0.11527874 -0.008213466 0.035971954 -0.454441 0.39794683 0.45404625 0.4576302 0.31348813 -0.0016283393 -0.12466675 -0.29502594 0.009126096 0.49343577 0.07659106 0.13057198 0.20090541 0.15743755 0.3989309 -0.030342065 0.5510101 0.5791286 0.658955 0.45276713 0.5345665 0.6072004 0.58765996 0.58536905 0.5656386 0.51277226 0.39467874 0.48427117 0.5601317 0.58001685 0.5872604 0.5700364 0.44388872 0.273048 0.442697 0.56601447 0.56673574 0.5514326 0.5333711 0.4966451 0.6681117 0.50402355 -0.28684163 0.22839619 0.49701574 0.4830525 0.53175795 0.5061238 0.46248662 0.4009047 0.609557 0.6772463 0.22519812 0.3476112 0.46114713 0.4113307 0.3571414 0.58825713 0.64161897 0.16095494 0.06499386 0.24386273 0.22295219 0.36335772 0.37535512 0.3623296 0.3143893 0.5312211 0.60029596 0.6549585 0.6759073 -0.0024623796 0.071973674 0.47919005 0.51769066 0.548114 0.5608249 0.39940315 0.40727103 0.3639023 0.35631528 0.36041406 0.5989375 0.6504608 0.6677506 -0.044762146 -0.024095751 -0.06788218 0.089328684 0.16252664 0.5374546 0.5842934 0.5950098 0.454371 0.42939356 0.30159163 0.54229105 0.5726358 0.6358743 0.5320292 0.50514805 0.29584223 0.2004813 0.16980058 0.35691062 0.4886344 0.60115016 0.6264379 0.4857083 0.27498293 0.37527794 0.5465193 0.44671446 0.43136322 0.40161866 0.16741055 0.37840262 0.55732167 0.63517517 0.59162474 0.4834295 0.5143801 0.339404 0.3117406 0.20528565 0.08610839 -0.23959732 0.16831183 0.59550786 0.6031854 0.5709825 0.45698184 0.18437912 0.22210456 -0.459008 0.58268887 0.6232309 0.59620464 0.5584404 0.5079423 0.57929575 0.5357126 0.47212833 0.1372305 0.064781256 0.28366157 0.3768406 0.49915668 0.52480155 0.5790186 0.5853654 0.56556726 0.56452054 0.5458559 0.47633496 0.47479206 0.37505808 -0.065049924 0.37804592 0.4208002 0.2597531 0.36231703 0.18138789 0.6671971 0.53088427 0.35780433 -0.11904921 -0.1000621 0.6881376 0.5996499 0.45297277 0.69228727 0.62318236 0.38255936 0.580289 0.45892456 0.45834398 0.4374566 0.44384724 0.45945424 0.4357917 0.32442528 0.25988352 0.09669033 -0.022718057 -0.04387954 0.026337873 -0.11373732 -0.31901526 0.16836147 0.31056136 0.37718546 0.39874876 0.17955045 0.065066494 -0.01178845 -0.1055731 -0.33970085 -0.28422785 0.24725431 0.338211 0.3506759 0.29163653 0.19643278