# vtk DataFile Version 2.0
Really cool data
ASCII
DATASET POLYDATA
POINTS 11047 float
-1.6544726 23.893427 37.71271
-1.6381752 23.922495 38.1075
-1.7603809 24.762857 36.550076
-1.8959713 24.630747 37.580334
-1.7165226 24.617983 38.55669
-1.8788983 25.913134 35.63142
-2.1496716 25.6613 36.694176
-2.156528 25.516058 37.554485
-1.9745902 25.318478 38.128193
-2.0848832 26.223106 35.83148
-2.2849278 26.622824 36.6151
-2.260884 26.628925 37.353413
-1.8939952 26.48089 38.132305
-1.9779512 27.486427 36.16169
-2.1456504 27.328424 36.676884
-2.0728679 27.324236 37.458847
-1.8730677 27.325876 37.861004
-1.7050924 27.791016 36.050728
-1.8125137 27.769787 36.46476
-1.8956299 27.772898 37.178688
-1.53522 31.70802 31.302582
-1.5350106 32.376823 31.36129
-0.6643735 22.101625 36.9118
-0.8287892 22.11993 38.264812
-0.66599286 22.24138 39.967297
-0.7891356 22.357378 36.869816
-1.1394911 22.63729 37.57331
-1.0061511 22.563715 38.683937
-0.9992949 22.813684 39.59892
-0.9633052 22.856903 40.33817
-0.7409219 22.932169 40.928375
-1.3174629 23.590647 36.936127
-1.3779525 23.43942 37.941208
-1.336965 23.428661 38.302956
-1.1932619 23.556557 40.355515
-0.8701526 23.582905 40.96857
-1.362226 24.400497 36.04968
-1.5183831 24.483755 36.39943
-1.1316124 24.528376 39.537018
-0.9752403 24.2822 40.585705
-0.8487755 23.989082 40.943356
-1.6085873 25.493277 35.41719
-1.3917898 25.271978 39.03582
-0.6749606 27.169867 30.139627
-0.8373154 27.010967 30.874985
-0.8272921 26.91254 31.315638
-1.110359 26.463083 38.671173
-0.68120503 27.592983 29.807875
-0.90947616 27.669882 30.576912
-0.9656768 27.578745 31.376371
-0.79121935 27.642466 31.97149
-1.4153035 27.485258 38.109367
-0.77422404 28.725658 29.712608
-0.9153234 28.458385 30.398453
-0.9968958 28.836706 31.296696
-1.3369349 28.138796 36.515133
-1.457612 27.984024 37.431545
-1.4472938 27.747309 37.912785
-0.57148886 29.460169 28.873922
-0.72942615 29.488697 29.329895
-0.7973224 29.446712 31.314253
-0.7449782 29.30946 32.014553
-0.6872412 30.197744 29.030533
-0.93114793 30.29028 29.6077
-1.3905518 31.136467 30.896214
-1.1291845 30.772362 31.387856
-0.7162236 31.133928 29.12623
-0.9056033 31.4842 29.694857
-1.2117712 31.445383 30.550863
-1.448925 31.592741 31.485153
-1.3785053 31.657537 32.010807
-0.7374977 31.337797 33.085457
-1.0350187 32.26602 29.961554
-1.3810502 32.37926 30.821081
-1.425636 32.52314 31.517675
-1.3253239 32.457363 32.1066
-0.933992 32.117607 32.809517
-0.6181612 32.960396 29.507053
-0.98820865 33.273296 30.822512
-1.1987077 33.029182 31.40636
-0.8838459 33.255592 32.24902
-0.6868563 32.897682 33.06103
-0.6463337 34.081776 31.16664
-0.002195567 21.075579 36.592457
0.032283545 21.151863 37.49302
-0.026233405 21.786299 35.700825
-0.29660377 21.510635 36.505074
-0.50097334 21.63915 37.48492
-0.26263532 21.603418 38.441418
0.008114636 21.81462 40.48489
0.09563509 22.054169 41.112774
0.32944927 22.507734 34.723408
-0.18820265 22.266645 35.809284
-0.26414615 22.568264 41.155994
0.111951075 23.002375 41.605637
-0.16493681 23.765068 35.12187
-0.44774902 23.292244 35.68285
-0.4529515 23.533316 41.303463
0.041906103 23.262556 41.57426
-0.34205282 24.512697 35.11767
-0.3037324 24.214401 41.136536
0.067475766 26.131176 30.11071
-0.3567781 26.322273 30.856346
-0.037555724 26.154697 31.459337
0.30382216 26.324026 32.775547
-0.6616517 25.839087 34.764503
-0.07455278 25.100325 40.211945
-0.16426355 24.735754 40.772346
0.23392072 26.754513 29.301086
-0.13249165 26.748587 29.56395
-0.5097648 26.59217 31.467863
-0.11464313 26.456898 32.234917
-0.20297566 27.560358 29.20372
-0.46522722 27.530048 29.565796
-0.01185441 27.317099 33.191795
-0.2053804 27.121014 38.746994
-0.42067885 28.685175 29.067297
-0.51725006 28.729624 32.1475
-0.23395497 28.592766 35.000294
-0.6755561 28.48385 37.358963
-0.08462596 29.5845 28.325142
-0.28252336 29.764938 28.529825
-0.5358667 29.731628 32.404568
0.16158111 29.181898 35.32973
0.115176514 28.838512 36.83046
-0.3589034 28.676504 37.4101
0.17328966 28.715183 37.837006
0.015801936 30.254189 28.241447
-0.32002196 30.295517 28.537682
0.003815651 30.52019 33.331738
0.0025047362 31.01368 33.71739
0.09161596 31.547825 28.091032
-0.47885987 31.469427 28.928097
0.31451264 32.64295 27.77025
-0.197321 32.286667 28.496534
-0.17791721 33.51011 28.726992
-0.18270719 33.507423 33.237625
0.1553331 34.62003 27.680174
-0.071055055 34.629993 28.23292
-0.26689962 34.60997 30.795427
-0.12191814 34.262753 33.093273
0.30190438 35.173782 27.562704
0.26028386 35.315723 28.788818
0.36127898 35.36251 30.153074
-0.2596071 35.12204 31.572838
-0.25407118 35.623722 32.495644
0.22502145 35.340588 33.868786
0.30995554 36.644924 29.815077
0.027099103 36.575577 30.532812
-0.1858426 36.33225 31.499882
-0.061378002 36.48565 32.526825
0.029373288 36.32748 33.332043
0.31776965 37.190178 29.948458
0.17616484 37.56808 30.888577
0.28328276 37.69298 31.419481
0.10571483 37.354168 32.619064
0.20141771 37.4648 33.342316
0.38703987 37.284138 33.904617
0.39018023 37.969444 31.689774
0.27644336 38.033344 32.450016
0.3008401 37.918983 33.3944
1.1869179 19.183666 34.86919
1.1816314 19.03977 35.56317
1.1806695 19.163057 36.09712
1.3294 20.097746 34.087708
0.96917903 19.706636 34.835144
0.8162248 19.558916 35.377758
1.0129261 19.532894 36.14452
1.0088911 20.369474 37.939564
1.2034483 20.38891 34.09522
0.7902169 20.617315 34.621803
0.5421813 20.246855 35.59762
0.5246279 20.623327 37.092197
0.581468 21.14268 38.39407
0.7930486 21.36575 40.46681
0.9171848 21.399666 40.88366
1.1169102 21.196589 34.023575
0.7741699 21.657404 34.545998
0.5383968 21.527826 40.74939
0.70670533 21.675135 41.200554
0.8797544 21.98971 41.661972
0.904979 22.734186 34.093708
0.45438266 22.174519 34.96363
0.36015788 22.33207 41.570656
0.6889533 22.530766 41.739933
0.64728695 23.252506 41.718067
1.192563 25.21054 29.089891
1.3284768 24.401567 30.381514
0.5660852 24.289335 41.21486
1.0129377 25.514643 29.356522
0.5815579 25.156446 40.34522
0.41472697 24.70244 40.83672
1.2771963 26.939991 16.058891
1.1988947 26.91161 16.580965
1.1534497 27.038607 17.184496
1.3322232 27.126486 17.930853
0.5395923 27.028433 28.989658
1.2505834 27.62069 15.92083
0.9838077 27.599989 16.620096
0.9614899 27.623878 17.341408
1.2564366 27.44941 18.096584
1.056661 27.374063 28.65593
0.93094283 27.130432 39.02747
1.2989337 28.366703 15.188107
1.1716058 28.521156 15.663425
1.0089428 28.39272 16.37219
1.0231066 28.510223 17.197298
1.1496936 28.296816 18.141708
1.4299945 28.623814 19.569357
1.4748485 28.74372 21.322361
0.54720557 28.377878 28.57158
0.66362876 28.369284 38.538147
0.7037034 28.19886 38.63781
1.3036065 29.290815 15.5845995
1.1049632 28.875368 16.401003
1.3372144 28.994 17.336674
1.445939 29.435944 19.079155
1.3189654 29.091478 19.400503
1.3931935 29.401829 20.2103
1.3968273 29.588097 21.37143
0.6718679 29.236877 28.08744
0.3484663 29.28636 36.03245
0.7477765 29.096786 37.49937
0.42545795 28.646593 38.0696
1.4192355 30.062544 20.395252
1.4228284 29.928123 21.259068
0.62704855 30.738852 27.843689
1.1797343 30.790665 35.595562
0.5735436 31.763706 27.78965
0.7196692 32.75328 27.588646
0.44870043 32.202427 33.85473
0.6433407 33.751904 27.205315
0.73549986 34.229362 26.98936
1.19874 35.885834 26.249968
0.8464535 35.4946 26.748741
0.47578722 35.74896 27.946648
0.81709135 35.56619 34.374325
1.1797941 36.4104 26.23447
0.94275546 36.595036 26.654657
0.61423 36.07746 27.429861
0.57531124 36.58636 34.326084
1.1783869 36.171555 35.137753
1.1764421 37.199932 26.654585
1.1821561 37.51293 27.22733
0.58474314 37.543365 34.076256
1.2841095 37.19216 35.108185
1.20261 37.88243 27.585829
0.8765874 37.90287 29.036373
0.5918087 38.064053 30.002827
0.5865028 38.284473 30.436285
0.6116484 38.41654 31.85917
0.603115 38.423252 33.370255
1.0759726 38.09525 34.50633
1.202466 38.049282 34.66987
0.9158077 38.906685 30.808537
0.9697052 38.828575 31.064863
0.90898407 39.016766 32.494453
1.10909 39.238705 33.320427
1.0831196 38.74281 33.97415
1.3986702 40.103615 32.756123
1.9557205 19.167362 34.17842
1.7939605 18.88797 34.78965
1.5853043 18.801283 35.38109
1.5446062 18.960087 36.09242
1.9155606 19.14938 36.752472
1.5865674 19.751957 34.09148
1.581139 19.843636 37.077587
1.6196713 20.069355 37.875813
1.368598 20.453814 33.908127
1.558671 20.621964 38.57196
1.114855 21.264778 40.65906
1.9539024 21.456764 33.48312
1.5384439 21.707884 41.45038
1.2912217 21.974527 41.6887
2.121089 22.603815 29.539217
2.0714996 22.612415 30.105955
2.298133 22.97996 31.633028
1.4214238 22.577953 41.797413
2.2641084 24.051733 26.103825
2.3549626 23.876501 28.320997
1.6319947 23.82403 29.969988
1.8270074 23.335999 30.54603
1.5585147 23.565716 41.48422
1.341319 23.26067 41.706085
2.2661612 24.683897 24.639112
2.17961 24.340742 25.533527
2.1037116 24.643585 26.40743
2.128225 24.629173 27.450974
1.7175283 24.857166 28.381172
1.5878887 24.251791 29.667452
1.7427735 25.26333 33.133873
1.279553 24.292831 41.102497
1.9147173 26.210033 16.080023
1.8462467 26.185392 16.509205
1.9913003 26.184258 17.10067
2.1430418 25.902948 24.575132
2.009485 25.583294 25.832483
1.7407978 25.879091 28.095917
1.9528279 26.847649 15.367337
1.7239809 26.71775 15.765902
1.4873552 26.51465 16.238726
1.5017759 26.46127 17.010683
1.6229976 26.892223 17.994715
2.1239588 26.478762 24.70329
1.9981657 26.462719 25.912481
2.1182725 26.779062 26.182077
1.9094837 26.386736 27.647793
1.9344573 27.663227 14.974098
1.402379 27.45959 15.467349
1.4144596 27.594131 18.502483
1.7212789 28.099518 20.956821
1.9802618 27.86169 21.778048
1.9757731 27.726017 22.22066
2.4579713 27.800493 23.788067
2.1807847 27.781536 26.088676
1.6591302 26.984652 28.297464
1.3582414 27.619558 38.807697
1.7540259 28.605946 14.715183
1.5897133 28.683962 21.317186
1.7542794 28.56992 22.178152
2.179698 28.280119 23.753988
2.2647793 28.50016 25.42204
2.237084 28.09891 26.426857
1.8105655 28.009418 28.371998
1.4266887 27.956535 38.720753
1.7084194 29.42802 14.847846
1.5387865 29.68707 16.779354
1.4825684 29.486034 16.990263
1.6633786 29.698458 18.931805
1.5546066 29.665663 20.54797
[...]
POINT_DATA 11047
SCALARS features_00 float 1
LOOKUP_TABLE default
0.3450098 0.3569047 0.3767805 0.39564782 0.39921108 0.46630996 0.5126862 0.50730824 0.47018543 0.55620754 0.61756384 0.6081909 0.5930822 0.57270694 0.5913339 0.5796714 0.57426816 0.50703317 0.5373217 0.5456453 0.39420575 0.4024462 0.29330617 0.30378658 0.5651262 0.2851087 0.28898776 0.3192751 0.49338168 0.6547848 0.7172909 0.29180396 0.31748387 0.32929486 0.6461056 0.7236394 0.29624718 0.3304425 0.53674036 0.6723651 0.71406484 0.3563938 0.44424403 0.3979684 0.42698878 0.42157215 0.5224695 0.37741667 0.42292246 0.41720763 0.37592816 0.53359544 0.35558224 0.3988066 0.3596916 0.46404564 0.5072231 0.52127016 0.28652614 0.29796505 0.31109014 0.30201665 0.26298353 0.2753837 0.35782653 0.3427109 0.25079605 0.28452608 0.35094804 0.39278573 0.39497018 0.34918275 0.31914693 0.37588835 0.40585047 0.40755248 0.3792134 0.26094764 0.33362898 0.3876413 0.37406152 0.3243422 0.24449372 0.32978556 0.3235729 0.2628205 0.3052417 0.31074765 0.3229033 0.6181117 0.7133631 0.18174627 0.23330313 0.7293389 0.7687609 0.16681151 0.20580444 0.7486465 0.76550555 0.19613497 0.7131816 0.31887 0.39255673 0.35550708 0.27818635 0.20762837 0.561461 0.65354234 0.27638036 0.32973555 0.40652716 0.3612566 0.3126329 0.35265824 0.28417075 0.43010777 0.31204653 0.30597973 0.22603878 0.43616533 0.25814143 0.26189855 0.28478342 0.14880952 0.337935 0.4134001 0.4230652 0.23376168 0.24682526 0.26814052 0.21162677 0.1930703 0.23936126 0.16157012 0.21718939 0.2239205 0.20560391 0.3014411 0.24645665 0.12284635 0.20773502 0.317783 0.16648337 0.09321734 0.15671967 0.26460394 0.25100935 0.17440537 0.19195414 0.21866 0.30370477 0.34161833 0.2072556 0.23634626 0.2527153 0.31850737 0.3541488 0.36656672 0.26027575 0.29992366 0.34791708 0.59993696 0.59602565 0.5300323 0.47722414 0.5503309 0.559229 0.5036634 0.2850601 0.42845902 0.39963087 0.45727995 0.350496 0.30020377 0.5541338 0.64443165 0.29546374 0.26347816 0.63638043 0.70905614 0.7517183 0.13942985 0.21972919 0.7554476 0.77532184 0.768132 0.06493346 0.10331533 0.6759002 0.10411864 0.49199983 0.62740284 0.6959796 0.69689715 0.6836958 0.64386344 0.2271999 0.6811577 0.6747425 0.636765 0.589559 0.16325888 0.34252656 0.64263666 0.62620723 0.6145774 0.51105165 0.4195997 0.23041256 0.27758873 0.24987742 0.4245195 0.42336357 0.54078656 0.532678 0.376648 0.22083923 0.23558295 0.25487095 0.28097305 0.23038493 0.17912853 0.35521424 0.4266657 0.24826539 0.27343935 0.184649 -0.12273932 0.13896553 0.1226753 0.09840114 0.2262753 0.27332973 0.36263984 0.35265428 0.2728046 0.2652947 0.37260908 0.35894877 0.32044813 0.3573599 0.3193511 0.34161246 0.2848193 0.36446673 0.3689672 0.2327185 0.18136677 0.20332927 0.21010405 0.2525918 0.32783195 0.35560122 0.35994697 0.19584805 0.20575708 0.25419736 0.27550593 0.32019034 0.19807339 0.5750581 0.61684966 0.61047417 0.5268376 0.37418732 0.5233813 0.3232174 0.24031177 0.41035175 0.21236041 0.58249193 0.27243727 0.72027504 0.7550172 0.1778688 0.17203645 0.06445492 0.7772522 0.25820214 0.036528837 0.12231322 0.1413105 0.68224275 0.74222887 0.36729103 0.3034319 0.1634115 0.027929664 0.03766294 0.09072256 -0.08463918 0.60158813 0.68421865 0.6908148 0.68457043 0.23421398 0.168896 0.012785174 0.67082834 0.69060826 0.6981317 0.6997635 0.6338012 0.1436998 0.094957784 0.04805783 -0.10221988 0.6437244 0.6809331 0.48812598 0.2508529 0.2466791 0.23704688 0.051855132 0.058456726 0.054215558 0.33028063 0.62715137 0.27578652 0.25075817 0.058636658 0.022468172 0.03602437 0.07475573 0.3407333 0.5860039 0.31869096 0.3211056 0.19726089 0.26168028 0.26197374 0.009773083 -0.03320488 0.47531667 0.3740332 0.26116675 0.17522672 0.22514689 0.23986146 0.25845832 0.22860083 0.11199516 -0.029438984 -0.07112921 0.303965 0.2810361 0.09873016 0.1688833 0.19200847 0.2010406 0.16657957 0.027646871 0.118751064 0.28599513 0.16692795 -0.025205618 -0.02902397 0.09763485 0.19052556 0.28733438 0.07921411 0.2075986 0.3260271 0.21543387 0.22136095 0.1362257 0.27816552 0.34795207 0.27048108 0.37111247 0.34062392 0.32251778 0.36058664 0.32479575 0.38020372 0.40007594 0.25013906 0.20703822 0.16483289 0.3519019 0.3653245 0.1391142 0.09105784 0.097482696 0.08555752 0.30194023 0.13867828 0.1981682 0.18849504 0.19192484 0.22549534 0.20127559 0.18548001 0.28288454 0.3164119 0.29107207 0.26145902 0.18387383 0.58211935 0.2824626 0.7655735 0.7258496 0.68316925 0.51665354 0.8346716 0.7942423 0.6752454 0.5497312 0.61686426 0.578974 0.3594852 0.48247415 0.50979316 0.5130744 0.4274856 0.21820939 0.1460451 0.29648247 0.14439201 0.32624057 0.3135589 0.13910161 0.1790079 0.47961375 0.66846675 0.38584197 0.37863907 0.32418385 0.17042556 0.71121 0.7453803 0.2800972 0.3550747 0.3892826 0.31912678 0.6226584 0.25621372 0.31055176 0.35997584 0.507903 0.6454542 0.6530489 0.65408695 0.06380999 0.61105657 0.62210226 0.07741235 0.1336649 0.59726596 0.029017404 0.0099286 -0.036954522 -0.018962964 0.2858927 0.08380301 -0.0515131 -0.20842472 0.4394105 0.2596048 -0.008111294 0.09713672 -0.2461236 -0.18601966 0.021388628 0.13784328 0.16215807 -0.06322077 0.36364415 0.41792464 0.10226697 0.14940289 0.17665605 0.19019619 0.04816088 0.37476662 0.38877577 0.34620717 0.3342812 0.22481385 0.23140024 0.19383506 0.3310657 0.44644916 0.4273687 0.39124542 0.39028665 0.28315544 0.27188945 0.32984158 0.46062082 0.4209953 0.43405074 0.42685992 0.39454877 0.37254035 0.35867447 0.4836666 0.45428586 0.44079602 0.44348395 0.41215444 0.3704377 0.27491254 0.09158388 0.1969661 0.052916422 0.54798734 0.16583206 0.13419631 0.68480027 0.6493341 0.5346139 0.32503211 0.12393364 0.13252941 0.7292376 0.74958754 0.36713225 0.25110596 0.86720717 0.86978674 0.8334973 0.67479277 0.5132024 0.93098927 0.9339205 0.8989874 0.8010284 0.70124507 0.7069556 0.64605325 0.6629698 0.6470941 0.46716866 0.25148103 0.17515883 0.120056696 0.4959399 0.55051947 0.56494814 0.60034865 0.47435346 0.3991527 0.16066757 0.37770718 0.33198416 0.3067469 0.21657287 0.36736554 0.3789336 0.38203713 0.27788675 0.16458124 0.36216864 0.55823547 0.5634837 0.29595393 0.14623041 0.080901936 0.44920185 0.22823241 0.089100055 0.35026756 0.37366354 -0.047232598 0.42541498 -0.04854203 0.37570328 0.4632104 0.1564348 0.45363396 0.45690086 0.30663848 0.031119283 0.085848406 0.49120408 0.3924971 -0.24675992 -0.017737046 0.105108336 0.4764752 0.47700208 0.46690583 0.44914693 0.2779237 0.124287054 0.08462052 0.24367055 -0.12897772 0.41373092 0.4846061 0.5202037 0.48661473 0.32068112 0.2056058 0.110738695 0.22086778 0.30259869 0.33066255 0.34987175 0.38257393 0.5414808 0.53053075 0.34292167 0.2496711 0.178406 0.36178434 0.2575924 0.3038092 0.5386033 0.5223937 0.49221343 0.4535703 0.44361392 0.4394772 0.3877461 0.3144784 0.25230613 0.35711065 0.5170536 0.49403936 0.4467699 0.44246483 0.43318036 0.39507204 0.30085897 0.35094061 0.425184 0.15389557 0.3708312 0.16694354 0.3097574 0.26576793 0.49466187 0.15424179 0.64666533 0.11457579 0.42762005 0.7407142 0.12214249 0.20329687 0.44188595 0.7896336 0.8504896 0.540921 0.3804639 0.94598675 0.9874301 0.9569313 0.8275828 0.7206523 0.7468635 0.7565357 0.736811 0.67657614 0.7226443 0.7157825 0.23863687 0.17205189 0.10464494 0.5664837 0.43727458 0.15491226 0.39314422 0.25653487 0.35574374 0.352884 0.4309191 0.2969002 0.35698962 0.48646212 0.3110404 0.19280541 0.23589933 0.52789396 0.35017073 0.30215573 0.1829772 0.5591957 0.3177745 0.32251254 0.24103424 0.58948386 0.59304094 0.26715815 0.10306716 0.31246212 0.28644937 -0.068415985 0.36750478 0.34355658 -0.0734475 0.360643 -0.012611039 0.33854246 0.1902441 0.41898173 0.612949 0.6873468 0.66072875 0.58843684 0.54368055 0.32838684 0.39431554 0.60398054 0.6695107 0.6650729 0.63682866 0.56524426 0.42358217 0.41296846 0.5135225 0.5924384 0.6353415 0.62698984 0.591925 0.4915471 0.36697963 0.33227962 0.32139936 -0.20720708 0.472573 0.5846441 0.49115768 0.3727973 0.29610175 0.28069338 0.4486934 0.08685144 0.16968514 0.24062756 0.38097703 0.12593216 0.3449865 0.23202166 0.119199924 0.26672328 0.46928966 0.4965015 0.4438433 0.41889888 0.40477413 0.3739518 0.25975507 0.34000382 0.4149242 0.40027183 0.39250028 0.39076728 0.37321347 0.10746016 0.4372887 0.41594023 0.3741714 0.34115875 0.40324518 0.20184453 0.31231996 0.48551518 0.45289567 0.43091893 0.3407759 0.39807802 0.5542302 0.5421464 0.54318684 0.4628402 0.36411703 0.26781482 0.5370624 0.5558075 0.5930443 0.6115992 0.5955429 0.51641643 0.4397661 0.5971949 0.6519114 0.63860184 0.58027446 0.52407265 0.478257 0.6768973 0.19568154 0.47472733 0.51145667 0.65893817 0.75119317 0.7967639 0.7501663 0.60459614 0.46971738 0.50656873 0.60045594 0.64098155 0.80761325 0.8498925 0.8342769 0.7518824 0.7618846 0.78215575 0.8050013 0.3651166 0.1694816 0.7369758 0.790752 0.17198244 0.58244157 0.4372207 0.50783217 0.3202162 0.19702402 0.27513573 0.5309303 0.39461857 0.3475914 0.3086827 0.5871184 0.42302012 0.4201754 0.6153914 0.37370962 -0.19944541 0.34558827 0.5794028 0.6328414 0.6355303 0.035309095 -0.17738965 0.14681229 0.2868801 0.2609477 0.20654449 0.11278818 0.32153487 0.26952174 0.25125146 0.37760457 0.12675431 0.4969083 0.7263012 0.67897475 0.61759406 0.5454366 0.6223422 0.72450995 0.7174895 0.6697103 0.504848 -0.13657439 0.1360547 0.64111024 0.65336657 0.670253 0.36545393 0.4408421 0.5604398 0.6000066 0.5863592 0.2676646 0.44048148 0.13657577 0.31304932 0.5143559 0.48656753 0.24619916 0.23362684 0.006021157 0.21642384 0.25652766 0.121823296 0.20882523 0.17467561 0.22538477 0.26376265 0.30571723 0.28266597 0.19173989 0.3864368 0.33386403 0.21373431 0.20360872 0.37616694 0.3604882 0.27372608 0.27541572 0.35441554 0.38753465 0.42469543 0.42015785 0.41383654 0.4660436 0.4553917 0.27094078 0.38762912 0.40687555 0.54260385 0.26713896 0.2269538 0.1703392 0.54008156 0.6099136 0.56662494 0.60764164 0.3550564 0.23888549 0.4661546 0.36849254 0.68773365 0.5797183 0.6210239 0.64673954 0.6204593 0.5250447 0.4699613 0.6115457 0.647341 0.50058186 0.693086 0.7411288 0.63977754 0.5673886 0.52591735 0.4651361 0.6649623 0.6520755 0.4028858 0.22406928 0.5768274 0.6352886 0.69317573 0.7514669 0.6359475 0.6910045 0.72832054 0.5554224 0.5241435 0.50728226 0.41820282 0.39064568 0.7213345 0.71464646 0.49195123 0.34487867 0.36653477 0.36269128 0.6752828 0.68826294 0.39988148 0.3237662 0.5139285 0.8813834 0.29957685 0.43573874 0.47613212 0.49740773 0.5280769 0.41734436 0.398163 0.34580365 0.18030185 0.5640102 0.39367077 -0.038837936 0.63019246 0.6241597 0.35853624 0.5611728 0.63413596 0.17185721 0.08062794 -0.14845228 0.2635864 -0.03609498 0.25637358 0.20817451 0.08994959 0.03478948 0.10842418 0.13095656 0.34841734 0.0540997 0.44507515 0.48593152 0.7125114 0.69832414 0.63841397 0.5772486 0.46191347 0.19841416 -0.04205045 -0.117853194 -0.11908201 0.5171255 0.6008844 0.70402616 0.23864353 -0.13561495 0.61243844 0.6373023 0.63993347 0.4476357 0.59488904 0.54133224 -0.05337569 0.43615052 -0.10740734 0.13422751 0.135822 0.24663383 -0.20027758 -0.05464957 0.21652976 -0.036697324 -0.074461766 -0.08772916 -0.12657669 0.3684296 0.26156506 0.034400694 0.006170869 -0.043586303 0.065542355 0.29178858 0.40464085 0.33660692 0.025368825 0.3546492 0.21756278 -0.042812154 0.36730748 0.4275205 0.48428372 0.50099593 0.39354032 0.35387793 0.25100797 0.2613382 0.4637308 0.15599953 0.34637964 0.43063337 0.45425028 0.3257259 0.3732676 0.5025777 0.18318897 0.17899749 0.054194625 0.5166708 0.55101496 0.5013995 0.21149647 0.20396428 -0.10053578 0.6735675 0.5228305 0.5684259 0.4031478 0.057542924 0.76730484 0.5552581 0.5057726 0.5033716 0.46142814 0.42244896 0.40879402 0.352743 0.4082058 0.78933275 0.79395527 0.7061467 0.76582175 0.7946354 0.6198629 0.60932505 0.55050576 0.499318 0.56640065 0.5763761 0.4597674 0.42509326 0.4156943 0.5179353 0.3874866 0.64225054 0.6089044 0.32391724 0.504698 0.4876206 0.53964746 0.5792492 0.3581131 0.502718 0.44319355 0.3918041 0.31772614 0.4116634 0.51170695 0.38575286 -0.19166483 0.47273594 0.48279297 0.4102327 0.46010673 0.49752373 0.38368285 0.37024826 0.31373173 0.27590185 0.46551222 0.53723085 0.3376983 0.3238037 -0.07678269 0.34145483 0.59566355 0.21139315 0.29774523 -0.08494358 0.087937854 -0.24962431 0.17477041 0.11526366 0.33401486 0.17586417 0.1898251 0.34767622 0.09741658 0.12802613 0.23286909 0.30675057 0.030420814 0.21471237 0.338923 0.1177012 0.0065609664 0.6443517 0.6275326 0.57615197 0.4989158 0.32431096 0.058484912 0.52476597 0.63284004 0.4702993 0.60150504 0.5400814 0.47198117 0.33903822 0.30565652 -0.40620923 -0.35516036 0.19345745 0.06524437 0.2376678 -0.11901261 0.1080109 0.067680985 -0.23567235 0.41202152 0.4083842 0.15048267 0.356977 0.09131193 0.060223296 -0.037914313 -0.12339564 0.050592646 0.2583058 0.506266 0.44739932 0.17371 0.10446854 0.25020295 0.058056153 0.06946001 0.048772737 -0.022227164 -0.0735059 0.2695133 0.38879198 0.4506957 0.4761276 0.009899378 0.3095952 0.38521218 0.08396179 0.37798917 0.4125382 -0.17615628 0.46497798 0.23911262 0.18468264 0.5031867 0.64620996 0.6507988 0.30720308 -0.10188972 0.75633126 0.69600147 0.51255023 0.24119474 0.2689217 0.426938 0.48422453 0.1274111 0.45256728 0.8220931 0.81393623 0.34717074 0.4968831 0.5107317 0.73572695 0.79752856 0.8205 0.61348057 0.643268 0.65117514 0.6141214 0.5352873 0.57737035 0.41721338 0.39751303 0.432235 0.5368276 0.56277716 0.5121948 0.5511544 0.5495858 0.52368313 0.31676966 -0.31420878 0.3674593 0.54812527 0.26171026 0.39681542 0.30547494 0.23098141 0.12843695 0.27176678 0.28499395 0.3045019 0.20148665 0.050624304 0.29562235 0.22612488 -0.11863826 -0.0029530674 -0.039292708 0.05649803 0.10215688 0.069060676 0.18191442 0.10357764 0.16883111 0.13067414 0.41029206 0.39314932 0.0975736 0.39740705 0.33055303 0.1046408 0.35449862 0.48053336 0.3633564 0.33340278 0.15870354 0.05935876 0.5155464 0.51354593 -0.19460584 0.3668089 0.44619483 0.024717871 0.33894604 0.18132706 0.2841461 0.2588318 0.16412142 -0.5729695 -0.3993135 -0.24603516 0.2609942 -0.25361228 -0.3924951 0.2979213 -0.3004138 0.18890375 0.3851065 0.19121377 -0.09300226 0.24677296 -0.012391664 -0.019637052 -0.08292719 0.050196424 0.1321527 0.18888742 0.3594936 0.037616257 -0.04891147 -0.03695392 -0.011236973 0.07310188 0.059274256 0.028631233 0.20256682 0.26941818 0.39686686 0.2737166 0.091713786 -0.12718631 0.4023483 0.6909983 0.5779574 0.19749393 0.16207442 0.23495185 0.20221223 0.09747952 0.5184244 0.74827385 0.7148311 0.33351243 0.13079123 0.09796128 0.73619306 0.76756895 0.7532234 0.67555743 0.4776373 0.3110731 0.08720785 0.4652524 0.3690489 0.12307455 0.097389214 0.57374215 0.80594033 0.7406508 0.691133 0.37353867 0.53753 0.5270369 0.7975365 0.82473046 0.49977198 0.53613615 0.5735964 0.62484246 0.6635365 0.7001265 0.7013601 0.6136477 0.571146 0.50003946 0.47996014 0.32349837 0.2960748 0.2852623 0.55652106 0.5729158 0.49012232 0.5775572 0.5708059 0.555773 0.4538185 -0.2072286 0.5871268 -0.089277096 0.42334917 0.0899353 0.32163352 0.2172268 0.17940347 0.13426593 0.13287605 0.15739682 0.16376007 0.09683245 0.040951736 0.11900365 0.22940782 0.24558364 0.20088121 0.015142534 0.42379186 0.45231393 0.20269968 0.43995434 0.19545881 0.41728425 0.26332328 0.36271924 0.24528602 0.097302735 0.12969151 0.35016274 0.20960975 0.09847401 0.042130988 -0.20517899 0.3370629 -0.07532165 0.1903887 0.24168876 0.17167923 0.157729 0.23174012 0.10557238 0.21113414 -0.2620731 -0.33134657 0.12395619 0.20405301 0.1840741 0.15573345 0.01742246 -0.017092567 -0.044826917 0.3381617 0.24717 0.0008207625 0.00420025 0.5307046 0.037778124 0.048107713 0.22051795 0.15545121 0.17830364 0.17033459 0.17275086 0.12421369 0.04969704 0.70348316 0.64263004 0.1068017 0.38730434 0.41452342 0.35118595 0.34755015 0.24849065 0.10713017 0.36166692 0.36302203 0.32357785 0.37805817 0.76254654 0.43354157 0.4489054 0.40551916 0.42903262 0.39984488 0.3443566 0.43308967 0.11574258 0.06051597 0.5449513 0.77899235 0.7747862 0.11719913 0.41439778 0.38476688 0.5048435 0.52063036 0.5187671 0.5188633 0.4763259 0.029372834 0.76093554 0.6896299 0.60792345 0.34613508 0.53472203 0.55499375 0.5490804 0.58249617 0.6053655 0.63340473 0.67526996 0.7091123 0.68382704 0.64446175 0.5722789 0.6026813 0.54817766 0.42399263 0.22289816 0.2741608 0.5494984 0.5679932 -0.12662612 0.22196466 0.5686509 0.5369044 0.53326607 0.40661305 0.14395863 0.5701516 0.5390169 0.509983 0.12652278 -0.26890135 0.24509951 0.24673526 0.42141712 0.42458874 0.2979644 0.10688873 0.25812614 0.35523498 0.33856466 0.15426609 0.08563633 0.41334313 0.12596609 0.11742898 0.11145039 0.082188234 0.0081023425 0.014330134 0.06519103 0.08640075 0.28060225 0.15466125 -0.22686349 -0.0043426454 -0.09485211 -0.033912312 0.07678713 0.29104072 0.28312376 -0.16410384 0.28718084 0.2585602 0.40385482 0.14839017 0.20162475 0.26506087 0.40273148 0.049689632 0.28970826 0.34739637 0.0037375167 -0.022797067 -0.036433842 0.013568705 0.008366715 -0.024667282 0.20424387 0.100250095 0.055017844 0.041572735 0.039018735 0.050639182 0.096686855 0.070595786 0.1431709 0.09288706 0.079965316 0.07100649 0.2631196 -0.010544263 0.006884016 0.13695535 0.46632254 -0.06875245 0.31568503 0.26894906 0.10374603 0.18866453 0.22206953 0.17210723 0.46543342 0.015849525 0.45584562 0.42599046 0.22675464 0.7396803 0.20788673 0.49663222 0.312437 0.26440752 0.48981088 0.5262016 0.5326721 0.10850632 0.36286718 0.77298945 0.7605487 0.53730565 0.5490694 0.5465034 0.53661454 0.508876 0.4662082 0.53627455 0.13334624 0.23596318 0.4179391 0.74510705 0.70100754 0.58686805 0.64273953 0.5628345 0.5485846 0.5253076 0.5732243 0.62714326 0.6527372 0.6834196 0.6781088 0.68147993 0.6574969 0.63329685 0.61108303 0.6493498 0.62933064 0.5946263 0.49077368 0.55281377 0.4973045 0.34949213 0.39606154 0.24071322 0.52900547 0.16883032 0.19063377 0.4869372 0.4501152 0.2683372 0.42869133 0.36297905 0.39317608 0.26574895 0.30412328 0.31020647 0.18421362 0.3325105 0.5595169 0.6020887 0.566958 0.5146601 0.15024851 0.17744105 0.29965734 0.32132703 0.40035433 0.5049579 0.56100833 0.5682527 0.47944057 0.101841845 0.012502544 0.12021794 0.2165375 0.26096305 0.2991622 0.32382905 0.03420032 0.055758715 0.0073981658 0.30225158 0.2708311 0.08113158 -0.21427569 -0.182866 -0.08847358 0.31686115 -0.24902642 0.3010701 -0.05420228 0.1640758 0.014281261 0.051456217 0.20025009 0.19767952 0.062138513 0.008433193 -0.06775084 0.12190029 0.35126662 0.21215908 -0.17437851 -0.14792822 0.10475367 0.04886633 -0.013359919 0.14416261 0.20500481 0.16704367 0.20207779 0.32191584 -0.3306098 0.2874676 0.39422807 0.34709993 -0.17240836 -0.40226084 0.15665019 0.34758595 0.2383594 0.18570493 0.14742976 -0.010642394 0.6529566 0.57916176 0.44598836 0.50851333 -0.14355624 0.37339577 0.71856457 0.6845884 0.22164994 0.50542724 0.22240594 0.5507372 0.12262796 0.38412502 0.71715456 0.49123996 0.5563972 0.562789 0.49316305 0.3910103 0.24814937 0.36037165 0.473216 0.54191464 0.56161225 0.1775812 0.1401938 0.3608151 0.42413035 0.6901344 0.52282137 0.3459316 0.33754474 0.5533787 0.54844725 0.56284 0.53727746 0.5034835 0.5183509 0.59375995 0.62125283 0.6225876 0.6678513 0.64941895 0.6683023 0.6451148 0.63146937 0.5953483 0.5655199 0.6537734 0.57339406 0.5381727 0.55697584 0.4024011 0.39603576 0.39242786 0.320048 0.26204944 0.391518 0.19942573 0.19444725 0.21377562 0.117982596 0.24033642 0.2584424 0.6020484 0.6168109 0.5845225 0.088146724 0.273977 0.28970417 0.47198552 0.5796211 0.60841227 0.54044056 0.45131773 0.32143083 0.0054823756 -0.17565584 0.19222954 0.26018465 0.37738693 0.24971482 0.2094777 -0.14252307 -0.27295983 0.23814616 0.20457649 0.26259875 -0.32954353 0.2522472 0.26459077 0.24888673 -0.2012651 0.29556105 -0.42345163 0.041611418 0.18998273 0.27329218 -0.1298798 0.19816035 0.0055063777 -0.2581322 0.3918842 -0.10436485 -0.1415708 0.35177147 0.18787262 0.13883625 0.035829216 0.34994477 0.45298815 0.41078055 0.18897995 0.06356008 0.28222772 0.43755692 0.35957295 -0.02440545 0.42406094 0.3912918 -0.083271116 0.26563463 0.024361577 0.19002849 0.14005747 0.3179597 0.28217652 -0.3607435 0.0059788376 -0.046278346 0.46126872 0.27412906 0.14506006 -0.050857823 0.40035105 0.41572833 0.5437492 -0.09713277 -0.1417005 0.3109511 0.44551232 -0.110140