# vtk DataFile Version 2.0
Really cool data
ASCII
DATASET POLYDATA
POINTS 6798 float
-31.652718 -93.111946 5.6032257
-31.67398 -93.22574 6.2380342
-31.685232 -93.188835 7.6212983
-31.77928 -92.615555 5.6871114
-31.996315 -92.29708 6.543308
-31.954325 -92.37607 7.428382
-31.767927 -92.24602 7.9359555
-31.703981 -91.71726 5.8875585
-31.976955 -91.644455 6.697932
-31.972353 -91.645935 7.180723
-31.796824 -91.6234 7.782653
-31.7279 -91.12668 6.7106156
-31.698566 -91.08127 7.310478
-30.588701 -94.997505 0.6743789
-30.678747 -94.77217 7.3478293
-30.733084 -94.41649 0.75769407
-30.724052 -94.38743 1.6435969
-31.042158 -94.26635 6.5620756
-31.189081 -94.12444 7.501724
-30.90357 -94.2211 8.242833
-30.82647 -93.3245 0.15080945
-31.041891 -93.32084 0.7169225
-31.089798 -93.39567 1.2388349
-30.843756 -93.28444 2.3177497
-31.325363 -93.32976 4.851962
-31.516022 -93.42046 5.6103845
-31.486727 -93.66575 7.6285458
-31.15431 -93.54677 8.479785
-30.824638 -93.353745 8.918278
-30.789557 -92.59963 -0.094212085
-31.104507 -92.47703 0.66857505
-31.239756 -92.61779 1.3403022
-31.077684 -92.168495 4.151229
-31.379215 -92.72047 4.772315
-31.274168 -92.43916 8.542437
-30.817331 -92.922554 8.967207
-30.7448 -91.86281 0.019846275
-30.90882 -91.80285 0.64663935
-30.871851 -91.611046 1.4111737
-30.649363 -91.66288 3.7430384
-31.317808 -91.647285 4.9602795
-31.250593 -91.71026 8.296003
-30.76867 -90.90149 5.0129285
-31.163357 -90.95444 5.746556
-31.278057 -90.74238 6.581602
-31.232101 -90.6896 7.340888
-31.236181 -90.894196 7.799637
-30.781311 -90.24854 6.746731
-30.805973 -90.38901 7.334567
-29.509521 -97.536 8.602226
-29.804775 -95.718254 -0.103090614
-30.04284 -95.90194 0.6529723
-29.968323 -95.914474 1.2568173
-29.677126 -96.02766 8.38602
-30.016155 -95.28341 -0.31697583
-30.347984 -95.5137 0.6994152
-30.290361 -95.576996 1.4254433
-30.030851 -95.22253 2.1809294
-29.777493 -94.79384 3.8003848
-30.248629 -94.9399 5.807249
-30.377111 -95.00365 6.1913123
-30.265104 -95.292244 7.5454516
-30.306334 -94.91658 8.317117
-29.882706 -95.095894 8.796827
-29.835161 -94.872284 -0.9044707
-30.287981 -94.44574 -0.36521938
-30.050972 -94.420715 4.2322073
-30.46398 -94.52146 8.628207
-30.394972 -94.26567 8.906008
-30.27734 -93.0465 -0.71975476
-30.375526 -93.61861 -0.3801323
-30.339918 -93.47779 9.315019
-30.134552 -92.45253 -0.7465925
-30.47683 -92.55362 -0.4604245
-29.903316 -92.31999 9.617217
-30.020287 -91.98257 -0.6751517
-30.370548 -91.70574 -0.20723054
-30.58459 -91.449455 3.9909596
-30.241194 -91.608185 9.036142
-30.056833 -91.22276 -0.008855149
-30.152916 -90.96969 0.6931328
-30.2525 -91.00836 1.4312774
-30.003544 -90.89794 3.5501723
-30.44238 -90.613625 4.994379
-29.974619 -90.50386 5.159753
-30.715076 -90.50101 7.7695527
-30.275759 -90.318565 5.776779
-30.54253 -90.209274 6.558795
-29.909164 -89.97162 7.5574613
-28.762188 -99.94811 7.9274435
-28.745129 -99.990425 8.685744
-28.659616 -99.96864 9.256274
-28.895575 -99.255806 7.813173
-29.006784 -99.41211 8.426114
-28.896593 -99.33854 9.15911
-28.631151 -98.908585 9.848762
-28.687565 -98.54279 7.01195
-29.290672 -98.282265 7.7417755
-29.279333 -98.61553 8.734744
-29.1556 -98.38331 9.270465
-28.84922 -98.45184 9.803651
-29.08924 -97.36543 6.6638765
-29.421032 -97.80536 7.9081817
-29.423712 -97.76423 8.400577
-29.324356 -97.51409 9.257844
-28.943949 -97.49302 9.902476
-29.21654 -95.875175 -0.4801162
-29.271593 -96.26283 0.50535405
-29.195507 -95.74378 4.9049
-29.467333 -96.41956 6.5666556
-29.444387 -96.749664 8.789268
-29.24367 -96.83132 9.445791
-28.829039 -96.40694 9.875084
-29.179943 -95.27593 -1.0657796
-29.445917 -95.6014 2.2008636
-29.200178 -95.06362 4.5030036
-29.569647 -94.73024 -1.0634003
-29.219833 -94.6396 9.459298
-29.381742 -93.66075 -1.1303
-29.4823 -92.35025 -0.8958119
-29.652935 -92.573456 9.807023
-29.522587 -91.80641 -0.6864972
-29.65283 -91.43114 -0.3610267
-28.724863 -91.65723 10.801897
-28.77184 -91.29722 11.235674
-29.432575 -91.09164 0.012390256
-29.619055 -90.68224 0.90949005
-29.46073 -90.564926 1.427003
-28.939602 -90.380226 10.484181
-28.925688 -90.72998 11.057565
-28.823362 -90.05151 12.333292
-28.859398 -90.1894 1.8756828
-29.116526 -90.109116 3.904833
-29.132355 -90.08723 4.8043413
-29.629461 -90.175224 5.7691097
-29.50435 -90.00312 6.3692994
-28.976154 -89.571846 7.9203763
-29.214802 -89.490944 8.349538
-28.923662 -89.269585 10.86112
-28.98998 -89.513985 11.628895
-28.87412 -89.55049 12.169521
-28.591415 -89.64891 12.813983
-28.737164 -88.92593 10.808921
-28.821705 -88.97855 11.306607
-28.704878 -89.015945 12.228339
-28.020575 -100.70905 8.468585
-28.167288 -100.12978 7.3328824
-28.322699 -100.38352 7.910942
-28.452488 -100.39531 8.332478
-28.306404 -100.245 9.1838
-27.794054 -98.9936 3.7278957
-27.941433 -98.784904 4.784739
-27.782978 -98.872406 5.921872
-28.25583 -99.32281 6.962465
-28.614546 -99.27808 7.3153677
-28.152288 -99.39168 10.147642
-28.005938 -98.78043 3.9369926
-27.88832 -98.48301 5.0612545
-28.284567 -98.42298 10.28503
-27.920885 -98.07886 10.584852
-27.7799 -97.85366 3.0247204
-28.14688 -97.45515 4.8941894
-28.292225 -97.6894 5.571615
-28.382362 -97.650116 10.287725
-28.039371 -95.82752 -0.9038915
-28.804367 -96.36131 -0.06274092
-28.729338 -96.45731 0.38048327
-28.6688 -95.77024 3.2727797
-28.659924 -96.17299 5.190693
-28.45302 -96.72812 10.142615
-27.606602 -95.2166 -2.2978272
-28.719782 -94.99963 -1.3989421
-28.555279 -95.580025 4.477316
-28.365238 -95.350266 9.8616
-27.93522 -94.16349 -1.7643338
-28.83424 -94.32568 -1.403286
-28.50774 -94.37823 9.716936
-28.28239 -93.86271 -1.621565
-28.911016 -92.47854 -0.9784857
-28.289503 -92.49774 11.1620655
-27.942211 -92.00189 11.935974
-28.849884 -91.6221 -0.5464432
-28.303125 -91.14849 12.224099
-27.821419 -90.96424 12.918552
-28.132854 -90.41011 13.092412
-27.897411 -89.480095 2.332992
-28.355623 -89.27231 4.521959
-28.267414 -89.40661 13.098045
-27.729462 -89.5802 13.841143
-27.82518 -88.923386 2.4759881
-28.079636 -88.49129 5.5862613
-28.236593 -88.92539 6.43274
-28.365849 -88.78372 7.8908505
-28.291672 -88.592865 8.508881
-28.511726 -88.763115 9.890248
-28.45178 -88.560036 10.973964
-28.455334 -88.495926 11.502782
-28.29489 -88.625046 12.470791
-27.89447 -88.77694 13.330222
-27.784328 -89.01204 13.783809
-27.774984 -87.99578 3.8420582
-27.790894 -88.07981 4.4099116
-27.86004 -87.63053 6.6696143
-27.924385 -88.24364 8.316536
-28.066917 -88.210724 10.9017935
-28.054499 -88.17484 11.575521
-27.92662 -88.33467 12.527755
-27.850473 -86.43013 4.873948
-27.888563 -86.39531 5.3265233
-27.759235 -86.36577 6.315538
-27.815348 -85.99972 4.960471
-27.733727 -85.75423 5.5659666
-27.632557 -85.69339 6.0740876
-27.744396 -83.095215 -2.3660216
-27.911001 -82.90635 -1.4856924
-27.691145 -82.35235 -2.8360367
-27.868301 -82.485825 -2.3342094
-28.015007 -82.39544 -1.588835
-27.763775 -82.471344 -0.87972426
-27.75417 -81.82144 -2.3814893
-27.864927 -81.74577 -1.5706792
-27.735477 -81.85964 -0.9852464
-26.631826 -106.99645 6.831699
-26.666822 -107.05743 7.3310666
-26.69643 -106.46852 6.7000666
-26.752075 -106.411285 7.390534
-26.63894 -106.48649 7.8884463
-26.694561 -105.829994 7.4370313
-26.645195 -106.05572 7.839069
-26.622189 -101.206375 1.6965955
-27.222006 -100.694786 7.5764422
-27.635042 -100.81889 8.493296
-26.667486 -99.821594 -1.1422658
-26.667093 -100.443726 2.9769328
-26.762152 -100.251274 3.626231
-27.128736 -99.727905 6.4636283
-27.404734 -100.063805 10.02597
-26.832594 -99.24496 -1.1192567
-27.041815 -99.19887 -0.6988747
-26.800137 -99.49959 0.71605647
-27.168049 -99.31181 2.7821157
-27.259613 -99.530426 3.453935
-27.327412 -99.57953 4.085378
-27.619158 -99.40022 10.511359
-27.328377 -99.31263 10.683828
-26.682083 -98.694176 -1.7055176
-27.051695 -98.75082 -0.7455226
-26.954437 -98.550995 0.5336646
-26.79638 -98.430885 1.8813868
-27.454056 -97.985596 2.6239226
-27.431772 -98.4608 10.787631
-26.879587 -97.90547 -1.1595558
-26.866941 -97.63687 -0.67950046
-27.015415 -97.50987 0.22180477
-27.288626 -97.50865 2.551201
-27.238169 -97.46478 10.66445
-27.085812 -96.26203 -2.085003
-27.499739 -96.15858 -1.2614
-27.613285 -96.69793 10.302226
-26.922009 -95.15435 -3.2402945
-27.303087 -95.23847 -2.4782383
-26.984165 -95.77394 10.355928
-27.003841 -94.56356 -3.291772
-27.263052 -94.789986 -2.7185738
-27.26327 -94.30282 10.612624
-26.864773 -93.62354 -3.1695585
-27.113928 -93.20633 -2.3422241
-26.830652 -93.29628 11.974453
-27.219528 -92.59536 -2.124642
-27.305027 -92.21498 -1.4754581
-27.658205 -92.4214 11.7740345
-26.845766 -91.66064 -2.146951
-27.16467 -91.49905 -1.4150555
-27.41692 -91.22377 13.282095
-26.739393 -90.944176 -1.8408958
-26.888117 -90.66151 -1.4513626
-27.354303 -90.38019 13.924074
-27.142475 -89.692566 -0.3283633
-27.450768 -89.44921 0.6138325
-27.262867 -89.33707 14.198418
-26.91926 -89.083595 0.05226314
-26.967737 -88.8204 0.5874684
-27.287676 -88.664276 1.4250101
-27.52224 -88.43352 13.54948
-27.227867 -88.73808 14.042781
-26.777645 -88.031296 0.942058
-26.918165 -87.94145 1.5891677
-27.11959 -87.85983 2.591328
-27.16844 -87.63802 8.465706
-27.236113 -87.780136 10.642274
-27.42293 -87.77114 11.257268
-27.50285 -88.01928 12.757092
-27.22279 -88.1627 13.342119
-26.965649 -88.257256 13.860618
-26.647093 -86.93705 2.3304052
-27.073626 -86.68923 3.5810533
-27.213827 -86.368416 7.2628675
-26.806715 -87.0604 7.962206
-27.241728 -85.8832 4.177781
-27.520927 -85.73659 4.6098485
-27.462315 -85.34286 5.5831037
-27.452932 -85.62085 6.3886037
-27.072544 -85.54908 6.9812574
-26.90152 -83.992134 -3.1265028
-27.086754 -84.06432 -2.5232813
-27.034752 -84.13144 -1.5985658
-27.091816 -84.97349 5.5248494
-27.120646 -85.0254 6.0532575
-26.840153 -85.24522 6.8197618
-27.199377 -83.32587 -3.2223394
-27.511833 -83.4648 -2.5585723
-27.537048 -83.604675 -1.6503049
-27.252722 -83.345894 -0.67605144
-26.856611 -83.173904 -0.043040812
-26.892885 -82.480896 -3.8147542
-27.346685 -82.51412 -3.2645326
-27.491869 -82.72066 -0.5384922
-27.165852 -82.830986 -0.2502448
-26.749746 -81.626686 -4.0239744
[...]
POINT_DATA 6798
SCALARS features_00 float 1
LOOKUP_TABLE default
0.50307703 0.5237557 0.55129623 0.54699016 0.6153374 0.6195644 0.6053444 0.5754255 0.6078313 0.6114415 0.60836077 0.55016524 0.5640106 0.5288046 0.3502462 0.52991664 0.45511067 0.4148413 0.43060833 0.3875907 0.5600275 0.5545738 0.5238212 0.40531203 0.42419156 0.45935374 0.49004477 0.44672924 0.413536 0.5774585 0.598873 0.56251454 0.42782468 0.4892209 0.531477 0.4382959 0.5877543 0.6063771 0.5410155 0.3253314 0.4890997 0.5815041 0.3511811 0.44763497 0.46793807 0.4874829 0.52930796 0.36334234 0.39131212 0.41019493 0.51160777 0.5157167 0.46286047 0.17360581 0.5159234 0.5216534 0.45882583 0.3088361 -0.09174025 0.1528026 0.21512334 0.2591062 0.29391253 0.21707629 0.45212516 0.52244335 0.011218959 0.33289397 0.3326472 0.50641555 0.52277243 0.34031075 0.51118857 0.5486866 0.2907069 0.51793784 0.5630144 0.32533976 0.44034058 0.5508833 0.5304338 0.42669058 0.1745212 0.2827765 0.22682989 0.40845263 0.2905478 0.3279588 0.19428018 0.48367023 0.54639757 0.5792942 0.45032564 0.5182789 0.5543366 0.5315346 0.2424368 0.40523332 0.5030933 0.49935597 0.5027292 0.09652416 0.39008993 0.4264425 0.43207955 0.4360302 0.44395697 0.48726827 -0.09525331 0.03997141 0.31371942 0.35609317 0.29153952 0.3726952 0.2409985 -0.09545043 0.40482736 0.14866823 0.365869 0.4343459 0.2031916 0.47206974 0.5087547 0.20214595 0.32929713 0.48290437 0.42178977 0.27464908 0.43696934 0.43273067 0.53566325 0.0059362426 -0.007940814 0.021685902 0.18129596 0.15132912 -0.017818898 -0.011286471 0.45420125 0.50438476 0.5372188 0.582768 0.43049628 0.4796195 0.538723 0.50764453 0.39901307 0.47146538 0.5145667 0.58477426 0.17194462 0.06569367 0.035586473 0.28804398 0.36195087 0.5406191 0.1616635 0.031851556 0.4798571 0.43254393 0.1739017 -0.020961491 -0.03625458 0.42365777 0.22542518 0.41545177 0.40132427 -0.12395952 -0.11210169 0.32788903 0.2121122 0.28214535 -0.13059267 0.056393415 0.18189779 0.28274378 0.02566437 0.1828197 0.30655888 0.109615624 0.21587637 0.34659582 0.3792918 0.43366688 0.5568049 -0.047339074 -0.13616385 0.6011728 0.638939 -0.001851134 0.00982083 -0.12223834 -0.04174659 -0.014752578 0.25543487 0.4301861 0.48122382 0.54897237 0.6004591 0.6206871 0.05985343 0.0762766 0.16726696 -0.0036255494 0.40347934 0.4798758 0.5487025 0.33399504 0.36675084 0.37530077 0.38290715 0.41304213 0.40220326 0.7128335 0.72944057 0.69736654 0.7315117 0.74257815 0.6688657 0.7125344 0.7226791 0.66841465 0.5866916 0.59777606 0.5671027 0.57672745 0.573864 0.54183906 0.54992753 0.12851925 0.3474968 0.48111302 0.2705433 0.008395597 0.005652949 0.1572505 0.52574944 0.26476434 0.255532 0.18029213 0.15208769 0.13415326 0.093803436 0.4919547 0.45816153 0.2569369 0.24839856 0.12737295 0.055650398 0.14909577 0.4283958 0.22712165 0.19158891 0.061120313 0.10086059 0.3302365 0.16778263 0.0653068 0.2617241 0.37699527 0.25294015 -0.042719934 0.39196467 0.30078775 -0.1399953 0.36348253 0.22314082 0.010302268 0.12357798 0.025258683 0.14069071 0.094786204 0.026853371 0.41194475 0.104699396 0.097683705 0.63654065 0.060104944 0.023858227 0.65201265 0.05022248 0.051128246 0.05782873 0.6061993 0.62998724 0.06872483 0.06984982 0.05405184 0.071521744 0.3324184 0.43918023 0.55698526 0.5909716 0.6128575 0.07099587 0.12373818 0.30577257 0.19501019 0.29862466 0.37191883 0.4123717 0.3861919 0.34335035 0.58883727 0.6170467 0.6095181 0.39631858 0.39063543 0.3477928 0.6397451 0.67610383 0.6820003 0.5946898 0.46825075 0.6203092 0.663975 0.6030966 0.53058386 0.6022095 0.644802 0.68723845 0.571525 0.5808598 0.6052592 0.65099376 0.643001 0.56953216 0.6028666 0.5485466 0.59405553 0.6124212 0.58914685 0.5335725 0.58900785 0.60629606 0.59141684 0.43033242 0.5183769 0.55575573 0.575233 0.50378156 0.43152267 0.48435193 0.48757333 0.49261066 0.35753387 0.3079972 0.38131356 0.17733921 0.3010006 0.26604828 0.18471055 0.06524242 0.10647862 0.13707153 0.36018616 0.30068693 0.24316555 0.105085656 -0.14163254 -0.00013963878 0.11056413 0.14081347 0.2793861 0.3078964 0.30502844 0.082648575 -0.02774861 -0.1966491 -0.22452626 0.15240967 0.25959343 0.27311808 -0.074759126 0.3504181 0.24975574 0.26537153 0.26023412 0.3502818 0.2379527 0.26141876 0.22044496 0.17580709 0.35795456 0.45433387 0.41335493 0.016271964 0.10598398 0.46692818 -0.042263016 0.14681762 0.43082237 0.39717156 0.026678737 0.33878362 0.23480827 0.15095751 0.23161215 0.5356668 0.14801808 0.60757554 0.18814056 0.1519325 0.64823484 0.6535773 0.16319133 0.07853691 0.6304936 0.076230876 0.07842388 0.19304185 0.41855893 0.5214296 0.5720737 0.60375094 0.078358255 0.07383521 0.16059253 0.39155453 0.5254095 0.49398202 0.1710465 0.28146213 0.2599327 0.5056353 0.5162911 0.5490799 0.5475029 0.46066847 0.34551483 0.29482704 0.2591227 0.2892595 0.30063605 0.34826407 0.27640784 0.52756 0.568248 0.18424639 0.2699198 0.5794683 0.2818082 0.56907976 0.5709283 0.38905796 0.55361545 0.5542165 0.52487546 0.47375837 0.52860063 0.54614747 0.60138625 0.59121567 0.54045534 0.5356823 0.58237386 0.59806013 0.5753833 0.4509281 0.48585695 0.59374905 0.6088642 0.58595836 0.5520722 0.43881655 0.5634663 0.5365383 0.42353725 0.46856612 0.3474667 0.36472654 0.31782156 0.29299203 0.29954278 0.2772835 0.36984023 0.36129156 0.32402754 0.29616064 0.2451174 0.19182864 0.14670956 0.18365005 0.41405392 0.52889085 0.55134165 0.34965953 0.343479 0.02607009 -0.25962642 -0.26270288 0.18936837 0.4081095 0.4954828 0.52904207 0.30102473 0.29325825 0.05055196 0.27514362 -0.08191972 0.21727481 0.23819196 0.21086363 0.28299463 0.24670827 0.34081462 0.3227267 -0.049068302 0.21593638 0.33993846 0.39500225 0.37099105 0.4244573 0.4628784 0.3186086 0.42491838 0.22371623 0.30799428 0.16129144 0.3874503 0.18308856 0.5123442 0.19921085 0.21255958 0.5455432 0.21672004 0.21972346 0.20409901 0.5879798 0.033147015 -0.09304044 0.10188688 0.5250428 0.563694 0.056511987 0.0862039 -0.018300906 0.3883438 0.44964263 0.4828288 0.34013107 0.30237725 0.19812836 0.4286496 0.37193036 0.06707124 0.32866037 0.03420011 0.10530457 0.07877211 0.37749594 0.5093365 0.36590314 0.09474813 0.043831967 0.092917554 0.053056613 -0.09607729 0.5486757 0.61281294 0.5390553 0.33754003 0.11345391 0.18471104 0.15148315 0.4370435 0.62291014 0.6664419 0.6648129 0.5403027 0.5210114 0.40289423 0.2181034 0.66199267 0.6978327 0.5152227 0.52704334 0.57390773 0.5166562 0.48122993 0.5481795 0.60837615 0.59771717 0.54866916 0.7526915 0.7409147 0.70678055 0.6356095 0.58972657 0.43915388 0.5430651 0.5543175 0.5441441 0.7469914 0.6998853 0.6400744 0.56754386 0.5192673 0.2935473 0.3774648 0.55125374 0.658051 0.53628194 0.43381166 0.3204686 0.43875018 0.12729806 0.084941156 0.28211576 0.14290743 0.20325458 0.32764527 0.48769805 0.39256084 0.30714938 0.25752687 0.22688143 0.04370671 0.53285813 0.54004985 0.38519666 0.39477134 0.55233645 0.5519711 0.5341542 0.38141495 0.3790942 0.5399176 0.5291591 0.33730254 0.33610392 0.32023394 0.41802174 0.5036797 0.29469186 0.17682222 0.22022308 -0.15647194 0.18757184 -0.29927334 0.23499356 0.20897853 -0.22557384 0.10747185 0.2635919 0.32684994 0.289058 0.359591 0.4397317 0.4944041 0.347382 0.48360714 0.5142075 0.4201789 0.43917465 0.50739723 0.48306972 0.46155438 0.36130542 0.50409305 0.4611572 0.4403658 0.21541959 0.07260172 0.48067927 0.4380964 0.3896806 0.14909284 0.24441898 0.33862042 0.30234855 0.12353545 0.14380518 0.3340627 0.14764045 0.18982275 0.46468627 0.20662814 0.20982245 0.18100198 0.5211599 0.19552262 0.18778116 0.2066328 0.13648635 0.45503676 0.49217942 0.20651388 0.15279913 -0.15239114 0.27853075 0.34361422 0.42163306 0.4694918 0.2148343 0.1465318 0.23785609 0.2624087 0.07505235 0.17801963 0.52946377 0.18985933 0.5482615 0.5791242 0.5964408 0.5937053 0.2632392 -0.08962839 0.60921454 0.63246536 0.5722329 0.6275879 0.62846196 0.58238494 0.466146 0.68303657 0.6770633 0.56143993 0.5901269 0.671957 0.6759846 0.5545794 0.49588394 0.15340093 0.22683954 0.19486561 0.12067141 0.22621313 0.61479664 0.70124793 0.73619205 0.72173 0.5572895 0.6196017 0.69472826 0.6683421 0.50470304 0.49399137 0.5434339 0.49965763 0.38959137 0.73836434 0.7603254 0.5834841 0.63505673 0.66799915 0.6177056 0.4561854 0.5976709 0.62203574 0.61328745 0.532699 0.62931335 0.63243014 0.5992712 0.85281897 0.8174854 0.8380096 0.7987823 0.7852854 0.7773136 0.667024 0.37560356 0.7785368 0.7707325 0.6802895 0.5355881 0.32757798 0.42122036 0.46607 0.4423434 0.40321207 0.7491162 0.37455612 0.42354345 0.72686327 0.7044196 0.39180177 0.6182686 0.09969108 -0.2946718 0.2098217 0.25875756 0.20585339 0.4048344 0.37402552 0.38023758 -0.39715767 0.5039091 0.45758337 0.40882856 0.52654624 0.5016883 0.3726695 0.47540256 0.33286446 0.25232676 0.19245273 0.24868324 0.1862879 -0.39083123 0.14066938 -0.14968088 0.10934437 0.14684285 0.14192455 0.2347017 0.19646686 0.5132612 0.53556687 0.5515511 0.51285636 0.3119285 0.5221848 0.5774239 0.55153567 0.51034164 0.46886873 0.47820693 0.46921098 0.2475688 0.39376888 0.5913931 0.56973743 0.5243441 0.41137132 0.56493014 0.488908 0.14205828 0.13091429 0.5121825 0.406438 0.35541195 0.22742762 0.31086028 0.2523762 0.13344721 0.3668118 0.1488821 0.18183812 0.44382697 0.18548875 0.13694705 0.36783788 0.35105768 0.41245073 0.21723792 0.24659286 0.25045744 0.13000897 0.52992916 0.5574118 0.5699885 0.54938036 0.28253567 0.33531365 0.58667266 0.53604 0.58691096 0.58788425 0.53065664 0.2902903 0.30806285 0.615294 0.5012684 0.5281991 0.53862774 0.40547156 0.15131614 0.19814561 0.21245974 0.68008405 0.65211844 0.5054788 0.37515864 0.15745442 0.17578958 0.4246958 0.14989753 0.14022627 0.019195184 0.5185636 0.71745765 0.6704606 0.5154743 0.3405471 0.53057504 0.6068387 0.31610677 0.13029173 0.13912468 0.6921184 0.7694073 0.77062285 0.74328834 0.5657053 0.44420093 0.3176638 0.6162903 0.63178515 0.6209982 0.6009406 0.6279541 0.6233417 0.58302546 0.42882985 0.641189 0.6355008 0.6224639 0.57509077 0.8675227 0.89972365 0.93241084 0.79287326 0.8279463 0.87734926 0.9162675 0.9398479 0.72952974 0.78283846 0.8296127 0.8720046 0.9169116 0.68085694 0.7086936 0.7693131 0.79197806 0.8530248 0.89520645 0.84275067 0.68325126 0.49489188 0.2641251 0.3796824 0.36590308 0.614045 0.6237776 0.67787564 0.9641241 0.32132077 0.27127928 0.7958967 0.21537137 0.73470116 0.0023661405 0.6887127 0.65327466 0.19531408 0.25419736 0.2741801 0.42632025 0.3639602 0.33928877 0.38596946 0.40838188 0.3637662 0.40868384 0.31091464 0.30730817 0.2760325 0.14267637 -0.067272305 0.08783637 0.35392323 0.07794515 -0.0748187 0.020817116 0.42242512 -0.06007678 0.023257963 0.33400965 0.41563007 0.12559682 0.104437724 0.1555122 0.29268143 0.36935464 0.11960521 0.49370533 0.70147455 0.532155 0.623075 0.6620108 0.65126216 0.5194427 0.6125653 0.59858084 0.59183884 0.38621438 0.61904836 0.59032464 0.635149 0.007065233 0.5836446 0.48202646 0.099065155 0.41009083 0.32196558 0.10395256 0.30053824 0.25474635 0.08838699 0.13460904 0.17991707 0.08774266 0.14423703 0.2044467 0.1446449 0.11793696 0.22345045 0.28369266 0.11216517 0.18534535 0.13258296 0.1580738 0.51156604 0.5330646 0.4967975 0.26187524 0.48262885 0.5968805 0.41664767 0.45684397 0.11640487 0.61413044 0.40798235 0.4349318 0.15263039 0.15509199 0.18009418 0.66585535 0.6764556 0.60304314 0.67709434 0.64194536 0.4815359 0.48024264 0.15898438 0.12637943 0.1364349 0.15028447 0.16918471 0.71562696 0.003988646 0.09190741 0.056299314 0.03377485 0.73220634 0.72452295 0.71110564 0.5633714 0.5900944 0.2949249 0.1362612 -0.13016044 0.006722493 0.08097468 0.22781917 0.21679237 0.10418454 0.65071285 0.6486482 0.28134638 0.24740408 0.6624661 0.622699 0.58845866 0.56343263 0.8479533 0.90729165 0.9477242 0.9428546 0.7847432 0.82035637 0.94770575 0.70186675 0.6903049 0.9120462 0.48171932 0.50394946 0.5378162 0.51187944 0.60106885 0.63036615 0.8589319 0.85341525 0.85065985 0.7475308 0.5536135 0.14762136 0.3679943 0.47020835 0.42462736 0.5425047 0.56765366 0.5864378 0.59726715 0.71992755 0.9277463 0.36482066 0.25029746 0.5144272 0.5448468 0.49888837 0.17536227 0.7927058 -0.08735694 0.6448147 -0.12013441 -0.060129624 0.0029303432 0.12599126 0.21093895 0.28529993 0.12709737 0.27884257 0.21062416 0.05735272 0.21113434 0.1331194 0.07213092 0.1427291 -0.0063017383 -0.061809372 0.3419059 0.38766652 -0.036588807 0.44767863 0.46864587 0.039333373 0.45003015 0.14886492 0.37243438 0.15680987 0.71000016 0.75114226 0.47328907 0.6349553 0.65818036 0.664963 -0.044851586 0.45567212 0.63207275 0.6153315 0.34002614 -0.023992926 -0.03362143 0.3533774 0.6440905 -0.29594216 0.65875316 -0.14754292 -0.15528727 0.62503016 -0.12245698 0.47502673 0.3779079 0.0269036 0.27066326 0.15836993 0.16984236 0.1045005 0.049700648 0.22241205 -0.10694599 -0.09061227 0.35683814 0.050468564 0.32164633 0.43219697 0.20878255 0.29423502 0.4227864 0.43101096 0.46570492 0.27729627 0.1715458 -0.03778205 0.30400515 0.34903163 0.37186104 -0.12576807 0.46401855 0.3254009 0.5132271 0.5395184 0.37582657 0.3554647 0.13123134 0.3976434 0.5786021 0.5933889 0.58888125 0.47063214 0.09956182 0.6422881 0.5967129 -0.11686972 -0.010379405 0.015367131 0.020021163 0.07444533 0.32529432 0.4021152 0.17508888 0.19057296 0.6771945 -0.0019795448 -0.082827136 0.19663697 0.39663333 0.44570336 0.45545334 0.2058321 0.2592167 0.25993457 0.2394531 0.6793002 0.6475544 0.5838498 0.48069856 0.33104402 0.36760336 0.2560521 0.36357248 0.4044475 0.43915427 0.42463553 0.24730216 0.26212648 0.6231521 0.5955763 0.43811336 0.47938424 0.43349242 0.38346288 0.39098257 0.39800814 0.8600725 0.76173735 0.80645204 0.8530009 0.86537087 0.71585906 0.73283374 0.8696786 0.66605425 0.78190035 0.61503196 0.5992789 0.57829916 0.57837915 0.7115042 0.62031627 0.63256806 0.3708239 0.2844411 0.5432279 0.48630652 0.48936495 0.49390054 0.7260418 0.6091408 0.39388812 0.34075856 0.44532627 0.45683587 0.44929686 0.6576977 0.14592451 0.39210814 0.6653716 0.6556697 -0.11876014 0.51369476 -0.12673923 -0.03355343 0.09874941 0.050247535 -0.008302927 0.068763345 -0.042362336 0.102946535 0.35907072 -0.023951933 0.026078261 0.44157356 -0.10066207 0.06919102 -0.09699809 0.37382203 -0.019690417 0.45400122 0.066216215 0.42138833 0.11175102 0.35438842 0.37609592 0.15309379 0.16737354 0.121384695 0.67547446 0.71038 0.1509248 0.12306456 0.12527317 0.598019 0.63567525 0.71198994 0.06392151 0.64902866 0.6255804 0.46318504 0.65163076 0.19802381 -0.14991266 -0.12839212 -0.10915329 -0.18637335 -0.12818825 -0.022354517 0.57519907 -0.11364557 0.546402 -0.26377392 0.49964362 -0.046710197 0.3769039 0.14417717 0.18853667 0.08771925 0.28323895 0.002617851 -0.07641252 0.29922944 -0.10735258 0.33020976 0.3292333 0.42309037 0.43307102 0.40524513 0.36339295 0.21807054 0.11383135 0.31835824 0.32868314 0.3939268 0.42382836 -0.16685162 0.015235327 0.2981733 0.25788054 0.40086818 0.24161783 0.3762647 0.44839233 0.32250372 0.27040842 0.15953064 0.38835448 0.4748339 0.45535767 0.027638853 -0.19470888 0.6081277 0.23065747 -0.011258528 -0.01953882 0.18674444 0.69711286 -0.07461285 -0.050200645 0.3951764 0.19577971 0.25272143 0.24909954 0.67780405 0.63660383 0.50109696 0.40257153 0.4030023 0.24783008 0.278911 0.36625546 0.16150938 0.22706826 0.2511894 0.31613088 0.37129647 0.5724441 0.56263995 0.42629412 0.5061058 0.41645446 0.27651414 0.29795724 0.34370112 0.33830786 0.35025162 0.20282684 0.21410254 0.28100628 0.37571236 0.4021672 0.39638898 0.5325036 0.5110619 0.46337727 0.2646137 0.3118652 0.45971054 0.6271744 0.73119426 0.73701596 0.7299797 0.62902296 0.6741268 0.7556727 0.65222865 0.50165486 0.5864179 0.6045537 0.5906277 0.5539677 0.63165456 0.38599312 0.43785828 0.55087185 0.51518905 0.45794588 0.46783108 0.28033596 0.24124177 0.20873894 0.41629088 0.40643573 0.255221 0.23907557 0.48214033 0.30526894 0.35533935 0.36059606 0.32012653 0.15022951 0.09867578 -0.18550192 0.12460677 0.18293865 0.2224055 0.1756685 0.17842025 0.13981952 -0.016122926 0.18946728 0.16035563 0.18821177 -0.028859567 0.103291206 0.06506573 -0.12755322 0.15974087 0.44828546 0.5812739 0.648581 -0.16190234 0.54027927 0.63263166 -0.13644749 0.5045038 0.6095761 -0.1028275 0.42623052 -0.012564458 0.1284974 0.3777495 0.15270305 0.34607893 0.15421772 0.30250156 0.16108541 0.16213733 0.21504202 0.2702467 0.17982447 0.1706524 0.11962816 -0.18889561 0.5077028 0.48326197 0.58678234 0.43559515 0.35344237 0.36907768 0.38872936 0.02185132 0.5372505 -0.12042728 -0.14261259 -0.1201555 -0.16406769 0.028942226 0.47390842 -0.058571767 0.022903377 0.40665808 0.29820672 -0.002360886 0.18977791 0.15317692 0.04806519 0.0011424646 0.2532107 0.30633116 0.39800254 0.4468466 0.4085451 0.31205046 0.19620419 -0.33796293 0.16672939 0.3269592 0.31417802 -0.09202257 -0.025508923 0.25029147 -0.07002358 0.06578992 0.10337098 0.18209922 -0.30412555 0.33623648 0.5709418 0.32909566 0.6251074 0.46179456 -0.16842848 0.38492107 0.39220157 -0.06895961 0.18181643 0.17105453 0.22427304 0.31321406 0.42487878 0.44652873 0.09231185 0.28006905 0.45509624 0.34159443 0.18738116 0.20618771 0.21914539 0.17639308 0.21249935 0.20421109 0.12607054 0.13421044 0.22795716 0.38208473 0.4321394 0.4535203 0.48673835 0.43662184 0.3563522 0.25823668 0.047436636 0.14059556 0.22954625 0.24874477 0.21978371 0.3067666 0.27376872 0.28476745 0.5748602 0.56338704 0.51534915 0.51223826 0.55659896 0.6006887 0.53183913 0.506201 0.54084545 0.5812886 0.48439002 0.5158573 0.30469245 0.436852 0.44096357 0.4642604 0.54403836 0.538381 0.49788618 0.4370432 0.44536328 0.42332667 0.38618532 0.19187202 0.26538867 0.23164487 0.3294816 0.269763 0.28870696 0.16886976 0.17339006 0.22212084 0.08191037 0.33196056 0.34024203 0.17442015 0.20396301 0.1702243 0.16664585 0.12342817 0.070181005 -0.049277924 0.08973544 0.1792604 0.07943297 0.10638769 0.18698047 0.12173275 0.14466605 0.35725352 0.2900558 0.21680358 0.14153452 -0.34595722 0.65450823 0.7245221 0.33074695 0.2959437 -0.30000913 0.7237911 0.3094219 0.34742856 0.3075352 0.1049459 -0.27246732 0.6717752 -0.1365915 0.6161531 0.08445423 0.10067268 0.11912033 0.10986035 0.12458481 0.24971312 0.13777535 0.24598214 0.16376382 0.22280024 0.24540493 0.18844101 -0.006477517 0.1192925 0.17559905 0.08643305 -0.017123679 0.29368252 0.32468945 0.18846782 0.15616395 0.09220947 -0.048124626 -0.31163374 0.022472572 0.7494217 0.7597959 0.71688944 0.31429678 -0.059150223 -0.08762166 -0.10226835 -0.13261454 0.712754 0.7371636 0.6705873 0.5261502 0.2940381 0.61484164 0.6311652 0.6120844 0.5023538 0.3844297 0.3425238 0.16797554 0.14842302 0.5647437 0.5385323 0.45694584 0.39510947 0.35616246 0.31375733 0.17453745 0.1907931 0.46502155 0.4258998 0.3455279 0.30039072 0.12667775 0.020821102 -0.017441086 0.1187448 0.23894018 0.37704664 -0.32853878 0.26708227 0.37935182 0.206343 -0.3394484 0.2818548 0.25441262 0.2267719 0.21495946 -0.3731616 0.17784476 -0.45302388 -0.41911122 0.086913444 -0.4260038 -0.12370784 0.37540466 0.1805639 0.18008155 0.45762637 0.3130553 0.28028512 0.41682902 0.37754375 0.17519787 0.051050544 -0.14045748 0.007007003 0.43818128 0.41551483 0.022172567 0.09470627 0.21677051 0.16010003 0.16232763 0.33224106 0.41969782 0.44394666 0.27593294 0.15150194 0.2451573 0.1918315 0.110231936 0.27670607 0.23039533 0.17030774 0.18837523 0.43638372 0.43141463 0.3530758 0.18688811 0.25361252 0.34475642 0.31757924 0.26440728 0.4401068 0.51855433 0.5442749 0.5360095 0.47604138 0.4776208 0.4711575 0.43895096 0.5237475 0.44459075 0.3649438 0.49637958 0.0497417 0.3634462 0.5447477 0.35525078 0.32866526 0.4411732 0.45313817 0.47200644 0.5186231 0.22352274 0.21865368 0.30906647 0.3519128 0.28410792 0.25434005 0.17238484 0.5075479 0.19267505 0.1905878 0.06137753 0.20628366 0.27439663 0.36665326 0.4870736 0.47714007 0.113420255 0.07250033 0.12537448 0.0742357 0.062585875 0.066214114 0.20109895 0.53224444 0.64838636 0.10716233 0.053825483 0.07273739 0.23752993 0.075048596 0.0023123622 -0.30038047 0.6739279 0.72036505 0.18533316 0.27506924 0.73866653 0.2187632 0.2349751 0.30679366 0.7150123 0.27150473 0.27136377 0.6693113 0.09447725 0.47612548 -0.055528454 0.3434908 0.33528402 0.05967176 0.35576904 0.38634545 0.1258623 0.3662415 0.40361273 0.13720721 0.27733806 0.33790648 0.109889835 0.095609605 0.16142444 -0.012438789 0.007999141