# vtk DataFile Version 2.0
Really cool data
ASCII
DATASET POLYDATA
POINTS 2467 float
-43.647015 -93.34644 -19.235228
-43.993572 -93.19294 -18.30714
-44.074337 -93.07331 -17.685709
-43.865993 -93.021774 -17.013443
-43.97306 -92.44315 -19.042131
-44.241905 -92.642555 -18.323296
-44.244286 -92.460815 -17.651419
-43.924667 -92.3783 -16.586954
-43.71973 -92.27744 -15.919635
-43.90046 -91.45885 -18.866293
-44.051994 -91.54524 -18.513687
-44.179665 -91.46158 -17.614622
-44.13205 -91.41986 -16.52811
-43.77189 -91.33082 -15.783458
-43.89592 -91.204094 -18.549553
-43.946667 -90.74062 -17.368576
-44.01639 -90.79203 -16.719597
-43.77032 -90.69102 -15.979328
-43.731297 -90.34265 -17.050173
-43.70313 -90.23548 -16.860472
-42.949055 -94.755936 -20.03264
-43.095222 -94.39996 -20.075
-43.090683 -94.439995 -19.639837
-43.231697 -94.13553 -18.673725
-42.82384 -94.12073 -17.511744
-43.013092 -93.74452 -17.047514
-43.089058 -93.46221 -20.481455
-43.399395 -93.74778 -19.458294
-43.0241 -93.41837 -16.532646
-43.09371 -92.98856 -15.9138
-43.153816 -92.49144 -20.147614
-43.189358 -92.46252 -15.556506
-43.059772 -92.22279 -15.297756
-42.833076 -91.87757 -20.22731
-43.523094 -91.59677 -19.415215
-43.467705 -91.2254 -15.466047
-43.09219 -91.68778 -15.248377
-43.139614 -90.8561 -19.142408
-43.443996 -90.64595 -18.451529
-43.361435 -90.68145 -15.674796
-43.12196 -90.96569 -15.396098
-43.03806 -90.372765 -18.606176
-43.417095 -90.18024 -17.204235
-43.37818 -90.12219 -16.490395
-43.04798 -90.19302 -15.907634
-41.666748 -96.08438 -22.286661
-41.675575 -96.31185 -21.69748
-42.250355 -95.25264 -21.376387
-42.403038 -95.3822 -20.478294
-41.890587 -95.2677 -18.855183
-41.65858 -94.59362 -23.190155
-42.13997 -94.364815 -22.41169
-42.512283 -94.782585 -21.273424
-42.439274 -94.166954 -17.265171
-42.242558 -94.33939 -17.196917
-41.839794 -93.40274 -23.325125
-42.169773 -93.472855 -22.559614
-42.60463 -93.48893 -16.340837
-42.434723 -93.03429 -15.64401
-41.888622 -92.952866 -23.064041
-41.891315 -92.579735 -22.485304
-42.45211 -92.456604 -15.24669
-41.89965 -91.91661 -21.066563
-42.44239 -91.71411 -20.340557
-42.38716 -91.414474 -15.132957
-42.53659 -90.552055 -19.14709
-42.614838 -90.4857 -15.531738
-42.402813 -90.75436 -15.339466
-42.590256 -90.3919 -19.004646
-42.385574 -89.91708 -17.180555
-42.34017 -89.93427 -16.428083
-42.48526 -90.16598 -15.880337
-40.68972 -105.07529 -20.380348
-40.664997 -104.3964 -21.612877
-40.855747 -104.445244 -20.448454
-40.734184 -104.45516 -19.860094
-40.705135 -103.707794 -21.131855
-40.786625 -103.678955 -20.280865
-40.723804 -103.48214 -20.00673
-40.599384 -102.29214 -28.05638
-40.77464 -102.30038 -27.53433
-40.72502 -102.29524 -26.86702
-40.647465 -101.78417 -28.104782
-40.74148 -101.588066 -27.491043
-40.696007 -101.79783 -26.754768
-40.615864 -101.19587 -27.448565
-41.023464 -96.8594 -22.998451
-40.68574 -97.62194 -22.926043
-40.76943 -97.08981 -21.270123
-40.62142 -96.41421 -24.074535
-41.35054 -96.37586 -22.769405
-41.04962 -95.884094 -18.942722
-40.84961 -95.7684 -23.936213
-41.496773 -95.75129 -22.863834
-41.170616 -95.27079 -18.263947
-40.806717 -94.404785 -24.011347
-41.57521 -94.83809 -23.207748
-41.798126 -94.33952 -16.970257
-41.028767 -93.25593 -24.259111
-41.231537 -93.475006 -16.447908
-41.54758 -92.999146 -15.850652
-40.632324 -92.73483 -24.729311
-40.92834 -92.75857 -24.289877
-41.562023 -92.66846 -23.304535
-41.41846 -92.52735 -15.597028
-41.870792 -92.16001 -15.255884
-41.40578 -92.06036 -22.168102
-41.521404 -91.9462 -21.388296
-41.34803 -91.15457 -15.484496
-41.811317 -91.511826 -15.239524
-41.990494 -90.57512 -19.154142
-41.57894 -90.57909 -15.703903
-41.834553 -90.9384 -15.350804
-41.9259 -90.30546 -18.485128
-41.732018 -90.06841 -17.223225
-41.755604 -90.00356 -16.66569
-41.672894 -90.20948 -16.076887
-39.5465 -107.376305 -27.357954
-39.60967 -107.49653 -26.653511
-39.620754 -107.38419 -25.873438
-39.57113 -106.65104 -27.13232
-39.73137 -106.77358 -26.661228
-39.54896 -106.79257 -25.73863
-40.04532 -105.731285 -21.422432
-40.03655 -105.8753 -20.552496
-39.925144 -105.905815 -19.961672
-39.94688 -104.98539 -22.34138
-40.43219 -105.50835 -21.17435
-40.486755 -105.43313 -20.512852
-40.287426 -105.21735 -19.65813
-39.816555 -105.34941 -19.307756
-39.58251 -103.76519 -25.957895
-40.223427 -104.64803 -22.156578
-40.478615 -104.69775 -19.416035
-40.183327 -102.98156 -27.99583
-40.354424 -103.00883 -27.488844
-40.30618 -103.02756 -26.566
-39.850395 -103.28739 -25.767492
-40.476833 -103.57782 -19.544462
-40.068367 -103.64276 -19.055193
-40.064186 -102.183975 -28.832287
-40.395885 -102.47638 -28.21385
-40.567253 -102.62384 -27.721443
-40.116047 -102.443146 -25.823318
-40.35467 -102.98495 -21.877148
-40.17059 -102.70917 -20.015154
-40.035336 -101.494514 -28.923847
-40.4275 -101.45926 -28.460543
-40.484978 -101.41905 -26.524843
-40.17459 -102.00358 -25.887856
-39.796886 -101.73313 -22.225887
-40.17489 -101.874 -21.387638
-40.114403 -102.04827 -20.696142
-39.96472 -101.03401 -28.85292
-40.17048 -100.90513 -28.38738
-40.368927 -100.941605 -27.62313
-40.323326 -101.15369 -26.754805
-39.817852 -100.84052 -21.532524
-39.61137 -99.926636 -20.51594
-39.95786 -99.58379 -22.201416
-40.113503 -99.125374 -21.623775
-39.833607 -99.432846 -20.756704
-39.73553 -97.78107 -24.30272
-40.213726 -98.241264 -23.406122
-40.384995 -98.38303 -22.592995
-40.230675 -98.381004 -21.98784
-39.919704 -98.397285 -20.4631
-40.41185 -97.40729 -23.9107
-40.513645 -97.56341 -23.493427
-40.536797 -96.5512 -24.198692
-40.248425 -96.48575 -19.4831
-39.58221 -95.43372 -27.075523
-39.682926 -95.71559 -26.34726
-40.63082 -95.07931 -17.815502
-39.742443 -94.26141 -26.446833
-40.53518 -94.85793 -24.292816
-40.909157 -94.158424 -16.850893
-39.734604 -93.50034 -26.298935
-40.05633 -93.29399 -25.605646
-39.768845 -92.77046 -26.002354
-40.14626 -92.49804 -25.233301
-41.20847 -92.09298 -15.645094
-39.85319 -91.98362 -25.345613
-40.203 -91.71059 -24.262701
-39.926 -91.46528 -23.2865
-40.627586 -91.83344 -22.71655
-40.56645 -91.76446 -20.243015
-40.57799 -91.58301 -16.599766
-40.947823 -91.332924 -15.89684
-40.76149 -91.08668 -18.683027
-40.884087 -90.71362 -17.276478
-40.931717 -90.58484 -16.443218
-41.098953 -90.81115 -15.8797
-41.159256 -90.22943 -16.974623
-41.19497 -90.26536 -16.53111
-38.78341 -108.59931 -26.95317
-38.899815 -108.61122 -26.408527
-38.896084 -108.040245 -27.873966
-39.09512 -108.203735 -27.363333
-39.26973 -108.19904 -26.520254
-39.15638 -108.16049 -25.678167
-38.691463 -108.50398 -25.085592
-38.98741 -107.5414 -27.984436
-39.425655 -107.48726 -27.387417
-39.412247 -107.65855 -25.70328
-39.011547 -107.666084 -24.864496
-38.86297 -106.810104 -28.154299
-39.46497 -106.46554 -27.264061
-39.527077 -106.25088 -26.013454
-38.738388 -106.02825 -24.728024
-39.616615 -105.996315 -21.178387
-39.603527 -106.17922 -20.804901
-39.68687 -105.78337 -19.546677
-39.007687 -105.85557 -19.190393
-39.233612 -105.9776 -27.607727
-39.321655 -105.40018 -26.50561
-39.472454 -105.9501 -25.83443
-38.851322 -105.52286 -24.57321
-39.32075 -105.39914 -18.954956
-38.69114 -104.56681 -27.951777
-39.47686 -104.81223 -22.740349
-39.132927 -104.050285 -18.463112
-39.37731 -103.54364 -27.992397
-39.02236 -103.36342 -18.05381
-39.534843 -102.396614 -29.041643
-39.16692 -102.61851 -23.550152
-39.36368 -102.65184 -18.545635
-38.910946 -102.66476 -17.968195
-39.562115 -101.46971 -29.218609
-38.9868 -101.427246 -24.650408
-39.150948 -101.650375 -23.619036
-39.350067 -101.54385 -19.48674
-39.482033 -101.063446 -29.109995
-39.671738 -100.64709 -28.626312
-39.068916 -100.130585 -23.06224
-38.956627 -99.93976 -27.876547
-39.321877 -99.45949 -23.240112
-39.233288 -99.42556 -19.93595
-39.42508 -98.30945 -19.90754
-38.79636 -96.92159 -27.079437
-39.503155 -97.30998 -19.94822
-38.87013 -96.08412 -27.91794
-39.129944 -96.230545 -27.400566
-39.331783 -96.15472 -26.864477
-39.63375 -96.75693 -25.0014
-39.419712 -96.353 -19.240158
-39.062614 -95.36164 -27.920006
-39.38203 -95.61076 -27.29102
-39.524715 -95.83484 -26.792841
-39.513622 -95.27029 -18.454058
-39.52218 -94.923004 -18.282434
-38.91263 -94.53652 -27.895075
-39.439724 -94.77115 -27.374094
-39.48543 -94.317856 -17.974043
-39.353996 -93.787636 -27.087847
-39.912033 -93.79259 -17.283285
-39.1397 -92.96448 -27.104053
-39.279842 -92.30401 -26.486525
-40.06624 -92.5218 -16.968855
-38.96648 -92.06504 -26.578798
-39.504093 -91.612526 -25.286291
-39.767742 -91.54752 -22.566713
-39.66287 -92.128685 -17.72506
-39.323154 -91.066284 -24.27021
-39.502586 -91.1764 -23.511847
-39.12043 -91.12138 -22.75648
-38.35454 -108.75526 -27.158285
-38.47066 -108.8061 -26.499403
-38.41094 -108.75408 -25.789482
-37.951607 -108.8181 -24.47707
-37.665176 -109.238846 -19.922134
-37.646286 -109.39633 -19.523958
-37.621624 -109.381485 -18.856024
-38.40222 -108.18034 -28.009565
-38.537247 -108.483864 -27.668041
-38.393185 -107.92108 -24.51949
-37.93792 -108.36135 -23.851368
-37.642418 -108.02863 -20.979965
-37.80858 -108.58552 -19.601004
-37.671646 -108.65357 -18.572144
-38.522533 -107.64622 -28.295773
-38.55064 -107.74166 -24.625822
-37.676727 -107.379395 -23.061333
-37.79423 -107.820625 -20.673983
-38.28258 -106.70332 -19.785275
-37.61676 -106.21011 -22.095854
-38.239746 -106.27343 -19.593678
-38.848717 -105.30907 -18.729252
-37.677265 -104.21848 -30.024626
-37.76921 -103.53237 -30.444721
-37.792244 -103.777 -29.695448
-38.765583 -103.19883 -28.567274
-38.118984 -103.23376 -17.190712
-37.71627 -102.824165 -30.083714
-37.67609 -102.43714 -16.54072
-38.292465 -101.57606 -29.418934
-38.351788 -101.3979 -17.912804
-37.97751 -101.22763 -16.878574
-37.810932 -100.57697 -17.611847
-38.440758 -99.49271 -26.205597
-37.792786 -98.75384 -27.913475
-38.354534 -98.87801 -27.318146
-38.43638 -98.756226 -26.495016
-38.399326 -98.27985 -25.754818
-37.99106 -97.73326 -27.507048
-37.985233 -95.87302 -28.657623
-38.23992 -96.61136 -27.943043
-38.020107 -95.38692 -28.670591
-38.538116 -95.400314 -28.412418
-39.073486 -95.16157 -18.5942
-38.43512 -94.72901 -28.34113
[...]
POINT_DATA 2467
SCALARS features_00 float 1
LOOKUP_TABLE default
0.5109469 0.59000635 0.6405908 0.6660261 0.60292506 0.6455169 0.7260705 0.79884386 0.8434598 0.61793184 0.6617564 0.7549883 0.885009 0.92449003 0.65209913 0.771989 0.8628472 0.92877585 0.83646095 0.87127084 0.36552137 0.36969393 0.39755726 0.4852061 0.499636 0.5536048 0.38952726 0.4581753 0.61150277 0.7217146 0.5124839 0.8436961 0.8875871 0.46431112 0.5567843 0.93184537 0.9190817 0.5634906 0.65934783 0.9400519 0.9325524 0.6479485 0.82534945 0.92485523 0.9382925 0.21010277 0.20778695 0.24951881 0.29365855 0.44647264 0.28290555 0.31646696 0.26256344 0.4975726 0.48814288 0.3709656 0.38230613 0.6124727 0.7422906 0.38964993 0.34127328 0.85861325 0.33994013 0.4229994 0.90619683 0.5543329 0.9188572 0.908962 0.5861852 0.8437443 0.88789845 0.9101521 0.6236233 0.64107084 0.6408105 0.6184186 0.56806153 0.57248956 0.5411186 0.6633645 0.66625524 0.6353872 0.6733945 0.67797035 0.6436814 0.6669668 0.17569521 0.16042739 0.2217142 0.16152492 0.19193283 0.33315128 0.17770694 0.20888485 0.41602528 0.25228858 0.25738162 0.4858369 0.3198124 0.5831138 0.7154831 0.3072487 0.34369692 0.3885988 0.789032 0.85911876 0.24208422 0.26738814 0.84345657 0.8750582 0.53209627 0.85499626 0.8787004 0.6593124 0.7758276 0.8234943 0.84619606 0.67371535 0.6639296 0.5959294 0.59477866 0.5917002 0.5232476 0.5749672 0.54517174 0.51779157 0.58462846 0.6096438 0.60094535 0.5761152 0.516732 0.2803468 0.61212146 0.5839202 0.58182776 0.5997112 0.5591708 0.3815145 0.5242146 0.48715532 0.6028184 0.63831747 0.647478 0.4916041 0.37303597 0.41464472 0.6030939 0.6531986 0.607857 0.51094234 0.051730454 0.22762284 0.3184016 0.5778213 0.610852 0.6386506 0.59619486 0.097679764 0.16429207 0.17971021 0.20638132 0.19169968 0.12996323 0.16391818 0.16536053 0.17931786 0.20544401 0.16061983 0.16224238 0.1540593 0.20653199 0.34928617 0.2352251 0.3954679 0.30623537 0.18268561 0.48960674 0.30351418 0.25785846 0.31450024 0.30514827 0.79908526 0.34921345 0.4080361 0.32731375 0.29455483 0.30627957 0.6978742 0.7836239 0.5897393 0.72175676 0.7824874 0.81521565 0.77218175 0.8065289 0.6768812 0.6598382 0.6940857 0.70103264 0.68593097 0.6071728 0.52212715 0.6801182 0.68295324 0.5971728 0.47601283 0.5923042 0.57095194 0.48314792 0.3438483 0.4857424 0.46680284 0.4898314 0.39797932 0.47606638 0.35629353 0.4145339 0.21095252 0.4441909 0.006865591 0.46369725 0.4143821 0.3669724 0.31204367 0.51973265 0.021791838 0.31809387 0.26738712 0.5210519 -0.04776606 -0.17024149 0.19250251 0.48046803 0.5077243 0.036897868 0.29542845 0.14054014 0.11748853 0.08721377 0.20769775 0.08361305 0.34674406 0.3176077 0.26834583 0.06467206 0.17890722 0.38817543 0.3546453 0.2923514 0.22965024 0.2554084 0.4089387 0.37877113 0.2942978 0.3625415 0.4382484 0.36491117 0.35593534 0.5431546 0.36630976 0.39140362 0.27091268 0.4498925 0.41781044 0.34616962 0.31441027 0.63883567 0.62748903 0.57575977 0.41195297 0.46993878 0.5192521 0.5487222 0.65673 0.665685 0.40781242 0.27631953 0.19223902 0.41471115 0.50276196 0.65659195 0.4194 -0.021781348 0.13986804 0.26337206 -0.1524826 0.31369722 0.38608134 0.26723412 0.33491445 0.15999949 0.23559082 0.18710826 0.24383652 0.1669822 0.25714007 0.22867511 0.20408604 0.13782336 0.083446115 0.0376997 0.064234406 0.048595577 -0.047901347 0.12851477 0.3331715 0.2873838 0.3622287 0.38849002 0.12050214 0.40677294 0.37835294 0.365214 0.3685447 0.12337898 0.3041371 0.36210835 0.37106034 0.3801995 0.41164076 0.42594624 0.37126285 0.31635913 0.25489664 0.45458275 0.52965283 0.55535465 0.5737429 0.53431463 0.5020428 0.4541747 0.3552395 0.3017718 0.5573272 0.56019276 0.5709673 0.104438126 0.17078131 0.51911366 0.5237849 0.15186739 0.39755318 0.78298473 0.70605683 0.48351562 0.095327474 0.19353098 0.62482584 0.65261036 0.77578557 0.7330822 0.59013057 0.596637 0.63557845 0.63587546 0.6932229 0.6374343 0.5157348 0.3543712 0.54288733 0.4637646 0.34307575 0.18370005 0.33663866 0.3028124 0.23802821 0.22509176 0.17692462 0.09796052 0.11723074 0.3058445 0.38630688 0.057718165 0.12010739 0.3666495 0.40020153 0.28717262 -0.097421974 0.3052714 -0.07003772 0.2852769 -0.036161624 0.30186388 0.27589023 0.33193165 0.15910128 0.26815686 0.3223526 0.41323018 0.27720755 0.2364004 0.43715128 0.40284383 0.30719554 0.41382378 0.4914186 0.5276986 0.5836028 0.21637392 0.30128884 0.42275882 0.4923048 0.5531333 0.6006516 0.6247365 0.41838455 0.34691095 0.25000575 0.3045103 0.35328007 0.5839715 0.60664326 0.39931184 0.54316765 0.22175418 0.6596313 0.19931379 -0.19120881 0.5653385 0.6261766 0.8367827 0.8180603 0.7038158 0.6212021 0.6636754 0.6836306 0.812948 0.6654228 0.74998415 0.47638857 0.60692304 0.6380396 0.5996055 0.18175521 0.3371667 0.15513137 0.32246113 0.40606746 0.31330794 0.24941516 0.3553692 0.43664828 0.54422057 0.28773755 -0.110528715 0.07332538 0.43897045 0.51084584 0.5738017 0.085177585 0.41355962 0.49087873 0.5348088 0.60947514 0.4945354 0.526973 0.5434293 0.59898365 0.2401053 0.47933605 0.52740574 0.27676547 -0.07676178 0.2690837 -0.050554603 0.15539773 0.2625776 0.4594897 0.38659173 0.41109818 0.41027403 0.258221 0.18391165 0.3311805 0.32009783 0.3998324 0.5435656 0.6130761 0.6339328 0.2322078 0.17715113 0.16984871 0.24895918 0.2915988 0.63466835 0.28609338 0.6148379 0.2880473 0.27171314 0.16475874 0.05664119 0.3882423 0.6556967 0.24480642 0.13611601 0.39412248 0.5182779 0.6010144 0.6752791 0.82092774 0.8248781 0.70198876 0.7080772 0.78948283 0.79936826 0.6808813 0.6888633 0.7721282 0.76182306 0.57522005 0.6158467 0.670179 0.47935635 0.3750322 0.34876737 0.4483466 0.32767582 0.553913 0.30382967 -0.3653476 -0.07862346 0.62156296 0.6419425 -0.0027233213 0.11611088 0.62471044 0.6364027 -0.23987064 0.3133263 0.42372274 0.57259434 0.5944747 0.45411605 0.52510697 0.5395274 0.5607449 0.1627261 -0.08719904 0.19044402 0.17472148 0.19725671 0.24209984 0.51464194 0.4882453 0.3941012 0.6421224 0.66218615 0.6022697 -0.03461436 0.34234062 0.35396287 0.70651764 0.71726596 0.58772326 0.6637534 0.7375012 0.64714766 0.21558894 0.36351508 0.5266552 0.6151997 0.6333873 0.39157614 0.3428474 0.24565598 0.15517811 0.13293426 0.14989305 0.6375556 0.6018071 0.5982256 0.257343 0.44120038 0.20416668 0.1866987 0.632902 0.111237556 -0.20012765 0.32419533 0.46572828 0.5831698 0.66843563 0.76439095 0.7415107 0.4113659 0.70018715 0.70535874 0.762875 0.7431956 0.68763244 0.75005597 0.7022008 0.6416969 0.5901361 0.31006187 0.42755142 0.27537787 0.2590489 0.5899556 0.6433184 0.41777706 -0.5292471 -0.08199828 0.63221157 0.48078397 0.40768304 0.08237826 0.58277375 0.5840626 0.49384162 0.46042687 0.35176897 -0.28772736 0.1613161 0.5099567 0.5287218 0.4323748 0.17866495 0.2321531 0.4038083 0.408072 0.48517817 0.16048993 0.1473265 -0.031120494 0.43264407 0.31770512 0.31151885 0.5948827 -0.0021187812 0.3109784 0.6761749 0.13209568 0.72584534 0.74818206 0.7617835 0.7353834 0.6163749 0.5678346 0.6685612 0.70437676 0.6059661 0.49936783 0.6881646 0.74453896 0.75514644 0.68576497 0.18434556 0.3772297 0.43691796 0.43769532 0.4250517 0.32813373 0.14625 0.09178316 0.087871045 0.60950506 0.35972497 0.29745352 0.31390905 0.2233539 0.3734042 0.44084758 0.52058697 0.62829995 0.67616796 0.6841151 0.6490164 0.46084565 0.6506721 0.6576826 0.5080692 0.31995445 0.4029057 0.18086447 0.5202795 0.04375754 0.56742954 0.2760061 0.5416995 0.46409494 0.45616108 0.4915157 0.48859334 0.44164586 0.451611 0.12133363 0.06850712 0.18791683 0.2079629 0.21568002 -0.029914804 0.44095778 0.044930488 0.5856332 0.018343253 0.63950133 0.68680596 0.07475821 0.7253246 0.74701774 0.48595923 0.32110018 0.10064765 0.7447542 0.75357634 0.73817515 0.60001767 0.5703777 0.46318766 0.676974 0.7319224 0.7441937 0.6503272 0.44572467 0.41807127 0.3482468 0.22142851 0.019003127 0.30928916 0.6114233 0.42299002 0.33842564 0.3148786 0.14551193 0.37355876 0.48547363 0.19301179 0.44048297 0.13629222 0.09586841 0.36741775 0.17118707 0.3701762 0.39375663 0.30741057 0.35231757 0.43223757 0.39935493 0.1809769 0.46929234 0.16458139 0.4431319 0.20596059 0.25201502 0.17374018 0.23884816 0.24335806 0.3946778 0.027029315 0.17542513 0.25493005 0.46124598 0.5503229 0.5966601 -0.038967267 0.024682753 0.66779715 0.48563498 0.6988772 0.7175048 0.6902864 0.6727654 0.3197974 0.20519117 0.7249242 0.7235722 0.5860871 0.46165985 0.6999296 0.69185257 0.5779217 0.5766588 0.61201596 0.62993133 0.55961585 0.6227989 0.63895494 0.661821 0.44213447 0.4201041 0.14582972 0.08274403 0.007063783 0.6962173 0.4141613 0.43554306 0.7463534 0.7385699 0.38368613 0.33091325 -0.1453636 0.17791829 -0.13097472 0.17671959 0.13511829 0.29320186 -0.09564701 0.25678438 0.0916077 0.30559766 0.2715498 0.2212091 0.02661772 0.34000644 0.1188151 0.41735196 0.3792963 0.09910742 0.38968554 0.35496208 0.16227241 0.2320551 0.20640278 0.41286784 0.2216925 0.26440948 0.2520764 0.46704155 0.048425775 0.5167493 -0.07177132 0.6399314 0.59048903 0.08712437 0.08186901 0.68315804 0.6748415 0.659889 0.62618643 0.3215468 0.100960836 0.45340306 0.49994177 0.5141779 0.32196984 0.60508925 0.5919714 0.6039788 0.61086375 0.6380944 0.66481376 0.49725085 0.6615747 0.69994366 0.19766301 0.19961387 0.12737921 0.07294994 0.7449111 0.3557134 0.21796101 0.68288887 0.1967914 0.5460455 0.08259252 0.17602046 -0.24431553 0.2104411 0.3568066 0.43749273 0.5834172 0.5417523 0.238213 -0.4177605 0.321581 0.35205865 0.46867043 0.4426933 0.3136999 0.36796188 0.4630043 0.19556692 0.25222385 0.08913324 -0.0087200515 0.008201294 -0.021242931 0.19952868 0.16823809 0.0107013285 0.31374633 0.011950955 0.35366124 0.10837925 0.35953715 0.13944872 0.11553179 0.34430045 0.2780174 0.19214094 0.37417674 0.29199857 0.1923747 0.22269277 -0.03381069 0.0107859 0.43248203 0.38348645 0.25726995 0.009174585 -0.1381874 0.5075476 0.5040773 0.15027791 0.32102638 0.19926943 0.61729825 0.6167453 0.5737318 0.60415006 0.6132833 0.6141534 0.6358454 0.66416454 0.47603825 0.6935922 0.19799611 0.19280358 0.12991098 0.7124826 0.70920175 0.1611165 0.6307461 0.059774645 0.17815307 0.0474841 0.04714126 0.03560191 -0.15985715 0.5152022 0.61755157 0.6571065 0.663615 0.33150068 -0.35756022 0.24382484 0.34910977 0.5968672 0.59382415 0.27775237 0.47063667 0.23610368 0.28864875 0.2547171 0.17140667 0.22212547 0.26343605 0.14747466 0.36399817 0.44419062 0.081797674 0.2756741 0.42982018 0.456401 0.07447907 0.09473479 0.16996664 0.26731068 0.35913336 0.20347086 -0.08248261 0.20246279 0.25923693 0.277746 -0.055399433 0.3368241 0.33997393 0.10429835 0.313878 0.2965991 0.06343244 0.1500778 -0.05844144 0.14373928 0.01709041 0.013273969 -0.0011600889 0.026989818 0.07521499 0.12367575 0.10166617 0.091402054 0.09235039 0.080284685 0.19315055 0.16062054 0.1005006 0.5221609 0.6167981 0.61714375 0.58939856 0.59776545 0.3364604 0.46482962 0.6108608 0.65075684 0.6220253 0.20354137 0.1866046 0.5140261 0.10001245 0.43976325 0.08122745 0.2385915 0.2776237 0.16675372 0.07097386 0.625126 0.65689003 0.6814138 0.31719553 0.0850679 -0.016557232 0.35462993 0.522198 0.6505572 0.67870545 0.66310024 0.39703903 0.36713344 0.29373586 -0.08877103 0.6206029 0.40496445 0.37244913 0.44086623 0.3769703 0.31838867 0.28842294 0.280382 0.23696628 0.257271 0.40759397 0.44908714 0.22288172 0.47005582 0.48415035 0.12361577 0.50840765 0.5189344 0.3582331 0.49271736 0.16861299 0.2008508 0.28662953 0.36093545 0.22859983 -0.08633344 0.22931853 -0.090744354 0.32045048 0.29678306 0.27818173 0.088376984 0.009482391 0.26383996 -0.12098987 0.014593042 -0.014061116 -0.07103626 0.010325566 0.052064527 0.029066116 0.036354087 0.031287067 0.16010246 0.087670125 0.059683487 0.21491344 0.22554208 0.09630346 0.15932149 0.17400818 0.5480381 0.5923554 0.57790136 0.54925805 0.46849483 0.5128865 0.24462485 0.34416074 0.449434 0.14087123 0.35323688 0.34910694 0.06595238 0.11032287 0.08578914 0.49710602 0.42404515 0.24854319 0.18249014 0.056371555 -0.0124455225 -0.04717314 0.5764724 0.6368091 0.6838496 0.4179809 0.40450305 0.058830246 0.05278011 -0.10081161 -0.026334837 0.50222987 0.68873763 0.68514264 0.44135204 0.42366105 0.6265602 0.4407591 0.4077384 0.32770902 0.37556112 0.36057466 0.36471736 0.40503335 0.29905385 0.48455763 0.4472878 0.1521301 0.5159552 0.4253811 0.48106432 0.16655709 0.04925111 0.22580062 0.20585373 0.28077596 0.29104316 0.16386893 0.30457008 0.32774293 0.34420562 0.37977064 0.2490995 -0.12306793 0.25782815 0.35655496 -0.04642678 -0.049823947 0.0066977106 -0.03357891 0.096449785 0.06495628 0.17151296 0.18808246 0.35900784 0.223537 0.1511472 0.15776938 0.4745322 0.4225265 0.5047332 0.5215008 0.43263182 0.4359032 0.3682894 0.28777975 0.2985255 0.5782593 0.6139089 0.6010382 0.5704291 0.26601484 0.48245114 0.5152233 0.19187097 0.14806214 0.055894833 0.09000911 0.56204 0.608988 0.52891856 0.46540385 0.110245556 -0.025320694 -0.11573772 0.052097835 0.38468117 0.593804 0.67289364 0.5273324 -0.17239329 0.5782109 0.5481752 0.21672112 0.45291728 0.2837373 0.33258635 0.35409027 0.3266353 0.3881847 0.41600958 0.41358867 0.4265266 0.34160912 0.1858765 0.010526285 -0.027440371 -0.021434806 -0.060232863 0.13310744 0.31941015 0.28416994 0.04794977 0.24437314 0.34732777 0.3444772 0.37227762 0.32240492 0.36024112 0.31123593 -0.073751785 0.03461755 0.2688636 0.2976047 0.1870391 0.17711626 0.040965986 0.22674675 0.19056033 0.02090646 0.15284888 0.15395707 0.16067521 0.071914226 0.1229422 0.061649505 0.1532901 0.25262672 0.24637015 0.23503855 0.1242156 0.4508617 0.5178388 0.46109313 0.34678584 0.43544865 0.5331707 0.51573616 0.4446773 0.6406727 0.6316948 0.621673 0.46025404 0.50905085 0.44266054 0.62349707 0.64059967 0.6249758 0.59724534 0.5932853 0.26794615 0.34528178 0.41503 0.3547662 0.5316142 0.5760884 0.52051955 0.23696029 0.3302062 0.56215316 0.5290697 0.09427749 0.04933682 0.039034154 0.18764701 0.11094718 0.16994119 0.44742122 0.6102033 -0.020886958 0.043402463 0.011815093 0.5412628 0.60335773 -0.11351898 -0.29629362 -0.1488933 0.53252816 0.33036703 0.3775774 0.3247064 0.24245949 0.049398124 0.36950445 0.24904329 0.18685892 0.34824616 -0.04474248 0.436006 0.04550638 0.4965133 0.13035937 0.27047703 0.23394716 0.35947293 0.339401 0.3847835 0.28796917 0.36025518 0.39563495 0.34150973 0.30602616 0.32815307 0.28534344 0.045987774 -0.04329011 0.4239782 0.25959888 0.23370434 0.42213607 0.0018824413 -0.07651186 0.23451205 0.29683766 0.33784178 0.3388366 0.30912912 0.24236193 0.32662636 0.25154757 0.1049074 0.3455934 0.3744642 0.4157554 0.44788063 0.4549075 0.54623777 0.50554895 0.33888465 0.42839348 0.46511778 0.54797924 0.6375537 0.63377035 0.53493 0.5156834 0.6012264 0.639552 0.6374401 0.63045573 0.6440494 0.44338733 0.5107806 0.51347125 0.47206283 0.88598436 0.9219809 0.5473189 0.56676316 0.39177012 0.42380336 0.47800434 0.43503246 0.8726901 0.9199853 0.89645463 0.58366287 0.55451095 0.653046 0.26534215 0.28253368 0.32821244 0.24592386 0.2277306 0.19861917 0.1943852 0.7401752 0.8738994 0.81899273 0.5898638 -0.01692301 0.07307782 0.13013898 0.094326004 0.8104427 0.8053722 0.731089 0.5642204 0.0010569133 0.047950126 0.047700897 0.016187936 -0.1264761 -0.3361271 0.53648055 0.042661905 -0.20009223 -0.16592501 0.30020773 -0.13914438 0.23852451 -0.0075962767 0.31314474 0.42227694 0.10930893 0.54470503 0.48283875 0.06957403 0.14843613 0.5864309 0.60862535 0.22782293 0.590407 0.53784144 0.3393683 0.5131811 0.4414683 0.42430204 0.45606875 0.3969469 0.30921003 0.40320605 0.26444805 0.62042546 0.320836 0.28070801 0.6505338 0.60366154 0.5305219 0.17179774 0.008560799 0.3835649 0.35275432 0.31225607 -0.23551801 0.061893594 0.44507596 0.42938003 0.3986799 0.52947843 0.4012693 0.44156334 0.51060224 0.49729842 0.6179893 0.6511395 0.66917783 0.70543957 0.8536041 0.8938162 0.910015 0.5366545 0.5675039 0.6182859 0.7292416 0.70265317 0.78904283 0.88693136 0.7911847 0.51723593 0.46936128 0.69265765 0.28130668 0.28054312 0.273743 0.5496659 0.784695 0.74975705 0.5322095 0.50705904 0.43376064 0.65524197 -0.054037534 0.04282579 0.19021091 -0.18211588 0.30047324 0.6831455 0.6219618 0.7076626 0.51990104 0.46280462 -0.16167022 -0.16425312 0.5554857 0.4527979 0.51481086 0.4720617 -0.009878103 0.048215736 0.03911096 -0.0030629523 -0.15807061 -0.022673197 -0.21759424 -0.024666287 -0.06692222 -0.0018556528 -0.09439179 0.18344152 0.4332368 0.014476851 0.4688573 0.5116365 0.37532854 0.46878907 0.5124239 0.5279492 0.33871406 0.35383785 0.66646624 0.28186837 0.338646 0.649065 0.2555036 0.6470388 0.19492517 0.6260389 0.3240994 0.5573786 0.5332312 0.51819676 0.4762904 0.37871185 0.15773672 0.4891296 0.56134385 0.652392 0.67766726 0.6920911 0.67886007 0.6306634 0.19800319 -0.15353996 0.34548014 0.33926815 0.22850789 0.19172698 -0.16192053 0.41122165 0.06571166 0.06365696 0.04602934 0.44877023 0.5244447 0.49010563 0.83840424 0.66126597 0.69974065 0.7245879 0.73799217 0.80047923 0.8555403 0.8857932 0.5688224 0.65652066 0.7159655 0.7448399 0.7355442 0.8043531 0.43477356 0.47662634 0.5955092 0.7377026 0.72090507 0.28676713 0.2809773 0.26520312 0.06043206 -0.052416608 0.66621083 0.43420327 0.4017744 0.4467423 0.71524477 0.6950921 0.100556925 0.23062976 0.2292411 0.6550989 0.38725576 0.35078156 0.68202853 0.6515439 -0.12254901 0.39815465 0.31332985 0.1982356 -0.24799363 -0.17315623 -0.09945816 0.32473162 0.010891465 -0.02826668 0.004980143 -0.24255005 -0.12001966 0.15002818 -0.14506973 0.48556712 0.53063077 0.047172293 0.045287266 0.5499189 0.18151768 0.54779595 0.5667461 0.42376977 0.51148295 0.68521595 0.7019987 0.27788192 0.6839344 0.014617309 0.035795696 0.06853327 0.6499425 0.613489 0.17415665 0.5883422 0.5530956 -0.04472415 0.2934174 0.5355529 0.4888123 0.1847108 0.10353238 0.41267148 0.5019597 0.13570148 0.67304194 0.0060384106 0.07872322 0.20070831 0.7108444 0.71694285 0.6386602 0.26123932 0.32465258 0.33355746 0.34927943 0.21743271 0.14405432 0.032395 0.36392337 0.5517416 0.53625655 0.052384526 0.731315 0.7498392 0.7923894 0.6722564 0.71317506 0.7801497 0.81261384 0.6565615 0.7144866 0.62344205 0.7476889 0.66930115 0.6230699 0.70986474 0.7379191 0.2668516 0.24530822 0.6318654 0.5182497 0.6483107 0.7121309 0.7333835 0.23226903 0.56069744 0.53442085 0.58686787 0.14628828 0.1836558 0.5032401 0.21717602 0.5447356 0.029998593 0.09314795 0.37112153 0.44308314 0.025820684 -0.26308993 0.5064475 -0.07257396 0.02254537 -0.23104593 0.5524087 0.5794215 0.22706337 0.2592796 0.6068394 0.500872 0.33592904 0.54858476 0.6529283 0.5656636 0.43399817 0.68171716 0.2662106 0.6789601 0.6403001 0.6553658 0.5900701 0.70884126 0.7642119 0.5722058 0.5278003 0.4718691 0.32627207 -0.08244913 0.209764 0.45757824 0.6458553 0.6998223 0.75975454 0.8232844 0.48109454 0.3091117 0.30043972 -0.23905398 -0.060959756 0.499371 0.56813157 0.64527714 0.7561214 0.81471217 0.55340004 0.40781018 0.3945488 0.19966634 0.03273198 0.017788388 0.49703693 0.5532129 0.64433444 0.7654904 0.64351106 0.5957118 0.37902254 0.16306192 0.7016466 0.6448604 0.1721271 0.3862571 0.061849803 0.40464646 0.23101331 0.2837127 0.66082466 0.71277106 0.5640794 0.29771572 0.74028385 0.68023646 0.74463284 0.71606123 0.72135687 0.7389045 0.7374488 0.650988 0.700773 0.72857744 0.7264721 0.6830251 0.16610685 0.5680633 0.18688323 0.16303676 0.13216044 0.16386724 0.21752179 0.5789572 0.5939195 0.56905484 0.49808127 0.548606 0.59068817 0.4867727 0.05932741 0.49347788 0.39941686 0.44040543 0.55582714 -0.18427159 -0.024296217 -0.3008315 -0.26998657 0.53341997 0.57097036 0.3181534 0.5556139 0.22503039 0.5129421 0.4374271 0.60101116 0.46166146 0.2682448 0.2668466 0.5997914 0.5176339 0.611508 0.53068674 0.4342981 -0.07293965 0.14338249 0.15395455 0.67085147 0.5695716 0.521463 0.4219774 0.29132462 0.089526564 0.4324659 0.6846731 0.8397566 0.42267752 0.2211743 -0.0016536415 0.011115417 0.06619052 0.048517205 -0.024929855 -0.4593597 -0.047986947 0.021592755 0.88154155 0.9062531 0.102499716 -0.29283303 0.24497895 0.8880883 0.92657447 0.3096098 0.18467504 -0.16147119 0.43424195 0.5226335 0.6078354 0.76363 0.875841 0.2796978 0.3067199 -0.1011396 0.45026568 0.48259515 0.57666683 0.81408924 0.3794145 0.034390867 0.41137183 0.07319145 0.11289623 0.43373382 0.17753927 0.47081757 0.44773713 0.2515162 0.78230286 0.34972042 0.30964297 0.79777175 