# vtk DataFile Version 2.0
Really cool data
ASCII
DATASET POLYDATA
POINTS 2413 float
-43.578053 -92.2604 -18.931599
-43.62919 -92.35713 -18.30913
-43.614067 -92.239006 -17.861721
-43.56968 -91.63957 -18.829176
-43.658188 -91.60208 -18.198221
-43.59498 -91.44805 -17.686913
-42.896755 -94.279015 -19.672087
-42.625443 -93.244514 -20.949007
-43.007618 -93.605934 -20.266306
-43.164165 -93.508766 -19.48072
-43.296684 -93.18194 -18.624586
-42.997986 -93.08879 -17.569052
-43.272808 -92.40765 -19.431496
-43.521454 -92.53027 -18.350544
-43.29049 -92.58587 -17.287638
-42.963036 -92.25671 -16.520576
-43.22935 -91.50263 -19.244524
-43.504837 -91.200264 -18.390745
-43.451256 -91.88274 -17.273872
-43.25259 -91.52211 -16.673033
-43.146168 -90.88791 -19.07151
-43.0984 -90.61671 -18.612318
-43.495987 -90.99922 -17.529667
-43.142654 -90.45659 -16.612324
-42.86788 -90.42056 -16.067469
-42.889114 -90.19037 -18.524488
-42.96654 -89.97619 -17.461512
-42.894672 -89.898476 -16.641806
-42.807537 -90.08878 -16.195465
-41.70827 -96.10221 -22.286434
-41.973415 -96.04484 -21.419249
-41.823887 -95.796844 -20.154274
-41.71603 -95.75425 -22.89057
-42.126102 -95.2628 -22.258669
-42.238354 -95.42215 -20.389433
-42.452984 -94.92693 -19.623055
-41.884937 -95.003365 -18.777685
-41.929455 -94.20515 -23.260216
-42.24024 -94.24843 -22.58759
-42.44024 -94.40828 -21.446325
-42.35245 -94.20709 -18.478575
-42.003075 -94.04559 -17.50348
-41.76683 -93.601166 -23.874245
-41.923195 -93.39453 -23.404978
-42.201153 -93.57451 -22.253403
-42.25945 -93.17227 -21.498413
-42.60343 -93.64322 -17.598995
-42.631443 -92.78621 -16.63497
-41.761997 -92.80739 -23.246553
-42.177345 -93.110664 -22.616163
-42.34352 -92.792015 -21.510433
-42.57855 -92.64362 -16.499647
-42.16042 -92.09672 -15.754573
-41.962166 -91.56615 -20.498932
-42.2084 -91.449104 -15.525925
-42.024685 -91.124084 -15.367439
-42.262714 -90.9618 -19.924133
-42.266098 -90.39159 -19.462349
-42.327995 -90.508644 -15.6371155
-41.918232 -90.868675 -15.36523
-42.216015 -90.14749 -19.101252
-42.353127 -89.77823 -18.193062
-42.44729 -89.56183 -17.437492
-42.419277 -89.56424 -16.46538
-42.39761 -89.897064 -16.030428
-42.25848 -89.39335 -16.878992
-40.68471 -105.18384 -21.117533
-40.776627 -105.24256 -20.372618
-40.750484 -104.98394 -19.640541
-40.82082 -104.416885 -21.259808
-41.001007 -104.33257 -20.40523
-40.908035 -104.33055 -19.68411
-40.69961 -104.3487 -19.249443
-40.887787 -103.69702 -20.397966
-40.867317 -103.85232 -19.721563
-40.691677 -103.852875 -19.221033
-40.59659 -102.21312 -27.861982
-40.66871 -102.31961 -27.407633
-40.679134 -102.30395 -26.803722
-40.657143 -102.98817 -20.468714
-40.613647 -101.91567 -27.942953
-40.669357 -101.65616 -27.465427
-40.676746 -101.68149 -26.82338
-40.56149 -97.813965 -22.416544
-41.169117 -97.07765 -21.709574
-41.029564 -96.749176 -20.67748
-40.66095 -96.683075 -24.324915
-41.38369 -95.93052 -23.286398
-41.311386 -96.191605 -20.34176
-41.42896 -95.355095 -18.707603
-41.497776 -94.73928 -18.160814
-41.303673 -94.28652 -24.238552
-41.70296 -94.44221 -17.706696
-41.092846 -94.13579 -17.101852
-41.364395 -93.28862 -24.181612
-41.275936 -93.174484 -16.463835
-41.63982 -92.818436 -16.168962
-41.039547 -92.716835 -24.285433
-41.546764 -92.57625 -23.243998
-41.65652 -92.42156 -22.401049
-41.266975 -91.92365 -15.471578
-41.4318 -91.87709 -15.443223
-40.842907 -92.203995 -24.00118
-41.282433 -92.16311 -22.69019
-41.118366 -91.9496 -21.593666
-41.746014 -91.45567 -20.420654
-41.53639 -91.33753 -15.345909
-41.73705 -90.282715 -15.562096
-41.633953 -90.72881 -15.388826
-41.488495 -90.189384 -19.249619
-41.55116 -89.68669 -18.255417
-41.216846 -89.50723 -16.412249
-41.523563 -89.85005 -15.8921585
-41.564064 -89.372375 -17.31763
-41.599094 -89.347626 -16.717386
-39.58247 -107.890656 -26.670458
-39.54819 -107.91484 -25.9985
-39.67778 -107.40916 -27.006151
-39.6657 -107.50848 -26.551077
-39.593475 -107.746056 -25.91181
-39.605877 -106.63968 -27.084812
-39.69979 -106.58217 -26.48791
-40.13857 -105.75737 -21.318148
-40.302643 -105.82452 -20.5398
-40.185978 -105.90639 -19.871105
-40.39408 -105.629524 -21.229237
-40.561768 -105.638725 -20.32515
-40.49697 -105.348495 -19.584549
-40.177277 -105.196594 -19.05963
-40.31781 -104.70893 -21.96717
-40.357502 -104.42383 -18.972303
-40.0329 -102.882416 -28.082195
-40.26245 -103.02471 -27.382307
-40.004894 -103.120476 -25.625576
-40.367954 -103.89534 -22.053255
-40.498547 -103.36945 -19.40665
-40.296215 -103.75142 -18.879534
-39.97941 -102.17575 -28.74483
-40.317398 -102.25923 -28.25761
-40.50883 -102.657166 -27.546236
-40.46992 -102.35504 -26.401365
-40.43466 -102.11024 -26.21143
-39.718136 -102.46849 -22.803314
-40.361866 -102.591675 -21.469229
-40.2846 -102.2787 -20.805412
-40.08053 -102.78003 -19.140587
-39.93448 -101.60481 -28.767502
-40.34542 -101.684364 -28.304071
-40.29983 -101.43359 -26.327833
-40.32259 -101.63982 -26.194828
-39.79106 -101.30052 -22.161615
-40.31196 -102.06651 -21.060389
-39.80232 -101.191444 -28.758875
-40.08077 -100.9752 -28.169693
-39.988346 -100.744316 -27.755655
-39.841785 -100.67738 -27.050373
-39.949802 -100.28616 -22.261906
-39.729347 -100.37476 -20.777182
-39.79099 -99.4566 -23.465572
-40.21633 -99.294334 -22.323917
-39.960342 -99.82098 -21.09862
-40.297375 -98.34866 -23.203686
-40.282654 -98.05511 -21.445183
-40.137356 -97.69846 -24.22516
-40.631184 -97.12808 -21.17424
-40.56946 -96.89101 -20.533098
-40.180973 -97.02139 -19.96694
-39.58683 -96.449974 -25.898531
-40.519382 -96.501495 -24.464962
-40.302216 -96.40654 -19.445744
-40.415276 -96.00484 -18.822166
-39.558907 -95.28078 -27.029295
-40.176453 -95.590485 -24.968473
-40.58558 -95.75453 -24.35165
-40.838 -95.43884 -18.537588
-40.57649 -95.07133 -18.12332
-39.65732 -94.043465 -26.736374
-40.447876 -94.56878 -17.54472
-40.548183 -94.17231 -17.140793
-40.055187 -93.45963 -26.062077
-40.179802 -93.19069 -25.403955
-40.535847 -93.3592 -16.672712
-39.64707 -92.759964 -26.778332
-39.9676 -92.85603 -26.208263
-40.195377 -92.59808 -25.343557
-40.39865 -92.345695 -16.421122
-40.780613 -92.232605 -15.969624
-39.733273 -92.19835 -26.039751
-39.979496 -91.81113 -25.092669
-40.159912 -91.78325 -24.581001
-40.706867 -92.00727 -23.26108
-40.360466 -92.02373 -22.219471
-40.974213 -91.537704 -20.946968
-40.73186 -91.5598 -15.638851
-41.066055 -91.25717 -15.426312
-39.81712 -91.324265 -23.565016
-40.63029 -90.68377 -15.741001
-40.870083 -90.12783 -18.898672
-40.469425 -89.95499 -17.849943
-40.767998 -89.59443 -17.45739
-40.718456 -89.6119 -16.69994
-40.877422 -89.9193 -16.04378
-41.03341 -89.452965 -17.016705
-41.010822 -89.45404 -16.783186
-38.882126 -108.72601 -27.173117
-38.999462 -108.711075 -26.694344
-38.88551 -108.74286 -25.943472
-38.903706 -108.09 -27.961979
-39.219006 -108.191315 -27.42265
-39.3474 -108.316246 -26.61764
-39.370358 -108.171585 -25.850012
-39.127796 -108.21123 -25.1023
-39.182095 -107.534744 -27.8619
-39.460163 -107.262215 -27.503363
-39.01148 -106.74417 -28.005238
-39.380695 -106.489174 -25.527775
-39.28399 -106.47316 -25.130463
-39.108067 -105.729904 -22.067257
-39.54308 -106.32792 -20.615974
-39.64906 -106.225685 -19.662891
-39.319126 -106.030624 -19.108747
-38.913666 -105.74684 -27.650784
-39.26342 -105.67864 -26.91834
-38.621563 -104.98242 -23.540192
-39.20879 -105.47704 -18.615416
-39.09639 -104.78432 -25.29489
-39.34169 -103.912186 -24.864786
-39.670647 -104.41445 -18.614527
-39.20496 -104.20102 -18.14717
-39.39491 -103.64047 -24.538227
-39.416817 -103.334206 -23.08123
-39.187927 -103.36922 -17.985683
-39.36898 -102.20165 -28.992226
-39.639412 -102.71824 -28.64453
-39.496273 -102.58173 -24.380438
-39.47867 -102.39051 -18.650942
-39.13995 -102.67786 -18.04742
-39.45497 -101.49087 -29.03375
-38.94874 -101.6089 -18.848751
-39.36646 -101.06847 -28.929752
-39.662033 -100.6123 -28.270487
-39.24092 -100.006195 -20.438087
-39.017155 -100.99483 -19.668869
-39.21302 -100.16275 -27.284464
-39.025528 -99.12527 -20.138418
-39.017967 -98.33907 -24.619976
-39.469154 -98.104065 -20.315054
-38.655155 -97.37578 -26.41209
-39.71105 -97.807045 -20.407005
-39.0488 -95.86868 -27.88276
-39.041164 -96.280846 -27.393118
-39.245586 -96.32349 -26.77346
-39.883213 -96.3736 -19.200607
-38.98973 -95.25216 -28.035221
-39.23085 -95.41301 -27.611837
-40.02004 -95.04759 -18.063034
-38.956917 -94.42877 -27.909275
-39.296143 -94.35342 -27.472588
-39.84812 -94.05837 -17.46729
-39.217113 -93.27882 -27.334902
-39.432747 -93.14539 -17.50649
-40.113113 -93.35353 -16.90179
-39.291107 -92.62022 -27.017826
-39.484745 -92.408745 -26.61595
-39.52408 -92.747 -17.171278
-39.141697 -91.858215 -26.365238
-39.4503 -91.536026 -25.426022
-39.84964 -91.8823 -22.369215
-40.18451 -91.60318 -20.355
-39.899315 -91.69608 -16.670849
-40.213726 -91.5326 -16.059633
-39.316616 -91.06443 -24.507086
-38.82099 -90.64668 -23.580576
-39.08937 -91.258286 -22.384756
-40.20089 -90.33206 -18.192856
-39.882545 -90.40034 -17.446465
-39.98956 -90.54791 -16.481998
-40.17162 -90.62899 -16.142025
-40.045795 -90.02668 -17.373287
-40.243683 -89.9591 -16.639317
-37.55823 -110.0431 -19.18192
-37.65437 -109.84606 -18.835388
-38.248116 -108.66371 -27.831257
-38.470634 -108.81813 -27.304197
-38.476337 -108.9589 -26.545313
-38.273155 -109.045876 -25.717161
-37.87525 -108.8015 -23.706282
-37.62561 -109.714096 -19.530672
-37.635204 -109.48159 -18.663992
-38.50292 -108.20624 -28.063942
-38.176785 -108.34037 -23.781818
-37.573315 -108.13402 -19.319624
-37.578846 -108.24273 -18.669018
-38.43501 -107.480736 -28.325706
-37.754784 -107.70286 -19.832758
-38.416016 -106.82371 -28.178406
-38.486744 -106.320694 -20.966423
-38.7682 -105.056 -18.3086
-38.261116 -104.289986 -17.554205
-38.29286 -102.989426 -28.865284
-38.53607 -103.49698 -28.349596
-38.207516 -102.99399 -17.261139
-38.292767 -102.14866 -29.213707
-37.892525 -102.68776 -16.836054
-38.4784 -101.54083 -29.317583
-38.502552 -101.87493 -17.65737
-37.999783 -101.8083 -16.963701
-38.537018 -100.86724 -29.068113
-38.03214 -100.945045 -18.88988
-37.971558 -101.006905 -17.285208
[...]
POINT_DATA 2413
SCALARS features_00 float 1
LOOKUP_TABLE default
0.5443337 0.5735345 0.6028627 0.5821622 0.616963 0.66331226 0.47305638 0.36275804 0.41957974 0.48220515 0.5246803 0.5760006 0.49687722 0.56291354 0.6198982 0.7226899 0.57445925 0.63872707 0.66406554 0.790256 0.6314293 0.68743706 0.73269176 0.8958563 0.9164691 0.7283962 0.85397595 0.9150265 0.93112075 0.37225127 0.36479548 0.3332664 0.3604241 0.39283466 0.39009488 0.4277584 0.3736907 0.36305246 0.35189947 0.37886497 0.45316353 0.4957953 0.3640029 0.3699181 0.3501355 0.3451214 0.5397647 0.6587154 0.36533576 0.365226 0.33305725 0.6893674 0.7745483 0.35103184 0.8158585 0.8410237 0.52883613 0.6018746 0.9118842 0.86829126 0.6554592 0.7835776 0.857795 0.9279263 0.94233316 0.89642787 0.6171298 0.629099 0.6189046 0.60665107 0.6143129 0.5939454 0.5678805 0.55567896 0.5547681 0.5276268 0.6780757 0.67171276 0.6280198 0.480906 0.6780678 0.6851088 0.6644579 0.24121878 0.27578276 0.24633026 0.1358749 0.30590418 0.28885463 0.34626612 0.39513442 0.30721068 0.44095072 0.47185436 0.34241024 0.58866376 0.6702042 0.3301274 0.35801408 0.3283518 0.74799514 0.75903815 0.33869624 0.30567878 0.17800876 0.3559888 0.81677395 0.9213598 0.8742259 0.58723485 0.7501169 0.8858999 0.9422142 0.81311727 0.8797195 0.6563932 0.6061392 0.67148256 0.63980675 0.5935079 0.6597178 0.5988498 0.5605684 0.59920275 0.6074994 0.5860125 0.61789656 0.616815 0.57921815 0.5301888 0.5371606 0.61296606 0.59907866 0.23466101 0.41926146 0.48042738 0.48181665 0.6198597 0.66106987 0.6490458 0.5649234 0.55733037 0.080924876 0.32411385 0.34548005 0.3882017 0.63055754 0.6707088 0.6295512 0.584758 0.098874934 0.28143245 0.6316879 0.6849961 0.70331335 0.7080179 0.17278497 0.1146469 0.17324194 0.1725807 0.14263992 0.21949726 0.16596624 0.20051086 0.21570578 0.20315276 0.17292035 0.14080106 0.11949318 0.26076022 0.3093807 0.33190268 0.12703158 0.17469923 0.3435998 0.36566243 0.3260913 0.40949464 0.44662863 0.2928924 0.28099808 0.49540868 0.33739287 0.32128114 0.29817048 0.5782787 0.6561394 0.32890242 0.31471077 0.32168704 0.32054102 0.1699493 0.21338779 0.75546867 0.80885994 0.30960122 0.88699764 0.6461441 0.73336965 0.76357114 0.83492553 0.91778195 0.8148278 0.8381971 0.68537426 0.6562886 0.5867871 0.7299759 0.70656383 0.6553651 0.59391934 0.5150727 0.73339343 0.70792186 0.7131932 0.46477103 0.37024373 0.41727674 0.53660536 0.5813767 0.5420232 0.63747716 0.5822704 -0.07744718 0.481121 0.0009412654 -0.04065021 0.46604592 0.3822775 -0.05304376 -0.0026910156 0.3357301 0.5345967 0.5747216 0.012613744 0.27775827 0.28056353 0.5669348 0.15328476 0.57547104 0.66105926 0.029172376 0.052753728 0.64800334 0.05883211 0.12839973 0.100706875 0.17640764 0.11294235 0.36045426 0.32762378 0.26218712 0.25291714 0.36714983 0.36059028 0.33956176 0.3575415 0.35540104 0.3956826 0.34354612 0.40215862 0.45918313 0.34560475 0.34130397 0.4539134 0.34614605 0.33960563 0.20305443 0.1551062 0.6407163 0.7117511 0.3589619 0.30269092 0.24378258 0.6919485 0.7527108 0.8597002 0.88557297 0.76568526 0.8344178 0.5567091 0.57660264 0.68425584 0.6776245 0.62722087 0.5404129 0.2299847 0.5323655 0.5800962 0.71459067 0.28129852 0.51276296 0.52807057 0.70124674 0.40457055 0.6755035 0.39499778 0.36883616 0.23550244 0.3617504 0.39010584 0.22249287 0.3680206 0.19488959 0.40103105 0.21419868 0.21919051 0.41369614 0.17758265 0.2144176 0.2202149 0.26029128 0.026475549 0.35402328 0.08034295 0.22109096 0.3596797 0.34510753 0.3532834 0.17817138 0.3421537 0.32070962 0.33680886 0.34155667 0.026363172 0.4671558 0.34622866 0.34087315 0.122112095 0.050749898 0.5645548 0.31455508 0.3510461 0.28881556 0.2507952 0.31787342 0.2830186 0.47467306 0.5213472 0.5621057 0.47157687 0.5352295 0.5853305 0.60428774 0.6518656 0.60703766 0.47157252 0.27601284 0.1529038 0.11475316 0.47138494 0.5825275 0.57012045 0.5477952 0.63542676 0.21139517 0.42251942 0.5231873 0.5077357 0.60502076 0.44976962 0.34356815 0.4473791 0.34593293 0.5927118 0.6215654 0.09270598 -0.00418815 0.5325618 0.57629347 0.57191956 0.3839556 0.32062185 0.3023343 0.13970399 0.23884821 0.42347407 0.30684933 0.050027974 0.20228595 0.3381742 0.21466613 0.2032594 0.39008242 0.4807372 0.42045903 0.3150128 0.33321235 0.3421781 0.33000433 -0.047697745 0.31706035 0.23115054 0.3766679 0.08079103 0.44839957 0.20263258 0.11824942 0.29728323 0.26474416 0.2339128 0.3630327 0.49556482 0.615611 0.6536897 0.66854095 0.12154019 0.19337717 0.3497954 0.37447765 0.6301538 0.6294621 0.4174202 0.5694872 0.5624923 0.45658666 0.5006206 0.43300444 0.34854558 -0.17846128 0.459795 0.62826216 0.6452402 0.6446106 0.63051045 0.6015106 0.46896878 0.2946964 0.46364272 0.4896513 0.20536794 0.277171 0.4668685 0.4464764 0.43465322 0.49950638 0.5615327 -0.36788732 -0.05095627 0.19386932 0.24125642 0.32484022 0.5363637 0.5979587 0.62727106 -0.16731149 0.3577285 0.43045273 0.5488628 0.59927 0.2759933 -0.10599676 0.4399901 0.5285769 0.5706182 0.57998806 0.009308694 0.31816715 0.2999323 0.06554367 0.2526031 0.32717386 0.1864326 0.45551348 0.34805793 0.4524361 0.24054453 0.18089636 0.058988612 0.17337318 0.34723026 0.22131798 0.63196397 0.18458393 0.18049619 0.33516097 0.51450664 0.6166691 0.6823926 0.6880073 0.2670985 0.25665438 0.18727727 0.1392784 0.18643418 0.6367476 0.32848036 0.25223494 0.56976116 0.34750617 0.48647237 0.2804934 0.53146243 0.60048604 0.6037837 -0.024164673 0.6090951 0.5883391 0.56029207 0.4660812 0.4087292 0.4925871 0.48533475 0.31509644 0.48149705 0.48914203 0.31453332 0.4204234 0.4570929 0.56118107 0.60655904 0.35217685 -0.058102705 0.63496184 -0.11169215 -0.2179338 0.6093403 0.62889516 0.29076695 0.5667523 0.5985962 0.28123578 0.40759927 0.49492428 0.5261669 0.5403831 0.271663 -0.14993538 0.26718527 0.1896357 0.33278757 0.3766549 0.4241469 0.5025587 0.40851772 0.39668995 0.48571643 0.29581404 0.36731774 0.49468705 0.44905698 0.3189934 0.24446371 0.3534869 0.6325225 0.6010102 0.54518294 0.17525674 0.2856661 0.45299095 0.5635322 0.6742015 0.6962689 0.31214797 0.31043723 0.28410417 0.21247876 0.102595314 0.679644 0.31404147 0.28582734 0.41297257 0.2050388 0.14590031 0.49088132 0.5111271 0.55842304 0.55052006 0.57499176 -0.023603061 0.56504667 0.43461186 0.21657562 0.45976263 0.4120877 0.39848876 0.34505495 0.29225186 0.4626282 0.43459004 0.31634384 0.5058753 0.5177434 -0.011986509 0.64748836 0.43935567 0.38028374 0.6289333 0.47013748 0.44007835 0.0038406774 0.52760327 0.5769667 0.442945 -0.18736795 0.12642968 0.2828964 0.48564318 0.47898793 -0.19715686 0.28932807 0.39205298 0.40159076 -0.09150353 -0.14085169 0.17807688 0.14478615 0.23222646 0.34147507 0.34151748 0.31832847 0.64304066 0.17121378 0.21437667 0.62186134 0.5893966 0.48186088 0.44309908 0.3346177 0.20391035 0.603825 0.5507436 0.61027336 0.65864164 0.6358194 0.55468863 0.6911465 0.69156635 0.67035174 0.20392606 0.6379641 0.40521738 0.37584674 0.28646582 0.66544664 0.37251163 0.36659884 0.56918746 0.07898629 0.02157358 -0.045736212 0.09006499 0.4481516 0.52044904 -0.26292875 0.50028074 -0.0915918 0.305207 0.2667235 0.23021914 0.32178763 0.52687216 0.63091624 0.42132592 0.58183795 0.4425536 0.45840383 -0.14327568 0.4637105 0.54257536 0.45528328 0.47143745 0.39551306 0.45541167 -0.050935987 0.19151668 0.24411559 0.26346108 0.413295 -0.051302582 0.033122964 0.25678578 0.16997053 0.37456128 0.071578264 0.71644807 0.17878824 0.69268 0.2287911 0.6379752 0.58396536 0.5158275 0.41695452 0.5724416 0.48814458 0.6597381 0.673079 0.6329486 0.3515209 0.41881728 0.44417083 0.43930584 0.41040325 0.24331117 0.13322006 -0.038618684 0.424986 0.3075268 -0.1693477 -0.08811906 0.24619968 0.35716325 -0.13206644 0.20982853 0.74290836 0.010873713 0.69382226 0.6310854 0.059110865 0.12194702 0.018400047 0.35897684 0.2675493 0.5066884 0.3742252 0.35106045 0.41577196 0.3770753 0.4434216 0.4520959 0.27054992 0.46105158 0.14987507 0.26474652 0.106173575 0.26288316 0.2774875 0.29610047 0.2293194 0.56982064 -0.10471863 0.6734884 0.10235073 0.70929325 0.6681967 0.135313 0.27539632 0.20668404 0.64656436 0.6100594 0.5267063 0.30657476 0.4258241 0.4464774 0.37077305 0.5746693 0.59584427 0.5591028 0.5308793 0.53504926 0.54789263 0.5740062 0.5583286 0.57669544 0.42925635 0.3674069 0.2467179 0.14073646 0.14447463 0.015414219 0.5611162 0.38927752 0.5318698 0.35339493 -0.078128494 -0.20802256 0.008941759 -0.15022981 0.20295548 0.10546022 0.48614115 0.72210985 0.7527131 0.044044733 -0.10899329 0.24246988 0.48280945 0.62920624 0.7337375 0.7172382 -0.0028444678 0.63386947 0.60868835 0.08537375 0.5221126 0.48955214 0.5070684 0.47282198 -0.0007282868 0.10430169 0.022948388 0.20159999 0.4021745 0.22537336 0.38868546 0.10023981 0.43171716 0.43450856 0.09842445 0.42007834 0.32143527 0.21650407 0.16039197 0.10072893 0.28622887 0.24719442 0.26468608 -0.053466246 0.27626088 0.29432306 0.5019284 0.4346463 -0.106244 -0.10892536 0.6310159 0.60035837 0.024797507 0.6087344 0.54991865 0.3643136 0.09146501 0.14420956 0.17207818 0.44272548 0.37021026 0.30510247 0.2586848 0.5933834 0.57315433 0.5522582 0.5600792 0.5447488 0.55212873 0.56553483 0.5037321 0.57931745 0.17228416 0.17586966 0.5874317 0.15466532 0.54777336 0.32752746 0.06536976 -0.0069802017 0.19602521 0.45442387 0.22734773 0.21795812 0.32965106 0.5713956 0.6526594 0.6913198 0.2340532 0.23110665 0.7072782 0.18018354 0.5747884 0.09689707 0.4083926 0.081833534 0.06424186 0.32965985 0.23591283 -0.2575813 0.16007327 0.10197644 0.04247901 0.1914372 0.07030217 0.33817634 0.3808417 0.09468296 0.36560637 0.30683258 0.18336418 0.13923025 0.18397117 -0.2007602 0.23693608 0.1841692 0.21521552 0.24100035 -0.044205453 -0.100208074 0.025508128 -0.07566257 -0.08104079 0.40628693 -0.0007878691 0.005786702 -0.02816856 -0.06170135 -0.05750533 -0.06263095 0.040341064 0.12019628 0.04999441 0.17245606 0.12040657 0.604553 0.5810969 0.55547047 0.5830327 0.540544 0.5412364 0.26026008 0.54195565 0.56356955 0.18464777 0.1549096 0.57199657 0.18083146 0.18026516 0.48653483 0.08733245 0.37651274 0.10886008 0.13083842 0.21582313 0.18790194 0.15645486 -0.25531915 0.3168289 0.48376852 0.46572804 0.53767115 0.22209361 0.21728833 0.051126838 0.5522925 0.54950166 0.3194468 0.49103755 0.29162276 0.22952937 0.23968211 0.3900466 0.12442964 0.2012848 0.34627312 0.018912908 0.23550361 0.28711104 0.12185076 0.06183336 0.14797866 0.20707263 0.18859158 -0.023531284 0.30145 -0.04556208 0.34029254 0.045897774 0.25725177 0.16255471 0.111392274 0.21126273 -0.056929342 -0.18912967 0.18095887 0.19877344 -0.13801709 -0.03525511 -0.029222291 -0.033643633 0.05355086 -0.052410465 0.0164411 0.010716155 0.034252062 0.071957104 0.04584434 0.09174184 0.090217695 0.07623097 0.05705194 0.079739764 0.079619065 0.6083107 0.61788493 0.59852386 0.5656681 0.5212151 0.61239773 0.595714 0.54152 0.5199758 0.35568368 0.41382682 0.4861573 0.52881145 0.1361361 0.08707999 0.48995554 0.15856512 0.1567242 0.15204544 0.46522352 0.25461325 0.27019453 0.12473841 0.17130116 0.21892753 0.07496118 0.24013078 -0.15288317 0.31836122 0.37047982 0.3902937 0.40143007 0.32411566 0.42037666 0.40205288 0.4178102 0.39261824 0.38366854 0.41596657 0.4053509 0.27343386 0.4745291 0.15509254 0.43063468 0.068173975 0.3927837 0.4121232 0.3359415 0.0168267 0.21503943 -0.031467117 0.117447 0.030612003 0.12283352 0.06617935 -0.109055 -0.18384477 0.0664324 -0.14435905 -0.07200259 0.008804109 -0.038472954 0.026959125 0.048768725 0.08485548 0.031867698 0.06904205 0.09178437 0.09832891 0.049503393 0.08092703 0.13495117 0.1463742 0.098615386 0.16078097 0.13390203 0.16776724 0.5035447 0.58200043 0.5811204 0.5168976 0.407385 0.45501935 0.4534947 0.25184312 0.42754987 0.08605212 0.15958409 0.42442274 0.27506223 0.09824726 0.4037888 0.4938622 0.23006262 0.26110435 0.25033697 0.2148194 0.42165196 0.36153972 0.32778847 0.112355225 0.11970315 0.22865573 0.27531612 0.32502246 0.46559227 0.39469332 0.33049542 0.4774571 0.39642 0.42892164 0.5482025 0.28249794 0.5440544 0.23301417 0.17144614 0.457765 0.50215423 0.07343541 0.42323476 0.3617264 0.078859895 0.19460267 -0.018330157 -0.010201247 0.037645414 0.28898746 -0.117631935 0.21209796 0.33986872 0.29956895 0.32776746 0.3161134 0.27394983 0.25751573 -0.039346132 0.34344262 0.037671056 -0.0863664 0.04829481 0.09408427 0.07215543 0.0763382 0.09860049 0.093094185 0.12589812 0.11823449 0.30597728 0.31671005 0.32165217 0.26613984 0.1929394 0.4289701 0.4154223 0.45133865 0.50719327 0.5082131 0.4982368 0.2952338 0.42181087 0.4455803 0.4089709 0.30528238 0.39862227 0.5414771 0.57910895 0.61517924 0.604603 0.29492307 0.45022157 0.5047288 0.54405653 0.3158129 0.23235317 0.091036744 0.087801054 0.4178809 0.08702663 0.13551065 0.094458625 0.14512204 0.21009235 0.57012063 0.03739972 -0.015186831 0.028385177 0.16885248 0.5590408 0.10438657 0.2034002 0.41432405 0.5275152 0.4878527 0.554178 0.5609646 0.39603016 0.53716564 0.13032939 0.45453703 0.49989825 0.020517223 0.027908642 0.16754937 0.20731202 0.15726784 0.29114115 0.028836109 0.024520405 0.39505023 0.39992362 0.28558165 0.34783113 0.3781342 0.4078951 0.3066516 0.3093746 0.2878883 0.03127767 0.22163635 0.33884966 0.13253602 0.064933665 0.08696151 0.1893276 0.17173404 0.08271268 0.13010767 0.08603616 0.21433985 0.1081535 0.07743927 0.08126554 0.20145065 0.26445633 0.36411458 0.37645435 0.2597875 0.4602119 0.48340333 0.49863735 0.4132241 0.51025087 0.50462115 0.44623315 0.49244332 0.49653846 0.46907434 0.64605784 0.6427672 0.43523508 0.47352535 0.492396 0.4381799 0.40546858 0.6048111 0.63432187 0.63960004 0.6154878 0.3805731 0.3746845 0.53076863 0.50691694 0.046340764 0.5986273 0.12850693 0.19848658 0.053741705 0.624792 0.013387715 -0.045913916 0.035581887 0.14611492 0.60277057 -0.14073092 -0.2748408 -0.06611097 0.024895541 0.3598408 0.47354826 0.53656626 0.5362744 0.50848687 0.22369885 0.3928518 0.19350186 0.27300927 0.33749288 0.13797629 0.3153544 0.35293123 0.31542486 0.46401542 0.41924012 0.41678375 0.2645703 0.4320823 0.2913132 0.29265946 0.051703945 0.3129783 0.3977672 0.1866042 0.0380083 0.09727837 0.24641392 0.25765562 0.26716945 0.005044386 0.1433221 0.2703007 0.26321387 0.40299034 0.3175003 0.392209 0.3122037 0.19702658 0.33588913 0.3896383 0.43341196 0.5274899 0.54899555 0.5089226 0.47416693 0.48873004 0.46802464 0.6066369 0.63334405 0.63952124 0.62728953 0.62417084 0.45079815 0.46645465 0.47555846 0.44651735 0.8243762 0.8339503 0.56427777 0.5555397 0.37262338 0.37221962 0.41787 0.38922432 0.29139024 0.78200036 0.8081089 0.81221974 0.5849254 0.23527607 0.27442795 0.13998964 0.70679003 0.7606179 0.7945124 0.60329473 0.312698 0.32182637 0.76097095 0.58409905 -0.044772334 -0.22671214 -0.091443695 0.27075243 0.3023184 0.5249223 -0.25302124 -0.04264928 -0.051707327 -0.23179463 0.4993999 0.46645963 0.3524088 0.25423613 0.45598885 0.22328235 0.24588248 0.4980583 0.11963675 0.1625026 0.22501665 0.5247879 0.5050997 0.14798197 0.5881672 0.5142675 0.27109277 0.6416069 0.6105743 0.5634911 0.39944997 0.6461487 0.47161818 0.47668645 0.4464584 0.43710166 0.25793916 0.20538247 0.23200752 0.1367243 0.428313 0.42314398 0.31952623 0.46923652 0.42013496 0.22348891 0.3640383 0.26379418 0.3296484 0.4500814 0.3213877 0.45361722 0.37681115 0.47896373 0.2746292 0.37398708 0.45300713 0.4657079 0.5913912 0.6238158 0.6364074 0.62736154 0.7952758 0.8378679 0.84736526 0.8380861 0.5340432 0.5447084 0.61583996 0.5770938 0.57275426 0.6922783 0.82928455 0.8186863 0.5428977 0.48622358 0.33046082 0.25701374 0.25157762 0.79774666 0.5536127 0.5309978 0.16360262 0.08763136 -0.12989092 0.14727643 0.102544926 0.09263871 0.5253163 0.44460887 -0.13374116 0.6354326 0.5043181 0.461629 0.06486409 -0.07348216 -0.05439052 -0.07320472 0.0036899038 -0.227193 0.19394286 0.4480086 0.3476153 -0.101252414 0.10317033 0.491122 0.53092706 0.45964402 0.43317226 0.33180708 0.4406354 0.48882326 0.47071365 0.36828732 0.54047143 0.23566964 0.32171154 0.6116774 0.15279198 0.16352588 0.67672276 0.69626796 0.6907289 0.6998407 0.67067635 0.5739486 0.33749238 0.4055858 0.39659113 0.23913483 0.2518696 0.37176624 0.39146644 0.57387614 0.16877607 0.56528807 0.25574857 0.6115476 0.5884242 0.58230567 0.06474622 0.3063058 0.17945756 0.31080478 0.32775632 0.12199494 0.11082776 0.39158386 0.33177972 0.14160644 0.37726182 0.76381046 0.8193971 0.841843 0.62409085 0.7429476 0.8020334 0.84840375 0.83494294 0.5592657 0.5916631 0.60343313 0.59688485 0.4082176 0.7942239 0.4681443 0.5057435 0.5658424 0.5319642 0.27621177 0.27579764 0.2712648 0.19966695 0.15321332 0.74023205 0.4415096 0.41082564 0.4164621 0.1563665 0.25048953 0.1547422 0.1083151 0.4294654 0.4459921 0.35825062 0.33422118 0.2677042 0.388744 0.3801421 0.25702932 0.17951985 0.1411398 0.027247023 -0.02275208 -0.14340226 -0.049228087 0.017343316 -0.033762358 -0.12868898 0.10095847 0.46087962 0.52960473 0.5236069 0.5477456 0.4451453 0.41005886 0.48021233 0.5389426 0.5052818 0.44435424 0.469131 0.537397 0.61038184 0.67408 0.7001277 0.18372 0.12674154 0.7125596 0.7224326 0.29130816 0.7230104 0.67811936 0.5722026 0.34135932 0.33799055 0.6175151 0.29401448 0.3102578 0.6494894 0.061988562 0.15443526 0.681447 -0.059773922 0.07531795 0.24604276 0.66924113 0.6802708 0.66565275 0.54192036 0.27148446 0.2768873 0.18923563 0.21650958 0.23440488 0.35910535 0.22929479 0.21370366 0.11336123 0.07175461 0.15976664 0.112790555 0.7215748 0.78560686 0.81469536 0.57314473 0.64018774 0.8284532 0.820434 0.5624937 0.25688446 0.7445142 0.538798 0.5474174 0.5245313 0.22636643 0.1591289 0.17438474 0.18831235 0.119188055 0.5973498 0.47282863 0.4342608 0.49391046 0.40114897 0.19883126 0.18952316 0.15185001 0.47842187 0.3372187 0.35240787 0.30568707 0.2200154 0.34533823 0.34457985 0.35662425 0.36553395 0.34951493 0.12154324 0.36745974 0.032134514 -0.23499405 -0.08689575 0.22485769 0.42757553 0.23991513 -0.10884921 0.041401174 -0.0027535819 -0.20554493 0.491341 0.51384753 0.31981698 0.56622165 0.4139081 0.58836013 0.50051033 0.44518584 0.5509664 0.5289252 0.5399599 0.39635772 0.5914675 0.5860132 0.6781832 0.65223217 -0.08939161 -0.08524863 0.6832098 0.62916744 0.48059282 0.35466534 0.1789625 0.6300112 0.7094157 0.79517174 0.66034937 0.54778534 0.43061388 0.28356814 -0.034486394 0.04380481 0.18276387 0.447305 0.59179205 0.68173015 0.817143 0.8564341 -0.18676487 0.52738905 0.5830065 0.66675234 0.82206374 0.8790194 0.7007332 0.3550275 0.08795634 0.13879657 0.5714872 0.7679528 0.71937436 0.71556586 0.6482369 0.5396934 0.21177967 0.70609725 0.23453347 0.22920564 0.15357074 0.42384872 0.1869342 0.10553985 0.39201784 0.23258136 0.7090332 0.66742134 0.60336995 0.3155033 0.75939286 0.73739594 0.7242578 0.6429448 0.8146273 0.7919272 0.7464252 0.71578467 0.77072895 0.58015174 0.6891545 0.81625915 0.77163017 0.3008277 0.684602 0.6872473 0.13821536 0.17189565 0.29599854 0.584509 0.5859073 0.1741825 0.14278778 0.13871379 0.13019869 0.40381694 0.36617792 0.20555164 0.18522534 0.13873538 0.18421698 0.4541249 0.46210873 0.42761213 0.43026933 0.18716508 0.07913402 0.4274464 0.46079487 0.49157578 0.485749 0.43803167 0.4221094 0.39147168 0.4086282 -0.020358138 0.4557492 0.5042834 0.24591185 0.11321929 0.09092849 -0.3445976 0.5437105 0.18854798 0.08829737 -0.010224357 -0.033748776 0.5891385 0.4915219 0.41780254 0.30665904 0.09216644 0.5748029 0.527192 0.44304508 0.34172642 0.56961775 0.5045846 0.2690819 0.60028523 0.5656463 0.39427423 0.31605205 -0.032436267 0.7526604 0.5345829 0.46945316 0.336796 0.21940827 0.20216395 0.22137654 0.076024175 0.063612156 0.7971885 0.84657335 0.06931676 0.14524889 0.07072334 0.029177386 -0.68384224 0.1302183 0.87785816 0.9099021 0.33997744 0.24745902 0.16909815 0.28516302 0.28187954 0.9203705 0.94804424 0.61243826 0.45179152 0.18805635 -0.36547267 0.44965956 0.6563791 0.79442084 0.8954557 0.5992374 0.2628545 0.2953569 0.14792368 0.5609991 0.74204195 0.3260227 0.3817933 0.43787575 0.4349367 0.45694077 0.1833764 0.26829612 0.29154256 0.32946482 0.7959199 0.5802978 0.3879503 0.8393935 0.8241893 0.74210644 0.6285205 0.82340086 0.7649337 0.74491787 0.7670517 0.65688723 0.71173656 0.7901108 0.7997118 0.38221037 0.5798419 0.7242719 0.25817496 0.27696213 0.6130631 0.10836554 0.13496974 0.15939099 0.46526107 0.13620451 0.08008707 0.108972