# vtk DataFile Version 2.0
Really cool data
ASCII
DATASET POLYDATA
POINTS 6652 float
-31.617922 -93.38917 6.6570764
-31.775965 -92.97021 7.0808325
-31.555996 -92.93519 7.907941
-31.688559 -92.48536 5.7681265
-31.866058 -92.34589 6.6179028
-31.852564 -92.36258 7.3356495
-31.675571 -92.39107 7.9235234
-31.597836 -91.73083 5.7116823
-31.819185 -91.5987 6.554463
-31.79716 -91.58204 7.272544
-31.625809 -91.21002 6.628098
-31.704847 -91.25025 7.2659087
-30.596087 -94.89188 0.4943224
-30.686872 -94.8733 6.907861
-30.836815 -94.79707 7.270958
-30.559982 -94.27085 0.094838515
-30.542086 -94.773834 0.18497337
-30.67411 -94.44186 1.5036714
-31.045118 -93.913216 5.560407
-31.336926 -94.05339 6.7885594
-31.159191 -94.34683 7.4360723
-31.017208 -94.18732 8.159503
-30.724028 -93.52394 0.03691064
-30.959723 -93.21161 0.629586
-31.04654 -93.26543 1.4802907
-30.590557 -93.13003 2.7944252
-30.586578 -93.21823 3.8585987
-31.312534 -92.966545 4.7292104
-31.168352 -93.69357 5.193543
-31.469059 -93.55932 6.9552193
-31.416094 -93.75039 7.485026
-31.162025 -93.53614 8.415096
-30.796644 -93.21422 8.953756
-30.709505 -92.556885 -0.123451054
-31.013601 -92.54517 0.59602475
-31.07409 -92.52938 1.436635
-31.036737 -92.651115 1.9798037
-31.343058 -92.80138 4.779334
-31.2485 -92.45738 8.459744
-30.772163 -92.48269 8.888031
-30.648619 -91.933426 0.01726897
-30.827612 -91.828026 0.66974276
-30.784023 -91.647125 1.3600944
-30.62044 -91.76478 2.1236184
-30.862356 -91.965836 4.0886784
-31.12549 -91.667656 4.8026695
-31.304619 -91.689545 8.1459675
-31.068857 -90.910484 5.7887607
-31.196812 -90.76585 6.693483
-31.289928 -90.884094 7.297271
-29.884172 -95.731064 -0.28407028
-30.026546 -95.85635 0.5867117
-29.964624 -95.83235 1.1902812
-29.728016 -95.92126 5.9711156
-29.635788 -96.287186 7.695472
-29.568525 -96.42727 8.5176
-29.755743 -95.04065 -0.98031616
-30.068878 -95.27598 -0.2963562
-30.319752 -95.47918 0.62169284
-30.19025 -95.51907 1.2164851
-30.004822 -95.29293 1.8426623
-29.82918 -94.94748 2.9369206
-29.659363 -95.59271 5.672457
-30.557903 -94.89878 6.410025
-30.418657 -95.038 7.8548374
-30.338112 -95.07565 8.078717
-29.833435 -94.38714 -0.9944546
-30.422087 -94.49768 -0.17085543
-30.493502 -94.656296 1.7004175
-30.674314 -94.381256 8.533086
-30.087305 -93.8989 9.307693
-29.873083 -93.441086 -0.8751631
-30.51257 -93.641594 -0.15856132
-30.514025 -93.54302 9.18136
-30.116257 -92.361305 -0.7481477
-30.453922 -92.464874 -0.45165047
-30.474833 -92.53382 9.138264
-29.788132 -92.73334 9.748979
-30.067406 -91.93291 -0.6177857
-30.228819 -91.59211 -0.21650645
-30.55142 -91.47185 0.5625177
-30.168491 -91.77898 9.025993
-30.134426 -91.26284 0.08090992
-30.161623 -91.12468 0.58543235
-29.964895 -90.97388 1.8885503
-30.15517 -91.08827 2.2167602
-30.165606 -90.73635 4.420269
-30.20944 -90.48927 5.9755583
-30.34207 -90.93488 8.434403
-30.08814 -90.80462 8.699266
-30.19679 -90.38532 5.5551934
-30.229984 -90.18533 6.956348
-30.163168 -90.202286 7.4077935
-28.699306 -99.927055 8.01359
-28.763237 -100.01461 8.358175
-28.669592 -100.104034 9.011201
-28.976276 -99.14834 7.801988
-29.053165 -99.14894 8.548405
-28.89337 -99.2346 9.164711
-28.993809 -98.04932 6.9908066
-29.228361 -98.3778 7.7472
-29.212147 -98.64354 8.453492
-29.100023 -98.35294 9.273485
-28.771523 -98.1261 9.83998
-29.062727 -97.575676 6.7096195
-29.462881 -97.09123 7.736716
-29.365282 -97.78681 8.713602
-29.271584 -97.67158 9.267349
-28.859724 -97.46479 9.847908
-29.281942 -95.731255 -0.90358526
-29.55285 -95.95112 -0.1731941
-29.296595 -96.314316 0.5074624
-29.569511 -95.97992 1.6451365
-29.436886 -95.86972 1.8203149
-28.92878 -95.62712 2.9530783
-29.150064 -96.11161 5.085303
-29.31936 -96.3025 5.8505664
-29.404646 -96.599434 6.3918376
-29.41355 -96.769714 8.497091
-29.08714 -96.76452 9.309025
-28.858719 -97.04363 9.762093
-29.399231 -95.22464 -1.0975871
-29.307978 -95.28088 3.1733239
-29.578375 -94.8581 4.0100446
-29.466087 -94.39123 -1.3587865
-28.985361 -94.56592 9.4762535
-29.559483 -93.53659 9.625265
-29.526936 -92.59718 -1.0202221
-29.089758 -92.208496 10.030743
-29.576607 -91.8142 -0.747711
-29.59271 -91.43448 -0.45109752
-28.813753 -90.96074 11.336776
-29.271042 -91.20296 -0.2931229
-29.282122 -90.67477 0.66334486
-29.216372 -90.58851 1.2343494
-29.655376 -90.77132 2.9964404
-29.29276 -90.61324 3.0956311
-28.973537 -90.59666 10.659633
-28.972754 -90.20202 11.68886
-28.704887 -90.135574 12.332225
-28.859667 -90.20704 2.5261283
-29.637924 -90.058624 6.540439
-29.262503 -89.824 7.801331
-29.107384 -89.59494 8.691944
-28.804768 -89.46849 10.427293
-28.994991 -89.92481 11.599961
-28.742514 -89.6024 12.208609
-28.948704 -89.30873 8.684447
-28.799576 -89.10245 11.257772
-28.625322 -89.04802 12.15951
-27.92424 -100.84298 7.8938193
-28.140427 -100.78812 8.3674755
-28.213276 -100.67263 8.972502
-28.306131 -100.17452 7.7043347
-28.47106 -100.45922 8.5754175
-28.372578 -100.22431 9.271523
-28.022726 -99.86093 9.98137
-27.734106 -99.115974 3.5704136
-27.76578 -99.20893 4.3335257
-28.554102 -99.27326 7.2169304
-28.179523 -99.37683 10.09744
-27.805025 -98.30777 3.033231
-27.924137 -98.60479 3.65851
-27.922796 -98.5393 4.5286307
-28.463457 -97.87008 6.2230797
-28.345833 -98.513885 6.6194315
-28.309662 -98.500244 10.193392
-27.741722 -97.51219 3.6615272
-28.637829 -97.597984 10.087405
-28.22168 -96.41627 -0.29595968
-28.619144 -96.2899 1.3665363
-28.498804 -96.23922 4.593978
-28.181059 -94.92219 -1.9559612
-28.726837 -95.27953 -1.3702924
-28.259043 -95.72388 9.771721
-28.185186 -94.69963 -1.968989
-28.678823 -94.60835 9.486581
-28.576698 -94.09424 -1.7362607
-28.052206 -93.48504 -1.5318375
-27.704315 -93.63653 10.656817
-28.093317 -92.83118 11.028667
-28.334076 -92.43099 -1.175486
-28.560774 -92.42054 10.56069
-28.153282 -92.3196 11.316912
-27.979485 -91.36538 12.48952
-27.867271 -90.9902 12.998621
-28.41346 -90.67568 12.424782
-27.968979 -90.37724 13.302066
-27.676777 -90.036476 13.877524
-28.115957 -89.88801 1.8178225
-28.311125 -89.76084 2.759163
-28.231674 -89.50814 5.4161077
-28.476805 -89.630684 12.563457
-27.995245 -89.427 13.43082
-27.705202 -89.45314 13.845123
-27.71213 -89.10756 2.6640575
-27.950556 -88.19291 5.362474
-28.02707 -88.79851 6.9593706
-28.371296 -88.7962 8.632778
-28.45504 -88.86831 9.283839
-28.108603 -88.44931 10.687974
-28.382364 -88.625175 11.53656
-28.235746 -88.85779 12.499997
-27.86251 -88.83935 13.315114
-27.677763 -89.113205 13.821783
-27.932667 -87.55704 4.8449306
-27.988419 -87.11648 5.2335334
-27.856094 -87.39709 6.5383334
-27.607952 -87.845795 6.995904
-27.932806 -88.32405 10.877435
-27.938862 -88.27803 11.431355
-27.957006 -88.31019 12.094323
-27.874392 -86.61848 4.8224235
-27.828884 -86.36353 5.579133
-27.682587 -85.832535 4.8596926
-27.73491 -85.95213 5.4565444
-27.70222 -85.950356 5.9370475
-26.620111 -107.023415 6.8612046
-26.659134 -107.015755 7.376662
-26.702055 -106.27227 6.9144025
-26.69042 -106.489494 7.5774436
-26.659208 -106.2624 7.8473463
-26.639006 -105.96717 6.854443
-26.65833 -105.925705 7.3423567
-26.565454 -105.98721 7.84777
-26.705639 -101.12881 0.6063287
-26.688154 -101.31965 1.2959335
-26.609007 -101.22245 1.8979813
-27.41032 -100.85098 7.6361575
-27.529814 -101.13219 8.612248
-27.242233 -100.807335 9.319551
-26.64811 -100.47974 -0.47484273
-26.794497 -100.32652 0.2842189
-26.800243 -100.74616 1.3798465
-26.601116 -100.56074 2.6517031
-27.044712 -100.03462 3.4340491
-27.289692 -99.80279 4.185448
-27.19003 -100.487564 7.1680336
-27.27941 -100.35323 9.952224
-26.81545 -99.45208 -1.0808998
-27.057928 -99.53538 -0.5012543
-26.73329 -99.205864 0.80508155
-27.561531 -98.966 3.0697405
-27.38386 -99.54763 10.548702
-27.16001 -99.477165 10.688063
-26.835596 -98.79438 -1.315416
-27.090302 -98.516785 -0.41252258
-27.08968 -98.34941 0.17829067
-27.703236 -98.558205 10.633574
-26.732458 -97.05546 -2.2763076
-26.956194 -97.41478 -1.2754209
-26.91903 -97.95804 -0.4104978
-26.971504 -97.50378 1.4212334
-27.600649 -97.54622 10.424601
-26.66222 -96.32832 -3.1557512
-26.882086 -96.333466 -2.6383135
-27.299809 -96.70069 2.4069004
-27.706392 -96.91265 10.323697
-27.084036 -95.29884 -3.1484118
-27.217215 -94.44615 -3.1214075
-26.750975 -94.03095 -3.68119
-26.82535 -94.04058 -3.5095437
-27.480991 -93.56666 -2.1780365
-26.679487 -93.05305 -2.993935
-27.203411 -92.806625 -2.050378
-27.451433 -92.232 -1.4725031
-27.267015 -92.26112 12.276546
-27.155983 -91.86927 12.893695
-26.795147 -91.63282 -2.325309
-27.289644 -91.92822 -1.6025554
-27.54628 -91.13275 13.465355
-26.981638 -91.02438 13.980417
-26.654535 -90.74136 -1.9627019
-26.77062 -90.637535 -1.4393673
-27.39594 -90.28557 13.990763
-26.7343 -89.61076 -0.91281986
-26.91862 -89.56125 -0.51482475
-27.312115 -89.52865 0.47995877
-27.224804 -89.41279 14.194525
-27.079248 -89.19991 0.08697142
-27.520233 -88.644714 13.499306
-27.177132 -88.950294 14.047928
-26.973255 -88.045746 1.4608542
-26.808928 -87.62282 2.1532369
-27.463982 -87.21675 3.960051
-27.169075 -87.84974 8.417868
-27.338366 -88.0184 10.749021
-27.55943 -87.99767 11.217196
-27.159182 -87.98121 12.311903
-26.947536 -88.11562 13.151788
-26.842163 -86.06032 0.6078162
-26.613514 -86.61911 1.5443506
-27.07323 -87.09183 2.9256525
-27.2911 -86.275085 3.989393
-27.218414 -86.6458 7.260831
-26.621872 -85.13057 -0.35025144
-26.941906 -85.34679 0.60819674
-26.654655 -85.11759 1.7782662
-26.589771 -85.16255 1.9372841
-27.483463 -86.09013 4.259848
-27.467064 -85.62213 4.8297806
-27.49265 -85.496994 5.2810845
-27.421585 -86.02071 6.5160146
-27.021317 -85.78784 6.852475
-26.676178 -84.31559 -0.06710574
-26.863234 -84.42785 0.5490087
-26.800869 -84.39321 0.9962166
-26.57839 -84.618164 2.1180658
-27.088404 -85.09315 5.0167384
-27.183157 -85.195045 5.666042
-26.91465 -85.26796 6.458261
-26.573626 -83.95289 0.09005213
-26.647957 -83.98574 0.27318794
-25.771475 -108.14741 5.82849
-25.82193 -108.234024 6.3881965
-25.977402 -108.15842 7.3500023
-25.774214 -107.97051 8.086107
-25.947615 -107.3731 5.843337
-26.446335 -107.343864 6.893722
-26.45291 -107.44324 7.26875
[...]
POINT_DATA 6652
SCALARS features_00 float 1
LOOKUP_TABLE default
0.46505916 0.5336668 0.5456661 0.51870066 0.5719489 0.59553826 0.58214843 0.55473775 0.59840417 0.61936593 0.5834124 0.607546 0.5264509 0.30872032 0.35081267 0.52339786 0.5269594 0.47624326 0.33858734 0.40673846 0.41865593 0.45614666 0.53602135 0.55250156 0.51485205 0.28519228 0.22360519 0.3857121 0.3542513 0.46117973 0.47373348 0.50018466 0.45405626 0.560318 0.5787388 0.5592673 0.48702234 0.40358436 0.53347397 0.46693218 0.5621884 0.57761735 0.55360436 0.46454078 0.318659 0.4653619 0.58234316 0.49226934 0.51533884 0.5610965 0.5211545 0.50412595 0.4411346 0.0647357 0.20120212 0.2931344 0.46995196 0.5179203 0.51394403 0.45563304 0.35809207 0.18860982 0.03521668 0.25498897 0.30692992 0.30019727 0.45241505 0.51604337 0.4332816 0.43457863 0.34030634 0.45645165 0.52440107 0.4056791 0.4978532 0.5393001 0.41252047 0.22429158 0.5057615 0.53393424 0.55417114 0.42263 0.52748805 0.51522684 0.34388846 0.32507047 0.24457818 0.36270776 0.49044174 0.41213912 0.32663566 0.36321396 0.3573256 0.5182942 0.54171175 0.57287884 0.4684192 0.52187777 0.55619156 0.29322237 0.41721672 0.48716325 0.4984073 0.49005058 0.2204276 0.3255014 0.43385762 0.440049 0.43169418 0.47119406 0.5182547 0.48449498 0.3486026 0.3133142 0.0653235 -0.06486441 0.04056242 0.13013335 0.3540538 0.37414354 0.39172775 0.45055246 0.0805143 -0.088371664 0.3981288 0.07884795 0.17353523 0.39504087 0.090493284 0.44385463 0.46885857 0.3752574 0.4315788 0.388717 0.2853238 0.07981239 0.03198951 0.3783546 0.5015047 0.5311679 0.051024638 0.22467482 0.111288175 0.06855166 0.40355968 0.5169214 0.5539819 0.01280513 0.48884276 0.5564698 0.51886654 0.5409562 0.5635749 0.5008699 0.5553909 0.58735335 0.5903996 0.15863103 0.15879847 0.4044621 0.5707754 0.09203705 0.1375378 0.10595682 0.0848633 0.22593299 0.5154361 0.020488787 0.44173998 0.35559285 0.27869943 -0.17245652 0.25542673 0.37584233 0.14307004 0.25090358 0.0027323589 0.2634549 0.15759926 -0.06513984 0.036098488 0.13778022 0.037380487 0.13778217 0.38093412 0.47292894 0.47930002 0.55695283 0.6128248 -0.014339548 -0.03977603 -0.11083448 0.5689709 0.6060281 0.6310359 -0.12920067 0.20853989 -0.02577582 -0.031399455 0.08288817 0.37946376 0.49344605 0.5735151 0.6091805 0.636287 0.28872198 0.34247065 0.31031263 0.21515028 0.3996992 0.470636 0.5297591 0.34541255 0.37940958 0.3455041 0.37535375 0.3879072 0.5786238 0.59227836 0.5364923 0.56697905 0.5613055 0.5158872 0.5302368 0.54395866 0.26782626 0.23270953 0.1653515 0.47123978 0.512503 0.53735805 0.2806752 0.26810426 0.19468856 0.08403889 0.11472888 0.13252094 0.40463996 0.57493365 0.28125018 0.28335732 0.19300492 0.14367266 0.54477465 0.5293356 0.26351935 0.25343445 0.19524719 0.5064774 0.21718821 0.16119017 0.21335965 -0.11582823 0.44051915 0.32572356 0.26439762 -0.2326386 0.36155513 0.32364583 0.27602315 0.3166288 0.29511243 0.13639954 0.13107052 0.05881441 0.02911286 0.20695803 0.33610272 0.03510997 0.026405806 0.49121362 0.54639256 0.05230374 0.056361936 0.6166712 0.032179028 0.003388151 -0.044562258 0.6679504 -0.056139797 0.6228429 0.6659657 -0.12834913 -0.1343086 0.21866494 0.1278126 0.34430197 0.42930868 0.51599 0.5887188 0.34307778 0.1326409 -0.03144874 0.25714654 0.37854528 0.452626 0.43820643 0.34334648 0.30924523 0.2988338 0.3273884 0.34713072 0.3959554 0.39133483 0.4592871 0.45598215 0.4331293 0.2717135 0.284945 0.33641317 0.36475027 0.4456429 0.44400793 0.5508087 0.6121115 0.6565664 0.60245484 0.53275394 0.60461724 0.62482464 0.6030112 0.49219793 0.50807744 0.57194877 0.5491744 0.40129086 0.47706154 0.5228974 0.4965601 0.3235033 0.3867146 0.3782711 0.31501716 0.32473737 0.30865705 0.2476041 0.30327678 0.29652077 0.3097861 0.28537634 0.1726368 -0.0961073 -0.091838 -0.15426123 0.13032037 0.19350395 0.2810969 0.2839905 0.009076748 -0.03728257 -0.18505067 0.36948863 0.35707423 0.27027673 0.27727312 0.280957 0.05188716 0.47885907 0.24085405 0.26466507 0.49349877 0.25664204 0.22051641 0.47047007 0.32210153 0.26259226 0.4537527 0.39774725 0.34594795 0.43074116 0.39251816 0.40961015 -0.03603276 0.12526631 0.3326729 0.30788213 0.026464745 0.14915097 0.33383882 0.036448896 0.037350953 0.4282568 0.5310956 0.032479994 0.04528691 0.607257 0.05056244 0.68028414 -0.06388496 0.66958463 0.23303822 0.09196386 0.09874369 0.40599298 0.5373155 0.57752633 0.61630225 0.35531408 0.34227592 0.26538944 -0.028443038 0.43318918 0.40357473 0.45867357 0.45587647 0.09821284 -0.010703791 0.0083749145 0.3253634 0.349661 0.43641415 0.43201348 0.4228117 0.359667 0.090711474 -0.01686899 -0.043445066 0.030628767 0.41297096 0.3985449 0.2400912 0.17233448 0.50476706 0.6216929 0.5889298 0.5441471 0.4422382 0.5082699 0.6329955 0.534738 0.49835384 0.4016457 0.47658277 0.56204116 0.48309642 0.34225315 0.43856424 0.26661485 0.3123771 0.30416685 0.22695827 0.2190538 0.46968383 0.32798433 0.3151595 0.14314394 0.012440495 0.086725146 0.07918318 0.26710117 0.3229928 0.5321914 0.55729073 0.32768682 0.31019667 -0.050920967 -0.24985896 0.21485756 0.30574232 0.46044654 0.30587947 0.07175994 0.28023264 0.045420166 0.23215052 0.26030964 0.3838439 0.37265003 0.30719393 0.38148478 0.29708493 0.41965938 0.37425607 0.44140905 0.27622718 0.27249733 0.43078443 0.28224528 0.30482167 0.40084055 0.14626119 0.24531205 0.174041 0.03659791 0.46606976 -0.010546545 0.5544503 0.605523 -0.01760298 0.6009062 -0.01100225 0.60994184 0.27783677 -0.2123242 0.09113346 0.55076087 0.5792326 0.37277323 -0.07070105 0.35111004 0.50599295 0.39665955 0.16314192 0.38964397 0.44081303 0.37972382 0.39760453 -0.037417904 -0.057912 -0.02044103 0.49935865 0.3438979 0.36467737 0.307119 0.07400401 0.03777831 -0.068074495 0.057048768 0.37241 0.5984066 0.5716186 0.30933753 0.3320433 0.27662593 0.1968318 0.111809924 0.12588574 0.43801713 0.62648046 0.6713543 0.3319379 0.27311856 0.18573579 0.5334073 0.63921976 0.68381536 0.75994647 0.74348974 0.7003108 0.73231626 0.7000299 0.6551352 0.51537395 0.3326506 0.4206128 0.5621535 0.56034756 0.5159545 0.6936151 0.6781865 0.5693859 0.2420567 0.48161578 0.45315677 0.62757576 0.39055574 0.28274888 0.41715807 0.118042916 0.18822894 0.1947194 0.17268613 0.08925342 0.2877971 0.423589 0.34269205 0.31355622 0.52159595 0.5460638 0.37568292 0.36899835 -0.044929627 0.5771655 0.57024026 0.3566479 0.362337 0.42433897 0.56768656 0.32904795 0.3261292 0.14957847 0.31678575 0.27974248 0.011720363 0.22678185 0.22092694 0.34028122 0.036615252 0.17043984 0.3879019 0.38610595 0.40870437 0.44641942 0.3978804 0.39401466 0.4225711 0.341986 0.42786884 0.47915334 0.44104272 0.34296024 0.24947816 0.45979583 0.44489157 0.42474592 0.36855054 0.28223717 0.3157404 0.36189225 0.060461722 0.4819189 0.109730884 0.10071841 0.5263225 0.5430189 0.21999387 0.52475727 0.5402043 0.34993473 0.3472787 -0.23863779 -0.21050115 0.19596243 0.41157782 0.52226436 0.32767773 0.3580463 -0.25830114 0.31601757 0.20427912 0.4545139 0.18917528 0.1903283 0.6090743 0.65556645 0.22593877 0.28170064 0.15523696 0.22347458 0.6830302 0.6983477 0.26077193 0.33441925 0.346277 0.318777 0.24164589 0.25538647 0.5263672 0.64930445 0.7011732 0.7137642 0.31876805 0.34660196 0.34020704 0.5473522 0.65861416 0.6982895 0.8475083 0.7990643 0.7912731 0.8020218 0.77370024 0.7004405 0.6335192 0.124238715 0.23493 0.77357817 0.7263582 0.07530713 0.46048874 0.3995551 0.6689857 0.30438313 0.31508225 0.6572306 0.19237179 0.47027972 0.03929643 -0.12362836 0.10491072 0.051804155 0.19992441 0.28492785 0.37076133 0.45733112 0.40278095 0.51836646 0.51437265 0.36619627 0.3895193 0.5386406 0.36059165 0.3667302 0.56680566 0.3201453 0.46028787 0.2687889 0.20050271 0.18088348 0.15350291 -0.0011975333 0.13488063 0.20620838 0.4424739 0.43277517 0.2921981 0.23167439 0.47236896 0.6043011 0.23187035 0.4908701 0.5385445 0.5337875 -0.12597746 0.2800219 0.4689733 0.61104214 0.535548 0.51030636 0.42274168 0.6059364 0.5106481 0.5019152 0.016958386 0.32348076 0.60740435 0.530674 0.48372537 0.4043181 0.46113163 0.40024412 0.2731929 0.3096319 0.3260117 0.26243296 0.10967411 0.40700346 0.12458795 0.1393071 0.33114973 0.46430832 0.10989267 0.24836415 -0.06270776 -0.072774984 0.47128767 -0.41531587 -0.3722848 -0.2560215 -0.08385561 0.23845592 0.26011705 0.08065073 0.28500324 0.24810898 0.18715282 0.1369925 0.14642197 0.5820713 0.169303 0.18739016 0.645746 0.18859856 0.29166368 0.70704305 0.7022461 0.28696617 0.22517651 0.54277366 0.65659934 0.6943151 0.9428693 0.9054048 0.8157857 0.67249435 0.44148737 0.91189575 0.56015706 0.16745542 0.2153206 0.40628612 0.4029944 0.13929757 0.3246548 0.8149897 0.51298505 -0.073895544 0.43042415 -0.051929303 0.009082608 0.11450557 0.3315484 0.4434985 0.2973564 0.43809336 0.44851542 0.34683606 0.455418 0.30154786 0.29809424 0.30913907 0.2488468 0.1574162 0.24814287 0.4263436 0.43371293 0.088614196 0.3938743 0.08731797 0.3909455 0.6141772 0.6185026 0.72401214 0.12979902 0.509792 0.59805095 0.56328726 0.56554735 0.034041435 0.46481535 0.67131233 0.6289952 0.57472336 0.23028184 0.6724688 -0.06219085 0.6173128 0.5212432 0.522208 0.47891426 -0.044343356 0.4015724 0.34136474 0.16305995 0.12154899 0.3182912 0.06904507 0.07677763 0.37893885 -0.03734764 0.3637067 0.33603007 0.12070081 0.17806269 0.11606701 0.15176997 0.10671735 0.49089557 0.109699614 0.59000516 0.54756695 0.060386147 0.66512877 0.63567466 0.06643595 0.15962574 0.6398146 0.66873527 0.092752144 0.32023373 0.12770492 0.83850086 0.84836835 0.82771444 0.86339843 0.91373056 0.65882355 0.7413975 0.8173164 0.863713 0.7764567 0.627176 0.6607928 0.7317956 0.64247054 0.88961184 0.7889482 0.7279117 0.4758215 0.52154285 0.56808287 0.6012808 0.618319 0.65902543 0.6171333 0.9008266 0.8982349 0.18525188 0.34763223 0.48747167 0.4538871 0.5702668 0.852685 0.3153265 0.2819261 0.6716062 0.1957945 0.36217743 -0.1340785 0.33161873 -0.0671725 -0.05341237 0.24497962 0.32303184 0.2649739 0.3650333 0.2063552 0.15100914 0.18879157 0.1026684 0.17475681 0.3729382 0.40076715 0.42846668 0.3896153 0.4087568 0.14587641 0.120639004 0.32560587 0.60752875 0.66615665 0.7453387 0.030223772 0.4363879 0.59826267 0.58662814 -0.0323613 0.4291777 0.6543715 0.619123 0.579141 -0.25077346 -0.19557309 -0.20666827 0.056643266 0.71603596 -0.20196587 0.66626805 -0.3234864 -0.19366407 0.56843853 0.46125883 0.41579896 -0.014497004 -0.012297384 0.3375919 0.2317194 0.13084413 0.24357535 0.1857012 0.053969413 -0.03405355 0.40573734 0.46449834 0.41230538 0.41747618 0.48839638 0.53182036 0.5728693 0.25047147 -0.23963791 0.39446995 0.51658833 0.56128824 0.57991636 0.5148664 0.36176002 0.5533629 0.5418209 0.07928342 0.2996392 0.37200707 0.12606369 0.1303844 0.47559023 0.4683327 0.07105848 0.024680793 0.5582375 0.5460228 -0.023400731 -0.12984233 0.5348232 0.5722824 0.58395827 -0.05255031 0.11331783 0.59799635 0.1864198 0.16021273 0.26398808 0.35160428 0.3229317 0.23497002 0.29238605 0.7844595 0.7831446 0.7930776 0.7932229 0.79770327 0.8021955 0.80054027 0.81011295 0.6884756 0.7819916 0.58955675 0.79902184 0.7080509 0.6038242 0.5014597 0.5824499 0.5832919 0.6133369 0.56899273 0.55924755 0.8209154 0.74225086 0.5317656 0.29924452 0.5541369 0.47919744 0.5088976 0.49733275 0.49931479 0.40591294 0.3278836 0.39217508 0.38656873 0.6926804 0.53902733 0.2303726 0.24985284 -0.117293805 0.11705194 0.17881586 0.11886428 0.060971167 0.04805416 -0.06526978 -0.06433693 0.09369654 -0.11487415 0.20298928 0.032763496 0.3605834 0.10577395 0.41428763 0.11407447 0.36716625 0.12249732 0.23658848 0.27069038 0.652219 0.69320524 0.7012357 0.6348771 0.14403977 0.03437288 0.15163901 0.5669755 0.59249294 0.6065948 0.562428 -0.038871735 -0.0734075 0.10987192 0.57426995 0.5486439 -0.15477856 -0.16262065 0.56942976 -0.07826993 -0.11464779 -0.14956737 -0.17906082 -0.16825348 0.59843874 -0.37111872 0.5549494 -0.24960333 0.41135615 0.28531682 0.12452245 0.14166167 0.38958222 0.17810705 0.42125544 0.4090739 0.4195599 0.42767322 0.46944177 0.31336915 -0.10079733 0.2943478 0.4126926 0.4930718 0.5303744 0.46302813 0.36658674 0.012731064 -0.005715493 0.3905664 -0.15491062 0.46734205 -0.10154495 0.39885595 0.51605976 -0.3337994 0.30953753 0.43933553 0.55302805 0.5510076 0.2542231 0.21112913 0.15301985 -0.12953088 0.2667854 0.2466338 -0.18435922 -0.07853457 0.121951774 0.2441377 0.12089196 0.056168124 0.3046385 0.27927008 0.21948333 0.26895952 0.2959059 0.3204371 0.36074662 0.24475235 0.28859237 0.34464115 0.7711833 0.77209383 0.7766294 0.78183526 0.77716494 0.78331023 0.78170794 0.8226334 0.7544538 0.81464106 0.57040775 0.6685926 0.7152051 0.5288496 0.63780963 0.3697686 0.54227304 0.59626234 0.61978626 0.6194695 0.49142313 0.5071579 0.51122683 0.5028816 0.23291424 0.53443646 0.4526947 0.4447207 0.42737904 0.41529867 0.22428362 0.4394257 0.39537627 0.35262805 0.30552432 0.37386498 0.33913398 0.27080914 0.21604933 0.20639677 0.24852598 0.18040405 0.18223628 0.19371551 0.2436279 0.20429817 0.10535194 0.1264002 0.1741238 0.11801642 -0.08324279 0.029966125 0.3024275 0.52971447 0.62986755 -0.15450366 0.48709583 0.5988485 0.65838337 -0.15565473 0.46134526 0.6342807 -0.09922175 -0.1250571 0.023647942 0.2636188 0.058148507 0.33448404 0.09425315 0.3143536 0.13120733 0.17901665 0.21457914 0.16764325 0.042440787 0.13082959 0.5045915 0.54737204 0.5839721 0.6035546 -0.04333514 -0.096547134 -0.10204813 0.48664013 0.45975897 0.44270658 0.43745816 0.29513228 0.43095988 0.4144336 -0.112341106 -0.13580105 -0.1742591 -0.21129934 -0.07351036 0.42261794 -0.15581143 -0.29856783 0.44352865 -0.32197905 0.2945404 -0.115672305 0.15887119 0.08461156 0.083459534 0.078626506 0.3680399 0.025120359 0.055052087 0.4037083 0.061971746 0.2559078 0.42667714 0.42541265 0.17903763 0.3702736 0.3530795 0.41390204 0.44440502 0.4462679 -0.059366353 8.868426e-05 0.080843456 0.2959963 0.29667506 0.31046823 0.1856463 -0.19089329 0.34572914 0.5213524 0.0680442 -0.10270568 0.1674723 0.49196237 0.5022598 0.44254562 0.16853207 0.17726715 0.45084798 0.4116327 0.37490094 0.30999142 0.2285153 0.24495113 -0.05599563 0.56396884 0.52927935 0.33108383 0.35382652 0.3315767 0.2768271 0.25669986 0.26779646 0.062335245 0.5817256 0.55324495 0.47678536 0.32366934 0.29779562 0.3067875 0.255059 0.2179195 0.21221197 0.2477371 -0.0021224916 0.27566755 0.5519413 0.51531583 0.5025092 0.27724358 0.30968374 0.25439146 0.17443225 0.19499844 0.22857305 0.3792206 0.34704816 0.50368387 0.49136436 0.27265084 0.3046372 0.3380549 0.21121593 0.19889852 0.22471315 0.3129968 0.3960002 0.42627513 0.4019996 0.32598683 0.39400172 0.40895617 0.32316247 0.20774715 0.23388727 0.3181093 0.3980953 0.3714006 0.40242535 0.4072179 0.77074385 0.75002944 0.7558392 0.75256413 0.784299 0.79533714 0.6973289 0.77591395 0.50550556 0.5580068 0.3670001 0.4579447 0.5371801 0.5876013 0.59812224 0.42369962 0.2567726 0.34417072 0.5187699 0.58048546 0.572013 0.3876992 0.2564012 0.52503675 0.34323877 0.3636325 0.2667774 0.4517439 0.28403378 0.3032276 0.204968 0.2073665 0.23737866 0.29463577 0.38393018 0.4777834 0.46538484 0.23001878 0.20045614 0.19627585 0.19352457 0.15007445 0.08344948 0.21135545 0.16973087 0.14096153 0.1757394 0.15672347 -0.0794968 0.09734753 0.38548943 0.5330194 0.63061786 -0.31087396 0.6497536 0.694739 0.22802797 0.24035597 0.003498584 -0.39097813 0.7182704 0.28513607 0.29524183 0.24181095 -0.21758465 0.67151845 0.28890112 0.27966377 0.27544773 0.37363482 0.18467994 0.031770095 0.02689673 0.03727098 0.06037905 0.083929054 0.11174744 0.4270603 0.2075328 0.27072853 0.3918579 0.21547216 0.14383966 0.07730936 0.11283685 0.20976008 -0.076698236 0.040401183 0.34053016 -0.07981408 0.7570367 0.7817023 0.31973088 0.21691799 0.2680902 -0.12685816 -0.18407366 -0.24954821 -0.064895615 -0.05829594 0.693305 0.7492806 0.7849416 0.72730476 0.59450746 0.31376004 0.23818968 -0.16652316 -0.17730424 -0.18675657 -0.20701635 -0.13558432 0.6799377 0.717406 0.75621575 0.6998311 0.49564368 0.22791168 -0.13596387 0.62008935 0.6519505 0.62089574 0.53199476 0.45993215 0.36931401 0.1919593 0.07282316 0.57844806 0.5822507 0.47271532 0.39946654 0.3518653 0.34990823 0.18143673 -0.0760252 0.4877261 0.41069773 0.34158778 0.3187167 0.06789795 0.35809568 0.3173182 -0.014712978 -0.011268726 0.33336645 0.4035473 0.4003148 0.13538119 0.3657537 0.15825981 -0.22244397 -0.036929216 0.1761156 0.25042906 0.1318175 -0.0018636474 -0.10439259 -0.38474497 0.44137734 0.5069581 0.52624995 0.3967003 0.06807679 0.01684533 -0.10214074 -0.43872735 -0.4048132 0.43258595 0.48173776 0.49700588 0.29415935 0.09911028 0.4794656 0.3276264 0.36796817 0.24998078 0.20782585 0.2108514 0.16400507 0.5711628 0.55724907 0.48804492 0.4396966 0.26728165 0.21124732 0.2400373 0.5824435 0.5913107 0.17242786 0.111506335 -0.046434395 0.12522219 0.28309515 0.54893386 0.54116637 0.38149464 0.15318835 -0.053366814 0.033391118 0.12282654 0.3558538 0.3118358 0.49737257 0.48706144 0.44348627 0.365857 0.21027893 0.24778035 0.16837211 0.15286458 0.06550448 0.060246736 0.0135482475 0.44155532 0.4036516 0.36707795 0.14793311 0.17631896 0.13675989 0.16576274 0.23545194 0.19234289 0.25919 0.20609075 0.23616084 0.32629552 0.4178695 0.43466562 0.3671729 0.40280586 0.23398247 0.3140553 0.37803137 0.39556938 0.35408786 0.24698542 0.5501518 0.53921473 0.50878036 0.42268515 0.31717575 0.36071137 0.38687128 0.37256074 0.5936732 0.58002615 0.5503187 0.65166366 0.7053114 0.7320153 0.5648235 0.5474647 0.59784806 0.57404566 0.545237 0.4746452 0.50326484 0.18838114 0.46040535 0.38362992 0.4918465 0.3330258 0.41231942 0.52251565 0.5387984 0.37586287 0.428581 0.40737122 0.42328703 0.26873285 0.28925827 0.28606638 0.3329214 0.26177943 0.28947362 0.35106844 0.1924424 0.14856684 0.38482594 0.5916111 0.5868166 0.5791042 0.23587918 0.2387611 0.21208028 0.54185283 0.5035773 0.20248227 0.23159748 0.11180523 0.44552994 0.23712783 0.22889291 0.13895486 -0.04734707 -0.14914307 -0.15028752 0.29408866 0.50419825 0.59114313 0.18860418 -0.06029372 0.036579177 0.086434305 -0.24456176 -0.48329398 -0.59842527 0.6616415 0.6945853 0.21138318 0.26142907 -0.066542596 -0.21924558 0.7466111 0.22389838 0.2712038 0.2699363 0.6517122 0.22856116 0.27462134 0.5369581 0.23324612 0.1564382 0.068196975 0.0072512664 0.16547313 0.046156064 0.38800284 0.45107955 0.043964155 0.45387274 0.47857374 0.5150353 0.29940748 0.39736614 0.08225496 0.030709766 0.018082578 0.17800257 -0.10010819 -0.049830303 0.746592 0.7744576 0.74053836 0.57002395 0.05098112 -0.024585232 -0.14459603 -0.29614028 -0.2496444 -0.058153916 0.6707129 0.7189013 0.64611197 0.52657986 0.37676084 0.13268286 -0.047904506 -0.21238486 -0.20366654 -0.2641931 -0.21897048 -0.10727222 0.63922334 0.42986643 0.33954227 0.14367726 0.15686388 0.6021862 0.6182338 0.33599904 0.2972581 0.1769506 0.22890176 0.57394207 0.57618237 0.2914983 0.21452981 0.23350607 0.26387027 0.511843 0.5104897 0.27387857 0.24717408 0.15232754 0.04897377 0.046753436 0.09009883 0.4633296 0.43262726 0.38110474 0.30325073 0.25663626 0.17658216 0.13010484 -0.03383431 0.07836494 0.41000915 0.3925094 0.36998558 0.3060509 0.24593943 0.323974 0.40425348 0.38873702 0.35386732 0.017461143 -0.13964126 -0.066224456 -0.058232136 -0.21275981 0.0506873 0.3743351 0.4716421 0.50415194 0.22608507 -0.34337008 -0.21360025 0.05808132 0.1556978 0.30971912 -0.34381807 0.430654 0.4645294 0.061475616 -0.09278105 0.15942188 0.5053882 0.5140316 -0.08785754 0.19473849 0.51823235 0.54728633 0.2854347 0.5004873 0.50045335 0.3025254 0.43113413 0.4647951 0.42007512 0.1465764 0.39144045 0.38502127 0.38841635 0.3843962 0.254763 -0.030132236 -0.02791883 0.07611218 0.15284145 0.25364444 0.28233403 0.383977 0.4058126 0.27397767 0.2289576 0.31773385 0.3891062 0.4716182 0.2993577 0.24319519 0.29461175 0.37188727 0.3532236 0.54604733 0.5971732 0.5789115 0.5249028 0.44116586 0.5792306 0.5719255 0.4406249 0.4197163 0.41197914 0.37707275 0.25938112 0.28832686 0.18337095 0.276689 0.5076585 0.53330857 0.58938456 0.37074408 0.3398567 0.52617383 0.35938865 0.1629637 0.1304583 -0.09615503 0.053964026 0.6229788 0.6381657 0.6018629 0.1691862 0.29696473 -0.24020636 0.2415913 0.5685868 0.5438889 0.23058033 0.41465813 0.2400284 0.2371517 -0.10817286 -0.5917396 0.11280242 0.23759979 0.5596447 0.24128681 0.22618577