# vtk DataFile Version 2.0
Really cool data
ASCII
DATASET POLYDATA
POINTS 3054 float
-93.55567 -42.923878 9.321245
-93.56928 -42.58526 8.955264
-93.62192 -42.506916 9.37615
-93.62768 -41.718826 8.956179
-93.61421 -41.7718 9.346711
-93.69422 -38.800697 5.6111827
-93.77331 -38.948288 6.305243
-93.80826 -38.370636 5.621176
-93.937 -38.416737 6.3925257
-93.809616 -38.410965 7.009285
-93.67267 -37.660328 5.312963
-93.90921 -37.669228 5.707107
-94.04375 -37.568043 6.6196265
-93.85367 -37.557552 7.1442804
-93.87137 -36.576702 5.8068943
-93.99242 -36.611652 6.4603305
-93.80561 -36.8334 7.243827
-93.80085 -36.011776 6.477833
-93.68205 -36.06667 7.0439844
-92.9758 -43.01482 8.346732
-93.1223 -43.178112 8.727137
-93.192604 -43.27298 9.426541
-93.2277 -43.03389 9.898296
-93.12772 -42.503685 8.184729
-93.46027 -42.57674 8.621941
-93.287575 -42.518505 10.192701
-92.840866 -42.10276 10.727818
-92.88215 -41.86664 7.8255825
-93.279495 -41.380013 10.256587
-93.00948 -39.668877 5.885926
-92.90103 -39.71678 6.561144
-93.39172 -40.7474 8.842383
-93.25023 -40.23796 9.174464
-93.06935 -40.58432 10.338844
-92.884926 -40.717087 10.696503
-93.23511 -38.865646 5.23091
-93.27725 -39.201984 5.5920463
-93.48096 -39.430584 6.3793983
-93.138885 -39.247536 7.6113644
-92.90632 -39.706726 8.133064
-93.128685 -39.65063 9.0282
-93.33096 -38.239185 5.1032467
-93.04677 -38.8894 8.620645
-93.35152 -37.543343 5.1276975
-93.29034 -37.333946 7.9725432
-93.2924 -36.664257 5.2643714
-93.59195 -36.49822 5.4313793
-93.45091 -36.448383 7.586149
-93.09816 -36.095627 5.3659754
-93.256 -35.748413 5.7986813
-93.370705 -35.602905 6.511636
-93.49972 -35.91197 7.0348325
-93.13751 -35.455494 6.3729014
-92.629196 -43.541893 9.042418
-92.45853 -43.555862 9.270517
-92.282265 -43.097378 8.091575
-92.50888 -43.369644 8.630859
-92.602905 -43.477955 9.720045
-92.588104 -43.216293 10.14442
-91.680885 -43.103325 16.212864
-91.701065 -42.849705 17.480366
-92.14655 -42.176777 7.24811
-92.525795 -42.53345 7.7606845
-91.707726 -42.53518 15.027862
-91.86618 -42.536823 15.936631
-92.02053 -42.117664 16.596603
-91.97544 -42.249325 17.192265
-91.69816 -42.340042 18.064297
-92.16476 -41.63297 6.923884
-92.0265 -41.44151 11.217982
-91.62143 -41.96971 14.959844
-91.93998 -41.622524 16.05639
-92.01115 -41.380695 16.928764
-92.07953 -41.2004 17.30419
-91.801544 -41.236713 18.08246
-92.71738 -39.851418 5.8885107
-92.396866 -40.91227 10.983392
-91.72621 -40.59182 16.876986
-91.85864 -40.778984 17.573664
-91.725464 -40.71175 17.932016
-92.747955 -39.139763 5.2408843
-92.64995 -39.556046 5.5711265
-92.62148 -40.228813 10.6648
-92.635704 -38.548344 4.96539
-92.0325 -38.965946 10.144672
-92.612816 -37.543663 4.906138
-92.48231 -37.77388 8.813167
-92.58917 -36.530964 5.120155
-92.82277 -36.07264 5.3258796
-92.52817 -35.701694 5.716302
-92.820755 -35.47712 6.8106914
-92.509155 -35.58559 7.1531906
-92.412544 -36.018673 7.869068
-92.734764 -35.46104 6.077949
-92.530334 -35.405037 6.457759
-91.98663 -43.541466 9.211793
-90.8198 -43.833233 15.752995
-91.42703 -42.93201 7.8206887
-91.55663 -43.27899 8.486427
-91.80473 -43.444794 9.384777
-91.81216 -43.379257 9.946406
-91.36078 -43.13648 15.007027
-91.21071 -43.511497 15.463578
-91.38487 -43.427345 16.385101
-91.29526 -43.26513 17.451195
-91.17743 -42.979424 18.248507
-91.33158 -42.345295 6.9422693
-91.42571 -42.53482 18.344006
-91.04614 -42.412407 18.747772
-91.49007 -41.19346 6.262645
-91.17541 -41.573364 14.631541
-91.578 -41.682056 18.510601
-90.88913 -41.62697 18.91993
-91.59484 -40.21434 5.764729
-91.33147 -40.973003 15.089905
-91.52994 -41.136173 15.312433
-91.56038 -40.40109 17.71408
-91.383865 -40.672787 18.233593
-90.86703 -40.89991 18.752922
-91.62015 -39.41903 5.2781367
-91.74072 -39.857624 10.551859
-91.22154 -40.118664 16.664207
-91.28623 -40.121655 17.465746
-91.327805 -40.304955 17.975452
-91.650246 -38.576214 5.019939
-91.64751 -37.49328 5.008743
-91.823555 -36.636925 5.182066
-91.64056 -36.354717 9.082787
-90.86005 -36.357525 9.987021
-91.65873 -35.93992 5.7137117
-91.8375 -35.514214 6.2665462
-91.620155 -35.558647 7.427456
-90.72523 -35.732464 8.947152
-90.88716 -35.740944 8.984343
-92.09014 -35.45907 6.3012347
-89.93779 -43.886635 14.570871
-90.07566 -44.254807 15.572094
-90.28311 -43.817142 17.5226
-90.74263 -42.7814 7.764161
-91.17282 -43.29268 9.169016
-89.83453 -43.184513 13.881569
-90.42725 -43.225582 18.410192
-90.63347 -42.18147 6.7377987
-90.37562 -42.618362 10.401148
-90.41888 -42.02691 10.816595
-90.253654 -42.189 19.157768
-90.71664 -41.27372 6.184336
-90.44095 -40.11484 5.648641
-90.14923 -40.43018 10.67039
-90.47651 -40.81744 14.326832
-89.98491 -40.667824 19.129833
-90.7067 -39.48926 5.3088446
-89.99452 -39.375885 10.466548
-90.26163 -40.35066 14.593634
-90.61593 -39.79577 17.532719
-90.356285 -40.006344 18.325617
-90.67857 -38.432106 5.1509123
-90.64214 -38.940887 10.318184
-90.29668 -37.88928 10.844782
-90.775665 -37.8153 5.136001
-90.613075 -36.428387 5.6453404
-90.48875 -36.14124 10.673529
-90.74502 -35.99249 6.080686
-90.96098 -35.61411 6.614614
-89.89255 -35.73317 11.241736
-90.038155 -34.95168 9.757214
-89.98656 -34.89307 10.019978
-89.186295 -44.630352 15.830457
-89.23736 -43.886948 13.909639
-89.27342 -44.199154 14.55904
-89.39359 -44.44966 15.478639
-89.622856 -44.29572 16.66249
-89.75365 -43.782604 17.646627
-89.21858 -43.846054 17.82275
-90.2651 -42.602257 8.764309
-89.171326 -43.01851 12.894976
-89.474205 -43.59901 13.559167
-89.49646 -43.27408 18.425995
-90.05225 -41.946358 6.7519693
-89.97511 -42.416325 7.655823
-89.464165 -42.00399 8.747129
-89.22493 -42.839264 12.845889
-89.520164 -42.28455 19.32645
-89.11355 -41.965843 19.656366
-90.08093 -41.414734 6.363711
-89.390755 -41.60804 7.1005497
-89.02167 -41.855705 19.644758
-89.754105 -39.95827 5.7412543
-89.47042 -40.261887 10.417817
-89.101974 -40.769882 13.61731
-89.24341 -40.764484 19.41945
-89.73641 -39.537025 5.487495
-89.58616 -39.48185 16.975155
-89.37564 -39.623634 18.234177
-89.31698 -40.11064 18.935007
-89.84047 -38.692593 5.229329
-89.302895 -38.872967 5.5032206
-89.13375 -38.46803 11.433875
-89.23489 -37.442623 5.5741773
-89.342224 -37.62839 11.830033
-89.90459 -36.67258 5.899832
-89.5471 -36.48759 11.748723
-90.049446 -36.292244 5.99267
-90.02809 -35.940636 6.5643167
-89.50924 -35.60378 11.533178
-88.80159 -35.537796 12.123454
-89.31391 -34.570133 9.580664
-89.46029 -34.696987 10.261374
-88.91709 -34.397335 10.170709
-88.43846 -44.616886 16.085814
-88.497 -43.735233 13.073172
-88.39856 -43.987328 13.548613
-88.497246 -44.424004 17.047916
-88.05193 -43.94191 18.36751
-88.287224 -42.261982 19.814816
-88.10911 -41.307762 20.009499
-88.8362 -39.871033 5.9371
-88.815125 -40.6397 19.501135
-88.03413 -40.854893 19.739223
-88.06158 -40.02446 12.265497
-88.507576 -38.662674 5.4237795
-88.241776 -38.75845 5.523699
-87.89285 -38.787445 14.841933
-87.83755 -39.01475 15.604092
-88.640175 -39.241714 16.901764
-88.79848 -37.923065 5.4490256
-88.73453 -37.631363 5.594364
-88.06915 -37.52393 12.435163
-88.69777 -36.90188 6.108223
-88.789154 -36.499157 7.2684684
-87.996414 -36.881 12.852894
-88.38085 -36.26594 7.6021333
-88.21217 -35.36313 12.5129595
-88.51783 -34.954224 8.80015
-88.379105 -34.46957 11.552386
-88.211815 -34.660168 12.049529
-87.88397 -35.21328 12.637955
-88.2332 -34.39327 9.6115265
-88.31746 -34.240868 10.527028
-87.990456 -34.177994 11.616823
-87.65688 -43.72202 12.921102
-87.504875 -44.50077 16.587141
-87.57588 -44.147614 18.307472
-87.456024 -43.54807 19.373594
-86.98316 -43.20702 20.133581
-87.37817 -41.91594 8.451424
-87.56878 -42.571312 20.207531
-87.16615 -42.228886 20.621311
-87.92722 -41.140762 7.539715
-87.913895 -39.737835 6.224787
-87.34795 -40.256653 6.962879
-87.649086 -41.164257 20.118423
-88.137405 -39.384834 5.7893934
-87.17626 -39.435368 18.09632
-87.58484 -40.13931 19.137968
-86.51736 -39.662777 25.376444
-87.806435 -38.789013 5.7389297
-87.33341 -38.691814 16.461767
-86.909 -39.1026 17.749092
-87.6951 -37.68605 5.9671164
-87.11353 -37.71428 13.508775
-86.832306 -38.084305 15.189104
-87.469284 -36.96001 6.974677
-87.07817 -36.75136 13.069567
-87.54999 -35.800964 8.010435
-87.56562 -35.59583 12.873748
-87.43805 -35.31555 8.327347
-87.470856 -34.895683 8.833144
-87.52602 -34.734497 12.373902
-87.64542 -35.014263 12.622033
-87.330574 -34.367714 9.876381
-87.49055 -34.09215 10.713269
-87.562614 -34.08748 11.4746275
-87.552246 -34.274864 11.930321
-86.76061 -44.687057 16.63754
-86.82537 -44.715603 17.70642
-86.02611 -43.758293 13.388666
-85.99969 -44.447582 14.405598
-85.82706 -42.810673 8.560211
-86.69054 -42.238857 10.19506
-85.89788 -40.997646 24.892076
-85.9406 -41.023727 26.410652
-85.82377 -41.01966 26.854902
-85.992676 -40.36184 6.93551
-85.66944 -40.471924 23.337845
-86.23609 -40.090485 24.646566
-86.38332 -40.348373 25.448324
-86.296425 -40.421074 26.41582
-85.94114 -40.471786 26.996527
-85.65845 -39.280003 22.145622
-85.79908 -39.381027 22.727247
-86.01425 -39.445156 23.33311
-86.27702 -39.40529 24.471014
-86.49434 -39.55102 25.6453
-86.339195 -39.61508 26.466024
-85.95757 -39.680374 27.01906
-86.66958 -38.525604 6.6382823
-86.44071 -38.663857 17.632526
-85.776024 -38.652462 18.3153
-85.67234 -38.758965 22.271341
-86.09729 -38.465115 23.625582
-86.15404 -38.714863 24.354654
-86.15051 -38.780895 25.309147
-86.13142 -39.062473 26.271751
-85.824844 -39.091656 26.905407
-87.095634 -37.578247 6.675837
-86.32222 -37.71853 14.885346
-86.331825 -37.81305 15.450355
-86.36569 -37.968334 16.611443
-85.9712 -38.036808 17.40704
-85.80541 -38.0345 23.360788
-85.7945 -37.947365 24.201172
-86.90031 -36.439037 7.922614
-86.75551 -35.707832 8.293138
-86.53356 -35.47112 8.583275
-86.68576 -35.03307 9.118777
-86.642975 -34.70977 9.6980915
-86.41096 -34.46924 10.4321575
-86.37537 -34.57425 11.890003
-86.928116 -35.037266 12.709404
-87.07152 -34.432636 9.923694
-86.9817 -34.14665 10.509471
-86.85792 -34.160404 11.490924
-87.05222 -34.252155 11.958892
-85.05405 -47.9317 13.75256
-85.13732 -48.074432 14.370977
-84.93578 -48.22724 15.574083
[...]
POINT_DATA 3054
SCALARS features_00 float 1
LOOKUP_TABLE default
0.86331344 0.8337796 0.8470857 0.7317773 0.7485807 0.68984383 0.6516851 0.7451348 0.70970184 0.6131039 0.8491944 0.86518633 0.83483434 0.7231172 0.9785456 0.9529009 0.81542325 0.91587436 0.8503183 0.78438294 0.8209384 0.85719335 0.8834119 0.75609016 0.81187046 0.8861589 0.81982654 0.62155336 0.70954436 0.57395935 0.5419036 0.50451165 0.45032182 0.5621074 0.5762228 0.66045094 0.63947964 0.6015984 0.4466841 0.31128305 0.3624628 0.7381406 0.30899325 0.84223235 0.5659587 0.9141116 0.94549125 0.7499454 0.8777318 0.8749188 0.8511171 0.828539 0.8267967 0.7966906 0.78931826 0.7109302 0.76863426 0.81721413 0.8411559 0.6395355 0.68207896 0.5516606 0.6706001 0.641263 0.65434206 0.6750251 0.68884814 0.6985537 0.41481775 0.5767869 0.6276881 0.66153115 0.6722013 0.6629305 0.6642543 0.522246 0.5383083 0.61671627 0.63659585 0.6324004 0.59736633 0.55348 0.494525 0.6531702 0.2748735 0.78573215 0.30326754 0.81411827 0.83448005 0.7703215 0.76222926 0.6951803 0.5844506 0.7921772 0.7518739 0.73222935 0.5246366 0.63009787 0.66524017 0.70576763 0.70820665 0.59569204 0.56706476 0.61369145 0.65096384 0.66679883 0.5496913 0.69068575 0.6655377 0.3727966 0.55291325 0.6835857 0.6428758 0.36788958 0.57814956 0.6103374 0.6096514 0.6211184 0.6191109 0.46106648 0.33761322 0.57271755 0.57544374 0.59945655 0.5461073 0.6400583 0.67414725 0.28471243 0.34903336 0.6301396 0.66589284 0.57431775 0.30387968 0.30564544 0.69889283 0.39878187 0.44568288 0.49312168 0.5881241 0.62907535 0.34171256 0.59396374 0.5135819 0.6985113 0.52432764 0.58599794 0.39606988 0.29834047 0.21210334 0.41109166 0.5371325 0.34672922 0.05384221 0.36801755 0.5447395 0.5681498 0.4055544 0.07966788 0.10910879 0.4592166 0.45476824 0.43807507 0.48453474 0.51391906 0.5158664 0.46019432 0.4809435 0.36428007 0.32690322 0.35758266 0.39292222 0.37407333 0.3924601 0.30280408 0.5552221 0.29630172 0.32428372 0.44039172 0.45549783 0.52226484 0.44152272 0.29571852 0.48357236 0.3969353 0.3771895 0.35093173 0.3883637 0.27600878 0.040011857 0.18346907 0.43348935 0.30286336 0.39401966 0.4602331 0.45695657 0.356763 0.35582024 0.042129375 0.39656404 0.24369326 0.35351574 0.4402966 0.3560956 0.31365553 0.5347965 0.499781 0.52542245 0.5533212 0.5959368 0.2823059 0.28397608 0.27375105 0.23953599 0.20100093 0.31788963 0.3362579 0.27284497 0.39073572 0.34448585 -0.25895974 0.3867906 0.38707167 0.08341576 0.106440976 0.1354941 0.41506487 0.40866244 0.28666845 0.31180602 0.2073164 0.353014 0.20148924 0.5107219 0.45711857 0.6202471 0.5938171 0.5488579 0.5480784 0.6310117 0.64922786 0.1561894 0.18604054 0.1639759 0.26785547 0.2940075 0.07582444 0.3090097 0.29381493 0.08677128 0.27644524 0.08650319 0.31768894 0.3352921 0.15069136 0.30964807 0.7261529 0.40015316 0.11675585 0.12532203 0.40864334 -0.060173184 0.106884785 0.2126733 0.4028375 0.2694986 0.54407585 0.3311875 0.39744547 0.62835026 0.5916305 0.52480286 0.66460824 0.6832974 0.6582049 0.075960375 0.08590445 -0.030208027 0.00925025 0.20106266 0.09497073 0.68512505 0.8801234 0.914085 0.13496822 0.5086736 0.6188632 0.7634462 0.9175634 0.948671 0.42571834 0.48981336 0.523792 0.59163606 0.7706188 0.901204 0.92517316 0.31106722 0.11303379 0.05388921 0.45452395 0.55498374 0.59356904 0.689639 0.8396525 0.8704423 0.2895745 0.08410521 0.12118399 0.13035017 0.11801758 0.5418671 0.57113034 0.19130188 0.29876095 0.3431972 0.41028607 0.4701418 0.60490406 0.73116505 0.6511733 0.5182966 0.6346481 0.72895443 0.6893525 0.64553535 0.6258391 0.5823624 0.56129014 0.62379706 0.56226313 0.27848536 0.43420386 0.5561747 0.22258805 0.10420087 0.06932261 -0.1169606 -0.1569365 0.0964868 0.38020557 0.35876772 0.29343712 0.14187658 -0.1599056 0.38920304 0.3787746 0.6460359 0.7790945 0.8318847 0.35126835 0.5576339 0.68169373 0.7566849 0.85775393 0.9104209 0.27464065 0.9356147 0.91685086 0.18441541 0.23864411 0.88652 0.87480915 -0.10915602 0.29645336 0.77212024 0.80924183 0.06325233 0.12218182 0.124478385 0.4078765 0.49425602 0.5383495 0.58982944 0.7182405 0.61624134 0.069143005 0.47151875 0.5113034 0.34085917 0.39861065 0.660951 0.64828587 0.46063036 0.62042576 0.7276144 0.6926575 0.685022 0.6660076 0.6580703 0.5964146 0.68884194 0.6798616 0.6630596 0.54244184 0.4821389 0.6265664 0.35178503 0.322007 0.48847556 0.21371824 0.12613836 0.2942589 0.35290194 0.32018015 0.36741877 0.46056956 0.4167795 0.40630925 0.36300224 0.27325532 0.14508505 -0.11183776 0.38099003 0.4126464 0.34401703 0.69303656 0.7178359 0.8220433 0.85233104 0.8969945 0.90931726 0.60046434 0.89387643 0.2700664 0.8515233 0.20968318 0.79913116 0.82836497 0.05820458 0.2830869 0.23242784 0.11787022 -0.022342276 0.28612736 0.5490895 0.6765781 0.73494333 0.4255453 0.18661153 0.12513337 0.37577286 0.41688168 0.4768762 0.49159446 0.5279799 0.6150762 0.65342784 0.6661997 0.6663269 0.6775802 0.61853886 0.5526464 0.67558336 0.46408102 0.41090685 0.55727834 0.6609733 0.3846104 0.4498204 0.22721617 0.31705555 0.36830395 0.42483458 0.3398856 -0.17162034 0.07401325 0.38279614 0.39539626 0.51827264 0.46712607 0.43007565 0.09219071 0.4020065 0.57122904 0.51710206 0.56453824 0.57544065 0.7378768 0.6634214 0.56537104 0.78300357 0.85953355 0.7461197 0.8435224 0.8592453 0.7532615 0.7155194 0.8008516 0.80698967 0.57869416 0.24154988 0.67649424 0.75928104 0.08238599 0.0072398335 0.06911361 0.50218564 0.5801903 0.068350576 0.058646683 0.36007237 0.4184096 0.47704127 0.48154083 0.17967913 0.6075624 0.6226888 0.58692527 0.59114707 0.51927346 0.61228454 0.58222973 0.42629686 0.57545596 0.32555187 0.20888484 0.28445214 0.3383874 0.4950136 0.39047095 0.21964188 0.0198562 -0.047887743 0.37816948 0.57873356 0.5429815 0.5115053 0.26319277 0.23553394 0.3230166 0.63483596 0.73935103 0.70560205 0.38758272 0.50126266 0.6537186 0.7746903 0.7684996 0.63078904 0.75009394 0.78434956 0.7778008 0.6509169 0.7410474 0.7569103 0.7057377 0.39788026 -0.63283515 0.44172394 0.6685144 -0.12832114 -0.0312659 0.37807864 0.4460492 0.020895341 -0.046050653 0.07370218 0.06718508 0.36770606 0.18519956 0.14392078 0.04089237 0.23969713 0.2134324 0.19948083 0.52679586 0.48940346 0.46747065 0.5193882 0.50453603 0.4493863 0.41561633 0.3922333 0.39953616 0.36495468 0.40984923 0.32676536 0.35976005 -0.018011928 0.13366477 0.26789784 0.4848764 0.016346738 0.2142111 0.29078394 0.62657356 0.5732171 0.13688941 0.23024535 0.6842467 -0.11990245 0.7490541 0.72861004 0.21560936 0.7783975 0.28808397 0.38649142 0.51896787 0.78565687 0.7800868 0.53049 0.76815295 0.7284905 0.36785278 0.2996933 0.2601021 0.27823257 -0.06622006 -0.46707603 0.3209864 0.5885948 0.48911318 0.2707785 0.060878683 0.26775038 0.30161393 0.33046347 0.70568603 0.5854969 0.5584135 0.35413843 0.18003623 0.18887247 -0.019822434 0.0617065 0.72303337 0.7287311 0.6848552 0.53785765 0.27549493 0.27000082 0.213902 0.14347826 0.004213296 0.7261063 0.6627152 0.5703298 0.25887284 0.25389066 0.37894693 0.270987 0.28785175 0.34999722 0.34708095 0.27396446 0.31415468 0.304165 0.17815138 0.14715326 0.11370759 0.05540192 0.101630166 0.14035165 0.61317444 0.025238574 0.7620075 0.46694708 0.03180726 0.7555101 0.7445477 0.76905996 0.16871464 0.7710973 0.76640356 0.59959364 0.26388794 0.76876736 0.7350048 0.5798709 0.33282924 0.3379405 0.69262105 0.6211983 0.34158516 0.32146904 0.31992963 0.5808016 0.11633627 -0.25399956 0.28132245 0.702603 0.33602953 0.23037568 -0.07267898 0.047785662 0.73493874 0.4991692 0.3622507 0.050582074 0.13021463 0.73454237 0.71102417 0.6319196 0.52314067 0.46137685 0.24467133 0.20101784 0.6556819 0.57214284 0.2187247 0.5751163 0.5895681 0.535208 0.65135753 0.6601709 0.60629463 0.24684907 0.26620564 0.30962837 0.18872397 0.15821448 0.0904683 0.044379223 0.08962617 0.083135456 -0.01070283 0.13119936 0.18912575 0.013334781 0.22975883 0.0044891536 0.18978864 0.31406346 0.23845515 -0.22648303 0.6524612 0.26989502 0.21299367 0.7364713 0.3121111 -0.1215477 0.2363489 0.7238482 0.67357945 0.49583304 0.44587854 0.29004097 0.13156778 0.1167377 0.17678452 0.6330224 0.6083142 0.48731863 0.23998407 0.26147255 0.54988647 0.5630617 0.6455611 0.682151 0.6618508 0.5956147 0.6695429 0.69933593 0.68893886 0.64742047 0.3967346 0.42036706 0.41307467 0.38501805 0.39547002 0.21151797 0.35243985 0.06063654 0.037542313 0.2930454 0.05291944 0.71050173 0.560399 0.07175642 -0.10005738 -0.12440486 0.20956178 0.7181319 0.2639813 0.432105 0.20453969 0.25690466 0.16321108 -0.021954954 0.19507109 0.18802483 0.44225985 0.37252268 0.3954432 0.42939556 0.38637993 0.35461053 0.6489332 0.327591 0.68961334 0.11413031 0.13736342 0.25686604 0.6318909 0.54085344 0.47962153 0.3094478 0.10785428 0.044035837 0.5047814 0.1961123 0.08718912 0.5573394 0.6051092 0.49272788 0.36035037 0.6529145 0.70175916 0.67964184 0.5576447 0.44009477 0.4476428 0.44481546 0.42640156 0.39224702 0.45063233 0.44103366 0.19777277 0.65081084 0.6134707 0.40670788 0.44734907 0.009108707 0.68325394 0.6721597 0.66238177 0.5348221 0.3103534 0.1495681 0.68216556 0.6932045 0.21729964 0.13038447 -0.072932884 -0.08120079 -0.015372872 0.22605874 0.6589252 0.24684167 0.2595685 0.5317899 0.5382864 0.25203437 0.4955306 -0.14396012 0.18394695 0.5245363 0.19799581 0.52979994 0.48934698 0.3904851 0.44487566 0.39878514 0.41784495 0.5133403 0.18778378 0.2997035 0.62253404 -0.026754156 -0.18420517 0.0774784 0.088433184 0.0630064 0.6215563 0.5116373 0.25367612 0.66597646 0.6523009 0.54644203 0.57514334 0.6545994 0.6483091 0.38385487 0.45626327 0.45862 0.43623775 0.46341938 0.46818298 0.48275295 0.43048233 0.3997221 0.6689606 0.6338818 0.57589626 0.48558426 0.35030568 0.42787558 0.39995804 0.24349126 0.35094616 0.6800391 0.3029558 0.14439404 0.043745466 0.37119952 0.28825307 0.19055007 0.6669232 -0.023262251 -0.018270768 0.18077992 0.63182783 -0.06236502 -0.22725621 -0.36667332 0.24786618 0.52557963 0.1713075 0.24309845 0.49624932 -0.044150446 -0.10949636 0.15341932 0.10561238 0.46793908 0.5696176 0.13060515 0.55254185 0.55252564 0.23449074 0.49705297 0.31246483 0.2905772 0.4419902 0.4728952 0.36942053 0.32038555 0.43101034 0.44355297 0.3135497 0.3987304 0.14894879 0.2770694 0.53339076 0.56524456 0.5859477 0.44267908 0.100762345 0.0795685 0.08463375 0.60014665 0.42909366 0.12248858 0.6342085 0.66275185 0.6605917 0.63412255 0.505829 0.16475381 0.15702486 0.6124625 0.6301051 0.6152984 0.4641924 0.48622906 0.4701504 0.38091776 0.42709747 0.4357077 0.4263458 0.6205364 0.5411229 0.4320384 0.33830833 0.26026937 0.448726 0.39260718 0.6799388 0.17726043 0.19800228 0.26585656 0.05831494 0.33652785 0.26991373 0.65905297 -0.013930427 -0.21264564 -0.31159592 0.55660975 -0.06652944 0.514815 -0.5221363 0.51980555 0.5053266 -0.3780707 0.15792224 -0.55558133 0.27904484 0.3852826 -0.006573826 0.46660256 0.53979003 -0.20984307 0.5440148 0.10844691 0.4851638 0.15554948 0.4528192 0.26187062 0.10389053 0.4296952 0.43207026 0.23170084 0.29395527 0.32887 0.4909159 0.096429035 0.54665804 0.2571349 0.12934965 0.10956834 0.58767885 0.5271919 0.06598844 0.12701558 0.5288888 0.556194 0.5580924 0.52896565 0.5349324 0.34726825 0.32635304 0.31226653 0.41202378 0.40476498 0.45326445 0.39721745 0.29925066 0.24010296 0.40895778 0.6137315 0.104114845 -0.02099502 -0.039844614 -0.08768694 -0.31909278 0.3144282 0.50673854 -0.07925259 -0.43036944 0.23066765 0.5256846 -0.2576625 -0.33255616 -0.473571 -0.42144442 0.5297253 0.5231999 0.47469178 0.34496778 0.27750063 0.056357004 -0.08788833 0.4505037 -0.31738907 0.5119443 0.525114 -0.27825022 0.45932806 0.46097344 0.43209612 0.32792902 0.30154455 0.42543587 -0.26417187 0.09479165 0.47762746 0.14762664 -0.0060677826 0.14915536 0.5239287 0.11005163 0.04103597 0.06508947 0.1483284 0.17270492 0.49661005 0.47527838 0.46908996 0.45337337 0.47078145 0.46064815 0.6115775 0.6083285 0.559946 0.6211742 0.31930602 0.30732393 0.2835997 0.3388038 0.3454817 0.3803051 0.20909953 0.2875411 0.16789073 0.29474172 0.3832572 0.34269035 0.448972 0.14944093 0.045924354 0.1053143 0.0003052354 0.33183342 -0.15506503 0.21181622 0.5167638 -0.018163934 -0.14594832 -0.21778546 0.5278837 -0.2663723 -0.5924574 0.5302174 0.5005045 0.3503006 0.22684851 0.019424938 -0.18526594 -0.15535048 -0.21807617 0.26209688 -0.32810664 0.38883013 0.4663018 -0.4554237 0.45388246 -0.41678756 0.43494636 0.17994265 -0.0008469168 0.33256334 0.42495632 0.26020035 0.2495616 0.35386765 0.34559658 0.13529271 0.42880023 -0.13819721 0.16252923 0.47589672 0.48717082 0.055029064 -0.08023436 0.34847516 0.14634924 0.47640422 0.07261677 0.543297 0.3636549 0.18117249 0.39079112 0.36626673 0.280347 0.014200926 0.48481613 0.5244329 0.38469982 0.45394194 0.6099596 0.6138651 0.55026996 0.5800071 0.60299593 0.55989325 0.23278666 0.09310907 0.1860107 0.2538462 0.15768945 0.17942241 0.19058402 0.108490765 0.04762716 0.21826814 0.060336754 0.28840154 0.24454905 0.06986829 0.1850386 0.2172354 0.23260799 0.24377355 -0.08486861 0.24696876 0.08475121 0.17684388 0.5298166 0.5027317 0.40399134 0.4279722 0.5017215 -0.50809455 0.41487807 0.45566526 0.44261312 0.5039128 0.39444137 0.079743266 0.03173837 -0.10395561 0.44959947 0.43680578 -0.011763811 -0.35585535 -0.2915047 0.30780682 0.38901088 -0.28031752 0.16712931 0.24364488 0.19141929 0.3078606 0.18815356 0.21754353 0.22889939 0.26000816 0.10599154 0.34238976 -0.21896696 0.12292095 0.39834598 0.46889645 0.17706022 0.071844995 0.114174694 0.08870515 0.46206364 0.40549648 0.022061491 0.18924479 0.15719986 0.12124468 0.0059784576 0.3428859 0.09509118 0.24221924 0.15766487 0.05542753 0.23002014 0.49436384 0.39991271 0.31119913 0.47543973 0.54571617 0.51602745 0.36796647 0.35770124 0.25010008 0.10005449 0.11879706 0.15597416 0.2739401 0.13906948 0.117373236 0.23200805 0.27095312 0.277737 0.17164977 0.43548393 -0.057897683 -0.10466131 0.6462244 -0.18414131 0.3596812 0.7382847 0.3740837 0.38718045 0.15531516 0.4163187 0.42784834 0.032309465 -0.22120705 0.40870005 0.42026365 0.31989008 -0.24795195 0.2647141 0.21609192 -0.10616939 0.10805152 0.12438428 -0.219453 0.028077208 0.13649961 0.25177863 0.22121775 0.19406745 0.20476139 0.24585527 0.22725889 0.26944596 0.19217123 0.20068283 0.17054994 0.2845087 0.3082036 0.1693653 -0.29750866 0.36287084 0.3466747 0.13011172 -0.09161891 0.1790087 0.31341752 0.3805859 0.31586874 0.45613328 -0.032533746 -0.008382551 0.54359454 0.58561337 -0.03240545 0.54068726 0.5384722 0.5401955 0.5847455 0.6211605 0.12962916 -0.036677673 0.08322735 0.54079354 0.56924844 0.5530922 0.56867915 0.6134537 0.13752595 0.2532134 0.15018746 0.066593215 0.26104894 0.13926843 0.5399884 0.5554133 0.535964 0.54800147 0.23709902 0.14502035 0.23882148 0.29179066 0.44222438 0.24774063 0.5169728 0.525779 0.31165817 0.4240883 0.45272574 0.4324549 0.32010317 0.46587217 0.41372007 0.33324257 0.40562236 0.23476055 -0.00033480115 -0.02995437 0.023958765 0.17992269 0.19887444 0.86057055 0.71101606 0.46682286 0.29690054 0.2975152 0.2157149 0.14213985 0.12373327 0.22914124 0.2651735 0.31439003 0.28578013 -0.026663467 0.21258014 0.17886443 0.12423098 0.8690283 0.13409624 0.10714932 0.20054796 0.8376504 0.8020566 0.29514417 0.33179742 0.804331 0.7210057 0.33845657 0.77931464 0.7383723 0.20930305 0.066032164 0.048456114 -0.16749007 0.34127462 -0.3877117 -0.090187654 0.024125792 0.18235473 0.09160571 -0.042224787 0.28696206 0.22306967 0.1370501 0.25854832 0.2728616 0.21935621 0.3123571 0.13530618 0.3197189 0.3072566 -0.032219008 0.3038229 0.22118193 0.17027628 0.44615918 0.57890916 -0.11247629 0.6040796 0.64550805 0.24547671 -0.16119355 -0.13814658 0.62787545 0.6488797 0.38573724 0.0391819 0.03715427 0.32935745 0.6091224 0.62640595 0.4417217 0.3662109 0.27528092 0.16447413 0.1536054 0.32842475 0.41901672 0.51535475 0.5580255 0.32307845 0.27868527 0.22724189 0.07693719 -0.012227093 0.020764085 0.3039508 0.21806209 0.32996792 0.38631546 0.4778654 0.503754 0.5008752 0.16136995 0.23929031 0.49440676 0.51947457 0.47596544 0.32651687 0.5426003 0.4641398 0.3732749 0.33289862 0.3043824 0.33691126 0.30484655 0.047993384 0.027183456 0.07020705 0.19497932 0.2055985 0.16959628 0.8591612 0.77628803 0.31983072 0.277281 0.2229114 0.12566474 0.13589326 0.23031601 0.2960965 0.2115001 0.1346263 0.1576061 0.9038489 0.8966229 0.36350602 0.36412442 0.9091569 0.34916374 0.34850854 0.879842 0.83593017 0.3227777 0.8096459 0.7376558 0.61116487 0.30380958 0.29082495 0.27832156 -0.23590924 0.3127336 0.43664804 -0.21160096 0.4626794 0.50124025 -0.18637794 0.25215307 0.43900204 0.5080459 0.06637475 0.41411203 0.47844708 0.005622633 0.18293843 0.3507709 0.3010844 0.27293018 0.12717178 0.15443884 0.2095551 0.18731198 0.16294613 0.23771742 0.26960224 0.23764142 0.5745947 0.55837965 0.22255507 -0.12881964 0.6325884 0.22718321 -0.042730108 0.661204 0.26047862 -0.10032202 0.045417704 0.5977732 0.37554362 0.054970965 -0.12899102 0.11114321 0.4797174 0.5418737 0.45000255 0.45071238 0.39109436 0.30980295 0.10399056 0.17235881 0.34440547 0.45184654 0.40940458 0.43471494 0.41741928 0.36536872 0.22438139 0.23534124 0.21606445 0.2719289 0.29323155 0.18641928 0.29026356 0.24879785 0.2641219 0.26408708 0.49594313 0.41344643 0.48346838 0.5084127 0.38589102 0.22393501 0.13458541 0.26247525 0.50032383 0.31035054 0.23073973 0.24567136 0.17892666 0.8831316 0.83802605 0.71544415 0.46458703 0.39243692 0.30244786 0.18514961 0.22077146 0.30681092 0.13063966 0.16371888 0.29181898 0.9246305 0.9124906 0.35341558 0.34843093 0.93343616 0.3247612 0.8989118 0.87397355 0.26790655 0.8113358 0.7726235 0.6861719 0.38427094 0.2625204 0.13146262 0.4675604 0.6548719 0.42015338 0.3666762 -0.14269069 0.65364695 0.7117107 0.6262946 0.7128706 0.5704465 0.17733109 0.13159236 0.5014018 0.53964543 0.22043452 0.37784982 0.4572702 0.2415627 0.25068823 0.05663459 0.24074358 -0.13820514 -0.07822334 0.24178627 0.3250577 0.3280666 0.024347886 0.29561317 0.21076885 0.42644134 0.449364 0.25872147 0.5243475 0.22507645 0.23503968 0.6092731 0.24434501 0.53726196 0.34875298 -0.039942596 0.0036945045 0.0042279763 0.078605995 0.43850678 0.44016498 -0.0905345 0.060922224 0.09502902 0.31756204 0.45580748 0.448918 0.411231 0.33512652 0.23142827 0.1673653 0.29563308 0.2905053 0.044839498 0.036026057 0.17653492 0.28596863 0.34427005 0.35396367 0.34430355 0.3020704 0.36645514 0.4545439 0.44855303 0.4014048 0.25596482 0.22868246 0.24929485 0.2927626 0.32363045 0.32987598 0.4367919 0.24318409 0.885267 0.8003571 0.7506619 0.5738217 0.47363067 0.2817301 0.074695036 0.22343329 0.16599996 0.14761946 0.26944274 0.29653168 0.90550566 0.8529178 0.54235786 0.48713362 0.44142783 0.082834125 -0.3430122 -0.028499812 0.3084302 0.3233996 0.9322767 0.9038533 0.48357716 0.33116338 0.31625676 0.8556111 0.79897475 0.7206793 0.56723225 0.20671469 0.5397405 0.65607226 0.82131314 0.7545067 0.66611993 0.62691486 0.5018028 0.54649925 0.37200236 0.554461 0.66152143 0.7306421 0.76336 0.78696704 0.59512424 0.691698 0.5191068 0.22235313 0.35109854 0.46394888 0.25961405 0.09816095 0.20936665 -0.14067456 0.37458956 0.29822692 -0.25618285 0.38280404 0.3282951 0.40204653 -0.13712385 0.38037738 0.20989558 0.31019646 0.37969142 0.2126703 0.4622986 0.3850326 0.39158857 0.44231015 0.076280475 0.05038056 0.29910016 0.45797396 0.4479664 -0.1572788 0.15914577 0.2831155 0.04751102 0.042051405 0.0052476986 -0.037764106 0.287403 0.42533308 0.3684754 0.24702509 0.3031155 0.36246175 0.30653638 0.14083612 0.20103186 0.2596172 0.37926674 0.39088738 0.37699518 0.45057553 0.478212 0.61149234 0.57301414 0.603912 0.6769466 0.6655588 0.6122175 0.6812742 0.77935135 0.7705811 0.80311716 0.47402328 0.44279778 0.41235918 0.44443855 0.26096243 0.3287332 0.39541516 0.40714192 0.3941612 0.30880117 0.3346034 0.8080132 0.71582747 0.6063483 0.45250374 0.10954755 0.10183231 -0.011106916 -0.097621754 -0.1464543 -0.29616246 0.3060288 0.8541112 0.8113882 0.7287575 0.5684035 0.5152279 0.49723628 0.08522487 0.27980274 0.8174523 0.7109331 0.62176865 0.55017835 0.63519883 0.75363153 0.21033266 0.73897994 0.81497574 0.441792 0.8650979 0.40599814 0.36769715 0.883298 0.26731226 0.6184613 0.7396209 0.23858678 0.17829362 0.5153608 0.25868347 0.4080009 0.46205297 0.26932448 0.21136044 0.25948134 -0.12119071 0.43118918 0.01680976 0.4408881 -