# vtk DataFile Version 2.0
Really cool data
ASCII
DATASET POLYDATA
POINTS 3230 float
-109.57268 -28.135588 13.492666
-109.62342 -27.968143 14.188036
-109.64653 -27.567667 13.84759
-109.7094 -27.441116 14.540086
-109.61111 -27.458738 15.058367
-109.63344 -26.969194 14.018731
-109.60322 -26.779345 14.665715
-109.608376 -26.932127 14.993093
-108.85864 -29.694618 12.782988
-108.84304 -29.73956 13.353631
-108.940125 -29.031637 12.189183
-109.05355 -29.354773 12.668877
-109.151924 -29.35944 13.323767
-109.07204 -29.060122 14.181195
-108.87083 -28.524973 12.099504
-109.25117 -28.524633 12.695759
-109.44346 -28.593939 13.409492
-109.485725 -28.26026 14.552044
-109.21437 -28.00925 15.306383
-108.94039 -27.899218 15.630207
-108.86048 -28.015013 12.226139
-109.193665 -27.591404 12.840355
-109.426384 -27.583052 13.550386
-109.37106 -27.39974 15.41508
-108.986374 -27.327644 15.73051
-108.86387 -27.033108 12.712559
-109.24194 -26.559956 13.656137
-109.476074 -26.570541 14.611233
-109.32432 -26.655842 15.292373
-108.884186 -26.647278 15.73797
-108.91563 -26.004162 13.80559
-109.029305 -25.888529 14.471932
-108.9717 -25.930416 15.061237
-108.181015 -29.74094 12.113046
-108.431656 -29.905266 12.680711
-108.47951 -29.920202 13.3490505
-108.39978 -29.724512 13.921119
-108.35084 -29.326103 11.879256
-108.53216 -29.42651 14.16893
-108.62937 -28.887518 14.822349
-107.99227 -28.543552 11.446053
-108.08663 -28.555897 11.578133
-108.66347 -28.531723 15.206208
-108.44496 -27.931646 15.654131
-108.32369 -27.8215 11.830221
-108.62355 -27.387056 15.872458
-108.35985 -26.51797 12.440422
-108.39349 -26.481941 15.9042635
-108.151245 -26.224142 12.630972
-108.51335 -25.431385 14.230479
-108.5305 -25.634474 15.248585
-108.15841 -26.094576 15.881248
-107.99596 -25.088684 14.7638645
-108.28595 -25.348045 14.970631
-107.39802 -29.80288 11.925318
-107.35096 -29.990612 12.489527
-107.91431 -30.10962 13.320181
-107.42375 -29.093294 11.427522
-107.537895 -29.49693 11.623235
-107.57469 -28.622444 11.358749
-107.153854 -27.957296 15.522114
-107.832596 -27.349607 15.916994
-107.40875 -27.068394 11.619413
-107.75047 -26.652977 15.995793
-107.10722 -25.505846 12.120693
-107.216225 -25.338026 15.576766
-107.76418 -25.880478 15.804985
-107.21026 -24.66499 12.9231
-107.50496 -24.686567 13.486405
-107.245544 -24.532242 14.448457
-107.233826 -24.944218 15.136106
-106.88413 -24.332174 12.975566
-107.03699 -24.238184 13.515224
-107.10896 -24.203993 14.125794
-105.750465 -35.78808 2.5228102
-105.83149 -35.334084 2.004209
-105.96132 -35.286602 2.4854507
-105.840866 -35.27234 3.184871
-105.8883 -34.75585 2.039409
-105.92269 -34.540974 2.4295273
-105.86834 -34.61873 3.348658
-105.58918 -34.329544 3.9314225
-105.79261 -34.19388 2.5910933
-105.60199 -33.833435 3.1900146
-105.58918 -34.10372 3.9051926
-106.644325 -29.73453 12.161308
-106.61917 -29.78909 13.302145
-106.66063 -29.327776 11.648989
-105.6198 -29.228876 15.533951
-106.62523 -26.974102 11.433757
-106.61913 -25.87433 11.814702
-106.52043 -25.395247 15.693145
-105.99016 -24.546011 12.180029
-105.95316 -24.426935 12.456047
-106.46257 -24.858343 15.402969
-106.19121 -24.02189 12.758139
-106.31423 -23.730423 13.815165
-106.3537 -23.978033 14.374412
-106.183136 -24.27666 14.938484
-104.7431 -36.0327 1.3415248
-105.03124 -36.14181 1.7253113
-105.1547 -36.32734 2.374
-105.16071 -36.16494 3.237517
-105.045975 -35.864166 3.9914355
-105.09666 -35.34011 1.2906792
-105.51051 -35.474693 1.630795
-105.26912 -35.357372 4.303446
-105.02645 -35.314022 4.9463544
-105.084435 -34.659702 1.3736814
-105.27474 -34.521904 1.5498779
-105.42284 -34.436024 4.5072074
-105.055244 -34.538258 5.193148
-105.15491 -34.034744 1.813563
-105.37671 -33.758648 2.4342704
-105.3561 -33.635193 3.3603241
-105.1847 -33.513035 4.3549356
-104.97127 -33.59067 4.970473
-105.010544 -33.29009 2.9788766
-105.04677 -33.09244 3.6461208
-104.70775 -32.802395 4.3215322
-104.63725 -32.537224 12.371434
-104.78099 -31.664572 16.759558
-104.67796 -31.671759 16.896
-104.68871 -30.883509 10.4964
-104.74013 -31.52276 12.569886
-104.87348 -31.143549 14.923056
-104.994965 -31.291004 16.4484
-104.83635 -31.04794 17.1956
-104.76921 -30.81253 10.730362
-105.213554 -30.791447 15.969989
-105.2791 -30.463223 16.073013
-104.879845 -30.740025 17.167072
-104.67403 -29.860903 10.145853
-104.726166 -29.741335 10.350872
-105.453354 -29.111422 15.291458
-105.148605 -28.804926 15.534909
-105.38066 -27.265741 11.385733
-105.66583 -26.378416 15.721651
-105.16465 -25.508959 11.260669
-105.30589 -25.428318 11.466339
-105.205315 -25.85939 15.833668
-105.44207 -24.729134 11.674763
-105.44347 -24.859028 15.5376
-104.74418 -23.033777 2.8068445
-104.85471 -23.084873 3.312139
-104.77883 -22.875313 4.0143347
-105.28067 -24.169449 12.076957
-105.48834 -23.789068 12.7568035
-105.453125 -23.544268 13.689799
-105.44629 -23.8359 14.423847
-105.26392 -24.005743 14.858995
-104.751915 -22.357286 2.290319
-105.021126 -22.389154 2.7423985
-105.142334 -22.323336 3.3926995
-104.92288 -22.397146 4.0579405
-104.7036 -21.953163 2.2681775
-104.93763 -21.68496 2.709283
-105.13693 -21.756777 3.3540394
-104.87362 -21.665918 4.1454616
-104.730515 -21.15319 2.8997965
-104.75351 -21.000471 3.5739093
-104.70878 -18.802217 11.644917
-104.79854 -18.083004 10.223535
-105.039444 -18.108868 10.786916
-105.02356 -18.3762 11.3023205
-104.82653 -18.195766 12.058238
-104.858734 -17.732683 10.093231
-105.09906 -17.446804 10.8000765
-105.1692 -17.392355 11.378818
-104.79867 -17.279312 12.118077
-104.67239 -17.012714 10.198485
-104.89564 -16.894047 10.719714
-104.92095 -16.850925 11.397011
-104.79133 -17.006838 11.945509
-104.14072 -36.856735 1.6625831
-104.26446 -36.879025 2.434728
-104.19229 -36.738216 3.3740132
-104.12829 -36.325066 1.0743308
-104.296715 -36.508057 1.3787646
-104.7045 -35.921112 4.2509003
-104.015915 -35.882023 4.9760294
-104.516685 -35.4495 1.0480981
-104.49677 -35.32609 5.274387
-104.00118 -35.131012 5.8601465
-104.58549 -34.751217 1.217961
-104.1245 -34.303677 1.463687
-104.661674 -34.577072 5.640323
-104.346306 -33.735012 1.8050482
-103.85125 -33.35016 5.7066646
-103.74567 -33.37198 9.902531
-103.75479 -33.807686 10.299271
-104.29141 -33.333153 11.48762
-104.20707 -33.384476 12.522313
-103.76601 -33.36978 13.325983
-104.32828 -32.81192 2.9810383
-104.49 -32.71089 3.3141434
-104.4428 -32.616535 4.3839397
-104.09784 -32.96603 5.2606983
-103.884514 -32.54044 9.903066
-104.4385 -32.15211 10.835135
-104.48975 -32.67369 11.513994
-104.43395 -32.63421 13.024065
-104.581604 -31.771246 16.529749
-104.14932 -31.772175 17.227068
-104.14485 -32.373833 3.587145
-104.416115 -31.42639 17.408125
-104.18657 -31.145685 17.693106
-103.743904 -30.294691 8.973868
-104.59148 -30.562193 17.46284
-104.10689 -30.645044 17.793526
-104.30328 -29.702284 9.715305
-104.29076 -30.130228 17.607758
-103.78702 -28.37824 8.473935
-104.246895 -28.809143 9.659304
-103.85503 -29.00879 16.832052
-103.68503 -27.006893 8.055443
-103.887794 -27.13969 8.533786
-103.866135 -28.012148 9.217858
-103.63457 -26.301449 8.1467085
-103.76273 -26.500412 8.456318
-104.71727 -26.8781 11.107944
-104.51509 -26.599142 15.87749
-103.692665 -25.997713 9.1719
-104.12566 -25.621374 10.9045105
-103.996025 -23.637472 2.689769
-104.07448 -23.76892 3.5199096
-104.0736 -25.112257 15.717562
-104.00248 -23.080349 2.0530386
-104.36533 -23.251837 2.550368
-104.412865 -23.521206 3.1215255
-104.462296 -23.186756 4.2345014
-104.144516 -24.084549 11.837503
-104.42242 -23.641872 12.379022
-104.10124 -23.467533 14.270798
-104.263695 -22.383978 1.927741
-104.3002 -22.382309 4.795221
-104.44144 -23.391235 12.830372
-104.23517 -21.709124 1.97685
-104.60693 -21.368734 2.402191
-104.46338 -21.712889 4.678255
-104.262436 -21.500004 4.785218
-104.018585 -21.08643 2.1489758
-104.12103 -20.85244 2.5522003
-104.3736 -20.63628 3.4527109
-104.27907 -20.511806 4.0169244
-103.95378 -20.81242 5.0839725
-103.79409 -19.957535 11.447819
-103.830414 -19.98703 3.3118174
-103.729355 -19.880632 4.3537335
-104.3651 -18.851511 10.161049
-104.5799 -18.908617 10.702048
-104.18805 -19.529028 11.5135
-103.701546 -19.229433 12.72154
-104.42778 -18.121778 9.786431
-104.48889 -18.413637 12.345107
-103.98246 -18.364254 12.868522
-104.4321 -17.55911 9.6959
-104.50644 -17.64468 12.4611435
-104.09028 -17.505634 12.735586
-103.865425 -17.13943 9.328498
-104.28723 -16.849272 9.854944
-104.42896 -16.446047 10.424279
-104.58862 -16.549849 11.552932
-104.388725 -16.754797 12.088055
-103.86648 -16.98645 12.592159
-104.08845 -16.21416 10.582923
-104.310234 -16.230865 11.274606
-103.416855 -36.850574 1.1253978
-103.40512 -37.08782 1.5167084
-103.46111 -37.190582 2.3250296
-103.46679 -36.914207 3.3385696
-103.548035 -36.658066 3.8942144
-103.52452 -36.461975 0.8829944
-103.57788 -36.301136 4.5038013
-103.225945 -35.97433 5.336771
-102.922195 -35.931755 9.982102
-102.77276 -36.07569 10.32873
-102.95814 -35.97947 11.454658
-102.83951 -35.96385 12.177352
-103.52306 -35.64593 0.7897917
-103.09761 -35.110268 6.2777667
-102.88479 -35.418167 8.853849
-103.3402 -35.19527 9.693308
-103.39122 -35.330486 10.889318
-103.18299 -35.531647 11.714237
-103.258 -35.190933 12.389857
-102.95887 -35.118847 13.106735
-103.538895 -35.071865 0.8733293
-103.31743 -34.819942 9.151955
-103.39553 -34.148098 9.282489
-103.08619 -34.59169 13.178542
-102.84996 -34.030346 13.676102
-103.28987 -33.370792 6.4253983
-103.00318 -33.9022 7.8201685
-103.114655 -33.762417 8.67317
-103.497475 -33.59918 9.360172
-103.17423 -33.63883 13.721491
-103.482925 -32.60685 2.9137547
-103.29899 -32.32705 5.67924
-102.817345 -32.536995 7.5578475
-103.43467 -32.100742 14.871163
-103.53271 -32.145924 16.454113
-103.51315 -31.917936 17.407204
-103.773575 -32.283424 3.4091182
-103.53971 -31.54375 17.678787
-103.31632 -30.719753 17.966013
-102.645805 -29.86303 7.1464067
-103.24246 -29.713129 7.8589363
-103.77524 -29.325886 17.157457
-102.92328 -29.917519 17.994263
-102.94767 -28.179495 7.2516727
-103.1866 -28.141588 7.487761
-103.50919 -28.79737 16.839088
[...]
POINT_DATA 3230
SCALARS features_00 float 1
LOOKUP_TABLE default
0.7401582 0.76512444 0.724923 0.77179575 0.7978741 0.71820194 0.76818085 0.7904024 0.8121014 0.7963073 0.7852024 0.8107096 0.80149657 0.7852949 0.74236256 0.75846815 0.77590466 0.7881353 0.7945834 0.77847934 0.6879648 0.666221 0.702386 0.80317664 0.78782076 0.6200501 0.67837304 0.7603979 0.7939817 0.7814319 0.6675793 0.71860754 0.7461723 0.7808759 0.7998499 0.7812444 0.7394476 0.77262926 0.74265224 0.7492633 0.698139 0.70764256 0.7531462 0.7305689 0.6332667 0.7608911 0.54120594 0.7443398 0.52209246 0.61916566 0.68812007 0.69483596 0.57200205 0.6260011 0.73770404 0.734908 0.7477639 0.7083557 0.73747075 0.67286813 0.5072365 0.6739039 0.46244502 0.65747 0.41443464 0.5296696 0.6230005 0.51720023 0.53936344 0.5303719 0.5217123 0.5301068 0.55281085 0.541317 0.87308943 0.86692727 0.859847 0.80774945 0.83798647 0.79678166 0.7297176 0.672489 0.7416774 0.6456132 0.646729 0.68761015 0.66505325 0.6506041 0.4055345 0.3281731 0.3349033 0.46817642 0.43072885 0.46378964 0.47843984 0.5186322 0.56966925 0.53843963 0.50008965 0.79297626 0.8169073 0.8402612 0.775871 0.66093266 0.80672956 0.8435129 0.6887896 0.6201198 0.79960316 0.80727947 0.6759684 0.6520637 0.75237644 0.67882407 0.6082573 0.5827265 0.5978992 0.5712819 0.5530592 0.5370144 0.3391592 0.5914736 0.59806836 0.14107734 0.27560002 0.41605657 0.5769164 0.5930361 0.1361453 0.5444922 0.55116075 0.579785 0.10427147 0.08059418 0.37925828 0.34285665 0.20385742 0.3599899 0.2547045 0.2799438 0.3374889 0.37042287 0.42381746 0.88769126 0.89229965 0.88063896 0.43285552 0.51392144 0.59390724 0.5504377 0.50880516 0.873026 0.89013994 0.8986403 0.8742056 0.8534491 0.8440842 0.867082 0.8352194 0.79184186 0.7890192 0.8541243 0.8103912 0.86543226 0.888958 0.82735974 0.8147345 0.87596023 0.89452803 0.8233082 0.8234478 0.86027557 0.8790715 0.8441142 0.7961286 0.8013058 0.6402041 0.7722047 0.78967905 0.5884558 0.49580473 0.76511765 0.55557895 0.52032185 0.7646606 0.70306945 0.61601603 0.6405128 0.47326225 0.18448776 0.22840491 0.31793922 0.41039684 0.34731877 0.48641962 0.5052968 0.52809876 0.5129974 0.14665172 0.22440684 0.28387484 0.3223373 0.57234246 0.6077134 0.46233195 0.6158378 0.619655 0.106436 0.59641886 0.61616135 0.11060161 0.59321135 0.14477131 0.10324935 0.43247533 0.22293577 0.21210697 0.14407304 0.24604174 0.23821205 0.11467025 0.18171866 0.21521737 0.105301574 0.8270941 0.824871 0.27181157 0.8480221 0.8638998 0.8600894 0.8569797 0.36299264 0.45303872 0.56461436 0.85682607 0.74925077 0.51044726 0.8246825 0.8083403 0.7703749 0.7478256 0.76122206 0.7374284 0.73149174 0.7235403 0.72180665 0.7197174 0.64991057 0.6266731 0.7252269 0.7905232 0.7910731 0.6641245 0.75654894 0.7555115 0.6562527 0.78252655 0.75542545 0.70558 0.7578347 0.79244506 0.8206148 0.8550737 0.81007814 0.72353077 0.8140825 0.8424393 0.76732016 0.7765783 0.7776205 0.58826566 0.49762148 0.75238633 0.45808864 0.41438586 0.56927633 0.5656332 0.56918836 0.62155074 0.7175212 0.43705362 0.51430595 0.48103023 0.5279881 0.5821333 0.6021205 0.58099174 0.699824 0.32846287 0.21209615 0.4717286 0.3901924 0.19865435 -0.0038680285 0.12546173 0.15732515 0.3307647 0.35530633 0.27927965 -0.23977607 0.2166951 0.52032495 0.606188 0.39934373 0.62610483 0.62515724 0.094786085 0.106193595 0.48682576 0.551311 0.15336071 0.16614068 0.3560925 0.17458317 0.18705064 0.64526135 0.6815494 0.68797475 0.22677596 0.236768 0.12027567 0.7284233 0.7388005 0.74535644 0.22116876 0.2588569 0.2639079 0.18623914 0.848172 0.81137836 0.7880448 0.80209565 0.7611059 0.62722546 0.26287407 0.23284699 0.18340999 -0.019219175 0.2794798 0.21525997 0.8158146 0.42907506 0.5100888 0.42418763 0.8284397 0.47841537 0.49354845 0.5600722 0.78655666 0.57040334 0.6029647 0.4225648 0.46588242 0.60600936 0.6329733 0.6453413 0.61469376 0.60133106 0.50504446 0.58676934 0.6341547 0.6002505 0.703439 0.62843966 0.7254305 0.69408023 0.74895304 0.80480075 0.83763087 0.7342217 0.72064906 0.7427696 0.56109935 0.60460114 0.58347213 0.5927824 0.61896175 0.6953974 0.4131714 0.3717072 0.5976772 0.58791465 0.57524663 0.59361637 0.6254746 0.67590487 0.6669303 0.59610176 0.41593528 0.13675676 0.07978081 0.34734255 0.50889444 0.5578447 0.5854751 -0.034462355 0.5825353 0.51417744 0.034699727 0.47396576 -0.007748414 0.3628362 0.49069244 0.5613139 0.6743959 0.5966886 0.6440817 0.68764585 0.086802155 0.7402488 0.7571231 0.13074496 0.14618097 0.8955687 0.8340774 0.8024655 0.7814543 0.6401208 0.6274766 0.018865688 0.17594543 0.21176156 0.909303 0.9205855 0.86878383 0.8124858 0.76990193 0.7125288 0.33040243 0.22933114 0.12450042 0.08172636 -0.026683584 0.80244493 0.77595377 0.43314922 0.69840753 0.38334563 0.55483866 0.5264113 0.45137215 0.2898091 0.3057407 0.5657991 0.5470338 0.53910744 0.29999605 0.49214894 0.5864716 0.54104877 0.4017418 0.46668717 0.53173906 0.5261568 0.7004267 0.52304554 0.7585372 0.7100223 0.6509769 0.6330048 0.5544932 0.6403296 0.6129234 0.56643414 0.5138967 0.6007551 0.5648658 0.52187586 0.60997015 0.55066043 0.60642076 0.58558065 0.592305 0.6226587 0.58114773 0.6002929 0.53658104 0.3585119 0.35541004 0.32918006 0.61678785 0.61479163 0.6444318 0.6856419 0.4928612 0.38717335 0.61433816 0.5411004 0.43619436 0.5726166 0.35540643 0.5216504 0.36251268 0.046475716 0.20624903 0.4053692 0.48320436 0.3187074 0.20439184 0.50651 0.054504767 -0.20280488 0.33519325 0.38017094 0.43055072 -0.21817765 0.4652816 0.58653545 -0.1534574 0.6256702 0.70256436 0.11639018 0.009320244 -0.05303151 0.74922574 0.22636136 0.17415658 -0.046967596 0.79444855 0.7809497 0.4755444 0.21416208 0.14433919 0.89490527 0.92332786 0.87263924 0.80176306 0.78868866 0.67730665 0.13625138 0.19577122 0.2569055 0.26892787 0.32310396 0.53254783 0.22750726 0.2708647 0.5373498 0.51815027 0.29389194 0.28530416 0.21818846 0.4866435 0.43702102 0.37106228 0.4879648 0.29729658 0.50023115 0.40181276 0.54341817 0.5808593 0.61120516 0.24337076 0.60198414 0.41844106 0.5635276 0.59397674 0.56948996 0.5265595 0.50042355 0.39227736 0.52856207 0.50946015 0.430639 0.40679747 0.5628063 0.5917275 0.5864349 0.61951035 0.6438144 0.6794038 0.46737093 0.39655814 0.21926363 0.12151323 0.3828671 0.5053293 0.7194173 0.58842134 0.5565258 0.47520155 0.6018755 0.58963645 0.5314576 0.38428536 0.63627887 -0.25841466 0.24002396 0.5862932 0.43193233 0.3618608 0.29767364 0.19914629 0.10369075 0.06021589 -0.06208257 0.038035534 0.22117826 0.065559775 0.41306934 0.48607206 0.032260165 -0.078514025 0.5461626 0.61110735 0.2519943 0.2618363 0.08216887 0.6744073 0.25066596 0.3431297 0.33045077 0.7560612 0.18669474 0.24229965 0.47764477 0.7732034 0.086144134 0.08970002 0.6076356 0.76697516 0.83529544 0.7985662 0.15930168 0.10156283 0.6255938 0.5855124 0.21515271 0.19696212 0.332964 0.44875258 0.10376606 0.15134817 0.33206534 0.19757873 0.26272386 0.2403419 0.16355656 0.3649772 0.30969727 0.22977352 0.44160926 0.14749354 0.5633675 0.5344274 0.060107287 0.59109825 0.17055327 0.17611662 0.2389319 0.28749594 0.5862083 0.5824567 0.21136667 0.27040386 0.3005607 0.27930534 0.5559257 0.53666973 0.38544118 0.4908312 0.481916 0.44571006 0.41941467 0.41987005 0.42235664 0.3659904 0.42068174 0.006788142 0.4860738 0.49703342 0.4990839 0.5098828 0.35257566 -0.024247244 0.23122224 0.41351813 0.47993767 0.5888533 0.66929847 0.49959844 0.5052353 0.4993732 0.50274444 0.50050634 0.5825519 0.5649978 0.31612697 0.41462773 0.37535357 0.48612678 0.49103233 0.60811925 0.20038329 0.40247658 0.6544528 0.65124846 0.11720707 0.2571445 0.5782422 0.05111079 0.003780529 0.4858444 0.33611917 0.22562504 0.213392 0.37142807 0.14429662 0.4741783 0.06818383 0.22621317 0.50025105 0.584083 0.088717215 0.6403782 -0.35100073 0.7058035 0.43756318 0.36078733 0.24960062 -0.01577523 0.7713189 0.75200284 0.5304022 0.51614094 0.4337958 0.34145173 -0.0132131055 0.43356878 0.48525947 0.69036347 0.79455936 0.6342653 0.614638 0.56161445 0.45716092 0.35024637 0.03741852 0.6923629 0.667786 0.63630486 0.5108831 0.420486 0.29046947 -0.37979987 -0.14180845 0.6964451 0.6831537 0.6231328 0.5697545 0.4443356 0.010620281 -0.11240775 0.6663354 0.5896971 0.5372901 0.4752227 0.10668494 -0.039837785 0.14902447 0.16037615 -0.058752663 0.16906318 0.034874856 0.46277267 0.4054202 0.41898328 0.4087409 0.44183588 0.5547539 0.11638762 0.24306524 0.32170904 0.36097074 0.481366 0.58872914 0.29192904 0.30960482 0.43758076 0.54669106 0.685748 0.59159315 0.29914033 0.5345871 0.650689 0.83528554 0.53060174 0.5027067 0.33818516 0.35013443 0.30863485 0.384817 0.7694986 0.4332522 0.400745 0.41073883 0.41289428 0.36940938 0.346013 0.35270572 0.4225806 0.42768377 0.41122872 0.0011220202 0.08638919 0.1851811 0.24743177 0.36706007 0.42732126 0.44526026 0.47578108 0.49272752 0.4871645 0.4889542 0.50554 0.18311022 0.051434577 -0.036043786 -0.00019282103 0.3954627 0.49969494 0.49444675 0.56368196 -0.38704744 -0.052915663 0.27784202 0.4859019 0.61088383 0.58837837 -0.48891747 -0.024511747 -0.023083717 0.14607564 0.41001564 0.64951587 0.26789555 0.37177557 0.6231127 0.2155384 0.23454642 0.27929363 0.3460586 0.06220533 0.011259183 0.10013774 -0.016693335 0.5412674 0.6339759 0.29441455 0.25151938 0.16486157 0.15785009 0.66007316 0.41343087 0.40023327 0.3428605 0.11086252 0.2934277 0.3345801 0.43126243 0.5241077 0.69278044 0.5153307 -0.12053739 0.48576918 0.6296402 -0.26314566 -0.11573795 0.6999006 -0.17300591 0.69563216 0.68510103 0.062761806 0.6795509 0.6583819 0.5814192 0.51196694 0.15082519 0.50988144 0.48033255 -0.034079358 -0.063751705 -0.07169892 -0.06689307 -0.07823795 0.52461267 -0.055546366 0.26457208 0.44941998 0.48778504 0.48817587 0.48824328 0.5528709 0.48680753 0.60573316 0.6956768 0.5618415 0.68553114 0.862151 0.5526019 0.87081003 0.9302219 0.5374993 0.5288569 0.48797488 0.5017648 0.578026 0.6958545 0.8950863 0.9538171 0.47861242 0.40032682 0.35148028 0.34499156 0.59893334 0.7006812 0.4152826 0.41488105 0.4114098 0.37320626 0.3635602 0.8851695 0.8946979 0.872718 0.8989474 0.8559958 0.91383445 0.21066214 0.39223415 0.38750523 0.014095649 0.09073697 0.3006496 0.35357463 0.44254434 0.46700275 0.47562605 0.48253065 0.12506762 -0.026930422 -0.14944674 0.20351039 0.47899666 0.53044033 0.48090428 -0.071510725 -0.100050576 -0.012743674 0.45839328 0.5879054 -0.035308756 -0.01282566 0.41531694 0.59404206 0.36171514 0.2810772 0.291705 0.0897274 0.31696787 0.12319894 0.11311923 0.2911399 0.3389826 0.1363051 0.4497235 0.5095304 0.24446741 0.3618223 0.5727127 0.37992808 -0.11155866 0.39276463 0.5639008 0.4735634 -0.12146846 -0.05065988 0.034959078 0.6223436 -0.4765863 -0.10289921 0.68175447 0.69088537 0.6672038 0.644628 0.62363493 0.5523843 -0.04941973 -0.058092475 0.55279934 0.46332934 0.36776224 -0.047503382 -0.06487713 0.08241753 0.0060937554 0.4396061 0.570446 0.57228863 -0.07416048 0.58871806 0.52124727 0.41757143 0.6111046 0.75534827 0.48316473 0.8984457 0.920165 0.5066925 0.48570257 0.9642788 0.9519135 0.51896137 0.49090225 0.46321946 0.32410154 0.89967394 0.9613167 0.35008627 0.37745598 0.38570154 0.36072245 0.5160179 0.57554066 0.6709361 0.8474563 0.393618 0.37960738 0.37303537 0.35653198 0.8726364 0.8809047 0.8291929 0.87554055 0.88977015 0.8537306 0.8333542 0.86188424 0.8011889 0.7849512 0.8493524 0.6207962 0.70998454 0.78377295 0.08063488 0.06615182 0.10879485 0.15502398 0.2401465 0.44118333 0.44027805 0.38751608 0.33468616 0.10740063 0.09537026 0.27868786 0.2866407 0.2478545 0.35113525 0.41483575 0.45796 0.46909615 0.15134875 0.17781737 0.18714452 0.16758452 0.4771023 0.11106041 -0.26291817 0.458794 0.5330234 0.4105975 0.42447233 0.3790235 0.2612424 0.3091078 0.19148248 0.2691157 0.08924902 0.105791226 0.2327033 0.34580064 0.23895904 0.19425428 0.023346826 0.37354422 0.111517884 0.07265665 0.14558102 0.11833304 0.62586904 0.6369697 0.061107278 0.6155239 0.57206565 -0.037913814 0.061243743 0.20317277 -0.0729519 0.40807143 0.5178623 0.601297 0.22602701 0.19909 -0.085557684 0.624024 0.63030124 -0.09390432 0.31739444 0.7048245 0.775338 0.41339093 0.8539641 0.42992574 0.38534778 0.90346235 0.9397544 0.40674794 0.31127483 0.18121402 0.8870499 0.9320717 0.32484046 0.3515262 0.24579248 0.33813217 0.58467925 0.66473925 0.3437486 0.7615632 0.84297323 0.8384805 0.8087907 0.6496377 0.72872376 0.7875656 0.75860536 0.6609764 0.7374799 0.7374535 0.66349125 0.35255694 0.5206629 0.5777713 0.6260773 0.5770316 0.46639317 0.48566514 0.47906226 0.44309065 0.13188109 0.119343825 0.13366976 0.13713627 0.34251773 0.4461413 0.46396488 0.39791262 0.1473918 0.1564341 0.3372242 0.30749843 0.15354618 0.36412743 0.46157777 0.46405256 0.15443167 0.23957565 0.4722562 0.4727428 0.45434725 0.41608685 0.49988782 0.39865297 0.21850479 -0.29913303 0.35754108 0.5232774 0.3825757 0.30890286 0.348845 0.34825736 0.2452046 0.25447798 0.099300385 0.08705434 0.17807591 0.32280463 0.15629429 0.1111114 0.36478466 0.35075822 -0.00089680403 0.37649953 0.365575 0.51169497 0.515395 0.10551393 0.32326514 0.41085482 0.17199677 0.31071824 0.41684878 0.26650298 0.0055940896 0.46455985 0.119330555 0.21708608 0.06321183 0.31077582 0.057592243 0.23442754 0.48463923 0.5154211 0.3462336 0.29037526 0.2584619 0.5234417 0.39567673 0.3537158 0.046993077 0.4794839 0.14340693 0.5221585 0.70990074 0.33012748 0.26918948 0.60485625 0.76643795 0.34156394 0.3045823 0.11958146 0.5795747 0.6896224 0.8180057 0.28622192 0.21689501 -0.01972428 0.20861928 0.5345216 0.6484329 0.73099446 0.28873175 0.2542424 0.23032506 0.19961095 0.6547992 0.7297635 0.76737833 0.74809915 0.5303312 0.6052543 0.7165537 0.70987594 0.5071634 0.64128065 0.4751632 0.3725087 -0.052733824 0.46275982 0.47410625 0.47031456 0.12640962 0.08541329 0.4040973 0.18939696 0.3069606 0.3313289 0.40199912 0.37256318 0.12558745 0.2854166 0.25229657 0.22975661 0.27240422 0.4125199 0.4397837 0.1854887 0.14813544 0.454326 0.46144575 0.17425707 0.4556237 0.5567775 0.43037528 0.08713144 0.39173013 0.55867434 0.56612694 0.52879167 0.41236278 0.23223889 0.27596185 0.5133259 0.54480004 0.16692355 0.2533634 0.27029738 0.060458034 0.19660896 0.2284951 0.28574088 0.10186213 0.12472093 0.39038202 0.34102803 0.27925345 -0.03857014 -0.00734271 0.39483145 0.35559836 0.19870497 0.38333613 0.31979808 0.23287097 0.5582391 0.10125418 -0.07846281 0.5740961 0.6179173 0.33993006 0.55311584 0.037736945 0.06582227 0.31744647 0.12621722 0.07682586 -0.031839117 0.16516851 0.2002769 0.42916173 0.21956995 0.43822682 0.47412825 0.4517445 -0.2137759 0.3047238 0.37839666 0.43322426 0.49760067 0.4520328 0.43325165 0.41625977 0.36323154 0.4105761 0.50262856 0.09183544 0.35384706 0.41369164 0.4794687 0.00067417324 0.3569712 0.43701246 0.0516904 0.21326779 0.3310846 0.4877872 0.024909414 0.26375315 0.23605213 0.27369496 0.2623374 0.5977284 0.6793613 0.6555092 0.4551597 0.5275011 0.6737718 0.62664485 0.5190752 0.40337586 0.24352194 0.36306477 0.1306603 0.054413766 0.27448532 0.40128064 0.39782238 0.06538414 0.25204778 0.27415875 0.35386753 0.38868725 0.33268487 0.34533495 0.28617084 0.09945358 0.19507545 0.19771746 0.42359948 0.15202814 0.42088407 0.45051485 0.45461527 0.22794539 0.2064241 0.447262 0.5501648 0.27783206 0.38629496 0.43633473 0.541752 0.54740727 0.27001497 0.4859181 0.14927359 0.42229924 0.48409468 0.3896382 0.22774664 0.46040422 0.40147096 0.06377144 0.5068326 0.14289308 0.4752869 0.39388004 0.41477063 0.5573367 0.58686566 -0.2776938 0.500513 0.5695437 -0.31065428 0.27848318 0.4181512 0.13832481 0.13468063 -0.02845186 0.54132056 0.555913 -0.19798952 0.042385984 0.575681 0.5568956 0.46758035 0.4319577 -0.19530004 0.09802765 0.5548597 0.539581 0.49488294 -0.12511954 -0.1436228 0.19684005 0.14751048 0.31414932 0.2476492 0.17530006 0.22839515 0.20974542 0.27132 0.29031134 0.29338747 0.27439368 0.25176734 0.288768 0.27711365 0.47765133 0.5048936 0.591309 0.39258963 0.42150408 0.61132 0.31619915 0.33456242 0.4671203 0.31554344 0.29815814 0.23120573 0.19632204 0.15236363 0.19548273 0.31561825 0.08841613 0.08572402 -0.13999295 0.21693653 0.23533115 0.2239682 0.19962585 0.16637203 0.23874295 0.3117783 0.28607452 0.28157276 0.29353142 0.16203345 0.13727263 0.1781387 0.31382194 0.34899637 0.39990413 0.21172827 0.42711878 0.45210543 0.24539435 0.46631682 0.4334442 0.44853368 0.48214892 0.32779735 0.38143986 0.49590576 0.14468431 0.27850804 0.37304005 0.22026685 0.58457077 0.53793657 0.4288062 0.61291575 0.11258445 0.65012383 0.17790143 0.20250118 0.59785354 0.54155445 0.36892015 0.56379205 0.51903164 0.37667358 0.49623895 0.4038007 0.26163194 -0.05518014 -0.18845798 0.4264289 0.5029881 -0.21551448 -0.3324232 0.39535835 0.49141014 0.23491958 0.3168981 0.34529 0.09786955 0.12590665 0.0963144 0.13495561 0.044719756 0.49255744 -0.07697766 0.60773444 -0.20424528 -0.13112769 0.63535786 0.5136914 0.42627174 -0.042049207 0.18920538 0.6584304 0.6387013 0.57727563 0.5768932 0.026078366 0.17792177 0.21523121 0.3374087 0.27187288 0.32734156 0.3667695 0.35397834 0.2669065 0.48996305 0.3056355 0.34569332 0.42819998 0.5320285 0.6009412 0.29142112 0.44853055 0.31585813 0.12091601 0.26518217 0.14561355 0.17570546 -0.052595794 0.11344037 0.118946716 -0.11476126 0.243046 0.22640526 0.1975324 0.15293632 0.16775618 0.2450392 0.231354 0.2648248 0.08998139 -0.37077934 -0.16469942 0.15066685 0.19976163 0.25721833 0.31066275 0.3630532 0.24413641 0.40892583 0.43500414 0.45372155 0.23284814 0.26744726 0.464621 0.4680528 0.16233017 0.2080155 0.4498439 0.45895904 -0.04164239 0.24158476 0.37480795 0.22999981 0.29788902 0.07947807 0.44796634 0.5944113 0.55721915 0.47668636 0.65518963 -0.007320661 0.6991457 0.6349441 0.16981894 0.5937884 0.54313546 0.21921988 0.2870714 0.5868417 0.45847815 0.26094276 0.37635064 -0.1719173 -0.06758484 0.3174209 0.336362 0.24862078 0.16786094 0.2613355 0.28410512 0.34849927 -0.08879499 0.36165762 -0.24772826 -0.16388994 0.36562124 -0.4218908 -0.39693668 -0.09386991 0.08162424 0.5036128 0.04075068 0.11367783 0.61870754 0.46872473 0.10481544 0.23451477 0.6609248 0.6730862 0.6180272 0.574187 0.06880322 0.09740255 0.367181 0.20339188 0.6742939 0.66316473 0.6393389 0.29290625 0.40234873 0.29413825 0.4197383 0.44207665 0.5004385 0.513408 0.4149993 0.39638966 0.3576438 0.31570238 0.46585453 0.41266105 0.38612142 0.2544715 0.25049815 0.066845305 0.04980257 0.19263628 -0.017354645 0.1796155 -0.04877908 0.14054342 -0.11222264 0.22444472 0.19643669 0.13054371 0.103176355 -0.23051736 0.2318405 0.21090263 0.20453176 0.13529041 0.118747264 0.15987942 0.25138626 0.2897706 0.2508376 0.30834386 0.41488963 0.25643313 0.44627392 0.17760442 0.25444305 0.259346 0.42565602 0.29339325 -0.01444532 -0.12229976 0.117169276 0.25849277 -0.0011133775 -0.110221244 0.18505578 0.1664317 0.6023116 0.5580784 0.46197397 0.33990824 -0.074816644 0.6572108 0.0641164 0.6981621 -0.042842817 0.63953733 0.20372133 0.6237621 0.6597433 0.2943133 0.63461864 0.6071247 0.49118245 0.40820354 0.30979824 0.5408851 0.5371896 -0.033052772 0.2694831 0.31664762 0.4648862 -0.069854885 0.1497062 0.23712912 0.44570863 -0.17370406 0.4042843 -0.16951846 -0.21352036 -0.1383625 0.371624 0.21116403 -0.225832 0.508206 0.43845558 0.39653677 0.2505989 0.2567895 -0.16404136 0.25586206 0.59953725 0.64017004 0.46135217 0.2265998 0.24841873 0.24720997 0.5271667 0.43511572 0.67625654 0.66395724 0.6376912 0.60514104 0.20479116 0.312595 0.5015228 0.66581357 0.6498332 0.2926701 0.45010376 0.52103776 0.51612884 0.5521617 0.56357497 0.58795226 0.5590545 0.50640506 0.48094493 0.54675543 0.557202 0.5062759 0.5077056 0.31451216 0.18033276 0.24780725 0.17498253 0.2503966 0.19931681 0.21771702 0.17572169 0.18527752 0.16125034 0.2874639 0.22179212 0.13708372 -0.2724608 0.15443575 0.1675851 0.1451365 0.28797758 0.2571916 0.15078732 0.14870214 0.0017869622 0.02317787 -0.123670116 -0.15924597 0.106390335 -0.11697343 -0.12200292 0.19867972 0.5894049 0.4769752 0.44624454 -0.12124926 0.2027596 0.65651226 0.62723875 0.20087026 0.6669568 0.08132094 0.66622484 0.38982186 0.28554627 0.6915958 0.688401 0.3953457 0.6995808 0.6647579 0.58316094 -0.005543098 -0.116050646 -0.25000897 0.42997313 0.40630168 0.6440252 0.57236326 0.2998144 0.15082265 0.034382798 0.23400554 0.36679593 0.40758702 0.473893 0.36949363 0.