# vtk DataFile Version 2.0
Really cool data
ASCII
DATASET POLYDATA
POINTS 2368 float
-0.648386 -2.9010122 -6.4267716
-0.71407324 -3.05349 -5.152337
-0.660695 -3.0625255 -4.703611
-0.5607278 -2.4011023 -6.9664207
-0.7021185 -2.4339972 -6.285084
-0.7932974 -2.4183295 -5.427992
-0.7042109 -2.653346 -4.5844173
-0.5955125 -2.4407687 -4.192524
-0.66180843 -1.7135322 -6.1893516
-0.69574106 -1.5239575 -5.384751
-0.6360806 -1.5109518 -4.500256
0.26314336 -5.817447 -8.4113245
0.22831307 -5.8356366 -7.5247726
0.16143462 -5.224563 -9.102675
-0.058318943 -5.365206 -8.322299
-0.06769523 -5.346944 -7.564118
0.17539905 -5.347468 -7.0678015
0.37413484 -5.149557 4.9602065
0.39229593 -5.2165785 5.3128533
0.100011766 -4.591473 -9.254591
-0.24706054 -4.53081 -8.345032
-0.31185514 -4.5972586 -7.831171
-0.09024206 -3.860688 -6.746551
0.044709146 -4.214683 -5.738156
-0.13340363 -3.8890896 -4.552886
-0.04502669 -3.7540495 -4.07022
0.29672828 -4.15643 4.0719714
0.23670611 -4.3664513 4.410137
0.07862884 -4.2560472 5.354781
0.11849609 -3.8494096 -9.026711
-0.0499506 -3.620345 -8.327515
-0.51619476 -3.0245569 -6.4011984
-0.49808288 -3.5339854 -5.001213
-0.51451737 -3.4360964 -4.5842767
-0.1670678 -3.3875682 -3.9265528
-0.048023164 -3.7533524 4.8373666
-0.04879898 -3.5275052 5.454287
0.14678407 -3.4839058 6.192194
0.23383377 -2.336639 -7.8531494
-0.28268787 -2.4285128 -7.3163853
-0.39157143 -2.4252596 -3.8487623
0.3128612 -2.5064943 3.8273826
0.14244264 -2.8672705 4.2633038
-0.019205749 -2.776777 5.453524
0.1957306 -2.800076 5.9648304
-0.16153473 -1.8116307 -7.153448
-0.47518766 -1.5173429 -6.420126
-0.5178289 -1.2115983 -4.472511
-0.39406827 -1.3378601 -3.9157383
-0.029277563 -1.9015657 -3.2895954
0.32222635 -1.4666826 4.484467
0.24625798 -1.7361537 5.103787
-0.087319195 -0.7479049 -6.173206
-0.42892212 -0.7553243 -5.456901
-0.35262877 -0.602301 -4.3518763
-0.20785296 -0.6845344 -3.7567456
0.36658403 -0.7286523 -2.7307408
0.4409685 -0.62980515 3.9552658
0.45253667 -0.64065516 4.36467
0.27554828 -0.114456445 -6.1100936
-0.022491962 -0.08730398 -5.693097
-0.08734864 0.07908106 -4.693812
0.03638497 0.098386794 -3.7206857
0.37494022 0.26649797 -3.142972
0.79536605 -5.9102025 -9.005236
0.6847141 -6.034542 -8.636241
0.63987935 -6.1253567 -7.4722323
0.6524192 -5.9059715 -7.0882006
1.0344467 -6.1385603 4.88096
0.9076196 -6.117107 5.451897
0.9582458 -6.129743 6.0951
1.3347229 -5.9311686 7.2964334
0.89269674 -5.0806985 -9.767403
0.5069172 -5.289562 -9.389466
0.5554177 -5.5247254 -6.772602
0.5329962 -4.782066 -6.110165
0.8185816 -5.614599 4.6327157
0.5430145 -5.772199 5.490324
0.65852255 -5.36764 6.307867
1.2368195 -5.5502996 7.5529695
0.53828335 -4.6039534 -9.707866
0.29620063 -4.124098 -5.488836
0.2996445 -4.1240296 -4.3098354
0.3810586 -3.968014 -4.0421524
0.45509198 -3.9587111 3.6862247
0.5254144 -4.800118 6.3261547
0.8449147 -4.5617857 7.094009
1.1761483 -4.743459 7.745702
0.6053318 -3.68645 -9.356534
0.36043036 -3.4013638 -3.4569838
0.7019465 -3.0160413 -3.2614698
1.2022138 -2.9649801 3.0476024
0.8752849 -3.3690965 7.048828
1.1191647 -2.9976132 -9.359089
0.5591659 -3.0275335 -8.653596
0.4754688 -2.5469506 3.5250013
0.65222955 -2.6396232 6.5162263
1.0144179 -1.5945709 -7.732549
0.61078167 -1.4379565 -7.3667507
0.81901455 -1.4446043 -2.6300406
1.1252828 -1.2879051 -1.9841249
1.3051462 -1.0213811 -0.41099408
1.2378503 -0.85041755 0.8656386
1.0845321 -0.95494556 1.4988947
0.7390749 -1.5559494 2.623549
0.7527925 -1.7764754 6.054245
0.7408017 -1.2684395 -7.348344
0.90564764 -0.39788133 -0.19453032
0.8914666 -0.503803 0.5262651
0.99790466 -0.15722996 1.2731282
0.8390074 -0.7822287 2.2138808
0.75647205 -0.53922004 5.319067
0.61774236 0.14556506 -6.071739
0.4856782 -0.11174911 -2.8871765
0.88196456 0.4498867 -1.0725431
0.74473524 0.44523308 0.16180989
0.7549706 0.6712184 2.4965236
0.73225677 0.1256566 4.3896265
0.89832485 -0.08740263 5.113765
0.7658731 0.91535103 -5.2291203
0.9246652 1.2607336 -4.644961
0.8686961 1.0178018 -3.6673782
1.043333 1.20526 -2.7190757
1.264743 1.3107724 -1.9469678
1.1078098 1.2211139 -0.6002831
1.1830766 1.5438601 0.3392551
0.98303366 1.3410258 1.4187871
0.95978343 1.5471102 2.2240443
0.9785481 1.4181122 3.0432205
1.0126647 0.9066495 3.9187884
1.3759968 1.9698853 -4.4856343
1.3579146 1.6980672 -0.7464543
1.3695412 1.7913653 0.50277215
1.2338238 1.9792264 1.8404784
1.2275577 1.9627867 2.719711
2.4886658 -11.09218 -11.17363
1.5888451 -6.6067386 5.0776367
1.711503 -6.6597414 5.5666976
1.7730284 -6.6145477 6.2189026
2.195881 -6.6563344 7.1818743
1.934503 -5.988252 -9.4127865
1.4585878 -6.390126 -8.269946
1.4774685 -6.3761983 -7.694424
1.6533804 -5.987336 -6.9836845
1.5138565 -5.8944044 4.0970807
1.4297817 -6.39823 4.936899
1.4159166 -6.5221243 5.777323
1.4489135 -6.3875165 6.565701
1.7139922 -6.2139225 7.3359504
1.7943318 -5.8978724 7.8644667
1.741485 -4.9303927 -10.086214
1.6104271 -5.2088194 -6.3009872
1.5943439 -5.4055557 7.9806266
1.2312381 -4.7192917 -10.040834
1.346996 -4.0581193 -4.800015
0.98487645 -3.7968097 -3.737031
1.2414742 -4.5236464 3.5214555
1.7430935 -4.6500936 8.114431
1.628989 -3.335104 -10.018753
1.3903036 -3.3481355 -3.4746668
1.8927488 -3.2160811 2.7664473
2.052425 -3.3178709 7.326313
2.019772 -4.068111 8.038995
2.2501385 -3.0065112 -10.591917
1.7629175 -2.5463278 -9.480868
1.8983914 -2.4641986 -2.853783
1.2862011 -1.9768705 2.3783107
1.8295926 -2.7867086 7.090749
2.017641 -1.7923261 -7.9352584
1.5888493 -1.2528287 -1.2514232
1.9710708 -1.5642709 -0.3440245
1.90709 -1.3927884 0.8988466
2.2294424 0.19536032 -11.037953
1.5014601 -0.4506275 5.8835135
1.9629416 1.0343503 -11.928096
1.8313733 0.9371263 -11.501414
2.0808146 0.89290273 -10.07599
1.2915378 0.3408758 -6.2790937
2.0155528 1.4282486 -12.039682
1.7597461 1.4243069 -11.5564
1.801821 1.4269754 -10.717928
2.244961 1.6298057 -6.7623043
1.6239626 1.2960408 -5.82528
1.419708 1.5975175 -2.3738015
1.472305 1.67178 -1.914774
1.4704385 1.4677901 4.0158043
2.0862 1.3455952 5.5695233
2.1738853 2.198471 -12.17463
1.8843366 2.254244 -11.328757
2.047986 2.4248655 -10.439949
2.226677 2.3338404 -9.804701
2.106052 2.6096816 -6.1048737
1.7592137 2.3738449 -5.521218
1.7211889 2.565416 -4.61885
1.7491039 2.1466212 -3.1664212
1.6183789 1.921306 -2.3743184
2.1892622 2.1174567 -1.3500478
1.8357697 2.0264978 -0.51004815
1.6545559 2.3493993 1.673306
1.7022741 2.5219684 2.1013489
1.5754393 2.0178747 3.3817735
1.9351153 2.0725055 4.4063635
2.3828251 3.0603921 -12.101501
2.1732945 2.8466876 -11.424443
2.3728456 2.9661741 -10.492229
2.1485298 3.0785067 -5.6200504
2.0909514 3.1362228 -4.727236
1.8015639 2.6327677 2.2780983
3.262245 -12.142315 -12.066148
3.0469942 -12.169172 -11.364703
3.0463996 -12.118937 -10.614262
2.8706906 -11.321326 -12.08135
2.653974 -11.380875 -11.427896
2.729775 -11.304315 -10.4948845
3.0342054 -11.510508 -9.853618
3.322367 -10.886001 -12.679936
2.908701 -10.777654 -12.1956005
2.6185203 -10.670721 -11.434316
2.720924 -10.764697 -10.348973
3.0476537 -10.69953 -9.918665
3.3284009 -10.034262 -12.430191
3.3127618 -9.494384 -11.368912
2.2791526 -6.65907 5.2094746
2.5366988 -6.8493805 6.6580496
2.6117473 -6.719296 7.249706
2.1819801 -6.42617 -7.798318
2.5201764 -6.1680303 4.166264
2.603795 -6.5349317 7.5898
2.5615077 -6.1480107 7.9941654
2.8130665 -4.9264107 -5.7831182
2.451026 -5.3933525 8.367463
2.927868 -3.9474213 -10.736771
2.2351747 -4.512022 -10.318874
2.9212618 -3.7313433 -4.9543347
3.3568785 -4.8175883 -2.474635
2.4455462 -4.005803 3.2124128
2.157322 -4.516501 3.4673426
2.5855165 -4.776737 8.398078
2.2760224 -3.9066818 -10.53855
2.3804827 -3.4599712 -4.1855516
2.2678373 -2.9148793 -2.9737005
2.5954733 -3.0248327 2.4495218
2.7045557 -3.3363938 7.582294
2.595774 -4.0821743 8.158257
3.229907 -2.286579 -11.046031
3.2094367 -2.5973225 -1.7991433
2.6874526 -2.1458085 0.4531495
2.4482033 -2.3990626 7.05736
3.4122927 -1.0898241 -16.814878
3.2476523 -1.3963457 -16.300549
3.2546027 -1.323823 -15.686203
3.3502505 -1.5835505 -10.820482
3.4084175 -0.71218085 -16.97823
3.3003638 -0.63070166 -16.558683
3.272843 -0.47121677 -15.8124
2.9349475 -0.3543552 -11.28416
2.4193172 0.10010786 -10.2910385
2.9114194 -0.99876 -9.723497
3.0484304 0.4328623 -12.3066025
3.1400137 0.39032 -8.471215
2.4249725 0.49040154 -6.8381906
2.9235792 1.7300732 -12.841826
2.6479895 1.3068533 -12.536817
2.7216473 1.8427447 -8.920247
2.631278 1.1609164 -7.3976464
3.29452 1.4628657 7.3207307
3.3547094 1.6497931 9.748691
2.6929405 2.196194 -12.808424
2.7017682 2.3694034 -8.657856
2.679578 2.7164297 -7.4495187
2.3536203 2.4075785 -3.1635926
2.4196575 2.437254 -2.8631132
2.3538496 2.0442793 -1.5085868
2.4841592 2.271851 -0.6679201
2.7551239 2.5260706 5.403014
2.9354587 2.3675168 5.9498043
3.4820762 2.1151145 8.53942
3.0172112 3.469299 -12.984574
2.6521828 3.34276 -12.445165
2.6324177 3.5436137 -11.669271
2.640129 3.4438477 -10.823148
2.7261584 3.113823 -9.626167
2.4117484 3.3346453 -4.437286
2.6859856 3.1707735 -3.9040453
2.5665693 2.675875 -3.0017633
2.6765451 2.9270892 2.2325125
2.9351614 3.0702922 4.507754
3.235933 3.067813 5.979092
3.221479 4.0702353 -12.8530855
3.018267 3.958343 -12.439936
2.9691963 3.984554 -11.804992
3.3239422 3.7912536 -7.393372
3.1017725 4.185862 -6.317883
2.8994944 4.168721 -5.7350006
3.0168576 3.9597864 -4.733151
3.1892638 4.2678933 2.860769
3.1798291 4.212115 3.192073
3.3666396 4.07149 4.5064063
3.9411304 -12.846298 -11.939866
3.659335 -12.796626 -11.399599
4.3541346 -11.959737 -14.629199
3.9339185 -12.066387 -12.989444
3.8588715 -12.62163 -12.339596
3.5058432 -12.539622 -10.431615
3.686773 -12.132916 -9.697052
4.215075 -11.448461 -14.241707
3.3731043 -10.973393 -12.783739
3.5583363 -11.45365 -9.28588
4.2566614 -10.512529 -14.155349
3.6467767 -10.631699 -13.200049
3.7890277 -10.909839 -9.146171
4.031528 -9.576248 -13.341665
3.8386152 -9.588833 -10.014694
4.269297 -9.274565 -9.208976
3.808596 -8.7916 -11.455703
4.3567376 -8.014642 1.726244
4.2324505 -7.765974 1.9559785
4.1419353 -7.240519 1.1238034
4.0726004 -7.3105817 1.5012206
4.2126017 -7.300545 2.47683
[...]
POINT_DATA 2368
SCALARS features_00 float 1
LOOKUP_TABLE default
0.5109357 0.55297494 0.56532866 0.49260226 0.51778674 0.54382163 0.56793207 0.56796867 0.50793195 0.5251512 0.5270175 0.71488106 0.6202767 0.712077 0.71227956 0.61132807 0.5248325 0.5741007 0.5787512 0.6726861 0.6695621 0.6196096 0.4883524 0.46766257 0.53273934 0.5535163 0.5338676 0.5542374 0.56747496 0.5509629 0.49931183 0.5113564 0.54244256 0.55887556 0.57620454 0.54014635 0.5458419 0.5665023 0.36888504 0.45981532 0.56756747 0.45252177 0.49516472 0.502393 0.5062265 0.44271272 0.48606637 0.5110772 0.4951954 0.50812507 0.40520003 0.4214178 0.42596015 0.4865413 0.47299546 0.4588379 0.42067847 0.3310486 0.32479635 0.34011072 0.40877867 0.43611458 0.39409122 0.34616253 0.7046752 0.7142362 0.61064374 0.5378427 0.55764437 0.5814748 0.6072663 0.71385133 0.60634196 0.6828567 0.47000813 0.3861527 0.56002736 0.5826198 0.61596453 0.7409644 0.6079668 0.4654904 0.50334847 0.51404923 0.4998633 0.60807395 0.67611414 0.75000775 0.49277583 0.5490906 0.5045465 0.33593127 0.6047517 0.35527787 0.33926883 0.421495 0.5111542 0.29327545 0.3455642 0.37599203 0.16867107 0.14158857 0.15210624 0.10949817 0.20366547 0.40444475 0.32217473 0.2592663 0.20944667 0.23581707 0.14846778 0.3072676 0.27892858 0.38461584 0.28254622 0.38287103 0.3377633 0.27534735 0.27987748 0.28991002 0.26856846 0.25649327 0.17983113 0.16745885 0.26773366 0.30937004 0.31368 0.28664404 0.27654356 0.22893718 0.22858839 0.23404825 0.26881075 0.24840043 0.27788162 0.65762556 0.55089104 0.58197105 0.6381266 0.7440722 0.59371006 0.67209077 0.6038295 0.45471 0.5235421 0.548108 0.5977636 0.6557268 0.7362025 0.79578614 0.44779557 0.2747221 0.8081857 0.5164884 0.34580672 0.45280352 0.47627345 0.77973783 0.39683565 0.4004961 0.21463925 0.5417686 0.67537016 0.2520563 0.25010854 0.2589571 0.15073295 0.491848 0.18270238 0.03148341 0.057924777 0.07625139 0.46599346 0.27419242 0.5506443 0.5548024 0.4692086 0.15173003 0.5707571 0.58211946 0.55953556 0.06515101 0.16496997 0.16238526 0.17210905 0.20758231 0.13167252 0.58628297 0.57233745 0.48933 0.41255492 0.23645775 0.25135684 0.2495296 0.18935236 0.16543894 0.19095126 0.22066002 0.20322081 0.2223585 0.25323915 0.1742557 0.5880881 0.5569811 0.47645697 0.3125008 0.28377602 0.22881098 0.53381324 0.6283387 0.6931615 0.53695 0.6290525 0.7049521 0.68736815 0.40620357 0.49387005 0.6069677 0.69391066 0.65872526 0.39046896 0.54242706 0.5415806 0.70528567 0.7707497 0.5070851 0.42689884 0.8019943 0.835742 -0.11496978 0.887254 0.21005203 0.3430001 0.048593752 0.32762134 0.18544936 0.34694126 0.8595145 0.30905068 0.25632936 0.21720853 0.025908366 0.5658935 0.70790267 0.07541024 -0.26251936 -0.05364336 0.3928705 0.4526772 0.5069111 0.56297785 0.016135976 0.42394465 0.4453682 0.47540385 0.26070487 0.3639976 0.036576316 0.381963 0.051611893 -0.028285243 0.44943696 0.48834962 0.2365118 -0.07918346 0.21203166 0.3978958 0.52331185 0.1469876 0.050452553 0.19457904 0.1858035 0.18832184 0.18081862 0.10212993 0.09240581 0.32305375 0.59459555 0.5954304 0.5571954 0.49642962 0.34074005 0.2684807 0.21950744 0.18309546 0.22766034 0.16877581 0.12138241 0.5848125 0.57921785 0.54942787 0.2407065 0.34781507 0.38040298 0.3419783 0.3406397 0.35224617 0.28926507 0.45062625 0.57436 0.3730545 0.36488068 0.42459223 0.6712499 0.6231886 0.32385224 0.3938061 0.59349734 0.2516948 0.30206358 0.5136227 0.23933634 0.5411582 0.34033668 0.39960426 0.55907583 0.5285445 0.46627474 0.48327062 0.44231886 0.46893674 0.6381663 0.73690987 0.8009583 -0.14662866 0.05791696 0.14022686 0.25799084 0.32117414 0.30680335 0.24681343 0.14252928 0.18228002 0.5636326 0.8214932 0.83922434 0.2273984 -0.11060573 0.2989823 0.23866147 0.88434124 0.14712022 0.28058708 0.20844996 -0.20223543 0.13545477 -0.464802 -0.3704995 0.7953209 0.37939352 0.52384406 0.5355861 0.048809886 0.36828 0.41178113 0.4798162 0.3400066 0.4052684 0.41504925 -0.00023112074 0.13755734 0.26053515 0.29586402 0.33271614 0.38172728 0.38903892 0.4203755 0.58397925 0.6549858 0.2651819 0.3189844 0.072974324 0.30256215 0.48971194 0.60477173 0.71681 0.7447618 0.41291666 0.13996714 0.17221424 0.36188287 0.40992287 0.5237868 0.63263834 0.7529459 0.7928176 0.59201217 0.21617687 0.24372412 0.15978867 0.27155378 0.40843493 0.53752863 0.6045263 0.5871786 0.5401591 0.47798908 0.3901498 0.19762295 0.3039264 0.32275224 0.39250565 0.32925487 0.35597295 0.36525708 0.22140303 0.31121823 0.4194241 0.5583747 0.46209157 0.33203965 0.37492627 0.4308113 0.38563597 0.37406993 0.40545684 0.3987947 0.5841144 0.6002853 0.5813259 0.53212637 0.5127101 0.5294978 0.486179 0.4363793 0.38420004 0.5398959 0.43306822 0.39822915 0.44965255 0.5073056 0.42437762 0.41378754 0.44086564 0.34393376 0.28737605 0.18600021 0.26638567 0.1755332 -0.116741955 0.58495295 0.58865875 0.55713093 0.06873015 0.119145945 0.1627571 -0.1880023 0.044506077 0.21265996 0.27240986 0.27679807 0.5058238 0.5043111 0.35111097 0.08157486 0.1749667 0.15478525 0.77516735 0.79679626 0.819888 -0.033537187 0.72284675 0.7886551 0.055482447 0.7077607 0.41585937 0.2908175 0.2979975 0.60446036 0.23211008 0.3870824 0.4496265 0.43369073 0.24864233 -0.021195171 0.2519759 0.31093958 -0.039212707 -0.014661833 0.058237832 0.1893409 0.26243585 0.29038644 0.3585891 -0.036006063 0.30798328 0.42307168 0.515337 0.22672035 0.27398047 -0.00078605954 -0.08169062 0.6149055 0.7025187 0.15203907 -0.14206491 0.0037011472 0.09072642 0.7885386 0.49705017 0.4745375 0.22825237 0.81004095 0.64692307 0.6491692 0.54523915 0.571921 0.27539456 0.6582554 0.75279075 0.7753923 0.71666044 0.735178 0.7434894 0.6738906 0.50312006 0.43759716 0.31223622 0.31359792 0.34592274 0.30919683 0.35081786 0.40546417 0.44805682 0.5299859 0.5883639 0.66877496 0.7035585 0.7195681 0.7072638 0.40713653 0.2661987 0.15945399 0.24603003 0.29376683 0.36202 0.45151663 0.42052573 0.24761151 0.54328823 0.36265665 0.33049142 0.38551754 0.33268964 0.2822715 0.38640776 0.4018076 0.6888977 0.38871333 0.6496373 0.6213325 0.6522881 0.6588143 0.5740266 0.61266273 0.64109135 0.63449514 0.5842173 0.5118817 0.46090457 0.46142834 0.48270905 0.1392523 0.44918907 0.44137874 0.19426438 0.39590344 0.40535426 0.15833803 0.19403851 0.54398 0.5695392 0.5428095 0.07317707 -0.061342075 -0.07290827 0.5775504 0.5381347 0.44024208 0.61564934 0.51350117 0.4015609 0.22273102 -0.0014646314 0.00699798 0.10816157 0.15974243 0.31727815 0.60376865 0.5642233 0.30071676 0.1480948 -0.031514823 0.008819252 0.50849915 0.36650634 0.15766835 -0.12623267 -0.17383718 -0.4684062 0.60508704 0.6622438 -0.03308573 -0.38656846 -0.4069575 0.60478526 0.29467052 0.2965915 -0.3539278 0.13207702 0.17758825 0.028070016 0.12687974 0.09887573 0.0685283 0.14890364 0.20283397 0.42712867 0.33322188 0.23142275 0.40583077 0.43344605 0.3775469 0.5718061 0.74235 0.11189016 -0.14471197 0.79017675 -0.32105082 -0.61215127 0.8004562 0.7947786 0.35589027 0.74558014 0.6125606 0.68062043 0.2731577 0.1930252 0.20288749 0.22390321 0.4840953 0.55900645 0.6925162 0.66700804 0.68758684 0.6461613 0.57361555 0.26255387 0.029150981 0.10306487 0.20501469 0.37750784 0.37485296 0.22414607 0.33210653 0.29011348 0.24439774 0.37220395 0.41764048 0.42470136 0.45801264 0.65167 0.6382782 0.6110965 0.2251016 0.26381248 0.31168842 0.6216191 0.5552002 0.31879136 0.52187264 0.59036803 0.61544806 0.6215658 0.5994271 0.5618637 0.6612448 0.6860149 0.679103 0.55846906 0.6323058 0.62744635 0.473702 0.5003247 0.25956482 0.43171254 0.5180098 0.42159504 0.41468507 0.59241056 0.41611883 0.3500953 0.20249815 0.47625646 0.5529687 0.45364192 0.26568955 -0.10178691 0.48275298 0.45227158 0.22558399 0.6196342 0.5951306 0.055889495 0.19151014 0.12973256 0.6088479 0.6146153 0.58269894 0.5726671 0.11805445 0.22822148 0.122092105 -0.040052466 -0.089986764 0.108485386 0.17865787 0.16138726 0.4521123 0.37526745 0.15799162 0.15710315 0.4848422 0.45351398 0.4815517 0.458034 0.5081003 0.4818952 0.43458948 0.22863708 0.73118263 0.7748285 -0.30014476 0.17625459 -0.18351538 0.6528981 0.7236308 0.60172987 0.29876202 0.04582697 0.23865092 0.1128377 0.28959587 0.39282665 0.44498193 0.52900016 0.62091625 0.6296538 0.6368892 0.2972035 0.052442282 0.07838999 0.032589033 0.116179295 0.1409256 0.30108055 0.4006337 0.4204781 0.43704316 0.634647 0.5998844 0.5174285 0.39322692 0.30588204 0.20385216 0.2625308 0.26710626 0.09773712 0.121303156 0.21205401 0.47304392 0.5245857 0.29428467 0.22362846 0.4886278 0.5019799 0.46483374 0.41638684 0.6610874 0.6812519 0.6548364 0.62055176 0.54533404 0.614542 0.5506541 0.3886807 0.62053406 0.46343186 0.49587452 0.6762355 0.66942364 0.40305942 0.6157192 0.6505052 0.33320427 0.51426756 0.52897155 0.18205613 0.15342613 -0.07834099 0.17334393 0.49830055 0.4607405 0.054956988 0.19426715 0.19427443 0.19510546 0.581161 0.5210219 -0.1577417 -0.17476615 0.12470867 0.02452248 0.34702316 0.250659 0.6055299 0.6049477 -0.014843509 0.5925616 -0.036800772 0.5484379 -0.12779465 0.34617385 0.31073287 0.03985023 0.3884575 0.33885685 0.19056135 0.4464804 0.19640055 0.514502 0.50368524 0.15872085 0.5188853 0.51637846 0.48910803 0.05382447 0.7156682 0.55955774 0.68861187 0.5416266 0.079627685 0.15721685 0.30488095 0.4446084 0.4915012 0.5999619 0.1990886 0.023313 0.052966155 0.068136156 0.04398609 0.22771023 0.61682415 0.6230868 0.553108 0.47681886 0.37206078 0.29450732 0.18063267 0.054992564 0.22904672 0.17211822 0.58705264 0.4877997 0.44847268 0.22166534 0.31272632 0.47008833 0.48093414 0.4611088 0.34309196 0.3837092 0.378061 0.34208083 0.33114278 0.39496586 0.43215787 0.39461708 0.3655972 0.6145493 0.5702207 0.49698249 0.5891162 0.5639603 0.5207392 0.5226674 0.6558161 0.44927585 0.3132536 0.6910219 0.69811267 0.6912606 0.38057947 0.67422324 0.22489649 0.13823062 0.15036218 0.15821847 0.17275043 0.15920937 0.45348603 0.4034657 0.17251584 0.14074215 0.4248482 0.53629386 0.5421953 0.56602055 0.5162767 0.44737613 0.45749307 0.602231 0.6002792 0.25304532 0.578377 0.44412106 -0.14708455 -0.18941966 0.42754954 0.46040064 0.25581995 0.33705884 0.5205779 0.24808706 0.59122443 0.6153952 0.19149123 0.6228376 0.58092153 0.0544774 0.4436804 0.38045895 -0.0019438118 0.050085593 0.18092823 0.22564718 0.4583766 0.5362718 0.11983322 0.07392381 0.32101697 0.45619112 0.5520876 0.18807243 0.60416245 0.6065635 0.5895311 0.38028896 0.35520786 0.12187602 0.106023096 0.098861426 0.103690095 0.086095326 0.29716948 0.538854 0.50856215 0.43895936 0.38393655 0.44141948 0.4504002 0.31987107 0.3112674 0.3443809 0.31784105 0.33028424 0.42141554 0.43701583 0.41497567 0.3494172 0.43458658 0.37528557 0.5192882 0.08391419 0.11577911 0.17306663 0.36690685 0.5699209 0.6559541 0.652531 0.6303982 0.24423204 0.50746566 0.33941025 0.25981784 0.3027994 -0.05609984 0.048820246 0.13156298 0.15267846 0.12992477 0.38491136 0.51217836 0.59347975 0.58987296 0.11271484 -0.07330693 0.069315314 0.2704298 0.36802936 0.5309516 0.5719782 0.5661092 0.5034347 -0.5004025 0.49840316 0.56022155 0.49035063 0.2841206 0.56208825 0.4884935 0.21684086 0.44348294 0.2150687 0.3806862 0.48315704 0.12893444 0.2129274 0.43475416 0.5054629 0.36490077 0.55618215 0.4932344 0.6251538 0.67154706 0.40022224 0.6677138 -0.18569483 -0.1663705 0.61850274 -0.31718278 0.0058613 0.13231404 0.15487927 0.21243623 0.50281096 0.5339632 0.53407145 0.52466416 0.37817279 0.17947306 0.17014416 0.1381617 0.11486546 0.33580798 0.36630702 0.5157628 0.47657722 0.44205648 0.33348498 0.4152326 0.38778275 0.2863689 0.144523 0.2617726 0.18971734 0.34799057 0.33441892 0.33308545 0.27018055 0.39941657 0.40878093 0.35349923 0.26088017 0.16705365 0.046066444 0.07702728 0.14605701 0.2539286 0.4227001 0.47304448 0.40810174 0.07154413 0.54117227 0.45146298 0.4237347 0.39883494 0.4103812 0.43034685 0.10050686 0.18371233 0.1615458 0.39636648 0.07537809 0.14237909 0.27946508 0.4208246 0.5266574 0.60133183 0.589778 0.3713511 0.14433965 0.5584456 0.52398056 0.23783858 0.25701654 0.42181224 0.34199163 0.26133132 0.4337039 0.37042004 0.3922057 0.3298232 0.31006205 0.37381846 0.28749406 -0.03871896 0.17952022 0.45134532 -0.2699822 0.0962639 0.33764222 0.4095167 0.4582981 0.50029576 0.4621625 0.5042379 0.55892515 0.64134586 0.5384673 0.6824998 0.40978152 0.4164014 0.6552509 0.5930469 0.18570983 0.3149523 0.38776946 0.5439515 0.38176858 0.2264581 -0.17358974 0.053438287 -0.04836774 0.0036186092 0.20626645 0.36584854 0.105991185 0.4273833 0.41516063 0.3401176 0.2649879 0.16321637 0.13326657 0.11010435 0.1529444 0.36469185 0.37460947 0.25112623 0.36975664 0.37217176 0.09189741 0.11612894 0.21641406 0.22952534 0.28185105 -0.011960305 0.22851257 0.20139226 0.19790179 0.42343184 0.3759608 0.15993011 0.17336147 0.50025094 0.4663481 0.22115561 0.15015072 0.07642396 0.13006313 0.17893437 0.24558437 0.21562976 0.5323943 0.16230412 0.09423542 0.42095047 0.5281574 0.54903007 0.47581625 0.5168568 0.5814818 0.46980703 0.28840244 0.37599492 0.48735705 0.5822336 0.57260674 0.4471593 0.39287135 0.36696553 0.538541 0.47628945 0.41167337 -0.0971848 0.46160585 0.055095404 0.4450759 0.097060315 0.37467796 -0.122357875 0.13896364 0.4234388 0.49291122 0.39854804 -0.24484721 0.42965078 0.5203486 0.5409863 0.6094748 0.44030306 0.3545389 0.11130388 0.5810633 0.6909835 0.4618954 0.77948433 0.8053274 0.57347924 0.4844192 0.7252203 0.60821486 0.40639523 0.53384805 0.5971341 0.59751236 -0.002745686 0.32863575 0.4276797 -0.09221804 -0.13970912 -0.061201002 0.28256795 0.3228123 0.2148985 0.12964511 0.07617473 -0.07406609 0.3613004 0.33683825 0.20348527 0.1351253 0.12785736 0.11272909 0.17094544 0.16214298 0.06823705 0.394248 0.17654449 0.15877895 0.37306052 0.39139795 -0.07115636 -0.21773624 0.23122057 0.30502668 -0.02627508 0.2220245 0.21980849 0.24985158 0.2489718 0.2664994 0.27489394 0.3724038 0.34873036 0.28642225 0.39120036 0.5154576 0.47185358 0.41520935 0.25491756 0.15502395 0.10048939 0.11344595 0.1684697 0.56410885 0.57059646 0.54803616 0.15089162 0.1588558 0.12379201 0.49826747 0.5186693 0.57023543 0.6006118 0.5252321 0.5804827 0.565679 0.54580104 0.57566935 0.56752163 0.07184402 0.2204006 0.56854445 0.5453538 0.10830963 0.45855057 0.5163694 0.10406467 0.5565065 0.10546802 0.0631337 0.43893906 0.5419949 0.56906295 0.36845917 0.5658532 0.634543 0.71879506 -0.058449697 -0.0965444 0.7827606 0.84384584 0.85584325 0.79000735 0.8110403 0.24564946 0.3447063 0.5321076 0.5800638 0.72183895 -0.11499761 0.12879145 0.25792417 0.36534274 0.4261281 -0.12849809 0.042439 0.25468776 0.16799666 0.4010603 0.19064674 0.0890526 0.066899545 -0.22739139 0.4132638 0.07591845 0.22337146 0.27282876 0.26001525 0.25733376 -0.019373478 0.43990833 0.45149457 0.28640872 0.288145 0.00988714 0.4285003 -0.08300262 0.25050908 0.3343016 0.23949537 0.24544942 0.22494857 0.4438464 0.39578307 0.34619763 0.39384294 0.3626301 0.4953441 0.49490833 0.42537215 0.3872914 0.4086859 0.42107156 0.4144438 0.43332124 0.40797094 0.27823913 0.5308515 0.56222075 0.5831876 0.5329466 0.4694037 0.39135885 0.2814383 0.17913139 0.09812084 0.4129799 0.4862072 0.5142662 0.5820134 0.60971624 0.6151856 0.5686703 0.49340886 0.15295649 0.6195438 0.6260176 0.60838556 0.45237273 0.61937463 0.58976746 0.05337978 -0.066065796 0.53491414 -0.009805046 -0.0035242587 0.30668807 0.10143481 0.04250141 0.45729005 0.52192503 0.54642034 0.102595955 0.06534293 0.48383284 0.011057403 0.58346224 0.7343043 0.8100207 0.050782856 -0.07211392 0.8634061 0.89168584 0.14130719 0.8997886 0.13408044 0.588867 0.8656601 0.87350607 0.23104206 0.51500094 0.55637616 0.7099846 0.7664732 -0.03212363 0.38926584 0.049881518 0.30070308 0.40718648 0.10929949 0.16599527 0.16191685 0.4807387 0.13539325 0.29632312 0.4930007 0.30352217 0.24363822 0.4965266 0.3115406 0.30812094 0.41253203 0.47244146 0.48371053 0.22700307 0.3527308 0.2410173 0.49232912 0.38120532 0.37785232 0.5674067 0.55806226 0.5510219 0.4975263 0.4602739 0.42590493 0.42302638 0.4062824 0.5405197 0.5258453 0.5430611 0.13989723 0.46831352 0.5098485 0.5550453 0.59410834 0.5425719 0.39847478 0.33503407 0.23518561 0.17239627 0.20038582 0.22989511 0.22978556 0.22968188 0.19172731 0.38307747 0.6075585 0.61071813 0.5702733 0.46135515 0.29317704 0.20277856 0.14375192 0.49447668 0.1592283 0.2715232 0.112055406 0.50211877 0.4824095 -0.14624335 0.07693214 0.20736137 0.4389122 0.49598458 0.10458739 0.39056253 0.5053837 0.5124141 0.057769824 0.10358821 0.39137644 0.06423779 0.1891971 0.6998784 0.8134659 0.84175456 0.12486475 0.06792779 0.8783717 0.8935907 0.70107627 0.8956058 0.9264451 0.23559646 -0.050128564 0.76972926 0.83199424 0.8649545 0.32126343 0.72913563 0.77605474 0.80916345 0.51277226 0.19894849 0.31642237 0.5717975 0.5646156 0.5998448 0.57671666 0.49168795 0.16377474 0.26531297 0.3590442 0.53471226 0.37970304 0.10968181 -0.10021122 0.5227263 0.5193297 0.40074384 0.39089203 0.34177375 0.44605005 0.5010843 0.2791687 0.23111203 0.33804223 0.2769115 0.3646549 0.34627044 0.57184875 0.5740489 0.4937582 0.43134075 0.4063903 0.38743365 0.36627126 0.53698385 0.4888338 0.4822313 0.5415387 0.25783914 0.2693785 0.25794294 0.17475246 0.1609981 0.2607938 0.3964662 0.4589026 0.5776291 0.6853186 0.7090934 0.7718018 0.20026368 0.22689557 0.26622978 0.27892432 0.25265095 0.17736337 0.14707963 0.42842397 0.46521813 0.6380714 0.68634176 0.66081154 0.1975289 0.2313423 0.2581239 0.23030664 0.13301203 0.5211477 -0.04899685 0.1251275 0.16315518 0.081744015 0.4644208 0.006925813 0.060864724 0.14921957 -0.13734728 -0.6111038 -0.0072767064 0.18424632 0.14128204 0.21171258 0.048669476 0.06808132 0.124375015 0.19351271 0.107160084 0.8628744 0.44293234 0.24567637 0.79337895 0.86182326 0.5615903 0.3943432 0.31010914 0.7964442 0.82243025 0.5534309 0.60442865 0.6069546 0.11765677 0.622141 0.39840278 0.6274471 0.65319914 0.4556104 0.32453406 0.52169853 0.40944225 0.4127156 0.26211923 0.14278609 0.41639906 0.52263236 0.37504303 0.31912386 0.24064727 0.47416198 0.2979504 0.33227628 0.29772353 0.24695984 0.25109762 0.28517464 0.25725102 0.28105113 0.54919136 0.49903315 0.45413268 0.40740287 0.33770502 0.50529367 0.48592252 0.7611563 0.77754605 0.36353672 0.4162331 0.6481397 0.72499555 0.76828825 0.7936585 0.81215775 0.27599108 0.21395527 0.26570433 0.32070524 0.35189435 0.6446039 0.6917858 0.26819316 0.23191798 0.12282621 0.15238835 0.21001874 0.61493194 0.22678858 0.06704863 0.19024923 0.52064145 0.5503861 0.17501509 0.20035471 0.019921053 0.4614371 0.1399864 -0.16446558 0.025871657 0.049840778 0.12369058 -0.25152612 -0.13864112 0.26784262 -0.11582929 -0.0036319904 0.27649894 0.27386472 0.2748737 -0.380095 0.025584936 0.27245638 0.539437 -0.12967645 0.34833014 0.6216332 -0.25122005 0.38008052 0.6503285 -0.49319237 0.46711403 0.66140866 -0.5097772 -0.4884969 0.40763128 0.6525457 0.41395557 0.39913082 0.6582352 0.31664062 -0.03949839 0.3060454 0.19288313 0.6513604 0.6582253 0.6504226 0.5928925 0.480007 0.39588863 0.35809368 0.06436023 0.18414608 0.3289391 0.39876115 0.34373575 0.19965406 0.13158017 0.3999169 0.28346598 0.16636625 0.37730908 0.34529126 0.21613495 0.22842827 0.38269302 0.37204736 0.40088868 0.19664112 0.19357648 0.2037164 0.41971257 0.21682182 0.22623557 0.44335502 0.42336953 0.38567573 0.37093365 0.77986896 0.8140757 0.8340056 0.73062974 0.759788 0.8089967 0.858505 0.8649887 0.3105489 0.65105575 0.7876497 0.7867327 0.27952248 0.24718477 0.1710265 0.42567462 0.6619259 0.7118164 0.20389268 0.1834696 0.100922994 0.0828997 0.595091 0.5331035 0.12220831 0.12663253 0.1377154 0.17681727 0.09469546 0.24703367 0.12193088 0.06671934 0.07821437 0.42465776 0.4211607 0.4326184 0.4014509 0.2715231 0.049659863 -0.004773423 0.3561772 0.36495823 0.30939454 -0.3152272 0.019979417 0.043655105 0.31559944 0.17028195 0.1666821 0.24952908 0.35432088 -0.06500873 0.38936347 0.57700086 -0.17995107 -0.03439618 0.45331806 0.63960314 0.62091327 -0.033801455 0.07173751 0.5709902 0.6514405 0.004177384 0.15047964 0.55641675 0.66176224 0.51817274 0.49068415 0.50666416 0.67506504 0.5450829 0.48130944 0.4480493 0.6634457 0.66039854 0.6178947 0.53981304 0.35960397 0.4316188 0.6487026 0.62801063 0.58839357 0.41496426 0.48203385 0.49318647 0.47932893 0.45043725 0.35624456 0.2402622 0.043325506 -0.047674447 0.05813293 -0.04830741 