# vtk DataFile Version 2.0
Really cool data
ASCII
DATASET POLYDATA
POINTS 570 float
9.289899 -4.825581 -1.2447335
9.305147 -4.9772453 -0.61958635
9.312523 -4.257485 -1.794023
9.217964 -4.2150927 -1.4256165
9.0789385 -4.1711745 -0.5987821
9.276939 -4.195102 0.029840246
9.355086 -3.9283714 -1.7634249
9.259671 -3.773765 -1.4514474
9.13611 -3.513957 -0.5880889
9.258173 -3.5461116 -0.07083599
9.339678 -2.9790912 -0.6328702
9.376841 -3.1172912 -0.100650385
10.466569 -9.39246 -8.302309
10.347796 -9.0006485 -7.673779
10.27106 -8.091542 -7.2124567
10.224636 -8.081671 -6.3355193
10.158291 -7.9508066 -6.5849867
10.340114 -7.3114457 -5.6877728
10.396691 -7.095423 -6.6760907
10.03388 -5.576639 -1.4524548
9.639341 -5.1939154 -0.5740511
10.027194 -5.196813 0.12556179
9.742204 -4.0307074 -2.0991802
9.543604 -4.3951735 0.2091594
10.136968 -4.333301 0.8770692
9.685937 -3.6910574 0.5809406
10.118758 -3.141234 -2.3091261
9.6539345 -2.6934159 -1.304125
9.485944 -2.5694902 -0.43648395
9.735393 -2.74437 0.20266682
9.982383 -2.9155452 0.67492586
11.023762 -9.995869 -9.099012
10.717179 -10.126966 -8.319253
10.690811 -10.18758 -7.7272444
11.200326 -9.712213 -5.61005
10.873363 -9.416695 -9.164088
10.531358 -9.576125 -8.707495
10.616062 -9.178679 -6.437612
11.013932 -9.190271 -4.9395323
11.011774 -8.856771 -4.026431
11.036847 -8.700794 -9.246989
10.56724 -8.408281 -4.5904803
10.941018 -7.7013884 -8.363525
10.544258 -7.71898 -4.02045
11.117434 -6.870233 -8.002615
10.856473 -6.8529024 -7.4892964
10.66417 -6.888845 -4.614064
11.318287 -6.078161 -6.9292426
10.394428 -5.2729635 0.4381616
10.716379 -5.0892544 0.714231
10.383274 -4.4619393 0.95714015
10.714102 -3.3131208 1.0478113
11.096755 -2.6977744 -3.0008004
10.422433 -2.9992354 -2.4452138
10.937814 -1.8999331 -2.1497047
10.620177 -1.6811789 -1.3670664
11.246542 -0.7252216 -0.9509941
11.950601 -10.863552 -8.972668
11.766255 -10.947734 -8.410663
11.387565 -10.685253 -7.488301
11.963339 -10.704661 -6.4400773
11.595382 -10.282546 -9.365395
11.814404 -10.566715 -6.2901506
11.707186 -9.262918 -9.773438
11.730937 -8.814282 -3.1672697
11.994251 -8.49748 -9.779313
11.469397 -8.311036 -9.513493
11.678655 -7.952992 -9.301897
11.604484 -6.511818 -8.199495
11.675478 -6.2201724 -7.951037
11.615715 -5.469666 -4.120943
11.386247 -4.802445 1.0017794
11.180398 -4.628011 1.0322169
11.950533 -2.580326 -3.1857426
11.872495 -1.9067644 1.0667646
11.589952 -0.53019 -1.869011
11.63446 -0.25457355 0.39551324
12.115574 -0.10212763 -1.827375
11.630484 -0.25792915 -1.255179
12.2188425 0.8193438 0.9836252
12.4399805 0.98869413 -1.1067386
12.729219 -10.991748 -9.06766
12.377962 -11.095568 -8.585176
12.915962 -10.944862 -6.6086087
12.290811 -10.135846 -9.773583
12.5435295 -10.527516 -9.488965
12.561644 -9.410023 -9.929283
12.259059 -9.011746 -3.180026
12.41486 -8.515556 -9.87944
12.450347 -8.074244 -9.6659155
12.152278 -7.6040688 -9.308052
12.437755 -6.899243 -8.694556
12.520489 -5.916529 -7.940196
12.528881 -5.618868 -7.226546
12.235807 -4.9456944 0.62134206
12.633982 -4.1218815 -4.455303
12.475858 -0.21905541 -2.2147868
12.841145 -0.85989964 1.7418435
13.227475 0.28640747 -2.918627
12.682723 0.4548766 -2.4724832
12.9005785 0.99667907 2.3427157
12.530281 1.307554 -0.5089007
12.943058 1.6844903 2.539798
13.115406 1.691825 2.634896
12.667381 2.759504 0.6143021
12.603498 2.4842122 1.6171241
12.777193 2.5322342 2.0890427
13.260341 2.33119 2.6714125
13.128364 3.7367666 1.1423963
13.109606 3.9393551 -0.15678066
13.186657 4.295805 0.28687418
13.164675 -10.855432 -9.070866
13.2985115 -11.044128 -8.262216
13.066052 -10.876733 -6.320574
13.504165 -10.658214 -5.9339304
13.256182 -10.521288 -9.392903
14.073541 -10.220416 -2.034736
14.16542 -10.315938 -1.5403318
13.285194 -9.390947 -9.728514
14.238276 -9.0711155 -0.48674738
13.197278 -8.651794 -9.713124
13.26599 -8.271279 -9.539224
12.99403 -7.7580013 -9.344904
12.980189 -6.997733 -8.815688
13.173986 -6.087058 -7.857496
13.781934 -2.7154312 1.2177128
14.294919 1.5780084 -5.558473
13.764733 1.6068876 -2.777069
13.570852 1.7755941 2.9825234
14.301431 2.4774673 -3.3040874
13.683571 2.7613556 -2.3494697
13.980944 3.1991122 2.9062421
13.623552 4.6176686 -0.20818849
13.469253 4.6187067 0.49663144
13.5185175 4.4726925 1.1952171
13.798456 4.235559 1.7731553
13.896656 4.874838 -0.17128561
13.877267 4.9581957 0.7408338
14.007403 4.8512516 1.221962
14.9674225 -11.418006 -2.4063928
15.198065 -11.598266 -1.5649527
15.000777 -11.175837 -0.9627859
14.7902155 -10.5683975 -0.7333735
14.877513 -9.858446 -0.048689723
14.370357 -9.761012 -8.911657
14.878024 -8.449055 -0.031129956
14.531414 -7.809078 -8.762673
14.337861 -6.9911127 -8.091999
14.619684 -6.7548456 -7.465909
14.288619 -6.0289974 -6.3563085
14.671863 -5.5906587 -5.318298
14.273839 -4.801215 -0.13765594
14.167122 -3.4931417 -3.4526684
14.771276 -0.8130963 1.8893378
14.735355 0.30861467 -5.485421
14.478979 -0.5355141 -2.8736022
14.7207365 -0.5758119 2.1186123
15.030686 1.0159802 -6.810034
14.85631 0.7045683 -6.440091
14.467918 0.69309574 -5.804384
14.930705 1.4667557 -6.868044
14.746956 1.4668325 3.1993742
15.144924 2.130979 -6.9455385
14.588326 2.1965818 -6.3828
14.633211 2.5373356 3.263685
15.189603 3.4813786 -6.9115443
14.662308 3.2600281 -6.194317
14.718362 3.2762446 3.2478526
15.121134 4.0044465 -6.3287706
14.868259 4.2693315 -5.1916213
14.696168 4.1054235 -4.6351485
14.942945 4.351669 -3.154423
14.621849 4.236397 2.4438262
14.5863085 3.8608563 2.8615017
14.537548 5.212949 0.54502535
14.595417 5.0591993 1.3191612
14.373928 4.762967 1.7253981
15.884684 -11.946153 -1.5773066
15.753937 -11.742233 -0.92549235
14.898916 -10.617255 -7.7969694
15.618346 -11.422275 -0.6979617
15.403081 -10.038525 -7.976397
15.631885 -10.556225 -0.16186216
14.774679 -9.290737 -8.789898
15.43532 -9.43766 -8.277401
15.572913 -9.731665 0.14208618
15.1409 -8.857262 -8.657654
15.361129 -8.556413 -8.400142
15.677545 -8.706702 0.07859674
15.168673 -7.7641916 -8.180059
15.455684 -7.7189293 -0.27584314
15.129457 -4.5069985 -3.6770225
15.0697975 -4.378837 -2.7695696
15.000256 -4.2741766 -3.626507
15.042881 -4.040893 -2.7226262
14.775641 -3.4259973 0.5441191
15.138129 -2.6603966 0.012595288
14.883721 -2.631975 0.7359879
14.893777 -0.8099741 1.5031112
15.346786 0.12549523 -6.0869427
15.819743 0.7029016 -6.8612485
14.909872 0.48235166 2.8222563
15.575313 1.5522336 -7.1698437
15.557231 1.7016264 3.0525193
15.707041 2.5684092 -7.2999654
15.339742 2.5225582 3.37438
15.7117195 3.2785797 -7.2612014
15.417687 3.3000705 3.297805
15.754362 4.0498104 -6.8791475
15.564423 4.356103 -6.410128
15.405364 4.513882 -5.6938176
15.7597065 4.413665 2.165385
15.387297 3.8839388 3.0771694
15.67811 4.772279 -4.3615904
15.146854 5.333492 0.70778424
15.485448 5.1617465 1.0813365
16.785841 -11.5945215 -3.9523005
16.303072 -11.853619 -3.2432446
16.198668 -11.905236 -2.5490227
16.489817 -11.943355 -1.4270531
16.279327 -11.834798 -0.9736897
16.627548 -11.277969 -4.3094788
16.474165 -11.447769 -0.65087974
16.183414 -11.413773 -0.4199001
15.646274 -9.935981 -7.80218
15.702088 -9.925518 -7.750665
16.420639 -10.49034 -0.20115957
15.820936 -9.626943 -7.730622
16.366022 -9.726355 -0.11675456
15.891686 -8.299885 -7.063065
16.065918 -8.944997 -6.568224
16.36436 -8.903792 -0.1094524
15.629377 -7.827431 -7.67712
15.974556 -8.105464 -6.6315336
16.605173 -7.8525867 -5.2915297
16.510742 -6.534895 -4.0910497
16.166832 -6.8896194 -0.9175922
16.038628 -5.966849 -4.0930724
15.992739 -5.4283395 -3.3505573
15.807056 -6.12409 -0.89092827
15.993899 -5.3294997 -2.2057586
15.631685 -1.2841952 -0.5494467
15.548734 -1.42391 0.113344386
16.231634 0.2032103 -6.548228
16.688671 -0.21099624 -5.2451487
16.443855 0.041853517 -0.78360736
16.142597 0.6940514 -6.9530845
16.09427 1.9374905 -7.324615
16.12914 1.8175155 2.8827267
16.254372 2.4437795 3.0262194
16.548393 3.5103796 -7.338994
16.098728 3.234061 3.045989
16.636805 4.2776356 -6.9918423
16.787647 4.612807 -6.6111217
16.340809 4.4839134 1.466973
16.207525 3.8197112 2.5030289
16.782423 4.8605595 -6.27208
16.614609 5.3499823 -5.105597
17.07408 5.283896 -3.609995
16.229876 5.041515 -2.3361852
16.126999 5.091375 0.5214917
17.289263 -11.6094265 -3.8710666
17.137047 -11.742507 -3.4761515
17.254482 -11.71789 -2.4924014
16.952559 -11.739189 -1.5624619
17.265837 -11.3596 -4.0366387
17.503525 -11.545933 -2.8831568
17.290058 -11.281654 -1.3934188
17.037931 -11.20089 -0.8545424
17.100857 -10.634282 -0.6862928
16.809752 -10.49892 -0.36833954
17.363312 -9.590226 -4.813362
17.479645 -9.419126 -1.3217515
17.093187 -9.475114 -0.7403115
16.722654 -9.379889 -0.32955468
17.28976 -8.378383 -1.4541587
17.1111 -8.812805 -0.9216167
17.163916 -7.6452026 -4.3020697
17.47512 -8.017062 -3.5733488
17.334412 -7.673365 -2.5953135
16.839462 -7.3327866 -1.6612365
17.005384 -6.9104166 -3.2418914
16.900637 -7.070354 -2.050578
17.678766 0.8943852 -6.777063
17.836132 1.443032 -7.1395984
16.969986 1.3202617 1.4481293
17.436735 2.1318808 1.068749
17.16628 2.6336696 2.1650095
17.695389 4.2623887 -7.2159047
17.190002 4.4933977 -0.25175917
17.130684 4.1063414 0.6494223
16.67818 4.35619 1.3963938
17.535456 5.101672 -6.1470776
17.54142 5.441219 -5.378007
17.396519 5.5420246 -5.363552
17.795984 5.5553374 -3.9520926
18.050934 5.8982987 -2.5368147
17.773746 -11.230393 -3.321024
17.858128 -11.129657 -3.0098703
17.653727 -10.990775 -1.8857093
17.894 -10.528559 -3.8645678
17.986307 -10.521439 -3.4678528
17.982777 -10.5712185 -2.5927894
17.72117 -10.457922 -1.8220413
18.013153 -9.962916 -3.6317089
17.977419 -9.81074 -2.6448317
17.639921 -8.538567 -2.4781222
19.071468 -0.50665367 -6.7430935
17.995934 1.4995711 -0.1295117
18.236935 3.6782389 -7.531684
18.168638 4.5819373 -6.9106216
18.20559 4.2473474 -0.5297587
18.353746 5.1069946 -6.095163
18.086956 5.526857 -4.9661736
18.096058 5.6831913 -4.2770514
18.318062 5.6659913 -3.8003879
19.104445 -1.560775 -5.3732123
19.483177 -0.92142254 -6.526167
19.104563 -1.4202399 -4.359501
19.648952 -1.3126737 -3.779104
19.70964 -0.82090044 -2.8329284
19.620756 -0.53504455 -6.825425
18.924932 0.9835668 -1.0328399
19.93679 2.0823452 -0.22468846
19.276184 3.2302096 -7.481531
19.552372 3.861407 -0.36157858
19.003365 4.126847 -7.267157
19.572275 4.342219 -6.6816635
20.275291 -1.4347007 -4.420806
20.82752 -1.3792515 -3.8959517
20.420616 -0.91169405 -2.8827205
20.567583 -0.16268662 -7.0252986
20.791311 1.7237393 -7.8028736
21.14503 2.9728467 -7.974286
20.913055 5.244727 -4.881584
20.84717 5.6694465 0.36658278
20.905102 5.4799585 0.6002552
20.643555 6.2184825 -2.9959593
21.111162 6.461801 0.51625264
21.243103 7.2147493 0.1539163
21.748556 -1.3121136 -4.269254
21.672941 -0.9389701 -3.6531909
21.395084 -0.33592087 -6.895982
21.55121 0.84772444 -0.36983907
21.46444 1.1730535 -0.07591182
21.308167 1.6022189 -8.037703
21.255636 1.2751123 0.013322681
21.803598 2.7528875 -8.8086
21.91874 3.0486047 -8.913584
21.658812 3.3778973 -8.43678
21.492823 5.566667 0.9042371
21.424755 6.2768183 0.7547834
21.82107 7.6039276 0.45224813
21.632755 7.143115 0.6548455
21.99372 7.829108 -2.4081078
21.843384 8.060208 -1.5407245
22.022062 8.442028 -0.5154601
22.04311 8.106544 0.2867909
22.246893 -1.1621871 -5.870779
22.628332 -1.1110752 -5.4167266
22.02118 -1.283215 -4.74664
22.420017 -0.84127736 -3.7193112
22.540545 0.13244183 -7.197209
22.250387 -0.28840533 -3.153849
22.522692 0.97805786 -7.959554
22.185558 0.32969975 -7.329032
22.540663 1.1007949 -0.5004662
22.801664 2.1635156 -8.969858
22.786114 1.7065816 -8.487017
22.736925 1.7317692 -0.060958505
22.549355 2.5966985 -9.10929
22.321543 2.7838557 0.42302144
22.463879 3.4396226 -9.1319475
22.922176 3.7342217 -9.037058
22.609695 6.5223093 1.1830413
23.091763 7.073773 -4.6263742
22.75764 7.534467 1.1359545
22.549044 8.177721 -2.245312
22.321972 8.553193 -1.4321461
22.536644 8.411782 0.4149822
22.956472 7.884439 1.0259212
22.715378 8.789481 -1.27931
22.593145 8.813803 -0.36998963
22.707642 8.725571 0.0509367
22.78807 -0.8886821 -5.8761396
23.11176 -0.8284987 -5.174463
22.946539 -0.93255556 -4.855758
23.048151 0.35658285 -7.31281
22.988258 -0.5081377 -3.8365428
22.751593 -0.061305314 -3.0243213
23.327757 0.9484696 -7.7401247
23.35819 1.2418623 -2.6230178
22.981615 1.1640357 -0.93886364
23.30883 1.9706259 -8.745069
23.511711 1.7136699 -8.447719
23.407839 2.0733082 -0.36784342
22.928036 1.8336778 -0.107379526
23.197222 2.7231622 -9.086866
23.227182 2.6267986 -0.048416406
23.100655 3.3121266 -9.192557
23.977978 4.3831367 -8.575937
23.103704 4.2815537 0.6984653
23.24318 5.600239 1.1759362
23.83709 6.1947665 -6.6365256
23.645119 6.518003 1.3085587
23.209806 7.375251 -4.415123
23.542065 7.4218307 1.2998095
23.680717 8.272625 -3.2606826
23.345034 8.452874 0.6210264
23.367966 8.1495905 0.9528822
23.175467 8.923159 -1.2000022
23.229465 8.924152 -0.54147565
23.564667 8.702035 0.24931875
23.814089 0.11337283 -6.440567
24.1031 0.25033823 -4.724325
23.887077 1.1580014 -7.719829
24.089031 0.6007049 -7.033411
24.471563 1.9164304 -7.8701754
23.741985 2.6585512 -8.781904
23.812788 2.3336246 -0.8315198
23.847397 4.5502996 0.30921
25.27405 5.612058 -9.469313
24.444237 5.815788 -8.61655
24.163027 5.4127736 0.40149918
23.987919 5.651331 0.887269
24.916155 6.5225368 -9.050111
24.497725 6.720126 -8.1986065
24.579739 6.5117264 0.88883746
25.106 7.4776034 -8.924323
25.150064 7.704225 -8.5925865
24.208124 7.266363 1.2611663
25.081278 8.168841 -7.4754267
24.330322 8.218083 0.6567311
23.983828 7.9854884 0.9925349
24.740664 8.878552 -1.589504
24.02007 8.83476 -0.3463803
24.859465 0.95980716 -6.977064
25.625385 1.274653 -6.3871765
25.294659 1.4846604 -7.0130253
25.894857 1.7587067 -3.3429995
25.035906 2.5618622 -7.8051467
25.208784 2.4803166 -2.3349714
25.467175 3.3007557 -1.6450458
25.838686 6.430538 -9.976924
25.229374 6.922672 0.36344108
25.976206 7.457902 -9.791412
25.846464 7.657496 -9.518657
25.367136 7.7471533 -0.23788932
24.772938 7.5144606 0.7250482
26.134039 7.8402677 -9.627327
25.758577 8.127961 -9.212885
25.435434 8.675025 -8.127412
24.797993 8.476941 -0.23945306
25.89632 9.067071 -8.348895
26.013462 9.489144 -6.191665
26.102055 8.73305 -2.9046156
24.893085 8.841582 -1.3428687
24.850767 8.746509 -1.0111042
25.979504 1.3171079 -6.090665
26.224157 1.380904 -5.922359
26.45656 1.6576054 -5.5891476
26.36373 2.1363008 -2.7126734
26.358412 2.4203403 -7.0121164
26.280067 2.6891625 -2.2522838
27.166985 4.06285 -9.260807
26.869865 5.067426 -9.993499
26.769535 4.700029 -9.62212
26.530235 5.877694 -10.164787
26.499132 6.445094 -10.199515
26.367285 7.10033 -10.061484
26.9675 8.285765 -1.578238
26.461496 8.783713 -9.135759
26.399185 9.284252 -8.365429
26.459007 8.793508 -2.430443
26.421429 8.695323 -1.9996175
26.785957 9.687569 -7.3133163
26.85782 9.738188 -6.6797214
26.658674 9.81128 -5.993289
26.902473 2.0828125 -5.483021
27.012922 2.1542125 -4.218344
26.786291 1.9898608 -3.3524568
27.133816 2.303937 -4.7129664
27.303139 2.3443913 -3.7875736
27.856363 4.22552 -9.716295
27.651812 3.8771508 -9.224357
27.598425 3.7331278 -8.816617
27.577398 3.43617 -2.7099872
27.705982 4.6467752 -9.974127
27.521608 5.5053797 -10.143776
27.024178 6.4779844 -10.212952
27.314028 7.182684 -9.870331
27.266548 7.9231706 -9.6777525
27.506977 8.348687 -9.346091
27.719944 8.360817 -1.5019464
27.233269 8.79491 -9.164948
27.493122 9.213189 -8.502126
27.842625 9.48213 -7.8096857
27.811148 8.938907 -2.1933682
27.335218 9.804421 -5.601183
28.177515 4.187036 -9.679849
28.329538 4.0400558 -9.365709
28.506298 3.9002285 -8.680881
28.679998 4.079034 -8.030721
27.681065 3.5296443 -4.6914825
28.501621 4.6569843 -9.81837
28.619251 4.3285356 -9.613227
28.56647 4.6432853 -1.5683694
28.364733 5.377325 -9.897301
28.647163 5.454377 -1.284295
28.406733 6.110766 -9.802491
28.293873 6.821103 -9.527546
28.517939 7.4888763 -1.4493465
28.018776 8.180136 -9.261596
28.489681 8.39252 -1.8026509
28.092382 9.028238 -8.414353
28.2364 9.3753805 -3.9389703
28.262594 8.72819 -2.1224144
28.604158 9.704387 -6.1360803
28.753592 4.187932 -9.281031
28.821974 4.12982 -8.7269335
28.8843 3.9329844 -4.0927916
29.458517 4.0649023 -3.5410748
29.526875 4.042523 -2.97707
29.005957 4.3261814 -1.9794879
29.015224 4.5544915 -9.196223
29.11478 4.5153275 -8.495623
29.461271 4.924548 -5.3302326
29.398937 4.7774916 -1.8626797
28.836563 5.22341 -9.660595
28.956764 5.397165 -9.455831
29.235617 5.117964 -8.700911
29.45542 5.3470764 -1.5575597
29.209202 5.2987785 -1.357158
28.904058 6.075106 -9.269675
29.247774 6.735025 -1.5948896
28.84673 7.2154074 -8.870787
29.288462 7.402732 -8.219903
29.571762 7.187918 -2.1991847
29.052628 8.222468 -8.257723
29.545784 8.601064 -7.20455
29.49355 8.495737 -3.6738906
28.925837 7.9230433 -1.9763938
28.969324 8.834608 -7.6508284
29.337402 9.492478 -5.4517846
29.235737 9.310941 -4.7245326
29.506372 8.786881 -4.0188627
28.860388 9.725634 -5.7418146
28.906528 9.58015 -4.826975
29.851416 4.602846 -4.146554
30.05184 4.656361 -3.3503513
30.024946 4.879565 -2.6162326
29.70989 5.3486977 -5.865258
30.086323 5.6659517 -5.2936215
30.154861 5.284529 -4.2031493
30.28599 5.6888103 -3.3651721
30.19001 5.4327846 -2.572624
29.782736 5.799483 -1.9048221
30.060884 6.8216 -6.2388215
30.242094 6.3598022 -5.3362308
30.260948 6.296797 -3.4385397
29.951395 6.461009 -2.453719
29.928381 6.271853 -2.1999002
29.723682 7.745357 -7.4069014
30.272211 7.681704 -6.1304374
29.74983 7.191303 -2.5118847
29.725826 8.410715 -7.072273
30.024597 8.251839 -6.573851
30.132195 8.373274 -5.4128613
29.798456 8.488484 -4.575399
29.722723 8.764163 -6.903193
VERTICES 1 571
570 0 1 2 3 4 5 6 7 8 9 10 11 12 13 14 15 16 17 18 19 20 21 22 23 24 25 26 27 28 29 30 31 32 33 34 35 36 37 38 39 40 41 42 43 44 45 46 47 48 49 50 51 52 53 54 55 56 57 58 59 60 61 62 63 64 65 66 67 68 69 70 71 72 73 74 75 76 77 78 79 80 81 82 83 84 85 86 87 88 89 90 91 92 93 94 95 96 97 98 99 100 101 102 103 104 105 106 107 108 109 110 111 112 113 114 115 116 117 118 119 120 121 122 123 124 125 126 127 128 129 130 131 132 133 134 135 136 137 138 139 140 141 142 143 144 145 146 147 148 149 150 151 152 153 154 155 156 157 158 159 160 161 162 163 164 165 166 167 168 169 170 171 172 173 174 175 176 177 178 179 180 181 182 183 184 185 186 187 188 189 190 191 192 193 194 195 196 197 198 199 200 201 202 203 204 205 206 207 208 209 210 211 212 213 214 215 216 217 218 219 220 221 222 223 224 225 226 227 228 229 230 231 232 233 234 235 236 237 238 239 240 241 242 243 244 245 246 247 248 249 250 251 252 253 254 255 256 257 258 259 260 261 262 263 264 265 266 267 268 269 270 271 272 273 274 275 276 277 278 279 280 281 282 283 284 285 286 287 288 289 290 291 292 293 294 295 296 297 298 299 300 301 302 303 304 305 306 307 308 309 310 311 312 313 314 315 316 317 318 319 320 321 322 323 324 325 326 327 328 329 330 331 332 333 334 335 336 337 338 339 340 341 342 343 344 345 346 347 348 349 350 351 352 353 354 355 356 357 358 359 360 361 362 363 364 365 366 367 368 369 370 371 372 373 374 375 376 377 378 379 380 381 382 383 384 385 386 387 388 389 390 391 392 393 394 395 396 397 398 399 400 401 402 403 404 405 406 407 408 409 410 411 412 413 414 415 416 417 418 419 420 421 422 423 424 425 426 427 428 429 430 431 432 433 434 435 436 437 438 439 440 441 442 443 444 445 446 447 448 449 450 451 452 453 454 455 456 457 458 459 460 461 462 463 464 465 466 467 468 469 470 471 472 473 474 475 476 477 478 479 480 481 482 483 484 485 486 487 488 489 490 491 492 493 494 495 496 497 498 499 500 501 502 503 504 505 506 507 508 509 510 511 512 513 514 515 516 517 518 519 520 521 522 523 524 525 526 527 528 529 530 531 532 533 534 535 536 537 538 539 540 541 542 543 544 545 546 547 548 549 550 551 552 553 554 555 556 557 558 559 560 561 562 563 564 565 566 567 568 569
POINT_DATA 570
SCALARS features_00 float 1
LOOKUP_TABLE default
0.68918645 0.71783435 0.64472866 0.67159986 0.6938437 0.7058321 0.6333313 0.64673173 0.6721719 0.68295527 0.6427759 0.6683969 0.7003746 0.6173268 0.5494782 0.47156137 0.49628055 0.4461207 0.5073309 0.6519902 0.71879077 0.7089451 0.5676136 0.7133062 0.6855694 0.68627405 0.49475664 0.57547235 0.6233164 0.6412338 0.64640486 0.82493484 0.7601536 0.69073045 0.47099134 0.7940324 0.75609237 0.49733084 0.4324234 0.44496578 0.71456444 0.44180137 0.58863777 0.44424865 0.5465376 0.54297465 0.40916613 0.53261805 0.6691153 0.6419716 0.6714859 0.6178805 0.32861906 0.44412893 0.31217694 0.34918448 0.22732149 0.77468467 0.77117187 0.70092756 0.5094062 0.83217895 0.49681717 0.77083504 0.31202298 0.6421361 0.6331948 0.5763863 0.5444092 0.54315007 0.27011904 0.5888411 0.60567117 0.23474002 0.46927705 0.18623199 0.30574927 0.18019655 0.19572537 0.39165294 0.1903217 0.7366941 0.7228054 0.5268409 0.81430686 0.7772809 0.75762755 0.20996118 0.63083506 0.5866827 0.547378 0.5248589 0.53321123 0.534691 0.43776995 0.34186882 0.16568148 0.45266834 0.29191732 0.20117411 0.4680814 0.2743045 0.47873753 0.49288306 0.4560705 0.47758663 0.5029137 0.5291194 0.50318885 0.43897876 0.47860193 0.72030026 0.68278885 0.4989383 0.4102025 0.743878 0.5513661 0.63722104 0.7313765 0.7119715 0.62524086 0.5790491 0.538147 0.50655925 0.49762636 0.23548636 0.577603 0.10880723 0.5370573 0.07061248 0.033695057 0.6194914 0.4655919 0.4970472 0.5123839 0.56049055 0.47631067 0.51859826 0.5390748 0.6923164 0.7293905 0.7330722 0.7354506 0.74591523 0.57601786 0.6934297 0.56955695 0.5017641 0.44003433 0.31784502 0.13756666 0.24766853 0.19247577 0.3505054 0.5694319 0.3587715 0.39529395 0.5521816 0.56624854 0.5925802 0.5472586 0.5967681 0.54318184 0.5617635 0.6348052 0.54511416 0.54789776 0.65964437 0.5288067 0.46291736 0.3831151 0.30525085 0.6540936 0.66531754 0.53592217 0.5695387 0.5816225 0.78892833 0.78413486 0.4677975 0.7776512 0.4713486 0.7615595 0.51902914 0.4916621 0.70631206 0.51817757 0.51732147 0.650641 0.5377789 0.57640404 0.14215821 0.15288499 0.13699561 0.1414902 0.29022974 0.1922439 0.24824911 0.2762783 0.55057955 0.5302619 0.5385406 0.53118217 0.5762834 0.539688 0.6326729 0.53845835 0.6717492 0.5191772 0.5101366 0.49169832 0.64275265 0.686429 0.3913548 0.5726428 0.58972746 0.6481644 0.6727211 0.7601751 0.8063702 0.803969 0.6143134 0.79543054 0.79059196 0.47823885 0.47668135 0.7335868 0.48606956 0.6677421 0.46136636 0.40762594 0.6013091 0.50626266 0.3962387 0.19406779 0.2946001 0.43460804 0.25146753 0.23505059 0.41850662 0.3165086 0.11885849 0.17129503 0.52028096 0.49008822 0.12629652 0.5133495 0.51072997 0.58007026 0.6280327 0.48821872 0.66590244 0.46111056 0.4403603 0.5240183 0.6597118 0.4278407 0.38010776 0.26551938 0.28883868 0.4774329 0.6653577 0.6741439 0.7288177 0.7981998 0.6491313 0.694754 0.7747108 0.7752197 0.7280717 0.72263014 0.52170485 0.5926012 0.6122915 0.6227034 0.45117044 0.5231555 0.28777722 0.3842492 0.3897096 0.40643293 0.35763115 0.39773026 0.35723144 0.36678842 0.34592777 0.33637616 0.630867 0.4080804 0.14440246 0.31083363 0.4800269 0.3830996 0.34055358 0.33901787 0.25591785 0.12692851 0.668418 0.6726586 0.72462094 0.62973917 0.63930124 0.6572257 0.69057417 0.60957634 0.6188179 0.46713126 0.23950855 -0.03695169 0.38769576 0.39697754 -0.14329311 0.35198846 0.29637647 0.26508206 0.20586756 0.5220092 0.3202684 0.3724175 0.3299271 0.29375756 0.24991171 -0.1119768 0.25159332 0.29444262 -0.022157162 0.39497614 0.37359336 0.34342977 0.3389155 0.3009736 0.30632576 0.3798647 0.4054123 0.05900064 0.33451027 0.33187568 0.07733561 0.43669122 0.48624068 0.37739167 0.3586231 0.3464108 0.3627122 0.38310957 0.4521049 0.37026173 0.53734374 0.5439894 0.47482538 0.40714082 0.4699021 0.59903526 0.55211717 0.33039182 0.4776505 0.61386406 0.62836003 0.40202826 0.38701323 0.38368726 0.36285013 0.32701617 0.31641704 0.3507113 0.3211242 0.36931908 0.50606585 0.43153638 0.34191543 0.54707015 0.28169888 0.5511923 0.5330268 0.6263628 0.105618894 0.63499564 0.41201198 0.5354881 0.6396116 0.6464977 0.5619441 0.6266078 0.636649 0.38612896 0.38046724 0.3808549 0.30824795 0.33673048 0.29228267 0.31586483 0.18610425 0.32830065 0.43801284 0.38205135 0.28028667 0.32989377 0.53179944 0.2559301 0.55868095 0.41860282 0.26048267 0.55484533 0.18858545 0.65285355 0.27266338 0.6702166 0.39780945 0.64488137 0.6550213 0.5713166 0.60752445 0.6275711 0.3256396 0.32471585 0.31482244 0.29262298 0.34317738 0.47444594 0.2053947 0.2770506 0.47902745 0.35670793 0.4376183 0.5191125 0.460675 0.38738102 0.59843004 0.47924638 0.4757633 0.6589863 0.44195914 0.6455734 0.6615989 0.32934192 0.5830481 0.29485738 0.30713975 0.30568582 0.34927058 0.3433602 0.1951322 0.11344096 0.5376884 0.6003237 0.5497971 0.5416149 0.51640314 0.64727795 0.56037575 0.54214907 0.53640604 0.54955757 0.58694726 0.43578345 0.17178808 0.3543875 0.4234004 0.31272185 0.31209087 0.30622408 0.3303514 0.26636034 0.27682716 0.6549758 0.6810573 0.66103446 0.61550057 0.58837295 0.56746936 0.30004972 0.5881133 0.6146994 0.22836274 0.22171298 0.56909657 0.50149673 0.4528644 0.28034484 0.3190568 0.35136724 0.30800807 0.3161065 0.71149844 0.6743424 0.62989426 0.356067 0.7147511 0.7109664 0.6165986 0.58225626 0.5736837 0.5819052 0.39394915 0.5944568 0.60827255 0.59172475 0.3751412 0.46740678 0.71711826 0.7110237 0.6700798 0.6126995 0.23627692 0.72973835 0.72310674 0.558815 0.72957224 0.5571859 0.66773 0.58475894 0.43479082 0.566538 0.42940298 0.57811254 0.4035144 0.41763324 0.55183333 0.71798205 0.6946205 0.34399825 0.5076728 0.5999434 0.5969533 0.7209797 0.67858756 0.33998892 0.6319761 0.73412204 0.72121096 0.6814841 0.6151297 0.6056894 0.6351069 0.50050664 0.5010713 0.43222868 0.47651756 0.45668483 0.44796014 0.4408481 0.44416294 0.47377607 0.5202249 0.4670635 0.44488984 0.5336263 0.45490456 0.47925055 0.60623336 0.65407467 0.32263273 0.392959 0.5039676 0.6003634 0.6283434 0.59896576 0.42874599 0.4053028 0.5576558 0.5539901 0.57089245 0.39821082 0.5179582 0.47021097 0.44745257 0.48536593 0.5460042 0.47418326 0.47324067
SCALARS features_01 float 1
LOOKUP_TABLE default