# vtk DataFile Version 2.0
Really cool data
ASCII
DATASET POLYDATA
POINTS 5432 float
-8.534811 -5.205166 13.543763
-8.523685 -5.5977387 14.075837
-8.574491 -5.060006 14.038398
-7.6794734 -7.1479535 12.6683
-7.6726885 -7.361599 13.479042
-7.788305 -6.9453006 14.208176
-7.6413283 -6.0579524 12.178963
-8.0053005 -6.3187943 12.7052
-8.202717 -6.2930865 13.392666
-8.254826 -6.1675787 14.143894
-8.123978 -5.9870048 15.365828
-7.7779026 -5.893839 16.240267
-7.771773 -5.7900267 12.242458
-8.30013 -5.4886866 12.953055
-8.430253 -5.54456 13.433157
-8.437906 -5.558982 14.572629
-8.308136 -5.3764143 15.482027
-7.8834496 -5.327932 16.294922
-8.09701 -4.778419 12.877479
-8.384228 -4.815753 13.478437
-8.319864 -4.5901017 14.591247
-8.264016 -4.6048727 15.4661875
-8.016548 -4.6891565 16.11129
-8.069985 -4.1784887 13.507233
-7.7469516 -3.8621476 14.928969
-7.944273 -4.051596 15.36655
-7.7395716 12.962636 19.82139
-7.809565 12.9949465 20.47482
-7.733567 13.682415 19.101091
-7.948115 13.696888 19.732395
-8.066752 13.642494 20.575808
-7.9272137 13.60744 21.201628
-7.7199087 14.578664 19.02861
-7.98128 14.513548 19.673286
-8.0661125 14.465366 20.448872
-7.8480883 14.312232 21.306587
-7.8867126 14.979196 19.785517
-7.742132 15.232661 20.40672
-7.790204 14.877262 21.084135
-6.9314475 -8.062106 12.575132
-7.163363 -8.135801 13.548702
-6.95131 -8.3217535 14.364863
-6.917302 -7.880137 15.204387
-7.3633885 -7.2570786 12.052165
-7.5364957 -7.3577833 12.663767
-7.510639 -7.6356134 13.507295
-7.2752123 -7.1257863 15.172781
-6.875362 -7.1840057 16.16081
-6.6769056 -6.010743 2.7392774
-6.738036 -5.9654455 3.3538144
-7.5053086 -6.7004747 12.064217
-7.3880863 -6.227476 16.350908
-6.776139 -5.5017467 2.7612166
-6.862548 -5.4768944 3.3412821
-6.7527857 -5.5462704 4.3822637
-6.641826 -5.133199 5.3563333
-6.5528865 -5.273274 6.009566
-7.3640494 -5.5893693 11.928998
-7.5165935 -5.442293 16.576973
-7.157656 -5.458012 16.852804
-6.714356 -4.739063 2.9129467
-6.924368 -4.9645944 3.8720756
-6.9068394 -4.7365828 4.616824
-6.8792744 -4.2874894 5.3728323
-7.6624503 -4.9114404 16.530052
-6.949874 -4.4246306 16.945549
-6.68611 -3.9032743 3.859802
-6.873559 -3.6926837 4.8617387
-7.04699 -3.3206086 5.3231425
-6.772231 -3.0044024 6.6042147
-7.56012 -3.866556 13.583782
-7.427122 -3.647692 14.130254
-7.135196 -3.6910362 16.333406
-6.7514305 -3.5472035 17.00211
-6.622323 -2.5505803 3.8060794
-6.8806386 -2.550131 4.499976
-7.2530107 -2.3836386 5.4038973
-7.100242 -2.4697008 6.294317
-6.866103 -2.2009218 7.151661
-6.7343388 -3.1452599 15.9770355
-7.218623 -1.7237327 4.994091
-7.399017 -1.7444121 5.5753927
-7.385733 -1.4229203 6.3246307
-7.2109013 -1.3075571 7.2377577
-7.330218 -0.8353441 5.6648755
-7.3736873 -0.6567707 6.4263716
-7.317713 -0.46586454 7.2612457
-7.004167 -0.31612065 8.007466
-6.837022 1.0472426 3.559463
-6.8132033 0.5430716 4.7634835
-7.1845636 0.12278977 6.794562
-7.120942 0.26752156 7.422657
-6.832793 0.19290268 8.0999365
-6.55504 1.1070509 11.745682
-6.5149 1.872553 -0.2509135
-6.5704346 1.7563801 1.3012748
-6.697033 1.572353 2.6651149
-7.057315 1.7388365 3.7848177
-6.777382 1.4409794 4.741537
-6.750239 0.93868613 6.46765
-6.5628443 1.5638044 11.7672825
-6.557924 1.582921 12.399986
-6.542716 2.1436331 -0.115587264
-6.510008 2.4119198 0.25663307
-6.5676284 2.3942728 1.7984858
-6.7238445 2.3628736 2.6746352
-6.9751453 2.383282 3.6612065
-6.962842 2.6405046 4.389566
-6.7550025 2.775462 5.1223073
-6.5902333 1.9589657 12.105181
-6.582254 3.1514962 2.7616782
-6.9479456 3.3460305 3.7453873
-6.9668117 3.4212568 4.4501314
-6.7161174 3.4895575 5.2754245
-6.765556 4.0605216 3.8740256
-6.6705966 4.2894464 4.592035
-6.5930176 4.1812096 5.407844
-6.719227 7.944181 8.614983
-6.772236 7.7429843 9.405354
-6.59816 7.4127316 9.912556
-6.751323 8.700151 7.863376
-6.847825 8.615543 8.456651
-6.785047 8.477084 9.4960575
-6.6553817 8.140806 10.027358
-6.741987 9.387552 7.8947167
-6.825801 9.492238 8.508891
-6.7249293 9.425946 9.159754
-6.590649 8.960413 10.136874
-6.690809 9.996331 8.472823
-6.8174877 12.143866 18.649231
-6.95393 11.940073 19.52863
-6.783465 11.775017 20.108093
-7.1096115 12.635621 18.73348
-7.4154444 12.608956 19.47384
-7.518746 12.649271 20.83385
-7.4321203 12.854236 21.295599
-7.072521 13.045826 21.805613
-6.859769 13.702955 17.641487
-7.2996097 13.353252 18.783283
-7.576873 13.280055 21.601198
-7.36824 13.511846 21.889261
-6.8393273 14.340498 17.551914
-7.4833217 14.691221 21.621502
-7.2893953 14.313797 21.901478
-6.8496733 15.025753 18.091032
-7.524254 15.170358 19.176676
-7.4487267 15.456698 19.653303
-7.463331 15.4558525 20.57845
-7.2178717 15.334355 21.226881
-6.9211273 15.134199 21.741674
-7.1931744 15.656813 19.699102
-7.2382073 15.625301 20.604834
-6.9955196 15.631262 21.06369
-5.810514 -9.8820915 12.856914
-5.8087606 -10.404068 13.8983755
-6.067312 -9.857738 14.440745
-5.6503253 -9.70876 15.849442
-6.150403 -9.551524 13.506504
-6.3100424 -9.373157 14.392131
-6.3365083 -8.971272 15.571382
-6.0120683 -9.239516 16.668894
-5.915262 -9.057147 17.14101
-6.065748 -7.9024057 11.3644495
-6.1840277 -8.334264 11.895508
-6.4875445 -8.6719475 14.952719
-6.331246 -8.6425085 16.41635
-6.0350647 -8.5309305 17.263687
-5.8629193 -7.0293856 2.5587258
-6.196075 -6.762355 3.3322115
-5.7420526 -6.96745 3.9663868
-6.1129136 -7.1120253 11.206437
-6.226492 -7.704738 11.56275
-6.381358 -7.626004 17.031553
-5.722586 -7.083191 18.6011
-6.1388245 -6.1101346 1.9980558
-6.416684 -6.314864 2.5320492
-6.5623956 -6.308045 3.4603655
-6.333957 -6.2134485 4.4463696
-6.2209187 -6.0566177 5.1325903
-5.76511 -6.514167 6.164334
-6.0105886 -6.1058655 7.4879546
-5.679455 -6.4617186 7.8565965
-6.4958596 -6.7415695 11.258457
-6.425475 -5.9220195 17.183516
-5.8324637 -6.699244 18.42623
-6.3092394 -5.5247483 2.1140425
-6.513818 -5.2872796 2.3641663
-6.2781267 -5.6579795 6.8410907
-6.2561927 -5.597814 7.2938986
-5.8974347 -5.74305 8.056284
-6.22039 -5.520598 11.42731
-5.6287465 -5.53859 18.537167
-6.286825 -4.9019017 2.154583
-6.4051237 -4.4675164 2.4453382
-6.1506557 -4.331539 7.654258
-5.6368628 -4.372888 9.735019
-5.912389 -4.348163 18.133736
-6.1045494 -3.3822074 2.7217207
-5.853828 -3.5086203 8.604637
-5.995228 -2.990213 9.698474
-5.840625 -3.4662397 10.041121
-5.9093823 -3.5171707 11.227172
-6.2592254 -3.9062488 17.596716
-5.864431 -3.5587935 18.076294
-6.4118648 -2.7605035 3.1866663
-5.95131 -2.5901077 9.234923
-5.995899 -2.6226645 10.348896
-5.892881 -2.852886 14.84847
-6.10111 -2.4528801 16.420692
-6.148441 -2.7782056 17.35494
-5.8422976 -2.8144696 17.82003
-6.042677 -2.0644407 3.087357
-5.618913 -1.5997806 10.870648
-5.7229586 -1.3155763 14.73405
-5.8763223 -1.5938897 15.615246
-5.819613 -1.4778315 16.200026
-5.862884 -1.6679971 17.082064
-5.7521944 -0.024205208 2.6630588
-5.948827 -0.5422816 9.321228
-5.696049 -0.15615426 10.978382
-5.79897 -0.0036417544 11.592899
-5.8038607 -0.67989016 12.875017
-6.2243266 -0.33321542 13.909277
-6.163711 -0.388048 14.116338
-5.900911 -0.36942333 15.329247
-5.6863236 -0.52744186 16.232748
-5.5581512 -0.7336924 17.001322
-5.7887306 0.8629125 -1.2772921
-5.93119 0.88259625 -0.60416824
-5.83149 0.6318839 0.024418667
-6.0517907 0.7298131 1.6932912
-6.332869 1.1068499 2.3197982
-6.2990975 0.4009348 8.502359
-5.9903693 0.73446465 10.69924
-6.3556333 0.70525426 11.973807
-6.3675385 0.5786921 12.582645
-6.43917 0.42850408 13.657672
-6.313897 0.5766591 14.210528
-5.981065 0.42855442 15.105934
-5.631583 0.25483903 16.130741
-5.755058 1.6902498 -2.0289166
-6.0955877 1.6328315 -1.38867
-6.2810993 1.425309 -0.3874609
-6.4337425 1.665092 0.22617333
-6.3773866 1.5704635 1.5752537
-6.4686937 1.4607072 5.463832
-6.521052 0.97483647 7.281313
-6.400216 0.89720476 8.100275
-5.983552 0.9658035 8.835867
-6.3127594 1.6146955 11.058036
-6.3832717 1.5551144 13.3468685
-6.179028 1.3383121 14.281625
-5.8306723 1.1928024 15.150908
-5.7286363 2.503693 -2.148756
-6.223403 2.435822 -1.2774673
-6.4601116 2.4232318 -0.6369357
-6.429209 2.4516625 0.7150197
-6.3145046 2.501976 6.2078295
-5.9604115 2.7137547 7.2802143
-5.7237453 2.8275542 7.876076
-6.06232 2.2812133 10.896132
-6.249356 2.5177357 11.690416
-6.2730923 2.3159933 12.585576
-6.1421423 2.2273073 13.410577
-5.9313965 2.0938 14.2036
-5.7929506 2.932938 -1.8984259
-5.934178 3.175053 -1.3999625
-6.002496 3.4273994 -0.3755137
-6.1842985 2.9934206 0.6910621
-6.3566837 2.9137514 1.2907302
-6.0723276 3.4814575 2.3651812
-6.0296507 3.6448438 6.9551897
-5.701076 3.3024192 7.9267015
-5.9186735 2.9990635 11.619888
-6.102828 2.7373958 12.22967
-5.768609 3.763551 -0.67529047
-5.758274 3.6628234 0.39499933
-5.8930674 3.655171 1.4830171
-5.803336 4.358542 3.096231
-6.5229254 4.1548185 3.428618
-6.5781236 4.383932 4.2091537
-6.342611 4.779366 5.4330187
-6.4161034 4.152497 6.1613474
-6.0581355 4.7745304 3.843036
-5.997774 5.1247554 4.3572145
-6.203045 5.0604167 5.5534368
-6.209036 5.1716146 6.2103467
-5.903497 5.160876 7.3537564
-5.5698266 5.0974474 8.649286
-5.655457 5.881249 9.746111
-5.7189736 5.7624297 5.1896024
-5.7329326 6.458933 6.739898
-5.90702 6.164916 7.156101
-5.8126125 6.2563305 8.7726965
-6.423829 6.9135256 9.683514
-6.2082067 6.7595024 9.96394
-5.7747555 7.1635957 10.930542
-5.882984 7.41657 7.1768723
-6.391325 7.7842455 7.4712343
-6.5090837 7.3866286 10.089976
-5.9833126 7.575402 10.897519
-6.0290504 8.344154 6.7477555
-6.477761 8.450611 7.33874
-6.460026 8.320417 10.458002
-6.1431437 8.452924 10.940496
-6.1086173 9.491313 7.0375066
-6.5657053 9.304711 7.5046425
-6.459262 9.682492 9.653418
-6.2061152 9.388266 10.429811
-5.85712 9.464974 10.884946
-5.8779144 9.892206 7.1029844
-6.3273077 10.080091 7.6638923
-6.3357735 10.393142 8.509755
-6.4632 9.989848 9.128903
-6.034316 9.944219 10.093122
-6.025194 11.202242 20.38042
-6.0791717 10.643297 8.398187
-5.859022 11.82879 18.109795
-6.2916145 11.605893 18.912275
-6.4532857 11.575931 19.834442
-6.1966677 12.698436 17.581453
-6.6420956 12.305393 18.343248
-6.128622 12.684913 21.87727
-6.3680196 13.537538 17.072271
-6.5760155 13.365359 17.419058
-6.570212 13.660013 22.271997
[...]
POINT_DATA 5432
SCALARS features_00 float 1
LOOKUP_TABLE default
0.5233728 0.51711607 0.53838176 0.44828194 0.4029914 0.4059655 0.47001067 0.4751296 0.4772527 0.4823241 0.4899885 0.4059978 0.47529325 0.49884254 0.50926393 0.5308381 0.53956705 0.44129658 0.5035647 0.52800745 0.55867636 0.55306375 0.4773314 0.5208734 0.48838523 0.5109566 0.6268096 0.70450675 0.63379604 0.73993003 0.81079435 0.81537354 0.6755806 0.7696228 0.8248548 0.8265723 0.74725044 0.75010157 0.78059506 0.37787896 0.30120602 0.21955061 0.21692713 0.44370466 0.43736956 0.37048388 0.3082288 0.24664721 0.5108407 0.48535374 0.45705754 0.3444618 0.4975114 0.4777819 0.38066512 0.25175053 0.22878945 0.45721203 0.3794253 0.32041723 0.4444128 0.40725195 0.30957848 0.21934676 0.4093702 0.31800807 0.32430756 0.25757656 0.24210732 0.20458706 0.47109437 0.44487518 0.34779358 0.24844119 0.2505099 0.25899994 0.2767289 0.28191966 0.259801 0.23618361 0.25426492 0.29146996 0.3261801 0.3328941 0.2576663 0.29776764 0.30247283 0.2465518 0.24760158 0.14332925 0.25390315 0.23226146 0.19156569 0.35555822 0.42640048 0.28336406 0.26824194 0.26324606 0.19775915 0.14249323 0.37830138 0.41437238 0.41907465 0.38701656 0.27074733 0.28403872 0.3005645 0.30291182 0.26286066 0.4059763 0.30201113 0.3470462 0.34077635 0.28978634 0.33436662 0.31592545 0.283865 0.4825505 0.46151525 0.41520536 0.5356988 0.5482725 0.5123613 0.47275937 0.5795244 0.5840319 0.5400553 0.47725284 0.5818963 0.3989429 0.41838303 0.40799785 0.45066288 0.52279353 0.663419 0.7071739 0.7082882 0.4708976 0.52642566 0.77361304 0.773888 0.5125103 0.7690416 0.78001595 0.5737859 0.6655964 0.6887759 0.72412413 0.7092596 0.6842803 0.6668545 0.69871277 0.6781999 0.24974918 0.2671137 0.21364594 0.22203363 0.23376264 0.19494486 0.19745226 0.27094686 0.3057709 0.28290462 0.27796835 0.18314782 0.24648829 0.30711576 0.48090056 0.44745162 0.34203097 0.3542493 0.33608788 0.24491501 0.35169762 0.49667364 0.5140546 0.47014606 0.36773747 0.29498687 0.25218895 0.29913062 0.28204742 0.4063751 0.23602954 0.32092798 0.48090827 0.47950274 0.27777463 0.28207695 0.28822413 0.37958795 0.25742856 0.43618524 0.40885288 0.114169896 0.022989005 0.20058304 0.27287123 0.004323464 0.046742428 0.07131074 0.06699465 0.21081749 0.1932596 0.2497722 0.03966695 0.041690666 -0.017126992 0.14576973 0.17342189 0.18168336 0.17367163 -0.093771175 0.10315482 0.11710488 0.1558517 0.16598974 0.14488518 -0.043620862 0.11505381 0.21732304 0.2456567 0.27573365 0.25992668 0.20946321 0.18434072 0.17142674 0.4903018 0.46799043 0.3810449 0.21993838 0.24772985 0.09335998 0.22144586 0.333151 0.3579977 0.3724288 0.3530218 0.2662437 0.19703124 0.51861304 0.5194117 0.43885738 0.3674621 0.26487553 0.1254169 0.13120854 0.08150151 -0.0997726 0.32752037 0.4254051 0.36578828 0.2784632 0.5342245 0.5376285 0.48430896 0.34525818 0.10718083 0.0010630749 -0.059613645 0.3101315 0.3773881 0.4186818 0.41612458 0.3577541 0.5463928 0.546543 0.45615855 0.3384882 0.28601566 0.26042157 0.09466535 -0.03560438 0.37332004 0.4027905 0.46343082 0.33088654 0.21362847 0.27481017 0.3192057 0.31166333 0.2494068 0.207174 0.25878274 0.21735966 0.21317795 0.15834358 0.0640052 0.011955082 0.17898454 0.094856404 0.040610142 0.07846483 0.2197047 0.35129333 0.32218522 0.3037675 0.2549064 0.38514194 0.4061892 0.37390643 0.36988544 0.47231334 0.4552365 0.4143046 0.495952 0.5507151 0.486826 0.4299871 0.34271553 0.4887058 0.5593392 0.5581776 0.5229033 0.43030214 0.24819934 0.537132 0.2994576 0.32097363 0.33775842 0.35914826 0.39039904 0.5406171 0.39311415 0.41307253 0.7236608 0.4330641 0.49068475 0.67799896 0.50632334 0.5579837 0.6382516 0.6294941 0.54842544 0.6118183 0.5923047 0.6030061 0.3357469 0.3504548 0.22258103 0.28261912 0.32753623 0.3082275 0.23442662 0.18790266 0.26144046 0.23299626 0.21026906 0.25778538 0.315978 0.12823741 0.3295615 0.34827182 0.39843884 0.38338178 0.30407465 0.3653152 0.36824778 0.40479177 0.4308373 0.44220945 0.40085635 0.29632807 0.20500894 0.2186079 0.17907739 0.20561749 0.3690454 0.3943326 0.4380339 0.24311993 0.34830105 0.40898967 0.4178558 0.29219234 0.29629308 0.21586767 0.2024451 0.20445958 0.087888405 0.015912771 -0.16461131 -0.4030968 0.1850102 0.17983711 0.22469828 0.13971126 -0.026682049 0.17119099 0.15820584 0.37267148 0.41701084 0.40125427 0.14368735 0.17009687 0.16627066 0.42346573 0.44373828 0.45875683 -0.0036528334 0.18625413 0.17497478 0.1630378 0.4559961 0.49207267 0.10602385 0.22638333 0.1849963 0.16341297 0.4931056 0.507162 0.30025482 0.22685665 0.17457192 0.5148865 0.5407875 -0.08896612 -0.21075282 0.2343598 0.30476087 0.25884238 0.26354748 0.22959638 0.5113448 0.5214312 0.49667478 0.33026987 0.32146046 0.2519869 0.27901167 0.44242164 0.14447357 0.1751804 0.09604691 0.0033469945 -0.040807884 -0.05284835 -0.008242603 -0.060765877 -0.08787432 -0.029068101 0.29802346 0.43652457 0.020408377 0.15504122 0.18245578 0.2940933 0.36800078 0.41815203 0.4236037 0.34821302 0.28228453 0.043154605 0.1152198 0.17637673 0.18454885 0.30407506 0.43327636 0.53958666 0.3523401 0.4107188 0.48121476 0.29716277 0.13003746 0.1397507 0.21640103 0.24141419 0.23620087 0.41074875 0.592708 0.6322343 0.34504637 0.21983108 0.22953382 0.26086295 0.29076236 0.62285686 0.65119237 0.3575369 0.3588014 0.2655862 0.32063043 0.34487268 0.31628948 0.32448572 0.5024667 0.5008003 0.5437664 0.38698247 0.44299552 0.41804975 0.41991913 0.5173926 0.3444419 0.4335135 0.4655696 0.48230326 0.24863291 0.30495763 0.40123928 0.42581603 0.4330131 0.26251018 0.2595303 0.2507026 0.20844011 0.27212888 0.19867344 0.17173143 0.1630825 0.2851822 0.26558656 0.2501347 0.21337576 0.12718984 0.12222996 0.34693718 0.3489112 0.36331856 0.3444069 0.3147343 0.24519175 -0.010233365 0.023061039 0.3445716 0.34647784 0.14055756 0.08088754 0.13560353 0.03820944 0.35524905 0.34184816 0.28420573 0.34835112 0.32745194 0.29342356 0.24984753 0.26229367 0.14381447 0.14953871 0.11373231 -0.19764881 0.10823225 0.14333855 -0.055306308 0.15113269 0.10236263 0.34835178 0.3139568 0.15819848 0.11299567 0.36644047 0.3631416 0.12227473 0.38561141 0.13694079 0.11254237 0.08924637 0.39989108 0.14020072 0.14388533 0.051965274 0.41993973 0.46443033 0.18110469 0.17746559 0.119062126 0.09647503 0.48150098 0.50060415 0.21318282 0.08173235 0.03728828 0.11965331 0.4803566 0.4212611 0.30985537 -0.19388378 0.16777727 -0.15264548 0.121741176 0.0544898 0.026835732 0.15457188 0.16725782 0.114311635 0.14687985 0.0775695 0.0171476 0.12431466 0.14866471 0.12435967 0.124518566 0.15972544 0.1705345 0.23420337 0.33216822 0.13457622 0.06763447 0.06843439 0.10268498 0.1156117 0.14691772 0.18009475 0.28032172 0.3773788 0.49843737 0.18362907 0.30761153 0.07399973 0.06361389 0.10626069 0.5830247 0.64762217 0.12548535 0.11718817 0.6639062 0.0055859685 0.17671773 0.31490606 0.66085744 0.68136925 0.21291786 0.5684859 0.3053962 0.333238 0.33182096 0.30178463 0.18442637 0.084153 0.36329377 0.30903783 0.30862653 0.26917425 0.25370172 0.15532503 0.12200499 0.21316385 0.35458314 0.3440926 0.3365289 0.32079792 0.40620792 0.37903357 0.47451344 0.4850065 0.48505127 0.52007586 0.5309513 0.32303125 0.45742723 0.4958495 0.52301 0.51984364 0.35344368 0.39930472 0.44125012 0.30444932 0.28543282 0.2288686 0.48978156 0.47484183 0.3721022 0.3142328 0.31677327 0.36318964 0.3809733 0.28532314 0.29104733 0.23609722 0.37692958 0.43162155 0.27847216 0.23404825 0.1846702 0.19524868 0.28905785 0.25457203 0.26200077 0.22709626 0.3071441 0.23169215 0.17455871 0.03243077 -0.044790834 0.1546108 0.30009142 0.32038364 0.21205974 0.2606179 -0.25206956 0.32680216 0.15507877 0.32632273 0.30598012 0.1622699 0.24164926 0.16669033 0.19081181 0.18410659 0.21070859 0.17140768 0.027457137 -0.17290452 0.063573696 0.04748232 0.09992312 0.022030935 0.0340475 0.12574154 0.019997599 0.17401507 0.03482304 0.22323596 0.22805467 0.07827009 0.11689904 0.32515007 0.31138605 0.08185551 0.17965402 0.25467017 0.34870148 0.11520016 0.24671134 0.27100223 0.3408448 0.022426784 0.00032740086 0.108032785 0.2385292 0.2857942 0.37500855 -0.30062926 -0.17749472 0.016521104 0.025974661 -0.015000738 0.15232572 0.34173536 0.28816032 0.13243298 0.17354926 0.06811383 -0.19322726 0.04594001 0.039933562 0.13185212 0.10467032 0.16483237 0.12149567 0.1278594 -0.05120703 0.018262237 0.013147578 0.18644741 0.17533587 0.17665944 0.14652394 0.0985122 -0.03400995 -0.119727954 -0.10407192 0.09795578 0.27867615 0.24067172 0.22108185 0.059038248 0.013437949 -0.1317809 0.03315478 0.09718765 0.13852416 0.17284694 0.26897493 0.3039738 0.32465607 0.32216358 0.23122305 0.1332245 -0.046649374 -0.036033437 0.49605852 0.69447297 0.32079273 0.32231748 0.27103567 0.10063652 0.03230523 -0.004742462 -0.20878747 -0.12719569 0.7141768 0.25366005 0.18829058 0.11132317 0.09650751 -0.008785636 -0.033160206 -0.037460886 0.72172546 0.1063325 -0.052669194 0.71387386 -0.16156587 -0.052868024 0.07300873 0.52702963 0.6638738 0.22676846 0.27874902 0.2957273 0.2195782 0.24797504 0.21277985 0.28729272 0.23419932 0.2668529 0.09698374 0.06044836 0.26445556 0.3232669 0.3540379 0.4848039 0.55022794 0.55252075 0.37677515 0.524523 0.55404854 0.55702007 0.44787893 0.471279 0.5259467 0.5309703 0.27345246 0.26181406 0.23800312 0.32293624 0.54534566 0.52616584 0.3957265 0.38916606 0.4092072 0.4518606 0.5123585 0.5017327 0.27099776 0.2842501 0.47253945 0.5730542 0.5333748 0.37856928 0.36249918 0.44237024 0.44034195 0.53620774 0.49330482 0.35234258 0.45197573 0.38605827 0.28041804 0.25118482 -0.1002026 -0.38784164 0.22794579 0.0836889 0.118453495 0.23245507 -0.011431843 0.056447297 0.18215612 0.063167006 0.16474637 0.18744722 0.014377391 0.09708234 -0.027581502 -0.03503083 0.04784699 0.045404747 0.07129889 0.088852495 0.14947227 0.15254772 0.2665025 0.21739413 0.20862126 0.2511677 0.18032897 -0.18968678 0.3016399 0.27995908 0.18861476 -0.14268202 -0.06710069 0.020468347 0.10768108 0.24881893 0.10126546 -0.118837796 0.026391275 0.012159683 -0.009675361 0.26527867 0.12633997 0.022393778 0.029210843 0.023223832 -0.017811067 0.12626222 0.2582298 0.12674502 -0.10512719 -0.10355188 0.2482289 0.28713167 0.2774031 0.2806928 0.6576063 0.2661108 0.27973285 0.67414665 0.2696729 0.31273836 0.6605717 0.29858673 0.2616195 0.18660736 0.014083859 -0.029931804 0.6505928 0.17525688 0.2075884 0.066692725 -0.17207763 0.41514325 0.5189316 0.4143985 0.5269189 0.49509603 0.26956734 0.12328251 0.12102234 0.1784749 0.24023151 0.34511197 0.53356606 0.6049 0.574936 0.52201086 0.14489606 0.15709206 0.15289578 0.16537985 0.21789071 0.6022886 0.6507853 0.6316757 0.5748322 0.15997864 0.16230366 0.18028884 0.14800395 0.023196384 0.21170524 0.652215 0.6435635 0.20603135 0.043165088 0.59998333 0.6068829 0.58621806 0.5196998 0.36400166 0.52536416 0.5804909 0.5651591 0.4003174 0.39618385 0.44786733 0.49834603 0.51180804 0.49264187 0.24831143 0.24886793 0.24221975 0.5235921 0.4841172 0.603231 0.53019166 0.4206555 0.39377478 0.04869066 0.23983961 0.41206878 0.61057335 0.6111209 0.5905526 0.29877114 0.18688032 0.5798627 0.57217896 0.1395186 0.53153837 0.1389429 0.14902592 0.30087784 0.19793437 0.18501952 0.12278142 0.11048858 0.13920161 0.12555276 0.14071466 0.20501387 0.12522867 0.15298915 0.18046331 0.1994803 0.16837417 0.12603965 0.14420363 0.06163566 0.050439395 -0.21785948 0.028528463 0.107279204 0.25843894 0.2378338 0.112650394 0.11191428 0.35253614 0.28721574 0.15472387 0.11549978 0.5710078 0.51491463 0.43779832 0.35239026 0.17727333 0.05274152 0.63690794 0.6119157 0.5156275 0.13492572 0.06575449 0.6648624 0.6177987 0.5214913 -0.5246751 -0.35744444 0.13319647 0.20003219 0.25857273 0.6531025 0.5586627 0.040849652 -0.2467391 0.29984078 0.07842391 -0.048215248 0.29079866 0.3272339 0.07688445 -0.1967523 0.06661713 0.29199064 0.15380512 0.055835158 0.1889704 0.52821124 0.18746011 0.24096794 0.5436119 0.21597306 0.57398474 0.2147997 0.23896737 0.53174084 0.55793333 0.22221507 0.14240515 0.38389575 0.4956333 0.20736197 0.31434682 0.10551527 0.047996912 0.08266246 0.4026825 0.46063137 0.49449253 0.44289702 0.31529996 0.39888802 0.5306952 0.5931989 0.50417125 0.18943277 0.18938448 0.5172094 0.57985914 0.6115918 0.5725621 0.5729727 0.30929825 0.27378765 0.13894719 0.25342417 0.6040584 0.6047225 0.5810435 0.4571244 0.47426742 0.43086195 0.47393465 0.43417516 0.46613204 0.32737076 0.41216376 0.52219135 0.5823709 0.5737537 0.42978027 0.40155005 0.42352664 0.45388788 0.43898535 0.4015209 0.2570806 0.5183761 0.61090773 0.58213395 0.53547746 0.47283077 -0.010615766 0.12423542 0.32384288 0.6057733 0.6092897 0.1483812 0.12480575 0.5925035 0.13921034 0.17955238 0.20919122 0.25077748 0.089177035 0.25744715 0.14840007 0.2239754 0.254473 0.23108521 0.18519846 0.22730891 0.16740972 0.1769623 0.10222596 -0.04669995 -0.0059792036 -0.07163131 -0.03212621 -0.17587206 -0.048324216 0.07587984 0.20452298 0.10320772 -0.024269942 0.057681076 0.08947767 0.26657137 0.080649495 0.06731213 0.38258284 0.54516965 0.5107359 -0.013157448 0.2778403 0.328741 0.6519734 0.068546146 0.20713133 0.3529566 0.6891842 0.68186104 0.32874614 0.6515204 0.5852731 0.46988142 0.33786672 0.044221293 0.06994655 0.35608202 0.38782954 0.5110489 0.10223905 0.5255351 0.111382194 0.18849288 0.24087922 0.36005735 0.47659922 0.15541965 0.13669677 -0.17316625 -0.013772961 0.076123975 0.2213955 0.36903512 0.10299845 0.18230812 0.13594398 0.2616824 0.315785 0.45634216 0.33960843 0.43346125 0.50530696 0.46796107 0.46367407 0.5288302 0.55560064 0.53490233 0.49331805 0.41183943 0.510414 0.48264474 0.46704417 0.5165719 0.5548005 0.541486 0.56901425 0.58148557 0.6274107 0.62394047 0.62673384 0.38805687 0.26333916 0.29191226 0.38864344 0.47369027 0.5412049 0.38863128 0.40923423 0.3570451 0.21736568 0.18795362 0.22231978 0.42430145 0.58843637 0.5705934 0.46634927 0.42830455 -0.012354538 -0.06132573 0.04448898 0.5708006 0.56950265 0.046877198 0.5668215 0.53832185 0.0025842264 0.5229792 0.228376 0.26069182 0.3557537 0.30927375 0.32820907 0.3373087 0.27598497 0.25061172 0.28536353 0.261688 0.18196987 0.2634007 0.12012184 0.031208506 0.051500037 -0.042661108 -0.15540798 -0.015247973 0.058625594 0.116406925 0.18429156 0.22963442 0.20330401 0.141872 0.1790089 0.24270312 0.26070273 0.2433341 0.20262438 0.46508414 0.38896894 0.111084834 0.2703883 0.3402738 0.35962567 0.5151517 0.36159772 0.37621313 0.61235094 0.39115578 0.67120916 0.35110232 0.66366595 0.6199511 0.5079106 0.36343604 -0.010698646 0.30481988 0.38826704 0.3928364 -0.06723887 0.06452932 0.45382765 0.07952088 -0.12777367 0.40014875 0.42701203 0.14404073 0.094749644 0.20886454 0.30964875 0.40289932 0.072561234 0.04433932 0.25777793 0.38930535 0.42882338 0.09918375 -0.03829039 0.08974492 0.24981086 0.36749077 -0.025420882 -0.15397146 0.060235877 0.03923848 0.12847358 0.15946314 0.35373944 0.007923663 0.3862723 0.3997386 0.44218618 0.4321164 0.39913815 0.35205156 0.597768 0.40312883 0.47581655 0.4705453 0.4577299 0.38805395 0.6394102 0.6272054 0.6132524 0.6483469 0.66881764 0.65377355 0.64920175 0.25904137 0.30088586 0.33689982 0.41359156 0.46677446 0.31062227 0.32970735 0.33350676 0.19877476 0.10542134 0.24987991 0.26445672 0.32723236 0.35297602 0.5092107 0.36676475 0.35510436 0.18875882 0.120436385 -0.10918418 0.26377612 0.52727515 0.49669883 0.24592152 0.17421216 0.104488164 0.48660767 0.42177558 0.45352423 0.15812859 0.2540361 0.3155869 0.2964564 0.37819037 0.38197553 0.30059177 0.2984299 0.28271207 0.108879894 0.18045342 0.016907766 -0.08843135 -0.016168125 -0.0790655 0.01220379 -0.0042042807 0.08676816 0.13669154 0.07781735 0.16670364 0.23355505 0.08743253 0.24248502 0.121612266 0.21502972 0.26390767 0.2959548 0.33741584 0.4090705 0.3669927 0.53219485 0.3772724 0.45097354 0.35805836 0.51622796 0.429716 0.33063465 0.37431985 -0.12556027 0.4125941 0.44598192 -0.103961386 0.47729802 0.47169572 0.2613954 0.45144674 0.51787156 0.33454132 0.057331476 0.07716717 0.3688961 0.33383322 0.24610144 -0.15347978 0.3542633 0.25018996 -0.1363564 0.26346722 0.13405846 -0.122871034 -0.08773349 0.11923954 0.012010708 -0.021135882 0.06834258 -0.038430706 -0.24237907 -0.0304216 0.2149849 0.21364246 0.2789582 -0.112647325 0.4154265 0.3224011 0.33257186 0.3322115 0.5887058 0.55888975 0.40436965 0.47204578 0.48791894 0.48735815 0.41273618 0.6131336 0.6433645 0.6311052 0.61196285 0.4938355 0.66171247 0.6740359 0.6592614 0.6514076 -0.0050863475 -0.14336194 0.0027135834 0.20197013 0.25147638 0.30018857 0.24158789 0.32858697 0.20832843 0.18637766 -0.14777865 0.21477546 0.21653166 0.18408412 -0.14428483 -0.052309193 0.21166138 -0.046405174 -0.14882201 -0.15270075 -0.043666795 0.09483823 0.21554644 0.09961074 -0.008506343 0.40876448 0.27585316 0.18746173 0.37061223 0.28222793 0.2809748 0.31214926 0.2694163 -0.104736224 0.14120178 -0.07576266 0.34830278 0.27152157 0.1404654 -0.028376687 0.279821 0.02827294 0.17727788 0.16202348 0.14123541 0.16024625 0.045405988 0.051914293 0.16700196 0.061061867 0.06938186 0.2095939 0.2774375 0.20671925 0.32343817 0.42364252 0.45650694 0.35801056 0.20098034 0.38428664 0.3109741 0.1422683 0.35469663 0.35357693 0.44369692 0.5096141 0.1948797 0.47267365 0.52818716 0.5351796 0.3089427 0.33620143 -0.37956768 -0.35452217 0.30637097 0.3562258 0.44457203 0.46592236 0.49706197 0.32768536 0.36436555 -0.26080003 0.4227242 0.45591497 0.38063586 -0.26414573 0.34486791 0.2755303 0.16679943 0.2442455 0.21095893 0.12425844 0.15715092 0.175741 0.115943715 -0.011927687 -0.08142383 -0.0014506727 0.071950026 0.06496845 0.2835219 0.25197926 0.15351519 0.22686663 0.47423047 0.3655805 0.23961577 0.29946953 0.47808173 0.5477053 0.5260005 0.36939728 0.43898275 0.47876072 0.63414276 0.6346419 0.62107366 0.46718752 0.47901967 0.6523974 0.66346145 0.24541837 0.27741265 0.30946556 0.2447438 0.24933049 0.23354772 0.021501545 -0.13775758 0.10334961 0.22646576 0.13151713 0.059291832 0.10195194 0.08966501 0.718897 0.7264787 -0.37502548 0.6263856 0.7261716 0.7311992 0.7374618 -0.27753243 0.70924747 0.71187645 0.72382474 -0.28771758 -0.29240677 0.67184734 0.6764715 0.70129216 0.19192757 0.27209955 0.29439825 0.29881316 0.155543 0.28280002 0.29406303 -0.114088446 0.21577166 -0.018378735 0.35084784 -0.013156975 0.40222862 0.37984663 -0.03525924 0.31704524 -0.05979955 0.14262122 0.2453838 0.06555515 0.008733407 0.17285524 0.026934363 0.0062307753 0.22263415 0.32086927 0.3371863 0.3072371 0.47253615 0.1567372 0.5447204 0.13740611 0.5631881 0.46597058 0.25519726 0.48662275 0.4439419 0.33063203 0.0598917 0.40130943 0.04770709 0.47492272 0.5004281 0.20471227 0.515048 -0.37777546 0.48188806 0.49315587 0.29342005 0.34859076 0.39899266 0.44015157 0.45983094 0.34616306 0.100174025 0.3514797 0.34400153 0.22784522 0.26881835 0.25211638 0.22545637 0.2422739 0.2239333 0.18179686 0.098939896 -0.0024789837 0.012603939 -0.019782174 0.09661606 0.15160815 0.23741546 0.16007437 0.20024274 0.13349806 0.12905787 0.3664613 0.20100828 0.5438604 0.38946116 0.506479 0.29929575 0.3892741 0.36140108 0.35774574 0.36809015 0.55685574 0.8475678 0.83076805 0.74063534 0.6527211 0.616392 0.8480542 0.8275683 0.75593877 0.6526636 0.5973737 0.76995397 0.6840033 0.5786588 0.19908309 0.25212273 0.22071955 0.2392986 0.29155874 0.23367375 0.11937933 -0.09915854 0.020453863 0.44624984 0.5163037 0.6493564 0.67311966 0.71171325 0.71948177 0.023805132 -0.036410317 -0.04644934 0.3718033 0.4656627 0.5255001 0.73447216 0.74058044 -0.19265427 -0.073070504 0.29273555 0.2736209 0.4061528 0.7240376 -0.18107143 -0.32957187 0.02911219 0.23182464 0.3061456 0.68648714 0.34715152 0.3250932 -0.56149894 -0.0426936 -0.0065673366 0.019716293 0.34360918 0.5852932 0.342992 -0.6366026 -0.31515464 -0.07948133 0.26697582 -0.14096752 -0.039878167 -0.028428473 0.2533449 -0.015841968 -0.031962775 0.40887776 0.25160652 -0.0048674736 0.4138339 0.0108471215 0.029785097 0.3243662 -0.042698096 -0.031404294 -0.0438703 0.21713817 -0.08027056 0.045608938 0.07547662 0.020096626 0.112418994 0.274536 0.11692724 -0.0025041066 0.3361082 0.40394223 0.31512168 0.16261826 0.42335373 0.46911153 0.39265212 0.25230086 0.37053496 0.5539371 0.17108878 0.6062008 0.105929576 0.61708343 0.5911449 0.5584974 0.35457653 0.027537297 0.37409365 0.03620393 0.4