# vtk DataFile Version 2.0
Really cool data
ASCII
DATASET POLYDATA
POINTS 726 float
50.36387 57.927635 73.711105
50.425762 57.92514 74.25041
50.24446 58.612698 72.92801
50.23289 58.554523 73.476006
50.284203 58.27448 74.04738
50.397675 59.193214 72.99492
50.29567 59.239544 73.44644
51.079117 57.16355 74.07558
51.1312 57.04245 75.58617
51.22744 57.266388 76.08333
50.826145 57.853218 72.70159
50.55214 57.799435 73.23072
50.762066 57.58204 74.6768
50.71441 57.606194 75.70948
50.888027 57.613934 75.9622
50.49649 58.589504 72.66565
50.63163 58.313972 75.69163
51.066334 58.603565 76.35466
51.261814 58.590157 76.60919
50.83668 59.706333 72.815704
50.630127 59.11555 75.41503
51.13603 59.88686 72.34719
50.771435 60.107388 73.69492
51.062546 60.97337 73.65473
51.17946 61.52269 74.11298
51.058575 63.30954 73.726555
51.029625 63.301525 74.35374
51.242702 63.34447 74.90875
51.24162 63.949375 73.99554
51.380497 64.04961 74.55698
51.994247 57.28986 72.51843
51.273514 57.086277 73.68657
51.741566 56.72163 74.699684
51.619904 56.829594 75.54645
51.540287 57.04685 76.07624
52.09511 58.19372 68.84217
52.04645 58.146492 69.32432
51.34488 58.156433 72.06117
51.72446 57.343384 76.451515
51.765156 57.891613 76.76907
51.871227 58.681725 68.750046
51.730736 58.635334 69.19376
51.360504 58.511185 76.541565
51.718586 58.232903 76.84219
51.80416 59.212433 68.6909
51.789696 59.493816 69.68479
51.79556 59.03985 76.81975
52.1715 59.86808 68.25738
52.14233 60.08793 68.588974
51.99293 60.151222 69.42712
51.64275 63.33826 72.76701
52.03057 64.03355 72.61188
51.531307 64.41698 73.91066
51.571163 64.41628 74.29803
51.90021 64.72831 74.981766
52.261505 65.25923 73.926994
52.17248 65.18444 74.55318
52.105904 64.94009 75.017685
52.562874 56.69285 73.317345
52.77782 56.726463 74.904015
52.366333 56.79737 75.66806
52.40605 57.14262 76.356224
52.589695 58.23074 68.28126
52.43735 58.049976 68.6915
52.565945 57.85658 69.068855
52.49584 57.94373 70.11221
52.62669 57.5122 76.70154
52.588024 58.68655 67.95846
52.490562 58.504963 76.975204
53.160984 59.42151 67.51405
52.554302 59.453667 76.77062
52.512512 60.36722 68.10894
52.859592 61.04824 68.14244
52.854183 61.31706 68.58664
52.94483 61.649834 68.92277
53.07255 62.7277 76.31199
52.660446 63.23663 71.91931
52.386047 64.3432 72.45242
53.083954 64.39831 76.43301
52.59274 64.949905 72.87316
52.473587 65.122025 73.484695
52.444977 65.514595 74.42031
52.642887 65.436356 75.39488
52.788277 65.286865 75.75881
52.87632 65.82553 74.57387
52.973392 65.75228 75.36205
53.404556 57.000534 72.45183
53.201298 57.132957 76.033195
53.75937 58.180553 68.36546
53.258663 57.778587 69.746765
53.24658 57.80834 70.40184
53.449512 57.626427 76.559616
53.365955 57.95056 76.76534
53.506775 59.08876 67.4449
53.21526 58.361996 76.885414
53.686367 59.604473 67.311295
53.379776 59.439514 76.41943
53.55978 60.199562 67.35631
53.61221 61.326378 67.94959
53.48019 61.824955 68.72288
53.56509 63.678307 76.89239
53.840855 64.21031 76.987946
53.37642 65.52841 73.23026
53.42502 65.592705 75.8959
54.002068 64.96595 76.73334
54.013897 65.85779 72.78489
53.692398 66.06832 73.497925
53.615753 66.17861 74.533356
53.281986 65.98357 75.19767
55.31072 43.896122 68.08349
55.209347 43.699623 68.565765
55.17915 43.732582 69.42222
55.305107 43.95979 70.07505
55.218235 44.329865 68.170555
55.010693 44.53453 68.5961
54.967777 44.74789 69.38949
55.295887 44.26529 70.516525
55.44337 44.910007 72.14539
55.10302 45.201607 68.7346
55.12469 45.443077 69.41187
55.278862 45.787228 69.16131
53.855892 57.16091 75.33392
54.68497 57.712864 70.12198
54.46689 57.55982 71.28209
54.223713 57.496902 75.14486
53.87326 57.625465 75.99781
54.617134 58.77538 67.84487
54.34483 58.242344 75.790535
54.323105 59.79607 67.16801
53.74488 58.981728 76.48616
54.403946 60.495758 67.29795
54.68089 61.278713 67.85574
54.582382 62.712795 76.922005
54.267723 63.603764 77.22055
54.53565 64.465225 70.95337
54.516464 64.17362 77.26343
55.1171 65.204094 71.02574
54.622124 65.343765 71.62781
54.34146 65.49249 76.43967
54.77518 64.986336 77.02675
54.87588 65.864685 72.24051
54.49521 66.136055 72.88584
54.60412 66.37259 73.63167
54.561653 66.329765 74.45697
54.286125 66.26499 74.93542
54.745056 65.67137 76.169846
55.81225 43.223106 68.137215
55.73613 43.064156 68.68906
55.636158 43.15472 69.19414
55.54617 43.80925 67.988434
55.887547 44.0233 72.56148
56.256733 44.12225 73.44812
55.63862 44.29741 67.81899
55.5316 44.5227 71.96382
55.637325 44.55922 72.59068
55.853634 44.610832 73.18928
56.23444 44.721893 73.79417
55.718437 45.383583 68.11794
55.868034 45.42345 73.37442
56.130566 45.338146 73.84987
56.093975 45.773197 68.236206
55.714653 46.05342 68.773384
55.890816 46.168034 72.540726
56.08116 46.331753 73.35458
56.4124 50.845234 68.79688
56.204605 51.489536 68.84838
56.135677 52.18597 68.817474
55.793518 52.45986 69.63858
55.84484 53.014263 69.53364
55.617966 53.800373 71.00743
56.111485 53.659344 71.97136
55.808956 54.352825 70.02623
55.659714 54.143177 70.495316
55.724586 57.331112 72.45726
54.950077 58.30651 68.814995
55.58668 57.604538 73.58692
55.545113 58.62457 68.47646
55.457333 58.79458 74.90152
55.0431 59.510715 67.32707
55.412617 59.690563 75.08929
54.951 59.359837 75.62742
55.367798 60.491768 75.0992
55.253315 62.880566 76.94293
55.51623 63.234146 69.47319
55.544743 63.517227 77.03732
55.417553 64.488686 77.1247
55.742847 64.82221 70.15475
55.538116 65.1953 70.597305
55.424232 65.42562 76.54925
55.44039 65.119606 76.833565
55.615425 65.97193 71.625145
55.43734 66.22064 72.42071
55.23022 66.335075 73.58115
55.42214 66.226456 74.02099
55.4074 65.96325 75.00798
55.28478 65.613716 76.1449
56.854042 42.27991 69.459366
57.02932 42.204178 70.3209
56.435097 42.623466 69.032524
56.364105 42.59259 70.10634
57.108177 42.85882 71.85634
56.496445 43.43104 72.45529
56.69025 43.86618 73.66761
56.245728 44.8254 67.700294
57.16478 44.75416 74.64252
57.32385 44.775208 74.89
56.40082 45.261826 67.83632
57.01913 45.547348 74.75589
56.531666 45.802532 68.19575
56.160713 46.097496 68.54311
56.642456 46.501453 74.33173
56.90132 46.06384 74.71248
56.609306 46.911175 70.45269
56.65939 47.329712 73.43798
56.966866 47.19844 74.292046
57.246365 46.86513 74.83839
56.922966 48.141186 72.708206
57.00395 50.17194 68.70871
56.814545 49.36651 69.79559
56.64869 49.471653 70.76532
56.802265 49.641666 71.33876
56.78957 50.64394 68.457794
56.595707 50.328674 69.59921
57.0063 50.457817 71.702065
56.85499 51.594627 67.92279
56.465343 51.79628 71.33503
56.718193 52.147617 68.046745
56.485092 52.44962 68.39852
56.86847 53.711433 68.46378
57.002907 54.813114 68.922195
55.987576 57.851017 70.483185
56.12434 57.859303 73.44842
56.12781 59.08328 68.25557
56.660492 60.373375 67.59517
56.834896 61.169804 67.68966
55.901848 61.43755 75.14643
56.44615 61.78567 67.97102
56.28943 62.534214 75.56361
56.16592 62.996426 76.282776
55.86119 63.179604 76.72338
56.39761 63.60843 76.273125
55.909927 63.43951 76.81475
56.675163 64.3974 69.6735
56.280964 64.62514 76.35001
55.820282 64.57112 76.97861
56.70648 65.117355 70.064445
56.81643 65.590904 70.53886
56.545944 65.56148 73.255196
56.43205 65.22313 73.93044
55.910614 65.44462 75.594
55.95497 65.13363 76.41664
55.847614 65.12767 76.722466
56.608574 65.89984 71.026276
56.685837 66.110634 71.58462
56.371723 66.20959 72.137474
56.11222 66.07883 73.34311
57.574085 42.07234 69.71633
57.391644 42.11264 70.42444
57.538704 42.70446 68.16884
57.7474 43.825478 67.467064
57.60433 43.86193 74.32204
58.062847 44.250393 75.123314
57.73506 44.32219 74.95039
57.64476 45.58388 75.467766
58.0468 45.14072 75.793304
57.59609 46.200935 75.196815
58.19377 46.035316 75.749435
58.36315 47.08949 67.81524
57.44607 46.845856 69.001045
57.78127 48.380444 74.16355
57.61996 49.333054 68.86487
58.03905 49.42675 73.53128
58.074715 50.023594 73.27643
57.402252 51.477978 67.59032
57.383766 52.56751 67.64515
57.688705 52.990356 67.64728
57.836185 53.996777 72.41478
57.885048 54.444893 68.34359
57.33075 54.93658 68.75172
57.399677 55.650444 69.461655
57.379395 55.655174 72.44442
56.868107 58.209297 72.06298
57.030037 58.546303 72.50062
57.33923 60.50502 67.850365
57.536617 62.12145 68.2661
56.58174 63.358154 75.79295
57.36201 64.94955 70.062
57.517365 65.51675 70.81723
57.20112 65.65778 70.81063
57.225952 65.903564 71.56654
56.967922 65.97733 72.3524
59.03374 41.142006 65.9407
59.14319 40.964333 66.05673
59.13426 41.27414 66.94933
59.26653 42.00689 64.81609
58.755116 41.786797 65.63966
58.681824 41.463886 66.38139
59.003452 41.36392 66.94039
58.060463 42.06866 70.192085
59.108932 42.576477 64.96767
58.21832 43.74069 74.63851
58.63081 44.138905 75.4064
58.93077 44.651752 66.39067
58.60418 44.874767 76.012566
58.78305 45.445507 76.120056
58.6756 46.207222 66.93511
58.768307 46.22329 75.87439
59.266743 47.564163 65.7548
58.876873 47.196575 75.230576
58.7578 48.483112 67.76425
58.46986 48.734917 74.33429
58.446754 48.265736 74.65078
59.434402 50.99129 66.16814
58.78262 49.708275 73.84581
58.70194 52.468647 67.11517
58.72247 53.193012 71.86269
58.40377 54.36064 72.19138
58.974857 59.547966 72.71478
57.893303 60.245647 68.31097
57.909042 62.48797 73.51289
58.091988 63.203255 68.92619
58.51972 63.713345 73.166084
58.4989 64.31103 69.75707
58.229565 65.08756 70.57663
58.58045 65.11169 71.78127
60.05283 40.98223 64.9336
59.510616 40.86583 65.716965
59.841843 40.815838 66.41901
60.08892 41.410564 72.54586
60.13237 41.613213 64.11395
59.57956 41.400436 64.8141
59.54195 42.24303 71.46324
59.7362 41.73059 72.74901
59.474754 41.840298 73.27564
59.932823 42.054184 73.91215
60.267162 42.16449 63.84748
59.721607 42.21985 64.52756
60.366486 43.939636 61.620754
59.761486 43.596634 75.18172
59.28896 44.23572 75.83862
59.606617 44.67287 76.16687
59.501987 45.52219 76.20997
60.228638 46.15787 64.860535
59.576393 47.046616 65.42176
59.250084 46.278122 75.91882
60.23359 48.260403 63.765553
59.848976 48.234715 64.89695
59.96827 49.31092 64.730675
59.436493 49.406464 74.16133
60.199677 51.358147 64.97986
59.743557 51.60482 72.09419
[...]
POINT_DATA 726
SCALARS features_00 float 1
LOOKUP_TABLE default
0.5972105 0.61909866 0.5569014 0.56638443 0.5929475 0.50710714 0.49489716 0.6292547 0.71626234 0.7277154 0.575498 0.5803015 0.6594738 0.6984568 0.70928663 0.552869 0.67615557 0.6918159 0.7068898 0.43311697 0.6296689 0.3854603 0.34797224 0.28253472 0.33570063 0.40911633 0.40276006 0.3759796 0.4178728 0.40544772 0.49715823 0.6062938 0.7021972 0.72856426 0.7368984 0.692141 0.6488179 0.53614175 0.7401221 0.73555714 0.7243395 0.6908976 0.71189666 0.7321553 0.7419367 0.6661014 0.7064786 0.73247296 0.6925294 0.63657165 0.43611363 0.44751573 0.42695862 0.42587313 0.42457318 0.45980138 0.46130794 0.4482692 0.53911066 0.7198074 0.7395098 0.7591704 0.7185377 0.67642224 0.6234827 0.4962973 0.76632404 0.7684488 0.7509141 0.7414391 0.70513976 0.68406695 0.62047756 0.57936 0.51259243 0.6437539 0.37760064 0.43276885 0.63805103 0.45055673 0.46251315 0.48003614 0.51973593 0.54873013 0.51463914 0.54961824 0.20506206 0.718228 0.66447765 0.4976805 0.3643948 0.71219635 0.725232 0.7112969 0.73545307 0.69460416 0.635 0.68416154 0.59913474 0.504305 0.69817364 0.71344185 0.47481352 0.6148859 0.69427466 0.4419643 0.5062351 0.55961907 0.5638391 0.7243173 0.7073097 0.6865119 0.6257452 0.7353266 0.7371981 0.7323755 0.54544663 0.40164334 0.71673226 0.70287704 0.6476642 0.59889114 0.38691783 0.22453359 0.4809575 0.628276 0.6112601 0.5135387 0.65699077 0.6179638 0.64285463 0.56596196 0.69551057 0.75524354 0.35593104 0.75624 0.4491139 0.41363645 0.67092204 0.7077168 0.44844127 0.46552283 0.5077579 0.55288935 0.5864214 0.6456128 0.6430442 0.6340625 0.6359254 0.70720685 0.41315636 0.40217754 0.7057437 0.39560226 0.42574725 0.42709857 0.41479856 0.65271336 0.43799478 0.4275964 0.5631006 0.56033254 0.44191736 0.43619287 0.34698316 0.3684609 0.3813666 0.33352703 0.36335945 0.46967214 0.5006861 0.40177348 0.44023266 0.39516056 0.51346195 0.29786944 0.5039145 0.24420568 0.6083922 0.14762188 0.3091562 0.1074915 0.63568 0.3280835 0.7009791 0.7378909 0.43412882 0.4594606 0.66920596 0.6956128 0.47773504 0.47796637 0.4949355 0.49530703 0.5433118 0.63697284 0.41082478 0.34362245 0.49564916 0.43727902 0.33054632 0.40580606 0.37441865 0.6209507 0.41384155 0.42640215 0.5647685 0.4294045 0.46366596 0.49133173 0.41610762 0.42630786 0.32724723 0.39079964 0.3956076 0.40335548 0.31901684 0.30262673 0.29044294 0.2830168 0.21584804 0.34351632 0.28788716 0.18542027 0.37975562 0.2452539 0.37766722 0.3789538 0.33889574 0.3072724 0.45893162 0.3184653 0.5166745 0.46657097 0.3930624 0.11412555 0.35201687 0.3153716 0.50101805 0.6050503 0.59069633 0.64891315 0.3971851 0.67129695 0.71955633 0.44261372 0.46082896 0.4644415 0.45265734 0.5873811 0.66682434 0.6876298 0.482554 0.49677086 0.50533605 0.48993698 0.33735627 0.31294006 0.47193044 0.45394945 0.36833644 0.44893664 0.43192255 0.4758493 0.4999979 0.4491936 0.49285942 -0.112666056 0.117446475 0.329957 0.19755095 0.3109251 0.31675306 0.35518503 0.33686152 0.30901068 0.17083839 0.23315725 0.2759996 0.27463937 0.23498225 0.36786878 0.26735812 0.41115502 0.2754666 0.46292225 0.41917884 0.4332077 0.45043874 0.45064595 0.46116278 0.60456574 0.6099098 0.5341464 0.5929171 0.5637191 0.53029954 0.5242686 0.24803983 0.5325514 0.3884911 0.47051036 -0.07051868 0.5178857 0.52964723 -0.013795881 0.49459147 0.049441896 0.3801724 -0.09368863 0.3466354 0.3343497 -0.0040338337 0.35821646 0.23834017 0.049011517 0.15434195 0.1685539 0.40912837 0.20596841 0.25984386 0.3836065 0.3677736 0.41503438 0.40459964 0.63530433 0.6310146 0.6017436 0.4493896 0.5710608 0.61608386 0.27795333 0.41776365 0.4068033 0.43404323 0.4734501 0.55428874 0.5414162 0.39985627 0.47898477 0.4871412 0.51239216 0.055415474 0.063578375 0.4855633 0.15520135 0.07875232 0.08174655 0.3823309 -0.027847406 -0.1743002 -0.2295855 0.10525125 0.24179941 0.14699133 0.34300888 0.2453321 0.20588872 0.34508815 0.46545935 0.4047774 0.5573648 0.055481702 0.2730209 0.34123662 0.3553697 0.35474184 0.33710706 0.38175696 0.37495697 0.599036 0.6328912 0.6457714 0.6227998 0.4772899 0.5575966 0.48940253 0.47396156 0.620223 0.54799855 0.41746882 0.60435957 0.5735696 0.40545 0.4199505 0.55052054 0.4354909 0.45862517 0.46514836 0.3388571 0.47078845 0.2880175 0.3267279 0.30617487 0.1995789 0.3581061 0.083610624 0.4600582 0.5176394 0.50008756 0.17835169 0.519294 0.4477759 0.38623548 0.13458653 0.5220512 0.44214022 0.4289567 0.3589829 0.5216138 0.53793323 0.5993515 0.5731449 0.5740212 0.5858611 0.65759903 0.36248404 0.35239953 0.35412675 0.3575173 0.36056668 0.36562347 0.34126556 0.5898716 0.6289258 0.61636543 0.59280217 0.5370418 0.45999584 0.47967693 0.5210454 0.5895667 0.49621361 0.5492217 0.51100063 0.63671607 0.46508396 0.62795424 0.62061477 0.44463784 0.4471039 0.5876969 0.5456948 0.44388956 0.5112907 0.45892552 0.47475523 0.37338436 0.63088644 0.38188803 0.36758196 0.6716472 0.6502692 0.4923376 0.27104867 -0.06316806 0.5539578 0.511667 -0.04657495 0.53152424 -0.011828339 0.5513633 0.45719796 0.5403245 0.61065376 0.41289598 0.6281775 0.6438538 0.6593374 0.7105604 0.31774202 0.36641562 0.5940912 0.5872781 0.50007206 0.5173723 0.60036236 0.49404028 0.5556394 0.51455045 0.48248893 0.5125884 0.53699005 0.5391423 0.65587854 0.6480632 0.60094476 0.54539424 0.53062963 0.65477014 0.51986796 0.50893056 0.6059069 0.5075819 0.56873405 0.004189642 0.6509491 0.39625925 0.6928729 0.67426646 0.7103054 0.45370576 0.08194859 0.54897714 0.6100263 -0.07724406 0.022377063 0.69015807 0.63111126 0.48889646 0.50184834 0.47150478 0.6249917 0.67475533 0.66972125 0.6411597 0.46377844 0.6511998 0.6140045 0.2972279 0.31512782 0.29961276 0.27909955 0.4548788 0.4878162 0.42031345 0.506743 0.532972 0.5358566 0.5616602 0.6642049 0.41353127 0.35449433 0.27457315 0.56583023 0.57673883 0.5772176 0.6827337 0.08022055 -0.008746013 0.34845877 0.6079831 0.0030797794 0.13655129 0.61661935 0.64925325 0.34311634 0.61004424 0.6175296 0.082898855 0.057921875 0.3950358 0.50094306 0.6248249 0.65019083 0.6585087 0.02918803 0.5899048 0.640257 0.6711091 0.46673426 0.648777 0.42366275 0.3954857 0.33954087 0.6242231 0.62873816 0.5907532 0.54404473 0.4889266 0.5562231 0.5584356 0.6546677 0.676574 0.6659833 0.65018445 0.4960775 0.4215082 0.39139897 0.17817333 0.22052431 0.24789077 0.27032888 0.2849334 0.7043936 0.66435575 0.4579204 0.39068642 0.416687 0.36920768 0.3148897 0.42829463 0.54548633 0.57280546 0.58842707 0.69172895 0.7068407 0.36719993 0.29500633 0.17826344 0.51335794 0.56580985 0.6028395 0.65704966 0.25481582 0.45635068 0.54539245 0.5870143 0.6414758 0.42971337 0.48398376 0.54761934 0.591002 0.5451344 0.56535107 0.6098848 0.47440755 0.44844127 0.43711933 0.025677636 -0.0025680922 0.43332738 0.092693284 0.21889113 0.24614319 0.28775665 0.5087147 0.28947827 0.59547603 0.520818 0.49446678 0.3808765 0.0382968 0.53000855 0.5267572 0.25498006 0.53153586 0.5511667 0.57199615 0.56596774 0.61730355 0.63978004 0.6429894 0.21301192 0.5421502 0.65893066 0.6533642 0.63053817 0.5421716 0.115011595 0.18921551 0.4510232 0.69490767 0.691635 0.6824382 0.6795627 0.6778281 0.6688849 0.6352157 0.65991104 0.6626432 0.5589546 0.6024188 0.5666214 0.5396141 0.49593794 0.4707936 0.44835687 0.39573306 0.44977474 0.42791736 0.37847206 0.22263849 0.26216853 0.267942 0.2468544 0.42125195 0.31031778 0.20580772 0.29615158 0.1895668 0.5078541 0.5531912 0.5385705 0.53272176 0.19782832 0.16144496 0.20479988 0.5580007 0.56846225 0.41653746 0.5781219 0.5730865 0.5897161 0.6354349 0.6117821 0.628312 0.61886 0.24865225 0.28109962 0.36576784 0.5450083 0.20585296 0.26306587 0.41855788 0.4613772 0.6731818 0.6350666 0.6258552 0.49566314 0.56513923 0.5779439 0.59336483 0.5658579 0.5331433 0.549705 0.6151694 0.6382184 0.61114204 0.45562345 0.6214528 0.64434594 0.637876 0.4591144 0.5600121 0.63704383
SCALARS features_01 float 1
LOOKUP_TABLE default
0.08638905 0.094774105 0.07282977 0.07618952 0.085569486 0.061646547 0.05838552 0.098321766 0.12814428 0.13236915 0.07782947 0.08058135 0.1086038 0.12188963 0.12571298 0.07079717 0.113710955 0.11870663 0.12413493 0.048388124 0.09742168 0.038174957 0.030588984 0.019213729 0.023860935 0.038537465 0.037733417 0.03414455 0.040985428 0.039362375 0.05343785 0.09069624 0.12180163 0.1321536 0.1356763 0.114478305 0.09795531 0.05968118 0.136872 0.13510598 0.12493014 0.10949618 0.12605168 0.13371508 0.13166049 0.09834246 0.12224549 0.13199608 0.11825484 0.0967273 0.042950884 0.0471762 0.043151975 0.04309132 0.044208094 0.051457047 0.05165254 0.049285866 0.07047245 0.12530649 0.13562831 0.14374793 0.1262578 0.11101102 0.09472092 0.055763897 0.14645064 0.14453009 0.14014573 0.1329793 0.12151487 0.11599984 0.09564135 0.08411262 0.06605255 0.09691195 0.033896282 0.04512939 0.10072103 0.0498074 0.05232835 0.056483325 0.06682897 0.07450184 0.065696105 0.075103 -0.008872163 0.12829207 0.11025298 0.06187575 0.03223478 0.12680496 0.13144565 0.12233325 0.13486843 0.11404019 0.100205444 0.11094838 0.08666589 0.0615289 0.1196904 0.12677093 0.05514122 0.09429532 0.12049554 0.04121844 0.06121615 0.0774156 0.0791607 0.12421982 0.12024283 0.11442961 0.09205685 0.12805918 0.12920552 0.12775657 0.06336743 0.03888783 0.123492055 0.116429284 0.09995706 0.08751713 0.035429887 0.0027502198 0.053532276 0.09789333 0.08787066 0.061778788 0.09871413 0.09326093 0.09328087 0.07114334 0.11289397 0.1395067 0.029130576 0.14164673 0.04430208 0.03379769 0.1123967 0.12485991 0.03585576 0.041351885 0.053939182 0.07093459 0.083702706 0.10377018 0.09557661 0.097205736 0.09908633 0.11637557 0.041276835 0.03878682 0.115647584 0.036395025 0.043882396 0.044057827 0.040683895 0.10260252 0.045999676 0.043231964 0.07777596 0.07614047 0.04721817 0.04594149 0.026549108 0.030029163 0.031842798 0.023969073 0.026111439 0.019566037 -0.0135050155 0.024558917 0.024801765 0.033715922 0.06477805 0.014458669 0.058948565 0.010825564 0.08139816 0.0047899676 0.020891197 -0.0009886976 0.09855715 0.02446313 0.12104386 0.13404392 0.044190977 0.048326377 0.111215 0.1199052 0.04656583 0.03948062 0.045129366 0.047416005 0.068619914 0.10057648 0.040280376 0.029054586 0.058535554 0.046529323 0.02234523 0.039320655 0.033112377 0.08963233 0.03917214 0.04181905 0.07739303 0.042975295 0.053334538 0.05892541 0.042303406 0.043373697 0.018827422 0.03761886 0.03923551 0.040411703 0.014753565 0.022343207 0.0077106417 -0.0128503945 -0.03526445 0.028052902 0.015234556 -0.041403364 0.031040587 -0.01838345 0.030700285 0.030999385 0.02342631 0.017864216 0.052827667 0.020856937 0.054481503 0.042713217 0.025175393 -0.0008620559 0.019861082 0.021947939 0.062442392 0.09094102 0.085274175 0.10384669 0.035728525 0.10625069 0.12684256 0.044988897 0.04801689 0.034648642 0.03743038 0.0825809 0.1085059 0.11667109 0.05229645 0.05305567 0.04946042 0.03899063 0.02714252 0.024328131 0.03643268 0.02272905 0.031530414 0.047380783 0.043321908 0.053291988 0.05883087 0.048566293 0.058005705 -0.0046824967 -0.005936459 0.02081371 0.0005424544 0.009691324 0.0053429366 0.02623251 0.023284234 0.019420816 0.0039889254 0.011739704 0.015100699 0.0141247315 0.013693958 0.03179525 0.016089452 0.031276315 0.010858508 0.05364098 0.037516925 0.039946776 0.044436093 0.04393041 0.040742625 0.0850094 0.0864121 0.06535064 0.07975804 0.073047206 0.0643073 0.061466232 0.015437861 0.06510803 0.036756743 0.05282897 -0.0007376773 0.0634968 0.06649388 -0.0042086393 0.058888666 -0.0009775003 0.033767402 0.0008525845 0.018077902 0.02083561 -0.0030725657 0.013635522 0.00466711 -0.008587889 0.0028679036 -0.015775988 0.02927183 -0.04051014 0.014176678 -0.012352791 0.02366357 0.03386196 0.029024523 0.09091942 0.09181427 0.084801465 0.050031994 0.06949577 0.08623198 0.016497992 0.043544672 0.040071197 0.045144707 0.040538084 0.06863818 0.071854904 0.03859595 0.054291196 0.055321485 0.06188138 -0.0022738138 -0.0017037481 0.057047006 0.003007564 0.0002445427 -0.00057392835 0.01385849 -0.00090774085 0.0011480249 0.005189657 -0.0058191875 -0.0016391277 0.002188989 0.01820957 0.0028949701 0.010153003 0.017512199 0.050620798 0.0409591 0.07752365 -0.04444656 -0.021728978 0.008782003 0.016881471 0.012628937 -0.0039548185 0.024312736 0.019083135 0.07449599 0.08758542 0.09431745 0.08913911 0.055810045 0.05768478 0.059168387 0.0554737 0.089691214 0.06533207 0.043188278 0.087906584 0.07984949 0.040136226 0.042237237 0.074861355 0.045579396 0.052828137 0.05102598 0.026290324 0.054297384 0.014059995 0.018597355 0.018185169 0.010933924 0.0050097844 -0.014844981 0.04712075 0.06392106 0.059831202 0.0010059628 0.06612476 0.04781097 0.030105319 -0.0033048284 0.066202044 0.045472484 0.041667726 0.02075624 0.066925585 0.07072073 0.08976803 0.0800037 0.07944257 0.082884744 0.1048029 -0.010161459 -0.00601135 -0.0061307736 -0.008993227 -0.00574138 -0.0051745586 0.0038280673 0.06779572 0.08683716 0.08729193 0.08108052 0.06469369 0.043038696 0.04977907 0.06283001 0.074785404 0.03612735 0.04857392 0.0626662 0.09422251 0.05290391 0.094266936 0.09234636 0.049049757 0.04963644 0.08419432 0.07360336 0.048016634 0.06485598 0.05225747 0.05553725 0.032868426 0.09763068 0.026339976 0.022837205 0.109712206 0.098669365 0.033123188 -0.0151038915 -0.013233625 0.069644116 0.06099926 -0.017638663 0.066584446 -0.0065813353 0.073450625 0.04452109 0.06896342 0.08996241 0.0054468587 0.09520009 0.099957936 0.10543883 0.119278476 0.0038143825 -0.00015327707 0.07887331 0.0801636 0.05359362 0.059270773 0.080490336 0.04420526 0.06907999 0.06296265 0.04530419 0.055794157 0.06679256 0.06813784 0.1010374 0.09773763 0.08246801 0.06994447 0.06684006 0.100994065 0.06535787 0.063185886 0.089201786 0.0631036 0.07912313 -0.0097010825 0.10050576 0.030841993 0.11528412 0.10571963 0.120955616 0.0197225 -0.009792689 0.056039028 0.08273437 -0.010998697 -0.0047849743 0.10464531 0.08434248 0.053947587 0.056730267 0.0428592 0.09097261 0.11037793 0.109497055 0.10100688 0.011019763 0.1041557 0.09200079 0.009928014 0.009905053 0.008742009 0.007944513 0.045539036 0.05672195 0.042996947 0.048108384 0.058879673 0.06382383 0.07226876 0.104855195 0.028290903 0.031029271 0.017270233 0.07322002 0.076824315 0.07739308 0.11345631 -0.008697041 -0.028597903 0.0116285635 0.08452617 -0.017265609 -0.011181202 0.08471039 0.103703275 0.025701381 0.08192626 0.08819577 0.001542716 -0.004646817 0.037216242 0.059216168 0.09189164 0.09903112 0.10119239 -0.002179312 0.08445444 0.09777456 0.1070514 0.03716325 0.1009259 0.020516964 0.008500265 -0.016321655 0.074551836 0.08686737 0.078165986 0.064555936 0.056203034 0.074071825 0.06898502 0.10038441 0.110676765 0.10804823 0.10381279 0.052779097 0.029350061 0.014004605 0.005942308 0.008439088 0.009724645 0.011337496 0.010945435 0.12285687 0.10855978 0.03630931 0.028998354 0.04095446 0.033557493 0.024390481 0.029318755 0.06309742 0.07508116 0.079385445 0.11914167 0.12417992 0.03146797 0.021439187 0.005117216 0.055515684 0.07092376 0.08253006 0.10764751 0.015786277 0.044423085 0.06534082 0.07589799 0.101228155 0.041702613 0.05183419 0.06679383 0.08349365 0.06706265 0.07379801 0.08478499 0.046158195 0.03627454 0.029393658 -0.003432522 -0.0034414632 0.027301226 -0.012157431 0.010155366 0.012849386 -0.022733232 0.03166561 0.016919615 0.070524104 0.05515363 0.05218597 0.023153074 -0.014719351 0.06835093 0.06886557 0.010359974 0.07014844 0.0749417 0.07988349 0.07752696 0.08989058 0.09749057 0.10072395 0.0074365935 0.04924736 0.10557522 0.10389052 0.096142285 0.06772769 0.0019113495 0.008814962 0.04097485 0.11981843 0.11887362 0.11541402 0.11422615 0.11327242 0.1091549 0.09977324 0.10639321 0.1064653 0.07280788 0.08313185 0.06926681 0.0627392 0.04975229 0.04176854 0.03603919 0.027038993 0.035870478 0.028051976 0.012185613 0.009572865 0.014905087 0.015159691 0.012557811 0.027641503 0.0111988345 0.0071767094 0.009568903 0.0015572344 0.059514754 0.07428456 0.07127917 0.07014746 0.0048267827 0.0018212057 -0.011066797 0.07680069 0.07945687 0.033219505 0.08204792 0.08037574 0.08574656 0.09583293 0.08956583 0.09641271 0.09303528 0.013703929 0.018491166 0.032441508 0.068734095 0.010393891 0.016946463 0.04338206 0.051988933 0.110261336 0.094247356 0.091578536 0.05390527 0.07674159 0.0816431 0.08634257 0.07872061 0.06413527 0.07026836 0.091699675 0.099221796 0.091085576 0.047175225 0.09337519 0.09959044 0.097963855 0.051033165 0.0761472 0.09576988
SCALARS features_02 float 1
LOOKUP_TABLE default