# vtk DataFile Version 2.0
Really cool data
ASCII
DATASET POLYDATA
POINTS 8832 float
22.477833 51.977787 51.987095
22.47912 51.951374 52.609142
22.450901 52.890457 51.888046
22.450066 52.408768 52.376503
22.482904 53.163452 51.27944
23.259977 50.70193 51.965282
22.951803 51.028206 52.425377
22.949272 51.016678 53.01747
23.175741 51.930798 50.627216
22.657156 51.92504 51.618645
22.601482 51.660053 52.5245
22.859087 51.611004 53.29645
23.13229 51.64493 53.707813
23.219374 52.542015 50.16114
22.791906 52.641247 50.74
22.55488 52.615314 51.398056
22.529114 52.579224 52.563904
22.757898 52.53017 53.168636
23.243952 52.02453 53.84374
23.10159 53.52157 50.147503
22.738846 53.51504 50.68372
22.60382 53.5237 51.475616
22.818977 53.249115 52.45288
22.995703 53.043365 53.038853
23.171412 54.05751 50.22589
23.002241 54.161884 50.717323
22.856537 54.08648 51.343025
23.175514 54.051098 52.147
24.251562 49.07459 52.927116
24.141975 49.24598 53.134888
24.151663 49.060158 54.527843
24.194397 48.78737 55.50936
24.27448 48.829952 56.103622
23.84765 49.822292 52.53541
23.854307 49.66267 53.31567
24.138279 49.45972 54.94542
24.061867 49.55078 55.53908
24.246357 49.31874 56.156567
24.162987 51.270905 50.13767
23.681515 50.960854 50.881554
23.765528 50.32344 51.721657
23.675726 50.553062 53.65673
24.27165 50.78907 55.505474
24.26307 49.992485 55.99787
23.916039 51.730362 50.084003
23.507511 51.424164 50.652447
24.213863 51.28967 54.7972
23.937613 53.02818 49.421066
23.779356 52.412605 49.767258
23.422 51.967407 53.98619
24.13053 53.34708 49.341824
23.564524 53.62037 49.755383
23.403578 53.23081 53.182243
23.726006 54.185757 50.001564
23.397821 54.402943 50.483906
23.356161 54.474754 51.524017
23.469187 54.155106 52.253994
23.6789 54.731236 50.86597
23.60472 54.615547 51.33172
25.463696 46.45389 55.5004
25.35414 46.828213 56.252438
25.269707 47.27775 54.850826
24.776525 47.786793 55.700684
24.782236 48.019928 56.346703
25.388098 47.294655 56.924732
24.831047 49.115734 51.924362
24.64649 48.957355 52.420967
24.720438 48.697037 53.477966
24.49282 48.612648 56.360073
24.844156 48.88959 56.96176
24.96432 50.146095 50.878727
24.766376 49.62883 51.53075
24.514698 49.515495 56.56004
24.819279 49.482018 56.88016
24.838604 50.9009 50.134827
24.429377 50.56903 50.76691
24.627186 50.40238 56.3365
24.827017 50.096207 56.72691
24.826103 52.026978 49.336582
24.822018 51.74743 49.530724
24.61317 51.404846 55.515877
24.847649 51.06329 56.059494
24.712326 52.626057 49.128387
24.925194 52.018177 55.438133
24.674913 53.411392 49.111908
25.011509 54.186337 49.23952
24.456293 54.289524 49.702362
24.532196 54.694645 50.4459
24.635036 54.80357 51.269245
26.321163 45.225437 55.77771
26.284554 45.291435 56.17955
26.278282 46.15857 54.11189
25.955881 45.878532 54.92943
25.886932 45.783237 55.4113
25.858482 45.783134 56.063026
26.010479 46.113205 56.871502
26.239426 46.392094 54.162895
25.630232 46.82211 54.68773
25.600586 46.552433 55.481125
25.560282 46.826607 56.832882
26.278055 46.38586 57.49891
26.085659 47.176174 57.788776
25.575768 48.299255 53.640163
25.537645 47.713932 57.416397
25.875036 47.532623 57.846832
25.337244 49.109207 51.8051
25.370613 48.58037 52.592472
25.431408 48.23497 57.581978
25.621862 49.9793 50.913113
25.994213 49.351624 51.435745
25.681654 48.92468 57.666332
26.399162 49.710545 60.95262
26.427872 49.79457 61.410587
26.456507 49.883778 61.90175
25.819311 50.73278 49.99532
25.317331 50.389103 50.445255
26.44103 50.12534 61.54776
25.439241 52.009613 49.20793
25.409805 51.450283 49.634953
25.58849 51.802902 56.383614
26.124287 51.45792 57.0622
25.433784 52.741787 48.99311
25.738739 52.461777 56.157684
25.834568 51.996506 56.746185
25.497993 53.40798 48.92712
25.775019 52.998642 55.369007
25.386612 54.028633 49.06402
26.041462 54.30352 54.289066
25.649498 55.319164 50.708046
26.003342 55.684605 52.597805
26.074108 55.314182 53.50682
26.071583 54.9821 53.932423
26.353554 55.879845 49.8372
25.833136 55.77282 51.483322
27.48808 41.05064 57.627472
27.425352 41.286316 57.57483
27.413776 41.37333 57.878654
26.82888 45.12573 54.74616
26.581102 45.044666 55.568253
26.89806 44.81346 56.210625
27.18063 45.158985 57.1246
26.942436 45.755684 53.874783
26.698603 45.419827 54.399624
26.65641 45.68773 57.239292
26.940767 45.94132 57.746956
26.747478 46.424126 53.80876
26.68138 46.556858 57.98926
26.218502 47.866173 53.575577
26.994495 47.850864 59.066055
27.23458 48.18094 60.935646
27.291407 48.182293 61.554688
26.20855 49.075798 51.708427
26.529593 48.74555 58.197662
26.955595 48.652935 60.92036
26.73307 48.841274 61.419582
26.983444 48.833263 62.088078
26.419523 49.894413 50.93316
26.370161 49.364704 58.03097
27.018415 49.508907 59.627632
26.61218 49.3739 60.821064
26.55974 49.39853 61.743217
26.85072 49.578278 62.259407
27.076603 49.70889 62.590164
26.532648 50.796024 50.088707
27.258823 50.17497 59.455147
26.4949 50.283695 60.991016
26.581676 50.48702 61.581665
26.833366 50.312912 62.18188
26.395926 51.885925 49.384075
26.404839 51.482487 49.56317
27.0877 51.34647 57.983543
27.079723 51.105896 60.56857
26.871338 50.866047 61.60092
27.018024 50.83093 61.961475
26.306376 52.30496 49.284084
26.895517 52.600407 57.45148
26.057804 53.329197 49.00851
26.73244 53.50242 56.63831
27.028929 53.400387 56.913666
27.095068 54.45856 55.988438
27.126078 55.67629 48.962135
26.683672 55.254463 54.497265
27.083675 55.20322 55.30254
27.118814 56.323513 49.070293
26.782383 56.433006 49.67707
26.722336 56.373173 50.616375
26.558771 56.462883 51.602173
26.817549 56.416553 52.605846
26.923538 56.03665 53.629112
26.996061 55.824425 54.22728
27.119652 56.842186 49.65219
27.067118 56.818947 50.29813
27.017023 56.787827 51.35393
28.085337 40.32262 56.945965
28.029346 40.144894 57.524765
28.085894 40.17058 58.32663
28.122252 41.057976 56.25583
27.85522 40.68086 56.895355
27.644709 40.633026 57.502304
27.871344 40.534966 58.36693
28.276272 40.573666 58.960533
28.164518 41.960827 55.758194
27.660349 41.410305 56.74888
27.549868 41.81197 57.474518
27.609386 41.277943 58.12482
28.21223 41.924366 59.17573
28.31159 42.05798 60.04402
28.390173 41.942066 61.34988
28.283895 42.354374 55.349564
27.928183 42.6002 57.522755
27.886826 41.941 58.435524
28.3467 42.278942 58.96621
28.101591 42.70562 60.764275
28.202572 42.593613 61.38781
28.329306 42.77416 61.836254
28.30322 43.211727 55.093468
28.340649 43.746075 55.404953
28.14308 43.246105 60.67316
28.210361 43.32114 61.183002
28.121126 45.20166 53.192127
27.862904 44.870575 53.82178
27.620964 44.78646 54.62094
27.448553 45.072598 57.173164
27.757013 45.56291 53.25909
27.540693 45.59341 53.385265
27.581226 46.277554 53.276714
28.069813 47.61432 59.975075
27.715261 47.785892 61.272717
27.652153 48.149662 61.985188
27.314518 48.703815 52.445854
27.522154 48.601376 62.35233
27.253845 49.52891 51.73818
27.60949 49.70027 62.691345
26.933613 50.959087 50.06541
27.243008 50.524384 50.831474
27.288443 50.451958 62.434334
27.59512 50.156937 62.621376
27.160868 51.623955 49.94336
27.449694 51.235683 50.38109
27.530344 51.407097 59.536785
27.417162 51.328014 60.14853
27.375608 51.261295 61.456852
27.615337 50.947113 62.114994
27.404726 52.628952 57.551067
27.491331 52.25771 57.633358
27.925629 51.958843 60.174732
28.073112 51.67321 61.20023
27.769947 54.229675 49.639732
27.702085 52.802303 57.624954
27.565706 54.89278 49.013634
27.13336 54.497715 49.597748
27.579607 54.53814 56.577904
27.505405 53.952316 56.744183
27.683935 55.882164 48.676235
27.411993 55.586124 55.2647
27.784492 55.26762 56.128582
27.465937 56.37354 48.910446
27.748478 56.429222 53.80591
27.732151 56.176693 54.41504
27.967058 55.747906 55.59211
27.556334 56.73573 49.11161
27.74332 57.074566 49.47588
27.55031 57.159794 50.176308
28.053837 57.06779 52.41607
27.676363 56.64798 53.173595
28.740665 40.064594 56.903954
28.607592 39.840145 57.662777
28.686953 39.860195 58.4766
28.76283 40.04644 58.927395
28.698612 40.760998 56.15267
28.360737 40.60432 56.45286
28.499674 40.620808 59.263668
29.093046 40.956615 66.83841
29.059221 40.982426 67.497574
29.163727 41.05699 67.97639
28.81857 41.998466 55.10158
28.46349 41.70318 55.60796
28.67603 41.506332 60.111473
28.654839 41.708565 61.465836
28.762472 41.992516 62.206604
28.897963 41.56922 66.76959
28.810307 41.50394 67.47099
29.058628 41.583313 68.10206
28.814854 42.6068 54.76936
28.65629 42.48899 62.196842
29.087086 42.544506 62.82558
29.224922 42.32144 65.94125
28.96635 42.62412 66.66064
28.82953 42.461185 67.46026
29.095854 42.333923 68.17123
28.473606 43.793034 59.894875
28.811378 43.58007 62.35774
29.083841 43.046703 62.76019
29.104506 43.132442 66.78707
29.139425 43.265827 67.35779
29.209667 42.939205 68.037254
28.505796 45.17801 53.14015
28.501205 44.793858 53.369312
28.659056 43.988937 61.697372
29.106598 44.148426 62.291313
28.587717 45.482555 52.936745
29.281681 45.328434 61.460674
28.576233 46.189407 52.784134
29.20067 46.526783 61.07207
28.807741 48.297882 62.175644
28.342573 48.798973 62.59655
28.25183 49.48719 62.705254
28.429596 50.37073 62.435047
28.168245 50.306828 62.564377
28.362196 51.027172 62.026127
27.639877 52.844627 50.46424
28.650885 52.278324 59.501728
28.474453 52.20186 60.31444
28.330374 51.886944 60.952557
28.621803 53.521313 57.4246
28.437557 55.027924 49.11455
28.427021 54.473423 57.030716
28.260405 55.740566 48.72146
28.442753 55.46685 56.377743
28.91185 55.0259 56.83761
28.197767 56.23186 48.74652
28.397137 56.373085 54.653748
28.558271 56.09902 55.32098
28.243671 57.21083 49.48852
28.428814 57.377583 50.415333
28.497332 57.26063 52.064102
28.190918 56.665836 53.775726
28.829458 56.68005 54.116356
29.815649 40.347954 56.26562
29.745882 40.116394 56.782597
29.390133 39.7261 57.57385
29.44141 39.701633 58.371666
29.581917 40.036674 59.055775
29.999123 40.362152 66.64811
29.930727 40.401268 67.41532
29.615124 40.695885 55.96664
29.458033 40.502323 59.445328
29.257282 41.287983 60.294453
29.737867 40.92854 65.77089
29.575651 40.722416 66.57144
29.502954 40.619762 67.45828
29.731737 40.91015 68.18635
[...]
POINT_DATA 8832
SCALARS features_00 float 1
LOOKUP_TABLE default
0.60666263 0.5875056 0.64693654 0.6066554 0.70345104 0.53058165 0.55198 0.53294873 0.6379374 0.621747 0.5811533 0.5474831 0.49775848 0.6869428 0.7115048 0.6695853 0.59986496 0.564557 0.4692485 0.7361909 0.74866676 0.7035991 0.62135017 0.57280004 0.7210926 0.725919 0.71834016 0.6646458 0.38297212 0.38269228 0.377868 0.39144242 0.39666602 0.4353372 0.39199442 0.39054465 0.39077488 0.39149636 0.48640865 0.50158215 0.4670833 0.4197899 0.25455105 0.35575306 0.54001224 0.5549278 0.21965596 0.6396093 0.6165421 0.4217326 0.63659453 0.6951362 0.53800493 0.6757362 0.6882261 0.66744864 0.62657785 0.6314651 0.6323197 0.41979942 0.3907193 0.343992 0.38799477 0.3849098 0.35739285 0.38994718 0.38129026 0.3440782 0.39281416 0.3691783 0.39660537 0.39925048 0.3719562 0.3534455 0.43969995 0.42829567 0.29132718 0.30757272 0.5286825 0.5062443 0.18407343 0.21359734 0.56695825 0.16863476 0.59618354 0.56262255 0.6143022 0.5420994 0.44937453 0.44592896 0.4296469 0.35039064 0.42214352 0.4366752 0.42361876 0.38535535 0.33698803 0.35508457 0.4180165 0.37047464 0.34232146 0.293236 0.2687042 0.325955 0.29065773 0.3740281 0.34430748 0.31908053 0.37714288 0.35476607 0.2977606 0.6869246 0.752835 0.8008652 0.42283106 0.40215582 0.7757845 0.5036217 0.46864855 0.18543255 0.18242005 0.5256754 0.19072527 0.18252417 0.51887584 0.1882042 0.5203353 0.2095828 0.3137601 0.27298135 0.26416022 0.24711588 0.51704055 0.26893032 0.694646 0.66904944 0.6251612 0.3938799 0.44788408 0.4208026 0.38230625 0.34031147 0.37760073 0.37844658 0.3219367 0.3117006 0.2724593 0.18853176 0.120579615 0.53506577 0.65341145 0.34426385 0.19241543 0.59255934 0.6973008 0.7895004 0.3584122 0.16399537 0.40996048 0.6450436 0.7727865 0.8361553 0.8536173 0.4119622 0.4370281 0.70514834 0.7774431 0.8246672 0.44934332 0.44457692 0.037394024 0.610936 0.7632003 0.7909696 0.45065865 0.15769222 0.44871378 0.18299893 0.17253426 0.24191934 0.6878805 0.25441325 0.2686699 0.68925357 0.58879334 0.4338163 0.33595735 0.29941994 0.26370627 0.2588393 0.6221124 0.5263996 0.40282977 0.7375723 0.7750762 0.73234826 0.6185223 0.7203611 0.7405834 0.6796019 0.6141773 0.43218362 0.6686699 0.5969759 0.610868 0.4399066 0.41506112 0.47059882 0.3258556 0.44153625 0.48760313 0.3937281 0.41414756 0.46710694 0.48859853 0.22062795 0.19841608 0.39827782 0.44789273 0.27135107 0.26981902 0.2852728 0.36525685 0.30724865 0.31850827 0.3067955 0.13124637 0.52464 0.73065233 0.28719175 0.82799995 0.29774797 0.8388423 0.40803656 0.3541979 0.81933033 0.8165237 0.39304316 0.35798615 0.34403178 0.5061263 0.6976614 0.7656303 0.1495304 0.12982062 0.38675007 0.55117625 0.40463054 0.13482432 0.5967921 0.48142216 0.22754721 0.19030342 0.72936255 0.2774641 0.2783091 0.7244514 0.2498626 0.2565217 0.28480524 0.7136959 0.6979965 0.58799624 0.2896674 0.2591863 0.72054183 0.7961098 0.7473892 0.6670316 0.5864111 0.65603447 0.5836412 0.7971571 0.84699166 0.8772193 0.35149607 0.4428293 0.4860034 0.49482608 0.52418983 0.8870032 0.899413 0.9183005 0.26274726 0.50794 0.50056136 0.8049563 0.80289894 0.87700295 0.90247256 0.30760336 0.42186904 0.45734948 0.69430786 0.72570753 0.81848526 0.23531473 0.22814718 0.39919776 0.30901977 0.22488648 0.13185057 0.21578714 -0.020912603 0.6449108 0.76620615 0.7507958 0.6856504 0.7366233 0.675153 0.28076994 0.10364001 0.30651572 0.45079058 0.11688621 0.6192258 0.18589748 0.7370641 0.26619825 0.20255098 0.7654813 0.24574362 0.26484045 0.74547005 0.67066264 0.31670213 0.23734228 0.22197042 0.5274011 0.6010864 0.7330551 0.69522727 0.5503787 0.6796756 0.7419629 0.50333613 0.4858396 0.48830926 0.6374894 0.7184059 0.79141986 0.85617626 0.37538344 0.5774722 0.92186975 0.92573327 0.1536105 0.2711558 0.42223775 0.8543507 0.88455176 0.12514468 0.5525277 0.6980314 0.79153335 0.13081701 0.14634314 0.17976713 -0.02425548 0.5868976 0.642504 0.6974566 0.13208894 -0.023691867 0.16040406 0.36490428 0.3083719 0.19178429 0.48769635 0.13188145 -0.04448574 0.50497365 -0.09428273 0.3455496 -0.2178116 0.23812357 0.08194631 -0.06160658 0.093159735 0.53668797 0.07145808 -0.010782406 -0.046490155 0.2132991 0.7464856 0.6636119 0.22247046 0.24778974 0.76540834 0.59097964 0.3226735 0.24492508 0.21538347 0.20000762 0.53609514 0.58362794 0.5323974 0.5544645 0.4700637 0.5732344 0.56370157 0.4158337 0.56885624 0.6276143 0.6652229 0.39154834 0.30060372 0.2712832 0.44498757 0.5679189 0.7141582 0.8263579 0.29338956 0.23032808 0.35962194 0.8726149 0.13917369 0.80735517 0.0063219294 -0.06250106 0.7119317 0.7670313 0.024730192 0.14247927 0.4413817 0.56527376 -0.026546147 0.1223743 0.042454973 0.07836817 0.35020816 0.1103069 -0.04856626 0.24832942 0.2868846 0.28830498 0.22175753 0.08647933 0.30235314 -0.055407103 0.41576582 -0.0107942 0.13979156 0.03354817 0.007338196 0.031332515 0.5769737 0.116220444 0.44986996 0.26137498 0.119902305 0.7186732 0.3401985 0.50071746 0.7575195 0.7449416 0.6754924 0.6034255 0.5908276 0.6707082 0.73328364 0.7178273 0.6120075 0.45534503 0.39419913 0.4375525 0.6694151 0.7184261 0.7388581 0.6970258 0.7270806 0.619949 0.51793987 0.4340977 0.39922142 0.6619623 0.7287489 0.74455595 0.6621673 0.5759472 0.5393125 0.5101393 0.64452994 0.69801795 0.71477455 0.6245294 0.6033081 0.3988366 0.43041232 0.39095077 0.37425607 0.52671784 0.6038989 0.6383922 0.27142325 0.6984085 0.19502568 0.16089219 -0.04281506 -0.06262103 0.04157853 0.76925147 0.22847433 0.18089873 0.10656996 0.6897396 0.039723694 0.6892398 -0.09432095 0.52934146 -0.030240893 0.21582256 0.19276918 0.03280478 -0.01995594 -0.03581875 0.11065919 0.3124523 0.119885534 0.10269662 0.2695274 0.2500499 0.40866905 0.35548118 0.05755465 0.22212525 0.07729587 0.09389868 0.026051953 0.5270982 0.51779675 -0.16043358 -0.042992156 0.5154703 0.48479882 0.4146072 -0.0079144165 0.25140086 0.47086966 0.10021017 0.15073436 0.27505133 0.27505824 0.20357043 0.3052531 0.22536314 -0.19145638 -0.059750304 0.1374189 0.25028107 0.38946706 0.28364986 0.30240008 0.63282347 0.31251317 0.5585518 0.49015188 0.7473353 0.38024643 0.13614914 0.6212615 0.6614934 0.7142222 0.21993336 0.17920083 0.7065667 0.7170683 0.6485406 0.6648027 0.17866445 0.11754082 0.43184292 0.7404518 0.74084604 0.5925734 0.47467455 0.47283375 0.5892143 0.6446824 0.6829141 0.5869069 0.6244688 0.6511052 0.6048508 0.57044876 0.620802 0.6485936 0.61443394 0.59049875 0.3464113 0.48289758 0.55664384 0.6122758 0.18153533 0.23701558 0.28210175 0.27599907 0.2398932 0.2374882 0.31998128 0.42698574 0.6092812 0.6474697 0.21859592 0.08964289 -0.035120696 -0.20448676 -0.12548721 0.6237445 0.2519045 0.2425863 0.5664799 0.57287526 0.23765162 0.17120428 0.32772994 0.035771366 0.18885069 0.34908706 0.2868327 -0.108105496 0.14673679 0.17546187 0.33965445 0.45839578 0.557984 0.62822187 0.40823495 0.48654383 0.568331 0.61680126 0.64234424 0.35800004 0.020229897 0.5693984 0.6016604 0.63162225 -0.013598018 0.51615465 0.5033966 0.2373974 -0.023441246 0.53994083 0.53813577 -0.025840446 0.05955098 0.5322294 0.5323421 0.15430392 0.5114933 0.48136944 0.17661557 0.0040864497 0.48459738 0.79164124 0.8602275 -0.2894226 -0.053476095 0.09273197 0.18654455 0.62622976 0.8218878 0.88512003 0.8718935 0.111873776 0.09439032 0.33475363 0.60071194 0.75730115 0.858201 0.8358076 0.701522 0.68709093 0.4941178 0.26780155 0.32727098 0.35765922 0.3218462 0.4509526 0.6567158 0.77309686 0.7750929 0.5312106 0.5387549 0.5762236 0.6791438 0.52443004 0.5566867 0.11171639 0.70165837 0.50338423 0.4126249 0.5742049 0.5905413 0.6561208 0.552179 0.58039653 0.56408215 0.52360296 0.4831403 0.51698786 0.5073409 0.5923314 0.6282232 0.60901517 0.58732796 0.50091505 -0.10118325 -0.032003045 -0.052230775 0.25534803 0.3824842 0.4516662 0.0113298 -0.13235427 -0.14074586 -0.12815714 -0.17500302 0.0654605 0.5161265 0.24824981 0.4192533 0.20447628 0.22123198 0.19465455 0.18605995 0.27429473 0.13257743 0.21937637 0.43202794 0.27168676 -0.2786148 0.61695766 0.3280404 0.64487976 0.1671986 -0.08696358 -0.031730674 0.4846078 0.5625626 0.6145333 0.6429014 0.6462352 -0.081245095 -0.052406255 0.5812879 0.616043 0.6315594 0.47311312 0.47943294 -0.041387394 0.5361663 -0.039313745 0.5461844 0.07635377 0.48679328 0.07769304 0.3855124 0.14177206 0.6183996 0.8199874 0.84292746 0.031831767 0.85837924 -0.291817 0.10520591 0.11252664 0.104066744 0.10903792 0.7824851 0.73521686 0.62795365 0.027227 0.17476256 0.2677285 0.37876183 0.6678289 0.7272061 0.5526905 0.4227785 0.2778364 0.3653993 0.49662244 0.6217252 0.6431992 0.5193662 0.44367328 0.35682273 0.40041333 0.579546 0.3965065 0.21695644 0.5331077 0.55621797 0.5320611 0.32008314 0.34076154 0.53572905 0.5145165 0.5308694 0.5273107 -0.055925503 0.00014136732 -0.02049455 -0.053247727 -0.0586863 0.38556764 0.38800985 0.41698974 0.8109453 0.83422005 0.046500653 -0.096230336 -0.11715187 0.26670492 0.34491095 0.8197248 0.8226031 0.14234902 0.14253381 0.33830792 0.16595547 0.10697126 0.22990376 0.0307348 0.46082908 -0.408048 -0.16702856 -0.41466546 -0.32472688 -0.24165234 0.63028353 -0.111734115 0.17878644 0.38932675 0.62936044 0.6364187 0.3162808 0.19163352 -0.096045226 -0.16541108 0.47845113 0.55284286 0.59417593 0.31807476 0.40045702 -0.16884695 0.3953166 -0.23583321 0.51648974 0.51292825 0.43281496 0.5288192 0.5375983 0.5311056 0.44402376 -0.068013914 0.50239384 0.5336286 0.4426689 0.119456515 0.3717239 0.5996566 0.75863945 0.46580172 0.46008214 0.2514827 -0.14695458 0.7309352 0.7431302 0.26632804 0.07535422 -0.14619957 -0.04790187 0.71317035 0.6859975 0.18396261 0.12690543 -0.07914269 0.040528312 0.18400557 0.20584725 0.65583056 0.6499514 0.42678082 0.17681962 0.17999265 0.20424187 0.25366873 0.29338008 0.43172717 0.56513727 0.5961 0.25783598 0.25796798 0.21259013 0.27983725 0.3745473 0.46521878 0.3307152 0.25598225 0.105088815 0.32231858 0.20203762 0.2865002 0.3149684 0.3572737 0.3851192 0.36546996 0.2571372 0.3330552 0.28943413 0.3550285 0.4082842 0.7265321 0.7129213 0.6936264 0.6955037 0.6945847 0.66667235 0.6398593 0.58355284 0.6073866 0.53219175 0.57464653 0.4401952 0.36827168 0.43437713 0.051998958 0.11850771 0.026131973 0.072733015 0.051549125 0.84901667 0.86218536 0.8680219 0.86145437 0.15046895 0.13675894 0.12274416 -0.031886853 -0.12686343 -0.07889837 -0.08598275 -0.112100095 -0.11940499 -0.065199755 0.36106062 0.8143705 0.8386606 0.8484833 0.83377993 0.12494569 0.13385807 -0.0133023225 0.31891328 0.30450553 0.7734114 0.8172264 0.0577354 0.23077159 0.22389233 0.67403597 0.7371521 0.070338435 0.14625661 0.5962603 0.54202926 0.52847254 0.5428909 0.076403864 0.13844371 0.1747373 0.47793514 0.23740812 0.012358762 -0.016951017 0.46632916 -0.24150375 0.43328708 -0.07589762 -0.11716333 -0.20099619 -0.17029974 -0.18461537 0.51066834 0.11063576 -0.03458949 -0.16517651 -0.197341 0.21413486 0.48843193 0.52203286 0.4806794 0.25045243 0.19945657 -0.20078109 -0.114824444 0.29219556 -0.07696968 0.5409441 0.5423951 0.5165187 0.46610206 -0.12171887 0.49861097 0.51158655 0.40993178 0.45679855 0.46971935 0.30438972 0.50267655 0.40048057 0.4229189 0.5654631 0.59017175 0.3265521 0.27974796 -0.12975585 -0.28742778 0.6355331 0.21017914 -0.00079274364 -0.09703885 0.027788028 0.62324613 0.12339079 0.010743048 -0.068215236 0.15415478 0.1827445 0.56621194 -0.1339046 -0.06336765 0.14256498 0.16889557 0.23331869 0.28845197 0.34304065 0.4242311 -0.026552811 -0.057827115 0.08094091 -0.0089998245 0.2566017 0.2578017 0.0759158 0.1947115 0.384066 0.2040702 0.23130885 0.054547712 0.013033822 0.12780817 0.23943876 0.49072623 0.47782826 0.37766436 0.44197646 0.48254186 0.84988075 0.8552165 0.855493 0.76877886 0.81213725 0.8182929 0.82174766 0.71305835 0.7489329 0.72299993 0.7459086 0.6213082 0.68404734 0.6667637 0.7140856 0.70657897 0.6753974 0.6400804 0.61143386 0.6068431 0.49945843 0.3109622 0.298201 0.05123861 0.0978261 0.16076249 0.047952093 0.106709 0.096875645 0.07379395 0.016012374 0.12326115 0.81282645 0.8741666 0.88360775 0.83511573 0.16311821 -0.048826918 -0.13110264 -0.10681838 -0.089354925 0.66739655 0.7248108 0.8082236 0.765864 0.16833761 0.7463444 0.22956818 -0.02890246 -0.02980414 0.091462135 0.6072769 0.25569052 0.1227754 -0.06041041 0.36135665 0.49921376 0.50440204 -0.03658252 0.35519508 0.35148078 0.43425918 -0.01628496 0.05307363 -0.06804883 0.16476554 -0.10687695 0.15280999 0.27274558 -0.021495398 0.38080916 0.35143173 0.015712334 0.41320753 0.43060026 0.4012462 0.16941264 0.07755254 0.011763386 0.701432 0.6630236 0.6063268 0.14196937 -0.05131926 0.057458397 0.63069665 0.5764367 0.5197944 0.5261163 -0.13742106 0.4533863 0.4308078 0.14670227 0.2704491 0.35468578 0.33904237 0.30209064 0.22780237 0.5445227 0.1558435 -0.056047585 0.60029006 0.12683792 0.09759188 0.01686003 0.4374016 -0.051462233 -0.41739598 -0.017938852 0.161255 0.2519954 0.09523267 -0.008531209 -0.22865956 0.023912765 0.054034702 0.098150685 0.29333186 0.29283914 0.15068251 0.07192791 0.36254048 0.37107074 0.34362552 0.27679488 0.22540534 0.31605083 0.08502621 0.07864852 0.08772334 0.026592992 0.029571414 0.10647726 0.50239325 0.15446965 0.22712117 0.36158603 0.43398672 0.48378617 0.50302434 0.90019435 0.86408293 0.8497944 0.84044135 0.86066616 0.84569085 0.8580271 0.85884094 0.8499493 0.7897078 0.77506703 0.807343 0.78507566 0.6468668 0.6110098 0.7217903 0.6851488 0.47765964 0.5819848 0.6164022 0.52293646 0.59405655 0.6283202 0.64886403 0.64876217 0.6409409 0.45754796 0.42706957 0.50321656 0.502949 0.60861015 0.65529674 0.6223366 0.6211941 0.53267205 0.343678 0.6769915 0.24921063 0.07835328 0.10397805 0.27673692 0.39390987 0.58649224 0.73736596 0.19155547 0.046405103 -0.028317712 0.17091411 0.22020924 0.5169269 0.7570369 0.8169106 0.69248366 0.82264775 0.84648836 0.8025751 0.20296606 0.7961293 0.56969845 0.6330104 0.73982507 0.72132146 0.25827366 0.47410876 0.6625604 0.27755237 0.2760497 -0.25180283 -0.14100185 0.35257652 0.52768517 0.275492 0.249295 -0.26785502 -0.22564346 -0.19002035 -0.17198643 -0.010336161 0.44789785 0.25517315 0.15631957 -0.16398065 0.39178324 0.38142848 -0.0032831877 -0.046158932 0.18136603 0.22553214 -0.11759255 -0.0559955 0.018693715 -0.035874605 -0.019825574 -0.2731352 0.069265395 0.15048549 0.10241985 0.3359047 0.17975822 0.3248721 0.7542174 0.7203665 0.68498135 0.08383221 0.049334735 0.76789784 0.7570499 0.69243026 0.6375724 0.6074892 -0.0032021627 0.014417827 0.055377845 0.730358 0.4761974 -0.068150945 0.035325702 0.047898047 0.6033195 -0.0011863429 0.4662766 -0.1702054 0.37779528 0.32359594 -0.023894042 -0.16655612 0.16048212 0.14633723 0.41502574 0.03116624 0.009637095 -0.22879806 0.025234357 0.20715854 0.4181592 0.09658037 -0.009628449 -0.44807434 -0.38980314 -0.22411643 -0.055361837 -0.020318687 0.33377117 0.29843724 0.2605961 -0.36974162 -0.10575233 0.031677254 -0.10369372 0.026265875 0.069678485 0.513476 0.40673786 0.40549666 -0.3228416 -0.21437135 -0.13750361 0.052438494 0.6007151 0.5175635 0.41055107 0.40698045 -0.10054171 0.007907547 0.08052954 0.14886072 0.23424882 0.48581818 0.43193117 0.4307102 0.3723222 0.31327724 0.25362107 0.12266092 0.08098017 0.0005913228 0.049374312 -0.12888566 0.020110182 0.07380975 0.13290294 0.179193 0.28340605 0.36794502 0.32121578 0.3015902 0.19412476 0.37243277 0.19822642 0.47699556 0.55555344 0.50939417 0.5014225 0.61685115 0.6590735 0.62849474 0.628315 0.7066608 0.90566874 0.9132538 0.93941176 0.87182933 0.8127202 0.79550135 0.88066924 0.8911991 0.79701155 0.70356345 0.82399106 0.77671325 0.6865103 0.716611 0.630464 0.6218283 0.5401485 0.44784874 0.52458775 0.5266523 0.55588543 0.6461935 0.65447384 0.6527923 0.4342498 0.44207197 0.43591386 0.46430653 0.4128663 0.4920215 0.63572717 0.37791944 0.38494888 0.3657808 0.3517076 0.39638126 0.43002105 0.5740006 0.33215818 0.30000538 0.28784657 0.22492573 0.11300026 0.5041523 0.68695915 0.8027432 0.8601675 0.27996114 0.24508914 0.19922346 0.024771154 0.083473936 0.0034638643 0.1325506 0.25322518 0.4431163 0.8096975 0.8741517 0.22956054 -0.0168216 0.8360776 0.6495538 0.6752449 0.7528724 0.6981052 -0.03332837 0.5623405 0.63889325 0.6324105 0.4347839 0.26942033 -0.38111842 0.3401047 0.5271074 0.27141494 0.2745867 -0.39533907 -0.11591328 0.32303667 0.25555402 -0.4066746 -0.123840906 -0.13360447 0.1314307 -0.15201384 0.023759011 0.17770953 -0.22710985 -0.09955726 0.06406311 -0.019224465 -0.1358788 -0.08607868 0.116667815 0.08703714 -0.048435308 0.12626114 0.7870525 0.75255847 0.6985003 -0.034287274 0.79361385 0.79966277 0.64765024 0.033452403 0.029522242 0.7718499 0.45320207 -0.13756207 -0.16823757 0.010420213 0.019875627 0.6642264 -0.45119593 -0.050792404 -0.007377166 0.48609674 -0.23817508 -0.054021034 0.41507238 -0.53049886 -0.19459903 0.048509277 0.20646182 0.34987438 0.39484572 0.0013483912 0.48760104 0.5333871 0.26436755 0.37224618 0.5212642 0.5284109 0.5100076 0.4042651 -0.050065245 0.11339551 0.32520828 0.45490146 0.48575932 0.62683153 0.55997795 -0.16853277 0.009448966 0.021636767 0.11022921 0.26491088 0.43447834 0.7059139 0.6675578 0.61312217 0.017929398 -0.05233606 0.23887198 0.27228475 0.19754341 0.12469528 0.70970535 0.65293455 0.57261926 0.49438232 0.4476559 0.37508518 0.30068517 0.25086993 0.16886568 0.14480492 -0.0048801973 0.074934244 0.1741283 0.30432057 0.35892147 0.35608664 0.07286133 0.12067649 0.22503297 0.37827504 0.41324115 0.40558168 0.025885295 0.035951626 0.03772089 0.4906895 -0.040644944 0.17598161 0.43135172 0.64525884 0.60647345 0.54607165 0.607317 0.71987927 0.66639423 0.6681822 0.716424 0.6892887 0.9142908 0.91485906 0.91568244 0.7819793 0.69709337 0.9052582 0.59705395 0.6697112 0.8782035 0.6235518 0.6059757 0.77616847 0.62161803 0.5352037 0.49790412 0.4855615 0.43778127 0.5347622 0.628826 0.6544424 0.65790546 0.3635412 0.3086281 0.31935924 0.4982632 0.6488185 0.3388738 0.11130303 0.36479676 0.5891379 0.6994933 0.7823926 0.32057884 0.31746835 0.3263515 0.04743889 0.36049238 0.37999976 0.5382986 0.68419105 0.795419 0.85487765 0.29628575 0.26948422 0.041332945 -0.008138269 0.008425519 0.17085233 0.23711652 0.8875003 0.24694756 0.24479708 0.2627316 0.8731687 0.2403022 0.23190132 0.19109504 0.65784186 0.49882346 0.5588871 0.5486747 0.5196365 0.13716164 0.059460662 0.38555163 0.42509487 0.5134596 0.49795818 0.2169644 -0.34932873 0.18468872 0.24725792 -0.4215078 -0.13203862 0.29896784 0.24004565 -0.34329915 -0.22360966 -0.119561024 -0.12224084 0.25125775 0.3440327 -0.03929435 -0.07310804 0.43414998 0.52096707 0.57478356 0.17359778 0.34653035 0.45492882 0.6187508 0.09220646 -0.1435855 0.012249031 0.09171882 0.2932545 0.48709455 0.12720208 0.11257042 -0.1812935 -0.17248607 0.16312699 -0.21599823 -0.19572341 0.7986634 0.7716844 0.7145231 0.20251474 -0.06183227 0.80806744 0.8093467 0.7823461 0.673836 0.591281 0.78953505 -0.17015156 0.025248164 0.028632322 0.679061 -0.09014553 -0.29337162 -0.037057642 0.017438302 -0.044572096 -0.018093862 0.38125426 -0.10897578 -0.04530823 0.19180815 0.10811366 -0.04557308 0.4202855 0.47208637 0.034459446 0.5300746 0.15846391 0.5301975 0.51575315 0.5371644 0.49296433 0.668077 0.27777594 0.42270234 0.45249084 0.72562253 0.1976088 0.17370205 -0.31849653 0.15905748 0.29596603 0.4016825 0.7409047 0.7543766 0.73428005 0.67145216 0.54741704 0.48173112 0.34874484 0.2770482 0.23256446 0.1290405 -0.24954598 0.36971068 0.3400597 0.01825023 0.012029469 0.44387728 0.4475813 0.41560462 -0.2091119 -0.097508825 0.41074657 -0.122597635 -0.07599582 0.1003845 0.50896674 0.14444152 0.5588743 0.56179714 0.57035255 0.67794454 0.6769911 0.58549595 0.9106395 0.8927319 0.8475055 0.7319343 0.91077787 0.894001 0.81118184 0.5817024 0.4996032 0.5260825 0.8991953 0.47634697 0.8281224 0.4299866 0.5734464 0.3541353 0.636782 0.39704633 0.1374999 0.34266308 0.41043323 0.49584317 0.5946823 0.62984705 0.32491937 0.18452787 0.22575441 0.5825921 0.71488076 0.7543081 0.28572878 0.3042408 0.21506272 0.32025793 0.44627512 0.6439898 0.79452515 0.8328024 0.25851268 0.2435981 0.026845053 -0.018457234 -0.036109872 0.022525214 0.85489917 0.17534027 0.2223336 0.22111097 0.84831893 0.19987564 0.21476334 0.20781893 0.45296514 0.52919096 0.43403113 0.18571767 0.095739886 -0.10733694 0.21109249 0.39734602 0.3936445 0.38369012 0.1099532