# vtk DataFile Version 2.0
Really cool data
ASCII
DATASET POLYDATA
POINTS 7917 float
-8.663758 24.276413 37.0698
-8.66655 24.01634 52.60627
-8.699894 24.012493 53.580322
-8.610356 24.017406 54.181313
-8.596356 24.888374 36.21752
-8.733146 24.724455 36.73836
-8.739343 24.714539 37.320347
-8.684868 24.585722 52.011936
-8.819594 24.516459 52.60113
-8.886598 24.64334 53.536915
-8.795973 24.631565 54.39401
-8.698332 24.886284 54.929718
-8.6278305 25.013891 36.24971
-8.744512 25.303877 36.719357
-8.752306 25.288837 37.302155
-8.581538 25.119217 38.004387
-8.694091 25.110744 52.005207
-8.814034 25.329403 52.67466
-8.848689 25.657736 53.482594
-8.902387 25.543531 54.420845
-8.727065 25.529755 54.98086
-8.597628 25.737444 37.008217
-8.604695 26.951113 44.573208
-8.633895 26.926743 45.696342
-8.702966 26.778553 46.49747
-8.753444 26.918335 47.104446
-8.630317 25.94825 52.827904
-8.701135 26.089977 53.82633
-8.708079 26.120495 54.474693
-8.714039 25.936367 54.834995
-8.616823 27.359049 44.569004
-8.693558 27.275702 45.29453
-8.8424225 27.371614 46.6773
-8.741377 27.628748 47.35147
-8.607954 27.913036 44.803257
-8.670181 28.2749 45.713318
-8.807969 28.367456 46.58721
-8.728627 28.345367 47.212112
-8.621818 28.89188 46.57356
-8.570772 28.936043 47.02765
-7.8086224 23.234472 52.098145
-7.890053 22.854586 52.69122
-7.891329 22.70477 53.383343
-7.9461827 22.974323 54.144432
-7.9339733 24.066387 35.911613
-8.368941 24.133713 36.710155
-8.2760315 24.051943 37.512558
-8.00527 24.206873 38.38583
-8.280359 23.878181 51.957924
-8.332555 23.566563 52.484196
-8.4176 23.470655 53.40045
-8.355763 23.841362 54.57204
-8.016836 23.895126 55.10442
-7.6778064 24.746462 34.944855
-8.13304 24.455132 35.80928
-8.536579 24.42316 36.474644
-8.313302 24.68382 38.33503
-7.9169736 24.768501 38.78751
-8.02235 24.60565 51.278698
-8.377671 24.490711 51.636135
-8.381397 24.611727 55.26209
-8.048184 24.680159 55.68311
-7.7310863 25.171133 35.03359
-8.396873 25.183496 35.937183
-8.531154 25.5016 36.312885
-8.528192 25.66916 37.652313
-8.425196 25.202961 38.26188
-8.044986 25.306034 38.759113
-7.9387093 26.372587 44.108894
-8.035158 26.227669 44.58876
-8.236243 26.296558 45.42799
-8.191231 26.234646 46.644432
-8.001434 26.151295 47.065628
-7.8703713 25.091475 51.23362
-8.335442 25.297047 51.58758
-8.437355 25.505001 55.39033
-7.9887204 25.55821 55.69557
-7.8671484 25.997347 35.78574
-8.275977 25.911959 36.57145
-8.39288 25.884663 37.444927
-8.201064 25.845608 38.100246
-8.053868 26.686346 43.894127
-8.413641 26.65279 44.580826
-8.322998 26.42384 45.34406
-8.541921 26.521967 46.761097
-8.298402 26.512028 47.291275
-8.187647 26.635794 47.74597
-8.399035 25.759636 52.072285
-8.116753 26.105923 52.586056
-8.401024 26.330246 53.65737
-8.488409 26.381577 54.55468
-8.252937 26.1037 55.2528
-8.237741 27.34558 43.88823
-8.486133 27.49491 44.29202
-8.274111 27.547789 48.024223
-8.113746 26.607244 53.975132
-8.056389 26.650496 54.62149
-7.91908 28.250359 43.80003
-8.311643 28.315607 44.600197
-8.457506 28.321619 45.53146
-8.48543 28.69526 47.531136
-7.769026 28.101608 48.481388
-7.7359023 28.947289 44.16422
-7.913521 28.879166 44.387043
-8.213571 29.00088 45.581623
-8.280737 29.29129 46.47998
-8.309733 29.254112 47.1477
-7.751006 29.065908 48.226387
-7.8306417 29.731522 46.320667
-6.909635 22.185356 52.1957
-7.161313 22.01303 52.82243
-7.2983623 22.040003 53.429325
-7.111882 22.101973 54.041687
-7.3577967 22.827534 51.910275
-7.5201154 22.533855 52.450623
-7.383396 22.40558 54.2051
-6.9486117 23.034466 55.081467
-7.101898 24.125559 34.799316
-7.3942714 23.822762 35.670826
-7.531682 23.620024 36.541077
-7.307221 23.567072 37.343067
-7.475404 23.780045 38.161827
-7.574508 24.2727 38.72
-7.22648 23.664614 51.36182
-7.559042 23.771288 51.451485
-7.181229 23.30864 55.326458
-7.1859694 24.166918 55.91904
-6.938159 24.78954 34.164413
-7.400796 24.741583 34.623924
-7.635593 24.593859 38.898277
-7.6877327 24.78654 51.197906
-7.5719213 24.695524 55.883606
-7.469929 25.101278 34.583897
-7.1864767 25.567057 38.982708
-7.529633 26.029503 44.59311
-7.27137 25.893112 45.649822
-7.529651 25.903305 46.4379
-7.4551277 26.092972 47.314163
-7.699677 25.329681 51.276653
-7.516562 25.378231 55.902847
-6.7479024 27.185705 32.20952
-7.34107 26.505411 36.723244
-7.3795066 26.531652 37.611755
-7.689084 26.160849 38.237522
-7.089729 26.124355 38.705826
-7.040367 26.836506 43.49344
-7.351095 26.757273 48.254597
-6.902826 27.142693 48.988525
-7.653074 26.206339 52.14796
-7.7498937 26.434319 52.89047
-7.871321 26.50364 55.0992
-7.8349314 26.013605 55.61734
-6.7891693 27.844158 31.265812
-6.8671794 27.676628 31.514877
-7.087259 27.670244 32.46576
-6.823807 27.356327 33.120422
-7.281473 27.939121 34.24622
-6.8158603 27.390354 35.40993
-6.8931513 26.749596 37.267094
-7.6073756 27.589857 43.428646
-7.6898317 27.670305 43.458794
-7.3978295 26.766085 54.000767
-7.5192456 26.733543 54.420868
-7.4681673 26.638636 54.84442
-6.8643847 28.54278 31.246603
-7.080702 28.532345 31.724867
-7.188791 28.412054 32.44493
-7.255478 28.307497 33.491608
-7.2454615 28.429699 34.61991
-7.060736 28.630135 35.106625
-7.127417 28.223843 43.26457
-7.1882596 28.558481 48.872517
-6.705909 28.98329 31.170307
-6.8073387 29.369019 31.64118
-6.850721 29.476381 32.524746
-6.9714375 29.317421 33.24819
-7.0603085 29.30139 34.489655
-6.8299785 29.20551 35.20493
-7.3916626 29.502525 44.70094
-7.5875154 28.833164 48.336494
-6.723097 29.042305 49.56407
-6.607085 29.531702 50.37176
-6.711255 29.809132 32.181004
-6.680278 29.959627 34.321392
-6.993447 30.06011 44.73267
-6.894205 30.282871 45.371265
-7.508097 29.9766 46.754505
-7.1814814 30.104181 47.344826
-6.609911 30.592037 48.442814
-6.7094135 30.440922 49.506283
-6.641069 31.447691 50.689163
-6.635618 31.678549 51.711388
-6.619439 31.586197 52.089172
-6.6459217 32.212364 51.634346
-6.528642 32.380596 52.173836
-5.587358 18.114126 44.186836
-5.677245 18.534775 43.693295
-5.659941 18.570473 44.26312
-5.6300697 19.467428 43.5584
-5.634329 19.414534 44.1668
-6.1849074 22.213617 51.969074
-6.7665925 21.874226 52.679054
-6.616865 21.725609 53.28981
-6.5099277 21.96749 54.177517
-6.4160824 23.43295 35.496265
-6.52683 23.243996 36.47144
-6.0917025 22.841887 51.27999
-6.612951 22.40269 51.874416
-6.4359164 22.643885 55.140255
-6.390839 24.171345 34.19425
-6.5514174 23.986904 34.550526
-6.4687576 23.515745 35.49978
-6.4837613 23.583328 38.20855
-6.46559 23.554312 51.205173
-6.6662774 23.82365 55.795647
-6.5202265 24.671251 34.025402
-6.4568896 24.416285 39.13267
-6.3567605 24.623783 51.10631
-6.662337 24.44257 56.10208
-6.218843 25.837936 33.887405
-5.8619814 25.196793 39.3864
-6.3820596 26.185072 44.37285
-6.458798 25.686697 45.36136
-6.1392555 26.017076 47.245632
-6.305717 26.336647 47.903297
-6.577464 25.439932 51.394325
-6.719578 25.252262 56.19959
-6.1349506 27.032742 31.430252
-5.9698544 26.74206 32.14971
-6.545461 26.893972 33.539608
-6.5505886 26.321997 38.461914
-6.226059 26.573627 43.77311
-6.242078 26.64046 49.17716
-5.8725686 26.593674 50.580685
-6.365635 26.486021 54.805225
-6.6208377 26.247372 55.3628
-6.293234 27.449404 31.052202
-5.5416474 27.557232 38.91326
-6.4892654 27.80392 42.94763
-6.3403935 27.865984 50.10723
-5.689214 27.752295 51.662827
-5.898047 26.793753 53.87294
-6.707996 26.566427 54.290253
-6.3235774 28.470434 30.77793
-5.6582475 27.84641 36.89808
-5.705982 28.818607 39.20994
-5.6330194 28.779982 40.29197
-6.5057945 28.772654 42.867928
-6.4328504 28.871382 50.421963
-6.3779025 29.437286 31.065012
-6.4638853 29.575464 31.299067
-6.448851 29.619272 35.40528
-6.0743318 29.04004 36.087845
-5.6210303 29.59384 40.552917
-5.9940143 29.592123 41.78052
-6.330229 29.672258 42.535553
-5.962665 29.609898 51.563602
-5.9984345 29.772608 30.981417
-6.238816 29.999262 31.487247
-6.475023 30.053844 32.437077
-6.233852 30.327581 33.65459
-6.2808495 30.301224 34.54229
-6.3413334 29.993773 35.096313
-5.56433 30.16837 39.984432
-5.9523673 30.392593 42.148476
-6.2284727 30.328651 42.702248
-6.335949 30.399973 43.424747
-6.5238786 30.339764 44.536747
-6.6856065 30.493208 45.43252
-6.4189763 30.686903 51.560646
-6.1584473 30.814548 52.316425
-5.868614 31.054026 53.37431
-5.8958044 30.785484 42.594093
-5.9943066 30.862633 43.572124
-6.166477 30.717258 46.37517
-6.2740173 31.224073 47.952637
-6.3966064 31.240538 48.95342
-6.437315 31.252443 51.560913
-6.4368296 31.445448 52.399902
-6.093352 31.647173 53.237076
-5.758086 31.477463 53.840862
-5.962076 31.79176 48.760273
-6.013903 32.02072 49.465324
-6.3247347 32.447002 50.706905
-6.487361 32.612988 51.510838
-6.4183316 32.437916 52.442226
-5.983527 32.396893 53.250454
-5.6875386 32.151154 53.707405
-6.0835605 32.986767 51.062218
-6.17123 33.092007 51.703617
-6.184 33.025944 52.22549
-5.8960705 32.989258 52.874477
-4.572987 16.12766 37.942513
-4.736382 16.773472 37.66595
-4.7956533 16.813044 38.458714
-4.6940117 16.840292 39.40324
-4.8474994 17.413437 43.586357
-4.7651443 17.500563 36.82934
-5.025304 17.75165 37.474537
-5.009729 17.79208 38.48117
-4.934298 17.643723 39.35574
-4.5807657 17.958073 40.40964
-4.865036 18.01811 42.830616
-5.3030653 17.79158 43.687172
-5.2525506 17.778585 44.337185
-5.1913133 17.955856 44.771038
-4.886936 18.288553 36.775944
-5.1237307 18.614714 37.54515
-5.192119 18.606438 38.42427
-4.7722397 18.261822 40.28473
-4.6733117 18.396696 41.812992
-5.4578543 18.405165 43.09879
-5.5383515 18.425558 44.527046
-5.1888766 18.681519 45.00973
-4.7913527 19.231422 36.67733
-5.1808567 19.368929 37.745335
-5.2165656 19.336014 38.57543
-5.262043 19.49928 39.444645
-5.0702467 19.73107 40.714283
-4.8924356 19.409607 41.531082
-5.3146667 19.360786 42.74396
-5.4477243 19.409021 44.60847
-5.174412 19.431116 44.970814
-4.7953835 20.056696 36.910774
-4.9952927 20.245098 37.51708
-5.24551 20.31956 38.719597
-5.1814375 20.654125 39.320946
-5.231484 20.726334 40.496914
-5.1379695 20.544676 41.122543
-5.1290083 20.047628 42.896763
-5.3608894 20.00313 43.675045
-5.16149 20.154442 44.599133
-4.615427 20.799837 57.637894
[...]
POINT_DATA 7917
SCALARS features_00 float 1
LOOKUP_TABLE default
0.76237905 0.67755246 0.6763742 0.67402613 0.6807232 0.72869766 0.7846098 0.71346533 0.73227733 0.75982296 0.7527883 0.762184 0.68658316 0.72959733 0.7773323 0.8302065 0.74712557 0.77476513 0.77716506 0.7956989 0.78986526 0.73823607 0.6617762 0.6289788 0.6141287 0.62965864 0.7457731 0.75886416 0.7775542 0.78880584 0.65262604 0.6382385 0.6457295 0.6614826 0.609797 0.57597756 0.5918341 0.60802543 0.525131 0.53443027 0.57894075 0.58507407 0.59211177 0.5858673 0.61699784 0.71689326 0.813588 0.81831205 0.640412 0.630857 0.6270851 0.64292663 0.6160238 0.534711 0.62052864 0.6924144 0.8388407 0.7971033 0.6439218 0.67661184 0.7138542 0.6753659 0.5231626 0.6533042 0.6859481 0.7893332 0.8343397 0.79580176 0.6757128 0.64165276 0.59873796 0.5612875 0.5368218 0.65505064 0.72051716 0.7726251 0.7437886 0.5842217 0.688009 0.756717 0.78401124 0.68344426 0.6602936 0.6131383 0.59756696 0.58521473 0.58548844 0.74285656 0.7160011 0.7284043 0.7583764 0.77093005 0.6601778 0.6502744 0.6349984 0.7013746 0.7149151 0.5700952 0.5665916 0.5596932 0.56516075 0.49627912 0.45033926 0.47544795 0.46063888 0.45547062 0.49120802 0.45531577 0.3620681 0.47579932 0.53743076 0.5671238 0.5349637 0.51997113 0.55080765 0.54308987 0.44101232 0.5157318 0.58185554 0.66229916 0.7429982 0.7777213 0.76845086 0.5314369 0.5681367 0.46703607 0.4885729 0.40457493 0.48381078 0.7598195 0.6177043 0.6079345 0.4440051 0.6575931 0.6144842 0.49620146 0.48516893 0.46780384 0.6504508 0.6788547 0.43495876 0.5484275 0.61726844 0.71475434 0.6235182 0.6174358 0.49279827 0.35554764 0.68092287 0.66623217 0.7227681 0.75033617 0.57445323 0.55493796 0.5441397 0.44503778 0.44798732 0.19419739 0.43049407 0.61981165 0.61690915 0.6021631 0.6381314 0.65555 0.5975632 0.6108726 0.6122961 0.56264555 0.42366278 0.38890442 0.50436556 0.29772276 0.5757966 0.57356375 0.57312894 0.5574192 0.47414476 0.42446595 0.33035135 0.44202313 0.10232727 0.11626373 0.5487151 0.46877712 0.2373347 0.22732177 0.29817268 0.2578855 0.17654023 0.24271071 0.41433737 0.48311096 0.48114756 0.50939846 0.52210164 0.6591759 0.6284934 0.65889764 0.52704895 0.5970893 0.38433886 0.48770553 0.51568663 0.47573113 0.48439252 0.5421599 0.3800691 0.43374312 0.37221003 0.40731502 0.46632987 0.49369544 0.66876423 0.45220774 0.37487015 0.3604235 0.5594071 0.442922 0.39577162 0.11316127 0.34612155 0.46215197 0.40895414 0.21419165 0.2443701 0.48330486 0.49844795 0.4008514 0.27754968 0.27571115 0.4670993 0.4088355 0.074854776 -0.13800219 0.41480914 0.5628798 0.50188255 -0.05585072 0.45013642 0.039985992 -0.022000931 0.15205279 0.48924974 0.56561196 -0.19307527 0.15726529 0.18168594 0.34957063 0.018171974 0.5357479 0.54158515 0.4116962 0.2874269 0.1652615 0.13891295 0.21859244 0.16687024 0.4817003 0.49765354 0.518622 0.45115417 0.42000616 0.4125818 0.24852799 0.24031264 0.26462817 0.26293474 0.2043058 0.19917226 0.34839687 0.38837808 0.40931028 0.2923303 0.26090994 0.13408542 0.08785433 0.17196661 0.43174568 0.46798623 0.47203153 0.42736024 0.11811455 0.19310379 0.42934012 0.5051812 0.52276736 0.5038358 0.46584022 0.42460418 0.48311347 0.50829214 0.49793804 0.32557628 0.3564872 0.30058676 0.21736759 0.52268934 0.38965935 0.37894773 0.31873292 0.23908478 0.13025135 0.46230912 0.6027258 0.64423037 0.638388 0.39862862 0.393568 0.33261982 0.15101117 0.19319999 0.5598299 0.66089433 0.61935294 0.3720006 0.3844421 0.31471616 0.23228785 0.15165873 0.14076704 0.40324813 0.61753654 0.59703684 0.34932092 0.37554744 0.2728526 0.21290752 0.18381943 0.15198326 0.26925474 0.41064626 0.4684763 0.58756196 0.61522555 0.23287843 0.19152017 0.16835958 0.10115057 0.021353122 0.038840294 0.08170239 0.33916408 0.5071578 0.45827296 0.39582455 0.21641606 0.27325806 0.34589717 0.31010047 0.41941267 0.4053598 0.12671879 0.13253196 0.040728897 0.14355493 0.37747547 0.4729407 0.46692592 0.42838663 0.25820026 0.25206655 0.09410496 0.11187185 0.33648166 0.03948665 0.054936998 0.2499108 0.4125976 0.3920341 0.35615075 0.121065035 0.19624072 0.20581143 0.30086154 0.16678752 -0.093398884 -0.38003075 0.11244684 -0.13325702 0.14127211 0.03822913 0.12345131 -0.04690735 0.18611988 -0.119505435 -0.15296246 -0.34808207 0.26187193 0.25490066 0.17491755 0.20744772 -0.17671108 -0.2624758 0.12591243 0.13828108 0.37194598 0.39943588 0.4729674 0.38622656 0.4699065 0.054531828 0.16825733 0.121317 -0.14801338 -0.061006755 0.049608707 0.35857713 0.47234136 0.5032283 0.5117929 0.43647927 -0.11378504 0.09957485 0.14361691 0.35221404 0.50748396 0.53998566 0.5266556 0.44174933 0.19743976 0.20191094 0.27416983 0.28714377 0.50105643 0.5604868 0.5230875 0.4094764 0.3822407 0.29960853 0.06513503 0.34479833 0.27838233 0.21658804 0.3028382 0.33658832 0.30554587 0.4196976 0.5456837 0.5096519 0.3220917 0.31329086 0.33174056 0.32315397 0.35758758 0.34576237 0.2790382 0.30312926 0.24235055 0.19314551 0.09573823 0.37430146 0.39762712 0.49434203 0.48298943 0.31709093 0.3178 0.28533033 0.04838547 0.08399548 0.46967435 0.3518832 0.4148919 0.14761612 0.1932414 0.44770914 0.3868657 0.22265929 0.3471099 0.2774979 0.31152058 0.32615066 0.27164215 0.17892802 0.12664358 0.3361394 0.3728458 0.25403237 0.22532164 0.12977952 0.2424159 0.50891227 0.35355043 0.38105935 0.036959875 0.37471074 0.600768 0.54806405 0.3166659 0.49686074 0.39304975 0.7789639 0.82805836 0.8450724 0.28764683 0.29594052 0.47888988 0.46103764 0.6839521 0.78300244 0.8204174 0.8327715 0.80353093 0.2745197 0.33019215 0.17861623 0.23131208 0.71725875 0.7225172 0.67442834 0.6159725 0.23977336 0.33872488 0.33057767 0.17333283 0.12972268 0.16083634 0.48609346 0.46683747 0.4435049 0.31774893 -0.10088434 -0.06889948 0.32363832 0.13575816 -0.036922142 0.11483682 0.31271148 0.38849732 0.41418234 0.42225674 0.40454522 0.30848518 0.125318 0.044815708 -0.07277565 -0.019241441 -0.030268257 -0.118702635 -0.12258756 0.2384589 -0.17147776 0.33212373 0.35105634 0.32261455 0.15515049 -0.3048128 -0.33206823 -0.36412117 -0.1349617 -0.03154511 0.018972062 0.09142108 0.27330822 -0.3364361 -0.52874845 -0.27810392 0.18222502 0.186949 -0.41723964 0.33800486 0.46059114 0.11548038 0.15477386 -0.06228049 0.4939493 0.4748329 0.22491091 0.5116201 0.46273202 0.16320857 0.115597084 0.10677754 0.44024605 0.20761362 0.21779488 0.2504357 0.45733166 0.4223661 0.15268083 0.13612764 -0.004031647 0.20881781 0.24371926 0.08724284 0.18151093 0.1444418 0.23043254 0.16772895 0.36426634 0.47067514 0.41923434 0.23871836 0.2379297 0.25503275 0.093793124 0.08240032 0.19693772 0.2685839 0.37785563 0.40822646 0.42036998 0.40740493 0.15305457 0.14316401 0.08033022 0.04450758 0.0743612 0.3140352 0.32485536 0.29773384 0.09115182 0.044720385 0.09751967 0.16486317 0.23692077 0.10155909 0.18847275 0.32690865 0.46776408 0.13250063 0.16416965 0.16946891 0.13678004 0.4354831 0.47802645 0.49457514 0.45988232 0.49966788 0.51178193 0.38265163 0.43445867 0.58079845 0.5203309 0.8750851 0.7783508 0.618386 0.49762917 0.64133716 0.6169075 0.8782062 0.8689754 0.779403 0.67869294 0.56545025 0.6638043 0.64978874 0.83928347 0.8033924 0.7399133 0.6419778 0.7190797 0.47339216 0.56623906 0.57537514 0.39534658 0.502694 0.6363498 0.58153677 0.43511468 0.37052917 0.2868158 0.32720113 0.6340649 0.5638108 0.462044 0.39148813 0.2868786 0.35236922 0.2998801 0.28700417 0.42187297 0.35023832 0.5343674 0.5061598 0.45467567 0.38771802 0.25356543 0.2563963 0.26100883 0.24335986 0.36331984 0.55848897 0.56834483 0.5564437 0.44882527 0.120207675 0.19981737 0.18737768 0.16092405 0.18409105 0.13126068 0.34926665 0.38491866 0.6276157 0.6153445 0.5506408 0.07859331 0.2441688 0.10922444 0.0787662 0.09204042 0.18379994 0.322042 0.42022216 0.5977316 0.58533263 0.49995083 0.0407001 0.27727097 0.24553916 0.20121013 0.4114354 0.19790284 0.3600431 0.7563028 0.7692672 0.15912315 0.28263712 0.62716824 0.71775913 0.7822694 0.81113994 0.8100799 0.1484246 0.1568703 0.21099642 0.21663463 0.4697612 0.7915487 0.1224952 0.14658213 0.19445148 0.2038227 -0.061786886 0.6041601 -0.04700017 0.21807502 0.35089612 0.390706 0.46672556 0.4751705 0.44882673 0.3761695 -0.247863 0.42992505 0.45154494 0.56694716 0.6234198 0.33422178 0.3723946 0.6153091 0.66186833 0.67234313 0.26275858 0.66603684 0.6824001 0.20611715 0.39700925 0.58155024 0.51495194 0.47608334 0.12894815 0.3906689 0.5635561 0.52238715 0.46422744 0.07209438 0.39390343 0.5000615 0.4554038 0.3142916 0.031733952 0.3640368 0.068225384 0.13869573 0.3045405 0.07638726 0.123897664 0.15129359 0.070097424 -0.021296121 0.056513786 -0.23679394 0.27902082 0.24731612 0.07635317 -0.009920284 -0.057413206 0.14231461 0.030345097 0.03775543 0.30331847 0.3257097 0.18606964 -0.11136103 0.039535303 0.12878966 0.037861593 0.028041927 0.12195856 -0.12059422 -0.05596542 0.184284 0.14943501 0.2545492 0.30768785 0.16078408 0.06794308 0.026427506 -0.03936043 -0.05268338 0.16106418 0.24132583 0.44213784 0.08475484 0.108251706 0.14878549 0.090406775 0.088832885 0.070632756 0.072046846 0.07187048 0.50163215 0.47790682 0.5072596 0.048536465 0.014699355 0.15326187 0.13976356 0.13261417 0.34440997 0.49927878 0.49484354 0.4768595 0.2658956 0.54899544 0.5543897 0.39652616 0.16971359 0.2120102 0.1680832 0.24181418 0.38481253 0.4441781 0.47135752 0.47203803 0.71784234 0.4181491 0.4005111 0.3795926 0.3579309 0.45535064 0.5312684 0.5226805 0.4678652 0.30384776 0.24295339 0.37562865 0.42035252 0.433375 0.8259666 0.8167858 0.5414028 0.46123797 0.46500188 0.5905351 0.62050605 0.5923256 0.5917033 0.5701709 0.8228451 0.8560655 0.5409607 0.523477 0.51327133 0.63437253 0.6971966 0.69055295 0.654319 0.5979853 0.82558393 0.7828353 0.6557268 0.61410964 0.5426558 0.52686393 0.52287525 0.72219205 0.7048456 0.6774831 0.78540754 0.74054956 0.6665014 0.56604975 0.50184464 0.4895427 0.5323779 0.53505147 0.39206648 0.4888144 0.5316267 0.534135 0.4310868 0.47234005 0.46258503 0.3387104 0.5195334 0.19266248 0.31259692 0.37527514 0.27557942 0.43064934 0.3647167 0.14927582 0.34300035 0.34783685 0.290506 0.31086516 0.15881974 0.3345924 0.3026364 0.33399647 0.35323584 0.36550653 0.2511242 0.16239247 0.32598516 0.081661366 0.38013434 0.36967865 0.32488245 0.25303724 0.20764938 0.2950276 0.28341484 0.25940612 0.2851525 0.1636726 0.3093743 0.43096888 0.48071182 0.4526483 0.42058164 0.24102287 0.055539206 0.08939719 0.15499285 -0.04628844 -0.12503323 0.34231192 0.36390227 0.40226418 0.4908891 0.5300788 0.0005242191 0.105373144 0.10231517 0.42078555 0.4307217 0.4286661 0.58801717 -0.069279194 0.18410698 0.44010615 0.43812257 0.5591779 0.52807325 -0.070612736 0.39176306 0.3541564 0.12800866 0.698787 0.72660065 0.2163668 0.21247868 0.5222941 0.6363218 0.6505873 0.73450947 0.7534883 0.2096297 0.1377189 -0.07438266 -0.055465933 -0.057615433 0.1332989 0.19521037 0.14363387 0.101265185 0.010177743 0.46324793 0.7417389 0.074267015 -0.01812775 -0.067407675 -0.083320506 0.41219795 -0.09793609 0.36264575 0.43868703 0.45921123 0.39767605 0.33304918 0.20002183 -0.50920254 -0.5162159 0.040141102 0.23606375 0.25017625 0.48388284 0.58651066 0.3388561 0.044477634 -0.4918421 -0.016894244 0.51511765 0.6118496 0.6609421 0.6819917 0.269462 -0.12834817 -0.2036335 0.5234376 0.6842551 0.69044 0.33463004 0.25512078 0.25921077 0.24005657 0.17930005 0.34184778 0.5519728 0.6650007 0.6897731 0.69145393 0.5934932 0.48364493 0.42472064 0.31221873 0.29858035 0.6496 0.6369207 0.6069998 0.36996418 0.27796206 0.63736975 0.5948366 0.27680057 0.5590867 0.5150274 0.43727216 0.09135941 0.2258863 0.47597063 0.37762356 0.07741475 0.0034006732 0.033193834 0.22523892 0.059694055 -0.1289302 -0.004610628 0.26248562 -0.024674162 -0.15103878 -0.11685345 0.37814572 0.34159902 0.15776551 -0.0667126 -0.16196328 -0.09548296 0.023737699 0.0022397824 0.0037775077 -0.08728965 0.124336526 0.18647939 -0.26978552 0.2571809 0.087927915 0.4058296 0.33750018 -0.1493776 -0.15727992 -0.19090736 0.15759003 0.3312073 0.018208716 -0.055111684 -0.0660653 -0.13193393 -0.08368913 0.35339472 -0.11613121 -0.14268309 0.06075328 0.20540129 0.29012373 0.413262 0.39445335 -0.19634736 0.020509578 0.45681468 0.063406706 0.16710916 0.1345199 -0.049811 0.205375 0.38677335 0.47694802 0.5205126 0.48081863 0.42793226 0.29145652 0.23023105 0.17029658 0.24533895 0.48663732 0.57652116 0.57650274 0.5202397 0.0839797 0.14421645 0.25484428 0.4072418 0.6735356 0.7105894 0.26821986 0.27619648 0.529652 0.56538004 0.5765834 0.5394374 0.2962737 0.36522585 0.19027048 0.34310853 0.40273374 0.39441907 0.75344396 0.3392723 0.36885613 0.47248366 0.5080715 0.35795808 0.37821534 0.7977823 0.4891858 0.4760952 0.5866872 0.6233724 0.6424448 0.57916784 0.79217064 0.784667 0.50287557 0.49325955 0.6753425 0.7005915 0.66159725 0.6400008 0.7575617 0.70712924 0.57248133 0.45919776 0.44954604 0.4868983 0.46151653 0.35676134 0.45277178 0.46989906 0.4825456 0.31589085 0.39086476 0.47306955 0.5125948 0.52239704 0.5235007 0.23444006 0.33977905 0.5322442 0.52002347 0.14735104 0.29664785 0.49485037 0.4827206 0.49699765 0.37192357 0.40758532 0.07458928 0.18044625 0.20666796 0.22859514 0.23008507 0.19751786 0.28709167 0.32081547 0.3233205 0.17472786 0.088282466 0.063804165 0.30227757 0.2895653 0.25610283 0.23454925 0.16423646 0.10916513 0.16588217 0.020589538 0.405789 0.1808786 0.14832205 0.22470206 0.32627654 0.36048526 0.30634353 0.049251493 -0.37176573 0.38797235 0.39947882 0.37858915 -0.24132171 -0.45572805 -0.21327272 0.42830113 0.42343944 0.44552442 -0.12234272 -0.30478612 0.4162823 0.40866417 0.50204176 -0.1294603 0.370767 0.09697397 0.21175739 0.19164869 -0.17118332 -0.085722595 -0.04327756 0.16406344 0.14567898 0.09017207 0.43168378 0.54836875 0.58337617 0.50481164 0.55561 0.21279225 -0.09542275 0.12547468 0.116943285 0.07988786 0.4489171 0.50252753 0.56500787 0.6656288 0.13643678 -0.06439313 0.324457 0.40582356 0.5707159 0.67717934 0.7379014 0.7392719 0.7018414 -0.18116386 -0.048214182 0.15397824 0.7566873 0.76279116 0.7190461 0.5543611 0.32784042 0.28222156 0.17369391 -0.2875839 -0.38745183 0.17439657 0.27348432 0.76040304 0.76373184 0.66853654 0.520525 0.35375223 0.20319429 0.28960633 -0.005359445 -0.6799791 0.6343503 0.6723774 0.7285103 0.686236 0.36439002 0.23271829 0.19521685 -0.16561836 0.67533576 0.19675897 0.18794608 0.14029366 0.011054866 0.038079116 -0.21586613 0.30037266 0.67854726 0.6746179 0.22934705 0.12671797 0.27038732 0.6219326 0.6298823 0.27168018 0.25703514 -0.025060192 0.601328 0.53425044 0.44098598 0.004651077 0.019698922 0.4565318 0.46068937 0.31096685 -0.034903668 0.11188788 0.2871763 0.35055482 0.011831496 0.34973076 0.3672526 0.050532784 -0.5187528 -0.54858655 0.26410466 0.3186679 0.35698622 0.2987669 0.013294535 0.028141517 0.11028389 0.2492109 0.30128548 0.36945027 -0.13274458 -0.14187418 -0.18887573 -0.11988194 0.058524862 0.122519664 -0.110855505 -0.09554923 0.32068253 0.48122376 -0.013835698 0.26465246 0.5445981 0.1554974 0.037678953 0.33539551 0.51224697 0.52794147 0.45577475 0.09790373 0.21023011 0.029170208 0.1581384 0.26995835 0.7203431 0.6552391 0.403633 0.44123083 0.18710732 0.1811993 0.30286703 0.33830744 0.31539136 0.7627735 0.3895012 0.5499146 0.2679566 0.34402215 0.3372891 0.7817541 0.4171706 0.43194112 0.61587065 0.6546309 0.65561616 0.6056304 0.76480633 0.74605715 0.6121803 0.47076553 0.4009503 0.39329746 0.39254645 0.4229648 0.64911616 0.63764334 0.69172204 0.38858947 0.3816801 0.36948216 0.37203494 0.38351846 0.3920787 0.35728312 0.3545866 0.35111707 0.36696854 0.39574498 0.42825764 0.45247492 0.29543322 0.31949696 0.3303225 0.4726982 0.50800467 0.18558675 0.14850882 0.51650226 0.5134115 0.11132204 0.0039247572 0.4953307 -0.108664736 0.45245397 -0.13735403 0.19699083 0.3506771 0.17910147 0.13255012 0.18482867 0.09957415 0.14198232 0.16524354 0.1994449 0.0066414475 0.08740944 0.23446657 0.21745355 0.15751755 0.09608841 0.2626017 0.4695655 0.46001458 0.39147246 0.3108201 0.33839762 0.46998626 0.46645784 0.38606888 0.42090136 -0.50445265 0.4175161 -0.52727425 -0.3237221 0.4149098 0.051030375 0.15018266 0.2317125 -0.030498669 0.08180666 0.48900118 0.05686924 -0.039991215 0.101783976 0.15361413 0.12107116 0.060072795 0.006164495 0.04448991 0.23400539 0.45582774 0.4973075 0.5763842 0.6473327 0.105884716 -0.05914879 0.010146927 0.2483547 0.3865515 0.67505467 0.68513805 0.67642 0.6719454 0.70205367 0.7076905 0.688769 0.6359072 0.46398216 -0.3301299 -0.3258874 -0.30227575 0.588305 0.7068318 0.7333371 0.30563888 0.10271828 0.07394341 0.1365652 0.068535276 0.70210123 0.7253943 0.3326692 0.09368676 -0.022543669 -0.33698478 0.4938138 0.684304 0.66642076 0.5617682 0.22932479 0.018771216 -0.025361791 0.50667393 0.5636221 0.5784893 0.48146537 0.6106457 0.5330653 -0.07210528 0.045373395 0.0573927 0.43737262 0.4830622 -0.39546886 -0.06742942 -0.032463357 0.43276656 0.37259495 -0.2643285 -0.10963783 0.35183334 0.25905138 0.19543079 0.09005713 0.32261378 -0.023309346 -0.094724655 -0.1040943 0.3682782 0.3734659 -0.073596634 0.36479026 0.10258046 0.31175005 0.17666028 0.12088721 0.14031492 0.051050417 -0.07075776 0.5256225 -0.19698706 -0.09268759 -0.09570443 -0.02113529 0.013032831 0.28326032 0.6193826 0.6969368 -0.14376959 0.31516314 0.4173451 -0.014972515 0.532008 0.7362478 0.73980796 0.655562 -0.16878703 0.066150375 0.18461767 0.16195562 0.26172674 -0.022793904 -0.14723268 0.24466345 0.760677 0.7612237 -0.12995513 0.16281399 0.37732038 0.10803942 0.044585362 0.2659937 0.317107 0.78239286 0.26753998 0.25474566 0.12765361 0.20629671 0.32170832 0.55626523 0.59860986 0.49060643 0.3897897 0.76503086 0.6993516 0.6115509 0.44449815 0.33658135 0.30513006 0.23596737 0.28940433 0.39822525 0.40337154 0.48997518 0.599507 0.48743087 0.47523624 0.59636736 0.6650889 0.71518713 0.61214375 0.70220083 0.7432318 0.7907156 0.73956573 0.76993346 0.78915787 0.51017207 0.47145474 0.43998125 0.45475042 0.5537734 0.51235515 0.4028557 0.3996014 0.38463724 0.3996715 0.39508387 0.40653482 0.36866516 0.3805265 0.4515545 0.22055906 0.48300543 0.11737566 0.08891223 0.45393747 0.0061864406 0.009830967 -0.047701474 0.36419734 0.37431282 0.0894154 0.061699435 -0.029156173 0.23268315 0.29925197 0.17161824 0.09795645 0.09380458 0.04025279 0.07749099 0.018790001 -0.006715933 0.023793539 0.07271043 0.45284715 0.46669766 0.42575786 0.20234221 0.43305576 0.45826918 0.33159775 0.45447794 0.47523767 0.3789082 0.46730462 0.42257068 0.38167763 0.31718078 0.020319268 0.36276275 -0.13880038 0.39314997 0.42324758 0.4715221 0.3945182 -0.037228256 0.042417288 0.10392958 0.09618243 0.07433275 0.025771122 -0.10400038 0.50952435 0.59369355 0.6415936 0.3519072 0.4093626 0.42642498 0.44944054 -0.03268403 -0.17409852 0.65725875 0.6199151 0.6222254 0.5749223 0.48730314 0.34225082 0.35033417 0.43827957 0.4480389 -0.19243093 -0.27792695 0.60729384 0.6520241 0.66389567 0.30179608 0.28314814 0.094617 0.3669134 0.546102 0.66396433 0.0822448 0.009979967 -0.03485811 -0.15617807 -0.12931328 0.23125692 0.62947726 0.6153654 -0.22606584 -0.16105764 0.27501336 0.603194 0.55639553 -0.9496934 0.29765582 0.4425338 0.4156918 -0.9171436 -0.80956006 0.3495651 0.22909304 -0.70388556 -0.7335584 -0.5361376 0.32827917 0.18348359 0.28642362 0.30346027 0.14577097 0.31420276 0.17030416 0.21354054 0.26587397 0.34767866 0.4253236 0.04122628 0.029209252 -0.01333928 0.40470028 0.4549989 0.023093715 -0.017287515 0.40608203 0.46338964 -0.067797005 -0.035789564 0.30295342 0.114670984 0.065241486 0.07263037 -0.2033206 -0.11535714 0.25673565 0.43507153 -0.22475737 0.55225325 -0.1804594 0.69553053 0.68726057 -0.07639985 -0.2275287 -0.006056741 0.044927932 0.7785957 0.7373706 0.6313373 -0.16110581 -0.18657959 -0.053110927 0.1053593 0.16587031 0.17502892 0.33967388 0.62907064 0.7774773 0.8100802 0.7554711 -0.058643676 0.15752989 0.19140738 0.17915782 0.17585759 0.24169336 0.25112283 0.23496985 0.63108635 0.7580615 0.77353626 0.72775435 -0.018559182 0.11501551 0.31175232 0.30159563 0.116922945 0.20956007 0.25631246 0.24753688 0.70526713 0.56023186 0.31920373 -0.026704835 0.05823527 0.0002374202 0.05566189 0.24707067 0.32014126 0.5833473 0.28974247 0.3031362 0.30241477 0.07413228 0.43592256 0.796376 0.535623 0.56167036 0.8242947 0.6136712 0.70330393 0.75993156 0.80297