# vtk DataFile Version 2.0
Really cool data
ASCII
DATASET POLYDATA
POINTS 2034 float
8.350344 39.08891 40.792618
8.327332 38.92847 42.620808
8.228597 39.049328 43.361
8.430869 39.628002 40.54059
8.295011 39.570255 41.24032
8.151816 39.597816 42.61008
8.158908 39.45913 43.444077
8.380769 39.363064 44.08185
8.400721 40.184044 41.14368
8.24267 40.480343 42.85558
8.181209 40.203953 43.202732
8.381399 40.06983 44.069122
9.41737 30.931921 38.83043
9.396854 31.022196 39.250328
9.313589 32.017494 25.078419
9.303704 31.808264 25.505562
9.405604 31.88784 26.17449
9.399582 31.456694 38.655365
9.394928 31.304731 39.37167
9.284494 32.38478 24.915651
9.168186 32.578964 25.46034
9.255666 32.47374 26.094269
9.202056 33.055756 25.594942
9.304491 32.934032 26.086683
9.290766 37.951782 40.209
9.047157 38.09612 40.61156
9.062929 37.933002 41.70948
8.966868 37.976536 42.55543
8.689776 38.28008 43.331974
9.081544 38.11654 44.027905
8.967685 38.839428 40.000202
8.720014 38.667416 40.55652
8.671006 38.341305 41.629345
8.529713 38.400055 43.54089
8.895563 38.66614 44.320045
8.844545 39.551067 39.908978
8.521791 39.413334 40.45619
8.643689 39.65426 44.36333
9.047886 39.53056 44.667976
8.940712 40.271687 40.04427
8.643129 40.379673 40.54818
8.444191 40.563004 43.65852
8.81134 40.30109 44.293816
9.125567 39.93697 44.755722
9.0732565 40.746807 40.505966
8.460565 40.703472 42.424427
8.912494 40.987957 43.59058
8.928155 40.86121 43.93193
9.953034 30.138432 38.072224
9.930601 30.121742 38.515778
10.012505 30.116243 39.36058
10.046087 30.869183 24.982138
9.808979 31.03111 25.3919
9.911141 30.93366 25.940022
9.801508 30.688942 37.87233
9.690886 30.436172 38.522995
9.608258 30.698112 39.374203
9.97038 30.789192 39.97256
10.281952 31.870275 23.774406
9.593626 31.393614 25.0988
9.426997 31.512737 25.751108
9.619843 31.538397 26.309845
10.161167 31.58459 27.053707
9.734068 31.43559 37.88145
9.539774 31.73492 38.327557
9.518325 31.356314 39.713303
9.853992 31.623991 40.122074
10.337823 32.82896 23.046558
9.924646 32.579506 23.71589
9.478688 32.328487 24.629208
9.456758 32.4297 26.436415
9.734486 32.235348 26.802654
9.7042675 31.933025 37.97662
9.731375 32.342823 38.562782
9.618293 32.1167 39.519115
9.870082 32.370605 40.038433
10.347488 32.759663 41.00359
10.049159 33.570225 23.214527
9.75134 33.633644 23.712036
9.503784 33.438194 24.670887
9.493015 33.60947 25.497334
9.951281 33.571465 26.241339
10.38686 33.190804 37.996414
9.974348 32.882736 39.766132
10.39803 33.058567 40.99983
10.165235 34.357533 23.058708
9.923584 34.476288 23.633385
9.802506 34.265335 24.388708
10.0652275 34.57102 24.856165
9.977044 34.06475 25.896877
10.178665 34.83081 23.64814
10.0689745 34.870064 24.033714
9.352676 37.688755 42.464966
9.888388 37.53305 43.647747
9.511684 38.12852 44.317696
9.8191185 38.84545 39.38961
9.574174 38.76628 39.545517
9.478058 38.905792 44.78181
9.779453 39.35088 39.356304
9.754749 39.579563 45.016136
9.581127 40.21121 39.656254
9.854061 40.31762 44.929028
9.868606 40.766285 40.022896
9.601976 41.094364 40.972416
9.303055 41.056934 41.99229
9.507899 41.421776 42.77355
9.65481 41.246773 43.420498
9.798087 40.85091 44.365074
10.602146 29.865938 37.831287
10.637532 29.659977 38.675026
10.600058 29.734026 39.337837
10.702763 30.005737 39.912518
10.284986 31.221554 24.203823
10.72185 30.67847 24.492174
10.462394 30.589294 25.36579
10.551068 30.645042 26.28542
10.83703 30.980118 27.18087
10.444125 30.480457 37.095814
10.527009 30.488564 40.253212
10.662925 31.052162 40.605644
10.785244 31.91604 23.527367
10.548969 31.331291 27.27558
10.507484 31.24646 36.986294
10.536013 31.382494 40.565975
10.755479 31.819418 41.098114
11.151502 32.96977 22.363127
10.752717 32.917625 22.598349
10.536007 32.116055 27.638956
10.429291 32.14892 40.684906
10.51752 32.436302 41.210304
11.012615 32.696964 41.79799
11.026549 33.139786 22.304619
10.50402 33.370728 27.081783
10.940214 32.931118 27.7459
11.4723835 33.790596 33.490704
11.190841 33.687923 37.265827
10.614926 33.285637 37.551502
10.640022 33.52519 41.25714
10.653149 34.381004 22.61176
10.838835 34.112595 26.589056
11.023824 34.20058 26.728893
11.360864 34.7612 32.46674
10.701805 33.913345 38.30455
10.80879 34.325012 39.87379
10.793667 34.16976 40.93755
10.812746 35.01682 22.921059
10.5701065 35.19046 23.67685
10.749375 35.303455 24.364933
10.376403 34.84871 25.160425
10.933579 34.721138 26.120882
11.364922 35.404545 32.7609
11.3860855 36.278282 33.10166
11.365235 36.586826 33.563145
11.34975 36.77506 34.182915
10.812254 36.675232 41.574657
11.029794 36.668488 42.27106
10.173536 37.886044 44.139732
10.459931 38.857414 39.229794
10.247269 38.65213 44.770103
10.211932 39.5748 45.071823
10.795247 40.238693 39.367035
10.469603 40.4266 39.553066
10.594547 40.278255 44.891354
10.347113 40.74627 39.885014
10.156142 40.987686 40.333347
10.244929 41.43538 41.406273
10.6434145 41.32298 43.50514
10.412392 40.834187 44.564484
11.297303 29.441557 38.81088
11.191896 30.352962 25.03228
11.290943 30.428333 25.326775
11.841652 30.348503 36.98814
11.192117 29.807877 37.6765
11.674449 29.574127 38.44357
11.39518 29.588785 39.44512
11.476386 29.819206 39.910526
11.453549 30.82345 24.124739
11.81191 30.746832 24.312346
11.855639 30.510954 25.1261
11.1440935 30.513971 26.237589
11.471654 30.739738 27.408504
12.262702 30.383993 28.03388
12.212654 30.879265 30.119335
11.804923 30.35719 40.35452
11.320832 30.954325 40.74829
11.502611 31.91029 23.161419
11.413775 31.508938 23.549593
11.654692 31.484463 28.374178
12.206968 31.446623 30.33836
12.319931 31.491377 31.483244
12.111483 32.01424 32.342014
12.310204 31.59166 33.738525
12.246187 31.452532 34.700104
11.868591 32.71365 32.639572
11.940744 33.043728 33.336334
12.042181 32.760525 34.91142
11.374022 32.362938 41.807312
11.55431 33.430393 22.160261
12.29882 33.459805 28.674051
12.054629 33.630394 31.689302
11.514158 33.80631 32.633636
11.378406 33.72153 41.906425
11.6931305 34.620365 31.912153
11.484412 33.94134 37.17252
11.638211 35.06348 22.74005
11.212836 35.434845 23.70873
11.566953 35.48947 24.33667
11.656625 35.241924 25.351887
11.342381 34.914593 26.085499
12.209066 35.68304 31.314568
11.926194 35.396553 31.796604
11.548112 35.44392 34.238
12.166404 35.658382 35.35414
12.160784 34.944214 37.265835
12.204317 35.81667 38.93315
11.461647 36.128323 42.3307
12.014151 35.781746 42.8221
11.601545 35.572918 23.584116
11.993901 36.362293 31.790651
11.739306 36.65973 32.28561
12.149837 37.07848 37.118103
12.27788 37.300095 32.025013
11.811814 37.2806 32.67652
11.64582 37.58901 33.2507
11.658167 37.666325 34.567112
11.7068615 37.45264 35.586372
11.781179 37.874477 36.88797
11.716236 37.78413 37.007053
11.681489 38.085693 44.217117
12.06151 37.899006 32.78374
12.014411 38.18591 33.548134
11.819631 37.994785 34.514416
11.85363 38.268436 36.28052
11.360561 38.761963 38.892715
11.029001 39.564697 44.961235
11.52678 40.50682 44.14613
10.926165 40.256016 44.810318
11.385418 41.35721 43.67601
13.274309 28.24008 28.783915
13.239462 28.264774 29.147453
13.063941 28.63505 28.677246
13.155345 28.55367 29.329159
12.003166 30.463673 24.810493
12.731669 30.078999 29.682379
12.394079 29.888536 37.879967
12.046585 29.59936 38.62015
12.279951 29.730656 39.16589
12.616411 30.902725 24.132864
12.577524 31.189993 31.615438
12.902536 31.069014 32.88192
12.969255 30.941092 33.457848
12.086035 31.13543 40.806564
12.473352 31.34435 33.162575
11.994593 33.279926 22.165106
12.516884 33.34222 29.093002
12.456338 33.864586 30.946157
13.058491 33.904587 42.805336
12.100179 34.36643 22.365953
12.68471 33.93916 28.401464
13.263001 33.98501 29.126413
13.272026 34.749348 43.51682
12.728265 35.249203 23.096409
12.725359 35.241997 24.658892
12.829931 35.05664 26.432953
12.239681 34.717052 27.021317
12.702834 35.430954 30.976116
12.814246 35.160793 43.37007
12.56245 36.563286 31.257193
13.007247 37.08394 31.311752
12.500803 37.267326 31.772396
12.515047 37.301117 43.72451
12.686929 37.82564 32.08906
12.613669 38.35563 32.749874
12.899271 38.65484 32.961628
12.7268505 38.77483 33.7211
12.767378 38.776516 34.044273
12.447312 38.674488 35.26927
12.606445 39.136692 36.373592
12.909911 39.41888 37.435303
13.056425 42.443718 40.86613
12.727035 42.548237 42.23994
13.26327 43.69188 40.897533
12.993014 43.835587 41.25325
12.959178 43.57627 42.68489
13.357895 43.35619 43.786636
13.212445 44.01494 41.07057
13.236209 44.274612 41.669666
13.182109 44.144375 42.226242
14.096063 28.021536 27.879108
13.644745 28.06702 28.527836
13.859642 27.884115 29.354086
14.072028 28.118631 30.069118
13.968095 28.520384 27.645065
13.597404 28.611605 30.34361
13.824531 28.982794 31.192661
13.8348675 30.46258 25.378788
13.859118 30.00972 26.987032
13.497263 30.465015 36.83285
13.507868 30.118885 37.64825
13.139237 29.942661 38.562878
13.043931 30.152147 38.970497
13.469781 30.795752 24.520908
13.420828 30.573307 25.844242
13.291214 30.82257 32.480885
13.726007 30.654678 34.410255
13.402885 31.0301 39.702785
13.719781 31.576889 40.46364
14.244575 33.885845 20.131231
13.588855 33.394585 42.97841
14.029493 34.05835 43.98673
14.15606 34.6633 19.8265
13.926148 34.88331 20.287569
13.8651495 34.61848 21.291328
13.448423 34.26172 43.397793
13.664627 34.511406 44.000607
14.169025 35.492493 19.824556
14.159962 35.696102 21.727388
14.399019 35.79221 22.115583
12.90541 35.446606 24.214201
13.263591 35.21653 25.07111
13.63752 35.357708 26.263533
13.933388 35.27646 27.162266
13.590974 35.61451 43.749596
14.344065 36.2156 19.93909
14.448763 36.4296 21.576218
13.408623 36.422268 30.946564
13.423089 36.840748 43.73037
13.309974 36.96882 31.192629
13.522014 37.4119 31.618776
13.469645 38.08005 44.013985
13.10492 38.127098 32.259968
13.23428 38.43464 32.58351
13.30683 38.62647 32.650223
13.398088 38.89408 33.8464
13.642499 38.98848 34.405415
13.6045065 39.455635 36.43486
13.511252 39.909164 44.095497
13.561116 41.22078 44.211994
13.957815 42.53512 40.10649
13.949242 42.415215 44.674023
14.169477 43.41764 40.068306
13.461852 43.670258 40.718334
13.679616 43.2275 44.181
[...]
POINT_DATA 2034
SCALARS features_00 float 1
LOOKUP_TABLE default
0.63304454 0.66369194 0.7262305 0.6745582 0.6563438 0.7136336 0.7468475 0.75962317 0.6956274 0.7506275 0.75726366 0.7710248 0.716035 0.69697046 0.6796087 0.6758275 0.6640136 0.6844802 0.67081416 0.6779755 0.67125726 0.6637925 0.66418684 0.65726733 0.5687286 0.57232726 0.51926637 0.5711663 0.6726436 0.70449305 0.64605343 0.6196469 0.58589065 0.69889855 0.7436063 0.68196803 0.66540617 0.77161163 0.77203214 0.7013414 0.70241666 0.76507664 0.7750858 0.7759253 0.68054163 0.734818 0.75362796 0.7615862 0.7768568 0.77494764 0.7589072 0.6915258 0.689697 0.67280656 0.7409934 0.7526394 0.7137874 0.6649943 0.6533618 0.6906846 0.6742164 0.66054803 0.62447804 0.6913099 0.6687978 0.6430571 0.5830494 0.6599094 0.6801435 0.68624693 0.6586691 0.6546277 0.6497045 0.6133292 0.5928323 0.5192852 0.43871838 0.7137686 0.7033671 0.6686195 0.63946855 0.598753 0.40401316 0.4938262 0.4239186 0.73253906 0.70235693 0.66102695 0.61247134 0.5697932 0.6989642 0.67583096 0.4876696 0.5758851 0.7103859 0.6332377 0.6381311 0.7513367 0.6631877 0.7595917 0.6805778 0.7475563 0.642857 0.62760425 0.6780089 0.71101755 0.7225424 0.7356726 0.77743113 0.7802916 0.7797352 0.7431135 0.6689077 0.61990756 0.6699587 0.6428452 0.53643537 0.78668404 0.67732406 0.5934603 0.61157453 0.5708494 0.7126347 0.56353176 0.48593885 0.6450019 0.65258956 0.58929014 0.49445188 0.4434485 0.38270286 0.66591036 0.546646 0.49405873 0.30176574 0.1701052 0.32172132 0.40886292 0.76057506 0.4478232 0.40475306 0.37770277 0.25546598 0.41007668 0.40094686 0.7244967 0.6838836 0.61897916 0.57323635 0.4530236 0.4208246 0.47843423 0.49154848 0.46572727 0.1848517 0.1897114 0.640499 0.5872788 0.69954216 0.7349534 0.6054353 0.6336619 0.68932503 0.6124295 0.59580696 0.5361209 0.63661575 0.6797992 0.69543433 0.58583665 0.58435154 0.5229267 0.6919031 0.6045978 0.7064949 0.70749664 0.5412185 0.48936215 0.46902144 0.6077767 0.4181728 0.17337799 0.03624837 0.66384757 0.5992422 0.54251325 0.5595465 0.2796753 0.09222281 0.14203368 0.16613787 0.21355957 0.2584435 0.23376474 0.24790156 0.24810308 0.38182423 0.6915865 0.08180688 0.3221939 0.3271091 0.34847498 0.3596012 0.1150813 0.73196834 0.64386535 0.5459446 0.4336278 0.4009238 0.4580155 0.4214468 0.39555395 0.22900337 -0.117866576 -0.153204 0.1131989 0.18386576 0.6152051 0.49057132 0.50269884 0.06524252 0.52194214 0.5351099 0.55291855 0.48752993 0.32999286 0.23370683 0.18496643 0.34841406 0.5518771 0.5750519 0.51738787 0.378802 0.46603248 0.632187 0.5266346 0.64585173 0.52983725 0.51219386 0.49095663 0.46453863 0.4465749 0.44001684 0.14071444 0.42541754 0.5467528 0.5378961 0.35729173 0.1396279 0.18148473 0.20812789 0.57009315 0.19061741 0.6336168 0.01304251 0.25144345 0.27879864 0.7302669 0.07245645 -0.0033274218 0.326151 0.5179152 0.34972796 0.19158362 0.20315312 0.4463765 0.27282125 0.5035728 0.5042473 0.5159985 0.09257004 0.5281355 0.5580264 0.5662848 0.57236004 0.5571743 0.4785957 0.44809842 0.2366815 0.5749641 0.6512302 0.67274266 0.6796005 0.6702464 0.6197903 0.6926429 0.694401 0.68215036 0.5547671 0.5414825 0.5145569 0.46796405 0.5275418 0.41785026 0.3424626 0.1504423 0.17005207 0.19399934 0.25868666 0.37199306 0.4090041 0.22199807 0.16608001 0.14384271 0.25213054 0.4264595 0.32910234 0.7254967 0.39314157 0.43887162 0.6616244 0.66976726 0.7665192 0.3552705 0.38545778 0.5974369 0.5659095 0.4859278 0.36677453 0.23035471 0.12291512 0.076206654 0.3209211 0.52804875 0.5417856 0.49015728 0.14265378 0.49625963 0.49012065 0.016174948 0.5282639 0.53907144 0.53853697 0.5341125 0.4466356 0.2627743 0.0735651 0.34641212 0.50967944 0.57241875 0.63774353 0.66993845 0.60770977 0.70484495 0.7070398 0.68533224 0.6479397 0.62688136 0.7062332 0.6930119 0.5650519 0.53493303 0.5597145 0.5618392 0.53895986 0.4831947 0.47096038 0.17337497 0.18944004 0.23385286 0.11303051 0.21644148 0.19599065 0.29976043 0.100082755 0.71297 0.68874264 0.5670883 0.18940648 0.41878012 0.48695895 0.70933163 0.71796477 0.65199995 0.49656993 0.6603855 0.66898066 0.47139376 0.48334277 0.59689045 0.6098803 0.09002083 0.031240856 0.40212438 0.3356648 0.054186024 0.0708828 0.44623327 0.22072661 0.5366333 0.474622 0.5712341 0.6079023 0.6154144 0.61724913 0.4996692 0.65284455 0.66087306 0.63540363 0.4331687 0.3906598 0.17996436 0.09259439 -0.087638475 0.35030323 0.14457843 0.56003284 0.57360435 0.6000396 0.5846193 0.711635 0.67429876 0.64618325 0.6182567 0.7073086 0.70339644 0.68532664 0.5641082 0.5527036 0.53926784 0.5493421 0.5371871 0.5634601 0.50752205 0.5300894 0.45331073 0.28418365 0.20131081 0.22461212 0.01109431 0.053399347 0.020926386 0.21318835 0.22704908 0.048677493 0.7032008 0.5802485 0.5739113 0.0505775 0.428853 0.49684763 0.70773613 0.71714485 0.5237058 0.6750258 0.5288936 0.5836278 -0.21484618 0.43543565 0.53361404 0.5115946 0.055318158 0.07007708 0.06650439 0.2785492 0.53496546 0.21373704 -0.0515148 0.17271869 0.09698849 0.10857213 0.59648603 0.6309471 0.45892465 0.19801722 0.66332793 0.6673811 0.6322181 0.52788997 0.06831241 0.0815008 0.012908768 0.026594386 0.03490328 0.4867419 0.27360672 0.5447808 0.5394741 0.56415117 0.5753061 0.5758781 0.6840361 0.64861286 0.6462395 0.6184106 0.604789 0.67939603 0.6012238 0.5748275 0.6066334 0.5475715 0.54567194 0.57799935 0.5982034 0.5053313 0.40708584 0.389516 0.24098796 0.24524009 -0.053761013 -0.015308607 0.22722 0.24058372 0.2569326 0.2445706 -0.043697733 0.6328203 0.6050956 0.46180308 0.31848288 -0.049869757 0.6851726 0.66304374 0.5563395 0.6699549 0.61145216 -0.19869244 0.43271446 0.46686468 0.07959722 0.009646276 0.49274632 -0.13333324 0.38161498 0.3188553 0.025366277 -0.010616317 0.658618 0.69634366 0.6835269 0.60578775 0.4994384 -0.093352616 0.5297241 0.48338538 0.3673408 0.5913867 0.56271005 0.49161738 0.069949955 0.45534188 0.6193218 0.5966909 0.5740413 0.25882593 0.51475626 0.50904286 0.49727672 0.55127573 0.54204047 0.60642195 0.59236836 0.5304417 0.5705887 0.6164951 0.6291039 0.62182564 0.5836745 0.6099843 0.63133305 0.62695825 0.52397037 0.6171607 0.15865824 0.25762066 0.27717426 0.26012692 -0.017946023 -0.03358826 -0.23870225 0.2214177 0.434196 0.08019414 -0.0048233904 0.4990816 0.5116935 0.50396335 0.20962009 0.5161489 0.5669633 0.55230665 0.53472894 0.5124806 0.5780461 0.47417325 0.39335614 -0.21252039 -0.45425358 -0.5896427 0.47409555 -0.0025124624 -0.11641714 -0.44694176 -0.43822226 0.56283236 0.27200642 0.14790323 -0.11528051 -0.2595875 0.6541979 0.68183047 0.5636646 0.3773824 0.44111767 0.36116284 0.1842394 0.3059585 0.24909313 0.30734968 0.50123316 0.4788607 0.40687764 0.41549897 0.33583987 0.076836534 0.37172806 0.5339861 0.5974269 0.4292701 0.11810752 0.4261036 0.60898626 0.58757675 0.54932773 0.47849995 0.375151 0.47299552 0.48753306 0.57889223 0.56698364 0.5769565 0.56034374 0.45366618 0.4269659 0.47571307 0.51896906 0.63300014 0.5794353 0.61105245 0.6287484 0.6367055 0.62789756 0.53164244 0.57458043 0.6126839 0.6112633 0.16256219 0.23950739 0.2806419 0.2798708 0.23044643 0.25653583 0.04458296 0.035260707 0.030092848 0.22419794 0.33870068 0.09858528 0.55495864 0.47742093 0.33311856 0.38397515 0.3404929 -0.385954 0.0058546998 0.54788274 -0.18535697 -0.2624665 -0.29304808 -0.2862779 -0.06673121 0.6320225 0.45339 -0.13879836 0.32076338 -0.017521989 -0.30068514 0.41389573 0.4295686 0.26850438 0.39850834 0.49161458 0.43014377 0.39594674 0.52009225 0.48448682 0.47404683 0.50314206 0.46514815 0.45479715 0.47405556 0.42262414 0.61320496 0.58452225 0.58635426 0.55936784 0.4907691 0.13147517 -0.079961106 -0.05566019 0.11490357 0.2656342 0.27151364 0.05344069 0.120337814 0.15789011 0.05261997 0.07876486 0.15562528 -0.020431757 0.04976765 -0.007097259 -0.05104749 -0.30179316 -0.3375038 0.052773833 0.09764988 0.10056257 -0.0045955796 0.32488737 0.33521894 -0.2558778 -0.30580527 -0.26461622 0.022043869 0.16448893 0.29852593 -0.0015824549 0.13982278 0.21423638 0.11485242 0.02621766 0.03604293 0.15629277 0.1652112 0.40600038 0.20010793 0.10988732 0.36771536 0.40397662 0.41042143 0.40162832 0.34216237 0.36002922 0.34525833 0.3744738 0.39449555 0.4569001 0.49010003 0.47712678 0.3210245 0.05413746 0.29285815 0.22522411 0.31657255 0.10081291 0.15503995 0.16211475 0.12788898 0.027188845 0.35383874 0.35519356 0.29007414 0.02459959 0.26826155 -0.09378947 0.021851867 -0.16784768 0.34499925 -0.09325183 0.3586001 0.13210009 0.47256917 0.26304471 0.22826156 -0.068723865 0.13237628 0.05860518 0.31359524 0.054287955 0.04831533 0.73947275 0.4704253 0.16967472 0.043401904 -0.0024725497 0.75804496 0.7064228 0.49096406 0.33940452 0.042570066 0.03828853 0.050216872 0.75158787 0.71646595 0.59598446 0.04572869 0.22872433 0.13379902 0.09022421 0.34772867 0.7354877 0.7099628 0.600493 0.32633188 0.14183435 0.14826213 0.35347018 0.17660365 0.2986675 0.3417924 0.38989198 0.40738964 0.4130503 0.4059605 0.52741903 0.5438601 0.516047 0.4082436 0.5201211 0.5059923 0.439001 0.13090943 0.11196518 0.06521268 0.4100482 0.27861726 0.36479074 0.3764157 0.04566742 -0.0041176174 0.120375454 0.1246258 0.30055892 0.33801877 0.33658284 0.30385822 0.34699708 -0.04092968 -0.04581531 0.32824624 0.04584101 0.38211134 0.28626835 -0.084220365 -0.1074063 0.51273 0.52788097 0.50201076 0.15928406 0.1502037 0.42738545 -0.036944233 0.2918439 0.23046823 0.20130657 0.63004297 0.09543707 0.7436052 0.76024055 0.17367625 0.74779975 0.75493973 0.5788753 0.11008862 -0.025810607 -0.032184266 -0.009922609 0.30214378 0.31532735 0.73458695 0.66133773 0.5492151 0.33210963 0.3197321 0.043061 0.0020598322 0.33802631 0.40918982 0.38419813 0.37868023 0.14414212 0.25451377 0.36443862 0.20718384 0.32550848 0.4325807 0.4667556 0.3132531 0.38969898 0.40295923 0.5497278 0.5511205 0.50273573 0.5427667 0.5471972 0.53219646 0.5044694 0.49603826 0.42593056 0.4375714 0.05595538 0.11785599 0.09262276 -0.03387091 0.24286154 0.47390217 0.44651207 0.40747112 0.17084073 0.15760383 -0.0052548796 -0.20340472 -0.06739093 0.2606451 0.52929974 0.47023267 -0.0021428186 -0.022206575 0.08305372 0.20789307 0.55063653 0.5529524 0.40437627 0.38996255 -0.050158195 -0.11839139 0.565701 0.34044367 0.33763334 0.5479491 0.31403735 0.28139314 0.54922515 0.4541831 0.5014883 0.17461798 0.21475735 0.6449582 0.16538648 0.15091117 0.6974053 -0.008749552 -0.15436487 0.21800378 0.6858891 0.657689 0.45769632 0.11954761 -0.04666573 -0.20096508 -0.2036936 0.32485855 0.18006162 0.45519274 0.4460473 0.38752833 0.44652492 0.47424394 0.47669584 0.45544583 0.27832633 0.32303736 0.37912983 0.31805453 0.039274015 0.45133784 0.38681 0.4578684 0.47468692 0.4620734 0.4092033 0.46864927 0.48350334 0.42606413 0.47239545 0.47953364 0.37464896 0.48420402 0.47750068 0.4056496 0.2882959 0.27142724 -0.015094245 0.48953557 0.48602274 -0.013290625 -0.35492158 0.5705278 0.4864549 0.4874172 0.5037293 0.58786285 0.58457744 0.5779896 0.4675817 0.12022057 0.6088742 0.4100731 0.6438352 0.39880574 0.36858666 0.60399675 0.30615503 0.56096834 0.46509975 0.33682024 0.45806372 0.34257403 0.22642872 0.5117681 0.20774409 0.5294751 0.1873478 0.6121878 0.3084527 -0.256936 -0.25864822 0.12779486 -0.030195389 0.16170391 0.2456772 0.15078393 0.30508423 0.44369584 0.42432576 0.40133435 0.52388704 0.36938888 0.41053724 0.2809567 0.3759098 0.42194042 0.47815114 0.5000081 0.4276935 0.4739287 0.53015363 0.4497248 0.43585807 0.49300665 0.48515505 0.49376464 0.2564439 0.41117588 0.4148593 0.49276173 0.49622166 0.49296194 0.35452783 -0.00986493 -0.16086021 0.48293245 -0.051781014 0.010190658 -0.03451349 0.5116674 0.58939683 0.6166936 0.46907496 0.38772422 0.53019816 0.5855017 0.63129103 -0.32422647 -0.42057395 -0.33211154 -0.029878544 0.4842871 0.6596466 0.64104337 0.55461526 0.55472624 0.6203587 0.6570513 0.54794204 0.49562892 0.54994184 0.6466236 0.5695219 0.22569093 0.23646691 0.14922822 0.17988643 0.14666879 0.15679398 0.06602101 0.14042321 0.011448989 -0.13031118 -0.28967726 0.17809325 0.19639787 0.58510625 0.15537766 0.30306917 0.22003353 0.65919113 0.6954651 0.21751556 0.25786674 0.32592946 0.10972276 0.15501362 0.67023903 0.7190119 0.26677236 0.16685078 0.31652057 0.42902803 0.49508542 0.57689214 0.36893243 0.4713843 0.50946486 0.48711973 0.47756585 0.22751763 0.27280894 0.41407767 0.42082408 0.41464582 0.34801984 0.48596132 0.4859637 0.4743534 0.4590841 0.06512678 0.30510622 0.05903923 0.47527474 0.30229157 0.4524505 0.45293766 -0.20317455 0.020054419 0.15791744 0.2943398 0.31219664 0.6188513 0.5571327 -0.14487329 0.5161824 0.55640775 0.5970962 0.69333076 0.3736264 0.4571967 0.54752696 0.69591594 0.39834052 0.6532148 0.16026504 0.18569773 0.5097983 0.028601997 0.21126926 0.01606626 0.19827734 0.15131669 0.08972319 0.21397772 0.020858284 -0.3155477 -0.32553 0.38903698 0.5108458 -0.25386125 -0.19261804 0.58376944 0.6510337 0.058918662 0.11149286 0.109966055 -0.06883143 -0.053334568 0.69778395 0.08754133 0.10551548 0.039382074 0.10271484 0.7298512 0.7269014 0.4077646 0.31220526 0.099848926 0.13818717 0.0656478 0.08074103 0.65672064 0.72211564 0.3565348 0.44988155 0.5133036 0.48640755 0.4240275 0.433184 0.5115156 0.5453572 0.53425443 0.5499524 0.5543995 0.33409518 0.3623645 0.36099932 0.43754345 0.22587013 0.26172823 0.13022822 0.3201493 0.35510474 0.39180946 0.44234973 0.4472273 0.38438588 -0.1971774 -0.037771557 0.28124428 0.33937192 0.47438872 0.4244274 0.35052902 0.5346701 0.46982902 0.67705953 0.67063004 0.59470284 0.63682216 0.56276584 0.16294551 0.47796786 0.242393 0.3562519 0.26388583 0.25144356 0.15612 0.23424879 0.2540554 -0.019662097 0.5264739 0.44202805 0.25513005 -0.28504163 -0.28723854 0.59722954 0.6543554 0.4082485 0.20918906 -0.3053878 0.7012738 0.13366032 0.08712993 -0.37389302 -0.16749802 -0.02882339 0.70012033 0.71457374 0.10982408 0.08313025 0.09553756 0.21141839 -0.011298615 0.69199765 0.734345 0.12756819 0.3842093 0.39651096 0.33145452 0.34794438 0.23239788 0.04603956 0.275141 0.5292981 0.59620774 0.4396816 0.5022628 0.42868346 0.41026992 0.4171214 0.3266868 0.33072752 0.52519584 0.5463922 0.56444 0.55762255 0.5668601 0.5689324 0.5679097 0.4726872 0.24336293 0.070055194 0.018205361 0.23554203 0.20185924 0.14382714 0.18004893 0.5071068 0.48178813 0.36018047 0.45860082 0.41841912 0.35215664 0.138301 0.0013634134 0.07742267 -0.18159057 -0.142686 0.4836344 0.32641342 0.26972964 0.3604891 0.5741688 0.19312644 0.5784104 0.5107009 0.21855955 0.23633423 0.40760145 0.26773953 0.25752223 0.20413546 0.27312475 0.075227365 0.45673886 0.46631998 0.4686277 0.5963746 0.4583109 0.3994696 0.66007614 0.66689605 0.36537606 0.1995996 -0.19384728 -0.25891942 -0.13385236 0.6694452 0.6935754 0.15450695 0.16116104 0.21547791 0.6200459 0.6312738 0.6884169 0.2925894 0.5058139 0.36224967 0.37907058 0.4135211 0.36685985 0.3566193 0.39366868 0.53101504 0.52641696 0.52357984 0.46320364 0.43399304 0.41261756 0.40908462 0.5202962 0.5060515 0.5842659 0.6393528 0.7261387 0.68259764 0.6827233 0.736148 0.69803953 0.39052436 0.36239326 0.67301625 0.638868 0.62597823 0.6091199 0.62114215 0.43504572 0.2669256 0.23902774 0.041840468 0.07464803 0.504582 0.5489669 0.31342834 0.43229347 0.043839946 0.06877494 0.1162207 0.45812726 0.20809716 0.57811 0.27902216 0.5170849 0.1863751 0.33364356 0.42147094 0.28124478 0.2555625 0.23689532 0.24308607 0.25226378 0.18876186 0.21880458 0.33046454 0.13790858 0.43485242 0.46251723 0.4666693 0.11470401 0.44049752 0.19515538 0.5292922 0.41028398 0.38572705 0.35177568 0.5605991 0.6058144 0.34179413 0.07084774 0.3301233 0.12772492 0.33836877 0.45284736 0.35834903 0.5093355 0.510089 0.44704062 0.43790156 0.41121784 0.5061103 0.5062752 0.49096242 0.57303715 0.6142353 0.7031471 0.5151511 0.47982672 0.4930053 0.7238983 0.7342912 0.78027797 0.7764524 0.76229113 0.48273373 0.45214623 0.4115518 0.50416565 0.7135603 0.72596645 0.7458505 0.72217286 0.6861375 0.6829097 0.10051677 0.24015576 0.21520573 0.5562825 0.6014886 0.22263163 0.42561013 0.55846304 0.05199205 0.270478 0.48513752 0.090305254 -0.34279343 0.07526858 0.034570448 0.13320988 0.25168723 0.2754808 0.25993127 0.26151782 0.23153622 0.24444026 0.31188795 -0.047152832 0.4682533 0.454812 -0.02157922 0.43524498 0.40332806 -0.09007725 0.3727509 0.33890527 0.23858783 0.24870417 0.4756803 0.490156 0.4846155 0.6718696 0.47819597 0.54533803 0.48574758 0.47687787 0.50969124 0.57268524 0.6055879 0.53747165 0.54509634 0.55122316 0.5809649 0.7553561 0.7926631 0.8014566 0.7902846 0.5516102 0.5668831 0.5284991 0.54711753 0.6031165 0.5945494 0.7266421 0.75487226 0.78451777 0.7636404 0.48972583 0.559734 0.67765665 0.692622 0.72724104 0.4459567 0.34722432 0.2749235 0.2830152 0.2789646 0.64302886 0.64968026 0.65445864 0.3508234 0.13633573 0.30389577 0.28995377 0.4780012 0.44240946 0.47440016 0.533239 0.2345007 0.3554771 0.4235317 -0.08578877 0.24294966 0.11454329 0.23263004 0.32565388 0.26155648 0.055409815 0.31478703 0.34167233 0.30170017 -0.0014130473 0.3139885 0.30496323 0.22093815 0.2636366 0.09268395 0.44219172 0.10717752 0.092229396 0.57421637 0.61981547 0.30276453 0.54174644 0.37941265 0.556148 0.47817135 0.41625062 0.35960633 0.27403814 0.12279805 -0.55428547 0.21314724 0.15534252 0.37248904 0.45528802 0.44399518 0.4216945 0.24724597 0.6176981 0.47124296 0.45811874 0.4431873 0.4515683 0.52706546 0.5551548 0.3741851 0.69332814 0.6882441 0.4592624 0.47159433 0.5494179 0.51504135 0.5544622 0.59369713 0.70215064 0.56119037 0.570001 0.62860847 0.6664027 0.68795145 0.799243 0.8066049 0.8027073 0.5807065 0.59840226 0.6042437 0.6860409 0.67385453 0.7604665 0.7885597 0.79533744 0.7829181 0.48820513 0.5519649 0.6247324 0.7164408 0.7442989 0.78280485 0.7511308 0.72282225 0.42714316 0.48206884 0.6621634 0.6865159 0.3696708 0.31383407 0.3853131 0.2787258 0.30956358 0.4538025 0.46641338 0.2943335 0.19240837 0.09606583 0.24590473 0.22234079 0.2729174 0.081591316 0.050605305 -0.08756147 0.004393354 0.32447615 0.18999046 0.38061976 0.33211547 0.13510904 0.083601184 0.48518032 0.52873176 0.13848934 0.61988914 0.33336157 0.39638174 0.6447915 0.4315344 0.64116955 0.43064764 0.45139042 0.6002763 0.59504884 0.54542136 0.45721272 0.34783834 0.2816844 -0.31079665 0.3358624 0.4009496 0.35549253 0.19659138 0.2065959 0.682444 0.42918843 0.33741027 0.7140311 0.49331352 0.5490981 0.60418427 0.73074406 0.7361495 0.5831543 0.6588271 0.6577687 0.5795263 0.6052325 0.6466297 0.6938943 0.7022558 0.5417998 0.53103936 0.6612265 0.4149319 0.50073516 0.32682484 0.27926964 0.1440084 0.38843882 -0.037447535 0.45390365 0.23566172 0.25748754 0.2407636 0.16860792 0.58362734 0.63149184 0.61869633 0.37912858 0.65115416 0.63799953 0.41695154 0.42554957 0.6633969 0.6736785 0.4375309 0.4550875 0.6421813 0.51040345 0.44361317 0.46038988 0.4834026 0.43822017 0.15290557 0.1431872 0.3563945 0.26726168 0.2678995 0.41983134 0.6344168 0.6560388 0.26750427 0.70446205 0.7475936 0.72677577 0.55284226 0.66467917 0.74608994 0.7561201 0.5989306 0.6177082 0.6630739 0.60031205 0.6345445 0.640533 0.2819716 0.44564223 0.46356523 0.5786036 0.48503608 -0.088957995 0.50284374 -0.06802416 -0.11944905 0.31643128 0.014358848 0.13845417 0.43933243 0.08216326 0.21461655 0.29301468 0.30024746 0.26919928 -0.031340443 0.27998978 0.639719 0.5267345 0.38947713 -0.037147142 0.32438466 0.3613479 0.664206 0.50632554 0.3326069 0.4118263 0.6789974 0.6634752 0.59231246 0.55014515 0.47631854 0.13875526 0.33421463 0.42024308 0.6012775 0.5723688 0.5019692 0.43958977 0.17098767 0.19605863 0.60962784 0.613653 0.49756688 0.6136255 0.5387951 0.3848989 0.62900364 0.67777884 0.4376441 0.5382067 0.67837286 0.70412004 0.7389909 0.66280687 0.727448 0.75692505 0.59066635 0.35904825 0.35759985 0.5772855 0.55214256 0.094789654 0.39297068 0.48736858 0.5405935 -0.086751 -0.06680814 0.012797594 0.31379816 0.46364474 0.2301529 0.45599717 0.47062933 0.48116452 0.4967593 0.25347134 0.2823735 0.45925432 0.2953334 0.29866618 0.048765555 0.24573319 0.5807142 0.08412536 0.23120004 0.27205318 0.6247221 0.6059754 0.22047782 0.21247537 0.26590258 0.6408105 0.6186204 0.22183326 0.22013919 0.18550807 -0.01741001 0.2207462 0.71167374 0.68849003 0.42146927 0.62956107 0.5920949 0.35865104 0.3884894 0.55577266 0.6885545 0.6711438 0.57897645 0.42131704 0.6677911 0.21996325 0.437