# vtk DataFile Version 2.0
Really cool data
ASCII
DATASET POLYDATA
POINTS 5133 float
-1.7955981 -3.0792704 8.658783
-1.9185351 -2.9211292 9.4006605
-1.8458885 -2.4018 8.137907
-2.104255 -2.4257655 8.654157
-2.2191708 -2.3264961 9.322375
-1.9230022 -2.2049642 10.171567
-1.8320113 -1.9371152 8.113077
-2.1616058 -1.5262485 8.856328
-2.2095258 -1.6304289 9.614786
-1.9171135 -1.5269016 10.298351
-2.0574183 -1.109289 9.0196
-2.0051913 -0.9355793 9.57073
-1.8518891 -0.91622484 10.129436
-0.9695078 -4.095598 8.626137
-0.8808293 -3.9706757 9.737397
-0.79661536 -3.7890372 7.663528
-1.501401 -3.364204 9.453906
-1.3319247 -3.1989655 10.13789
-0.84486264 -3.0306838 10.7845745
-1.454125 -2.5369878 10.557216
-1.0476223 -2.3864627 10.910831
-1.4192107 -1.7494011 7.9094353
-1.649527 -1.3661381 10.574129
-1.276609 -1.5643998 10.8541155
-1.5314566 -0.4908907 9.485064
-1.4506023 -0.72587645 10.309163
-1.1943277 -0.9443799 10.674988
-1.2686543 -0.40402898 9.697501
-1.1628482 -0.3565302 10.005455
0.4850474 -9.289506 8.869322
-0.027229816 -4.985627 8.029208
-0.019029498 -5.1939883 8.28546
-0.03379911 -5.0409822 9.423753
-0.41841298 -4.502479 7.9757857
-0.5166098 -4.5702686 8.396295
0.01419127 -4.6883883 10.215754
-0.118435845 -3.014122 11.203207
-0.16772747 -2.8512504 7.0160832
-0.3131923 -2.3544426 11.316079
0.34975606 -0.9979321 -1.2651995
0.05588758 -1.0592285 -0.28290728
0.045291096 -1.0556004 0.30345714
0.04689166 -1.5758692 5.24701
-0.30424398 -1.5749669 11.256029
0.14229389 -1.9688818 11.533744
0.31584615 -0.21475063 -1.8940755
0.1037083 -0.36554563 -1.287745
-0.18448153 -0.30428976 -0.3894921
-0.16390562 -0.49886993 0.28120083
0.005614519 -0.38572273 0.7825842
-0.08024365 -0.15792535 5.460309
0.11445597 -0.618536 5.990351
-0.26138055 -0.90558875 7.76362
-0.2878708 -0.63779116 8.775531
-0.65088564 -0.569727 10.473682
-0.40662587 -0.94746506 10.901657
0.15444311 0.41085136 -1.4004982
-0.2223475 0.38695362 -0.39053172
-0.19412443 0.38535655 0.28566307
0.015043199 0.054280933 1.0209812
0.4610542 0.13614665 3.3677483
0.07844883 0.37768137 4.5511384
0.08378366 0.48539087 5.7147083
-0.7709927 -0.40895015 8.958361
-0.8468607 -0.32440907 9.671944
-0.65786487 -0.39765054 10.104452
0.14226389 0.81354094 -1.1480223
0.06968641 1.0634092 -0.5212253
0.001979947 1.0126302 0.28958833
0.32760906 1.53448 3.854041
0.14863881 1.5759833 4.657997
0.17490777 1.5881832 5.194393
0.36368448 2.3948636 4.8418093
0.33758938 2.217345 5.2112265
1.1283866 -9.81368 8.110809
1.037169 -9.981779 8.638926
0.975394 -9.886014 9.335067
1.0923007 -9.749442 9.707125
0.94611937 -9.481292 8.002373
0.65174806 -9.45398 8.5931
0.73666644 -9.475172 9.413612
0.9420713 -9.176285 9.929863
0.88438004 -8.555613 7.811831
0.59372115 -8.548601 8.518921
0.68546313 -8.626689 9.529746
0.9388472 -8.529762 9.932678
1.0720868 -7.7339215 7.717329
0.72363627 -7.5364285 8.657044
1.1183153 -7.797362 9.995097
1.0025777 -4.9743547 10.374699
0.8844578 -4.699741 10.474251
0.6856636 -4.1528783 10.711038
0.9937343 -3.6917365 5.697314
0.6212229 -3.2055457 11.243362
1.0228325 -1.9519618 -0.4558226
0.8414985 -1.8201663 0.18360424
1.0078096 -2.2737756 3.7769275
0.46593672 -1.9380963 4.3085756
0.3639634 -2.5788827 11.51471
0.73731583 -2.1617413 11.614652
1.2082832 -1.0475136 -2.738279
1.0834944 -1.1936314 -2.4455485
0.65344715 -1.4129378 -1.388621
0.6103591 -1.6079475 -0.53929085
0.40069425 -1.480445 0.36203408
1.32824 -1.511688 1.6728984
0.9714098 -0.947578 2.8259513
0.43364322 -1.4172097 11.409765
0.5598821 -1.752451 11.575061
1.0932637 -0.4267717 -2.7986455
0.63915783 -0.48757803 -2.294727
0.50023687 -0.60553086 3.30521
0.7007989 -0.82958865 8.845812
-0.059460077 -0.5018409 9.459706
0.6673434 -0.70855224 10.609782
0.48926818 -1.0719328 11.140639
1.0352733 0.18124503 -2.7329464
0.6823724 0.4651277 -2.2619135
0.77269375 0.39593577 6.7513866
0.26915076 -0.44953915 10.122158
1.0224733 0.9602089 -2.21565
0.6607589 1.242079 -1.2070776
0.456133 1.4631608 -0.52801234
0.4137265 1.4086586 0.2353597
0.64302754 1.1494789 1.0416
0.6779045 1.6076978 6.350503
1.0359792 1.6140585 -1.0989418
1.0211998 1.7237628 -0.45164216
0.87013704 1.6224477 0.27403998
0.7998034 2.5931582 3.7529044
0.5308393 2.6852973 4.777978
0.52850854 2.3771362 5.559043
0.73600245 2.2629132 5.968313
1.0775636 2.9673758 3.8523855
0.88799024 3.0225742 4.5433216
0.9263426 2.9157822 5.3831043
1.0587759 2.7347429 5.8817897
1.7279187 -9.878071 7.724152
1.5352458 -10.21759 8.684952
1.6797242 -10.131078 9.443537
1.6013088 -9.860316 9.856285
1.7745959 -9.18045 6.864797
1.35711 -9.413143 7.3963757
1.6001111 -9.411323 10.17452
2.0687766 -8.550769 6.2087092
1.7825499 -8.602303 6.536271
1.4314747 -8.563845 10.355164
1.9724337 -8.504381 10.542821
1.4596909 -7.7832265 10.264582
2.3751898 -4.964957 2.9464664
2.2850778 -4.7386107 4.4516883
2.3706746 -4.052374 1.575332
2.3021114 -4.5498605 2.7515543
2.0157106 -4.4032154 4.1480684
1.356176 -4.2869782 6.1535835
1.3280504 -4.6198854 6.3401027
1.0167414 -4.331752 10.771602
2.2264946 -2.8012574 -2.1892695
2.0936325 -3.0810764 2.1351411
1.6648386 -3.6882052 4.0128713
1.2018589 -3.20921 11.235122
2.1393442 -2.2845135 -2.843977
1.7692761 -2.3021293 -2.303536
1.6479197 -2.4539366 -1.4994626
2.2417748 -2.4378202 0.6966815
2.1952798 -2.6960447 1.3468001
1.8782935 -2.6853647 2.705861
1.4095613 -2.3177018 11.449815
1.1439342 -2.1799161 11.572044
1.5292313 -1.0783936 -2.883597
1.2666776 -1.6420578 11.457642
1.0812529 -1.8539431 11.563752
1.5201164 -0.4557899 -2.9944253
1.7430059 -0.59502125 8.651995
1.2635535 -0.87577784 10.534334
1.3831651 -1.0883589 10.93257
1.4447716 0.21453974 -2.9090595
2.0152478 1.0078689 -2.6110475
1.4560574 1.0951383 -2.307153
1.8732064 1.6183382 -1.8873119
1.6567594 1.7031618 -1.4181322
1.5499684 1.773355 -0.48451072
1.3963641 2.6166306 3.32456
1.5113431 2.3875463 6.328947
1.539365 1.9736736 6.5778556
1.3952435 2.7458444 3.3680313
1.4340223 3.0887222 3.8470583
1.5486274 3.2738445 4.4740653
1.50585 3.1443105 5.2399764
1.6891034 2.8535104 5.859207
2.459781 -9.618311 6.972174
2.2842622 -9.836767 7.4165416
2.383341 -10.268757 8.733966
2.4699216 -10.185964 9.369426
2.591454 -9.767733 10.085879
2.7259216 -9.009368 6.2109003
2.2520027 -9.057503 6.417518
2.465959 -9.44134 10.313838
2.568126 -8.161279 5.969496
2.6497853 -8.508583 10.475192
2.5708 -8.878253 10.506311
3.3119047 -7.0687895 2.651351
2.3941886 -7.8328137 6.056198
2.3803725 -7.6094956 10.3858185
3.2383265 -6.322523 1.957866
3.222837 -6.7723994 2.3608696
3.1376386 -6.2101946 3.8760245
3.4278522 -6.0079694 4.4253016
3.2297142 -5.042175 0.9761852
3.0147235 -5.1894526 1.2848468
2.6872091 -5.426483 2.727557
2.5545838 -5.243111 5.742814
2.1558473 -5.211991 10.333196
3.1409621 -3.9137344 -0.577262
2.7605507 -4.319009 0.8052214
2.6608732 -4.4604545 10.283613
2.8932743 -2.8522666 -2.9148254
2.9507222 -3.176456 -2.3067143
2.8985364 -3.3685431 -1.6487314
2.5762858 -3.064362 10.592395
2.392882 -2.2226887 -3.009533
2.108103 -2.2257402 11.0268545
2.2105854 -1.2507677 -3.1621423
2.0121002 -1.6769043 10.939123
2.2687457 -0.8179548 8.415287
2.5768063 -1.1112318 9.449212
1.9599737 -1.0994745 10.075973
2.3714166 0.41141564 -2.918985
2.6024635 0.27785686 7.2580214
3.03329 -0.3960598 7.989443
2.2843492 0.88815796 -2.5964355
2.3904543 1.3652092 -2.2383676
2.7258565 1.3083608 -0.027363986
2.4832754 1.7393613 -1.4288304
2.2027607 1.7836938 -0.6960342
2.0178926 1.7688308 -0.074646145
2.598238 1.671017 2.700174
2.5693626 2.421269 3.5779896
2.2686691 2.6463392 5.6482167
2.348576 2.1683576 6.1003866
2.2105777 2.9391844 3.9074953
2.0879834 3.2066715 4.4639378
2.241742 3.0430276 5.068405
3.3874674 -9.75418 7.1579375
3.1200247 -9.987907 7.6108556
3.061563 -9.975903 8.296526
3.250965 -9.938103 9.312528
3.0617576 -9.791005 9.909448
3.605578 -8.792272 5.8941374
3.276252 -9.40881 6.3955197
3.3072343 -9.345775 10.105924
3.8830285 -7.688089 2.4148057
3.3289204 -8.822779 10.287154
3.8927274 -7.5194964 1.9450377
3.61253 -7.3866477 2.4218879
3.6071837 -6.9364295 5.1369686
2.997026 -7.367225 10.119048
3.980824 -6.4391627 1.2149101
3.6554859 -6.523489 1.562541
3.8161218 -6.335742 10.214178
3.680158 -4.7534156 0.10391188
3.5615838 -5.1283307 0.69125617
3.813254 -5.3730025 10.1283
3.4141808 -3.600696 -1.9423572
3.7268941 -4.2740874 -0.51834726
3.5524828 -4.622218 10.244979
3.9813643 -3.5071807 -2.0709882
3.2450273 -3.502796 -1.705603
3.5376902 -2.4191194 -3.2723436
2.8707802 -2.5546787 10.437627
4.0655375 -1.6513727 -3.5939226
3.6845493 -1.47544 -3.35831
4.1748376 -0.30707216 -3.4553666
3.4316175 -0.5569383 8.428692
3.0158544 -1.0856142 9.109322
4.058521 -0.1352734 -3.3347018
3.5691571 0.5735568 6.476116
2.9349172 0.44523945 6.913826
3.4038928 -0.3363722 8.10655
3.5805428 1.0392041 -2.0426173
3.0525677 1.5477129 -0.6553074
3.3165169 1.0722733 0.42210755
2.9938822 0.8996054 1.4725705
2.7316446 1.178672 2.1966016
3.430266 1.2846079 5.023117
3.1090667 1.0777478 6.2764807
3.027985 0.6618892 6.9102764
2.9559412 1.6485145 -1.4918964
3.1987903 1.6244844 -0.8258921
2.8657973 2.2143857 3.6785352
2.9748862 2.344929 4.425263
2.7759485 2.411443 5.3080783
4.5053167 -9.680031 6.904356
4.2093987 -9.826379 7.494935
4.5195785 -9.672273 8.319984
3.9112725 -9.761774 8.976444
4.792484 -9.394469 8.664437
4.056616 -9.302793 9.34367
5.2004275 -7.699364 1.1600786
4.702401 -7.7997637 1.6338472
4.7369804 -8.015113 2.6836615
4.801163 -7.7947645 3.3577094
4.859043 -8.053582 5.259909
4.6173344 -8.648945 5.727833
3.931536 -8.3891945 9.902714
4.608436 -7.070699 1.0079424
4.405504 -7.50108 10.009295
4.343494 -6.113665 0.9486172
4.655385 -6.278865 10.179456
4.605149 -5.380049 0.5067017
4.7163577 -5.5251803 10.332046
5.0978203 -3.745517 -2.7858403
4.518358 -3.7908375 -2.197004
4.927967 -4.180338 -1.6947874
4.4160085 -4.493366 10.168242
5.0048227 -3.1650193 -3.3049037
4.513257 -3.5363452 -2.6453383
4.2665963 -3.6976545 9.910434
4.901529 -2.3248277 -3.7406502
4.668506 -2.5606225 9.257455
5.045066 -1.3679936 -4.1361065
3.8437228 -1.8278944 9.427125
4.875396 -0.5074227 -4.1314607
4.5605865 -0.63604414 8.0796
[...]
POINT_DATA 5133
SCALARS features_00 float 1
LOOKUP_TABLE default
0.68366617 0.765319 0.74425775 0.8080577 0.8544541 0.8645429 0.7980003 0.89744544 0.9164696 0.892992 0.9171985 0.9002323 0.87344825 0.51870304 0.6111386 0.4144129 0.67774767 0.71499026 0.6680312 0.79669976 0.7544855 0.7939545 0.8647256 0.82427675 0.81634533 0.83294076 0.81709003 0.7867002 0.78478444 0.855234 0.35161054 0.3837664 0.55178976 0.3889894 0.4564454 0.54997665 0.57974386 0.37222815 0.66273725 0.6223773 0.57733154 0.5227127 0.31263572 0.730631 0.663594 0.7041395 0.71010536 0.6956475 0.62763596 0.5763016 0.439036 0.38225073 0.64589477 0.62567806 0.7620853 0.76664114 0.7707385 0.76615393 0.7480119 0.63653964 0.34566182 0.4535835 0.5058908 0.6792989 0.7294756 0.7393681 0.76898617 0.75130975 0.7520664 0.6438832 0.60764796 0.61205554 0.7536179 0.71754456 0.78318655 0.85510194 0.8897582 0.8802419 0.75864637 0.84058356 0.87885857 0.8446444 0.6931853 0.80745167 0.8423182 0.810934 0.63747907 0.7717137 0.7395429 0.39056748 0.43425345 0.47527874 -0.053818166 0.5338682 0.37969583 0.3304961 0.021509092 0.1572276 0.5966252 0.6285244 0.55563486 0.5499424 0.56121135 0.48415035 0.4129488 -0.035352997 -0.010703079 0.6847843 0.6615131 0.6229193 0.6485696 0.1709688 0.4878443 0.62205267 0.6584915 0.6961775 0.67304784 0.72450686 0.49670678 0.6411444 0.7232684 0.7216259 0.70689356 0.70347416 0.67708206 0.666675 0.6781636 0.65917045 0.6470728 0.8077812 0.7992547 0.74590534 0.7420577 0.8631829 0.8501632 0.828269 0.80884063 0.7000389 0.8579978 0.8906092 0.86943734 0.56182265 0.6493133 0.8251947 0.46459472 0.49481738 0.7678082 0.7155075 0.6846045 0.12192656 -0.05627958 0.17376055 0.12471722 -0.021560624 -0.04669873 -0.011766992 0.4253574 0.38340732 -0.0008940693 -0.008488826 0.5162804 0.44020116 0.45645842 0.40692216 -0.0011239797 -0.053490996 -0.045928933 0.60010964 0.6179942 0.53053975 0.6429212 0.6411702 0.5822206 0.18742615 0.5898762 0.6286071 0.6456605 0.6550103 0.6993443 0.6537575 0.6466876 0.61849034 0.81284916 0.7613396 0.67978597 0.8327005 0.8737378 0.88791084 0.8781849 0.82644665 0.5701269 0.6317767 0.8200722 0.83326876 0.7888036 0.4814896 0.50873446 0.7687726 0.39677465 0.62648976 0.68850625 0.37915647 0.34004784 0.5065789 0.31786388 0.35216272 0.104889564 0.0011585567 0.17020993 0.2018671 0.18074656 -0.216988 0.14628425 0.094088 0.15043655 0.1946153 0.37764162 0.31211475 0.23577005 0.38178918 0.43119195 0.5777475 0.45573676 0.5998341 0.10231778 0.20169209 0.43060786 0.5620901 0.044765353 0.021765186 0.6250706 0.63523775 0.36881065 0.5828917 0.56332624 0.53349125 0.2516827 0.6174973 0.76279485 0.6053302 0.81605864 0.88841796 0.8785502 0.5801924 0.62241983 0.6782837 0.7022649 0.7330768 0.47615767 0.5258452 0.664957 0.5789842 0.59591013 0.5415451 0.4923327 -0.03245669 0.33324176 0.351641 0.35939473 0.060647145 0.0789628 0.15427437 0.04342552 0.2247563 0.067833155 0.08816488 0.24773952 0.21252798 0.4244029 0.37536108 0.42740986 0.42139357 0.37706092 0.048083015 0.115468055 0.35355264 0.00897637 0.028371934 0.021928204 0.5069998 0.4191584 0.1300004 -0.034028053 0.029437333 0.40183306 0.21984567 0.040334888 0.53750515 0.42385858 0.49375138 0.63991994 0.6994574 0.5528244 0.56150633 0.5077811 0.59653217 0.46653542 0.5640547 0.6545334 0.64478105 0.67308366 0.57201433 0.27139238 0.45316708 0.47948605 0.4920203 0.23351917 0.31869265 0.06623818 0.20875457 0.039745048 0.36770147 0.27159974 0.22489369 0.05193288 0.4260183 0.3294996 0.057790846 0.44000322 0.012125947 0.44619673 0.14540261 0.44746727 0.09908895 0.43939418 0.38531488 0.12189105 0.07849145 0.08806552 -0.034228012 -0.006356664 0.11442873 0.2941628 0.49871635 0.48509765 0.42106554 0.43933555 0.7005403 0.7201371 0.6865536 0.58262 0.34750223 0.37103587 0.6411205 0.14277378 0.5221391 0.5086436 0.22901621 0.06036447 0.41128498 0.28069767 0.036990777 0.50014013 0.48081133 -0.026813671 0.47848797 -0.16081794 0.4697045 0.09362559 0.4968278 0.054071322 -0.0015206672 0.082838826 0.56863934 0.21338746 0.15764374 0.065822706 0.60433334 0.72395563 0.5155121 0.35098493 0.2856202 0.2360502 0.7579134 0.73124826 0.52696085 0.62266415 0.68438804 0.7583233 0.50933826 0.57737267 0.716509 0.7661869 0.42629132 0.49402472 0.5871111 0.6461437 0.7433077 0.34121087 0.42194396 0.41854334 0.47493827 0.46671852 0.40800476 0.3050363 0.5626389 0.5756993 0.5122499 0.44870162 0.33478767 0.5978514 0.5284116 0.5562757 0.74057424 0.74020666 0.6929976 0.5570472 0.329802 0.2544899 0.66521394 0.42684025 0.35098124 0.44277868 0.07821432 0.44340387 0.4028629 0.32933968 0.033016518 0.014082491 0.5143074 0.4708364 -0.120177865 -0.19120863 -0.113468975 0.5308844 0.50853586 -0.3250122 0.6059731 0.6573345 0.6751809 0.3636722 0.17811355 0.708225 0.5631284 0.4325104 0.37036592 0.36214238 0.3375647 0.24679977 0.7699225 0.78638136 0.75772965 0.6326971 0.61022246 0.42745203 0.47411996 0.56166136 0.66666436 0.7493751 0.76797414 0.2935682 0.41923767 0.47393435 0.78503245 0.29605603 0.694192 0.74814653 0.34858602 0.35941708 0.35669458 0.32917398 0.3761597 0.43927532 0.4586581 0.6079631 0.47515225 0.4754101 0.25460514 0.32618603 0.5343733 0.2396673 0.5783367 0.59531224 0.3668589 0.5601702 0.42384678 0.22858477 0.74569684 0.73580647 0.16991195 -0.05537066 0.07561343 0.7252091 0.6621899 0.71168077 0.45033437 0.06576596 0.08548872 -0.01669389 0.02975151 0.79164106 0.75026536 0.6769687 0.64143217 0.23932666 0.057699807 0.28432778 0.062146433 0.036305115 0.4149835 0.0150078535 0.029659599 0.4843949 0.48658532 -0.029888287 0.48437065 0.45373142 -0.087723576 -0.10510499 -0.044102192 0.5511871 -0.11275069 -0.082390524 -0.14026554 0.6684483 0.08979154 0.21146752 0.7320274 0.3370195 0.4176595 -0.12907141 0.7556626 0.6019465 0.4014172 0.39002562 0.20075247 0.796381 0.81055856 0.7634096 0.67177 0.48052388 0.5743896 0.611394 0.28077537 0.34874028 0.40410325 0.48507494 0.68856394 0.6996088 0.91167986 0.25776255 0.26567245 0.7481402 0.8690412 0.23718536 0.23318812 0.7700925 0.75121987 0.2801034 0.29859114 0.41004044 0.1603208 0.5783056 0.4971006 0.46774983 0.55925703 0.6002313 0.028509412 0.4669 0.5579372 0.59302914 0.46489292 -0.07858751 -0.16349459 0.38865918 0.39260894 0.24494022 0.054592833 0.275068 -0.031624615 0.23123835 0.10368574 0.09149924 0.4937158 0.4956916 0.1307692 0.118702404 0.089901686 0.67759 0.6309228 0.5888853 0.54589385 0.52777624 0.51090574 0.7626277 0.7351588 0.6562675 0.568444 0.554934 0.50939536 0.7415087 0.43572474 0.008977912 0.82182145 0.8061993 0.63801014 0.5077733 0.35656226 0.05167502 -0.044179186 0.8229036 0.8237014 0.8143542 0.051519267 0.013733223 -0.07514743 0.3049332 0.087765396 0.45105183 0.35564753 -0.15221938 -0.094340324 0.11969515 0.4361374 0.35529605 -0.33848143 -0.16362724 -0.1263265 -0.10481364 0.019033749 0.712283 0.5844657 0.6960272 0.30095822 0.3224894 -0.12316537 -0.124545395 0.77875936 0.5758785 0.46746278 0.38128212 -0.09647321 -0.12211001 -0.041392148 0.054550625 0.80765474 0.83743834 0.56936014 0.4256051 0.28155807 0.32917768 0.8101083 0.2690099 0.5490397 0.64744663 0.5246774 0.60218525 0.6317297 0.7444813 0.78364843 0.6914996 0.7139713 0.6740801 0.77883965 0.8787166 0.86271155 0.8345732 0.8656976 0.9255963 0.91045344 0.8846817 0.29110453 0.35474733 0.40878654 0.45895422 0.9165167 0.2775916 0.26653597 0.26653528 0.28442413 0.5739557 0.6061866 0.94925946 0.92746633 0.8750357 0.27457967 0.91748023 0.8945371 0.66297865 0.5515008 0.25776416 0.23475143 0.55037504 0.37210745 0.4466836 0.49753472 0.8986517 0.7967347 0.6815833 0.55662227 0.5076778 0.48239946 0.47072166 0.5215157 0.56025815 0.60503507 0.79134613 0.6876968 0.63982385 0.56988823 0.4702153 0.45196384 0.56900954 0.57601565 0.35477465 0.0142886005 -0.11008006 0.31526458 0.6066377 0.6164223 0.6218928 0.482319 0.41386384 0.39335304 0.58336496 0.5605227 0.44153506 -0.2580855 0.012618639 0.3430652 0.6114859 0.60253763 0.51758397 0.43292475 0.43498582 0.55724436 0.57669646 0.5728157 -0.16156879 -0.123317115 0.52193177 0.5331488 -0.033849135 0.046021633 0.08999637 0.39104238 0.3735723 0.38177913 0.19617534 0.10096835 0.12264371 0.4935159 0.43756676 0.11656449 0.11243251 0.076844156 0.6229542 0.60095847 0.48271704 0.40907025 -0.21826819 0.10683316 0.061015263 0.7416877 0.47381762 0.3903206 0.17128691 -0.020933073 0.008326979 0.10680658 0.8157153 0.44462788 0.05082287 -0.26171562 -0.11990181 0.24853387 0.7808807 0.7846519 0.37186223 0.34043634 -0.08161629 -0.055961013 0.15925273 -0.037834354 0.05910532 0.22405818 0.74557483 0.7466824 0.70376915 0.5868002 0.18017192 0.23241031 0.26621538 0.27051112 0.32467198 0.34781742 -0.039343745 0.20226489 0.26885608 0.3047308 0.28599656 0.04530081 -0.049244642 -0.038603038 0.25352305 0.17491002 0.26169622 0.3108558 0.567024 0.58499396 0.3227842 -0.017099189 0.26512027 0.7771464 0.33908013 0.11134878 0.6954668 0.41005167 0.22440861 0.36485133 0.56989276 0.5483285 0.30855697 0.4865259 0.5616853 0.55259144 0.5364342 0.71314085 0.56903595 0.6433742 0.83259535 0.7335608 0.8348812 0.9289316 0.90692437 0.8762025 0.16036817 0.2204413 0.28022492 0.28844684 0.3661663 0.9342239 0.92291445 0.8625569 0.7887883 0.29021835 0.2614783 0.42156512 0.49386394 0.9541029 0.9540013 0.825935 0.7324839 0.27224675 0.2837751 0.44661546 0.37065458 0.46629405 0.9605161 0.9624795 0.55419874 0.49892342 0.25822136 0.4210891 0.49528682 0.5481621 0.95275825 0.9156257 0.47745034 0.48049766 0.53065795 0.5325841 0.5058949 0.18052372 0.61483705 0.6300536 0.7800284 0.4236555 0.5469507 0.5499293 0.51041573 0.073256016 0.6212716 0.62746626 0.68153656 0.55956733 0.24764678 0.5507479 -0.083911926 0.6002745 0.6129594 0.5167675 0.31759363 0.13196516 0.024061754 0.49410123 0.43964958 0.33251548 0.14411646 -0.17934358 -0.10503377 0.55917084 0.018827006 0.027272463 0.3627568 0.352055 -0.15211123 0.22141522 0.12842362 0.45939696 0.47339994 0.5129396 0.2335358 0.23271662 0.07105565 0.14507724 0.20890987 0.10247138 0.3362694 0.3316819 0.36517692 0.13955817 0.24445117 -0.22495972 0.18393192 -0.30777672 0.05310781 -0.067938805 0.60690373 0.42339373 0.22850424 0.037390906 -0.35578138 0.048815124 0.07096735 0.7396421 0.25776863 0.117845595 0.1511574 0.30985004 0.75886273 0.025346264 0.17355588 -0.11975398 0.30771178 0.3470718 0.7368528 0.30701882 0.28996122 0.7029677 0.68694603 0.63008356 0.279347 0.11674948 0.03012234 -0.065392196 0.2291111 0.23064998 0.22405262 0.088915855 0.28830963 0.10855469 -0.01957184 -0.18673557 0.2867931 -0.10746688 0.28350008 0.23019028 0.16659692 0.3755311 0.18863128 0.45814195 0.041678064 -0.051722646 0.52963805 0.491419 0.19859093 0.07887623 0.08679541 0.14747709 0.20063096 0.41460824 0.06919332 0.12438564 0.21157235 -0.17686978 0.28746334 0.53763217 0.53988415 0.53405607 0.41316143 0.18112782 0.36468282 0.5486827 0.51965684 0.533478 0.52456707 0.5544133 0.7601609 0.50802916 0.6520055 0.69838417 0.8709635 0.89662284 0.84361744 0.5765548 0.5261334 0.4434234 0.63951725 0.64905006 0.57510066 0.5052252 0.36608425 0.6913225 0.7036513 0.71609366 0.6042849 0.5024207 0.6957834 0.69649434 0.7032082 0.697033 0.69217265 0.6955426 0.21098843 0.20045741 0.14380932 0.18921806 0.13510744 0.92787886 0.9086471 0.85225594 0.13202608 0.20417517 0.9321445 0.9303186 0.7093035 0.5778358 0.24797757 0.2789576 0.31602788 0.37690237 0.46742454 0.9230879 0.43415236 0.4438884 0.17281112 0.5246272 0.6088387 0.90705365 0.46038365 0.38942587 0.4117409 -0.16217744 0.624522 0.8022027 0.6134796 0.6906683 0.54480684 0.59627134 0.5247775 0.32063305 0.31386417 0.3802582 -0.20893745 0.24428907 0.23683652 0.07091076 0.3610726 0.40738684 0.001311399 0.046541035 0.04651235 -0.2989955 -0.2726845 0.29413918 1.9825995e-05 0.13542719 -0.22132039 -0.28352034 -0.23473826 -0.052463666 0.080955274 0.115410216 -0.15845151 -0.17814839 -0.42271268 -0.4339257 -0.12100677 0.2939179 0.097310096 -0.07291485 -0.11475284 -0.35318086 0.13329764 -0.12685801 -0.1199703 -0.01168457 -0.29979157 -0.2489112 -0.26515555 0.6524393 -0.033021238 -0.32882842 -0.030672029 -0.30342042 0.33709317 0.69292617 0.50979495 -0.15127058 0.30310532 0.59565145 0.0069657564 0.041360363 0.08755772 0.03227943 -0.028798554 -0.107181534 0.22679597 0.21219656 0.11895986 -0.2066963 0.19638903 0.21044472 0.29668266 0.274314 0.044277105 0.1861847 0.16673492 0.38583252 0.4311431 0.07113108 0.021434125 0.025422726 0.11955989 -0.039005216 -0.019128375 0.20027493 0.04222493 -0.03368797 0.24940658 0.24583474 0.15781604 0.4603017 0.48877078 0.41381645 0.034631774 0.034393974 0.12392019 0.16896333 0.18552375 0.36902684 0.2136338 0.4652635 0.4912011 0.45292243 0.47324008 0.09008983 0.026141524 0.057958722 0.110229075 0.09231452 0.52868146 0.54526424 0.59065115 0.60100293 0.6146212 0.20441513 0.12092827 0.02084452 0.5804259 0.65349114 0.57437 0.5705714 0.25178456 0.19619778 0.18755168 0.61495715 0.6690277 0.32989192 0.33520776 0.692896 0.48878795 0.39849803 0.68531007 0.68654454 0.5612781 0.48314705 0.66740346 0.675099 0.6581577 0.5880781 0.28518006 0.2604448 0.24860883 0.25320616 0.26015604 0.1323968 -0.11153065 0.16922337 -0.21560223 -0.11934066 -0.04336175 0.032811556 0.904322 0.88749224 0.8796915 0.7583597 0.5984799 0.45070365 0.054219298 0.21725619 0.45774668 0.88977754 0.85630465 0.40532905 0.104926266 -0.22294985 0.20841932 0.26521826 0.106587455 0.87466705 0.80918944 0.58404183 0.7143779 0.6334637 0.5691824 0.50400037 0.564126 0.5065963 0.31305403 -0.071909264 -0.17500673 0.18898335 0.015878737 0.01996696 -0.254998 -0.20318475 -0.19106424 -0.21898317 0.027283888 0.04028259 -0.18752934 0.04595194 0.07331211 -0.0050882846 0.10555326 0.22063541 -0.22595328 0.24571195 0.24627456 0.7271588 0.75753486 0.74030125 0.0016594902 0.27224833 0.7548188 0.80442846 0.7987769 0.76332325 0.100313514 0.05648004 0.21792892 0.81847155 0.81390494 0.77969456 0.14053278 0.058961578 0.06695586 0.08510666 0.6717006 0.76909053 0.7726606 0.01618576 0.17286338 0.13801987 -0.07826014 -0.05626739 0.21372283 0.19211338 0.2015809 0.09625086 0.16464557 0.21436714 0.21743143 0.29194522 0.040341556 0.3369207 -0.083793536 0.35030928 0.023531241 0.39867064 0.41609424 0.015240148 -0.20465592 0.18525124 0.43320975 0.39061588 0.034688056 -0.018798262 0.2957715 0.41374722 0.18104427 -0.0033189654 -0.022129543 0.08098225 0.24689555 0.27872938 0.6170986 0.362024 0.33025968 0.61896884 0.4412464 0.6543646 0.63624144 0.5757779 0.56447226 0.5387977 0.48276764 0.5073547 0.37017003 0.35534275 0.31579924 0.3264813 0.34737927 0.32567102 0.16358449 0.32146674 0.28874522 -0.12709722 -0.096117295 0.06447224 0.26092222 0.50642216 0.5366774 -0.12452985 0.34454483 0.38084647 0.4355391 0.83712816 0.66737115 0.07523213 0.06311437 0.7711173 0.7687603 0.65113413 0.3606133 0.31281465 -0.0015232936 0.10048015 -0.07496102 -0.12346817 0.23101136 0.45781624 0.34827107 0.39326817 0.5060593 0.29276943 0.3056618 0.07754746 0.24708675 0.12801377 0.23627482 0.1190971 -0.07430748 0.37816316 0.2520115 -0.0022335276 0.37023485 0.13203096 0.65370286 0.6928943 0.69540465 0.35810357 0.2417779 0.20239645 0.5638405 0.6324432 0.7080828 0.7151971 0.688828 0.23830512 0.5230193 0.6895772 0.17886984 0.10535109 0.01013203 0.39258933 0.72355837 0.62505823 0.18669593 0.16335765 -0.09679086 -0.06981623 0.39673537 0.5679636 0.5976559 0.7021444 0.08486746 0.36336648 0.45872974 0.18988447 0.09568575 0.038945884 0.20159598 0.19699445 0.15543956 0.14114662 0.1809222 0.19172949 -0.056341976 0.09239146 0.19930708 -0.07817894 -0.077869564 0.31275165 0.25703332 -0.5727072 -0.5072645 -0.19353117 0.12752682 0.105995655 0.14492011 -0.023040116 -0.089164585 0.63365173 0.18146725 0.06905747 0.65853965 0.68852454 0.6904099 0.35101768 0.19998959 0.15657765 0.4724277 0.32594937 0.26268223 0.5452415 0.3817375 0.3413266 0.42816374 0.41955724 0.36403653 0.44950747 0.3538308 0.31931266 0.45500898 0.50263774 0.5243902 0.41969353 0.40747747 0.39606142 0.43454933 0.4587784 0.3707745 0.41835952 0.3000908 0.6406409 0.6771105 0.67614007 0.6432333 0.6386591 0.35028595 0.5974079 0.5969582 0.5476164 0.4994704 0.5419877 0.24758323 0.510237 0.54702806 0.41944918 0.2832381 0.05710771 -0.076270275 -0.14298251 0.21505457 0.26271564 0.21479543 0.15807256 0.22387251 0.18291627 0.12661913 0.26693305 0.23132628 0.47896904 0.30230993 0.62383723 0.44757107 0.2411032 0.50367653 0.41178775 -0.27338174 0.15311301 0.5586618 0.65761864 0.4929479 0.41303515 0.11997326 0.43722758 0.58611405 0.6161773 0.39445716 0.33104956 0.48806334 0.28840753 0.5479496 0.4349507 0.21185577 0.19750261 0.43661773 0.21514112 -0.019813098 0.20857896 0.11954505 -0.069316715 -0.017658673 0.33305416 -0.20771101 -0.06580061 -0.03298693 -0.17057677 0.1667213 -0.00766474 -0.11420875 0.16030964 -0.21902733 -0.033297732 0.09310291 0.12833777 0.4838906 0.10564774 0.63775873 0.5597681 0.48788774 0.06810327 -0.060976066 0.6749631 0.6293935 0.5386156 0.1396052 -0.4085383 -0.2859797 0.4664501 0.63653636 0.5794146 -0.04793477 -0.15160352 -0.21966235 -0.2810728 -0.20925349 -0.45218047 -0.16312145 0.026869532 0.66494846 -0.3547846 0.045120448 0.17483023 0.55133516 0.712455 0.70728993 0.08873529 0.17285676 0.35156587 0.53854847 0.6750655 0.7104683 0.7166543 0.2815408 0.26770192 0.23401202 0.11555769 0.34448808 0.28491554 0.21117564 0.29131857 0.09391792 0.4941931 0.5360632 0.62592477 0.6172921 0.65748656 0.47421142 0.46305418 0.47075668 0.63778734 0.6604644 0.6963076 0.70569396 0.69866896 0.4313721 0.46102318 0.64113134 0.6964724 0.72844255 0.71568763 0.67698646 0.6777418 0.6740737 0.6407456 -0.009015113 -0.0944272 0.6222744 0.6119422 0.5819278 0.39872274 0.27488032 0.5357349 0.4510768 0.37093675 0.33282304 -0.1276436 0.2348209 0.06829302 0.034966625 -0.19168389 0.25540677 0.33162487 -0.12210401 -0.16194776 0.4034392 0.19626427 0.5484419 0.47439826 0.58595276 0.60179836 0.61132604 0.64042807 0.6015749 0.60284936 0.60737437 0.54929966 0.19998008 0.5023854 0.4694494 0.5072293 0.19535333 0.36170244 0.39983335 0.4130207 0.29545397 0.42215204 0.47673967 0.21705116 0.43802127 0.495041 0.20565729 0.5126003 0.5851666 0.18074529 0.18506007 0.070193365 0.43939945 0.5702299 0.6048514 0.12094882 0.003666766 -0.0030912347 0.01967771 0.4185856 0.55297935 0.6103112 -0.23743747 -0.26663336 0.034087572 0.19372606 0.14820632 -0.25686622 0.013866857 0.19677965 0.25223958 0.2615665 0.2468888 0.25117868 -0.058773667 0.5205794 0.4901625 0.23133013 0.22926712 -0.14875463 0.007956564 0.66581637 0.5655588 0.702587 0.68043876 0.4661975 0.6580304 0.6197553 0.5814191 0.45016 0.300991 0.063230745 0.6690058 0.5443393 0.4685777 0.36824036 0.2021932 -0.21151586 -0.33986259 -0.22093901 -0.0062937737 0.6921774 0.06693776 0.19068581 0.5123454 0.6224237 0.67985153 0.69779307 0.10938414 0.054976463 0.20183909 0.33740303 0.4365798 0.3143395 0.022437282 0.26917198 0.45391962 0.052867234 0.040981833 0.4961578 0.48362052 0.39944214 0.26203972 0.18810225 0.1140697 0.4676482 0.42998973 0.3804237 0.26461485 0.67053473 0.70350575 0.6358591 0.61587286 0.6256186 0.71510303 0.7196008 0.5721933 0.6026994 0.7025969 0.640506 0.6914574 0.72383463 0.7283014 0.75266856 0.7324116 0.6986008 0.5519086 0.59576714 0.74712384 0.7415531 0.6504241 0.68850076 0.6452204 0.43723574 0.2991305 0.38647115 0.6517038 0.5953386 0.6018989 0.16230989 0.49508336 0.5556352 0.41082922 0.20601113 0.05684091 -0.14273386 0.09328762 0.4724924 0.025401741 0.36165392 0.39629313 0.21260883 0.17007214 0.2919884 -0.013453437 -0.2011136 0.28278124 0.34295645 0.029600235 -0.18542519 0.45397684 0.17727159 0.122727774 0.49298632 0.52777004 0.59718716 0.5239769 0.5296037 0.66305655 0.64783084 0.6710361 0.65658534 0.18902649 0.15308933 0.24414043 0.61672676 0.5745669 0.3583306 0.40571105 0.47069132 0.43576247 0.4699154 0.21642849 0.52744985 0.110066906 0.5744537 0.58177316 0.13377237 0.60592604 0.58972824 0.2538038 0.58109677 0.61186856 -0.37842974 -0.057530634 -0.2992576 0.19797143 0.32295424 0.1392925 -0.23303907 -0.07807177 -0.03841275 0.23304299 0.33051014 0.35822183 0.36171067 0.43341693 0.2073507 -0.42666394 0.53676134 -0.03569842 0.68864787 0.42919642 0.57826376 0.5405369 0.47956252 0.25928056 0.12398757 -0.019161724 -0.094005115 -0.626891 0.48355252 0.59375006 -0.05975236 -0.003902845 0.5017173 0.5483684 0.61