# vtk DataFile Version 2.0
Really cool data
ASCII
DATASET POLYDATA
POINTS 793 float
19.374083 -12.755811 16.641775
19.252827 -12.556305 16.012924
19.083244 -12.227758 16.491789
18.88223 -11.342426 16.06083
18.770342 -11.110869 17.619246
18.80373 -10.9542465 18.582458
19.134474 -10.95349 19.065712
18.694899 -10.230052 17.415932
18.745148 -10.164164 18.455366
19.08821 -10.369587 19.190107
19.10869 -8.918957 8.4029665
19.303104 -9.129636 8.998435
19.242268 -9.393018 14.849346
18.987883 -9.515026 15.483126
18.828732 -9.89504 16.527729
18.772985 -9.85304 17.576633
18.913424 -9.446095 18.502214
18.966063 -9.833494 19.033083
18.867752 -8.222336 7.789249
18.721294 -8.25778 8.373991
18.951643 -8.288218 9.090275
19.224493 -8.463208 16.22911
19.14671 -9.091067 17.897139
19.101046 -9.048377 18.288885
18.810402 -7.544404 7.8343043
18.67486 -7.5928564 8.235396
18.88617 -7.7176123 9.04636
18.99699 -7.069043 7.9114656
19.006216 -6.982192 8.432668
18.945944 -7.2134604 8.855243
19.99652 -13.203743 17.331774
20.168873 -12.06344 14.259767
19.411089 -12.311159 15.45577
19.646452 -11.846088 18.676756
20.349857 -11.311285 12.016679
20.42852 -11.658578 12.148947
19.892746 -11.681373 14.135864
19.365725 -11.239906 19.134287
19.457634 -10.325164 19.53295
19.671156 -10.503927 19.740536
19.588078 -9.347028 8.942327
20.131624 -9.472955 13.45092
19.70794 -9.493645 19.5544
19.991732 -9.779803 19.7532
19.396704 -8.174048 7.330921
19.995031 -9.01815 13.713022
19.480461 -8.328651 16.825302
19.597622 -8.602526 18.636385
19.741129 -8.849332 19.158623
20.050047 -9.183032 19.651041
19.420618 -7.5452085 7.320652
19.28978 -7.3196335 7.453007
19.85038 -8.016278 15.066566
20.049711 -7.820056 15.344016
19.879358 -7.8955193 16.736025
20.165583 -8.0623865 18.060957
19.598507 -6.8725266 7.6978717
19.412918 -6.690791 8.510027
19.650759 -6.6788726 9.183073
20.03308 -6.3374405 8.033852
19.993801 -6.2550406 8.612663
20.198248 -6.1702466 9.114917
21.393063 -14.408378 0.97063625
21.306774 -14.442153 1.3000339
21.40412 -14.145516 12.944677
21.245445 -14.214277 13.515548
21.179544 -14.201338 15.31759
21.392616 -13.965602 0.90015817
21.323189 -14.006287 1.5438395
21.427229 -13.904813 1.9932079
21.268108 -13.829507 12.560075
21.204157 -13.780342 13.848451
20.41612 -13.51267 16.593508
20.433739 -13.317811 17.329048
21.300812 -12.493012 10.383734
20.881569 -12.490438 11.393744
21.119217 -11.222116 8.50146
20.571331 -11.724784 11.4726715
20.932695 -10.627723 7.9281273
20.627668 -10.6184225 8.5500345
20.52709 -9.206674 7.3392916
20.760017 -10.037839 11.384501
20.823565 -9.600967 12.2623
20.686493 -8.13261 7.13147
20.771078 -8.562413 19.337563
20.829704 -7.451995 7.1835065
20.873653 -7.783669 10.6483965
21.18734 -7.581888 14.050965
20.397812 -7.923955 14.780947
20.330563 -7.651137 15.244489
20.587067 -7.729479 17.390299
20.592361 -8.115804 18.353079
20.325527 -7.077366 7.3174386
20.542498 -6.4146056 7.6370573
20.93008 -7.328059 15.615019
20.781992 -7.4219065 16.460098
21.020496 -6.047592 7.807467
20.874962 -5.774877 8.604465
20.572094 -6.0440035 9.194282
22.087317 -15.74818 1.587298
22.188192 -15.747068 2.1520538
22.200394 -15.58165 13.623051
22.25885 -15.247745 -0.16531381
21.726627 -15.054378 0.7109524
21.62484 -15.228735 1.4874313
21.921303 -15.328552 2.3661807
22.226406 -15.153347 2.8984797
22.097677 -15.190822 12.120925
21.81319 -15.253234 12.922689
21.923609 -15.404125 13.2344055
21.79834 -15.143383 14.3252535
21.794638 -14.873516 15.162393
21.971598 -14.218111 -0.013252169
21.514528 -14.6785145 0.7187972
21.6181 -14.354472 2.4585826
21.534363 -14.19221 12.203725
21.739796 -13.46171 0.5010789
21.475138 -13.559704 1.1695734
21.610111 -13.743457 2.4612906
21.970129 -13.436951 3.2937722
22.397594 -12.91071 5.1422353
21.009094 -13.116175 17.901815
21.63321 -12.887601 19.711098
22.21314 -13.558664 20.910603
22.141205 -12.968634 0.40058824
21.675802 -12.779747 1.794459
21.90211 -12.336498 2.9002724
22.159931 -11.940691 8.569862
21.570553 -12.48118 20.123066
21.98299 -12.53691 21.564028
22.272821 -12.4345045 21.8795
22.33091 -11.717264 1.4139229
21.563019 -10.439214 20.521845
22.039524 -8.793834 6.435478
21.247923 -7.3865547 7.0976024
21.50016 -7.570509 13.808869
21.38959 -6.8214235 10.283093
21.448519 -7.2466583 14.9710045
21.248178 -7.4399033 16.379103
21.112835 -5.9602227 7.9238973
21.35587 -5.720399 8.58678
21.444859 -5.821529 9.241574
21.551071 -6.2410073 9.909447
23.032757 -16.041761 -0.19493617
22.899864 -16.219366 0.71768093
22.681122 -16.182579 1.6247869
22.5958 -15.932979 2.367975
22.687565 -15.825705 2.8080194
22.8253 -15.7891035 12.858478
22.671274 -15.708333 13.3427305
22.698668 -15.6656885 13.820186
22.660404 -15.241987 -0.6904664
22.678621 -15.606215 2.9916797
22.715775 -15.354006 11.931835
22.323141 -15.56973 12.434323
22.659515 -15.417342 14.31291
22.60174 -14.790802 15.510451
22.69748 -14.585714 -0.83985054
22.902166 -14.542145 4.1555023
23.055815 -13.787137 5.755697
22.6382 -14.606881 15.812096
23.05198 -14.080339 19.87347
22.793726 -14.047847 20.557215
22.882193 -13.998234 21.07463
22.898024 -13.856632 -0.88257843
22.477253 -13.198268 10.387467
22.75379 -13.178268 21.947557
23.253716 -12.410197 -0.7578598
22.740833 -12.426156 22.187748
22.474237 -11.272168 3.8310406
22.789932 -11.583267 22.137785
23.078663 -10.766143 0.810727
22.645004 -10.987791 1.869058
22.903717 -10.605185 21.614422
22.485374 -7.813789 11.058141
22.292074 -7.543881 15.75428
22.645517 -8.008122 18.072004
21.98813 -6.5907173 7.5703297
22.596008 -7.441003 14.360289
21.902527 -6.1815834 7.8861217
22.209583 -5.9887137 8.614374
22.343683 -6.242841 9.3262825
23.774208 -16.56243 0.7692454
23.751562 -15.875193 -0.96395063
23.571474 -16.227003 -0.3915882
23.68704 -16.443764 0.3632455
23.659842 -16.460417 1.4652585
23.176628 -15.688849 12.633936
23.170078 -15.69434 13.279425
23.71313 -15.369512 -1.2338488
23.904697 -14.711672 4.813052
23.258772 -15.284895 11.93136
23.624773 -15.362806 12.310073
23.48004 -15.570768 13.458019
23.420507 -15.291527 14.031947
23.701632 -14.280187 5.375658
24.000845 -13.884941 7.1322575
23.503014 -14.3297205 11.067221
24.007896 -14.378357 20.785156
23.642773 -14.024559 21.476168
23.44338 -13.157765 -1.1083409
23.511621 -13.300699 22.022158
23.727303 -12.627054 -1.3127772
23.224453 -12.307761 22.35117
24.172934 -11.078211 -1.2787244
23.555809 -11.474142 22.369448
24.013422 -9.794534 -1.1354961
23.565228 -10.007879 21.349655
24.047825 -8.850578 -0.07893485
23.87069 -8.29498 20.698942
24.334465 -7.113544 -5.134681
24.25686 -8.224026 4.991153
23.352266 -7.7652574 7.4866433
23.596804 -8.396154 11.675307
23.668417 -8.399641 12.646779
23.431238 -8.162597 13.80019
23.421751 -7.806385 14.349349
23.574455 -7.612812 15.443907
24.09058 -8.247272 20.903423
24.454756 -6.4159274 -5.5229063
24.069994 -6.3941007 -4.4650445
23.948893 -6.583063 -3.5573683
24.094551 -6.451537 -2.892282
23.307459 -6.997705 9.707605
24.050297 -7.031591 18.326414
24.404802 -5.9639235 -5.2264357
24.022688 -5.7274537 -3.940284
24.158981 -5.352149 -3.7685738
24.26533 -16.577095 0.77048147
24.053644 -16.59814 1.0988272
24.339653 -16.324928 -0.21120094
24.659996 -16.45881 0.3451942
24.385565 -16.418085 1.425469
24.44214 -15.5475025 3.3084583
24.222414 -15.235995 -1.3440105
24.516453 -15.2325535 4.2165675
24.006273 -14.920387 13.680179
24.971779 -14.544144 19.37239
24.726818 -14.527355 20.171282
24.933502 -14.135235 -1.6862438
24.787504 -14.46224 -1.4498775
24.574831 -14.359575 6.231123
24.550396 -13.66979 7.73553
24.196447 -14.062042 14.414933
24.599092 -14.427687 19.325392
24.644182 -12.981433 9.852584
24.399872 -13.44304 21.910297
24.513296 -12.555079 14.130992
24.000484 -12.516739 22.244598
24.39278 -11.260827 -1.3205147
24.391657 -9.874586 -1.6016749
24.29132 -9.190464 21.495481
25.266731 -8.428797 -6.537338
25.193165 -8.483828 -5.904099
24.374104 -8.604836 -1.0205851
24.537998 -8.899333 13.143481
25.355196 -7.5821586 -6.9686255
24.59083 -7.0790725 -5.673558
24.62232 -8.382302 0.09420292
25.02988 -7.6430597 4.898203
24.197239 -7.7140665 9.353665
24.039488 -8.045095 10.390473
23.95975 -8.273799 13.911287
23.909615 -8.010874 14.622874
24.233444 -7.81515 20.525055
24.617226 -6.4914894 -5.902432
23.757439 -7.2499695 8.921304
24.639446 -7.205584 17.557005
24.160328 -6.97875 18.205835
24.94497 -6.034299 -6.363391
24.954916 -5.512672 -2.5261135
24.668102 -4.369285 -3.740448
24.825872 -5.0267773 -2.768934
25.061836 -3.7856057 -3.8219552
25.438585 -2.2994685 -6.957713
25.113321 -2.1389916 -6.2653003
25.328323 -2.5887635 -3.6305416
25.159508 -1.6045699 -6.2094183
24.979572 -1.5210333 -5.4698114
25.073132 -1.5106206 -4.6600633
25.2749 -1.0702502 -6.1825547
25.16509 -0.9192649 -5.3209
25.14011 -1.0215697 -4.9918594
24.858562 -15.712175 -0.8956498
24.962383 -16.243101 -0.03486541
25.262186 -16.180939 0.5502844
25.20003 -15.197864 -0.9671113
25.019716 -15.124467 4.46775
25.368929 -13.920744 -1.5860276
25.070543 -13.667146 7.3963776
24.624084 -14.052379 11.966268
24.945211 -13.765343 12.405902
25.577108 -14.2366 18.641653
25.544128 -13.400607 7.5469236
25.21869 -13.071012 11.710632
25.24621 -13.093754 12.117981
25.22049 -12.891371 17.728085
25.384653 -12.666579 12.309811
24.937767 -11.366752 13.56422
25.845257 -9.055483 -6.325288
26.087994 -9.2540045 -5.569643
25.567755 -10.043391 11.411596
24.991669 -9.598432 14.491839
25.48524 -9.33509 16.382437
25.73519 -9.204398 22.422724
26.26926 -8.316469 -7.7880106
25.659779 -8.583863 -6.9988656
25.65699 -8.62759 1.2060734
26.287064 -8.477686 23.05059
25.528263 -7.690878 -7.205038
25.972095 -7.656126 3.8558373
26.222555 -6.6763167 -7.934841
25.757174 -6.6725936 -7.35121
25.375929 -6.123858 -2.34717
25.740887 -7.1532187 4.783103
25.649666 -6.643131 18.596651
25.601639 -6.5980515 19.785315
25.383663 -7.0072327 20.372812
25.497356 -5.779756 -6.8252926
25.932703 -4.8034806 -6.461419
25.99812 -4.113661 -2.6654663
25.612516 -2.3908641 -7.1964326
26.136335 -1.679084 -7.7909713
25.76619 -1.5895114 -7.3065214
25.553474 -1.7261001 -3.7666955
25.738426 -2.0937421 -3.2185798
[...]
POINT_DATA 793
SCALARS features_00 float 1
LOOKUP_TABLE default
0.44266337 0.4150399 0.45879507 0.43584394 0.54997724 0.57003284 0.5656818 0.5473461 0.5795412 0.5721138 0.7790401 0.6909876 0.44951376 0.48573178 0.50180507 0.55476755 0.5799131 0.5741425 0.8554994 0.84835684 0.7999996 0.4997357 0.55369264 0.5683415 0.835341 0.8408232 0.8143101 0.8072796 0.80061144 0.7982472 0.38090825 0.16987874 0.3733728 0.46415475 0.18818052 0.18704751 0.17249832 0.5360836 0.55220854 0.5179678 0.61370355 0.27059856 0.55403304 0.5189935 0.81693095 0.3806532 0.49300885 0.5581303 0.5647012 0.5388151 0.7881967 0.7960812 0.4555142 0.44870916 0.4606188 0.4892651 0.7715179 0.76705134 0.71402687 0.7492417 0.7420889 0.7285565 0.55893475 0.56176436 0.49614328 0.518455 0.4462677 0.52557945 0.53240705 0.528324 0.37105697 0.4139745 0.30762103 0.3234317 0.23415859 0.242836 0.13403232 0.22056657 0.28797823 0.26854038 0.6777798 0.07563105 0.074060485 0.6371226 0.50416684 0.65024024 0.56227064 0.44425893 0.44518587 0.43968147 0.41818717 0.45874292 0.7177365 0.73704064 0.42693096 0.42798257 0.7448667 0.7598231 0.7423576 0.65071297 0.6059023 0.63464034 0.70722836 0.63036555 0.6310092 0.59147227 0.5365779 0.67965156 0.658294 0.6516159 0.6191293 0.55645615 0.551355 0.5797694 0.5700871 0.4873244 0.4849611 0.49109936 0.514272 0.45221555 0.26347822 0.30838692 0.4060946 0.61464596 0.43934542 0.42578164 0.37016767 0.034910455 0.48687002 0.61252534 0.5878756 0.31019753 0.32862818 0.42873377 0.6114949 0.44550157 0.64721924 0.42422867 0.40032184 0.75034 0.7684674 0.7669725 0.7150897 0.7113974 0.6373167 0.6184591 0.5672312 0.5074618 0.65715194 0.6468706 0.62650764 0.7546041 0.4908089 0.6835984 0.6726754 0.6012983 0.5688629 0.64219433 0.3424297 0.29506254 0.5458139 0.45627344 0.56354237 0.6180941 0.49732506 0.35639185 0.6161678 0.25773305 0.5699736 0.26805583 0.51100343 0.23567395 0.22589979 0.29545847 0.36356938 0.38854718 0.24380007 0.6668003 0.36247444 0.7239835 0.74862283 0.6938034 0.6010958 0.71029794 0.6740263 0.61282516 0.57090366 0.657453 0.6406537 0.7219994 0.29611555 0.6724266 0.65155905 0.61958635 0.59642726 0.3066197 0.26544777 0.6505996 0.54496205 0.63852483 0.35974878 0.6102307 0.2152857 0.5582677 0.24447429 0.49884257 0.3741271 0.14780734 0.46045578 0.09927462 0.33138758 0.19852945 0.4635942 0.060497537 0.060944136 0.1770339 0.23373371 0.27586958 0.096015915 0.3487589 0.40494275 0.5158103 0.66106236 0.37741017 0.23471797 0.3445527 0.48808047 0.5435716 0.6018349 0.58296955 0.6449691 0.62240165 0.5469771 0.3902404 0.65283585 0.30704737 0.6023976 0.37429035 0.39787942 0.5736176 0.59787035 0.3388997 0.25154984 0.5835768 0.37609792 0.2306368 0.54721725 0.44769096 0.5270289 0.24444935 0.40367037 0.059650693 0.4758876 0.4754674 0.46145588 0.10550035 0.4246877 0.34574974 0.34668577 0.27019483 0.28332108 0.23743568 0.16468173 0.2107469 0.12465629 0.34110785 0.40546978 0.15405816 0.22891015 0.30915624 0.5649106 0.44469807 0.5006476 0.3217445 0.58090377 0.5735346 0.349028 0.5963441 0.57361645 0.5437919 0.5928768 0.5821184 0.5754911 0.6527598 0.64427006 0.61008394 0.6142597 0.31993532 0.5325633 0.3185792 0.4286769 0.36580873 0.36146313 0.34024957 0.24583429 0.2686866 0.2882752 0.24352928 0.31830323 0.47416276 0.45630655 0.28174824 0.15921015 -0.07253484 0.2749954 0.4577674 0.46983883 0.3315059 0.39747792 0.43217194 0.27742517 0.3746621 0.37052584 0.49020243 0.2930975 0.32247493 0.42497918 0.39744574 0.29579404 0.24490267 0.3101389 0.5781454 0.63296914 0.6167605 0.4645954 0.4130704 0.6201496 0.5947299 0.5797435 0.571527 0.55225176 0.57912683 0.57012427 0.5689556 0.546126 0.5602832 0.5446259 0.38147885 0.39918643 0.36904538 0.48528284 0.3489193 0.35114145 0.37401816 0.060815915 0.3121661 0.27631107 0.2791239 0.03684456 0.33521256 0.27551526 0.22869082 0.27666926 0.47510552 0.47455728 0.46500576 0.67074156 0.16183883 0.25170395 0.42656407 0.47824907 0.31516284 0.43688703 0.43353227 0.42728013 0.2691857 0.35640544 0.3548764 0.28752428 0.44500047 0.40098488 0.23859952 0.3350052 0.37565857 0.54154295 0.3349558 0.45372558 0.44656846 0.4122364 0.46981674 0.47376564 0.47328025 0.5586859 0.45104933 0.63164806 0.48807836 0.6402812 0.48732662 0.50421584 0.6303418 0.5384629 0.5424553 0.5826162 0.56568146 0.5742253 0.6134611 0.35602722 0.33050776 0.3328253 0.35758153 0.36562824 0.3072415 0.25693318 0.19078721 0.37292856 0.40080875 0.0565953 0.29804778 0.38453317 0.30572823 0.38269448 0.76678693 0.6966789 0.13936858 0.4723283 0.7217525 0.5713403 0.5218992 0.43776518 0.29510155 0.25561503 0.16452369 0.47560465 0.56145155 0.19499265 0.47716945 0.4415371 0.3223722 0.3609631 0.47425386 0.48322958 0.35596636 0.1773048 0.4162277 0.34405324 0.3559151 0.33820906 0.36249822 0.4816801 0.4817616 0.29501396 0.12331828 0.38384253 0.4237249 0.4901027 0.5102484 0.49492714 0.14943445 0.31901294 0.52680767 0.6069336 0.55030406 0.6357867 0.593531 0.5536807 0.58319557 0.5643802 0.56521094 0.59217227 0.6516479 0.5748435 0.76107395 0.19495721 0.32126194 0.014990717 0.34427786 0.26006725 0.33222193 0.35699326 0.413696 0.8623719 0.8506367 0.83008456 0.6213206 0.51910424 0.3366429 0.84315526 0.34149352 0.32868573 0.485622 0.8005105 0.7337614 0.21115887 0.3880074 0.31027365 0.4637878 0.2886364 0.32227826 0.4941322 0.48144072 0.37041426 0.50896275 0.08531183 0.3937633 0.43275303 0.50553745 0.45442265 0.5491962 0.57909393 0.5641446 0.6305654 0.6101639 0.5822182 0.5454497 0.56495345 0.5886167 0.5616915 0.65615094 0.66745746 0.6882195 0.7225348 0.58979994 0.6481539 0.5558436 0.68250096 0.4056074 0.19877481 0.15095729 0.3802514 0.9203876 0.9296036 0.8643688 0.61442316 0.34908915 0.38245565 0.27805135 0.46137264 0.8754518 0.3506927 0.23330493 0.42004514 0.82622766 0.364169 0.42398387 0.7284537 0.5371297 0.4933653 0.46803957 0.40735036 0.49238533 0.5010692 0.3854457 0.52846885 0.50946575 0.33350557 0.44273418 0.5568127 0.56493574 0.5459015 0.5022627 0.44553697 0.33409882 0.46354485 0.40048057 0.5472602 0.5427963 0.54691756 0.5747448 0.5349454 0.5509056 0.6046988 0.67526567 0.67967665 0.6433882 0.66885555 0.68058026 0.6875808 0.69459736 0.57469404 0.6730797 0.48456615 0.5896323 0.32890356 0.12283639 0.11399431 0.9294265 0.9220674 0.78579926 0.6126715 0.48887157 0.37640512 0.90142167 0.90605384 0.59002507 0.55466753 0.5536503 0.5674679 0.32883686 0.8570709 0.47347218 0.4489053 0.3419589 0.4933415 0.4883887 0.30262682 0.37581927 0.45026082 0.46072206 0.5242663 0.5322641 0.3108191 0.6333898 0.4096965 0.33233213 0.8055177 0.79632556 0.46859497 0.7494344 0.54809654 0.66740763 0.6719955 0.6526311 0.6511321 0.66638786 0.6681328 0.678091 0.5920596 0.6443294 0.5467576 0.55895877 0.5582777 0.47259396 0.10489904 0.10908726 0.12676455 0.08079636 0.70857644 0.5406232 0.5914267 0.2439527 0.5132998 0.28059027 0.47987056 0.6034171 0.54785484 0.5287455 0.545122 0.3862573 0.6450355 0.5909713 0.29605222 0.7336618 0.72576904 0.8191211 0.82711387 0.8012421 0.6698936 0.6824384 0.646247 0.6718629 0.6702405 0.65586704 0.6585858 0.65139794 0.62266505 0.58921134 0.33155155 0.15536451 0.3171031 0.4711659 0.41648483 0.49692744 0.5750891 0.6074584 0.52907693 0.66336006 0.4063491 0.7397253 0.7628013 0.8171879 0.8036164 0.82106245 0.78717077 0.6989958 0.69209135 0.7088357 0.70536196 0.69123304 0.6730592 0.6663432 0.686242 0.6441119 0.45044404 0.2970361 0.35802576 0.3648979 0.40518707 0.45077783 0.38638592 0.37985882 0.6625806 0.4403484 0.47194427 0.4656881 0.4292189 0.65481365 0.6566105 0.47525483 0.4685042 0.5469137 0.61276656 0.7214718 0.6142278 0.5552095 0.7862836 0.74214834 0.5638461 0.4814508 0.8033906 0.7868998 0.70953953 0.76836526 0.71795297 0.71784157 0.67630416 0.6545783 0.7231132 0.6970478 0.6310395 0.61436427 0.70809656 0.6858025 0.597751 0.5937642 0.51937807 0.61434054 0.6080022 0.4156741 0.64662844 0.43552566 0.41006634 0.7091164 0.7233787 0.46274462 0.4158168 0.40699553 0.7360704 0.620556 0.66964865 0.67389125 0.45654818 0.43045148 0.5207518 0.64741445 0.67273945 0.6496837 0.521331 0.4673121 0.52477145 0.65635484 0.6501054 0.43853807 0.5405129 0.6131612 0.6393975 0.60015285 0.6795287 0.64984035 0.5337553 0.7116256 0.5307718 0.74537516 0.46123034 0.7536239 0.76182485 0.78483605 0.770261 0.7391551 0.6896738 0.5909804 0.62964785 0.57278556 0.62164414 0.57415855 0.634555 0.70704377 0.7588075 0.76305187 0.7020064 0.6368333 0.7846282 0.797586 0.71631193 0.61494416 0.8028066 0.8543595 0.7350021 0.8247796 0.8247268 0.79538274 0.7203057 0.7079403 0.7642093
SCALARS features_01 float 1
LOOKUP_TABLE default
0.03967562 0.035560343 0.04753296 0.04519732 0.0750924 0.08071541 0.07956926 0.07418341 0.083664596 0.081325844 0.14965986 0.12073744 0.042468376 0.052669067 0.059035137 0.07609048 0.08369384 0.08199199 0.17936623 0.17785844 0.15765016 0.056760527 0.075051576 0.079903916 0.17274979 0.17535216 0.16345322 0.16169721 0.15939537 0.15859188 0.02489733 0.0010666295 0.029557204 0.05086147 -0.005315966 -0.0020899023 0.00022895786 0.07123551 0.07534372 0.06512148 0.09630351 -0.005307587 0.07580435 0.065221824 0.16413651 0.018635532 0.05589149 0.076716065 0.07890462 0.0711286 0.15437375 0.15720452 0.046560425 0.04606884 0.04946156 0.057064585 0.14673416 0.14570923 0.12734923 0.1371042 0.13527113 0.1315002 0.07601535 0.07601134 0.053767398 0.05625985 0.014501164 0.067624025 0.06784792 0.06544211 0.031182218 0.032666396 0.00067371695 0.012261937 -0.00912947 0.009372676 0.0028190955 0.0009377934 0.017995726 0.01575454 0.09883217 -0.030301869 -0.030342432 0.0979027 0.061208118 0.10537524 0.0686042 0.04167263 0.04331413 0.044075362 0.04169167 0.050611977 0.127681 0.13289268 0.042118322 0.042962503 0.1358297 0.14186122 0.13654831 0.10005872 0.08565201 0.09321412 0.121320255 0.09666929 0.09385239 0.080434844 0.06185109 0.10883052 0.09987766 0.09793887 0.08138328 0.06271442 0.07588541 0.082248084 0.07396975 0.05275872 0.058336973 0.058368877 0.059924882 0.0375928 -0.019998727 0.018550236 0.030048126 0.08854692 0.047468934 0.04188244 0.027335718 -0.009375175 0.051340427 0.08662056 0.08142938 0.02297787 0.019401696 0.009512272 0.09173224 0.040651724 0.10123731 0.04088052 0.03823524 0.13780886 0.14499265 0.14542325 0.12724262 0.12532607 0.100605235 0.0920196 0.07550773 0.0578755 0.10379136 0.099463 0.09160636 0.13690208 0.051092193 0.11266792 0.10833452 0.08210986 0.07195614 0.0987082 0.00489787 -0.010515893 0.063816495 0.048727408 0.074635774 0.08859636 0.058555838 0.007061741 0.08973186 0.0069654537 0.07795475 0.008363935 0.062176645 0.008737276 0.012888341 0.012876193 0.009827055 0.0345031 -0.0016287039 0.10690034 0.024970451 0.12731138 0.13584615 0.1174587 0.089483276 0.12565637 0.11349271 0.093389556 0.0784054 0.1048042 0.09874974 0.12773764 -0.0062189437 0.10978615 0.10387622 0.0929926 0.083893634 -0.0048218993 0.0074266777 0.083159894 0.06840212 0.09265136 0.024487335 0.08695829 0.001341362 0.07512913 -0.010645597 0.06008414 0.012973795 -0.0016316421 0.029964725 -0.00534584 0.02694693 -0.0020653019 0.029274527 -0.034306947 -0.021254424 -0.004917893 0.003051374 0.008764978 -0.00808199 0.030641604 0.037243143 0.056889266 0.08234678 0.03320689 -0.015088083 0.028283484 0.048016325 0.050726425 0.089474745 0.08315464 0.103867605 0.09617059 0.070235334 0.016309958 0.10400756 -0.0026720655 0.087598234 0.02903787 0.036200915 0.071334936 0.08180333 0.012918424 0.003710961 0.07824898 0.031038497 -0.030520093 0.061149273 0.048693568 0.06467219 -0.011591467 0.016109144 -0.009725958 0.041329168 0.04133794 0.021703063 -0.017733708 0.036579687 0.029732443 0.011530548 0.0074104248 0.020039672 0.008964075 -0.0096295215 -0.00040438306 -0.0071238447 0.028828366 0.039635595 -0.026185393 -0.018341145 0.022472218 0.028643575 0.014086373 0.015972294 -0.00028476026 0.08413277 0.08205207 0.020960959 0.088792115 0.0820009 0.07307575 0.08786188 0.08483144 0.08280364 0.105744936 0.10345368 0.091486365 0.09114806 0.001171652 0.05538421 0.016807524 0.03405332 0.025969034 0.011936907 0.022479147 0.0007665921 0.0068677943 -0.0005513309 0.008118431 0.024789598 0.036904197 0.032119483 -0.002913325 -0.048138443 -0.022596676 0.017975068 0.038999308 0.038498327 0.019105466 0.03906561 0.03712119 0.007246879 0.029925447 0.02880853 0.008507922 0.0075785313 -0.007503977 0.006407005 0.007664785 0.018451974 0.011682841 -0.0022078976 0.08264573 0.09979795 0.09500349 0.051525507 0.039513767 0.09608918 0.08838446 0.08411595 0.081440344 0.07534743 0.08378276 0.081178635 0.08054918 0.07287909 0.07754335 0.07361075 0.03627042 0.034132946 0.013723344 0.047343165 0.017353911 0.027714578 0.026231805 -0.0066154357 0.012617837 -0.0053852615 -0.002585272 -0.004114113 0.02166432 -0.002727714 -0.01129859 -0.0005448427 0.039494067 0.034439184 0.033223975 0.102987796 -0.02354691 -0.0066470993 0.0454747 0.043419328 0.01869389 0.04755107 0.040604457 0.038816985 -0.03341904 0.022174 0.025172211 -0.0042979177 0.049459618 0.03439234 -0.03728108 0.013652498 0.02015438 0.053526927 0.00881364 0.05113226 0.049817532 0.024245897 0.036899436 0.053016912 0.055862933 0.0759244 0.048296373 0.0990746 0.058884934 0.10218512 0.05911965 0.06328378 0.099240676 0.072219014 0.07322748 0.084782146 0.07971463 0.081726186 0.09297523 0.024699546 0.02424231 0.026929671 0.031223532 0.03319544 0.012163088 0.0012047607 -0.009813992 0.034651615 0.03940426 -0.004751844 0.009831467 0.036681436 0.016651055 0.036547482 0.14402321 0.115561776 -0.009395793 0.054520912 0.1263069 0.070880525 0.053532004 0.028236669 0.012330289 0.0050135544 -0.012773471 0.056187034 0.07282035 -0.0119910035 0.056906015 0.045356803 0.015703028 0.023354234 0.056124803 0.05820345 0.029297052 -0.028781818 0.020204064 0.01577242 0.019728282 0.01624854 0.022380408 0.05798116 0.057952527 0.019323684 -0.0020202787 0.025633883 0.036542255 0.051544618 0.065001205 0.061183155 0.00039322604 0.024951495 0.06862928 0.09183084 0.0748071 0.100971654 0.08735452 0.07619234 0.084706865 0.0792512 0.07971651 0.087459594 0.10432722 0.072864205 0.1351942 -0.011200992 0.025737211 -0.001575163 0.024798576 0.0017266637 0.027329344 0.029084241 0.04090576 0.18528208 0.18032329 0.16951805 0.0869138 0.054835074 0.028107556 0.17648615 0.02319276 0.019635372 0.058234002 0.15780318 0.1305624 -0.0068706293 0.03333189 0.013221652 0.05303424 0.0066711567 0.020119937 0.060780838 0.04152862 0.029413858 0.06443688 -0.0055538984 0.032249194 0.041855887 0.06371792 0.049513824 0.07408675 0.08355395 0.07792029 0.09928337 0.09237593 0.08340606 0.07420701 0.07978376 0.08651313 0.078862615 0.105821654 0.1091013 0.11435379 0.12575643 0.087008424 0.10424303 0.075260766 0.10742343 0.030497521 0.002359217 0.0074017937 0.030343581 0.21169181 0.21597454 0.18623623 0.093114 0.030105803 0.034694627 0.016971719 0.04918409 0.19107875 0.024681306 -0.0011858873 0.04171149 0.1701599 0.02383634 0.04427942 0.1282903 0.068408266 0.055944618 0.04779059 0.04065154 0.056088757 0.056612987 0.03340076 0.06975644 0.06461785 0.019098125 0.04512823 0.07142687 0.079534575 0.07431063 0.06274392 0.04843977 0.017798051 0.052927688 0.036326904 0.07352271 0.07182263 0.07464852 0.0827852 0.071260504 0.07563152 0.091393866 0.110805854 0.111952916 0.10109226 0.10886578 0.112434186 0.113778494 0.11636699 0.082524896 0.10943248 0.056485537 0.082253054 0.010588595 0.00517248 0.0058289496 0.21585457 0.21248789 0.15406747 0.09245924 0.05578673 0.031361222 0.20242885 0.20262672 0.085885026 0.074529335 0.065997496 0.07829929 0.023157919 0.1836008 0.054270312 0.047211118 0.026627941 0.057851057 0.055640407 0.011797847 0.034706213 0.042224202 0.053345203 0.06836682 0.071392916 0.0116543 0.09989237 0.03691569 0.01790731 0.16057701 0.15649077 0.052141942 0.13789146 0.0746068 0.1079349 0.109837025 0.10315875 0.10178584 0.10776986 0.10733989 0.11093018 0.08713627 0.10048122 0.07475057 0.078104936 0.07318047 0.050726525 0.0027213534 0.0028160077 0.001225813 0.0017248444 0.12763162 0.06952646 0.088830955 0.00672694 0.06356586 0.014828207 0.05456288 0.08542418 0.058064032 0.067247696 0.074151464 0.02453157 0.10408454 0.08752197 0.006959023 0.1339897 0.13112234 0.16656965 0.17026435 0.15990536 0.1093088 0.11260202 0.100862786 0.110028654 0.10786348 0.10586092 0.10645076 0.102442354 0.09605821 0.08570758 0.008069606 0.0034042876 0.017874975 0.053731374 0.04331225 0.059732825 0.07146377 0.09066613 0.0637344 0.10972963 0.03463874 0.13584884 0.14364944 0.16579191 0.16086024 0.16768579 0.15443532 0.12002693 0.116782606 0.122082666 0.12095122 0.11661525 0.11122002 0.108341426 0.1145074 0.10040969 0.04193625 0.01720944 0.023550514 0.026017852 0.036307584 0.045154024 0.032262813 0.032024767 0.101653256 0.041388884 0.054243222 0.0530747 0.04570347 0.10700237 0.10721343 0.05485697 0.053672444 0.072181575 0.09367713 0.12665816 0.094189 0.076963514 0.15147896 0.13559024 0.07094424 0.05637801 0.15980095 0.1542216 0.12546182 0.14759551 0.124859385 0.12510265 0.11181301 0.105423674 0.124937065 0.11841418 0.09854051 0.09373634 0.11672836 0.11055409 0.08719333 0.080096565 0.066230915 0.09055103 0.08867586 0.04177515 0.10104372 0.044573184 0.040140036 0.12241512 0.12728369 0.047608677 0.03993258 0.03803315 0.13333541 0.09305976 0.112103716 0.111115046 0.049263023 0.043433923 0.06686437 0.104763865 0.113085814 0.10550547 0.054644343 0.04964001 0.066938356 0.107475005 0.10564218 0.032020733 0.07179762 0.09371351 0.101833634 0.08894734 0.112357 0.1035059 0.07067865 0.124792375 0.067732416 0.13783082 0.05009267 0.14079405 0.14405477 0.15315586 0.14808162 0.13616055 0.11795779 0.08728091 0.09894869 0.08149184 0.09638396 0.08188648 0.100429185 0.11902238 0.14225133 0.14177245 0.12154847 0.10056111 0.15330242 0.15804991 0.1282662 0.093933746 0.16075896 0.18224911 0.13004756 0.1700312 0.16840504 0.15794514 0.1296584 0.12529492 0.14598401
SCALARS features_02 float 1
LOOKUP_TABLE default