# vtk DataFile Version 2.0
Really cool data
ASCII
DATASET POLYDATA
POINTS 6810 float
-31.827085 -93.150734 6.0650444
-31.889576 -93.128624 6.453852
-31.930202 -93.14272 7.25837
-31.719841 -93.12998 7.881337
-31.80953 -92.54908 5.8695874
-32.03604 -92.588394 6.662708
-31.997412 -92.51492 7.3355594
-31.769386 -92.58732 7.8895273
-31.827908 -91.724014 6.716712
-31.790564 -91.7521 7.4239936
-31.700752 -91.9596 7.917445
-30.636978 -95.466576 0.7543843
-30.63068 -95.118546 1.8848422
-30.7423 -94.706474 0.51240206
-30.7245 -94.51171 1.496053
-31.045029 -94.07086 5.55691
-31.530853 -93.79186 6.7500668
-31.198675 -94.23774 7.5998616
-31.0132 -94.18474 8.415444
-31.027664 -93.42252 0.8314334
-31.071527 -93.358406 1.4093846
-30.917686 -93.07346 2.4066324
-31.522444 -93.082184 5.0868087
-31.496546 -93.70394 6.3948555
-31.558088 -93.655624 7.3925204
-30.96967 -93.744896 8.692778
-30.879704 -93.536255 8.915048
-30.613022 -92.3866 -0.13746074
-30.927942 -92.62846 0.48778242
-30.637884 -92.758934 3.2091787
-31.097239 -92.32117 4.472129
-31.470528 -92.319275 5.196487
-31.428413 -92.69256 8.320549
-30.719086 -92.76538 9.1689825
-30.689476 -92.125305 0.1339851
-30.700005 -92.034424 0.45050013
-30.818787 -91.9246 1.454458
-31.025185 -91.55028 4.91671
-31.522928 -91.52942 5.8727155
-31.5911 -91.490074 7.530241
-31.458794 -91.74527 8.011807
-31.35071 -91.19484 6.013815
-31.235409 -90.99153 6.634694
-31.25541 -91.0886 7.483258
-31.226776 -91.252266 7.8669868
-30.086926 -95.88833 -0.116731346
-30.364182 -95.925766 0.6973146
-30.298435 -95.99892 1.4075289
-29.825409 -95.7355 2.4475822
-29.600733 -96.55423 7.0254765
-29.61227 -96.3345 7.641953
-29.60347 -96.030975 8.093516
-29.78253 -95.5918 -0.75859195
-30.105488 -95.44893 -0.44089842
-30.427628 -95.55285 0.3073896
-30.518538 -95.76121 1.6474183
-29.98853 -95.63879 2.377002
-29.989084 -95.28332 6.4764695
-30.36659 -95.15968 7.77359
-30.062643 -95.245766 8.265145
-29.97251 -94.85825 -0.8203864
-30.221657 -94.634186 -0.4908495
-30.422985 -94.41134 2.404934
-29.823788 -94.71647 3.4673712
-30.55474 -94.57985 5.414173
-30.406534 -94.21697 9.107009
-30.032831 -93.628006 -0.71129787
-30.527428 -93.327126 9.192097
-29.934092 -92.654526 -0.74081177
-30.430864 -92.45398 -0.3571171
-30.361551 -92.720924 9.35087
-29.988325 -92.92798 9.65457
-30.249733 -91.88908 -0.13998842
-30.41611 -91.64546 0.5008275
-30.487106 -91.519295 1.5475336
-30.08378 -91.58593 9.240712
-30.021856 -91.248535 0.74951553
-30.303583 -91.35927 1.698299
-29.922974 -91.327385 2.1253834
-30.630537 -91.15474 4.7974286
-30.663815 -90.64537 6.160385
-30.693321 -90.62017 7.337738
-30.290052 -91.212 8.645509
-29.908623 -90.37795 5.8184996
-29.966536 -90.30156 6.7049165
-30.361702 -90.44997 7.0308213
-28.622627 -100.06684 8.007552
-28.715523 -99.987595 8.632487
-28.696012 -100.05341 9.182668
-28.778181 -99.45945 7.854332
-28.94992 -99.33443 8.568548
-28.756247 -99.477516 9.4038
-28.622942 -99.182045 9.875108
-28.598475 -98.597984 3.8003762
-28.587803 -98.48709 4.3290873
-28.797432 -98.34804 6.8963623
-28.784794 -98.72411 7.2437153
-29.286531 -98.33843 8.494533
-29.17463 -98.35006 9.227146
-28.819374 -98.240486 9.941843
-29.325254 -96.695435 0.52168673
-29.222387 -96.748085 1.3584826
-28.564165 -97.42208 4.2132916
-29.199083 -96.78868 5.9487157
-29.132017 -97.07197 6.598634
-29.394459 -97.33085 8.512461
-29.218212 -97.75271 9.351321
-28.836422 -97.60994 10.010893
-29.503176 -96.159485 -0.30251697
-29.645407 -96.538185 1.1643405
-28.595503 -96.88546 4.303696
-29.348167 -96.77282 6.9832783
-29.483034 -96.277695 7.5994425
-29.331892 -96.11762 8.532741
-29.007883 -96.57506 9.471019
-29.473822 -95.32211 -0.97941405
-29.59451 -95.10504 3.5718226
-29.256466 -95.21463 4.3803506
-29.057404 -95.2915 9.324143
-29.564125 -94.18991 -0.9126088
-29.102661 -94.19999 9.414089
-29.615936 -93.4826 -0.82349765
-29.016512 -93.724594 9.9233885
-29.794182 -92.61086 -0.76270056
-29.344603 -92.26867 9.824838
-29.740482 -92.137764 -0.72625566
-29.551897 -91.67331 -0.25326547
-28.570848 -91.034134 11.571096
-29.071693 -91.20767 0.035308123
-29.79327 -91.20665 0.5426728
-29.096975 -90.661606 1.2336578
-29.083864 -90.65121 2.1582448
-29.49556 -90.772316 3.796037
-29.485405 -90.51484 4.686177
-29.111656 -90.52389 10.137806
-28.887129 -90.188225 11.395891
-28.592072 -90.19172 12.143786
-28.828762 -90.23125 3.3085458
-29.567686 -90.442116 5.9292707
-29.238596 -89.91298 8.358711
-29.277739 -89.89275 9.028047
-28.90058 -89.55366 10.821881
-28.7399 -89.37546 11.580882
-28.647991 -89.58757 12.0818205
-28.670208 -88.96967 10.887047
-28.713345 -88.99544 11.5848675
-28.121954 -100.73383 8.530988
-28.00979 -100.80692 8.986778
-27.77685 -99.96292 3.2122555
-27.945345 -99.986565 3.5438728
-27.947824 -100.00406 4.362451
-27.8743 -99.8799 4.7682304
-28.49878 -99.99282 7.9478374
-28.34584 -100.5438 8.482311
-28.290882 -100.292694 9.4684515
-28.047089 -100.00546 10.071543
-28.291517 -99.3769 3.4427786
-28.366272 -99.27502 4.331101
-28.1708 -98.94024 5.2229643
-28.600023 -99.37117 7.5178676
-28.26134 -99.31784 10.207507
-27.746094 -99.21308 10.791268
-28.031155 -98.831314 2.8105185
-28.435658 -98.512505 3.3945966
-28.496946 -98.17892 5.7904997
-28.350775 -98.54147 10.343801
-28.077284 -98.092545 10.59334
-28.785208 -96.73813 0.30976182
-28.066341 -97.470604 2.472972
-28.357006 -97.93407 4.908759
-28.017366 -97.843414 10.625812
-27.846548 -96.18023 -0.95730996
-28.737673 -96.35485 -0.3914609
-28.497587 -96.56897 9.924145
-28.86947 -95.4953 -1.173881
-28.864738 -94.31381 -1.1199113
-28.551401 -93.397484 10.252993
-27.88644 -91.92674 12.084462
-28.083357 -91.41957 12.199742
-27.888966 -90.86399 12.83439
-28.47438 -90.8815 0.31863606
-28.424198 -90.6818 1.3200479
-28.358368 -90.29895 12.470732
-27.921936 -90.39283 13.00392
-27.993504 -89.764694 1.9252158
-28.52042 -89.78751 3.711743
-28.246424 -89.246956 6.47206
-28.456738 -89.601425 12.419206
-28.002796 -89.59718 12.953682
-27.567236 -88.91914 1.842421
-27.987778 -88.75557 3.6509948
-28.30779 -89.17214 4.067536
-27.933392 -88.35329 5.3814645
-28.032902 -88.75836 6.535441
-28.211052 -88.7994 8.445607
-28.304302 -88.69794 9.435784
-28.519636 -88.8573 10.754063
-28.379711 -88.60417 11.563449
-28.208302 -88.71577 12.211748
-27.870775 -88.81194 12.794356
-27.835459 -87.40827 4.771096
-27.898998 -87.48282 5.5285106
-27.699266 -87.145584 6.696234
-27.927181 -88.15169 7.502618
-27.72728 -88.06347 8.195532
-27.917942 -88.11992 11.317214
-27.727636 -88.228195 12.353133
-27.709402 -86.45866 4.6392393
-27.903004 -86.46956 5.3793445
-27.92117 -86.88104 6.287201
-27.628069 -85.7651 4.923564
-27.693962 -85.87496 5.484642
-27.681887 -86.02712 6.2151184
-27.741322 -83.705475 -2.2914357
-27.7993 -83.11243 -3.0389264
-28.12904 -83.13625 -2.3383577
-28.063725 -83.25697 -1.6135683
-27.77327 -83.40546 -0.9486237
-27.944832 -82.44351 -3.0938182
-28.26214 -82.44464 -2.443545
-28.26359 -82.53389 -1.5938709
-27.978832 -82.483696 -1.0023973
-27.796526 -81.38255 -3.3957627
-28.13118 -81.6356 -2.3120189
-28.060005 -81.63772 -1.7150476
-27.829063 -81.75493 -1.1081326
-27.690796 -80.70293 -3.4706275
-27.739265 -80.65093 -2.4451292
-27.711798 -81.064445 -1.6890644
-27.664469 -81.14874 -1.2206388
-27.54649 -79.97447 -2.8022711
-26.67059 -107.0734 6.753113
-26.690733 -106.98314 7.343854
-26.581753 -106.49357 6.1991086
-26.69777 -106.504745 6.6636477
-26.716284 -106.57201 7.3618064
-26.580067 -106.6895 7.8783574
-26.630135 -105.91839 6.836233
-26.567486 -101.31435 0.22532076
-27.593086 -100.777435 9.516688
-26.73511 -99.89318 -0.88739747
-26.652922 -100.2566 -0.35805562
-26.673649 -100.4785 0.5263036
-26.694391 -100.23186 1.7172629
-27.536871 -100.065056 3.0265067
-27.417835 -100.34015 3.6162271
-27.556452 -100.224335 4.3600097
-27.139471 -99.90942 5.178804
-27.425224 -100.213974 10.243255
-27.355228 -99.83094 10.745736
-26.829664 -99.21863 -0.9739595
-26.962193 -99.316826 -0.57629746
-26.965046 -99.533875 0.3006648
-26.776016 -99.522835 1.6726414
-27.360798 -99.323524 10.898914
-26.829636 -98.693054 -1.1122802
-27.020775 -98.66018 -0.48932078
-27.063272 -98.482155 0.60274523
-27.294518 -98.339096 1.7169833
-27.155416 -98.50703 11.08691
-26.865345 -97.05186 -1.0256135
-27.297714 -97.17967 0.08856942
-27.326807 -97.42502 0.69102293
-27.738173 -97.26518 10.604588
-26.856514 -96.00734 10.383721
-26.7512 -95.0449 -3.4417002
-27.403769 -95.37704 10.253005
-26.873932 -94.61723 -3.3759847
-27.39634 -94.37309 -2.6142502
-26.826036 -94.40761 11.311001
-26.930712 -93.8316 -3.0356665
-27.188345 -93.61648 -2.4723423
-27.1873 -92.733574 -2.051609
-27.104183 -91.78924 12.792738
-27.455662 -91.86026 -1.2595385
-27.271757 -91.1667 13.05948
-26.960278 -90.801346 -1.2502201
-27.61364 -90.355865 -0.06349455
-27.371439 -90.43601 13.361197
-26.964636 -90.2632 13.653042
-26.856588 -89.64417 -0.46668127
-27.37245 -89.44022 0.85692686
-27.40964 -89.69323 13.392275
-26.979082 -89.60397 13.605803
-27.054071 -88.89147 0.8396378
-27.143559 -88.21583 1.9385331
-27.460789 -89.04129 2.2125742
-27.219809 -88.66639 13.067567
-27.07527 -88.036995 1.8716271
-27.00317 -87.69832 2.3894155
-27.157665 -87.629875 3.3443725
-26.99536 -87.411354 8.087614
-26.92687 -87.58917 8.979105
-27.4888 -88.141365 10.557548
-27.530218 -87.827774 11.744898
-27.156137 -87.69624 12.249616
-27.125113 -88.03594 12.804285
-26.65397 -86.86489 2.9495332
-26.97193 -86.751396 3.6125226
-27.075323 -86.280655 7.408818
-26.869066 -86.938576 8.044974
-26.993761 -87.29855 11.091358
-26.755753 -87.20043 11.907386
-27.232231 -85.55122 4.7440333
-27.29907 -85.63907 6.4291525
-27.029366 -85.7481 7.0895596
-27.144825 -83.838936 -3.0063398
-27.160803 -84.04994 -2.324346
-26.848696 -84.48423 -1.7882783
-27.1336 -84.28308 -0.6175912
-27.057013 -84.140625 0.13850337
-26.7231 -84.91523 4.843677
-27.076937 -85.14304 5.3390584
-26.87401 -85.301056 6.5239115
-27.525875 -83.21356 -3.1619356
-27.489014 -83.69075 -0.83967674
-26.990114 -83.47703 0.24928138
-26.809256 -81.788086 -4.7120433
-27.102291 -82.24809 -4.143021
[...]
POINT_DATA 6810
SCALARS features_00 float 1
LOOKUP_TABLE default
0.55928826 0.5722386 0.5795999 0.5637884 0.5910742 0.61869943 0.6203326 0.5928866 0.6344466 0.62217224 0.59802294 0.56127524 0.4311661 0.58337235 0.48970288 0.36793303 0.4821386 0.42849746 0.41815525 0.5858248 0.5379553 0.43753314 0.48919603 0.4844122 0.51689273 0.4352665 0.42718914 0.52721894 0.56277394 0.29431546 0.38992986 0.5309112 0.5439749 0.431189 0.52934706 0.5287024 0.5146272 0.4468319 0.58084667 0.6006751 0.5742164 0.5465202 0.5442492 0.5526236 0.54774153 0.55537105 0.55795825 0.503386 0.29797137 0.1159973 0.14662641 0.17081454 0.5244551 0.5547 0.5757738 0.47432232 0.32775176 0.11413303 0.24193925 0.24731079 0.517496 0.54324734 0.35320646 0.1043483 0.13347134 0.35108 0.48781282 0.3936504 0.4770733 0.5148347 0.40041772 0.35405582 0.4932109 0.48512724 0.43880785 0.35709316 0.42593324 0.3865744 0.2797356 0.3498716 0.43702722 0.45426366 0.40711665 0.3049059 0.30904794 0.3932662 0.42585355 0.4905243 0.51985 0.38926965 0.46618682 0.5230491 0.51287127 0.35116702 0.30894905 0.072197445 0.19032398 0.39848578 0.4633113 0.46034974 0.46218613 0.37838054 0.17364052 -0.0071700998 0.06414026 0.29757538 0.4113933 0.40848196 0.5055431 0.49041986 0.040378384 0.114509284 0.14367205 0.20415069 0.30524245 0.49245614 0.021889817 -0.18711793 0.18952455 0.4526888 0.23335487 0.44925654 0.2224051 0.46092498 0.28162962 0.45356858 0.43727177 0.43124247 0.34950918 0.41720226 0.23774353 0.10102562 -0.038458277 0.080629066 0.25324765 0.4538978 0.5141095 -0.104908794 0.24073333 0.07490659 0.10789181 0.39400405 0.48655027 0.52098835 0.40434963 0.48787746 0.47139925 0.5099369 0.3391195 0.37478954 0.38654935 0.37430352 0.40866455 0.47509104 0.5290364 0.5244099 0.39429298 0.39885736 0.27626038 0.3168803 0.50769675 0.48967084 0.28211698 0.33916092 0.02135294 0.47280574 0.43403986 0.3427079 0.035082325 0.17100337 0.4075486 0.18890592 0.3914193 0.2698224 0.44211072 0.36152664 0.1288246 0.324846 0.42668608 0.4686637 0.18636599 0.116135165 0.520524 0.5012268 -0.040143266 -0.117284656 -0.038386848 0.54062504 0.55058146 0.04227429 -0.010170504 -0.0725128 0.11952506 0.09361411 0.0190235 0.11448562 0.38376784 0.48623365 0.533511 0.55861056 0.24553618 0.2827109 0.3103854 0.12610367 0.0915423 0.45060194 0.5277175 0.33157814 0.4004266 0.36427283 0.3838843 0.4313519 0.43871891 0.5955534 0.58658963 0.68957424 0.6854235 0.6128446 0.66935337 0.7181531 0.65032744 0.56265056 0.6794518 0.6027552 0.538165 0.49043226 0.70050454 0.55589503 0.4881307 0.46004808 0.6460529 0.58834165 0.5991514 0.53063434 0.55475307 0.57036567 0.5742502 0.51671565 0.25200853 0.5176237 0.23852968 0.23243853 0.19805938 0.108906955 0.28909108 0.30054322 0.32933065 0.25315952 0.51686037 0.50456214 0.21808338 0.2024472 0.16300681 0.08308572 0.48427045 0.19504106 0.15008983 0.029183306 -0.01252771 0.43859684 0.025571745 -0.063290626 -0.12085462 0.32001048 -0.013397925 0.41004807 -0.063794784 0.4054116 0.28749096 -0.098633595 0.31449568 0.22321773 0.105758645 0.30219 0.053021125 0.39214343 0.07618396 0.021292878 0.46229094 0.44925976 0.08205344 0.0391851 0.5183946 0.50016534 0.10098684 0.08423849 0.028288685 0.5462769 0.090786226 0.08185608 0.082555085 0.16680863 0.06688292 0.3336962 0.4803234 0.5021403 0.527251 0.1183549 0.17474109 0.29238695 0.19376326 0.404351 0.47102088 0.35199153 0.43311042 0.34542987 0.42357418 0.46791163 0.43261975 0.5533879 0.49854168 0.33247644 0.39487302 0.41111368 0.5215219 0.59520453 0.4499469 0.49440038 0.4590571 0.4827732 0.39514965 0.63153094 0.6363784 0.4461518 0.3812973 0.71715426 0.7281905 0.7655264 0.54380107 0.47289637 0.43321723 0.77516586 0.81590474 0.78198004 0.65971136 0.54677474 0.47451845 0.8859527 0.87671006 0.78187025 0.69682026 0.56923974 0.62066054 0.66495913 0.6304709 0.511256 0.59514 0.6267947 0.5879323 0.3992336 0.50847083 0.551153 0.49602494 0.40691528 0.4602029 0.46745312 0.44268137 0.435938 0.33567932 0.19006151 0.11755741 0.31354874 0.29295623 0.032310743 0.08385222 0.15118866 0.30852434 0.29830104 0.26961935 0.21424218 0.0016562194 0.26936272 0.27992892 0.26896727 0.19700508 0.13280287 0.058648996 0.05348377 0.30982602 0.2594939 0.25348282 0.24826658 0.18545857 0.048058566 0.08748777 0.47898248 0.22956704 0.23372912 0.20174056 0.20853361 0.36513788 0.27795666 0.18475513 0.337762 0.37585592 0.31018624 0.4093749 0.38445663 -0.11869776 0.16222195 0.43326974 0.39606655 0.3448633 0.045623466 0.20219016 0.11773777 0.14132732 0.05606685 0.31353492 0.06186449 0.06048868 0.08256664 0.39600503 0.4341805 0.0926334 0.09126765 0.49042547 0.10695287 0.53231514 0.5347235 0.082274154 0.10070042 0.5126276 0.54671973 0.11702021 0.1225012 0.19305742 0.06734745 0.2983144 0.44632408 0.4991901 0.26161814 0.37368375 0.40324318 0.44942933 0.19269486 0.19719215 0.29995155 0.24289459 0.29907614 0.3352766 0.38128367 0.25536528 0.27974844 0.21568777 0.4712715 0.38965595 0.22845358 0.55161625 0.33002955 0.67069924 0.4282313 0.39966035 0.78806865 0.8634218 0.6108988 0.49241304 0.92273116 0.9384078 0.8965378 0.735379 0.9574394 0.9321811 0.46217522 0.6077882 0.64667755 0.61489 0.44063872 0.5054834 0.6125077 0.37105095 0.5587464 0.51183516 0.39302474 0.39984015 0.27784383 0.2423912 0.30937186 0.3013059 0.2958274 0.2848328 0.13259076 0.20199311 0.29951695 0.44889754 0.56120586 0.31207255 0.31925225 0.31192103 0.25295043 0.010208398 0.0030684099 0.31739336 0.58732545 0.6213739 0.29497412 0.2981844 0.13630502 -0.14233881 -0.01469668 0.2620296 0.4759642 0.5711178 0.28490308 0.27939147 0.2725607 0.25839487 0.24012733 0.21654145 0.25455037 0.20362408 0.333041 0.3100808 0.30600917 0.40019858 0.1987088 0.3303886 0.27747488 0.21182238 0.07922518 0.055545032 0.31714517 0.075628355 0.36409318 0.08067558 0.109835036 0.47558606 0.10223094 0.02032727 0.5737215 -0.14272049 0.5809879 0.59599435 0.04222417 -0.052929 -0.048491135 0.18445517 0.39979398 0.54500645 0.5861319 0.20352994 0.2039945 0.24109843 0.07143982 0.1981926 0.12205588 0.19960862 0.076429605 0.3085935 0.24476819 0.1343331 0.18187216 0.08257209 0.029619884 0.117051244 0.5326531 0.27130404 0.1055725 0.6183748 0.7003945 0.5206812 0.16227868 0.19719234 0.1904237 0.18780886 0.58035994 0.7187059 0.7822915 0.6446614 0.37103444 0.75825775 0.8235779 0.56800246 0.8940242 0.91288674 0.9072 0.79722255 0.9434198 0.9358302 0.5159042 0.70556104 0.6318003 0.5810542 0.28916267 0.38280225 0.5149711 0.57502145 0.5485247 0.6950274 0.63302904 0.5738363 0.532197 0.34399515 0.5459585 0.5004164 0.66178393 0.50661993 0.495762 0.43165243 0.35652715 0.4996102 0.23021372 0.25091478 0.15125278 0.2662635 0.1248605 0.15125142 0.20254402 0.19925526 0.34936348 0.44116992 0.32635587 0.30776355 0.19142908 0.1499257 -0.053050183 0.52643204 0.6030916 0.33361796 0.3204386 0.63550377 0.6286927 0.3245505 0.31636313 0.6123634 0.29719207 0.2998609 0.262824 0.46927744 0.5206312 0.27978927 -0.06835178 0.24754062 0.19268961 -0.12515661 -0.21547252 0.19340047 0.26924264 0.2173569 0.12213352 0.112351805 0.29930356 0.29377627 0.22364739 0.31515062 0.4088879 0.37510568 0.36513644 0.42004013 0.4509845 0.4172607 0.42105508 0.43006843 0.50648093 0.47642994 0.3683782 0.30967262 0.4338678 0.43600762 0.40805605 0.42591852 0.18136515 0.43390974 0.37381044 0.32878456 0.121046945 -0.050294258 0.16583309 0.17140052 0.2653638 0.0012952834 0.33713305 0.025002345 0.032700926 0.4683267 0.0216211 0.044972725 -0.027022704 0.0030457452 0.575418 0.20645356 0.1474567 -0.03743324 -0.11165449 0.58105916 0.2609197 -0.45207986 -0.105539575 -0.17752036 -0.07969078 0.43215072 0.5779635 0.5854223 0.27331275 -0.042198304 -0.20128134 0.306037 0.23097193 -0.050390244 0.3914963 0.35972053 0.6015538 0.6624633 0.41155294 0.058234874 0.3330676 0.6595344 0.7083831 0.30617365 0.16640899 0.09872188 -0.0031478368 0.48730618 0.6918859 0.83980703 0.83601743 0.6259619 0.094202004 0.17969254 0.18797724 0.15984502 0.65395474 0.7578336 0.81205714 0.82222664 0.765553 0.73872185 0.6789657 0.5424856 0.46086442 0.74061346 0.7870084 0.83860064 0.8582127 0.8130815 0.75560856 0.64378875 0.56929845 0.52714485 0.43245882 0.20193152 0.25981095 0.34355092 0.8411703 0.7605057 0.6441217 0.58267593 0.5244112 0.08322217 0.16488 0.2560628 0.43865794 0.446378 0.7851995 0.3732041 0.41714996 0.7416825 0.68462926 0.3769636 0.3505036 0.26763177 0.30820963 0.2666195 0.45884115 0.52169096 0.32662615 0.5479944 0.5930772 0.3525317 0.5976294 0.33878127 0.3329629 0.55898523 0.594936 0.303847 0.24684455 -0.15866932 0.16291578 0.18612382 0.1305204 0.22329807 0.19250175 0.35036182 0.23850003 0.43398297 0.46276578 0.30617827 0.2978085 0.4808064 0.5894424 0.58726645 0.6025623 0.60605747 0.41756082 0.4619137 0.58881056 0.5645175 0.53735006 0.5245857 0.45680535 0.44978926 0.34379867 0.57038 0.48963672 0.026668146 0.10017674 0.4670236 0.42313686 0.33937865 0.40106404 0.3260836 0.2914083 0.18098895 0.29249364 0.110534444 0.064447485 0.44276544 0.13346228 0.53919774 0.20358656 0.20676263 -0.3091611 -0.11258494 0.48891306 0.54234457 0.2369256 0.24850729 0.09552884 -0.2379431 -0.07899149 -0.0045741796 0.47551292 0.52515024 0.55836517 0.3048227 0.3627686 0.23677519 0.41312787 0.6517416 0.40688604 0.4032631 0.70498645 0.71771634 0.37852272 0.27915776 0.09001437 0.78831756 0.7395469 0.24671102 0.37930945 0.12919167 0.16759318 0.03289724 0.07151179 0.17375144 0.14693852 0.5390155 0.7946476 0.7934633 0.62559485 0.51524234 0.2804943 0.12690304 0.6469829 0.7279551 0.759686 0.7620492 0.886925 0.8907528 0.88142073 0.8682353 0.887617 0.89651155 0.80451137 0.8485112 0.40479687 0.7001619 0.73317254 0.76280445 0.6576847 0.53284854 0.45037317 0.26986825 0.32395032 0.36218354 0.8613428 0.35718533 0.30482426 0.84081614 0.36148944 0.31961453 0.74164283 0.21487577 0.59111947 0.24071532 0.41447413 0.46997654 0.33165443 0.48098752 0.5079768 0.3403153 0.33041114 0.5437145 0.31115234 0.53730774 0.25760487 0.3803118 0.19896305 0.29745474 0.15882616 0.41716397 0.022106204 0.06955893 0.12971061 0.25643745 0.13832217 0.21175624 0.4624517 0.6550058 0.73219275 0.75349414 0.1918408 0.49826384 0.61496913 0.6013861 0.62338704 0.46211356 0.64088094 0.62408257 0.27643704 0.63207877 0.5996034 -0.07760392 0.60494816 0.52878106 -0.16192795 -0.10514635 0.498224 0.45891297 -0.069044925 0.36235446 0.19657381 0.08684009 0.3466586 0.16203633 0.18869987 0.38517484 0.21039316 -0.03600288 0.07012646 0.2710064 0.2532595 0.109659836 0.29608315 0.41453302 0.5884897 0.4035209 0.37571952 0.64783835 0.32464454 0.3026336 0.71228075 0.7163732 0.1367687 -0.13065055 -0.20356339 -0.08565891 0.13123964 0.7337072 0.082816355 0.10180171 0.11885512 0.050457075 0.39350206 0.65797246 0.71052504 0.74234843 0.084416255 0.1256473 0.895241 0.89606297 0.88321465 0.8761591 0.88975704 0.89455485 0.8721881 0.8189125 0.8500308 0.87171495 0.8321164 0.76962745 0.7496635 0.7896157 0.38671458 0.44175637 0.5035274 0.517434 0.6833184 0.6740618 0.64289486 0.6900745 0.70545036 0.7270256 0.59164655 0.2863418 0.25660282 0.34203073 0.4189272 0.46940708 0.40637147 0.59373736 0.59551966 0.59682053 0.8308155 0.7406173 0.36338827 0.32028198 0.8508469 0.29301536 0.7492763 0.62912154 0.2581354 -0.0042768493 0.031276 -0.12823345 0.30778626 0.3404565 0.14442989 0.065353155 0.42197835 0.4253888 0.21244109 0.41061467 0.22023606 0.3358022 0.3946963 0.4232057 0.4160672 0.37370327 0.3912342 0.611584 0.6531392 0.773236 0.8643029 0.18708134 0.37585294 0.608503 0.5890225 0.75995463 0.29054618 0.38445222 0.64405227 0.62375766 -0.11041975 0.16118917 0.6542567 -0.27826336 -0.2532079 -0.14559652 0.58827764 -0.17410964 0.51635194 -0.11800079 0.4114794 0.33563533 -0.08412908 0.2579982 0.15814336 0.13117671 -0.0011910945 0.24835308 0.11314888 0.3126799 0.3541596 0.1832314 0.16761811 0.21799715 0.3686379 0.72434527 0.71502554 0.68213475 0.28111276 0.10140701 0.27673322 0.74550605 0.74307 0.70302016 0.4032467 0.7409727 0.74748677 0.7183076 0.59568524 0.39547232 0.49586037 0.52671134 0.6961438 0.6856364 0.60917866 0.52930194 0.31876618 0.23636681 0.17476737 -0.10658601 -0.2156839 0.61973804 0.56928587 0.47948086 0.02616857 -0.09491046 0.074434176 0.64632124 0.6275133 0.035866395 0.002925232 0.34361255 0.52410066 0.13983065 0.11554453 0.18035887 0.2283397 0.20551981 0.8995669 0.89762586 0.8716075 0.8810794 0.8919419 0.84490645 0.82314867 0.82968944 0.7380292 0.7003851 0.7442806 0.65751237 0.48187175 0.5640346 0.6375034 0.62468266 0.6156105 0.54679143 0.6376124 0.5214079 0.3452829 0.41383645 0.5238677 0.46391803 0.55630016 0.56599414 0.7827023 0.6062444 0.40553468 0.3673482 0.41653576 0.49220106 0.41610458 0.32866532 0.6474304 0.4167208 0.105345726 0.10247325 0.23732035 0.13407433 0.057173103 0.0885079 -0.15266065 0.05657628 -0.08809248 0.4347306 -0.00856277 0.32663733 0.5038014 -0.07400818 -0.013091072 0.35741675 0.06332371 0.38921112 0.38870305 0.13036343 0.09782108 0.4071849 0.4017101 0.13608909 0.1286594 0.37079763 0.36791807 0.15257552 0.20738639 0.31758672 0.6100288 0.6173463 0.7418941 0.14024308 0.5782285 0.55569696 0.58087695 0.6622219 0.6656158 0.618248 0.5841685 0.44403017 0.22185111 0.6287908 -0.19664548 -0.036778435 0.5812235 -0.24895853 0.46215123 -0.20643109 0.322432 0.2730416 0.084754705 0.05300639 0.2790983 0.018959004 0.36453235 0.33533943 -0.0050001685 0.36212057 0.3604978 0.68649507 0.6568357 0.5992986 0.5192491 0.21097179 0.3244636 0.3442927 0.711524 0.7314327 0.38427997 -0.039321177 0.0782202 0.71268964 0.7338618 0.5061817 0.3666384 0.12173809 0.010803238 0.20822963 0.6801373 0.68645614 0.43282625 0.35195607 0.15527649 0.057344563 0.07173607 -0.2817419 -0.4242275 0.5080397 0.56193185 0.5245512 0.45754576 0.4330994 0.028146312 0.23748577 0.28355247 -0.040486068 0.4879895 0.52260923 0.5377424 0.36491877 0.21726826 0.14775312 0.29941612 -0.12999418 0.16331948 0.23975143 0.19643328 0.22403371 0.39938408 0.46757686 0.3452716 0.17844793 0.12157742 0.034018178 0.12771174 0.22292852 0.33390862 0.36386678 0.5261216 0.5710622 0.45186627 0.33003134 0.12332322 0.2510314 0.28937066 0.3642151 0.37970307 0.4750452 0.5726237 0.59820306 0.46836227 0.39154792 0.24892044 0.3314113 0.39816672 0.51205623 0.5654348 0.5907512 0.5119228 0.5600718 0.581768 0.81607723 0.8189576 0.83383906 0.81423736 0.8306029 0.7503294 0.77253044 0.79664606 0.6956285 0.6726712 0.46106517 0.51388633 0.63352495 0.64664364 0.6273699 0.58161545 0.55504525 0.3635499 0.39917666 0.59734523 0.5382473 0.45278957 0.5370973 0.2837146 0.48922986 0.37232688 0.32170025 0.35223114 0.60949665 0.3537966 0.42697465 0.26842335 0.29514417 0.2880532 0.3540964 0.03836583 0.12970915 0.19258654 0.21850818 0.041007575 -0.27507174 0.08484195 0.34405816 0.44194716 0.6120912 -0.16840458 0.59605134 0.6557205 -0.12995644 0.5374321 -0.13192965 -0.11234248 0.27224118 -0.024345957 0.21639445 0.05528891 0.32147035 0.27255023 0.11223644 0.10134202 0.30992097 0.3402676 0.14083719 0.31400102 0.18789983 0.20961474 0.2553643 0.22495335 0.12976876 0.16908103 0.52060974 0.6116167 0.5963387 0.0037802607 0.5226311 0.48410076 0.45565864 0.2962371 0.27826005 -0.4396817 0.046135336 0.51531196 0.48432207 -0.05648619 -0.23557213 -0.23681813 0.3913284 -0.2520466 -0.114187144 -0.030730342 0.3888022 0.2794714 0.14661314 0.0084958095 0.19870554 0.19893661 -0.13883361 0.32460454 0.47126788 0.4314543 0.36329037 -0.111749515 0.35682446 0.34857988 0.63210595 0.5543921 0.4880486 0.4008158 0.26011166 -0.25569132 0.15263686 0.34981167 0.65160894 0.30858353 0.07174245 0.6102915 0.15490925 0.23442875 0.35391712 0.5753014 -0.4038294 -0.18331775 -0.09953729 -0.23373693 -0.40895146 0.40427828 0.46755168 0.017124124 -0.026099175 -0.18430476 0.20391358 0.28210333 0.062011354 0.16548735 -0.014661044 0.08044289 0.36173993 0.27344447 0.07191059 0.21683356 0.11012584 0.14215326 0.27081636 0.22614244 0.41450453 0.3700503 0.28137535 0.16730335 0.14222948 0.21201974 0.12638497 0.047757298 0.3452174 0.38369632 0.34893268 0.25725254 0.18568732 0.2762308 0.09286869 -0.01618012 0.03686492 0.1568733 0.13653351 0.015484624 0.40058917 0.39193472 0.31374276 0.22219776 0.30984074 0.3659556 0.35392147 0.34584785 0.12495773 0.17243479 0.2674425 0.19534588 0.19408584 0.194181 0.24937788 0.30843437 0.41900522 0.42868346 0.4141283 0.46088564 0.50399053 0.42328745 0.25125158 0.22837587 0.31344926 0.37927938 0.36916608 0.20884715 0.3481446 0.4194276 0.5282502 0.5305788 0.21514657 0.40384454 0.44189057 0.401025 0.3293991 0.43184933 0.4171902 0.72829056 0.6726067 0.6351756 0.6642407 0.63863087 0.46687284 0.5904639 0.5854844 0.47501695 0.55170983 0.5908625 0.60158515 0.589932 0.5310665 0.47647977 0.3414818 0.44035167 0.5808778 0.5702355 0.535469 0.43078592 0.1937204 0.176506 0.48769104 0.3388685 0.29076427 0.121328175 0.1425725 0.14675012 0.11537898 0.45448607 0.22677517 0.26797885 0.16753647 0.17008045 0.31191188 0.27512875 0.34755403 0.16143516 0.17271931 0.189149 0.18958718 0.24199112 0.21699373 0.2165526 0.20120965 0.41720533 0.5140326 0.6116098 -0.4162406 0.6474881 0.7083487 0.20600018 0.16010664 0.14067315 -0.01496698 -0.33663762 0.73355114 0.2811569 0.2485069 0.12135346 0.61314356 0.26531148 0.2748931 0.251918 0.047788993 0.15663199 0.026259072 0.1359148 0.061494626 0.07779725 0.29209107 0.193542 0.2500683 0.3063203 0.19595228 0.2033987 0.05832012 0.21104135 0.06713133 0.61234254 0.3937896 0.36877272 0.27252972 0.06674382 -0.08007313 -0.22005093 -0.32975316 0.0051624393 0.034901798 0.5979822 0.6135268 0.61625373 0.561638 0.24513578 0.19525172 -0.14871813 -0.25256318 -0.2937829 -0.331254 -0.09204765 0.5904602 0.59315586 0.58727026 0.52415633 0.415778 0.14129996 0.08903653 0.5805999 0.5785169 0.544714 0.49905926 0.42134893 0.35562095 0.19956683 0.19268358 0.24810523 0.5379217 0.46797252 0.37492764 0.33296457 0.2937733 0.1004682 0.101823196 0.2483476 0.459728 0.3965919 0.34696442 0.2989383 0.24468586 0.078848116 0.21076205 0.3903465 0.32956737 -0.044735443 0.19969414 0.35948506 0.31442493 0.35219556 0.31961328 0.539248 0.17355923 0.34790963 0.5387764 -0.1475728 -0.07941247 0.4733134 -0.4251508 0.023133926 0.4895931 -0.09769139 -0.73559165 -0.73719716 -0.49674934 0.18360041 -0.114346646 -0.6196182 -0.38312986 -0.19536555 0.38189918 0.31582278 -0.07206222 -0.0025842413 0.12010821 0.16102087 0.43557918 0.43118382 0.3892138 -0.094668075 -0.04108545 0.039895058 0.44029585 0.43562382 -0.05826188 0.33506483 0.29230613 0.42560983 0.40408844 -0.3107871 -0.01234315 0.36397058 0.4061194 0.3670932 0.3092095 0.22315085 -0.13550815 -0.028525507 0.43052694 0.40104264 0.24206012 0.28838512 0.07833709 0.102251306 0.0481038 0.2023498 0.19738863 0.31471074 0.40886444 0.44021803 0.29517686 0.303088 0.2622636 0.38104373 0.37734094 0.30022043 0.2438093 0.4659238 0.45450675 0.5013044 0.37022394 0.44724262 0.39966136 0.32259756 0.54047096 0.55190647 0.54839706 0.52074313 0.5115257 0.46806467 0.44528902 0.50401074 0.27241284 0.49805757 0.3138362 0.40409082 0.48184234 0.52334213 0.57429093 0.5457428 0.39953038 0.3075789 0.41657954 0.1629855 0.25651217 0.4847709 0.83773136 0.8249514 0.18810214 0.2677081 0.061661325 0.064547054 0.3926096 0.47671145 0.83642083 0.81207454 0.28833294 0.21820596 -0.086682856 0.21230185 0.42034826 0.4746818 0.46602282 0.78445673 0.17297873 0.19290885 -0.12229033 0.4035791 0.1903267 0.16102928 0.20882092 0.1842832 0.13083436 -0.261926 0.352418 0.5282354 0.62881845 0.18161753 0.17673165 0.060455196 0.08340642 0.02557449 0.13831979 -0.31832835 0.6668409 0.71595776 -0.02113022 0.10940999 0.7645217 0.24946338 0.6766618 0.22916076 0.48814037 0.17557797 0.1509849 0.30750346 0.36196896 -0.06508288 -0.005501166 -0.04410754 0.2619543 -0.037339702 0.3383402 0.37031436 0.03441681 0.109524 0.34469745 0.37248117 0.16281782 0.17552361 0.33481878 0.11436154 0.14300239 -0.0007354133 0.023304163 0.59814614 0.596725 0.53635013 0.18487422 -0.02941195 -0.33135414 -0.01280025 0.5881104 0.6064242 0.4980947 0.42386994 0.101053186 0.07379642 0.034148514 -0.34853947 -0.33105928 0.61436576 0.60149205 0.36565572 0.23917478 0.116759986 0.11204221 0.01585348 0.5609244 0.5940187 0.1987214 0.02587448 0.12222639 0.2579423 0.52918106 0.23336895 0.113779984 0.091409385 0.11747693 0.30860478 0.48001498 0.47041136 0.44834697 0.20775