# vtk DataFile Version 2.0
Really cool data
ASCII
DATASET POLYDATA
POINTS 2379 float
-42.543545 -93.442505 -21.127832
-42.579796 -93.552635 -20.528994
-42.76384 -92.65289 -20.555927
-43.1014 -92.205246 -19.236832
-43.06805 -92.15843 -18.665316
-42.99687 -92.18101 -17.850271
-42.893547 -91.64204 -20.102583
-43.23026 -91.55334 -19.328016
-43.33104 -91.5514 -18.494661
-43.278637 -91.14816 -17.911829
-42.933758 -91.38359 -16.60253
-42.826584 -91.10593 -16.243212
-42.690987 -91.08602 -20.15894
-43.140945 -90.89308 -19.367168
-43.296505 -90.73416 -18.648909
-43.190266 -90.452324 -17.513536
-43.037952 -90.47803 -16.552015
-42.82966 -90.54008 -16.170033
-42.73518 -90.06917 -19.192856
-42.965973 -89.98787 -18.43642
-42.946373 -89.873886 -17.515324
-42.88842 -89.890076 -16.721529
-41.72354 -96.040276 -21.510334
-41.860634 -95.77407 -21.011639
-41.77915 -94.9425 -23.199839
-42.004578 -95.20389 -22.263212
-42.183422 -95.1529 -21.271408
-41.885807 -95.38527 -20.567871
-41.70914 -95.34311 -19.673761
-41.659813 -94.83075 -19.034548
-41.871735 -94.3966 -23.220676
-42.07323 -94.42822 -22.356737
-42.32049 -94.52342 -21.47644
-42.505787 -93.8432 -20.134083
-42.30295 -94.14526 -19.686298
-41.739086 -94.13796 -18.6021
-41.863842 -93.70383 -23.408762
-42.182526 -93.46521 -22.39619
-42.36513 -93.58551 -21.561436
-42.51333 -93.507744 -19.629269
-41.96511 -93.32991 -18.513067
-41.772095 -92.378525 -22.424982
-42.45339 -92.49103 -21.231434
-42.035934 -92.309135 -16.498756
-42.073982 -91.831924 -16.015867
-42.383213 -91.916405 -20.871805
-42.172077 -91.419754 -15.879775
-42.20872 -90.622696 -20.151459
-42.302574 -90.58337 -15.846618
-42.17997 -89.94789 -19.814503
-42.227394 -89.6064 -19.312128
-42.495853 -89.47832 -18.151972
-42.4065 -89.65937 -16.388582
-42.382328 -89.912186 -16.124403
-41.981003 -89.31547 -19.174103
-41.99316 -89.20594 -18.193707
-42.296818 -89.31966 -17.490534
-42.113014 -89.37715 -16.628658
-40.60125 -105.23738 -21.092688
-40.699936 -105.0182 -20.387299
-40.714336 -104.40607 -21.119005
-40.807667 -104.51103 -20.58975
-40.694477 -104.4411 -19.80529
-40.56506 -103.36471 -21.150942
-40.75341 -103.795296 -20.412003
-40.635933 -103.8943 -19.721731
-40.565784 -102.06586 -27.11834
-40.56946 -102.11781 -26.821491
-40.571968 -101.795 -27.489588
-40.66705 -96.7447 -23.98646
-40.925743 -96.64666 -23.067158
-41.42694 -96.30432 -22.523397
-41.39298 -96.25986 -20.89992
-41.204964 -95.975426 -19.928509
-40.960964 -95.407646 -24.050009
-41.631096 -95.194664 -19.31052
-41.246597 -95.33979 -19.133123
-41.314625 -94.33801 -18.513565
-40.84431 -93.55435 -24.631853
-41.250607 -93.43883 -24.35492
-41.06011 -92.7769 -16.71732
-41.230198 -92.68127 -24.054972
-41.564915 -92.70422 -23.612473
-41.49408 -92.49688 -16.459202
-41.488808 -92.05472 -16.00473
-41.012104 -92.280266 -23.89584
-41.139805 -92.18004 -23.401371
-41.554546 -91.72683 -21.8659
-41.622578 -91.6004 -21.616253
-41.5532 -91.48475 -15.699478
-41.457882 -90.568535 -15.652098
-41.641117 -89.68461 -19.784065
-41.64503 -89.499275 -19.581648
-41.870953 -89.451164 -16.409353
-41.416866 -89.71015 -16.04276
-41.482754 -89.25354 -19.162443
-41.53973 -89.16605 -18.4169
-41.586994 -89.152504 -17.351236
-41.376675 -89.27542 -16.623816
-39.525703 -106.901726 -26.569319
-40.07986 -105.80736 -21.337025
-40.08486 -105.93335 -20.370516
-39.952007 -105.7624 -19.709782
-40.12781 -105.28917 -21.89925
-40.423798 -105.288185 -21.323856
-40.358242 -105.63868 -20.480488
-40.33078 -105.19979 -19.594446
-39.88093 -105.07482 -18.955286
-40.21558 -104.53314 -21.980528
-40.317165 -104.429344 -19.265287
-39.911663 -102.86913 -28.094921
-40.28105 -102.84985 -27.186102
-40.069122 -103.07098 -26.381752
-39.757637 -103.16914 -22.45086
-40.449768 -103.55544 -19.441416
-39.99297 -103.59175 -18.987955
-39.835434 -101.988846 -28.713097
-40.15134 -102.2408 -28.203535
-40.417904 -102.42677 -27.56417
-40.33394 -102.38564 -26.54418
-40.12557 -102.19344 -21.422012
-40.275852 -102.83487 -20.180231
-39.98536 -102.520775 -20.11841
-39.788017 -103.00201 -19.105177
-39.773743 -101.495995 -28.731995
-40.092026 -101.581406 -28.296892
-40.394253 -101.56962 -27.489916
-40.38298 -101.75642 -26.765589
-40.12321 -101.971825 -26.033272
-39.830166 -101.61479 -21.613735
-39.8473 -102.19706 -20.626333
-39.90256 -101.03734 -28.215427
-40.067234 -100.991776 -27.573019
-40.053417 -101.04686 -26.923262
-40.174103 -99.32325 -22.216492
-40.162506 -99.37044 -21.731697
-40.124077 -98.06371 -23.39261
-40.296204 -98.63378 -21.785784
-40.094223 -98.47308 -21.129427
-40.571293 -96.86367 -24.017508
-40.286926 -97.70252 -23.720633
-40.142185 -97.76282 -20.771078
-39.56622 -95.95483 -26.014822
-39.843906 -96.10692 -25.14051
-39.73309 -95.85995 -25.90709
-39.93641 -95.29957 -25.328186
-40.46542 -95.17743 -18.672659
-40.152008 -94.69991 -25.4552
-40.584526 -94.35497 -18.361803
-40.645824 -93.146805 -17.200506
-39.598587 -92.6467 -25.84819
-40.500153 -92.56706 -24.433552
-40.547333 -92.55284 -16.72932
-40.74792 -92.07443 -16.152706
-39.90696 -91.986084 -25.014421
-40.239895 -91.84948 -24.34607
-40.621555 -91.86879 -23.48129
-40.75378 -91.29921 -15.83911
-40.094242 -91.39532 -23.063967
-40.567974 -91.164604 -21.67477
-40.646755 -90.55651 -20.663624
-40.789883 -90.56283 -15.766336
-40.71372 -89.43193 -19.425423
-40.309525 -89.45987 -18.411283
-40.53113 -89.53826 -16.49346
-40.66417 -89.834305 -16.101244
-41.034702 -89.2957 -19.340385
-40.88545 -89.23847 -18.280012
-40.661304 -89.26162 -17.306223
-40.869724 -89.31246 -16.70799
-38.763096 -108.723694 -26.404259
-38.815853 -108.62247 -25.891554
-38.86368 -108.01185 -27.870907
-38.96761 -108.26332 -27.35344
-39.154408 -108.27705 -26.503
-38.998234 -108.30606 -25.771729
-38.855083 -108.14934 -25.176628
-38.90308 -107.45639 -27.97797
-39.28922 -107.46555 -27.334255
-39.447258 -107.480225 -26.655039
-39.348755 -107.50271 -25.80391
-38.662975 -107.064125 -24.711275
-39.259296 -106.6295 -27.384207
-39.370815 -106.51368 -26.690212
-39.75689 -105.74259 -21.792221
-39.60277 -106.13624 -21.113451
-39.59997 -106.27109 -20.418375
-39.69918 -105.82534 -19.449497
-39.123745 -105.914795 -27.050377
-39.40842 -105.27415 -22.407265
-39.046787 -105.068886 -18.626318
-38.913162 -104.54172 -27.315903
-39.050037 -104.14455 -24.819092
-39.250954 -104.76216 -22.627436
-39.228504 -104.72141 -18.488522
-39.02849 -104.77247 -18.40369
-39.33957 -102.89338 -28.469885
-39.416313 -103.58298 -27.37006
-39.531437 -103.21696 -25.313753
-38.8735 -103.09831 -18.041931
-39.420475 -102.3138 -28.888699
-39.636536 -102.61008 -28.553621
-39.538525 -102.811874 -25.206034
-39.37644 -102.39936 -24.996435
-39.597664 -102.30117 -19.532686
-39.2449 -102.87608 -18.431044
-39.426113 -101.46232 -28.955275
-38.709835 -101.29876 -25.097563
-39.39468 -101.77508 -22.854269
-39.36083 -101.68594 -22.660366
-39.535206 -101.73302 -20.42209
-38.946762 -101.66504 -18.957912
-38.758114 -102.022194 -18.172878
-39.444294 -101.050934 -28.750135
-39.52326 -100.82629 -28.374472
-39.409317 -100.76709 -26.634619
-38.564823 -99.10029 -26.257668
-39.495884 -98.82432 -23.62092
-39.579617 -99.76238 -20.513723
-38.889538 -98.06124 -24.719284
-39.17502 -98.8162 -20.012226
-38.828243 -97.184555 -26.44448
-39.098293 -97.540115 -19.92647
-38.891552 -96.16512 -27.630136
-39.24431 -96.6445 -26.482765
-39.47557 -96.339096 -25.662106
-39.262676 -95.90125 -19.232689
-38.960022 -95.28867 -27.813967
-39.179516 -95.55533 -27.456701
-39.471794 -95.607475 -26.329998
-39.719856 -95.240524 -18.821001
-38.900547 -94.61273 -27.796843
-39.207005 -94.54173 -27.29485
-39.52017 -94.73962 -18.694187
-39.374996 -93.1486 -26.673616
-39.41954 -93.44962 -17.965933
-40.081203 -93.079285 -17.32839
-38.91621 -92.884544 -27.131142
-39.44638 -92.5647 -26.228065
-39.88517 -92.008095 -16.840956
-39.11119 -92.1078 -26.23015
-39.01022 -91.53425 -25.557226
-39.94449 -91.49802 -16.465109
-40.276485 -91.290115 -16.19433
-39.076176 -91.26593 -25.275772
-39.074608 -90.96659 -24.237997
-39.018982 -91.20755 -23.10573
-39.761288 -91.19294 -21.6194
-39.880795 -90.39352 -16.56295
-40.218544 -90.541534 -16.14572
-39.615192 -90.2404 -18.62114
-39.966957 -89.73672 -17.368832
-40.074715 -89.90505 -16.638788
-38.450653 -108.75484 -27.204792
-38.397903 -108.91249 -26.455225
-38.118923 -108.91244 -25.469805
-37.80541 -108.78652 -23.867203
-37.664143 -109.11208 -20.00761
-37.70055 -109.37805 -19.442211
-37.668736 -109.41605 -18.856953
-38.349384 -108.1498 -28.116186
-38.600594 -108.52764 -27.56272
-38.29076 -108.38238 -24.278135
-37.56174 -108.484535 -18.452244
-38.53867 -107.5106 -28.266218
-38.090923 -107.673294 -23.839882
-37.65168 -107.37791 -22.745035
-37.79925 -107.73207 -20.156643
-37.65224 -107.21877 -19.617645
-38.290638 -106.76514 -28.243898
-38.42584 -106.56534 -24.634184
-38.20627 -105.94726 -24.169868
-38.787945 -105.8948 -21.894688
-38.3333 -106.49588 -20.556168
-38.72985 -105.88772 -18.860138
-37.85598 -105.06388 -28.128494
-38.3659 -105.1637 -18.491936
-37.82397 -104.075584 -28.118622
-38.521557 -104.004555 -17.870422
-38.145718 -103.47877 -17.483177
-38.421783 -102.115776 -29.198423
-37.732216 -102.852325 -16.983078
-38.4742 -101.52839 -29.216948
-38.48706 -101.72798 -23.769197
-38.581573 -101.50521 -18.39616
-37.68253 -101.40047 -16.751806
-38.664837 -100.82212 -28.865814
-38.160908 -100.16246 -24.79157
-38.534004 -101.3028 -19.126928
-37.63213 -100.94514 -17.034773
-38.219414 -99.11092 -27.381184
-38.48863 -99.41657 -26.06872
-38.456356 -99.618645 -25.829313
-38.404896 -98.26236 -26.124146
-38.090614 -98.61771 -19.70554
-38.237827 -97.12753 -27.481884
-38.05353 -97.22523 -19.790354
-38.573917 -96.34342 -27.749245
-38.46303 -96.60127 -27.6523
-38.57305 -96.28003 -19.479053
-38.514454 -95.462875 -28.17456
-38.554745 -94.920845 -28.062878
-38.01251 -93.485794 -27.944925
-39.16555 -93.15034 -18.011074
-38.298023 -92.99686 -27.592798
-38.37181 -92.38269 -27.294336
-39.295017 -92.119865 -17.415154
-38.681896 -92.08106 -26.810001
-38.586662 -91.62049 -26.000198
-39.041645 -91.23085 -17.82025
[...]
POINT_DATA 2379
SCALARS features_00 float 1
LOOKUP_TABLE default
0.37862545 0.39380968 0.41265315 0.4830729 0.5086385 0.5985653 0.4801535 0.5456395 0.61015606 0.72377276 0.8731808 0.9117896 0.50615734 0.6005691 0.6733519 0.8217428 0.904886 0.93188465 0.6342546 0.70930344 0.8157476 0.8828809 0.35202974 0.35515994 0.32986143 0.34535336 0.35525298 0.36376452 0.381227 0.4065927 0.35783097 0.33815968 0.34331116 0.39010653 0.38952807 0.41283885 0.388745 0.35687038 0.3579895 0.41033617 0.4199294 0.33664194 0.376593 0.694867 0.83094245 0.3948601 0.89487946 0.5168644 0.9538945 0.5653709 0.60489655 0.71267104 0.8990098 0.92554855 0.60882235 0.68666005 0.78446656 0.8635436 0.6188315 0.6570687 0.6396322 0.65757143 0.64859986 0.5325115 0.5960653 0.58693755 0.63181746 0.5959835 0.6605543 0.10004423 0.19527744 0.3134538 0.30323747 0.33564585 0.19071075 0.39566278 0.3975726 0.40791053 0.32252225 0.3570827 0.5513667 0.30792654 0.32626867 0.63816935 0.7434888 0.2857877 0.2832083 0.3275671 0.33953074 0.85292804 0.98300683 0.5444197 0.56772083 0.8835319 0.91615176 0.5970417 0.65235984 0.78007054 0.8521385 0.65827155 0.56442654 0.5982784 0.6131382 0.55389 0.5979342 0.62327766 0.64976346 0.5731123 0.5755305 0.60676813 0.6360419 0.61481273 0.5079181 0.41750926 0.5170598 0.48518607 0.66958797 0.6754764 0.65554595 0.55140746 0.3848706 0.42911333 0.37841612 0.40163872 0.6677849 0.6810602 0.6570926 0.5731598 0.45226163 0.26149932 0.35717756 0.66437924 0.63598955 0.5593256 0.21254566 0.24641287 0.13355651 0.26586452 0.315424 0.08883718 0.08232858 0.3443157 0.19126587 0.09441148 0.17901024 0.14868562 0.36966348 0.19077818 0.36598858 0.4202353 0.26069942 0.28280482 0.5454204 0.6590034 0.26564574 0.2764174 0.2566246 0.805708 0.20297211 0.20956516 0.35836467 0.91663855 0.5431118 0.6538757 0.8678249 0.8981693 0.5627059 0.6651779 0.7853904 0.84485686 0.6194194 0.5583237 0.7331722 0.71544945 0.66145957 0.56348354 0.47664827 0.7243202 0.7175814 0.6888674 0.6074754 0.34202248 0.64469606 0.6133279 0.53095466 0.52658975 0.5330306 0.57689655 0.5192366 0.49691164 0.4499035 0.2786383 0.150877 0.49099874 0.4532246 0.43017727 0.5769983 0.5265077 0.34182608 0.35322174 0.6280022 0.63666177 0.32534543 0.25606012 0.3338827 0.37505147 0.6378071 0.04805307 0.17063393 0.17452034 0.26398674 0.28177738 0.29147002 0.63359547 0.6328907 0.37617344 -0.0517831 0.08967948 0.27430207 -0.084224425 0.3190097 0.14336623 0.15883473 0.3342892 0.20646325 0.1254018 0.074727006 0.3504117 0.33249274 0.23827514 0.27337512 0.3467762 0.34843668 0.22614796 0.29061055 0.28646523 0.3989457 0.28925806 0.27291888 0.5370378 0.2706891 0.26924747 0.65448415 0.7388405 0.27340168 0.2611405 0.21174268 0.08882332 0.80462223 0.84519356 0.658338 0.7777649 0.84275824 0.6804633 0.6007927 0.47362626 0.31575534 0.39222562 0.49331394 0.53382236 0.7127436 0.7101072 0.3579287 0.49154514 0.69779545 0.2523224 0.08677628 0.10545035 0.19433391 0.61678267 0.25720167 0.08029651 0.44210523 0.27426988 0.38799992 0.23907305 0.33337846 0.10176488 0.34383798 0.25860226 0.5199294 0.16461702 0.52680796 -0.14139982 0.2620321 0.24841446 0.5124549 -0.13188294 0.20836969 0.27073184 0.11023395 -0.043296613 -0.053711943 -0.09189854 0.092065275 0.26838046 -0.03834546 0.34233797 0.33021426 -0.058776196 0.3471581 0.34064043 0.27382147 0.2827721 0.2776128 0.26218837 0.45153418 0.2629356 0.2602998 0.60159767 0.2550799 0.23137155 0.21594806 0.17246787 0.20553777 0.6126212 0.49393803 0.56129634 0.5965172 0.61055493 0.6634617 0.6511533 0.5638953 0.4117897 0.36293936 0.32425797 0.48773265 0.5196095 0.5778842 0.57210433 0.54593706 0.6648793 0.22020927 0.5163928 0.5151528 0.5826045 0.62656516 0.15566853 0.030239254 0.38156414 0.48594135 0.51553583 0.44832778 0.51799715 0.55541503 0.4964651 0.5129608 0.18921915 0.16753519 0.113424785 0.30129355 0.1531479 0.3412241 0.24595019 0.2144365 0.34925595 0.38432086 0.2051534 0.100924745 -0.061037675 0.31285638 -0.09199429 0.266756 0.21290901 0.25868562 0.017269343 0.20071362 0.19762817 0.24870852 0.21554407 0.15795603 0.20273417 0.16141552 0.41793883 0.56666386 0.6385913 0.67867005 0.6847426 0.1706986 0.43146858 0.64438087 0.65132797 0.45376742 0.21544603 0.57450604 0.49977994 0.4532714 0.43834865 0.46264094 0.51593286 0.58131754 0.62066317 0.37198225 0.23825303 0.40734303 0.56018555 0.6045029 0.33867323 0.4652276 0.5404909 0.28804183 0.3635413 0.4049002 0.41193885 0.07712708 0.49935597 0.59070396 0.050086044 0.011322096 0.38454816 0.4743659 0.5655925 0.61556196 0.61786216 -0.06785563 0.21108462 0.35825056 0.43889517 0.6040299 0.6261073 -0.024040148 0.37032738 0.4992776 0.6041293 0.19851005 -0.084423356 0.17338851 0.15818518 0.01605802 0.18116336 0.15000752 0.26831895 0.5312485 0.64972055 0.5457272 0.34501892 0.40131226 0.2351959 0.26029932 0.5983051 0.5401362 0.123830244 0.64082205 0.6651966 0.5493807 0.642957 0.68227077 0.69295365 0.2147344 0.19411528 0.17320481 0.21752504 0.6907966 0.2812703 0.6023209 0.29076633 0.31490305 0.19324881 0.41798908 0.5104609 0.596339 0.60979134 0.6552457 0.45991066 0.6384954 0.6283097 0.50056934 0.5538877 0.482297 0.4386033 0.40341932 0.3308587 0.5074095 0.12801243 0.045779973 0.5545973 0.60046154 -0.28940898 -0.23786157 -0.1455963 0.122207776 0.62021023 -0.3276379 -0.3688041 -0.086911604 0.21502335 0.6376922 0.63202417 0.32453203 -0.18141149 0.13821727 0.2337867 0.31627023 0.6009525 0.63037777 0.17799813 -0.15933226 0.28883475 0.37096247 0.50613475 0.5507192 0.076171845 -0.10368658 0.037362617 0.047091 0.34387568 0.30758044 0.63841796 0.2646441 0.69792145 0.17411622 0.16954474 0.6821767 0.6310513 0.55350536 0.23891412 0.42475155 0.34022328 0.28542745 0.6117466 0.56668997 0.45898646 0.48565227 0.4635591 0.630216 0.6609932 0.22111925 0.14792475 0.25841296 0.5082937 0.6828472 0.6973955 0.36638558 0.26584542 0.17983663 0.1254792 0.7075287 0.2673494 0.28439844 0.21470061 0.26976293 0.21637203 0.1966686 0.12620036 0.31249452 0.49624032 0.59022695 0.6402097 0.32899538 0.31929642 -0.004618206 0.662142 0.6761531 0.45211962 0.4188224 0.6479095 0.4743361 0.55151963 0.4548238 0.34079406 0.3819811 0.38668853 0.3271877 0.33683997 0.55622125 0.24755763 -0.47966653 0.609415 0.40927184 0.31066477 -0.26668072 -0.2917488 -0.16231625 0.6140046 0.58834136 0.5350121 -0.29466513 -0.26685822 0.5636106 0.55819553 0.61708975 0.5487244 -0.28421807 -0.1794053 0.22517067 0.30827782 0.41351682 0.47007912 0.48550546 0.5288009 0.33539057 -0.04776773 -0.019434286 0.14556426 0.20915401 0.3667253 -0.1647147 0.6331668 0.6110033 0.33200547 0.6912075 0.7112393 0.15541421 0.6874248 0.6556965 0.44331723 0.39361584 0.32543784 0.20645842 0.6208627 0.59329057 0.5269037 0.40243626 0.4779142 0.49432474 0.48030603 0.38993436 0.4754411 0.49004912 0.31365508 0.33551037 0.5122057 0.63507855 0.3820595 0.4089684 0.39645636 0.12104583 0.68960935 0.30663067 0.6251489 0.22719607 0.15288162 0.16775456 0.006241709 0.3914694 0.57630205 -0.16494524 0.63484144 0.3669454 0.34195447 0.67113274 0.4023553 0.5029862 0.3144319 0.3914894 0.35391295 0.3561811 0.21344306 0.5168778 0.5886311 0.5098225 -0.6096188 0.54436904 0.61272633 0.4198913 0.64500415 0.3245729 0.37267724 0.3130669 0.59114385 0.5479735 0.46077794 0.15739748 0.23294497 0.24172083 0.5330484 0.20857069 0.21863754 0.5830872 0.6499044 0.67329144 0.6321975 0.5464358 0.38855278 0.3254556 0.23164204 0.24349833 0.30638385 0.4152757 0.47407386 0.46224076 0.37588805 0.47798878 0.4841181 0.39989102 0.25484926 0.4293929 0.42799407 0.3008647 0.025806986 -0.025197182 0.5000609 0.39951223 -0.040776517 0.34261346 0.32601193 0.42557523 -0.06871171 -0.121025994 0.020519897 0.12454208 0.5258397 0.2094426 0.16642383 0.05633041 0.2701543 0.18792161 0.097899824 0.5477104 0.38390934 0.49504977 0.5396981 0.27416173 0.58215487 0.24380188 0.15562837 0.5693238 0.53731644 0.24655014 0.21872655 0.50513047 -0.029011458 0.2412149 0.2550029 0.12520894 0.08427457 0.19882397 0.24059285 0.4263482 -0.00030888803 0.48909137 0.34701464 -0.07573371 0.5527683 0.47311825 0.33252227 0.13550647 0.5965624 0.44867927 0.19833134 0.19376183 0.26278284 0.31431758 0.43573853 0.45070434 0.4376489 0.5705895 0.61511433 0.64060676 0.4497987 0.518355 0.6294093 0.6325784 0.42334488 0.36635548 0.25467494 0.17523666 -0.15929912 0.5867641 0.3855055 0.23361114 -0.014163143 -0.19795641 -0.015015855 -0.0038883928 -0.20778795 0.13504167 0.031865105 0.429779 -0.054359637 0.017760843 -0.05681722 -0.2770958 0.3711701 0.08366996 0.087782845 0.4393634 0.12241531 0.066081665 0.47720838 0.20171285 0.32511625 0.26149067 0.040152397 0.03168721 0.12776868 0.20526949 0.25056663 0.13261062 -0.043021336 -0.035962842 0.28606933 0.12195328 -0.10230214 -0.11178736 -0.060241982 0.2959888 0.110513434 0.12887841 0.1932156 0.019027501 0.07790385 0.37163842 0.30145448 0.5579701 0.567206 0.54538774 0.5415377 0.56458294 0.60671246 0.63810706 0.42316806 0.64506865 0.6340147 0.15481523 0.6064967 0.2601069 0.29892033 0.09750071 0.1853574 0.1053624 0.25413263 0.0074065262 0.09369461 0.01909604 0.23328315 0.421529 0.50850785 0.5593967 0.5462935 0.16938433 0.19546038 -0.19953027 0.45378017 0.4799595 0.52986366 0.5168736 0.12107202 0.34828848 0.42812955 0.46645123 0.44880918 0.12958196 0.0771793 0.013829049 -0.3447441 -0.011369048 0.16349842 -0.32524088 0.19421473 0.009799659 0.2665123 0.30158558 0.36536053 0.058775187 0.37372938 0.16770856 0.35208082 0.19949979 0.21728268 0.19576332 0.09445819 0.060011283 -0.094998255 -0.05312261 0.08192055 -0.1092954 -0.00301411 -0.11066996 0.06882485 0.08171749 0.16933721 0.56801903 0.5703262 0.571785 0.55776775 0.60005915 0.6238383 0.51997924 0.606959 0.608132 0.1968995 0.17571735 0.5895504 0.19914764 0.523208 -0.09400527 0.1267348 0.31214675 0.072209954 0.05938873 0.109115854 0.21395448 0.10723589 0.057478353 0.43834263 0.5364676 0.5856409 0.6355995 0.22148468 0.23934208 -0.07053493 0.2564567 0.39754242 0.5726675 0.55520034 0.2146056 0.17337225 0.4668017 0.20221624 0.17434017 0.43168616 0.22084852 0.4203052 0.31556374 0.3677182 0.44288284 0.29348397 0.37504315 0.41764307 0.01157552 0.23750684 0.2066149 -0.050280243 0.11356771 0.2411701 -0.044579983 0.28756395 0.32387602 0.31501728 0.06997367 0.08564177 0.1494944 0.056910813 0.14653556 -0.09993774 -0.09797612 -0.05292678 -0.043895498 -0.044084325 -0.037265055 -0.032798976 0.016264051 0.055027336 0.017827805 0.09024704 0.07525015 0.049152017 0.08723049 0.13338524 0.5771164 0.57651913 0.503088 0.56202954 0.5798961 0.57907355 0.5705827 0.55863655 0.4195928 0.5680118 0.18296944 0.21135533 0.49957502 0.21239175 0.4754758 0.18373695 0.19714168 0.05613396 0.15260535 0.5915271 0.6115576 0.28260094 0.13358477 0.12298766 0.28253585 0.4144491 0.4821708 0.6243011 0.62711394 0.625813 0.30820185 0.5765236 0.5315595 0.32901615 0.2810991 0.3923284 0.48621228 0.305834 0.46830982 0.48214242 0.42216176 0.4480661 0.37599066 0.15567856 0.11381619 0.15614724 0.21030015 0.2160123 0.052149937 -0.0025578048 0.15572983 0.035035294 -0.10489504 -0.032807745 -0.19599444 0.04051578 -0.02083239 0.10670327 0.13087338 0.14738956 0.071531944 0.14149702 0.111571975 0.16445059 0.15452108 0.5285819 0.5650128 0.5592203 0.5123101 0.37625054 0.46241748 0.47195017 0.4258098 0.4257978 0.2060324 0.20135006 0.39787194 0.119947515 0.1856251 0.35115016 0.43202323 0.51275176 0.50832593 0.60436255 0.18328542 0.084225334 0.006670654 0.050411794 0.5233185 0.5597948 0.60620105 0.36030823 0.34105742 0.014369294 0.035845086 0.2097628 0.41379207 0.596977 0.606871 0.3937317 0.5850674 0.4067118 0.39002442 0.4444996 0.45948493 0.32752323 0.51042956 0.51637006 0.28021738 0.48904794 0.039966375 0.42124367 0.23838863 0.3897699 -0.060858123 0.12959024 -0.14321503 0.055251453 -0.074694306 0.10279301 0.17195907 -0.027455872 0.28565693 0.2920798 0.25100556 0.32299834 -0.35593987 -0.069894895 0.30090332 0.33121192 0.41885567 0.35414693 0.35688716 -0.20023347 0.2701556 0.33276308 0.28383836 -0.011590481 -0.06285426 -0.10724647 -0.121620044 0.049841247 -0.14817771 0.11565496 0.0604876 0.16253969 0.14563881 0.38232398 0.4512742 0.43233085 0.3777666 0.23509 0.49733713 0.5665518 0.56201386 0.47455728 0.4662537 0.49832934 0.47594064 0.45042464 0.4265374 0.40980422 0.63154906 0.5429998 0.6084624 0.6317122 0.63637006 0.53186494 0.63142174 0.27758062 0.12856299 0.014313638 -0.024627473 0.06996423 0.44854242 0.5207859 0.5428143 0.5024338 0.42211688 0.019427463 -0.073677965 -0.12167485 0.1928874 0.21683103 0.29429033 0.5536318 0.56402403 0.49922022 0.43746537 -0.09867151 -0.3958426 0.49572456 0.44591245 0.45379394 0.4973086 0.5085682 0.39959574 0.5205401 0.22247894 0.502594 -0.03997677 0.27286083 0.23931919 0.14933665 0.23468447 -0.03208103 0.06455887 0.31843123 0.30655476 0.4288777 0.39147273 0.3123561 0.3051676 0.41975564 0.43472815 0.3430639 0.35776764 0.279265 0.021204531 -0.13073201 0.09126811 0.31614685 0.36929378 0.0070654806 0.020015791 0.048802268 0.021971023 -0.03347589 0.121665254 0.083029084 0.18148693 0.12631378 0.11711263 0.34454066 0.39831406 0.44949585 0.32258612 0.49496132 0.5975399 0.579805 0.48883575 0.49934053 0.49064165 0.4723227 0.50522614 0.50491536 0.46466196 0.6208426 0.6308106 0.6331489 0.48530236 0.42693317 0.39310962 0.5697609 0.6094148 0.63191116 0.6222407 0.39687842 0.46225345 0.3135287 0.5352879 0.57152474 0.3939884 0.54373956 0.5220753 0.13296741 0.06759741 0.021478198 0.09688917 0.08672306 0.067919366 0.2840516 0.37647226 0.45046476 0.5721282 -0.0348436 -0.020773679 0.20102614 0.56767714 -0.057195168 -0.18135284 0.19442758 0.4336693 0.50196576 0.49880242 0.44766966 0.42812115 0.5118598 0.047082346 0.21176983 0.23372449 0.006843943 0.3912675 -0.026516823 0.39439166 0.21802291 0.3683273 0.24070245 0.44450712 0.31433085 0.41668248 0.4333785 0.447157 0.33595806 0.36539185 0.4039692 0.42896467 0.114084564 0.14115934 0.13741808 0.16097748 0.20994143 0.20962569 0.25323164 0.19871473 0.0871151 0.1187792 0.17747274 0.30080092 0.3382496 0.38834807 0.37936404 0.25332755 0.3141874 0.34954712 0.45757067 0.60685647 0.60131454 0.53814316 0.50488293 0.6168065 0.6287298 0.6351177 0.4973086 0.5151681 0.5177551 0.48001105 0.56846595 0.5995291 0.66640854 0.6614019 0.47328424 0.4628154 0.4442628 0.52400917 0.5247638 0.42146504 0.40087163 0.3789034 0.34832588 0.32504907 0.7817668 0.7850499 0.56604445 0.5505209 0.29837096 0.30905005 0.068697214 0.11192328 0.09797105 0.060741477 0.6786636 0.6735205 0.5719992 0.016020048 -0.1370959 0.017552026 0.03705873 0.53883886 -0.040661223 0.008283347 -0.024452534 -0.2939523 0.48810175 0.466838 -0.100292586 -0.06493067 0.31955007 0.39243746 0.27787924 0.34700996 0.24124688 0.4890242 0.04508242 0.17249353 0.24282905 0.4602374 0.072613165 0.15061375 0.20464647 0.47528297 0.44299254 0.07796713 0.37565684 0.46930018 0.25204697 0.4502799 0.46591944 0.07295459 0.4060074 0.45073012 0.1503731 0.5929663 0.64844084 0.61282235 0.5217327 0.22910501 0.33729047 0.28284526 0.3533809 0.4147436 0.28811625 0.3515243 0.38500112 0.4336295 0.444848 0.58216393 0.56197786 0.47321558 0.35397637 0.39989454 0.42020765 0.8196765 0.6153819 0.6708361 0.698923 0.7264714 0.7533081 0.7999401 0.82416 0.52058065 0.68248177 0.57343066 0.73086715 0.78463197 0.71075505 0.5301867 0.48980442 0.21252033 0.12190598 0.07354643 0.14455912 0.1238429 0.5700234 0.6693703 0.64311874 0.5434103 0.5403055 0.3722667 -0.03739658 -0.07403985 0.40565574 0.5274643 0.52826285 0.50177145 0.024800912 -0.10252783 -0.12042037 -0.31098226 0.16146748 0.49172896 0.45443663 0.3956745 0.02051809 0.0048356988 -0.012816656 0.013708526 0.071565 0.05925491 -0.16186109 0.0034435466 0.39573193 0.3499088 -0.09990468 -0.14317483 0.45412683 0.4679978 0.49789453 0.45829418 0.25274712 0.432895 0.49089745 0.5096593 0.31523556 0.32555115 0.5243401 0.2687314 0.31720534 0.5208523 0.24655488 0.5557424 0.55279636 0.6243039 0.53895086 0.39777613 0.6324163 0.37147284 0.47426736 0.18177828 0.42547795 0.46919885 0.55427253 0.6486897 0.32961524 0.66799736 0.65924233 0.6045148 0.4220624 0.34967607 0.22917014 0.16152322 0.25627622 0.09229553 0.40410626 0.15052252 0.12811829 0.40416682 0.41224226 0.7080377 0.7488856 0.85323215 0.9074396 0.7114384 0.7513479 0.7497191 0.59750533 0.6632143 0.8278154 0.87881017 0.53182095 0.6734886 0.7371932 0.69084746 0.66749823 0.4789685 0.45825118 0.6564804 0.6029328 0.21158652 0.16323307 0.13476557 0.024382591 0.19475083 0.40639776 0.58228284 0.43316972 0.018535895 0.45205256 0.47386968 0.4447078 -0.13199754 -0.079315536 0.2895102 -0.07232656 0.18386582 -0.09106886 -0.011007957 0.08060552 0.0042199716 -0.07960452 0.5048988 -0.15942588 0.5192815 0.5353954 0.53270954 0.40204757 0.52096325 0.52774024 0.4890895 0.54462177 0.4389282 0.24779806 0.30216712 0.6621747 0.6710379 -0.10082002 0.71763384 0.43833888 0.7228148 0.68313456 0.5528723 0.34951067 0.2138161 0.45550287 -0.022118226 0.34609222 0.45362657 0.5359441 0.6158309 0.6273813 0.48503876 0.3088871 0.6533215 0.64911807 0.6021956 0.2757048 0.2794279 0.33102083 0.24148625 0.19018096 0.027145281 0.26595658 0.34293288 0.36971357 0.7602196 0.8801428 0.935611 0.948321 0.58275247 0.923267 0.5525229 0.6186106 0.68958074 0.7073033 0.8525244 0.45017827 0.5370038 0.5966138 0.5954529 0.24343249 0.23181239 0.110173985 0.2263423 0.65019035 0.42749602 0.45039576 0.46493593 0.20437151 0.21618241 0.18115987 0.4477325 0.52062273 0.3021862 0.3255373 0.32236722 0.33704475 0.095238954 0.15885 0.38515246 0.4066187 0.37648046 0.3123396 0.42719245 0.12299344 0.06256112 0.019638684 -0.05922942 0.34821326 0.36585566 0.07583249 -0.14477073 -0.14002421 -0.024838388 0.05649893 -0.03994762 -0.36964038 0.5357218 0.09580549 0.57511866 0.45630017 0.41711634 0.22904742 0.5942242 0.47611105 0.6037942 0.5266191 0.51713014 0.62515366 0.5913834 0.24451318 0.7012241 0.7372441 -0.28270075 0.1257101 0.75693655 0.022053715 0.5939428 0.7426535 0.71905065 0.60815746 0.46932855 0.009131759 -0.4183855 0.594355 0.7959511 0.8346653 0.33280465 0.379121 -0.26995397 -0.17815994 0.43940434 0.51861715 0.6043457 0.812317 0.8653883 0.5503415 0.50228804 0.49214312 0.37757182 -0.24508849 0.4311378 0.519641 0.57233304 0.7707808 0.58556974 0.59841526 0.5466342 0.6186826 0.32517442 0.37262923 0.21970667 0.41518575 0.33698165 0.101712264 0.3284254 -0.016662568 0.3985065 0.5798706 0.542952 0.46556902 0.29958534 0.6524645 0.65500146 0.6346163 0.63442576 0.68283224 0.67389953 0.8951497 0.7405509 0.86010563 0.9212729 0.9386107 0.58361036 0.9250585 0.34616587 0.8604845 0.28631082 0.255034 0.7265973 0.21625495 0.1647919 0.44418964 0.40306282 0.40138534 0.18835527 0.20923936 0.41237175 0.5290749 0.5448352 0.49348027 0.35830107 0.3420964 0.16894989 0.48380697 0.41049016 0.3242674 0.46212533 0.44816795 0.2660209 -0.11903303 -0.12013069 -0.34530926 -0.15071942 0.50189 0.5376313 0.33377844 0.3925858 0.094582275 -0.08167943 -0.41003087 0.574955 0.32189435 0.57352763 0.48152548 0.44827667 0.3611122 0.51467776 0.484806 0.56904465 0.59382236 0.72301626 0.66350394 0.30207127 0.78189504 0.75682545 0.7242308 0.5760807 0.47177666 0.26252088 0.08705063 0.06566931 -0.2492693 0.7606992 0.79203075 0.82705504 0.8658869 0.68479514 0.5253583 0.5044642 0.024504233 -0.094438404 -0.16944544 0.15050235 0.859565 0.87344843 0.19938195 0.03945629 -0.34566462 0.00898771 0.22001928 0.9040878 0.9186096 0.13767582 0.2851102 0.37867966 0.4903974 0.6483961 0.7685368 0.9143455 0.53766984 0.7277402 0.34598094 0.42750436 0.23354374 0.45153782 0.44662592 0.25525805 0.22373974 0.32678768 0.3030606 0.3413905 0.68265504 0.44078857 0.71500087 0.7174186 0.7013478 0.6581702 0.726895 0.7157854 0.752491 0.7956456 0.8340483 0.8748601 0.643093 0.722326 0.82173353 0.8364835 0.2641521 0.43057442 0.8008505 0.24289751 0.27233547 0.26799887 0.22853784 0.6565857 0.73417324 0.21192172 0.53575164 0.20537555 0.141887 0.121170536 0.40832227 0.1759357 0.25552285 0.5013934 0.5235436 0.5430367 0.51617557 0.08339302 0.48206162 0.4790277 0.48560217 -0.032785453 0.30071896 -0.16941625 0.26536384 0.12212078 -0.22333694 0.3741579 0.08553123 0.18256205 -0.008752286 0.40206438 0.22722974 0.23147288 0.25311098 0.23507495 0.47511742 0.4160671 0.3188498 0.17646156 0.5557705 0.43878096 0.3225225 0.3113181 0.19526692 0.5489111 0.41