# vtk DataFile Version 2.0
Really cool data
ASCII
DATASET POLYDATA
POINTS 4750 float
12.123739 60.751945 46.912483
11.930924 60.834248 47.49756
12.221743 60.669292 48.353767
12.283744 61.83103 46.144176
11.910232 61.271145 47.04543
11.854639 61.443203 47.535492
12.027398 61.3294 48.304348
12.2774 61.472954 48.768013
12.42182 62.356945 46.010025
11.950099 61.986816 47.660152
12.213162 62.093315 48.31355
13.31978 60.18769 39.011425
13.281568 60.20258 39.14188
12.877251 59.731808 47.534058
12.769181 59.93947 48.30163
13.162521 60.72464 38.70529
13.103535 60.6714 39.29366
13.315191 60.882504 39.950405
13.022938 60.853657 45.50571
12.63329 60.429436 46.362286
12.437531 60.36997 48.705414
12.896723 60.629616 49.167946
13.165832 61.317436 38.698795
13.150243 61.47128 39.378857
13.268967 61.46748 39.946457
12.820714 61.60489 49.1952
13.3346 61.836475 39.04274
13.275271 61.836887 39.26665
13.003451 62.221954 44.9168
12.578503 62.629547 45.655098
12.479053 62.450535 46.10495
12.471226 62.53781 48.212967
12.827499 62.180103 49.000443
12.932221 62.908813 45.099163
12.880529 63.24149 45.63361
12.992517 63.515293 46.196045
12.847058 62.993477 47.510986
12.725406 62.704613 48.555893
13.178491 62.81965 48.806137
14.347927 56.829468 23.879814
14.164788 57.03905 24.468363
14.239948 57.07181 24.94994
14.35028 57.991074 22.509165
14.031802 57.566525 23.844843
13.976902 57.67049 24.422083
14.161741 57.60588 25.025902
14.329528 58.820282 15.812325
14.33411 58.83431 16.441608
14.406048 58.93943 22.028671
14.185407 58.60331 22.708511
14.054069 58.430122 23.633028
14.069973 58.27206 24.455456
14.222496 58.162827 24.997778
14.291492 59.30621 39.300194
14.030209 59.140633 46.8014
13.899578 59.218697 47.384415
14.424436 59.948845 14.946186
14.273353 59.666435 15.549847
14.24502 59.46861 16.400171
14.42231 59.37718 16.94703
14.365341 59.073986 21.938812
14.29651 59.252056 22.414112
14.19624 59.12722 23.325634
14.370162 58.9711 24.321712
13.880213 60.124115 38.12495
13.819352 59.779743 38.677128
13.676813 59.82922 39.45138
14.030783 59.727764 40.005405
13.799788 59.928497 45.671635
13.479514 59.712147 46.23147
13.691509 59.72661 49.16149
14.433885 60.120396 14.8983135
14.354685 60.255535 15.446731
14.348429 60.17977 16.294628
13.589852 60.7189 38.151173
13.440966 60.330704 38.452724
13.66116 60.77327 40.433453
13.64775 60.806103 45.066975
13.350444 60.472057 45.58236
13.388635 60.396782 49.45796
13.782906 60.41755 49.578506
13.673821 61.23694 38.113464
13.466464 61.610832 38.39732
13.86582 61.81378 38.25992
13.728787 62.098644 38.74859
13.585967 62.101612 39.59331
13.91741 62.41758 40.088005
13.569214 62.344296 49.342693
14.262553 62.799187 39.5158
14.252003 62.79955 40.25658
13.353197 63.326233 47.53715
13.788644 63.537365 47.813637
13.699555 62.90117 48.91895
13.567767 63.70722 45.1991
13.767083 63.97987 45.62148
13.719756 64.002556 46.406605
13.952399 63.870186 47.342438
15.246262 53.883076 53.718304
15.317178 53.554874 54.382217
15.426011 53.65537 54.98609
15.269071 55.09775 52.37135
15.22325 54.327435 53.430737
15.26624 54.465584 54.584293
15.395599 54.421738 55.10053
15.261059 56.04355 24.113747
15.174323 55.956806 25.568525
15.219666 56.083298 26.284851
15.413324 55.449646 51.72656
15.247817 55.09508 52.952007
15.184086 55.622433 53.406487
15.319634 55.35346 54.48285
15.415353 55.239777 54.882133
14.420925 56.740227 24.435204
14.599613 56.807762 25.711393
14.914063 56.757107 26.261002
15.232561 56.851273 26.778378
15.3804245 57.01071 50.318043
15.219815 56.483456 52.328476
14.8874235 58.18697 15.876745
14.931394 58.08274 16.262224
14.970736 58.22498 17.098091
15.4079 57.954487 19.757122
15.348153 58.15098 20.161015
14.934132 58.135956 21.389635
14.489349 57.56103 22.788868
14.496324 57.580853 25.598005
14.879495 57.21982 26.193699
15.257614 57.01646 26.811668
14.908101 58.829983 14.903867
14.643266 58.52353 15.573278
14.520635 58.497223 16.56114
14.750401 59.025368 17.565594
15.40788 58.800594 18.723394
14.513869 58.5973 21.941408
14.524192 58.312904 25.2701
15.055209 57.77801 26.241821
14.9383335 59.130116 38.203247
14.788349 59.01036 38.694893
14.780802 58.988422 39.353996
15.048748 59.07871 39.976532
14.614893 58.910934 46.67916
14.289358 59.156616 47.25508
14.459066 58.722233 48.25186
15.007178 59.734806 14.178333
14.678595 59.61916 14.625208
14.643313 59.397945 17.285189
15.254614 59.177517 18.329313
15.276894 59.621956 19.358566
15.095581 59.44439 20.451973
14.6161175 59.443405 21.971462
14.444452 59.58543 22.45279
14.581505 59.677185 23.676182
14.642967 59.164787 24.393208
14.90892 59.27212 24.74246
14.666441 59.635315 37.973694
14.411179 59.418625 38.333057
15.14676 59.772507 41.36116
14.629048 60.165367 44.921707
14.524701 59.365612 49.576263
14.998863 60.366417 14.059783
14.609761 60.511497 14.61666
14.503612 60.694202 15.504882
14.575771 60.563293 16.407242
14.936236 60.449997 17.357023
15.216502 60.41133 18.286535
15.476966 60.142048 19.83136
15.257138 60.487038 21.46309
14.893482 60.155197 22.438017
14.64893 59.904575 23.141
14.784363 60.633038 37.687634
14.736287 60.40238 41.533875
15.15463 61.083553 14.156841
14.9493475 61.162785 14.623509
14.886619 61.260643 15.419428
14.959433 61.214355 16.248142
15.033903 60.976273 16.882212
14.451029 61.347023 37.837337
14.958305 61.547832 49.43427
14.697713 61.404358 49.727806
15.263703 61.64281 15.587975
14.603422 61.97688 38.144985
14.3003435 62.278477 38.398262
15.217393 62.612766 42.59638
14.189965 62.536213 49.18564
15.168263 62.968018 38.580555
14.519593 63.274048 39.79343
14.72406 63.34819 40.301285
15.092112 63.559925 41.033257
14.33706 63.182247 48.533543
14.728232 62.97177 48.74005
15.131309 63.666134 39.71154
14.636931 63.973907 45.10989
14.475333 64.112854 45.54973
14.387064 64.24577 46.418644
14.571953 63.98852 47.250164
16.367603 52.026966 20.005365
16.235327 51.823498 20.609367
16.128616 51.831924 21.311972
16.191498 52.4841 20.132942
16.016413 52.453312 20.757473
16.002523 52.4328 21.503546
16.015821 52.67963 22.01791
16.291822 52.95453 23.211552
15.861944 53.023643 52.922222
15.620377 52.947224 53.651714
15.882825 52.720745 54.29832
16.0475 53.157166 55.503365
16.175879 53.331028 20.010368
16.013206 53.281437 20.488976
16.036743 53.017822 21.801096
16.022703 53.167747 22.238665
16.105017 53.306488 23.227839
16.366743 53.292892 23.825417
16.168499 54.040005 51.74851
15.6238365 53.301514 52.948986
15.647947 53.72031 55.372494
15.994541 53.917526 56.076416
16.391705 54.752373 19.668396
16.384089 54.27321 21.510696
16.21435 54.30357 22.79126
16.294819 54.228245 23.194027
15.596499 54.66196 55.5651
15.990947 54.391636 56.151196
16.409657 55.35351 18.747192
16.486134 55.38138 21.029936
15.362218 56.21415 23.729141
15.359487 55.791954 24.836145
15.687468 55.62181 25.910315
15.656247 55.837597 26.547352
15.921675 56.079693 26.951088
16.3516 55.638622 46.940327
16.047674 55.843075 47.58744
16.047863 55.988552 48.836777
15.728436 55.562767 50.8348
15.750986 55.291283 55.53136
16.06165 55.134464 56.03688
15.935684 56.73941 18.542982
15.811559 56.648773 19.291368
15.960839 57.097824 20.560503
15.630007 56.662586 22.9288
15.553708 56.498146 26.93586
16.231855 56.708332 46.673737
15.81169 56.751785 47.306423
15.602729 56.973866 49.203568
15.57939 56.289005 51.19123
15.716101 56.27161 54.387486
16.067604 58.349987 14.593497
15.504416 58.00392 15.720814
15.561035 58.156845 17.677149
15.702739 57.549988 20.790276
15.683752 57.13603 26.976923
15.966381 57.526665 53.285355
16.07099 56.9357 54.465816
15.9799185 59.022865 13.911292
15.25494 58.710968 14.799717
15.539158 58.278954 25.94726
15.492099 58.7536 38.771057
15.743685 58.751972 39.35538
15.719066 59.203228 40.667297
15.437881 59.15771 45.967537
15.8420925 58.478954 50.530724
16.296574 58.28896 52.454323
16.037598 57.71648 53.180294
15.372943 59.732464 13.85891
15.677878 58.993057 25.471909
15.881387 58.933666 25.703957
15.469061 59.61002 37.74316
15.464571 60.541477 13.75585
15.502941 60.751293 17.972654
15.490101 60.33577 23.340014
15.36461 59.887585 24.02077
16.361305 60.75948 36.60618
15.5803585 61.139095 13.984466
15.315735 61.438248 14.481951
15.502592 61.64069 16.79669
15.52792 61.51963 17.127804
15.649085 61.21795 18.742493
15.923185 61.368824 19.3733
15.57578 60.967518 20.792835
15.817095 61.244553 21.35447
15.80701 61.08186 22.242191
16.055124 60.870358 23.161182
16.127375 61.43866 37.375107
15.658671 61.683594 14.661192
15.628512 61.826904 15.567146
15.743688 61.903957 16.32871
15.950734 61.89985 17.423546
16.252384 61.88147 19.233381
15.5515175 61.828144 49.47978
15.686886 62.768776 38.25408
15.443876 63.339863 38.940132
15.532289 63.589375 42.73376
15.614553 63.323177 47.745476
15.135922 63.33121 48.181374
15.488494 63.70273 39.491657
16.147156 64.46627 41.56064
15.110443 64.15463 46.746826
15.013378 64.15095 46.998543
16.348125 65.113785 40.053112
16.027798 64.73015 40.70269
17.490875 44.0312 40.293842
17.414616 49.826416 19.700298
17.295599 49.98475 20.597042
17.40692 49.80101 21.71063
17.168053 50.650578 19.781378
16.782585 51.089676 20.58732
16.683039 51.04429 21.346275
16.630445 51.82655 19.9664
16.601192 51.2865 20.238998
16.551807 51.73236 22.287142
16.99551 52.16363 23.442059
17.165934 52.042892 50.92465
17.218443 51.92035 51.674168
17.033352 52.161552 52.8286
16.620447 52.369434 54.32109
17.023117 52.346336 19.126923
16.398216 53.179882 23.756804
16.781685 52.91125 24.015184
17.139814 52.53553 50.23574
16.983543 52.676155 50.633785
16.329824 52.521942 54.591892
16.3895 52.89774 55.347275
16.84103 53.234818 56.117573
17.095005 53.4971 18.76205
16.518631 53.541393 19.433884
17.479027 54.00324 32.569614
17.178076 54.268917 47.431767
16.80878 53.402203 50.742714
16.50169 53.691013 56.35842
16.830803 53.906063 56.60513
17.016325 54.43378 18.546028
16.488674 54.735348 20.411287
16.550266 53.978245 24.11052
16.696507 55.32826 26.216585
17.479095 54.27373 32.324398
17.156847 55.023422 46.24033
16.837551 54.701534 46.922203
16.487303 55.07134 47.429604
16.810698 54.161938 50.776134
16.407883 54.564713 56.544357
[...]
POINT_DATA 4750
SCALARS features_00 float 1
LOOKUP_TABLE default
0.67597675 0.7192533 0.7241108 0.6346005 0.6977838 0.71715224 0.72828937 0.71720886 0.6157741 0.7080341 0.704677 0.81624 0.81793666 0.6071592 0.6860742 0.8491883 0.84236056 0.80926406 0.51476794 0.554003 0.7041602 0.6827232 0.8207829 0.78758 0.75016594 0.7003386 0.72918224 0.7265867 0.53532565 0.5895362 0.620499 0.6671804 0.67026836 0.55718744 0.6083435 0.6380614 0.6372742 0.6400391 0.6007984 0.5682924 0.6093813 0.6172642 0.44869673 0.6085695 0.61986446 0.6190681 0.6888551 0.6283886 0.41186133 0.50670475 0.59354544 0.61505115 0.60902137 0.66714215 0.36124206 0.39901814 0.7486632 0.7302233 0.64947504 0.5584724 0.4059046 0.47310108 0.5553124 0.58647645 0.78451204 0.7494881 0.7494986 0.69005454 0.3604918 0.39895332 0.5963087 0.75212896 0.7263497 0.6397405 0.83093464 0.82479995 0.7698765 0.4112233 0.4324649 0.6428704 0.6309017 0.79831827 0.7707039 0.68820965 0.6500972 0.64325976 0.52115417 0.59676194 0.49547353 0.41866365 0.5649376 0.5096718 0.55056125 0.5976741 0.6078644 0.5827639 0.5060922 0.52718747 0.62516046 0.6797098 0.33085477 0.4723579 0.58660597 0.64796287 0.4497112 0.60735655 0.64665914 0.25209063 0.4028473 0.4533071 0.54558617 0.5835567 0.59264755 0.6265665 0.6499862 0.6659017 0.1704208 0.37528816 0.5881448 0.563987 0.47579455 0.055344507 0.07973407 0.22991452 0.48303354 0.62289405 0.6458488 0.66158146 0.6209158 0.6489704 0.59569085 0.4422762 0.17885204 0.3695136 0.5979029 0.617457 0.60077876 0.62333286 0.6098885 0.55334884 0.28771144 0.3546935 0.39302438 0.7114479 0.7228699 0.4931895 0.28313276 0.18170023 0.20958763 0.40894583 0.46828285 0.5244839 0.5601247 0.52774686 0.68085134 0.6888624 0.49256116 0.25662196 0.48667726 0.7496011 0.75480354 0.7009596 0.5929353 0.44429022 0.31439123 0.21648884 0.3270117 0.43840837 0.493593 0.7013759 0.5459658 0.70920014 0.7138157 0.66215 0.56331754 0.48369074 0.6505092 0.424556 0.49794045 0.60362405 0.5252718 0.5562619 0.28468078 0.5105643 0.41335225 0.41719407 0.33614254 0.23521239 0.47095042 0.4351266 0.3334952 0.5354821 0.5594693 0.5264243 0.4510594 0.35102668 0.3647612 0.37136182 0.3597296 0.3770705 0.3831474 0.37177125 0.35312337 0.42894447 0.56925654 0.61257243 0.73723984 0.3481748 0.36313045 0.37109643 0.36417085 0.3595693 0.34484714 0.22299683 0.43750194 0.7212471 0.7572733 0.21743089 0.2859154 0.2608834 0.2898758 0.68425393 0.7446539 0.12985215 0.12918551 0.4005679 0.50560355 0.58594894 0.6459843 0.65734637 0.35123622 0.3105055 0.21348819 0.12756029 0.638229 0.6935195 0.043472692 -0.006786309 0.008238851 0.27791595 0.6686852 0.29283756 0.24759305 0.11137786 0.19310857 0.4912708 0.37134242 0.45376024 0.2830998 0.067980394 0.65701556 0.31827945 0.4225403 0.4356107 0.5531262 0.5622129 0.5032542 0.4636754 0.44876373 0.21983403 0.16121879 0.13469636 0.28627786 0.67873204 0.48805648 0.48272812 0.540153 0.70115596 0.34719855 0.38360426 0.4216175 0.26277533 0.6487483 0.6697116 0.46703613 0.43040234 0.3036135 0.29622048 0.29110894 0.28437948 0.27785337 0.25323462 0.15834504 0.61542904 0.5758222 0.50647676 0.3988194 0.34121615 0.3189716 0.34908947 0.3510315 0.2520473 0.31252164 0.3713438 0.30103087 0.24216238 0.4196425 0.41690505 0.2506602 0.22545712 0.6074264 0.41328377 0.3598829 0.36836186 0.36689085 0.34187338 0.32393205 0.34435478 0.3487556 0.3210497 0.2878096 0.36286718 0.34704024 0.37650967 0.49752402 0.3044782 0.34513074 0.3209385 0.32138222 0.31867707 0.5713272 0.6869743 0.7373158 0.2236466 0.30428565 0.62628603 0.41514355 0.23035994 0.75506896 0.7457545 0.17233476 0.24681267 0.31754702 0.417527 0.6187172 0.41424122 0.39766124 0.3568037 0.14034116 0.7474549 0.7452644 0.11972794 0.13106292 0.22856724 -0.05697246 0.56635106 0.6234681 0.393952 0.3829109 0.19534807 0.69449747 0.71914107 0.06612577 0.65061295 0.36901024 0.5547234 0.60286504 0.22545873 0.27971008 0.6486584 0.39475334 0.44992876 0.24371943 0.35174033 0.5442609 0.5285522 0.6254579 0.5172198 0.37334135 0.40344435 0.3693991 0.3378557 -0.120733485 0.020670354 0.23698255 0.24709985 0.32522684 0.44304514 0.67885655 0.6733672 0.055547893 0.17409463 0.4181007 0.5325449 0.54406023 0.14922494 0.54958564 0.5449847 0.1686041 0.23574306 0.29763532 0.25491488 0.18023124 0.52719367 0.49878377 0.45456916 0.39180005 0.37145543 0.34147614 0.29654837 0.11129968 0.26286802 0.26259464 0.22067976 0.23714177 0.2451686 0.2600928 0.19928527 0.25748882 0.30415937 0.2883412 0.3249767 0.2970967 0.3323828 0.3707004 0.34954768 0.5447697 0.5695566 0.62619376 0.65912384 0.6667328 0.5097283 0.56865877 0.6105188 0.660936 0.6521264 0.66833675 0.5395681 0.5806732 0.6145958 0.59939516 0.6329935 0.6437137 0.57194805 0.56074405 0.55572 0.5444788 0.45985448 0.53452283 0.5806958 0.59096456 0.4435331 0.4409642 0.52869153 0.5540097 0.568936 0.46006995 0.43976706 0.41499797 0.46213388 0.40642488 0.47032446 0.44360346 0.41574687 0.34692264 0.20616843 0.35806182 0.37814814 0.3788476 0.351847 0.36657116 0.37858102 0.37032378 0.36390615 0.37337115 0.18170922 0.24507901 0.21459042 0.534126 0.5710068 0.57189095 0.51413894 0.6960137 0.1154854 0.174785 0.28112411 0.55169594 0.5798285 0.6098772 0.60974187 0.52839506 0.46672827 0.68919647 0.7232758 -0.0011136755 0.07665412 0.058373556 0.5802791 0.6210331 0.6132161 0.510077 0.4022963 0.44391856 0.45608413 0.70048976 -0.027993474 0.05502685 0.5046777 0.5862653 0.59806263 0.47656173 0.41022444 0.40765047 0.10721791 0.018895112 0.5345757 0.42674047 0.39617157 0.5411225 0.48864692 0.3853611 0.028332036 0.6398519 0.5634762 0.28841162 0.40969837 0.50569445 0.3902171 0.22678071 0.29087704 0.665225 0.63095075 0.41674978 0.09872606 0.50775665 0.3253033 0.35364136 0.3933475 0.67196846 -0.0976357 0.07731019 0.30786315 0.12915997 0.36430985 0.43635976 0.5200685 0.6228642 0.3656033 0.35445157 0.18156952 0.09473501 0.43068367 0.4891401 0.5218136 0.37081435 0.2698557 0.14402159 0.40222174 0.4233146 0.38231304 0.33733386 0.33463886 0.28090793 0.1715362 0.104253724 0.14848116 0.27742374 0.24644989 0.18005663 0.24372804 0.274423 0.24798883 0.26511163 0.12375651 0.21225084 0.28725982 0.35529435 0.3738165 0.26190463 0.42439348 0.43047762 0.43364298 0.4680603 0.48140848 0.5082449 0.4565044 0.4726326 0.5372667 0.5687673 0.61966753 0.6475774 0.44928214 0.4925456 0.5270493 0.6462667 0.669955 0.6817332 0.4574647 0.6764348 0.6846653 0.4746034 0.6604596 0.6814436 0.44812682 0.4733464 0.52911836 0.58004004 0.5820286 0.44958887 0.4357626 0.42775506 0.3621114 0.26365972 0.40172076 0.4148271 0.5151712 0.58339846 0.5991713 0.59055185 0.4219128 0.42837542 0.41345823 0.37740338 0.31390077 0.31717068 0.35700434 0.39233837 0.44567573 0.42860383 0.4251427 0.51586205 0.49531636 0.33307865 0.3367175 0.35419792 0.2852698 0.38779646 0.38477725 0.4697004 0.40941894 0.4404499 0.2877859 0.30791205 0.2765737 0.17865562 0.30503964 0.37308097 0.39098698 0.40735847 0.19999096 0.40637302 0.37793022 0.36819407 0.43206492 0.3829796 0.26992705 0.2700765 0.40950817 0.439592 0.37680954 0.3505466 0.36324924 0.35969263 0.22494625 0.45009553 0.4785806 0.5013771 0.3679047 0.06926244 0.056441188 0.16681471 0.4836533 0.32769647 0.23100272 0.6431236 0.013585558 0.0036251377 0.040302023 0.1410692 0.08657116 0.3780984 0.36925805 0.47856337 0.5421307 0.3779131 -0.01458237 0.066574275 0.09426275 0.355425 0.43598744 0.44964278 0.31209236 0.5218164 0.55288017 0.5146735 0.4834683 0.3206908 0.10831434 0.20010689 0.40468454 0.46541616 0.46579862 0.47153446 0.55120397 0.5199649 0.59879416 0.4811304 0.43619436 0.5526257 0.5345331 0.27811226 0.5668466 0.6263641 0.35136235 0.30069596 0.51483566 0.33473796 0.50980663 -0.02875763 -0.0583685 -0.11038384 0.19849329 0.31611308 0.41655856 0.27971312 0.15656321 0.31109875 0.5881894 0.26014245 0.25513512 0.17323846 0.3524339 0.41235465 0.5951355 0.32253772 0.21436876 0.34418708 0.36933738 0.31198823 0.2473732 0.18054985 0.17756517 0.1430505 0.102625474 0.25484842 0.31112203 0.44592923 0.5065384 0.5520965 0.2928415 0.2796832 0.34548795 0.3881144 0.377593 0.4360986 0.041482873 0.026650023 0.3004069 0.30185735 0.37571067 0.4123699 -0.039893925 0.05518546 0.1970163 0.28882557 0.34447977 0.36820152 0.40246445 0.4385805 0.49943236 0.4259658 0.45686275 0.5363625 0.56039524 0.5428061 0.52236265 0.53735995 0.55575585 0.47925913 0.5028914 0.5045385 0.57139254 0.6106585 0.63511527 0.4298151 0.44443607 0.6657615 0.6790471 0.3622088 0.68563133 0.5272279 0.42152157 0.14906345 0.5530605 0.5052368 0.4927919 0.45228863 0.37802154 0.42222583 0.48420745 0.54460037 0.5520591 0.4793265 0.4597698 0.3167009 0.34298614 0.37577873 0.38723195 0.57662785 0.54651093 0.46248436 0.21790186 0.19880673 0.45280623 0.41356608 0.5237958 0.29312736 0.36685944 0.14420946 0.45518824 0.45622846 0.3925125 0.26508427 0.01877017 0.023596957 0.42447436 0.41807508 0.37422428 0.35278597 0.36725265 0.061524227 0.13602212 0.16010919 0.1403361 0.0047724172 0.33770072 0.4958129 0.45471182 0.3777569 0.34368253 0.3636256 0.16122052 0.369354 0.32635555 0.267023 0.07891371 0.023007512 0.3360941 0.35730773 0.013805715 -0.06352554 -0.006555449 -0.0048022848 0.2315734 0.35475278 0.064986885 0.07290663 0.13032472 0.07045395 0.18611953 0.47665286 0.36701605 0.116423264 0.07103056 0.24890679 0.18595667 0.49192142 0.4294985 0.27972648 0.5385774 0.26544797 0.5846564 0.5430769 -0.23981956 0.37428105 0.3261729 0.33657214 0.6814276 0.5747459 0.09022332 0.4193939 0.5584836 0.28867373 0.28975445 0.27670547 0.106608056 0.37113523 0.4952669 0.4422657 0.4480719 0.2092878 -0.0014273152 -0.084513865 0.5151192 0.41160542 0.2721681 0.53109485 0.2190346 0.56779206 0.63845843 0.18601693 0.1692461 0.16534507 -0.07964308 0.24122946 0.57305676 0.71996194 0.6931312 0.68994856 0.3204826 0.2681827 0.06667945 -0.0016633458 0.021949697 0.19079529 0.48561722 0.54304975 0.32738012 0.24091591 0.32618093 0.4143455 0.39900398 0.45825225 0.41417468 0.049554408 0.3281663 0.3433799 0.36383998 0.41461563 0.43275338 0.06469553 0.25696343 0.27011877 0.29450968 0.45003963 0.389136 0.5038581 0.5071538 0.4737627 0.4435325 0.37193114 0.42308939 0.5388943 0.531095 0.40471062 0.48050672 0.5634658 0.5639484 0.5115701 0.5780405 0.6137855 0.59668076 0.5495024 0.5589127 0.52181965 0.5353494 0.5628958 0.62777126 0.4909228 0.66754794 0.3763157 0.63052845 0.6081891 0.5786363 0.16997145 0.4132128 0.5786951 0.5607443 0.1757854 0.35882863 0.43522456 0.5067286 0.46861237 0.48153156 0.5397395 0.18801954 0.33012295 0.4094476 0.42042595 0.3097797 0.3087584 0.3683617 0.37762552 0.35118496 0.28728968 0.4266256 0.3546942 0.35015628 0.29838943 0.22851089 0.32138744 0.36275247 0.31685984 0.2922898 -0.21492258 0.4050814 0.34100357 0.2710404 0.29055512 0.1102999 -0.33770436 -0.013636708 -0.17936772 0.16263367 0.43102974 0.4042633 0.34479696 -0.07712333 -0.31018323 0.15582676 0.13751963 0.060940396 0.3144995 0.2714079 0.40372866 0.2035578 -0.18504988 0.06688694 0.5790193 0.49891728 0.33850035 0.60137445 0.4071543 0.5206078 0.566393 0.34605414 0.18711196 0.09360076 0.5975633 0.13727811 0.3716306 0.25316912 0.13848245 0.5209818 0.27718407 0.28698552 0.26078883 0.23303896 0.17217037 0.09308271 0.44470972 0.43507785 0.19879833 0.057335597 0.08268544 0.16032317 0.29581404 -0.26212958 -0.10731315 0.6308204 0.6799784 0.15605891 0.10548329 0.023727365 0.3672262 0.8291142 0.8167087 0.78313285 0.7422756 0.7155858 -0.10733342 0.36542633 0.8097682 0.7991882 0.7946657 0.047811233 0.19212048 0.09790839 0.18933843 -0.01574558 0.36858296 0.3085433 0.39851612 0.40591174 0.15431195 0.32902813 0.27273282 0.36248064 0.3527425 0.3617764 0.39205357 0.33401483 0.43895155 0.50102526 0.32465494 0.40048015 0.3952774 0.5511957 0.55767465 0.54106516 0.5178617 0.36343014 0.41116482 0.50971884 0.5068841 0.48917446 0.44191653 0.57344425 0.5738565 0.55903363 0.5790136 0.64433146 0.65823865 0.6023389 0.52456975 0.5085127 0.54823744 0.47409195 0.44046468 0.49123147 0.41066024 0.44604576 0.3608205 0.6239696 0.60795367 0.25463116 0.31434977 0.5941181 0.10015526 0.31115246 0.3477043 -0.025870964 0.25440782 0.33883744 0.042435184 0.40918562 0.2915684 0.20004846 0.34148222 0.27978852 0.34416658 0.38524026 0.38614866 0.1492072 -0.023342475 0.22939256 0.28142583 0.28088787 0.39154282 0.39726514 0.20644936 0.33457032 -0.07426725 0.22747356 0.023217965 -0.20153522 -0.3638368 -0.37976307 0.070910804 0.11910184 0.40595886 0.39028752 0.3305552 0.1996066 0.26126567 0.2662226 0.4172697 0.4035548 0.35088938 -0.28247127 0.19293337 -0.026979998 0.13971967 0.41187584 0.36390045 -0.061100487 -0.04107349 0.4281938 0.2849668 0.36630192 -0.028359372 0.31397232 0.47317624 0.40954837 0.49562782 0.21971694 0.59011286 0.5162112 0.56046236 0.5314317 -0.09001963 0.5407359 0.30024058 0.47742224 0.23971257 0.34610003 0.21451722 0.38148308 0.42862967 0.45205575 0.13267529 0.28568554 0.23128319 0.28421676 0.32732484 0.59638304 0.5650475 0.11014335 0.43480912 0.6708603 -0.005659364 -0.033643194 0.5891584 0.76583713 0.85156375 0.7762463 0.7127441 -0.03524707 0.0681019 0.02882004 0.84932315 0.8361771 0.8083508 0.07747595 0.15710928 -0.23291677 -0.13153455 -0.33508062 -0.27825502 0.54245037 0.22234637 0.29300594 -0.18973391 0.4109701 0.34283996 0.31834215 0.4390182 0.39894032 0.38132077 0.48265916 0.30175084 0.5056013 0.46461123 0.4182973 0.5687557 0.5819811 0.5584437 0.6208879 0.65208006 0.6158446 0.47757077 0.5248084 0.5423167 0.4139073 0.41243026 0.4149096 0.45675164 0.30580696 0.24763516 0.20870797 0.4982636 0.3908303 0.50186795 0.46245775 0.14072567 -0.110249005 0.1430684 0.13972196 -0.07599735 0.2792858 0.26204246 0.399057 0.07935107 0.38739952 0.41980815 0.39103162 0.22815895 -0.18845814 -0.052029178 -0.10314673 -0.10245464 -0.12482617 0.36195838 0.2872466 0.04492195 0.13783513 0.063636675 0.16571993 0.23623317 0.21248582 0.28788704 0.3908177 0.43826866 0.4217472 0.32440513 -0.14576063 -0.20776331 -0.2873133 0.10250561 0.29061335 0.20887408 0.2740003 0.3895343 0.34344652 -0.3837078 0.076941475 0.3812341 0.35444388 0.29099315 0.18687572 0.16123939 0.20697662 0.20641972 0.23921311 0.11419606 -0.03976692 0.42117888 0.42061603 0.40326667 0.34512347 0.20978329 0.07871786 -0.023580283 -0.23813453 0.44877237 0.4372993 0.4209264 -0.12554535 0.2843774 0.14519463 0.26275846 0.48461223 0.44636524 0.41590047 0.27851337 0.19937196 0.25539184 0.3813158 0.2983384 0.46551007 0.36181554 -0.21723352 0.39453483 0.35466263 0.44201735 0.40427175 0.52754635 0.5223463 0.07596097 0.31802833 0.41668248 0.5778001 0.2112498 0.6789821 0.45761555 0.7994386 0.32581908 0.42936164 0.42724407 0.3120237 0.61391675 0.81726116 0.7263367 0.50996804 0.43811196 0.3630048 0.46045685 0.50543654 0.6077512 0.6972361 0.7005477 0.66848755 0.6047928 0.55526 -0.037048355 -0.06032547 0.65042037 0.8379741 0.8331224 0.78882813 0.7328247 -0.059038956 -0.025562283 0.6352908 0.8371641 0.8125448 0.11710931 0.20817587 0.058743134 -0.08688177 0.025632516 0.64757204 0.59626853 0.25680232 0.005757764 -0.06183357 0.072666794 -0.0480417 -0.09982942 -0.24269113 0.26906365 0.10773499 0.5213181 0.56532216 0.60680956 0.61430836 0.30920726 0.090192445 0.38526678 0.34768862 0.2721501 0.42700377 0.40427405 0.54730225 0.5326096 0.51349014 0.49348345 0.5464423 0.5691718 0.4697906 0.46807444 0.39510304 0.29529238 0.2152817 0.31920564 0.2911039 0.16093095 0.2500548 0.32218212 0.3107466 0.27081317 0.4435897 0.2558093 0.16461131 0.28235084 0.192608 0.11409679 0.37949085 0.35068932 0.2951286 0.19093521 0.17586477 -0.064640276 0.14217663 0.06640427 -0.035992578 -0.09751875 0.19995925 0.17610641 0.19661205 0.07239898 0.054258466 0.17943352 0.15238175 0.22619769 0.28200442 0.29534996 0.33541667 0.13021363 -0.10741802 -0.21331757 -0.087340556 -0.10851978 0.049991943 0.29228175 0.29958636 0.17001109 0.21426064 -0.1379652 0.12547712 0.34504327 0.33418202 0.4049356 0.42012322 0.44954252 -0.2442922 0.09083056 0.30721462 0.4605109 0.4729779 0.21094494 0.30494714 0.38132334 0.4903587 0.51345205 0.31837445 0.30561575 0.35130978 0.35843623 0.24858585 0.47012445 0.40019023 0.41407713 0.49907893 0.32678196 0.4224248 0.39046597 0.17736985 0.5061336 0.49521667 -0.5086117 0.31112123 0.21701899 0.2742169 0.73784333 0.6569264 -0.08791823 0.2989027 0.859072 0.8510689 0.45501807 0.4417081 0.44511062 0.3595074 0.43205887 0.50649506 0.54861534 0.70477664 0.8790609 0.8676753 0.45197874 0.46287137 0.45378602 0.45145136 0.516461 0.65812576 0.6891022 0.64133465 0.68403435 0.71782804 0.8044982 0.7075559 0.53769535 -0.096280366 0.40951046 0.43630356 0.4494211 0.6067895 0.56903154 0.50831395 0.016176788 -0.13489963 -0.08449747 0.28423455 0.24589308 0.5344078 0.7045022 0.6727204 0.1627028 -0.13428451 -0.0061914846 0.11905245 0.18780318 0.10583067 0.1919052 0.60567653 0.6906887 0.6683705 0.25122547 0.2890428 0.3003539 0.26212528 -0.101856224 -0.017739834 -0.017585952 -0.1302726 0.18369602 0.28745967 0.59757525 0.71496296 0.7127753 0.68264484 0.03935551 0.21612704 0.12235239 0.20690084 0.3264723 0.35834968 0.3462372 0.13520879 0.2686061 0.18665974 0.11949961 0.28555748 0.2688675 0.38250965 0.4025951 0.3256703 0.34792462 0.34632155 0.47696275 0.4032539 0.34907627 0.34511408 0.33732072 0.32248318 0.3408455 0.34165192 0.38595402 0.37981153 0.15679419 0.24519838 0.2425687 0.30965644 0.33394104 0.31800854 0.28563645 0.58591175 0.6080226 0.6029664 0.3183346 0.0072541833 0.14910907 0.28550568 0.22377059 0.4851334 0.52095056 0.5235534 0.50829566 0.22882864 -0.078212716 0.2742549 0.04300538 0.06781234 0.016875379 0.32241297 0.37263268 0.4283194 0.33911443 -0.033752255 0.2520687 0.106862694 -0.04853352 -0.050567403 -0.07592606 0.15523845 0.24512962 0.19097976 -0.10990943 -0.11993274 0.08773072 0.3636042 0.3702304 0.29239047 -0.045442663 0.15992333 0.06271133 -0.20093766 0.6895777 0.1387391 0.27036574 0.24811885 0.22510321 0.00036691874 0.2983793 0.3048352 0.22996838 0.554364 0.26608726 0.3373109 0.39599046 0.11165797 0.3396392 0.44255966 -0.15146355 0.081989706 0.17278469 0.26394892 0.29844284 0.46385175 0.48691148 0.099077225 0.31991845 0.29386696 0.25033215 0.12369205 0.05906555 0.5427006 0.5086516 0.5284661 0.14856052 0.15635446 0.28221494 0.5526267 0.17738637 -0.07951969 0.18971524 0.25050908 0.33978266 0.29677826 0.36240852 0.5747036 0.55636704 0.67606497 0.5050685 -0.29213694 0.3320073 0.36681026 0.37484342 0.3823949 0.7998306 0.7527506 0.35245103 0.35627484 0.85140264 0.1656186 0.2887143 0.50093454 0.4500941 0.8804062 0.8763294 0.6942792 0.7237402 0.82904804 0.6737362 0.27383712 0.10180642 0.7074998 0.7292491 0.7616132 0.7993469 0.8005731 0.5999429 0.54060197 0.12744588 0.061048374 0.6993427 0.72869056 0.8006773 0.8155843 0.742444 0.21439564 -0.0065237693 0.70108616 0.7745582 0.7844709 0.7285459 0.26971787 0.2916741 0.32015648 0.24632305 0.050142962 0.048352066 -0.014816087 0.7522643 0.7529396 0.72982246 0.3307358 0.34363812 0.33763155 0.29792902 0.1408529 0.11074494 0.14420202 0.29759398 0.31889445 0.36484802 0.3195355 0.3732142 0.29137766 0.30095327 0.3495065 0.42276356 0.3968491 0.29223302 0.33053243 0.5306982 0.5662814 0.4675581 0.437687 0.41926453 0.5576057 0.4450288 0.40453076 0.36016467 0.3942243 0.4038955 0.39601153 0.29085347 0.23518768 0.25236863 0.37004095 0.35176805 0.31785804 0.30640322 0.21638727 0.23503333 0.23592621 0.66388077 0.66437733 0.6622143 0.6286908 0.28974223 0.029182516 0.03327322 0.02201511 0.06217273 0.1998263 0.20639688 0.43370348 0.6087647 0.5016347 0.05400575 0.3358225 0.46363142 0.45313257 0.24308193 -0.027575865 -0.006044127 0.3651686 0.46206325 0.47224516 0.41522342 0.24198318 0.048942227 -0.09492345 0.20985657 -0.13702121 0.048839957 0.2873552 0.41492373 0.4348848 0.65601206 0.74460393 0.37293294 0.4082622 0.76708996 0.16809814 0.33961436 0.20610242 0.81178343 0.205097 0.22053495 0.70984733 0.28447455 0.62757075 0.5491393 0.4314541 0.5721623 0.41549504 0.28942072 0.11564264 -0.054291204 0.41955698 0.38585278 -0.17874792 -0.19646402 -0.21381176 0.15512471 0.21986707 0.26516935 0.27648216 0.22478724 0.17423077 0.11067001 0.095216475 0.40513796 0.5158852 -0.06458256 0.2848794 0.27192983 0.24985293 0.5560866 0.56104016 0.41570154 0.024617612 0.009242319 0.010123067 0.047206916 0.35983628 0.55894595 0.56900334 0.15238528 -0.075010106 0