# vtk DataFile Version 2.0
Really cool data
ASCII
DATASET POLYDATA
POINTS 4767 float
32.385902 44.89216 39.647327
32.43965 44.81244 40.777603
32.36505 45.465534 39.60702
32.26757 45.399986 40.646946
32.359245 46.03758 42.264317
32.361294 46.836662 40.05447
32.276615 46.528164 40.16725
32.375202 46.728172 41.529053
32.35383 46.713696 42.44478
32.4494 47.432507 39.981056
32.4177 47.66232 40.569622
32.45522 47.52834 42.288124
32.457527 47.885582 40.258667
33.171436 43.272114 39.045525
33.181854 43.24743 39.53727
33.10302 43.22382 39.92957
33.083637 43.62688 38.810013
32.89366 43.637604 39.310905
32.83802 43.804745 40.221474
33.035786 43.887306 41.14858
33.083576 44.716946 38.229374
32.690826 44.6298 38.771477
32.578297 44.427464 39.8345
32.533146 44.27169 40.05145
32.68006 44.431553 41.29988
32.781322 44.761612 42.029892
33.008945 45.232197 43.032967
33.14846 45.48321 38.143234
32.77263 45.316196 38.54995
32.59734 45.3499 41.746914
32.573513 45.77223 42.575695
32.897655 45.766853 43.2466
33.12959 46.002293 43.76567
33.07914 46.326553 38.561516
32.581024 46.576237 39.314575
32.7624 46.552452 43.39065
33.16628 46.24006 43.79657
32.984615 47.519978 39.0582
32.62758 47.60145 39.738132
32.539772 47.477406 42.675465
32.792953 47.34572 43.295845
33.125534 47.178337 43.723446
33.12027 47.87801 39.110275
32.916695 48.30927 39.80781
32.780437 48.415283 40.55453
32.740623 48.224983 41.39459
33.040825 48.249725 42.544106
33.004555 47.944736 43.143288
33.122913 48.72323 40.068024
33.086506 48.78865 40.48486
33.18423 48.79787 41.33091
34.077328 43.29677 38.259552
33.71417 43.178593 38.763973
33.71284 42.9315 39.439293
33.698555 43.00707 40.085094
33.689888 44.042156 38.00647
33.54591 43.51856 38.473705
33.58722 43.58095 41.654385
33.678047 43.964947 42.201378
33.995907 45.0046 43.21222
33.67911 45.255707 37.83058
33.641113 45.45469 43.614124
33.697998 45.95179 43.930798
33.603153 46.47112 43.998665
33.471275 47.435295 43.828785
33.35732 48.165466 39.159462
33.47086 48.486332 42.5106
33.60768 48.295967 43.162174
33.63366 47.816753 43.699097
33.684193 48.78974 39.758923
33.64778 49.036568 40.618797
33.535946 48.93891 41.2575
33.51879 48.59304 42.219223
33.818344 48.591137 42.904423
35.443863 37.994804 16.810005
35.395546 38.44057 16.533726
35.36724 38.431126 17.175108
35.43995 39.007473 16.691717
35.42968 39.122063 17.128696
34.857098 43.2067 38.08325
34.301052 43.06813 38.568607
34.507015 42.779476 40.311234
34.64469 43.018295 41.214222
34.38882 43.560673 37.95113
34.473263 45.20065 43.50906
35.173214 46.01927 35.516476
35.32118 45.388744 36.1648
34.170727 45.527527 43.733063
35.115936 46.631573 35.419582
35.14261 46.855476 36.702972
34.50097 46.49326 43.968143
35.224773 47.394527 35.63283
34.053574 47.4509 43.91193
34.447823 48.198612 38.9067
34.42907 48.44988 39.346783
34.409832 48.214523 43.36012
34.03788 48.93603 39.84856
34.70436 48.57901 42.800552
36.059155 37.17943 16.574705
36.171055 37.2129 17.277225
36.17126 37.93571 15.242924
35.893127 37.756405 15.7766905
35.66857 37.67011 16.518976
35.731556 37.676765 17.271215
36.213345 37.39844 17.726297
36.128384 38.421494 15.237135
35.759075 38.436764 15.6946745
35.48818 38.3715 16.207144
35.53343 38.601414 17.505415
36.02513 38.492813 18.192017
36.28595 39.35164 15.288594
36.065365 39.308414 15.617502
35.59792 39.40167 16.439728
35.615128 39.28217 17.272997
36.037636 39.514767 18.407244
36.303745 39.586533 18.95773
36.184605 40.142918 16.001282
36.2029 40.371983 16.558023
36.18528 40.56056 17.43052
36.116734 40.399155 18.322891
36.254395 40.148888 19.090239
36.359013 41.03162 18.542439
35.80869 42.98393 38.205654
35.35624 42.917587 38.434845
35.33053 42.52237 39.266544
35.3235 42.546505 40.698627
35.88458 42.840324 41.42152
35.554817 43.26019 41.854027
35.684055 43.52564 37.614105
35.359753 43.650135 41.979713
35.66188 45.971973 34.909557
35.363117 45.577263 35.567516
34.81991 45.636906 43.558514
36.01528 46.82488 34.289692
35.756363 46.4239 34.618134
35.592274 46.64284 43.45344
36.036274 47.325283 34.30499
35.615726 47.273632 34.790775
36.139843 48.190216 34.753418
35.787834 48.468853 35.77889
35.78036 48.640293 36.160404
35.770355 48.605846 37.501133
36.221485 48.61112 38.06113
35.54988 48.021458 39.81123
36.101704 48.664474 43.507607
36.24826 48.45052 43.837547
36.48629 50.03226 23.019924
36.32363 48.804375 35.16588
36.23656 49.07671 35.779312
36.09717 49.054764 36.327168
36.233833 49.19202 37.426594
36.07995 49.343452 41.832275
36.11807 49.389732 42.577534
36.087902 49.242085 43.039864
36.45907 50.572468 22.737148
36.875637 37.337864 15.303994
36.637997 37.114777 15.754621
36.556156 36.92279 16.570955
36.64347 36.984795 17.340364
36.808914 37.277107 17.9427
36.595123 37.68459 15.140458
36.507244 37.368416 15.42758
36.63125 37.82533 18.25573
36.68341 38.326702 14.939157
36.65531 38.346962 18.490229
36.735737 38.791187 18.929953
36.643867 39.250626 15.173391
36.598183 39.52149 19.318373
36.804607 39.7364 19.686556
36.649433 40.56884 15.692614
36.699364 40.221394 19.70321
36.92085 41.107327 15.900072
37.197914 41.556927 16.474045
36.501064 41.076416 19.117392
37.20223 41.67233 20.51644
36.169617 42.33961 39.33229
36.17479 42.162582 40.072216
36.763184 42.24733 41.138905
37.194973 41.954876 17.126202
37.03563 42.0035 17.997139
37.15879 42.297127 18.40539
37.043633 42.225426 19.503525
37.284733 42.6062 20.46304
37.407436 42.66128 20.95516
36.037525 43.264656 37.812202
36.29327 42.794884 38.80592
36.20095 42.48725 41.27083
36.20182 43.08537 41.842346
37.332558 43.003017 19.468779
37.36615 43.030983 20.378965
37.470337 43.698517 21.36396
36.202797 44.03045 37.270275
36.778027 45.36516 35.223125
36.35701 44.69832 36.730515
36.410503 45.76383 34.74664
36.31355 45.838562 42.865284
36.777622 46.966408 33.702454
36.746666 47.418774 33.79191
36.990345 47.699116 44.266315
37.25732 49.165024 21.027534
37.26549 48.99713 21.538078
36.976933 48.955044 22.703455
37.081078 49.08838 23.554552
37.12265 49.15418 23.879179
36.63767 47.947754 33.947567
36.512024 48.54751 34.723465
36.739716 48.53548 44.174774
37.31491 49.67048 20.478437
36.95353 49.60223 21.681578
36.657875 49.677258 22.635254
36.730217 49.68363 23.42614
36.997864 49.777184 24.009914
36.83876 48.979195 34.780384
36.66339 49.491207 35.61265
36.456444 49.41718 36.47949
36.816296 48.981274 40.562542
36.36695 49.457672 41.72056
36.66769 49.405277 43.47642
36.816868 49.180225 43.90193
36.746864 50.40322 21.892643
36.546276 50.44951 22.63425
36.6375 50.542828 23.383286
37.032887 50.507168 24.072021
36.988148 49.911 35.636593
36.947083 49.989574 36.34363
36.923286 49.789524 41.212532
37.02401 50.023422 41.971287
36.907345 50.06003 42.28179
36.831375 49.728855 43.28944
37.162056 49.63723 43.87111
37.37608 51.51621 19.881376
37.233273 51.378136 20.289917
36.935555 51.44745 21.609503
36.61578 51.203865 22.61192
36.79274 51.27175 23.364416
37.026672 51.037254 24.023214
37.454178 52.166126 19.927927
37.359264 52.31198 20.453714
37.137005 51.937782 21.622192
37.011387 51.896957 22.648666
37.162636 51.817078 23.406654
37.08109 37.306416 15.255339
37.286472 36.99788 15.795083
37.36363 36.806713 16.641699
37.56542 36.815098 17.303017
37.271175 37.042625 17.829758
37.33979 37.658 15.07208
37.299168 37.69154 18.391508
37.930214 38.059677 18.919136
38.47803 38.02332 44.165695
37.962437 38.616623 19.54162
38.42993 38.503605 43.660484
38.388462 38.70408 44.28631
37.785717 39.487206 14.798144
37.795486 39.73245 20.245632
38.42221 39.051163 44.459312
38.369335 40.40223 14.099556
37.685574 40.25891 20.3713
38.08036 40.344826 20.79993
38.328087 41.08786 14.610004
37.43603 41.35037 15.691826
37.76794 41.361782 21.009188
38.359116 42.14128 26.988474
38.289223 42.131786 27.392351
38.311207 42.167004 28.308117
37.171314 42.30914 39.130917
37.129887 42.350132 39.210064
37.65424 42.07997 40.29347
37.616524 42.05392 16.643425
37.61483 42.63894 17.355995
37.548683 42.685196 21.224657
38.061028 43.092033 22.361145
38.218437 42.67361 26.886839
38.055035 42.667034 27.499018
38.181564 42.622837 28.201744
37.63077 42.9664 38.15418
37.907356 43.094822 43.35957
38.327778 42.889923 43.94891
37.61836 42.697937 17.852718
37.785458 43.14438 18.586308
37.5855 43.305286 19.49701
37.481846 43.602283 20.34874
37.558765 43.646816 21.450924
37.80782 43.661007 22.175228
38.336464 43.561314 22.91906
38.336937 43.267803 26.554745
38.078377 43.34035 27.644121
38.105892 43.545357 28.13685
38.34447 43.57606 28.913513
37.53019 43.719017 37.6699
38.043793 43.84023 44.536266
38.348995 43.367054 45.391556
37.833088 44.23262 20.145094
37.55342 43.942112 20.942114
37.629265 44.225452 21.421589
37.847073 44.32917 22.211956
38.186176 43.914726 27.489985
38.395004 43.96045 28.459614
37.67165 44.383205 37.269047
37.95361 44.535976 45.377563
37.987732 44.830997 21.022135
38.25277 45.335094 21.586811
38.317978 45.12174 22.52628
38.398773 44.970703 23.16217
37.578316 46.015125 34.045677
37.29208 45.65841 34.628723
37.799194 45.68553 35.24418
37.973846 45.058598 45.29127
38.300087 45.183414 46.100292
37.3883 46.423733 33.68512
38.370262 46.306957 45.835148
38.04834 48.14767 21.943754
38.048893 48.28166 22.29674
37.33623 47.45652 33.492115
37.661526 47.527462 44.40286
38.14847 48.927097 19.953985
37.681873 48.790245 20.773075
37.524277 48.49391 22.579002
37.48789 48.658226 23.350315
37.513767 49.01552 24.093672
37.52889 48.23324 33.71023
37.721596 49.840996 19.963177
37.52001 49.57193 20.342829
37.523266 49.52311 24.376957
37.960213 49.85622 24.929243
37.65123 49.033947 34.261154
37.544365 49.14993 34.519012
37.267853 49.098248 38.685287
37.458103 49.28655 40.099377
37.311665 49.507 44.02777
37.907597 51.013836 19.285128
37.73186 50.514935 19.801247
37.353912 50.292767 24.55498
37.592697 50.816833 24.666033
38.115345 50.278282 34.65526
37.724712 50.52792 35.611423
37.43722 50.291294 36.485714
37.3129 49.92115 37.44181
37.598618 49.988857 40.92858
37.64769 50.44381 42.160862
37.92658 50.30324 43.139732
38.04357 51.352768 19.180866
37.62411 51.56304 19.543516
37.60428 51.136982 24.439268
[...]
POINT_DATA 4767
SCALARS features_00 float 1
LOOKUP_TABLE default
0.5365145 0.49550992 0.51970106 0.4970559 0.61084986 0.49333787 0.49322075 0.5936383 0.6815382 0.51199913 0.5374274 0.678313 0.5339858 0.56559175 0.56313974 0.5521358 0.5709806 0.5706605 0.5378133 0.50117445 0.57752275 0.5781335 0.54233766 0.5349957 0.48811108 0.5167256 0.62447655 0.5269881 0.5509126 0.5241985 0.62344044 0.6731453 0.7051902 0.46725062 0.48370916 0.724467 0.7195154 0.49928808 0.5159008 0.7053682 0.73127353 0.7402268 0.5205424 0.54333067 0.560079 0.5926964 0.61703897 0.67270076 0.55311954 0.5612884 0.5608579 0.48645315 0.53049475 0.5356883 0.5377295 0.5305199 0.54791754 0.47782385 0.47480327 0.5743894 0.48209342 0.64921415 0.6794524 0.7160482 0.7168717 0.5350711 0.55350333 0.58095115 0.6556386 0.5375389 0.5219166 0.5122949 0.5276104 0.50974804 0.8202602 0.78251207 0.7589308 0.71459734 0.68100107 0.3773629 0.46685076 0.51764214 0.39735967 0.42360634 0.5526361 0.5992281 0.47234714 0.61972594 0.59202164 0.5154367 0.650215 0.533687 0.6797428 0.42527032 0.4756881 0.46294528 0.50360125 0.33008784 0.8825637 0.81381845 0.78405976 0.8381417 0.8592875 0.81791186 0.7427979 0.75819194 0.7880128 0.79258054 0.71892893 0.6535746 0.6448448 0.6839334 0.67583877 0.65161407 0.5536267 0.4936363 0.5616134 0.5022467 0.49200758 0.49169576 0.45770723 0.4292792 0.29794264 0.3498072 0.42179683 0.42125097 0.3416575 0.32768402 0.24687317 0.32011318 0.6084834 0.5578443 0.54809034 0.59223205 0.61879283 0.463005 0.5319042 0.54842424 0.43747264 0.39927477 0.38132158 0.29686317 0.19586441 0.19529566 0.2954762 0.29134217 0.61214906 0.38271835 0.36533678 0.35703138 0.31347677 0.3095687 0.32870576 0.31303287 0.6055366 0.7558942 0.81961036 0.86532766 0.74955773 0.62083495 0.75045586 0.79926264 0.5945382 0.68162185 0.54944575 0.47760093 0.61049235 0.44459206 0.4094455 0.42389876 0.4127222 0.29627085 0.23490764 0.40525776 0.36478806 0.36835134 0.4437505 0.3802942 0.22473261 0.26382998 0.23751305 0.29038143 0.3020131 0.30200642 0.24605928 0.3055868 0.35411173 0.2612868 0.25474072 0.29480663 0.3183448 0.16360578 0.3777167 0.15637858 0.5608271 0.3277266 0.56897986 0.50966364 0.2460244 0.38993806 0.4404382 0.54525715 0.56541634 0.56324244 0.45208353 0.40137324 0.30975398 0.3642694 0.5170104 0.5912856 0.6031609 0.5889306 0.36748457 0.3553176 0.34196773 0.11205418 0.32090184 0.36442748 0.3564702 0.55978596 0.6039029 0.605649 0.5815311 0.3491103 0.33962333 0.29272687 0.36247486 0.3778981 0.38151455 0.38356534 0.46131396 0.4634863 0.50320387 0.5774402 0.57131493 0.56066436 0.44952992 0.42606682 0.44953406 0.5026295 0.50031316 0.7278342 0.7574494 0.7888065 0.60564464 0.5625344 0.66372603 0.47324026 0.30869308 0.74708664 0.29868025 0.69681937 0.72272253 0.42864975 0.2976927 0.70033777 0.31758562 0.28611514 0.22172481 0.288336 0.19502738 0.32849264 0.662907 0.67772806 0.67792374 0.2866476 0.2936907 0.29155493 0.14449005 0.14114912 0.30366433 0.34309125 0.64826167 0.6690071 0.6789477 0.21327485 0.12069594 0.21461469 0.16201164 0.17674571 0.23623757 0.2799023 0.3218379 0.3502177 0.34804764 0.59910697 0.62659305 0.5917623 0.5318048 0.17504834 0.30184913 0.34290746 0.25435218 0.30213016 0.3171217 0.3334357 0.5569824 0.48232573 0.09018412 0.357634 0.28184766 0.24236864 0.25366077 0.26031736 0.42028892 0.39614266 0.19777451 0.31857795 0.30553898 0.5268264 0.123035036 0.33066177 0.38921112 0.48965588 0.19912818 0.24551122 0.31592536 0.48002708 0.51538074 0.52186936 0.38930804 0.32937783 0.33241162 0.54056716 0.51151913 0.3267631 0.33178505 0.043616183 0.08660429 0.3756241 0.45059696 0.40767127 0.55436665 0.52514744 0.281765 0.31558713 0.32682526 0.29666603 0.28432596 0.37864625 0.40107366 0.4564625 0.46219116 0.51435155 0.49126723 0.29295972 0.3766353 0.4474846 0.4481913 0.41430968 0.3753676 0.449228 0.4611216 0.42310742 0.40939876 0.37450588 0.30090594 0.3804922 0.38538784 0.35291553 0.38373384 0.43994302 0.33176577 0.71682376 0.80525565 0.8164768 0.8053702 0.586802 0.62619686 0.27111053 0.08154821 0.6180903 0.68982494 0.75332934 0.76985097 0.78087616 0.4180665 0.16666158 0.5563071 0.54608715 0.5741029 0.728256 0.7375068 0.257872 0.27395785 0.19027227 0.1298109 0.46462214 0.51639736 0.71655834 0.70832443 0.31561038 0.112883076 0.07610062 0.25136247 0.28111082 0.2991067 0.15285128 0.6467472 0.66902804 0.6563284 0.5996894 0.55443233 0.19962403 0.10812034 0.20276226 0.14717038 0.23975092 0.5186914 0.623253 0.6339613 0.5924129 0.15377057 0.27250245 0.3467949 0.05618819 -0.049874187 -0.012092318 0.050268006 0.25387794 0.416739 0.5615701 0.5072057 0.4411786 0.10809235 0.4016008 -0.017933829 -0.008368343 0.21157755 0.16131042 0.48092407 0.4633723 0.4009765 0.37092835 0.32820904 0.2930628 0.11001836 0.20184216 0.2134012 0.19031933 0.22972573 0.30791122 0.26764047 0.20450851 0.20109823 0.122461446 0.05508907 0.2786412 0.047978833 0.048426628 -0.004337892 0.21987964 0.31984723 0.26697022 0.2306236 0.20378453 0.22346663 0.13810883 0.029287547 0.39671162 0.031802904 0.30098253 0.366898 0.36119157 0.010732651 -0.05636613 0.19944268 0.22495608 0.0027915705 0.15456137 0.36397865 0.3742622 0.3945544 0.3909394 0.26234123 0.072417855 0.2525022 0.22897092 0.48034722 0.39323336 0.3655339 0.11514902 0.43642324 0.4797889 0.45850974 0.20783791 0.2995414 0.4040388 0.34363616 0.41071746 0.4236341 0.41039747 0.448106 0.45916396 0.16106433 0.18718195 0.2554021 0.15043949 0.3790456 0.40708837 0.43869087 0.413703 0.42162246 0.40769592 0.29707998 0.40117228 0.43137026 0.44926062 0.47831213 0.4584422 0.3994752 0.40602374 0.37097186 0.39625287 0.3795259 0.19785705 0.40969867 0.3684423 0.3474907 0.36439994 0.3129027 0.2947907 0.2605753 0.528769 0.6311724 0.6987748 0.7149402 0.34544128 0.36581528 0.37356335 0.3600092 0.35298473 0.52009845 0.64526665 0.73300695 0.76215476 0.36163682 0.37174755 0.37087178 0.40026578 0.48497534 0.5977155 0.74538517 0.7823848 0.46722102 0.54378295 0.702233 0.7637861 0.8292375 0.84125555 0.83072495 0.32639506 0.17798817 0.012000605 0.0123565495 0.63740766 0.6632793 0.7892039 0.7480781 0.5640198 0.7039391 0.72841614 0.17495671 0.14932391 0.034133628 0.3555142 0.6173439 0.67509985 0.25478917 0.5977337 0.53274107 0.48584574 0.5572653 0.46662608 -0.054721527 -0.0335913 -0.0017963573 0.57792854 0.5468513 0.5681392 0.5500177 0.5272242 0.450109 0.09704514 0.19645548 0.48264724 0.4694962 0.38471988 0.22609814 0.015768662 0.3274703 0.08857593 0.42025876 0.50544393 0.45963448 0.41174996 0.26277283 0.15660469 -0.12647915 0.17810936 -0.0077859834 0.42000425 0.4528373 0.4857306 0.567954 0.5908773 0.41204166 0.38253474 0.22165139 0.0934967 -0.096272975 -0.1128225 -0.03173405 0.35768953 0.36835614 0.47205806 0.5563042 0.08275815 -0.23315667 -0.17208809 -0.02836492 0.11734328 -0.34841752 0.2719282 0.3040568 0.36215976 0.39753133 0.31241888 0.34883967 0.28175068 -0.03855966 -0.09606677 -0.28732014 0.049642406 0.15437397 -0.015383929 0.23674758 0.2943301 0.26995477 0.35825396 0.39062896 0.33516043 0.18768357 -0.104308955 -0.3431223 0.15979424 0.16094214 0.22618783 0.23601983 0.3657489 0.36814952 0.3212446 0.09739331 -0.060391437 0.23268276 0.047239684 0.2392346 0.16332659 0.33879995 0.34429675 0.33047193 0.2733555 0.12800674 0.053545848 0.10092609 0.104088455 0.35342005 0.41444406 0.3006177 0.26425844 -0.14682183 0.06853611 -0.094508894 0.24598412 0.41378054 0.34168375 0.31200027 0.12908344 0.11786301 0.05168245 0.0047426205 0.44337612 0.44011793 0.3997491 0.48691306 0.38485393 0.33902225 0.37736923 0.3685767 0.33530056 0.13085489 0.031141669 0.31540278 0.44436795 0.4228642 0.35898024 0.45095274 0.56009614 0.2801895 0.19383425 0.50849533 0.50795305 0.5501299 0.12411297 0.7492167 0.745392 0.29716474 0.28484076 0.55826557 0.5689144 0.50412714 0.110452175 0.121686794 0.77700204 0.7850071 0.3474186 0.35213068 0.3815806 0.37731996 0.50893074 0.49642876 0.15346038 0.3398215 0.7950015 0.7970169 0.4632718 0.39831692 0.31635532 0.41846317 0.53695804 0.6981334 0.7564235 0.6540861 0.6338227 0.5975146 0.79161227 0.46224815 0.31381172 0.029467627 0.13159172 0.21544963 0.72828877 0.7562213 0.79265034 0.8333727 0.8358114 0.15213609 0.060418583 0.16878635 0.6719818 0.78216696 0.755152 0.14454934 0.53593904 0.68268865 0.058509246 0.092785284 0.30281216 0.3563333 0.68201864 0.14098312 0.13248286 -0.05898764 0.42665586 0.45500436 0.46308506 0.4315706 -0.15788071 -0.024238393 0.30885696 0.3268651 0.044292264 0.077958755 0.23148295 0.4736269 0.48427638 0.19974253 0.21565595 0.19413082 0.31551555 0.56258863 0.5772654 0.6321772 0.4718628 0.4634769 0.09714608 0.02706489 -0.011965573 0.62264645 0.69798744 0.71240973 0.377894 0.34946844 0.14464098 -0.036247898 -0.052009016 0.62050086 0.6691827 0.15975206 -0.041996997 0.1399391 -0.16663036 0.55351907 -0.02497258 0.2515833 0.40072933 0.11717863 0.20625646 -0.3802791 -0.07405832 0.23781365 0.32279184 -0.39900535 -0.40654132 0.03711912 0.23051846 0.21895415 0.003007112 0.1029114 0.032685947 0.25987118 -0.33578223 -0.32391632 0.16161472 0.21088439 0.23501079 -0.047089096 -0.25385302 -0.16783978 0.27829581 0.26736468 0.13136202 0.14888984 0.14332458 0.07675782 0.3211598 0.25389186 0.2854911 -0.0074138977 -0.043282412 -0.033609256 0.054310676 0.4411762 0.3294433 0.28960782 0.17386234 0.37700537 0.3045867 0.14415349 0.24566501 0.09573175 0.05163557 0.28983825 0.25170416 0.42083856 0.4511664 0.31705013 0.17485863 0.19829588 -0.048417546 0.5050972 0.5385401 0.49495345 0.43030846 0.32461196 0.6043233 0.58061373 0.68192184 0.74186385 0.17062613 0.531035 0.55011237 0.56251216 0.5709864 0.17394261 0.77409506 0.21961805 0.2686137 0.23125078 0.29103112 0.37818557 0.50498104 0.53695714 0.77517045 0.7862527 0.58775693 0.59502673 0.62028193 0.4846 0.43917507 0.16170034 0.21633166 0.41059014 0.49927524 0.6215231 0.7205696 0.5428574 0.60491776 0.65432423 0.6612739 0.41705525 0.27539176 0.2875957 0.35456067 0.42043892 0.48345733 0.52902186 0.57211685 0.6024635 0.651162 0.5574056 0.58309305 0.59669524 0.63969123 0.6459353 0.6441262 0.6154851 0.63969064 0.60812974 0.5219327 0.26925525 0.24376965 0.24600534 0.23813161 0.69727445 0.7126095 0.72089165 0.7320967 0.7377447 0.19046769 0.21512303 0.19640663 0.6521198 0.7115586 -0.08762534 0.18088654 0.18331787 0.5046535 0.7034736 -0.025375048 0.3567186 0.44499123 0.62793773 0.3204055 0.28756908 0.029840391 0.32231334 0.41008425 0.44746953 0.2713391 0.4119119 -0.09157461 0.023078833 0.1960108 0.21759272 0.22529772 0.38175878 0.4061438 0.41369566 0.097807035 0.3803594 0.17917247 0.004276186 -0.021423683 0.18287045 0.5829639 0.59043854 0.5901364 0.6072856 0.69742274 0.8234098 0.3670653 -0.019453034 0.03371641 0.84788734 0.27843022 0.7869117 0.15490751 0.6839061 0.19165818 0.13816378 0.0022292659 0.25236434 0.23315662 0.15196285 0.14707963 0.03995527 0.14996251 0.24845475 0.20710123 0.19758075 0.15401599 0.16352123 0.11561069 0.35327733 0.33352736 0.2516383 0.12541881 0.08674664 0.18885994 0.145978 0.051725034 -0.12403592 0.07904518 0.4075595 0.38255775 0.31668332 -0.304836 0.23240814 0.19355458 0.1070093 0.17749895 -0.10570378 -0.23383282 -0.20576523 0.24037921 0.3729021 0.3177654 0.04051265 0.23899925 -0.010460079 -0.09961001 -0.10410354 -0.034448273 0.08352828 0.10240966 0.15801625 0.24795498 0.104319684 -0.029230572 -0.054672055 0.06624445 0.17831552 0.12879401 0.6146842 0.08321759 0.07530614 0.032671884 -0.122492746 -0.021800265 0.29926392 0.30895925 0.5864732 0.610482 0.65914106 0.7189669 0.10943436 0.5135164 0.53180015 0.5493054 0.5316087 0.5756766 0.6559495 0.7265786 0.0032490268 0.087148815 0.46922106 0.51597846 0.52588856 0.5453503 0.67349726 0.7404756 0.06448817 0.07659191 0.14392145 0.6414794 0.50523996 0.5960307 0.043608822 0.003693238 0.053504918 0.25563717 0.36132264 0.6698583 0.45561603 0.39971453 0.14867976 0.3298047 0.41660228 0.44324982 0.5051308 0.47510904 -0.0057174936 0.37234274 0.32448408 0.6109407 0.64135975 0.6559963 0.07301116 0.095887735 0.61361945 0.58242536 0.54536545 0.56191087 0.5854149 0.59664166 0.6122921 0.46463907 0.26151064 0.10161826 0.6404946 0.5842651 0.5849016 0.52370113 0.50721395 0.29726467 0.5489043 0.5004818 0.59858227 0.576748 0.6051376 0.6157831 0.5973884 0.5234325 0.5237746 0.13667686 0.1959741 0.20616063 0.24435127 0.22568034 0.691856 0.7049898 0.70114684 0.6799818 -0.010749628 0.18459919 0.18920213 0.6310388 0.6642357 0.6889279 0.6315799 -0.2520373 0.1848302 0.58138204 0.60526633 0.6075441 0.040454928 -0.097358465 0.16253516 0.4564404 0.54913193 -0.09875632 0.09827036 0.18802553 0.26721427 0.43545175 0.45330918 0.45673272 0.30505192 0.33238518 -0.21641676 -0.025635868 0.011148371 0.054821912 0.43711358 0.16864073 0.21994142 0.6431758 0.6896957 0.22463246 0.30902213 -0.106552795 0.10717891 0.4788802 0.5718045 0.55786407 0.71077836 0.8464076 0.8478631 0.23753183 -0.11641993 -0.16161992 0.08162277 0.86585605 0.33553082 0.20397973 0.84011173 0.21479137 0.2115592 0.8146099 0.2504487 0.2528201 0.26093554 0.3148984 0.3167666 0.28331655 0.4595549 0.39215535 0.40009475 -0.010926388 -0.071882814 -0.08183154 -0.11167255 -0.07177207 0.18489063 0.49446625 0.45459825 0.4041212 0.20537433 0.1207601 -0.02751637 -0.08866208 -0.32639748 0.48007718 0.42763773 0.20700054 0.046840504 -0.07345087 -0.07722546 -0.1778501 0.2806384 0.35622752 0.45015895 0.05484213 0.35030705 0.058494486 0.13929506 0.10590489 0.15469608 0.30245695 0.5902406 0.11658855 0.08139057 0.22858813 0.05321062 0.026542582 0.16750227 0.027086556 0.47945634 0.5538436 0.54062766 0.47216034 0.47116795 0.5274803 0.4909226 0.08932707 -0.0044052326 0.551042 0.51025075 0.44211724 0.51408786 0.2725337 0.2112775 0.20111527 0.61693126 0.41508916 0.36283216 0.4364606 0.57116985 0.00027223676 0.07866303 0.5719928 0.61197054 0.67770064 0.6141836 0.12203054 0.1490707 0.29774588 0.6784152 0.67728287 0.5204842 0.47081923 0.52681696 0.5784585 0.57697725 0.7115721 0.69655013 0.6838247 0.66309524 0.15670347 0.28125882 0.7342509 0.72704375 0.6683616 0.60628736 0.5459282 0.56497496 0.5788207 0.5773625 0.77327037 0.73981524 0.75440836 0.72931165 0.5510172 0.23853886 0.72756207 0.6925344 0.6243552 0.8346079 0.81715703 0.7986691 0.5618807 0.5584462 0.8530456 0.8290469 0.5663059 0.5813451 0.59948194 0.6285955 0.668189 0.5688641 0.5388631 0.50569016 0.53831685 0.44630036 0.34175023 0.23190708 0.023222145 0.1160293 0.23664677 0.1279065 0.14320038 0.6516538 0.6763209 0.6660068 0.6185368 0.13853508 0.59039617 0.5921785 0.6153508 0.60864687 0.57127684 -0.028413523 0.035758354 0.56614673 0.52643937 0.20062105 0.06412626 -0.12227554 0.08905342 0.13145667 0.29335263 0.40013725 0.3913499 0.4243445 0.46147013 0.4344561 0.24437828 0.2614934 -0.20708756 -0.03925544 0.3703437 0.3588791 0.087612 0.08803569 0.23232055 0.30866995 0.09978711 0.18729407 0.47238004 0.539568 0.6092897 0.7120508 0.77409244 0.5012318 0.29572034 0.18344407 -0.18434255 0.2822339 0.40136433 0.45812988 0.774587 0.8107021 0.68313634 0.5616963 -0.029004771 0.77441436 0.6919163 0.5525456 0.38988516 0.7372824 0.66120934 0.52644414 0.32881948 0.5274469 0.3367027 0.37678558 0.40587986 0.48590136 -0.37442622 -0.062548 -0.05159253 0.43309927 0.5281347 0.5507244 -0.10263586 -0.42561385 -0.42660028 0.21483615 0.3776852 0.50187737 0.4136966 0.24608885 0.21973197 -0.04613565 -0.070276484 -0.1345467 0.43100733 0.4912996 0.0056620985 0.4395437 0.32406023 -0.2297935 0.019646628 0.2284487 0.15662377 0.651508 0.33732522 0.22782336 0.58874595 0.42677796 0.01579979 -0.10946686 0.01830934 0.35278118 0.2468263 0.4552578 0.46441394 0.40636918 0.54681724 0.5707072 0.5443305 0.4696496 0.36496937 0.15741019 -0.091340095 -0.1357213 -0.28850937 0.45271903 0.5107652 0.3966184 0.52904534 0.49427477 0.38077772 0.21571474 0.45460546 0.48760185 0.5379907 0.55654645 0.37402225 0.45908183 0.31006223 0.5653836 -0.0422627 0.33081895 0.36933556 0.4847086 0.5153612 0.6676099 0.64387906 0.5751467 0.21787089 0.18464306 -0.035808265 0.62632227 0.5725412 0.5180908 0.534526 0.6931659 0.47117847 0.09833453 0.3839204 0.7091218 0.73957324 0.5573137 0.4495457 0.3262961 0.4333803 0.48135984 0.51430774 0.5387862 0.54097927 0.76375043 0.6812626 0.46166041 0.7781513 0.77305984 0.67610204 0.59859264 0.8573537 0.8793515 0.71257055 0.5721715 0.52379817 0.891278 0.8657267 0.80691564 0.5752151 0.6117521 0.61086327 0.65883243 0.72417855 0.72097194 0.71111643 0.71876687 0.74489045 0.7304484 0.7606387 0.7815114 0.83817136 0.8205438 0.410375 0.2987451 0.63471115 0.72971696 0.75032085 0.8839404 0.8639648 0.8391304 0.8157208 0.34222722 0.337224 0.27662215 0.02486648 -0.08738104 0.51470333 0.6044307 0.67633885 0.906142 0.9093815 0.88837874 0.84487206 0.31983745 0.27310097 0.29130274 0.52211446 0.86850035 0.9394761 0.868651 0.25490215 0.019592747 0.23745602 0.5875632 0.5805867 0.5944427 0.54120886 0.54592705 0.5014789 -0.2752919 0.009516239 0.191643 0.31360567 0.29675326 0.48256028 0.44612154 0.40654635 0.2295104 0.22555536 0.21835992 0.44888493 0.3268984 0.16569471 0.16707519 0.24562857 0.33863863 0.6446927 0.7935985 0.537064 0.09238663 0.2502532 0.44858503 0.36257827 0.4807896 0.66132635 0.73414594 0.8807249 0.77679026 0.035992034 0.39589024 0.04733213 0.39078844 0.47934145 0.5920366 0.7537755 0.8504611 0.014169928 0.038190298 0.14307281 0.2705197 0.62133074 0.8442397 0.7024977 0.10269429 0.07770531 0.06334474 0.7111906 0.60016286 0.04590206 0.4600752 0.02020318 0.04100226 0.15348205 0.469828 0.020949848 0.30186445 0.49725538 0.5058587 0.53308445 0.5654011 0.35836568 0.41051346 0.4308717 0.13754344 0.5604923 0.4806651 0.36446956 0.027760878 0.50484574 0.4500268 0.43808204 0.36741582 -0.16387859 0.06745879 0.49856365 -0.13799405 0.53175044 0.4360584 0.6464726 0.42542386 0.04105509 0.08159967 0.63972485 0.6248027 0.13101469 0.1941143 0.029741608 0.39553183 0.511831 0.2072013 0.62432945 0.59082735 0.5459833 0.57909507 0.55515754 0.14531708 0.18987462 0.36619484 0.43252406 0.54697144 0.15862678 0.110784754 0.5241673 0.49101228 0.45169297 0.44949937 0.55029434 0.21845251 0.22649282 0.1947559 0.09645176 0.16241804 0.20716697 0.3792934 0.63996613 0.18707795 0.06882206 0.28714752 0.6126644 0.40154955 0.6823844 0.7233672 0.4471001 0.2534177 0.18583107 0.28544164 0.3463806 0.4312002 0.75636524 0.40920663 0.41577774 0.7410325 0.7668644 0.6980594 0.51923156 0.7879194 0.42148957 0.3685934 0.8620093 0.8485261 0.80078304 0.52541393 0.65741926 0.6423398 0.701285 0.765085 0.73227584 0.73025584 0.76261806 0.7803432 0.74653745 0.78021324 0.80098563 0.56257224 0.45408827 0.61688423 0.7017493 0.77805424 0.803813 0.79489434 0.8318125 0.81691027 0.79715 0.789345 0.49890187 0.51226157 0.51470804 0.035661533 0.014553376 0.007642098 0.45376372 0.5815344 0.77050036 0.773231 0.85852516 0.85301185 0.8079051 0.8088263 0.4537223 0.42941618 0.40900135 -0.10458538 -0.21396813 -0.21498361 0.6113922 0.75243056 0.84229934 0.37182483 0.3693183 -0.022394277 0.36830392 0.6602755 0.7378931 0.68088996 0.75724375 0.29609123 0.24547885 0.66935307 0.5472516 0.24896535 0.22146681 -0.10758003 -0.17047395 -0.065145314 -0.06465846 0.036991343 0.16485439 0.4651415 0.40168583 0.27099544 0.07532327 0.08295865 0.097508155 0.45420462 0.42333093 0.38940218 0.78660655 0.60545146 0.2105118 0.55393994 0.5519304 0.4690423 0.44588876 0.4195993 0.9308975 0.5411856 0.4147311 1.0 0.43557358 0.3604799 0.93479526 -0.04967022 0.27300802 0.30749756 0.18758726 0.05947944 0.8847287 0.7565176 0.618406 -0.30833897 0.03373439 0.17785849 0.26259446 0.25835708 0.06120968 0.17737235 0.17548506 0.19647546 0.08988196 0.057209566 -0.03223937 0.64553744 0.39062572 -0.07757841 -0.017305635 0.22370987 0.13797128 0.1621927 0.2853391 0.3024243 0.22829716 0.45830798 0.51493466 0.50533617 0.49137217 0.013731275 0.0691624 0.33415395 0.3822813 0.3475185 0.33554652 0.15791741 0.5128534 0.5128012 0.49712628 0.55460775 0.27857238 0.3269017 0.41935 0.34387642 0.22648978 -0.07860859 0.5135577 0.59358394 -0.08563969 0.4419673 0.36691645 0.46841565 -0.04003129 0.5273994 0.5091949 0.36183786 0.18475248 0.6514375 0.6367126 -0.01916444 0.24287218 0.65767896 0.059294097 0.067197576 0.28384382 0.3977462 0.31878674 0.14787544 0.3294234 0.6319802 0.25441545 0.23538342 0.28816098 0.59693956 0.5672622 0.