# vtk DataFile Version 2.0
Really cool data
ASCII
DATASET POLYDATA
POINTS 9578 float
-17.54484 55.571373 -4.7117014
-16.542328 43.79935 -15.430727
-16.544123 43.922012 -15.001868
-16.564894 44.251797 -15.38207
-16.527044 44.318016 -14.963132
-16.738045 54.09032 -5.2151313
-16.818266 54.1376 -4.5442743
-16.776485 54.261745 -4.1572304
-16.892164 54.852978 -5.868491
-17.200796 54.82822 -5.284931
-17.187626 54.671906 -4.526853
-16.985685 54.837654 -3.9502473
-16.911713 55.55371 -6.024859
-17.353674 55.56745 -5.298552
-17.431465 55.468727 -4.6020837
-17.162159 55.509624 -4.0084314
-16.660778 56.279064 -6.1577053
-17.148787 56.218803 -5.367121
-17.265402 56.21899 -4.5635953
-17.048595 56.159866 -4.0549297
-16.78541 56.77276 -5.4971104
-16.91695 56.6958 -4.573228
-16.10621 43.276203 -15.887219
-16.076094 43.15445 -15.491693
-16.136055 43.221138 -14.889184
-15.787748 43.062977 -8.258384
-15.775482 42.929607 -7.530908
-15.801767 43.212955 -7.1850324
-16.167221 43.6779 -16.123804
-16.420238 43.576805 -15.5313635
-16.328543 43.641876 -14.668404
-15.935921 43.736168 -13.977175
-15.826884 43.640522 -8.829901
-15.994712 43.52421 -8.253055
-16.071613 43.553997 -7.4818497
-15.979993 43.765793 -6.913274
-15.751344 44.576077 -16.740683
-16.298052 44.23215 -16.134007
-16.446585 44.496758 -15.595118
-16.391424 44.336815 -14.612801
-16.00154 44.39972 -13.865815
-15.726467 44.725056 -9.248627
-16.20085 44.614502 -8.299335
-16.337198 44.62113 -7.566052
-16.190418 44.621494 -6.764562
-15.890276 44.84476 -6.1832323
-16.020487 45.097935 -16.095934
-16.134365 45.181385 -15.38059
-16.227196 44.94978 -14.6237
-15.711087 45.54727 -14.193423
-15.912968 45.185978 -8.922924
-16.121986 45.327866 -8.271806
-16.330427 45.32504 -7.3038025
-16.153845 45.40891 -6.578079
-15.881168 45.331623 -6.1209126
-15.677794 45.78711 -15.659259
-15.803298 46.032024 -8.363571
-15.990161 46.05595 -7.5197663
-15.960983 45.97136 -6.7232323
-15.862567 53.441322 -4.7844586
-16.303513 53.75112 -4.5144305
-16.225786 53.99385 -3.9279082
-16.275198 54.531128 -6.303789
-16.52903 54.552597 -3.7051563
-16.202568 55.568256 -6.7297287
-16.529436 55.83722 -6.34936
-16.64773 55.37997 -3.5695255
-15.988726 56.810104 -6.6785808
-16.06982 56.594425 -6.6471944
-16.180866 56.85007 -3.575994
-16.091885 57.13955 -6.3077726
-16.30218 57.233715 -5.596403
-16.141928 57.23335 -3.8449137
-15.781942 57.54574 -2.7207346
-15.587714 57.962574 -2.137345
-15.861471 57.779724 -4.619562
-15.738246 58.18876 -3.2834551
-15.702714 58.310764 -2.6730003
-15.563195 58.445705 -2.1029766
-14.870365 42.404774 -8.376553
-14.944781 42.29755 -7.7399855
-15.535201 43.115025 -16.070976
-15.484107 42.895737 -15.533818
-15.497348 42.951042 -14.578876
-15.307829 43.237186 -13.861621
-14.767231 43.011963 -9.608715
-15.438941 42.70047 -8.274413
-15.404927 42.657417 -7.48263
-15.343545 42.961224 -6.864812
-15.183307 43.730003 -16.796736
-15.744473 43.583652 -16.430141
-15.573783 43.904648 -13.513882
-15.1649 44.016396 -9.794168
-15.445715 43.64269 -9.3220415
-15.617161 43.420017 -6.7154484
-15.254148 43.86842 -6.169975
-15.307579 44.536076 -17.039232
-15.307319 44.523132 -13.240401
-14.877981 44.140343 -10.167329
-15.229496 44.6679 -5.776709
-15.15404 45.29165 -17.275682
-15.500436 45.583275 -16.594296
-15.604252 45.661125 -14.636585
-15.23053 45.300568 -13.606158
-14.983315 45.58593 -10.362477
-15.365754 45.521843 -5.818039
-14.938322 45.553226 -5.270232
-14.594436 46.834614 -22.139713
-14.620765 46.839596 -21.562056
-15.209744 46.12329 -16.271759
-15.314436 46.140255 -15.790468
-15.252561 46.07915 -14.471022
-14.832571 46.1661 -13.753538
-14.795109 46.698856 -10.0166855
-15.133184 46.144245 -9.781932
-14.638726 47.459183 -22.317791
-14.696845 47.475304 -21.626175
-14.623442 47.297478 -20.833944
-14.723624 46.628128 -15.715951
-14.795036 46.752716 -14.437268
-14.637517 47.7076 -11.64072
-14.706289 46.81024 -9.124539
-14.842744 46.968887 -6.9980025
-14.6360655 48.165417 -22.112276
-14.615371 48.17937 -21.513685
-14.582119 48.053944 -21.060171
-14.750323 48.620514 -11.988581
-14.874779 48.77108 -11.651132
-14.701745 48.495766 -10.968398
-14.690762 48.92563 -12.155909
-14.799203 48.939617 -11.526602
-14.648206 49.44157 -10.754242
-14.573211 50.66068 -10.425968
-14.622228 50.405544 -9.643169
-14.594942 50.666996 -8.899113
-14.636185 50.61077 -7.389108
-14.659829 51.449715 -8.723915
-14.883543 51.747894 -7.3376307
-14.91595 51.98279 -6.9384427
-14.964572 52.68896 -8.320404
-15.155347 52.4929 -7.907454
-14.636143 52.236008 -6.5407634
-15.087471 53.549572 -7.994249
-15.314084 53.79438 -7.3356442
-15.385133 53.959507 -3.7839284
-14.93894 54.442753 -8.220724
-15.525282 55.017487 -7.023014
-15.675811 54.777138 -3.3499553
-14.927378 55.46391 -8.126225
-15.173882 55.85973 -3.0706685
-15.00829 55.998547 -7.8917804
-15.296234 56.37304 -7.4218426
-15.299968 56.285557 -2.8433545
-14.886661 57.074123 -2.0053363
-15.326302 57.02302 -7.076541
-15.525609 57.583275 -6.5743585
-15.239774 57.923374 -1.7773037
-14.807705 57.832565 -1.3277156
-15.187443 57.802513 -6.426099
-14.950593 58.386387 -5.5398335
-15.491387 58.78109 -2.2911344
-15.323497 58.61861 -1.7519335
-14.811742 58.698257 -1.2354319
-15.112161 59.459408 -4.2107267
-15.420706 59.372765 -3.4179347
-15.2931 59.44361 -2.6018724
-15.173031 58.997593 -1.7072024
-14.915692 58.939056 -1.3013828
-15.15003 59.831287 -3.2937963
-14.951696 59.914837 -2.6870255
-14.842623 61.58676 -5.961342
-14.981194 61.581673 -5.5522656
-14.881961 61.58213 -4.923731
-14.799293 62.364742 -6.004189
-14.905985 62.396935 -5.4510283
-14.807654 62.356045 -4.863538
-14.705764 62.90191 -5.617307
-14.60398 62.984108 -4.9366727
-13.55016 37.850517 -5.442217
-13.531465 38.214855 -5.972224
-13.561097 38.23075 -5.466551
-13.542778 38.042408 -5.06955
-13.577343 40.14089 -13.065492
-13.603672 40.147083 -12.513844
-13.628381 39.69349 -11.1947775
-13.608721 39.67375 -10.737732
-13.645001 40.72902 -13.387892
-13.747742 40.589523 -12.709273
-13.54849 40.24929 -10.929531
-13.650946 41.375515 -13.022287
-13.736908 41.715515 -12.50873
-13.610801 41.689865 -11.445216
-14.4965725 42.41136 -8.98635
-14.790397 43.062664 -16.011175
-14.172818 42.847637 -15.703039
-14.293611 42.66479 -14.40986
-14.699397 43.09262 -13.74761
-14.417949 42.97487 -9.840769
-14.694205 42.555313 -9.050111
-14.678729 42.48444 -8.667962
-14.442971 43.87297 -17.139734
-14.188444 43.412857 -16.671785
-14.312804 43.857956 -5.7066846
-14.041273 44.677666 -17.714453
-14.529151 44.68421 -12.956179
-14.501356 44.326828 -5.4733477
-13.64397 44.557056 -3.5052004
-14.0276 46.054028 -22.28715
-14.033555 45.931324 -21.63685
-14.246745 46.164124 -21.02854
-14.635656 45.770485 -17.528553
-13.987652 45.494102 -12.434071
-14.386319 45.85517 -4.309556
-13.848136 45.735867 -3.3631814
-13.748785 45.67126 -3.2044244
-13.948315 46.588806 -22.955326
-14.393115 46.661755 -22.372963
-14.43046 46.47799 -21.253859
-14.410958 46.827614 -20.705008
-14.218387 46.34327 -17.415337
-14.344624 46.438343 -12.902896
-14.471514 46.970367 -11.417779
-14.488196 46.79148 -5.2021565
-14.172602 46.372536 -3.7173426
-13.778783 46.795296 -3.1433272
-14.155644 47.600155 -23.083889
-14.454805 47.702423 -22.57839
-14.338242 47.8229 -20.574188
-14.504579 46.888596 -15.561854
-14.480761 47.332436 -11.657515
-14.479935 47.894707 -10.865744
-14.199674 47.814053 -9.987663
-14.473853 46.97988 -8.507112
-14.397044 47.23418 -7.418193
-14.406187 47.88298 -5.7460146
-14.397624 46.964024 -4.381496
-14.065932 47.232185 -3.8233106
-13.679838 48.180218 -23.540165
-14.482922 48.018295 -22.535496
-14.434772 48.607033 -21.69789
-14.40856 48.377552 -20.936672
-14.155449 48.52839 -12.947971
-14.5009985 48.573296 -12.528752
-14.061757 48.98791 -7.9854302
-14.214959 48.51962 -6.1874027
-14.042945 48.626408 -5.441299
-14.137657 47.857243 -4.600139
-13.790187 49.690372 -23.455946
-13.973019 49.200127 -22.45579
-13.901852 49.370377 -20.632305
-14.5726595 48.889835 -12.41236
-14.242662 49.3504 -8.145153
-14.415975 49.95706 -7.7441173
-14.385204 49.823727 -6.9250007
-13.708125 49.80623 -5.304161
-13.713789 49.1006 -4.9015646
-13.665649 49.94517 -23.598324
-13.689249 49.890785 -20.59831
-13.960299 49.734653 -12.366451
-14.135374 50.360294 -11.348035
-14.510348 50.46761 -10.515967
-14.35411 50.33642 -6.601847
-13.992468 50.619488 -6.1124907
-13.509671 50.46326 0.9825551
-13.540655 50.142838 1.1275122
-14.069849 51.11133 -10.894649
-14.377583 51.236378 -10.233341
-14.502428 51.44858 -9.774491
-14.278972 51.292755 -6.4020247
-14.08014 51.844753 -6.029772
-14.413166 52.048504 -9.449748
-13.957834 52.352905 -5.6586475
-14.215589 53.29909 -4.2826614
-14.34161 53.39478 -9.127398
-14.579075 53.45595 -8.672496
-13.596703 53.437958 -1.7124046
-14.071308 54.52514 -9.150166
-14.746573 54.590782 -3.2431152
-14.056474 55.57304 -8.917965
-14.53266 56.25489 -2.3600368
-13.84428 56.16589 -1.4653213
-14.174165 56.54725 -8.064225
-14.648166 57.14561 -1.6083684
-13.926033 57.018562 -1.1851292
-14.130199 57.130756 -7.442522
-14.1263075 57.31176 -1.1375645
-14.053355 57.624012 -6.759131
-14.211066 58.351986 -0.9186175
-13.634002 59.889683 -15.264813
-13.705499 59.794918 -14.680846
-13.610498 59.993786 -14.007653
-14.669537 59.49642 -4.4956465
-14.693978 59.579994 -1.5274352
-14.186285 59.375 -0.99318385
-13.720569 60.47468 -15.1550455
-13.761232 60.558548 -14.551847
-13.689029 60.613174 -13.996268
-14.392066 61.022854 -6.198255
-14.351948 60.409046 -5.2035146
-14.589622 59.967197 -2.3302093
-13.945472 60.10658 -1.3831847
-13.73156 61.00726 0.4543128
-13.6906185 61.076595 1.8151021
-13.59864 61.005627 2.1578014
-13.626995 61.03195 -15.1862955
-13.654981 61.15957 -14.513904
-13.635927 61.152363 -14.026438
-14.135587 61.70452 -6.9521794
-14.481621 61.656174 -6.647121
-13.543228 61.152702 -0.6498479
-13.786238 61.51786 0.6201166
-13.794989 61.553684 1.8298819
-13.785019 61.640938 2.265496
-13.617847 61.57387 2.9406729
-13.816363 62.474144 -7.0981855
-14.516724 62.550076 -6.3059306
-13.694542 62.20265 0.66964436
-13.668392 62.404507 1.5855987
[...]
POINT_DATA 9578
SCALARS features_00 float 1
LOOKUP_TABLE default
0.7611651 0.78781235 0.7805474 0.7728515 0.7612177 0.73023057 0.7053844 0.6807091 0.66330326 0.7643812 0.7507278 0.69862086 0.5913155 0.7327609 0.7620991 0.7055086 0.50732875 0.6587423 0.6923727 0.64840865 0.5659707 0.6188393 0.7686594 0.7675977 0.77249753 0.5435201 0.5755025 0.5841645 0.7797566 0.7872398 0.7756811 0.75520194 0.53423417 0.5869429 0.6183183 0.58974683 0.7720246 0.78124046 0.7625998 0.74865365 0.7014533 0.49274582 0.62804914 0.66615677 0.5998622 0.5014051 0.72478807 0.68313813 0.6875267 0.54102176 0.49205378 0.5724182 0.6479386 0.56539893 0.47579634 0.583663 0.44276595 0.55235684 0.5284852 0.49550307 0.61486346 0.5818615 0.48129725 0.61655426 0.3966552 0.48115444 0.6106496 0.37428832 0.38790852 0.45180362 0.40077654 0.47555375 0.43467438 0.36925068 0.38246602 0.42393878 0.35978022 0.3860759 0.4011485 0.42301118 0.44340748 0.69861317 0.70117426 0.7362649 0.7283283 0.34690318 0.50545853 0.5282865 0.50070703 0.6679378 0.7458591 0.7131585 0.4392361 0.4710676 0.53510416 0.4468767 0.74201894 0.57450724 0.39137942 0.39045408 0.6953578 0.6461785 0.5412593 0.4596644 0.22490929 0.37033534 0.26405367 0.6635486 0.66157603 0.5386452 0.5252818 0.45292574 0.3191946 0.044184472 0.21730264 0.6204601 0.60864854 0.60182 0.43145102 0.3250426 0.17457992 0.15978897 0.25997713 0.5607944 0.5380265 0.5249084 0.25958824 0.25472954 0.20780365 0.26638138 0.25690746 0.23327953 0.16944431 0.15697116 0.1688862 0.17767997 0.1800419 0.23175626 0.21310972 0.21741441 0.25890535 0.14105192 0.18334836 0.19775727 0.44311035 0.1771762 0.2851898 0.44141567 0.22741327 0.25521433 0.26356143 0.30272722 0.26699525 0.2587551 0.30864793 0.32924026 0.3665359 0.33270994 0.30909562 0.26972947 0.40495354 0.4057588 0.3987004 0.22711371 0.40425116 0.41654515 0.41192132 0.4101556 0.4095716 0.40154612 0.57877016 0.5707879 0.5283265 0.62105 0.6168685 0.58728474 0.61386454 0.5860465 0.5822407 0.53825986 0.5401311 0.5649586 0.39310825 0.41229045 0.42684257 0.40321594 0.35802525 0.38887435 0.34791788 0.32270008 0.2897653 0.22509429 0.32445526 0.56641626 0.43924794 0.47394657 0.63284874 0.23167029 0.36564547 0.38454583 0.5152772 0.43476677 0.22847617 0.50665814 0.37937668 0.24773458 0.2986381 0.71527815 0.73715556 0.7309928 0.6231947 0.060535055 0.2528469 0.37383056 0.39357322 0.65497327 0.6815306 0.70399594 0.666233 0.4670516 0.036097303 -0.0020346157 0.21311247 0.33732396 0.38115537 0.6110909 0.60605526 0.5082825 0.36360085 0.10472494 0.14705464 0.0025681779 0.19184627 0.1333654 0.119783975 0.26627582 0.31795314 0.5665683 0.57978433 0.48164302 0.4713808 0.23189737 0.26338032 0.0665662 0.016735613 0.0891475 0.21646887 0.46063158 0.43767363 0.33993703 0.26537117 0.16034096 0.18692033 0.08382858 -0.051100597 0.058352962 0.45929164 0.28641713 0.21680173 0.19495653 0.18204759 0.071871564 0.0005083233 0.649381 0.6697992 0.11699356 0.12251552 0.12618934 0.06600372 -0.0019781142 0.11306152 -0.06943124 0.09641168 0.12472606 0.15319385 0.019438872 0.12554708 0.23372607 0.15125284 0.11947032 0.05002392 0.2017721 0.23929118 0.15519693 0.22180244 0.20738557 0.18052374 0.33261037 0.76063216 0.7704766 0.7582714 0.09995994 0.3934167 0.358656 0.7918823 0.800984 0.7810198 0.48585767 0.2982391 0.36061662 0.23129053 0.45140585 0.6559871 0.71001613 0.8061449 0.8163625 0.79747975 0.5528664 0.5726239 0.22876646 0.50626796 0.6631633 0.7393596 0.8471432 0.5511314 0.61569434 0.5408159 0.67301446 0.7957495 0.8610523 0.55552393 0.6017786 0.583559 0.5563482 0.5060961 0.55119133 0.589079 0.6111939 0.59540933 0.52334917 0.5634178 0.59823775 0.60994136 0.5936918 0.53638434 0.5194456 0.3948472 0.42799693 0.47482404 0.46014073 0.5560001 0.5252184 0.47719538 0.5350237 0.5177394 0.509651 0.35297018 0.392369 0.41959113 0.47026956 0.3916245 0.34711236 0.44330215 0.41503686 0.4532553 0.43356746 0.4260403 0.2817008 0.34052676 0.36230707 0.2793621 0.13517614 0.20138767 0.17887421 0.2055968 0.05222382 -0.0992811 -0.047249697 -0.019690987 -0.07917482 0.31402883 0.2509678 0.19850054 0.025012001 -0.016116994 0.256723 0.082605235 0.18261324 0.34524918 0.31548363 0.41611052 0.62726563 0.6855586 0.7239517 0.69441605 0.70533967 0.444844 0.47314793 0.44623005 0.58239305 0.41971907 0.4400208 -0.09638669 0.34915718 0.5801463 0.2510744 0.10097229 0.007887766 -0.104635835 0.033778004 0.13860399 0.22629884 0.6305702 0.6885381 0.57595533 0.5156486 0.26779357 0.17826775 0.064087294 0.010368504 -0.0952549 0.054008767 0.11189692 0.12795435 0.30483967 0.48230326 0.58330745 0.727213 0.79845417 0.54482466 0.50922716 0.4581659 0.40685427 0.30598783 0.2522769 0.17256801 0.026065573 0.0046560727 0.07330926 -0.1104776 -0.28589568 -0.23798093 0.26949808 0.46951446 0.6054378 0.71451104 0.7744744 0.83206546 0.4436509 0.42214322 0.15899386 0.11081282 0.056124344 -0.18947984 -0.18888575 0.04971528 0.14243525 0.48033002 0.61072195 0.6464594 0.7511319 -0.069259465 -0.23426238 0.0638763 0.54432213 0.61846006 0.66944826 -0.06638663 -0.011230487 -0.010657057 0.11877931 0.10367423 -0.022033393 0.0017307103 -0.041600667 -0.0045039877 0.36172646 0.31011474 0.023594022 0.09904626 -0.018958468 0.4064667 0.33290476 0.28459376 0.038571905 0.035021666 0.44225347 0.38539422 0.30590552 0.063125715 0.060197875 0.6062609 0.61310256 -0.06454423 0.719358 0.74006474 0.7189336 0.64444244 0.26544082 0.09464313 0.513621 0.72969097 0.776232 0.7449424 0.7262907 0.40666613 0.4611874 0.3380806 0.545518 0.7698844 0.87545335 0.7542381 0.8075484 0.8224173 0.7813016 0.7293012 0.4545158 0.015265152 0.10764598 0.40343618 0.90970844 0.9333397 0.8257821 0.82930136 0.78164506 0.4676369 0.5240786 0.3311204 0.45617753 0.52684927 0.8087521 0.9115499 0.9433764 0.48310876 0.5472351 0.49749848 0.46809798 0.51860356 0.5867543 0.69314635 0.80954444 0.8815118 0.52426225 0.5338808 0.48673558 0.46308932 0.50046706 0.4903025 0.476178 0.5388924 0.56404126 0.51536596 0.4711467 0.44809604 0.69901085 0.71434754 0.33778462 0.35572565 0.5003585 0.50164384 0.49537092 0.6638848 0.74840164 0.7513983 0.7499779 0.34764317 0.35874152 0.40804878 0.26568446 0.36316922 0.4974846 0.48234588 0.66974896 0.75257957 0.77700293 0.76774496 0.33977398 0.36135745 0.33221292 0.3377476 0.3821641 0.42213482 0.7784935 0.7729311 0.24997795 0.26987505 0.30491498 0.13081804 -0.1897932 0.10453956 0.21816024 0.20965715 0.210973 0.017403439 0.01866293 0.14768177 0.03814414 0.10481562 0.020085579 0.37044817 0.090384856 0.49027342 0.44224113 0.49706608 0.62737924 0.6578667 0.56496525 0.5361939 0.47100377 0.45608652 0.49067938 -0.056954145 0.45482612 0.4276979 0.42505017 -0.034189776 0.3663041 0.59672 0.093323044 0.21286556 0.38976753 0.5748682 0.7503526 0.827853 0.51703906 0.5449338 0.58548915 0.58866405 0.63516426 0.027254693 -0.13132143 0.85296655 0.6676835 0.66652304 0.6454563 0.6304093 0.65700155 0.60480255 0.53165865 0.07520527 -0.02134525 0.8626067 0.6292403 0.66600204 0.6701348 0.65233934 0.6344889 0.5783021 0.511014 0.46021 0.40412307 0.013755441 0.039182015 0.020694358 -0.0002307021 -0.02373691 -0.16495118 -0.18130487 -0.13338828 0.72910726 0.59072196 0.61406195 0.6261858 -0.0010791421 0.11499812 0.055368006 -0.05055442 -0.039023716 -0.15094951 -0.1322549 -0.1055368 -0.10721254 0.45368284 0.61301327 0.68957484 0.31452784 0.29704985 0.22023824 0.058309212 0.036406375 0.0838054 0.0008844584 -0.016990162 0.3859528 0.3726599 0.29813153 0.2216767 -0.0155881895 0.14106165 0.15226534 0.15704522 0.04818596 0.4107206 0.4140237 0.36517292 0.3087982 0.1833672 0.2111262 0.1748321 0.12503365 -0.009409174 -0.031125002 0.035188414 0.44829243 0.4897679 0.47880656 0.20722649 0.20896703 0.036835156 -0.081633925 -0.06686716 0.031768933 0.5288938 0.55056524 0.24822733 0.0666517 -0.058484025 0.037024215 0.57331145 0.5523288 0.42209303 0.25116923 0.3155001 0.5704776 -0.21316895 0.031350866 0.5245101 0.5407094 0.61882967 0.11393789 0.6033263 0.6421 0.6459587 0.8305794 0.8979064 0.5604541 0.6852133 0.6942276 0.37773633 0.93247163 0.8163518 0.82121825 0.7748058 0.37681484 0.30918092 0.9387141 0.9530412 0.41642198 0.5983089 0.6864814 0.8256436 0.9018413 0.40420616 0.44767907 0.47783077 0.45135632 0.56963134 0.67709744 0.77417046 0.70851094 0.73723614 0.67683226 0.47039437 0.48396328 0.43347406 0.15140192 0.34983554 0.3923359 0.4424799 0.40799135 0.37370026 0.61279374 0.67558444 0.6283729 0.33153594 0.44659245 0.4438454 0.34936112 0.3167088 0.40318733 0.41514415 0.42913425 0.4581644 0.40375265 0.6438124 0.626554 0.622278 0.2631344 0.28725377 0.23476467 0.45652586 0.45198834 0.37849116 0.5378909 0.7081469 0.69700456 0.6538196 0.27822754 0.3001489 0.19018108 0.44254875 0.6339279 0.7026473 0.74586797 0.7221122 0.28099957 0.30373082 0.58480805 0.7346432 0.7681652 0.76672184 0.7400035 0.21897382 0.26990914 0.07841951 0.10933257 0.76381505 0.7620307 0.19431154 0.053948823 0.09418134 0.07174849 0.37123588 0.48530024 0.44876242 0.5332826 0.4028784 -0.05876009 -0.069229305 0.46556544 0.40479028 0.30418995 0.6425494 0.4454813 0.2963335 0.35747033 0.4331385 0.50888157 0.664417 -0.074362546 0.030836344 0.46673828 0.6776552 0.8117049 0.8599408 0.3814978 0.42528784 0.5302838 0.56885886 0.57656443 0.7254346 0.6822952 0.8730947 0.61323124 0.5860169 0.7307836 0.68248856 0.52184266 0.6096254 0.5723824 0.6339984 0.5344258 0.39243168 0.20938942 0.81871927 0.5127951 0.5304322 0.5480711 0.5583567 0.5769354 0.56675386 0.2181415 0.6490655 0.4458627 0.48037055 0.31609288 0.34050918 0.34884843 0.13700967 0.37232846 0.40393764 0.118803516 0.29764768 0.40629214 0.4504682 0.13423511 0.11163469 0.23169082 0.38517252 0.4656309 0.55022025 0.029332414 -0.22889607 0.42161596 0.58640563 0.57727623 0.13771144 -0.13705668 -0.19623454 0.10289273 0.5369795 0.48208436 0.27703935 -0.111858964 -0.28109947 0.56114423 0.37725163 0.03972131 -0.3047381 0.07534624 0.7228365 0.8231324 0.6089515 0.50813955 0.21220696 0.8455371 0.90475285 0.72146773 0.69245696 0.64306945 0.5782492 0.2703438 0.9550624 0.237577 0.20367117 0.39847502 0.89151657 0.35124543 0.29557312 0.24707605 0.42333308 0.5254009 0.6941713 0.7749302 0.81454587 0.36725917 0.67438585 0.7220422 0.63522553 0.22500917 0.32208818 0.37898117 0.42350298 0.5644534 0.6664601 0.63397515 0.5270705 0.4498352 0.49060714 0.47660637 0.3891893 0.08832112 0.19461879 0.39668533 0.39125806 0.36681592 0.5323728 0.62234986 0.43118566 0.36660635 0.4394972 0.4021861 0.45968205 0.45333868 0.5464561 0.5074835 0.22084336 0.31599325 0.40192527 0.3474829 0.2479634 0.57074904 0.112828024 0.14762568 0.36500257 0.2307499 0.38853008 0.6243662 0.14830726 0.4496119 0.67674065 0.20102468 0.21211469 0.11523218 0.10260679 0.63326955 0.7488035 0.72970176 0.680079 0.11485185 0.1399369 0.114378154 0.017817482 0.12838487 -0.026113346 0.01638852 -0.070322886 0.22861153 0.49327025 0.4160101 -0.003355816 0.31863013 0.35774148 0.6317688 0.47185057 0.27230024 0.15849066 0.16343966 0.20903143 0.33554155 0.3346132 0.71070504 0.5878849 0.109814204 0.1818997 0.18211854 0.2354072 0.42828757 0.8253114 0.76615757 0.34070024 0.35649815 0.4489872 0.6783837 0.19892113 0.48749393 0.7861141 0.8508963 0.5404222 0.8044555 0.7780366 0.5164696 0.7244096 0.7573876 0.4635721 0.31201172 0.34530568 0.56573 0.48528135 0.49888837 0.18599087 0.26883548 0.31185943 0.3379968 0.371664 0.4499518 0.41250992 -0.08917564 0.3052609 0.2215549 0.34584904 0.41400304 0.50468254 0.3989315 0.5055867 0.44142458 0.48204505 0.5382799 0.49572504 0.43844414 0.44849095 0.49096632 0.3861717 0.19551566 0.2501129 -0.08778402 -0.22438677 0.5852026 0.42237195 0.41707987 0.15557137 0.76393855 0.57520586 0.6090659 -0.09580666 -0.13578215 0.863716 0.07821306 -0.10823873 0.16975288 0.26412493 0.58971786 0.7584978 0.8058767 0.033315405 0.25139004 0.06092641 0.58178043 0.69877315 0.74923146 0.78212243 0.21087748 0.22483188 0.22104973 0.5746492 0.53896964 0.63172346 0.5939858 0.53042346 0.18467124 0.23490399 0.3220237 0.39211738 0.39997077 0.535998 0.52861154 0.3055824 0.43042988 0.49915951 0.45558274 0.3722825 0.028337188 0.13200071 0.40102398 0.41449612 0.49010032 0.36489403 0.32612106 0.3375231 0.4360221 0.2296505 0.32377514 0.45652083 0.41987908 -0.17473118 0.085245416 -0.04926762 0.14217433 0.52789307 0.47576368 -0.11192526 0.050635602 0.033367343 0.5373573 0.07457623 0.1129213 -0.17213535 0.48748678 0.53912556 0.067894764 0.004353076 0.10225643 0.12700203 0.08995968 0.16550961 0.197842 0.014143124 0.00612168 0.09812299 0.20528954 -0.20104942 0.22672233 0.26790947 0.067017354 0.18925884 0.17175159 0.11825664 0.13776669 0.17783159 0.122758605 0.3001345 0.34578538 0.19732535 0.19308175 0.08196818 0.07339128 0.2464551 0.20349462 0.15209286 0.139009 0.26819798 0.80784255 0.7528604 0.7236712 0.26241517 0.2648254 0.23091078 0.38505894 0.29253024 0.8739548 0.8704845 0.31150466 0.3263795 0.37502465 0.21518615 0.397192 0.8830081 0.33973143 0.3231585 0.8762399 0.88162386 0.51562667 0.395454 0.864812 0.81048405 0.7193134 0.64996684 0.041721467 0.1901126 -0.017366976 0.1674919 0.34114635 0.36034405 0.1555621 0.042847306 0.15475316 0.14922385 0.16189025 0.16732633 0.26649657 0.30519956 0.18240207 0.121280774 0.11613937 0.4046323 0.29831612 0.32663107 0.49920216 0.39647782 0.4434612 0.46115708 0.30940676 0.3190843 0.37650082 0.10550625 0.15452388 0.25280476 0.233905 0.33204794 -0.21257702 0.6113564 0.49832797 -0.1557259 0.7157238 0.7752098 -0.1687704 -0.16133787 -0.12708974 -0.13196221 -0.17710884 0.09390422 0.6595032 0.7271234 -0.17786309 -0.060418405 -0.051840976 -0.23425347 -0.053797886 -0.0072174966 -0.06374976 0.3297844 -0.12918368 0.43050712 0.4310101 0.4579116 0.2576274 0.4946313 0.4840706 0.48014292 0.47909567 0.5421891 0.6044868 0.6164252 0.5989561 0.68428826 0.6964257 0.6982116 0.64187574 0.5782349 0.710232 0.7220451 0.7125118 0.6605944 0.59107697 0.7253778 0.70748407 0.41741937 0.2583263 0.2709329 0.5526521 0.4904202 0.20870927 0.24094579 0.3208987 0.36061 0.3424523 0.7551765 0.7600721 0.73247457 0.39632884 0.40496194 0.35779092 0.14087206 -0.05566212 0.10531001 0.33735013 0.36240065 0.72367394 0.72918284 0.6548023 0.26762548 0.33555692 0.19375941 0.382778 0.5424735 0.58269143 0.5931402 0.35912713 0.22812253 -0.17150766 -0.03967689 0.39313263 0.34308776 0.07032193 -0.0476854 -0.08742252 -0.07501871 -0.012139685 -0.14671867 0.3992169 0.38370112 0.017210118 -0.1265744 -0.08746396 -0.07871579 0.04936961 -0.032195553 -0.03499965 -0.109567344 -0.12646662 -0.18139377 0.399359 0.38843217 0.39167884 0.16728808 0.031572595 0.033024788 -0.05347651 -0.1746717 0.0878725 0.03914845 -0.06028951 -0.114205144 0.2775033 0.36573327 0.74082565 0.68436277 0.5187244 0.40280807 0.24553272 0.08165443 0.07578274 -0.07001188 0.14005679 0.021576867 0.032328255 0.0024032518 -0.03879677 -0.038328532 0.013110414 0.0689909 0.18667221 0.77805805 0.7111212 0.5903449 0.51940536 0.38057402 0.12672803 0.1687875 0.17692734 -0.060972415 0.044013232 0.1591824 0.8136445 0.7348585 0.6445838 0.53005296 0.006004721 0.076177076 0.07381295 0.03075619 0.10128725 0.23558156 0.31514534 0.3654654 0.71649104 0.5183438 0.3728633 -0.28304476 -0.13017894 0.011605427 0.39658886 0.40629444 -0.36314186 0.22333673 0.17288211 -0.024822734 0.40533373 0.42292428 -0.05217328 0.2566603 0.24141067 0.2277911 0.38212422 0.3974687 0.882254 0.73848665 0.5300278 0.17967257 0.05769244 -0.020963185 -0.115430325 -0.23177971 0.22798005 0.9114021 0.9318868 0.6520969 0.55211425 0.31565326 -0.08029387 -0.10594119 -0.08148317 0.29540545 0.33244464 0.27876064 0.14647183 0.92440045 0.9466815 0.6460353 0.47133565 -0.06986634 -0.07558882 0.24744442 0.3812014 0.22914386 0.9181067 0.92979753 0.8911475 0.6652885 -0.0051193237 0.19999205 -0.008499891 0.26815486 0.8987423 0.8913677 0.7570657 0.035154097 0.06000737 0.27436224 0.06656409 0.23844367 0.1672694 0.22450174 0.2395748 0.2565066 0.08616374 0.12821302 0.2546674 0.18631063 0.10516271 0.042327434 0.324744 0.12914234 0.40538266 0.22780618 0.40385178 0.2370756 0.14911923 0.3137964 0.17763092 -0.101420365 0.3029937 0.046043076 0.09692195 0.11725858 0.17120719 0.022689216 0.038189225 0.037235677 0.5553272 0.5184032 0.52518606 0.4872836 0.30645835 0.17363486 0.4787954 0.48407504 0.39266193 0.26587147 -0.10524313 0.042250447 0.14331567 0.45314234 0.45745847 0.41590255 0.3921901 0.27701324 -0.042832717 0.14137375 0.40752262 0.33128816 0.34712648 0.12754393 -0.05628544 0.41294345 0.5428971 0.40749842 0.65596074 0.51382816 0.48694247 0.6915858 0.7182503 0.5501164 0.7188188 0.7029892 0.5869137 0.5622323 0.6238096 0.601948 0.63515794 0.63816094 0.57892966 0.21331377 0.13855526 0.18814315 0.19713326 0.20827687 0.5745258 0.5833993 0.5721632 0.5367608 0.13786691 0.2080743 0.729174 0.7318481 0.22722438 0.24862687 0.23355927 0.09995423 0.39228153 0.4076817 0.40101913 0.17538863 0.33643153 0.16111176 0.36315098 0.7114685 0.7401863 0.7504326 0.7402096 0.67386127 0.25941804 0.11876782 0.011823848 -0.18005192 0.009667382 0.16648543 0.21707812 -0.09042773 0.36269176 0.6882374 0.7182889 0.54040897 0.17606027 0.03803801 -0.0922369 -0.25230762 -0.06044133 0.41433287 0.51996523 0.4807498 0.25912976 0.1153461 -0.1102979 -0.15537304 -0.04999183 0.42217657 0.22860628 -0.08137408 -0.092670515 -0.19465601 -0.114485845 -0.1399316 -0.14535418 -0.17821212 0.40309867 0.07783088 0.063146636 0.021600328 -0.013969727 0.0070533007 -0.04487782 0.3507868 0.59785366 0.4862403 0.36313897 0.056056563 -0.02419269 0.28285122 0.74700403 0.65723526 0.55222386 0.07874431 0.027009055 0.037741885 0.11472611 0.8220546 0.033991106 0.0063038096 0.004500199 -0.00090337545 -0.06321975 0.12660486 0.8963232 0.13330874 0.02995123 -0.052408032 0.35282636 0.33861142 0.59743834 -0.12672842 -0.099778354 0.036432907 -0.13819169 0.40156147 0.4023277 0.2572631 0.14294645 -0.32832593 -0.22288984 -0.14348744 0.19834796 0.13647845 0.41991913 -0.22496556 -0.31850877 -0.21251743 0.21705425 0.23036423 0.3840561 -0.19550243 0.2533439 0.14211042 0.23147127 0.95751345 0.85383475 0.68401194 -0.2099909 -0.22665843 0.29753357 0.07173805 0.9614605 0.90754175 0.75273466 0.65945756 -0.07983686 -0.23158875 0.1438099 0.025212463 0.87406516 0.7831718 -0.04033439 -0.0540853 0.16841373 -0.0070615113 0.065583676 0.1311902 0.12356481 -0.0156641 0.3177771 0.2207405 0.15764022 0.16870765 0.07908949 -0.07533375 -0.08864419 0.09857858 0.25205356 0.26525593 0.16363555 0.12918042 0.121255435 0.21431327 0.23745015 0.27131233 0.14244965 0.06213052 0.11167311 0.043007754 0.3333652 0.3735232 -0.036114983 0.4172243 -0.019463822 -0.09144472 0.40472546 -0.13680434 -0.07817094 0.2879117 0.3510171 0.011093341 0.4607358 0.04800106 0.49473825 0.5108672 0.098118626 0.3173422 0.47687864 -0.3126136 0.5593183 0.3959834 0.5518805 0.5215447 0.5712804 0.50725317 0.49087727 0.5625477 0.47513044 0.45842308 0.42346153 -0.14104354 0.12827103 0.3714984 0.44234928 0.53236127 0.4517883 0.43164912 0.40340406 0.34939772 0.23360567 0.119279146 -0.084186785 0.1148077 0.32300076 0.47421312 0.40785012 0.37883285 0.3407823 0.36441332 0.042246804 0.59943473 0.45256782 0.6437594 0.52062476 0.49745992 0.69039273 0.56431496 0.54917294 0.5114266 0.6091547 0.5641074 0.5431353 0.5719216 0.5935469 0.5819254 0.460978 0.5592041 0.6006757 0.5533458 -0.036845103 0.016819606 0.03684184 0.032854095 0.13646999 0.23987946 0.13047117 0.10991195 0.50607157 0.3319777 0.40157884 0.6892601 0.7056904 0.6746342 0.4476412 0.4160818 -0.076528616 -0.05584032 0.12121789 0.42844522 0.6520171 0.6893395 0.6816567 0.39788926 0.33611616 0.10320459 -0.03863381 -0.1638392 -0.21016404 0.37516773 0.41795507 0.5655258 0.15822752 -0.08502492 0.45144838 0.38293552 -0.09843516 -0.14343838 0.46712488 0.25086266 0.433052 0.23138714 0.35021186 0.50940263 0.4013714 0.31573346 0.74390125 0.63479245 0.21535577 0.8519821 -0.0048514903 0.9312242 -0.17850971 0.15856904 0.83245105 0.6421207 -0.37664312 -0.14246556 0.3342668 0.45400286 0.29546213 0.18230815 0.11497239 -0.19623704 -0.1951313 -0.114470065 -0.28138727 0.042993926 0.38852906 0.38934264 -0.17507604 0.21471709 0.28822535 -0.45281225 0.17867975 0.20844607 0.08425324 0.09932896 0.14765136 0.20432682 -0.055753745 0.030711763 -0.15724972 0.1907185 0.1775266 0.16592987 -0.011472603 0.14