# vtk DataFile Version 2.0
Really cool data
ASCII
DATASET POLYDATA
POINTS 9043 float
2.3032596 35.211514 21.870089
2.3334377 35.077587 22.686197
2.3795521 35.076385 23.058155
2.1993778 35.69464 21.736864
2.0893452 35.69516 22.553917
2.2640033 35.566475 23.18523
2.218732 36.36482 21.756151
2.0946176 36.38691 22.523993
2.2645497 36.49101 23.261978
2.2677283 36.79895 21.93877
2.3234975 36.992958 22.486368
2.3648283 36.961914 23.166618
2.9704409 35.117203 21.257345
2.8085365 34.92747 21.746096
2.6116033 34.778114 22.546206
2.8167074 34.753017 23.268087
2.9619448 34.961876 23.765156
2.7027423 35.75108 21.11806
2.4443846 35.603348 21.415804
2.4827855 35.528492 23.619688
2.772183 35.549908 23.86954
2.6661468 36.443413 21.14025
2.4990387 36.587215 21.379328
2.4936166 36.629856 23.61264
2.800522 36.458076 23.923712
2.8363109 36.895805 21.198383
2.700252 37.0801 21.692158
2.522153 37.25447 22.488564
2.7407787 37.247746 23.374092
2.9384627 37.215385 23.743078
3.065027 37.594707 22.152061
3.0184076 37.61599 22.565832
3.0161138 37.652855 23.153362
4.278142 27.954035 3.649238
4.2260118 27.906593 4.3687043
4.343857 27.907484 4.973232
4.329198 28.476357 3.1739128
4.152229 28.53698 3.5298805
4.0698676 28.497663 4.384321
4.258727 28.44846 5.095702
4.334344 28.978483 3.1635985
4.2184687 29.130713 3.6115973
4.229074 29.282314 4.2455997
4.3846974 29.156723 5.0348167
4.452222 30.406395 11.0215645
4.431726 30.525442 11.515981
4.451482 30.655989 11.975508
4.4273405 31.112297 11.034867
4.4146557 31.188274 11.446877
3.3199396 34.449203 22.120977
3.5442984 34.243336 22.775518
3.4306006 34.38196 23.18399
4.140652 34.967102 20.897465
3.6557941 34.51315 21.617983
3.2025719 34.522095 22.21757
3.5117376 34.506428 23.533804
3.4459956 34.842796 23.892683
3.7009685 35.429752 20.840126
3.6264358 35.828773 24.372694
4.1639385 35.73905 24.670488
3.5486612 36.418533 20.794226
3.5918677 36.39501 24.316961
3.728117 36.954998 20.925009
3.3439972 37.356873 21.526228
3.2586756 37.541626 23.508219
3.6369014 37.192684 24.041908
3.5056815 37.692387 22.02117
3.4749 37.792973 22.61215
3.56623 37.744884 23.26188
5.376524 24.228085 12.767303
5.368781 24.647942 9.220399
5.146498 24.818571 9.529862
5.150716 24.720152 10.45178
5.148019 24.682844 11.8005085
5.2552195 24.685364 12.445151
5.3088903 24.862736 12.998556
5.26619 25.558826 8.957883
4.9855247 25.365423 9.789703
4.8363023 25.61805 10.773712
4.8591714 25.65743 11.501268
5.0708447 25.550728 12.403839
5.2219067 25.464012 13.01539
5.0883718 27.285412 3.9591527
4.877813 27.304274 4.347015
5.1230445 27.395536 5.4232726
5.095164 26.446795 9.719653
4.787438 26.410702 10.627446
4.78653 26.495392 11.372275
4.9251456 26.350485 12.158282
5.3443537 26.288607 12.793819
4.788884 27.97055 3.085501
4.6009655 27.66847 3.6454206
4.4952455 27.55431 4.3603997
4.6368656 27.546501 5.158128
5.3822613 26.905151 9.438264
4.8663325 27.161427 11.519513
5.310829 27.699467 12.737147
5.264991 27.362427 13.023255
4.682814 28.488956 2.9233665
4.497473 28.715168 5.5147233
5.3099327 28.31443 10.511414
4.8295193 29.166569 11.719106
5.169103 28.546152 12.293328
4.7373 29.205492 2.9701862
4.467515 29.526794 3.6181245
4.5716877 29.653921 4.773352
4.53182 29.391953 5.130652
5.2693596 29.463236 6.101316
4.9086237 29.532541 10.814428
4.7029705 29.61868 11.486297
4.748807 29.592457 12.079971
5.0784287 29.927052 3.1008847
4.907851 30.067928 3.601943
4.6796546 29.955616 4.2593207
5.2361875 30.628292 9.87359
4.656132 30.558502 10.549623
4.6364646 30.720758 12.199236
5.1124687 30.836147 12.935307
4.967304 31.118872 10.046739
4.5965753 31.482454 10.631428
4.5303764 31.608152 11.426865
4.781453 31.524172 12.280794
5.1128736 31.341356 12.83606
5.085745 32.018875 10.132795
4.9015875 32.191483 10.643518
4.7792187 32.14336 11.409784
5.121106 32.21297 12.232091
5.240532 31.831518 12.776641
5.221759 32.606724 11.076172
4.7804174 34.648224 24.340433
4.5880795 35.062836 24.628262
4.9007583 35.952488 20.45699
4.8630114 35.506668 24.907745
4.7696934 36.42788 20.437035
4.433227 36.134575 20.521698
4.928118 36.44242 24.965961
4.734938 37.224697 20.817097
4.9157305 37.536186 24.324715
5.006921 37.12235 24.792053
4.6099334 37.6804 21.227673
4.470297 37.68161 21.393633
4.3258953 37.910908 22.455812
4.77594 37.879356 23.45757
4.883149 37.747253 24.106707
5.933396 24.217863 9.143687
5.7656984 24.15312 9.490875
5.74475 24.09557 10.298163
5.83948 23.94798 11.608126
5.6764402 23.9756 12.419362
5.9229684 23.91918 13.247877
6.151317 24.134165 13.732152
5.67629 24.664549 8.894862
5.4956036 24.470343 9.275388
5.472388 24.538763 10.768166
5.4510036 24.633308 11.49286
5.4453635 24.290625 12.375379
5.544255 24.63972 13.295085
5.905179 25.3176 8.344368
5.5990067 25.281532 8.596256
5.5373735 25.053953 13.602517
6.036939 25.58837 14.293639
6.253097 25.79092 15.579376
6.1894345 26.013748 16.227428
6.336717 26.073254 16.999832
5.4380803 27.310947 3.838936
5.443778 27.211674 4.4516673
5.8560944 26.216682 8.350886
5.900255 26.25926 14.684562
5.989035 26.66919 15.469917
5.985513 26.59785 16.56941
6.158139 26.699263 17.221981
5.3754544 27.87963 3.0648198
5.290871 27.580992 3.3474414
6.024718 27.660686 6.423127
5.582892 27.329538 13.717059
5.7124977 27.447622 14.051721
5.8029265 27.665667 16.032648
5.798299 27.582531 16.420574
6.0368757 27.484848 17.194654
6.3472476 27.806313 17.724472
5.3703094 28.541143 2.677291
5.8149786 28.691284 6.5215707
6.245903 27.940723 8.819718
5.5517554 28.584297 13.331679
5.714721 28.632713 13.839041
6.0571465 28.225222 16.404427
6.0723515 29.886911 2.4522412
5.649105 29.535551 2.6166017
6.1084723 28.939247 14.008606
5.7506833 30.28788 2.8246765
5.3921366 30.510494 3.552391
5.5257816 30.589928 5.332611
5.7747703 30.404348 6.3558393
5.9064503 30.694523 9.509771
5.522913 30.753777 13.13986
5.9050426 30.80471 3.1509995
5.775699 30.857176 3.5310297
5.7487664 30.917936 4.4400992
5.967836 31.028906 5.311782
6.001792 30.829733 6.002289
6.140971 31.651627 9.280047
5.7068157 31.46062 13.242564
6.2311516 31.892496 18.62916
6.1694922 31.742804 19.499454
6.242757 31.955273 20.123873
5.3883734 32.305393 10.070147
5.3304796 32.59487 10.354631
6.0184426 32.525463 12.650689
5.6710687 32.063976 12.952491
6.0920053 32.532814 18.58241
5.948848 32.59083 19.578226
6.2538867 32.33591 20.26783
5.568355 32.788986 10.604942
5.6094685 32.82065 11.369231
5.760531 32.613865 12.2935
6.297797 33.42279 18.429163
6.1043215 33.59267 19.581331
5.120013 34.370102 21.185013
5.401615 34.17411 21.89379
5.765219 34.042057 22.810452
5.5632563 34.114216 23.346588
5.841921 34.21075 24.078905
5.739623 34.53925 24.667124
5.878881 34.565514 24.881145
5.467282 35.971493 20.408009
5.755597 35.808098 25.41239
5.193783 36.048023 20.441814
5.7462554 36.23995 25.283749
5.3700695 37.216152 20.819677
5.320059 37.56975 24.515764
5.5897427 37.14538 24.927765
5.3504143 37.65404 21.103989
5.173591 37.842445 21.536516
5.289244 38.014915 22.480566
5.6288714 38.074654 23.506468
5.6371374 37.890934 24.203964
6.76719 23.244612 12.593071
6.843644 23.356144 12.9575
6.390172 24.219997 8.9416895
6.5957265 23.892456 9.386843
6.3691945 23.818449 10.098273
6.3957663 23.707924 11.67886
6.246994 23.507404 12.52054
6.2881455 23.630404 13.308283
6.7675347 23.784876 14.107951
7.1557636 24.175179 15.291729
6.624712 24.72092 8.325218
6.306828 24.610373 8.524059
6.447521 25.008078 14.543389
6.8383846 24.69141 15.20707
7.0365405 25.339874 17.069246
6.5473657 25.552841 8.10352
6.494225 25.45746 15.185437
6.60654 25.493261 16.475115
6.846641 25.763826 17.425665
6.95562 26.066973 17.816927
6.3766003 27.281403 4.6922827
6.907586 27.333323 5.9182634
6.472937 26.425571 17.530453
6.7765713 26.467115 17.830662
6.0157375 27.67236 3.2524834
6.436084 27.685913 3.608521
6.471415 28.158478 7.0728874
6.8687205 27.493113 18.16241
6.5473256 28.57258 2.8591027
6.4501095 28.726727 7.2472005
6.658387 28.932978 7.9996
7.1006813 28.43212 18.449667
7.307289 28.803839 18.694248
6.684609 29.879707 2.427363
6.517948 29.708447 7.615817
6.691496 29.059639 14.415338
7.006362 29.21049 15.352779
6.4463663 28.887573 16.46312
6.9904003 29.295574 18.112007
6.7094774 30.135374 2.4420755
6.5982766 30.55744 2.6028485
6.742873 30.433922 7.5122137
6.589712 30.478107 8.39113
6.9361515 30.043741 14.03166
7.3508086 30.600546 16.543901
7.073309 30.529825 17.868713
6.931122 30.84584 18.155022
6.5637503 31.167412 19.831581
6.842874 31.228142 20.328632
6.5642242 30.957722 2.9361255
6.5582256 31.246588 3.527233
6.5840564 31.35685 4.2940655
6.433353 31.16567 5.6313767
6.457817 31.104631 6.3509183
6.908557 31.04343 7.3571467
6.9820805 31.196518 8.668396
6.669142 31.709585 13.521334
6.921969 30.90981 13.852702
7.2588034 31.577263 16.838455
6.5813384 31.865742 17.901304
6.443604 31.424555 18.511065
6.529977 31.544905 20.287563
6.963365 31.39858 20.650583
7.075199 31.562977 5.7401333
6.537191 31.890076 9.401255
6.7539306 32.676174 9.606817
6.7857146 32.084366 13.258789
7.0726905 32.11941 17.171871
6.5750146 32.615097 17.693317
6.5892315 32.779907 20.651596
6.8021345 32.406204 20.759571
6.7731514 33.240757 10.1006565
6.626082 33.302864 10.423064
6.585018 33.26852 11.388741
6.6862407 32.82933 12.261397
7.1420126 33.29549 17.071932
6.6481943 33.24967 17.8179
6.2627096 34.352158 24.305994
6.4354496 34.254646 24.76652
7.448781 33.852234 28.483435
7.0722775 33.6448 10.580537
6.730188 33.95117 18.026377
6.8309484 34.624046 18.50636
6.663682 34.624798 25.20687
7.031665 35.03211 25.71629
7.4461274 34.089794 28.658073
7.1203413 35.331028 18.250134
6.9797254 35.273067 19.24533
6.247456 35.450542 20.578045
7.1424 35.88715 20.378166
6.6378627 36.58308 25.549568
6.4646745 37.095875 21.12368
6.8762865 37.369804 21.932632
6.604546 37.161102 25.29915
6.2190824 37.73354 21.898584
6.2138453 37.988068 22.501823
6.3660784 38.056267 23.601387
6.1250987 37.867775 24.322256
6.49803 37.725986 24.810413
7.390362 62.11996 17.689186
7.430503 62.112118 18.101244
7.2850223 62.93451 16.834127
7.202559 62.67845 17.659027
7.245742 62.47382 18.018642
7.154113 63.855015 16.644459
7.090688 63.73239 17.628222
[...]
POINT_DATA 9043
SCALARS features_00 float 1
LOOKUP_TABLE default
0.9067591 0.8721397 0.85958415 0.9492835 0.95512855 0.9158621 0.9326408 0.9430008 0.9104699 0.88713336 0.8609878 0.85594344 0.86040115 0.8516009 0.83667684 0.80590045 0.77825457 0.91052973 0.9302081 0.8738398 0.8333919 0.8898164 0.8956593 0.8702885 0.83900476 0.83496606 0.83579826 0.82992417 0.8049223 0.77084595 0.77508926 0.77807844 0.76360416 0.92652166 0.9082874 0.87570333 0.9416738 0.93235517 0.90013164 0.85121787 0.9021238 0.87484616 0.8324427 0.7786943 0.5571384 0.5729778 0.5810539 0.63983905 0.64982086 0.76997316 0.7153026 0.7218456 0.7566265 0.7553942 0.78547454 0.6953913 0.70945334 0.81620896 0.71352524 0.62674737 0.78360474 0.71625876 0.7284025 0.7599652 0.72685313 0.68071747 0.73177373 0.7207749 0.69142026 0.38985032 0.5088557 0.5241151 0.49307883 0.41267088 0.39064372 0.35282466 0.5302396 0.5397469 0.4614892 0.39517003 0.34433097 0.30790448 0.83074546 0.8390338 0.7792895 0.48825258 0.41636524 0.33419082 0.2942673 0.25343072 0.9146923 0.8992474 0.8827277 0.83597475 0.40893275 0.2411845 0.15476654 0.16591 0.93313277 0.7629685 0.18531285 0.32547978 0.18130702 0.8662564 0.82256126 0.7160814 0.71942556 0.53976905 0.41527057 0.43362048 0.39847386 0.77951753 0.7518318 0.7206596 0.5218378 0.5714468 0.57944655 0.505409 0.58722055 0.65642726 0.6866709 0.65184236 0.5651958 0.5866426 0.655964 0.7046292 0.65624785 0.5793862 0.64796126 0.48579776 0.54629934 0.5615884 0.5306148 0.5749214 0.6381373 0.5330714 0.6052951 0.5163924 0.49637684 0.6294544 0.6457824 0.6389273 0.5654943 0.5255182 0.46558315 0.48458585 0.47924325 0.41205198 0.40160093 0.37181282 0.334629 0.48602766 0.50193155 0.46762514 0.4253732 0.40237486 0.34696716 0.46823174 0.49775407 0.3001805 0.21213527 0.2788356 0.37262267 0.4474399 0.79203236 0.75317323 0.49496225 0.17792854 0.27215752 0.43623668 0.48503327 0.8669828 0.8470634 0.6631649 0.15460572 0.14872992 0.3510568 0.42984596 0.50109804 0.47894663 0.904284 0.519466 -0.052406073 0.17734776 0.14843243 0.351061 0.73774827 0.78910017 0.098965675 0.73159826 0.70103806 0.47861302 0.32021016 0.34688956 0.4167905 0.6891374 0.665732 0.5565987 0.40346152 0.3045866 0.31371304 0.46002486 0.44629315 0.4932658 0.4690069 0.53501135 0.56302065 0.52345717 0.52326536 0.44352603 0.53219813 0.48384714 0.55363655 0.60980356 0.5847024 0.3853761 0.49986345 0.6839335 0.5841875 0.37165737 0.34444162 0.25836688 0.31384876 0.28491697 0.44678977 0.454654 0.5057359 0.46496394 0.5169069 0.4689654 0.44467863 0.5224595 0.5441537 0.55157113 0.49393088 0.44726464 0.32302368 0.3256902 0.42162555 0.40662876 0.4338926 0.3826585 0.38188735 0.3635578 0.29355145 0.2643391 0.38906884 0.4236551 0.23379846 0.24927151 0.43198866 0.38094294 0.23623696 0.3807069 0.45854223 0.46957773 0.555688 0.4601639 0.4847135 0.48362237 0.76213294 0.64718825 0.4264158 0.4625901 0.7623147 0.33016118 0.11812742 0.3878859 0.3396897 0.70271933 0.22555175 0.0024167988 -0.118381046 0.17633767 0.2717883 0.6944386 0.6813636 0.1480805 -0.045129266 0.059783947 -0.0015219897 0.22943193 0.3041074 0.4386255 0.37231222 0.65944016 0.60443825 0.49130782 0.31001455 0.2109369 0.076748714 -0.007281108 0.3594126 0.22682664 0.12594435 0.301068 0.40719873 0.42007288 0.35052356 0.23989232 0.2770744 0.32181117 0.3690921 0.19446297 0.28135145 0.44412032 0.4073828 0.37401438 0.41808808 0.471537 0.451532 0.17426944 0.29119235 0.18749431 0.14797834 0.62394977 0.38047177 0.30099928 0.25601825 0.15273331 0.17399581 0.6286434 0.15232553 0.08106695 0.21436414 -0.061179936 0.3659681 0.28698534 0.23057848 0.38267842 0.38843042 0.43630147 0.4376292 0.40833846 0.3875258 0.5712193 0.5694715 0.5470302 0.5611447 0.5663561 0.46942607 0.51365924 0.54032075 0.4361537 0.46189666 0.46482867 0.3627279 0.3999519 0.382279 0.7979126 0.34766957 0.3479341 0.32823056 0.77286625 0.824931 0.83534086 0.34129742 0.29935372 0.8517664 0.83989155 0.83100903 0.808799 0.32873118 0.7290732 0.79570484 0.8009566 0.5806061 0.635626 0.735854 0.09645251 0.30866352 0.20978561 0.2351637 0.27783328 0.2666758 0.34077048 0.17626932 0.37610382 0.41951156 0.44736457 0.43691736 0.26788592 0.1886221 0.44049 0.4124651 0.4531297 0.37740844 0.68384385 0.34596202 0.6750093 0.6600379 0.24685669 0.6385985 -0.24180451 0.6046964 0.583094 0.40739226 -0.06411008 0.23730731 0.058513653 0.056356337 0.30047345 0.20062761 0.049571417 -0.05645552 0.085606046 -0.041476242 0.06401064 0.03354148 0.5221231 0.63832235 0.6666496 0.157678 -0.19833633 -0.1613242 -0.059468716 -0.044650987 -0.014162049 0.5518493 0.61627036 0.6935287 0.7021707 0.27694613 0.3295713 0.3264169 -0.07692203 -0.02994376 -0.07609812 0.068517014 0.10702813 0.4849261 0.5982311 0.6656401 0.68695486 0.1730972 0.14298835 0.08855844 0.06071306 0.20064032 0.30447927 0.5978956 0.21710488 0.18406095 0.018904984 0.071242966 0.10589371 0.05266767 -0.030711591 0.37092257 0.51506543 0.5558484 0.31318554 0.3100157 0.04272309 0.04141007 0.3281858 0.25916016 0.39576173 0.33181438 0.18355092 0.23522902 0.34702232 0.3383468 0.62640685 0.5885805 0.5658082 0.64254045 0.62001777 0.5784211 0.5637011 0.5354749 0.6115185 0.5873032 0.5926026 0.5573423 0.5368599 0.4674396 0.4710275 0.5383212 0.40139344 0.385546 0.40900314 0.36803067 0.36375403 0.38081735 0.6500737 0.6924559 0.76839435 0.7940966 0.35754383 0.3440442 0.20735782 0.68382585 0.82551134 0.7876409 0.39290923 0.34345987 0.5541818 0.7770649 0.46827954 0.40138713 0.33419323 0.28657678 0.5805478 0.7693424 0.7739133 0.49752694 0.4595577 0.3889986 0.53371584 0.56687844 0.70888555 0.7078881 0.48236895 0.45746383 0.3740953 0.50165087 0.6260754 0.6565991 0.58176434 0.6083627 0.4285544 0.5511745 0.5813924 0.057492472 0.22371592 0.38709337 0.50112015 0.19449805 0.012296405 0.19252855 0.10026347 0.056377344 0.05131042 0.12390779 0.32996923 0.3320602 -0.02996274 0.37107298 -0.05930636 0.35282883 0.3542499 0.15174069 0.315908 0.29695433 0.38279215 0.09404288 0.13278657 0.28215942 0.19501936 0.10761091 0.14105593 0.15650633 0.15012175 0.4682526 0.1475052 0.14207697 0.15572162 0.16743831 0.32229808 0.10136138 0.12561032 0.121903226 0.10926583 0.33780771 0.5817882 0.13419588 0.12810898 -0.08812773 -0.078080274 0.21209678 0.59628177 0.6617096 0.12636995 0.18993552 -0.10341886 0.67569244 0.22310555 0.27560318 -0.16919538 0.6659556 0.20320997 0.594466 0.6157775 0.2737065 0.15115336 0.120132774 0.002835095 0.029675663 -0.06943735 0.51460266 0.5681445 0.5823573 0.32955432 0.336113 0.2240262 0.018828444 0.028451905 0.035624117 -0.050415218 -0.11704485 0.15485473 0.2576965 0.49829167 0.5470524 0.3885002 0.41524875 0.43477347 0.3520686 0.26664317 0.12605706 0.14630407 0.2928533 0.3222297 0.3357156 0.23246482 0.4157259 0.48357534 0.48295152 0.42626518 0.3221814 0.4813367 0.51505977 0.5217081 0.6405039 0.62409955 0.5657843 0.5424605 0.62033117 0.64237165 0.5175358 0.5620338 0.48599252 0.49483144 0.46086705 0.38630065 0.4004619 0.3651114 0.53783375 0.5969409 0.32659596 -0.03430427 0.72671556 0.709496 0.71188116 0.41685408 0.15014054 0.6992152 0.70438445 0.5027369 0.5334197 0.18221846 0.67219603 0.5466803 0.51426566 0.45039845 0.37652647 0.3815345 0.47761035 0.59631586 0.63894826 0.64847285 0.4637438 0.5433866 0.6430478 0.6788554 0.2978038 0.5024081 0.6238421 0.64679664 0.637396 0.28859147 0.28770736 0.39123973 0.6049093 0.5853115 0.26551983 0.28999114 0.30422747 0.18618688 0.16438158 0.41139656 0.1449049 0.22267334 0.2603703 0.24759293 -0.067654744 0.09345998 0.0710881 0.129632 0.122435845 0.2471515 0.25278237 0.05848227 0.035930004 0.25743866 -0.033930354 -0.0672126 0.2524565 0.28238368 0.48085472 0.23079202 0.64518535 0.635675 0.56563354 0.4165103 0.032987073 -0.14332241 0.10630489 0.65217006 0.5858708 0.46610618 0.32342955 -0.13120808 0.07636135 0.13954753 0.13333037 0.67896676 0.722855 0.55886996 0.5244278 0.41255027 -0.095007524 -0.10475162 0.07679467 0.1712981 0.13854031 0.14680132 0.11155844 0.7371753 -0.06993596 0.15768434 0.12142223 -0.009734735 0.34430143 -0.0005351752 0.020399913 -0.009356199 0.5849427 0.6368456 -0.1686759 -0.1690196 -0.16603047 0.053063005 0.5868126 -0.004938327 0.043487143 -0.10420431 0.12695736 0.62066126 0.08515325 0.10749099 0.09034081 0.584093 0.08020331 0.55235803 0.56341994 0.07467086 0.23936027 -0.032111995 -0.07990432 -0.10649264 -0.14864022 0.015050989 0.32730186 0.4871233 0.52014595 0.3658016 0.07199112 -0.030758992 0.010667777 0.084551014 0.21665291 0.23125266 0.1818876 0.34886903 0.41093105 0.27232665 0.057022404 0.0012444938 0.27377665 0.28070855 0.47842866 0.5130477 0.5226608 0.3980095 0.49016172 0.5092821 0.51529276 0.5999286 0.6060834 0.58859724 0.57388735 0.2632592 0.48594582 0.53166443 0.4248582 0.42272103 0.3741114 0.039987613 0.38027647 0.27251905 0.2641193 0.22648098 0.6506381 0.3717956 0.60900617 0.6603078 0.49703613 0.5919918 0.5290884 0.43699902 0.2231856 0.5436951 0.56715477 0.492226 0.43998542 0.43722454 0.41730005 0.34955633 0.34900096 0.43208683 0.36623722 0.5281037 0.6568685 0.7119679 0.7014574 0.91281044 0.90123135 0.86832726 0.7804016 0.107371345 0.056163877 0.24863338 0.64940906 0.85495573 0.86084294 0.9286814 0.93121123 0.9248451 0.7767297 0.24559125 0.2532407 0.20596957 0.17683578 0.10277265 0.5168559 0.8515311 0.8697519 0.91017675 0.9144757 0.8962501 0.7908085 0.25228104 0.26338834 0.2047493 0.20929886 0.87292606 0.8222201 0.72796535 0.28442544 0.22819257 0.1878722 0.13222966 0.044266682 0.2393999 0.20215338 0.152629 0.107480444 0.0043341257 0.057956904 -0.007980496 -0.06462514 0.19170013 -0.0679077 -0.035741378 0.06683301 0.54783833 0.5512928 0.48377836 0.25669754 -0.20352587 0.300684 0.3211317 0.35860834 0.39785993 0.4833175 0.5891644 0.7576684 0.8344637 0.5627099 0.5928035 0.16133952 -0.31672335 0.07104449 -0.02326929 0.061547346 0.25033316 0.29257518 0.32336727 0.36935845 0.44504032 0.6092001 0.7648285 0.8787546 0.59875286 0.1109765 -0.13070825 -0.3930607 0.23594782 0.2742021 0.34976995 0.48419577 0.5564194 0.7882416 0.9068786 0.9411106 0.56008273 0.36345917 -0.060053647 -0.11878553 -0.05827792 0.67787206 0.8160608 0.9195672 0.4550417 0.45705473 0.4376089 0.38355416 0.31421044 0.010929242 -0.10590615 -0.063528866 0.060238805 0.041408964 0.74227464 0.7897593 0.36486053 0.3227953 0.07084815 -0.0234214 0.14861204 0.32481083 0.18529162 0.093657225 0.46481216 0.48996708 0.47551548 0.41160193 0.11998729 0.5349028 0.5052042 0.47997835 0.37810326 -0.09122524 -0.008358736 0.5271725 0.4856398 0.46815023 0.07116901 0.54392767 0.01006657 0.05764745 -0.10338303 0.5082283 0.5049243 -0.1132949 0.021132369 -0.047435753 0.37626433 0.46148133 0.09730051 0.18244424 0.19913507 0.20544581 0.10211575 0.10490366 0.09781268 0.1625192 0.24782959 0.18397509 0.3060837 0.19496688 0.33205667 0.3543802 0.32067218 0.36418864 0.4319548 0.14941788 -0.0039325976 0.3220244 0.4007498 0.44782883 0.40232474 0.38229814 0.4716738 0.477385 0.46403083 0.019279897 0.4314258 0.6190694 0.63044083 0.6304451 0.50608736 0.44444418 0.57504916 0.4632023 0.46164906 0.38714305 0.44912294 0.14073135 0.30033556 0.28357077 0.48919913 0.5371066 0.5661854 0.17467195 0.5303159 0.40083852 0.44463503 0.36622036 0.39917824 0.3911857 0.43518642 0.41189718 0.42908067 0.42953208 0.81683576 0.7778284 0.7024151 0.23045124 0.46938068 0.56253505 0.65397555 0.66960305 0.8490182 0.8416935 0.817515 0.8729671 0.8647633 0.7963104 0.6693791 0.52444667 0.08880255 0.042297535 0.040739678 0.59158003 0.80170983 0.848287 0.85255885 0.831789 0.80365276 0.88924754 0.64826113 0.52860487 0.22411436 0.1930364 0.15110205 0.16306499 0.15958473 0.4218526 0.7660469 0.8346792 0.87036145 0.8698373 0.85718346 0.86364347 0.86457455 0.5094734 0.28752482 0.2683137 0.19498932 0.7286187 0.82325625 0.88469553 0.9215834 0.78906107 0.6910238 0.521858 0.26557377 0.2816922 0.06351517 0.8763766 0.90932715 0.7063062 0.54040796 0.18917641 -0.082882255 0.41070193 -0.016802248 -0.002662763 0.0464647 -0.34370625 0.34582657 0.40306583 0.3818912 0.36178988 0.09628665 -0.06560405 -0.32371804 0.18084072 0.24678591 0.21974921 0.2837179 0.35063106 0.4049368 0.50980395 0.5319655 0.42559716 0.07549559 0.045954082 0.07800135 0.028578572 -0.11119801 0.08265868 0.22881559 0.28670388 0.5939771 0.7646642 0.85536295 0.4132841 -0.30581474 -0.22500187 -0.07530445 -0.060074523 -0.059159387 0.038659334 0.07637407 0.18983658 0.8858819 0.89844775 0.44985005 0.4327134 -0.040044494 0.92362714 0.35787332 0.15258422 0.29944405 0.9278108 0.9068353 0.32622883 0.22197175 0.72337735 0.8876435 0.28539416 0.3092695 0.23777583 0.0068852487 0.28158212 0.47866294 0.43265194 0.5007318 -0.09664193 0.45664817 0.44585073 0.42401147 0.3475904 0.13560554 -0.058986958 0.45749637 0.37180573 0.024362631 -0.036428526 -0.050976664 0.39994717 0.4046949 0.05877567 -0.20803978 0.3361913 0.36143866 0.04901706 -0.13688958 -0.05098534 0.03497224 0.15518501 0.22367346 -0.030399583 0.25531015 0.16727355 0.23971254 0.16695277 0.11202532 0.019084506 0.03306594 0.25095865 0.48807913 0.44886842 0.27227092 0.18094292 0.23575142 0.31782538 0.4139172 0.3622898 0.35140598 0.09684566 0.03449992 0.038884662 0.03644192 0.4585991 0.4937476 0.074629724 0.5492247 0.6681652 0.6995084 0.6865834 0.4767323 0.55493855 0.66168344 0.6627073 0.65367925 0.57412326 0.61174953 0.20538953 0.24917522 0.25480646 0.18936099 0.4549287 0.5014023 0.606456 0.23507507 0.66911584 0.670902 0.0985614 0.017003965 0.40398002 0.67276263 0.63821054 0.43847284 0.16356203 0.27840608 0.24881668 0.25778383 0.21133569 0.41630405 0.36811352 0.29857212 0.33104682 0.75413465 0.73847854 0.6912957 0.57394415 0.21057141 0.20849706 0.31539506 0.35961574 0.5343568 0.71178675 0.8480277 0.8048619 0.76690006 0.7208544 0.77024245 0.4508804 0.12843084 0.13219278 0.03151981 0.05838823 0.041197993 0.52487016 0.6102016 0.7069425 0.7804984 0.75934017 0.44057524 0.28978157 0.17368278 0.15289399 0.07873823 0.07340427 0.3188546 0.6102311 0.64243895 0.81365335 0.74029505 0.29505107 0.2076863 0.25985456 0.1642285 0.5392631 0.5865449 0.6213745 0.5847399 -0.09015554 -0.09005411 -0.076729566 -0.11539024 0.14074504 0.08273038 0.073239245 0.4225597 0.70718193 0.85704553 0.5244604 -0.050737556 -0.04815145 -0.0808468 -0.3506921 -0.22640827 0.30531254 0.38199538 0.44056672 0.47317177 0.44260424 0.027101396 -0.2790625 -0.3323849 0.24625754 0.4167408 0.36540848 0.30544475 0.37947613 0.48013178 -0.3837251 -0.38867313 0.08592518 0.14403558 -0.07436144 0.16274665 0.24575919 0.48274082 0.52366394 0.1066916 0.35093838 -0.040113408 0.7164986 0.8135332 0.82075703 0.8536432 0.18426001 0.8646031 0.41624603 0.83137345 0.8502889 0.45873338 0.37604347 0.42704463 0.74476016 0.8189857 0.6160655 0.5675626 0.40103713 0.11242461 0.67452335 0.6314391 0.53842545 0.45240194 0.28304896 0.68482673 0.6484045 0.6060358 0.50086486 0.23983952 0.3686468 0.65014434 0.58983004 0.46341223 0.37738645 0.36127853 0.38679147 0.37113953 0.3560931 0.31096044 0.23821703 0.017061323 0.31731558 0.3904354 0.04728785 0.13249074 0.2510211 0.30366004 0.14943366 0.15355684 0.14976607 0.08324207 0.19489455 0.16052914 0.1523209 0.10504062 0.046144962 0.11874299 0.14820258 0.13745812 0.114189014 0.35752895 0.18991417 0.2488651 0.24590594 0.11333056 0.02334611 0.08467561 0.24631217 0.3373356 0.3834884 0.10096939 0.07506627 -0.03147312 0.1468211 0.08791703 0.10915381 0.37824205 0.25361007 0.21006572 0.19037223 0.23267452 0.50878024 0.41835672 0.31401956 0.2587428 0.5532172 0.5008048 0.5657265 0.7189994 0.7294197 0.7268442 0.3279938 0.4266877 0.7171102 0.71208906 0.23909824 0.26384464 0.19382755 0.6390866 0.6964352 -0.021582754 0.7061539 0.06433502 0.6284463 0.3686969 0.5841348 0.692596 0.14501981 0.67590797 0.012342498 0.60989475 0.5502701 0.09227765 0.042215273 0.1049112 0.25156164 0.11132861 0.41268665 0.2689706 0.29245123 0.34693837 0.39529356 0.30135965 0.5045372 0.4992792 0.6059041 0.526827 0.4289577 0.30940914 -0.019504834 0.25800815 0.16660194 0.4752555 0.43499848 0.38311654 0.545647 0.5939849 0.7254487 0.6707277 0.6866949 0.72863185 0.22111078 0.03169726 0.09835102 -0.036421306 -0.06725488 -0.008268282 0.35498214 0.38512552 0.33549654 0.5411687 0.66812646 0.12204327 -0.11918555 0.08327202 0.0717518 0.27446586 0.5456369 0.6852381 0.57052046 -0.20422395 -0.16648044 -0.09250509 -0.10255039 0.52384406 0.7477462 0.6801474 0.48930174 0.414268 -0.14524654 -0.1277095 0.16057828 0.286676 0.37801534 0.46932897 0.39945504 0.38905153 0.3508863 0.6979984 -0.16314676 0.47342783 -0.24325994 0.40200913 0.12233819 0.2546065 0.39860177 0.16383432 0.1023084 -0.18864532 0.3860358 0.44292885 0.12917766 0.097248554 0.65874517 0.7255707 -0.0073386766 0.7513406 0.8008698 0.73617804 0.80596036 0.4846107 0.3532528 0.75867075 0.80211556 0.56638753 0.610591 0.6250939 0.7633654 0.6439919 0.69492716 0.17283043 0.6871737 0.09903896 0.66889036 0.6404948 0.5496212 0.50723356 0.40260622 0.1798439 0.60398114 0.54706025 0.43051794 0.32162347 0.14436844 0.2142125 0.26666278 0.1411398 0.031173792 0.26140067 -0.06474581 0.05352801 0.14159952 0.1088988 0.15476276 0.011372189 0.027856203 0.16413656 0.16846389 0.19811645 0.17156817 0.15830295 0.15460041 0.15839036 0.17804444 0.23527244 0.18623006 0.2970436 0.29840082 0.23420087 0.15858847 0.15194827 0.13662344 0.04035695 0.16210565 0.23284927 0.24047625 0.14056231 0.12190155 0.006718211 0.29308742 0.2905127 0.36954233 0.35980767 0.5532366 0.35406896 0.2758358 0.33534288 0.3933744 0.5996645 0.60477954 0.4658301 0.37767383 0.27333072 0.3035306 0.6327918 0.6140988 0.51867527 0.38368994 0.525877 0.69798875 0.76776975 0.7636113 0.47214058 0.67555594 0.7708985 0.74800324 0.25841942 0.31393403 0.6961659 0.228026 0.13891472 0.49522683 0.6239063 0.6547352 0.12333611 0.6706037 0.68109983 0.6502565 0.5170731 0.4485417 0.6219402 0.6007288 0.6610364 0.6621399 0.06695851 0.661094 0.5925472 0.53801334 0.043418914 0.42890543 0.28912157 0.19340877 0.13992533 0.11261134 0.39905334 0.3804018 0.57363 0.5658025 -0.012576252 0.38589114 0.37805635 0.35961622 0.31165424 0.24219064 0.3777573 0.4085921 0.35399917 0.24551225 0.5558595 0.5474381 0.51392156 0.45873928 0.08693034 0.39755416 0.24855083 -0.0055446327 0.20925081 0.3243932 0.2898606 0.2423321 -0.09523296 -0.17209627 -0.20451246 -0.22316536 0.20248921 0.20443459 0.17051484 0.41527602 0.49114755 0.54982287 0.5528385 0.5764423 0.47712278 -0.054537773 0.0016398281 -0.033843294 -0.1121787 -0.19340935 0.012207434 0.092951216 0.2825358 0.15212479 0.46549442 0.52681565 0.5702524 0.5588159 -0.12492532 -0.12720269 -0.20021391 -0.0994028 0.18520416 0.15947819 0.10486071 0.44234955 0.5569087 -0.11656603 -0.051974073 0.01538346 0.40977722 -0.042975813 0.22885604 0.34168297 0.4167444 0.22174284 -0.034628384 -0.11404149 0.17779921 0.24661359 0.112855434 0.09088761 0.2407757 0.30692798 0.25676653 0.21478546 0.43360275 0.20235884 0.53361344 0.5852264 0.022952065 0.5847602 0.65037906 0.16782358 0.5506079 0.65559345 0.4575616 0.37491143 0.40705162 0.55693424 0.6510691 0.5219549 0.21502477 0.6047554 0.23063722 0.6272855 0.18931721 0.6321883 0.14762035 0.61456895 0.5903737 0.14648867 0.5780153 0.497523 0.4280908 0.12225779 -0.123785794 -0.14923748 0.20833965 0.41348112 -0.013850361 -0.1718616 -0.19176298 0.16299142 0.1942354 -0.15520695 0.002447185 0.07296368 -0.024194751 0.01250818 0.07523842 0.7949618 0.7945841 0.09658168 0.039078157 0.7880584 0.7750131 0.75448936 0.1751192 0.18769728 0.06430169 0.034253705 0.04420504 0.20091353 0.2108117 0.77266115 0.7637399 0.7471731 0.18221983 0.17333634 0.15770411 0.11743126 0.08390121 -0.019664504 0.044992164 0.41066796 0.35083055 0.43214625 0.4392671 0.68866295 0.6660489 0.37789634 0.48912203 0.24712068 0.31748796 0.37546617 0.6086532 0.7502994 0.7464679 0.7178043 0.59068406 0.54210687 0.4622227 0.3175533 0.1996313 0.19852969 0.5617761 0.7880391 0.80127466 0.7637728 0.46919408 0.37575912 0.33312368 0.4780044 0.5485159 0.6417645 0.8162945 0.8018497 0.74784875 0.7326337 0.79601216 0.82913953 0.794943 0.64778864 0.6642976 0.71678984 0.7475577 0.6373852 0.7235606 0.76301396 0.7338227 0.62471867 0.69548965 0.738233 0.6834449 0.62796855 0.69068855 0.6991085 0.66452366 0.5506772 0.57992744 0.75435877 0.36331072 0.44830352 0.65375155 0.6455683 0.25145495 0.30