# vtk DataFile Version 2.0
Really cool data
ASCII
DATASET POLYDATA
POINTS 1074 float
-6.675678 16.27027 89.60193
-6.885703 16.888231 89.17731
-6.876925 16.686129 89.53795
-6.8505692 16.747656 90.31138
-6.743885 17.39386 88.94194
-7.073707 17.282253 89.61718
-6.948602 17.325348 90.235374
-6.6681604 17.399487 90.67966
-6.7461023 17.874935 89.21237
-6.8680964 17.853477 89.61234
-6.7780805 17.936232 90.047485
-6.3562346 16.193514 88.91274
-6.0095935 15.560204 89.520164
-6.255543 15.879919 90.44902
-5.95074 15.866295 90.94527
-6.2582097 16.559666 91.0403
-5.898938 17.23508 87.94257
-6.473251 17.405882 88.57852
-6.143593 17.30196 91.119156
-6.4626274 18.051916 89.07389
-6.3923993 18.2437 89.53194
-6.392661 18.163559 90.14581
-6.0650396 17.801416 90.931854
-5.3062344 15.281072 88.7492
-5.1129184 15.261287 90.975494
-5.4079585 16.129057 87.76491
-5.442504 15.581337 91.22158
-5.0542874 15.955642 91.78698
-5.223106 16.706121 87.319756
-5.2691884 16.568985 91.81481
-4.9810834 17.559572 87.27574
-5.437247 17.53574 87.5865
-5.2319665 17.470093 91.55735
-5.239657 17.242424 91.66666
-5.1355777 18.011904 87.67622
-5.3825855 18.29551 88.26583
-5.488966 18.378284 90.31259
-5.6073904 17.986637 90.97441
-5.386076 18.617138 89.50354
-3.9062605 12.238276 86.9027
-3.7465744 12.677491 86.25883
-3.9616082 12.564911 86.772224
-3.9996665 12.336253 87.08919
-3.7100875 13.119425 89.63279
-3.9954073 13.231869 86.441795
-4.009428 13.6498375 89.66452
-4.4697495 14.177023 87.42662
-4.1327243 14.749839 90.700424
-4.4892473 15.030193 91.05342
-4.0643363 15.4075165 87.02692
-4.556993 15.461104 91.5381
-4.4369555 15.6779995 91.72235
-4.6386104 16.923191 87.069786
-4.549691 16.561886 91.99466
-4.5803456 17.77257 87.15413
-4.617505 17.296803 91.769745
-4.7441993 17.943636 87.27831
-4.6321726 18.203783 87.58294
-4.868145 18.316662 90.7075
-4.4564805 18.085117 91.1308
-4.0277276 18.688353 88.01943
-4.4460034 18.751368 88.44891
-4.352901 18.85708 89.47853
-4.362743 18.691845 90.10844
-2.937632 11.408404 87.73239
-2.8907018 11.386784 88.12996
-3.129252 12.171497 86.15701
-3.1076741 11.851571 86.57951
-3.4424262 11.751203 87.467094
-3.1549888 11.733728 88.5156
-3.0166168 11.758418 88.81437
-3.3116908 12.411206 86.09046
-3.461826 12.483492 88.90527
-3.0863342 13.348006 85.7153
-3.4918513 13.386053 90.014465
-3.4472442 14.238744 90.700516
-2.912693 14.597397 86.17753
-3.4803722 15.779632 91.80572
-4.0359087 16.173481 91.99928
-3.8447032 17.676292 91.564896
-3.4107742 18.367826 91.044304
-3.6728206 18.669598 87.9375
-3.5520053 18.966793 88.4898
-3.3934069 19.17276 89.39233
-3.0572734 19.142025 90.00338
-2.1365445 11.429411 86.56218
-2.597147 11.317093 87.54796
-2.6191394 11.31183 88.14349
-2.4623816 12.033093 86.00481
-2.6899343 11.614589 86.68573
-2.5117202 11.494477 88.644196
-2.4067974 11.768908 88.96927
-2.2584236 12.703916 85.638954
-2.6143227 13.015942 89.99482
-2.532981 13.620783 85.40569
-2.7062044 13.358683 90.285286
-2.4972448 15.553788 91.77491
-2.228486 16.727585 92.058136
-2.0686917 17.360071 92.00295
-2.0512679 18.395622 91.37495
-2.0327086 18.058475 91.71468
-2.4074256 18.893307 88.2245
-2.5279362 19.087723 88.84514
-2.6891007 19.193508 89.55599
-2.3819366 19.026062 90.240776
-2.144855 18.61248 91.03833
-1.375238 11.392046 86.68881
-1.6389858 11.292281 87.656586
-1.9566343 11.283783 88.18499
-1.6999755 11.840495 85.88884
-1.5322113 11.526779 86.31807
-1.3164046 11.8171015 88.883156
-1.2709819 12.713919 85.206795
-1.6397713 13.010016 90.06274
-1.2379355 14.324128 85.11792
-1.8311192 15.739951 91.753685
-1.3358824 16.68437 91.998665
-1.26742 17.2392 87.562836
-1.4408011 17.394756 92.03758
-1.3668617 18.316505 91.41248
-1.541407 17.974752 91.781494
-1.6331687 18.610477 88.57127
-2.1557767 19.155983 89.54295
-1.5435715 18.787188 90.28185
-1.5919607 18.562128 91.00403
-0.8362583 11.365097 86.894035
-0.7838418 11.770789 85.75182
-0.09992422 11.587845 87.301414
-0.4029798 11.714736 88.3147
-0.0754533 12.564372 89.390366
-0.31420487 12.763896 89.635124
-0.9496628 13.831573 84.956406
-0.46668458 13.77489 90.28512
-0.57142395 14.980774 91.11836
0.42669 15.854466 78.95103
0.41293788 15.561118 79.676155
0.10987663 15.507263 82.38562
-0.18556528 15.461808 91.21944
-0.88194144 15.9174795 91.63705
0.31854117 16.713488 78.35218
0.25553402 16.537144 79.361885
-0.8214736 16.534533 91.84876
0.35842288 17.419441 78.167534
0.25087458 17.391554 78.656494
0.3994386 17.491505 79.98672
-0.42816532 17.323732 91.64348
-0.73988736 17.392992 91.83284
0.30796736 17.828516 78.95178
0.40940496 17.93574 79.50813
-0.3127351 17.95305 89.7757
-0.63555074 18.231297 90.7371
-0.7030638 18.104187 91.258766
-1.0169666 17.92759 91.73908
0.034775406 11.456303 87.25968
0.95857704 12.2535515 85.51926
-0.053548634 11.557918 86.74038
0.33810338 11.854416 88.2256
0.55441654 12.576391 89.33612
0.40937883 13.125528 89.72732
1.3926475 13.957422 79.21384
0.7391862 14.809857 79.93475
0.6216901 14.927219 80.84896
0.848298 14.554436 81.288704
0.23376419 15.110894 90.88229
0.73479736 15.714252 78.444214
0.34254932 15.760184 91.031815
1.2340155 17.026295 77.33372
0.8328338 16.595083 77.80209
0.4849741 16.772356 83.31014
0.55272746 15.82897 85.33042
0.30645433 16.587322 91.07534
0.7963582 17.476768 77.78157
0.77392995 17.514238 81.97202
0.7553103 17.114342 83.702675
0.332729 17.204203 88.814255
0.61488575 17.137417 89.61319
0.31334296 17.335213 90.36994
0.016648144 17.310225 91.07574
0.83916664 17.866915 77.907074
0.6394507 18.185669 78.66361
0.49517167 18.127384 79.12226
0.6784323 18.071306 80.29255
0.97490007 17.952599 80.97924
1.3509252 17.954271 84.43174
0.077581555 17.698328 89.95821
-0.2983833 17.856142 91.10872
0.9115342 18.70847 78.89234
1.345997 19.283512 80.144264
1.4725499 11.506211 86.04203
2.0339127 12.989492 78.73787
1.9655207 13.025559 79.41045
1.5773811 12.800825 88.77642
2.0152874 13.59223 78.15383
1.5783505 13.579858 79.241394
1.5486991 13.80435 89.239075
2.2552373 14.211609 77.833755
1.4529617 14.1702585 78.673706
1.2778472 14.502273 89.76243
1.3426212 15.907875 77.65365
1.1570065 15.628016 90.45547
0.82289785 15.888783 90.73206
1.7659475 16.568808 76.915886
1.3968681 16.540237 77.39131
1.3532805 16.373713 89.67372
1.0466425 16.327322 90.38058
0.7151439 16.275736 90.80772
1.9727911 17.389872 76.6881
1.1678951 16.912308 87.65017
0.72192097 17.179028 89.73183
1.9210858 18.023867 76.97546
1.5639789 18.22685 77.43552
1.6135504 18.051966 84.62709
1.8197314 18.241053 84.79856
2.0203238 18.889091 77.755775
1.5647609 18.832718 78.234
1.8103311 19.347347 79.24216
2.2068837 20.54557 79.90627
1.9045092 20.530083 80.69596
2.098334 20.826561 81.27718
2.2268198 21.226547 80.48216
2.29416 21.06599 81.43117
2.6418247 11.034707 85.76464
2.7219803 11.005872 86.49725
2.6014662 11.140632 86.88105
3.2049098 12.08022 77.792244
2.7154903 12.265035 79.26612
3.0511897 12.2333975 83.76485
3.3123243 13.016077 76.23296
3.1164231 12.986931 76.59264
2.8865068 12.624836 77.637596
2.5945933 12.629865 80.034294
3.14498 13.209463 76.403366
2.4782667 13.498488 88.61738
3.0308397 14.372932 76.73123
2.1645863 15.588301 88.62684
1.9373571 15.540533 89.08867
2.674091 16.814955 76.22688
2.0900931 16.442019 88.173325
2.7319171 17.426064 76.24637
2.2331188 17.123867 86.44565
1.9626259 16.682508 87.579735
2.553356 18.305918 76.78916
2.8590298 18.398746 84.71107
2.174023 17.814157 85.45076
2.4043694 18.706917 77.21902
2.8965936 18.888863 83.83288
2.9568913 21.19427 79.4867
2.5914152 21.048431 81.862335
2.4711022 21.792744 80.76383
2.625274 21.870024 81.02999
3.2788496 22.435102 81.73444
3.1037054 22.885948 80.7251
3.2394192 22.898254 81.31491
3.9371133 11.420004 78.66039
4.135647 11.44655 79.64217
3.8252604 11.300624 83.81092
3.5295227 10.781012 85.61786
3.5409405 10.72489 86.58369
3.896692 11.133816 87.273796
3.9150834 12.151569 76.62769
3.8156393 11.934332 77.3583
3.6608522 11.6645155 79.64987
3.9117274 11.749867 80.38379
4.2000265 11.6155815 83.31642
3.3992898 11.3802395 87.46434
3.4199455 11.7778845 87.71696
3.8366184 12.756495 76.07451
3.4762702 12.502717 76.57428
3.583861 13.382212 75.94339
2.7929633 13.817623 88.38469
4.02856 14.316793 75.65402
3.7469697 15.066481 76.19516
3.479044 14.969494 87.94683
3.4641771 16.739271 76.077286
3.3549838 17.31314 76.15644
3.3470309 17.97595 76.41412
3.5515704 18.09941 76.593346
3.4030979 17.999357 85.1722
3.4894118 18.675894 76.99684
3.527883 19.251856 77.77629
3.5210302 21.54162 82.30415
4.0381975 22.175686 79.30345
3.4920654 22.5977 79.67221
3.721285 22.506786 81.93757
3.942996 22.984537 79.588
3.6593792 23.384735 80.58065
3.7485018 23.312622 81.191826
3.946703 22.895884 81.84872
4.2661095 11.323317 78.71425
4.6754837 11.301628 79.40582
4.918333 11.064373 80.63347
4.8936353 10.991118 81.67371
4.7406006 10.9220705 83.34547
4.023317 10.652657 85.75197
4.433822 12.313815 76.20928
4.6744423 11.8465395 76.84769
4.407243 11.594277 77.55321
4.193334 11.666889 87.512634
4.0032043 11.722645 87.69958
4.4405255 12.87236 75.78115
4.770027 12.481514 87.720345
4.8207498 13.736784 75.416214
4.1362042 13.362256 75.63513
4.2846956 13.59802 87.844826
4.8499475 14.663059 75.405075
4.8101707 14.861889 75.461105
4.075391 14.629158 87.73523
5.0125575 15.080454 75.42505
4.9768004 15.342185 75.56351
4.5363455 15.294104 86.69835
4.574743 16.392124 76.32234
3.8726108 15.92802 86.85223
4.455778 17.029705 76.65474
4.364105 16.967667 85.71045
4.3173065 18.831863 77.15829
4.216889 19.70583 77.8899
4.5159 21.453516 82.57338
4.554511 22.37624 82.262314
5.3166566 23.44047 78.237144
4.503899 23.434183 81.408875
4.442835 22.943026 81.87251
5.316348 24.310331 78.77309
4.535779 23.713554 80.42428
5.8296266 10.344054 83.21271
5.702839 10.657567 81.81134
5.926221 10.532824 83.95041
5.3462567 12.210307 76.22843
5.586196 12.1789665 76.37177
5.5237384 11.699791 77.43831
5.60312 11.513751 78.410614
5.7018094 11.755303 87.06683
5.442677 12.785808 75.89609
5.6245704 12.512365 87.380684
5.3603735 13.622549 75.46271
5.218106 13.203082 75.61072
5.6958823 12.99389 87.376434
5.454424 14.502166 75.37048
[...]
POINT_DATA 1074
SCALARS features_00 float 1
LOOKUP_TABLE default
0.84165883 0.8290647 0.8540342 0.912714 0.8097078 0.862656 0.9003881 0.91098523 0.832358 0.8649837 0.8778793 0.7605673 0.7583568 0.8524751 0.7908453 0.9049461 0.6081153 0.75321865 0.86552966 0.7976726 0.82967645 0.85480404 0.8255811 0.6122746 0.5088471 0.52216697 0.6305512 0.6579507 0.47480267 0.76824033 0.5203557 0.54317546 0.73141694 0.7529439 0.5481716 0.61573017 0.7349059 0.7469424 0.72684497 0.577525 0.54954517 0.561286 0.5776556 0.32102033 0.5117472 0.25254613 0.44462165 0.30251932 0.39938125 0.36260876 0.5016443 0.53351784 0.45602167 0.6797399 0.5031153 0.6823687 0.5284972 0.5427663 0.63049215 0.59411645 0.5574592 0.57700425 0.57411355 0.56759286 0.58081245 0.56312025 0.5711662 0.5832024 0.601186 0.53797567 0.5078468 0.5627214 0.46055025 0.5210116 0.27675533 0.20098954 0.42125392 0.46037948 0.5761165 0.567607 0.49451506 0.52547014 0.53382814 0.5120158 0.4899277 0.56193113 0.5735706 0.5540105 0.5660676 0.58150226 0.5154151 0.47942942 0.55163634 0.3649883 0.51891387 0.29397947 0.4290717 0.57183474 0.6063676 0.56358844 0.58923465 0.49132413 0.50051594 0.49311733 0.49761057 0.5349773 0.51438856 0.5212242 0.521397 0.539586 0.5280788 0.46853727 0.55498374 0.3924585 0.47356766 0.49323323 0.6104922 0.51577604 0.64544284 0.61477196 0.6324388 0.5110618 0.4946128 0.5313909 0.57132363 0.4721499 0.44850874 0.40838185 0.45367938 0.37709504 0.36161017 0.51082826 0.32331866 0.4182431 0.4199199 0.31563663 0.3154063 0.4812321 0.53524417 0.5225208 0.5142734 0.59668976 0.5351163 0.52577674 0.45157993 0.63822675 0.6491091 0.50345486 0.4584181 0.48853824 0.5909116 0.6291748 0.6472807 0.38770142 0.26538756 0.37858716 0.40663114 0.35770383 0.30718583 0.2668633 0.20981485 0.21656 0.22778088 0.42339796 0.3988694 0.4962469 0.5448203 0.517497 0.23879576 0.097992346 0.56062025 0.5424123 0.23984087 0.2274049 0.29515198 0.43680677 0.5436615 0.6007814 0.5353509 0.49459255 0.47194427 0.35249066 0.25222227 0.28225353 0.5066204 0.6204189 0.4395718 0.2672565 0.29693052 0.37662756 0.34704152 0.280139 0.36052167 0.29616612 0.24610731 0.33810264 0.2766016 0.33473313 0.42069218 0.4429791 0.482498 0.5237119 0.5138931 0.40663695 0.48005778 0.5172999 0.5633314 0.13156116 0.45019242 0.5498969 0.5376085 0.28346497 0.27848792 0.48690778 0.46677858 0.33416027 0.30555266 0.32409316 0.37523013 0.40325665 0.426112 0.33534187 0.4505413 0.45808083 0.49427468 0.41521528 0.14435954 0.56058156 0.52694285 0.46874034 0.38873667 0.53486687 0.22323184 0.47614938 0.28057545 0.32961246 0.4741218 0.23163569 0.4924555 0.09504128 0.14571953 0.49931273 0.2779566 0.23204122 0.49156356 0.3017048 0.4072919 0.45328116 0.49956712 0.52323383 0.5627834 0.6245178 0.5799857 0.43065733 0.2876474 0.15008721 0.39178336 0.50235856 0.48887715 0.58156157 0.54744196 0.3193525 0.21671548 0.058018513 0.48608434 0.4261974 0.5950105 0.5596572 0.5755573 0.22403264 0.5178559 0.404176 0.17834237 0.32273498 0.38020805 0.40382582 0.37327445 0.2820809 0.3738389 0.32657486 0.51812965 0.37694728 0.5689865 0.53146476 0.51825863 0.6146524 0.55934083 0.51745707 0.428613 0.2993172 0.070915885 -0.03873355 0.04712484 0.4277669 0.61748004 0.6048516 0.54954904 0.40770262 0.3999262 0.6178385 0.30953282 0.5726965 0.5989488 0.2300728 0.4514378 0.41726965 0.16400501 0.37590718 0.33019745 0.08915809 0.21226406 0.09472574 0.21120983 0.11635304 0.25042552 0.1583589 0.41611394 0.44813704 0.44390333 0.47698873 0.47317842 0.5620424 0.49993867 0.019963216 -0.008491548 0.06119399 0.61845386 0.60515344 0.56606567 0.46776044 0.2694732 0.6066003 0.2399919 0.5705551 0.6008415 0.21363792 0.45654556 0.18601368 0.35293478 0.2513402 0.20297931 -0.08690916 0.13457415 0.3419171 0.04449569 0.04615642 0.33130226 0.30674922 0.36066663 0.37070888 0.33613384 0.57031226 0.54386497 0.58034074 0.44902182 0.41538295 0.6288374 0.6324098 0.60507154 0.12835695 0.073635906 0.025991607 0.4698247 0.57825005 0.55076206 0.17829867 0.5440525 0.032228574 0.16280189 0.46877584 0.3527007 0.32283843 -0.124236785 0.19714765 -0.13091238 0.13421473 0.23557387 0.35166764 0.40314442 0.47768867 0.28281236 0.5806792 0.58936846 0.47985357 0.33423233 0.62225604 0.6563897 0.65365005 0.6361736 0.68741757 0.6883767 0.6428188 0.21894139 0.2142848 0.22388612 0.1383898 0.22979155 0.28357598 0.34838045 0.13077387 0.10479665 0.33771282 0.25118527 0.45952767 0.49126554 0.21743 -0.15788922 0.23885354 -0.14986955 0.2162466 -0.11099781 -0.08376582 0.19205339 0.22602174 0.24364384 0.5524204 0.3212988 0.6321594 0.55554014 0.5223001 0.69082224 0.6902095 0.6233957 0.48485333 0.47891587 0.44385433 0.26084024 0.25495747 0.26442865 0.2994424 0.2631138 0.171873 0.17051086 0.25731355 0.2819854 0.120137185 -0.025859661 0.21638635 0.021909647 0.24990666 0.2568848 0.22072667 0.15613404 0.2192878 0.17651829 0.30800056 0.20327875 0.3433139 0.21569614 0.3958403 0.4182039 0.26616526 0.50480616 0.6353749 0.6543788 0.5497286 0.50691426 0.6842356 0.6800764 0.59946847 0.46193877 0.4562458 0.48170376 0.4764647 0.44418764 0.39220285 0.45696828 0.39608395 0.39536947 0.37281007 0.3097651 0.3197536 0.06081079 0.1654011 0.2488096 0.21812277 0.25792536 0.09480663 0.16900186 0.124901906 0.15748873 0.17560232 0.2659495 0.25535893 0.2686775 0.15342347 0.16482766 0.23665762 0.33078092 0.20069957 0.35166678 0.22726902 0.39120626 0.5080724 0.6005787 0.57146883 0.52959156 0.66135585 0.63468134 0.571733 0.87000716 0.82762975 0.79830515 0.34072465 0.3505867 0.8891393 0.84497577 0.8144678 0.7126453 0.52850735 0.38982698 0.37779415 0.3736569 0.8982482 0.8418532 0.7822796 0.7056178 0.55000925 0.4535144 0.32674083 0.39243764 0.3558106 0.3845739 0.8891024 0.8567741 0.74387085 0.6749222 0.59844065 0.31908542 0.31272855 0.73911095 0.7153697 0.29690546 0.25620598 0.3356772 0.20921275 0.12305656 -0.0109217465 0.12723649 0.18028045 0.08736369 0.17293009 0.19015843 0.12835135 0.17268784 0.20897162 0.26525897 0.30406958 0.19209294 0.29586783 0.1819914 0.19377542 0.2896322 0.27288318 0.3781317 0.29629862 0.3672809 0.41209322 0.36985213 0.6306497 0.5434753 0.48190087 0.644486 0.6857914 0.62663805 0.5720534 0.70757926 0.67584336 0.63209605 0.71627814 0.86567867 0.834919 0.7678502 0.69115764 0.4737503 0.27012053 0.33674228 0.38786608 0.90903217 0.39860243 0.24363223 0.42249498 0.5052194 0.92656565 0.32842034 0.13025503 0.08066582 0.45035014 0.50118786 0.9149787 0.14663646 0.4224574 0.49395657 0.86905706 0.6644591 0.47191352 0.11533242 0.15375471 0.10171862 0.039750207 0.20413269 0.30642506 0.29519543 0.3340542 0.3440302 0.3204396 0.33905727 0.2678331 0.3209182 0.34138316 0.37469864 0.4811688 0.4398683 0.60275966 0.48424917 0.46596754 0.67981714 0.53963184 0.709607 0.7222272 0.6735575 0.6047816 0.6802628 0.7016357 0.6871054 0.56949675 0.5806238 0.5792129 0.4948821 0.4704732 0.48139563 0.4147928 0.7691444 0.66031224 0.54451245 0.4082994 0.0048425496 0.90360796 0.8097954 0.3797121 0.29597047 0.23746891 0.095023155 0.45734602 0.52335536 0.93210566 0.9296529 0.11799645 -0.10829908 0.58142424 0.6082633 0.934833 0.9172455 -0.044045612 0.62825453 0.9089439 0.6412478 0.8166671 0.7328106 0.453134 0.5390178 0.5722779 0.21290122 0.20510125 -0.03051345 0.15494889 0.12326377 0.24022374 -0.0002063252 0.3311283 0.37759832 0.09387578 0.25182658 0.6745726 0.60835785 0.35233432 0.30809724 0.38098514 0.35747188 0.34224063 0.3864904 0.3798685 0.38889447 0.41410768 0.22314721 0.35692796 0.55516654 0.38817924 0.56464267 0.58260405 0.4631566 0.40648147 0.6353012 0.54361445 0.47133958 0.6732304 0.6816544 0.52571356 0.6707894 0.70330906 0.7090672 0.6366924 0.57934153 0.72066176 0.7265844 0.69958496 0.7900358 0.7948756 0.79904795 0.7278641 0.7399299 0.7062519 0.6219732 0.5896973 0.5230582 0.45665294 0.5062305 0.45794013 0.40420496 0.5788671 0.49071681 0.4812791 0.38056633 0.79033047 0.39431572 0.1283759 0.013124336 0.84552616 0.60671484 0.79968816 0.6306499 0.63977134 0.8393171 0.6460922 0.8134792 0.6273482 0.6366486 0.5728948 0.56918573 0.1495737 -0.19942284 0.15189503 0.19008166 0.14188178 -0.031788543 0.28545153 0.38153726 0.52625895 0.6612326 0.7497635 0.43353218 0.76230407 0.4489662 0.7403581 0.6926287 0.346095 0.45005828 0.45315498 0.6191318 0.6518494 0.65417624 0.7959577 0.8135339 0.8395425 0.8329358 0.7666638 0.7790885 0.66436535 0.6011393 0.55699414 0.59137774 0.53940636 0.48144734 0.39510578 0.7115479 0.47284576 0.46338952 0.53807503 0.7513578 0.7148836 0.5899877 0.69008666 0.6163863 0.5314551 0.631377 0.6023284 0.48769295 0.63741285 0.64012635 0.44861448 0.5873262 0.6128234 0.22926462 0.48423374 0.5538726 0.098835975 -0.0065118894 0.1654006 0.25914136 0.27002805 0.31072465 0.19928011 0.15824036 0.27582997 0.38170367 -0.04002767 0.6497003 0.5196648 0.22596654 0.75372684 0.38973367 0.8032044 0.43779916 0.41625878 0.7984184 0.35384864 0.37687352 0.45776284 0.4567378 0.4456089 0.7855005 0.74936557 0.43021405 0.45756263 0.46205455 0.72825783 0.7215618 0.6756891 0.6391526 0.7127956 0.69255793 0.7727858 0.7620761 0.81025255 0.81123805 0.7703467 0.534135 0.7522209 0.49968845 0.39294672 0.4102441 0.39161122 0.3565663 0.5417863 0.55592495 0.47610468 0.4246742 0.38157022 0.5616715 0.57068646 0.5713792 0.6058936 0.46589026 0.629971 0.3655715 0.6249677 0.17835757 0.124991976 0.5444292 0.6067835 0.121330075 0.5246328 0.12356916 0.094619475 0.33570445 0.20171595 0.07388227 0.3420144 0.3946832 0.25135037 0.62812304 0.555061 0.3953715 0.27054787 0.78193414 0.6918184 0.4176585 0.8153899 0.42810926 0.3699124 0.14528778 0.36137348 0.42886215 0.7998618 0.4976874 0.37051567 0.4404267 0.4445746 0.44061068 0.77962136 0.7639099 0.7340523 0.5442213 0.7397658 0.7084943 0.6609226 0.6992043 0.687582 0.6596812 0.6488367 0.6362543 0.6206418 0.58759695 0.5441804 0.5400977 0.48746595 0.43937427 0.45855185 0.3900532 0.39223316 0.38416857 0.37815273 0.49252304 0.58145547 0.39257115 0.3617359 0.6163446 0.31673017 0.26026234 0.62821376 0.26589122 0.18657711 0.5303182 0.6220854 0.3137167 0.12949483 0.1374152 0.19110191 0.2035255 0.37555757 0.393368 0.3592202 0.3762328 0.37903953 0.1814279 0.37295675 0.14024219 0.17049286 0.71540886 0.63050264 0.52435887 0.25259915 0.3248937 0.4663945 0.4415376 0.7925213 0.7543958 0.67970866 0.5568713 0.41183674 0.4501124 0.7853989 0.7584804 0.69921863 0.532267 0.46798328 0.75570536 0.7157212 0.6183775 0.5582001 0.586506 0.41741517 0.4854393 0.3442617 0.29746273 0.18193305 0.20774744 0.356838 0.38406295 0.32131225 0.14682834 0.33930784 0.3602392 0.38351524 0.4894782 0.27563575 0.4914813 0.22058548 0.41935632 0.47340304 0.5536752 0.21493015 0.14130343 0.21853328 0.35769174 0.46402085 0.59949654 0.10525871 0.10530571 0.092834696 0.24871911 0.1614214 0.23155439 0.25342286 0.3066001 0.46425712 0.14579496 0.4730158 0.1426819 0.51735306 0.48391104 0.33163616 0.29765558 0.28386804 0.32652515 0.36177415 0.42019427 0.32082734 0.34983307 0.40762258 0.43908632 0.45311475 0.24506626 0.22353345 0.22123192 0.29393867 0.15321107 0.21521376 0.29930562 0.36484963 0.20957956 0.17951281 0.18377644 0.30899382 0.34317148 0.23919195 0.2575003 0.4154848 0.2254595 0.29103145 0.3713069 0.29228264 0.32460502 0.32016557 0.5340859 0.533236 0.33024395 0.56982946 0.5496936 0.4245184 0.59642255 0.6064881 0.6081289 0.5326375 0.29402643 0.32175192 0.28523117 0.24314818 0.3294015 0.31730947 0.34519666 0.30129683 0.55862737 0.49407375 0.50210404 0.54305553 0.5594283 0.50792533 0.55111897 0.5749198 0.5761521 0.5379169 0.583797 0.5982851 0.6037966 0.5533517 0.5969518 0.62749183 0.62997544 0.6171304 0.580557 0.57620776 0.58019614 0.5921904
SCALARS features_01 float 1
LOOKUP_TABLE default