# vtk DataFile Version 2.0
Really cool data
ASCII
DATASET POLYDATA
POINTS 6678 float
-2.7891378 5.0024 65.97939
-2.89163 4.9171996 66.53073
-2.7715628 4.660526 67.417564
-2.6733568 4.6788154 67.99324
-2.832246 5.5433927 65.81335
-3.0605943 5.457888 66.396736
-2.9093342 5.1541395 67.62448
-2.5485828 5.144376 68.07519
-2.7854252 6.4693737 65.75746
-3.128783 6.3027296 66.58264
-3.021833 6.8959694 67.44121
-2.8331068 6.383634 68.000824
-2.6248975 7.570412 65.78224
-2.9042006 7.525002 66.54281
-2.9581244 7.481214 67.48324
-2.7496321 7.4710655 67.96008
-2.7554672 7.934962 66.606766
-2.7749643 7.964061 67.29891
-2.685874 7.8574424 67.81421
-1.618339 -1.8842231 81.222664
-1.7242273 -1.117148 79.8445
-1.7872558 -1.1738067 80.49752
-1.7470584 -1.3261421 81.30469
-1.6478286 -1.1488227 81.996315
-1.6210334 -0.33875528 79.137344
-1.7871133 -0.39945734 79.56137
-1.8753861 -0.48654374 80.45071
-1.7817203 -0.46143034 81.372925
-1.6164558 -0.54900336 81.9907
-1.7108855 0.058055878 79.73435
-1.7441835 0.047835425 80.25086
-1.6621845 -0.033726394 81.38871
-2.105473 3.9868512 66.64307
-2.0497231 3.7609322 67.55352
-1.9861768 3.7372804 68.27468
-2.1210456 4.1910806 68.97573
-1.9870834 4.9391313 65.3233
-2.3604004 4.8049064 65.68751
-2.603714 4.5358353 66.30003
-2.4877687 4.7900705 68.6619
-2.169689 4.6282015 69.08547
-1.8164295 5.0247493 69.7041
-2.2985284 5.5948668 65.28682
-2.4885092 5.6199718 65.42718
-2.5239587 5.575299 68.60909
-2.1316233 5.390207 69.28538
-2.1885386 6.6532207 65.24478
-2.4807446 6.7495685 65.551346
-2.5418305 6.1341543 68.7037
-2.0570798 6.3162575 69.051956
-1.9660393 7.46452 65.237785
-2.4128563 7.463263 65.517456
-2.5135977 7.4779615 68.29194
-2.2286623 7.1036406 68.68209
-2.1534166 8.1462 65.76121
-2.3111196 8.364683 66.45219
-2.4408984 8.3182 67.42972
-2.2812915 8.113485 67.99353
-1.9835371 8.657459 66.65814
-2.0061307 8.5914 67.395386
-0.8547399 -2.718071 82.28285
-1.179565 -1.8717681 79.89391
-1.1646333 -2.265579 80.54704
-1.4186169 -2.090716 81.406044
-1.1478342 -2.2218945 82.01228
-0.6355439 -2.5329108 83.010956
-1.1267155 -1.1895564 79.04601
-1.3749608 -1.4427246 79.53098
-1.5249755 -1.7404879 80.30367
-1.4149535 -1.289997 82.30156
-1.0964074 -1.3593123 82.75886
-1.3729639 -0.51940936 78.95762
-1.5963757 -0.7984795 79.25783
-1.357899 -0.35841554 82.36079
-0.99527764 -0.7487868 82.84481
-1.2922163 0.026709482 78.97151
-1.4821019 0.30023965 79.46718
-1.4733988 0.4534223 80.27645
-1.3398287 0.30254793 81.532906
-1.1886762 0.17730221 82.11027
-1.0476454 0.718809 79.71006
-1.0174584 0.7621788 80.44431
-0.97405344 0.6786392 81.29088
-0.94778246 3.2323878 67.09667
-1.3742244 3.1876788 67.680336
-1.3675596 3.175066 68.25762
-1.5206923 4.1782856 65.94238
-0.7195636 3.6517 70.183784
-1.3274684 4.8788166 65.24499
-1.3581694 4.7153673 65.49895
-0.996742 4.355588 70.35901
-1.5260788 5.783164 64.98047
-1.1531086 5.3155036 70.15119
-1.406163 6.5140224 64.99974
-1.3562491 6.201836 69.57652
-0.9582647 6.6726103 69.67507
-1.4739801 7.397377 65.141304
-1.6015338 7.482377 68.80831
-1.608264 7.9188266 65.30312
-1.6855732 8.376625 65.70972
-1.7209018 8.526143 67.69964
-1.5133119 8.196159 68.330475
-1.6876583 8.632324 66.00782
-1.5593052 8.741667 66.5565
-1.0506493 8.849763 67.19528
-1.3497335 8.592343 67.89628
0.102787465 -3.623804 82.68301
-0.30012175 -2.8462636 80.528305
-0.375322 -3.0811086 81.80703
-0.36347222 -3.2297409 82.39556
-0.18251854 -3.177195 83.28594
0.08552602 -3.2072845 83.920105
-0.23739101 -2.390229 79.90118
-0.49945897 -2.3516767 83.38054
0.14339411 -2.4755707 84.42421
0.3346256 -2.095638 84.71798
-0.4760899 -0.9531958 78.6364
-0.435406 -1.8971558 83.619995
0.19670448 -1.7593023 84.35098
-0.48644954 -0.5618645 78.57602
-0.038426816 -0.49140155 83.34532
0.4895667 0.6665579 65.828186
0.4788865 1.0359037 67.89543
-0.02303859 0.58056396 79.089096
-0.70921314 0.37721214 82.32462
-0.2871803 0.08986071 82.85581
0.4495141 1.6718333 68.24086
-0.7846704 0.6523191 79.128174
-0.41855133 0.8464381 79.63545
-0.50689197 0.94540596 80.45211
-0.58351463 0.8341054 81.36988
-0.40473044 0.6881312 81.997765
-0.6761093 2.9148316 67.79935
-0.19903988 2.739117 68.45515
-0.006076783 2.690987 69.32824
-0.8284466 4.156027 65.727844
-0.3433317 3.6075892 70.43724
-0.10869977 3.6600068 70.834496
0.37035656 3.6552029 75.87522
0.31676683 3.6307547 76.17907
-0.6251924 4.8245363 65.21373
-0.33919945 4.827025 71.13818
0.41466922 4.2964454 75.79947
0.3872739 4.21864 76.20712
-0.4413501 5.474707 64.995255
0.25498357 5.535355 71.55716
-0.52171636 6.174638 65.00221
-0.29693672 6.4994493 70.05904
-0.397615 5.8157334 70.71296
-0.8817953 7.2408857 65.1202
-0.38353303 7.5112066 69.01742
-0.8580502 7.9694843 65.34536
-0.6983896 8.256436 65.6097
-0.568828 8.237045 68.61713
-0.11011113 8.026285 68.97152
-0.96578217 8.700484 66.06231
-0.04227671 9.050727 66.80261
-0.22246175 9.119375 67.36286
0.16824874 9.109638 67.9414
1.3235164 -9.9145975 77.88039
1.2397825 -9.778667 78.22832
1.1828116 -9.03531 77.22635
1.0420434 -9.262011 77.64931
1.0435612 -9.478644 78.35072
1.0947206 -9.240202 79.395676
1.1946242 -9.25364 80.00046
1.133054 -8.474701 77.121216
0.76225567 -8.415382 77.670906
0.6561341 -8.486074 78.40261
0.8781519 -8.690329 79.34002
1.1517545 -8.4638 80.33622
1.3939247 -8.498018 80.80518
1.1691042 -7.7115183 77.24806
0.8230587 -7.7859387 77.78581
0.66969 -7.8028517 78.2699
0.7725357 -8.005761 79.163376
1.1516863 -7.618211 80.37607
1.2271242 -6.9473658 78.10575
0.92940253 -7.161806 78.71557
1.2542784 -6.4221654 79.205765
1.0617852 -7.0302687 80.1052
0.8899551 -4.034998 82.71207
0.44656485 -3.727236 83.537125
1.2253406 -3.765604 84.70616
1.1989557 -2.9824114 79.93448
0.40300998 -2.8156462 80.28724
0.44659996 -3.1730142 84.386345
0.9602896 -3.2498848 85.08054
1.2962565 -3.0310504 85.787834
1.2564698 -2.0900722 77.09926
1.3039577 -2.1676412 77.22041
0.8809772 -2.3707569 85.47611
1.1638441 -2.4674795 85.882614
1.2744098 -0.87180746 65.64865
1.2475569 -1.6740632 76.90126
1.025637 -1.2948225 77.855965
1.0304495 -1.6100323 85.458626
1.2711172 -1.8888268 85.98668
1.2288039 0.016983703 64.320335
1.1288393 -0.076722845 64.67782
0.81689465 -0.20634532 65.57041
0.91867685 -0.25852552 66.35428
0.9996114 0.09335336 67.48464
1.0331608 0.07299179 68.15585
1.055609 0.030797273 68.959625
1.4095453 -0.31788945 77.05541
1.0876367 -0.58000445 77.69697
0.26779002 -0.3069399 83.50591
0.7355502 -0.7467346 84.41292
1.2101603 -1.0784817 85.31741
1.2603468 0.2855658 64.26641
0.8823571 0.43778253 64.75495
0.6129106 0.5711248 65.445274
0.70188916 0.25264668 66.70306
0.7689798 0.4683312 67.172745
0.66036046 0.7085997 68.38626
1.0700926 0.5136452 69.26415
1.376894 1.0729012 76.46099
1.43436 0.3230249 77.81466
0.25238657 0.58728296 82.50778
0.7097424 0.36635375 83.08551
0.9659164 -0.14632079 83.9429
0.9345499 1.2605952 64.763756
0.6327829 1.3843613 65.624016
0.6260267 1.2207826 66.361305
1.0661051 1.2748088 69.43555
1.1742084 1.1635655 69.91776
1.2534108 2.3138077 70.88472
1.2823625 1.9442512 75.585434
0.94170964 1.9620583 76.398895
1.2889814 1.3327186 77.6381
1.0121112 0.7395104 78.88337
0.3893813 0.93645036 81.51887
0.6401137 0.79076827 82.48074
1.3203136 2.0043185 64.86095
1.2333198 2.726657 71.947945
0.8742446 3.103109 75.00826
0.7129352 2.805531 75.7425
0.5897581 2.7095704 76.46915
1.0335195 2.5048194 77.31052
1.3223436 2.1811073 77.7603
0.39460582 3.4213824 66.309135
0.66256046 3.375484 71.637955
0.7606068 3.734993 72.09176
1.3459135 3.6181023 73.303024
0.4977777 3.5816383 75.49574
0.7573396 3.6777873 77.10655
0.43929112 4.3003335 71.625534
0.66246057 4.417828 72.26964
0.9741466 4.4195423 74.82811
0.56457156 4.3974366 75.43124
0.5750607 4.463653 76.44752
0.98195505 4.4658675 77.03934
-0.11569186 5.8592405 65.12424
0.93828547 5.291055 72.19698
1.3451641 4.869202 73.028755
1.3708365 5.369374 74.66005
1.2932408 5.1724973 75.35401
0.9830853 4.979446 76.4473
1.1592307 4.921505 76.838104
0.21938284 6.450372 65.47968
1.2052159 5.768831 72.16484
1.316668 7.5236096 70.838196
1.2090547 8.59318 65.284386
1.2112511 8.582657 65.43778
0.65917206 8.527681 69.005745
0.67610866 9.098774 66.19005
0.6998126 9.493916 68.19889
1.2366297 9.3847475 68.88692
1.0897875 9.725037 68.098915
1.8693765 -9.757109 77.17704
1.704503 -9.965955 77.67004
1.7574351 -10.1008625 78.38468
1.769793 -9.924957 79.32928
1.9232411 -9.762549 80.18451
1.6082009 -9.330341 77.04249
1.4012157 -9.666304 77.43895
1.5319971 -9.31827 80.46804
1.8424239 -9.240706 80.87764
1.6991999 -8.590379 76.79441
1.5795205 -8.629081 81.0235
2.2278128 -7.913486 82.06677
1.4468048 -7.8047266 77.03645
1.5138917 -7.1048408 77.53285
1.6893744 -5.554837 79.421135
2.0224478 -5.412582 81.26228
2.21828 -5.047296 78.87364
1.6511005 -3.930995 80.28775
1.3312577 -3.9392393 84.415955
1.8089354 -3.8446233 85.72736
1.8786623 -3.8072803 85.93926
2.3935423 -2.9963799 71.11663
1.8373584 -2.757426 77.3468
1.3792739 -2.9926908 79.467415
1.6154864 -3.4176264 80.6409
1.5876949 -3.240541 85.98891
2.1434298 -1.779247 64.85095
1.9682148 -1.8072191 65.457726
2.1045706 -1.8477557 66.08039
2.3540351 -2.4537258 70.60741
2.3992717 -2.2907898 71.32134
1.6160158 -2.248962 76.785
1.4802135 -2.501747 77.41275
1.6621584 -2.328072 86.41391
2.0754685 -2.41244 86.66918
2.0810366 -1.1293621 64.28413
1.8531922 -1.2463835 64.66283
1.631112 -1.3858576 65.448555
1.4961101 -1.0107957 66.14934
1.8639681 -0.9558688 67.394394
2.080614 -1.394381 68.76239
2.219955 -1.6564263 69.80596
2.2111602 -1.3323389 70.398834
2.413999 -1.5002961 71.693
1.5038464 -1.6596429 76.43934
1.7592579 -1.6486818 86.364296
2.1141653 -1.6413077 86.61001
1.7162533 -0.14039674 64.091324
1.5753785 -0.64668256 64.49521
1.7568092 -0.41755718 69.612854
2.2161164 -0.14676912 71.00624
1.4812685 -0.900579 76.47781
1.6295545 -0.704121 85.39241
1.9370573 -1.0776436 86.1843
1.8093579 0.5706199 63.84347
1.8284787 0.30888388 70.465836
2.1433682 0.32891926 70.926956
1.8839287 1.1202545 75.60477
1.5035882 0.67368305 77.045235
1.9757118 0.5381881 83.3386
1.5461195 0.03853172 84.05087
1.9671996 -0.33789608 84.994354
[...]
POINT_DATA 6678
SCALARS features_00 float 1
LOOKUP_TABLE default
0.68203104 0.68854403 0.6301962 0.5597622 0.69181424 0.6971706 0.6123753 0.54541063 0.7316773 0.7746187 0.67692846 0.5749346 0.7858852 0.7973381 0.6753599 0.609469 0.7694075 0.69472224 0.63573796 0.62634104 0.71140456 0.71042037 0.67252016 0.63934374 0.74252737 0.75364494 0.7520052 0.7187594 0.6731603 0.7672811 0.7619053 0.7101318 0.63643783 0.5705086 0.51695234 0.4733764 0.64322364 0.65969205 0.67225266 0.4968003 0.46349558 0.41499165 0.6721503 0.68292713 0.49549997 0.44090968 0.69815195 0.73110425 0.49709994 0.44638038 0.7143353 0.7579807 0.56258583 0.4976459 0.75263286 0.7407345 0.6646916 0.59523165 0.68765336 0.63144875 0.48067868 0.6195592 0.58964753 0.5904995 0.5339045 0.44878462 0.63346756 0.6594646 0.6636275 0.59926975 0.5541677 0.71473706 0.7143307 0.63478935 0.579796 0.7444751 0.75611955 0.7356685 0.6660717 0.61674273 0.7057031 0.68279517 0.6323316 0.4519903 0.4685029 0.4105041 0.59784514 0.27420312 0.6093892 0.6047706 0.33117795 0.6331594 0.35656863 0.6329279 0.3617559 0.29775918 0.6598037 0.42870218 0.69101596 0.7027036 0.5740017 0.48089445 0.6913872 0.6486064 0.5361528 0.5064925 0.3955872 0.3923496 0.44727036 0.43248382 0.41784993 0.41218036 0.4011935 0.43995267 0.42758605 0.44428116 0.5323857 0.4529685 0.44394812 0.59947425 0.43899798 0.48763758 0.12556478 0.6048367 0.53921026 0.46522468 0.04491353 0.7016786 0.6328656 0.61480546 0.571367 0.5077696 0.32849336 0.1128212 0.097516105 0.52566206 0.20256247 0.16700903 0.54588497 0.5715964 0.55470896 0.25669968 0.5697628 0.5900389 0.55927956 0.19445255 0.5322799 0.1970988 0.2546051 0.5624298 0.25414616 0.564378 0.53569335 0.32846576 0.23014235 0.58627295 0.42660683 0.4106223 0.32679436 0.81465757 0.8030698 0.8297374 0.8145417 0.7961297 0.7219049 0.65718937 0.83290446 0.8067173 0.78043747 0.6926305 0.57798004 0.5418516 0.7747288 0.752584 0.72388744 0.66635954 0.53137934 0.59596175 0.6083733 0.44945863 0.520264 0.34052458 0.38937086 0.35213736 0.00069276616 0.20073086 0.40892267 0.40348005 0.42711943 0.28168413 0.27860063 0.46193123 0.4668008 0.49404305 0.2735971 0.16455387 0.4846391 0.48689497 0.5506712 0.5484263 0.50500655 0.4047858 0.23514107 0.1729474 0.13270806 0.13517879 0.078461096 0.38077128 0.40086636 0.47105527 0.555501 0.5643295 0.5328001 0.34896547 0.26724 0.120055355 0.09203054 0.1503958 0.019871134 0.3961041 0.33609867 0.32440266 0.5679592 0.52141154 0.38174897 0.04681531 0.0018533058 -0.11533916 0.21519136 0.3536661 0.20555677 0.24258655 0.4057575 0.34775597 0.47461492 -0.090015754 0.3211724 0.40309542 0.4996903 0.50029945 0.42271549 0.23947456 0.052005038 0.09206182 0.023371533 0.4889115 0.6008475 0.19009137 0.168365 0.44632393 0.53924906 0.58526784 0.5548548 0.48662287 0.14188352 0.10827409 0.3565946 0.4687946 0.5339937 0.5155942 0.36861813 0.06943212 0.019004125 0.36232188 0.36371285 0.1652563 0.35040742 0.28567293 0.2123724 0.30177698 0.8370877 0.82593036 0.80472374 0.7489666 0.65403223 0.839065 0.8278484 0.62000924 0.58012396 0.8552342 0.53623354 0.31450504 0.79832304 0.6487324 0.17578574 0.08237681 -0.049516127 -0.07957065 0.32902277 0.3213216 0.32630628 0.40252706 0.21963826 -0.054382514 0.024831887 0.40565082 0.5068035 0.501197 0.46571112 0.34947732 0.32504827 0.28754017 0.2489118 0.4691055 0.452137 0.5111483 0.51316404 0.5023043 0.44085428 0.22490004 0.14263715 0.23047961 0.16984458 0.18695946 0.30251744 0.4753002 0.4570435 0.53202164 0.527356 0.08649131 -0.0010475605 0.25957268 0.45145053 0.4659539 0.5300697 -0.0119865285 -0.051032208 0.033199567 0.11570749 0.26430866 0.3096859 0.3876695 0.478086 0.49369574 -0.06991649 -0.1729751 -0.18351859 -0.0665858 0.23012218 0.26270008 0.27174968 0.42716515 -0.08356154 -0.12869556 0.100967586 0.4675326 0.1513699 -0.02083917 -0.13208537 0.48917192 0.43890667 0.30886453 0.4678645 0.43232495 0.40394917 0.18535358 -0.004482344 0.37768906 0.41533628 0.30833662 -0.006568469 0.3826454 0.08335669 -0.019777179 0.39023995 0.3812993 0.24895391 -0.015372805 0.39707947 0.3868705 0.28801072 0.28521925 0.8505594 0.82823527 0.7761933 0.68884176 0.59476966 0.8677623 0.54232675 0.87906206 0.4546511 0.3728577 0.37170303 0.3760837 0.8303352 0.21076246 0.33062407 0.4578983 0.17694369 0.21101275 0.11293448 0.3903253 0.37805372 0.36384058 -0.17564315 -0.21421562 0.07951145 0.22541003 0.1486868 0.21535134 0.36974406 0.409728 0.41248137 0.38603365 0.35266742 0.14778648 0.38678065 0.5212719 0.5064368 0.49452773 0.4574725 0.28385457 0.3410622 0.28682306 0.40686902 0.51083255 0.5091311 0.18436408 0.17502105 0.16010514 0.18280199 0.44932202 0.39381 0.48756742 0.50745 0.015859004 -0.0063599776 -0.15072589 0.1753204 0.44562957 0.4375006 -0.19227475 -0.22361152 0.38120776 0.44810092 -0.029039845 0.10494783 0.1443349 0.22367205 0.34843916 -0.05052848 0.36059308 -0.04772666 -0.111425824 0.30581933 0.23541038 -0.11404017 0.26797366 0.20067303 0.24640977 -0.05325703 -0.07365368 0.3868785 -0.069789864 0.36491954 0.3804006 -0.011028767 -0.09173768 0.10584764 0.25813353 0.3668291 0.39963633 0.39722168 0.26616418 0.3725649 0.37989607 0.36585075 0.42756748 0.460479 0.8139418 0.7496484 0.554606 0.49366248 0.45855144 0.8111737 0.7869067 0.27503508 0.3925901 0.42880106 0.42175496 0.6866629 0.414207 0.3803913 0.65152836 0.32784578 0.2820801 0.02841061 0.14175396 0.12674613 0.1527302 0.28953806 0.17829314 -0.12612054 0.09265904 0.0047237016 0.09372501 0.19167975 0.36429256 0.29237992 0.35410476 0.30746529 0.21640733 0.19552347 -0.15989561 -0.23098633 0.21165812 0.3376214 0.4647194 0.29577726 0.2912712 -0.1901992 -0.029955022 0.41790932 0.5266613 0.49808484 0.45268244 0.14489016 0.30836007 0.37311453 0.49688882 0.51345086 -0.25941572 -0.22244559 0.37458807 0.3047712 0.48433727 0.2023367 0.42155135 0.23585153 0.26654863 0.30892235 0.3610564 0.30166686 -0.10551762 0.16097036 0.23590215 -0.17826673 0.00072880834 0.10541636 -0.02442589 0.07193894 0.046470255 0.08529308 0.3004372 0.06201455 -0.007054776 0.2803721 0.09065503 0.26053578 0.32990873 0.22441682 0.15880285 0.36989504 0.38723147 0.32250017 0.1358036 0.28272912 0.38579214 0.37263936 0.48327166 0.42339697 0.29014802 0.4376788 0.48646867 0.5131362 0.4903424 0.44672793 0.49640006 0.5184489 0.4656636 0.40438426 0.376341 0.4529158 0.5476281 0.45641783 0.38750547 0.32461318 0.164013 0.03620683 0.31186718 0.4579003 0.4347614 0.51800346 0.37359264 0.31053257 0.22260997 0.48239735 0.4412923 0.2746919 0.20792575 0.07214393 0.08387357 0.033296973 -0.08255459 0.25731203 0.29836267 0.07256788 0.16706651 0.042740673 -0.10896352 -0.09972488 -0.10451789 -0.17429057 0.39303398 0.44425273 0.084708735 -0.14199048 -0.13899864 0.48133582 0.4849974 0.3298978 0.19103771 0.48342168 0.51542574 0.4760483 0.51091284 0.49011862 0.34153593 0.27967054 0.38647825 0.51222956 0.46852422 0.31542072 0.37851894 0.43295604 0.18141179 0.24757124 0.36441785 0.3793298 0.08887331 0.35411495 0.27702808 0.048902977 0.16250736 0.09892574 -0.27911893 0.16034392 0.12497418 0.24670385 0.32260618 0.4059368 0.2931081 0.568426 0.004086077 0.098066404 0.30787522 0.54639125 0.304554 0.13624091 0.05349841 0.031155754 0.23221639 0.32642424 0.23130979 0.24405777 0.40226242 0.2517506 0.29156315 0.36867958 0.44068265 0.403378 0.45987776 0.29605398 0.42656183 0.3440936 0.36645186 0.4435352 0.5158661 0.47382432 0.36072215 0.45247084 0.49293837 0.28617242 0.40947852 0.4227826 0.25286198 -0.021312073 -0.0861159 0.09668367 0.41526723 0.3022403 0.5884687 0.586015 0.5027462 0.1974769 0.27142853 0.27976418 0.26848298 0.18642882 0.07008831 0.2776913 0.22471415 0.5646982 0.52102804 0.50312495 0.26115054 0.13262866 0.2090065 0.22892565 0.17658588 -0.2192117 0.19697772 0.21189786 0.55158436 0.5197168 0.47004402 0.021544963 0.055702295 0.09951232 -0.01675354 0.31954366 0.3306441 0.41950577 0.14170599 0.4394043 0.05093217 -0.06225574 0.48027933 0.47626004 0.26382732 0.26865262 -0.14709236 0.5033182 0.48976237 0.45298818 0.45059633 -0.0011395887 -0.20624559 -0.3247158 0.5020269 0.48015767 0.38812876 0.49485123 0.31149027 -0.19178765 -0.04456553 0.4216171 0.4693351 0.25072384 0.25908512 0.3801831 0.4347743 0.4744715 0.1479838 -0.32383853 -0.1276809 0.08054761 0.316251 0.33521453 0.4247168 0.52727264 0.46175244 0.45117432 0.5902019 0.33472836 0.42104635 0.569032 0.5004921 0.27258915 0.33101597 0.4715004 0.3702547 0.09019023 0.21860743 0.41383177 0.48518267 0.47303444 0.4097208 0.4793982 0.48804873 0.11375796 0.30039197 0.3941434 0.42193425 0.19722351 0.21607357 0.16797158 0.4010374 0.51377314 0.490681 0.19176327 0.10407277 -0.0060325786 -0.046971977 0.032487065 0.44526955 0.45236963 0.56457335 0.5251924 0.35794413 0.20274001 0.16773853 0.09899994 0.015793331 0.061322115 -0.040377736 0.16573113 0.21616134 0.26518235 0.315525 0.47308224 0.5253413 0.46738032 0.441409 0.4830299 0.533713 0.5796626 0.5494741 0.57631004 0.6057703 0.5899809 -0.032610763 -0.011827804 0.33122706 0.3243493 0.6504657 0.6541671 0.5899501 0.42341763 0.11234412 0.24785146 0.29737064 0.038992934 -0.0381035 -0.055523023 0.26697952 0.17651743 0.5925313 0.61703557 0.62246406 0.5939236 0.4503609 0.12139367 0.23960617 0.28417757 -0.16368355 0.18101174 0.574955 0.58117557 0.14058559 -0.15392369 0.1580093 0.1532706 0.552103 0.24576828 0.3133052 0.3497647 0.318135 0.4209298 0.45526084 0.39135838 0.22667661 -0.05198448 -0.13201436 0.39242607 0.4402588 0.3371706 0.42755765 0.45547783 0.27656817 0.48321176 0.17898908 0.4837335 0.4700334 -0.36840242 -0.08270772 0.06905439 0.3847757 0.46451733 0.48149464 -0.106527366 -0.23750755 -0.10388126 -0.25666174 0.1875063 0.14735246 0.41183433 0.37341636 0.38534772 0.54760253 0.46318668 0.6100615 0.42860544 0.46215677 0.58931965 0.3106457 0.3696488 0.5348917 0.46330088 0.27344725 0.14243603 -0.49484622 0.25684685 -0.018689819 -0.5834755 0.3524496 0.27930877 -0.252806 0.4155345 -0.101519726 -0.12603904 0.46300474 0.44367433 0.27095938 0.062998034 0.089597374 0.10641 0.3313387 0.39416134 0.42912424 0.3529315 0.2579147 0.17542456 0.5272833 0.5244765 0.28001663 0.5842581 0.5780487 0.5086231 0.58607465 0.5444443 0.2867874 0.29813975 0.26986706 0.37283272 0.43461332 0.43013093 0.51448524 0.53627545 0.4679705 0.4871118 0.538303 0.60580057 0.5821477 0.4943965 0.6067513 0.5967618 0.55407286 0.6456847 0.11523554 0.16224647 0.25209647 0.12306409 0.11261649 0.05538472 0.014461093 0.13716225 0.65251094 0.6676017 0.61414456 0.53223115 0.052124694 0.08768304 0.1665768 0.23633057 0.2011209 0.02850284 0.088942505 0.14473844 0.5812348 0.6213872 -0.04919353 0.120799445 0.55967 0.11109705 0.5366832 0.12731868 0.43552917 0.34778208 0.32606298 0.45679086 0.43695623 0.40743074 0.3530843 0.1805419 0.41346478 0.07577263 0.00047675148 0.033951182 0.44565666 0.44730967 -0.14410457 -0.401047 0.35908505 0.4290402 0.46495086 -0.15767583 -0.21242689 -0.13896202 -0.17398095 -0.21810955 0.1273055 0.21672758 0.2867764 0.46413726 0.4289745 0.57884496 0.40467378 0.43677056 0.6096812 0.34314865 0.47217172 0.49383307 0.17771909 -0.087225266 0.270072 0.27679083 0.28339005 0.1334892 -0.09095366 -0.1713902 0.33935213 0.30744827 0.11569752 0.0879111 0.0014390014 -0.063403785 0.35667473 0.36698693 0.3682268 0.22353956 0.21213281 0.4009505 0.08336326 -0.121990114 0.48835284 0.50557876 0.5803424 0.09626746 -0.20953934 0.5769875 0.557151 0.5278535 0.16388397 0.488886 0.19286731 0.25624347 0.36440852 0.4018858 0.45715603 0.5334712 0.49964333 0.5208342 0.571603 0.591279 0.5651703 0.48492676 0.5842496 0.56995165 0.47797024 0.48365167 0.448675 0.49221265 0.4866534 0.24115601 0.27389935 0.2934444 0.34575903 0.20311992 0.23083122 0.27344984 0.15076466 0.15068695 0.1342654 0.023492217 0.10867347 0.055194043 -0.0019769827 -0.03073525 0.17773455 0.17314269 0.649714 0.6717894 0.6247543 0.46267438 0.010690913 0.12133092 0.0069206953 0.0239358 0.14335196 0.15032153 0.55584955 0.6140232 -0.020185754 -0.21556763 -0.030750237 0.17255966 0.5345955 0.17730834 0.22930261 0.46302676 0.22807175 0.32177344 0.25302362 0.43698978 0.4218219 0.2677298 0.4364819 0.28950536 0.41702196 0.33178937 0.18777762 0.36123177 -0.039024852 -0.17610133 0.04053339 0.3831696 0.37816307 0.10645726 -0.21017796 0.086825095 -0.24026424 -0.08144542 0.15024827 0.31967694 -0.21904112 -0.19950227 0.32752216 0.36396325 0.21189839 0.30442673 0.38166237 0.14322998 0.28209308 0.28388336 0.25436103 0.2712282 0.44141632 0.45753098 0.25641724 0.4058475 0.3792786 0.25101548 0.26226822 0.33714107 0.2640743 0.27102974 0.25763732 -0.16993347 -0.19509676 0.4051977 -0.24441779 -0.18868247 0.47813278 0.49401557 0.5072826 0.47866517 0.103818804 0.30950463 0.42287555 0.4634403 0.19074515 0.11247208 0.33583003 0.42315271 0.44260243 0.2346005 0.3046692 0.5196142 0.5466517 0.5217012 0.45302975 0.34925517 0.5502237 0.5603327 0.515466 0.35658583 0.41722322 0.40686333 0.38042843 0.3775409 0.2598221 0.4628048 0.46672583 0.44545728 0.36682504 0.3440683 0.29697427 0.27814975 0.20731474 0.41480067 0.4477231 0.3269037 0.3188405 0.24555586 0.18084018 0.26539075 0.18516968 -0.14948374 0.033434376 0.061275072 0.101175345 0.22425725 0.11038722 0.037935197 -0.045579262 -0.035530426 0.04883661 0.089781225 0.19833563 0.23192395 0.22798666 0.073023066 0.10443863 0.0020899512 -0.10503972 -0.19919574 -0.034418114 0.20410344 0.19248092 0.5936191 0.56418043 0.385796 0.034495592 -0.3794946 0.20759529 0.18796703 0.58458054 0.5131985 -0.5153156 0.23460445 0.45658267 0.28769836 0.23341668 0.2940778 0.2489484 0.32578844 0.40487817 0.35093355 0.337982 0.34923226 0.3936596 0.38975114 0.10505164 0.013878427 0.08857142 0.37102824 0.37703273 -0.12543206 -0.02609074 0.2519495 0.34649825 -0.2442739 0.20807323 0.16840869 0.2867133 -0.25203103 0.40111214 -0.3063748 -0.28209507 0.39540195 0.48756003 -0.2785449 0.44481462 0.49321833 0.5694667 0.5171366 0.4808749 0.48718166 -0.029968873 0.5737972 0.5762757 0.53932124 -0.21268693 0.24642347 0.27862194 0.086491965 0.206342 0.21849394 0.4146141 0.37808433 0.41494524 0.20801921 0.39494663 0.1251898 0.20278797 0.33064997 0.25562114 0.090733334 0.052795906 0.46983296 0.3803708 0.51769674 0.4345885 0.5222378 0.54388475 0.48176825 0.3198465 0.49311945 0.5392381 0.5653149 0.28582254 0.4940987 0.5224285 0.5627035 0.22025163 -0.01236441 0.3709808 0.4474115 0.49761945 0.03247445 0.13542147 0.23089726 0.28747237 0.4222604 0.3525477 0.24290246 0.117824376 0.38941973 0.44317234 0.25269833 0.14731066 0.51901174 0.40095946 0.37811726 0.3701461 0.3756522 0.35470897 0.34442794 0.3422283 0.32830837 0.2906307 0.3529685 0.24597628 0.17912687 0.19065613 0.26609093 0.30012757 0.31813005 0.30983233 0.37852275 0.3877506 0.36457834 0.28097096 0.14063361 0.3584622 0.26364267 0.33341503 0.4609487 0.46978366 0.36329365 0.37432903 0.28783128 0.007815506 0.063791655 0.082283616 0.09721143 0.41047382 0.31236055 -0.0867962 0.268143 -0.09555361 0.18061717 0.23373976 -0.5074119 0.27530017 0.42665538 0.4142988 -0.5155897 0.2917389 0.31266087 0.30681992 0.43959147 0.3101206 -0.13526815 0.32963765 0.2028307 0.12495345 0.2777258 0.17194688 0.3716714 0.26811647 0.39280584 0.10439368 0.41145527 0.036555715 -0.14747173 0.39222556 0.3994052 0.14329869 0.052713044 -0.19361769 0.27340144 0.25950783 0.36579853 0.36939943 0.0967479 -0.32538545 0.3348381 0.3887515 -0.07174293 0.43467125 0.53091943 -0.20926112 0.58536017 -0.10531833 -0.065301694 0.60043156 0.6118449 0.33359388 0.5370333 0.5437005 0.5859879 -0.06583456 -0.10183072 0.6144432 0.5882874 0.5620055 0.5613032 -0.1970361 0.18265128 0.07440587 0.1556264 0.1920622 0.32460213 0.16977262 0.24314982 0.3557697 0.14053866 0.23872249 0.256532 0.020111166 -0.1510948 0.61221755 0.5137955 -0.12990123 -0.0064187795 0.67050886 0.6085501 0.5187276 0.29579806 0.36345944 0.68773973 0.6377485 0.56301725 0.46274918 0.5650884 0.61754364 0.5571203 0.5177578 0.3655099 0.5983421 0.051599383 -0.048840746 0.5655972 0.5891562 0.03707243 -0.068984225 0.4577368 0.5186835 0.058564674 0.34414825 0.41489723 0.14544407 0.09426473 0.29617256 0.2420166 0.4225683 0.2637313 0.3732612 0.34226745 0.34504855 0.38288397 0.39399335 0.35625702 0.20936327 0.28629488 0.34907013 0.3152827 0.2418445 0.3952614 0.48089594 0.51686615 0.502715 0.35200423 0.3427328 0.23963502 0.18048681 0.025657091 0.27300668 0.3601468 0.50029 0.5187851 0.49709028 0.37475026 0.37252575 -0.05302134 0.034262355 0.106070295 0.3919796 0.4871137 0.47602072 0.32327867 -0.16310906 -0.09506264 0.16121092 0.41185415 0.25114343 0.30097017 0.37786138 0.20255777 0.08824751 0.34406397 0.3196604 -0.13496105 -0.115687475 -0.24892467 0.33915204 -0.114590175 -0.16876642 0.34374106 0.09011287 0.34497553 0.036558434 0.0137491375 0.3582477 -0.16132748 0.36863628 -0.10261162 0.36962932 0.40052962 0.13341166 0.023911662 0.3964386 0.1862373 0.17199647 0.19061138 0.18991429 0.37957388 0.51760405 -0.08907199 0.5889491 -0.01790762 -0.03381744 0.32603166 0.61060035 0.6125772 -0.031664565 0.47464228 0.5747364 0.5966307 -0.0757982 0.18006454 0.20908737 0.68548465 0.7110431 0.66946065 0.61825913 0.5869238 -0.2010833 0.1674467 -0.00882367 0.13384917 0.28215903 0.100856446 0.26640695 -0.008763313 0.15085405 -0.065477595 0.40429056 0.3927402 -0.025300898 0.60448396 0.015924796 0.69851124 0.736611 0.68061596 0.5986199 0.6894357 0.6362225 0.6233914 0.68346095 0.621735 0.54883754 0.37662482 0.07501614 0.62126124 -0.018186849 0.0055715963 0.53388405 -0.016195983 0.43143183 0.4684843 0.1494892 0.192538 0.12472655 0.29991132 0.38210133 0.34291655 0.48020053 0.48902586 0.47592425 0.4304781 0.5160104 0.5086341 0.4047071 0.33980238 0.4049735 0.42716703 0.28551972 0.19011244 0.13942644 0.28384173 0.44266135 0.4888637 0.46763468 0.15387136 0.256626 0.12581673 0.14267719 0.06059761 0.26045537 0.35048482 0.46131566 0.5040029 0.46492916 0.4139232 0.34160316 0.29293257 0.22819644 0.099828966 0.03439659 0.025450928 0.46621054 0.394319 0.3289746 -0.09581292 -0.12019978 -0.13240343 0.42452526 0.27817988 0.32203275 0.4075848 0.42087513 0.43617773 0.19596247 0.21273926 0.2331696 0.38392985 0.4313449 0.16139287 -0.06889671 0.3872682 0.22740176 -0.021175854 0.027840562 -0.34758678 0.36436284 0.26348916 0.062040787 -0.060108874 0.1686413 0.11779596 0.023574147 -0.16982126 0.044110797 0.015765794 -0.06186737 0.33808857 0.005871363 0.2751067 -0.06513717 0.2819362 0.096913 -0.008913457 0.30427343 0.37027085 -0.09588978 0.28076082 0.20274332 0.27406293 0.13417313 0.26646456 0.14075103 0.16085657 0.32975128 0.16564961 0.13326615 0.46168852 -0.23097965 -0.1893697 -0.06480079 0.5215968 0.54281986 0.56912327 0.5871742 -0.05110879 0.5871196 0.54360497 0.5756114 -0.17513682 -0.15413502 0.7042943 0.67093265 0.6286419 0.5856499 0.097515486 -0.09431923 0.18287279 0.28360242 0.08678703 0.3905698 0.34418157 0.36567706 0.077636845 0.32358393 0.0037767664 0.003124617 0.45449874 0.006177308 0.62126863 0.06398246 0.72274 0.78089756 0.47432068 0.5462788 0.7219765 0.57318556 0.68297744 0.6442264 0.5110547 0.30060098 -0.04294289 0.50057113 0.58899146 0.099731445 0.454183 0.17538388 0.047763873 0.43012798 0.17201713 0.23875776 0.35359904 0.3650091 0.3918879 0.50133485 0.5682652 0.6064883 0.5173341 0.4513948 0.6026411 0.5716945 0.5494429 0.32606846 0.382365 0.3456447 0.29963264 0.22300455 0.28778377 0.28018948 0.12552881 0.125542 0.17222889 0.15129852 0.053691663 0.21051136 0.4045791 0.36794907 0.12969433 0.07078905 0.16454032 0.15006375 0.15628278 0.1318889 0.040819872 0.29563957 0.29994294 0.22270684 0.19738667 0.31919378 0.30957028 0.31601486 0.38238716 0.40392485 0.2385071 0.28278404 0.44205064 0.44396478 0.61372364 0.43658972 0.465063 0.6278099 0.5807211 0.5071553 0.14391555 0.2314259 0.34548298 0.415239 0.5591209 0.5244887 -0.29283744 0.49008605 0.40295666 -0.3045191 0.27210978 0.21015799 0.2230188 0.13644493 0.063692756 0.18196282 0.2755389 0.16651233 0.22324073 0.38737527 0.29418445 0.18181482 0.21911132 0.45353746 0.22319692 0.43085003 0.39975786 0.2124414 0.00020181388 0.2234062 0.038930237 0.018778302 0.136528 0.07597367 0.045328178 0.19921282 0.2883048 0.057016827 0.32096037 0.3536451 0.34661672 0.2857439 0.13127355 -0.28210384 -5.558133e-05 0.20282641 0.4305451 0.46518713 0.32619342 0.42482132 0.47598618 0.52044284 -0.2