# vtk DataFile Version 2.0
Really cool data
ASCII
DATASET POLYDATA
POINTS 2529 float
-7.85069 11.100279 28.995918
-7.9091935 11.199837 29.05392
-7.6470222 10.658687 30.377771
-7.550798 10.611347 30.980307
-7.7919254 11.7182665 28.074636
-8.048681 11.756449 28.588688
-8.051282 11.745349 29.3856
-7.932153 11.9445915 29.971128
-7.719915 12.4716 27.781603
-8.081402 12.429016 28.64346
-8.095299 12.36626 29.183422
-7.9985905 12.151741 29.895039
-7.5851965 12.031853 30.880007
-7.749565 12.830338 28.098982
-7.8273907 12.991296 28.720703
-7.819615 12.989988 29.179459
-6.5678864 7.749203 31.681644
-6.673002 9.139553 29.6442
-7.0011806 8.842254 31.493359
-6.7219515 9.089865 32.47204
-7.048193 9.486804 29.81499
-7.3300047 9.481497 30.590227
-7.3687606 9.557317 31.070791
-6.8753357 9.561836 32.182907
-6.599824 9.14096 32.782776
-7.239975 11.293222 27.808838
-7.193475 10.73112 28.56143
-6.8840857 10.493166 32.308125
-6.9919634 11.58217 27.365726
-7.376582 11.797976 27.599148
-7.4365005 11.522286 31.473742
-7.066825 11.527921 32.001205
-6.919983 12.488141 27.137629
-7.4089212 12.500663 27.477133
-7.230312 12.420226 31.248234
-7.0466843 11.881223 31.885153
-6.988951 12.998639 27.294802
-7.161441 13.2383995 27.761265
-7.3715734 13.332895 28.401117
-7.329389 13.284996 29.385075
-7.2830467 13.009847 30.089764
-6.821313 12.910799 31.069698
-6.914137 13.557296 27.947626
-7.000017 13.576416 28.476498
-5.7358184 5.159361 27.562868
-5.8231015 5.2532163 28.014418
-5.774711 5.634689 27.051365
-5.9318414 5.624558 27.497639
-5.9821696 5.588739 28.108654
-5.7476826 5.932703 28.873463
-5.770547 6.1665096 26.928143
-6.041939 6.224067 27.648258
-5.8392334 6.500189 28.724361
-5.6764116 6.7161818 30.675453
-5.9849696 6.7419834 32.44227
-5.9229116 6.9883637 32.75393
-5.7826552 7.056578 27.1037
-6.202866 7.876293 30.373064
-6.2586904 7.526739 32.48784
-5.9192815 7.7799735 33.129642
-6.487534 8.519937 32.60636
-6.077867 8.849931 33.265392
-6.0928974 9.341411 33.370266
-5.815492 9.790236 33.698242
-6.5640945 11.130726 27.761887
-6.0124025 10.276759 28.407888
-6.4224195 10.189626 33.003178
-6.495187 11.862916 27.13756
-6.308061 11.707015 32.40927
-6.5040107 12.560518 27.049591
-5.833467 11.911755 32.682964
-6.434028 13.0463 27.22726
-6.5629425 13.354022 27.579329
-6.5800557 13.524573 29.639809
-6.5459948 13.315189 30.226553
-6.312666 13.00033 31.276182
-6.5550175 13.567718 27.93351
-6.527402 13.660703 28.407469
-6.5829463 13.618709 29.135197
-4.637812 0.2560554 32.417828
-4.812603 1.0599908 31.13301
-4.877471 0.90114844 31.652449
-4.9146886 0.7316834 32.57867
-4.811241 0.65170217 33.377144
-4.6340113 0.8451151 34.156746
-4.947895 1.5428431 30.948645
-5.1950064 1.6654091 31.773626
-5.1183705 1.3315811 32.34741
-4.9845605 1.4203349 33.410393
-4.7279787 1.3303465 34.115845
-4.651165 3.0528164 30.273653
-5.0696554 2.3809695 30.925692
-5.205164 2.4875913 31.201794
-5.1555424 2.277883 32.262066
-4.771318 2.2031443 33.450634
-4.655492 2.144464 33.93786
-4.9834204 3.1541138 31.782595
-5.355283 5.1167464 26.9832
-5.4472785 4.938951 27.45922
-5.165596 4.8437076 28.638582
-4.940739 4.8986692 29.035818
-4.977705 5.914841 26.359827
-5.2177415 5.5843225 26.616867
-5.1946197 5.329863 29.558805
-5.224963 5.3869805 31.254354
-5.529696 6.230352 32.548027
-5.0697904 6.321704 26.354784
-5.418878 6.4039707 26.621399
-5.659655 6.3955827 32.59371
-5.0211143 6.7356853 33.289913
-5.083763 7.410692 26.5633
-5.1084065 7.862867 26.728046
-5.543148 7.8912826 27.355
-5.0951223 8.635723 33.911316
-5.384035 9.512535 34.010788
-5.60853 10.141864 33.753677
-5.6081276 11.828569 27.289837
-5.268113 11.13972 33.574863
-5.8343015 12.574224 27.146479
-5.2234907 12.776201 27.470291
-5.929084 12.878601 27.187191
-5.5829616 13.24629 27.70786
-5.3169565 13.473377 29.321623
-5.52214 13.098395 31.281559
-4.679368 13.701248 37.70851
-4.6748247 13.876708 38.315037
-5.404839 13.603947 28.646933
-5.536822 13.625402 29.322939
-5.8055153 13.582221 30.129108
-4.688441 14.446049 37.64745
-4.704681 14.477527 38.315956
-4.6377325 14.893703 38.021732
-4.6115556 14.890498 38.22491
-3.8676457 -0.62004036 32.724117
-4.2057633 0.27851826 31.191833
-4.2296143 0.003844589 31.761215
-4.207433 -0.2664206 32.52599
-4.1060977 -0.2731492 33.304432
-4.247722 0.2118811 33.99806
-4.3092523 0.83514607 30.754307
-4.5349174 0.3587557 31.699558
-4.343505 0.59132326 34.2276
-3.9781177 0.9079046 34.692314
-4.2079463 1.5846405 30.211227
-4.5262437 1.6454897 30.486181
-4.4649563 1.3998042 34.44153
-4.2275434 1.2624513 34.63358
-4.2833314 2.1755302 34.22484
-4.117472 3.428487 33.27106
-4.5042605 4.9420767 26.74914
-4.392577 4.4651318 27.404247
-4.3434935 5.738764 26.262732
-4.679497 5.3829317 26.44758
-4.4364705 6.0194407 33.110863
-4.385137 6.6558747 26.158468
-4.3599005 6.3563547 33.23449
-4.378136 7.29475 26.245945
-4.4462743 7.1623135 33.469666
-4.6558924 7.719268 33.62078
-4.261949 8.1231165 26.611195
-4.072019 8.300006 33.892483
-3.9891603 9.092524 34.78265
-4.40764 9.671872 34.838345
-4.316318 10.205059 28.524632
-4.380197 10.594221 34.93524
-4.574684 11.879787 27.681501
-4.2975497 11.670116 34.024784
-4.27204 11.22303 35.03873
-3.8080792 11.981337 38.180435
-5.1383348 12.334862 27.370344
-4.685711 12.351048 27.630436
-4.0451007 12.368117 33.90606
-3.8931882 12.412627 34.43876
-4.2096815 12.699206 37.073803
-4.315525 12.743171 37.64038
-4.253423 12.882652 38.443413
-3.921202 12.89287 38.951385
-4.737859 12.980291 27.87968
-4.8683596 13.46053 28.516918
-4.584152 13.437127 29.168777
-4.82217 13.377728 30.260376
-4.6762056 12.937364 31.492857
-3.8437593 13.643047 35.763023
-4.439965 13.324185 38.524647
-4.2606745 13.658237 38.96529
-4.9115973 13.517562 28.991585
-5.00323 13.530722 29.380362
-3.7191033 14.2438 35.564945
-4.2659016 14.484353 36.722115
-4.56109 14.793196 38.633896
-4.3495336 14.457295 38.97562
-3.810213 14.944246 36.136013
-3.7692273 15.248891 36.64388
-4.307037 15.22448 37.709835
-4.2719197 15.226484 38.500446
-4.1889124 15.058936 38.922623
-3.8284369 15.680003 37.768776
-4.000462 15.646258 38.356743
-3.3563204 -0.73383725 32.001587
-3.2426066 -0.916221 32.552166
-3.3172224 -0.75956875 33.247047
-3.4170706 0.083821505 30.959835
-3.349274 -0.4650032 31.581768
-3.4072576 -0.21448979 33.976166
-3.3495185 0.94531494 30.070074
-3.6847634 0.5875964 30.501469
-3.7503715 0.6106678 34.61625
-3.354425 1.3795855 29.895653
-3.813058 1.1499804 34.790546
-3.3335493 3.2449396 29.228523
-3.1959484 2.5508907 29.50899
-3.3207054 2.6158054 34.30895
-3.627454 2.0504863 34.570305
-2.6690307 2.5601869 39.84604
-2.6351905 2.774655 40.472202
-2.6068435 2.874426 40.902622
-3.3934786 4.4038687 27.154219
-3.0848467 4.243532 27.289856
-3.262102 3.4802604 33.851032
-2.7225893 3.4683034 39.763443
-2.7132134 3.4639516 40.396633
-2.5938601 3.3490767 40.86148
-3.1750977 5.1803613 26.348785
-3.3348236 4.7694964 26.705181
-3.8428206 4.4916863 27.249083
-3.646836 3.9188018 33.410282
-2.6010022 4.0597887 40.24878
-3.4264374 5.7546577 26.121447
-3.3228927 5.7267046 33.28579
-3.3643742 6.4066377 26.031923
-3.529166 7.0120335 33.25788
-3.6933105 7.264512 26.189455
-3.8517566 7.788547 33.642056
-3.4985774 8.0107 26.626772
-3.714551 8.786344 34.69765
-3.731648 8.93063 28.010767
-3.4586596 11.607365 38.048462
-3.2567225 12.011354 38.812916
-3.921856 12.500856 28.134415
-3.7133808 12.562317 28.347286
-3.3466258 12.102474 31.035578
-3.2389805 12.366226 31.627096
-3.5350566 12.634617 39.071117
-4.1436915 12.858997 28.132837
-3.9066296 12.968212 28.606928
-3.7319045 12.905805 29.304419
-4.0501094 12.846857 30.742481
-3.6126392 13.636526 39.438877
-3.3338742 13.694926 39.681084
-3.1047432 13.907752 33.68132
-3.2564154 14.242717 34.564777
-2.8778179 14.6068 40.070137
-3.0557587 14.977934 34.950153
-3.2821362 15.403277 35.822464
-3.426549 15.52859 36.435165
-2.7046661 15.624249 39.998386
-2.8105557 15.706208 35.717712
-3.201437 15.762433 36.45605
-3.1027582 15.836863 37.44469
-3.224577 15.978063 38.705803
-2.658062 16.476686 39.607357
-2.6694982 -0.780388 31.971975
-2.5931928 -0.9477844 32.602234
-2.705185 -0.8129565 33.24595
-2.8764477 -0.042010635 31.044281
-2.5351453 -0.59872854 31.741936
-2.4995542 -0.63631374 33.438988
-2.8099716 -0.27037895 33.87606
-2.676887 0.92401206 30.14472
-2.6613564 0.40964746 30.534222
-2.764091 0.46677178 34.29477
-2.7854843 1.3095748 34.516113
-1.9391509 1.9631317 39.116074
-2.0740097 1.7587665 39.572426
-2.1744058 1.8883083 40.43038
-1.9364176 1.8534001 41.183647
-2.9131827 2.6808846 34.106117
-2.4647734 2.5216272 39.15756
-2.557663 2.589542 39.538265
-2.5271327 2.4353974 40.499485
-2.3930173 2.534031 41.054996
-1.9229763 2.9238725 42.142887
-2.514629 4.3556757 27.157694
-2.8226655 2.9235084 34.10139
-2.259531 3.3618903 38.929153
-2.4225535 3.5499806 41.252094
-1.9043165 3.4627001 42.31855
-2.647997 5.2005005 26.396534
-2.5897706 4.740151 26.772581
-2.1281931 3.9342062 39.083965
-2.3465264 4.1217337 39.654648
-2.3028758 4.2768536 40.554386
-2.2313654 4.0987945 41.47584
-1.9453448 4.1445394 42.131413
-2.5915198 5.6870146 26.1714
-2.1453452 5.935667 33.55806
-1.9252305 4.7380295 41.51386
-2.417216 6.419437 26.097416
-2.5344481 7.121112 26.268661
-3.0826964 7.6300097 26.525866
-2.9506197 8.295134 27.162657
-2.964528 8.59455 27.625265
-2.6120071 8.488678 34.398426
-2.464746 9.43426 29.0679
-2.2832785 10.71468 30.373238
-2.7157474 10.806363 36.31948
-2.3307326 10.639461 36.824127
-2.900139 11.43439 38.178383
-3.0420294 11.8243265 29.827894
-2.4045618 11.551899 38.27565
-2.7363827 11.940233 38.984978
-3.3144603 12.194466 28.847908
-2.6761775 11.992842 31.162962
-2.8145044 12.374179 39.32639
-2.4555922 13.474105 40.232426
-2.0203946 13.861023 41.06995
-2.3943744 14.321049 33.72095
-2.1517637 14.642346 41.02745
-1.6873736 14.855496 41.994274
-2.584826 15.395487 35.12291
-2.2375293 15.465543 41.091637
-2.4503548 15.734197 35.537453
-2.1599064 16.176502 36.53615
-2.643083 16.286558 37.798573
-2.4207714 16.610382 40.13623
-2.1014075 16.308348 41.073746
-1.6829637 16.326784 41.87665
-2.107915 16.981281 38.809353
[...]
POINT_DATA 2529
SCALARS features_00 float 1
LOOKUP_TABLE default
0.6879976 0.69754255 0.49096656 0.46776804 0.8827834 0.84493816 0.73844147 0.68269545 0.9325471 0.8854637 0.82887346 0.71786886 0.6036855 0.9158297 0.8760652 0.8346578 0.35989466 0.37053347 0.3540734 0.3255145 0.4103295 0.422589 0.4195165 0.35119307 0.317363 0.8393296 0.67520535 0.3721869 0.8914578 0.908353 0.50711995 0.45346507 0.92737293 0.93633986 0.6054567 0.49945968 0.9199821 0.90511936 0.8669708 0.7788409 0.7153727 0.6203262 0.8688186 0.82632077 0.66175365 0.5983614 0.6955117 0.66659486 0.58142835 0.4286722 0.69098556 0.65694463 0.4386853 0.22613342 0.40704107 0.40043312 0.666789 0.26336375 0.3795827 0.36534977 0.3299426 0.32232523 0.31577918 0.3111203 0.80412966 0.60641277 0.30602682 0.8931813 0.39169997 0.90322405 0.34160736 0.8903054 0.87917566 0.678843 0.6366366 0.59448206 0.84553444 0.7942937 0.72522426 0.7016485 0.56945306 0.59405756 0.6876104 0.7733708 0.75767905 0.5521258 0.5713942 0.630642 0.7379159 0.7357278 0.4657991 0.5361292 0.53655976 0.5985942 0.6823372 0.67340755 0.5141224 0.69953394 0.67776954 0.5087187 0.4132319 0.67932934 0.6961756 0.29792035 0.1784957 0.4090937 0.67009324 0.67894626 0.4103304 0.2971623 0.63802963 0.6189908 0.60568523 0.28815705 0.3168888 0.28992113 0.77212393 0.16837072 0.83037233 0.74471915 0.84068036 0.78453714 0.6100735 0.5519401 0.658033 0.64256704 0.6988866 0.6262326 0.5791693 0.61608535 0.61859244 0.58118725 0.5845877 0.847306 0.6110437 0.67147124 0.7810041 0.880662 0.8261838 0.56405824 0.63105834 0.7848618 0.76180774 0.5184233 0.53140193 0.7281654 0.73330843 0.65149367 0.4684447 0.6518466 0.61098415 0.65544236 0.6700286 0.19000591 0.64625037 0.17222781 0.63403904 0.1942667 0.23100027 0.5926578 0.13295996 0.16558306 0.28756118 0.22492805 0.289398 0.5784746 0.10586107 0.20503642 0.48794574 0.714125 0.6550137 0.06661141 0.07565795 0.6205851 0.61978006 0.5896611 0.53153795 0.6962294 0.67498684 0.579907 0.50893795 0.45324627 0.39283383 0.61802447 0.59105605 0.6248472 0.5815402 0.39211953 0.5346204 0.5865946 0.59193707 0.42333806 0.44627053 0.52831745 0.53877306 0.54619664 0.46098605 0.48154265 0.763059 0.81447184 0.874668 0.6123205 0.7038933 0.88464195 0.5104178 0.56049377 0.78904617 0.47207126 0.7350801 0.23878169 0.33745617 0.52415144 0.63758564 0.754568 0.6951637 0.65331256 0.52181417 0.48538154 0.33553562 0.78705037 0.7052699 0.65863633 0.5883869 0.56823194 0.5463257 0.2692326 0.7158752 0.6296103 -0.10902861 0.64244246 0.010475069 0.62500846 0.08641601 0.56479114 0.08435297 0.16350514 0.37572074 0.42176533 0.6083137 0.5978931 0.2264412 0.1431838 0.4831601 0.6521969 0.6108143 0.51957095 0.40581512 0.48923504 0.4283772 0.30208725 0.3587913 0.3440553 0.3522094 0.374196 0.4012996 0.3848449 0.34196025 0.37960666 0.38285738 0.40434197 0.37545228 0.71087384 0.76108193 0.81895673 0.60390437 0.66618854 0.806636 0.8487816 0.46471196 0.52702075 0.78618 0.67153597 0.8206787 0.7782504 0.68126637 0.5806888 0.45218474 0.85479987 0.80229056 0.68499076 0.62875545 0.5736914 0.5109856 0.38427246 0.9940999 0.6258688 0.567508 0.5781689 0.5508607 1.0 0.8724397 0.67094934 0.605437 0.5667819 0.6049473 -0.1279816 0.576331 0.60659647 0.57667 0.56996584 0.43820253 0.3161765 -0.1117935 -0.060994238 -0.12495445 -0.023633242 -0.05728569 0.26300555 0.27382442 0.20415862 0.3487915 0.49154812 0.06166555 0.3878215 0.25274175 0.2225669 0.2590725 0.26691833 0.31292558 0.31635347 0.32583103 0.31491846 0.28998083 0.30941674 0.36489746 0.33960372 0.3423972 0.29962265 0.34162813 0.34528542 0.3437036 0.6512849 0.68582296 0.7319275 0.49506873 0.6279119 0.66342485 0.43983126 0.65189594 0.6980464 0.5710959 0.40448165 0.39341474 0.26844746 0.53966326 0.72959554 0.714038 0.5995747 0.47672594 0.39894074 0.4135498 0.20034581 0.20331228 0.8006306 0.5377319 0.4451764 0.4453144 0.9288783 0.52138126 0.5253269 0.49863666 -0.16775717 0.8584005 0.5357108 0.51358545 0.5723475 0.5521346 -0.11836729 0.52990586 0.5269841 0.49195385 0.5625266 0.50114256 -0.20387885 0.54553974 0.46614015 -0.2578955 -0.21348605 0.23871171 -0.18639007 -0.122982584 -0.07620607 -0.2878791 -0.089564405 0.1655287 -0.2260471 0.20956612 0.103094816 0.229195 0.27694112 0.3264683 0.21389356 0.28696123 0.3619589 0.39224178 0.19526817 0.3629213 0.26842877 0.23136063 0.36546984 0.39650396 0.08108831 0.18190148 0.315019 0.30826092 0.33019057 0.1765195 0.29655457 0.33701235 0.31912914 0.35716143 0.38924903 0.5386369 0.44142196 0.3684684 0.33223173 0.3076995 0.67479324 0.3114984 0.18622343 0.17126982 0.74034214 0.035740115 -0.14515397 0.70431334 -0.14475572 -0.051459834 0.63152206 0.4956206 0.4429347 0.17362303 0.28631046 0.43987152 0.36583328 -0.029675258 0.5284942 0.42118222 0.33294046 0.33426276 0.46137315 -0.16966775 -0.11274544 0.36616135 0.36727476 0.36211565 -0.23012434 0.14647931 -0.13298468 -0.07461792 0.08572771 0.09056642 -0.07200368 0.06112129 0.038921047 -0.13363591 -0.093266696 -0.32560518 -0.055588175 -0.2038515 -0.29002327 0.11251511 0.15908788 0.24940445 0.26239902 0.36787271 -0.006364435 0.4205783 0.07844134 0.4868513 0.48915637 0.17713743 0.07009907 0.036972295 0.48995444 0.49704707 0.113195196 0.3665348 0.43927616 0.18009806 0.22382337 0.23651753 0.48212188 0.48047498 0.5495727 0.54664963 0.45898372 0.28633255 0.3022751 0.31550342 0.39102447 0.4545765 0.41020635 0.42791754 0.39321756 0.26657635 0.3118977 0.36685792 0.40082 0.47641003 0.24341673 0.5813724 0.35797244 0.33690903 0.42185983 0.49438584 0.15635154 0.37495273 0.48178747 0.308904 0.27515307 0.383746 -0.08314051 -0.012080226 0.40056622 0.31943357 0.34763682 0.14819734 0.0931553 -0.008450702 -0.031509355 0.2911307 0.3355556 0.35284063 0.37529427 0.034648646 0.3376839 0.3710618 0.36952123 0.38413996 0.37949634 0.1839796 0.08806792 0.0925027 0.2914822 0.37004933 0.38927677 0.3984331 0.18757406 0.10201545 0.100306064 0.3394424 0.38684338 0.39671248 0.03448212 0.18640882 0.2827726 0.32883412 0.40629637 -0.10579173 -0.10359801 0.34885982 -0.039991423 -0.21098855 -0.16777647 0.42480943 0.4135495 -0.00829383 0.4821471 0.0015522763 0.4904541 0.18203345 0.37892434 0.4648279 0.47512954 0.21349543 0.26252198 0.21377438 0.3274188 0.2873251 0.42801327 0.52881694 0.46958494 0.46096432 0.56415725 0.56181085 0.505512 0.57128024 0.5632055 0.49573898 0.47004873 0.26600876 0.40351158 0.4847017 0.50509316 0.5713185 0.43904734 0.5197009 0.4837762 0.45142496 0.42377615 0.010501906 0.53496206 0.5940014 0.28811264 0.3537769 0.33309138 0.18460956 0.5599269 0.611248 0.22813298 0.1549302 0.56054085 -0.17455599 -0.28869033 -0.29386353 0.4375409 -0.06312735 -0.019601505 0.2515068 0.37483555 0.03144505 -0.09732694 -0.062927745 0.3691505 0.15060237 0.012509544 0.21496396 0.37534392 0.24374935 0.23122531 0.44315413 0.07286876 0.14124727 0.4814465 0.5325725 0.29175395 0.09590926 0.08215505 0.46306354 0.5480682 0.56289303 -0.29904357 0.43746096 0.53188235 -0.07356037 0.1675159 0.2933953 0.4413581 0.5184609 0.049507923 0.020440772 0.10144754 0.093795456 0.05086436 0.031819955 -0.14670385 -0.019071274 -0.17904034 0.449578 0.46119457 -0.023729723 0.43813208 0.45401776 0.17906034 0.24332783 0.31286263 0.32633716 0.36674693 0.543315 0.5424857 0.49977142 0.5694208 0.55688405 0.18595694 0.09817 0.16881251 0.4193859 0.48739398 0.56863594 0.617247 0.6471842 0.44261315 0.5299785 0.51257396 0.4744934 0.22045785 0.20397848 0.14456359 0.6452744 0.6488875 0.34733832 0.16236147 0.17463878 0.6331076 0.24958453 -0.3053251 0.05963473 0.58313316 0.47720563 0.35728392 0.08370828 0.34166223 0.16306984 -0.110259585 0.3484905 0.39493647 0.2568065 0.4253928 0.476036 0.27142364 0.5545214 0.2131261 0.61304927 0.22946936 0.0683222 -0.056822233 0.57481754 0.61002284 0.47070774 0.55018026 0.59024024 -0.027288506 0.21858507 0.44068742 0.061414223 0.111034945 0.16266587 0.49976522 0.13335557 0.33077642 0.5901315 0.5106634 0.3238417 0.63136184 0.60022706 0.5479232 0.28069088 0.0015306496 0.083367005 0.31185424 0.21205941 0.08497751 0.34717295 0.40059483 0.49803817 0.49310124 0.3746093 0.26798323 0.29172057 0.19723965 0.2274684 0.37774834 0.40870464 0.5355197 0.58709216 0.49934953 0.4406401 0.18851893 0.18039887 0.5342715 0.64920235 0.6476791 0.6224586 -0.025282562 0.5815926 0.015684798 0.4589123 0.15473105 0.34831592 0.31745717 0.30474943 0.331353 0.023096293 0.43467876 0.52256197 0.36372003 0.6025741 0.48929074 0.602303 0.3498574 0.11961759 0.047920726 0.5221057 0.55588734 0.08305076 0.0559547 0.078567795 0.053949453 0.5478467 0.48725557 0.6191176 0.009808965 0.62074286 0.64013463 0.24765295 0.029944584 0.6351353 0.60788417 0.50814617 0.22667307 -0.20649669 -0.21185008 0.01946643 0.017356504 0.023989843 0.15949722 0.28233275 0.3100517 0.4000885 0.057431206 0.3322487 0.14912729 0.26579607 0.30199942 0.3455416 0.35994777 0.3479755 0.2580948 0.09188388 0.037607316 -0.04782311 0.33374798 0.09593864 0.120322734 0.26000464 0.535481 0.58777136 0.30398664 0.23227422 0.14010018 0.1497232 0.5710244 0.5921172 0.3468369 0.27542898 0.46840912 0.49251634 0.3510988 0.37490308 0.17208706 0.10098106 0.32352 0.2918328 -0.15582614 0.26206464 0.30242485 0.40271625 0.36156014 0.32336372 0.3312986 0.45941883 0.44533432 0.4388052 0.49699992 0.47980732 0.48866487 0.5566847 0.44283706 0.43345544 0.3247943 0.40777576 0.5518077 0.3826391 0.33907145 0.17818333 0.40838853 0.017521285 0.099435836 0.11445317 0.118162386 0.07344533 0.12318903 0.46370405 0.03296579 0.034272145 0.5551544 0.5714748 0.6031713 -0.022453729 0.6028249 0.56986475 0.32454365 -0.2627292 0.07009015 0.04645095 -0.092819065 0.036307693 0.06862545 0.09954703 0.19565268 0.2165045 -0.11612647 -0.034597218 0.07415846 0.27134562 0.30262527 -0.10528376 0.21357797 0.398035 0.38538417 0.21744758 0.34452605 0.4217558 0.2775166 0.35380226 0.37444416 0.38796705 0.3864871 0.31562832 0.20254374 0.17970252 0.36082652 0.30787283 0.0507505 0.20391285 0.3437889 0.28729615 0.23520133 -0.14898053 0.23868847 0.46782815 0.38228127 0.3474329 0.10210036 0.40208107 0.40586886 0.34878007 0.1894641 0.29517967 0.2056969 0.1644415 -0.06049695 0.18219057 0.2334076 0.054169837 0.17289427 0.22557038 0.22011831 0.13671991 0.17990828 0.37924713 0.22457266 0.45994064 0.45490953 0.31456348 0.41000682 0.46620518 0.4655879 0.3622747 0.47372562 0.43934864 0.38522035 0.3400163 0.24756749 0.11996142 0.13721955 0.16742814 0.11640516 0.1411738 0.29545718 0.11005159 0.4199769 -0.02382864 0.45923123 0.5235523 0.081991054 0.50338304 0.46958917 0.15114442 0.120005235 0.10834943 0.14214015 0.37616533 -0.05549354 -0.20961939 0.2778334 0.48424277 0.48697427 -0.04518697 0.17379975 0.387452 0.5590914 0.5271714 0.42160225 0.26487368 0.43887854 0.42910206 0.4031139 0.62861544 0.6307272 0.6301317 0.6586602 0.63225555 0.59107906 0.4534312 0.60858035 0.55105674 0.400716 0.3178844 0.3726545 0.3784976 0.45147943 0.28823113 0.32830292 0.23518161 0.23770764 0.17837635 -0.13580996 0.10147372 0.39719927 0.380243 0.3504997 0.24105069 -0.22885506 0.38217708 0.3075655 0.04950472 -0.077625655 0.09563882 0.098873645 0.1384935 0.21957847 0.0631129 0.23858127 0.0883475 0.4088182 0.029943293 0.4734876 0.4727398 0.44845715 0.414976 0.27062023 0.05114717 0.20496047 0.14421698 0.2786252 0.06714067 0.3262785 0.38792232 0.3843413 0.19810084 0.4315636 0.3933035 0.23879273 0.24096991 0.21552719 0.20462148 0.27174684 0.4468672 0.27001035 0.52604204 0.36060613 0.32989368 0.6057271 0.61672467 0.13331589 0.11114137 0.1744161 0.42474014 0.39972416 0.67216825 0.6686297 0.6578641 0.6041137 0.4453445 0.36145085 0.4215991 0.43001258 0.4391908 0.43377483 0.68990815 0.67718786 0.63743556 0.6671411 0.6785091 0.6732129 0.6124743 0.52811354 0.6294006 0.34395528 0.60204315 0.29072487 0.23033887 0.19673413 0.026854962 0.3801704 0.32183605 0.30705053 0.15261735 0.36579594 0.36505932 0.3191468 0.2659672 -0.05318199 0.002845198 0.081132144 0.20364663 0.12876104 0.089187175 0.28811097 0.33141303 0.017603807 0.4269517 0.48083797 -0.23944527 0.46913648 -0.03812588 0.42112452 0.26725262 0.20163533 0.010978758 0.11757328 0.035503805 0.176016 0.18687074 0.051676992 0.1505982 0.12066495 0.27980262 0.18724972 0.3270344 0.26221293 0.2626657 0.26046574 0.33790216 0.16638096 0.28828183 0.19515535 0.46844554 0.5952184 0.33143276 0.65370166 0.40800387 0.38405335 0.6987624 0.68709934 0.6382526 0.58654356 0.3564828 0.38635212 0.5084695 0.45376894 0.6642605 0.44682613 0.48704666 0.50408524 0.69042695 0.6884016 0.66475916 0.5945179 0.66072035 0.6828645 0.39497665 0.37433577 0.6065557 0.29727143 0.25224844 0.5280064 0.13921209 0.034253746 0.14401071 0.34041256 0.34965444 0.18472119 0.30013865 0.3373143 0.2802462 -0.07819721 -0.15813702 0.16604018 0.1197163 0.20400865 0.04731036 0.2392478 0.26094857 0.34879398 -0.19941631 0.40839902 0.43481964 0.04257326 0.100199 0.005772114 0.07337802 -0.00902392 0.16663358 0.048743397 0.2792545 -0.3147148 0.3275378 0.28671744 0.04977551 0.38058126 0.29019678 0.39578035 0.26856482 0.566473 0.5811556 0.33608115 0.682059 0.43343192 0.38328427 0.71024466 0.69177437 0.64450014 0.5244389 0.68122077 0.67250246 0.58185714 0.5833974 0.5924856 0.6223583 0.664083 0.63428164 0.66555613 0.6680005 0.60272336 0.63031507 0.60715175 0.5300987 0.47102773 0.4798146 0.44565958 0.5583702 0.24389496 0.13627258 -0.040923186 0.12708296 0.31863144 0.24993697 0.16936341 0.31584972 0.24628034 -0.07951675 0.0023930948 -0.19494319 0.13387217 0.18176606 -0.12567975 0.13020891 0.19451608 0.08215679 0.16891162 0.1737453 0.07235262 0.10829839 0.18283963 0.08956508 -0.07532711 0.0834038 0.31896827 0.047375143 0.20122634 0.33065856 0.15976688 0.26443398 0.11046406 -0.19342232 0.24357466 0.27410692 -0.063154496 0.20273487 0.30830148 0.3586103 -0.0067900717 0.46077806 0.4705267 0.5805966 0.54570425 0.3201204 0.69893 0.6119051 0.70752496 0.6921712 0.64115214 0.59821033 0.71465105 0.6967264 0.6943189 0.63853115 0.7363956 0.8187208 0.72354347 0.730885 0.5080283 0.38202697 0.26923233 0.40991974 0.518921 0.5010398 0.30337745 0.25121054 0.47552425 0.47122726 0.12860526 0.3347092 -0.115228534 0.026411237 0.26382786 0.18039101 0.03074427 0.279818 0.009995565 0.21106073 -0.0693202 -0.13608699 -0.013053511 -0.064440414 -0.08485928 -0.027671691 0.017432146 -0.16683467 0.07210682 0.4901329 0.35214934 0.22509614 0.478054 0.39020374 0.3356042 0.2883167 0.17534834 0.057266064 0.39898065 0.47523665 0.30563042 0.17824526 -0.22019939 0.5059171 -0.32546312 0.43878368 0.57049316 0.5616133 0.517104 0.10665218 0.5396216 0.4814415 0.39294824 0.34535837 0.122196324 0.47005838 0.3093217 0.21176957 0.3095672 -0.2520316 -0.06264126 0.082894705 0.42519242 -0.11698768 0.5076062 0.58008134 0.104038045 0.3886253 0.69547665 0.6856241 0.65209126 0.61576223 0.50783896 0.38351333 0.5658211 0.7269107 0.7774676 0.69796497 0.6862223 0.63962793 0.7124875 0.8179797 0.8110631 0.76962256 0.82658863 0.8657844 0.8690566 0.77809966 0.79959595 0.35504824 0.47850966 0.4808696 0.094938494 0.36697158 0.45231795 0.5421486 0.13763614 0.023518333 0.38011914 0.4303344 0.11715433 0.061980218 0.13586278 0.18263699 0.079360135 0.072720975 0.10381362 0.13179377 0.16585432 0.060162894 0.06790207 0.5246247 0.50058466 0.38826746 -0.21578448 0.013679363 0.46580583 -0.040893123 0.023486493 0.15034191 0.13389185 -0.14569393 0.07419737 0.37326267 -0.21353504 0.5384387 0.5104761 0.20964333 0.60042304 0.31455976 0.63465345 0.5665582 0.36911798 0.54176515 0.43514237 0.4845032 0.46820354 0.3932369 0.5575206 0.5903338 0.610392 0.6277284 0.4764356 0.27934447 0.615906 0.63949347 0.7322805 0.64465445 0.4817266 0.58362776 0.6215856 0.7585759 0.6824126 0.19675711 0.7626939 0.6896937 0.5322677 0.25154498 0.52531767 0.48666263 0.4352765 0.351201 -0.013857067 0.0830602 0.42107564 0.12309554 -0.16882399 -0.19147901 0.27410036 0.48136687 0.40347153 -0.0871434 0.47993597 0.41221607 0.5651653 0.4205303 0.6184 0.6874857 0.80950356 0.81569403 0.77066076 0.8495616 0.83732796 0.83419764 0.82211053 0.8568212 0.885172 0.8702074 0.120562166 0.40037188 0.39396727 0.51677704 0.5417307 0.34476388 0.056609575 -0.009872766 0.03412936 0.15601164 0.33960617 0.33087534 0.3357911 0.47835797 0.47678256 0.32627198 -0.15175518 0.18506232 0.2609655 0.17634377 0.40664682 0.38737333 0.2539298 -0.22086853 0.15008003 0.52556354 0.49212217 0.3209936 0.09774549 -0.12916113 0.2653408 0.40744668 0.518016 0.5288424 0.22687241 0.38013923 0.45041126 0.44362953 0.35154718 0.39396125 0.26183784 0.3942265 0.47686476 0.37298948 0.5499017 0.6012653 0.5997187 0.2905765 0.6133211 0.6265821 0.36016342 0.410744 0.63146764 0.6023774 0.4692442 0.5537851 0.5182918 0.45285136 0.34249115 0.30655652 -0.28072542 0.5397585 0.5904951 0.6406048 0.693014 0.64776695 0.7975544 0.7824111 0.4668247 0.59787405 0.63178796 0.81225955 0.81027627 0.47673416 0.792351 0.73571897 0.34498638 0.6979112 0.5713456 0.50644934 0.47107494 0.40305066 0.27812028 0.17469712 0.46504664 0.44825163 0.384058 0.5424622 0.13524196 0.16591108 0.3228917 0.27192354 0.25202647 0.33644432 0.5247293 0.5434169 0.52923787 0.35106918 0.25421283 0.18900938 0.14498717 0.23246726 0.23043223 0.48192838 0.5380097 0.27846232 0.38102305 0.34463912 0.18656126 0.16353041 0.21126533 0.27072477 0.388364 0.3293204 0.24661824 0.10165697 -0.29051173 0.27850902 0.47764605 0.57495475 0.50126565 0.42630678 -0.13083658 -0.65598965 0.46368915 0.5380856 0.5063889 0.44442272 0.53808486 0.4132687 0.49443805 0.16526034 0.4091888 0.460451 0.4438066 0.24373654 0.53931236 0.59965265 0.5793536 0.20677249 0.60860455 0.60870886 0.23816285 0.60736966 0.600971 0.3593987 0.46240875 0.5712608 0.5456393 0.48418552 -0.29235932 0.53151864 0.5018577 0.59520733 0.6323041 0.6352335 0.64536643 0.800478 0.59011877 0.624324 0.80976236 0.80396587 0.42983797 0.5009318 0.7866828 0.7451605 0.09864712 0.32379344 0.7190231 0.58609205 0.47493643 0.42767808 0.32508004 0.24881105 0.4870361 0.44954705 0.23104806 0.35543486 0.49510634 0.57315826 0.52747905 0.26034075 0.39203674 0.31011647 0.24808785 0.4447324 0.42400327 0.37017512 0.50744045 0.52191633 0.5020557 0.3421719 0.24517195 0.26961893 0.3217886 0.2739665 0.27682438 0.3797086 0.121937454 0.08891403 0.58388937 0.61629975 0.60262203 0.34290025 0.34446043 0.4625891 0.53556514 0.5019278 0.17528406 0.50813276 0.32744098 0.265879 0.5805199 0.62558144 0.4448726 0.3415649 0.6408929 0.4841324 0.61886454 0.3395815 0.54769623 0.4113288 0.52365595 0.10602139 0.57114065 0.5442154 0.58908576 0.56724954 0.028565038 0.57173204 0.5155666 0.44927287 0.30600464 0.54594344 0.52317864 0.19214681 0.04148549 0.43008035 0.56019837 0.7448436 0.65637565 0.5960911 0.7725835 0.47226483 0.5394279 0.7918173 0.7748258 -0.29725376 0.3320734 0.42369843 0.4891619 0.75725114 0.70103836 0.5378902 0.39880595 0.32696015 0.20908941 0.10336804 0.3957014 0.32100782 0.5533592 0.42549264 0.3739458 0.48460782 0.47050443 0.42982924 0.30666032 0.45679927 0.48898652 0.51378316 0.504511 0.3518904 0.40940493 0.43400887 0.4490106 0.43339315 0.37052864 0.33271003 0.45931995 0.39918843 0.3461214 0.37715983 0.38845682 0.2558471 0.47589892 0.49562314 0.38519874 0.19097476 0.24100849 0.31034932 0.3215602 0.169799 0.5655416 0.5976789 0.6542477 0.65161264 0.63226634 0.46891403 0.07143572 0.4130426 0.53670025 0.6330835 0.3537061 0.17908975 0.6402615 0.69868445 0.69946873 0.66069674 0.3273794 0.5501332 0.39296597 0.42780524 0.41987994 0.33817 0.41345227 0.14162865 0.1598628 0.06996747 0.45367557 0.38379714 0.31310275 -0.19690412 0.44425577 0.39403003 0.13249639 0.06031944 0.10608804 0.42651692 0.52859735 0.5140548 0.54900664 0.6977433 -0.024969056 -0.050150454 -0.08502384 0.36851466 0.47612453 0.7438722 0.66700864 0.44461197 0.29696813 0.2019155 0.070046954 -0.23643121 -0.13422917 0.048697963 0.41426522 0.70003605 0.47739106 0.36902064 0.2617381 0.051328845 0.22079612 0.32767543 0.14680162 0.3103312 0.34563732 0.3987837 0.3323024 0.28535375 0.22534108 0.40546697 0.42874438 0.38628277 0.38547856 0.36876708 0.2962709 0.43156397 0.4457699 0.57949364 0.56800604 0.55000323 0.51399267 0.15201576 0.1510807 0.18777682 0.25963104 0.36930394 0.3937296 0.5731932 0.5961598 0.6364406 0.64723456 0.5445229 0.091777906 0.13805251 0.27010825 0.3109031 0.4955818 0.5404395 0.560601 0.6095471