# vtk DataFile Version 2.0
Really cool data
ASCII
DATASET POLYDATA
POINTS 2803 float
3.4432905 23.883326 27.48247
3.439194 23.679861 28.59254
3.4252543 23.630592 29.329828
3.4500937 24.262667 27.693766
3.4154458 24.036015 28.957815
3.464683 24.112595 29.270515
3.245738 28.785656 29.940727
3.1702611 28.94499 30.55264
3.3099 28.695599 31.464796
3.2886627 28.964338 32.163067
3.3916652 29.524136 29.039152
3.2674444 29.488363 29.787106
3.1955621 29.318298 30.28293
3.1460397 29.438225 31.485826
3.30785 29.552088 32.069756
3.4365423 30.337181 29.23556
3.2677982 30.379808 30.54861
3.239763 30.281776 31.569408
3.3437839 30.080572 32.01818
4.382133 17.077303 26.398436
4.3364277 17.6078 25.603573
4.289043 17.475496 26.344885
4.3739696 18.01407 25.648352
4.0358586 23.234623 26.928598
4.132186 22.712767 27.706036
3.7537735 22.996477 28.623013
3.7428453 22.868093 29.459492
3.8272479 23.003523 30.071959
3.7582622 23.77906 26.9059
3.535118 23.7412 27.638176
3.531049 23.383715 29.702015
3.7283792 23.466558 30.153193
4.2277308 24.33282 26.393574
3.761573 24.340527 26.870567
3.5307605 24.40906 27.425732
3.6350794 24.560503 28.328243
3.518302 24.286617 29.557344
3.6585267 24.127592 30.10182
4.070061 25.078693 26.868797
3.8827548 25.037222 27.50586
3.965313 25.22374 28.347797
3.7302573 24.887424 29.167063
4.2799354 25.948137 30.648823
4.1239514 26.780127 28.806698
4.0961213 26.24721 29.558
4.050061 26.905838 30.249413
4.1720276 26.641071 31.306038
4.195113 27.140276 32.601772
4.145034 27.795158 27.348793
3.6681187 27.637938 30.33234
3.7104383 27.555576 31.346748
3.7688215 27.634169 32.256687
4.1534843 27.55437 33.03567
4.1917734 28.537163 26.959377
3.9198272 28.605452 27.541786
3.7409427 28.746374 28.628769
3.6382275 28.262505 29.23376
3.5576892 28.69319 32.574474
3.9627364 28.485826 33.26422
4.2454233 28.302591 33.678883
4.155611 29.21101 27.098133
3.9011497 29.311275 27.732918
3.559741 29.621002 28.914701
3.5516748 29.645617 32.617123
3.9728053 30.20639 28.1341
3.739541 30.384272 28.767542
3.4590898 30.434961 29.468912
3.4784045 30.462347 32.114635
4.3190465 30.927982 28.141323
3.8110619 30.802103 29.044369
3.5509446 30.900131 31.61101
3.8374848 31.078032 32.242626
4.28097 32.13313 32.88733
4.145452 32.71148 31.824518
4.099062 32.688824 32.492367
4.16973 32.875504 33.08314
4.128438 33.70153 31.397524
3.9965103 33.84059 32.66296
4.2055726 33.592762 33.359577
4.3701854 34.503635 30.667889
4.196758 34.549053 31.447899
4.1605077 34.52789 32.420063
4.2854776 34.26957 33.16821
4.3829036 35.220104 31.553541
4.380829 35.26192 32.440887
4.424471 35.141525 32.846474
5.3541794 15.235855 26.457966
5.060575 15.784284 25.871096
5.133553 15.787339 26.897131
5.252609 15.52312 27.594212
5.2882557 15.790163 28.234474
5.078556 16.694944 24.586674
4.6808224 16.572645 25.5182
4.8906198 16.508535 27.618223
5.2105145 16.45223 28.420925
5.133039 17.624521 24.254503
4.727668 17.569202 24.764795
4.5120435 17.271997 25.23611
4.7656174 17.515419 27.272984
5.097495 17.037025 28.100197
4.865125 18.289066 24.762054
4.6145177 18.373663 25.43195
4.571166 18.277723 26.56998
5.0929236 18.678053 27.069248
5.089303 18.765148 24.94416
4.804255 18.739676 26.163237
4.7783217 22.30706 28.253916
4.43946 22.188065 29.250027
4.8596253 22.114517 30.692139
4.8912997 22.056269 30.965252
4.2776837 23.01511 27.01716
4.8042636 22.590862 27.23853
4.468787 22.518827 30.585484
4.673306 22.60952 31.048397
4.9706974 22.842712 31.84183
4.7498374 23.848629 26.116201
4.515375 23.37793 26.450226
5.1781516 23.598625 32.11223
4.492333 24.174078 26.21887
4.268568 24.774923 26.543293
5.148526 25.878725 26.547628
4.74401 26.67029 27.532682
4.4851427 26.66475 32.3778
4.7360687 27.083702 33.135975
4.560442 27.448631 26.813381
4.5455217 27.299938 33.127033
4.5304537 28.074299 33.696053
5.130185 28.254868 26.105286
4.5082684 28.562664 26.587786
4.859871 28.273504 34.10548
5.1244187 29.249495 26.194696
4.570376 29.277313 26.599611
4.6348534 29.367346 33.8734
5.4003744 29.806103 34.947113
5.4340396 29.824596 37.282345
5.2045918 30.517525 26.007818
4.757925 30.625471 26.680382
4.3646593 30.180784 33.014477
5.358662 30.6022 37.41379
5.226016 31.34531 26.1548
4.964823 31.768589 26.844553
4.4982986 31.076721 28.36624
4.631737 32.19145 33.30439
5.456786 30.977575 36.758114
5.2493224 32.382683 27.022888
4.845462 32.37086 28.580315
4.4483294 32.97047 33.67119
4.6779757 32.83065 33.87478
5.410654 33.54943 27.78413
5.0602865 33.159866 28.47248
4.672755 33.76947 29.718855
4.5686593 33.741646 30.457596
4.413473 33.6514 33.678013
4.8438387 33.29928 34.07383
4.962662 34.46463 29.216818
4.704356 34.80692 30.019588
4.4607124 34.344925 33.43527
4.707633 34.012264 33.872746
4.860095 35.09793 29.707474
4.6869106 35.38164 30.756886
4.6610427 35.41398 31.420235
4.556315 35.59091 32.503586
4.880583 35.397667 33.260246
4.9320226 35.770428 30.96708
4.761817 35.91998 31.686602
4.8815074 36.057587 32.428253
5.8511763 15.209509 25.176258
5.835756 15.018758 25.472486
5.691149 15.00566 26.393917
5.858552 15.013836 27.645428
5.8444586 15.105993 28.04581
6.139499 15.830916 24.157618
5.5904703 15.744505 24.8332
5.381283 15.338303 25.645731
5.4838724 15.588873 28.331676
5.678046 15.764268 28.738043
5.3776364 16.28138 24.926495
5.4856095 16.474106 28.73835
5.849372 17.496271 23.699337
6.0519586 16.957954 29.044903
5.69133 18.21722 23.971575
5.9801145 17.957119 28.467852
6.4045296 18.840742 31.146486
6.33521 19.061943 32.451317
5.8917522 18.755222 24.235207
5.661835 18.773914 24.33797
5.639482 19.290508 25.18553
5.9816847 19.846258 31.539003
6.231473 19.558388 32.586292
6.3745403 19.316841 32.849396
5.795884 21.344368 29.589796
5.8379726 20.813452 31.835197
6.0087833 20.197756 32.291077
6.130896 20.972633 32.847275
5.964952 22.261673 27.469072
5.395105 21.859158 30.064201
5.7447753 21.22689 31.626177
6.2143264 21.332205 32.770237
6.1325617 22.87686 25.276237
5.646555 22.292107 32.38069
6.125284 22.674366 32.898533
6.3344297 23.524403 24.12753
6.1948977 23.453041 24.627653
5.422013 23.070028 32.461716
6.4321785 24.433022 24.062372
5.8546352 25.501226 32.973904
6.0516443 26.244068 26.328678
5.389024 27.179916 33.450253
6.037476 27.119278 33.90952
5.668341 27.887537 25.978191
5.3779874 27.720833 33.91115
6.358567 28.203897 35.987293
6.335052 28.191141 36.162407
5.333048 28.171034 26.015257
5.603406 28.310905 34.13851
5.834563 28.836157 35.295303
5.9883213 28.761185 36.675106
5.926754 28.94332 37.386116
6.1531396 29.085575 38.065598
5.60085 29.500145 37.561867
5.894918 29.650194 38.269127
6.206769 29.998665 38.824245
6.111397 30.299263 25.329142
5.680603 30.714752 34.51819
5.558309 30.30708 35.96435
5.8054614 30.442123 38.419174
6.0563893 30.644783 38.834557
6.3324585 31.482239 24.622135
5.476568 31.378801 25.85326
5.590294 31.991898 33.95041
6.1088896 31.78851 35.562153
5.4881225 31.226404 37.04865
5.681427 31.477137 38.331535
5.9943805 31.712189 39.142876
6.466235 32.518406 24.080856
5.6773148 32.51702 26.6326
5.331799 32.424095 34.013786
6.1422524 32.516273 36.66215
5.8756967 32.69975 37.58034
5.711065 32.39731 38.415634
5.983655 32.424488 39.13269
5.4668365 33.157852 34.30698
6.3388543 32.94393 35.013775
6.081765 33.046562 37.58301
6.034357 33.19674 38.417824
6.1522264 33.021435 39.050865
6.291862 35.01398 26.002792
6.208897 35.98527 25.659988
5.92687 35.661465 26.33681
5.7651405 35.75472 27.316776
5.630594 35.29294 28.849506
5.351911 35.633434 29.77416
6.1969023 36.358223 25.724836
5.8674874 36.368744 26.57355
5.8125753 36.33628 27.202305
6.1174774 36.544853 28.003473
5.559957 35.834133 29.748734
5.405826 35.993156 30.59953
5.55773 36.278976 31.308102
5.461216 36.42285 32.53418
5.5330157 36.163586 33.068188
6.252058 36.90489 25.891565
6.115842 37.031933 26.489536
6.114681 37.038597 27.245474
5.775965 36.569157 31.883314
5.7131543 36.5551 32.260334
6.5802274 15.069722 24.760344
6.556356 14.785715 25.5591
6.3608932 14.712119 26.247005
6.725319 14.607305 27.477373
6.7083793 14.814162 28.308691
6.6695385 15.127718 28.705189
7.121055 16.090805 23.11897
6.8623934 15.935881 23.528942
6.743007 15.696996 29.074327
7.1629677 16.776 22.79525
6.49929 16.276398 23.598589
6.6812906 16.472721 29.332996
7.143071 17.359821 22.78034
6.4596252 17.801346 29.146702
6.9320817 17.939108 30.917126
6.8788075 17.909702 31.765305
6.9060764 17.89088 32.462975
7.14667 17.86338 33.053696
6.6293297 18.94576 30.852367
6.613058 18.490906 31.726728
6.6088595 18.620476 32.785908
6.792666 18.796894 33.21077
7.157083 18.7919 33.635185
6.843778 19.041773 29.446373
6.629489 19.356588 33.170918
7.2142897 19.349049 33.68634
6.1727557 19.649183 25.617268
6.755026 19.886541 26.648666
6.979768 20.161427 28.044502
6.533635 20.482456 29.627493
6.839974 20.273464 33.450504
7.0320706 20.34977 33.703934
7.09547 22.299706 24.869202
6.6702223 21.653427 27.717455
6.708959 21.168762 33.429058
6.7751627 22.613102 24.657776
6.8325567 22.324268 33.257072
7.0454454 23.963196 22.962425
6.848013 23.641693 23.389795
7.0181036 23.503078 33.37984
7.1796584 24.088072 33.64092
7.169956 24.502132 22.770576
6.6791177 24.292856 23.456726
6.3728676 24.815937 33.1367
7.098896 24.967846 22.935558
7.008427 25.156393 23.394615
6.947477 25.458782 24.648197
6.6217065 25.266376 33.455055
7.2872953 26.099169 34.027596
6.2957263 27.16298 25.888565
6.463555 27.990498 35.959713
6.7199697 27.808125 36.5504
6.873071 27.863878 37.283527
6.8848352 28.919764 25.150341
6.4730687 28.51833 37.621384
6.537603 28.95259 38.35049
6.4924355 29.63891 25.326311
6.7539544 29.622002 38.965286
6.799047 31.15499 23.491894
6.6738286 30.826227 39.333744
6.9903927 31.70002 22.833141
6.6676154 31.662197 23.394753
6.4528837 31.2487 39.42239
6.997718 32.43562 22.814749
6.65379 32.41995 23.407022
6.3501887 32.38417 39.499252
6.7106433 32.52938 39.64373
7.097215 33.099285 22.98111
6.7197795 33.07243 23.613825
6.6263742 33.526253 25.46294
6.510595 33.079765 35.63362
6.9099684 33.598175 36.86312
6.545148 33.106117 39.317593
7.0140285 32.86107 39.586674
7.0419483 34.402447 23.741985
6.628052 33.87503 37.767696
[...]
POINT_DATA 2803
SCALARS features_00 float 1
LOOKUP_TABLE default
0.5709214 0.4931255 0.4511116 0.526354 0.4421976 0.41730624 0.32733375 0.37216955 0.4058044 0.40974173 0.29225618 0.328355 0.36172748 0.39503908 0.3812636 0.28164697 0.3596465 0.34602764 0.3432179 0.6650705 0.6639515 0.66412324 0.66034913 0.59836733 0.59750277 0.5420317 0.4673944 0.43791407 0.59196407 0.57386583 0.4471629 0.40780038 0.52319425 0.554507 0.5326172 0.43947792 0.3766585 0.344464 0.46206197 0.45248836 0.34630892 0.32115367 0.085653916 0.12675618 0.07742919 0.1731486 0.2669957 0.3517554 0.27022782 0.26776826 0.34833226 0.39153913 0.34319136 0.2835793 0.2805599 0.28350222 0.2739541 0.4095757 0.367401 0.31595978 0.277353 0.2763403 0.28632718 0.3513341 0.24965969 0.25981623 0.28626055 0.29321977 0.2076689 0.23561135 0.26187742 0.18539684 0.2348776 0.3195724 0.31994638 0.34361938 0.42540127 0.44245687 0.39709884 0.3691426 0.4395597 0.48142576 0.4559706 0.45692942 0.5032554 0.4999646 0.5844209 0.5632339 0.6202278 0.6460773 0.6374023 0.5940578 0.61945605 0.6184785 0.58694595 0.6221552 0.643779 0.65307975 0.6064838 0.5429068 0.63027066 0.64562535 0.6501132 0.5945107 0.6084666 0.6418337 0.4712358 0.43282795 0.30802482 0.27160236 0.5810834 0.4887157 0.3709166 0.30604684 0.22635895 0.45950243 0.5253499 0.20333022 0.49172902 0.47950333 0.17896187 0.19460973 0.31075415 0.27258223 0.24502099 0.30234274 0.2899389 0.238663 0.28055495 0.22057797 0.25124443 0.2751624 0.24751692 0.06633556 0.4323447 0.20178798 0.23112088 0.22163875 0.47637832 0.1741863 0.17822328 0.19054106 0.24818233 0.35107738 0.12607606 0.074072696 0.3280745 0.29914713 0.026357383 0.0667142 0.24305335 0.32191002 0.38350266 0.30718318 0.20992027 0.31371194 0.44486368 0.38414842 0.2826323 0.38413343 0.445912 0.51128006 0.4903282 0.40406168 0.4714514 0.51152766 0.52673465 0.53440213 0.5792269 0.64514524 0.6482055 0.5106602 0.51943004 0.5442053 0.6421218 0.62459475 0.55050534 0.5855204 0.58131266 0.5535855 0.586677 0.38755882 0.37018514 0.46844792 0.53786457 0.5672947 0.541613 0.32434005 0.43356597 0.4728649 0.16977385 0.2746141 0.3673569 0.33390892 0.23391037 0.27192172 0.2278674 0.29696286 0.29830816 0.2049287 0.15230677 0.49698895 0.40379062 0.1814578 0.4954218 0.0110342875 0.06258255 0.19488303 0.056564838 0.18311764 0.184572 0.19422898 0.21567753 0.21946776 0.1287127 0.094296165 0.28490925 0.3439864 0.37756073 0.41649455 0.43964237 0.44984633 0.1211095 -0.11919447 0.25592065 0.48938543 0.5006273 0.14221227 0.1415305 0.1118902 -0.024440676 0.39743003 0.56444263 0.6206138 0.27562797 0.1006362 0.20017268 0.23839125 0.49100792 0.63889825 0.6764595 0.20345265 -0.10601645 0.51047194 0.67608345 0.7020328 0.31342995 0.45659983 0.3990022 0.29000765 0.13622081 0.27539676 0.48101562 0.4394891 0.36892152 0.25499696 0.263377 0.35995507 0.4167155 0.48224396 0.46704504 0.4998053 0.4751219 0.40936294 0.42453372 0.44248432 0.52040756 0.5297321 0.5636062 0.6095171 0.6221326 0.61662173 0.5541744 0.53585154 0.59920233 0.5495943 0.5246732 0.567785 0.526635 0.31642154 0.39024124 0.53376627 0.58562565 0.62153584 0.30830655 0.47983903 0.5429713 0.55903035 0.5851074 -0.10072715 0.49629962 0.53813064 0.44400793 0.310168 -0.29342112 -0.025351375 0.42796943 0.43067306 0.4090107 0.018264998 0.3286834 0.43038073 0.1701506 0.53710186 0.5326731 0.070655115 0.02268546 0.527565 0.5394766 0.03181147 0.5017164 0.4759121 0.3028767 -0.014800847 -0.06493627 0.087271035 0.16930123 0.22272702 0.2457845 0.06567768 0.29894906 0.35261333 0.12974432 0.4002655 0.27052364 0.5086672 0.36427563 0.31637037 0.57263786 0.3745581 0.34455726 0.6746262 0.67116123 0.36529303 0.34084338 0.062331002 -0.028522711 0.37294522 0.7061044 0.67419297 0.27915707 0.5835515 0.6918248 0.33330217 0.44746253 0.1483996 0.28093326 0.47112375 0.50893784 0.479354 0.42276353 0.38718265 0.4692254 0.48875803 0.43848774 0.42633387 0.5766677 0.529598 0.5139592 0.5139255 0.532688 0.5640023 0.5671114 0.6012455 0.5549966 0.5467158 0.45666096 0.5609194 0.562432 0.5293318 0.5525692 0.6040769 0.6253514 0.5605216 0.54596967 0.59219515 0.6406418 0.63755286 0.48748603 0.6212107 0.1589112 0.49106997 0.4467464 0.42152888 0.2830016 0.5450739 0.5031171 0.51852137 0.061626256 0.029431388 0.48174796 0.5098593 0.4583871 0.47711042 -0.06858448 0.25958556 0.09734027 0.18928063 0.07886818 0.28386936 0.089795515 0.33208257 0.8931066 0.3959168 0.39361322 0.38763678 0.6427275 0.38011426 0.36978987 0.67328537 0.318108 0.27225798 0.5678408 0.6735034 0.22194266 0.27723515 0.33317435 0.07686217 0.1312879 0.251041 0.32128757 0.30735797 0.2948683 0.36281753 0.4102847 0.15428731 0.22783989 0.28839156 0.28817534 0.4209986 0.44902647 0.39388764 0.38049906 0.31821728 0.33593345 0.34037083 0.51220477 0.4692425 0.43292904 0.44825408 0.4740858 0.5394747 0.5222555 0.54416317 0.36934784 0.5500517 0.6229068 0.6305948 0.6329386 0.60110235 0.67276263 0.20715663 -0.04252911 0.5433841 0.6370585 0.64335275 0.61588633 -0.30721697 0.458911 0.56424886 0.5661732 0.3739363 0.28651857 0.43157434 0.42502153 0.3355053 0.31527272 0.4396819 0.428062 0.3152765 0.44352368 -0.02958795 0.27320415 -0.2473971 -0.13383724 -0.08854406 0.193753 -0.061131425 -0.0075284764 0.30461246 0.055677317 0.1554965 0.067578435 0.42424995 0.5108782 0.46650994 0.5309657 0.5835135 0.17011586 0.36862344 0.50973094 0.68474674 0.72808033 0.38863885 0.5334972 0.77574146 0.8786982 0.8500899 0.36578327 0.52470493 0.69588625 0.84028363 0.9200143 0.88230395 0.8300791 0.3820799 0.40877366 0.88479125 0.93186796 0.8945286 0.3553319 0.29878247 0.12905043 0.21966246 0.27605003 0.2532439 0.19490544 0.051400185 0.122619726 0.15301009 0.25831816 0.26930726 0.2993337 0.2573151 0.22567339 0.1508202 0.24615565 0.2704078 0.26284602 0.32190228 0.20651549 0.46586078 0.44006467 0.35990447 0.32991385 0.44447657 0.30458695 0.5184353 0.06826937 0.31223357 0.3899035 0.43555737 0.5685344 0.69880426 0.5003054 0.6849952 0.6923362 0.6830122 0.6293012 0.45689094 0.644755 0.65906966 0.66780174 0.17466375 -0.14815578 0.38135976 0.6075823 0.48086813 0.35424775 0.38812026 0.41587454 0.36256683 0.29262605 0.30495098 0.3440553 0.42736495 -0.34810874 0.1362586 0.31823057 0.3372998 0.3267601 0.32498023 0.36509144 0.40332687 0.45776927 -0.07164343 0.12626734 0.24490511 0.30439803 0.30145234 0.3074232 0.33851242 0.38864672 0.44383317 0.467871 0.30714536 -0.13120103 0.072390676 0.35094893 0.44841874 0.10368627 0.2936523 -0.26103735 -0.12558925 -0.0062657185 0.045147076 0.106779456 0.42891032 0.44297716 0.46470714 0.3267329 0.22816405 0.14141758 0.1537429 0.3757857 0.09691521 0.11354325 0.435927 0.4303792 0.37995577 0.25238672 0.57352054 0.70111936 0.3221243 0.13830079 0.33710584 0.725507 0.72749305 0.3039233 -0.13044603 0.167115 0.7621525 0.7534846 0.30987525 0.8418458 0.81614125 0.30052584 0.2827552 0.15993166 0.73782164 0.869045 0.893757 0.8691424 0.3065295 0.092957154 0.24469322 0.22879739 0.08731054 0.08167849 0.08467409 -0.0009528473 0.25244084 0.38576692 0.09940763 0.42516944 0.43293825 0.22605237 0.11594782 0.10774069 0.075631686 0.41843268 0.469022 0.28682208 0.29092625 0.24502485 0.07225393 0.2532058 0.3495997 0.46186876 0.38170013 0.39378464 0.31444812 0.22884054 0.14972594 0.16588368 0.21436435 0.357135 0.44431373 0.44884723 0.39304063 0.34480044 0.28194275 0.5332744 0.488058 0.6201234 0.54342645 0.5117714 0.338046 0.35059178 0.28126496 0.25992155 0.22939676 0.36477715 0.09380369 0.1628168 0.2495667 0.67603624 0.5238314 0.3151065 0.18664226 0.46511126 0.7086202 0.6755847 0.62963235 0.6266534 0.7015796 0.71046364 0.66945565 0.64393735 0.52093565 0.5319686 0.4948263 0.6358664 0.3769762 0.3256566 0.36699283 0.08268872 0.46231705 0.30676895 0.26553255 0.35114336 0.41601315 0.27200016 -0.28752235 0.40089273 0.4311781 0.1988583 0.36297464 0.45833635 0.5079972 -0.050340027 -0.37751153 0.3127432 0.22077543 0.313955 0.48472434 0.5272025 -0.0972911 -0.0241758 0.06153597 0.17888077 0.2780308 0.51953304 0.54220015 0.0992034 0.5031328 0.17087868 0.12460585 0.35084316 0.44488955 0.48096654 0.47133458 0.31952208 0.13472535 0.46908826 0.48770526 0.37102574 0.21965384 0.36191326 0.3655904 0.3206081 0.621384 0.6313139 0.29194024 0.025947154 0.66215205 0.27606967 0.19921756 0.71945053 0.23935631 -0.23153241 0.6114823 0.82077867 0.8142927 -0.20511198 0.7090509 0.7246226 0.74613965 0.14410052 -0.23620981 0.031525005 -0.05694097 0.28644848 0.3370734 0.14189634 0.43458942 0.44245714 0.26715827 -0.022429518 -0.2239924 0.04609122 0.49073452 0.3179044 0.33394068 -0.0041944087 0.47364652 0.48791152 0.38641846 0.4084739 0.44325036 0.39560452 0.08149124 0.37855724 0.4534968 0.48249805 0.44946283 0.47474515 0.5101344 0.53310275 0.35757178 0.37549877 0.3077972 0.28051108 0.48995024 0.53944504 0.35876796 0.62072754 0.5576552 0.5264863 0.479018 0.64743316 0.6555699 0.6202086 0.5663284 0.23155694 0.1711052 0.21565321 0.7670062 0.58138716 0.47925767 0.050226554 0.80885273 0.77045333 -0.20648137 -0.048912622 0.044175636 0.03488987 0.705981 0.6848135 0.6448982 0.57641196 0.79201746 0.09575945 0.08440826 0.6811512 0.55429864 0.5112254 0.40441322 0.43291247 0.75905323 0.5930567 0.097510464 0.43370253 0.4657904 0.46220753 0.39663747 0.4775315 0.2902867 0.259554 0.043200746 0.5484794 -0.015774898 0.5529659 0.029886872 0.5247736 0.4636643 0.48660716 0.21937117 0.42807066 0.26994827 0.39085767 0.33408433 0.4306838 0.32113814 0.29340082 0.40109825 0.26324522 0.49401253 -0.06466246 0.6264351 0.16316262 -0.011597648 0.2959137 0.6551101 -0.21397981 -0.1543696 0.598762 -0.22114335 -0.012784652 -0.05045663 -0.029531796 0.16343328 0.26014084 -0.1677393 0.47903436 0.3056696 0.2165938 0.2461478 -0.043571264 0.46815568 0.35524398 0.27336186 0.116703354 0.115040615 0.4724541 0.4131174 0.44382957 0.46982312 0.44143507 0.3875433 0.15852354 0.1904675 0.4006166 0.47394407 0.5092997 0.5376428 0.51140684 0.44548655 0.54866344 0.60229933 0.53921807 0.54100215 0.635553 0.61398315 0.8149611 0.7697394 0.66143024 0.4836927 0.3757853 0.046498597 -0.04862998 0.8455727 -0.2668078 -0.10396761 -0.023394376 0.5712803 0.5326619 0.8669771 0.05076076 0.50916743 0.43611538 0.48007494 0.43971014 0.392045 0.44632667 0.46724916 0.8481387 0.015348166 0.31496298 0.48401505 0.11583331 0.24702244 0.5102099 0.5247174 0.11767797 0.21530339 0.08158463 0.52772856 0.087831065 0.52791494 0.1364147 0.49600345 0.009215876 0.43790492 0.21917859 0.07495943 0.34767315 0.23673028 0.311089 0.26344836 0.1716627 0.2865468 0.14177597 0.14115068 0.14879164 0.117041975 -0.06273834 0.24675256 0.3729385 0.12491831 0.20089287 0.16252877 0.22081968 0.021012858 0.005017534 0.26064065 -0.010602288 0.009817906 -0.021111252 0.22771755 0.13755797 0.029599033 0.048206795 0.031129017 0.058888663 0.18965834 0.32938173 0.35482126 0.25624862 0.33881325 0.32148716 0.09022639 0.40788388 0.30005103 0.3186423 0.30585387 0.25372407 0.30578306 0.4052816 0.42080468 0.48788488 0.51840603 0.1916644 0.29585773 0.49101275 0.53492916 0.4115279 0.34922838 0.5721649 0.5979178 0.5132031 0.44233605 0.46134073 0.38781357 0.4203813 0.45305008 0.792174 0.7469124 0.5894047 0.26855195 0.03435758 -0.20824067 0.3119142 0.3863427 0.43636996 0.38576043 0.8168001 0.77887404 -0.24023426 0.22032605 0.18690644 0.82364774 0.037271954 0.33769584 0.30628178 0.23744743 0.40828642 0.45083147 0.47094625 0.75118923 0.6749973 0.4743639 0.14200419 -0.25400835 -0.060227003 0.07156834 0.48087904 0.24851955 -0.24605194 -0.05647642 0.47098875 0.22928959 0.4198957 0.23246385 0.1890456 0.39249435 0.13840307 0.39434454 0.32055557 0.22650206 0.120815426 0.14738858 0.10361545 0.072415575 0.15760243 0.023210086 -0.011723049 0.04972785 0.050648883 0.109559424 0.07992027 0.14555481 0.26423797 -0.001507286 0.30487835 -0.041720465 0.29978573 -0.06323325 0.29549503 0.27001786 -0.034161247 -0.04058372 0.16459356 -0.054294262 0.16900507 0.13497894 0.2909002 0.24578212 0.34691346 0.30420253 0.21346384 0.28054357 0.22914463 0.37107337 0.30501145 0.33235997 0.05313753 0.2284258 0.43034476 0.27459615 0.10021885 0.4868828 0.555737 0.5940421 0.59442985 0.5573213 0.42761046 0.39176142 0.2338948 0.40538147 0.4739929 0.4544586 0.40300098 0.72542655 0.61506593 0.42824048 0.33409616 0.11112197 -0.12251863 -0.039521664 0.22757185 0.35168037 0.38379323 0.3626234 0.78393745 0.73111945 0.3355807 0.34339628 0.7408732 0.6938318 0.53527564 0.17098889 0.1236985 0.13348019 0.1417989 0.32270488 0.389948 0.6147897 0.2898736 0.15697312 0.37641275 0.44860357 -0.2551637 -0.14435227 -0.0118673295 0.45431113 0.28526998 -0.2620182 0.43163773 0.33577776 0.2602235 0.27854988 0.21259151 0.3335288 0.111037366 -0.016110456 0.0020631328 -0.09083328 -0.0020912737 0.069505416 -0.058310263 -0.13672608 -0.12132431 0.15068531 0.20764312 0.3236039 0.3033578 0.31245947 0.4771639 0.34349543 0.48679328 0.3098325 0.26464024 0.054124303 0.3039665 0.49209267 0.5196807 0.24043079 0.08741399 0.3023761 0.40826976 0.09884578 0.2867592 0.42323595 0.28338897 0.48362267 0.5317314 0.3827589 0.3329247 0.52223057 0.47278485 0.30784217 0.1327109 0.14731476 0.18290146 0.19904785 -0.008057818 0.39752412 0.24415614 0.41317278 0.48595238 0.56047404 0.6104829 0.6475574 0.65434253 0.60425484 0.49067366 0.25998375 0.4253096 0.45597196 0.38881952 0.21435617 0.42528605 0.37729865 0.42966014 0.38483065 -0.119905375 -0.17225157 0.026113056 0.17071986 0.36976153 0.35345697 0.34475642 -0.078586504 0.2574204 0.13974383 0.12479551 0.1489701 0.1679845 0.24609923 0.3528669 -0.035102293 -0.3334609 0.09892967 0.08369479 0.11236426 0.30309844 -0.015300464 -0.31973058 0.25811952 0.21496004 0.34405255 0.24459456 0.26144117 0.27430567 0.25316575 0.3318962 0.442538 -0.014723811 0.5921383 0.44986075 0.6138233 0.06542135 -0.011031486 0.5062089 0.46488202 -0.203791 0.6234329 0.05624473 -0.066128656 0.02991303 0.17861351 0.2273529 0.26638353 0.2812289 0.31280366 0.5025171 0.30827424 0.53693724 0.54395044 0.33101946 0.26834124 0.52990615 0.55226773 0.39944202 0.51765454 0.210563 0.23219317 0.50617695 0.377199 0.56706727 0.41504794 0.57828045 0.59841835 0.5408924 0.4719965 0.11229085 0.1335179 0.067232676 0.4790038 0.48753184 0.33266413 0.45008802 0.5243966 0.5771146 0.6163202 0.18783265 0.6559408 0.67335755 0.65832627 0.55211586 0.20206639 0.24666631 0.25342983 0.39785078 0.3437899 0.33482987 0.18204793 0.19778793 0.34573185 0.3537944 0.07076955 0.35454506 0.33856487 0.06720412 0.30256814 0.11257777 0.22140807 0.21159624 0.18446124 0.20246704 0.254399 0.06380339 -0.0030179769 -0.01933606 0.12699604 0.2520035 0.21506706 0.3011067 0.17837383 0.2827066 0.16135219 0.36484385 0.11285486 0.5206167 0.053398613 0.68530726 0.6570771 0.706934 0.28117943 0.6405206 0.7418648 0.23178406 0.2323144 -0.21712941 0.2505932 0.62775075 0.6787357 0.26116005 0.20511158 0.16970974 0.12317215 -0.17107219 -0.14551258 0.12777519 -0.15370448 0.4291954 0.23590736 0.45606732 0.5076151 0.2666403 0.18996602 0.5409092 0.15130241 0.5514176 0.1752706 0.508305 0.530032 0.26638433 0.31101426 0.3938256 0.17803101 0.22616407 0.26125282 0.5499679 0.60618466 0.4928803 0.63711405 0.5941026 0.5206456 0.3043498 0.11508904 0.041869342 0.036495715 0.57219553 0.45747453 0.36152738 0.508342 0.5594084 0.5820018 0.56583154 0.5930766 0.5835597 0.6447216 0.6451278 0.18033999 0.15742281 0.21243916 0.54821414 0.4980893 0.43835148 0.33851302 0.10301235 0.32151216 0.3091551 0.3805101 0.28245637 0.31900847 0.31323987 0.26834393 0.23792858 0.20357555 0.2883988 0.35191792 0.15484068 0.16574216 0.38282934 0.38684648 0.00039482396 0.39129746 -0.12369418 0.27634856 0.10033711 0.029725455 0.2976107 0.30699036 -0.008723646 0.3860464 0.08402228 -0.22257736 -0.23899838 -0.20295575 0.5761948 0.019126061 0.7222353 0.32213813 -0.2241922 -0.024310026 0.06740769 0.78010315 0.26059768 0.7289187 0.78381175 0.3548712 0.6502552 0.7163031 0.32381952 -0.22607389 0.28568506 0.21227007 0.1456701 -0.18819483 0.1650972 0.071970254 0.39985365 0.4429188 0.0399658 0.032980867 0.5081966 0.19497016 0.53185135 0.20730573 0.5002849 0.30479485 0.3832331 0.40241718 -0.050726995 0.40171105 0.46552038 0.47705287 0.41746026 0.5564394 0.5637538 0.5218277 0.056628287 -0.22184801 0.017895777 0.48819745 0.6202632 0.58059174 0.54797685 0.51565385 0.012784515 -0.051115625 0.31720898 0.6066003 0.591437 0.4306428 0.2797495 0.48143256 0.54707164 0.581692 0.5987339 0.13880578 0.19191648 0.13480195 0.10942797 0.11585042 0.25831625 0.6144129 0.5813968 0.5579295 0.48847592 0.0997764 0.24805087 0.1829721 0.63053846 0.33242565 0.5665065 0.16456945 0.5128686 0.21498986 0.34155086 0.3626454 0.35832596 -0.06900921 0.2117998 0.21174681 0.27613318 0.33807698 0.41701958 0.43031305 0.4487874 0.4197557 0.18170056 0.50263906 0.46082813 0.4072061 0.46419394 0.39650202 0.022697449 -0.03609229 0.3243085 -0.016244918 -0.22520173 0.4865988 0.2134238 0.47490627 0.5912973 0.63770044 -0.27728948 0.49709317 0.6275882 0.71376514 0.72773886 0.33515307 0.3277535 -0.1769666 0.38112348 0.5617112 0.6725395 0.7717345 0.7785533 0.3677505 0.49460614 0.66757846 0.6866328 0.77353334 0.37879893 -0.1669182 0.3829345 0.38229787 0.2974689 0.29776174 -0.12585385 0.28748262 0.35027117 0.3409584 -0.5821358 0.13862146 0.101481125 -0.4664093 -0.026282959 0.30415022 0.36021835 0.18341762 0.11928614 0.4228695 0.46149522 0.33786613 0.31283218 0.3879645 0.42928922 0.41935354 0.38637418 0.41102135 0.5184312 0.47031277 0.47923875 0.14994924 0.386342 0.462286 0.50689626 0.5296663 0.538804 0.5427661 0.16249658 -0.07764542 0.5591668 0.5471894 0.5371345 0.24741998 0.40715784 0.48436606 0.5920289 0.5222138 0.570732 0.39944872 0.42914525 0.24175343 0.3027628 0.3612005 0.35983455 0.20967317 0.26813716 0.31096494 0.12608209 0.05451559 0.62587917 0.6001275 0.5686492 0.5181222 0.14946797 0.047348503 0.15627712 0.6264535 0.6335458 0.35936767 0.23383188 0.2524318 0.2850496 0.6042703 0.2654044 0.5553582 0.4193372 -0.057033952 0.09042856 0.15229623 0.40177774 0.46360576 0.49153978 0.49987125 0.16012314 0.4829899 0.5727784 0.5585524 0.52488184 0.2921313 0.53666174 0.18668593 0.51775986 0.522931 0.17745806 -0.018227056 0.28441805 -0.11258606 0.31991336 -0.08538686 0.3403595 -0.10517122 0.3884353 0.40190458 0.40130684 -0.021785744 0.40689576 0.3986809 0.029112939 0.39801204 0.37109447 0.01658812 0.3840864 0.37656757 0.095202535 0.3632328 0.34904236 -0.33086738 0.119586125 0.060578585 0.24873717 0.23672467 0.18987973 0.29219922 0.26315323 0.36726868 0.3617325 0.3793275 0.37838197 0.13212536 0.48696798 0.39255577 0.36721486 0.07083886 0.5903419 0.48350912 0.49830344 0.27944142 0.122745104 0.1757603 0.2692098 0.43763912 0.46156728 0.55621296 0.5995085 0.51799595 0.53123695 0.5305629 0.43630132 0.48105103 0.5319197 0.50134146 0.3598118 0.27867338 0.3342054 0.3668251 0.47416717 0.44177955 0.33217877 0.37417582 0.47026253 0.4837278 0.47935563 0.37955582 0.43888384 0.4386807 0.31099772 0.31047702 0.42169175 0.38811952 0.23569146 0.36287862 0.3268956 0.16485032 0.13498585 0.49941292 0.043333136 0.24707156 0.61469626 0.60573494 0.59960395 0.53699255 0.4004616 0.022302091 0.24930784 0.32296833 0.60300267 0.5906639 0.32154763 0.29582608 0.54942197 0.20273899 0.48630026 0.075228915 -0.0027086586 0.07781217 0.5958219 0.620376 0.63681877 0.091003865 0.1016639 0.53385144 0.6559173 0.676386 0.668405 0.6271421 0.28627917 0.6180326 0.675186 0.6688589 0.6275821 0.28896824 0.61978495 0.2986943 0.28761658 0.043253593 0.30592257 -0.0014831014 0.30774713 0.035563327 0.33832252 -0.017398745 0.3746408 -0.0180786 0.40470123 0.3960352 -0.058538105 0.08969477 0.4095683 0.41080838 0.1985795 0.40207708 0.16835505 0.38054138 0.3780981 0.14834122 0.3744827 0.34615338 0.21848002 -0.10861106 0.09221043 0.1480667 0.17081852 0.06726389 0.33165568 0.13025174 0.044067476 -0.020251356 0.30588537 0.16407228 0.0035359003 -0.10158193 -0.09856914 0.5168904 0.35631138 0.25705108 0.12103495 0.09266491 -0.03899438 -0.063475035 0.60455084 0.60489094 0.32281876 0.21395455 0.01573677 -0.29567152 -0.10168347 0.6376142 0.45014757 0.33207217 0.23199102 0.2657427 0.3328252 0.604809 0.63471425 0.5316216 0.56886935 0.59312433 0.5823026 0.40909284 0.50344604 0.5708484 0.575717 0.59575325 0.48318323 0.49319673 0.4400483 0.45139724 0.47731215