# vtk DataFile Version 2.0
Really cool data
ASCII
DATASET POLYDATA
POINTS 7989 float
12.389289 45.722107 32.671852
12.356577 45.698586 33.491333
12.401415 45.52294 33.857494
12.34836 46.08857 32.704
12.341832 46.37234 33.374935
12.448688 46.9295 33.481125
13.012876 45.041878 31.474945
12.590422 45.141285 32.734146
12.6644 44.98855 33.401863
13.218369 44.82828 34.366436
13.043274 45.65415 30.846987
12.763768 45.4361 31.571484
12.509562 45.675224 32.277725
12.481907 45.469864 33.724247
12.656998 45.6324 34.17215
13.169573 45.488758 34.830708
13.098633 46.31241 30.914324
12.775973 46.362713 31.543175
12.58705 46.554867 32.353527
12.703693 46.584545 34.200695
13.027577 46.02868 34.664276
13.27917 46.86084 31.081871
13.064959 47.13576 31.810307
12.815705 47.31821 32.663994
12.693342 47.303177 33.367817
13.023743 47.314384 34.117775
13.173314 47.822548 32.879845
13.127371 47.75608 33.54481
13.203626 47.796944 33.887516
14.38569 41.709156 29.356983
14.266691 41.849586 30.306477
14.411603 42.136913 28.928787
14.323169 42.34715 29.742113
14.255501 42.057514 30.227804
14.322387 42.264923 31.458506
14.180376 44.25362 10.71117
14.19692 44.30525 10.986909
14.318855 43.641895 30.192589
13.9405155 43.635475 31.454044
13.351632 44.380653 32.938145
13.712279 44.175526 33.493763
13.726739 44.31405 34.14716
14.165363 44.761948 10.060297
14.000511 44.677418 10.559006
14.032324 44.71815 11.157453
14.291959 44.81145 11.763924
13.333084 44.43977 33.827072
13.587461 44.620914 34.510704
13.865528 44.80591 35.09512
14.119559 45.374737 9.937137
13.923244 45.35267 10.591475
14.021637 45.355114 11.304223
14.314065 45.21857 11.818058
13.729207 45.55815 35.28053
14.171311 45.465508 35.647415
14.335558 46.19603 9.888556
14.179442 46.1176 10.50054
14.236124 45.8893 11.419893
13.662877 46.258877 30.292194
13.45226 46.44011 30.512033
13.630829 46.40926 35.152668
13.795014 47.157837 30.831493
13.563616 47.531666 31.610573
13.348599 47.45724 34.35777
13.565257 47.01267 34.857983
14.09463 47.60358 31.139486
13.979729 47.81309 31.622507
13.504644 47.933746 32.694115
13.508854 47.979103 33.42899
15.064384 40.100296 28.640154
15.072781 39.948246 29.579044
15.03678 39.998955 30.454798
15.081947 40.099945 31.570621
15.161118 40.220234 32.410847
15.143833 40.423218 27.862047
14.742108 40.740585 28.493866
14.733705 40.40084 29.349451
14.661121 40.771404 30.72523
14.676804 40.69211 31.442398
14.916114 40.628403 32.34728
15.282732 40.883083 33.151672
14.833595 41.543133 28.032576
14.582571 41.396458 28.505697
14.543053 41.28952 32.35112
14.733385 41.737198 32.88029
14.819604 42.634216 28.072975
14.771719 42.223625 28.264395
14.785082 44.173603 10.035598
14.506912 44.105537 10.6086235
14.727232 43.975803 11.343044
15.009548 44.079113 11.971341
15.444395 43.630814 23.768461
15.456985 43.70809 24.28538
15.410948 44.050617 26.48072
15.09672 43.732224 28.207191
15.20199 43.39138 33.62486
14.530931 44.32537 35.167797
15.003962 44.896782 9.380639
14.622228 44.637226 9.737781
14.458246 44.413643 11.71061
14.657376 44.723774 12.145466
15.400016 43.992844 23.890734
15.421098 44.079086 24.304747
15.244805 44.811817 26.888271
15.07472 44.585365 27.429493
14.846712 44.291595 28.601946
14.304291 44.68606 35.323627
14.90508 44.8006 35.766094
14.919177 45.9006 9.130536
14.441907 45.469124 9.577397
14.657812 45.56985 12.155506
15.206298 45.53366 12.8048315
15.175512 45.073032 26.974607
15.17861 45.471966 27.555079
15.051548 45.22904 28.154516
14.822917 45.250835 35.902767
15.0281925 46.49764 9.047829
14.721526 46.5065 9.471303
14.5359955 46.52953 10.442111
14.50853 46.22712 11.466505
14.92171 45.971756 12.338112
14.367491 46.65954 30.084854
14.731996 46.33621 35.826412
15.211765 47.01635 9.044328
15.001188 47.152912 9.557318
14.949717 47.150658 10.350145
14.547323 47.109764 30.281954
14.691318 47.39715 30.61196
14.904754 47.23333 35.44795
14.835844 46.953693 35.60443
14.46206 47.706116 31.035786
14.524694 47.88003 31.468119
14.223676 48.09257 32.239384
14.437071 48.06449 33.416435
14.365729 48.00618 33.968086
16.136969 38.926132 24.703314
16.067278 38.706615 25.455294
16.034103 38.84248 26.28383
15.637621 39.383965 29.885487
15.877018 39.390682 30.161781
16.200577 39.513454 24.134047
16.111717 39.337532 24.600609
15.802042 39.3734 25.513708
15.900172 39.48148 26.344984
15.971168 39.666386 27.438633
15.528011 39.89049 28.152975
15.455261 39.6011 29.751572
15.447098 39.618042 30.698591
15.6514435 39.634964 31.32009
15.582341 39.841557 32.04291
15.840717 40.09741 32.99178
16.418516 40.547344 22.892414
16.352955 40.409634 23.372633
15.9849825 40.600163 24.58366
15.8903475 40.5331 25.783989
15.73214 40.717667 26.746641
15.592034 40.695335 33.27931
16.364525 41.753315 22.656984
16.2489 41.40804 23.430502
16.134241 41.472507 24.220589
16.070635 41.37595 25.686058
15.530004 41.252132 27.20164
15.659042 41.161835 33.641
16.408157 42.80966 22.0406
16.032454 42.723938 22.68859
15.732573 42.670296 23.514503
15.684444 42.578304 24.032553
15.517271 43.119705 33.515045
15.290815 44.18711 9.898953
15.317429 43.706047 11.025355
15.336035 43.758694 11.354822
15.656611 44.09861 12.401693
16.21512 43.690887 22.348833
15.762061 43.647083 22.931074
15.642515 43.179775 23.18943
15.491526 43.309006 24.657728
15.517039 43.67536 26.443262
16.126299 43.763386 35.052876
15.366525 44.90424 9.28945
15.456774 44.549007 9.491094
15.721355 44.466 12.714028
15.969741 44.26739 22.960478
15.634272 44.239143 23.45006
15.500113 44.50968 24.111975
15.682044 44.131912 26.376978
15.620249 45.775497 8.802996
15.824936 45.67003 13.359981
15.797482 44.79678 23.734924
15.950496 45.29474 24.423273
15.958961 45.695198 25.199259
15.540737 45.68643 26.831501
15.67893 45.426075 36.17715
15.596708 46.585934 8.681513
15.821224 46.34099 13.493957
16.208776 45.91877 24.811697
16.08661 45.958977 25.44271
15.683372 45.842617 26.828936
15.810826 46.15353 27.624233
15.499727 46.114235 28.500948
15.880124 46.259274 29.34299
16.089598 46.532 36.04798
15.664465 47.183292 8.90677
15.520524 47.37225 12.0561695
15.909636 47.163948 13.574245
15.62472 46.865128 29.850443
15.525869 47.398605 30.683485
15.4574585 47.014275 35.775425
16.000244 47.62892 9.077982
15.769912 47.72157 9.466489
15.84171 47.738407 12.526374
16.23939 48.148712 13.073052
15.347378 47.818264 31.394997
15.150487 47.994724 32.562202
14.954467 47.91828 33.234577
15.551481 47.910072 34.169308
15.239505 47.649998 34.957954
16.401226 49.59245 15.436232
16.475973 50.363396 14.938435
16.403896 50.20706 15.486435
16.316061 52.032276 46.22745
16.150517 51.88989 46.753094
16.14647 51.876747 47.418026
16.237286 51.994286 47.91192
16.371908 52.519417 46.051754
16.102676 52.394474 46.652622
16.060665 52.441784 47.440266
16.284124 52.466274 48.10016
16.316221 53.13254 46.691414
16.263638 53.1867 47.587456
16.257689 52.95745 47.964684
17.067202 38.16874 24.097351
16.835968 38.078064 24.703344
16.704325 38.060936 25.369688
16.99642 37.995735 26.320766
17.013151 38.133278 26.926596
17.103928 39.223038 22.725346
16.64745 38.83903 23.8869
16.46839 38.451694 24.629395
16.357796 38.420135 25.934168
16.44124 39.259556 29.590588
16.269606 39.160767 30.723555
16.853148 39.12748 31.173756
17.244854 39.735184 22.248817
16.754581 39.70387 22.8481
16.579481 39.505005 23.567263
16.175245 39.812798 32.340748
17.145733 40.96018 19.455627
16.778534 40.777485 21.990265
16.562359 40.827198 22.843836
16.270983 40.71158 33.714752
17.43643 40.24197 35.375023
17.027514 41.67514 18.72051
16.826603 41.458775 19.363503
16.659088 41.889328 20.373972
17.390862 41.261482 34.662067
17.171774 42.663006 17.727268
16.848507 42.39366 18.788044
16.756342 42.355984 20.42907
16.54667 44.297173 10.054958
16.327805 43.78273 10.968749
16.146486 43.618004 11.537119
17.277525 43.411076 17.526714
16.96499 43.15911 18.55728
17.03046 43.314713 19.607174
16.998083 42.96206 21.07219
16.79738 43.21561 21.563707
16.693256 43.437874 34.835693
17.000053 43.85669 36.406666
16.384117 44.89814 9.262683
16.609728 44.735626 9.523898
16.713612 44.571503 13.303232
17.054085 44.564922 13.754341
17.250528 43.893223 18.1976
17.36378 43.83237 19.77843
16.918207 43.91479 21.85327
16.360975 44.652927 22.892672
16.63712 44.551304 36.44504
17.245794 44.084232 37.156555
16.367382 45.672115 8.816259
16.724205 45.830635 14.228422
17.023438 45.33423 23.142954
16.442068 45.650936 24.043531
16.809788 45.45887 36.849556
16.338503 46.56396 8.619986
16.771482 46.63108 14.249274
17.302874 46.896366 14.847982
16.875729 45.906273 23.89235
16.573586 46.340645 24.971788
16.608494 46.438572 25.497606
16.720675 46.4103 26.775688
16.63554 46.39911 27.343992
16.197239 46.249435 28.77148
16.649296 46.58755 36.436085
16.719957 46.180332 36.614902
16.238846 47.145584 8.772017
16.506683 47.424488 14.113861
17.115723 48.072124 15.068371
17.161669 46.67495 24.72229
16.971357 46.650608 25.432322
16.602148 46.986927 30.052181
16.596882 47.167953 30.478413
16.542562 47.387043 31.620602
16.461054 46.87137 36.232918
16.28339 47.6075 9.083251
16.238708 47.808132 9.33175
16.341722 48.17514 12.336147
16.822098 48.42525 14.435707
16.78036 48.604374 15.271325
16.913717 49.06768 16.466896
17.059002 49.161304 17.346418
17.183256 49.199856 18.79652
17.344624 49.224163 19.271866
15.995715 47.5826 31.404158
16.357977 47.53374 32.193172
16.782639 49.7213 13.894203
16.856941 49.479687 17.144312
16.979294 49.677753 18.659506
17.172365 49.684235 19.60281
17.410507 49.938538 20.25439
17.125591 50.554432 11.989094
17.213911 50.574505 12.128805
16.624489 50.628273 14.377525
16.524261 50.36847 16.268427
16.6478 50.4826 17.549292
16.674639 50.493687 18.335407
16.980585 50.468826 19.307869
17.275625 50.400627 19.952856
17.103933 51.322296 45.761776
16.786621 51.241913 46.68274
16.73209 51.27865 47.371937
16.86655 51.377117 47.85448
17.250536 51.576164 12.075149
16.886303 51.688885 12.865995
16.688581 51.514843 13.592569
16.572279 51.66544 14.289078
16.98583 51.705376 15.5939455
16.773655 51.17762 17.656342
16.96929 51.35588 18.344862
17.067764 51.06715 19.061398
17.204815 51.923737 44.710434
[...]
POINT_DATA 7989
SCALARS features_00 float 1
LOOKUP_TABLE default
0.65089583 0.6647836 0.6446872 0.6713908 0.7108647 0.733009 0.5272843 0.6045892 0.59845924 0.54509735 0.55764025 0.5832256 0.6336167 0.6405145 0.6405851 0.58254695 0.58338463 0.6267704 0.67746925 0.724208 0.6544926 0.571091 0.6314765 0.70078254 0.7297309 0.73379016 0.6893092 0.7196388 0.72183853 0.33780923 0.3222063 0.27666894 0.25233924 0.29012656 0.27791408 0.87191117 0.8515787 0.11612798 0.21481197 0.50592715 0.44235444 0.45529848 0.90695274 0.8903631 0.8345364 0.75696814 0.51579696 0.50047195 0.49240223 0.89628834 0.8794781 0.79878277 0.7258237 0.5495246 0.5101204 0.83107567 0.8388257 0.74266577 0.49892843 0.53619385 0.6333492 0.51923144 0.58418775 0.7224759 0.6912365 0.5153723 0.5594701 0.66200626 0.6902467 0.33430022 0.37131166 0.38750944 0.402166 0.39445543 0.28299624 0.3422613 0.3882057 0.41770405 0.4161958 0.3938018 0.32328874 0.279432 0.32637042 0.38456154 0.29719043 0.17752452 0.23084891 0.863611 0.86502993 0.80261874 0.7384142 0.36787492 0.3363143 0.20517933 0.14765257 0.09807621 0.3800243 0.8341073 0.8788835 0.772576 0.697117 0.3841276 0.35977677 0.30399096 0.2637668 0.18654518 0.44739518 0.39908358 0.8325919 0.8718241 0.6264595 0.5073585 0.32879478 0.363018 0.3491713 0.43330723 0.8068817 0.80530316 0.78011847 0.67723954 0.53478694 0.40754002 0.47140443 0.77857447 0.7487883 0.7013835 0.4197796 0.42833677 0.5337088 0.50209343 0.4759797 0.49693686 0.5794259 0.6128472 0.65527785 0.4361794 0.465627 0.4132337 0.35389727 0.3441655 0.35069698 0.38504213 0.37837058 0.31682786 0.22905369 0.28566068 0.36319727 0.37946296 0.3794424 0.3883468 0.35229135 0.25497237 0.258971 0.24043146 0.21483235 0.17494577 0.3126485 0.21405783 0.21314815 0.19177482 0.11849642 0.18895265 0.19140436 0.2556096 0.2902958 0.2958068 0.2680261 0.027638663 0.815532 0.8041856 0.78433484 0.65898746 0.3485534 0.37218 0.3445639 0.25769442 0.14070916 0.12375854 0.79660654 0.78200096 0.56842875 0.39510697 0.4007144 0.39431864 0.22767083 0.81008315 0.3675338 0.41793996 0.37743577 0.31021 0.38678676 0.29920167 0.7810439 0.32283795 0.33030182 0.31024504 0.39387724 0.35198057 0.28470674 0.1424061 0.31789148 0.757243 0.41197437 0.2764404 0.2244044 0.32964528 0.41431913 0.71528447 0.6838604 0.32727477 0.200253 0.39455312 0.4612033 0.52075946 0.5121838 0.5815588 0.2317732 0.3242777 0.3031315 0.72641367 0.80990875 0.8379823 0.83172846 0.65331453 0.7859335 0.8544715 0.8403356 0.7231591 0.82220167 0.83705646 0.49625444 0.5139825 0.50930834 0.45194513 0.39858526 0.3724625 0.42316866 0.4855358 0.48110366 0.26167777 0.31515908 0.24634889 0.33294523 0.32606068 0.34531373 0.35522813 0.49041387 0.25768995 0.24058634 0.19982882 0.2082618 0.59730726 0.5521069 0.3922755 0.12292893 0.5851891 0.5865556 0.31229752 0.663154 0.75708294 0.72436774 0.5621266 0.5316096 0.3811978 0.18168564 0.22619501 -0.037165172 0.13540323 0.66751194 0.6293131 0.34425795 0.23821394 0.47932625 0.3179166 0.25103036 0.38993472 0.19102697 0.15083167 0.7496059 0.22907043 0.3261502 0.37682498 0.18618238 0.75035256 0.15330991 0.023921024 0.3495407 0.33044928 0.31567967 0.33689016 0.30419424 0.17052607 0.22173592 0.2126708 0.718326 0.1245082 0.02234865 0.36245325 0.32763377 0.16071723 0.1857438 0.19464466 0.24679662 0.6894131 0.655439 0.22889706 0.067768775 0.119570434 0.22743651 0.34035912 0.5057533 0.5577561 0.2883948 0.2151886 0.25260645 0.35176703 0.53954875 0.6118174 0.63375616 0.4932046 0.49083048 0.38033012 0.35967174 0.52291894 0.58628464 0.627334 0.6289844 0.6167885 0.7376738 0.76195884 0.75319695 0.5496893 0.52794755 0.49612015 0.49994886 0.4400841 0.4959448 0.53058386 0.5890639 0.4868525 0.614959 0.77743506 0.79672325 0.78734386 0.774188 0.5579876 0.55807734 0.5570299 0.4998046 0.46243036 0.4791804 0.4214006 0.47250986 0.57340336 0.8180941 0.78866005 0.5959251 0.5967798 0.5819895 0.6874863 0.6394347 0.49948353 0.40848884 0.535182 0.6599345 0.77949333 0.7636034 0.7275611 0.67037976 0.7446803 0.67420536 0.6003379 0.48677698 0.37291008 0.5277313 0.7315904 0.66524696 0.659807 0.7335268 0.703782 0.5824411 0.62068045 0.66002166 0.66020906 0.5871768 0.6637535 0.6923377 0.69285035 0.5434485 0.6452806 0.68798053 0.6683685 0.37377572 0.36397785 0.5208813 0.59359705 0.5683852 0.53186566 0.4942478 0.49216947 0.46347982 0.4192061 0.34826854 0.2648349 0.49995974 0.51190346 0.40299815 0.38093197 0.56631917 0.56376487 0.35922703 0.41296607 0.2072851 0.073278435 0.015586688 0.09293129 0.22743826 0.25381303 0.17509471 0.31751508 0.3007601 0.5600224 0.5694175 0.56123185 0.3285057 0.12623687 0.05837637 0.21280545 0.25119263 0.24189377 0.13556606 0.5671869 0.5389959 0.49875122 0.45778528 0.31274888 0.27805892 0.1884039 0.15217173 0.5015949 0.48712847 0.43716913 0.51300895 0.14741841 0.098296925 0.046000145 0.36998773 0.40044174 0.39754397 0.38647208 0.5482159 0.5553579 0.06808121 0.10646672 0.5456071 0.5438655 0.12906288 0.13636263 0.4759271 0.16962327 0.4789582 0.39208218 0.33255705 0.21503893 0.06583193 0.14099905 0.10738259 0.6034917 0.23250127 0.06891 0.65149903 0.26202327 0.3180859 0.22120197 0.09238492 0.650046 0.33953798 0.38178843 0.11424632 0.104977675 0.09080324 0.36489207 0.37734282 0.440525 0.09178427 0.23749828 0.3760482 0.5297728 0.59460974 -0.03723855 -0.09560467 -0.16693184 0.4695472 0.40755737 0.3990054 0.31595004 0.6213957 0.63742864 0.35040376 0.4529579 0.4470634 0.404297 0.50820994 0.6232677 0.61995816 0.3102222 0.41155618 0.42615235 0.4341911 0.48133978 0.60190713 0.6586411 0.67260104 0.53326476 0.5441583 0.5638834 0.561903 0.34054202 0.34972438 0.7161246 0.7282888 0.5493739 0.5585948 0.59016395 0.39023662 0.37368494 0.4573341 0.48797178 0.36746693 0.34645844 0.7314466 0.62042844 0.6252542 0.6087605 0.57204056 0.6640231 0.6909759 0.6180996 0.6150037 0.45652008 0.40266454 0.24728748 0.30264252 0.33699703 0.67518914 0.6327095 0.6860877 0.7191186 0.74420655 0.5467515 0.36738077 0.15048742 0.49331236 0.44107604 0.7018647 0.7179738 0.5278047 0.5745195 0.48997346 0.38637438 0.4993761 0.48002708 0.55337286 0.6190917 0.5079282 0.44232583 0.5472654 0.61322266 0.65013075 0.5834018 0.49736524 0.53474057 0.52833533 0.4982785 0.6801775 0.68154544 0.68271947 0.6399845 0.72630227 0.70677173 0.6695751 0.6758007 0.6214502 0.68082595 0.68390346 0.6329356 0.51115274 0.5762206 0.6302022 0.56915915 0.3560206 0.35016507 0.34832978 0.47039902 0.5035827 0.43277952 0.5362927 0.5438258 0.530278 0.40893134 0.41124633 0.38210705 0.39318767 0.31972536 0.2545378 0.1256139 0.12013225 0.120731816 0.36602807 0.45037645 0.33729345 0.32552856 0.5419841 0.55637455 0.5546658 0.56037605 0.36813828 0.40028697 0.0445888 -0.05718094 0.16495506 0.21991599 0.295793 0.307701 0.2780918 0.44681513 0.5355537 0.56585217 0.28499413 0.325679 0.0008742409 0.057624973 0.15136516 0.24121372 0.30678967 0.3130159 0.4206339 0.3921343 0.26090068 -0.018646754 -0.077567026 0.07350743 0.25554937 0.32517222 0.36210632 0.31250912 0.39030653 0.40342614 0.31863612 0.24845265 0.2996963 0.29103372 0.48671833 0.085193396 0.25002682 -0.01649195 0.10959652 0.049741413 0.28029075 -0.21917376 0.22595353 0.27371275 0.2000778 -0.09873338 0.20117593 -0.036848836 -0.12854436 0.2841611 0.3072675 0.27693358 0.29326388 0.31644556 0.3059159 0.43610215 0.31606597 0.39162138 0.44540194 0.33589435 0.087657295 0.061008647 -0.015367456 -0.069213614 0.6198593 -0.22118565 0.37986335 0.6343379 0.04283037 0.3301943 0.49534452 0.008996457 0.2641883 0.014005728 0.020366868 0.029509082 0.18093705 0.23089184 0.3240063 0.5088802 0.5224109 0.36228222 0.23213662 -0.041693956 0.018051371 0.015754923 0.42131233 0.5408619 0.5587321 0.416238 0.43344778 0.4936484 0.055668447 -0.023715526 0.6363163 0.5769592 0.6290189 0.63195944 0.5413922 0.29842824 0.56105584 0.56922936 0.6520922 0.7012631 0.66488945 0.50027037 0.63110775 0.6085787 0.60573184 0.6461507 0.74858654 0.74755573 0.19948786 0.26981136 -0.077591226 0.28628832 0.18196513 0.5930198 0.65117323 0.7217684 0.7505223 0.7517873 -0.028347604 0.09014873 0.65592015 0.68824935 0.7113192 0.3862689 0.39730933 0.3706004 0.3556155 0.22143736 0.4067167 0.44976228 0.34026513 0.43388247 0.4435751 0.44548178 0.4267376 0.6504821 0.55337113 0.6411088 0.7070668 0.7278147 0.6886505 0.627367 0.7088194 0.5813546 0.6318706 0.6534635 0.5076747 0.5786159 0.6124859 0.39725018 0.43856162 0.43633986 0.4880002 0.45443562 0.29758984 0.28522164 0.29880905 0.2441814 0.515097 0.5109897 0.49407846 0.47352046 0.24634144 0.30906272 0.29986817 0.2548057 0.19013959 0.07598004 0.056238554 0.015055805 0.28027368 0.22926411 0.43970168 0.33986187 0.34363356 0.26556474 0.007640632 -0.03551695 -0.030184463 0.26521957 0.30611137 0.27579623 0.3292524 0.32378536 0.246034 0.3722893 0.10374805 0.30096105 0.21234345 0.38108298 0.4102364 0.20352496 0.23040415 0.3216948 0.1377292 0.12541223 0.21293281 0.3502692 0.41795158 0.44908655 0.19415253 0.27342984 0.3539086 0.4278063 -0.11425284 -0.026280973 0.25298387 0.36230814 0.092393 -0.07229588 0.17588076 0.11423215 -0.18001136 0.150242 0.017820671 0.09254397 0.18248738 0.28296897 0.23711053 0.29609805 0.29965112 0.28651673 -0.2410548 -0.41131765 0.5305662 -0.3465025 0.26892024 0.2858439 0.37736076 -0.2299069 -0.020871684 0.03650923 0.06560841 0.122462034 0.27228695 0.2829091 0.2634276 0.47946286 -0.1764822 -0.10864586 0.040698767 0.060515493 0.20421195 0.18370567 0.5133371 0.07251468 -0.12549624 0.18088166 0.17867416 0.11716912 0.13583647 0.08642034 -0.05720912 -0.05848731 0.5137372 0.54079133 0.27249634 0.1907666 0.28285897 0.014143724 -0.037062325 0.28960952 0.5821198 0.5702717 0.5858911 0.52602744 0.42561233 0.3716054 0.2547488 0.13556057 0.59322274 0.6511807 0.17529073 0.2576388 0.34432548 0.38197294 0.29059288 0.14208528 0.1428155 0.4119872 0.7472029 0.6948332 0.54502785 0.4801884 0.2371417 0.29281408 0.37040034 0.48926443 0.61277443 0.57392824 0.2802696 0.22259682 0.07595462 0.15207516 0.7588128 0.75696653 0.6908059 0.60383606 0.66230655 0.67643225 0.14370137 0.08197626 0.75552535 0.6843239 0.6187893 0.19631289 0.2742594 0.3595542 0.33615234 0.5627697 0.35576752 0.351996 0.36955097 0.40394455 0.4085936 0.6272416 0.66918993 0.64666593 0.5283388 0.6463614 0.6862698 0.6693233 0.49744663 0.46678662 0.5347512 0.5361933 0.4525978 0.35994172 0.5124972 0.5204865 0.51996696 0.5054896 0.3223801 0.64534074 0.7602465 0.4818525 0.5137095 0.4700188 0.25364938 0.4870764 0.64004016 0.74298084 0.8250673 0.4354476 0.5468237 0.3127353 0.5680672 0.7125083 0.300942 0.35898817 0.47878295 0.5891185 0.54806995 0.4725632 0.286911 0.27382922 0.47704 0.45033312 0.42862546 0.6041653 0.14364053 0.11990717 0.40085316 0.4707667 0.3422694 0.08913726 0.09128332 0.19829586 0.13841382 0.045172684 0.06863563 0.046792272 0.04312987 -0.10321124 -0.105613284 -0.115860924 -0.18684065 0.16809729 0.17564735 0.35925698 0.3330096 0.26376063 0.20590982 -0.04411502 -0.08368173 -0.12758625 0.30351195 0.23022725 0.27165347 0.15551029 0.20480567 0.39864528 0.44958448 0.21921864 0.23282757 0.13524833 0.15626016 0.44216034 0.48896343 0.4778719 0.14550376 0.45295542 0.46712947 0.19711357 0.4256516 0.44955534 0.06965729 0.09415759 0.23737569 0.35043412 0.41720414 0.1271055 -0.07835739 -0.33202904 0.020279909 -0.010537952 0.15673164 0.23837683 -0.025768846 -0.016653359 -0.31765708 -0.06742319 -0.024498247 0.23209995 0.013330456 0.018688738 0.05831922 -0.3802197 -0.35257 -0.08034056 0.24887943 0.2783709 0.28722793 0.2829098 0.39602634 0.023906302 0.058362693 0.112211555 0.013671264 -0.35795432 -0.085771166 -0.011787973 0.011614363 0.2064297 0.28686672 0.27668828 0.2685993 0.45352668 -0.06318203 -0.031509545 0.07061685 -0.080051646 0.025146503 0.08807433 0.07537788 -0.05597198 0.25877935 0.31402785 0.48306996 0.44085962 -0.19354913 -0.18570101 -0.10950783 -0.022363633 0.08506905 0.05067124 -0.12208755 0.30047596 0.35206825 0.46634683 0.41808534 0.3253012 -0.17317364 -0.20945948 -0.24008098 -0.07142739 0.0724047 0.38065022 0.49797294 0.47228009 0.50295824 0.49042147 0.44228405 -0.03687769 0.09425255 0.16332886 0.5202627 0.57852423 0.14694528 0.18106654 0.5155174 0.6044441 0.6680274 0.3716397 0.15022731 0.2894452 0.35342693 0.35566178 0.29695547 0.14491118 0.21958272 0.34014204 0.47418272 0.5203639 0.73401356 0.5555691 0.42030823 0.37347353 0.53779256 0.4455132 0.30556077 0.27217907 0.20610008 0.28929934 0.38652706 0.7398208 0.74027777 0.6881386 0.616764 0.4956547 0.27341658 0.27514446 0.3087702 0.13776167 0.15448791 0.70893276 0.66046655 0.34102964 0.3996281 0.43016213 0.40687484 0.34387517 0.45576265 0.61141336 0.58909273 0.38812578 0.6029885 0.64623594 0.6222534 0.40832874 0.3409515 0.53709227 0.5166713 0.46633983 0.40322202 0.58543223 0.593044 0.56571996 0.52124405 0.53189915 0.5343544 0.3067299 0.16087091 0.6673933 0.82888615 0.8786845 0.48695046 0.49755755 0.5933734 0.59692234 0.52333975 0.46960336 0.49723384 0.2732479 0.078044906 0.24315767 0.39424634 0.6616688 0.8185515 0.88057345 0.5051856 0.61154413 0.6387212 0.54957575 0.4109118 0.4127471 0.31341863 0.45615268 0.8874118 0.9189216 0.4459769 0.58759075 0.63040364 0.5637142 0.3199978 0.73651564 0.82797647 0.4916084 0.52396566 0.44909656 0.32772043 0.24875638 0.3119349 0.5548366 0.6265876 0.74723744 0.41079527 0.36712232 0.21591994 0.5287453 0.57255065 0.48801246 0.3973417 0.23282665 0.15586197 -0.2344754 -0.19296195 0.036800466 0.4654302 0.63330716 0.697508 0.39787132 0.4306324 0.34423342 0.23676531 0.13242793 0.4587878 0.5309969 0.5820106 0.31013042 0.1494539 -0.30880627 -0.026129484 0.30632612 0.35096768 0.09004874 0.58219147 0.5689382 0.4708349 0.23501533 -0.38411376 -0.1518375 -0.028312594 -0.0518162 -0.09922307 0.04000269 -0.07044128 -0.29339302 -0.2733513 0.06387361 0.2585663 0.27853766 -0.006721884 -0.05727349 0.50462174 -0.27995557 -0.18914255 -0.16823101 0.3221737 0.21058804 -0.1632851 0.48715794 0.18534786 0.1153184 0.14947131 0.52613676 0.5220859 0.5572225 0.0659086 0.46719503 0.4264621 0.413163 0.38446346 0.290075 -0.32827997 0.32383463 0.3900308 0.3787045 0.30578315 -0.43047047 0.09724542 0.33621258 -0.21151112 -0.25582442 0.24916428 0.10013946 -0.016826076 -0.16653079 -0.3605207 -0.18804976 -0.13496062 -0.123920426 0.28077394 0.2832139 0.3950553 -0.10925767 -0.023740878 -0.12638256 0.28693408 0.30162364 0.4418782 0.4315611 0.3439804 0.35901815 0.43616676 0.37438488 0.31175506 0.05885555 0.38528335 0.29172713 0.23496063 0.25660467 0.41058767 0.4702374 0.054660648 0.58020353 0.08240765 0.6472442 0.2378705 0.18752493 0.11415632 0.19845358 0.5752889 0.615119 0.3084402 0.35654977 0.33031204 0.35389394 0.2502603 0.28672862 0.46138787 0.5239914 0.65765053 0.65940654 0.53544605 0.4145835 0.35486376 0.39899203 0.1597756 0.006877262 0.6530634 0.62598157 0.5556189 0.48172748 0.4821033 0.5073387 0.4794285 0.43795356 0.3391373 0.32372063 0.42489004 0.5062337 0.330185 0.5814202 0.51328385 0.39592934 0.39576688 0.5164391 0.5364899 0.4461401 0.46736547 0.4472664 0.25589997 0.096585445 0.12624267 0.32440168 0.42589703 0.51499754 0.5791018 0.6168318 0.6235944 0.57266176 0.51787376 0.5122437 0.079289824 0.10034542 0.2739446 0.28371608 0.43332037 0.51472163 0.580524 0.60463667 0.5503229 0.44342387 0.39803666 0.5112463 0.07944551 -0.056798693 0.45164573 0.8578507 0.8741261 0.27119988 0.45490474 0.40249723 0.44083422 0.877275 0.16880874 0.19589499 0.25584337 0.36469996 0.47266352 0.42640302 0.35749722 0.9094032 0.9031905 0.3126444 0.2012605 0.096718475 0.10971902 0.4800857 0.3830819 0.15156013 0.86070305 0.404113 0.14955536 0.0444457 0.31778786 0.48137698 0.4224415 -0.19112423 -0.16260532 0.76070416 0.80048645 0.39327034 0.3927374 0.3343047 0.14132483 0.3955321 0.13986312 0.03666958 -0.13741 0.62783766 0.69058424 0.3788464 0.3901649 0.08656837 0.23117566 -0.25614345 -0.2449899 -0.1309486 -0.19323222 0.32479495 -0.032760598 -0.23874852 0.15846756 -0.1371068 -0.3546891 -0.26894403 -0.2986079 -0.16257082 -0.34552354 0.044944346 0.07057114 0.2708535 -0.088370964 0.43801495 0.44375268 -0.20437619 -0.29874584 0.33119425 0.3595506 0.2028765 -0.18486863 0.50159985 0.15906818 0.5711514 0.1289101 0.59682655 0.014158629 0.52168155 0.33226228 0.3743631 0.45886272 0.34344214 0.45305467 0.4241802 -0.3073452 -0.30725333 -0.1818237 0.33047754 -0.28992608 -0.46227038 -0.38218945 -0.24288903 -0.17372093 0.13677022 0.29436576 -0.34176648 -0.26358622 -0.21924123 0.1552167 0.22119232 0.25836083 0.29585657 0.391477 0.3000536 0.31187484 0.41059846 0.31378508 0.34014052 0.3427229 0.3781249 0.31157985 0.14024723 -0.1322335 0.31363016 0.38732898 0.42988378 0.19415936 0.61266696 0.13782606 0.66099447 0.368662 0.26101437 0.1772119 0.096214324 0.07180591 0.14089721 0.60529315 0.30432564 0.30642915 0.336824 0.44126642 0.53934944 0.58343154 0.34401453 0.26711345 0.25960496 0.26488662 0.47019184 0.15619487 0.17971593 0.5880732 0.5290333 0.4529693 0.39814028 0.61047953 0.64462864 0.61679375 0.5849703 0.48562735 0.41986182 0.04262896 0.5661397 0.7144428 0.75581574 0.7456732 0.24166727 0.3421126 0.5185446 0.48536637 0.34705293 0.34721532 0.31006604 0.2280755 0.5098667 0.44095424 0.5619892 0.56536144 0.3827174 0.4083976 0.29309863 0.5125555 0.5570848 0.59092945 0.60063875 0.56417066 0.4178454 0.356937 0.40101594 0.39713567 0.4416415 0.5126233 0.42889798 0.3614397 0.45177078 0.770301 0.82231534 0.38161486 0.27675208 0.37551907 0.35248485 0.38103923 0.6347728 0.75593007 0.29138553 0.292612 0.36298436 0.3413349 0.1559838 0.7742949 0.8331197 0.20176497 0.09544489 0.27317557 0.29960868 -0.119994536 -0.21778966 -0.055279672 0.7806611 0.80866015 0.29581684 0.32266238 0.053905696 -0.038402118 -0.11153567 -0.11080263 0.13424209 0.2069524 0.20565523 0.041086406 -0.10703339 -0.10505226 0.71761954 0.7693722 0.36043572 -0.09725243 -0.27863738 0.0064666383 -0.27348748 -0.13454832 -0.085644305 0.5190733 0.6525698 0.34431267 -0.37827137 -0.38291597 -0.31219637 -0.24535142 -0.2237406 -0.23229977 -0.11375464 0.20714158 0.35406488 0.28037763 -0.29388115 -0.4807113 -0.31509718 0.038932756 0.17377475 -0.24828176 0.4637618 0.5048033 0.09358585 0.35703018 0.5035033 0.02695537 0.37022766 0.49871796 0.34005192 0.18183547 0.08345704 -0.111718476 0.5160856 -0.16897255 -0.1211267 0.48634112 0.030702125 0.44692546 0.36922812 -0.38311717 -0.014105938 0.44186527 0.36694267 0.19530594 0.20797838 0.22511631 0.28054142 0.35070324 -0.071682274 0.27025282 0.2738654 0.25939175 0.29747757 0.11325522 0.3128653 0.35236293 0.2643002 0.45001465 0.040057465 -0.054824177 0.5547302 0.57364774 0.16369875 0.08002987 0.0077952333 0.022154182 0.15792604 0.014989674 -0.088158846 0.54143333 0.6211298 0.22629105 0.22036949 0.37390336 0.44344008 0.25023293 0.11189998 0.4775374 0.68035245 0.6822643 0.27442715 0.23194428 0.52679515 0.60248923 0.5471602 0.16564485 0.13948932 0.68712807 0.6410434 0.515626 0.42573404 0.3580587 0.632882 0.6629141 0.65642715 0.62257814 0.05498634 0.4671112 0.5236673 0.48783076 0.40885347 0.7041097 0.6713296 0.5970275 0.743955 0.78944063 0.7759617 0.7668824 0.7899672 0.6197536 0.6850618 0.7050555 0.67212105 0.5809083 0.67691135 0.70060027 0.6391556 0.63840926 0.67044425 0.5883914 0.43148276 0.5056517 0.03676436 0.09391617 0.06319587 -0.04954941 0.027994797 0.35101208 0.0797407 0.31130928 0.4997469 0.507728 0.24993873 0.27048495 0.32141814 0.42777842 0.4786322 0.4785341 0.4986129 0.43038085 0.19810319 0.2811178 0.2350146 0.4726895 0.4775687 0.41284436 0.43483767 0.43256074 0.34713605 0.32998395 0.26183644 -0.11699413 0.3729763 0.39934397 0.39164275 0.4030933 0.3893361 0.3210091 0.31111255 -0.13790426 0.2548132 0.51633996 0.3865032 0.32496968 0.28989613 0.259954 0.27150282 -0.26709366 0.4622383 0.65583396 0.3212539 0.18308946 -0.00047381967 -0.09806515 0.23084265 0.15673372 -0.20302457 0.68132144 0.19737735 0.20566455 -0.0803532 -0.13638675 0.043132037 -0.22767425 0.62925386 0.24563524 -0.035365134 -0.3719183 -0.3251721 0.31104684 0.54731345 0.21556146 0.12867253 0.2833361 0.08749099 -0.04776287 0.24562623 -0.032688662 -0.042064432 -0.08843267 0.09161269 0.26962107 -0.037700765 0.17797738 0.12378449 0.25655904 0.23134598 0.49104542 0.3841803 0.07491389 0.22553831 0.22176369 0.19130993 0.17495854 0.5261993 0.010493636 0.18881072 0