# vtk DataFile Version 2.0
Really cool data
ASCII
DATASET POLYDATA
POINTS 8469 float
-0.5499805 35.910995 -13.548862
-0.54784596 36.128628 -13.945457
-0.55663544 36.140614 -13.5501375
-0.0478957 35.149933 -14.1017275
-0.0893912 34.956978 -13.351564
0.048894346 34.789253 -12.553117
0.24551527 34.91017 -11.631185
0.100618124 35.740715 -14.735204
-0.28901336 35.70197 -14.221577
-0.40944996 35.487225 -13.472885
-0.22549793 35.52614 -12.508094
0.120395035 35.55298 -11.568832
0.08214098 36.378716 -14.710207
-0.29517546 36.42843 -14.263252
-0.4466567 36.551594 -13.493079
-0.26603678 36.408913 -12.786526
0.113827854 36.217945 -11.704697
0.3752046 35.98743 -11.126198
-0.018561244 36.886757 -14.232039
-0.075775295 37.012707 -13.61932
0.027276307 36.991478 -12.934467
0.32854298 36.74434 -11.876815
0.21869223 47.18538 1.0768687
0.042537063 47.202633 1.5088269
0.1453627 47.121174 2.140068
0.040385664 47.626915 0.9264655
-0.20375165 47.66746 1.5456091
-0.03352046 47.716976 2.3552196
0.20989192 47.707077 2.6636655
0.2293293 48.756725 0.06287104
-0.077035666 48.52383 0.6732823
-0.283676 48.365387 1.44807
-0.12033203 48.46717 2.1982403
0.19770218 48.24511 2.791342
0.33558962 49.38465 -0.076330215
-0.013967365 49.37107 0.80567104
-0.056334615 49.312847 1.3653089
0.085084766 49.086292 2.2423887
0.34774077 49.898136 0.060290158
0.2288476 49.902767 0.54034483
0.23190452 49.872417 1.2513107
1.04751 34.19702 -13.830794
1.0322138 34.091293 -13.421009
0.8551469 33.944378 -12.357493
0.8596151 34.054413 -11.768288
1.1514628 34.02443 -11.26423
0.8996692 35.03032 -14.833176
0.68305403 34.734142 -14.32257
0.4244902 34.40665 -13.204993
0.43525144 34.57068 -11.600124
0.8179475 34.659374 -11.036811
0.7085119 35.61278 -15.029217
0.5663332 35.334988 -10.833598
0.596942 36.407562 -14.935823
0.553062 36.32802 -10.855436
1.0777895 36.497757 -10.137244
1.4173427 37.103317 5.4079623
1.3898227 37.066143 5.959172
0.80796 36.855743 -14.772521
0.47885814 37.065907 -14.364493
0.5102179 37.363335 -13.685291
0.6157795 36.98343 -11.483902
1.0768514 37.348 -10.586722
1.2999811 37.618607 4.6842127
1.2366514 37.699364 5.5250144
1.349437 37.696644 6.2073975
0.9366306 37.570232 -13.261612
1.3373187 38.003212 -10.366307
1.4073601 37.990963 -10.044248
1.2885095 38.736588 2.9595554
1.2621098 38.65257 3.5472748
1.2229419 38.63151 4.853586
1.1631993 38.353107 5.398443
1.3427527 38.31001 6.220246
1.3182232 39.475006 2.7089894
1.2097702 39.90011 3.3759787
1.2475159 39.32106 4.7208114
1.3822241 38.982826 5.7752833
1.3429074 38.957893 5.887816
1.406724 40.849045 2.0481334
1.350682 40.434956 2.2241147
1.2265794 40.47018 3.4475334
1.1361141 41.54255 2.7854743
0.799708 41.918674 3.7711523
0.8546265 41.89612 4.3642197
1.2188747 41.830105 4.991244
1.0469711 42.61677 3.0171223
0.81237096 42.41614 3.6597085
0.8731843 42.590298 4.5225334
1.1512789 42.642437 5.1190953
1.287386 43.063755 2.7800913
1.0049454 43.390053 3.6637063
0.9305105 43.133137 4.3975344
1.1719731 43.200394 5.0846367
1.4184595 44.081577 5.3329554
0.5296805 46.923378 1.4113215
0.930572 46.98718 2.4188466
0.44317347 47.48195 0.49549872
0.6352968 47.79073 3.0133686
0.9760381 48.906128 -0.71525383
0.5438869 49.004406 -0.35436976
0.7035052 48.543026 3.1488764
0.53356016 49.71955 -0.33456296
0.567848 49.607616 2.469965
0.9010265 49.317093 3.0080848
0.9353596 50.11557 -0.72068965
0.5727046 50.063694 -0.15458618
0.6685771 50.41318 0.55134
0.5742543 50.224323 1.4590067
0.7729613 50.001007 2.2559416
1.0785531 49.728306 2.780777
0.9378085 50.60155 0.369062
2.3087013 31.02129 2.8772552
2.1895509 31.125679 3.475008
2.166185 31.594786 2.754218
2.0856104 31.52284 3.5043263
2.2195375 31.55118 3.9595385
1.7796884 33.45239 -12.375311
1.9218749 33.46782 -11.882885
2.1577523 32.142776 2.778198
2.1427598 32.293697 3.5397365
2.3493652 32.128662 4.241087
1.4871923 34.24616 -14.114536
1.6493388 33.861835 -13.441004
1.4311637 33.598602 -12.400067
1.5678425 33.64962 -11.775238
1.4679999 34.088085 -11.04297
2.4156861 32.97723 2.593977
2.3855183 33.002827 3.4851112
1.5968343 34.94027 -15.017471
1.5165021 34.540752 -14.599027
2.0618172 34.46826 -10.686542
2.037192 34.96473 -9.755567
1.6299508 35.650547 -15.348361
1.8749261 35.84931 -8.395342
2.2014537 36.11216 5.5662236
2.0794742 36.097454 6.207243
2.2328103 36.160507 6.915123
1.5298327 36.287834 -15.261164
1.5317467 36.266075 -9.223478
1.6392078 36.386696 -8.60164
2.126177 36.409504 -7.726597
2.0578299 37.036232 3.8516057
1.6743213 36.901363 4.679897
1.6636095 36.62974 5.55595
1.7748358 36.65515 6.531118
2.0188975 36.724747 7.097486
1.4124876 36.943027 -14.876369
1.5623009 37.330902 -14.279928
1.6092708 37.598633 -9.519811
1.700616 37.164124 -8.511766
1.9508224 37.324318 -8.033211
2.2074616 38.186615 2.0539486
1.7403929 38.020622 2.8218408
1.7114054 37.53548 3.6516762
1.5494442 37.37487 4.2021112
1.5709575 37.369843 6.613386
1.975289 37.365536 7.179942
1.473338 37.567383 -14.076746
1.8751378 38.395042 -12.184839
1.7535038 38.52667 -11.301193
1.5793486 38.286476 -10.404265
2.1021578 38.74448 -9.458725
1.9036269 37.898182 -8.827345
2.3957217 38.254646 -7.8081036
1.8787715 38.482025 2.0745265
1.6051486 38.67943 2.4220767
1.5546564 38.323135 6.573795
1.9396445 38.193188 7.0042367
2.4019556 39.742573 -8.010793
2.4501135 39.724216 -7.661048
1.6776888 39.800976 1.8973172
1.4652694 39.199856 2.3542087
1.4804155 39.382122 4.810853
1.4768357 38.8881 6.276332
2.4516695 40.04124 -7.65603
1.9488435 40.739697 1.1480697
1.6097362 40.681305 1.7365977
2.0235887 40.1546 5.263522
2.142271 41.291103 1.0360353
1.6438385 41.23866 1.653108
1.915965 41.744007 5.8671985
2.4134061 41.987858 7.0064993
2.1533027 42.397842 1.739284
1.4130915 42.949 5.509915
2.2099702 42.25575 6.7560506
1.8123075 43.285706 2.3136983
1.5436738 43.16728 2.6220987
1.6899109 43.35142 5.8918495
2.0248487 44.05267 2.3351116
1.9907436 44.413452 2.619988
1.5364364 44.712112 4.55565
1.6384771 44.5877 5.338492
1.9579813 44.267525 5.996997
1.8888121 45.547436 2.3133101
1.7723372 45.37599 4.4192376
1.7631491 45.00187 5.127973
2.0079045 44.852196 5.889725
1.9562695 47.275238 0.27402437
1.9241248 46.800644 1.1580464
1.7605088 47.427574 0.07387218
1.8502896 47.75077 3.7290053
2.4079344 49.073402 -3.3580678
1.6771438 48.71956 3.8546076
2.13018 49.466846 -2.2741916
1.5218015 49.898808 -1.245603
1.3671868 49.475975 3.362735
1.8288779 49.32714 3.8087387
2.2115297 50.55817 -3.0538096
1.9572439 50.49149 -2.4117956
1.5954963 50.44736 -1.5180432
1.5754397 50.373238 2.4890006
1.7122567 49.806427 3.4816532
1.9962859 49.80741 3.7318487
2.3895266 51.595196 -3.0265238
2.1352248 51.415146 -2.4245944
1.8536447 51.2277 -1.5688442
1.5484701 50.95765 0.037876666
2.0118465 51.048965 1.0331957
1.9450213 50.69009 2.0342605
2.1889186 50.61047 2.8616323
2.2710612 51.82787 -1.5738614
3.3119743 13.169855 16.627962
3.366027 13.091036 17.3673
3.2142549 13.892694 15.956334
3.038833 13.734425 16.673452
3.0517082 13.740029 17.37556
3.1749983 13.940546 17.813526
3.220509 14.544306 15.8659
2.9513006 14.440199 16.554663
2.9808128 14.495374 17.26142
3.2006125 14.268073 17.871609
3.2557797 15.0528345 15.980161
3.1977503 15.242735 16.478228
3.1674647 15.043145 17.269444
3.4680605 19.929138 28.133852
3.4047322 20.434092 28.321331
3.3039508 21.01502 29.181139
3.3060486 21.400763 28.83475
3.3362904 21.599827 29.458937
3.413362 22.172316 28.662355
3.369687 22.070768 29.324911
3.297055 30.0607 1.1914978
3.2540827 29.97299 1.505578
2.9700682 30.14712 2.332854
3.0567846 30.304962 3.4102545
3.213593 30.445175 1.0906913
3.0124607 30.385197 1.5094374
2.588458 30.76668 2.50708
2.54027 30.728123 3.4354548
2.6686175 30.982853 4.137315
3.155703 30.986021 1.0934597
2.6243913 31.415237 2.0856142
2.5640588 31.527994 4.391099
2.9677696 31.651571 4.807417
2.1210566 33.48535 -12.320532
2.0039442 33.49371 -12.060552
3.2511742 32.003952 1.2992598
2.9253564 32.43793 1.7249092
2.5386424 32.536884 4.382505
2.8657348 32.344807 4.8134003
2.2827582 34.25097 -14.124226
2.4628415 33.83343 -13.244961
2.4169695 33.572845 -12.494575
2.3986542 33.623337 -11.685615
2.682971 33.900677 -10.98854
3.2526278 34.181904 0.7077962
2.9443583 33.443253 1.9263357
2.6965601 33.428326 3.553789
2.785049 33.163418 4.107705
2.3345928 34.92845 -15.039193
2.30932 34.511143 -14.581945
2.8357782 34.80042 -8.789197
3.1239152 34.632652 -7.959647
3.265503 35.0408 -0.07301296
3.2438502 34.87377 0.26733428
3.0648284 34.721886 1.1367309
3.1722727 34.367344 3.260348
3.2238767 33.745144 4.4027243
2.3950722 35.64272 -15.369731
2.5500884 35.542755 -7.8278284
3.2827117 35.612556 -7.0325828
3.3294275 35.601185 -0.38470453
2.9630582 35.62167 0.6312054
2.9080238 35.42537 1.3478086
2.9451952 35.195114 2.077461
2.5769775 36.0181 4.8530474
2.7841632 35.562916 5.886444
2.7050178 35.72481 6.664636
2.6868849 36.08258 7.2491674
3.051122 36.168625 7.58871
2.4116707 36.345867 -15.29505
3.3671792 36.631393 -0.885346
3.3106835 36.393864 -0.4703247
2.9360387 36.382908 1.5209299
3.1172445 36.480965 2.4505358
2.6819963 36.53373 3.5144742
2.4449654 36.567368 7.4496555
2.6914911 36.724537 7.605054
2.3429244 36.995617 -14.915802
2.544428 37.082203 -7.228918
3.4047794 37.011826 -0.5748948
3.0492342 37.38872 1.6348264
2.3632896 37.645874 2.3902993
2.4171805 37.827736 7.452114
2.8784263 37.50716 7.680987
3.0846827 38.33388 -14.150177
2.528196 38.690636 -9.111943
2.6779776 38.890766 -7.484114
2.8288572 38.83947 -7.167201
2.514473 38.700523 1.5710171
2.6801426 38.30443 7.3301697
3.0002515 39.311775 -12.909155
2.6561944 39.155914 -12.586872
2.9160914 39.7049 -11.785662
2.5646567 39.540424 -10.357652
2.5947535 39.784565 -9.505661
2.6552126 39.37711 -8.531131
2.553277 39.892723 -7.4626026
2.7498107 39.58056 -6.999533
3.2806554 39.956783 -6.2183294
2.6500785 39.692654 0.7872339
3.290312 40.13175 -12.046393
3.1054335 40.57011 -11.39522
2.6845658 40.326984 -10.478049
2.547945 40.701893 -8.224114
2.565475 40.449463 -7.475482
2.881334 40.506 -6.7623553
3.2409923 40.79179 -6.3293066
3.2167933 40.616615 -0.072977394
2.5571446 40.54877 0.6558747
3.1601903 40.974594 -11.106675
[...]
POINT_DATA 8469
SCALARS features_00 float 1
LOOKUP_TABLE default
0.83786184 0.87584984 0.8390256 0.8864423 0.8186827 0.74068946 0.65410584 0.9409514 0.90118414 0.8267909 0.71152735 0.5963122 0.9030322 0.8869843 0.82553196 0.7233346 0.5396733 0.47704238 0.85094035 0.8099683 0.71545863 0.48452348 0.69484127 0.75996107 0.7673173 0.75829756 0.7956755 0.78416014 0.7546646 0.584857 0.71646845 0.8094611 0.7674111 0.6957658 0.50261104 0.6358247 0.7020351 0.6897553 0.4979952 0.5579492 0.62758297 0.70386946 0.68419737 0.6508223 0.62069404 0.5688801 0.86991644 0.8313948 0.76480544 0.65348506 0.5881705 0.9509237 0.5288421 0.8897311 0.38513613 0.28069597 0.5374681 0.5807787 0.8096503 0.8087508 0.74498725 0.3708248 0.25270873 0.4608463 0.51453197 0.5646149 0.6122048 0.19368519 0.17412537 0.284748 0.33807465 0.42515796 0.46657568 0.52441126 0.29300675 0.2904764 0.35673004 0.42511588 0.43143153 0.28794453 0.28730226 0.2731969 0.34295607 0.42071027 0.3848892 0.30372083 0.41181627 0.45888567 0.42031687 0.36459982 0.33457884 0.49020433 0.44081226 0.3763082 0.34390515 0.6414535 0.68276983 0.64734423 0.66113365 0.37749296 0.4683648 0.57039064 0.4458598 0.571314 0.51638126 0.37092224 0.4532693 0.51169956 0.5827142 0.5343946 0.48806393 0.46784347 0.667322 0.6714435 0.6609808 0.6720649 0.65501606 0.5715555 0.54940194 0.6498413 0.6461865 0.62180734 0.6740647 0.6199471 0.59488404 0.5629967 0.5384811 0.54935473 0.5847182 0.7949482 0.72527134 0.47838998 0.31250176 0.89075017 0.342533 0.56577796 0.61547935 0.6437973 0.8535779 0.31667385 0.31983635 0.3321162 0.29555595 0.46134514 0.56425023 0.639441 0.6598793 0.735107 0.6330276 0.17791627 0.23379451 0.22050782 0.18435374 0.22116578 0.29399267 0.3928552 0.6185382 0.6499779 0.6020062 0.19858766 0.17496184 0.1606821 0.1167399 0.14626172 0.14401479 0.22505207 0.2500185 0.5536758 0.6004733 0.26868376 0.3039762 0.27566195 0.2747603 0.3513539 0.45356032 0.35181868 0.29516596 0.28523853 0.22382519 0.31478363 0.2988646 0.21146044 0.30285227 0.26680404 0.3394246 0.30178654 0.18875717 0.27081722 0.32821882 0.054243654 0.053392053 0.3646367 0.33420342 0.3259677 -0.09447719 0.34890568 0.33274406 0.30634427 0.18248066 0.22644995 0.26449245 0.3141914 0.34873176 0.38962108 0.26639667 0.2847665 0.44977105 0.38964465 0.40497875 0.3374574 0.28575498 0.42947817 0.417247 0.39023793 0.43626148 0.40756458 0.32712263 0.36689347 0.38023975 0.3914466 0.364771 0.36156803 0.6596908 0.6015447 0.7342196 0.7435726 0.686296 0.6315677 0.735582 0.77173865 0.7452397 0.64127016 0.72569263 0.7293315 0.733027 0.5337366 0.5719503 0.6732424 0.659931 0.72667944 0.6490638 0.7203782 0.6374636 0.63915724 0.6313143 0.5983282 0.62737906 0.64189297 0.6532248 0.648464 0.61117494 0.59072113 0.6190442 0.61467856 0.55461746 0.55422103 0.5526924 0.48296252 0.46129137 0.5788143 0.5355694 0.62898374 0.5761058 0.5394881 0.519861 0.47937217 0.14375082 0.28905055 0.5217024 0.5317477 0.72986627 0.66592216 0.25529474 0.31356603 0.2479289 0.20805912 0.11193512 0.34713244 0.43724033 0.7914283 0.3379454 0.31400213 0.2808715 0.16359836 0.09421654 0.03650269 0.46391553 0.5431965 0.60475653 0.6351321 0.61401105 0.7412894 0.29902694 0.2785872 0.05363032 -0.003020632 0.16959243 0.65147686 0.63319993 0.6118988 0.25511765 0.28778565 0.028579626 0.12758738 0.60212904 0.55999327 0.34627652 0.12196592 0.20922047 0.22928062 0.1913648 0.5263691 0.28309223 0.23375233 0.22798894 0.17519745 0.19751978 0.19495723 0.35390854 0.35102266 0.4468128 0.24256384 0.26530418 0.28588486 0.27761906 0.41026866 0.43358353 0.4864332 0.51916945 0.25156447 0.3038905 0.31262994 0.35711938 0.42677522 0.4991905 0.5352454 0.5445229 0.29424322 0.29500112 0.28920764 0.5240514 0.552784 0.55220795 0.2117872 0.3177418 0.31817463 0.020229936 0.3065935 0.3087738 0.4328394 -0.18456113 0.32558072 0.27894694 0.3973318 0.41357142 0.38118953 0.008592121 -0.12449754 0.2444736 0.36117616 0.3492176 0.21588127 0.12773004 0.15432519 0.28594548 0.20279232 -0.10073772 0.09811846 0.097099826 0.36585957 0.30200517 0.21835876 0.40948826 0.3108335 0.44492483 0.36651364 0.44666392 0.44650036 0.18368104 0.25306946 0.43530166 0.4209154 0.3703977 0.39991295 0.46885297 0.45151013 0.43752903 0.6434758 0.5819447 0.5297859 0.48117232 0.3941937 0.65276265 0.7036498 0.51226336 0.3956715 0.67632544 0.7093874 0.5549827 0.36390996 0.66922295 0.671663 0.70103765 0.6980822 0.5497576 0.648077 0.6578177 0.666207 0.4582558 0.5078249 0.5132998 0.3279928 0.35466912 0.48776126 0.5553922 0.5761634 0.6300227 0.30176058 0.38858002 0.49655807 0.66038257 0.69594693 0.28498557 0.35601926 0.47615492 0.73943543 0.37121433 0.5032979 0.6178731 0.72576106 0.7447749 0.47137815 0.59347874 0.64030933 0.6717776 0.52279085 0.55942464 0.59368396 0.57630736 0.5763022 0.61432576 0.61584437 0.5908723 0.5397713 0.39118624 0.60772634 0.49794537 0.4646474 0.49364576 0.4586422 0.38570622 0.31217173 0.5896029 0.5479999 0.4967378 0.45953137 0.32822555 0.3386919 0.30928826 0.69061553 0.6182188 0.5409398 0.3006128 0.32859862 0.33046085 0.27690762 0.32219088 0.5000932 0.68918794 0.59405124 0.3010738 0.31037486 0.31383625 0.2884033 0.5608587 0.5936756 0.6469625 0.18636806 0.3192675 0.31211498 0.5420618 0.54211444 0.28211623 0.513188 0.3671626 0.16020574 0.21957448 0.26190257 0.21393657 0.40548915 0.38145548 0.40923417 0.11460553 0.03165339 0.3828526 0.3198219 0.46746784 0.2293081 0.15999039 0.33450428 0.32764575 0.53715307 0.5028469 0.2567325 0.34853107 0.39794037 0.4846815 0.5090394 0.50741994 0.2512559 0.32890365 0.3403762 0.19954374 0.3392088 0.40912384 0.40291858 0.4219775 0.40572065 0.29682052 -0.1937749 0.30845252 0.37602538 0.38039276 0.3326573 0.17746896 0.20768797 0.32900366 0.39670455 0.3673895 0.095254034 0.12635046 0.3963077 0.3579738 0.029969528 0.3543499 0.090207055 0.3646028 0.1879935 0.32675624 0.39950347 0.21705176 0.41994625 0.36233982 0.42629153 0.42503566 0.25237635 0.18457709 0.26633793 0.39798015 0.54194057 0.39576596 0.35258257 0.30106142 0.21821174 0.38416472 0.4988764 0.52952075 0.40089548 0.4170653 0.44064757 0.44824854 0.442995 0.39884752 0.42955455 0.43244126 0.4251663 0.41760632 0.40360948 0.5755707 0.4287424 0.38196722 0.34542727 0.35682756 0.5893799 0.32557556 0.29836306 0.5964227 0.30624902 0.5725142 0.20748517 0.5723218 0.5717988 0.54831976 0.3431582 0.46812582 0.54542077 0.32631254 0.3572424 0.41454136 0.47452432 0.5032111 0.52667266 0.53358924 0.27440012 0.3018637 0.5392138 0.48792148 0.5086223 0.5112171 0.25907767 0.284858 0.598335 0.22040358 0.23980194 0.7216438 0.6991148 0.20777956 0.24896213 0.7139585 0.7027509 0.23386677 0.31254154 0.4530138 0.6340523 0.34227392 0.46461052 0.52084696 0.54810417 0.5407667 0.50558853 0.52292085 0.47577724 0.4724605 0.57131696 0.570246 0.45385367 0.2154105 0.17940612 0.22401243 0.52982295 0.31154147 0.15350212 0.21317598 0.20457259 0.3493289 0.34223273 0.25422978 0.082102716 0.15129443 0.37658733 0.37703294 0.035441548 0.04378061 0.11756217 0.16971566 0.33537686 0.35805368 0.33723536 0.031196296 0.057122987 0.07244637 0.31291306 0.2714285 0.19399531 0.19812383 -0.029145285 0.31188008 0.06405964 -0.056297146 0.22868437 0.43192205 0.39245707 -0.0634519 0.33885422 0.34352228 0.3620314 0.04044276 0.12010685 0.07466616 0.441468 -0.0383642 0.4495147 0.43659875 0.3755976 0.36002576 0.051673725 -0.063874915 0.4301716 0.37712306 0.41944683 0.1645348 0.21079585 0.2701793 0.3295347 0.34823018 0.4542402 0.3883261 0.30125725 0.37032312 0.25756362 0.30612755 0.16200304 0.18839034 0.4343415 0.43709764 0.3556524 0.31996864 0.1950858 0.37640232 0.46455014 0.41977772 0.36109173 0.24727127 0.3892942 0.4617713 0.43776688 -0.042819522 0.4257544 -0.07347533 0.32701647 0.009687077 0.28525966 0.07572115 0.24447666 0.09084501 0.2757845 0.37479618 0.45226488 0.5836794 0.31531858 0.26552725 0.26089388 0.43224353 0.5539606 0.6236284 0.63432896 0.22654302 0.2590363 0.37544003 0.51004535 0.6009387 0.6556401 0.43904227 0.4560821 0.37812793 0.41282105 0.45654988 0.46802032 0.46286792 0.44056347 0.42056268 0.40818354 0.65755975 0.63723105 0.469272 0.18810055 0.37821817 0.37551257 0.34113586 0.23398942 0.3309757 0.10352793 0.14958099 0.2865403 0.0149328485 0.4136352 0.45164692 0.45732647 0.17667975 0.16844575 0.07646952 0.48477757 0.30630386 0.35000834 0.40335453 0.39535943 0.09217434 0.27659434 0.40890414 0.5615814 0.5857303 0.30211544 0.32466722 0.348872 0.8398298 0.84327745 0.363734 0.44010854 0.49580434 0.215476 0.40904188 0.7981259 0.82443786 0.83324015 0.76578677 0.40444577 0.460303 0.47114867 0.49053264 0.4092754 0.059994265 0.21235088 0.76808727 0.774306 0.80537796 0.65025234 0.51183736 0.4021227 0.4060645 0.41155708 0.6145647 0.6926882 0.6891446 0.68665737 0.56709653 0.16902576 0.17692956 0.60848135 0.6106124 0.5326793 0.4797182 0.35974318 0.1682061 0.18815741 0.48322028 0.411617 0.38671058 0.29347 0.15477726 0.23713055 0.42436042 0.45053136 0.453775 0.26256853 0.39625716 0.4963025 0.46387488 0.2767849 0.23787352 0.5721276 0.5909163 0.38128078 0.337016 0.18002132 0.20768395 0.1905398 0.28026918 0.36332417 0.6589534 0.66074914 0.3474453 0.20962816 0.06321877 -0.03718716 0.1740658 0.20753714 0.22490157 0.18894473 0.30140173 0.3753004 0.42812753 0.47200102 0.24404654 0.22171068 0.22002181 0.48821902 0.5141111 0.5933251 0.058170386 0.1923387 0.52185196 0.58765274 0.6784012 0.44665483 0.41542625 0.378348 0.34325886 -0.101488434 0.18791573 0.21539909 0.652815 0.6903454 0.37674877 0.2930584 -0.1146549 0.12003708 0.19004852 0.24715362 0.28129512 0.18564758 -0.32599995 0.03594888 0.1981484 -0.039895453 -0.22623482 0.08528222 0.40370163 0.17802066 0.50808144 -0.1520783 -0.09053042 0.0810713 0.14578067 0.5703323 0.5279449 -0.1967177 -0.030507669 0.03259365 0.5429579 0.020373337 0.10546525 0.45434517 0.38352785 0.3003578 0.30446804 0.08809241 0.22389798 0.3584869 0.2500903 0.20108826 0.22032201 0.24145886 -0.08403715 -0.04460492 -0.037336968 0.326086 0.36427668 0.21781392 0.23111847 0.12235804 -0.07064898 -0.11648415 0.15378621 0.44687286 -0.22667006 0.5000905 0.4414928 0.009098587 0.46446896 0.089434154 0.25921673 0.3989466 0.3264685 0.24332646 -0.022554317 -0.015846072 0.193627 0.09386676 0.48918518 0.11844273 0.1875323 0.6075284 0.30621898 0.6918445 0.20031264 0.24771929 0.6368671 0.685583 0.71335435 0.7402313 0.38134927 0.41298738 0.42194206 0.448061 0.76655436 0.68349755 0.38698757 0.45061076 0.42411458 0.74950016 0.75394094 0.66755146 0.31596902 0.303275 0.40339333 0.39441818 0.6881263 0.693159 0.37865454 0.39238328 0.62156683 0.5921279 0.32520276 0.36432627 0.4815905 0.22318907 0.264503 -0.029913345 0.124195784 0.40057328 0.43816543 0.45791173 0.4618616 0.46124122 0.06394449 0.0099563 0.2499403 0.411759 0.46057644 0.46083844 0.213551 0.31290236 0.24883625 0.4252812 0.4347523 0.22539914 0.23216155 0.17745718 0.37494877 0.83729815 0.84522724 0.69642407 0.26540193 0.04408486 0.39930624 0.275428 0.79930365 0.82952666 0.65197647 0.577336 -0.12207796 0.22225356 0.7503686 0.4689135 0.2045623 0.105758436 -0.010472372 0.103934824 0.18186387 0.2918573 0.3037191 0.6770952 0.33764446 0.19559574 0.15970552 0.20011227 0.16277133 -0.04689002 0.16760708 0.08032014 0.14217173 0.34924123 0.51610196 0.6138395 0.29460803 0.23058654 0.06304375 0.16389543 0.18663964 0.1734666 0.1452403 -0.007190183 0.11946485 0.13749976 0.24009922 0.12729329 0.12802814 0.15354504 0.1670973 0.15680033 0.12281484 0.09344438 0.11353411 0.07402467 0.077122554 0.67672133 0.6493056 0.5666415 0.40893728 0.19303903 0.0052169487 0.104603395 0.1435195 0.15778264 0.14553997 0.112232186 0.19231768 0.29300082 0.046394963 0.082899116 0.32450497 0.08417461 0.674107 0.6291404 0.5531273 0.3380228 0.28185204 0.20369263 0.004874684 0.053366605 0.03273967 0.04803611 0.124278195 0.12994488 0.06111822 0.26167023 0.34486842 0.4695167 0.43388772 0.41487855 0.6233814 0.50121176 0.07373571 -0.2635618 -0.042411964 0.06996953 0.21242262 0.5150545 0.47314787 0.5523779 0.56766504 0.497423 0.16252764 0.17456971 0.14351681 -5.3163618e-05 0.2277708 0.32796592 0.38267952 0.6071762 0.6885227 0.6766403 0.62414086 0.5439017 0.33917964 0.23044766 0.14445087 -0.08343146 -0.08522613 0.1166118 0.40679693 0.43293837 0.69256216 0.7146784 0.69880897 0.6524888 0.2974437 0.18005155 0.5938773 0.66869324 0.2605934 0.085418515 0.3939684 0.67614645 0.72554094 0.41675538 0.44376028 0.41861886 0.3900937 0.2961281 0.1592892 0.13584489 0.2553187 0.21738063 0.45194995 0.598676 0.70984447 0.76869726 0.3909556 0.13051908 -0.08860844 0.2479563 0.27326536 0.32125038 0.27827042 0.5129516 0.6891623 -0.014872991 -0.14076242 -0.14928973 0.06676563 0.31123245 0.331272 0.33819848 -0.46094275 0.2900855 0.11219868 0.5314461 0.23927915 0.5799041 0.5472541 0.19165021 0.605897 0.6158815 -0.24141395 -0.111767866 0.17797902 0.60611665 0.5785667 -0.1450163 -0.1916267 -0.20904088 -0.11595407 0.56003803 0.5217338 0.46010697 -0.16161731 -0.17476818 0.11048752 0.16565458 0.15610945 -0.10885743 0.30620998 0.16477896 0.19689049 0.22246224 0.06715599 0.40290827 0.20094422 0.45773977 0.4200549 0.3929746 0.2481117 0.19613048 -0.3498308 -0.22687358 -0.08000966 0.22644547 0.31787172 0.38351852 0.26341426 -0.09269683 0.1309861 0.17513926 -0.08333095 0.034151237 -0.07403242 -0.11718887 0.1611938 0.1797416 0.38062167 0.23497224 0.2733665 0.27492803 0.6075901 0.2701496 0.28149402 0.15727049 0.7402001 0.30318278 0.28826353 0.094789654 0.08914997 0.15136516 0.11963202 0.1195174 0.22583899 0.36969104 0.5692808 0.7313261 0.78096986 0.28497434 0.24975374 0.19041146 0.14090511 0.22526252 0.29251057 0.22654155 0.3162345 0.32287663 0.7418628 0.77015007 0.6698463 0.48512715 0.27661827 0.30565614 0.35773405 0.6725147 0.7192754 0.40318972 0.4084239 0.63131016 0.6486813 0.41903937 0.5211098 0.3673542 0.400717 0.43517947 0.35287082 0.3200713 0.42827883 0.4801581 0.46496335 0.3026808 0.16630688 0.08668054 0.42624208 0.47089803 0.45121604 0.45128572 0.071400344 0.050791368 0.059275687 0.45208663 0.44084 0.15553021 0.20107691 0.18688022 -0.03633453 0.056786224 0.42780644 0.19818963 -0.09473804 0.3559814 0.8029449 0.805988 0.7905756 0.6735809 0.5772336 0.76541185 0.5294115 -0.047266975 -0.12037527 0.6968745 0.20496586 0.6477673 0.081061415 -0.0845418 -0.061193936 0.11201587 0.052579008 -0.04017234 -0.014238782 0.6187619 0.5132204 -0.0141895935 0.15448698 0.6761446 0.65019596 0.53443897 0.43508983 0.29306203 0.20909423 0.05321529 0.23079035 -0.010275491 0.05179333 0.09915894 0.12984617 0.6845268 -0.28726932 0.044117384 0.39435354 0.3543688 0.18137798 0.3819948 0.30121058 0.18261272 0.6262311 0.0058788527 -0.08821694 0.28520054 0.46709222 0.45261288 0.28741544 0.39966 0.4291289 0.38837463 0.5011455 0.4726845 0.41417578 0.36428267 0.20272063 0.3247793 -0.14338093 0.5833975 0.5242239 0.4583871 0.46071374 0.41609827 0.36449194 0.17472412 -0.010953262 0.5214295 0.59119666 0.6786293 0.6483074 0.6032353 0.36577973 0.60735375 0.6384084 0.62375504 0.7726712 0.47397798 0.44790283 0.44381645 0.43182027 0.07963372 0.7823603 0.4461763 0.036318175 -0.3359565 -0.1754391 0.27163413 0.48714808 0.5908154 0.659325 0.39913985 -0.14295053 -0.29418248 0.32299566 0.25932264 0.19203565 0.18163812 0.35607144 0.33987817 0.14738348 0.083341435 0.55918235 0.24303406 0.6054803 0.599063 0.23234013 0.6187317 0.6311294 0.18926688 0.17903116 0.6349566 0.59791183 0.041035473 0.08929515 0.546605 0.41958666 -0.042120002 0.21362437 0.19455002 0.261242 0.17657337 0.19755217 0.63029224 0.26737794 0.185543 0.31694666 0.46091887 0.68494976 -0.286129 -0.26791602 0.2891198 0.21571228 0.6567989 -0.13426177 0.035851803 -0.032780636 0.2287643 -0.06897748 0.27227122 0.27341795 0.7693646 0.7051141 0.5889934 -0.18632255 0.29009655 0.78666925 0.7794401 0.70794165 0.59948313 0.42932117 0.76283705 0.6818626 0.47983682 0.1855487 0.57288146 0.38408747 0.485094 0.3792783 0.14364707 0.05644992 0.18102443 0.11302201 0.32595578 0.47584206 0.67543507 0.22581872 0.23871034 0.07350116 0.069395065 0.077769466 0.18627721 0.4094476 0.50176436 0.3117816 0.3119194 0.12010279 0.26915145 0.42466885 0.36586028 0.28880882 0.2993578 0.3071407 0.470333 0.4329847 0.29977933 0.22798787 0.2905569 0.30237442 0.30959094 0.4797815 0.46914244 0.27112174 0.290191 0.30967772 0.58938956 0.041066423 0.07018222 0.10870738 0.21901026 0.6670281 0.6988914 0.5437098 0.4165125 -0.09357262 0.27221277 0.31525645 0.38974744 0.5894108 0.6069107 0.086205155 0.40830407 0.42445508 0.54124093 0.40935507 0.49562964 0.46659356 0.2307143 0.39485937 0.44488367 0.4581283 0.46506655 0.34335196 0.27131367 -0.016750276 0.013002114 0.31365633 0.38216868 0.4201901 0.41792792 0.2231015 0.019260813 0.023468852 0.38232577 0.39803243 0.26808888 0.6365456 0.64038515 0.5848557 0.051157326 0.63373256 0.469445 0.3791974 -0.13431944 -0.12894495 0.17491217 0.5330788 0.26750228 0.21346484 0.2740644 -0.11650332 0.22546576 0.6038681 0.40638363 0.20116562 0.023401603 -0.12091102 -0.44997495 -0.13554591 -0.06865459 0.18290257 0.16465941 0.6574565 0.63290113 -0.0020550955 -0.2624159 -0.038747188 0.64197046 0.40887773 0.06669152 0.2116375 0.59209186 0.5582791 0.46765977 0.4217272 0.50194764 0.4083268 0.20447196 0.3240288 0.39257258 0.34414396 0.64901435 0.5789315 0.48765108 0.43747765 0.3494647 0.28672677 0.38555852 0.48945427 0.46483484 0.41428292 0.48509327 0.48244458 0.46941757 0.6376636 0.5310863 0.2520261 0.47680354 0.28518265 0.3937214 0.5524682 0.50707924 0.5192835 0.5302299 0.5287781 0.581702 0.5082113 0.5433544 0.53737825 0.61627537 0.51490486 0.5103047 0.47547773 0.4536221 0.4230435 0.111962155 0.5674351 0.50071335 0.16640866 -0.24692826 -0.36141557 0.20188327 0.2059936 0.43623286 0.5378397 0.4130987 0.18551295 0.25142694 0.23220792 0.23498112 0.5230126 0.14569578 0.14178084 0.14848086 0.60793144 0.5659837 0.21870995 0.6251254 0.5921035 0.15697676 0.62714744 0.58543974 0.4483416 0.058623277 0.07662999 -0.084457494 0.284216 -0.11504406 0.23844212 0.56720316 0.38875377 0.63429844 0.7192567 0.39572555 0.33691245 0.7139939 0.75230485 -0.18604898 0.293818 0.54255277 0.69430256 0.7471171 -0.20480658 -0.2285634 0.0012008399 -0.02594369 0.48808792 0.631614 0.44876343 -0.29429883 0.22392815 0.65483063 0.6339283 0.5238179 0.39252037 0.16035238 -0.4378827 0.24059817 0.7331767 0.74375916 0.21040636 -0.2087069 0.2482702 0.76892036 0.2853082 0.010529086 0.22731553 0.26450825 0.7530937 0.7536824 0.44071227 0.69707036 0.7240472 0.10759883 0.41014075 0.5066836 0.18959144 0.3776322 0.46351582 0.2853099 -0.041044287 0.37477615 0.33407018 0.4353136 0.42163017 0.25539917 0.24625991 0.5183721 0.51661086 0.30202153 0.30355212 0.5969073 0.5488038 0.47900364 0.44665408 0.26023915 0.28800204 0.36193293 0.3933227 0.40592736 0.5967 0.5046275 0.46248755 0.50839144 0.5580367 0.58109057 0.6003604 0.5501804 0.5425552 0.53794783 0.47825223 0.4199056 0.5054679 0.47513902 0.25628883 0.14467558 -0.01963009 0.019645162 0.066799454 0.4672458 -0.0510277 -0.01690951 0.014401905 0.18482825 0.23912083 0.49437082 0.021674171 0.325064 0.34653464 0.48939776 0.45217952 0.3516063 0.3934433 0.46525222 0.3718089 0.36721945 0.36993706 0.36517638 0.35012585 0.32033396 0.2450253 0.30051208 0.2666209 0.28512102 0.33810234 0.27898923 -0.11293952 0.4801044 0.4685243 0.5033123 0.12251851 0.19566979 0.2969678 0.041995864 -0.20184791 0.26042718 0.26792756 0.20349391 0.28366503 0.30641875 -0.11896717 -0.19447109 0.25613028 0.023049094 -0.1483006 -0.38563937 0.14992264 0.1975121 0.57020605 0.49045318 -0.09548176 0.103770554 0.15396842 0.49577093 0.7118877 0.6702392 0.5935505 0.5186027 0.41585058 0.3320706 -0.14572503 0.134879 0.2623201 0.40009105 0.72962475 0.64968896 0.10498573 0.34903377 0.26938704 0.31495792 0.43823373 0.5358535 0.5295381 0.7465278 0.7145181 0.39029515 0.39912137 0.42841446 0.50540704 0.563859 0.5950612 0.57874113 0.700068 0.5978262 0.3290491 0.34182417 0.40569258 0.35413045 0.54638255 0.54650515 0.5218206 0.48500562 0.46494704 0.40088472 0.07992242 -0.07067749 0.25557393 0.42071652 0.54021835 -0.043826237 -0.2629897 0.2482199 0.25247353 0.41653728 0.5047617 -0.2794629 0.109701455 0.18812819 -0.14582151 0.034264535 0.4668301 0.12130472 0.4830901 0.37551075 0.088267505 0.40655726 0.027957805 0.02944518 -0.028279677