# vtk DataFile Version 2.0
Really cool data
ASCII
DATASET POLYDATA
POINTS 7545 float
-3.6116185 57.057774 16.499079
-3.5588434 57.493023 16.095037
-3.6625037 57.600716 16.559746
-3.6407619 57.54133 17.269463
-3.5834503 58.056225 15.861911
-3.6157944 58.40594 16.634153
-2.9980185 56.172295 16.46472
-2.7868779 55.73558 17.553463
-2.6353822 55.657135 18.223663
-3.2099845 56.89557 15.869238
-3.3202796 56.625866 16.631039
-3.2832944 56.664288 17.398335
-2.980827 56.658047 18.187695
-2.939998 57.67707 15.290451
-3.3101444 57.43454 15.681246
-3.5344882 57.191235 16.199055
-3.4806304 57.419365 17.683287
-3.2020032 57.58057 18.255156
-2.7969875 57.429478 18.762257
-2.8923812 58.247257 15.237738
-3.2620907 58.354813 15.689654
-3.4943666 58.736134 16.717943
-3.4199023 58.660778 17.52131
-3.1914907 58.391155 18.151775
-2.9410758 59.47759 15.900017
-3.2347689 59.402626 16.668224
-3.1268854 59.50225 17.426144
-2.7732816 59.424328 18.215435
-2.7620494 60.3613 16.630451
-2.9005733 60.161236 17.241518
-2.6658719 64.170525 14.83339
-2.7052977 64.5337 14.075664
-2.8057525 64.63326 14.549454
-2.7352452 64.82395 15.485966
-2.532023 65.74683 12.703708
-2.7015877 65.34467 13.736924
-2.8825867 65.37164 14.717258
-2.7753367 65.44171 15.457558
-2.647289 65.19284 15.940303
-2.553019 66.24882 12.647271
-2.651971 66.61629 13.856272
-2.7320805 66.162125 14.530957
-2.7204466 66.116394 15.240002
-1.8483034 55.209442 16.038723
-1.915169 54.914055 16.641106
-2.0970018 54.694782 17.520613
-2.1230755 54.838024 18.228247
-1.882974 54.94928 18.7506
-2.182014 55.695667 15.805033
-2.5373805 55.277992 17.726921
-2.1296792 55.653923 18.943651
-1.6242353 55.86827 21.899912
-1.6431966 55.94499 22.205006
-2.0200458 56.084682 26.828579
-2.0280528 56.07444 27.307177
-1.9321728 56.174343 27.896019
-2.1978953 57.075184 19.242638
-2.0890045 56.79737 21.675575
-1.7658026 56.47811 22.39278
-1.9882181 56.916065 26.240177
-2.2484763 56.552147 26.775629
-2.3186214 56.662807 27.417631
-2.0712569 56.668083 28.011637
-2.5354447 57.349842 15.049579
-1.6796678 57.23533 20.213932
-2.0998178 57.40554 21.629898
-1.9702451 57.464985 22.333313
-1.6722751 57.28527 22.928118
-2.3695686 57.28977 26.876348
-2.3714063 57.3445 27.366982
-2.036454 57.261223 28.139608
-2.4410102 58.397522 15.046586
-1.9516137 58.36681 21.64731
-1.8799503 58.055832 22.328535
-1.9162261 57.97658 26.284462
-2.0205524 58.408325 26.812563
-2.1876504 58.17397 27.451288
-1.899345 58.34873 28.11403
-2.0781147 59.306118 14.971269
-2.6318326 59.335197 15.389352
-2.5543149 59.747486 18.52558
-2.323995 58.994896 19.130663
-1.7179922 59.420097 21.66745
-1.8555937 59.165375 26.900457
-1.8388153 59.29951 27.50592
-1.7332401 59.19469 27.964935
-1.8347739 60.610123 15.287673
-2.3479245 60.125927 15.554315
-2.2889094 60.3258 18.295952
-1.7040994 59.71781 27.441925
-1.9890338 60.96839 16.176748
-1.9331073 61.21808 16.535818
-2.2485802 60.796654 17.610384
-1.7686121 60.713276 18.665476
-1.8522358 63.174107 14.507421
-2.0522099 64.107376 13.2232485
-2.2533393 63.732704 14.020533
-2.2466643 63.697506 14.227533
-2.2578163 63.689037 15.240507
-1.944445 65.03364 12.081294
-2.187471 64.83077 12.806871
-2.1977031 64.66417 16.184965
-2.0427876 65.63647 11.882209
-2.4130247 65.33053 12.744422
-2.389936 65.61817 16.08371
-2.2113843 66.39713 12.028652
-2.421326 66.4476 12.504964
-2.4747949 66.68732 14.535462
-2.4242885 66.45349 15.515232
-2.219711 66.105804 16.073421
-1.8191267 67.32245 12.096752
-2.2130938 67.23657 12.543804
-2.3718367 67.225464 13.4391985
-2.155861 67.243256 14.26323
-2.0666983 66.860245 15.324034
-1.8482506 66.71766 15.84319
-1.9321864 67.727295 12.559665
-1.9543982 67.80811 13.460132
-1.9267741 67.77562 13.982083
-0.5659603 48.760483 9.984147
-0.53837657 48.97341 10.558463
-0.5869832 49.489708 9.806394
-0.653014 49.40592 10.402133
-0.5456803 49.650063 11.040601
-0.61587334 50.29365 10.376156
-0.61374104 51.004166 18.015196
-0.7854723 53.83655 10.167718
-0.95830345 53.892986 10.798391
-1.0578663 54.00474 11.606692
-0.90252864 53.976257 17.068018
-1.5701994 54.25546 17.690828
-0.984011 54.145763 18.502666
-0.8738148 54.772694 9.987423
-1.2329779 54.78281 10.622127
-1.2701635 54.632122 11.365939
-0.9616957 54.458282 12.012184
-1.227313 54.867393 15.958826
-1.4501953 54.580063 16.549257
-1.6987914 54.634285 18.590847
-1.3701328 55.121136 19.34393
-0.8312025 54.724903 21.472992
-0.8289556 54.671124 22.783773
-0.8474531 54.922436 23.521326
-1.0050511 55.40461 26.747753
-0.8627168 55.414574 9.923794
-1.1656948 55.35411 10.590877
-1.2312764 55.38933 11.341437
-1.025871 55.326916 12.003202
-1.1883173 55.70024 15.183004
-1.3894534 55.515953 21.705853
-1.3650427 55.66066 22.576374
-1.1001124 55.518436 23.601427
-1.0387251 55.836582 24.6349
-1.0659552 55.920868 25.591791
-0.8970842 55.557987 26.462658
-1.5772731 55.679276 27.409546
-1.396839 55.97566 28.169529
-0.6766647 55.8816 9.895224
-0.84174776 56.020763 10.438137
-1.3484831 56.917458 14.693559
-1.4657407 56.429375 20.208042
-1.543047 56.340435 22.63955
-1.4077365 56.271107 23.245892
-0.9553609 56.104347 24.22813
-1.1877378 56.494843 25.763124
-1.4795692 56.371174 28.40795
-1.0805354 56.725784 28.790071
-1.109365 57.58213 23.309904
-1.5462261 57.36173 25.899193
-1.695997 57.46372 28.561777
-1.3036026 57.558743 28.775415
-1.3763988 58.62426 14.669157
-1.2265837 58.581696 22.912336
-1.5484715 58.445206 28.491142
-1.2010778 58.37086 28.720505
-1.3617835 59.48305 14.725819
-0.998774 59.47208 23.309685
-1.2892324 59.106987 26.138678
-1.5342001 59.648067 26.914724
-1.5627987 59.669247 27.703753
-1.2906032 59.40961 28.24848
-0.9646839 58.957607 28.71794
-1.4363239 60.15854 14.841088
-1.5015482 60.096718 20.611494
-1.3545036 60.3671 22.12808
-1.0173384 60.330067 23.17654
-0.73733705 60.525806 24.069656
-1.3373184 59.82409 26.949549
-1.3819463 59.846146 27.490112
-1.182003 59.861645 27.866987
-0.7701806 60.986187 14.9858
-1.2336516 61.65728 18.229767
-0.9018103 61.275017 20.622128
-1.2038473 61.084366 21.514822
-0.8799786 61.70636 22.64505
-0.6716376 61.048553 23.775702
-0.74181825 62.829563 12.97313
-0.90573376 62.75371 13.477434
-1.5999237 63.075024 14.279476
-1.161552 62.959846 15.599813
-1.2253033 62.573 16.269766
-1.3316225 61.992104 17.363504
-0.8704361 62.141464 20.932293
-0.8347751 62.419815 21.520546
-0.77633023 62.38224 22.261993
-1.3983424 63.59798 12.894352
-1.6815723 63.40373 13.674405
-1.2305256 64.34005 12.085228
-1.292902 64.33552 12.335642
-0.9216641 64.64769 16.98161
-1.418336 65.491295 11.418135
-1.4344459 65.62158 16.580492
-1.5483136 66.33678 11.373122
-1.5147469 66.58978 11.428931
-1.6698095 66.1823 16.418007
-1.0954546 66.00116 16.796669
-1.3428259 67.05038 11.371662
-1.3227439 67.34367 11.814064
-1.3558568 67.22849 15.142662
-1.5032575 67.70034 12.255431
-1.5492452 67.996704 12.817144
-1.5113348 68.073685 13.41131
-1.2943069 67.85099 14.15753
0.37763822 46.98633 7.306537
0.26481882 46.94626 8.710716
0.2825998 46.892376 9.4231615
0.30732527 47.043224 10.002863
0.40226585 47.416622 6.9362373
0.24557868 47.48406 7.668289
0.14784625 47.777576 8.290182
-0.13087472 47.98965 9.321366
-0.01603669 47.816532 10.304066
0.24832746 48.107777 11.066873
0.14946327 48.32217 7.8495693
-0.09270421 48.499573 8.746964
-0.3908288 48.660767 9.483989
-0.4003342 48.59339 10.405115
-0.16024676 48.751896 11.210905
0.18833603 49.111713 11.829457
0.17898403 49.379787 7.997769
-0.13150233 49.716557 8.712647
-0.4657062 49.236507 9.296277
-0.33747643 49.357105 11.289643
0.19850634 49.843266 12.108859
0.23909077 49.973953 16.742743
-0.13888061 49.905327 17.796545
-0.1208483 49.91887 18.355124
0.09899677 49.98328 18.81134
-0.09613407 50.126972 8.655378
-0.420704 50.55636 9.415041
-0.43709242 50.71912 10.369299
-0.33702877 50.172184 11.183307
0.23296744 50.493713 12.252142
-0.23507321 50.799847 16.999323
-0.34108475 50.37427 17.610428
-0.40413168 50.496304 18.405373
0.041249305 50.461456 19.068129
-0.39219886 50.9671 9.6843195
0.069128424 51.277664 11.401131
-0.123508126 51.19361 16.667725
-0.41563278 51.4025 17.464935
-0.39883795 51.26267 18.466015
-0.1322029 51.377586 19.074963
0.046732724 52.677303 9.768565
-0.17291504 52.340733 10.650742
-0.027752459 52.252262 16.837692
-0.22404116 52.238514 17.322966
-0.25424853 52.325516 18.352531
-0.006146103 53.834564 9.277663
-0.22865096 53.362617 9.82344
-0.6696508 53.910286 11.961644
-0.53182054 54.02779 16.52462
-0.5916748 53.898563 17.26639
-0.11268374 53.24305 18.392717
-0.424324 54.198647 21.691116
-0.17272247 54.06835 22.279089
0.07256438 54.08663 23.594551
-0.024259418 54.336147 24.19314
0.007790208 54.343605 9.147274
-0.495533 54.6258 9.477857
-0.6481456 54.463657 12.380786
-0.022378743 54.785954 12.737094
-0.54287666 54.930443 15.84758
-0.19249475 54.42705 20.257019
-0.5953964 54.374542 21.29952
-0.4833564 54.41237 23.340612
-0.35156727 54.691326 24.344038
-0.34012872 55.158394 25.762299
-0.3775 55.11945 27.293743
-0.06008254 55.086273 28.102877
-0.2074103 55.246643 9.246233
-0.50767946 55.402622 9.536561
-0.42329463 55.250484 12.711665
-0.6556878 55.87682 28.522379
0.037200153 55.731857 28.927187
0.16426983 55.92294 9.372746
-0.31501046 56.045895 9.738328
-0.4680033 56.422523 10.594309
-0.44134113 56.40423 11.268087
-0.39186752 56.07439 12.176184
-0.47499877 56.673088 14.371972
-0.5209221 56.94791 14.498808
-0.30423164 56.661076 29.131227
-0.12454283 56.6187 10.507529
-0.24226008 57.33039 14.489561
-0.6136914 57.574085 28.992096
-0.7250918 59.53307 26.150106
-0.10727932 59.65469 28.453947
-0.68031305 59.141068 28.722466
-0.0699155 60.370808 25.14557
-0.77929616 60.113914 27.500433
-0.5738466 59.89176 28.131668
-0.107031375 61.990303 13.072825
-0.40078828 61.582623 14.324515
-0.43906826 61.68204 23.335587
-0.13008833 61.29888 24.555878
0.25820455 61.61754 25.035254
-0.15002939 62.702503 12.27502
-0.5709769 62.956608 12.539669
-0.44618976 62.278667 13.326038
-0.5066582 62.14861 19.306707
-0.17843145 62.44402 23.183699
-0.1748204 61.971077 23.856842
0.32702908 63.971977 10.21374
0.08119851 63.663746 10.862602
[...]
POINT_DATA 7545
SCALARS features_00 float 1
LOOKUP_TABLE default
0.5553876 0.569176 0.56220335 0.5404709 0.57204145 0.5720785 0.5333301 0.47796926 0.40301245 0.5489323 0.5387666 0.504668 0.42328328 0.53717583 0.5588533 0.56342036 0.51599073 0.45909542 0.35848773 0.53305763 0.5652577 0.56950206 0.5228748 0.4718094 0.53552306 0.5469627 0.47268373 0.39796007 0.4732495 0.4330026 0.5170298 0.51079357 0.5709175 0.61355925 0.57479894 0.59017587 0.6288842 0.6076771 0.58757114 0.6271637 0.6425897 0.61803496 0.58946764 0.431862 0.4371239 0.44046113 0.3927312 0.32420337 0.500165 0.46061182 0.29869702 0.2672085 0.26912352 0.64707816 0.69941425 0.7183108 0.21369925 0.2703835 0.27297905 0.6411447 0.68913573 0.75619745 0.7395993 0.51729697 0.15168819 0.2727265 0.287758 0.29578456 0.7539096 0.78097975 0.7408688 0.48817843 0.22980255 0.2680708 0.7048808 0.6989101 0.74403435 0.71480477 0.43168443 0.4911792 0.33003318 0.2686405 0.16443774 0.634737 0.6659166 0.6806488 0.34424365 0.44146752 0.29754633 0.65005016 0.3822081 0.3255387 0.32236877 0.15326498 0.2707734 0.3326763 0.35165256 0.3610189 0.42747718 0.44773993 0.43289512 0.5567219 0.5472993 0.51561666 0.5482106 0.61672044 0.6362019 0.6008909 0.5546576 0.52250904 0.6555127 0.66854024 0.67058086 0.61362165 0.5343113 0.47994977 0.680001 0.68305624 0.6451445 0.45271504 0.45552653 0.4329768 0.44719046 0.4317969 0.42371854 0.61422974 0.5024702 0.6318694 0.7358728 0.31622386 0.38935915 0.22233492 0.5797869 0.6987873 0.7870495 0.75375617 0.3553102 0.3801635 0.32400224 0.20125335 0.27804378 0.31829578 0.2793929 0.454683 0.605667 0.7189199 0.84187424 0.8202977 0.44357327 0.26870698 0.2678869 0.22918656 0.15114883 0.32095218 0.41915965 0.6366833 0.6570772 0.5981802 0.67604816 0.41215363 0.13769576 0.2693968 0.25106823 0.14953993 0.4397139 0.6630484 0.6125315 0.28155386 0.6091268 0.6912822 0.64718795 0.3554433 0.23202235 0.6926829 0.6655035 0.32819194 0.17987543 0.56303346 0.6058378 0.662393 0.6731684 0.6654109 0.29451653 0.07176772 0.20593813 0.21397083 0.1825139 0.5980097 0.6391549 0.64743197 0.060727686 0.07344558 0.15401626 0.22906436 0.2516701 0.22234406 0.08033146 0.09244635 0.2220237 0.1943259 -0.05087672 0.07742585 0.2124217 0.23702334 0.24167886 0.19540292 0.23618016 0.23867038 0.25522694 0.2903839 0.48648095 0.45798883 0.60128677 0.61801183 0.45873946 0.38898018 0.6318816 0.6510978 0.48385555 0.6669209 0.68211246 0.6724813 0.59817183 0.41250235 0.44520155 0.46446404 0.4650694 0.40000644 0.39199686 0.39401752 0.43925938 0.46234924 0.44789064 0.36611354 0.39265501 0.43334675 0.46013868 0.44384047 0.40794465 0.34040326 0.37433127 0.41460896 0.43099758 0.37011042 0.55398405 0.6127975 0.61943173 0.60567236 0.35182285 0.38204026 0.39161837 0.40331098 0.3319484 0.58435696 0.62123203 0.6319028 0.6019678 0.34234816 0.31285352 0.51409894 0.56859237 0.60630673 0.58483 0.23915225 0.25094503 0.3655174 0.42972514 0.4619463 0.3666121 0.35905606 0.66809547 0.24050324 0.25428993 0.06557013 0.28662843 0.31779298 0.32405677 0.29119253 0.41506746 0.49240348 0.70818144 0.6275493 0.3141967 0.046268634 0.2508172 0.3282905 0.26238257 0.2435392 0.42300192 0.47778684 0.49370205 0.5414914 0.72851515 0.5851351 0.52240103 0.49357474 0.5569891 0.64692396 0.7504377 0.86655605 0.31415486 0.3077107 0.5412401 0.5907617 0.24235314 0.57551193 0.51476246 0.6014263 0.65479505 0.098097555 0.60094744 0.62583363 0.017832726 -0.08720963 0.23715638 0.2130943 0.21731515 0.033381004 0.06811725 0.0300733 -0.08821692 0.23301095 0.23367664 0.0636343 0.020006962 0.039922748 0.050962575 0.09355489 0.1891318 0.2226683 0.2836625 0.20434932 0.24328811 0.21515977 0.16181403 0.34671208 0.32725474 0.24936791 0.28190958 0.39199635 0.31663772 0.24806413 0.40424207 0.34087718 0.22580087 0.37730575 0.30413094 0.28825393 0.6550991 0.5731342 0.47196466 0.39369446 0.5905514 0.29649395 0.19630054 0.25784257 0.278514 0.63914204 0.5563216 0.5087379 0.5339464 0.531309 0.62244105 0.59884465 0.5563632 0.4668639 0.57625085 0.5559153 0.5805372 0.59155476 0.6271558 0.65134656 0.57958233 0.52994823 0.5966569 0.5283317 0.50356364 0.5087169 0.4749421 0.44174647 0.49998438 0.4549125 0.43177128 0.47181794 0.46906984 0.45170304 0.41650277 0.4111148 0.45939556 0.41132027 0.34656715 0.36696273 0.38383967 0.46992904 0.50553983 0.5665003 0.26229647 0.2737113 0.34194902 0.31857508 0.45654094 0.5269824 0.56442046 0.5831245 0.5520502 0.1750657 0.3099002 0.5500257 0.031368077 0.29183626 0.22121549 0.309794 0.45071644 0.25567287 0.23631158 0.3163055 0.15566634 0.26600435 0.1643027 0.0042734593 0.2204848 0.29555777 0.29093894 0.278427 0.14145303 0.34096476 0.3563635 0.50085914 0.19140169 0.22348803 0.30256817 0.40242556 0.4116456 0.3780827 0.42609638 0.37157753 0.46655 0.41007125 0.4938213 0.654753 0.47796443 0.39337265 0.49315742 0.5345731 0.5478023 0.15963036 0.4399271 0.04959667 0.4369715 -0.11016248 -0.10799789 0.53373593 -0.09027413 0.3646493 0.4377547 0.46170524 -0.012583021 -0.007373214 0.17950277 0.036453966 -0.0014586896 0.23784171 0.23135775 0.111558706 0.026141437 0.21291701 0.23309049 0.27647844 0.25819793 0.49664724 0.33982006 0.19098276 0.11743825 0.73833907 0.58401483 0.25999612 0.2018955 0.7776473 0.730783 0.6360552 0.17090333 0.19216481 0.26211387 0.27714533 0.29061273 0.28930545 0.7582685 0.69830537 0.63193214 0.53012407 0.52725273 0.37317947 0.31246483 0.23717025 0.26522726 0.27434528 0.2395384 0.6461443 0.5997039 0.49879932 0.6547997 0.6697366 0.65875494 0.62545747 0.58933353 0.6759635 0.683867 0.6741543 0.6373574 0.59716964 0.6917125 0.67209405 0.59614396 0.534072 0.5121573 0.47452262 0.60190886 0.64108086 0.65865076 0.4511077 0.41036642 0.5151495 0.53860855 0.3952667 0.33834124 0.339177 0.296681 0.3929296 0.44347453 0.4479108 0.21851814 0.27006748 0.22736877 0.42205727 0.45763242 0.48234242 0.48714405 0.48186734 0.18428034 0.20797813 0.36472085 0.41767836 0.49816746 0.098505825 0.36156005 -0.09329225 0.14864072 0.1026503 0.2896935 0.22653396 0.10676496 -0.042684473 -0.03220611 0.061076686 -0.010889724 0.035944194 0.12069732 -0.07522002 0.21879798 0.16300832 0.09184292 0.3010481 0.07564658 0.12254689 0.02915334 0.1633407 0.3130132 0.33089906 -0.0022967868 0.29859883 0.32204553 0.32740015 0.36807704 0.5027239 0.34252265 0.30102545 0.03772209 -0.18523961 0.31469518 -0.16845018 -0.09986305 -0.12597796 0.30215943 -0.05440018 -0.04803891 0.15843038 0.12405017 0.056958154 -0.02904653 0.2152098 0.17693059 0.18910208 0.14056367 0.23023322 0.47329503 0.22321397 0.8009401 0.77119625 0.2746262 0.8054093 0.0073728114 0.023928896 0.24471448 0.24904099 0.34751326 0.77708983 0.7432276 0.33892953 0.21884926 0.194408 0.26455653 0.24435544 0.2159327 0.19420193 0.24455678 0.37907618 0.4016726 0.6958792 0.46904138 0.6347114 0.6390451 0.5239863 0.6688992 0.6771746 0.6647291 0.6174576 0.56668854 0.66835904 0.64689434 0.62293816 0.6670382 0.68182313 0.5830483 0.5311431 0.498362 0.6276576 0.6705345 0.52158827 0.48795807 0.44537616 0.604823 0.427272 0.38454783 0.48410082 0.39514965 0.30886242 0.29894653 0.29648882 0.07577569 0.07126135 0.38173577 0.36344495 0.39935118 0.4279169 0.15820557 0.13164896 0.14863041 0.13697894 0.34898716 0.3082596 0.09327984 0.09724957 0.25115523 0.0083362125 0.17063165 0.12772827 0.064203486 -0.01708623 0.011940186 -0.33988145 0.0073233545 0.16391756 0.10395975 -0.20396344 0.008961663 0.15032902 -0.04837482 0.03799742 0.11291529 0.21770449 0.2921478 0.22355008 0.15166837 0.23350838 0.39198554 0.25701305 0.34241843 0.2298773 0.12724395 0.25978962 -0.054946676 -0.13980943 0.21714708 0.09570541 0.04119359 -0.035475403 -0.1038101 0.17593776 -0.024221614 -0.24327591 0.03981717 -0.19334385 -0.0683714 0.13770305 0.110394955 0.08680619 -0.045484077 -0.13823591 0.10381849 0.11461915 0.06727063 0.17096172 0.111815386 0.6411961 0.34293568 0.78538406 0.34324348 0.43410558 0.78783554 0.7388187 -0.13458471 -0.08119441 0.37177444 0.42825967 0.75866663 0.67430377 0.122272 0.19663909 0.2145103 0.12580456 0.4293847 0.46248943 0.63708526 0.17537978 0.17599072 0.29146156 0.39186615 0.4346602 0.4573267 0.6002109 0.57665664 0.2694104 0.63127244 0.65066826 0.5718646 0.6438393 0.6154183 0.59364367 0.6178118 0.6619501 0.6090801 0.53026927 0.49254245 0.52757657 0.5828663 0.47136593 0.42175215 0.45801833 0.39904845 0.33381364 0.30280375 0.07484172 0.15319861 0.08805676 0.15996416 0.1003698 0.07187587 0.1193698 0.34657755 0.23455983 0.30725434 0.09867798 0.06371785 0.07720297 0.1585489 0.16026604 0.07567212 0.0617299 0.15859295 0.3423224 0.17645185 0.10400509 0.079781495 0.07885064 0.12671702 0.2864436 0.34658462 0.3770705 0.20944868 -0.05060856 -0.007714467 0.05096053 0.119293265 0.35058576 0.40261507 0.22746225 0.21391386 -0.047862165 -0.020310186 0.43830657 0.45887044 0.20324136 0.41250867 0.4647681 0.14923494 0.37184066 0.4496429 -0.020709433 0.029908754 0.09769746 0.058747537 0.034761295 0.08906964 0.03896205 -0.3858365 0.23617566 0.2794845 0.040235303 0.28527167 0.39711773 0.064876385 0.08947903 -0.07714072 0.28445312 0.4117263 0.5348343 -0.010045916 -0.042930022 0.5940041 0.7022059 0.8014337 0.76424 0.043468937 0.7245151 0.8300364 0.8797023 0.796335 0.37095532 0.71946275 0.8051392 0.84765464 0.8295989 0.4409985 0.6577507 0.7309184 0.79337704 0.8295568 0.64248383 -0.18233076 -0.057418413 0.4817797 0.59434664 -0.21341889 -0.19819567 -0.17931138 0.47564787 0.48326725 0.54563737 0.49496567 -0.12233233 0.003072476 0.31375316 0.3964649 0.44698292 0.5197908 0.0040010214 0.3807136 0.560737 0.575377 0.4335316 0.21006304 0.5933896 0.51990646 0.48891157 0.5967548 0.6485996 0.6107497 0.5303026 0.50952566 0.48854047 0.42842782 0.31572813 0.37590212 0.39256862 0.6159563 0.33491087 0.24671084 0.20494777 0.16957596 0.15440588 0.4822185 0.5645696 0.601334 0.1354205 0.09757005 -0.13710552 0.044305835 0.40502188 0.5469825 0.54765093 0.19564776 0.27891344 0.0967844 0.07372144 0.08871205 0.07513764 0.070733175 0.28839806 0.31250158 0.31972072 0.11249393 0.073326156 0.11709714 0.26269537 0.33206242 0.33450648 0.20886071 0.13532482 0.01367015 0.3764121 0.39688239 0.22499168 0.23133093 0.035052754 -0.06006414 0.0037797512 0.439826 0.23407811 -0.18678764 0.45713472 0.44955367 0.20872205 0.17639032 -0.1958706 0.46372667 0.450602 0.017637266 0.45551753 0.35797784 0.2934765 0.3441766 0.35836974 0.3270619 -0.025682554 0.46590066 0.46331844 0.40647024 0.36586916 0.0021631494 0.16086829 0.62191105 0.62155056 0.608619 0.52071524 0.45644495 0.3194896 -0.21098968 0.3152328 0.64659953 0.66931236 0.66790867 0.6026482 0.53353095 0.3877417 -0.18944842 0.44264436 0.42996776 0.47836983 0.49247712 0.66012 0.65015256 0.5732512 0.41061592 -0.04224904 0.015762966 0.37356427 0.45869735 0.4773572 0.44619113 0.47869852 0.5626092 0.6977218 0.66289246 0.4813866 0.22709104 -0.062025905 -0.040663913 -0.16445006 0.40006158 0.49537003 0.71706086 0.70689404 0.32452968 0.12790059 0.24913839 0.7603816 0.73977995 0.24347742 0.29602057 0.47893864 0.78688395 0.7432587 -0.11633358 -0.17106687 0.40880948 0.34007213 0.43504274 0.65687287 0.7558315 0.7958426 0.064208366 0.024017744 0.42355326 0.6930004 0.36726037 0.21592823 -0.1289187 0.0020360053 0.054712724 0.45288515 0.4142161 -0.17858279 0.029715914 0.06217327 -0.01693735 0.0018472001 0.037224103 0.38852203 0.43830252 0.41051677 -0.08377065 0.039116424 0.09033495 0.13401067 -0.27633947 0.030181177 0.5278144 0.47692287 0.21420386 0.124415174 0.042900413 0.16923475 0.19416326 0.1879648 0.09890349 0.43319887 0.3005352 0.22632669 0.23999843 0.20837216 0.08283206 0.26598048 0.38303757 0.5957501 0.5174859 0.616354 0.6742662 0.7365459 0.7679759 0.5832183 0.61018276 0.68194985 0.74694544 0.7704672 0.6607179 0.7088679 0.75260794 0.57295656 0.6294523 0.5737926 0.52692413 0.4525739 0.3857872 0.4396968 0.49797845 0.4502837 0.3695197 0.32113796 0.35419238 0.51791435 0.622117 0.6680037 0.6738981 0.5017869 0.43731374 0.2695191 0.17857546 0.13886192 0.11125209 0.63349956 0.63851714 0.39534536 -0.022662014 0.09192722 0.5627978 0.4037511 0.31123734 -0.053627837 0.18149152 0.26030862 0.2894341 0.15806139 -0.08212926 0.11533577 0.13688417 0.15634248 0.2675602 0.30290037 0.30195618 0.28299806 0.09492737 0.04688891 0.1550684 0.13842028 0.11356815 0.043673046 -0.13045359 0.0138666555 0.31686038 0.3004855 0.21395347 0.1234615 0.18700905 -0.048920505 0.33724302 0.19902603 0.41879162 0.4033497 0.14327991 0.15360516 0.43264353 0.2294446 0.25100932 0.078757465 0.4348549 0.42122543 0.18033165 0.1771284 0.14508301 0.07833528 -0.040207963 0.0111685125 0.43572947 0.14531362 0.1531599 0.15187311 0.10495047 0.11993825 -0.15285811 0.3064889 0.23448768 0.25760862 0.2554842 0.24642135 0.4341468 0.37904444 0.27861595 0.2017784 0.10803221 0.57045686 0.27112055 0.11156997 -0.41604853 -0.40721387 0.35432076 0.6067295 0.029174803 -0.42143276 0.49973375 0.51831394 0.5075027 0.5206393 0.51384974 0.52190495 0.6093254 0.62268734 0.61165315 -0.13418636 -0.21098448 -0.14813334 -0.18036693 0.28995928 0.42010808 0.5002705 0.4265073 0.536399 0.54192996 0.53480756 0.20623344 0.20913328 0.33618927 0.6223804 0.62650883 0.3594871 0.1293738 0.1885505 0.6553767 0.40491194 0.39311928 0.20567231 0.09107366 0.6888025 0.3774382 0.30376816 0.022136763 0.7233601 -0.07181966 0.2735116 0.019197315 0.16103326 0.34587437 0.36651212 0.27387175 0.39765197 0.5053843 0.118272796 0.4939463 0.5633738 0.58697164 0.43561208 -0.0175782 -0.25181746 0.04138097 0.015940815 0.5222604 0.5764603 0.59582853 0.6178286 0.47411108 0.3463944 -0.07696198 -0.14134687 -0.053849205 -0.022143856 0.60301447 0.62844265 0.6317717 0.2476711 0.24696216 0.29421312 0.30157578 0.24628812 0.20474236 0.23467112 0.23517121 0.14804934 0.17310351 0.14810425 0.33567297 0.2796972 0.286507 0.23693551 0.25810808 0.30453008 0.33408833 0.26721075 0.3294628 0.6341496 0.65025705 0.4467526 0.42154044 0.39984417 0.39238375 0.47917148 0.73452175 0.7755943 0.46707344 0.45633096 0.45319754 0.5743896 0.7845063 0.79705673 0.5653317 0.63197666 0.7069499 0.77050847 0.781546 0.7938661 0.6139348 0.56781745 0.53591526 0.48030537 0.35003144 0.52511436 0.60850567 0.4706312 0.41709268 0.51773953 0.58280677 0.5480126 0.4773615 0.25216252 0.35261786 0.39277083 0.4914779 0.62456906 0.6777475 0.67417026 0.53616387 0.53188014 0.18206754 0.045396052 0.15026982 0.2141178 0.61228037 0.44353855 0.46001732 -0.25890535 -0.28404614 -0.015939403 0.5359154 0.39356887 -0.41968906 -0.38489938 -0.38410065 0.32250923 0.21405901 0.2381403 0.27269435 0.2760002 0.34113288 0.27805644 0.07800088 0.119542144 0.22932094 0.2773004 0.28685674 0.24895754 0.23578078 0.18586504 0.09177588 0.07202463 0.09428877 0.053233583 -0.036589015 0.2711262 0.24574736 0.027086161 0.043006234 0.25363064 0.11632702 0.07742745 0.26197207 0.3593045 0.34761518 0.1337277 0.29336387 0.34660453 0.3200708 0.3163975 -0.032109834 0.39052194 0.19960847 0.2495102 0.27020752 0.22666247 -0.20287941 0.38735715 0.3920911 0.15508795 0.18452811 0.22534162 0.19991225 0.13287428 0.029203936 -0.020690694 -0.19390613 -0.2283755 0.3409236 0.25709578 0.15302894 0.1069891 -0.10103376 -0.34351155 0.27967703 0.37001568 0.33656415 0.14521892 0.0015786849 -0.28382844 -0.02526687 0.021675274 0.34193528 0.27560633 -0.2336263 0.024118088 0.4782269 -0.10849963 -0.4533664 0.19604115 0.47820374 0.5120865 0.50564253 0.47705388 0.4885009 -0.094428346 -0.4428333 0.44397318 0.49872887 0.47603834 0.49138722 0.5060086 0.50892353 0.5000298 -0.23403683 0.15915442 0.37691027 0.4728493 0.28240174 0.52385235 0.42139313 0.31222355 -0.22391048 -0.22981362 0.14994156 0.5200499 0.21429181 0.11911011 0.16475457 0.55183756 0.2838018 0.3158458 0.046349354 0.054252163 0.021595703 0.5628375 0.29761434 0.29269746 0.22848746 0.0031753704 -0.45781296 -0.09422554 -0.047679693 0.1337002 0.061220348 -0.014949631 0.60494554 -0.36055478 0.15893477 0.11012025 0.13487001 0.045190815 -0.009538878 -0.11716812 0.19632372 0.3943882 -0.042590696 0.2759394 0.5465313 -0.013918847 -0.0040189736 0.3312194 0.44046515 0.619752 0.61209667 -0.023543566 0.44972908 0.56120473 0.6056551 0.6289351 0.63215315 0.15469463 0.19785583 0.37510347 0.5285379 0.60175323 0.62240624 0.62234807 0.21723479 0.2609815 0.24905688 0.21070787 0.17766492 0.251449 0.72104746 0.43077084 0.46958882 0.7651614 0.7757804 0.5161772 0.5014317 0.468867 0.44735116 0.801254 0.4852024 0.45910245 0.43670467 0.4753303 0.5617582 0.6592282 0.71937895 0.76465434 0.7926213 0.5605432 0.50040245 0.37163907 0.35424882 0.4403778 0.5025606 0.55994916 0.5686548 0.16680174 0.20364334 0.30888906 0.37106085 0.41540146 0.49219963 0.62254536 0.62355155 0.49458554 -0.16444938 0.062413454 0.11099315 0.20294465 0.5857391 0.39899856 -0.18558413 -0.14365153 -0.25775334 -0.111342 0.33051836 0.20459905 0.22286159 0.20778131 0.34639212 0.3803503 -0.44357303 -0.46541706 0.19475967 0.20814961 0.21361771 0.23743857 0.25510666 0.227753 0.25167537 0.20818225 -0.055731464 -0.08148855 -0.04424598 0.10866689 0.22446507 0.15951343 -0.2707184 -0.0068518184 0.1419081 0.12881252 0.5962888 0.5728315 0.42607942 -0.14471808 -0.10089709 0.16136262 0.36668444 0.48779213 0.57514685 0.4843126 0.3599414 0.111955404 0.20171818 0.23290542 0.5145651 0.14042538 0.2760816 0.24903944 0.2551955 0.03525751 -0.27389047 0.2170187 0.07902826 0.11862354 0.24489722 0.22334763 0.315729 -0.065881535 0.07583485 0.11911884 -0.30175287 -0.18496332 0.261163 0.2120946 0.22401828 0.09033376 0.30402488 0.3416878 0.33476263 0.07047385 0.41771692 0.39352405 0.4240631 0.38983193 0.33778495 0.2434999 -0.021382324 0.09604504 0.4202504 0.4137445 0.2723813 0.04137654 0.03112153 0.3611043 0.4144102 0.45596457 0.4474184 0.43761295 0.23538947 0.117586896 -0.030759152 0.26002318 0.46442738 0.48757643 0.50348043 0.30772328 -0.2446513 0.091011085 0.04742942 0.122187085 0.5071592 -0.06728827 -0.22259669 0.03161436 0.49636412 0.51573795 0.08806018 -0.37626868 -0.24651021 -0.006682398 0.50343627 0.50737107 0.11373405 -0.16404511 0.00676593 -0.03649662 0.051651295 0.48735458 0.5254541 0.24775836 -0.0098141795 -0.25603744 -0.31758776 0.344271 0.46362484 0.18477008 0.047401544 -0.10860657 -0.21351647 0.28780857 -0.43128812 -0.06384762 0.007883377 0.05526925 0.48905578 -0.1138151 -0.086336575 -0.019429637 -0.0065869987 -0.00021100976 0.48480278 -0.2473655 -0.109156184 0.07806082 0.5846182 -0.008876741 0.3159137 0.61392933 0.58467984 0.45799938 0.39298737 0.4720857 0.5255058 0.5897992 0.5913816 0.20618734 0.21962789 0.21706146 0.19532914 0.123109534 0.51739484 0.20727459 0.28878462 0.70035124 0.4500319 0.46545398 0.3740834 0.7688931 0.46773797 0.43687508 0.38130763 0.2911877 0.3917702 0.4881487 0.6026542 0.6711389 0.74629116 0.46924162 0.3557123 0.38245717 0.5129795 0.44368255 0.0705352 0.1917119 0.23092952 0.29163575 0.40713653 0.47092152 0.47782505 0.4914204 0.49350744 0.32951143 -0.4211697 0.088061206 0.44578916 0.27473193 0.40361756 0.43485987 0.44765568 0.06535217 -0.10645367 -0.12084455 -0.2034483 -0.11339724 -0.01312628 0.26748875 0.11700813 0.19157127 0.29897216 0.2869693 0.17039195 -0.1908752 0.1630463 -0.062103286 -0.058864668 0.08028603 0.12223916 0.19369903 -0.12876816 0.11844374 0.29608947 0.6693115 0.651562 0.5341117 0.36756337 -0.26613235 -0.10421761 0.118006885 0.34594244 0.444235 0.60587144 0.62912214 0.6450575 0.62837595 0.3694078 0.06454757 -0.101307206 0.5462469 0.67195296 0.5543368 0.5432648 0.20662615 0.06456597 0.016706595 -0.48817396 0.6840992 0.38657126 0.22103378 0.12954581 -0.40930194 -0.3904861 0.1921637 0.4209917 0.6168485 0.04851514 0.039359525 0.08092136 0.15739799 0.1406187 0.033319853 -0.06626362 0.26565266 0.21407187 -0.24198726 0.39981744 0.3573336 -0.3146134 0.45723838 0.43764752 0.45181835 0.43230116 0.39517686 -0.10824392 0.28871354 0.38457328 0.38535613 0.38353992 0.33308202 -0.19873929 0.296415 0.39341992 0.39422488 0.08745167 -0.24229167 0.045672495 0.17351252 -0.084039815 -0.14895862 -0.19553953 -0.17830223 0.030467644 0.47108465 0.49455917 0.024085294 -0.056582823 -0.05189846 -0.20885202 0.4653057 -0.059649844 -0.27590904 -0.25384524 -0.37929422 -0.052933298 0.44556737 -0.010404535 0.09489604 -0.25868624 -0.24785839 -0.055053063 0.22474903 0.123941764 0.16206045 -0.34072766 0.014544815 0.355331