# vtk DataFile Version 2.0
Really cool data
ASCII
DATASET POLYDATA
POINTS 1405 float
22.351564 64.31424 9.236218
22.326273 64.96743 8.089618
22.22192 64.65734 8.709494
22.116035 64.80724 9.285064
22.234749 65.6261 7.9351854
21.931479 65.52663 8.540229
21.868574 65.65397 9.373524
22.274231 65.5562 10.1545725
22.143785 66.18 8.0455065
22.08987 66.45486 8.482532
21.897629 66.31267 9.3860655
22.166248 66.61981 9.972092
22.129633 66.76106 8.709196
22.11751 66.92085 9.428633
22.984585 64.20953 8.196788
22.608795 64.178764 8.808071
22.68804 64.11506 9.314139
23.033625 64.14625 10.0199375
22.7437 64.773 7.818565
22.554317 64.36952 8.393618
22.40094 64.42418 9.592067
22.784039 64.50639 10.29291
23.047003 64.918465 11.203909
22.835596 65.820305 7.226226
22.55574 65.46172 7.507456
22.428988 65.96009 10.591411
23.10141 66.14185 7.1809454
22.652838 66.39523 7.5616565
22.520529 66.54176 10.687858
23.031984 66.278015 11.529298
23.398788 66.24237 12.411408
23.03297 67.27058 7.947951
22.439707 67.0725 8.567701
22.411701 67.326126 9.472236
22.654314 67.20323 10.140142
23.151503 67.79987 8.596979
22.829975 67.660706 9.4538355
23.50681 64.18652 8.141893
23.235727 63.94675 8.578112
23.385536 63.9573 10.175005
23.765207 64.87583 7.322712
23.444382 64.61721 7.6099505
23.507717 64.796326 11.958169
23.542624 65.75789 7.0513086
23.627865 65.76594 12.7122135
23.794577 65.81182 13.233804
23.568726 66.19228 7.108107
23.743813 66.271385 13.197224
24.054695 66.03053 14.152825
23.555408 67.62462 7.8891993
23.44888 67.1408 11.802607
24.195034 66.97128 13.085769
23.860567 68.46899 8.64423
23.367777 68.26175 9.180172
23.758358 68.3277 10.094424
24.003166 68.74476 9.32206
24.561413 64.12641 8.613862
24.687048 63.865288 9.682951
24.477062 63.86636 11.523942
24.393042 64.718414 7.6739407
24.610048 64.613235 13.442018
24.905869 64.73586 14.228239
24.462578 65.24172 7.407218
24.42388 65.47009 14.523951
24.620888 66.10565 7.1890182
24.61645 66.65936 14.840526
25.2544 66.576065 17.638546
25.338911 66.86032 18.365856
24.50789 67.54752 7.279153
24.802858 67.32798 13.568977
25.026833 67.3151 14.281855
25.236656 67.60724 15.785859
25.112997 67.48765 16.969244
25.044106 67.13756 17.065851
25.141869 67.68657 18.505598
25.263042 67.87621 18.932251
24.600258 68.30748 7.770638
24.34417 67.831726 11.701874
25.186558 68.748535 16.973507
25.09678 68.38842 17.442863
25.052786 68.34602 18.389915
25.24847 68.24335 18.94886
25.004393 68.6676 8.035217
24.681461 68.97215 8.8752165
24.550308 68.922134 9.65954
24.585136 68.81387 10.020904
25.359207 69.19488 17.11614
25.311771 69.200195 17.733438
25.208872 68.85881 18.576187
25.960926 63.381237 11.431619
25.347038 64.05837 8.633907
25.261065 63.81998 10.615459
25.514511 63.537754 11.313546
25.854923 64.00072 14.846807
25.90537 64.14063 15.827613
25.7466 64.5877 8.128819
25.641838 64.36127 15.530801
25.821085 64.50789 16.369091
26.29846 64.653336 17.245409
25.551615 65.233406 7.6079755
25.433054 65.26832 16.54367
25.858 65.827484 18.171066
25.700975 66.436 18.452204
25.728878 66.80231 18.816423
25.598492 67.6068 7.256051
25.688656 67.7589 19.246386
25.345078 67.89866 7.3315153
25.132004 68.492096 7.717478
25.277248 68.25322 10.838322
25.876995 68.29569 14.890814
25.729061 68.33333 19.355974
25.425707 68.87038 8.5787945
25.58682 69.001144 9.318325
25.130978 68.89254 9.943667
26.2327 68.787315 15.04805
25.879843 69.32457 16.258036
25.579775 69.3161 16.878128
25.776184 69.0495 19.13622
25.934198 69.97063 17.501078
25.8266 69.836296 17.989687
26.80647 63.203888 10.355181
26.507408 63.291016 11.481866
26.266504 63.87894 13.074261
26.444633 63.809708 14.311611
26.29098 63.777195 15.223017
26.916208 63.77663 16.521357
27.040432 63.91034 17.524675
27.212175 65.13115 7.1866875
27.119188 64.456764 18.159016
26.100414 65.53229 7.7522745
26.976912 66.042755 7.109254
26.474 66.86256 19.223747
26.62225 67.802216 19.871216
26.102556 68.218994 7.7889833
26.4283 68.54326 8.711335
26.691229 68.460144 10.367058
26.31959 68.094 12.98892
26.550486 68.58034 9.201946
26.399307 68.58912 10.203
26.433207 69.58848 19.334682
27.23441 69.02941 20.146688
26.258577 69.92431 16.934565
26.528812 70.35198 17.373331
26.62308 70.5652 18.306656
26.377977 70.00998 18.937613
27.240744 70.69573 16.788342
27.079088 70.907906 17.738413
27.381823 71.79751 26.773754
27.442324 71.71134 27.152514
27.381783 72.56149 26.450043
27.42634 72.216934 27.13657
27.447975 72.80565 26.533504
27.555502 62.846794 10.564472
27.140135 63.133743 11.630128
27.536373 63.220577 15.03012
27.633198 63.175827 15.447564
27.699291 63.174362 16.454294
27.905748 63.314926 17.327656
28.34448 63.74906 -7.913248
28.225065 63.75565 -7.457888
28.236004 64.05897 -6.748357
27.942358 63.973415 7.571351
27.826803 63.506985 8.402851
27.326769 63.443638 15.959021
27.66875 63.927692 18.168581
27.965189 64.11487 18.602766
28.269953 64.33298 -7.9333596
28.163792 64.40542 -7.33321
28.160255 64.55054 -6.981862
28.292273 64.93689 -5.8551984
28.310913 65.42711 -6.429339
28.382406 65.49432 -4.751477
28.399391 66.08749 2.8469028
28.300869 65.71841 5.861554
27.554083 65.33635 6.6678667
28.37923 65.884735 -5.6288605
28.215631 66.62238 -2.711581
28.301392 66.45348 3.447194
28.411865 66.63228 4.298538
27.686352 66.12769 6.67202
28.033272 67.40245 -2.5466614
28.136438 67.55209 -2.1182742
28.414919 67.33782 5.962802
27.811457 67.51818 20.288685
28.185097 68.67914 -4.2679954
27.927961 68.678505 -3.4925742
28.2069 68.83774 -2.3965924
28.163683 68.105385 -1.9650899
27.69777 68.23423 10.327416
27.8402 68.24384 11.606752
27.311483 68.08359 12.838852
27.760038 68.092064 20.348646
28.227018 69.5088 -4.768911
28.061804 69.61504 -4.238473
28.035273 69.83871 -3.7802079
28.296005 69.20461 -1.9566518
27.94139 69.96583 20.343536
28.142277 69.97871 -4.2324576
28.248266 70.237076 -3.562063
28.279173 69.970406 -2.8346252
27.15386 69.900986 16.433035
28.005232 70.80148 26.704826
27.99234 70.93394 27.37409
28.020412 71.1141 27.821932
27.619028 71.65996 18.21115
27.626797 71.59618 25.716919
27.542 71.41927 26.721663
27.608767 71.73459 27.370117
27.946796 71.43389 27.887629
28.155241 72.71712 18.61858
27.779318 72.4346 19.430496
27.825096 72.4181 21.090279
27.859322 72.47268 22.723354
27.468557 72.640015 26.872477
27.530025 72.422455 27.23626
27.981564 72.3604 27.861094
28.101154 72.782616 18.942192
28.091946 73.1146 19.61497
28.091558 73.11903 20.282206
28.009483 73.09084 21.77664
28.003435 73.153336 22.505589
28.083708 73.457214 24.981583
27.709373 73.08894 25.97447
27.755365 73.14564 26.5779
27.879742 73.001015 27.180466
28.373924 73.86936 22.769941
28.891493 61.97816 9.749142
28.654346 62.000034 10.509438
29.02696 62.020596 11.466317
28.959293 63.119045 -8.084845
28.734274 63.12698 -7.5232515
28.976904 62.908897 -6.924772
29.04416 63.124126 8.032786
28.611542 62.930508 8.593336
28.680462 62.881382 12.625517
28.8327 63.073704 14.674866
28.218704 62.97297 15.333197
28.5978 62.88845 16.727608
29.144114 63.30269 18.275589
29.046028 63.847435 -8.7864065
28.729477 63.576275 -8.24918
28.47008 63.42527 -7.6663723
28.416674 63.426525 -6.9517198
28.462809 63.859898 -6.1839337
29.061195 64.087746 -4.9917455
28.962576 64.14657 6.623805
28.61634 63.734673 7.7222075
28.63494 63.688904 18.470654
28.318945 63.989838 18.639473
29.047724 64.188705 -8.859331
28.921793 64.78849 -8.593109
28.752224 64.769295 -4.645257
29.145283 64.80225 2.642179
28.29582 64.425644 6.6652904
29.161095 65.03399 -8.7263565
28.784914 65.01631 -8.29557
28.778034 65.90709 -3.7256386
29.234426 65.75633 -2.2177544
29.22289 65.84848 -1.7734412
28.694763 65.647415 2.679048
29.095116 66.09311 -7.9315453
28.657366 65.96956 -7.5424767
28.456694 66.13473 -5.816307
28.57938 66.29326 -4.181257
28.507378 66.67674 -1.8411005
29.006565 66.69734 -1.2274449
28.57338 66.87231 2.1665626
28.518335 66.87224 2.5748343
28.251928 67.16963 20.202078
29.207026 67.19361 -6.52576
29.18137 67.532875 -0.71210337
28.824833 67.29827 1.8923733
28.749758 67.49163 2.4574533
28.57376 67.42468 3.728146
28.459438 67.38541 6.423764
28.541283 68.33567 -4.470747
28.434608 68.4825 -1.5175976
28.756401 68.061455 2.3609622
28.882647 68.673615 3.3581796
28.998959 68.220665 4.2331486
28.968023 68.231445 7.03118
28.6565 67.8556 7.68284
29.102566 68.35279 8.2419
28.530117 68.098595 9.227035
28.460365 68.54739 11.541857
28.559347 69.451805 -1.6710416
29.321806 69.703384 -0.7118234
29.043665 69.253746 1.9060048
29.043516 69.4371 2.49817
29.266905 68.95768 3.8297133
28.651918 68.707954 11.98955
29.008001 69.03718 13.644592
29.190765 69.804 23.680605
29.029991 70.10449 24.428036
28.702967 70.24381 26.567183
28.580267 70.29688 -4.7760906
28.523464 70.45848 -4.320647
28.465256 70.537575 -3.4955177
28.448505 70.1382 -2.655573
28.876547 70.12075 -1.6414133
29.21664 69.73685 2.3510604
28.983345 70.547134 16.007935
28.626844 70.36843 22.297533
28.4844 70.57407 27.47623
28.628162 70.9583 28.028242
29.07701 70.72682 -4.8415213
28.910345 70.879486 -4.213212
28.659954 70.84552 -3.9292798
29.039595 70.837776 -2.5179138
28.588211 71.44645 28.257484
29.055658 72.18045 17.087225
28.754683 72.116714 17.38434
28.698542 72.27929 28.193851
29.020658 72.74648 18.042849
28.621881 73.232315 18.815237
28.415056 73.395325 19.506712
28.288614 73.52216 26.64479
28.452036 73.17926 27.359
28.551994 72.978096 27.72635
28.824978 74.60558 21.741364
29.003145 74.11361 24.734291
28.594213 73.56125 26.658638
29.09929 75.01943 22.273277
29.802254 61.2353 9.797222
29.830845 61.190292 10.325509
30.078133 61.357414 11.039047
30.163221 62.320564 -0.8492824
29.542953 61.88001 9.002332
29.508118 61.42813 9.638136
29.457207 61.510063 10.676152
29.721012 61.588634 11.152119
29.908936 63.2272 -8.790782
29.658768 62.998085 -8.398303
29.47496 62.638145 -7.3987904
29.285904 62.65328 -7.0463395
30.08051 62.6903 -2.266761
29.839493 62.79012 -1.1577331
29.97617 62.564632 -0.6549601
30.018862 62.95122 -0.09339951
29.271297 63.025967 8.004676
29.839323 62.840954 12.776741
29.32597 63.155083 14.420863
29.029684 62.807484 15.554115
29.292103 62.739426 17.407875
[...]
POINT_DATA 1405
SCALARS features_00 float 1
LOOKUP_TABLE default
0.7109536 0.79004276 0.753229 0.7330898 0.8205378 0.8172833 0.78583044 0.6744902 0.8050395 0.76687396 0.72784114 0.6410017 0.7181204 0.6663004 0.73299265 0.71838486 0.6837188 0.6267369 0.7796132 0.749084 0.69179976 0.6314272 0.50771654 0.80556107 0.810015 0.5719668 0.78973365 0.78813046 0.5371399 0.3963276 0.3287585 0.68683946 0.68168455 0.6244279 0.5601971 0.61535925 0.5919076 0.696682 0.683996 0.5827181 0.6978218 0.73249215 0.39066195 0.75319 0.32773423 0.35172194 0.7559056 0.342882 0.4043018 0.65768754 0.34559938 0.29604015 0.62454975 0.5944345 0.5232855 0.60063356 0.56987125 0.50391984 0.2991776 0.5711115 0.33758074 0.31574664 0.5674913 0.41226038 0.5840515 0.31407142 0.4629295 0.48249024 0.65378225 0.27537408 0.22066534 0.26995996 0.48211607 0.48030317 0.5307216 0.5341517 0.6329733 0.39785725 0.45963207 0.53390145 0.5694039 0.5566181 0.6275748 0.61596483 0.57331634 0.53972733 0.44422695 0.5160439 0.58107793 0.07631427 0.4577468 0.23697963 0.12280884 0.22962451 0.2531742 0.329604 0.2369025 0.27016324 0.29520947 0.33615196 0.2751554 0.35203713 0.434116 0.4601194 0.5662241 0.509181 0.59406143 0.6191214 0.4052531 0.18602373 0.543015 0.59737384 0.5263707 0.51383066 0.19655865 0.31882244 0.39667928 0.58122045 0.4114011 0.4724089 0.09017195 0.061239954 0.10529054 0.18926023 0.2354514 0.31011483 0.3576885 0.057917893 0.33812207 0.1697357 0.029586196 0.43009135 0.47982934 0.5776179 0.48974586 0.19681287 -0.0104249865 0.39365473 0.3140515 0.5506357 0.43495655 0.34644946 0.3428368 0.36558956 0.5076257 0.2341048 0.25396532 0.737399 0.7794703 0.7098017 0.77635336 0.7241217 0.14746125 0.07280984 0.2532894 0.2885267 0.33575907 0.38862473 0.67552245 0.64267683 0.58589435 0.121235706 0.13660982 0.30022937 0.39369464 0.3822986 0.6891487 0.64437556 0.6095673 0.4794051 0.53929806 0.30169025 0.3875624 0.17019089 0.11580743 0.419375 0.23145473 0.35445988 0.27977878 0.113852054 0.34009403 0.34882337 0.15308473 0.4476424 0.49023187 0.48506832 0.42668164 0.38144895 -0.15620993 -0.15006286 -0.058645528 0.4346708 0.4822905 0.49666038 0.4859709 0.38983163 0.3063913 0.4935733 0.47612053 0.44313148 0.26082638 0.7593323 0.8258398 0.8672644 0.14596444 0.64310527 0.73466927 0.80501264 0.8675812 0.15454265 0.15516785 0.23631744 0.20841348 0.7572547 0.7802875 0.8619507 0.16184045 0.184559 0.20831527 0.22388163 0.21114585 0.49881315 0.6605098 0.7175834 0.7709745 0.21473831 0.41389215 0.3529474 0.31732368 0.67418885 0.6399354 0.5727615 0.17930794 0.21122614 0.07860427 0.21153799 0.29493538 0.39647818 0.44611317 0.715788 0.69643486 0.6539746 0.5944772 0.53142715 0.30153263 0.15153271 0.12004296 0.42796558 0.40173662 0.70994055 0.68770957 0.25470427 0.36948586 0.17849602 0.6589308 0.6768508 0.14961994 0.11715588 0.13863647 0.43092096 0.5617876 0.5907254 0.42399207 0.20050144 0.2680566 0.2758528 0.37197626 0.37547678 0.3862993 0.4591384 0.32831272 0.35667282 0.37443727 0.3229939 0.13640031 0.4520347 0.35637504 0.37428313 0.3593443 0.297697 0.08909645 0.055940546 -0.025876775 -0.23892301 -0.13835181 0.35666943 0.23652238 0.27616578 0.31147084 0.33209288 -0.07924542 0.003723001 0.29667616 0.35473743 0.76623863 0.46862787 0.48348194 0.46629584 0.4237769 0.32445157 0.28619182 0.15110852 0.33751956 0.85916746 0.92102396 0.45059663 0.4731855 0.4738654 0.361885 0.9652649 0.120599434 0.11832376 0.98153794 0.14240476 0.16417296 0.18382199 0.6849066 0.80048597 0.8553339 0.2719002 0.372003 0.6728982 0.32495978 0.5250807 0.50810075 0.47166216 0.4677297 0.4500777 0.5020982 0.45271623 0.42885804 0.676155 0.6795279 0.6100301 0.57173544 0.28817257 0.4134388 0.46391487 0.47516882 0.19303373 0.17848293 0.14107877 0.32777703 0.48953432 0.6936742 0.36864585 0.264323 0.022913411 0.29219964 0.38524348 0.43765968 0.2704981 0.48312348 0.46055344 0.66350526 0.033340417 0.069512166 0.31477338 0.27876717 0.31331733 0.19529164 0.35699302 0.6165528 0.59281594 0.07171842 0.20852849 0.097400576 0.47114795 0.47552028 0.20598474 0.29109797 0.047062736 -0.18393943 -0.07206725 -0.004497165 0.23442449 0.3362427 0.6854768 0.41830572 0.20680323 0.22176571 0.25429147 0.28215393 0.8306725 0.90718114 0.44253528 0.27317384 0.21653527 0.0662689 0.95064205 0.1663983 0.98401505 0.7592132 0.89657533 0.4637003 0.41546845 0.35062325 0.35341275 0.35839364 0.33361328 0.4700632 0.46201345 0.43686414 0.40088093 0.54286975 0.5634328 0.5295042 0.48415902 0.23249166 0.20835039 0.35718036 0.4166398 0.46615574 0.4842425 0.4875237 0.44959196 0.39571452 0.51277006 0.06891999 0.067015 0.23329642 0.43893808 0.51440686 0.5334847 0.58615726 0.4360971 0.21248649 -0.07747429 -0.09274462 0.6038634 0.5486441 0.46628904 0.048296392 -0.11211228 0.07525496 0.26055074 0.06194821 0.23011395 0.30519277 0.5477299 0.66060686 0.71107876 0.33696312 0.22259359 0.2515152 0.1556815 0.7478032 0.79418516 0.35418874 -0.024800902 0.16565253 0.1820288 0.33047226 0.22673118 -0.0061914623 0.7544644 0.7954259 0.13626616 0.06621031 0.114627324 0.16105232 0.5506996 0.5073424 0.41947693 0.41700906 -0.03795983 0.15522069 0.7890495 0.34504056 0.44468084 0.3374695 0.29705524 0.5873412 0.55422235 0.51663893 0.50467527 0.15705648 0.46791255 0.47081563 0.39310852 0.30649173 0.592879 0.59013265 0.5738818 0.3578171 0.55343497 0.5255738 0.5200558 0.33390447 0.4183233 0.34590876 0.27426982 0.5616385 0.5485844 0.46793753 0.51481605 0.52641165 0.50536764 0.4503819 0.58446354 0.5982479 0.6107495 0.48094785 0.45393106 0.3622666 0.38531065 0.31613794 0.5824169 0.56919897 0.5147328 0.3841353 0.2475936 0.39229846 0.4321968 0.40454477 0.5650577 0.38060445 0.5202404 0.33356315 0.49382177 0.5325464 0.5358406 0.5325839 0.4315046 -0.11694942 -0.13659376 -0.13029425 -0.09509813 0.5308598 0.44521296 0.4117142 0.331983 0.3092992 0.26543394 0.115870655 0.10581331 0.28625447 0.5642431 0.66148335 0.67126405 0.6971977 0.18504308 0.16250269 -0.08784304 0.7143349 0.17048761 0.17840962 0.56104773 0.07693997 0.6264644 0.6744232 0.08311039 0.11895731 0.602224 0.55005944 0.52461195 0.53368396 0.23750284 0.60949975 0.6292756 0.64220417 0.6389185 0.60426056 0.30251038 0.31229317 0.26195443 0.6193593 0.335656 0.3209047 0.2912095 0.6625296 0.66674554 0.6614936 0.25222495 0.6204647 0.57471335 0.37132606 0.33385202 0.31827483 0.46040916 0.53527987 0.60135674 0.62597364 0.58749986 0.5564642 0.44980624 0.6868149 0.7413766 0.74779385 0.7062113 0.673115 0.67437905 0.61277264 0.58644813 0.6100353 0.561628 0.49800044 0.5092162 0.3580571 0.18910354 0.25383893 0.29291221 0.2814603 0.30426568 0.34511012 0.22808722 0.2398527 0.21757466 0.43435848 0.4564221 0.5445465 0.5518785 -0.16877629 -0.1802266 -0.08554048 0.2181231 0.29376793 0.4818877 0.3007658 0.3282298 0.2603087 0.36813155 0.21910122 0.19802478 0.1752776 0.36257482 0.14762895 -0.14425682 0.2886582 0.57935375 0.63564616 -0.20646474 0.6552741 0.18411967 0.20298241 0.44346362 0.112203285 0.14728558 0.5813095 0.594988 0.4787878 0.4619856 0.24264596 0.14855836 0.6435088 0.64564514 0.3478865 0.36427313 0.6618959 0.67871886 0.68483835 0.6848589 0.66829765 0.36289993 0.34205097 0.32270592 0.31725308 0.4383856 0.7110965 0.32759297 0.30492395 0.32369694 0.62310624 0.5533685 0.7129257 0.6795754 0.44172582 0.35608566 0.7017646 0.75545835 0.7631029 0.73844445 0.6871095 0.61076254 0.5886291 0.77019715 0.77283907 0.7091938 0.71172523 0.68547237 0.6129092 0.5779429 0.65098697 0.54028267 0.40109968 0.5219294 0.5324616 0.35761586 0.36415142 0.36691695 0.39519513 0.1813277 0.07314914 0.3261212 0.33008036 0.30219454 0.26394188 -0.34101707 0.02913931 -0.040115703 0.42723477 0.1969581 0.29725212 0.38194394 0.5344894 0.17110029 0.08937904 0.24440867 0.18885338 0.22605534 0.14243317 0.07448098 0.39672217 0.04396765 0.3014035 0.41368112 0.21042821 0.32603052 0.5394235 0.15437984 0.18898977 0.39523286 0.6211109 0.2479404 0.6656144 0.668437 0.6725045 0.37475386 0.33215716 0.33153886 0.44169772 0.7397711 0.69932795 0.28198537 0.329576 0.5953077 0.5829456 0.46818453 0.75928795 0.3863182 0.3598033 0.6838652 0.7167573 0.73486674 0.68998444 0.7271407 0.6877567 0.6874416 0.68178 0.54464245 0.75875086 0.71980834 0.7359144 0.70877194 0.6669009 0.5787319 0.605094 0.55071294 0.36519843 0.39844093 0.43308312 0.44161576 0.40716138 0.49749428 0.04431072 0.029491276 0.38012397 0.4533031 0.42500108 0.37933594 0.23782516 0.17408049 0.21194935 -0.043915316 0.1552231 -0.24778402 0.024543919 0.16660178 0.16039893 0.23296416 0.39107075 0.38525367 0.041543502 0.36986387 0.34995076 -0.13141885 0.20807537 0.39880368 -0.013574362 0.41666406 0.29496598 0.17772685 0.42871243 0.5595054 0.4899612 0.1603883 0.14568835 0.23796721 0.57903796 0.37095195 0.26432508 0.09452405 0.17603526 0.29019034 0.30972582 0.4728112 0.6636886 0.6132516 0.58764875 0.590302 0.35626674 0.33671492 0.290456 0.39897645 0.50236076 0.47372252 0.75642234 0.3556981 0.40835232 0.52019244 0.5203804 0.54706764 0.7888832 0.6478926 0.7553619 0.7585045 0.7188866 0.707845 0.75449914 0.7674631 0.7013627 0.71096635 0.69935673 0.6250854 0.67376983 0.6542857 0.6377485 0.46438402 0.43602377 0.5631082 0.57302046 0.5129585 0.50848204 0.46035343 0.46604353 0.46241352 0.43486524 0.40024704 0.48373654 0.13529857 0.4428891 0.50051546 0.5306605 0.5686346 -0.17376092 -0.0024839938 0.52113277 0.51073694 0.26051715 0.0479542 0.15635416 0.13305092 0.19962552 0.23891565 0.31664628 0.37247944 0.24864532 0.3452626 0.37606162 0.34419316 0.36692864 -0.014192255 0.33610204 0.00830834 0.2632271 0.41669077 0.35908484 0.41464567 0.4367299 0.43604892 0.36178717 0.23891895 0.461865 0.45891815 0.48166788 0.31184256 0.2821434 0.099905446 0.15760154 0.27495515 0.21780466 0.40729374 0.5074414 0.6103044 0.08189299 0.3280849 0.43567708 0.5188151 0.09178704 0.20410573 0.2524701 0.26729345 0.33541623 0.2700778 0.4010166 0.5441053 0.6646091 0.44978142 0.5359364 0.56186175 0.56124204 0.45836902 0.49628913 0.51194066 0.7680341 0.46565244 0.8056617 0.7097889 0.8138287 0.8029788 0.80802524 0.79821175 0.7780824 0.7958679 0.7980185 0.61219275 0.6465496 0.6146158 0.4512282 0.5883063 0.533618 0.5187075 0.45666385 0.42661828 0.3587491 0.36232862 0.47625807 0.49729097 0.34312725 0.38206485 0.42730176 0.12534603 0.20292358 0.5061136 0.55105585 0.60247004 0.6273042 0.1248132 -0.37093133 -0.38102633 -0.10637073 0.611795 0.20964451 0.560011 0.22529872 0.55669326 0.33984256 0.17726439 0.3260132 0.24987316 0.28993666 0.25087398 -0.26647574 0.31746677 0.326157 0.12703785 0.43984 0.44688207 0.13912164 0.12680717 0.21550094 0.28513074 0.46013093 0.45770806 0.46037608 -0.08639307 0.47394502 0.08951613 0.12125872 0.17218535 0.23200223 0.25765005 0.5084448 0.5034927 0.34936136 0.0046463087 -0.01688078 0.3653899 0.54559517 0.5417846 0.45163333 0.47409838 0.49951875 0.76034534 0.73889554 0.52401525 0.5732244 0.593226 0.57968223 0.47368383 0.48601604 0.80109966 0.6827862 0.82687104 0.8088104 0.7722182 0.812935 0.8130957 0.808616 0.7885251 0.38763726 0.3945593 0.3714741 0.3519171 0.24878353 0.20284195 0.42542338 0.6014184 0.6305686 0.1442737 -0.11835136 0.53546786 0.63727635 0.24852598 0.6218215 0.6339276 0.30462992 0.33173248 0.3467422 0.4066149 0.32841367 0.29038185 0.21185166 0.21905926 0.32927814 -0.008862466 0.30965889 0.32536906 0.08591909 0.25067818 0.31015646 0.18647091 0.0825766 0.12972835 0.09857896 0.0023255348 0.05781981 -0.05916919 0.1390205 0.33258164 0.45869163 0.69105506 0.52762973 0.58382976 0.60636735 0.5958596 0.5523019 0.77798045 0.7652581 0.7486828 0.59433025 0.60060835 0.7941696 0.7903304 0.7756223 0.8085586 0.8036072 0.798756 0.26288325 0.37127048 0.29725197 0.17409714 0.20538792 0.036580063 0.41666615 0.32423413 0.16198204 0.21708651 0.45648867 0.594525 0.55862427 0.32099167 0.3458835 0.35621423 0.27648288 0.49917397 0.6213943 0.27483243 0.18883769 0.13116626 0.17418057 0.067160726 0.17646548 0.16029264 -0.14411281 0.23794913 0.17772272 0.07013233 0.06379029 0.064212374 0.34098783 0.51824546 0.4943462 0.4404623 0.5369002 0.57747245 0.59048355 0.5771116 0.33810696 0.46412784 0.28055388 0.2669574 0.28909427 0.32298598 0.43604192 0.27479735 0.25479314 0.28106254 0.32718825 0.704422 0.74080026 0.70795846 0.7492417 0.21480155 0.7720948 0.22685136 0.22298318 0.82502913 0.25461692 0.694723 0.38494998 0.3649044 0.5411047 0.32635224 0.026945222 0.16257131 0.3517173 0.18238147 0.055695757 0.29067296 0.012598261 0.20916301 0.24066305 0.46779507 0.3875959 0.5326774 0.5171831 0.4900992 0.4460242 0.5501559 0.4319176 0.39365444 0.49495566 0.5344383 0.5465299 0.51962775 0.42139548 0.45721173 0.4423917 0.39784706 0.36857444 0.36238903 0.37676644 0.4651626 0.40838134 0.3263261 0.41147777 0.24929665 0.2860348 0.34365645 0.6799793 0.71088386 0.25753284 0.012137098 0.7817019 0.25174707 0.07221695 -0.007661298 0.81566733 -0.10072429 0.81563866 0.8525058 0.39697278 0.84660816 0.8429609 0.41847867 -0.13039467 0.6971741 0.7870217 0.43232292 0.033687368 0.15704489 0.26465636 0.1903969 0.45105946 0.4682672 0.63130116 0.4649219 0.19181973 0.28530505 0.3151263 0.27014208 0.46497887 0.52891636 0.29356554 0.4973207 0.23570979 0.35448167 0.34441906 0.37125343 0.3449681 0.29222488 0.3660089 0.41945064 0.48148453 0.55253 0.4543172 0.45975137 0.45757085 0.40234396 0.44395572 0.49672925 0.52976966 0.46345645 0.36260098 0.43245614 0.48300743 0.476576 0.37369892 0.41487122 0.4091503 0.24423227 0.29188243 0.3002436 0.69318235 0.72054195 0.6910753 0.73861337 0.78077906 0.16376403 0.19402239 0.2255595 0.3356716 0.82160974 0.8448159 0.43654138 0.39829314 0.1900846 -0.08746185 0.4777941 0.84486467 0.43037188 0.090469055 0.21753272 0.18498346 0.14882925 0.025517456 0.46156114 0.5494053 0.7573277 0.8319908 0.5215474 0.15060282 0.12830466 0.517868 0.6489202 0.71973836 0.8015785 0.57642573 0.26307827 0.60829794 0.59519684 0.3154918 0.34033713 0.56862724 0.6112117 0.60664856 0.5160101 0.39656034 0.39975768 0.53642374 0.54645324 0.5962414 0.47918627 0.48061007 0.4036768 0.2201028 0.33874488 0.4394387 0.45442152 0.4207722 0.3339137 0.21252894 0.15490274 0.17860472 0.33558002 0.34703726 0.3636756 0.35489717 0.40618157 0.3440532 0.25717956 0.18290094 0.20578508 0.29708984 0.30990016 0.34363297 0.32153898 0.18460904 0.22491236 0.27672952 0.29493654 0.7099986 0.73607546 0.21511078 0.04390906 0.24820551 0.15427838 0.22634533 0.27312616 0.28011036 0.26991874 0.6712315 0.75265956 0.79817474 0.52845263 0.49606073 0.17120859 0.24627468 0.25929368 0.25603536 0.23476994 0.62997687 0.7429528 0.79974353 0.8177917 0.5504313 0.5950717 0.24024174 0.5980724 0.6524313 0.7686403 0.8164258 0.5898832 0.62040246 0.14206602 0.6938689 0.60406816 0.634182 0.61861765 0.24413055 0.61601585 0.60293597 0.5168481 0.45004898 0.51885325 0.6019852 0.6209302 0.6108055 0.5645765 0.46960908 0.54170597 0.5686604 0.21432644 0.20184803 0.24132225 0.25157815 0.23583768 0.18358041 0.29360142 0.23422942 0.19379073 0.5785823 0.27248117 0.32253385 0.29120588 0.18709534 0.6470047 0.6407552 0.5351171 0.21910203 0.35469878 0.3115463 0.24187791 0.6532782 0.64524543 0.6150142 0.49230817 0.46772468 0.41912252 0.64077437 0.6227654 0.56029487 0.4881129 0.44326872 0.51611567 0.5429809 0.5163305 0.60874 0.5814169 0.46477032 0.54030347 0.5638237 0.5836663 0.54926896
SCALARS features_01 float 1
LOOKUP_TABLE default