# vtk DataFile Version 2.0
Really cool data
ASCII
DATASET POLYDATA
POINTS 1504 float
26.259743 64.11072 -5.8395705
26.315918 63.892315 -5.443404
26.355 63.70524 -4.8663054
26.220488 64.74617 -5.9061065
26.09736 64.70732 -5.5677867
26.052876 64.65129 -4.7212324
26.370008 64.83254 -3.9517426
26.24365 65.174416 -5.926256
26.156069 65.31071 -5.3834615
26.134508 65.26901 -4.585211
26.374016 65.869125 -5.110166
26.32961 68.05774 3.9899588
26.423456 68.09491 4.6218915
26.31324 68.54354 3.828286
26.346302 68.50554 4.3485866
26.353828 69.15878 3.818161
26.343494 69.14353 4.437713
26.406029 69.12436 4.9097514
27.123621 63.306553 -6.2080355
27.055521 63.02068 -5.507501
26.991985 63.05709 -4.8075223
27.126156 64.00685 -6.7296114
26.750513 63.72845 -6.124797
26.629852 63.432365 -5.423267
26.594906 63.52936 -4.5773015
26.829502 63.914246 -3.6670823
27.213385 64.0298 -2.7085533
27.11281 64.60749 -6.862551
26.60523 64.535965 -6.4286895
26.701752 65.35362 -6.341919
26.542892 65.096985 -3.5164618
26.873228 65.19973 -2.689565
27.152855 65.15745 -1.8987329
27.423687 65.84771 -0.6738029
26.61458 66.25077 -5.3082957
26.944056 66.29041 -3.440232
27.10151 66.29153 -2.6110535
27.29082 65.97015 -1.4413804
27.175465 67.208115 4.4215817
27.186098 67.07072 -5.38587
27.338587 67.48064 -4.273376
27.158478 67.074814 -4.115025
27.26292 67.578445 2.976371
26.653833 67.78444 3.6054754
26.6966 67.77242 4.563419
26.997 67.70028 5.136633
26.910152 68.5741 2.7652025
26.467373 68.37007 3.3614511
26.737375 68.543304 5.2886753
27.138935 68.62848 5.7358193
26.989042 69.43373 2.9755309
26.564367 69.31568 3.47898
26.553476 69.72722 4.3944144
26.748674 69.33394 5.3029227
27.09134 69.04978 5.7594295
27.12941 69.91673 3.1370056
27.06343 69.99624 3.585185
26.854305 70.08542 4.4945545
26.963528 70.15737 4.9841833
27.601131 63.175716 -6.13472
27.564577 62.876495 -5.464988
27.6017 62.733006 -4.9713364
27.509415 63.08809 -3.875829
27.510712 64.02243 -6.895369
27.945887 63.596275 -6.6306005
27.367037 63.597103 -3.1274142
27.86702 63.808983 -2.0234935
27.525524 64.49987 -7.011191
27.446878 64.56383 -1.5634301
27.736792 64.93151 -0.29419625
27.389334 65.17723 -7.0013714
27.488882 65.40525 -0.50582534
27.780949 65.77642 0.47013015
28.023756 66.6595 -6.6552186
27.557669 66.39867 -1.6016074
28.206404 66.62689 3.105951
27.608767 66.96085 4.1875057
27.697256 67.254425 5.166171
27.481916 67.62931 -5.291369
27.477535 67.19244 -3.560088
27.921247 67.88519 1.939553
27.510717 68.05731 2.4361007
27.402477 67.580475 5.3932924
27.699743 68.00791 5.906949
28.034346 67.7208 -5.9305644
27.732332 67.84726 -5.2274084
27.75986 67.892784 -4.540168
27.7025 67.80373 -4.122111
28.039776 68.37917 1.6511859
27.614426 68.69294 5.9767876
27.749466 69.200775 2.0009863
27.304344 69.5065 5.729395
27.611614 70.36721 3.1563814
27.556555 70.28226 3.4297857
27.35153 70.52468 4.8137712
27.378107 70.229904 5.252038
27.919283 70.08824 5.713956
28.071245 70.842766 3.739821
27.393854 70.571556 4.818144
27.807667 70.604164 5.1385326
28.172596 63.096493 -6.033549
28.104837 62.712055 -5.334978
28.165306 62.783154 -4.5861425
28.86322 62.94835 -3.9945598
28.856386 63.15554 -2.4057453
28.536026 63.549793 -6.4292507
28.25597 64.23992 -0.87387973
28.535656 64.43983 -7.0052967
28.402884 64.94955 0.9555967
29.03313 65.18393 2.6574845
29.28115 65.04041 2.8230853
28.224957 65.41706 -7.0505652
28.600231 65.30995 1.6384914
28.791292 66.32246 4.183278
28.415257 66.32689 -6.8671722
28.555641 66.92539 5.0554676
28.704575 67.15742 -6.7243643
28.81208 67.45826 -6.5674243
28.43448 68.06961 6.0536947
28.75627 67.90623 -6.079349
28.362411 68.041756 -5.5119534
28.553757 68.22392 -4.639605
28.660944 67.860245 -3.5181217
28.92021 67.55458 -2.280447
29.050667 67.778305 -1.9828593
28.866226 68.02809 0.1940365
28.331825 68.19006 6.079888
28.60987 69.51547 5.92156
28.576744 70.21347 1.9832733
28.403873 69.83625 5.748671
28.603498 71.11383 3.4954557
29.252296 71.86741 3.5584428
29.39143 72.22282 4.706453
29.318909 72.45889 6.359235
29.412592 73.0901 6.2855897
29.091856 62.93914 -4.3454986
29.262709 63.03687 -3.3684108
29.425669 63.181805 -2.2615333
29.055702 63.50054 -5.965566
29.90833 63.56763 -0.899737
29.047659 64.95136 -6.8413954
29.572662 64.32244 -6.337156
29.033419 65.15764 -6.814001
29.363441 66.97384 -6.830545
29.806555 67.45322 -6.58606
29.30573 67.82188 -6.1276255
29.113811 68.22895 -5.317602
29.690481 68.25835 -4.5409517
29.834473 68.0384 -3.3598843
29.587315 67.866135 -0.8403156
29.117708 68.38016 5.944723
29.796387 69.0076 -0.21248052
29.509926 72.74886 4.4143653
29.60434 72.828026 8.510075
29.611721 73.007996 8.899083
29.716896 73.31848 4.5172253
29.556393 73.521065 7.626353
29.588396 73.56674 8.513167
29.896149 73.339676 9.285824
30.228933 73.138565 9.785607
30.308552 74.78575 -0.9634832
30.098276 74.76795 -0.2579707
29.636152 74.44397 6.494264
29.558392 74.528595 7.902155
29.585228 74.55854 8.269814
29.993126 74.53917 9.134438
30.275982 75.25969 -0.867108
30.141338 75.38034 -0.38859123
30.10871 75.47721 0.36667815
30.297731 75.666794 1.0122839
30.395836 75.542656 4.918466
29.897305 74.84964 5.728889
29.702778 75.42176 7.588436
29.804441 75.45819 8.408687
30.046087 75.44875 8.908147
30.333715 75.85657 -0.4359844
30.27269 75.946526 0.36346397
30.18368 76.35561 6.940101
30.170109 76.34342 7.5549364
30.014462 76.049194 8.3432255
30.30715 63.40166 -1.4194489
31.134584 63.106174 1.7165388
31.112656 63.101 2.3575158
31.110182 63.150986 3.0425072
30.907042 64.07342 -5.3357835
30.97598 63.591885 1.0315919
30.96404 64.15781 3.6709902
30.635782 64.37178 -6.07911
29.999529 65.953575 -6.7364635
30.042925 66.389786 -6.8411136
30.300133 67.21479 -6.4376383
30.934162 67.84157 5.9270487
30.51936 68.08363 -4.3282876
30.136587 68.18814 -3.767972
30.676193 69.00885 6.475793
30.997404 70.04299 7.5651784
30.539783 69.6282 0.36391783
31.17356 70.50174 9.489792
31.183907 70.879295 10.116377
31.19694 72.20587 -19.275097
31.256723 72.145096 -18.547073
30.732359 71.33823 9.603648
30.749594 71.86831 9.943925
31.267265 72.7187 -19.915104
31.015406 72.69772 -19.428247
30.924498 72.65399 -18.512625
31.120731 72.59369 -17.766884
30.997698 72.44431 10.396326
31.12343 73.3084 -19.818205
30.806957 73.398476 -19.16047
30.691896 73.5005 -18.407867
30.966154 73.47144 -17.674759
30.56742 74.08916 -0.8717698
30.527643 73.82629 -0.31128487
30.789845 73.807014 1.3896104
30.707191 73.38937 10.176295
30.979162 74.070404 -19.293045
30.794924 74.131485 -18.671597
30.9762 74.22743 -17.831669
30.660715 74.71747 -1.2951555
30.852472 74.44491 3.0031865
30.683002 73.959885 3.7945676
30.916445 74.138535 10.169162
31.333488 75.28579 -18.142155
31.224926 74.8969 -17.690914
30.540318 75.65639 -0.9281617
30.455826 75.58655 1.3778731
30.691504 75.36862 3.840217
30.616367 75.42123 9.321082
31.099394 75.18971 9.621383
30.829628 76.19074 -0.84001434
30.731901 76.396965 -0.40603888
30.686487 76.476036 0.34632522
31.055086 76.31767 1.2816854
30.991365 76.36443 3.7978833
30.700914 76.27236 4.2830887
30.482044 76.49103 8.39813
30.66896 76.217384 8.92917
31.031223 76.73657 -0.15658467
31.07522 76.81033 0.17716461
31.11751 77.009705 4.041657
31.113625 77.53904 4.479592
30.943123 77.3629 5.5267816
30.827038 77.17071 6.3772216
30.863523 77.11238 7.398523
30.816189 76.764915 8.2536125
31.36529 77.919495 4.656569
31.254475 77.762474 6.03968
31.979856 63.1025 -4.4652905
31.711351 63.077667 -3.8348644
31.44225 62.847557 -2.41171
31.92935 63.06323 0.92528063
31.592415 62.887104 1.6682372
31.598198 62.791027 2.3307917
31.72527 63.08446 3.5616
32.106625 63.92597 5.2758284
32.02754 64.39568 5.5325923
32.23211 64.36563 5.6708307
32.088417 65.19466 5.722896
31.822512 66.677536 -7.2706757
32.240704 66.99847 -8.857211
32.29001 67.54332 -8.633238
31.216305 67.6107 -6.288655
31.885849 68.17365 -6.0480833
32.034218 68.0348 -4.0507
32.175392 68.837875 -5.916577
32.08164 69.85286 9.247748
31.74242 70.08014 9.788849
32.208958 69.99215 -1.5183014
32.06338 70.35344 -0.79585207
31.429049 70.381454 1.0342804
31.692917 70.70748 10.297213
31.690664 72.22427 -19.86323
31.564386 72.0447 -19.463917
31.602894 71.788734 -18.715235
31.907349 71.62311 -17.993391
32.30016 71.52932 -15.01502
31.578379 71.34926 10.51099
31.434372 71.74011 10.655825
31.624004 72.73755 -20.172863
32.399387 72.19611 -14.726081
31.54371 72.82991 10.880845
31.487362 73.24513 -20.15003
31.783005 73.458084 -16.84825
31.546692 73.44463 -0.72348076
31.670517 73.481964 10.8474865
31.794102 74.1831 -20.193628
32.27927 74.928215 -11.778693
32.164906 74.7754 -11.371927
32.04244 74.73116 -10.509301
32.009796 74.94422 -9.69006
31.723063 74.74005 -1.6068609
32.032608 74.45376 10.412712
31.822447 74.07613 10.645795
31.846752 74.91468 -19.84122
31.710686 75.26156 -19.466745
31.986973 75.398605 -16.851149
31.911434 75.63106 -11.335939
31.76317 75.567474 -10.25251
31.866982 75.673904 -9.63628
31.219881 75.185555 -1.5958459
31.158949 75.725624 9.358367
31.810745 76.21234 -18.372194
31.924528 76.28793 -17.54468
32.082836 75.85369 -16.841183
32.044144 76.47951 -11.2979555
31.843864 76.4788 -10.311547
31.961226 76.22451 -9.567913
31.482944 76.10423 -1.218385
31.193968 76.27541 9.021935
32.266624 76.72666 -18.219809
32.40188 77.164474 -11.984582
32.249638 77.508675 -11.265484
32.186 77.40663 -10.78974
32.15879 76.91919 -9.819665
31.465246 76.78624 -0.37980008
31.416979 76.887314 0.30767298
31.966248 76.90093 1.0248506
31.348503 77.438644 7.5631146
31.519554 77.09222 8.13609
32.385803 77.907684 -11.028242
32.39569 78.03801 -10.789526
31.920229 78.07274 3.6711538
31.668064 78.1416 4.395161
31.728483 78.157166 5.546013
31.821312 78.127525 6.406888
31.82729 77.88773 7.144423
33.206093 62.28524 -4.282121
33.18902 62.126507 -3.421012
32.527493 62.97081 -4.792504
32.875847 62.51269 -4.0811
32.513462 63.21682 -1.4564137
32.465347 62.661755 1.9871497
32.615387 62.562416 2.3690255
32.39176 63.246986 4.635429
32.86522 63.245647 5.016669
32.832096 64.17825 -6.628478
32.27157 63.39767 -5.447973
32.116215 63.662136 -0.5694057
32.5927 63.706787 5.5388694
[...]
POINT_DATA 1504
SCALARS features_00 float 1
LOOKUP_TABLE default
0.7478441 0.74537385 0.727775 0.7334427 0.72439325 0.692364 0.60652035 0.71557915 0.6942686 0.6520798 0.6416248 0.75736624 0.77666473 0.75818723 0.78377104 0.75423104 0.7881453 0.79760635 0.7629578 0.7504628 0.7221286 0.7652503 0.7629777 0.75326127 0.71316224 0.6009082 0.45699686 0.75693107 0.7488783 0.71888566 0.52299076 0.41039395 0.35529393 0.29818678 0.6225287 0.4392013 0.3635161 0.32178423 0.6779841 0.5870375 0.52188706 0.4983407 0.6466667 0.72162235 0.7543644 0.7476665 0.63559324 0.7161555 0.7899512 0.7684401 0.63348126 0.7171184 0.76569265 0.7871016 0.76827693 0.6116866 0.6601067 0.7412594 0.7575065 0.75177145 0.73404783 0.7036363 0.6302041 0.76296264 0.7443392 0.5344678 0.40808073 0.7595295 0.34478095 0.29622203 0.7417809 0.31312847 0.25111365 0.61677897 0.32019278 0.41830957 0.6059013 0.6703341 0.5790986 0.45719695 0.46152496 0.5671982 0.72125924 0.7253087 0.61549366 0.58534336 0.5422919 0.511586 0.40072215 0.7339368 0.48524314 0.7511649 0.5169767 0.56315684 0.7130723 0.7486294 0.7156676 0.4640066 0.70655096 0.6852046 0.71586335 0.6930443 0.6366974 0.49718952 0.3867447 0.69147134 0.32442346 0.69687635 0.21938217 0.00096076727 0.005368769 0.670076 0.0702095 0.35350466 0.5710396 0.56705594 0.52896476 0.52951056 0.65516865 0.57235557 0.609694 0.5459459 0.392528 0.21607907 0.12696259 0.018764026 0.67371595 0.6586848 0.36669064 0.6790463 0.27621216 -0.021131143 0.032598913 0.2437543 0.24530877 0.48185462 0.34276175 0.2541553 0.5980075 0.10629 0.6087385 0.519957 0.59867215 0.48523772 0.4434754 0.51044464 0.5763718 0.4359991 0.29120252 -0.07778594 0.5418253 -0.011071682 0.0036528409 0.36655387 0.4189701 0.02958341 0.32329392 0.40262932 0.4600879 0.50664 0.6993643 0.6684198 0.29721397 0.42942104 0.46044573 0.50348055 0.69429946 0.6740099 0.63552815 0.59147084 0.18696277 0.20387745 0.4874446 0.5425066 0.54846835 0.66918564 0.6350563 0.4442488 0.49864602 0.5415341 0.06305185 0.30703005 0.35488123 0.39058954 0.11758197 0.16140215 0.367362 0.30695558 0.46986485 0.43021226 0.37965664 0.08211506 0.21237692 0.27143234 0.07190532 0.30622077 0.018524792 0.55240667 0.58488566 0.6569127 0.63595796 0.5118077 0.53706366 0.68489635 0.6871966 0.68750894 0.66764617 0.58135796 0.7023378 0.7087027 0.698323 0.6430049 0.68425864 0.66324806 0.46238285 0.54500186 0.69943565 0.679183 0.5768029 0.701993 -0.019707836 0.019885784 0.5066752 0.53993225 0.4930874 0.68732417 0.5358536 0.10379833 0.5131743 0.45642447 0.6682069 0.64908546 0.6196644 0.5389462 0.22533849 0.2557428 0.5202122 0.51876754 0.6168552 0.600405 0.38228393 0.46195272 0.41106352 0.40661716 0.451617 0.49846292 0.4860545 0.42294908 0.1611086 0.18324533 0.17363457 0.21398039 0.32242402 0.37951225 0.4527527 0.4508373 0.44008133 0.46868426 0.42216045 0.026998103 0.17987144 0.09719361 0.08515859 0.13137868 -0.107968405 0.17204058 0.59012413 0.6082121 -0.083973974 -0.16405143 -0.017549055 0.61766595 0.6462906 0.63417184 0.5856308 0.47049072 0.3057939 0.6150049 0.61304355 0.67183614 0.23838185 0.6417123 0.6879872 0.35838944 0.50194037 0.60424066 0.66245824 0.4523036 0.54337627 0.7150742 0.82988536 0.6921936 0.48547143 0.5434852 0.6316614 0.633414 0.352287 0.6338756 0.75592583 0.79806745 0.7127956 0.4568711 0.5497552 0.48740575 0.39520505 0.58693933 0.6579604 0.7394159 0.6834033 0.47555697 0.5567866 0.46172163 0.50628716 0.5438889 0.6511887 0.5884633 0.5655573 0.45341325 0.43962947 0.45530993 0.50568867 0.5129334 0.47282028 0.49644488 0.45791298 0.43599948 0.43166336 0.29545742 0.35216218 0.1745673 0.25489718 0.125173 0.39884317 0.45182225 0.47636583 0.53920984 0.0460408 0.08521716 -0.11105214 0.5027343 0.5301764 0.49868238 0.49123216 0.4681912 0.13914797 0.504109 0.4850429 0.45417202 0.33451128 0.23148859 0.5319179 0.37118143 0.27862376 0.515787 0.31237635 0.33050966 0.32228136 0.36074948 0.29551902 0.047433585 0.085030936 0.16829202 0.2787412 0.2944982 0.2874862 0.22930968 0.32621068 0.3582335 0.2741863 0.16058682 0.1341497 0.6408639 0.65265965 0.2655833 0.31985772 0.29335332 0.26801237 0.21001372 0.33080167 0.29258862 0.21252844 0.17325541 0.16597891 -0.10521696 0.6538607 0.6541765 0.60521173 0.5370482 0.4813429 0.14472854 0.14222378 -0.26147732 -0.14258805 0.673279 0.63291854 0.11877187 0.06483874 -0.17976758 0.69196784 0.57320106 0.092776716 0.13376948 -0.13868706 0.5466636 0.64580554 0.5360518 0.10943201 0.06324175 0.35427856 0.41757435 0.84628224 0.89100033 0.49402824 0.57025146 0.5270735 0.17470118 0.14502828 0.8208115 0.6463834 0.32263523 0.54170537 0.7435476 0.5013419 0.40705794 0.39418143 0.56447375 0.51680994 0.4320953 0.44228834 0.6294678 0.63730824 0.46344537 0.4103741 0.2748012 0.45784175 0.48105145 0.5286008 0.57071704 0.44527587 0.46455294 0.45284444 0.4707685 0.4407829 0.48491502 0.47809705 0.45993024 0.37470642 0.4697388 0.42003262 0.49133736 0.27663746 0.3612175 0.45750096 0.53477097 0.6978692 0.49440706 0.07897341 0.07688769 0.20364514 0.6837436 0.5077541 0.511685 0.50783587 0.39330548 0.59760237 0.64333946 0.48146936 0.48173517 0.58240265 0.66412723 0.45032975 0.23085412 0.2752683 0.18117711 0.28777474 0.26306218 0.20748976 0.135876 0.20782456 0.030536922 0.03784001 0.29473862 0.6497014 0.6694475 0.23856641 0.20994109 0.17828456 0.14684549 0.10143415 -0.17802306 0.6765603 0.67636794 0.3021424 -0.24699125 0.6808034 0.49639934 0.6549624 0.47051233 0.054668836 0.7948887 0.27751207 0.2422088 0.60422444 0.6378498 0.42281973 0.7171885 0.38649496 0.38480675 0.79015875 0.47677755 0.70195675 0.23632517 0.40331155 0.49268627 0.5232544 0.46714473 0.211772 0.56704146 0.33842432 0.28678536 0.5033443 0.5166856 0.5224961 0.5328098 0.5239284 0.2782742 0.41560325 0.4322607 0.5156126 0.50340307 0.47302914 0.49283308 0.50526255 0.50539577 0.46183395 0.45470527 0.48090014 0.50909555 0.52068555 0.51698494 0.47102076 0.49649364 0.4396115 0.46096504 0.5001694 0.4779113 0.36131826 0.45557112 0.47360253 0.48892152 0.5896417 0.7000004 0.7107244 0.52426565 0.4745192 0.17287236 0.22650443 0.29751617 0.7182307 0.72456354 0.5131289 0.51987827 0.7474164 0.4798386 0.76481944 0.7001239 0.6211336 0.12857279 0.25749952 0.19675168 0.08903681 0.47966152 0.6662593 0.2679285 0.14102381 0.030086517 0.029067814 0.24581304 0.5072913 0.61377454 0.6698268 0.39328015 0.15985772 0.07273877 -0.10084547 -0.022591043 0.031390656 0.6067239 0.65196466 0.6735002 -0.06406692 0.17513706 0.16412376 0.6118932 0.19228531 0.65158916 0.2206434 0.36849192 0.5071123 0.5792131 0.2187084 0.45469165 0.49577475 0.23593631 0.42521897 0.41742682 0.23187444 0.47500432 0.48786584 0.25057346 0.23805551 0.21675828 0.5277214 0.49906886 0.5083383 0.47237295 0.26167217 0.45476735 0.4503849 0.34713414 0.5362489 0.5523256 0.54537976 0.46956968 0.44085222 0.4745561 0.51529056 0.36603832 0.5254373 0.5372813 0.50600946 0.43039912 0.7352792 0.7706466 0.7754849 0.7316359 0.4845146 0.49700513 0.6904355 0.7517171 0.7409642 0.7086631 0.45075732 0.47724915 0.49298567 0.48926145 0.4579102 0.49821016 0.5906797 0.70578504 0.29324147 0.4323892 0.5277246 0.59569913 0.68195945 0.715786 0.43827057 -0.3293487 0.04634593 0.7195042 0.7382802 -0.12906307 0.7678082 0.74494684 -0.07609095 -0.16854799 0.23153082 0.15540409 -0.0010221377 0.40172666 0.02685552 0.45600644 -0.0054295324 0.30460748 0.40141416 0.5627888 0.4268502 0.3993315 0.19176134 0.12445741 0.40818572 0.3837455 0.7074077 0.24965975 0.24149582 0.5929105 0.28547558 0.441567 0.3574196 0.3294928 0.19270211 0.16098815 0.50967 0.4643955 0.4637007 0.21986513 0.54903907 0.5378841 0.48084325 0.49425268 0.39787257 0.1034078 0.4028789 0.52407724 0.5285648 0.55549634 0.56416124 0.1357538 0.39414895 0.3729521 0.50881636 0.23980622 0.41951483 0.51436985 0.46534526 0.41907114 0.7567234 0.7663585 0.77189016 0.71649516 0.7585112 0.7358248 0.6216663 0.51634777 0.5217458 0.4625282 0.48526686 0.4870561 0.59374315 0.45987642 0.23999399 0.23829463 0.6665011 0.6999231 0.20605025 -0.11955394 -0.015936581 0.5421152 0.6358476 0.6874422 0.7122915 0.059495926 -0.2598843 0.4599422 0.5328597 0.65145653 0.721192 -0.02463387 0.20634429 0.08717097 -0.12611142 0.21898037 0.016656931 0.015365858 0.26836106 0.2676471 0.37678123 0.37131557 0.24470517 0.4147994 0.4538284 -0.05142828 -0.18795046 -0.25065657 0.32413852 0.0050347494 0.04801027 0.31331044 0.15201414 0.35026124 0.18543282 0.15583718 0.37440884 0.23875716 0.17630908 0.42491806 0.4416089 0.20085485 0.25869468 0.16447647 0.16610712 0.51483357 0.48011047 0.37571335 0.48467988 0.5517777 0.5400633 0.3150786 0.32913718 0.54495245 0.5712442 0.32150373 0.32006806 0.36536345 0.44155037 0.3639925 0.34797817 0.751904 0.78891134 0.7979362 0.7599865 0.69454354 0.5792612 0.44815946 0.21379082 0.2590388 0.28400117 0.16184807 -0.05277569 0.65481764 0.6446053 0.5939077 0.27131918 0.64310837 0.5713872 -0.10583365 0.5822227 0.27626306 0.33875805 0.24760887 0.40681607 0.3874604 0.16760595 0.42956465 0.12111835 0.4579218 -0.076390445 -0.28889632 0.5037155 0.25127864 0.14218953 0.10631919 0.11676638 0.14623979 0.13015896 0.062368095 0.52300406 0.5630743 0.4844312 0.069752485 0.17239256 0.48623982 0.5498737 0.57355434 0.5248454 0.2821793 0.05642222 0.20789686 0.53517777 0.56120884 0.57655567 0.5615523 0.022872442 0.56361485 0.57518154 0.3863029 0.2550642 0.6622476 0.28786832 0.7468939 0.7598659 0.7091836 0.7837812 0.7523833 0.8036096 0.8093125 0.5743972 0.61703646 0.6689537 0.48577726 0.38871562 0.30276996 0.28886953 0.12877865 0.20334971 0.40409485 0.21878685 0.7677272 0.7177441 -0.051280234 0.7046359 0.7110792 0.6014621 0.1529873 0.7023125 0.6525781 0.30642113 0.50899535 0.13301605 0.33101255 0.32615727 0.3991474 0.37888595 0.13905695 0.43114537 0.44474524 0.09408679 0.1643354 0.15440813 0.38876244 0.33698016 0.002434954 0.13346347 0.15466683 0.19041014 0.12196254 0.15570855 0.24888873 -0.39727858 0.13831782 0.12058881 0.106965095 0.15651928 0.16030702 0.07869059 0.038017605 0.018063447 -0.01122828 0.20190695 0.2482087 0.6717322 0.43450385 0.33564937 0.76464725 0.7879547 0.62870216 0.5943154 0.8051953 0.8020841 0.75063986 0.740617 0.7881082 0.7829363 0.72928506 0.58053625 0.64490044 0.64540994 0.5298049 0.47398502 0.3705795 0.25869396 0.27225304 0.38240993 0.22431311 0.43887812 0.4147938 0.08029331 0.79299414 0.8025532 0.7895194 0.68882126 -0.013298593 0.28057474 0.40333605 0.74737 0.7634045 -0.1726879 -0.2597837 -0.22640762 0.6779133 0.4369502 0.5914795 0.37240654 0.39325136 0.14030853 0.3423148 0.104869016 0.37262017 0.12596887 0.38771123 0.15648866 0.14512232 0.34050918 0.06856081 0.20012158 0.110087305 0.12210783 0.118099526 0.15383603 0.15192063 0.22404617 0.07175185 0.11726175 0.16906196 0.14740402 0.06729425 0.0020880736 0.2918188 0.3593865 0.26712403 0.7165073 0.40179393 0.7680972 0.7982083 0.794538 0.6627903 0.56636083 0.4921779 0.81026834 0.7980037 0.7376052 0.72471917 0.7615278 0.7538593 0.57141155 0.6621063 0.73994756 0.7166592 0.63477147 0.46941286 0.47782242 0.4629983 0.39932173 0.21844755 0.40128416 0.4159568 0.23665372 0.14855355 0.40556008 0.4479238 0.42063627 0.08336564 0.40008408 0.295598 0.7650367 0.76370466 0.7423394 0.65592504 0.27269244 0.24220519 0.41369313 0.707135 0.74307555 -0.06429136 0.5208106 0.6849495 0.5418674 0.53051984 0.5172781 0.5146198 0.39550596 0.32893932 0.34145054 0.26480982 0.3136546 0.05508939 0.11686784 0.28569168 0.11712369 0.29412234 0.21947534 -0.116647035 0.19116648 0.20830685 0.17531002 0.14054945 0.13739769 0.16161919 0.14045358 0.039010867 0.16748163 0.28495482 0.35678518 0.6066987 0.3895635 0.37072945 0.7392287 0.48963886 0.77032983 0.74685025 0.627344 0.5555407 0.50484014 0.7343626 0.68063754 0.72048664 0.7214897 0.4787591 0.5615062 0.6612583 0.5953898 0.34254953 0.2396078 0.11775468 0.38258186 0.40155193 0.44180232 0.42969364 0.14346284 0.3027996 0.4198619 0.4343695 0.4090216 0.73213935 0.6896124 0.3125723 0.08447155 0.33190373 0.7040112 0.68568146 0.6913258 0.2019926 0.37039894 0.48088777 0.5416231 0.6518503 0.6173204 0.58791566 0.5689831 0.57251066 0.48966518 0.5552669 0.43026847 0.5192686 0.52982587 0.3564005 0.4825081 0.333785 0.27323171 0.3024463 0.38688666 0.2759825 0.17202656 0.1668418 0.16398261 -0.062002197 0.20362416 0.1815941 0.13011546 0.20448379 0.22103179 0.23073101 0.15630107 0.1711089 0.17626016 0.020712296 0.26102132 0.18987946 -0.013251863 0.34310672 0.55091107 0.37016988 0.374547 0.6012355 0.4575918 0.40503323 0.6527473 0.637563 0.56692976 0.5445451 0.6723573 0.62961215 0.5533937 0.26688913 0.08461472 0.3692614 0.34501418 0.33301792 0.42279828 0.4114241 -0.004637733 0.28719932 0.33883286 0.2615935 0.077052645 0.38685328 0.5207399 0.5726916 0.12356571 0.24590349 0.5626895 0.5810669 0.24730515 0.04766445 0.5753996 0.56740373 0.4096015 0.5632963 0.5605871 0.32249787 0.5407528 0.18248704 0.4452898 0.17455067 0.21258117 0.2616399 0.29198515 0.19093089 0.10198267 0.25640786 0.04397135 0.1896229 -0.00215761 0.25805885 0.3036412 0.33630154 0.34070584 0.4639855 0.49249786 0.48793656 0.4965645 0.10203782 0.057443913 0.50661385 0.43961343 0.4488026 0.3586898 0.27736846 0.21855822 0.20181839 0.18590097 0.4467883 0.5070862 0.51137733 0.16403294 0.53351927 0.5825099 0.5839095 0.5063657 0.5590893 0.5779916 0.34809542 0.4568057 0.52860016 0.2502189 0.26863256 0.3706687 0.3999619 0.39554027 0.24925391 0.18290174 0.19041833 0.23467931 0.37733018 0.34605756 0.33943638 0.34084702 0.29943848 0.34613362 0.32203746 0.26821628 0.18416053 0.08130862 0.0047388487 0.044633742 0.21143885 0.27181274 0.19287175 0.51263523 0.43432438 0.5002794 0.51239884 0.5114565 0.5096397 0.3034169 0.5022439 0.41134262 0.42761564 0.39672264 0.2269835 0.2949312 0.3194183 0.27548695 0.21555656 0.25079817 0.11731442 0.15781783 0.46379614 0.51777923 0.2526372 0.17377275 0.1415587 0.12166378 0.25152197 0.33233243 0.39073554 0.44475138 0.47230616 0.35272205 0.21596526 0.3010943 0.33293772 0.4109899 0.4576469 0.42867994 0.05093188 0.27013934 0.23146257 0.2844022 0.41816497 -0.40275407 0.3023127 0.3243664 0.3547662 0.3362432 0.2743245 0.43891513 0.44641662 0.037927926 0.31908035 0.35518602 0.41136146 0.43155074 0.10124743 0.37366444 0.2858673 0.03168528 0.041843247 0.53331727 0.5290679 0.537692 0.5176009 0.5041806 0.50215447 0.51030636 0.48245502 0.33274764 0.2969138 0.26954123 0.43902263 0.39654946 0.33078182 0.3724709 0.3195604 0.2607793 0.26621836 0.27708244 0.24548146 0.122882664 0.2134989 0.23799008 0.37091935 0.29866612 0.06624511 0.25808695 0.2719797 0.21332279 0.30995756 0.29203436 0.45207846 0.40621087 0.34466088 0.45252064 0.4187646 0.4189282 0.38500714 0.27687526 0.41884905 0.43452114 0.41605228 0.5358165 0.51284313 0.504174 0.47026074 0.38809913 0.41842127 0.4078098 0.09831567 0.34518355 0.356417 0.3593909 0.36073864 0.31101492 0.273543 0.20894095 0.21542639 0.2625831 0.16040918 0.1453788 -0.005019814 0.3100177 0.2775213 0.28437147 -0.018617747 0.4013801 0.31653643 -0.038079776 0.38073832 0.35239083 0.19500731 0.33093452 0.25966927 0.45731205 0.38824573 0.5815649 0.4759367 0.57126004 0.5936229 0.6019865 0.5117222 0.51331353 0.2211555 0.45449567 0.30189028 0.47285208 0.15302473 0.35332105 0.25841555 0.07087043 0.14958808 0.42758486 0.5258566 0.65316236 0.40341783 0.49825943 0.647334 0.6931438 0.5385679 0.5442647 0.59472513 0.66381824 0.7001852 0.536978 0.59317577 0.3749142 0.41628683 0.644777 0.45005852 0.3729523 0.44227093 0.3742177 0.36283338 0.53792477 0.7076517 0.69448626 0.59248304 0.7680137 0.7363201 0.62290406 0.6745466 0.74165714 0.75488865 0.6616222 0.6931913 0.7464962 0.5968839 0.5985999 0.79029167 0.5791108 0.6473509 0.5548378 0.5382626 0.5450543 0.52846307 0.4687513 0.5115715 0.4966014 0.44147834 0.5209216 0.5568447 0.5563694 0.59736824 0.78084433 0.58849597 0.61538076 0.6925788 0.78715324 0.79730356 0.6485443 0.67166865 0.7781103 0.79651767 0.7195306 0.76165795 0.78437746 0.66366243 0.70416236 0.8271187 0.8135674 0.6279012 0.6644538 0.70979995 0.6096085 0.6348417 0.652742 0.61228514 0.617662 0.5907761 0.6256161 0.60778326 0.57040566 0.5829723 0.6039504 0.62345064 0.7566974 0.61023414 0.6570443 0.7759856 0.76003796 0.8140497 0.84247446 0.6799591 0.80863136 0.8542675 0.7971911 0.7554434 0.6555057 0.71778435 0.75942105 0.72573984 0.6869966 0.6573663 0.66190475 0.63500667
SCALARS features_01 float 1
LOOKUP_TABLE default