# vtk DataFile Version 2.0
Really cool data
ASCII
DATASET POLYDATA
POINTS 7709 float
1.4950271 51.957623 1.4264328
1.3062553 58.699047 -1.4198693
1.3785546 58.686672 -0.63362074
1.4021266 59.801235 -3.1979866
1.3096765 59.524178 -1.9895662
1.2332242 59.451427 -1.404776
1.3123963 59.403908 -0.5735936
1.444617 60.27642 -3.3974767
1.3834928 60.667534 -2.7157261
1.3778247 60.253277 -1.4233981
1.3688116 59.980988 -0.68848145
1.4500396 61.030968 -2.6977808
2.0902343 50.965652 0.86888075
1.9252231 50.972755 1.557475
2.0043073 51.11213 2.3125112
2.2260542 51.024673 2.816957
1.8549314 51.59435 0.7697511
1.6285646 51.613678 1.4184828
1.7539712 51.60727 2.2368882
2.0298703 51.817963 3.017497
2.1432807 52.763298 0.25814998
1.757096 52.290344 0.83846253
1.5831809 52.42524 1.4720515
1.7309436 52.431755 2.2974238
2.2481785 52.435062 3.3458047
2.0789752 53.54518 0.64326215
1.712604 53.255333 1.6145585
1.857107 53.516243 2.1937737
2.1099293 52.96098 3.2390041
2.1610756 54.18219 0.87124455
2.0605142 54.377716 1.5620039
2.203765 54.393715 2.3366551
2.3507407 54.919395 1.236038
2.2415123 57.206253 -1.2532966
2.083066 58.278328 -3.1048212
1.672854 57.943405 -1.8993146
1.8104964 57.737865 -1.5010657
1.7530072 57.906055 -0.79880184
2.1680164 58.997524 -4.1238923
1.848821 58.75254 -3.2775052
1.6231494 58.649296 -2.4890916
1.4784337 58.202007 -1.4436989
1.5046835 58.51245 -0.5670185
1.5962303 58.7866 -0.12559296
1.8939363 59.548885 -4.088113
1.5932251 59.56803 -3.420288
1.540723 59.443275 -2.768129
1.4389052 59.672802 -0.35829973
1.5790577 59.3444 -0.02092579
1.9439583 60.353516 -4.217089
1.5783048 60.529995 -3.6073418
1.5791836 60.17627 -0.5291528
1.6855595 60.007984 -0.10214667
1.7941287 60.861366 -3.9206474
1.7244246 61.20846 -3.2703059
1.7308388 61.382095 -2.6746335
1.8816316 61.24118 -1.8650331
2.2096412 61.001656 -0.7748914
2.0000732 61.73403 -3.1999824
1.9834123 61.640644 -2.5015705
3.0306678 50.154186 0.22240537
3.1064239 49.78428 0.54180825
2.5969155 50.10114 1.3769898
2.824471 50.22571 2.2238803
3.1774487 50.367584 0.015363306
2.680117 50.52456 0.42071807
2.3828964 50.41543 1.5077618
2.449316 50.60718 2.32024
2.6414404 50.93532 2.982889
3.3801415 51.143757 6.386659
3.3531091 51.118763 7.058127
2.6679993 51.558754 0.020799607
3.2293768 52.082413 4.372603
3.346841 51.29105 5.5218124
3.0963342 51.569942 6.5719066
3.1887574 51.74976 7.14694
2.8559575 52.817074 -0.20065802
2.7206254 52.765213 3.849101
2.9425225 52.191364 5.954949
2.9984257 52.481106 6.487747
3.1757789 52.25226 7.244273
2.964951 53.356426 -0.25226563
2.7154002 53.581657 4.216354
2.993101 53.568577 5.5606127
3.1484244 53.540142 6.77777
3.3754985 53.035843 7.2340374
3.2067199 54.145374 12.241308
3.0858126 54.05867 13.537002
3.196327 54.085518 14.371577
3.1358 54.140125 -0.3068629
2.656316 54.25859 3.4847608
3.1394362 54.758717 4.057485
2.9713979 54.337925 5.558472
3.0681617 54.379345 6.643262
3.2380161 54.70973 7.434065
3.2786717 54.925354 8.361363
3.2238317 54.66519 11.674089
3.0851047 54.544067 12.575305
2.8664782 54.637283 13.6392765
2.9565423 54.625214 14.392923
3.1732044 54.700897 14.82989
2.9658525 55.662403 1.3946428
2.8324668 55.32255 2.49411
3.2345293 55.078644 3.8749046
3.2606912 55.291946 4.814391
3.1058087 55.19015 5.2493834
3.0479307 55.705513 6.538134
3.1989965 55.68496 7.2411346
3.2468095 55.67599 8.279717
3.3334155 55.228104 11.358794
3.015787 55.301746 12.955344
2.8900712 55.307487 13.610387
2.9319954 55.266777 14.300332
3.1772985 55.17086 14.8302765
2.6541407 57.2581 -2.0480716
2.632284 57.078644 -1.416891
2.9336066 56.9208 -0.122664064
3.1125565 56.561256 0.41679043
3.1373763 55.96933 1.5573409
3.3716218 56.22834 4.648141
3.2204385 56.467236 5.5527334
3.1650608 56.58257 6.3376865
3.2090583 56.05736 7.634025
3.3121822 56.491188 8.046064
3.1791403 55.75788 13.653709
3.1565452 55.754494 14.129456
2.922358 58.340664 -4.0246587
2.65702 57.767857 -2.8836374
2.646627 57.520336 -2.7253122
2.5834315 57.830196 0.28225717
3.4250882 57.205788 5.053203
3.25774 57.31858 5.628464
3.3245573 57.224926 6.476633
2.399497 59.191406 -4.422598
2.3272097 59.87756 -4.616062
2.3576252 59.802044 -4.538148
2.5318468 59.46701 0.5652955
2.5474753 60.345867 -4.707924
2.3365045 60.559288 -4.469552
2.789394 60.55037 0.43878087
3.186271 60.77872 1.4993489
3.3219445 60.47389 3.6289048
3.4165745 60.30776 4.29301
2.7572026 61.303715 -4.3612914
2.2530825 61.58291 -3.6645772
2.328297 61.578068 -1.7293098
2.6610851 60.99643 -0.38174567
2.7716916 60.8639 -0.015321702
3.31713 61.30816 1.473945
3.270715 61.21194 2.3985085
3.3458781 61.273155 3.5017264
2.7216895 61.98949 -3.41616
2.481397 61.857563 -2.64251
4.01147 49.314095 0.22488952
3.7337081 49.245144 0.5670183
3.5830398 49.254234 1.1284544
4.091891 49.27871 1.974374
3.6681066 49.634274 0.071242064
3.3520842 49.399967 0.7852991
3.42973 49.809032 2.157217
3.7379768 50.149208 2.976661
4.2464423 50.11909 6.835604
4.2905807 50.01675 7.322554
3.5055134 50.458164 -0.16563791
3.441156 50.71065 3.4789414
3.9095373 50.75985 5.749207
3.7345333 50.677834 6.647254
3.8365476 50.70855 7.419376
4.2361984 50.503277 8.307118
3.30112 51.65909 -0.23255208
3.4213562 51.673454 7.7102766
3.77865 51.48495 8.093685
4.2769923 51.21458 9.01323
3.8609405 52.559605 -0.5703079
3.3785014 52.39893 -0.32985038
4.072254 53.092934 11.820645
3.94487 53.191925 13.713572
3.8520403 53.393307 14.0188465
3.8993268 53.54538 -0.6277369
3.4523437 53.142445 -0.51124096
3.7675319 54.132 8.672091
3.9521053 54.152626 10.765079
3.7001748 53.72837 11.673631
3.592998 53.57091 13.595519
3.536481 53.82548 14.481692
3.8623238 53.98707 14.998554
4.0940394 54.770073 -0.73079
3.4066188 54.080402 -0.5305859
3.6316788 54.295555 8.557016
3.9880962 54.622604 10.438171
3.6965234 54.60004 15.200455
4.2154512 55.653988 -1.6043926
3.7179291 55.005474 -0.27092808
3.460527 55.41619 8.833746
3.4544504 55.158592 10.951839
3.43623 55.56261 11.805314
3.2996824 55.606804 14.627654
3.5743861 55.35761 15.021271
4.0506563 56.798676 -2.8938992
3.849494 56.695587 -2.3699434
3.618332 56.328136 -1.2656332
3.693077 56.374058 -0.62099725
3.485026 56.655773 2.471963
3.7334976 56.209698 3.9014723
3.5602753 56.619804 8.677656
3.663847 56.375122 9.203058
4.104919 55.930195 10.999388
4.2161016 56.226757 11.638189
3.4812953 55.886124 12.501835
3.6402109 56.077785 13.601614
3.713113 55.952213 14.358203
3.7321274 55.779556 14.826451
3.7608535 57.966095 -4.2107086
3.4979641 56.982563 1.4183568
3.51008 57.01443 2.2613096
3.9805553 57.037174 3.50241
3.669009 57.185547 4.7317653
3.4835596 57.563877 5.755208
3.7972379 57.420815 7.334054
3.8851342 57.25936 8.432431
4.3675466 57.224564 9.83279
4.393821 59.116898 -7.112991
3.3540974 58.999466 -4.7030888
4.2350574 58.4483 -4.7225847
3.9284606 58.816975 1.4993758
3.7553186 59.096905 4.084222
3.8332837 58.018803 6.5162625
4.330382 58.10805 7.507712
4.171859 57.76454 8.3134775
4.3638887 59.84472 -8.16878
4.1863036 59.69908 -7.6766973
4.161692 59.46457 -6.7518473
3.817282 59.739918 -5.692582
3.4881167 59.662334 1.3975475
3.7739515 59.401882 2.0797923
3.5203047 59.590725 4.3007326
4.4184895 60.65681 -9.197319
4.0207634 60.96887 -8.365771
3.9703944 60.729477 -7.5717387
3.5064063 60.549877 4.520664
3.8437412 60.779633 5.1499863
4.206139 61.62471 -9.258321
3.7563474 61.737194 -8.378144
3.9763696 61.681538 -6.7891583
3.4231052 61.216488 -4.9532804
3.2564201 61.531715 -4.488288
3.2994273 61.234364 -0.43130088
3.5121534 61.64996 1.2361655
3.6083484 61.572018 3.0594506
3.542319 61.3684 4.4841824
4.0073466 61.379047 5.2731204
4.406017 62.144512 -9.7675085
3.992271 62.424248 -9.100452
3.662967 62.362064 -8.244034
4.3421435 62.75933 -6.0011168
3.514801 61.75044 -4.1848245
3.1762435 61.986397 -2.5154233
4.0113773 61.741306 -0.47470284
3.8473608 62.199844 0.8327352
3.703601 62.431335 1.6360221
3.705291 62.468903 2.3306074
3.9742749 62.246487 4.259741
4.467542 62.686275 5.3956814
3.9855812 63.800808 -8.945077
3.6273298 63.795547 -8.257388
3.5649948 63.516075 -7.3820715
3.744379 63.59409 -6.6876483
4.2682524 63.76932 -5.876586
4.1913586 62.656 1.0804801
3.9098833 62.72981 1.9115906
4.0909705 62.916615 2.740531
4.0701756 64.30059 -8.932916
3.813575 64.40475 -8.352051
3.7323983 64.42482 -7.686982
3.8537788 64.31829 -6.736359
4.1905885 64.22241 -6.0850434
4.087311 64.92571 -8.293039
4.0700827 65.01368 -7.638999
4.14292 64.89965 -6.918659
4.1598153 49.358997 0.1254452
4.258478 48.984573 0.71333575
4.903404 49.090572 1.4988066
5.3439007 48.911106 2.6736197
4.9714675 49.34084 7.458595
4.341437 49.381588 0.1347054
4.764812 49.62166 2.6957018
4.7593484 50.100685 3.251846
4.8441005 50.209343 5.5604763
4.647925 49.62608 6.7808537
4.541776 49.776093 7.4231977
4.8027034 49.80504 8.442683
4.994009 50.011723 9.420295
4.5006943 50.395832 8.485275
4.563138 50.488426 9.354829
5.0443597 50.52332 10.118099
4.159275 51.066174 -0.34211075
4.550104 51.374348 9.594183
5.0352974 51.4961 10.556373
5.122262 51.68216 12.359566
5.1802344 52.07043 13.228038
4.626792 52.887383 -0.6074487
4.736229 52.24557 10.413713
4.4882345 52.56747 11.233962
4.622806 52.84207 13.467052
4.5447264 53.158485 14.103722
4.888648 53.345966 14.815929
4.4634986 53.681335 10.5261345
4.631991 53.812855 15.212891
4.370246 55.154526 -1.453163
4.426384 54.350075 15.465007
4.636488 54.50183 15.524579
5.1041937 55.888527 -2.828003
4.636721 55.662716 -2.1814303
4.480994 55.359406 -1.2601635
4.4791336 55.311867 15.321229
4.4166284 54.92169 15.565617
4.9026556 56.891132 -3.5566583
4.446628 56.318104 12.8287115
4.1695385 56.259254 13.749592
4.0984745 56.14093 14.212213
4.345372 55.77009 14.920491
5.0663176 58.343777 -6.902718
4.8695855 58.242638 -5.934347
5.0530887 57.779648 -5.4631886
4.404826 57.668415 -4.4917336
4.7927914 57.34798 10.267337
5.197869 59.27879 -8.894996
5.164592 58.91924 -8.083019
4.65509 58.93348 -7.383017
4.4650674 59.045788 -6.7355375
4.5436087 58.328827 -5.4080915
4.837747 58.376286 7.4744997
4.7958193 58.32186 8.580546
4.8301983 58.05019 9.213592
4.802871 57.82924 9.827233
5.4479938 59.68365 -12.453003
5.3211975 59.632305 -11.962256
[...]
POINT_DATA 7709
SCALARS features_00 float 1
LOOKUP_TABLE default
0.60575265 0.55646896 0.5317851 0.5988383 0.5940102 0.5731638 0.5293756 0.62515837 0.65021795 0.56898683 0.50840294 0.6529427 0.63624 0.59953547 0.5499368 0.4955073 0.6381067 0.6096705 0.55895674 0.47583356 0.55758554 0.6274885 0.58940667 0.5222259 0.3870409 0.5563034 0.5262826 0.4277153 0.36278278 0.48832566 0.3694371 0.26499838 0.29188398 0.3673582 0.46125394 0.4963212 0.46568477 0.4761777 0.47578543 0.511472 0.5400665 0.52585936 0.519768 0.4988668 0.5447735 0.574226 0.58243054 0.49817902 0.48059928 0.5992789 0.63239765 0.4689736 0.44629353 0.634351 0.658824 0.6441146 0.5594295 0.39946717 0.6476215 0.61465174 0.6157541 0.60737276 0.60264266 0.5041352 0.6011126 0.6292549 0.5984734 0.5233501 0.44742426 0.32981342 0.33447424 0.56141734 0.17571802 0.27384716 0.31699497 0.31532916 0.38055223 0.24839379 0.24693061 0.24358305 0.27931416 0.31225067 0.13753515 0.11022161 0.1574477 0.19766286 0.5486401 0.79721344 0.86550653 0.21611351 0.15742835 0.040779717 0.10011849 0.14947867 0.17932084 0.20377304 0.50431454 0.6590439 0.86198896 0.9131876 0.92482734 0.06699328 0.07142074 0.0151436925 0.046312176 0.08226531 0.19365898 0.23253533 0.26308632 0.5029125 0.7399875 0.83138967 0.8841298 0.90905553 0.305836 0.29913926 0.23303196 0.049176566 0.0034479722 0.045000233 0.14219552 0.22314817 0.27275896 0.30091667 0.7925931 0.8314303 0.31207123 0.34136623 0.3226211 0.30432987 0.084360726 0.16723527 0.26885813 0.45393062 0.5288926 0.52262896 0.3506546 0.5589038 0.5966859 0.2670322 0.23401824 0.26372218 0.26445457 0.6203457 0.6454678 0.50750726 0.31633785 0.27440205 0.25632054 0.3073408 0.29098046 0.6176196 0.5833032 0.56699455 0.5675924 0.5429703 0.41821575 0.5770713 0.5755111 0.46310452 0.33071768 0.3367293 0.35196048 0.56797636 0.29102248 0.29992524 0.33572653 0.33819914 0.3530383 0.4621957 0.31309322 0.30723327 0.29352552 0.29374915 0.35877 0.3282979 0.56258255 0.651435 0.17316969 0.2734099 0.08460646 0.3117322 0.37594655 0.6651056 0.80744344 0.83798146 -0.044078715 0.16134435 0.12373269 0.2700703 0.91528326 0.0053669065 0.014256328 0.20510192 0.42691106 0.5583336 0.86828595 0.8973988 0.10609996 0.11061006 0.09083179 0.08229406 -0.058643043 -0.02961348 0.30165905 0.2601377 0.35333577 0.44061235 0.64798146 0.73462415 0.80152845 0.8471634 0.13269551 -0.08415074 -0.09450278 -0.08368092 0.034775294 0.17993422 0.30369532 0.31150404 0.25275734 0.19264404 0.24368092 0.07244343 0.038463853 0.032614887 0.24375808 0.27444652 0.30194265 0.24239859 0.22688095 0.16882363 0.114330776 0.18420625 0.1299938 0.17985588 0.23779698 0.27615008 0.27402347 0.27295446 0.24725387 0.29632393 0.3210821 0.41737157 0.5129608 0.5978411 0.23262884 0.26953095 0.32431445 0.27270085 0.24377708 0.3427037 0.3803831 0.41230845 0.43193847 0.5910558 0.49577558 0.13131867 0.2858332 0.32576162 0.33813617 0.276054 0.28313524 0.56942207 0.6297945 0.63031626 0.56751704 0.44332957 0.297044 0.31240207 0.28336278 0.60210466 0.64232826 0.64780754 0.5959113 0.5093116 0.6195966 0.60630035 0.5795424 0.55496234 0.53401774 0.4477843 0.086254194 0.38242537 0.54692423 0.21346468 0.12091094 0.23280105 0.34153065 0.3662843 0.4107973 0.40318194 0.3720322 0.3642732 0.34111226 0.47240615 0.25263694 0.20181319 0.20005886 0.22542828 0.15963666 0.07652539 0.14977568 0.3907178 0.52773905 0.6115821 0.20646654 0.7413322 -0.040339425 0.8432796 0.83415395 0.100284554 0.0626083 -0.03393413 0.8715772 0.8782905 0.07135786 0.5665537 0.68609095 0.7425936 0.8295094 0.15562072 0.07790396 0.033568393 0.043205433 0.19887663 0.23585984 0.22854818 0.2021772 0.16579874 0.05103323 0.21115318 0.24718341 0.26156813 0.23802069 0.8648528 0.7401315 0.22952414 0.24609423 0.22657442 0.76902443 0.56610906 0.24996844 0.22445655 0.05149541 0.115904406 0.27856484 0.27213272 0.17258655 0.36469236 0.10677507 0.46095753 0.32885715 0.22669835 0.166166 0.23766686 0.26367018 0.25738177 0.45224333 0.48140776 0.2701295 0.2581825 0.22904526 0.263915 0.32726255 0.34744185 0.36928618 0.38720354 0.5603783 0.476265 0.09767783 0.14611778 0.28601488 0.2825402 0.40531757 0.4647543 0.5718126 0.57920116 0.5601398 0.510741 0.4712468 0.5379206 0.5266751 0.48382023 0.55007553 0.54503006 0.5677426 0.549924 0.5343256 0.4685601 0.34047174 0.56875086 0.5408975 0.5007951 0.43041632 0.37552902 0.28322375 0.53737974 0.5508221 0.42437917 0.24305522 0.15860257 -0.050704353 0.3275454 0.37297356 0.4150989 0.40464008 0.6253729 0.6072888 0.6430296 0.6939986 0.5081842 -0.107201785 -0.047439463 0.25544253 0.42301336 0.40221345 0.3539036 0.6564604 0.6871815 0.70892525 0.4046917 0.105225176 0.147436 0.64405835 0.08333911 0.16358382 0.14267221 -0.018565755 0.31385118 -0.052303948 0.6688751 0.062083684 0.7555661 0.098058954 0.740398 0.2567109 0.44879106 0.6648775 0.74956167 0.1568507 0.10012007 0.013647746 0.005086463 0.99591166 0.94075966 0.78258216 0.1621849 0.21507724 0.1906277 0.16081604 0.15311317 0.9586345 0.91735935 0.73877704 0.37200958 0.018063053 0.8831503 0.7805648 0.12002026 0.17993563 0.76682556 0.5984953 0.46162713 0.1490471 0.20762563 0.2411834 0.3035517 0.50593305 0.43729174 -0.0914578 -0.06886903 0.24897176 0.3290884 0.37506476 0.43533444 0.4357147 0.20514843 0.13183466 0.18420136 0.41869873 0.4479183 0.44680572 0.06323595 0.095622465 0.18445584 0.2982336 0.47852433 0.49047834 0.49401358 0.49334615 0.44813997 0.3937983 0.30797592 0.24571207 0.36540693 0.44540942 0.4854488 0.47721544 0.46482673 0.44465506 0.6047586 0.65085745 0.6087214 0.6405494 0.68797565 0.66575694 0.6688814 0.64809096 0.7097124 0.71511793 0.7283726 0.6546216 0.70917964 0.75652146 0.7762905 0.44237393 0.46379572 0.47426668 0.41813773 0.46207535 0.44870746 0.5579576 0.5510135 0.51572835 0.3612215 0.40432313 0.55513245 0.50998366 0.47358865 0.19684225 0.27501413 0.33181733 0.285092 0.25845057 0.3635054 0.29787937 0.13380848 0.058876514 0.42783645 0.5051237 0.47138053 0.5453974 0.020783313 -0.06396364 0.26381168 0.35789394 0.39824235 0.38721293 0.5713062 0.5504838 0.62164104 0.25804505 0.17409988 0.6040245 0.6372037 0.1691798 0.052436166 0.090492666 0.15358089 0.58236253 0.60939395 0.5716764 0.5309092 -0.034740034 0.13551302 0.53623194 0.4923908 -0.17844795 0.33969212 -0.07435852 -0.19301303 0.3534991 -0.076398626 0.6072008 0.041953363 0.21113965 0.1675551 0.075207815 0.91318035 0.17235851 -0.01035507 0.9958192 0.94812876 0.83146834 0.7155603 0.10210093 0.029351536 0.927194 0.95659494 0.88699937 0.8388171 0.22051463 0.23563552 0.6591954 0.587861 -0.1563026 0.32373273 0.5822067 0.5277387 -0.17841998 -0.14370883 -0.10681408 0.39287865 0.4665639 0.117979184 0.43651605 0.43599907 0.4270991 0.16422778 0.14211334 -0.12992665 -0.22307202 0.4632799 0.43378878 0.43452948 0.40204436 0.23766196 0.21614045 0.028949602 -0.18569869 -0.05948447 0.1316225 0.20594352 0.4845102 0.39783236 0.42324778 0.35625166 0.25087 -0.036655776 0.10394423 0.3162021 0.38498914 0.15784359 0.17900075 0.10077606 0.117639 0.62275994 0.60234606 0.24649271 0.25979665 0.20967406 0.44438672 0.46777204 0.69874215 0.6646379 0.29250646 0.39411774 0.51246727 0.45469594 0.7170044 0.6995201 0.30240852 0.29150885 0.45290405 0.61728346 0.61082023 0.5111393 0.5610317 0.70786136 0.7384136 0.57434535 0.6847697 0.76340866 0.8024875 0.80501753 0.711202 0.7819003 0.8294297 0.8423284 0.42681146 0.3784071 0.4189278 0.46289143 0.45387346 0.33186647 0.35226777 0.42085594 0.470123 0.4701022 0.4311119 0.5428699 0.5265205 0.49519593 0.3534659 0.38398114 0.44322157 0.3655882 0.31902856 0.46549243 0.520692 0.4328003 0.26520398 0.2863314 0.338033 0.22910716 0.12409286 0.04714775 0.41297674 0.40678078 0.34547317 0.2002391 0.2392357 0.16302747 0.12640083 -0.14444917 0.26691693 0.32768017 0.29605532 0.120560795 0.07740787 0.13284944 0.39492935 0.17312175 0.022957712 0.38250318 0.35552144 0.43362764 0.20291235 0.2592909 0.054308288 0.122740775 0.46424377 0.53260434 -0.45224088 -0.35877496 0.067809895 0.20597987 0.27966553 0.31421733 0.5069056 0.5236815 -0.33073157 -0.52001446 0.18279856 0.36800116 0.48343217 -0.049129218 -0.1302519 -0.16165061 -0.3147301 -0.3665905 0.38615096 -0.16429704 -0.3580202 -0.21966471 0.23698916 0.1215462 0.028565831 -0.35005665 0.30451605 0.23076448 0.0693751 0.12272853 0.76411664 0.17051333 0.13972679 0.70196617 0.72270894 0.71943474 0.74886715 0.13282336 0.15855512 0.2847745 0.6522869 0.6475124 0.6334355 0.66701436 0.6874226 0.9738822 0.94650525 0.6886902 0.0614674 0.2617789 0.29911307 0.3091946 0.5476753 0.5316478 0.55990195 0.59220576 0.89544076 0.85430455 0.4151414 0.46287084 0.4984004 0.8025372 0.26814583 0.65738034 0.58350766 0.5662055 0.33118176 0.53259724 0.50050414 0.0936708 0.38001922 0.42226225 0.4142412 0.13144857 0.34101987 0.45667472 0.40982768 0.21717988 0.11604612 0.10982532 0.009262215 -0.07255383 0.4313563 0.4951745 0.29650432 0.32791433 0.35959888 0.17300773 0.076899916 0.058964267 -0.22189133 0.4456154 0.51328236 0.58136153 0.61064535 0.30309287 0.29158202 0.22357154 0.1175087 0.20590197 0.19692573 0.6227029 0.59936976 0.59381217 0.6382098 0.6612096 0.2995051 0.27277148 0.26173788 0.29234454 0.29868412 -0.07544309 0.7057843 0.65793884 0.662637 0.68555635 0.69045126 0.3114791 0.33553165 0.33514583 0.39397752 0.73071074 0.73531574 0.7306108 0.7176988 0.69801164 0.34617698 0.3076048 0.2977676 0.61193717 0.74398744 0.7427383 0.32667768 0.29308176 0.41729015 0.4126904 0.5195687 0.80201435 0.6624656 0.8156953 0.8443121 0.8256935 0.43109637 0.43128502 0.44754773 0.4409272 0.3935393 0.39464825 0.39244002 0.42572552 0.4476807 0.41941375 0.3463685 0.3532434 0.36211538 0.41362 0.374353 0.30147922 0.28335539 0.4883861 0.52121603 0.5030365 0.4702608 0.25168967 0.27054608 0.24255052 0.46219134 0.4458192 0.4178961 0.18401423 0.00899975 0.17538553 0.030636922 -0.23365536 0.25541064 0.2560857 0.29829007 0.07704305 -0.060950115 0.17610417 0.30210793 -0.080690585 0.33272305 0.3094147 0.053374536 -0.3157685 0.068415344 -0.03347617 0.07498013 0.13465634 0.2283999 0.32848585 0.342414 0.30811608 0.086691275 0.34548384 0.3589656 0.28736728 -0.38748783 0.41811055 -0.1610851 0.46815735 0.06342517 -0.15567414 -0.26380298 0.18469717 0.42147747 0.29256922 0.018328093 -0.21724162 0.7637228 0.76865155 0.20553458 -0.27767205 0.09284889 0.63661325 0.7193106 0.76362956 0.7890667 0.8152597 0.8278582 0.13265027 0.15721315 0.2652155 0.6478299 0.7957228 0.8256353 0.10428083 0.60011196 0.76007664 0.80636525 0.76178443 -0.23267695 0.35035092 0.3570215 0.46537897 0.5950943 0.71823686 0.78254765 0.8526994 0.40606323 -0.2079948 0.32099497 0.36496812 0.28836733 0.36368793 0.44698703 0.5138348 0.59568006 0.67223454 0.060723454 0.22508113 0.24682671 0.31622002 0.41867596 0.4535316 0.63773924 -0.26293623 0.061861075 0.1414878 0.15087315 0.24432936 0.6035136 0.6017085 0.092267975 0.035743948 0.111146905 0.08295863 0.10984458 0.561593 0.5000012 0.0037366468 0.16676027 0.086156785 0.12607262 0.35047325 0.37158385 0.03635837 0.28117993 0.28238213 0.20829102 0.4436186 0.46330142 0.18719706 0.26326543 0.24484114 0.36364138 0.5023824 0.459298 0.22502026 0.235598 -0.025128502 0.41220552 0.52555335 0.32987106 0.31581947 -0.11326118 0.5755075 0.34975916 0.34135202 0.30993173 0.24148235 0.15889314 0.16940416 -0.103341945 -0.11037022 0.60887885 0.6313932 0.562306 0.15966654 0.2290405 0.2911911 0.32338768 0.64922005 0.660746 0.6874087 0.62874895 0.3217302 0.36094224 0.45102233 0.6671207 0.6860713 0.7073105 0.6425782 0.3439464 0.21193653 0.5423915 0.3314851 0.32708532 0.62654114 0.5455395 0.722587 0.7796365 0.6790421 0.5524769 0.5335046 0.512688 0.49223748 0.4635152 0.47673994 0.47128087 0.47614166 0.46570092 0.43197381 0.40712228 0.35772184 0.40422636 0.38748807 0.3520497 0.31655136 0.3285045 0.3228004 0.26371324 0.09775922 0.44946623 0.45131874 0.18522446 0.40941954 0.025045432 0.27658483 0.21396902 0.10047591 0.13864748 -0.32497904 0.10637946 0.22470665 -0.09174077 -0.40673828 0.055823613 0.09992053 0.17911683 0.29970935 0.3304625 0.33416662 0.19989666 0.23985077 -0.25839037 -0.002206225 -0.08849023 0.05154857 0.33678007 0.3367334 0.13369203 -0.05675275 -0.007947773 0.08463131 0.3657507 0.39756292 0.41007686 0.43543828 -0.020116508 0.4759698 0.06034173 0.42582554 -0.008138552 0.3249629 0.699201 0.72877383 0.77573246 0.15031907 0.06875996 0.59782773 0.66304964 0.82824516 0.83872306 0.06715162 0.15389037 0.24221827 0.573933 0.58555406 0.83919835 0.8414548 0.07098216 0.3141572 0.56109244 0.82227576 0.8333552 0.15012015 0.3596328 0.35210496 0.30989933 0.7995622 0.8221791 0.6779368 -0.04240854 -0.15620494 0.31511348 0.3792427 0.5174565 0.67641354 0.7497049 0.6128071 0.5550683 -0.106720075 0.17077124 0.22856212 0.44810566 0.46594086 0.615144 0.5776061 0.35786217 0.14768988 0.1549938 0.6137775 0.43162477 0.28534582 -0.22328708 -0.06734717 -0.054675188 0.09302432 0.17788394 0.28634226 -0.06475045 -0.15211087 -0.15924267 0.28226244 0.2875706 0.34775072 -0.06082453 0.122001365 0.28224325 0.28667983 0.36150435 0.3382547 0.083684385 -0.047019735 0.13043696 0.24083784 0.23221779 0.40475923 0.16986778 -0.17695743 0.112876564 0.2086127 0.41267848 0.38963747 0.28902394 -0.13395867 -0.14263847 0.4491168 0.3561174 0.32553548 0.27300254 0.23767802 -0.16945656 0.056856006 0.10688192 0.5603779 0.5212791 0.2610509 0.19381079 0.15272124 0.21356665 0.20777975 -0.09596958 0.12959649 0.15307695 0.48127815 0.5853472 0.20846927 0.26447186 0.09729799 0.03876877 0.4144818 0.46661955 0.5953654 0.5732716 0.47680458 0.29506266 0.25160733 0.14872748 0.1241078 0.16161798 0.18839388 0.4402287 0.3853671 0.68592423 0.53129506 0.6409398 0.5959327 0.5642421 0.53467196 0.61707914 0.59890044 0.549042 0.5028906 0.45834476 0.5529951 0.55143034 0.42414695 0.38285643 0.41304106 0.33199713 0.271719 0.1864577 0.22023028 0.22791076 0.081632696 0.28501445 0.37448674 0.13974532 0.2083074 0.0014110729 0.060538527 0.16373216 0.15826212 0.28177834 0.3248952 0.331965 0.18763724 0.015316915 0.1793684 0.3254206 0.3359157 0.33257478 0.1732027 -0.27579403 -0.06015818 0.01787594 -0.16188678 -0.015543561 0.333624 0.32777834 0.13989453 0.07091194 -0.23236763 -0.03968005 0.34416303 -0.12346045 -0.2297552 0.40164566 -0.07249878 0.4596464 0.40914854 0.33464387 -0.048580427 0.4055044 0.43655595 0.59830606 0.5559219 0.4935843 0.41420978 0.30981705 -0.07817332 -0.055352483 0.3210366 0.76276386 0.6482302 0.6636349 0.5853667 0.52388024 0.3713277 -0.055108815 0.54862964 0.62553334 0.81701756 0.8420166 0.6806809 0.7044159 0.6399934 0.54171425 0.47432697 0.13385805 0.015802804 0.28117314 0.41390878 0.84576243 0.84446436 0.5848746 0.4938113 0.4464666 0.03345874 0.84232974 0.40931332 0.2372888 0.11402111 0.3631794 0.27445683 0.8227027 0.8321538 0.026607022 0.25873032 0.08382138 0.668702 0.7596997 0.22343245 -0.11659469 0.10376725 0.34164405 0.4452641 0.2661553 -0.063712835 -0.36108372 -0.13792786 0.07462841 -0.32281393 -0.25721487 0.13041383 0.18871424 -0.1075897 0.09710443 0.20582983 0.20194024 -0.031000018 -0.069709465 0.27507222 0.07227388 0.3299013 0.10524738 0.09117745 -0.028857894 0.35462338 0.21157348 0.21449213 -0.19506343 -0.16049935 0.3702471 0.3174889 -0.18703222 -0.037613675 0.4343301 0.23187202 0.23961025 0.20736049 0.18045464 0.1310949 0.075497776 -0.06370294 -0.07064132 0.05001942 0.13200617 0.39603394 0.19637638 0.105580375 0.006623342 0.119908765 0.010242358 0.049691893 0.13700318 0.16691694 0.13273206 0.08888041 0.26197016 0.042591657 -0.028219614 0.14472127 0.06478678 0.07336048 0.059314147 0.052171342 0.12344349 0.10510069 0.14002159 0.045539737 0.66948104 0.68409336 0.6391185 0.5853288 0.53009677 0.6207101 0.6384691 0.4915489 0.44853058 0.5570159 0.54449534 0.39323854 0.46133134 0.30578214 0.24823041 0.14286447 0.08627925 0.047159042 0.6110209 0.7212431 0.7206985 0.6952883 0.17390426 -0.07933884 -0.13579 0.6376687 0.65222293 0.11560163 0.4407012 0.5268785 0.020114716 -0.055514287 0.05314057 0.10219379 -0.20898257 0.20249434 0.2668019 0.29802665 0.20034124 -0.20267424 0.13149108 0.14781077 0.11995843 0.012074433 0.20367396 0.27260545 0.3116492 0.31469944 0.19150406 -0.1272351 -0.02018556 0.09432027 0.141093 0.06077263 -0.06336268 -0.06961159 0.33473846 0.32306093 0.14232773 0.12911166 0.289729 0.080495775 0.055433046 0.23850131 -0.127033 0.38171762 0.30171573 0.2540333 0.2058388 -0.1792222 0.38740394 0.4519825 0.39140987 0.40496826 0.36499816 0.29711443 0.23392278 0.19557744 -0.16271877 0.28962654 0.53941387 0.4699493 0.25872305 0.1940293 -0.15202422 0.20787548 0.21253121 0.67718637 0.5957198 0.61428356 0.10876525 0.120132506 0.62615985 0.6708239 0.7130757 0.8454497 0.60725254 0.6389567 0.08388261 -0.37030536 0.13382949 0.40700924 0.83014756 0.846784 0.6373804 0.59393865 0.4787596 0.083667934 0.013014063 0.15305787 0.84192336 0.847937 0.34231395 0.1389933 0.3124285 0.011984017 0.691671 0.8251469 0.069331884 -0.18853405 -0.002703026 -0.09556682 0.6009821 0.073832534 -0.07101365 -0.04082231 0.3018743 0.25534454 0.18519682 -0.20238967 -0.41117018 0.029307544 0.028864458 -0.13338783 -0.32566857 -0.3172071 -0.14088081 0.017019557 -0.12779883 0.11462279 0.14889717 -0.048534006 0.30838993 0.34104776 0.08761643 0.38533002 0.18386161 0.40479928 0.2221121 0.20490889 0.20764452 0.19912985 0.16620965 0.0065442696 -0.012494218 0.33217782 0.21016866 0.20214131 0.19774759 0.16715816 -0.0022127656 -0.026032783 -0.069349006 -0.1795463 -0.09153898 0.075824626 0.36604172 0.36695486 -0.0918414 -0.056949418 0.09659814 0.17720182 0.18065742 0.16910757 0.1084702 0.06704968 0.43272322 0.6229006 0.59565395 -0.06846026 -0.046576425 0.008197993 0.026448652 0.03764005 0.04652247 0.21672529 0.17410614 0.9073076 0.9157028 0.8956673 0.909079 0.90466297 0.8610797 0.8673983 0.8571707 0.8242533 0.82526064 0.81722605 0.81463337 0.68111277 0.7344457 0.6918186 0.6273812 0.55178165 0.61832845 0.46057975 0.5769291 0.3637092 0.4305461 0.22530651 0.5809227 0.7028985 0.75031006 0.085221194 0.08020258 0.12022644 0.080385454 0.041018434 0.28435522 0.54362637 0.74780095 0.7249625 0.015064232 0.64142984 0.05133059 0.29151997 0.4557398 0.02620765 0.23171064 0.26180205 0.3272102 0.31426162 -0.06746968 0.10629329 0.14366058 0.26479635 0.301369 0.30701345 0.29479268 0.24975601 0.26718262 0.1264047 0.14483702 0.11912334 -0.027205758 -0.05610065 0.2629609 0.22957233 0.06886075 0.27681613 0.5098008 0.35792089 -0.019272879 -0.030067764 0.50943124 0.12650822 0.07630246 -0.116607696 0.5683762 0.13852984 0.22583391 0.22929433 0.16623135 0.1203481 0.03833324 -0.44280493 0.27195847 0.1493088 0.12422705 -0.48063362 0.4770621 0.14703314 0.03676693 -0.52157 0.54458606 0.56469005 0.5766163 0.011899918 0.122749135 0.5349913 0.6097001 0.74513614 0.7891435 0.5297547 0.5144733 0.08378111 0.7825649 0.8086294 0.4018855 0.019601397 0.5277399 0.6560973 -0.0758291 -0.30494303 -0.37861633 -0.20331515 0.4727083 0.5474129 -0.08784375 0.03445279 -0.27735317 -0.044555046 0.10422515 0.04749559 -0.17640483 -0.04149173 0.13543859 0.10881288 -0.0043660514 0.056958955 -0.030902162 0.12137901 0.1042807 -0.15381463 0.024457783 -0.3607477 0.2657116 0.039648235 0.11897354 0.39063767 0.05027034 0.14395799 0.41434836 0.13324685 0.18085864 0.20102748 0.4466785 0.19904625 0.1924975 0.21266124 0.48903042 0.21721824 0.22407645 0.19109343 0.17905366 0.17001387 0.18049607 0.13004555 -0.09929662 -0.051736027 -0.02317933 -0.03892327 -0.14620052 -0.21840692 0.45594123 0.5513397 -0.11613989 0.6436094 0.603368 -0.1221878 -0.062070005 -0.06885864 0.0838526 0.17125747 0.23051387 0.28534883 0.24197447 0.16923068 0.46941888 0.59931016 0.68102604 0.7024375 0.09513529 0.12109113 0.18539971 0.25994566 0.317102 0.62996787 0.67061234 0.8348805 0.84199375 0.84282815 0.8553808 0.8826938 0.896927 0.82328284 0.86329955 0.81822455 0.70732427 0.8369551 0.8487055 0.79373443 0.7475474 0.7548677 0.77747464 0.78073645 0.7951473 0.78632843 0.7626672 0.7816875 0.80687225 0.8049572 0.58250755 0.69684136 0.71025866 0.6358273 0.53089404 0.51630294 0.48386624 0.41281503 0.56083286 0.6588831 0.73604906 0.7602787 0.35794705 0.18321711 0.3841611 0.7446084 0.16196169 -0.24309057 -0.10268968 -0.025662959 0.65596765 0.6329701 0.13101593 0.5392876 0.27957648 0.3013673 0.0020