# vtk DataFile Version 2.0
Really cool data
ASCII
DATASET POLYDATA
POINTS 5104 float
-22.775074 59.78167 122.45851
-22.679798 59.836926 123.6429
-22.833736 60.414425 122.06141
-22.978788 60.3344 122.66407
-22.859806 60.52006 123.47578
-22.716284 60.55454 123.84417
-22.87908 60.94243 122.32614
-22.56718 62.929245 126.08393
-22.57129 63.66879 125.241264
-22.736036 63.506344 126.48828
-22.608349 63.843937 126.962685
-22.771626 64.83655 125.04907
-22.76747 64.10295 126.40639
-22.741755 65.31713 124.93378
-22.72677 65.34696 125.29721
-21.729317 58.20025 122.05408
-22.388948 59.164883 122.451256
-21.796854 58.601746 123.35804
-21.913834 59.03414 124.03734
-21.818764 59.82581 116.78743
-21.834259 59.757545 117.23815
-21.794596 59.89275 117.86207
-22.551693 59.42121 123.32933
-22.37857 59.777325 124.12792
-21.672285 60.494087 116.11148
-21.949825 60.526405 116.73388
-22.048151 60.599327 117.38602
-21.927076 60.185585 117.98937
-21.634073 61.293175 116.1821
-21.800455 61.31181 116.72147
-22.247282 61.01398 121.19661
-22.530783 61.209335 121.85747
-22.535564 61.525105 122.39414
-21.611942 62.469154 118.42429
-21.667503 62.008015 119.64411
-22.095167 62.773098 127.08377
-22.03854 62.900547 128.75964
-21.857533 62.896275 129.14845
-22.094109 63.52976 128.54008
-21.885523 63.414196 129.11136
-22.372517 64.25067 127.54779
-21.909534 64.29038 128.80042
-22.333055 65.78558 123.99743
-22.275446 65.43059 126.40477
-21.861475 64.8318 128.26259
-22.095346 66.13083 124.048706
-22.27525 66.27825 124.65849
-22.264952 66.35622 125.13387
-21.92858 66.45081 125.85435
-21.896997 66.68719 124.77709
-21.894535 66.631836 125.28546
-21.165178 57.991707 120.88143
-21.102476 57.674736 121.56988
-21.21327 57.810852 122.48388
-20.88456 57.93638 123.217995
-21.205025 59.214542 116.47145
-21.20072 59.22058 117.6668
-21.060467 58.407425 120.17395
-21.320885 58.425488 120.38883
-21.681158 58.550083 123.36071
-21.269262 58.733852 124.01325
-21.108356 60.00475 115.75284
-21.470324 59.529884 116.5975
-21.543205 59.435135 117.36185
-21.154354 59.36632 119.80784
-21.10127 59.538578 124.83607
-21.015879 60.472282 115.55595
-21.354313 60.334713 119.1291
-20.721361 60.659534 129.54388
-20.563519 60.855618 130.3338
-21.305569 61.468212 115.870445
-21.530392 61.835426 128.13823
-21.1994 62.67356 117.34771
-21.554985 62.140064 119.8288
-20.969332 62.372692 120.48596
-21.690596 62.4207 123.37229
-20.865435 62.66797 116.82053
-21.398233 62.88102 118.48312
-21.284885 63.781273 129.87344
-20.786932 63.69014 118.934814
-21.317234 64.514786 123.44276
-21.33943 64.36335 129.59384
-20.964819 64.36036 129.84485
-21.427711 65.55663 127.59852
-21.049067 65.46002 128.58868
-21.186485 65.047844 129.11198
-20.795755 64.87617 129.75578
-21.506147 65.94078 123.63269
-21.324991 66.345924 126.466034
-21.17432 66.01066 127.17557
-21.29092 66.78071 124.738014
-21.294863 66.87715 125.29541
-21.117807 66.700424 126.22301
-20.534506 57.370293 121.70241
-20.391268 57.356464 122.319534
-20.202116 57.601192 120.76149
-20.595795 57.607243 122.71745
-20.09919 58.030064 123.52168
-19.758913 58.1646 131.16727
-20.353088 59.160664 115.96739
-20.714746 59.022205 116.562004
-20.006073 58.921543 117.92402
-20.345284 59.08941 118.37835
-20.063122 58.858593 119.51293
-20.295591 58.459404 124.190254
-19.761583 58.40296 129.74982
-20.167873 58.741547 130.59563
-19.930033 58.50788 131.29121
-19.788147 58.640327 132.20117
-19.594774 59.042747 133.34253
-20.606764 59.706615 115.555756
-20.013027 59.51721 129.4415
-20.364977 59.667393 130.83685
-20.374165 59.684635 131.34631
-20.12412 59.718758 132.17664
-19.605927 59.74663 133.8824
-20.270565 60.43124 131.45644
-19.640778 60.362984 133.77249
-20.55576 61.22682 115.36576
-20.7115 61.46402 115.475266
-20.187885 61.176773 131.4399
-20.241674 62.013382 115.66927
-20.551348 62.671577 116.74239
-20.713703 63.27494 117.624916
-20.192497 63.257946 120.26561
-20.72972 62.670692 122.7762
-20.602343 63.716957 130.46964
-20.439531 63.750263 118.49502
-19.7239 64.042336 119.3124
-20.251085 64.49722 130.32675
-20.32819 64.02761 130.63982
-19.616375 65.87096 119.3675
-20.640545 65.32746 129.26709
-20.497156 64.98291 129.88066
-19.731003 66.59888 119.7019
-20.332764 66.10183 123.7921
-20.493011 65.690346 128.86285
-19.608997 67.07393 119.743546
-19.682936 67.08249 120.38706
-20.637707 66.723145 124.75935
-20.688856 66.87682 125.5007
-19.815771 57.318226 121.72142
-19.854963 57.27867 122.07029
-19.315498 58.327904 119.68632
-19.241076 57.636787 120.897575
-19.47988 57.496883 122.37583
-19.275896 58.073032 129.73277
-19.223188 57.80249 130.47052
-18.969055 57.698017 131.19443
-18.985971 58.043976 132.27339
-19.056269 58.008335 133.50876
-18.801767 58.041466 134.37323
-19.928257 59.11318 115.90261
-19.904789 58.82843 116.71096
-19.233484 58.959396 118.49266
-19.396158 58.479595 119.44088
-19.028772 58.642044 124.91769
-19.57682 58.514324 129.53857
-19.540062 58.38369 131.84831
-19.375559 58.47264 133.34848
-19.305685 58.824314 134.1812
-18.7837 58.643482 135.31056
-19.104385 60.02859 115.38215
-19.95102 59.513817 115.53973
-19.496075 59.65326 125.92594
-19.61354 59.84028 128.51793
-19.439087 59.878777 134.2907
-18.934052 59.45947 135.41219
-18.696873 59.36639 135.8482
-19.29071 60.190174 134.7116
-19.151854 60.34493 134.92432
-19.5332 61.130722 115.276474
-18.966297 61.19091 134.5945
-18.706774 63.010853 110.06381
-18.769947 62.98957 110.36676
-19.520834 62.540462 116.03493
-19.397188 61.83591 133.18102
-18.77711 63.42534 109.989075
-18.943323 63.53361 110.527275
-18.768015 63.558838 111.29677
-19.261553 62.92059 131.73169
-18.675112 64.131905 109.92655
-18.865227 64.068665 110.55261
-18.72802 64.28079 110.94525
-19.450777 64.88099 119.58732
-19.568136 64.37683 130.76154
-18.600018 66.12938 95.13639
-18.680386 66.07257 95.565155
-18.656322 66.006744 96.241905
-19.366621 65.557434 118.886154
-19.54076 64.969505 130.28773
-18.584738 66.39929 95.16753
-18.732864 66.50889 95.64332
-18.704062 66.496445 96.29553
-18.617432 66.3799 96.86239
-19.54163 66.80057 119.464516
-19.506908 66.15808 121.919266
-18.66432 66.93554 95.66965
-18.692291 66.923615 96.15433
-19.0823 67.2349 119.10679
-19.285748 67.39405 119.623215
-19.43536 67.46231 120.350716
-18.929607 67.600655 121.38627
-18.987867 67.80942 119.69619
-18.931393 67.87515 120.7805
-18.815144 67.9914 120.906494
-17.584454 55.728264 106.868675
-17.571388 55.670216 107.43218
-17.659101 56.50523 106.96082
-17.687328 56.354424 107.26849
-17.63309 56.486572 108.67362
-17.608526 57.390347 106.99843
-17.768747 57.84163 107.83036
-17.830006 57.655636 108.0941
-19.067575 57.675938 120.76419
-18.730825 57.75406 121.4529
-18.565865 58.383305 124.364044
-18.68287 57.808727 129.90265
-18.684563 57.64201 130.54219
-18.538664 57.67419 130.97409
-18.514566 57.73084 132.78416
-18.38117 57.62492 133.72466
-18.177008 57.679802 134.64792
-18.002811 57.685875 135.35274
-17.890554 58.000004 136.14151
-17.55671 58.1141 107.45627
-17.670147 58.03688 108.3876
-18.668472 58.922325 118.405075
-18.183485 58.62802 129.04172
-18.194902 58.731766 136.22928
-17.792885 58.657593 136.56305
-18.346006 59.73466 136.21037
-18.381596 60.807205 115.12635
-18.089499 60.495625 136.3138
-17.808437 62.01148 112.23829
-18.718964 61.62873 134.46422
-18.33148 61.155396 135.56145
-18.15312 60.932384 136.03122
-18.502264 62.623337 110.53646
-18.33832 62.61161 111.45022
-18.781164 62.257973 115.55973
-18.46621 61.86913 134.25337
-17.932747 61.605957 135.33328
-18.265556 63.810825 109.20738
-18.513184 63.494984 109.5737
-18.729578 63.18341 116.42435
-18.145933 63.63161 131.88579
-17.898537 65.14773 95.63075
-18.06142 65.30834 96.53116
-18.32787 64.61472 109.72898
-18.531342 64.57074 110.782486
-18.390123 64.45169 111.266075
-18.506111 63.58267 117.20062
-18.541847 64.049934 117.79519
-18.565405 63.97056 131.38525
-17.709202 65.8676 94.12577
-18.163 65.80786 94.81576
-18.388288 65.63572 95.60964
-18.42859 65.70586 96.56804
-18.176922 65.83581 97.17363
-17.876904 64.83716 109.18601
-18.020273 64.952255 109.70259
-18.3726 64.777596 110.53794
-18.344654 64.70462 111.109146
-18.881643 65.46922 129.30591
-18.671928 64.8814 130.66211
-18.921614 64.85492 130.75586
-17.743393 66.46419 93.99801
-18.344826 66.537 94.82608
-18.322472 66.43869 97.18161
-17.87031 66.44882 97.67802
-18.690006 66.43101 118.46162
-18.04352 66.01945 125.01275
-17.707111 66.939896 94.15544
-18.19021 67.1437 94.99077
-18.401861 67.26411 95.59004
-18.387144 67.195206 96.43589
-18.131487 67.10814 96.98402
-18.72149 67.48232 118.940796
-17.990488 67.5899 95.69659
-17.982956 67.60402 96.28894
-18.238342 67.79864 119.02256
-18.424454 68.055664 119.65438
-17.97759 68.21737 120.43958
-18.256168 68.169685 121.314125
-17.996447 68.058624 122.21689
-17.029364 54.986923 107.00502
-17.142544 55.03809 107.42849
-16.957306 55.184624 108.55774
-17.089392 55.756424 106.149216
-17.36071 55.56097 106.74377
-17.450867 55.397354 107.52426
-17.211126 55.691708 108.77675
-17.131521 55.734406 109.58111
-17.021996 56.466698 105.81953
-17.449778 56.15593 106.474144
-17.458494 56.663876 109.84015
-16.778267 56.24434 111.654205
-16.72511 56.59431 113.50072
-17.623405 57.46304 134.88466
-17.294882 57.46592 135.39871
-16.973965 57.207592 105.97984
-17.375174 57.32558 106.398796
-17.231499 57.299755 110.40393
-17.165993 58.28321 120.51416
-18.079586 58.30609 123.54624
-17.756592 58.464005 124.22097
-17.735409 58.007103 131.76414
-17.487455 57.541134 133.58015
-17.75997 57.54476 134.421
-17.534986 57.551163 135.62682
-17.41236 57.81348 136.17262
-17.270763 58.126423 136.55516
-17.290062 58.52505 107.15893
-17.441813 58.516926 107.5287
-17.37783 58.497772 109.19792
-16.863298 58.296455 110.63042
-16.546907 57.850475 111.869865
-16.863924 58.308167 114.36166
-17.362242 58.690372 124.622826
-17.656328 58.379486 136.55688
-17.340805 58.724133 136.68044
-16.807194 60.22431 100.92326
-16.711859 59.9496 101.55359
-16.85397 59.53201 107.93007
-17.335625 58.762794 108.149254
-17.413393 59.41408 136.66801
-16.79598 60.8414 100.30423
[...]
POINT_DATA 5104
SCALARS features_00 float 1
LOOKUP_TABLE default
0.54995567 0.53898925 0.51384974 0.5420405 0.53532183 0.5273394 0.4881357 0.32885852 0.43350127 0.37565592 0.3803729 0.5777106 0.42188454 0.63295865 0.6173706 0.5029545 0.54024285 0.4764366 0.4831609 0.656317 0.6156533 0.54274017 0.5351456 0.5218935 0.7155981 0.67809844 0.6142942 0.52610964 0.7105502 0.68842447 0.30201414 0.38664502 0.41404277 0.3938976 0.32592118 0.3177587 0.3857425 0.40437675 0.4149407 0.43799222 0.4113219 0.43604374 0.6618108 0.53474104 0.42617536 0.6488769 0.6383513 0.61456186 0.5553962 0.6037477 0.5866138 0.5155029 0.5358024 0.48461074 0.44269645 0.6584896 0.525584 0.4078172 0.43159294 0.4686802 0.42529675 0.71731496 0.6636715 0.5830871 0.26700503 0.3870961 0.72864467 0.37256557 0.32536128 0.31641006 0.6951638 0.2622258 0.4559431 0.30118397 0.24413411 0.27141714 0.48764545 0.34443963 0.4049495 0.25334948 0.49443796 0.40162602 0.3764483 0.4015216 0.3758235 0.38895315 0.35946435 0.63897514 0.50923544 0.41328597 0.5797144 0.5616863 0.508639 0.52542186 0.50520146 0.4713899 0.47741058 0.39308363 0.51887435 0.666638 0.6261246 0.32545903 0.2887964 0.22961402 0.35875845 0.5718416 0.5418164 0.50329375 0.43712953 0.44213513 0.69764304 0.4773889 0.4314105 0.41137427 0.38873827 0.4705613 0.34611106 0.44663057 0.66823685 0.65987617 0.29891068 0.55396795 0.45856768 0.3513171 0.2658568 0.07094817 0.3251521 0.25165015 0.09768729 0.32473838 0.3093816 0.37644345 0.35174796 0.3382333 0.43622595 0.571445 0.3300041 0.4902197 0.4757373 0.56109 0.51285297 0.5026341 0.49894628 0.21695697 0.39951015 0.45190644 0.57721305 0.57006407 0.5251713 0.4570431 0.48459676 0.5780066 0.6458308 0.52695477 0.12710899 0.19090702 0.2172372 0.5605795 0.46187818 0.45910656 0.5185576 0.7369628 0.62549037 0.67693365 0.22202176 0.39200315 0.51925796 0.6805882 0.79187256 0.5737668 0.6096872 0.5788701 0.5836232 0.6497502 0.6454129 0.42811394 0.4314956 0.66815305 0.6592562 0.6374444 0.21318974 0.66608393 0.6623561 0.6489405 0.1490101 0.28012958 0.79379344 0.82112336 0.85601217 0.32425225 0.29713294 0.8050804 0.8459698 0.8834736 0.9060765 0.47294974 0.37641433 0.8532825 0.8809029 0.509237 0.5181712 0.5148488 0.49365214 0.5309683 0.526032 0.5233238 0.5942427 0.58354133 0.5494694 0.5503026 0.5331851 0.47671974 0.40502653 0.42136246 0.35234886 0.3613152 0.17436025 0.5451157 0.5413367 0.5195164 0.45974463 0.51689804 0.6376753 0.75225806 0.893489 0.37575698 0.3808485 0.060305014 0.4822644 0.897154 0.9210839 0.8539375 0.43849763 0.8403214 0.23025036 0.5691076 0.7009715 0.77403843 0.59947944 0.5656846 0.39164966 0.53578925 0.70172274 0.6751777 0.6686197 0.28455806 0.22528438 0.7430463 0.8173199 0.6643713 0.6411927 0.59306455 0.22260112 0.12160976 0.24578702 0.6791301 0.74158907 0.7890994 0.857298 0.9067491 0.6728395 0.6616155 0.63596123 0.5931003 0.31165734 0.2664655 0.2701552 0.69155526 0.7747611 0.916687 0.9096 0.47218245 -0.0026684478 0.71265113 0.7958232 0.8448522 0.8795701 0.8756136 0.52793837 0.82451695 0.8303914 0.53830045 0.5315999 0.51437473 0.50614846 0.4947244 0.6294887 0.6147155 0.60237324 0.6103694 0.60644877 0.5933944 0.5739502 0.5574456 0.58242464 0.5813594 0.49950093 0.47056252 0.45163557 0.70721877 0.8127377 0.5227188 0.4983476 0.36224797 -0.10897779 0.1445805 0.017335484 0.4942111 0.49618748 0.62313944 0.8309916 0.91783166 0.9470048 0.3228825 0.3293025 0.35201937 0.23086412 0.1111871 0.19792944 -0.08626048 0.93603706 0.93058264 0.6222086 0.56581277 0.22308588 0.3073453 0.9056182 0.6471359 0.65464157 0.63300824 0.5529231 -0.027676895 0.8712113 0.89572144 0.6455014 0.6666987 0.6463995 0.56976193 0.53173184 0.34583062 0.7702491 0.8185476 0.6339054 -0.16882296 0.5293592 0.7408354 0.6856295 0.6468876 0.721926 0.70865095 0.75246304 0.6878083 0.21405251 0.6476561 0.6476148 0.81056285 0.6676932 0.64938015 0.6088375 0.16037798 -0.3155458 0.66293824 0.66932225 0.8972439 0.6053891 0.35619777 0.1972981 0.35943425 -0.0005933568 0.43376288 0.67143726 0.68761563 0.72463775 0.82262415 0.8013055 0.85648274 0.6409526 0.5922934 0.5322833 0.53626716 0.7563934 0.77466977 0.7860427 0.75774574 0.7150365 0.6825166 0.6450746 0.5358608 0.5140509 0.50344193 0.5062841 0.47866032 0.7480629 0.50507706 0.50713706 0.50848436 0.6570493 0.6565964 0.66475034 0.4629488 0.49342442 0.6431958 0.48186713 0.4813669 0.49902266 0.59864604 0.30899727 0.82505476 0.5408046 0.12928797 0.07420305 -0.012421537 0.33240452 0.34510493 0.51958156 0.8185487 0.88965 0.9398143 0.43251324 -0.021029972 0.12434846 -0.23031788 -0.22835857 0.43711334 0.93347347 0.9357437 0.58112764 0.5478327 0.3355344 0.21523905 -0.13078025 0.89947426 0.9054845 0.5582903 0.50963163 0.3959694 0.085282326 0.13287507 0.86295146 0.8913493 0.6075323 0.527244 -0.09634033 0.7190309 0.80498224 0.83207715 0.6281895 0.5650703 0.5486244 0.46238232 0.34430832 0.6428727 0.55116194 0.5229436 0.5707538 0.49374092 0.6817817 -0.13424674 0.3167288 0.651159 0.6686505 0.69261944 0.61912644 -0.048263505 0.319066 0.67359364 0.7271862 0.69298446 0.55677986 0.49342 0.38304 0.3437712 0.43925285 0.4113413 0.68548304 0.68627256 0.7063336 0.7218796 0.63042927 0.4445264 0.39311513 0.46812773 0.69480455 0.61044204 0.65819037 0.66823757 0.7841984 0.74060386 0.6628852 0.4739471 0.49601352 0.5092492 0.49693447 0.7915493 0.7792932 0.76305056 0.7274959 0.5046661 0.5080634 0.50993526 0.7543459 0.75139165 0.5064572 0.5031413 0.71512127 0.6963711 0.6238442 0.4978853 0.28497696 0.35729328 0.43780878 0.49785316 0.4387381 0.4348482 0.4260642 0.433446 0.30456525 0.32709122 0.3426187 0.37420666 0.29742998 0.22408 0.28505775 0.25501168 0.2726463 0.31936502 0.3279664 0.3149203 0.2885912 0.32280368 0.32138872 0.13452151 0.047038764 0.2740714 0.1926685 0.24144858 0.3309735 0.94337904 0.25634867 0.2374325 0.38778025 0.569692 0.7293666 0.90461135 0.9298502 0.446016 0.59615034 0.79101443 0.87157965 0.0925398 0.09774239 -0.17681128 0.39680022 0.5279207 0.6702213 0.7530066 0.81822324 0.05943884 0.45366904 -0.1500102 -0.118391484 -0.19509207 0.34625733 0.7414402 0.15133907 -0.101897046 0.29080522 0.28244853 0.27828342 0.17534335 0.2036764 0.2846712 0.21236095 0.099387646 0.07439048 0.31451 0.26527318 0.26454052 0.3640867 0.4070484 0.321779 0.68274295 0.40042526 0.5059073 0.5266197 0.66729903 0.57300174 0.4910295 0.34789872 0.7033458 0.5786357 0.6763464 0.68890953 0.68012613 0.68817014 0.40672746 0.5600965 0.46497595 0.43827266 0.69257903 0.6624759 0.5049991 0.49678844 0.73932093 0.47919393 0.45071608 0.4652388 0.4645763 0.5380125 0.4317628 0.47008348 0.7764649 0.4968567 0.50685394 0.5102072 0.49403185 0.7765858 0.76875794 0.7100103 0.6559734 0.5038433 0.44351253 0.49986523 0.5104316 0.5111578 0.757777 0.74479175 0.7127371 0.52022403 0.54339755 0.5665488 0.42843932 0.48570377 0.5355574 0.38969108 0.39542806 0.12537032 0.35805982 0.42930213 0.45413986 0.37834075 0.14913388 0.34521025 0.45152476 0.4095451 0.37670216 0.29981393 0.3313732 0.38219887 0.37177992 0.28460747 0.3700499 0.40358394 0.23164034 0.18510425 0.28890812 0.15049224 0.33570808 0.32361344 0.36829937 0.44453073 0.0824786 0.23527688 0.5563941 0.51998425 -0.033281855 0.51348555 0.5778485 0.5823134 0.5646587 0.500811 0.046750892 0.10101773 -0.0013419576 0.12879011 0.54687434 0.5934961 0.5854358 0.47652984 0.30551222 0.1072031 -0.03487134 0.08840574 0.53441477 0.51730895 0.51583296 0.5068711 0.53454655 0.24476396 -0.020202175 0.04786477 0.6186439 0.5834326 0.54180956 0.5489445 0.26882842 0.64213765 0.6201575 0.6019231 0.23327358 0.32922384 0.7136135 0.6931998 0.6931548 0.5988913 0.388852 0.2584957 0.3459484 0.391827 0.34979936 0.6655167 0.6975409 0.25759685 0.4382051 -0.22757755 0.040553033 -0.017519463 0.45872512 0.39205632 0.70612466 0.6135371 0.63097024 0.6401042 0.6196264 0.054644268 0.40651754 0.45614007 0.47080868 0.47123092 0.44848174 0.32693017 0.3475428 0.42656243 0.5686798 0.5690141 0.67161345 0.72204006 0.48484778 0.46200266 0.4742542 0.47442272 0.3789263 0.34729302 0.7377346 0.3806186 0.5041167 0.7432984 0.52255505 0.39539135 0.37827733 0.73302317 0.71480006 0.646685 0.5988561 0.5493735 0.61307406 0.6387285 0.48849726 0.5375742 0.457716 0.40353197 0.3175909 0.49336755 0.56195855 0.4757167 0.38415834 0.20705992 0.2027504 0.030449774 -0.0021765865 0.29524595 0.25992078 0.3463057 0.29927576 0.3810576 0.421253 0.50554615 0.64966536 0.41209093 0.20843634 0.01790896 0.23445514 0.35700318 0.5985874 0.1992588 0.5211738 0.52499485 0.4779603 0.41060582 0.5592096 0.35841903 0.42157036 0.37468982 0.02055274 0.3047304 0.4869277 0.4781174 0.6023966 0.60586166 0.5547562 0.5069064 0.07033795 0.13638152 0.22909749 0.63165987 0.66599274 0.49862918 0.23463884 -0.05092559 0.084855296 0.30712816 0.29019347 0.3757248 0.6629175 0.7120351 0.48665315 0.3969209 -0.17005515 0.18954332 0.09687176 -0.26484987 -0.05405148 0.0986753 0.45280653 0.42377555 0.40280437 0.69585174 0.6388447 0.600799 0.53756905 0.44572002 0.59255207 0.19568057 0.12866415 -0.041263405 0.021525718 0.10106262 0.34070262 0.45768154 0.4628389 0.5795162 0.53575575 0.3177248 0.5593389 0.5108505 0.48174453 0.46332082 0.4370754 0.36979538 0.20998931 0.3758332 0.46753865 0.5065836 0.31671542 0.28883225 0.29272056 0.31227064 0.258968 0.31585476 0.69963086 0.35537577 0.30958518 0.71118605 0.71602315 0.5486814 0.35242766 0.7097471 0.70504457 0.68132484 0.5802593 0.61739755 0.6221061 0.58413243 0.6312323 0.59811276 0.55513775 0.47989467 0.5087218 0.5750873 0.608426 0.593217 0.41994512 0.27557498 0.28973365 0.50479513 0.47157893 0.50469136 0.43311158 0.6280028 0.6851702 0.7388122 0.5565511 0.58877087 0.004381813 -0.010874925 0.2711328 0.6542069 0.7111069 0.75188065 -0.015432537 0.07170475 0.20532453 0.6737338 -0.117687054 -0.05217822 0.64542735 0.3942203 0.088640705 -0.06456969 0.2754412 0.26066044 0.17338544 0.023421273 0.28911245 0.47453886 0.10170834 0.11208847 0.12042245 0.583025 0.539587 0.5999905 -0.029541513 0.18756309 0.15773942 0.63583064 -0.07392132 0.066019736 0.18980767 -0.16651797 0.011490703 0.15695973 0.6400503 0.0707712 0.043834418 0.16775098 0.21725772 0.67135775 0.025944814 0.60478866 0.5439444 0.4662577 0.3560506 0.3115888 0.18475729 0.18365622 0.3813735 0.35787624 0.36273092 0.20931397 0.3688015 0.421248 0.24862123 0.27908957 0.24543 0.7405137 0.5319589 0.39344263 0.2894264 0.7201103 0.7438648 0.7501691 0.7150366 0.5989518 0.45624048 0.7291923 0.7349448 0.70444834 0.5617554 0.5913942 0.58858097 0.55787086 0.65964913 0.6793475 0.64120543 0.41796643 0.68354005 0.6920288 0.6316129 0.6253353 0.6652826 0.42684752 0.32380074 0.40838864 0.66112167 0.7873252 0.81494933 0.85102034 0.8622421 0.5666539 0.342337 0.13492735 0.30429885 0.84902513 0.8351834 0.23386121 0.4731141 -0.08295897 0.17346391 0.812526 0.5215823 0.47127554 0.20138626 -0.021737233 -0.23217756 -0.08890632 -0.0821053 0.53953546 0.49257916 0.38501787 0.3187685 0.18145505 0.3316911 0.43701512 0.44659016 0.2904002 0.038908057 0.082080156 0.3276075 0.3525949 0.08435493 0.20678751 0.52692187 0.42200992 0.2167273 0.26125273 0.20198931 0.50447327 0.21763699 0.24948625 0.62358487 0.013116121 0.034668945 -0.11369642 0.03128078 0.27175727 0.33691597 0.37654182 0.1755983 0.11778346 0.4795141 0.37245888 0.23664173 -0.0011869371 0.16271618 0.090721 0.25625727 0.4369294 0.08859414 0.28615537 0.30985534 0.35623115 0.630892 0.23449908 0.31101298 0.2945775 0.5308535 0.5842832 0.4702192 0.729257 0.6762733 0.5867311 0.3215677 0.3423853 0.427742 0.4074487 0.75852084 0.76874673 0.7203533 0.635836 0.75670266 0.7721417 0.7398658 0.5041409 0.5189207 0.53019714 0.6943503 0.2536092 0.21844077 0.41784275 0.5018656 0.466443 0.5219219 0.58833486 0.71520257 0.7405952 0.7540232 0.45443237 0.4103356 0.7149191 0.43224096 0.42523783 0.48139817 0.7768345 0.8635452 0.9170222 0.93081415 0.28657022 0.3930276 0.6000534 0.29486805 0.3823573 0.3346782 0.39871773 0.32641727 0.9447122 0.57414997 0.51220804 0.36410546 -0.031272873 0.09808501 0.9138409 0.5709652 0.5463134 -0.032630667 -0.21264508 -0.011615446 -0.010210782 0.16383748 0.21855953 0.6767299 0.775318 0.573995 0.14167288 0.0205286 0.26056045 0.48313224 0.51296246 0.27090833 0.21272483 0.23853213 0.31538734 0.30430457 0.34570813 0.31461558 0.28758347 0.3306397 0.40001914 -0.027965352 0.27045193 0.08195921 -0.0109051615 0.2682807 0.46320218 0.060417604 0.1331277 0.07897554 0.40326416 0.47737223 0.54763556 0.25851592 0.5227754 0.17655836 0.09758626 0.3248539 0.4250617 0.14255361 0.34994102 0.2795058 0.60337853 0.6424678 0.60865825 0.517718 0.68430173 0.6930097 0.3473003 0.3722524 0.4031191 0.3771999 0.74639004 0.7224015 0.62718165 0.62554926 0.637173 0.6412835 0.61698747 0.6076567 0.6120409 0.5715771 0.5515243 0.4853897 0.431073 0.6092488 0.61976665 0.55290926 0.5062458 0.45819023 0.2448062 0.43720114 0.46015114 0.4855653 0.59994006 0.6629528 0.68844545 0.7064275 0.7264682 0.45086318 0.506303 0.41466993 0.40289775 0.64773154 0.4219737 0.24400342 0.19546239 0.1673495 0.29592544 0.42935348 0.38585803 0.44095895 0.56739545 0.6120356 0.7187139 0.79300547 0.85361403 0.90118635 0.3055479 0.23142195 0.2085746 0.36991546 0.34054264 0.3580738 0.4166342 0.47996938 0.4695111 0.46612865 0.6548809 0.52036285 0.61862385 0.69964546 0.83099675 0.8688197 0.9160068 0.58208084 0.5819458 -0.0005311072 0.04261653 0.265484 0.59734213 0.6473962 0.7303071 0.7994188 0.8711073 0.5879132 0.119703874 0.2618928 0.24059622 0.4718842 0.55273587 0.66192293 0.6760074 0.60895073 0.31000707 0.23675741 0.5888558 0.26607105 0.31275654 0.14909737 0.31068036 0.40287536 0.42753476 0.42928457 0.38194585 0.2889462 0.031941596 0.3985991 0.412588 0.41282737 0.20021869 0.020600546 -0.021878883 0.3232985 0.37338543 0.3536943 0.39536807 -0.06864997 0.42126745 0.42011672 0.3951202 0.49500406 0.32237834 0.18110803 0.45009488 0.10801306 0.004403906 0.39885238 0.4913146 0.31829 0.32014143 0.18479079 0.21549264 0.5636321 0.62037283 0.5836402 0.51241016 0.3692023 0.33012578 0.76363766 0.8206377 0.88711476 0.65018386 0.7338118 0.82405376 0.90648013 0.55805695 0.6569458 0.8345647 0.9090318 0.5478381 0.7897709 0.6840679 0.69817376 0.59825957 0.6280315 0.6681645 0.59890693 0.60222304 0.554572 0.59928745 0.636629 0.6217035 0.6147084 0.6105597 0.61034983 0.56196666 0.45631045 0.47707012 0.6335966 0.47496808 0.34229827 0.35899144 0.683004 0.3567174 0.630342 0.5933752 0.49962312 0.3281077 0.32045227 0.25780982 0.6109967 0.5812886 0.53245705 0.4541054 0.3440933 0.3134666 0.28562617 0.59908855 0.5756084 0.34828305 0.32516557 0.8016181 0.76323193 0.75878716 0.7364764 0.7013527 0.64552605 0.5021442 0.6751757 0.68708843 0.6972173 0.6476183 0.41281852 0.30126977 0.5168566 0.5189506 0.6572289 0.68899333 0.68658584 0.68230665 0.6965424 0.4095903 0.4517161 0.34444374 0.33215216 0.31935176 0.19385973 0.13453956 0.04650544 0.35474604 0.3670126 0.52836156 0.5285611 0.61834514 0.69413924 0.6387746 0.6609333 0.65122896 0.5195298 0.40115958 0.07063022 0.050607998 -0.06754881 0.1952029 0.50180256 0.57784796 0.60093594 0.5432442 0.55678034 0.014644975 0.016477674 0.37994856 0.46516478 0.5380262 0.32095194 0.59726727 0.3850968 0.49496728 0.48815763 0.5400753 0.4616625 0.439497 0.2576433 0.43378899 0.4630459 0.05061473 0.28383797 0.37091812 0.5680925 0.5335047 0.4764337 0.43906045 0.03590782 0.32217693 0.18947321 0.34894356 0.3479364 0.30179584 0.51566434 0.5455441 0.51294154 0.08468993 -0.03744446 0.27620438 0.2884261 0.3622986 0.40627584 0.39065826 0.36105436 0.19597472 0.30018723 0.2288371 0.41597635 0.4092808 0.3868252 -0.106887445 -0.06471611 -0.07173957 0.3975658 0.5077852 0.5077855 0.4700026 0.42618716 0.26165017 0.5236293 0.51800454 0.70975053 0.6500272 0.5850835 0.22384998 0.2997256 0.76977116 0.7319211 0.7100904 0.8012368 0.7727298 0.7301636 0.66710734 0.51789236 0.77486515 0.7161157 0.7454231 0.7855755 0.795426 0.8349457 0.67781556 0.7510575 0.7739102 0.83766466 0.8928473 0.53249514 0.57283825 0.63679516 0.93136084 0.92987955 0.4427474 0.45604467 0.5109844 0.9236027 0.3397885 0.33967012 0.42355752 0.7422513 0.89276433 0.9077233 0.25804028 0.32489556 0.6362701 0.8015082 0.70335054 0.74025047 0.69991255 0.7298472 0.7271049 0.49867257 0.5157658 0.6806958 0.7063695 0.5809433 0.53518885 0.5746685 0.6398016 0.64122117 0.35336214 0.52639925 0.5742555 0.6899562 0.37834856 0.6833252 0.23945537 0.25361997 0.27175966 0.67319524 0.2528034 0.27207157 0.31370687 0.6431037 0.6236927 0.27160108 0.26592973 0.28743213 0.63281393 0.6016619 0.56500626 0.4500512 0.26503545 0.31308264 0.33300492 0.31574973 0.286876 0.26555097 0.30150464 0.8935626 0.9204563 0.89622843 0.8765442 0.8278227 0.86359227 0.79478425 0.7155447 0.59859395 0.587298 0.571056 0.69723153 0.68517154 0.3275176 0.603294 0.6217195 0.6270624 0.7077489 0.67258704 0.45005113 0.3780411 -0.042244215 0.016181067 0.5940355 0.69112885 0.65728563 0.39709264 0.38058323 0.06825511 0.12565106 0.25787884 0.0699456 0.22386032 0.7135955 0.5476841 0.5595573 0.5178236 0.534598 0.5755703 0.5871765 0.56009066 0.565252 0.600184 0.5905297 0.540775 0.024866141 0.074302465 -0.026142932 0.46139914 0.39759582 0.5825195 0.59333456 0.56613946 -0.011221677 0.42939565 -0.056046516 0.13288352 0.4299016 0.41280517 0.40499577 0.33025157 0.31144416 0.2544009 0.12538758 0.09963953 0.36078608 0.383206 0.3744992 0.36435735 0.3411548 0.121412665 0.25504076 0.4125324 0.42358404 0.4100719 0.24006557 0.52855 0.42449546 0.62500566 0.3462204 0.445519 0.79560906 0.6250418 0.5344142 0.5325561 0.57337534 0.7554457 0.74797213 0.6975647 0.6043406 0.6235153 0.6556591 0.6408202 0.7293489 0.69240534 0.5507353 0.6856415 0.79770887 0.83424485 0.81317127 0.81963396 0.85698813 0.6883808 0.7205266 0.8777583 0.8984376 0.5433818 0.8921869 0.3501082 0.8609481 0.28167558 0.84595096 0.18647243 0.21531361 0.17372774 0.6946354 0.72266513 0.114366196 0.14196466 0.07942682 0.71898663 -0.05809404 0.69616306 0.5033126 0.25174928 0.10846867 0.6157075 0.49185342 0.6055066 0.39943874 0.6330424 0.32201415 0.41870844 0.68960613 0.35859394 0.69255686 0.3769821 0.40931955 0.6540368 0.6171919 0.5747838 0.40762874 0.44033977 0.51610357 0.21101063 0.9142376 0.92559594 0.89513713 0.86778283 0.7042819 0.75797296 0.4567951 0.6267116 0.34932384 0.6154634 0.6590125 0.68662155 0.738078 0.749611 0.26368493 0.16552202 0.64102805 0.7614896 0.78892374 0.29594707 0.059446685 0.15540783 0.13477415 0.8020829 0.26095933 0.14147212 0.14226106 0.782074 0.76190156 0.77840567 0.097149864 0.2593477 0.39567918 0.41177136 0.75883985 0.7851267 -0.09013949 0.012075946 0.15226206 0.29310957 0.5021846 0.5014473 0.0978223 0.19003996 0.44742006 0.4988429 0.5103904 0.52215284 0.52045155 -0.12545599 -0.027457878 0.49838743 0.5155458 0.51555836 -0.10755327 -0.2310937 0.21695906 0.0025742464 0.3428919 0.264701 0.487714 0.31411487 0.34378883 0.41214287 0.44475853 0.39283943 0.37150452 0.47173443 0.51202524 0.5447391 0.49495286 0.59145594 0.4256723 0.73200583 0.7275785 0.69893444 0.46003795 0.68359035 0.7009469 0.6435491 0.48552886 0.61012375 0.67875 0.70026743 0.70103836 0.6575137 0.8100351 0.8255322 0.8208866 0.7089385 0.79895663 0.84348905 0.55769205 0.7840412 0.8332896 0.28166848 0.71938694 0.7850021 0.6701339 0.11909937 0.18705316 -0.048411235 0.56491894 0.5402212 0.64721906 0.031605497 0.6801698 0.03210341 0.6163883 0.5155573 0.38019127 0.58362854 0.34069702 0.5077504 0.6403797 0.46014068 0.4370747 0.45899236 0.66529655 0.57898456 0.44800392 0.3243101 0.48129058 0.457739 0.53710055 0.21088511 0.4021489 0.45824206 0.50618243 0.52843374 0.245004 0.46535182 0.47977582 0.50700074 0.48975778 0.8423164 0.80417216 0.8013627 0.7638488 0.7295767 0.664168 0.67398477 0.66276205 0.55435324 0.46572638 0.59182554 0.5201113 0.36848754 0.71937096 0.7916352 0.78594154 0.7680908 0.3826112 0.22850415 0.38241297 0.29608807 0.37942347 0.786803 0.83848345 0.8380434 0.82338935 0.22893146 0.23157158 0.8498775 0.856575 0.8447976 0.81108767 0.1860538 0.25252786 0.8241012 0.85178095 0.83372265 0.37509763 0.003103353 -0.21820728 0.25577596 0.8171104 0.32856035 0.38096872 0.29410878 0.00652653 0.041670643 0.05249265 -0.040794767 0.47491458 0.49245846 0.29476506 0.24124816 0.18227875 0.30608243 0.2981709 0.103752956 0.028406661 0.13634197 0.22051224 0.24737