# vtk DataFile Version 2.0
Really cool data
ASCII
DATASET POLYDATA
POINTS 7782 float
-36.75318 64.17003 75.975044
-36.81373 64.11918 76.378845
-36.727684 64.101875 76.94543
-36.873325 64.59668 75.89353
-37.02253 64.5968 76.51913
-37.008583 64.763466 77.17015
-36.787334 65.07753 78.21508
-36.84941 65.23675 75.9367
-37.02175 65.38419 76.53404
-37.13803 65.68017 77.61028
-36.944725 65.69694 78.41212
-36.76364 65.77574 78.834656
-36.799976 66.197784 76.892944
-37.0149 66.38866 77.70441
-36.993267 66.39072 78.39765
-36.750694 66.4148 78.88124
-36.81482 66.87893 77.92287
-36.80639 66.847206 78.40299
-36.717007 66.79509 78.78032
-36.097824 64.091545 75.26236
-36.205452 63.832626 75.73333
-36.441387 63.794662 76.395195
-36.178795 63.848682 77.18117
-36.067013 64.221146 77.75088
-36.132458 64.43504 75.1885
-36.540325 64.618835 75.47878
-36.3991 64.71553 78.18944
-36.25921 65.260666 78.841515
-36.23956 65.090355 75.26326
-36.3401 65.55376 75.49741
-36.31589 65.69941 79.118935
-36.487278 65.87682 75.945114
-36.62775 65.96068 76.21807
-36.30307 66.477936 79.25581
-36.15517 66.909744 76.92645
-36.2807 67.25193 77.69186
-36.361786 67.239136 78.48303
-36.20968 67.00313 79.03704
-35.999138 67.55133 78.046974
-35.27694 63.36235 75.89292
-35.39324 63.35911 76.30944
-35.54075 63.870564 75.10958
-35.623615 63.59252 75.563225
-35.8154 63.521942 76.47015
-35.39379 63.715366 77.28182
-35.51999 64.25221 78.13862
-35.637337 64.64887 74.89773
-35.47498 64.469635 78.35974
-35.34142 64.9086 78.95145
-35.544933 65.38773 75.03409
-35.573345 65.54288 79.34986
-35.221497 66.03585 79.55502
-35.564537 66.01306 75.400055
-35.660736 66.71969 79.50008
-35.342007 66.50097 79.6091
-35.09871 66.849014 76.1496
-35.369232 67.08002 76.55864
-35.57818 67.52024 77.59896
-35.764164 67.52731 78.65493
-35.455097 67.231735 79.24857
-35.47979 67.62984 77.71721
-35.443794 67.67314 78.48656
-35.45985 67.58014 78.90698
-34.748486 63.447186 75.56517
-34.401367 63.33156 76.38739
-33.849613 64.069016 68.81209
-33.889183 63.97629 69.44752
-33.725803 63.90099 70.30236
-34.443924 63.858273 74.98838
-34.654808 63.666336 77.35823
-34.18179 64.02529 77.895744
-33.672276 64.649284 68.08848
-33.96581 64.490906 68.73509
-34.174583 64.63603 69.433235
-33.979736 64.40212 70.08208
-34.415413 64.59386 74.69306
-34.10192 65.08117 78.89608
-33.77326 65.4263 68.2679
-34.059505 65.30711 68.80753
-34.19195 65.38554 69.32909
-33.712902 65.40894 70.474945
-34.45239 65.327934 74.67812
-34.58519 65.69273 79.30864
-33.835377 66.51165 68.60026
-33.833073 66.7614 69.3732
-33.762432 66.314354 70.09762
-34.740837 65.91621 75.01471
-34.576385 66.55645 75.462074
-34.44344 66.51553 79.47686
-34.77599 66.59171 79.57581
-33.779953 67.39614 68.79806
-33.914013 67.42684 69.2401
-33.63912 67.691635 70.07295
-34.250984 67.21961 75.983284
-34.490173 67.09256 76.41461
-34.80621 67.47346 77.353905
-34.236877 67.52129 78.72472
-34.74176 67.22417 79.27324
-33.70152 68.4409 68.74988
-33.73784 68.349884 69.40557
-33.659172 68.75867 69.89003
-34.768635 67.60322 77.39326
-34.731857 67.68005 78.45055
-33.587692 69.15962 68.689545
-33.546135 69.47294 69.07667
-33.576363 68.924034 70.01446
-32.945366 63.103855 69.077736
-32.979362 63.110775 69.71315
-32.777027 62.97611 70.19603
-33.36114 63.316372 75.75026
-33.408928 63.2167 76.251236
-33.914482 63.46854 76.91339
-33.25738 63.86462 68.182045
-33.50469 63.687233 68.66923
-33.516087 63.433838 69.375755
-33.495895 63.518433 69.997055
-32.815945 63.90513 71.19953
-33.26354 63.91318 74.97912
-33.445023 63.709763 77.408264
-33.363285 64.36835 67.94812
-33.11551 64.5895 71.16759
-33.347702 64.97372 74.18213
-33.69659 64.44611 78.43768
-33.269768 65.755104 67.85938
-33.21033 65.02848 71.00292
-33.579723 65.51159 78.940445
-33.291946 66.837006 68.05775
-33.530746 66.9585 70.286385
-32.992607 66.71719 70.80292
-33.26844 66.37259 78.94603
-32.728775 67.302765 67.161255
-33.509308 67.49901 70.36097
-33.12434 67.3801 70.76691
-32.777637 66.92613 74.61398
-33.53816 67.5502 76.597725
-33.15772 67.4005 78.17516
-33.8682 66.97578 79.02274
-32.814865 68.674866 66.9952
-33.10806 68.35858 67.52078
-33.385765 68.41699 70.43169
-33.931145 67.727585 77.906906
-32.711525 68.98213 66.945724
-33.286133 69.6131 67.90185
-33.474564 69.31124 69.804665
-32.94789 69.76649 70.43082
-33.01978 70.46647 67.700325
-33.311592 70.47518 68.5535
-33.266026 70.39102 69.23981
-32.884136 70.47197 70.13997
-32.828796 71.17357 67.89047
-32.928143 71.30775 68.505844
-32.9963 71.0807 69.26184
-32.777985 70.86521 69.901085
-31.526537 59.81905 80.5169
-31.540066 59.81746 84.48424
-31.546715 60.210697 84.459236
-32.012794 62.2518 69.57491
-31.923077 62.112457 70.42482
-31.890888 63.131744 67.6366
-32.074535 62.63093 68.648315
-32.55414 62.683964 69.40391
-32.286613 62.521168 70.68731
-32.089443 62.891335 71.24084
-32.792828 63.23484 75.602974
-32.50423 63.084103 76.18692
-32.22246 63.21908 77.009186
-31.621372 63.054104 86.80638
-31.707823 62.73712 87.54046
-31.693752 62.754993 88.2838
-31.542221 62.62729 89.44495
-31.561193 63.78374 65.934685
-32.55064 63.587753 67.80825
-32.306587 63.554085 71.510605
-32.33806 63.654903 77.487915
-32.631165 64.02437 77.78781
-31.708479 63.65101 86.83673
-31.852844 63.410557 87.553734
-31.839281 63.533737 87.94672
-31.575874 63.37427 89.21309
-32.531326 64.37044 74.30085
-32.661205 64.8439 78.3034
-32.563152 65.12994 78.6507
-31.68289 64.132545 86.915054
-31.69446 64.37946 87.65928
-31.652294 64.29528 88.247826
-31.554312 63.907608 89.0006
-32.483356 65.253944 67.35085
-32.778114 65.48817 78.73678
-32.263035 65.99308 67.43644
-32.415867 66.150925 67.56437
-32.70144 66.28468 71.02803
-32.150845 66.43704 74.026184
-32.783333 66.12728 78.89062
-32.39704 67.80082 66.85839
-32.223812 67.643364 71.10877
-31.965336 67.58765 74.087524
-32.526943 67.498375 77.77509
-31.966463 68.44965 66.36908
-32.3638 68.66329 66.61658
-32.25905 68.228836 74.86743
-32.47369 68.38593 76.558235
-32.61357 67.87638 77.08976
-32.241135 69.36974 66.6479
-32.40452 69.56303 70.74504
-31.877462 69.23317 75.92934
-31.767366 69.18417 76.01636
-32.400776 70.52665 67.16816
-32.4338 70.14369 70.69992
-32.182514 71.05406 67.24983
-32.463947 71.460045 67.77516
-32.647182 71.57459 68.19806
-32.656906 71.43286 69.501205
-32.382633 71.25609 70.09618
-32.281574 71.69517 67.9238
-32.31513 71.82288 68.42082
-32.252136 71.80697 69.20934
-30.523325 46.515316 74.417114
-30.508236 47.063065 74.414185
-30.98329 58.934086 79.825035
-31.20414 58.984905 80.51677
-31.071632 58.99198 81.109886
-31.01982 59.093296 83.977325
-31.075052 59.093117 84.49996
-31.017292 59.177616 85.047844
-30.703316 59.292557 79.17566
-31.222244 59.498207 79.75344
-31.443378 59.424755 80.57326
-31.27344 59.590977 81.33756
-31.017736 59.638103 82.151695
-31.319332 59.61038 83.845276
-31.43402 59.45922 84.4445
-31.24684 59.605186 85.202774
-30.95079 59.850754 85.760994
-31.088692 60.2445 79.716446
-31.419056 60.30809 80.63566
-31.375183 60.48973 81.344246
-31.186234 60.615498 82.650505
-31.467688 60.222122 83.849464
-31.452705 60.682407 84.78366
-31.413952 60.198944 85.13899
-30.84349 60.596233 85.751976
-30.83623 60.930515 89.67728
-30.774761 60.993294 90.23935
-30.903936 61.91335 65.88078
-30.660603 61.75313 67.091675
-31.401184 61.8962 69.60643
-31.427383 61.871197 70.43169
-31.31424 62.093456 71.090294
-30.765373 61.118534 80.09368
-30.9216 61.191162 81.420006
-31.152151 61.265 83.730644
-31.230528 61.177998 84.60105
-31.03659 61.72422 85.12678
-30.959438 61.878914 86.13077
-31.39757 62.124817 87.98358
-31.290733 61.998676 88.56088
-31.22083 61.72704 89.60861
-31.027296 61.61106 90.389984
-30.800184 61.768475 90.88979
-30.591728 62.79741 63.473866
-30.974562 62.505543 64.86659
-31.319395 62.653393 65.86167
-31.402935 62.84852 66.41273
-31.497967 63.09165 67.27095
-31.530308 62.47464 68.54153
-31.616405 62.576458 71.40676
-31.892754 63.198578 75.63565
-30.705387 62.392906 76.98578
-30.578753 62.45577 77.03861
-30.7466 62.420204 83.76031
-30.669056 62.48974 84.433014
-31.397808 62.814014 86.19976
-31.499094 62.41041 87.7325
-31.395205 62.477142 89.42638
-31.293844 62.63532 90.451904
-30.930164 62.647587 91.08345
-30.649975 63.432766 63.08779
-30.727081 63.56163 63.515686
-31.101986 63.483574 64.6151
-31.424612 63.28654 65.4744
-31.25897 63.44901 71.93438
-31.418344 63.791115 75.01222
-31.324327 63.557064 85.70971
-31.44979 63.110657 86.20333
-31.400883 63.58952 89.54069
-31.250961 63.457577 90.39308
-30.87196 63.347282 91.11557
-30.654755 64.28509 63.502266
-30.729305 64.36574 64.58199
-30.734867 64.28974 84.66282
-31.210825 64.52522 85.63509
-31.486017 64.536125 86.53072
-31.417261 64.67409 88.462845
-31.115635 64.27655 89.505516
-30.942448 64.106964 90.27539
-30.871643 63.799076 90.89733
-30.58135 64.9189 63.867542
-30.926575 65.3759 66.10775
-31.8732 65.374695 74.00441
-31.863255 65.594185 78.4005
-30.711197 65.19951 85.1678
-31.05491 65.05706 85.75999
-30.932047 65.489136 86.751495
-31.145645 65.252106 87.63754
-31.290571 64.9471 88.36166
-30.945381 64.958664 89.06239
-31.105513 66.5247 73.54792
-31.459942 67.6166 66.537186
-31.058678 67.8616 71.27546
-31.436129 67.76084 73.74088
-30.958992 67.27991 78.83175
-31.303402 68.61762 66.23135
-31.18522 68.14463 73.24498
-30.928766 68.213615 73.51854
-30.991133 68.75432 78.43493
-30.8271 68.50735 79.115204
-31.325722 69.311264 66.353836
-31.243578 69.71375 66.609566
-31.468353 69.3991 71.18952
-31.335796 69.39564 77.015175
-30.791271 69.16722 78.59278
-30.684061 69.16333 79.16625
-30.540342 69.456085 80.15987
-31.501997 70.37638 66.78791
-31.27947 70.58738 71.16314
-30.688574 70.56875 72.17633
-31.047876 70.51612 74.72514
-31.11501 70.474724 75.80636
-31.033588 70.344696 76.02646
-30.52715 70.31954 79.28302
-31.36009 71.17996 67.03999
-31.787552 71.551155 67.44348
-31.767792 71.55251 70.19654
-30.94174 71.38001 71.145424
-30.651152 70.79619 74.49136
-30.659828 71.03111 75.41713
-31.398582 71.898315 67.7597
-31.347364 72.25125 68.60282
-31.564476 72.1266 69.38581
-31.47368 71.79313 70.10768
[...]
POINT_DATA 7782
SCALARS features_00 float 1
LOOKUP_TABLE default
0.8341353 0.8388881 0.8295874 0.8336303 0.85788214 0.8741733 0.857114 0.8139458 0.8473097 0.90128237 0.8997104 0.9013759 0.8369731 0.8773749 0.90068877 0.91175985 0.84834826 0.8805048 0.898618 0.8098883 0.8112365 0.8105583 0.76396596 0.73862517 0.8031333 0.815489 0.7991508 0.85029984 0.77249616 0.75159025 0.89533 0.7539582 0.777823 0.9218474 0.7031158 0.77363354 0.85661983 0.9019501 0.7780942 0.710384 0.7036646 0.78058934 0.77363276 0.75217867 0.65312105 0.6570864 0.76639813 0.67083615 0.7249802 0.7127801 0.8478647 0.85398024 0.65587056 0.9248036 0.9059485 0.5207437 0.5467219 0.67434365 0.8316927 0.8928752 0.67879754 0.7809595 0.8368381 0.65418756 0.5655078 0.5203283 0.5423904 0.5704957 0.66049325 0.5555803 0.49855113 0.5063767 0.5399023 0.5802879 0.6025032 0.68789536 0.52299345 0.5136598 0.5448731 0.5648668 0.5144901 0.6253276 0.6819391 0.49824625 0.45835233 0.43699622 0.582981 0.47089255 0.79033685 0.8448411 0.43712077 0.4235299 0.40158424 0.38275495 0.43721282 0.55669975 0.7409985 0.85234845 0.4273692 0.40993777 0.4141786 0.55814743 0.7205273 0.47615057 0.4738177 0.4144957 0.41970512 0.4653216 0.4885934 0.465219 0.46698394 0.48926097 0.44030347 0.47090334 0.48917288 0.5255996 0.5358343 0.45662093 0.43740532 0.46948987 0.53631854 0.45734587 0.44334814 0.4366212 0.50465083 0.48190433 0.4220314 0.39303514 0.34401485 0.58236724 0.31638604 0.3858178 0.3404462 0.19072135 0.31027603 0.5386206 0.76433164 0.43853408 0.44735748 0.37457317 0.5437178 0.46810785 0.5921377 0.43980587 0.42535865 0.6211705 0.60737354 0.5406337 0.4700963 0.6243847 0.6334041 0.586828 0.50699544 0.60246193 0.60684615 0.5521058 0.39945853 0.4696027 0.22040197 0.32072106 0.40891084 0.49512774 0.48691928 0.3991461 0.3719738 0.31858307 0.3411215 0.38572228 0.4593709 0.5730115 0.25680485 0.3225666 0.48281235 0.3690274 0.3681967 0.40086538 0.4341638 0.46446216 0.54115665 0.35958123 0.30709624 0.2962888 0.44393677 0.4909796 0.5009796 0.5279095 0.30069298 0.3505189 0.22031865 0.26676726 0.32757404 0.18004492 0.40372926 0.34468085 0.25477466 0.12666878 0.26061624 0.39963937 0.4214964 0.17970498 0.09983557 0.20563424 0.47162786 0.3744999 0.1445703 0.13250454 0.5589339 0.40028644 0.5626854 0.6130591 0.6312158 0.5775989 0.49074247 0.614684 0.62642443 0.60162354 0.7149137 0.70089984 0.6197466 0.6293553 0.5815054 0.6362332 0.6555445 0.63786936 0.5432475 0.6112868 0.6240543 0.5728184 0.50074923 0.59479934 0.64111745 0.63061076 0.5815185 0.55025756 0.5517645 0.5013856 0.3823026 0.5001909 0.49720228 0.58675873 0.5226804 0.66913277 0.7358092 0.3189261 0.27582794 0.3628426 0.44148195 0.43745312 0.39049134 0.38046464 0.30585396 0.37908182 0.2626238 0.21310335 0.38623142 0.464531 0.6519064 0.7930815 0.83623004 0.2684946 0.29856598 0.28386787 0.24843673 0.19424686 0.2709221 0.45007807 0.21770817 0.08267054 0.107323684 0.1426391 0.14468825 0.2576481 0.3771075 0.5811306 0.7725048 0.8193152 0.2608271 0.26768437 0.2902949 0.29010972 0.36137193 0.10767722 0.290236 0.2919314 0.5864683 0.70713353 0.7734076 0.25138977 0.25876507 0.19892338 0.34857798 0.44179505 0.5087216 0.56766164 0.64732265 0.73282665 0.22880352 0.037657984 0.21244624 0.10359563 0.258425 0.3671673 0.4651299 0.50811523 0.5069133 0.50690496 0.09753987 0.32059386 0.061911408 0.108111784 0.009154916 0.4010329 -0.053299583 0.002919525 0.1874294 0.2244334 0.43984273 0.45043758 0.26554543 0.035058487 0.21100935 0.23504226 0.24574494 0.48111215 0.27709535 0.103207774 0.15519008 0.11479405 0.106300965 0.34683198 0.51594454 0.57048446 0.46800026 0.25834155 0.17539497 0.15645023 0.5797146 0.5878759 0.5587599 0.4770246 0.84605014 0.85438347 0.6633506 0.763504 0.83961606 0.840101 0.773684 0.620737 0.71754456 0.78008705 0.78221834 0.73378444 0.63395786 0.69061077 0.70967054 0.70063317 0.64593256 0.6913028 0.6897973 0.66584265 0.6807523 0.6734425 0.6604351 0.49673772 0.53594095 0.5320455 0.5202639 0.57560146 0.58503866 0.41056406 0.32624 0.5099603 0.6095406 0.5956272 0.5151416 0.36129782 0.49151498 0.5880246 0.5086025 0.61590016 0.6436087 0.3633515 0.32702345 0.26479545 0.18355182 0.16788283 0.3468436 0.19036666 0.48625916 0.5874614 0.6985815 0.7509449 0.2542958 0.3047162 0.33482093 0.21410012 0.17245442 0.27280918 0.35906062 0.3683426 0.17747098 0.17834802 0.2004995 0.19165853 0.15999167 0.18536662 0.7953629 0.29214638 0.24262454 0.27577847 0.29994196 0.38716397 0.23371902 0.06721307 0.14491598 0.16155362 0.014393672 0.255629 0.0783069 0.7965057 0.77064586 0.37251598 0.3181165 0.2609743 0.25316623 -0.13492377 0.061192118 0.7582916 0.763075 0.3589933 0.2693665 0.23488827 -0.060544223 -0.28564787 0.008747581 0.64891666 0.70890474 0.39163578 0.2375015 0.20681116 0.2216664 0.14905608 -0.29871333 -0.3125728 0.12914027 0.27549255 0.45891517 0.54659563 0.90927297 0.8967111 0.18833573 -0.025539584 -0.25051102 0.055897556 0.27033228 0.41657773 0.42805144 0.91261125 0.89341545 0.22412066 0.061335914 0.17984147 0.17623816 0.13250491 -0.33241025 0.20011587 0.1643472 0.38786265 0.2549669 0.23172826 0.19877416 0.41673088 0.3735377 0.31016865 0.46321067 0.11857277 0.152528 0.20050246 0.16488716 0.12709847 0.15068692 0.536999 0.57459605 0.5356213 0.44680107 0.4614398 0.50031924 0.5319371 0.47982854 0.38922358 0.18601598 0.6133357 0.6430753 0.6100416 0.4890572 0.45533633 0.76187074 0.80901074 0.81322205 0.75905496 0.6078067 0.6874644 0.71969646 0.6794462 0.5652633 0.6501213 0.62422717 0.5269666 0.58015174 0.61350685 0.49308276 0.58730054 0.6298317 0.48782355 0.51835907 0.4259426 0.46662667 0.5156623 0.50263417 0.5188794 0.38312575 0.42695183 0.47470084 0.39482093 0.35890037 0.3839901 0.4451657 0.30858997 0.23975743 0.32962322 0.4295604 0.4357791 0.28856868 0.4167812 0.3080426 0.31499198 0.26520768 0.07323743 0.54407716 0.6293497 0.40911046 0.39591485 0.3402131 0.30749092 0.34306616 0.31392974 0.28338933 0.21484968 0.19578467 0.10738756 0.65245 0.70147747 0.36636367 0.34807032 0.28793702 0.24353075 0.2789217 0.18650183 0.28197128 0.29816633 0.24946412 0.18624182 0.20322384 0.75080884 0.3717385 0.35179752 0.32941777 0.22790718 0.7126986 0.75232685 0.39250612 0.68073297 0.73785365 0.49762118 0.44075525 -0.48442551 -0.40219924 -0.21865992 -0.10460476 0.5126588 0.65979147 0.9059378 0.8815282 0.86492956 0.80580544 0.52935255 0.46841836 0.41945255 0.28533697 -0.36761174 -0.049436264 -0.04497868 0.32894266 0.43828243 0.9337125 0.91914326 0.883734 0.83503693 0.5511896 0.43006447 0.23083785 0.1929383 -0.09844453 -0.07795559 -0.048319887 -0.0022172183 0.013259739 0.32389277 0.3480038 0.937171 0.9256161 0.8782005 0.84949267 0.24026006 0.27490193 0.16122687 -0.012327895 0.13636735 0.29132932 0.32916975 0.33968803 0.92415744 0.8845879 0.83672965 0.79126424 0.13838261 0.82555217 0.79960054 0.1774618 0.23337781 0.3234301 0.281882 0.3598482 0.46670693 0.34138095 0.3853242 0.42736608 0.29342836 0.2614786 0.26038936 0.27740264 0.32669893 0.2356934 0.2615766 0.28688657 0.5786007 0.632645 0.5948243 0.51897585 0.40709782 0.39249897 0.33498433 0.34285146 0.33286262 0.61497426 0.60288525 0.68123144 0.60862744 0.65604925 0.74513817 0.7267364 0.7155446 0.5058297 0.6367829 0.6293019 0.43696108 0.45019364 0.5294697 0.7994325 0.8126903 0.78990567 0.74467236 0.41867134 0.46878743 0.777465 0.79414344 0.76718086 0.72412264 0.3888419 0.7498611 0.7136925 0.70105875 0.43014607 0.43615064 0.1364356 0.08963977 0.286798 0.4082194 0.44222155 0.3473516 0.30447719 0.07401087 0.16095795 0.2482256 0.43838975 0.46961007 0.47830072 0.41140014 0.33789122 0.23764524 -0.022327496 0.054683067 0.22285438 0.36652654 0.46540743 0.49575973 0.48453414 0.3287409 0.27827334 0.20721993 0.08605336 0.014296396 0.056707032 0.22920877 0.34090626 0.41974938 0.47445 0.4697346 0.25593328 0.12998512 0.13967913 0.16541797 0.1750462 0.21875954 0.4124394 0.24697149 0.34455192 0.34343922 0.32570657 0.13258685 0.39820987 0.4239002 0.41375732 0.3825614 0.3017928 0.4859349 0.52918595 0.48178858 0.43347126 0.27937356 0.5342561 0.49119145 0.44509116 0.25614598 0.37069044 0.3864064 0.35319698 0.2812465 0.46201593 0.44797266 0.14853689 0.08046326 0.17804636 0.21617025 0.2728936 0.17355564 0.41535687 0.4391992 0.38800222 0.3423681 0.27437162 0.2718093 0.2498987 0.18498841 0.28245336 0.14970535 0.268468 0.51886374 0.39355296 0.4292947 0.19449042 0.23848805 0.23605236 0.23436376 0.60108787 0.62716544 0.35506624 0.36906415 -0.004278347 0.16444471 0.10745333 0.6279702 0.3434274 0.6160644 0.35937676 0.40233994 0.60436285 0.6807741 0.6443029 0.47195685 0.4623949 0.8368671 0.81950647 0.77449834 0.7391324 0.64866257 0.5577323 0.28476033 0.31937128 0.8323302 0.87705386 0.74397385 0.7404239 0.53867865 0.45382977 0.2795008 0.24484943 0.82063484 0.88206685 0.66525245 0.28655103 -0.07313658 0.2583038 0.2991724 0.27556 0.89046264 0.8508289 0.7095908 0.605224 0.28409275 0.24253449 0.21524735 -0.027573954 0.003017038 0.7870813 0.73608506 0.66718256 0.00795031 0.14304407 0.011737213 0.009560205 0.23121569 0.22701342 0.4498965 0.32559896 0.23537003 0.33628595 0.26874664 0.16155858 0.28441954 0.33056605 0.3460238 0.45599812 0.5428094 0.46186936 0.3079911 0.3548807 0.38980913 0.3897804 0.5207428 0.51940835 0.5454089 0.58755076 0.49488452 0.5496628 0.5549309 0.60964686 0.38767236 0.7531523 0.8172547 0.7878706 0.7430148 0.4043378 0.78732616 0.7715956 0.7334572 0.69115514 0.36056453 0.20960857 0.70938903 0.7413461 0.70489013 0.32900774 0.5967866 0.6567997 0.66085815 0.6157675 0.019627769 0.574384 0.6210848 0.63943577 0.62282 0.60963714 0.4507853 0.4464532 0.41388524 0.31960392 0.60601366 0.5856173 0.47333413 0.47887135 0.45751423 0.38739908 0.2528166 0.11569415 0.4696265 0.46902364 0.47530293 0.44438976 0.09972311 -0.008173309 0.4342296 0.4087379 0.3973568 0.44122005 0.455234 0.25149602 0.2815728 0.28122696 0.18327394 0.15890294 0.25331327 0.37404656 0.40828145 0.44347495 0.435646 0.40921605 0.087001115 0.06595925 0.09089036 0.025369622 0.1375092 0.44901383 0.4609481 0.43692935 0.16341776 0.15896621 0.102232486 0.439116 0.3944785 0.27965418 0.13186167 0.27757844 0.12430799 -0.13722199 0.13132681 0.42804843 0.27642128 0.31692252 0.3913365 0.37727576 0.32001296 0.15863751 -0.11607349 0.23778039 0.3876257 0.32282114 0.35699052 0.3532005 0.27387014 0.12503642 -0.080311045 -0.1320799 0.06479584 0.1655969 0.19400313 0.13823907 0.08994815 0.13320574 0.1955412 0.38931575 0.42084807 0.38390428 0.10147467 0.15237974 0.22864872 0.23595339 0.1842772 0.15474226 0.2534055 0.35586995 0.14694394 0.047499467 0.07356343 0.41683248 0.32390094 -0.113694474 -0.21723513 0.027398273 0.32270288 0.18110411 0.3260826 0.63720596 0.6269291 0.5817735 0.53965145 0.32580453 0.14388531 0.7531851 0.69568694 0.5597469 0.20940667 0.7587966 0.76347435 0.5607222 0.40504596 0.21773128 0.23219202 0.75990814 0.5535903 0.49004304 0.21427763 0.22450921 0.23406798 0.80327857 0.80547786 0.52088046 0.21455339 0.017107442 0.012878671 0.7357377 0.6111467 0.5907783 0.14193903 0.05694354 0.013251085 0.09777788 0.21850069 0.23275538 0.007867774 0.09298263 0.29026005 0.26947045 0.28998077 0.036276266 0.33243424 0.17091687 0.3784922 0.37855172 0.18552136 0.19949937 0.12219441 0.036675163 0.20565984 0.2132782 0.12501773 0.2899421 0.41648757 0.39052913 0.43187144 0.4570169 0.43136436 0.33648202 0.41728833 0.4250524 0.43250865 0.3860919 0.3730776 0.4203789 0.4118164 0.47957975 0.4403665 0.4406798 0.41426265 0.35094714 0.37419802 0.27012962 0.73405397 0.7294612 0.7066791 0.32753474 0.29244235 0.55241084 0.6324942 0.6857489 0.68478435 0.2991724 0.6198996 -0.047293104 0.5473897 0.5773453 0.36691868 0.3666323 0.010666724 0.5253279 0.40012735 0.41425824 0.41989282 0.52122444 0.5720806 0.5531385 0.4731126 0.42724848 0.34312814 0.52088416 0.37185353 0.38226336 0.40090427 0.25710028 0.35424748 -0.020229794 0.41347528 0.41801098 0.29582515 0.26075253 0.023394883 0.37218577 0.41965538 -0.21184611 -0.18690422 -0.16132776 -0.040714733 0.013801821 0.014433611 0.3138533 0.39244628 -0.08636354 -0.14226927 -0.1625887 -0.03317582 -0.0075779296 -0.019215986 0.32696298 0.1956728 0.11140239 -0.16158342 0.09537936 -0.10815787 -0.13332129 -0.08671225 -0.058118895 0.087365866 0.33636212 0.2826689 0.14327475 -0.25921226 0.24695423 0.27264 -0.15453754 -0.16985586 0.12754901 0.134245 0.11563055 0.14989182 0.2534417 0.3774148 0.2301063 0.32242432 0.15710115 0.13614963 0.1034065 0.17354116 0.011320407 -0.21196261 0.46021014 0.5157916 0.17950241 -0.40912405 -0.26630315 0.51258093 0.52472174 0.39306682 0.35247043 0.16932492 -0.2514296 -0.20464957 -0.14939788 -0.19662544 0.40494353 0.36253557 0.39025158 0.26792756 0.2662118 0.30024832 0.39981574 0.08611454 0.5266812 0.45784932 0.4513344 0.500929 0.30486786 0.16539863 0.18509999 0.6403419 0.6135173 0.57140213 -0.012127668 0.26646793 0.64649177 0.425141 0.11100101 0.22050138 -0.0468207 -0.018927839 0.2586804 0.6736039 0.61995053 0.3844564 0.1312468 0.17510253 0.23690656 0.4313578 0.18403608 0.5762925 0.48880368 0.4491487 0.41038498 0.13946745 0.09077106 0.046261817 0.22733337 0.4702936 0.029485047 0.011134274 0.31412423 0.010204541 0.3888607 0.37565917 0.093956485 0.09939043 0.083075985 0.07721758 0.31535277 0.23488039 0.22231689 0.26688445 0.3090578 0.23173343 0.3301061 0.42589372 0.484372 0.46169263 0.3974747 0.39418745 0.31039345 0.31270674 0.32524973 0.5078815 0.5219799 0.53435814 0.32948095 0.3992304 0.37907645 0.35631678 0.23778716 0.24253404 0.08157317 0.43022126 0.5570257 0.5634372 0.5694609 0.052591756 0.10043019 0.30825743 0.45601743 0.52860093 0.5288191 0.15001205 0.036862783 0.4432063 0.14252323 -0.26089406 0.42766556 0.34776467 0.29788974 0.19519307 -0.35081738 0.4100793 0.29546672 0.33319527 0.34448123 0.43519995 0.36037904 0.21066466 0.2165313 0.40126747 0.45973605 0.4701489 0.07503694 0.05956576 0.09981828 -0.07190851 0.32381272 0.23642275 0.26151973 -0.05275297 -0.0042991927 0.31838652 0.27577618 0.01636534 0.073361926 0.17045367 0.25175214 0.008227005 0.042798452 0.13765417 0.26462713 0.3160209 0.09514586 0.15381455 0.0541905 0.18951747 0.31934303 0.3318861 0.21313131 0.046543837 0.014695197 0.14446844 -0.10421912 -0.3048259 -0.32129055 0.14163208 0.20272794 0.4779895 0.5954338 0.12160258 -0.3944552 -0.41280603 -0.48418337 -0.0703554 0.026101768 0.5895024 0.61336696 0.3701936 0.32411468 0.035165388 -0.3516816 0.570899 0.5725243 0.3863573 0.39187768 0.3394324 -0.2272178 -0.37410688 0.49672836 0.30341262 0.37060636 -0.23612575 0.27185193 0.458548 0.17648396 0.18824881 0.1338669 0.17107657 0.46285948 -0.09447867 0.039751366 0.065263554 0.2931795 0.44933334 0.21021259 -0.16999654 -0.04898082 0.3102519 0.4354903 0.04288645 0.19320442 0.26942357 0.55533975 0.27410513 0.13272128 0.103072986 -0.02811183 0.48649967 0.39295903 0.30785048 0.08952498 0.06789714 0.21697634 0.4295379 0.3991215 0.36117762 0.040069528 0.3119373 0.0645713 0.110717066 0.15779307 0.31033266 0.26039428 0.261072 0.19669993 0.1467373 0.21386844 0.24486375 0.2203361 0.19266826 0.07975953 0.034498 0.15433073 0.20523942 0.22584796 0.38965288 0.26578942 0.2545213 0.31012863 0.26952824 0.4570493 0.5264077 0.5655249 0.51085794 0.23292914 0.22259422 0.21881403 0.2550373 0.29723144 0.1740027 0.12843925 0.1029326 0.07569371 -0.007594079 0.25423405 0.13923453 0.31930697 0.27790034 0.4261525 0.49277353 0.52308434 0.08038626 0.13988784 0.3646222 0.45122415 0.4776613 0.48263186 0.04001569 -0.021079496 -0.21872577 0.38392073 0.4343505 0.46418038 0.47449154 -0.014658164 0.17059769 0.4110667 0.4567132 0.41636565 0.09368325 0.15034643 0.23111832 0.3277691 0.44689757 0.44632787 0.41907907 0.35108578 0.29912794 0.23031542 0.41012228 0.38366547 0.30954784 -0.23257552 -0.08325136 0.25510716 0.3602416 0.3056775 0.31878155 0.20530568 0.015910842 0.009012025 -0.07107611 -0.052864153 0.06041423 0.08144496 0.07899049 0.18045166 0.15926474 0.20948052 0.3101049 0.364755 0.49254024 0.4348884 0.32471734 0.24957359 0.34571823 0.3336027 0.49706352 0.42007703 0.3101448 0.18701833 0.3189625 0.47181636 0.4393723 0.27313626 0.25275332 0.26422495 0.17854235 -0.047539234 0.12558937 0.32847485 0.4684208 0.28528148 -0.00070495903 -0.13423932 0.6321833 0.356 0.35157794 -0.6318424 0.59241486 0.3023813 0.36260208 -0.5370462 0.5351119 0.2804427 0.36190176 0.43707365 0.15912198 0.07671636 0.1711412 0.15850742 -0.33891463 -0.35204253 -0.31567377 0.24708474 0.33164752 0.2174432 -0.17335929 -0.11819972 -0.1738007 0.0009282455 0.259277 0.30226904 0.3368579 -0.1491948 0.1690095 0.23785512 0.39292535 0.35520348 0.14196132 -0.10299301 0.44318095 0.41869158 0.2876377 0.22374487 0.16280448 -0.028590918 -0.008110269 -0.00087883463 0.0840691 0.40334415 0.38188472 0.3193444 -0.012526456 0.013179652 0.15595864 0.10841368 0.11648066 0.09835102 0.13280995 -0.011474649 0.09025702 0.37142557 0.36493376 0.14269185 0.12400736 0.1290851 0.07479737 -0.020802896 0.2724316 0.40641752 0.37973464 0.35210818 0.32613716 0.48342574 0.5553335 0.40936998 0.19026807 0.18561415 0.1848365 0.15174001 0.7064537 0.7554046 0.7986115 0.8267039 0.8027135 0.36021343 0.30296004 0.12836841 0.08621996 0.09817102 0.6613091 0.6833688 0.74762356 0.7354617 0.7224345 0.29884934 0.20489581 -0.018846795 0.015323892 0.102514595 0.13739331 0.16190219 0.21664198 0.58914125 0.6253437 0.5472547 0.5626995 0.57732344 0.21232922 -0.10182862 0.48943812 0.46223253 0.012795504 0.2921983 0.46596146 0.44764042 0.90227735 0.90963507 -0.18304244 -0.08811028 -0.025169373 0.3497786 0.4477716 0.4121008 0.8644178 0.8527779 0.87304556 0.439416 0.45276004 0.44661212 0.42243582 -0.036590897 0.046759456 0.31587532 0.35945088 0.3777709 0.76681566 0.69360244 0.7892401 0.42108223 0.448624 0.4566195 -0.048901476 0.022962004 0.04414902 0.12951966 0.2066137 0.27086774 0.29733682 0.29528457 0.36318386 -0.75539196 0.03384453 0.023895226 0.08397126 0.1644145 0.19370046 0.22330695 0.23016751 0.23491593 -0.18089713 0.14550905 0.12585074 -0.08590953 -0.009575024 0.16178712 -0.14517935 0.28339604 0.34511226 0.12694815 0.02848863 0.33844095 0.22789311 0.5355232 0.45448402 0.3667832 0.29012498 0.29024798 0.54876375 0.54977334 0.24168171 0.50566006 0.135865 0.0049203783 0.24467391 0.50785327 0.28505704 0.21734442 0.14163034 0.4875637 0.5686046 0.33135134 0.29224744 0.55636823 0.3048087 0.5118401 0.5399008 0.28373873 0.39459372 0.0043151006 0.10632798 -0.05632406 0.21933228 0.21313149 0.16914703 0.05285985 0.20757924 0.2451054 0.09483087 0.29349017 0.06506394 0.13509735 0.1547913 0.061484627 -0.15718889 -0.13840216 0.3446199 0.38207048 0.15964392 0.04784628 0.22593194 0.23254761 0.04327648 -0.14405367 -0.036086846 0.36825475 0.32281876 0.29852626 0.20350835 -0.055859588 0.100949526 0.024132216 0.007491907 0.23473373 0.092169695 0.085817106 0.09220697 0.13018602 0.16624111 0.16919598 0.130936 0.016101481 -0.04695152 0.018913453 0.3369412 0.38569036 0.17981274 0.1438211 0.116426505 -0.040690217 -0.00745954 0.14148039 0.44951499 0.4663045 0.4502705 0.42199892 0.35477442 0.21202157 0.26273498 0.046879984 0.45881575 0.44167504 0.42265227 0.55554265 0.5675419 0.6033676 0.6061227 0.59392583 0.5873326 0.6611228 0.80089176 0.8560159 0.86721385 0.4546252 0.4707392 0.37488815 0.1279775 0.123528235 0.12469885 0.092950195 0.7203897 0.75754756 0.8430995 0.85064125 0.80283797 0.4521565 0.42242125 0.0060653016 0.02479125 0.07410404 0.12772866 0.1288036 0.13295785 0.123506345 0.67663383 0.73462415 0.3533412 0.3532584 0.10139251 0.04309942 0.7759528 0.68951213 0.5728843 0.59260565 0.21927202 0.453308 0.9445621 0.9359539 0.4228788 0.40934828 0.90306604 0.9314995 0.93249035 0.8560542 0.3986091 0.389696 0.8659015 0.856279 0.87754655 0.66876006 0.3697787 0.41852182 0.42773688 0.4322728 0.3557567 -0.17580695 -0.1719347 0.36874396 0.37866008 0.77497876 0.7087835 0.63782775 0.41436338 0.23377576 0.26115808 0.2456576 0.49283317 0.4594801 0.30388385 0.22613488 -0.020367011 0.04327303 0.09159719 0.10115231 0.179973 0.1931336 0.18061243 0.21968606 0.30456936 0.22598921 0.12482421 -0.16791005 0.046934597 0.09938522 0.09288224 0.10609772 0.15148185 0.17534634 0.07795137 0.09702023 0.03573022 -0.04903973 0.1739848 0.44706672 0.18872984 0.12996295 0.5537243 0.5375464 0.22564653 0.5099991 0.54