# vtk DataFile Version 2.0
Really cool data
ASCII
DATASET POLYDATA
POINTS 8893 float
-55.886993 -56.97948 92.159355
-55.978065 -57.141502 92.69318
-55.919674 -57.1909 93.30919
-55.792446 -56.95773 93.78312
-55.78439 -55.844227 91.17261
-55.92808 -56.332718 91.79928
-56.14483 -56.523907 92.59989
-56.043617 -56.47236 93.41135
-55.783825 -56.341316 93.8884
-55.70467 -55.36189 90.92427
-55.95726 -55.476734 91.51715
-56.034813 -55.492702 92.496765
-55.95683 -55.81262 93.32543
-55.672855 -55.834988 93.84845
-55.66747 -54.749935 90.9526
-55.810432 -54.710163 91.451035
-55.770126 -54.68274 92.26526
-55.65819 -55.017082 93.32458
-55.639442 -54.29176 91.59929
-54.747276 -63.791927 93.84613
-54.797134 -63.85804 94.35843
-54.845562 -63.00839 93.2487
-54.906315 -63.38397 93.69274
-55.026287 -63.296932 94.424095
-54.833817 -63.356552 94.96202
-54.887028 -62.254784 92.84035
-55.10484 -62.552128 93.54487
-55.134563 -62.566288 94.34484
-54.88512 -62.534187 95.00029
-54.99918 -61.52378 92.75107
-55.207256 -61.514687 93.59072
-55.11237 -61.5249 94.26978
-54.804 -61.69175 94.98687
-54.936382 -60.92924 92.74685
-55.096783 -60.87291 93.56185
-54.814503 -60.767326 94.58669
-54.608677 -59.378094 94.01416
-55.139023 -57.864876 92.78485
-54.8652 -58.112194 93.27273
-55.15712 -57.212627 91.71122
-55.43723 -57.247093 94.16808
-54.666756 -57.323753 95.30786
-55.25885 -56.277233 91.03479
-55.39639 -56.580975 91.41315
-55.38546 -56.380016 94.438866
-54.914974 -56.49955 95.101425
-55.10129 -55.19204 90.37849
-55.328354 -55.433613 90.575745
-55.22736 -55.67956 94.42078
-54.884014 -55.809074 94.95988
-55.05019 -54.83875 90.39874
-55.321663 -54.626244 90.664185
-55.57674 -54.35579 91.27328
-55.530724 -54.403904 92.55121
-55.194313 -54.531105 93.41476
-55.113674 -54.99234 94.22505
-54.82563 -55.089287 94.77313
-55.109768 -54.082832 90.96801
-55.275547 -54.041664 91.4416
-55.254772 -54.028713 92.17101
-54.746223 -54.125343 93.548996
-54.076096 -63.76637 93.26508
-54.36489 -64.00173 93.765816
-54.29719 -64.19906 94.3654
-54.27558 -63.93809 95.07589
-54.432125 -63.265064 93.03646
-54.558372 -63.592052 93.38335
-54.470715 -63.587772 95.225235
-53.860985 -63.344383 95.652664
-54.11677 -62.19852 92.18035
-54.44865 -62.384468 92.52081
-54.480457 -62.937344 95.43356
-54.153908 -62.60954 95.74113
-54.276608 -61.50627 92.02819
-54.32705 -61.591785 95.45169
-53.953243 -61.99728 95.74136
-54.36225 -60.648415 92.17668
-54.357754 -60.586185 95.17852
-53.898235 -59.91854 91.901634
-54.01177 -59.03056 92.494026
-54.549286 -60.078415 94.6402
-54.266506 -59.900417 94.937935
-54.24581 -58.87722 94.74174
-53.801094 -58.533245 95.72371
-54.36001 -56.727436 91.0575
-54.228016 -57.667267 91.92673
-53.99809 -57.254223 96.13919
-54.668324 -56.13578 90.76936
-54.478447 -56.634094 95.593575
-54.330017 -56.766598 95.89026
-54.60425 -55.23043 90.34611
-54.703514 -55.683815 90.46283
-54.3475 -55.675972 95.47083
-54.08559 -55.434444 95.765114
-54.50775 -54.82495 90.34418
-54.80134 -54.405506 90.499504
-54.188694 -54.861237 95.255196
-54.442623 -53.937244 90.8606
-54.57839 -53.66393 91.390785
-54.58462 -53.685486 92.341774
-54.491043 -53.84418 93.065315
-54.086243 -54.18026 94.49971
-52.580715 -65.128784 104.15294
-53.549164 -64.15122 93.75265
-53.594746 -64.305305 94.38105
-53.428654 -63.997322 95.25648
-53.23268 -63.72642 95.76433
-52.646736 -64.493935 103.64827
-52.634407 -64.589554 104.4122
-53.56316 -63.41419 92.936516
-53.04144 -63.275513 96.045395
-52.594418 -63.943665 103.62994
-52.643322 -63.969868 104.22217
-53.381092 -62.184555 91.84374
-52.87481 -62.704304 96.27116
-53.00105 -61.242157 91.24556
-53.37867 -61.684483 91.64455
-53.551086 -61.660583 95.872246
-53.277588 -60.592354 91.28998
-53.592327 -60.45923 91.477295
-53.394184 -60.45934 95.72744
-53.426884 -59.64768 91.4785
-53.069008 -59.369522 95.83244
-53.021538 -58.337486 91.291336
-53.11551 -58.48667 96.12885
-53.994522 -56.770504 91.31568
-53.380844 -57.436687 96.50346
-52.87749 -57.41992 96.94015
-54.0298 -56.195362 90.776665
-53.62888 -56.598713 96.647995
-53.3213 -56.489788 96.89479
-53.87108 -55.194084 90.459946
-53.806423 -55.457798 90.52133
-53.42896 -56.09648 96.75628
-53.858 -54.334545 90.552956
-53.469467 -54.66678 95.5795
-53.253014 -54.92069 96.12627
-53.83766 -54.01992 90.804886
-53.635548 -53.590267 91.495514
-53.352577 -54.298283 95.252846
-51.811703 -65.85959 102.73632
-52.018517 -65.99393 103.603004
-51.971912 -66.15387 104.33562
-51.775845 -66.22367 105.10198
-51.9162 -64.957664 102.27993
-52.031334 -65.33288 102.606964
-52.36732 -65.440956 103.50022
-52.44091 -65.32951 104.46011
-52.173016 -64.993454 105.2415
-52.74688 -63.633026 93.17407
-52.775925 -63.936672 93.68253
-52.455254 -64.07367 94.76627
-52.12538 -63.9162 95.54509
-51.819252 -64.569374 102.08295
-52.335896 -64.610085 102.8372
-52.49855 -64.72411 103.236374
-52.53138 -64.572 104.78087
-52.23397 -64.48973 105.14704
-52.6656 -62.69166 92.061775
-52.703995 -63.271683 92.71262
-52.158684 -63.55862 96.046036
-51.682426 -63.45515 101.8993
-52.231133 -63.788815 102.76086
-52.428925 -63.55644 103.46062
-52.438633 -63.504585 104.363976
-52.14479 -63.566734 105.161095
-51.828262 -63.060135 107.95005
-51.722393 -63.023716 108.50511
-52.440643 -62.44404 91.79777
-52.713924 -62.470707 96.28508
-51.869198 -62.733284 102.704185
-52.044243 -62.61053 103.62484
-51.986134 -63.032898 104.59816
-51.853577 -62.488396 107.03113
-51.93285 -62.62218 107.78304
-51.981544 -62.15429 108.280106
-51.968086 -62.217102 109.27415
-51.771194 -61.918972 109.97573
-52.36275 -61.23261 91.09167
-52.33128 -61.91731 96.25012
-51.701733 -61.835167 103.12569
-51.786125 -61.90002 103.6365
-51.748695 -61.722145 104.08628
-51.995846 -61.59581 107.95734
-52.170315 -61.22293 108.640076
-52.13893 -61.37069 109.41993
-51.846085 -61.396744 110.070206
-52.33722 -60.169933 90.94205
-52.411823 -60.573685 95.93116
-51.803867 -60.775772 107.80727
-51.951363 -60.511414 108.652504
-52.00605 -60.676445 109.42697
-51.826347 -60.79061 109.96467
-52.42022 -59.557114 91.0416
-52.426994 -59.42473 96.05336
-51.736137 -60.111996 108.67215
-51.649216 -60.00106 109.36952
-52.332973 -59.00544 91.25748
-52.661922 -57.965965 96.7255
-52.330463 -57.39696 91.3653
-52.713284 -57.182945 97.20755
-52.15598 -56.450474 97.81084
-53.058277 -55.390053 90.96946
-52.51184 -55.434273 91.46999
-52.38493 -55.50836 97.52039
-52.19331 -55.628517 98.03927
-51.637215 -54.91925 98.894104
-52.666054 -54.503124 91.25316
-52.426018 -54.73018 97.69227
-52.079098 -54.5498 98.308945
-51.760235 -54.589878 98.72318
-52.99351 -53.778442 92.41031
-52.544167 -53.982265 93.626724
-52.579037 -53.924297 94.379906
-52.020916 -53.504147 97.52038
-51.81654 -53.759895 98.40641
-51.736927 -52.95662 95.92087
-51.827873 -53.112793 97.54947
-51.673016 -53.139717 98.26363
-50.976044 -67.019226 103.75676
-51.252254 -66.92589 104.4978
-51.16268 -66.81277 105.34521
-51.508278 -66.281715 103.20923
-51.389442 -66.57087 105.4709
-51.270687 -66.1841 105.93092
-51.055805 -65.313095 101.774086
-51.325935 -65.566505 106.07189
-51.737293 -63.615242 94.17677
-51.749847 -63.677616 94.36844
-51.881557 -63.860832 95.46498
-50.789 -63.871002 96.80606
-51.066723 -64.21531 101.34424
-50.999256 -63.892834 109.11628
-51.779118 -62.61993 92.01934
-51.92173 -63.177326 92.9165
-51.46986 -63.170197 93.71023
-51.096542 -63.128357 96.36308
-51.559002 -63.538403 108.58638
-51.11111 -63.53174 109.52059
-50.957996 -63.036255 109.98477
-51.616634 -62.034412 91.379295
-51.684025 -62.519684 91.78995
-51.74349 -62.171238 96.365395
-50.85457 -62.75277 101.15079
-51.179073 -62.447464 101.63441
-51.402996 -62.273636 110.107124
-50.772438 -61.84094 110.79887
-51.687496 -61.56879 91.11652
-51.0294 -62.17635 96.250854
-51.167774 -61.97237 102.077515
-51.079952 -61.468998 102.61542
-51.481815 -61.5258 104.60898
-51.467537 -61.335304 110.399345
-50.84944 -61.67106 110.8218
-51.1915 -60.58672 90.643456
-50.908054 -61.199406 103.27426
-50.91481 -60.952564 104.345055
-51.321854 -60.27269 107.492455
-51.387608 -60.743214 110.420525
-50.93271 -60.792145 110.79391
-51.49951 -59.754215 90.845566
-51.746613 -59.08581 96.46709
-51.25128 -59.835686 107.913574
-51.21901 -59.562935 108.37189
-51.317696 -59.68106 109.4757
-51.163746 -60.01761 110.29344
-51.094955 -58.78629 96.50518
-50.74531 -59.029854 108.749596
-50.75232 -59.040054 109.52679
-51.701702 -57.11718 97.56119
-51.470272 -56.778362 91.78481
-51.72947 -56.466934 97.818375
-50.57378 -54.895233 89.43661
-51.7402 -55.9378 91.9417
-50.930855 -55.046318 99.6125
-50.80098 -55.07492 99.72744
-50.568703 -54.092796 88.76851
-51.276794 -54.587536 92.68488
-51.386093 -54.414448 99.242615
-50.868286 -54.30555 99.81706
-50.551025 -53.46224 88.99353
-50.66411 -53.570606 89.33165
-50.687675 -53.578556 90.17395
-52.067722 -54.17284 92.95076
-51.04124 -53.350918 94.89056
-51.29966 -53.651188 99.221855
-50.830025 -53.587563 99.8056
-51.39743 -52.753605 95.45486
-51.471725 -52.54036 97.64618
-51.33578 -53.0025 98.43358
-50.989754 -52.991688 99.18792
-51.077396 -51.8668 96.05767
-51.08127 -51.92108 96.596054
-50.80109 -52.086662 97.680916
-50.528534 -50.841713 93.95769
-50.65213 -50.80306 94.53502
-50.649933 -49.338654 94.70757
-51.085056 -48.100273 95.04355
-51.245823 -48.221386 95.74224
-51.123745 -48.19254 96.30312
-50.78459 -48.24858 96.76899
-50.97759 -47.502605 94.943634
-51.233288 -47.624104 95.531815
-51.099373 -47.535393 96.3076
-50.790886 -47.585632 96.81783
-50.672802 -46.436306 94.96992
-50.909264 -46.74872 95.594795
-50.902004 -46.914646 96.202446
-50.64497 -66.84229 103.04335
-50.388706 -67.25632 103.72319
-50.4099 -67.36026 104.32613
-50.495846 -67.14516 105.31778
-50.393215 -66.8266 105.949356
-50.739754 -66.57628 102.80083
-50.364204 -66.31259 106.346634
-50.09067 -64.79398 97.02525
-50.10172 -65.23663 97.72917
-50.18041 -65.05784 98.66104
-49.83759 -65.12233 99.4176
-50.03105 -64.89003 101.09087
-50.347492 -65.53947 106.773575
-50.379143 -64.081436 95.21899
-50.3292 -64.51329 97.50471
-50.134743 -64.46134 99.257774
[...]
POINT_DATA 8893
SCALARS features_00 float 1
LOOKUP_TABLE default
0.7264451 0.6785003 0.591826 0.4998853 0.8135967 0.7888405 0.7256352 0.575613 0.47838825 0.84304225 0.83900106 0.75259364 0.57600254 0.47555104 0.8607114 0.8419521 0.7536003 0.5635476 0.8235899 0.81704926 0.8719219 0.7100241 0.77968967 0.8402579 0.8464271 0.6450578 0.7266783 0.777617 0.7279658 0.6335559 0.68312955 0.63019794 0.58186066 0.5982746 0.5989631 0.46665117 0.27567893 0.61266816 0.5295261 0.6376269 0.40523085 0.24274325 0.733784 0.71798754 0.39079767 0.31976146 0.8264203 0.81993914 0.39869028 0.3501389 0.8482921 0.8638048 0.84939 0.701445 0.54817915 0.42413682 0.36953974 0.85939205 0.8335266 0.7498374 0.5220251 0.7033925 0.8065382 0.89405084 0.8859223 0.67479277 0.74557096 0.84183013 0.7184079 0.53724265 0.588196 0.7264242 0.6241919 0.5089907 0.4973981 0.50256157 0.45328134 0.37054643 0.3178314 0.22776237 0.3436174 0.27258635 0.16559575 0.17725973 0.5937036 0.40943536 0.22511156 0.7032392 0.28177255 0.26286104 0.79218006 0.7550212 0.322454 0.31653827 0.82080066 0.8572588 0.34608218 0.8627465 0.8493457 0.75011253 0.6142683 0.4201644 0.55938715 0.7389122 0.8697779 0.8198962 0.71996343 0.53654003 0.53418136 0.59263504 0.6330637 0.5124957 0.50833833 0.46209905 0.507117 0.38755232 0.44378603 0.39557475 0.35996866 0.3669843 0.22648434 0.27566057 0.10760402 0.13098006 0.15047996 0.5135198 0.20129764 0.18728007 0.62826043 0.24223109 0.23206669 0.7293887 0.6926162 0.2439649 0.8178705 0.34311733 0.27595064 0.8486416 0.87561226 0.3933835 0.5420304 0.591321 0.61363524 0.6005265 0.4953646 0.5279149 0.5680746 0.5718491 0.55004644 0.48155198 0.55786073 0.6860447 0.6334659 0.46752504 0.5281503 0.5425317 0.5277296 0.50970757 0.39275545 0.43234974 0.5699982 0.39964592 0.48950607 0.4896115 0.47871333 0.42962623 0.490273 0.5445113 0.36169904 0.4409467 0.4009141 0.4175778 0.42811403 0.36730456 0.49216807 0.56305206 0.61050624 0.61047375 0.34302557 0.27618432 0.3471786 0.3603443 0.34656873 0.5646574 0.6195446 0.64267284 0.6254543 0.27608702 0.10357002 0.5504193 0.59244823 0.63596725 0.6347715 0.22232287 0.04991147 0.555073 0.5939891 0.1623091 0.15158637 0.04760267 0.19844902 0.22785549 0.5641769 0.38738266 0.23335946 0.24946463 0.313294 0.67350113 0.26873684 0.32529128 0.3408043 0.6087712 0.35227847 0.34461194 0.35744464 0.39140725 0.34548113 0.37762594 0.40369394 0.5879736 0.6017804 0.55648625 0.57739043 0.559078 0.49517977 0.4004387 0.46477437 0.3648915 0.3948813 0.56619143 0.117001355 0.31843895 0.4856677 0.2892398 0.31189084 0.22973178 0.34614313 0.5207583 0.5283187 0.545989 0.28225255 0.28299153 0.26154333 0.21933076 0.29703158 0.58194965 0.5812849 0.28895265 0.16208711 0.30257088 0.29616368 0.30569273 0.608261 0.58712125 0.22923815 0.2830251 0.22283566 0.45002657 0.6163761 0.6041481 0.1984688 0.02588375 0.44878566 0.46381536 0.5767063 0.61514103 -0.020919576 0.4487934 0.5547356 0.16571054 -0.20091572 0.21152209 0.50833064 0.060409226 0.34203646 0.34486413 0.5983237 0.08332735 0.3850922 0.4233092 0.5909665 0.61052835 0.56513786 0.28819394 -0.028982084 0.4314179 0.44419724 0.2554817 0.37940273 0.4056889 0.41730112 0.2934593 0.3696094 0.35943538 0.1685965 0.11855518 0.30768374 0.52321887 0.6410097 0.6417661 0.5435153 0.52159184 0.62530303 0.6315918 0.5455979 0.51708233 0.6024414 0.6113634 0.54540706 0.5486225 0.5424526 0.5108645 0.44489965 0.52394915 0.3814471 0.2540959 0.28072804 0.2790759 0.2256356 0.1057367 0.27668464 0.017998027 0.2174406 0.22477485 0.31588858 0.40419978 0.4535139 -0.032174133 -0.056515135 0.027254552 0.055039033 0.47029924 0.18574531 0.13075921 0.041501775 0.20567176 0.58002603 0.18117955 -0.25605914 -0.20389426 0.20322634 0.6179935 0.1748803 -0.22678651 0.23923655 0.6210991 0.08298878 0.32298073 0.26491833 0.19574168 0.3075999 0.610989 0.61615777 -0.021733787 0.2733223 0.43183428 0.37731934 0.33440349 0.32672554 0.36911696 0.5436808 0.6119201 0.6308458 -0.10748785 0.08104689 0.13255359 0.4508457 0.49059123 0.4142536 0.33870083 0.39594907 0.19746593 -0.20159546 -0.4051337 0.12718081 0.50910205 0.50365496 0.43316525 0.22017987 0.013333272 0.28036633 0.79780436 0.5535705 0.55682224 -0.497676 -0.4061405 0.40572703 0.8379412 0.8366083 0.816049 0.5523129 0.5683121 0.24104205 -0.28801024 0.4271126 0.7520231 0.8334643 0.8718479 0.8381174 0.5058681 0.4956097 0.4886299 0.43215632 0.2961957 0.36090064 0.3802266 0.7238764 0.76736224 0.7656262 0.43750048 0.13416958 0.10100217 0.27402902 0.32286993 0.3348227 0.62939394 0.6036917 0.62912196 0.14816755 0.17498311 0.42153263 0.14707874 0.18891339 0.30454928 0.5577987 0.42881238 0.45990583 0.3259852 0.4457854 0.4549535 0.4964084 0.23693338 0.42066467 0.39222926 0.31516027 0.3962846 0.44579345 0.45646623 0.36362165 0.43914357 0.53571457 0.4654837 0.42578933 0.44497782 0.46235415 0.46488371 0.27484602 0.31943965 0.3699271 0.4094867 0.36807394 0.37023878 0.36044276 0.4100998 0.4443307 0.4308805 0.41551954 0.4411252 0.46590346 0.45464236 0.42970344 0.4441039 0.41582775 0.43703955 0.39687407 0.35414696 0.28198335 0.25509846 0.04948755 0.34494472 0.29885212 0.1661192 0.15141499 0.25438073 0.2835444 -0.029852137 -0.0102876425 0.049613807 0.37330544 0.47392392 0.55000275 -0.016702324 0.6065851 0.013474911 0.08567755 0.6400901 0.6555323 0.04358743 -0.33195537 0.12645781 0.6659154 0.68397903 0.010379545 0.1580109 0.67863107 0.007043291 -0.23771262 -0.014050856 0.1628176 0.24682161 0.011488706 -0.046451304 0.18322644 0.6547727 0.6720183 -0.26681715 -0.26641732 0.13160789 0.29384765 0.098976925 0.30321255 0.46464944 0.6497811 0.35803902 0.11956249 0.42689967 0.47099176 0.42737073 0.17856663 0.30633205 0.29327387 0.7799046 0.7731984 0.7488908 0.48286182 0.41046613 0.7554501 0.784459 0.7008238 0.5929177 0.45748958 0.3877799 0.7120055 0.437697 0.4483254 0.2935281 -0.11452304 -0.054024335 0.2830449 0.27167827 0.6321535 0.5668722 0.379867 0.1968625 -0.015647065 0.15528865 0.10843858 0.54835534 0.5990644 0.48940197 0.5550041 0.2383198 0.25644872 -0.0045199646 0.09532751 0.039849114 0.47848383 0.44303596 0.41235483 0.25438744 0.33861315 0.36590394 0.30901438 0.26934075 -0.059715718 0.078941524 0.25349668 0.10766488 0.32808912 0.25391558 0.2739632 0.39755797 0.34395576 0.26374087 0.3177493 0.1775316 0.3692166 0.40935338 0.41104838 0.20300585 0.117828235 0.33434135 0.37481213 0.43197492 0.39601013 0.11172007 0.22120783 0.30917603 0.25548792 0.35332862 0.47219124 0.5265087 0.53917074 0.39404485 0.34645972 0.39583766 0.4524099 0.37741593 0.20329313 0.24123043 0.28924897 0.50322264 0.5350828 0.5510947 0.37020066 0.39638355 0.43190438 0.3010171 0.25122735 0.29587343 0.32024422 0.343207 0.23822263 0.27885136 0.24965219 0.102276236 0.08796804 0.20753565 0.2284284 0.27528644 0.20340547 0.2128507 0.29695705 0.31820562 0.2987458 0.025623113 0.29565465 0.2907962 0.33097988 0.30876786 0.33879593 0.21205567 0.33472317 0.39595908 0.35458553 0.36733142 0.478095 0.4648299 0.43658343 0.38655007 0.47129816 0.49001878 0.49162257 0.4879884 0.16860954 0.12967929 0.1333822 0.07224385 0.29973048 0.30540934 0.29951125 0.30192232 0.1293873 0.19953775 0.20417136 0.157446 0.3105045 0.33849388 -0.075618885 -0.019726887 0.08678906 0.35168293 0.22571197 -0.07507965 0.3289662 0.36689794 0.31802583 0.26304275 0.1072345 0.4578512 0.20546307 0.14517295 0.58342266 0.6331539 0.26395565 0.08074305 0.6121493 0.6530138 0.07829882 -0.027339667 0.6874889 -0.48337108 0.6991992 -0.14774811 -0.28868353 -0.14155993 0.048554137 0.7004479 -0.23789936 0.006965697 -0.20322827 0.13190329 0.4691351 0.26474285 0.17104459 0.78351367 0.802471 0.7718578 0.25641537 0.11996638 0.2647077 0.18797228 0.69525385 0.7374703 0.7736534 0.7154971 0.6297701 0.29122117 0.23813759 0.0973565 0.6556117 0.4936293 0.20167416 0.1667012 0.25995782 0.6129541 0.3337562 0.10782066 0.11315574 0.1100954 -0.054707587 0.13221605 0.085101955 0.55291104 0.31671527 -0.034685925 0.09796663 0.13827024 0.004909076 -0.07703617 0.18797183 0.14589703 -0.11527088 -0.07920393 0.08107791 0.12582502 0.51075155 0.108281866 0.18776344 0.22585377 -0.08441326 -0.124615856 -0.31472582 0.08084382 0.12718633 0.4866376 0.44000688 0.24755238 -0.1876404 -0.22480449 0.054978292 0.5903608 0.5648548 0.44784278 0.39152956 0.30631852 0.25037557 0.14454974 0.09669725 0.25334632 0.18875422 -0.19087794 0.06801759 0.6101051 0.61662054 0.58747286 0.26919305 0.19686814 0.20710501 0.11545129 -0.22416991 0.10430476 0.6093978 0.5904105 0.19527572 0.2398754 -0.22932996 0.045644313 0.10411043 0.3934124 0.45861757 0.071470484 0.45161897 0.5125989 0.5110298 0.3788405 0.11880073 0.018022537 0.26503205 0.1676235 -0.024701394 0.03755591 0.30463526 -0.009674951 0.016683877 0.33963835 0.32371658 0.17711207 0.28094283 0.310997 0.3326767 0.30337298 0.13257289 0.409112 0.27504295 0.43578625 0.44605786 0.35142797 0.4411341 0.49167165 0.46924835 0.5725719 0.58501756 0.64627486 0.38220915 0.48830178 0.5316459 0.5284267 0.68697083 0.72689396 0.7268797 0.12570223 0.15176128 0.08733077 0.07459983 0.09440642 0.09303069 0.05585049 0.038201384 0.044761572 0.09041225 0.08567427 0.03911315 0.039110288 0.14881897 0.23299116 0.26098755 0.034756325 0.06479937 0.29646862 0.3306874 -0.13507216 -0.13839987 0.036896676 0.33799037 0.3515329 0.16875371 0.3138977 0.45159575 0.3759866 0.25702047 0.3079052 0.44043118 0.3793869 0.36355376 0.54889494 0.33928287 0.2727896 0.41563147 0.5916988 0.21649955 0.46358517 0.6284099 0.1598756 0.015804932 -0.27998102 0.68089974 0.70758677 0.13713512 0.098409384 0.06655724 -0.40937373 -0.2055203 -0.06042978 -0.15712892 0.6695366 0.310674 0.27738923 0.17407987 0.12142913 0.017472308 0.106563486 -0.18335678 -0.021795295 0.003980376 0.09447231 0.2604499 0.76137346 0.8112302 0.82099545 0.725879 0.33676407 0.34948352 0.3245954 0.21115357 0.07481405 0.035566457 -0.03637626 0.01475206 0.06434722 0.15959373 0.2415475 0.25128195 0.6177061 0.698135 0.6090706 0.32931918 0.2054297 0.015532088 0.07970072 0.15330373 0.23662974 0.29669642 0.34767786 0.43901646 0.57235396 0.40994963 0.2103641 0.2581667 0.0839566 0.21176568 0.216957 0.2505584 0.36461052 0.41320172 0.50067794 -0.12543364 0.10978849 0.098439276 0.19490601 0.28264248 0.2876283 0.18589848 0.35918295 0.40246224 0.5064353 -0.041244008 -0.004365161 -0.013553351 -0.08589889 0.14653185 0.2817936 0.32636073 0.29102984 0.51048267 -0.106078856 -0.15805526 0.13409807 0.13782424 0.2742456 0.2552962 0.5058919 -0.38689685 -0.34765637 0.0897781 0.33884186 0.52491176 0.5149232 0.4989437 0.36033025 0.47573858 0.42498636 -0.32222077 -0.049911283 -0.017745104 0.4214102 0.5621687 0.50853044 0.34648624 0.2244232 -0.01624225 0.49213177 0.58369845 0.5899483 0.5751287 0.5302942 0.11680277 0.13890623 0.049802743 0.5525781 0.5242393 0.30069697 0.12196404 0.41434398 0.37130138 0.19710816 -0.104621604 0.18822333 -0.008773707 0.13822488 0.30996138 0.22059259 0.24269417 0.29886258 0.3319357 0.28143072 0.42365247 0.44930166 0.36196432 0.5337003 0.5636129 0.5948111 0.4580719 0.48077095 0.47754747 0.40992028 0.63874286 0.7174461 0.77269673 0.7521205 0.6766334 0.7770318 0.8186834 0.81057286 0.77376974 0.289247 0.12011673 0.16027604 0.2244767 0.24995483 0.28863677 0.06753002 0.10827917 0.13521685 0.154641 0.19057499 0.20508394 0.117572784 0.07334761 0.05616243 0.09883622 0.0035347864 -0.015307158 0.15308374 0.12436731 0.09835012 0.18936259 0.23610002 0.12621985 0.114995055 0.095961526 0.25396034 0.2832902 0.31724966 0.22302592 0.070416175 -0.06372232 0.2894408 0.31524575 0.43978506 0.28598553 0.28104767 0.51966774 0.48349166 0.4872961 0.50984883 0.026557155 0.17447221 0.37601155 0.0913388 0.30359408 0.25056785 -0.03800682 0.3565925 0.24217626 0.19856733 0.0510223 0.06460044 0.5244409 0.23538254 0.14654602 0.07601684 -0.14100316 0.2053127 0.1683272 -0.08020572 0.0009635985 0.19576184 0.2602194 -0.08002722 0.12761201 0.28958622 0.64690095 0.72475994 0.8061831 0.21110877 0.26617268 -0.16435029 -0.15490538 -0.08697413 0.36978042 0.36520487 0.34937558 0.54787785 0.6081773 0.19592564 0.25937918 -0.36000627 -0.17936023 -0.15729542 -0.15139565 -0.11412452 -0.035588343 0.48096934 0.5406585 0.45003676 0.47616088 0.1677495 -0.30616668 0.14525713 -0.14823239 -0.050698802 0.039526988 0.4336908 0.48792604 0.5463343 0.5477326 0.41309592 -0.09094441 -0.048424236 -0.11355712 -0.021901065 0.07548949 0.23151144 0.35789204 0.43397367 0.4737149 0.49481744 0.5194504 0.41477442 -0.030463018 -0.11304189 -0.06846823 -0.13441265 -0.02850688 0.23699872 0.36332348 0.42329606 0.4098345 0.43579918 0.4675194 -0.07870725 -0.13965857 -0.001819279 0.25048426 0.22658846 0.47791463 -0.07915136 -0.08380139 0.1999918 0.27470985 0.465827 -0.07674133 0.1381157 0.36701035 0.082326986 0.22507674 0.16748804 0.48052925 0.11061414 0.072805956 0.24161355 0.23777294 0.21653572 0.38495418 0.45737684 0.47152227 0.43224895 0.4052056 0.027544565 0.030971043 0.1798095 0.07342297 0.22713682 0.36942232 0.36606312 0.30401188 0.29741728 0.12599812 0.10669891 -0.16306357 0.1380919 -0.07190223 0.046921473 0.18256366 0.1265978 0.19765745 0.15355326 0.19879386 0.18147942 0.28606015 0.28056246 0.4702977 0.46993148 0.3119228 0.3555504 0.38424295 0.32564092 0.6394967 0.59187543 0.71723044 0.80590606 0.89485765 0.8216283 0.72231865 0.2831103 0.3204766 0.176287 0.09720472 0.25529888 0.30036914 0.31005546 0.30234453 0.2505031 0.1646995 0.18039337 0.27057374 0.22348788 0.086142875 0.023432441 0.061231412 0.071789935 0.07457822 0.16096446 0.0895205 0.05387778 -0.09278979 0.2362402 0.18941718 0.14609975 -0.015993148 0.06572361 0.20762269 0.24089105 0.20275971 0.26360992 0.26340657 0.054486677 0.28236222 0.2864278 0.41205028 0.392054 0.47700435 0.44755954 0.51713073 -0.1572766 0.36623347 -0.080570035 0.29145285 0.29499722 0.19950673 -0.23453298 -0.26752117 0.2599571 0.27408117 0.24109739 0.26282445 0.049299523 0.19353871 0.2182984 0.027217597 0.19133018 0.19371757 0.27517754 0.28735822 0.57138205 0.5952305 0.6182579 0.12148848 0.13310455 0.43987393 0.48570645 0.5842059 0.50036025 0.5165702 0.11210778 0.58300006 0.63530403 0.41256204 0.40405214 0.63562876 0.3080759 0.5229261 0.3112784 -0.29337943 0.38277435 0.46292597 0.42723525 0.4472209 0.34532684 -0.262713 -0.22262421 -0.2775042 0.19080368 0.36644173 -0.074221134 -0.2033326 -0.03323597 0.42283368 0.060229123 0.058271855 0.07022226 0.11727229 0.60295343 0.6961514 0.73438686 0.341375 0.34479144 0.5392293 0.67603683 0.7471469 0.76957715 0.08752398 0.23226039 0.23953345 0.2064465 0.14788073 0.30486515 0.35784936 0.4282598 0.62350297 0.74279153 0.7795342 0.1259266 0.050045237 -0.085372016 0.11268202 0.19174048 0.21845226 0.21131268 0.18131498 0.22529514 0.24504429 0.62600935 0.71671605 0.0865272 0.020610325 -0.19056857 0.028436754 0.038036287 0.23956461 0.24121736 0.23033233 0.19345158 -0.18713504 0.027400907 0.021673653 0.40474176 0.3914919 0.08897576 0.12741888 0.6197731 0.5632943 0.4204368 0.16711456 0.15262783 0.65785146 0.64778614 0.16682768 0.63083243 0.53187674 0.42081273 0.13973014 0.41681832 0.21929908 0.42672846 0.016824074 0.0368496 0.1678658 0.15784003 0.25254926 0.4693917 0.6130466 0.47179025 0.338347 0.7518275 0.7953814 0.70997584 0.5697798 0.635855 0.6143436 0.5581417 0.31644464 0.33611354 0.3498043 0.6085149 0.5767703 0.49983945 0.31801572 0.31096122 0.33792773 0.31578612 0.29456234 0.5309315 0.47667998 0.40309626 0.10707117 0.1646372 0.28568548 0.24281767 0.39314258 0.37197128 0.20163062 0.29314283 0.29284376 0.15596578 0.15737107 0.18166658 0.18555824 0.08669781 0.24223822 -0.013435379 0.20458281 0.2539361 0.30365223 0.29575104 0.24843875 0.45698267 0.25495592 0.24827874 0.06244193 -0.3016197 0.23549642 -0.085436165 -0.039467692 0.27989897 0.29833177 0.21692097 0.24689494 0.03473226 0.16940053 0.10488097 0.1740044 0.4037032 0.16624859 0.16047618 0.21805322 0.1871799 0.38425252 0.29343456 0.49069887 0.6062497 0.36279538 0.276144 0.66092896 0.26114318 0.69882613 0.20168099 0.5341878 0.11042941 0.19529623 0.2634279 0.30159196 0.13530189 -0.11245163 0.24658133 0.3463315 0.41529036 0.22605807 -0.1078026 0.63697195 0.23547561 -0.13654913 -0.13437535 0.70098805 0.685614 0.1385123 0.026393428 0.74859715 0.7319051 0.24472389 0.7711989 0.7511238 0.31953502 0.1664462 -0.17510119 0.18697262 0.18192077 0.29411095 0.37713373 0.58969957 0.7058512 0.7560152 0.20709443 0.18387473 0.052020308 -0.27098322 -0.3913084 0.18015608 0.25300094 0.040379472 0.047056243 0.14790225 0.15476389 0.17507303 0.2331444 0.3573354 0.31280696 0.099468745 -0.09740908 0.2843275 0.31593454 0.32763252 0.6167588 0.46878797 0.2636162 0.046597585 0.42764115 0.422057 0.36426392 0.62080824 0.63615584 0.4497286 0.64971477 0.1935961 0.6420316 0.6142728 0.11724916 0.581503 0.535256 0.3916486 0.055483773 0.17555967 0.12139226 0.49685425 0.50493556 0.41872823 0.010893556 0.651592 0.6228836 0.6264419 0.6548548 0.6272325 0.56457126 0.44284546 0.3191597 0.35763097 0.36444068 0.33197087 0.6108955 0.62777936 0.21475425 0.2889036 0.24466601 0.52234805 0.52260065 0.20369445 0.30810833 0.41815546 0.40157974 0.4190436 0.3729285 0.46305168 0.19025263 0.4518609 0.2055444 0.16861632 0.21118836 0.15250726 0.18781823 0.20894253 0.3108199 0.32282493 0.3089202 -0.25412825 0.18529245 0.011229881 -0.07525475 0.12912941 0.42697376 0.07637846 0.08292665 0.049909867 0.481894 0.39162 0.23568594 0.18751654 0.19527112 -0.08774108 -0.021987624 0.442915 0.4137818 0.3077476 0.04351286 0.34795856 0.23674564 0.006431915 0.18627715 0.30739993 0.26564983 0.25832683 0.21190141 0.5505054 0.45526412 0.06591299 0.058076233 0.1419232 0.4322018 0.49487767 0.5858628 0.3213539 0.6526233 0.121973276 0.15166275 0.68515235 0.03654311 0.6558486 -0.050809305 0.11791684 -0.007662751 -0.1144066 -0.15094021 0.367011 -0.024450548 -0.20358114 -0.31583792 0.13172185 0.04354254 0.656973 0.45870999 0.35965478 0.6904893 0.4824354 0.47269815 0.7057815 0.7024574 0.5176128 0.68007386 0.71083945 0.47338256 0.4031976 0.278533 -0.29002964 0.20791501 0.0074063158 0.15960798 0.18349828 0.29238963 0.36759865 0.30057466 0.22095135 -0.25107384 0.30393395 0.26829794 0.31938192 0.19306612 0.21284 0.18763757 0.20987795 0.61048937 0.11119734 0.3326488 0.4281361 0.38217574 0.33209813 0.5922704 0.20139325 0.18517262 0.48363733 0.52357066 0.49657482 0.43485436 0.39195204 0.6015414 0.5934081 0.17637557 0.53351754 0.59116775 0.54330343 0.14661667 0.1715774 0.5567137 0.51131845 0.12892114 0.16672781 -0.036267914 0.028764598 0.23858842 0.18685281 0.4763353 0.32369253 0.19517739 0.12543572 0.23845597 0.35582942 0.32638854 0.6222279 0.57317746 0.324282 0.35412374 0.3393336 0.63813424 0.6490334 0.5253095 0.36754757 0.21271029 0.3459239 0.34680155 0.30198714 0.5977364 0.24091063 0.16811159 0.49772036 0.34553462 0.42850608 0.47491133 0.36964366 0.49934208 0.20881756 0.49637336 0.46974364 0.08639899 0.31177086 0.14567931 -0.072204575 0.08609956 0.13422166 0.18205968 0.26978484 0.1258087 0.21933137 0.26780078 0.15189965 -0.2515349 0.017796233 0.040154964 0.53881145 0.5085969 0.42364156 0.34012163 0.23228942 -0.15987177 -0.0810299 -0.12852111 -0.13620488 0.5289058 0.51929 0.23753193 -0.19056475 -0.13092324 0.48605418 0.01326295 0.0077084824 0.49873942 0.44768435 0.36919606 0.2274876 0.35745496 0.39656454 0.42664653 0.39939445 0.35638756 0.37209618 0.28889382 -0.07407656 -0.13736361 0.27130514 0.32141155 0.47556776 0.50748 0.4513949 0.19380942 0.45778352 0.3436274 0.4481315 0.24441262 0.23878172 0.6045028 -0.030622462 0.3893668 0.3781636 0.04919696 -0.19764961 0.25735486 -0.05231805 -0.17242464 0.4369011 0.41802797 0.24010366 0.5325537 0.5928915 0.47526342 0.5508225 0.60772055 0.5037739 0.51718223 0.59804875 0.5374089 0.47208142 0.5431019 0.5136037 0.48798174 -0.22379354 -0.36343804 0.09789501 0.27213553 0.3339301 0.45643452 0.43517202 -0.194022 -0.23806866 0.23624903 0.22573811 0.23260064 0.2540109 0.35618812 -0.17256065 -0.1534896 0.3568326 0.35036898 0.41731694 0.19196013 0.37875158 0.41324243 0.4562599 0.4031623 0.3536825 0.48762232 0.45935944 0.14925791 0.43728 0.4867334 0.5315938 0.47371346 0.49788642 0.4582841 0.19173339 0.16320296 0.46930438 0.40368706 -0.043696247 -0.35237253 -0.07921317 0.30112135 0.23739056 0.29510355 0.16615696 0.053905673 0.04823009