# vtk DataFile Version 2.0
Really cool data
ASCII
DATASET POLYDATA
POINTS 8950 float
-84.58663 -40.294838 73.96757
-84.64977 -40.24588 74.43762
-84.518936 -40.400272 78.5161
-84.539825 -40.56931 78.96592
-84.61311 -39.619484 74.03685
-84.71754 -39.50169 74.50414
-84.62101 -39.287613 75.10704
-84.594666 -39.074345 74.10031
-84.62515 -39.058 74.57447
-83.77925 -42.653908 74.6877
-83.88774 -41.86624 73.1669
-83.88106 -42.260246 73.74605
-84.02607 -42.242046 74.47266
-83.92984 -42.260864 75.13488
-83.69174 -42.493393 78.12772
-83.88831 -42.288815 78.72285
-83.82221 -42.27175 79.39124
-83.69914 -42.038017 79.92811
-83.88542 -41.368958 73.059135
-84.21858 -41.414097 73.686554
-84.4102 -41.359478 74.467445
-84.414825 -41.168438 74.980545
-84.236244 -41.35872 78.71578
-84.18962 -41.410595 79.30272
-83.859505 -41.293526 80.0197
-83.827736 -40.4548 72.827324
-84.40896 -40.52154 73.69657
-84.463104 -40.75199 74.50382
-84.255516 -39.966003 75.613335
-84.010925 -40.31146 75.814804
-84.17623 -40.27806 77.85864
-84.46965 -40.361774 78.78062
-84.31817 -40.4478 79.40839
-83.96058 -40.557255 79.93622
-84.132225 -39.701916 73.174
-84.39695 -39.508884 73.63836
-84.49876 -39.282223 75.36312
-84.15952 -39.954872 75.99181
-83.813324 -39.452793 77.99802
-84.2795 -39.748314 78.57386
-84.197014 -39.834652 79.3529
-83.9458 -39.938057 79.781845
-84.17473 -38.712124 73.864105
-84.41041 -38.731945 74.49373
-84.33732 -38.88437 75.172424
-83.89576 -39.251526 78.60145
-83.85535 -38.2842 74.351524
-83.25113 -42.86621 73.73127
-83.30419 -42.938225 74.52804
-83.25933 -42.913406 75.05122
-82.92889 -43.151005 78.06237
-83.33199 -42.998234 78.73148
-83.208954 -43.019985 79.400246
-83.04049 -42.96078 79.85607
-83.33029 -42.152386 72.868355
-83.5896 -42.446182 73.45601
-83.652596 -42.500225 75.39414
-83.50599 -42.650146 78.055046
-83.59544 -42.54888 79.69696
-83.37822 -42.228806 80.206795
-83.036644 -41.911808 80.73245
-83.163506 -41.56644 72.42389
-83.3392 -41.479855 72.53635
-83.43015 -41.45437 80.44126
-83.0237 -41.479324 80.842
-83.37066 -40.71134 72.5445
-83.50279 -40.58437 80.29725
-83.11138 -40.933502 80.74825
-83.623085 -39.42539 72.80168
-83.44797 -39.728886 77.29652
-83.700966 -39.482548 79.58684
-83.36586 -39.664627 79.94543
-83.46179 -38.823147 73.06662
-83.71065 -38.54504 75.45281
-83.12949 -38.922558 78.700905
-83.38411 -39.238544 79.52382
-83.6111 -38.350346 73.64996
-83.29435 -38.15011 74.63768
-83.71992 -38.381042 75.195114
-82.16221 -43.5912 75.43288
-82.11618 -43.820835 77.96032
-81.79778 -43.752228 79.11936
-82.41739 -42.71175 72.93411
-82.38194 -43.2069 73.76043
-82.446205 -43.302803 74.62675
-82.28953 -43.524754 75.45492
-82.350975 -43.625206 76.12843
-82.52693 -43.277393 79.404625
-82.363144 -43.09914 80.259735
-82.060196 -42.052746 72.231255
-82.73851 -42.305283 72.602005
-82.36092 -42.102684 80.98251
-82.40776 -41.27369 72.111664
-82.47809 -41.465164 81.05038
-82.528915 -40.623 80.83425
-82.53758 -39.324978 72.29199
-82.34915 -39.808094 80.36469
-82.35152 -40.18878 80.605835
-81.659744 -38.37499 71.89667
-82.47274 -38.721004 72.41259
-82.63381 -38.68633 78.76136
-82.5027 -39.023724 79.299904
-81.81051 -37.30387 71.74904
-82.20145 -37.57812 72.733955
-82.71408 -37.827713 74.66776
-81.89244 -37.830963 76.54464
-81.60095 -37.419666 78.32461
-81.76062 -36.516083 71.83158
-81.6777 -36.43106 73.23823
-81.63586 -36.91842 73.99988
-81.582886 -35.985767 71.941315
-81.64276 -36.12981 72.23229
-81.62672 -36.037888 73.08843
-80.794846 -44.980568 80.08884
-80.77451 -44.981163 80.66107
-80.74627 -44.900658 81.08312
-81.31596 -43.672836 74.46167
-81.38412 -44.247402 76.60117
-81.41582 -44.242447 77.34936
-81.36606 -44.153946 78.1074
-81.27092 -44.38057 80.491035
-80.905334 -44.326813 81.33146
-81.062256 -43.15709 73.38282
-80.99323 -43.85278 81.4612
-80.86576 -43.756332 81.75123
-81.01986 -42.22316 71.87775
-81.43127 -42.423782 81.23844
-80.66034 -42.362198 81.98743
-81.43291 -41.497208 71.927155
-81.29097 -41.71142 81.351105
-81.672066 -40.893208 71.854965
-81.484116 -40.94469 81.12895
-81.63429 -39.866486 72.047386
-80.83224 -38.687347 71.425354
-81.11585 -37.21707 70.84945
-81.42377 -37.48554 76.68452
-81.25862 -37.721153 79.396484
-81.1574 -36.566025 70.87525
-81.279564 -36.12846 75.7209
-81.45667 -36.570396 76.74923
-81.25858 -36.43842 77.351585
-81.20632 -36.45429 78.62036
-80.85392 -36.25131 79.198425
-81.03808 -35.898216 70.98717
-81.28126 -35.78464 71.65398
-81.54196 -35.93468 72.15275
-81.280106 -35.64425 72.98369
-81.05835 -35.214443 75.67388
-81.205444 -35.75086 76.60745
-81.16832 -35.929176 77.06963
-80.97693 -35.058098 72.64992
-80.9479 -34.630333 73.53681
-80.97287 -34.069084 74.47244
-80.9175 -34.472733 76.66477
-80.95513 -34.19738 79.697205
-81.124115 -34.06127 80.52568
-80.79821 -34.172344 81.22623
-80.691795 -33.614727 73.52307
-81.07156 -33.48528 74.35195
-81.05619 -33.474564 75.209015
-80.97006 -33.482815 76.264366
-80.73677 -33.502438 78.85908
-81.121315 -33.2508 79.52498
-81.30923 -33.32319 80.444786
-81.06113 -33.351578 81.27401
-80.72529 -33.50162 81.6915
-80.88749 -32.76247 73.843864
-81.03432 -32.204887 74.51436
-81.08018 -32.482822 75.409805
-80.925514 -32.629814 76.603134
-80.73445 -32.30696 77.36232
-80.760254 -32.418945 78.68789
-81.24287 -32.091423 80.1188
-81.35581 -32.539005 80.50249
-81.19657 -32.649452 81.21586
-80.908195 -32.559597 81.76791
-80.78245 -31.562126 73.82387
-81.06027 -31.501862 74.80713
-81.067055 -31.34003 75.665344
-80.95596 -31.568304 76.528114
-80.85902 -31.032768 77.461464
-80.867645 -31.465868 79.04757
-81.112885 -31.73125 79.8067
-81.295815 -31.500853 80.653206
-81.13473 -31.56097 81.31662
-80.82527 -31.69235 81.90149
-80.64453 -30.526028 73.95011
-80.8338 -30.560247 74.46785
-80.85073 -30.529505 75.387215
-80.778206 -30.504765 76.54064
-80.930305 -30.877165 76.92568
-80.69058 -30.586508 78.404816
-80.615974 -30.97419 79.39458
-81.06405 -30.92251 80.55582
-80.951706 -30.892889 81.201004
-80.71692 -29.952156 74.71817
-80.731674 -29.772165 75.42542
-80.64833 -29.49348 76.63566
-80.63942 -29.783016 77.211464
-80.53074 -29.862234 78.93785
-80.52527 -26.205898 86.012276
-80.56348 -26.28502 86.64565
-80.52737 -26.611603 87.06544
-80.56441 -25.420885 86.68764
-80.5619 -24.76046 86.02227
-80.52926 -24.655914 86.49719
-79.66398 -45.842594 69.679375
-79.72082 -46.174683 70.607666
-79.762276 -46.366856 71.44559
-79.88775 -45.962315 71.91271
-79.90175 -45.66023 80.31625
-79.88977 -45.59598 81.01972
-79.71001 -45.523247 69.5511
-80.01898 -45.439957 70.65359
-80.05029 -45.597095 71.74118
-79.7863 -45.716255 72.45763
-80.29191 -44.58944 77.939064
-80.37792 -45.21141 80.012886
-80.332756 -45.35569 80.58384
-80.26491 -45.1855 81.235466
-80.02105 -44.90517 81.81062
-79.66724 -44.626423 69.537224
-80.02335 -44.382256 70.69589
-80.5175 -44.20433 75.84233
-80.5581 -44.487396 76.20167
-80.7137 -44.45829 77.20271
-80.492226 -44.694695 81.562775
-80.165886 -44.430405 82.00818
-79.56384 -44.124596 69.57115
-79.75345 -43.15206 71.106606
-79.88938 -43.93044 71.24274
-80.08109 -43.646545 82.33005
-79.90739 -42.56764 82.507454
-79.814285 -40.862923 67.53978
-79.86548 -40.88184 68.3245
-80.346085 -41.734238 82.00688
-79.88059 -39.917274 66.13493
-80.05467 -40.103287 66.66775
-80.1627 -40.206768 67.66012
-80.06854 -40.35086 68.2031
-79.6468 -40.278572 69.40364
-80.41215 -40.610016 81.17923
-80.013435 -39.355095 66.02524
-80.24165 -39.464233 66.4386
-80.37875 -39.272366 67.48112
-80.12133 -39.15461 68.41971
-79.72168 -39.049007 69.90452
-80.78128 -39.80523 71.82201
-79.95474 -38.85618 65.97931
-80.27035 -38.6843 66.69738
-80.28529 -38.42251 67.37832
-80.18462 -38.683334 68.08108
-79.90539 -38.945477 69.41871
-79.88281 -38.786194 70.5888
-80.47124 -38.716152 80.26804
-79.704636 -38.15172 66.09714
-79.90336 -38.04917 66.44573
-79.703476 -37.45567 67.67282
-79.9009 -37.721806 68.115944
-80.31246 -36.947697 70.43167
-80.55935 -37.018963 79.78678
-80.47679 -35.83647 70.723015
-80.356834 -35.751133 79.078896
-79.93216 -35.0872 80.5638
-80.395325 -34.70657 81.06913
-79.93829 -35.248573 70.98618
-80.576195 -35.193356 71.37418
-80.556526 -34.694523 72.94211
-80.233925 -34.19615 77.65094
-80.2442 -34.4754 78.731735
-80.33066 -34.379368 81.448074
-80.216896 -33.997555 81.87156
-80.543594 -33.877846 73.3598
-80.50204 -33.216003 77.51917
-80.42163 -33.047348 78.18099
-80.49432 -33.32228 81.916046
-80.041595 -32.52521 72.96385
-80.39453 -32.344925 82.13873
-80.44572 -31.77327 82.19747
-80.16822 -30.689138 73.13762
-80.51396 -30.658619 73.610565
-80.45764 -30.531576 81.60992
-80.14225 -30.763832 82.137146
-80.11912 -29.885502 73.81365
-80.53507 -29.673311 74.73363
-80.48096 -29.456192 75.90623
-80.486084 -29.462645 76.48409
-80.49817 -29.299574 77.31377
-80.49262 -29.828459 79.07689
-80.419014 -30.256302 80.415276
-79.756 -29.80101 81.49332
-79.68419 -29.36632 85.91193
-79.72852 -29.46657 86.36393
-79.75941 -29.117409 87.175156
-80.08512 -29.041592 75.0426
-80.21021 -28.956806 75.394905
-80.25548 -28.916893 76.11334
-80.2614 -28.663641 77.61614
-80.291916 -28.68342 78.09864
-80.05177 -28.091341 85.89597
-80.06124 -28.25121 87.69068
-80.13021 -28.2161 88.33124
-80.071106 -28.03001 89.24239
-79.81734 -27.882206 89.87281
-79.88115 -28.159145 77.41124
-79.91327 -28.192173 78.1602
-79.71224 -27.082829 84.89509
-79.974106 -27.466835 85.5254
-80.37265 -27.40596 86.65099
-80.37566 -27.219435 87.341675
-80.33344 -27.388025 88.57724
-80.14359 -27.479912 89.374954
-79.85899 -27.49386 89.87864
-80.05411 -26.615751 85.19411
-80.28738 -26.725145 85.80772
-80.46566 -26.131527 86.86899
-80.44264 -26.748444 87.391205
-80.18102 -26.375061 88.69642
-80.15342 -26.798277 89.29581
-79.67095 -26.499636 90.43004
-79.768364 -26.072594 91.26713
-79.96 -25.52875 84.86119
-80.37307 -25.499943 85.60779
-80.43392 -25.463776 86.746475
-80.45078 -25.348862 87.172386
-79.700615 -25.672915 89.20032
-79.767136 -25.329222 90.84537
-79.70841 -25.487799 91.41624
-79.94723 -24.551376 84.81893
-80.361145 -24.425201 85.66275
-80.46403 -24.577196 86.33543
[...]
POINT_DATA 8950
SCALARS features_00 float 1
LOOKUP_TABLE default
0.6099194 0.6103475 0.65108705 0.684479 0.63034594 0.62944555 0.6091466 0.6408758 0.6354152 0.48517805 0.574903 0.5656558 0.5473721 0.48673064 0.487045 0.55934894 0.57591784 0.59006333 0.57065535 0.5894902 0.5916871 0.58880925 0.6254044 0.6403557 0.6261697 0.53692603 0.59751683 0.5995662 0.52981627 0.47593355 0.52148396 0.6787306 0.69088554 0.6597316 0.5772586 0.61854506 0.5853764 0.44442412 0.5484733 0.6554022 0.6959219 0.67822826 0.6317963 0.63472366 0.5966382 0.64018214 0.6072771 0.50644356 0.4362802 0.38419795 0.36515877 0.47534525 0.4920929 0.5004021 0.54566455 0.55565727 0.3939523 0.4498498 0.55611706 0.56227434 0.5257019 0.49352583 0.511657 0.58140016 0.5231972 0.48121098 0.61467576 0.5465873 0.5061683 0.3307873 0.66472805 0.6279616 0.5196301 0.5018418 0.5623116 0.6300645 0.5760447 0.5253551 0.53952515 0.23016158 0.23194987 0.24255668 0.5093024 0.42928582 0.33104688 0.23911011 0.18364361 0.40089726 0.43787885 0.40943468 0.5056727 0.4473492 0.37666023 0.45134646 0.47261477 0.28946915 0.46676925 0.45746627 0.19977164 0.2796613 0.43324548 0.47877383 0.34209937 0.2956345 0.3131435 -0.03005727 0.05026394 0.33697444 0.17932823 0.031947944 0.3059457 0.27633578 0.16729693 0.424841 0.48786384 0.504318 0.24963169 0.13031122 0.1369928 0.15485823 0.4133079 0.4767958 0.38451892 0.43799257 0.43308532 0.18324122 0.32459635 0.29681695 0.24151617 0.29130754 0.23821068 0.2865811 0.16840231 0.00143902 0.38896704 0.042214483 0.14971799 0.43291163 -0.036079496 0.02642617 0.029853083 0.050650574 0.08030659 0.42184755 0.3467485 0.2762239 0.15388054 -0.022578612 -0.021032467 -0.0027093738 0.16655864 0.01681976 0.0666727 -0.07002759 0.3015782 0.48617044 0.4715271 0.056264073 0.1301899 0.1427212 0.04452329 0.09852414 0.28055215 0.48423693 0.5111781 0.47659123 0.17622264 0.25617534 0.21219906 0.08721287 0.045922715 0.11090156 0.38965133 0.47592396 0.5269735 0.50993854 0.26972932 0.30070832 0.273472 0.18609065 0.13510959 0.17418212 0.31601617 0.4490678 0.50828326 0.50203747 0.29766244 0.31764993 0.3078738 0.24682346 0.19392769 0.12706243 0.21720172 0.39081615 0.45487702 0.31983304 0.3083685 0.26849502 0.22621936 0.1639038 0.31718966 0.3048744 0.28380042 0.3568152 0.4523903 0.45322937 0.59711385 0.5389255 0.48159397 0.44585592 0.4793669 0.51745355 0.5954554 0.54909307 0.4811855 0.37397832 0.039546408 0.43512633 0.5002928 0.52110463 0.51917714 0.50209075 0.42291906 0.10236494 0.076809354 0.07379614 0.5096785 0.5005133 0.4054451 0.097575456 0.29552805 0.44547832 0.34453207 0.52538335 0.41421285 0.24923964 0.6054073 0.6083914 0.55101705 0.45912644 0.1918226 0.09602259 0.6511065 0.66061753 0.6103822 0.4249458 0.05090393 0.0032761581 0.6597941 0.67395806 0.63146174 0.5224658 0.22991204 -0.21756856 0.046093456 0.61445093 0.61022556 0.4852249 0.48320788 0.31635523 0.17322929 0.36170006 -0.009522229 0.33284873 0.41639346 0.27065635 0.36698455 0.08664772 -0.09239784 -0.032644615 0.4120172 0.40008563 0.02418831 -0.033377074 0.009073921 0.45598978 0.117056414 0.46977735 0.46811593 0.24278922 0.27477837 0.42529345 0.3889426 0.2819273 0.31607884 0.29521716 0.27627325 0.24118425 0.16845512 0.31292748 0.2940423 0.2605219 0.28181493 0.2898448 0.2995557 0.2973883 0.28353396 0.2545304 0.23796788 0.24948934 0.29570523 0.3286354 0.34315127 0.31549725 0.27078205 0.2453821 0.20432428 0.24081436 0.2788821 0.27641287 0.3332963 0.34206682 0.31960315 0.28229904 0.29309002 0.30391163 0.2766251 0.31161362 0.33004534 0.30611917 0.35954353 0.40754265 0.38431162 0.3508638 0.32759997 0.2992504 0.4178223 0.43132216 0.5302925 0.5146067 0.47201937 0.436089 0.47633922 0.49604344 0.56409335 0.5749221 0.5650817 0.5348618 0.592239 0.58403456 0.56062764 0.6138507 0.530744 0.4603316 0.39614183 0.6435026 0.6199236 0.5438426 0.47874343 0.38832432 0.2242994 -0.005469598 0.42584473 0.48914245 0.5110127 0.60557073 0.63457686 0.62171394 0.22609128 0.11677055 -0.04386025 0.009580389 0.04669654 0.21776447 0.40925428 0.5208167 0.5202403 0.49153632 0.4711989 0.45734075 0.28368473 0.42027292 0.3423522 0.1758586 0.03215837 0.37469834 0.41612715 0.4595883 0.2603549 0.29492798 0.5435174 0.54285383 -0.24778776 0.00826232 0.06288636 0.60224444 0.5802249 -0.058384117 -0.09048515 0.57819366 0.62458354 -0.041537717 0.5329912 0.5191693 0.37243083 -0.07226015 0.4877385 0.46056885 0.40863097 0.0044616237 0.08029259 0.1444865 0.08395594 0.25279292 0.22665408 0.13986258 0.33615673 -0.06624355 0.04605494 0.19305196 0.21177833 0.14005664 0.379915 0.4299736 0.30268437 0.19304623 0.19199741 0.30407476 0.3268676 0.34742856 0.4806658 0.38889545 0.22322966 0.06259646 0.2902301 0.32653868 0.32692036 0.3198967 0.5523874 0.44998026 0.24702902 0.23997429 0.060228627 0.20505223 0.310699 0.2799527 0.27211082 0.20104465 0.2539633 0.063177496 0.31110716 0.2707281 0.31613344 0.55662894 0.2709831 0.25729153 0.21660897 0.05517458 0.0043762233 0.03505346 0.07355295 0.15129623 0.2892995 0.36132616 0.4652807 0.58668494 0.6162209 0.21685763 0.030999688 0.03863275 0.36228725 0.459166 0.57592905 0.62480867 0.39720637 0.5044523 0.60288024 0.50152725 0.48378855 0.5115693 0.558259 0.6155888 0.5607895 0.39495128 0.42053196 0.5373372 0.5977123 0.5711921 0.59181154 0.5797454 0.5284402 0.4306091 0.6241962 0.61549693 0.532119 0.44123414 0.34723058 0.63815534 0.2553982 0.102415554 0.005644545 0.028964423 0.08202581 0.31563133 0.40659326 0.4675315 0.59965694 0.0399958 0.2958796 0.4778922 0.476825 0.55026627 0.5683089 0.43658665 0.32338715 0.40217763 0.21068114 0.35294092 0.3177148 0.36454716 0.5239315 0.5399 0.41788423 0.07498888 0.104513675 0.3484307 0.4631675 0.5639116 0.523535 -0.115223244 0.25718987 0.41982096 0.55028063 0.51426345 -0.06650709 -0.2273893 0.7102443 0.7166263 0.683373 0.42493874 0.35168684 0.35789555 0.15874092 0.0048089623 0.6842544 0.6804894 0.66581863 0.632977 -0.030290145 0.17632869 0.17085624 0.6278902 0.6497631 0.62623143 0.1704694 0.09914975 0.5817715 0.5913876 0.59668124 0.23236471 0.089438505 0.36656386 -0.09916079 0.2683224 0.30972385 0.4489346 0.43238068 0.3045919 0.50716066 0.5095448 0.16718522 0.5660483 0.6034626 0.1375361 0.12772489 0.63165724 0.6011517 0.47327647 0.3217083 0.20212504 0.14593156 0.20879193 0.3884012 0.5638946 0.61932933 0.57964766 0.32896978 0.27535123 0.6304922 0.62688303 0.1918011 0.20583515 0.17932993 0.15074407 0.037757065 0.039964728 0.6280859 0.6231354 0.11055203 0.063293345 0.03308334 0.005361288 0.6369081 0.64465845 0.6490203 0.4407671 0.51713914 0.22941124 0.5484486 0.6155906 0.6571337 0.5325941 0.5887575 0.4878459 0.37298465 0.37679753 0.59287167 0.57212126 0.5104652 0.57342076 0.47870433 0.17537613 0.13662967 0.09731874 0.023546524 0.58266306 0.540735 0.047416933 0.087332554 0.09408966 0.21588542 0.31724697 0.5047433 0.47098517 0.3986013 0.46175697 0.4302022 0.374047 0.16739272 0.41091657 0.39734405 0.24601273 0.21481697 0.42347604 0.48040414 0.5425457 0.30567205 0.29742593 0.058186434 0.6036004 0.3664278 0.34838772 0.5592706 0.60495985 0.3917678 -0.26671085 0.036058135 0.17728743 0.20808634 0.3443241 0.4553805 0.69678783 0.7039523 0.65033007 0.57903504 0.4006083 -0.01998901 0.14822735 0.16592397 0.24966712 0.64133406 0.6904757 0.6610298 0.54998237 0.46477228 0.3263387 0.37426183 0.1827735 -0.22730666 0.6374781 0.6323042 0.587273 0.48739326 0.1436859 0.042576447 -0.11689846 0.055292763 0.087724395 0.5408021 0.56514746 0.5902082 0.54460746 -0.18131989 -0.14035647 0.4987184 0.53945816 0.56126493 -0.13791151 0.46114975 0.4362106 0.34944475 -0.012555832 0.069704995 0.16459405 0.15800652 0.4206425 0.13823213 0.49748093 -0.015402794 0.59292257 0.008211959 -0.03945464 0.6037056 0.6222209 0.4172149 0.52851206 0.623613 0.6009568 0.5683863 0.45093992 0.3796075 0.2256716 0.6252145 0.61885333 0.13062003 0.12976545 0.12973908 0.61828303 0.09313205 0.11636986 0.11186733 0.0348423 0.6242498 0.037447315 -0.016436704 0.6552571 0.21331269 0.16851985 0.50205886 0.6043004 0.65408874 0.66995656 0.4490566 0.51004183 0.29733083 0.18360125 0.38044667 0.4923544 0.56048936 0.58209074 0.5620881 0.4960022 0.30013108 0.2620592 0.2485986 0.17961079 0.2256014 0.4593166 0.2326482 0.15160754 0.46693677 0.037215896 0.12844494 0.32561967 0.40223175 0.15673096 0.19218035 0.28446352 0.53344065 0.5352175 0.19236378 0.3685539 0.5108431 0.47074422 0.5010195 0.28015265 0.27127513 0.36278376 0.39027286 -0.030929066 0.25128338 0.3692351 0.2919032 0.10172894 0.067339756 0.41952658 0.14677778 0.21614169 0.5670816 0.55582595 0.2571299 0.51400924 0.40448138 0.6644509 0.6017138 0.5949384 0.20891832 0.39333615 0.38660496 0.6411361 0.44916618 0.1984136 0.20877723 -0.09452537 0.21860532 0.5898808 0.4367574 0.36179262 -0.1893238 -0.14878157 -0.08718395 0.5589297 0.39073122 0.34696764 0.28436837 0.22354925 -0.34405476 -0.17409933 0.04508682 0.39785928 0.4268403 0.41902483 0.39826357 0.32118022 0.21436812 0.02668254 -0.11142181 0.019064635 0.07791065 0.054696757 0.004656188 0.35862088 0.48180035 0.43528235 0.15363815 -0.14258151 0.015695322 0.023877848 0.018122198 0.10613554 0.28684047 0.25019372 0.37562233 0.41164204 -0.13253805 -0.041166738 0.2606487 0.401434 0.14430729 0.025989516 0.51277447 -0.19746266 -0.11746407 0.5744291 -0.11920997 -0.11088077 0.58560336 0.5755673 0.5701987 0.5608026 0.5491721 0.45100808 0.31312016 0.24469963 0.61197305 0.05492477 0.04817529 0.021589965 0.6240355 0.041780077 0.6248512 0.62669134 0.16258758 0.0140007995 -0.08682787 0.6352118 0.6414243 0.26219904 0.043862022 0.24741477 0.43844187 0.52723575 0.6254295 0.45198926 0.2890651 0.4749127 0.54242307 0.4923966 0.45946667 0.47258276 0.4506839 0.4827556 0.45119667 0.41994208 0.3134483 0.2969477 0.3514776 0.30100203 0.20592171 0.25778237 0.23086926 0.17197755 0.14871591 0.06972536 0.27069172 -0.07915189 -0.07381455 0.0021604733 0.014439255 0.027806206 0.4697519 0.5063264 0.50994575 0.16140983 0.035398815 0.009571206 0.13673002 0.49708152 0.5183375 0.5357227 0.5343159 0.5101365 0.4503487 0.10847377 0.49983174 0.4917317 0.4575749 -0.003931433 0.4148636 0.3948811 0.44634742 0.41911593 -0.05574912 0.33014965 -0.020138443 0.32518995 0.1367892 0.2428578 0.21325535 0.22745398 0.4401054 0.21015523 -0.049523823 0.2343719 0.19031215 0.16760996 0.24792713 0.41071862 0.27284122 0.15944748 0.2163363 -0.0822832 -0.069037855 -0.10692818 0.2875269 0.2705556 0.27835327 -0.07008615 -0.0032170936 -0.034143906 -0.11629671 0.36200663 0.30786 0.38161016 0.38767445 -0.16921756 -0.13135247 0.40623415 0.3750142 0.4157939 0.38946125 0.25188136 0.20819712 -0.06665983 -0.09222836 -0.037809577 0.04147957 0.40431097 0.3573644 0.07958701 -0.22076406 -0.16088748 -0.050222248 -0.07577494 0.043876246 0.20854133 0.31739885 -0.33848345 -0.12724327 -0.09879388 -0.0054754224 -0.21504825 0.48659253 0.48333627 0.5181095 0.5120215 0.4326903 0.47866434 0.37408957 0.2479997 0.09642973 0.6197071 0.123019785 0.104489386 0.09417863 0.6501508 0.0821188 0.644331 0.19051999 0.5306336 0.30204204 0.30038038 0.24316238 0.3358719 0.42132065 0.50387657 0.32568616 0.28792617 0.37512082 0.37348676 0.37245917 0.30394167 0.39840978 0.39328486 0.5578531 0.48844928 0.53094745 0.5718045 0.5800985 0.42461574 0.48233423 0.49532148 0.48434526 0.30555186 0.30154616 0.16817692 0.22756101 0.16301467 0.0032706484 0.097018614 -0.101561636 -0.003328696 0.0075245686 0.47191274 0.46770912 0.46953088 0.475967 0.40865475 -0.076736316 0.006372016 -0.001253169 -0.03744842 0.33952367 0.47044244 0.42638382 -0.05674505 -0.067702234 -0.08577252 0.41494212 -0.06860231 0.3832355 0.27444515 0.388643 0.4528386 0.38031217 0.24240011 -0.09299726 -0.12015387 0.3366741 0.27159736 0.26646155 0.371905 0.49265748 0.5102544 0.39483824 0.3218398 0.12442958 0.24804685 0.36702153 0.46670878 0.4657879 0.33371037 0.08011077 0.10974024 0.20978136 0.2974815 0.30391136 0.25944716 0.2665268 0.2673387 -0.28784359 0.09485233 0.22835624 0.062056277 0.22420242 -0.39104575 -0.3815422 0.08640501 0.059048682 0.16425006 -0.32455987 -0.46076426 0.06427373 0.14619315 0.16286123 -0.19256529 -0.21008544 0.2511312 0.26843512 0.27258217 0.35972768 0.31953233 0.41779193 0.4039273 0.5938841 0.6399541 0.4022099 0.3480237 0.32990608 0.54627657 0.65484893 0.6463829 0.041487724 0.03485921 0.09436473 0.28242767 0.59437585 0.6491424 0.665884 0.017782124 0.07384515 0.13887312 0.21242785 0.37408462 0.50012463 0.20039879 0.023622766 0.28115338 0.5897249 0.2516234 0.2345733 0.5596025 0.6255017 0.1748385 0.16707169 0.04611251 -0.045419764 0.57110965 0.17186517 0.10089798 -0.17757687 0.3908455 0.54585934 0.11564411 -0.045318037 -0.019736871 0.25086343 0.3785228 0.44517553 0.15755002 0.020719878 0.34350538 0.28192288 0.2896907 0.33540833 0.33205688 0.3379882 0.31001326 0.5224236 0.5350087 0.5544288 0.4933831 0.42563397 0.47338933 0.5096478 0.5646578 0.55998945 0.52169704 0.5612689 0.4580168 0.4376371 0.08889316 0.47210225 0.51666796 0.35788715 0.07917403 0.3611102 0.23469603 0.11446262 0.16711801 0.0063910857 -0.06383427 0.04574585 -0.10403375 -0.10726118 -0.09268466 0.009000048 0.025434326 0.2056776 0.38758925 0.41239154 0.41947755 -0.12347095 -0.01498815 -0.026272554 -0.05721993 0.11469724 0.22786307 0.09743301 -0.1291768 -0.1024182 0.07895045 0.23791604 -0.023116317 0.13814679 0.33422548 -0.16097009 -0.11377432 0.07269323 0.18913442 0.34523863 0.42966792 0.49263597 0.41643405 0.37946132 0.203401 -0.257615 0.035002775 0.5045597 0.47176185 0.35138774 0.41219786 0.052844837 0.20942667 0.3659166 0.28697866 0.2178207 0.22490719 -0.40788823 -0.4356206 0.14136195 0.18317956 -0.4286805 -0.42185068 -0.4743489 0.09868482 0.17104828 -0.0071025784 -0.0058406396 0.15541475 0.18130755 0.13804936 0.35142732 0.20144406 0.40134558 0.4930709 0.6011797 0.5920692 0.39921993 0.3780291 0.6390989 0.640521 0.35750002 0.3068633 0.16174702 -0.008951724 0.66575044 0.655476 0.47556025 0.6057551 0.65272033 0.08806877 0.20566872 0.12816858 0.30360764 0.3563975 0.42392278 0.24111688 0.29902726 0.33954728 0.26203036 0.25751117 -0.10602586 -0.018781468 0.2354324 0.16692577 0.15364614 0.11322796 0.13885555 0.09700277 0.00045131147 -0.04320792 0.2487801 0.3481242 0.16552654 0.110719964 0.004737854 -0.011691764 0.04067757 0.20288584 0.19461077 0.25972834 -0.030148573 0.112163834 0.18797639 0.3114485 0.69289774 0.38637164 0.67410034 0.56213313 0.7611785 0.8310096 0.79335725 0.6734632 0.8340672 0.8943722 0.856142 0.87862086 0.9015119 0.88582563 0.49088 0.5404133 0.49954826 0.47757423 0.3887846 0.44818324 0.49811977 0.51875687 0.6303215 0.58966076 0.5140812 0.45151776 0.526744 0.48122388 0.6631632 0.60389435 0.5366044 0.36052245 0.6746968 0.62936693 0.5500341 0.43719804 0.25442517 0.6318983 0.570773 0.3786167 0.11908316 0.0071102083 0.42865726 0.5266659 -0.06622362 -0.19611159 -0.04826819 0.014037276 0.08030907 0.23254734 0.22183347 0.2660309 0.32674798 -0.07537739 -0.036313888 -0.09070839 -0.034001634 0.0044657066 0.07759271 0.17789207 -0.23816726 -0.4086572 -0.10533778 0.05529476 0.27571568 -0.2600147 0.3964165 0.41167396 0.41183704 0.3379588 0.17004988 -0.24889809 -0.28349024 0.43159673 0.290608 0.40499336 0.26618087 0.12247135 0.24824338 0.15490343 0.14796346 0.14089438 0.18616626 0.16408686 0.12157174 0.113014124 0.072198465 -0.10310647 -0.062664196 -0.103026174 -0.12594777 -0.021384269 0.24848452 0.34623504 0.5546204 0.37663954 0.3710164 0.34932733 0.25737756 -0.09356882 0.60596967 0.62378764 0.32689428 0.30278713 0.21836877 -0.065211445 -0.076945186 -0.059829712 0.65969753 -0.03773562 0.048721433 0.62001944 0.65256065 0.16088197 0.36733577 0.3980976 0.51486254 0.25925884 -0.22403589 0.33443066 0.37117553 0.3873802 0.26196733 0.27137163 -0.17946397 0.3158662 0.3274963 0.25545734 0.15019226 -0.060037993 -0.121831 0.09114715 0.07337178 -0.120921806 0.037385106 0.039165147 0.011789547 0.22218753 -0.020545105 -0.007614473 0.1610725 0.23065138 0.34956905 0.29318395 -0.024555225 0.015044208 0.15778859 0.44891453 0.0515559 0.6042732 0.42862493 0.6254608 0.67115855 0.48401734 0.7258054 0.8025155 0.6511239 0.8457624 0.8689914 0.83926237 0.43391943 0.38384902 0.49233198 0.47778466 0.4782799 0.4306483 0.31561443 0.26502872 0.5325892 0.22815886 0.09091307 0.25574547 0.6135951 0.60703063 0.10420561 0.28550673 0.42110986 0.39319116 0.64360875 0.088794954 0.65931904 0.6441984 0.5596178 0.52449906 0.61375725 0.6564643 -0.11500273 -0.12067319 0.14475141 0.16561456 0.09969914 0.34511036 0.54715216 0.62344015 0.6611984 -0.015643034 -0.044709273 -0.15431789 -0.25193912 -0.06322496 0.009222567 -0.024811178 0.07070324 0.41164452 -0.08615771 -0.17515671 -0.021572694 0.29160982 0.16464227 -0.27306893 0.13184536 0.3244744 0.23681259 -0.012486664 -0.21735892 -0.3339196 0.3117305 0.21011944 0.14451939 0.30186197 0.27662644 0.18797131 0.18585125 0.20683405 0.2409561 0.057540983 0.19991136 0.14672478 -0.04484798 0.10500038 0.063583866 -0.15089034 0.16207805 0.12190668 -0.19172776 0.27712592 0.2874718 -0.20920056 0.36559066 -0.094599135 -0.3310201 0.32959965 0.53484625 0.27449253 0.30923772 0.29540867 0.27346325 0.1773869 -0.0049636215 -0.2250622 -0.12402143 0.6155783 0.25953615 0.64199895 0.093874745 0.079206385 0.5829916 0.6187992 0.16698566 0.13780145 0.4040929 0.4490447 0.21525449 0.32819355 0.36062202 0.38899022 0.2560576 0.22454579 -0.21918106 -0.17904821 0.21887769 0.3127148 0.30192226 0.025645763 0.16715045 0.067094676 -0.029925108 0.20013085 0.40449566 0.33802226 -0.04717958 0.037197948 0.34434158 0.4030187 0.45033723 0.41680935 -0.08331711 -0.0062407665 0.115570106 0.37990993 0.30541936 0.276939 0.5889958 0.3774402 0.6648584 0.5221926 0.6796297 0.7194122 0.75255036 0.69588286 0.64298075 0.6895411 0.6396452 0.44874406 0.43386954 0.37649527 0.2977838 0.45337027 0.45507833 0.22927806 0.13914461 0.48966038 0.4789233 -0.15183109 0.0055342168 0.10488531 0.5460954 0.06352553 0.08942377 0.57886964 0.5701077 0.47844416 0.547884 -0.047600143 -0.061456215 0.5014008 0.37055928 -0.08857956 -0.2169565 0.32168242 0.26650894 0.3356097 0.60149825 0.64583695 0.7156061 0.72127616 0.31147668 0.035995077 -0.010185291 0.014416993 0.16037646 0.1373088 0.70036054 0.6516437 0.022913828 -0.3686046 -0.15664454 -0.27602577 -0.023883428 0.6262055 0.6147578 -0.01664222 -0.26431176 -0.16859448 -0.33338803 -0.3943931 0.3990057 -0.4137544 0.08837974 0.013340211 0.03993324 0.016569901 -0.109178945 0.42310855 0.37058705 0.17935151 0.38710034 0.3902196 0.35270986 0.36142933 0.36858314 0.31594238 0.23959199 0.31771785 0.28050742 0.23289168 0.27579677 0.6628391 0.30645016 0.25429678 0.20638934 0.6481881 0.6433321 0.06774914 0.41835076 0.5590898 0.61091614 0.058743104 0.07895607 -0.057233468 0.2126709 0.49955058 0.5249113 0.11184962 0.16156356 0.40764672 0.21391037 0.24133956 -0.28394294 0.057590097 0.039668307 0.24607353 0.3617035 -0.052098677 -0.120430395 -0.5046204 0.30996433 0.31365323 0.24744593 0.123984955 0.23190641 0.24234684 0.13142513 -0.3835833 0.4377013 0.44681394 0.5171971 -0.046554837 -0.04655925 0.29534912 0.32921055 0.37962323 -0.13232633 0.26201707 0.3308764 0.35418978 -0.18887791 -0.19283259 -0.098628625 0.144431 0.2448309 0.17177953 0.25590038 0.2702672 -0.15453053 0.03195729 0.37959346 0.30631 0.3682568 0.2766976 0.16541517 0.17012855 0.50022334 0.19720852 -0.06418233 0.3411273 0.42500293 0.48246402 -0.10093113 0.099540986 0.027004085 -0.07782304 0.24065086 0.14211555 0.39067164 0.39341864 0.26415417 0.5232756 0.46238777 0.5563601 0.6000029 0.57748103 0.5237749 0.60324985 0.6105104 0.6087709 0.31882608 0.40511966 0.38614905 0.3554716 0.30666256 0.27119252 0.10692426 0.38860524 0.03008322 -0.11632629 0.24412054 0.017821245 0.12824573 0.08719015 0.40811867 0.09982347 0.085510895 0.42555195 0.03499545 0.2876737 -0.08286044 0.23492533 0.26082435 0.33008096 0.40479043 0.4650972 0.5420847 0.20753276 -0.15536895 -0.23059507 0.19901416 0.23824367 0.25837448 0.24740067 0.3109872 0.37350222 0.4213841 0.7095282 0.7219384 0.71648365 0.1499443 0.18229999 -0.042474423 0.089274526 0.10532189 0.17128289 0.077740476 -0.25072914 0.059953965 0.6867583 0.66429114 -0.057678018 -0.046388853 -0.3948564 -0.31485868 -0.14503275 0.62556005 -0.054584697 0.012399761 -0.008771857 -0.07357948 0.5243806 0.467