# vtk DataFile Version 2.0
Really cool data
ASCII
DATASET POLYDATA
POINTS 3118 float
9.441144 28.763342 37.787987
9.467102 28.329233 38.31635
9.463132 29.1346 37.67412
10.266954 27.205118 37.00573
10.032819 27.24561 37.85041
10.127919 27.17022 38.161953
9.87835 27.840145 37.0641
9.826937 27.579142 37.670395
9.885491 27.722263 38.52925
10.244135 27.721312 39.029537
10.301781 28.606028 36.261173
9.804202 28.568195 36.783356
9.524757 28.452116 37.523453
9.562624 28.32446 38.3679
9.912693 28.529001 38.9447
9.979732 29.582272 36.788937
9.598655 29.316704 37.344536
9.703977 29.469585 38.258
10.120023 30.0233 36.95524
9.947663 30.016962 37.834244
9.989487 30.053926 38.325626
10.171539 35.02985 37.880016
10.136529 34.691475 39.189644
10.424772 34.69253 40.044796
10.047192 35.54118 37.883602
9.779123 35.60664 38.694595
9.838981 35.528233 39.231422
10.250603 35.682037 39.992077
10.197696 36.202194 37.64508
9.9452715 36.357597 38.795433
10.059636 36.287243 39.263977
10.239969 37.97893 35.776203
10.062429 37.901794 36.682396
10.152646 37.813606 37.032433
10.39806 37.715145 38.03429
10.206835 38.41387 35.66836
10.018463 38.659832 36.752888
10.171128 38.557095 37.343353
10.315638 39.2863 35.630665
10.173667 39.25348 36.294052
10.209481 39.157307 37.10878
11.430935 19.959574 36.85445
11.412533 19.923182 37.362
11.367404 20.510958 36.817524
11.328941 20.319408 37.345806
11.426588 20.74635 37.984623
11.352477 20.998753 37.355957
11.0753355 26.156248 37.899643
11.2764015 26.920732 28.860691
11.0953245 26.934282 29.496962
10.93373 26.788706 30.494825
11.04486 26.845087 31.37831
10.812107 26.922386 36.552124
10.4183035 26.972488 37.658348
10.466834 26.89418 38.017242
11.168146 26.308805 38.850582
11.334273 27.659279 28.220049
11.245774 27.515266 28.498526
10.838389 27.532183 29.588503
10.658556 27.349325 30.617565
10.645312 27.69125 31.324724
10.909445 27.752937 31.864985
10.852661 27.398752 35.908745
10.34652 27.667877 38.97471
11.157241 28.3392 28.627663
10.821014 28.414518 29.51582
10.614729 28.698606 30.37092
10.544279 28.473856 31.158506
10.802366 28.353466 31.896753
10.693308 28.84263 35.82405
10.396941 28.21612 39.28173
10.957184 28.784101 39.83523
10.846365 29.291441 29.873356
10.68296 29.542837 30.607569
10.792798 29.39136 31.65151
10.738524 29.15114 35.90301
11.375718 30.021801 29.210209
11.160594 30.135305 29.582676
10.953005 30.372072 30.404766
10.915185 30.46061 31.693563
11.032287 30.108953 31.990866
10.538664 30.30524 36.711426
10.828828 30.297014 39.38545
11.102871 30.237614 39.843086
11.229694 31.278862 30.565302
11.030772 30.99104 31.579056
10.609648 34.132015 39.653393
10.737959 34.162895 40.287277
10.757554 34.44111 37.703697
10.613621 34.5604 40.334076
10.990793 34.636295 40.940163
10.546772 35.27647 37.281654
10.470905 35.41654 37.336456
10.610755 35.410053 40.417545
11.056675 35.051125 41.00792
10.611423 37.10632 36.413338
10.883704 37.732403 35.051743
10.643249 37.306305 35.713295
10.887968 37.125492 39.25154
10.996137 36.850517 39.68236
10.6526165 38.557117 34.95457
10.770208 39.345905 34.971302
10.459791 39.659523 35.580513
10.5039425 39.29564 37.47829
11.09872 39.99831 35.16212
10.746883 39.940277 35.576084
10.790473 40.018513 36.535877
11.037618 40.130375 36.914803
12.054182 19.295582 36.878162
11.950882 19.311861 37.550327
12.060477 19.304724 37.96022
11.952039 19.896109 36.116997
11.685508 19.809677 36.604668
11.535653 19.705515 37.48411
11.870081 19.772053 38.34956
12.084092 19.973452 38.723366
11.847408 20.463104 35.957333
11.548889 20.235134 36.4046
11.675951 20.277992 38.313835
12.153735 20.456999 38.95172
12.030413 21.365572 35.882168
11.627534 21.314245 36.509743
11.543782 21.701624 37.50439
11.651207 21.74929 38.563107
11.811496 21.90032 39.30274
12.188358 22.042961 39.820908
11.739209 21.848354 37.550007
11.956107 22.715734 39.667164
12.110733 22.629047 39.89157
12.057649 23.591524 38.026253
11.910549 23.383898 39.423298
12.110985 23.3156 39.873642
11.977747 24.672325 39.345474
12.351449 24.801098 40.11465
12.020435 26.275251 28.622564
11.816867 26.25396 29.438738
11.587628 26.291845 30.126978
11.670875 26.373783 31.281385
11.745224 25.752123 36.780674
11.697201 25.371162 38.59392
12.01738 25.646015 39.68648
12.164965 25.989172 39.976208
11.965083 26.689201 27.966522
11.735737 26.529383 28.455252
11.420113 26.450747 29.923588
11.353081 26.453127 30.199017
11.517855 26.782043 31.753708
12.02077 26.914883 35.398933
11.5505295 26.467821 39.610966
12.180633 27.813026 27.353563
11.795446 27.474087 27.721067
11.338367 27.617994 32.290955
11.987841 27.115719 40.064
12.130766 28.144264 27.365396
11.703884 28.281572 27.785519
11.728185 28.689278 32.855095
12.228302 28.553255 34.57784
11.616967 28.693264 40.078697
12.012618 28.985205 27.778782
11.549537 29.360037 28.44114
12.1998205 29.496784 33.526363
11.809518 30.539593 28.967709
11.44329 30.74788 29.494465
11.6947565 30.28202 33.12424
11.927457 30.276083 35.912323
11.520732 30.261576 39.85618
12.056238 31.059454 29.077932
11.645667 31.386301 30.061548
11.841239 31.426203 32.63821
11.307552 31.166847 38.85219
12.078808 31.81578 29.951204
11.651927 31.864582 30.991116
11.500157 32.98858 39.641434
11.520255 33.898453 40.956867
11.881701 35.066246 36.51103
11.723081 34.544113 41.355156
12.082293 35.815517 36.407818
11.454894 35.22225 41.17153
11.601138 36.735035 35.405136
11.792549 36.00368 40.91038
11.342388 37.475693 39.363636
11.269948 39.370533 34.688564
11.407168 39.908207 34.896313
11.381636 40.275322 35.50677
11.376219 40.331993 36.57127
11.765037 40.3625 37.337788
12.072075 40.12286 37.956814
12.837351 19.37371 36.121037
12.571883 19.225616 36.634415
12.6110115 19.061123 37.575985
12.570932 19.223358 38.238075
12.566861 19.686516 35.890717
12.193102 19.412535 36.36545
12.483228 19.429893 38.605007
12.720762 19.69164 38.95598
12.8111 20.80145 35.213245
12.328621 20.441643 35.543262
12.556693 20.810051 39.485355
12.998578 20.726707 39.72526
12.821901 21.458311 35.199318
12.437456 21.973604 39.96734
12.52758 22.17412 35.61475
12.554499 22.506481 40.19273
12.482875 23.302633 36.72892
12.74821 23.16657 40.329357
12.889751 24.95683 36.19591
12.350789 26.33714 28.178623
12.479758 26.241251 28.427368
12.356546 26.1335 29.15256
12.537317 26.342375 30.58477
12.842825 25.949587 35.563835
12.519924 25.166601 40.305176
13.024512 25.97001 41.175957
12.822601 27.139797 27.400423
12.493614 26.683073 27.779858
12.252594 26.500729 31.422003
12.5285015 27.007364 31.927876
12.7919445 27.267921 34.816406
12.714508 26.077057 40.57349
12.978286 26.532377 41.13015
12.611785 27.699219 27.25437
12.201286 27.333614 32.30351
13.108484 27.175741 41.281487
12.686354 28.385208 27.242313
12.795615 28.899885 27.35117
12.508399 29.114635 27.560846
12.640157 30.399841 28.278618
12.559808 31.12575 28.95337
12.482195 31.552399 29.42548
12.791803 31.734911 29.465076
12.483139 31.89347 32.593666
12.979001 32.040413 33.107758
12.507827 31.88706 38.99229
12.7114315 32.630898 39.769367
12.500785 33.25267 40.714912
13.182382 33.81203 33.373928
12.402515 33.945293 41.197292
12.78603 34.875877 32.600964
12.163845 34.61232 41.4277
12.903877 34.718903 41.530796
13.250981 35.569912 31.732063
12.711687 35.619724 32.755993
12.603673 35.40149 33.48866
12.3626 35.431328 41.294205
12.671938 35.00005 41.516735
13.252891 36.194305 32.03836
12.867631 36.232933 32.743816
12.59331 35.947857 33.28537
12.397603 36.45001 40.749992
13.076845 37.12824 33.073814
13.138607 36.913467 33.450695
13.081668 38.08329 33.604794
12.611803 38.61371 39.25975
13.066341 37.962044 39.62216
12.739669 39.69906 34.24782
12.9285965 38.966606 39.18528
12.531449 40.153316 34.748665
12.3179865 40.180496 37.93395
12.641477 40.633087 35.692787
12.248527 40.790443 36.71388
12.819611 40.816677 37.261185
13.229134 19.351542 36.007378
13.320732 19.18591 36.596565
13.608917 19.026827 37.650295
13.502861 19.116632 38.329376
13.749491 19.340647 38.967564
13.543971 20.047514 35.237057
13.542966 19.63045 35.63723
13.460465 19.681587 39.312
13.741644 20.109291 39.7299
13.564552 20.606865 35.03847
13.59137 20.50042 39.78698
13.545177 21.406588 35.02272
13.553728 21.484554 40.096214
13.765458 22.538656 35.42954
13.156129 22.402872 40.293102
12.902197 26.4072 28.147078
13.026952 26.316853 28.561098
13.077456 26.330389 29.21631
13.828297 26.149565 42.029724
13.179785 26.850994 27.786509
13.371034 26.542067 28.528978
13.265999 26.662811 29.970387
13.450076 27.148796 31.373732
13.745774 26.546162 42.06034
13.203647 27.646147 27.286757
13.52644 27.572767 27.484653
13.88314 27.66399 32.399597
13.464545 27.589725 34.69816
14.001098 27.33119 42.232086
13.200599 28.38346 27.243643
13.641015 28.384834 27.47671
13.870642 28.11205 41.33637
13.005836 28.910793 27.30341
13.436622 29.0594 27.597824
13.713794 29.434708 39.734947
13.481317 30.24071 28.18829
13.727885 30.497398 28.45035
13.244238 30.174974 39.37671
13.128042 31.262724 29.014626
13.607144 32.27745 36.561275
13.476548 33.46153 33.175423
13.571471 33.846256 41.135582
13.815919 34.13851 31.253689
13.15738 34.272938 41.437004
13.945829 35.673717 31.34497
13.543972 35.11631 31.503906
13.560768 35.35298 41.40895
13.64871 36.41996 31.793009
13.589142 36.18867 41.026344
14.134398 37.343246 32.13039
13.626849 37.09988 32.360386
13.528946 37.619583 39.84966
13.543116 39.197098 33.68086
13.404859 38.97963 39.216774
13.298269 40.469498 38.05209
13.482823 40.940838 35.586807
13.579831 41.1565 36.430344
13.6971655 40.96481 37.444077
14.034711 19.38461 36.123123
14.109381 19.391912 36.405575
14.374723 19.258696 37.589943
14.322097 19.223392 38.439415
14.248437 19.331087 38.987335
14.315703 20.152233 35.271175
14.323826 19.823055 35.621075
14.490754 19.498924 36.457687
14.462325 19.662512 39.339333
14.4797125 19.965963 39.589104
14.4608965 20.515263 35.225685
14.413049 20.60764 39.842243
14.4769335 21.568632 35.260735
14.237529 21.117039 40.0205
14.027367 22.011866 35.176243
14.235851 22.592407 40.266605
14.67703 23.450302 40.39725
14.7404175 23.903961 40.90694
14.585601 24.677113 41.41586
[...]
POINT_DATA 3118
SCALARS features_00 float 1
LOOKUP_TABLE default
0.6462287 0.62603766 0.64385164 0.5046304 0.51272094 0.48339713 0.58814067 0.5620606 0.54289484 0.46018943 0.5960529 0.623218 0.63368356 0.6224538 0.60517347 0.6082796 0.6324572 0.6385968 0.5912064 0.610461 0.6349696 0.50228375 0.5994481 0.5730957 0.47851944 0.60771585 0.63250184 0.60023326 0.41401598 0.57894146 0.61658615 0.5839876 0.5161106 0.48086074 0.44161472 0.64121956 0.61025864 0.5402627 0.675436 0.6720586 0.62679064 0.785736 0.7854692 0.75320303 0.7612769 0.7131972 0.71416366 0.33515066 0.762555 0.7215247 0.73915136 0.7640054 0.43772113 0.4570133 0.43323222 0.25175253 0.8238801 0.7959012 0.6974025 0.7169165 0.68321955 0.66461587 0.48703408 0.4469267 0.7054231 0.61983705 0.56656164 0.5791507 0.55301386 0.5431768 0.47920063 0.4889848 0.52110887 0.5046864 0.47175002 0.5518081 0.50377345 0.4898557 0.49075326 0.47750318 0.4323703 0.5478502 0.56776047 0.56823003 0.49216074 0.5134572 0.54777235 0.5700587 0.44263774 0.57874566 0.6003107 0.36487645 0.37634873 0.5868189 0.6031939 0.38359457 0.53336674 0.45200238 0.5117464 0.54790014 0.6380274 0.6289798 0.66455907 0.5955956 0.5985776 0.6405646 0.63852286 0.601548 0.80574965 0.8104949 0.8035641 0.78836644 0.7940756 0.7953253 0.7644819 0.7176614 0.7735245 0.77316284 0.72905266 0.6481341 0.7544208 0.7148037 0.64007515 0.56663096 0.48374477 0.45459083 0.61196834 0.36666307 0.3871041 0.36487085 0.29762936 0.31518495 0.13280943 0.09041837 0.7968533 0.746143 0.7337662 0.7600652 0.33036768 0.11014333 0.071880266 0.0748319 0.87123346 0.8079686 0.7353147 0.73923934 0.7593371 0.20370059 0.1517368 0.8773458 0.89406216 0.6873683 0.13841711 0.84223163 0.80710185 0.4162144 0.13997465 0.4090597 0.72833425 0.62245214 0.16326517 0.5084561 0.4833496 0.35121357 0.41293263 0.533978 0.5014526 0.47619155 0.41580594 0.3530832 0.47268033 0.52233934 0.5022183 0.5912176 0.24067959 0.5853751 0.25082582 0.5980693 0.24225904 0.55951685 0.39881128 0.54905885 0.5569452 0.5742885 0.5675869 0.48379797 0.42299783 0.7861166 0.79928935 0.8236179 0.7968857 0.78826344 0.7979847 0.7657427 0.7292685 0.8086421 0.791479 0.57624096 0.58547884 0.8019234 0.45704302 0.7406899 0.4019732 0.48328674 0.33854082 0.13648207 0.8386656 0.81714344 0.7547654 0.68983555 0.16119976 0.082954265 0.23520005 0.9060458 0.8874697 0.68690795 0.6044251 0.16436866 0.11975462 0.24555425 0.88504493 0.66222316 0.31337303 0.8205933 0.7558967 0.72297144 0.60018325 0.52191776 0.49117464 0.49087906 0.33949703 0.046166122 0.13019362 0.49005073 0.55327827 0.2623973 0.5464788 0.46634358 0.563359 0.5189776 0.4452148 0.40777695 0.33642793 0.5359764 0.527724 0.4110651 0.38464698 0.35239577 0.4336322 0.31069282 0.3057999 0.17702197 0.20879677 0.17802733 0.3675161 0.19803253 0.45452303 0.4008401 0.47370747 0.4540743 0.39143723 0.77418447 0.77154565 0.79065573 0.7943127 0.76609653 0.78313226 0.76930416 0.727692 0.6818497 0.80142903 0.63448596 0.79291165 0.50314796 0.7202101 0.41717595 0.8431715 0.8076421 0.74613214 0.44698817 0.873921 0.81236506 0.66001105 0.39341694 0.45865834 0.87049294 0.86012745 0.14827916 0.08434048 0.5507648 0.79858744 0.7563856 0.51405746 0.7481379 0.68010646 -0.12519749 0.5253543 0.47523835 0.022628654 0.5184355 -0.011454031 0.107019514 0.4843374 0.40333802 0.507641 0.44002104 0.45893818 0.4778265 0.4094634 0.39121482 0.31915933 0.34051943 0.17041756 0.15306409 0.11855513 0.32428214 0.40649977 0.38108873 0.3314212 0.74243057 0.73320645 0.732309 0.762252 0.7592685 0.76606536 0.7483691 0.7149999 0.737832 0.7185313 0.76943314 0.65425354 0.7504754 0.5734139 0.7562385 0.3697615 0.27906758 0.28262413 0.4217642 0.0112038925 0.43041003 0.5352851 0.6282386 0.84012645 0.81883717 0.5600923 0.6572728 0.81755745 0.7748454 0.26220226 -0.027431384 0.6399386 0.7034942 0.7103968 0.67185354 0.703813 0.559548 0.43510342 0.49242097 0.40543598 -0.116409734 0.4279496 0.38500792 0.40805635 0.16928904 0.37160867 0.43651894 0.4427845 0.4140424 0.42982364 0.41047347 0.38759482 0.35735536 0.13492575 0.0837653 0.076172784 0.33194593 0.33274317 0.29408944 0.25418922 0.70860565 0.73620915 0.7079632 0.6637812 0.6683244 0.70875967 0.72069204 0.75364184 0.6302453 0.67695725 0.6864586 0.70316464 0.65580666 0.23026565 0.2988891 0.54985946 0.6996876 -0.3031792 0.74370944 0.75263286 0.23841946 0.6821065 0.70938146 0.30148986 0.16388014 0.6612917 0.23560826 0.17542465 -0.078521416 -0.09816626 0.117441304 0.26748398 0.040749796 0.38027456 0.0952875 0.3982429 0.36308166 0.31385946 0.18249954 0.4834196 0.34014252 -0.015894786 0.4502248 0.53948987 0.20775783 0.21257459 0.31081286 0.2375946 0.6605001 0.62939775 0.5740398 0.57175195 0.5667569 0.57631314 0.49608403 0.5126184 0.45092687 0.30852747 0.22340229 0.44282812 0.07958565 0.31022754 0.25470608 0.24204409 0.3650499 0.14110754 0.7032716 0.760127 -0.008427182 0.8034792 0.2880673 0.21854022 0.76341635 0.20634986 0.5701695 0.6800407 0.7021661 0.1484039 -0.086636364 -0.11173692 0.5384563 0.63068926 -0.030951656 -0.18505608 -0.07193104 -0.019983247 0.21162513 0.07620313 0.23606291 -0.040342577 0.5720735 0.5854566 0.62007356 0.6049244 0.6351136 0.5873579 0.41957268 0.59796035 0.57392424 0.5857236 0.536065 0.092268184 0.021371767 0.20700762 0.22297445 0.41084927 0.54771006 0.5523791 0.5254304 0.4401763 0.38891426 0.07637644 0.03302355 0.2047546 0.20807132 0.5100439 0.49769822 0.4789595 0.41040492 0.40536588 0.33845937 0.6160392 0.59826094 -0.013948634 0.08119637 0.16755304 0.28063774 0.4733767 0.6482595 0.04197085 0.6735775 0.23738717 0.733294 0.7669269 0.23985907 0.65333927 0.14176843 -0.042413943 -0.048417766 0.12904747 0.07220656 -0.09376768 -0.034565195 0.029966958 0.12890951 0.097414896 0.061891485 -0.008884437 -0.025301903 -0.056056716 0.4634166 0.57385296 0.23086639 0.6498491 0.19712803 0.67506707 0.5883806 0.6563653 0.6337346 0.54147524 0.009175405 0.52241755 0.62759924 0.5768283 0.23649609 -0.050283834 0.25701264 0.3095102 0.45891792 0.54000616 0.21956694 0.5426683 0.52704877 0.07560405 0.12665889 0.26469946 0.5454061 0.5133459 0.21826027 0.123454206 0.21970958 0.3376106 0.3219434 0.45581007 0.37898153 0.29658002 0.22250447 0.15495451 0.14942779 0.34485662 0.41176146 0.40142852 0.37482303 0.46077865 0.39392367 0.3789417 0.22555861 0.25300997 0.07752824 0.106628835 0.14520073 0.03576534 0.13282275 0.24995804 0.28165767 0.17453867 0.12984085 0.20413679 0.21966901 0.11956882 0.16030979 0.064813696 0.17621753 -0.030774953 0.30561006 0.21244997 0.36087266 -0.05900598 -0.05029695 -0.08128897 -0.061497778 0.12647964 0.42575204 0.4567259 0.45729434 0.5706137 0.40011445 0.6445719 0.5923095 0.61693877 0.5963235 0.6465101 0.67904675 0.56385875 0.46973562 0.5842645 0.5369823 0.548405 0.29657957 0.32675973 0.048139423 0.5830699 0.5678922 0.3619448 0.50998616 0.46170086 0.54068696 0.366363 0.34402117 0.27009177 0.13093977 0.14285602 0.2875399 0.432878 0.58813095 0.54984146 0.6026566 0.64495647 0.66577107 0.5869805 0.5971149 0.33570945 0.3146664 0.24725354 0.18781725 0.21068895 0.054789662 0.07372332 0.2587166 0.032757208 0.02638052 0.21784867 0.1535975 0.117027044 0.118425906 0.08924532 0.26070106 0.053028878 0.3121249 -0.01421166 0.37682542 0.0449409 0.43567765 -0.02672328 -0.08931091 0.51824063 0.3735277 0.4914499 0.36743125 0.5720515 0.41270912 0.47090328 0.5847777 0.57783794 0.59528947 0.5480592 0.49826226 0.49436638 0.56337947 0.5417361 0.56703323 0.37070644 0.41222277 0.50851583 0.3044647 0.3489709 0.48877102 0.37770575 0.69279623 0.32104594 0.7753035 0.32089305 0.3219691 0.30477354 0.571365 0.68863976 0.7065266 0.76998144 0.78835213 0.5772587 0.76217365 0.7661629 0.25315997 0.4552533 0.22615883 0.2383956 0.2086684 0.19715886 0.30848578 0.3230854 0.33114755 0.29319474 0.04204666 0.2808262 0.060358964 0.2355955 0.17160806 0.2223898 0.21002099 0.347952 0.17537984 0.37419513 0.4563414 0.03300182 0.27191067 0.01553902 0.080924556 0.44698286 0.35058826 0.526374 0.49098605 0.25054196 0.30800366 0.3932013 0.56751645 0.5789435 0.56825507 0.31706244 0.35339314 0.38315147 0.54187435 0.549649 0.3190549 0.3326532 0.45460257 0.4557881 0.26516047 0.31105956 0.40166843 0.25725093 0.3169091 0.46052152 0.7116504 0.67100346 0.52035433 0.7466358 0.7274256 0.2595177 0.7149059 0.8365541 0.7497927 0.6830216 0.2560388 0.7781564 0.7656643 0.84127164 0.6679603 0.63293076 0.5728258 0.52100885 0.8103434 0.82870317 0.84032476 0.60790575 0.58467656 0.23200268 0.2473549 0.23320174 0.041798122 0.18622349 0.31423557 0.3209023 0.17642695 0.31859556 0.040030193 0.32651705 0.25891876 0.22353514 0.23859976 0.2538816 -0.07761381 0.22092167 0.24703452 -0.1321691 0.17407176 0.3211269 0.27513808 0.08413183 0.1177298 0.49527118 0.44326 0.38261095 -0.053066447 -0.09884549 0.4251513 0.10533729 0.011802573 0.1584882 0.54432267 0.40076917 0.063346274 0.10246425 0.23458543 0.48969853 0.5064485 0.380816 0.038143463 0.09282248 0.26818943 0.45568326 0.41276437 0.10810553 0.105643004 0.104612604 0.24765375 0.37866494 0.3787852 -0.090033256 0.4990098 0.55915797 0.6474004 0.061874405 0.52799284 0.64470744 0.6812371 0.6958679 0.19776826 0.7763698 0.82099724 0.79138154 0.6968127 0.711217 0.1713367 0.81745464 0.831768 0.8453872 0.8481818 0.7006568 0.46325707 0.4104343 0.2262112 0.8406067 0.84942704 0.6380229 0.60198593 0.527456 0.48098955 0.634056 0.6050873 0.2376063 0.23250467 0.014588195 0.11633591 0.20309415 0.23282352 0.16550465 0.31713784 0.1375533 0.15773311 0.29105252 0.13256237 0.22822931 0.25056028 0.5951782 0.32509014 0.23603281 0.22818992 0.25948 0.020651262 -0.0024926066 0.27597618 -0.07864879 -0.17918253 0.27349243 0.25606206 0.24394184 0.31814927 0.27369782 0.42748246 0.38450053 -0.007834975 -0.044509724 0.40934944 0.39159253 0.24995022 0.38235012 0.28707793 0.12872246 0.23926103 0.093660615 0.06374176 0.056081817 0.05693213 0.06880458 0.10079948 0.26745003 0.020403907 0.045240425 0.079809636 0.1828732 0.11495359 0.106680185 0.23119052 0.20087072 0.18496041 0.25931525 0.3498916 0.47833547 0.46125817 0.4172721 0.3452893 0.42098647 0.5065626 0.5645877 0.5937482 0.5971159 0.5992066 0.6452583 0.59921896 0.11729177 0.20088157 0.78467405 0.77913666 0.7967489 0.66148967 0.67302775 0.13859084 0.8243125 0.8336947 0.82853335 0.67947674 0.2651309 0.09361038 0.6555236 0.6554385 0.67490125 0.6800182 0.62348557 0.80860496 0.7975216 0.7454102 0.79255664 0.7971779 0.7757616 0.68503803 0.7003363 0.69367236 0.7698053 0.75781405 0.6682353 0.6385887 0.65267384 0.6659195 0.66412497 0.6164782 0.5506009 0.28813088 0.6521129 0.66979265 0.5536428 0.11489397 0.2257864 0.21082067 0.62785846 0.63842964 0.6492273 0.65799403 0.53800887 0.59498334 0.64529634 0.19661665 0.071701966 0.61166406 0.61118793 0.5989709 0.5856074 0.62401664 0.6685922 0.7001622 0.206943 0.26955768 0.57034665 0.5776354 0.5383377 0.5883788 0.6346854 0.6578936 0.09941959 0.511944 0.10485922 0.57953066 0.5944374 0.5226802 0.2942307 0.5813415 0.5981566 0.54606104 0.4391963 0.45841336 0.48625952 0.54590946 0.55800945 0.52869093 0.43352973 0.5352765 0.33106008 0.48863253 0.2397065 0.20442617 0.30608875 0.33367252 0.3805414 0.3225898 0.20669407 0.24507365 0.43686303 0.41339225 0.335369 0.40997785 0.40713027 0.26252913 0.2703484 0.29832774 0.40126652 0.43635577 0.2966608 0.3782308 0.40251237 0.37431484 0.24527508 0.18401295 0.0399528 -0.031329885 0.28865576 0.40302336 0.47777557 0.4281509 0.5237371 0.61491555 0.64356494 0.30387384 0.48451513 0.66935515 0.6826889 0.50964546 0.3526351 0.39275467 0.6949855 0.7026857 0.6958652 0.81124055 0.78711027 0.7660583 0.7655305 0.78348625 0.80666995 0.7343932 0.707075 0.7162047 0.71578574 0.6401373 0.67504925 0.3373323 0.30077994 0.6006076 0.6308044 0.6376165 0.5562612 0.42686126 0.60850835 0.56039655 0.28949666 0.22111036 0.61813605 0.64428055 0.6509794 0.43473977 0.54453474 0.5627195 0.6047406 0.5251365 0.46206802 0.19980085 0.23861653 0.20275357 0.6204736 0.6176573 0.5129244 0.6309686 0.6791553 0.72092974 0.13267379 0.17212677 0.6295128 0.57041025 0.51711947 0.46929362 0.7132639 0.72736335 0.11395401 0.6520559 0.6066921 0.47260216 0.6288879 0.69485784 0.13581893 0.054219715 0.5478258 0.5049631 0.35841182 0.48921812 0.5578705 0.04771223 -0.030385543 0.55105513 0.62571275 0.074120305 0.054729115 0.5202306 0.5572547 -0.002527507 -0.017706187 0.080709666 0.34658775 0.42450178 0.308569 0.068418674 0.47695354 0.45853245 0.2599788 0.037960514 -0.036008067 0.2521813 0.59073746 0.50352895 0.0005459208 0.55930686 0.67290705 0.74308395 0.5235642 0.110524796 0.47563002 0.21413669 0.18973419 0.18404564 0.64156497 0.7459221 0.77374554 0.48164696 0.4221595 0.1029149 0.41558877 0.4686603 0.46897566 0.41967785 0.2647695 0.10694458 0.1929095 0.34382132 0.32252985 0.67042655 0.7648785 0.78748393 0.34548116 0.33144453 0.39935142 0.45300573 0.45781887 0.38583446 0.2065433 0.38695073 0.29212087 0.2621245 0.20851544 0.3247515 0.20527649 0.35014874 0.3849141 0.38070697 0.300673 0.16846803 0.1115389 0.13245773 0.28547245 0.43884653 0.44136286 0.3931328 0.38607913 0.37532485 0.28288203 0.18008666 0.08783128 0.08329509 0.26051885 0.37337512 0.43535912 0.261262 0.24088198 0.17994097 0.2584328 0.17501657 0.2687308 0.39201468 0.3552372 0.41729438 0.47234672 0.40057036 0.4341625 0.47902882 0.6182894 0.6802343 0.6911947 0.71823156 0.7230566 0.6090206 0.5453912 0.538841 0.7065778 0.7124239 0.7059194 0.8055182 0.7955212 0.76800895 0.7364392 0.7741376 0.7718281 0.70099586 0.5855242 0.7274121 0.73607075 0.5477396 0.50513166 0.46458924 0.6905521 0.6788565 0.3017554 0.27587837 0.2716068 0.58120155 0.578196 0.55881023 0.46042824 0.2878202 0.28532314 0.37330166 0.43144214 0.48069292 0.5462038 0.26784837 0.2158392 0.56194985 0.5768176 0.28828993 0.51472414 0.57759225 0.43668813 0.37824914 0.17171235 0.5804471 0.6432456 0.6759815 0.14995176 0.14079113 0.59990096 0.6065306 0.7192643 0.13642082 0.15643232 0.6359197 0.71885717 0.036253545 0.13005503 0.61456835 0.5766155 0.5353923 0.14938569 0.06550392 0.31131968 0.021401107 0.423148 0.33416474 0.07128803 0.06053918 0.013422459 0.6861983 0.47262138 0.07829181 0.08627616 0.4148395 0.025053337 0.7241125 0.7083168 0.49611855 0.069589645 0.39495325 0.4374932 0.4701305 0.31828082 0.7698419 0.7215277 0.42484844 0.103514284 0.3771019 0.7456034 0.7753264 -0.19573385 -0.044012114 0.2703743 0.3500294 0.35585576 0.2715305 0.19935769 0.18611337 0.22133888 0.28594658 0.27666494 0.17504247 0.14431158 0.19277701 0.10856694 0.2854315 0.35062853 0.20491263 0.23467854 0.20943914 0.12271836 0.19402553 0.2581761 0.26955196 0.25550163 0.21883065 0.580974 0.26869792 0.27183455 0.24995464 0.22180682 0.41481203 0.50484043 0.5819485 0.5673161 0.4563656 0.55826557 0.57793605 0.5782559 0.55618775 0.5708818 0.24705184 0.49160653 0.56111807 0.46058688 0.27413672 0.5261893 0.5412724 0.5765371 0.67030764 0.6952821 0.7143023 0.7242292 0.7335375 0.7349475 0.5676454 0.56599396 0.57262814 0.545777 0.7292788 0.7223604 0.68333507 0.6805719 0.733583 0.70386976 0.62247705 0.6402106 0.68642837 0.71783423 0.4531396 0.45219558 0.27482408 0.32146856 0.35956404 0.64000094 0.6040724 0.26688412 0.20218658 0.48530298 0.43081254 0.32983282 0.4227183 0.4849149 0.14528555 0.45689672 0.515488 0.5262772 0.39155382 0.112554274 0.09468639 0.45672852 0.5899024 0.24976137 0.17750779 0.12318454 0.115403384 0.5464544 0.53650105 0.6518622 -0.085409634 0.6260537 0.11162609 0.6061341 0.5193833 -0.040350214 0.6295159 0.6275916 0.43146533 0.04130147 0.23453127 0.6493118 0.31660247 0.7013986 0.68743056 0.18486232 0.32543108 0.26447138 0.6612781 0.7076192 0.33497992 0.3315076 0.3059625 0.1758644 0.0417123 0.32340747 -0.097195536 0.21667224 0.23526111 0.2235052 0.15113355 0.0725282 0.24779996 0.21590543 0.30355847 0.2760935 0.24530746 0.17511009 0.18181133 0.16932026 0.13330947 -0.1815137 -0.008021114 0.46961993 0.1468697 0.16773146 0.1422244 -0.037792116 0.07769701 0.4919936 0.4672572 0.14655884 0.17291284 0.26143757 0.16806902 0.27642292 0.11418545 0.55636084 0.53689736 0.2727365 0.2515312 0.25188458 0.24877083 0.12943126 0.2988376 0.33828682 0.36044884 0.3765509 0.56324244 0.54305947 0.26816237 0.29728004 0.34161097 0.36706945 0.39346278 0.49170214 0.53205025 0.5530407 0.5763557 0.5345286 0.6581192 0.6917478 0.41613513 0.675115 0.58297896 0.46267074 0.6783156 0.6548722 0.6601123 0.66076136 0.5916444 0.4486979 0.65054077 0.715107 0.70378906 0.6402265 0.5890949 0.5842252 0.7149842 0.57861686 0.57323515 0.5792582 0.5807959 0.6868373 0.62505424 0.5976733 0.5854149 0.53674453 0.3211211 0.3379997 0.65848553 0.40520245 0.20225126 0.22473603 0.27657586 0.33606708 0.3697407 0.37231535 0.61736965 0.21676107 0.1403335 0.12326692 0.14127597 0.38942397 0.3935395 0.44431135 0.48845354 0.5465578 0.09709821 0.09247105 0.085650876 0.2114755 0.21957366 0.26574546 0.30047005 0.48903602 0.41736382 0.09148583 0.09786786 0.14290294 0.48790807 0.5345949 0.32173032 0.14894031 0.46670628 0.46768296 0.116522774 -0.00577873 0.489066 0.3606313 0.015191138 0.5164064 -0.012874696 0.019911192 0.28972358 -0.15928303 -0.014604703 0.5537081 0.6009494 0.13363375 0.59444034 0.032149583 0.207355 0.6127831 0.022734672 0.018509239 0.2961765 0.26689118 0.5885971 0.01553975 0.30318078 0.33143955 -0.10196744 -0.013967022 0.06570661 -0.052905932 0.1933071 -0.21725035 0.21511059 0.072839744 -0.022848323 0.051469184 0.29388762 0.3288305 0.31286466 0.24360152 0.13041246 0.06345492 0.08754523 0.26057035 0.32954827 0.2756638 0.2101604 0.45252857 0.13294135 0.035845514 0.10286446 0.08696537 0.19538207 0.55342156 0.5322286 0.3115645 0.30593655 0.31702542 0.31337702 0.285508 0.31138915 0.38087094 0.39171737 0.39578784 0.59599924 0.5914538 0.5711266 0.45814997 0.38045955 0.37046528 0.602113 0.595417 0.6044613 0.7254945 0.7498187 0.670138 0.74609965 0.77788174 0.7574909 0.64950603 0.74084544 0.72019196 0.564929 0.652419 0.71957093 0.7045448 0.6207458 0.6700564 0.61540735 0.601668 0.57956564 0.55647933 0.49827474 0.28845814 0.3410486 0.3582824 0.6091312 0.56575555 0.53002733 0.44489485 0.19360283 0.21266258 0.36238945 0.32635075 0.29758912 0.5875171 0.31787962 -0.015030808 0.121092066 0.17608793 0.1564034 0.28580686 0.33517456 0.2649323 0.30067703 0.35936886 0.57804894 0.528721 0.22820741 0.2594615 0.26775542 0.35584825 0.3646788 0.50409025 0.17152406 0.0041478276 0.40328708 0.40166357 0.11309262 -0.17940377 0.12629408 0.7787368 0.75482416 0.0007399209 -0.21623671 -0.04278411 -0.1614843 -0.26228577 -0.14396171 0.6823437 -0.25285438 -0.4160542 0.14107515 0.5077339 0.51014805 -0.0022049844 -0.06424145 -0.20987841 -0.18596004 0.015209012 0.506036 0.048078716 -0.17596793 0.039924175 0.5397134 0.56906533 0.06284666 0.017678335 0.54014814 0.5853392 0.045086026 -0.38323838 0.19563633 0.10076207 -0.07751117 0.041429445 -0.22500585 0.43796343 -0.0454932 0.15035957 0.090634495 0.29102242 0.2784385 0.2769336 0.23628919 0.19584739 0.118183166 0.13660419 0.20024827 0.37259284 0.16921218 0.22914372 0.19883385 0.13143632 -0.033199113 0.5164314 0.2383478 0.117914654 -0.0057538226 0.03923039 0.53372276 0.22373194 0.22442412 0.28982124 0.31602255 0.32400876 0.22192396 0.57801044 0.5370228 0.5275585 0.5056514 0.43519598 0.3275549 0.3150505 0.62360287 0.6065396 0.6254636 0.6105612 0.60714096 0.57146 0.7851715 0.8047627 0.79689693 0.7555016 0.8005556 0.8094955 0.77231765 0.7028111 0.78025174 0.8041655 0.75821877 0.7386938 0.7605611 0.7274817 0.23521274 0.2241959 0.28272563 0.31350857 0.5390496 0.504971 0.18121786 0.24062876 0.2188178 0.24215317 0.38940305 0.24811023 0.2524602 0.23742656 0.3253649 0.27683973 0.32256696 0.16605732 0.17491102 0.4373188 0.2511869 0.24256416 0.4782178 0.4214725 0.19513828 0.21840581 0.113074295 0.789468 0.8150462 0.6656375 -0.10308865 0.264503 0.6976096 0.7800236 0.78173804 0.5795054 -0.19349825 -0.20533484 -0.24552965 0.5971789 0.66751945 -0.22376126 -0.27091298 -0.4359964 0.5307776 -0.28211606 -0.46672213 0.42599553 0.3348248 0.23842315 -0.16272368 -0.44130707 0.5043305 0.048930038 -0.15116909 -0.31187314 -0.3704269 -0.072710775 -0.38172513 -0.117854744 -0.25979704 0.569962 0.5334941 0.2921197 0.6195492 0.5995169 0.51462555 0.15740465 0.056485333 0.076540075 0.66426015 0.64047176 0.5831949 0.4517924 0.16647077 0.0986336