# vtk DataFile Version 2.0
Really cool data
ASCII
DATASET POLYDATA
POINTS 3126 float
-1.672268 43.72567 26.921972
-1.800736 43.78741 27.388353
-1.6995031 43.720047 27.990532
-1.693837 44.421814 26.84105
-1.8603997 44.442623 27.352741
-1.7126844 44.462692 28.238667
-1.6241559 44.945957 26.818203
-1.5838244 45.43358 27.608065
-1.688874 45.03334 28.291222
-0.9197192 43.221565 26.19162
-1.1165581 42.98324 26.743668
-1.2255069 42.95354 27.438402
-1.0664113 43.212814 28.399204
-1.0436151 43.730938 26.085901
-1.4392403 43.57063 26.540258
-1.4907625 43.615765 28.220514
-1.0263586 43.718716 28.916073
-0.9413936 44.52969 25.84368
-1.5550234 44.42308 26.510769
-1.5686007 44.526733 28.660225
-1.0145259 44.62356 29.271954
-0.9238144 45.019016 26.015865
-1.2822256 45.59946 26.881598
-1.3670326 45.392754 27.148933
-1.3134317 45.596954 29.33486
-1.3580391 46.39941 28.580221
-1.2491878 46.32164 29.339058
-0.92974585 46.21396 29.881891
-0.7969252 46.884293 27.741993
-0.9308952 47.04913 28.623814
-0.94211465 46.957596 29.232065
-0.019475818 42.420757 26.558897
-0.11128861 42.70602 26.044434
-0.53656995 42.59249 26.580587
-0.54073495 42.528755 27.687841
-0.56904256 42.73136 28.179752
-0.14101234 43.11331 29.064001
-0.4831525 43.53393 25.784945
-0.43706542 43.510353 29.30153
0.13234413 43.940758 30.13961
-0.042607963 44.841908 30.272797
-0.5970519 45.334053 25.900127
-0.38323143 45.49916 30.267233
-0.549001 46.280003 26.802704
-0.19375362 46.462025 30.336523
-0.34253612 47.26681 27.721115
-0.44250256 47.41791 28.470358
-0.22047074 47.402275 29.248947
-0.15808645 46.999195 30.028975
-0.11800937 47.625565 28.55006
0.09556975 47.650436 29.01234
0.81753945 41.9944 27.390993
0.3975362 42.354103 28.362814
0.110012114 42.799866 25.931452
0.25528678 44.065346 25.419617
0.779235 43.333893 29.95316
0.53116375 44.761143 25.475164
0.59501666 44.509888 25.499954
1.0569364 44.46001 30.963678
0.58120275 45.28139 25.615395
1.1630492 45.745228 32.388985
1.3061715 45.32883 32.91841
0.48388803 45.83984 26.046762
1.3555728 46.247505 32.538383
0.54670477 47.125237 27.116024
0.22529459 47.403725 27.40355
0.5129921 47.111492 30.338217
0.5164312 47.61102 27.776915
0.2702561 47.71557 28.6533
0.48935962 47.73385 29.058165
2.2612302 40.769836 25.719267
1.7380261 41.457123 26.598764
1.76453 41.646355 28.1623
2.037376 41.9527 29.118052
1.4638653 44.216507 31.892391
1.9537522 44.16093 32.563023
2.032107 44.304234 33.250072
1.8792392 44.706768 33.455837
2.0275555 44.686428 33.73597
2.0744255 45.63734 25.76895
1.5612457 45.633755 33.387276
1.9681845 45.44786 33.92402
1.655399 46.41727 33.249977
2.0833473 46.18193 33.8727
1.1770552 47.312756 27.26323
1.2843992 47.317654 30.06258
1.9318609 47.190804 31.492432
1.8363538 47.08526 32.388447
1.9277925 46.773212 33.179016
1.2248461 47.602 28.240112
3.274033 39.942863 23.845905
3.0348887 40.030743 24.787598
2.6123312 40.15288 25.503057
2.854954 39.86637 26.41167
2.8674521 40.0908 27.372387
3.325988 40.22361 23.651293
2.913297 40.794476 28.276594
2.7297857 41.457504 25.01695
3.0341625 42.31431 29.810251
2.7471125 42.759697 24.658073
2.6689034 43.165943 30.550947
2.6581001 43.38252 31.346678
3.000822 43.404057 24.716516
2.5456238 43.817387 32.661762
2.6223433 44.136444 33.36704
2.6391451 44.670868 33.97692
2.266592 45.36863 25.698555
2.3836076 45.45112 34.17417
3.034292 47.225826 27.345644
2.2404299 47.28728 29.81213
2.5423985 47.32316 30.504326
2.7135804 47.48617 31.664972
2.765547 47.18557 33.27585
2.9333696 47.73036 28.677748
2.7383566 47.680225 29.125994
3.0333014 47.57816 32.926147
4.304595 32.97106 26.483345
4.308596 34.018616 24.506405
4.172631 33.864655 25.65578
4.264875 33.384884 26.591806
4.2887745 33.30994 27.099754
4.2419987 34.5194 24.079014
4.054485 34.600918 24.397345
3.973677 34.87289 25.156546
4.2254195 34.550594 26.321638
4.375421 33.944298 27.109808
4.343233 35.575977 23.873234
4.0540705 35.351307 24.577436
4.381472 36.275333 23.822582
4.363902 36.304096 24.378925
4.2196884 38.90615 23.578098
3.7310278 39.058792 24.794308
3.7781005 39.85088 23.156897
3.9078133 39.371628 23.410769
3.7591562 39.89414 27.624943
3.6163645 40.141396 27.95186
3.6103647 40.67919 23.072216
3.4556224 40.416668 23.395983
3.9057562 40.482018 28.451174
3.967363 41.150703 22.915663
4.138956 41.620506 29.41109
4.081468 42.07277 23.022352
3.274069 42.598362 30.230095
4.090299 43.072456 32.401516
3.40155 44.395557 24.984676
3.9910014 44.938946 34.389824
3.3474755 45.330166 34.37466
4.029148 46.89192 24.245607
4.0122237 46.409504 24.445553
3.802743 46.286945 34.484142
4.211154 47.04998 24.202646
4.1052437 47.224903 24.456284
3.945676 47.605022 25.287964
3.6947117 47.368572 33.516907
3.6394289 47.285084 33.709137
4.2391596 47.971287 25.473558
3.8181698 47.777863 28.068388
3.9544625 47.66325 31.535973
3.6982863 47.68657 32.586567
4.930549 32.273663 26.022602
4.980409 32.07791 26.622536
4.998465 32.208107 27.283518
5.1979003 32.93734 24.689926
4.580981 32.867176 25.704687
4.4852924 32.51946 26.631277
4.710099 32.642223 27.406738
4.9366736 32.83473 27.809391
4.853217 34.020184 23.770742
4.5234838 33.693348 24.616604
4.536297 33.498436 27.461246
4.8845005 33.433357 27.874636
5.0280447 34.812374 23.234762
4.80517 34.50094 23.553654
4.6441655 34.533333 27.390074
5.0651298 34.162857 27.870813
4.9535365 35.77936 23.024303
4.4496236 35.48886 23.64412
4.519253 35.64787 26.211885
4.8463626 35.223797 27.310955
4.6515183 36.461063 23.411985
5.2386026 36.54629 26.404045
5.1092124 36.042667 26.948265
4.528108 38.364445 24.970129
4.5085864 39.1562 26.108555
5.2018185 40.052776 21.903522
4.3731704 39.789806 27.441124
4.7743 39.99947 27.918264
5.3566933 40.79808 31.686949
5.3576035 40.87042 31.95962
4.7577515 41.648716 21.658998
5.207257 41.273876 30.521479
5.150701 41.5544 32.113304
4.9384418 42.391045 32.249065
4.892367 43.186413 22.564695
4.1171074 43.62499 33.456512
4.307808 44.313248 34.094955
4.388919 44.78278 24.206516
4.712235 44.64227 34.41801
4.7471294 45.60056 34.809082
4.7692757 46.52278 34.682663
4.8303804 47.31802 23.78144
4.3520412 47.5448 24.351818
4.3332925 47.57099 33.563793
4.6625943 47.245075 34.106426
4.885184 47.73414 24.078407
4.7446294 48.067516 24.753721
4.538185 48.32748 25.702854
4.6709614 48.21396 26.485794
4.616642 47.66983 29.709314
4.461173 47.73924 30.586647
4.5041437 47.755924 31.64236
5.992793 32.304737 25.120008
5.7022934 32.069588 25.603895
5.696489 31.79713 26.350891
5.656114 31.963099 27.38375
5.644499 32.210575 27.801258
5.8425765 33.213947 23.99179
5.559031 32.77812 24.74556
5.2545238 32.43737 25.434359
5.5183306 32.57732 28.008196
5.560999 34.174873 23.21934
5.6023297 33.61142 23.66398
5.595107 33.40809 28.23573
5.4662733 34.684723 22.994184
5.5189905 34.29237 28.121048
5.597361 35.86872 22.418245
5.5894837 35.30459 22.726404
5.7613854 35.1806 27.9136
6.0523953 36.718346 22.195595
5.5875125 36.152813 27.204462
6.1258674 37.577396 21.971373
6.167549 38.83216 21.606136
5.7037745 39.708122 21.57769
5.8556447 40.697803 32.358036
5.5233035 41.977768 20.684652
5.59387 41.247517 32.51122
5.8761935 41.91868 33.22403
6.0125527 42.74238 19.913996
5.5426755 42.53388 20.57062
5.446907 42.368496 32.698936
6.136135 42.29656 33.661133
5.9314847 43.29308 19.937494
5.710355 43.60046 20.365772
5.357115 43.934574 33.73473
6.4379177 44.585598 19.158863
6.215066 44.377758 19.596527
5.7710953 44.389366 20.720884
5.5398436 44.596237 34.297718
5.120375 45.036854 34.661186
6.174264 44.872086 20.039772
6.2821655 44.883194 20.370125
5.374409 45.5166 34.735004
5.533727 46.59998 34.494022
5.3044877 46.28449 34.723988
5.39626 47.16246 23.482347
5.496764 47.18108 34.09934
5.125163 48.067986 27.480812
5.7759104 47.810963 28.959866
5.253493 47.7196 31.969496
5.6191244 47.679142 32.196613
5.0857315 47.958954 33.023064
6.429417 51.311928 27.70522
6.4550037 51.42675 28.86881
6.355486 32.26418 25.224703
6.3629847 31.91815 25.735773
6.3250694 31.729319 26.519773
6.394333 31.93409 27.34467
6.399761 32.219807 27.89532
6.3233404 33.234024 23.960283
6.294542 32.70027 24.697094
6.1181364 32.602894 28.248621
6.2426553 33.861874 23.298742
6.4145017 33.636215 23.486238
6.144496 33.40912 28.396774
6.358342 34.775623 22.783005
6.916178 35.771664 22.049393
6.5290036 36.69958 21.897762
6.4775615 36.313126 27.217182
6.839637 37.975086 21.274323
6.951219 37.58627 21.45741
6.343792 38.3519 21.601828
6.1957197 39.144665 21.418314
6.725371 39.840282 27.3795
6.6420197 40.243977 29.982677
6.464288 39.92881 30.738089
6.5643272 40.020145 31.711508
6.6219172 40.119114 32.08576
6.8827333 40.47107 21.020388
6.8653774 40.93038 33.244385
6.4097447 41.652805 33.316395
6.968226 41.804268 33.93364
6.9874177 42.84395 19.240711
6.6925983 42.447556 34.02198
6.8447375 43.769764 18.94737
6.536245 43.33459 34.037724
7.146594 44.718124 18.304005
6.8342657 44.595802 18.7188
6.911502 45.285698 18.754927
6.718899 45.543747 19.61226
6.1792116 45.407562 34.379673
6.9684215 46.091267 19.550373
7.0107083 46.22293 20.346994
6.220977 46.54955 34.10753
5.8988757 46.064728 34.609993
7.3909717 47.264038 20.153631
6.9251018 47.70097 21.35766
6.00844 47.423798 33.415886
6.060523 47.02169 34.00233
7.294273 48.73103 20.002527
6.863342 48.53712 21.207155
6.7764773 48.34207 22.461714
7.082248 48.340508 29.157564
7.3097506 49.519863 20.654915
7.355798 49.26651 28.724604
7.215621 49.792465 21.73657
7.3082275 50.108025 22.429338
7.27271 50.908264 26.719036
6.625889 50.962414 27.673275
6.5219646 50.519764 28.23483
7.2999682 50.746937 30.136614
6.8326664 51.37664 27.143776
6.635716 51.453445 27.500584
6.553172 51.513687 28.794329
6.7154784 51.647976 29.350204
7.3023577 51.756786 30.441694
7.086375 52.04097 27.133312
6.86239 52.124947 27.59019
6.8244653 52.309948 28.5997
6.983575 52.319653 29.447702
7.1645417 52.24794 30.0249
7.1432223 52.616154 28.376455
7.262269 52.697197 29.288694
6.868241 32.149704 25.63143
7.2182913 32.132202 26.48053
6.9766707 32.08862 27.309969
7.0923805 33.061886 24.686558
6.9213133 32.89019 28.191505
7.497454 33.924816 23.865892
7.1907015 33.621037 28.325087
[...]
POINT_DATA 3126
SCALARS features_00 float 1
LOOKUP_TABLE default
0.751659 0.7463801 0.71255636 0.7313224 0.7316959 0.6995072 0.7083148 0.693056 0.6980492 0.7177188 0.7278687 0.7282386 0.62448895 0.72556597 0.74338245 0.68154967 0.5713046 0.72257113 0.7252476 0.66062564 0.5725289 0.7034726 0.6726227 0.68502367 0.67953193 0.6896697 0.6936407 0.6888628 0.6101664 0.6263917 0.64166594 0.6179644 0.6587495 0.675833 0.64033675 0.5915413 0.45020357 0.7148478 0.47637376 0.3398512 0.41310707 0.6844704 0.59015965 0.6350825 0.6341172 0.5641347 0.5780778 0.57715774 0.60037637 0.55492747 0.53946376 0.41915488 0.43019632 0.63775516 0.675601 0.23321769 0.53647447 0.53928554 0.20331761 0.48352656 0.5860802 0.6022373 0.49299946 0.6089128 0.5155256 0.5322594 0.48249543 0.5046755 0.51905787 0.49184543 0.35423517 0.2995718 0.23671599 0.12291914 0.32841212 0.39507806 0.48950577 0.5631561 0.5717923 0.19772579 0.63186204 0.63372767 0.6413933 0.6691291 0.44467244 0.32782614 0.33050922 0.5426043 0.62626386 0.41846043 0.28753233 0.30872515 0.3497773 0.4094764 0.3245343 0.27996495 0.20335779 0.30044717 0.018956844 0.09238282 0.043239668 0.10502346 -0.006989591 0.3085534 0.4430514 0.5500237 0.15202309 0.6383108 0.1613664 0.16956857 0.15287116 0.3386351 0.58245456 0.14951684 0.14921084 0.5166869 0.7779043 0.5630752 0.6700048 0.7412264 0.7525313 0.5188242 0.5277163 0.5615292 0.65024346 0.6891044 0.47638077 0.49141446 0.4256603 0.41147715 0.33442494 0.31786445 0.3044168 0.32693988 0.28580955 0.26386565 0.264677 0.2693197 0.20481989 0.2548313 -0.070251346 0.15504137 -0.017157659 0.064099796 -0.03831993 0.5134821 0.5958884 0.31708714 0.27401686 0.7129091 0.3218092 0.33759007 0.33147138 0.5779326 0.59646285 0.32548732 0.06343852 0.29743442 0.46293974 0.7764126 0.86193 0.8605956 0.5381388 0.72007155 0.8249687 0.8192846 0.7976419 0.51227355 0.5754695 0.73643327 0.74226546 0.4726478 0.4962052 0.637787 0.6668396 0.43643874 0.47544962 0.5916762 0.5917807 0.3934168 0.49128258 0.54762715 0.23100495 0.32180184 0.17283994 0.2668652 0.1935135 0.352678 0.3445226 0.19924405 0.25148457 0.26665357 0.16813666 0.15202689 0.29703584 0.40607262 0.011381514 0.43494406 0.5731987 0.6479171 0.31162238 0.3341257 0.59947574 0.6565372 0.32082522 0.32365775 0.29271093 0.17188898 -0.0023499597 0.12753415 0.32124197 0.5611737 0.6551372 0.82046974 0.8763125 0.84691864 0.47370225 0.52578264 0.6420762 0.8129262 0.45987022 0.477701 0.724143 0.44506687 0.6380279 0.3582987 0.40588534 0.5507364 0.20505804 0.52974606 0.063355595 0.030212078 0.09120176 0.4107874 0.23272036 0.33696178 0.32765576 0.34231627 0.28273082 0.2413821 0.35907093 0.3681741 0.32760817 0.2575748 0.4510072 0.40637517 0.29514992 0.3797611 0.48452508 0.36796603 0.33825764 0.5415413 0.6033325 0.60129887 0.25799608 0.6249925 0.030597236 -0.20598507 0.38145706 0.43266964 0.57546663 0.6752472 0.7395649 0.55528474 0.65950274 0.83279836 0.86504054 0.8206818 0.44279802 0.4887156 0.7826998 0.42077023 0.41706628 0.68119764 0.37677926 0.25216612 0.13876641 0.5027626 0.013361292 0.029099563 0.01080671 0.045714945 -0.1382813 0.3210137 0.37563112 0.46500474 0.49447173 0.06102325 0.4349743 0.3882978 0.44527522 0.38562906 0.42793313 0.47957462 0.3568747 0.5919697 0.5272023 0.53756326 0.40062255 0.46411812 0.41028136 0.3050507 0.5525352 0.55677795 0.3486642 0.3214499 0.621477 0.5868001 0.5044009 0.43295848 0.27551192 -0.24124256 0.50862193 0.24624194 0.4405442 0.3649471 0.48727354 0.6377499 0.6267586 0.6977823 0.6056076 0.6596961 0.74407756 0.79334974 0.8053338 0.625836 0.68190014 0.7677651 0.83251065 0.83075553 0.74922746 0.8235271 0.6007556 0.7630164 0.83453697 0.42005077 0.7087652 0.34729186 0.49224588 0.32970905 0.3969069 0.19967702 0.29011792 0.37793303 0.20439532 0.38366258 0.09101623 -0.36800438 0.017346816 0.20239763 0.25998256 0.43358403 0.45057273 0.3560541 0.4521749 0.52576935 0.48630494 0.38160384 0.6000638 0.28247285 0.6234256 0.34774607 0.5724789 0.5268103 0.43107185 -0.056594454 0.5104434 0.5352065 0.5185422 0.30998316 0.5350338 0.50873315 0.43800128 0.3173443 0.1920536 0.17612118 0.74771774 0.35442302 0.3310554 0.7633829 0.5523083 0.63927287 0.8036486 0.7718569 0.67068315 0.7511716 0.8115814 0.78173184 0.40117732 0.66288644 0.24549015 0.2448512 0.10812044 0.1370063 0.23064709 0.25247058 -0.002759859 -0.002947241 0.22898613 -0.050511107 0.6031048 0.6630999 0.6811992 0.24624254 0.2280338 -0.18372001 0.44527054 0.59307194 0.6598025 0.20549086 0.18958154 -0.26762605 -0.30233967 0.36988437 0.6241116 0.09074592 -0.33649826 -0.36522633 -0.35222977 0.011350343 0.23925075 0.53665143 0.5607687 -0.107331276 0.113562554 0.12990509 0.4141782 0.3470996 0.34039545 0.31457663 0.6069825 0.13017112 0.24564639 0.6130627 0.54440856 0.43498185 0.25680333 0.34756628 0.251015 0.3588984 0.4563132 0.26964852 0.37804174 0.50818 0.5318598 0.5443764 0.5014521 0.41683573 0.27108964 0.66511405 0.2842977 0.25442475 0.51320094 0.7257594 0.66131413 0.6150367 0.6922833 0.71742135 0.721297 0.43533605 0.22732139 0.077868134 0.14507899 0.08934691 0.1909254 0.6706587 0.68902576 0.6994268 0.24316382 0.20083943 0.6055869 0.6866263 0.6987258 0.6885233 0.24278685 0.65954924 0.2100333 -0.28673023 0.6165305 0.059795104 0.41199994 -0.0019901302 -0.05536262 0.28411907 -0.14200112 0.19661692 0.07680506 0.11316039 0.14213064 0.5014447 0.38237494 0.19313525 0.542814 0.13827224 0.6161031 -0.02258016 0.4841846 0.29557306 0.40324062 0.27007204 0.41671324 0.43253252 0.44857055 0.37106365 0.2711188 0.37832576 0.5392869 0.2428714 0.3218019 0.28601316 0.5384853 0.24251261 0.25334296 0.40957752 0.5321829 0.5988285 0.47500032 0.627859 0.58937764 0.598223 0.48690704 0.47092786 0.4822047 0.47409776 0.4369928 0.3343206 0.09474435 0.64012706 0.68386155 0.7019808 0.12603894 0.7021041 0.68303216 0.12873852 0.65473807 0.11308278 0.5294958 0.078658715 0.33133703 -0.0388191 0.272784 0.20990506 -0.05169325 0.09186429 -0.08733028 0.5445819 0.35557702 0.278071 0.37409455 -0.044667557 -0.14444257 0.42427868 0.43950725 0.32264555 0.41984963 0.15137355 0.21630806 0.1963634 0.18572664 0.3888377 0.43460798 0.45044932 0.4091449 0.4932732 0.53507483 0.5857581 0.65441483 0.65810084 0.700258 0.4718387 0.4377661 0.4312522 0.44065455 0.33238727 0.15468103 0.17160106 0.3300465 0.21560797 0.13814066 0.10733845 0.1346868 0.25734502 0.63794243 0.65776634 0.3197921 0.27934206 0.17348318 -0.43294504 -0.44622537 0.6523756 0.64058983 0.52311254 0.4811157 0.4553966 0.28422746 0.07492799 0.5866047 0.5432199 0.5216874 0.45850694 0.44869184 0.49304432 0.47080535 0.3232974 0.26010185 0.20669201 -0.13749607 0.07212824 -0.050977424 0.1384235 0.07578876 0.13240913 -0.35953137 0.35725468 -0.2414222 -0.23325887 0.41869742 -0.1584141 0.42345893 0.4377232 -0.026834339 0.36151847 0.20647281 0.15601817 0.038172014 0.14741138 0.17105375 0.35756224 0.42794994 0.68072295 0.4946522 0.5307555 0.6084322 0.67476344 0.7338141 0.730006 0.3930713 0.22698058 0.11589661 0.20863476 0.2889544 0.37550157 0.1925894 0.2007787 0.19728878 0.14045145 0.12241821 0.35347632 0.27743864 0.22672199 0.06883456 -0.32718712 0.3653444 0.4669687 0.43278667 0.346109 0.26097578 0.38663414 0.51221824 0.5138992 0.48102725 0.29956937 0.429486 0.5463887 0.5546979 0.29823193 0.5452318 0.27920526 0.4279067 0.3596868 0.2602272 0.20934124 0.21819624 0.06847311 0.20886865 0.23906139 0.14414202 0.22170168 0.17315221 0.18829413 0.30226934 0.13198037 0.32765824 0.2202408 0.11677736 0.051881474 -0.2497605 0.17574058 0.28882784 -0.011633158 0.27466214 0.13809873 0.31223363 0.22245003 0.2767895 0.16234785 0.13602093 0.14838189 -0.027741574 -0.016126534 0.17144498 0.18761806 0.24438818 0.40701532 0.3916155 0.65322006 0.48686218 0.5322271 0.5926669 0.6868013 0.74877894 0.7251462 0.6349628 0.69452703 0.2773455 0.2773144 0.06391912 0.30122963 0.274984 0.27376482 0.2565145 0.06977018 0.24948664 0.35941237 0.22430912 0.21021163 0.339576 0.2924678 0.43891084 0.39194584 -0.14146152 0.12384915 0.50803745 0.48844427 0.123070225 0.5283966 0.20432614 0.5113348 0.244237 0.38332027 0.39136282 0.30289486 0.26790223 0.2271662 0.21414185 0.22511753 0.19903088 0.19820997 0.21102816 0.40216568 0.38249928 0.19226469 0.4605276 0.43950668 0.16401514 0.51568484 0.45870686 0.41069838 0.14905144 -0.039957374 0.12565412 0.44472906 0.3702165 0.13084117 -0.14521246 0.17292416 0.16186346 0.2461859 0.26287222 0.32348064 0.3094306 0.27310258 0.3065968 0.3560685 0.36798432 0.16084489 0.20347714 0.17876987 0.050453685 0.21015024 0.22692877 0.56422293 0.34286687 0.42924362 0.65741897 0.47372788 0.52499163 0.57998854 0.69002146 0.73728925 0.7073266 0.59569323 0.67603934 0.24740538 0.33202463 0.30177224 0.12390571 0.26343176 0.27278095 0.24460068 0.07211274 0.26152858 0.37258324 0.40757304 0.2938555 0.29063943 0.27480602 0.11228186 0.3979619 0.39332432 0.31764954 0.29827738 0.20461267 0.20527124 0.39867684 -0.10029036 0.46374047 0.46143818 0.009526126 0.48834693 0.13943496 0.46699545 0.17894158 0.39535382 0.21799451 0.23696983 0.23587404 0.12700143 0.32197613 0.24135837 0.24175583 0.39815068 0.23767957 0.5964844 0.49871185 0.22379646 0.24282196 0.6808283 0.5729496 0.7243848 0.6419989 0.48556072 0.38836592 0.3049578 0.03212452 0.69979954 0.5620972 0.35668325 0.18630983 0.124839276 0.37954375 0.4427245 0.36182916 0.4522111 0.20260727 0.20642231 0.37761986 0.23676363 0.3078442 0.56800485 0.2974477 0.34076533 0.38449588 0.6378597 0.6159869 0.4455534 0.4717555 0.5848601 0.6627188 0.6528202 0.6577245 0.09991199 0.15772957 0.2677179 0.3619033 0.3920138 0.30449164 0.30662605 0.2365944 0.0454386 -0.08143843 0.08537106 0.08984795 0.19945653 0.4121381 0.24954423 0.29435447 0.38220495 0.18540452 0.31318521 0.2664389 0.36587024 0.13373162 0.2612882 0.437729 0.12089713 0.4499076 0.42451066 0.39321607 0.12412625 0.3337701 0.14293963 0.15514663 0.20858672 0.28681916 0.38920897 0.3710863 0.8071385 0.6006627 0.37232816 0.8446163 0.75270665 0.3094707 0.32815057 0.2831906 0.87552655 0.8039551 0.18320408 0.043493357 0.046359524 0.8762509 0.84010756 0.75786614 0.6774559 0.18892151 0.33349943 0.4917965 0.43773448 0.3884254 0.5426105 0.47415316 0.38532865 0.37386617 0.2286831 0.48273966 0.5236302 0.26793888 0.314178 0.34109414 0.36624056 0.36502618 0.33011124 0.5377773 0.35047054 0.3206986 0.399001 0.47641724 0.5684099 0.5945362 0.57256645 0.61394644 0.6354337 0.8182701 0.7498422 0.65164924 0.84874916 0.78103036 0.64889586 0.77256936 0.76754475 0.6097207 0.5657065 0.39140034 0.54226846 0.26273003 0.07791049 -0.06953295 0.024509087 -0.04396234 0.38314837 0.39433765 0.25255054 0.17578024 0.19461863 -0.091670215 0.38697714 0.38382554 0.28418258 0.36170924 0.20755354 0.30104658 0.2957796 0.27436715 0.36129764 0.23899093 0.1690917 0.30148038 0.09595744 0.21611643 0.1305241 -0.31168053 0.20919898 0.19135267 -0.46371287 -0.33646268 0.3256994 0.22327551 0.5191995 -0.5242848 -0.32456815 0.4005365 0.6950495 -0.64778435 -0.12954353 0.4539634 0.84000075 0.75463134 -0.11244342 0.41004178 0.44914633 0.44702053 0.910293 -0.5659231 0.23305912 0.34029827 0.35541233 0.4065995 0.944885 -0.050497904 0.9194782 0.893036 0.8634087 0.7522607 0.16088733 0.87122744 0.35983777 0.4642947 0.38347426 0.37175453 0.059151277 0.31067038 0.5234039 0.3263197 0.31178698 0.27973306 0.3687665 0.12774448 0.35081232 0.37097478 0.3713944 0.35275173 0.29893202 0.41786426 0.7784338 0.72808325 0.6753387 0.8569265 0.81395 0.74891275 0.63879347 0.48228377 0.87338686 0.46704245 0.391196 0.72596353 0.37305707 0.32248333 0.2610898 0.634297 0.39970255 0.22471014 0.17179585 0.10860869 -0.11627969 0.19020739 0.07265731 0.34445333 0.88480175 0.90623605 0.8741386 0.707628 0.24001837 0.29369485 0.29324892 0.92976105 0.9403062 0.8753128 0.74156785 0.67697716 0.25862518 0.26758724 0.89552766 0.86063135 0.8231051 0.75806725 0.20582837 0.25614172 0.28241724 0.7817904 0.7827709 0.75981224 0.15763085 0.3002024 0.3053282 0.25167555 0.2834497 0.27103862 0.17962226 0.2851767 0.21700934 0.2453889 0.25081193 0.20968492 0.19936296 -0.5056082 -0.116117276 0.12757425 -0.057152554 0.2292119 0.30994618 0.0088980105 0.28613418 0.33101755 0.697567 0.6543416 -0.49542028 0.16402574 0.34461173 0.43986642 0.8274585 0.7790659 0.10817073 0.25412172 0.34412682 0.38388768 0.44410866 0.8930116 0.22841482 0.95506954 0.27255762 -0.11981283 0.9502595 0.9253129 0.8825233 0.82057524 0.719177 0.2004436 0.3515312 0.87596834 0.32778838 0.32734793 0.3527439 0.3606723 0.34224296 0.30633098 0.37132752 0.506533 0.3410255 0.34214708 0.2840323 0.23988709 0.25233984 0.3534729 0.3250408 0.7656772 0.7093065 0.66256607 0.8269907 0.7878531 0.41746187 0.3782115 0.826633 0.84531903 0.3602841 0.31371984 0.76658654 0.2964691 0.26732177 0.6538751 0.22324142 0.22082426 0.23245263 0.7831267 0.8111634 0.7917598 0.7384861 0.18247965 0.028133035 0.20700733 0.8238537 0.69533026 0.6483444 0.6309222 0.25361657 0.07127561 0.81966454 0.6531949 0.6330961 0.26968223 0.14183037 0.12865394 0.8751298 0.71162677 0.64352703 0.22649047 0.09741825 0.7668345 0.767839 0.7358633 0.6331862 0.14859492 0.20072888 0.24656159 0.06582626 0.22707489 0.28396922 0.2848878 0.20489563 0.31562412 0.14574383 0.3744623 0.050916348 0.09469984 0.09983757 0.4509436 0.49070626 0.47698772 0.30536973 -0.41298226 0.045573547 0.380332 0.4653718 0.4700088 0.2440492 -0.45261806 0.079993725 0.20399849 0.31834346 0.35157257 0.43226153 0.44795012 0.20215166 -0.5397492 0.19622114 0.29009622 0.316126 -0.27177215 0.6766683 0.5714741 0.48826742 0.5995142 0.7930531 0.7858058 0.7096244 0.6145861 0.53930205 0.8216443 0.7777276 0.68648016 0.8222561 0.76987165 0.6386543 0.55991995 0.8697846 0.8216552 0.79167044 0.076137915 -0.15759331 -0.09613073 -0.5522682 0.4160428 0.78025234 0.8954464 0.90648425 0.836874 0.75126487 0.5871196 0.3580383 0.9195445 0.8834182 0.80260056 0.22128128 0.4318635 0.41201547 0.33406794 0.417688 0.3449551 0.5062647 0.30739045 0.23774287 0.6016892 0.23959565 0.22553396 0.62895507 0.23499334 0.35482338 0.50753415 0.5726868 0.57848287 0.7904396 0.7682515 0.5797043 0.5793767 0.7505827 0.6914583 0.5733912 0.5545019 0.55369866 0.6584796 0.54628503 0.7334411 0.6972867 0.63059545 0.77660525 0.74600345 0.41619372 0.33921754 0.78088045 0.28747863 0.28553963 0.6986349 0.2908184 0.28353345 0.63230366 0.7425519 0.64209366 0.6345497 0.65336454 0.16864651 0.7000179 0.6059811 0.21228175 0.11051372 0.060610242 0.03779938 0.65133107 0.7096341 0.60376096 0.045312017 0.7061187 0.7402737 0.57210606 0.1567312 0.6826428 0.6067431 0.6220994 0.07358365 0.100467145 0.14826891 0.27977648 0.2885642 0.30131784 0.35458502 0.42351726 0.37276548 -0.058620587 -0.0011613667 0.26813772 0.3345197 0.40251708 0.42768973 0.3697967 0.4677127 0.31498674 0.3701723 0.4759303 0.4548404 0.39148337 0.41251898 -0.23655376 0.2806884 0.33751178 0.4531623 0.42286724 0.36043102 0.34234992 0.416143 0.4683367 0.42409602 -0.41408244 0.34234577 0.36809075 0.18453048 -0.16522142 0.6371639 0.602272 0.42428932 0.19695395 -0.16292024 0.7394949 0.5172978 0.5263798 0.70082855 0.6218929 0.74379265 0.8020173 0.6281403 0.5636416 0.5597287 0.7333194 0.06990771 -0.0012890361 0.7441463 0.7452347 0.72456914 0.66404593 0.5870502 -0.04815615 0.48357052 0.5254972 0.49614787 0.6732242 0.2660144 0.04263048 -0.110540524 0.4987683 0.26905575 0.09372612 0.5077085 0.28998315 0.2587744 0.65299475 0.3217659 0.6722674 0.25506032 0.3979314 0.49759924 0.62494284 0.65923214 0.6619309 0.35161275 0.5101463 0.57745016 0.5589465 0.5565191 0.80794203 0.79186285 0.6693163 0.5637454 0.5691664 0.562661 0.81941557 0.5759367 0.559538 0.79897296 0.7760142 0.5665649 0.73574626 0.6650322 0.56747895 0.5015714 0.6783471 0.62416 0.5655638 0.6760887 0.6170833 0.53211373 0.52729845 0.48879394 0.18885064 0.23169175 0.24543211 0.23894495 0.53965026 0.20914675 0.5389839 0.5845138 0.115539104 0.18332128 0.54155684 0.5259865 -0.016045414 0.11914997 0.07647454 0.49843228 0.5485916 0.03456194 0.055467144 0.076450616 0.5214307 0.53678846 0.09032054 0.59174037 0.4309829 0.5064379 0.110013366 0.02671723 0.48259786 0.20546049 0.16102205 0.34656492 0.10039666 0.28812987 0.43422067 -0.012083665 -0.02163443 0.3797024 0.36872578 0.31854486 0.4774519 -0.1772418 0.3640313 0.31022373 0.2939251 0.11964236 0.29261816 0.43746796 -0.23557384 0.035671532 0.30274597 0.2521537 0.3521632 0.38310957 -0.29527488 -0.23438324 0.08210214 0.07523923 0.22147167 0.13196488 0.32030377 0.29164836 0.2532736 0.2339415 0.1650658 0.1840761 -0.24299213 0.25499594 0.61133087 0.6156485 0.42227328 0.6860343 0.5381341 0.19048306 0.18343252 0.1590477 -0.12121999 0.6928134 0.55660737 0.10341951 0.6594899 0.6656327 0.67327857 0.6177495 0.21996886 0.14062935 0.49852413 0.6345829 0.61732733 0.26730537 0.22926265 -0.17659664 0.5299016 0.156073 0.2231244 0.5709384 0.5962556 0.35277095 0.51088184 0.661525 0.35019276 0.48176908 0.6112305 0.62770176 0.6764909 0.5821289 0.63665867 0.6677867 0.72721666 0.54241335 0.5262806 0.7585945 0.77382386 0.53815025 0.516749 0.7944155 0.5090139 0.7800231 0.5184403 0.75704205 0.7446176 0.37854946 0.6861305 0.54446787 0.4875173 0.363505 0.36742592 0.27698275 0.27465877 0.19060484 0.13341509 0.15987049 0.18876699 0.39370143 0.2528382 0.2863375 0.24535617 0.1966978 0.19295596 0.42829725 0.4400013 0.18583784 0.18612777 0.4965571 0.5198868 0.58496267 0.53918445 0.10833222 0.21291043 0.5406557 0.5183447 0.2831546 0.13237907 0.22863096 0.5261034 0.6542156 0.54670215 0.15547885 -0.01125228 0.4516176 -0.0041379333 0.20743002 0.04507214 0.29639518 0.46146634 0.43968773 0.4289538 0.37842107 0.18791267 -0.07512715 0.06429972 -0.022141159 -0.039434332 0.40970534 0.42301857 0.39930493 0.35121584 0.22990805 0.22933283 0.3118009 0.44831604 0.4234421 -0.18138555 0.14190534 0.2296516 0.32594234 0.4063735 -0.08555289 0.16729203 0.07971816 0.043380782 0.280414 0.3481354 0.06855716 0.042196423 0.08696755 0.13291024 0.18619707 0.17815274 0.054023914 -0.18454885 -0.02164651 0.22153296 -0.3293198 0.09089893 0.0810774 0.0796652 0.18339016 0.17616464 -0.04415995 0.28615946 0.17325185 0.15761803 -0.3898666 -0.18123642 0.08267495 0.07267824 0.07805328 0.12251416 0.19728282 0.22361931 0.25553554 0.23572184 -0.085200675 0.13457128 0.14587757 0.111983076 0.2102701 0.237363 0.26371393 0.5094842 0.16619177 0.26193294 0.5778203 0.5888227 0.55564827 0.61065876 0.16815597 0.29894087 0.27580732 0.5214847 0.55566525 0.59408784 0.62502325 0.28431597 0.5744904 0.60150206 0.63261354 0.46284264 0.4486863 0.7549392 0.7037152 0.6652477 0.48004836 0.7488475 0.41006666 0.7442169 0.69637144 0.6441664 0.23740572 0.5511572 0.12465319 0.50536597 0.46173853 0.37179193 -0.12593557 0.018256687 0.12062514 0.14224848 0.36067903 0.31698537 0.044706855 0.32466328 0.33275855 0.31509522 0.17164516 0.0898735 0.071180426 0.1343966 0.028718818 0.7002026 0.5623037 0.21410778 0.26346406 -0.007957451 0.5024407 0.7691802 0.7138854 -0.018098919 0.49525532 0.77184117 0.26511598 0.7358552 0.22588457 0.07639517 0.096327424 0.46436363 0.40450513 0.3914107 0.23863184 0.34996814 0.035739414 0.36453798 0.2354453 0.3883494 0.29559058 0.37481007 0.42846897 0.27438807 0.41855517 0.48051995 0.4010564 0.4736191 0.14388782 0.3191102 0.44202557 0.07670442 0.07892301 0.12551019 0.10788815 0.15759704 0.25504655 0.092667945 0.11075032 0.14269216 0.1392022 0.20207639 0.2578002 0.30644605 0.23634773 0.33938757 0.5670365 0.11456282 0.25307125 0.34139812 0.3395964 0.60495293 0.5873238 0.252475 0.30802014 0.31400728 0.29911053 0.50182474 0.57080555 0.58764213 0.48489594 0.5645747 0.59756243 0.6928627 0.6627219 0.5870778 0.23980913 0.52445936 0.15443337 0.16735853 0.47969103 0.31501782 0.17312966 0.05461194 0.599944 0.67883897 0.39987886 0.32398826 0.46352574 0.6380111 0.66567385 0.22961675 0.44742042 0.13113359 0.51497 0.073850505 0.13898554 0.41618636 0.09319607 0.59572005 0.31531847 0.1718455 0.086104885 0.79125 0.76301205 0.2565828 0.26695573 0.098939665 0.81118715 0.33856416 0.22802287 0.14960748 0.79525506 0.24190223 0.17064938 0.7044547 0.6061362 0.18319714 0.14413193 0.42560792 0.020800285 0.37722394 0.28528783 0.35249585 -0.035469398 0.3892855 0.39338863 0.34612978 0.39804292 0.40146604 0.41354996 0.12325657 0.009515807 0.49861503 0.5715507 0.29273522 0.54