# vtk DataFile Version 2.0
Really cool data
ASCII
DATASET POLYDATA
POINTS 7976 float
38.43539 21.00685 3.018136
38.46083 21.315334 3.0122313
38.451107 21.215876 3.256313
39.06113 19.65571 3.0386949
38.941444 19.818369 3.6209595
39.140446 19.833189 4.0884666
39.17647 20.67568 2.0172398
38.647003 20.59273 2.8420715
38.529266 20.698303 3.4325562
38.728985 20.776913 4.27593
39.113514 21.32424 2.153528
38.681328 21.593658 2.8322968
38.534004 21.507816 3.5010998
38.90658 21.238605 4.5154023
39.116455 21.908455 2.396181
38.77295 21.955315 3.5305927
39.99902 -7.8128805 55.894238
40.02924 -7.9592595 56.636925
39.980698 -7.78321 57.08187
40.37604 -7.0832477 54.46867
39.820118 -7.4524317 55.948555
39.645588 -7.3232484 56.514786
39.877773 -7.3577785 57.288242
40.16069 -7.1265883 57.899082
40.251415 -6.5286326 54.687237
39.70058 -6.5222344 55.893288
39.573586 -6.4848185 56.522976
39.735718 -6.5481796 57.336765
40.100792 -6.589212 57.90116
40.226215 -5.871318 55.02494
39.993713 -5.6251307 55.83072
39.79655 -5.6723924 56.561993
39.93474 -5.7441278 57.27712
40.21024 -5.9207487 57.853867
40.115486 -5.2522397 56.08237
40.089508 -5.2078247 56.3346
40.208572 -5.273809 57.154144
40.272892 3.7601745 30.952265
40.14296 3.7513235 31.541029
40.15101 3.79455 32.32195
40.246994 4.012419 32.840164
40.086952 4.529142 30.923931
39.963573 4.5682416 31.474825
40.021313 4.413809 32.298843
40.205017 4.315938 32.783005
40.23461 5.183575 30.917507
40.11952 5.247398 31.566038
40.15725 5.2123966 32.165398
40.360554 4.997484 32.769875
39.669777 19.269972 2.820349
39.694233 19.107222 3.5399156
39.69387 19.157467 4.169046
39.88649 19.899464 1.9797442
39.316757 19.802563 2.5105565
39.90575 19.470028 4.87791
39.708275 20.528133 1.6712614
40.042866 20.982264 5.776428
39.643337 21.277012 1.7216561
40.218597 23.101097 4.2453437
41.392155 -12.845275 44.179024
41.37444 -13.213221 44.630646
41.301533 -13.0111685 45.408455
41.315857 -12.302523 44.056206
41.12054 -12.347482 44.63889
41.134968 -12.454776 45.420097
41.32138 -12.234584 46.14206
41.230343 -11.93598 44.099728
41.125763 -11.81308 44.61199
41.151478 -11.68218 45.363148
41.335148 -11.824489 45.995785
41.368168 -11.231073 44.985626
40.87947 -7.999846 53.992954
40.860596 -8.112485 54.59819
40.7187 -8.266205 55.75258
40.652493 -8.279171 56.49504
40.60485 -8.078795 57.25271
40.629433 -7.694459 57.800495
41.22608 -7.459474 53.117367
40.7057 -7.2774687 53.79282
40.503937 -7.7062063 54.620193
40.65269 -7.259779 58.121277
41.261223 -6.3684206 53.022293
40.75662 -6.4347377 53.623863
40.465977 -6.1595216 54.39802
40.675903 -6.5076613 58.31954
41.04023 -6.649377 58.52791
41.038933 -5.616279 53.671925
40.815964 -5.657735 54.1897
40.339535 -5.405089 57.62269
40.729572 -5.874848 58.116787
41.00718 -5.0743 54.869785
40.569435 -5.040897 55.79332
40.580853 -4.940001 56.493683
40.680416 -5.1669827 57.317642
41.269337 2.3049345 31.021986
41.198967 2.9996436 30.193981
41.017254 2.8784053 30.589705
40.99885 2.6107008 31.426016
40.727245 2.9862328 32.342106
40.855175 3.1990108 32.995205
40.975323 3.7336836 30.13602
40.542957 3.7560909 30.698353
40.439106 3.4447496 32.618675
40.72726 3.66944 33.196747
40.638412 4.434553 30.23083
40.444756 4.2125516 30.36446
40.647133 4.2776546 33.28042
40.560986 5.314986 30.659107
40.46109 5.456562 32.369816
40.481014 5.1939096 32.90264
40.845364 5.6581993 30.549177
40.698563 5.8375926 31.433002
40.70128 5.978628 31.975393
41.319096 7.9638786 35.797237
41.334553 7.9442434 36.20596
41.371445 8.932146 35.21818
41.26434 8.597251 35.66675
41.193085 8.582312 36.26047
41.266575 8.538524 37.441574
41.330387 8.88628 38.29033
41.317593 9.250671 35.62843
41.241493 9.405056 36.40122
41.240105 9.400022 37.74397
41.360676 9.418647 38.366882
41.371487 9.808491 36.88358
41.38571 9.886349 37.599693
41.155235 18.32542 3.8674345
40.225643 19.184233 2.554834
40.326214 18.881798 4.3861785
40.892036 18.801159 5.148804
40.16772 19.86366 1.8881264
40.85846 19.545595 5.9273624
40.638233 20.599264 1.5085816
40.69775 20.981739 1.4763649
41.259697 21.143314 6.852772
40.862354 21.920082 1.8509444
40.573067 22.706253 5.6540146
41.000286 22.614809 6.0958304
40.73719 23.43247 3.2127867
40.77897 23.609287 3.7093189
40.919556 22.82471 5.7354026
41.492683 23.609804 8.412297
41.148895 24.123947 3.7904434
42.294773 -14.65011 45.03516
42.051308 -14.102532 44.050728
42.061737 -14.351326 44.473293
41.97935 -14.226128 45.142666
41.768795 -13.344259 43.938446
41.649933 -13.6523 44.51884
41.552998 -13.435256 45.616833
41.75895 -13.16497 46.328045
41.939865 -13.017554 46.754547
41.622593 -12.482823 43.828247
41.543686 -12.154448 46.439224
41.949818 -12.581626 46.86787
41.478054 -11.851187 43.966747
41.62944 -11.664923 46.31641
41.935436 -11.9387665 46.769836
41.61154 -11.045296 44.672523
41.52237 -11.115459 45.36691
42.08698 -10.989197 46.172253
42.306908 -8.852939 40.678158
42.337627 -8.977894 41.55565
42.353638 -8.954426 42.035862
42.127773 -8.72271 53.924892
41.595673 -8.677645 54.440186
41.68686 -8.715441 55.426888
41.3258 -8.563371 56.27402
42.405254 -8.616504 40.09989
42.0759 -8.36372 40.746845
42.010063 -8.3306055 41.55207
42.066147 -8.003524 41.893616
41.761677 -8.157726 53.278545
41.59647 -8.468203 53.799324
41.38607 -8.333225 57.113148
41.428703 -7.9121246 57.794342
42.105995 -7.72039 40.16963
42.014515 -7.677397 40.780563
42.04888 -7.5100946 41.621513
42.14961 -7.367872 42.25944
42.394527 -7.3370757 43.260612
42.25759 -7.4116135 52.10694
41.279766 -7.284121 58.26358
42.43912 -6.2347174 40.046837
42.173992 -6.579067 40.459694
42.019787 -7.0047216 41.2095
42.19681 -6.4559503 42.57013
42.335323 -6.512907 43.35687
42.241844 -6.739094 52.058147
41.422794 -6.393801 52.791115
41.318043 -6.607683 58.4563
41.101276 -6.6434684 58.51447
42.237854 -5.038711 39.235653
42.020947 -5.0124145 39.646477
42.026207 -5.26137 40.451984
42.024807 -5.615285 52.21542
41.37757 -5.7845383 58.181225
42.22704 -4.2201643 39.094345
41.83848 -4.270399 39.637505
41.67754 -4.213653 40.37907
42.07589 -4.4103427 41.29015
42.33512 -4.329047 41.840935
42.088882 -5.038181 52.437397
42.100235 -4.576973 53.255592
41.999184 -4.51607 54.33098
42.140438 -4.531049 55.015533
41.32346 -4.7863183 56.558846
41.416637 -4.9861073 57.2042
42.101658 -3.707692 39.246666
41.742157 -3.674861 39.76017
41.662304 -3.5299416 40.398735
42.10555 -3.6319976 41.40305
42.239204 -4.3623424 53.47573
42.007107 -2.9886355 39.782364
41.855076 -2.9404166 40.379154
41.87894 -2.9237297 40.859116
41.72442 2.179992 30.644226
41.539085 2.104647 31.548538
41.835766 1.9231689 32.54186
41.9291 2.0223951 33.146133
41.698483 2.58693 30.09108
41.38517 2.671985 30.301277
41.427773 2.414646 31.806818
41.693054 2.6086774 33.472164
42.08617 2.5471425 33.809586
41.63745 3.702475 29.799368
42.211525 3.5495274 33.970966
41.600067 4.5083885 29.901186
41.78786 4.2097545 33.803093
41.372772 4.9846573 30.038256
42.385323 6.972722 25.521482
42.32499 7.0870214 26.232225
41.56462 5.6392994 30.498884
42.047886 6.9107804 35.58746
41.895035 6.996137 36.39924
42.250065 7.7443557 25.07366
42.139107 7.8254924 25.53628
42.276928 7.502795 26.290714
41.819946 7.834077 34.97124
41.487625 7.9861856 35.38645
41.567654 7.376842 36.177002
41.648445 7.658799 37.14855
41.877598 7.9893494 38.19011
42.1357 8.086138 38.816387
42.24497 8.218488 25.030327
42.10292 8.394044 25.54448
42.1795 8.389744 26.283846
42.34192 8.363567 26.79361
42.239788 8.555133 34.43044
41.809338 8.503084 34.84314
41.58947 8.518576 38.503365
41.636436 8.533178 38.76586
42.359238 8.846379 25.085363
42.25568 8.928434 25.482409
42.326824 9.090775 26.027323
41.765324 9.297845 34.916805
41.527874 9.5809555 35.438126
41.49157 9.595583 38.500206
41.796932 9.484852 38.901695
42.059666 9.839795 35.008358
41.781048 9.966894 35.67415
41.620094 10.000318 36.60394
41.710384 10.185125 37.561035
41.73468 10.026205 38.368225
42.012543 9.9032955 38.835308
42.460068 15.038207 16.809057
42.457066 15.306815 16.729336
42.456764 15.391744 17.218954
41.67991 18.217817 3.7922688
41.582912 18.106075 4.4834023
41.767975 18.200903 5.3105145
41.762226 18.67705 3.0834692
41.454807 18.972193 6.1027327
41.340668 19.898926 1.9893563
41.378788 20.612768 1.7690082
42.026012 20.33344 7.110498
41.837303 21.267797 7.542284
41.217712 22.041527 2.000996
41.773773 22.184793 8.198052
41.86509 22.76909 9.738285
42.146034 22.796007 10.103923
41.79185 23.144968 2.5497189
41.586235 23.553747 8.306478
41.707577 23.61558 9.5332
41.93075 23.46519 10.041107
41.97221 23.847862 2.8212805
41.52176 24.41933 3.6247005
41.476765 24.428778 4.3561244
41.75605 24.381777 8.581052
41.754253 24.16925 9.496324
42.06281 24.396423 10.062344
41.814537 24.705502 3.9019191
42.03958 24.926094 4.05591
41.94024 24.802406 8.621713
42.171844 25.18106 9.3642
42.3274 25.135674 9.889019
42.74807 -14.735984 44.037544
42.638103 -14.825338 44.473797
42.798622 -14.838061 45.39514
43.09929 -14.7771225 46.23363
42.95319 -14.178272 43.301094
42.637257 -14.402827 43.731266
42.508755 -14.543378 45.63329
42.783295 -14.483638 46.28159
43.15204 -13.916479 47.187298
42.711864 -13.673358 43.227364
42.445827 -13.700255 43.419827
42.93762 -13.373501 47.175488
42.649506 -12.516047 47.254395
42.663174 -11.454206 43.3777
42.611946 -11.725214 47.05172
43.43287 -10.619938 39.424374
43.076744 -10.131898 41.229744
42.7326 -10.650059 44.141533
43.036327 -10.430407 44.372562
42.31527 -10.548918 45.492413
42.808582 -10.65461 46.213108
42.77442 -11.043422 46.687645
43.027725 -9.286568 39.5442
42.658897 -9.186562 40.33915
42.590046 -9.454627 41.128166
42.579388 -9.092553 42.301414
43.3509 -9.307039 43.634346
43.350155 -9.664614 44.224224
42.95079 -10.351702 45.510124
43.152332 -8.792717 48.79038
43.117767 -8.90866 49.127182
42.906063 -8.78534 53.419613
42.76297 -8.797142 54.86438
42.510178 -8.761826 56.119244
42.834904 -8.30511 39.25885
42.63685 -8.719416 39.832096
42.5707 -7.891679 42.840813
42.841656 -8.058231 48.85711
42.81949 -8.423948 49.593452
42.99755 -8.561381 50.435757
43.204384 -8.20721 51.85422
42.66796 -8.373227 52.725685
[...]
POINT_DATA 7976
SCALARS features_00 float 1
LOOKUP_TABLE default
0.6920873 0.68219113 0.6767756 0.7601854 0.7229016 0.68341 0.7706113 0.72439784 0.6879057 0.6509185 0.7299777 0.66756856 0.6359038 0.6223878 0.6776766 0.6007496 0.7167094 0.79006314 0.8413135 0.5666058 0.76157373 0.86379457 0.88746667 0.8552214 0.5587595 0.7548449 0.8769758 0.9192234 0.8718066 0.55578935 0.6473098 0.77154005 0.84661627 0.86357236 0.6548701 0.68916094 0.7793651 0.75258315 0.7670492 0.7143109 0.67965907 0.829058 0.8144156 0.74069846 0.69859374 0.85158867 0.8181271 0.7756456 0.707711 0.73987615 0.6812531 0.6359662 0.77287537 0.77973473 0.55192643 0.7818637 0.44906294 0.7713771 0.37461716 0.6885947 0.69936293 0.73676735 0.6957392 0.73198414 0.75253654 0.72368336 0.7088504 0.7404098 0.7581322 0.73241967 0.7264134 0.54628307 0.57400876 0.61880213 0.7006146 0.7840899 0.807142 0.48833853 0.5205516 0.5997774 0.8107722 0.41594073 0.46664444 0.5050359 0.8260493 0.7974825 0.4039597 0.44079033 0.8201069 0.827922 0.43937987 0.5557034 0.63152015 0.74606085 0.5923158 0.6695771 0.65812486 0.62186974 0.6413215 0.5985151 0.71930945 0.7384763 0.6591608 0.5986857 0.7891058 0.7808175 0.60776985 0.85033137 0.754058 0.68310976 0.8425634 0.83596414 0.79737616 0.65765077 0.64912117 0.70631635 0.6991181 0.6977376 0.71523345 0.73429835 0.71555054 0.72976255 0.75832796 0.7590162 0.73612 0.7578062 0.63437665 0.70982265 0.5962415 0.5743571 0.7501896 0.4404782 0.6954746 0.6783875 0.19125918 0.55987024 0.4051286 0.34842888 0.34686494 0.32259777 0.36019894 0.45187813 0.29482836 0.6603643 0.646389 0.66105306 0.6741482 0.65305656 0.68156254 0.7186595 0.67693716 0.6290504 0.6453449 0.69228685 0.6225169 0.68517816 0.69284546 0.6356157 0.6881969 0.7148034 0.665957 0.35495445 0.36653292 0.34127435 0.38962495 0.46390706 0.4477914 0.56681955 0.32445937 0.36498645 0.36408377 0.34184808 0.44884843 0.46315497 0.6709395 0.72219586 0.33277476 0.36135906 0.34450126 0.30051398 0.2565572 0.3751642 0.7591708 0.30083382 0.313981 0.34512338 0.24623471 0.24088418 0.34800452 0.39857438 0.7797717 0.7940053 0.47303697 0.46798724 0.42682236 0.29193377 0.7809925 0.56159383 0.56529903 0.5844628 0.44456264 0.26708668 0.2752821 0.27877963 0.26967168 0.26153582 0.5140246 0.63780016 0.5952611 0.6104851 0.613675 0.43269414 0.25023285 0.591095 0.5854174 0.5452734 0.5790993 0.5442096 0.5215032 0.5217947 0.6355529 0.644205 0.5673179 0.53424335 0.4951715 0.7043183 0.42994153 0.7500535 0.45581624 0.78237855 0.69617736 0.76796335 0.79247606 0.43091154 0.45823562 0.62704694 0.6770153 0.76317185 0.6531186 0.6642186 0.566812 0.5931084 0.61690557 0.64791995 0.5951171 0.6360866 0.67057097 0.67148226 0.64906216 0.68737864 0.70502985 0.7091317 0.5436287 0.5737411 0.57473505 0.6944705 0.71091723 0.7603447 0.7420626 0.67607164 0.692984 0.70876884 0.7331846 0.7557373 0.7380031 0.7626363 0.7765821 0.7988671 0.6254033 0.6371579 0.67014486 0.57537514 0.5575174 0.5705096 0.5892347 0.15459082 0.10007279 0.47896087 0.25019476 0.408642 0.4202342 0.3709855 0.4433512 0.47392124 0.480768 0.28359926 0.26369238 0.21506564 0.4659499 0.48871017 0.5137835 0.24401009 0.23054221 0.472274 0.5362544 0.55594516 0.6132909 0.63888955 0.63608 0.58972955 0.57404315 0.60647213 0.6394036 0.5984876 0.5048365 0.5700298 0.5959928 0.49877357 0.51763546 0.6345156 0.5614646 0.20400818 0.26463354 0.5095097 0.42524904 0.61352473 0.60549384 0.5858169 0.21454975 0.30955333 0.34233397 0.30249777 -0.040265366 0.07974219 0.549221 0.6007545 0.57199794 0.29876864 0.29150853 0.34995824 0.22440633 0.29059067 0.26225856 0.5774289 0.5466876 0.39954904 0.20191452 0.33590436 0.48046863 0.49369675 0.26210243 0.24300197 0.46903202 0.5193188 0.50295055 0.69856435 0.22284673 0.29063195 0.24357684 0.24091662 0.38927308 0.4093964 0.2310007 0.7239491 0.4099529 0.3476113 0.2586259 0.20066962 0.19962162 0.12364672 0.16784607 0.7269411 0.5317885 0.13301097 0.28054824 0.18700932 0.20785004 0.26190776 0.4398573 0.57170856 0.2804374 0.3340232 0.384031 0.14973152 0.16973713 0.20864674 0.2189843 0.19039372 0.21375108 0.22886959 0.50436807 0.504707 0.32813308 0.13252068 0.2861496 0.3193179 0.40501457 0.41229782 0.3786788 0.11915368 0.14787534 0.2164509 0.25473398 0.17338918 0.4592575 0.43901676 0.12278962 0.22286819 0.19463496 0.18192926 0.17170939 0.52560186 0.47458267 0.47785276 0.47332984 0.42561987 0.14478573 0.16047677 0.6607156 0.45845318 0.312499 0.36014614 0.16711354 0.6929933 0.3112207 0.27778494 0.3832244 0.47525138 0.4275342 0.19739687 0.36114234 0.5334077 0.576317 0.5936728 0.66747475 0.74847424 0.6832316 0.11850158 0.17982306 0.4935779 0.60188544 0.63655055 0.6309365 0.4890564 0.6144875 0.6862495 0.762319 0.8449724 0.37745678 0.25401533 0.21936 0.09691569 0.31933707 0.33355075 0.39798683 0.5935399 0.33679938 0.47253028 0.58593833 0.71347404 0.30177775 0.43861142 0.6544456 0.63341725 0.61025584 0.68220115 0.4341272 0.42727983 0.32664633 0.3315702 0.41798598 0.49946237 0.56990576 0.5630421 0.5654015 0.60551935 0.6940675 0.56447315 0.5352559 0.5054605 0.26008987 0.3834989 0.43793327 0.6395293 0.6146045 0.60674393 0.6316324 0.7028609 0.69944924 0.61840963 0.62524676 0.6136613 0.5296422 0.64241457 0.661925 0.69869596 0.75480676 0.7094815 0.74781275 0.78719 0.8732843 0.76214695 0.7763072 0.8259299 0.8773509 0.80989724 0.8522544 0.88365394 0.62142664 0.6544644 0.71974444 0.47727484 0.57478195 0.7373853 0.4063241 0.4459674 0.1196844 0.19174995 0.2710573 0.21038441 0.2651232 0.3702652 0.34628642 0.477283 0.5166318 0.5538367 0.37994367 0.2699983 0.5752355 0.6207392 0.65425104 0.6065373 0.6574326 0.69033694 0.4735974 0.5674002 0.60232675 0.5934555 0.55820787 0.5408406 0.48919678 0.569058 0.49563092 0.50462466 0.37329987 0.23689419 0.23307432 0.19479965 0.09645312 0.42937213 0.38461733 0.3577561 0.34279716 0.104179315 0.17643273 0.48546678 0.5301108 0.483902 0.40893465 0.35244545 0.22281493 0.0882451 0.09970664 0.48001355 0.38230923 0.2527093 0.23780128 0.25742003 0.17834868 0.20302151 0.6143743 0.54920363 0.5141113 0.45946938 0.34660262 0.21914794 0.08102934 0.5891611 0.655425 0.5920969 0.53863037 0.4735803 0.4231166 0.3062387 0.24066862 0.4513722 0.43726903 0.6663029 0.6610012 0.6055233 0.52199763 0.46322155 0.42882326 0.42167568 0.6476672 0.62573457 0.44570988 0.3604321 0.35829583 0.0918969 0.028504651 0.24009305 0.3506914 0.053341266 -0.061311625 0.10462004 0.3090706 0.363697 0.073333055 0.2730673 0.4221657 0.06059208 0.08089448 0.14107528 0.1598929 0.20574057 0.2188606 0.13043517 0.378164 0.11434178 0.13044213 0.15255326 0.15621619 0.18649888 0.2166025 0.0875699 0.14168608 0.0845425 -0.07070106 0.32332182 0.23792627 0.07232569 0.11628478 0.09320798 0.31500548 0.3663296 0.10365307 0.13858736 0.1795149 0.13869447 0.5180833 0.46146917 0.3559059 0.072882466 0.15682957 0.14017534 0.17275378 0.17389621 0.31746227 0.4849153 0.5666641 0.576496 0.23482117 0.039410375 0.11983627 0.14526817 0.17561461 0.11368692 0.4487421 0.5242113 0.5724357 0.623399 0.6492344 0.13477308 0.20697142 0.424274 0.5508555 0.5985458 0.66116965 0.571884 -0.094584465 -0.13435411 0.101832576 0.15904266 0.26459444 0.5859905 0.552822 0.5945679 0.47760534 0.5946056 0.6480329 0.77357316 0.5805366 0.36902207 -0.22217499 0.052824926 0.1532147 0.5408709 0.38183138 0.49757928 0.4255098 0.26011232 0.16388373 0.016544454 0.14700744 0.4321133 0.46273816 0.5943126 0.52794504 0.38579017 0.7493038 0.59874606 0.5941355 0.5306729 0.20251226 0.27146482 0.56774104 0.48225206 0.31180897 0.40113375 0.5424202 0.5164043 0.2798558 0.50005835 0.50627714 0.5314999 0.44854403 0.41526973 0.50164044 0.38432476 0.47145253 0.46753418 0.4760356 0.58474195 0.6380518 0.6004232 0.4772384 0.24042448 0.3080829 0.44450557 0.49181002 0.520777 0.4169708 0.5904673 0.75601876 0.6127238 0.65193635 0.65537626 0.63820577 0.50393 0.552721 0.62436754 0.8163227 0.6214775 0.84269184 0.5636693 0.8302399 0.80312836 0.85840654 0.8749748 0.83575374 0.8058883 0.5963627 0.65305424 0.872312 0.86107457 0.4672746 0.5557072 0.63699293 0.62962186 0.396006 0.31688786 0.38388067 0.34378445 0.36097944 0.36372396 0.32234758 0.64677685 0.5324454 0.657974 0.56039655 0.6740065 0.4855163 0.38139236 0.41569456 0.58126086 0.72182333 0.7172193 0.48326683 0.5324017 0.44941393 0.46547163 0.6653527 0.5573909 0.5561579 0.4884699 0.48297536 0.5104418 0.53931314 0.48828736 0.5200637 0.53887564 0.54671526 0.46232814 0.44916353 0.4436114 0.52307373 0.5435523 0.32905722 0.47440907 0.43939397 0.49885494 0.21048284 0.15378791 0.13553724 0.12953085 0.2631685 0.35202295 0.1840415 0.38467738 0.3240044 0.27164686 0.26635733 0.27010283 0.42804635 0.54377246 0.50111 0.4751418 0.42552856 0.6042189 0.5562701 0.15116209 -0.061260104 0.14759453 0.05133295 0.16933516 0.4862482 0.6110544 0.55569804 0.31396538 0.6729308 0.43284586 0.6744945 0.23199338 0.6572909 0.64303374 0.26999545 0.26445997 0.20681033 0.5568548 0.28027102 0.29482105 0.1402781 0.19512331 0.32377055 0.16986156 0.27720672 0.38388467 0.3551024 0.3961792 0.34651548 0.34983915 0.30848867 0.17536232 0.036620982 0.087340295 0.07670323 0.13158947 0.19653466 0.32598263 0.28872156 0.33557102 0.36073565 0.33396983 0.28018108 0.033473566 -0.0502097 -0.06482007 -0.022805907 -0.009217318 0.34889567 0.34217224 0.3481385 0.17255345 0.010968357 -0.21158853 0.24800672 -0.10294315 -0.16312255 0.3923024 0.1250626 -0.077248424 -0.010037919 0.01792673 0.47986016 0.62451094 0.28937048 0.30791685 -0.1555314 0.006422803 0.006478332 -0.048189394 0.6715207 0.71032315 -0.053147525 0.34211284 0.030117888 0.19827154 0.6778233 0.70666003 0.35869592 0.054652754 0.116353035 0.5401141 0.5657202 0.63060623 0.64997554 0.43952084 0.4088342 0.6020387 0.25177157 0.3282544 0.346313 0.40601802 0.47364175 0.52915263 0.5530368 0.57003844 0.5187474 0.47366863 0.19121167 0.20500174 0.34829947 0.7826131 0.12611064 0.013506582 -0.034917593 0.23361808 0.31638604 0.44047105 0.5954789 0.5682064 0.5152652 0.4045399 0.14759529 0.16037297 -0.15032247 0.5869354 0.6159775 0.115725845 0.38962 0.013623349 0.09439309 0.5476619 0.5834075 0.34040117 0.38085225 0.15449995 0.4664399 0.49073428 0.49126235 0.28912133 0.30533636 0.053472698 0.3185763 0.25973916 0.08764339 0.28800943 0.46482804 0.43205112 0.041431725 0.15087113 0.26308304 0.38849574 0.3757676 0.23629707 0.67256045 0.52629983 0.57581973 0.46810877 0.4864089 0.23623687 0.3172179 0.36376554 0.42012545 0.5030362 0.5646598 0.3602308 0.38752574 0.75730395 0.47830206 0.6851852 0.7211437 0.5412557 0.7506622 0.76568806 0.5400717 0.60019684 0.5827583 0.46207577 0.47182482 0.3617192 0.3652884 0.35886648 0.32101852 0.3514253 0.29728693 0.47797355 0.4550968 0.07436868 0.3826613 0.70049876 0.77239245 0.7436491 0.6062076 0.7230612 0.67176557 0.66729254 0.56661373 0.6570459 0.67217565 0.4577249 0.38360414 0.3753432 0.53612673 0.64825255 0.5172158 0.555077 0.54259545 0.48052627 0.4114011 0.5096921 0.5202694 0.5090587 0.3731634 0.4108727 0.37801757 0.39304277 0.2355579 0.4496203 0.5171644 0.5375996 0.5262952 0.49056685 0.22081716 0.096680894 0.44326717 0.4863999 0.54201454 0.53111744 0.083910115 0.02987677 -0.029336397 0.450171 0.13803071 0.07855949 -0.13353693 0.2434381 0.28963637 0.28825364 0.4765308 0.1747781 -0.21664579 0.15692626 0.19225177 0.32044286 0.3112397 -0.043479532 0.3141254 0.47160822 0.5156176 0.43968785 0.38241905 -0.10353878 -0.023597851 0.52841485 0.5774502 0.56600547 0.51389843 0.49309537 0.6471044 0.41536903 0.6655488 0.376509 0.6114813 0.37177533 0.36386836 0.14409333 0.058477122 -0.012475509 -0.18893923 -0.2909157 0.46127552 0.78669876 0.42135665 -0.21546781 -0.2084671 -0.14680865 0.015368504 0.45103842 0.4851618 0.83570457 0.79045534 0.68798745 0.5945778 0.27622083 0.37597242 -0.25961664 -0.047024056 0.23587632 0.31128776 0.39579576 0.45476255 0.833352 0.7681189 0.65992177 0.59167403 0.26493588 0.2904356 -0.005133763 -0.09324625 -0.023002842 0.058244403 0.10448935 0.8218295 0.72333837 0.6249771 0.5300294 0.21655507 -0.03609097 -0.18449122 0.0098235365 0.10098126 0.20746669 0.22733638 0.6384072 0.540058 0.17051631 -0.20542929 -0.24541442 -0.19627953 -0.124405734 0.22700733 0.24561623 -0.24927777 -0.20345312 0.6339982 -0.0065820813 0.7061162 0.6526513 0.17035872 0.1271223 0.58810127 0.61415035 0.24742791 0.29287785 0.1981111 0.22951326 0.28586707 0.33638424 0.11126374 0.49456647 0.5214069 0.57310843 0.5407857 0.49184036 0.44421834 0.30014405 0.1984924 0.18393815 0.2578654 0.32811198 0.45347127 0.461655 -0.07168558 -0.12072474 -0.25300846 -0.06143661 0.2760737 0.32448834 0.4065441 0.44839504 0.59900147 0.5811745 -0.19828811 -0.09087483 -0.05268772 0.30527303 0.5639077 0.5879969 0.099758565 0.1195464 0.086776026 0.08554213 0.5051034 0.51259714 0.12347455 0.14380172 0.1436442 0.11864072 0.4009267 0.41358137 0.2595555 0.38237214 0.24537455 0.18012214 0.16588701 0.18728584 0.3501351 0.37348408 0.23427615 0.09404861 0.006984394 0.55281526 0.33378613 0.33789182 0.2588292 0.4008057 0.06550279 0.33345404 0.35251972 0.5536777 0.33917326 0.3967113 0.29765335 0.3111927 0.36271757 0.4442836 0.38186488 0.33668995 0.36566758 0.57583535 0.40039876 0.44710937 0.45861873 0.32637328 0.40098158 0.4280231 0.45251274 0.676782 0.2069405 0.17837466 0.17833218 0.4765466 0.43034765 0.29777485 -0.009121209 0.19021457 0.27187413 0.5028444 0.606766 0.3652414 -0.0330944 0.47409213 0.4698258 0.45176226 0.45446083 0.5168645 0.5828289 0.056786984 0.15382867 0.35351035 0.4120458 0.4351871 0.41551846 0.7692209 0.73924804 0.2144511 0.40017766 0.7955947 0.80383176 0.3727576 0.52098715 0.8026039 0.29287276 0.4078327 0.5067537 0.5622255 0.50362635 0.3819111 0.36467052 0.48035806 0.45910722 0.51635873 0.53811914 0.46486238 0.42448378 0.453021 0.41412932 0.16864625 0.32559657 0.44868404 0.3913438 0.08674961 0.09323216 -0.012419619 0.22339344 0.40064368 0.12925836 0.111756235 -0.007502191 -0.027617607 0.021352328 0.012572866 -0.16457121 0.46123716 0.14276639 0.12484518 0.04933077 0.5082476 0.045700666 0.12618443 0.42528528 0.4274773 -0.0020208657 -0.024848204 -0.49869335 0.22496781 0.34872526 0.2149663 0.15687047 0.107868195 0.41707277 0.44554108 0.44263798 0.2323132 -0.1591048 -0.13357884 0.463535 0.5483635 0.47042465 0.44989797 0.5802029 0.38909698 0.60305715 0.32378918 0.5865518 0.32155973 0.7788255 0.7100688 0.30621782 0.24676959 0.13816199 0.43456364 0.8272275 0.77437294 0.6888521 0.6267108 -0.2062511 0.49174702 0.47606212 0.85445535 0.84729385 0.35836655 0.15104127 -0.30340087 -0.15695712 -0.14843109 0.4217142 0.4618858 0.852767 0.8510072 0.47898906 0.1863019 -0.4305064 -0.23808596 0.331971 0.82399094 0.7822058 0.40769798 0.11129214 0.16419977 -0.38366106 -0.43780246 -0.4354946 0.3773656 0.43987688 0.661549 0.4973717 0.31081772 -0.038972102 -0.43264475 0.1983943 0.37874383 0.44912717 0.47600275 0.37602052 -0.16442285 0.4616872 0.53643745 0.5603491 0.6165092 0.5816938 0.587082 0.53673947 0.47581458 0.49084383 0.13972029 0.5294728 0.5586267 0.25604516 0.32228023 0.31041107 0.48840633 0.5247732 0.45622665 0.36796173 0.15859577 0.19688714 0.20330787 0.11941549 0.11629754 0.17973673 -0.061504215 -0.20689644 0.3105124 0.34002677 0.41757953 0.5617267 0.57239634 -0.09996264 0.037668403 0.222552 0.2494222 0.27046296 0.28370184 0.5366412 0.041695893 -0.011800702 0.48931256 0.075320885 0.35350066 0.17255324 0.3863124 0.2261028 0.28811836 0.12496277 0.1718909 0.22984841 0.237732 0.24538502 0.13530053 0.1610417 0.19937149 0.17467722 0.05482294 0.21361944 0.049710922 0.05488146 0.2908345 0.5780976 0.2723868 0.31076476 0.25041148 0.25763 0.11726408 0.21547918 0.16891658 0.031434808 0.21917705 0.31531692 0.44081175 0.6137316 0.2948765 0.20448458 0.1963839 0.4145059 0.52337134 0.5984154 0.6072034 0.3207991 0.18781196 0.32870156 0.43931112 0.4943695 0.5412646 0.58981085 0.5865489 0.45897692 0.36086634 0.4122671 0.45185447 0.44150847 0.45473218 0.39036262 0.5046221 0.4399578 0.42482084 0.4465531 0.46908677 0.46936232 0.131399 0.23379815 0.51546186 0.5104646 0.4844186 0.54926443 0.18119556 0.5319856 0.63310325 0.69283986 0.5914146 0.591614 0.65640086 0.19102281 0.17303663 0.6212901 0.6454928 0.27424917 0.19536328 0.40082422 0.52365386 0.72139907 0.102948815 0.38133854 0.38653696 0.38235343 0.40628737 0.78789544 0.7654829 -0.0010388754 0.8470845 0.35974294 0.88662827 0.7033888 0.3029934 0.5576464 0.49486125 0.4856234 0.4341057 0.37961012 0.3413603 0.47452927 0.46672314 0.47724673 0.49116004 0.46122313 0.5172636 0.56823957 0.42168108 0.5072742 0.5439546 0.4485405 0.3147899 0.3675916 0.28806978 0.060491286 0.23298493 0.23491982 0.2768188 0.24282545 0.12986007 0.011704892 0.011260435 0.020559326 -0.00048729032 -0.032148987 0.052449487 0.27131844 0.2973436 0.10652133 0.115592346 0.09008412 0.01850167 -0.007323414 -0.047712386 -0.078671716 -0.098166674 -0.11365332 0.2893645 0.08598338 0.04522881 -0.085448526 0.04283876 -0.029445248 -0.009160623 0.0064754114 0.17998806 0.36783272 0.1485325 0.4125191 0.42213374 0.36056638 0.37064588 0.29398447 0.24387269 0.24582955 0.05660647 0.2590371 0.261572 0.83416766 0.8026204 0.7208279 0.6398524 0.2586052 0.19052325 -0.11944104 0.434212 0.83789694 0.80454266 0.5835165 0.45067942 0.3521918 0.46861088 0.8460273 0.48097524 0.8298973 0.4370898 0.8126028 0.7906842 0.4792837 0.5144479 0.69865286 0.645013 0.5356808 0.58622015 0.60985935 0.37242424 0.24010785 0.19173364 0.0006772615 -0.24330702 -0.018446174 0.27454007 0.5873642 0.6144452 -0.10514547 -0.32228577 0.44988292 0.52241313 0.6435555 0.6636956 0.39260137 0.4577899 0.6477673 0.66124153 0.4726946 0.58751124 0.5249829 0.053337947 0.03720448 0.086171135 0.4636884 0.27589583 0.4038615 0.4373697 0.17256996 0.16506377 0.19565514 -0.08543485 -0.09688161 0.34844694 0.32967627 0.52211696 0.37946886 0.23209788 0.12557045 -0.0007945001 0.16054481 0.13684604 -0.18857472 -0.1757468 0.21504728 0.33107877 0.5303232 0.52883106 0.04319246 0.036786396 -0.10761585 0.12720877 0.24822944 0.25284827 0.50679547 -0.0078669805 0.05200468 0.24601038 0.42666095 0.0351514 0.13636616 0.20452665 0.18210942 0.33365873 0.36831114 0.24589089 0.27179047 0.2517051 -0.20547445 0.034540735 0.20308915 0.23435433 0.23804237 0.10155766 0.02882237 -0.0024290606 0.009281434 -0.00075867586 0.08841967 0.5464386 0.24055469 0.25793916 0.14896221 -0.3307854 0.04111937 0.16380163 0.5580805 0.29065144 0.22564054 0.18089257 0.15538839 0.2747909 0.42142302 0.57776314 0.30557695 0.3425053 0.19527674 0.42450127 0.48821807 0.5592803 0.5612507 0.559385 0.5522417 0.3450644 0.4225495 0.3326332 0.44583887 0.52878875 0.53157616 0.5955649 0.50588745 0.27561235 0.21493383 0.13684136 0.045826733 0.035695046 0.094741404 0.30165374 0.45566976 0.7282119 0.61996746 0.605507 0.6578797 0.72795415 0.75348115 0.6966375 0.66989964 0.6709633 0.66809934 0.68213665 0.6701069 0.74425936 0.75317854 0.7400274 0.72439957 0.73874223 0.74508345 0.7278828 0.7288871 0.5656367 0.67706716 0.71065116 0.617496 0.2850308 0.26629794 0.44631928 0.48653024 0.7833643 0.6786711 0.1420691 0.029378995 0.4185839 0.39359114 0.44646055 0.4743259 0.82276005 0.7054411 0.26169822 0.6064584 0.5447697 0.44164526 0.5018484 0.49532503 0.48096466 0.47417024 0.52985084 0.55153865 0.46255612 0.46830773 0.48403126 0.46573362 0.4053827 0.43277273 0.31992108 0.4463225 0.42791337 0.4524244 0.43660086 0.4274138 0.21963331 0.27821073 0.23348913 0.37401235 0.46015564 0.39642024 0.3609158 0.34525752 0.3323507 0.34787554 0.31098646 0.00046108663 0.046141088 0.3708188 0.43658102 0.2335534 0.2624806 0.12278488 0.25394502 -0.050108474 0.0075544342 0.008492842 -0.009504821 0.42961577 0.46064374 0.11254786 -0.078564905 -0.10188839 -0.13960887 0.25970322 0.22649279 0.082628325 0.07037558 0.027133316 0.030417703 0.064614855 0.0024597496 -0.01407253 0.15779132 -0.08937234 0.25219715 0.08835429 0.23273912 0.27302533 0.18470035 -0.32866374 0.21377897 0.20955569 -0.51612735 0.16169709 0.85010314 0.8461982 0.7927073 0.565654 0.39293525 0.12305691 0.1405881 0.17448236 0.046350278 -0.39843038 -0.5510269 0.38331518 0.83636874 0.13857627 0.18064651 0.4589117 0.40194732 0.818568 0.7813608 0.7850359 0.7344494 0.47985497 0.7031117 0.5375261 0.47995114 0.59271127 0.63574624 0.23645425 0.09366366 -0.49499696 0.18737695 0.6948087 