# vtk DataFile Version 2.0
Really cool data
ASCII
DATASET POLYDATA
POINTS 12449 float
-19.82726 22.962374 51.00804
-19.99161 23.019388 51.50884
-19.936548 23.176777 52.144382
-20.030066 23.58825 50.89864
-20.198437 23.58701 51.466778
-19.98167 23.480366 52.38834
-19.681889 23.739887 53.131233
-19.93046 24.270918 50.928574
-20.10537 24.380058 51.46754
-19.988537 24.685484 52.360065
-19.721405 24.324446 53.24872
-19.800999 25.171764 51.83242
-19.786339 25.230806 52.49754
-19.589052 25.360668 53.095543
-18.626387 19.51701 50.54972
-18.663807 19.57026 51.278774
-18.61335 19.882513 51.921753
-18.607235 20.372929 50.16545
-18.788538 20.228088 50.546196
-18.757687 20.665096 51.424477
-18.686554 20.569782 51.81771
-18.822538 21.26514 50.64887
-19.216545 22.75558 50.494884
-19.515715 22.688652 52.269253
-19.078661 23.151264 53.47933
-19.398258 23.69585 50.288376
-19.345705 23.464245 53.47829
-19.048 23.692966 53.912045
-19.288586 24.124403 50.273636
-19.512035 24.542974 53.626747
-19.18877 24.363764 53.92305
-18.756268 24.911978 50.21404
-19.247223 25.154524 50.888214
-19.571306 25.133194 51.25694
-19.540077 25.675991 52.538147
-19.389242 25.452972 53.316006
-19.08068 25.00305 53.883865
-19.263706 25.831371 51.751083
-19.233522 25.991673 52.619766
-19.119453 25.885057 53.129856
-17.862013 18.452713 50.64072
-18.06633 18.930695 49.871574
-18.294641 18.835932 50.547077
-18.224955 18.85224 51.35091
-17.937773 18.929993 52.0644
-17.890337 19.777279 49.130177
-18.296333 19.434542 49.790825
-18.448864 19.203564 50.248196
-18.208946 19.526525 52.22677
-17.859333 19.626583 52.61679
-17.814562 20.53698 48.96124
-18.383251 20.37468 49.678146
-18.383427 20.331173 52.173527
-17.600498 21.315468 48.93974
-17.948885 21.020288 49.28597
-18.1368 22.620064 49.921814
-18.603539 22.946918 53.66574
-18.39911 23.226353 54.023067
-18.431427 23.639551 54.214622
-18.494411 24.367512 54.299854
-18.591883 25.349703 53.985016
-18.174793 26.471203 50.76221
-18.518463 26.3868 51.649555
-18.474382 26.401161 52.543293
-18.443947 26.247072 53.065697
-17.804413 26.716385 50.61861
-17.489979 18.378866 50.664474
-17.378986 18.398453 51.412647
-17.544811 19.056469 49.359222
-17.391249 18.655706 49.78801
-17.744217 18.459373 50.168213
-17.342121 18.727518 52.24718
-16.865042 20.044697 48.394775
-17.371887 19.833809 48.792522
-17.472872 19.625065 52.812275
-16.984814 20.288483 48.230415
-17.297758 20.742472 48.39612
-17.636066 20.158731 52.870342
-17.155828 21.13034 48.309273
-17.49263 21.20694 48.659973
-17.167395 22.68287 54.00746
-16.925898 24.090382 48.79657
-17.323042 23.443552 54.406628
-16.837097 24.887894 47.082073
-17.18765 24.867525 47.6735
-17.271978 24.98955 48.70475
-17.661741 24.388174 54.361805
-17.08398 24.392582 54.537777
-16.764132 25.4373 46.861988
-17.348814 25.599442 47.973892
-17.558224 25.279432 54.212894
-16.67986 26.321337 46.972828
-16.952986 26.39954 47.556576
-17.101925 26.600039 48.51894
-17.534225 26.495628 49.683605
-17.843973 26.391384 53.020515
-17.199026 26.03412 53.733097
-16.842876 27.413387 48.78533
-17.034433 27.29416 49.69177
-17.080908 27.344353 50.401024
-17.798615 26.647947 52.50928
-16.567924 18.36324 50.517124
-16.603308 18.38367 51.316624
-16.538525 19.21763 49.111427
-16.656118 18.673685 49.836575
-16.645842 18.534721 51.78752
-16.637674 18.740723 52.29076
-16.533842 19.105974 52.70695
-16.399782 19.52387 48.757267
-16.543049 19.5663 52.951557
-16.339441 20.596113 48.081707
-16.375923 20.7789 53.532402
-16.27338 21.16757 53.659367
-15.816261 22.068327 37.79875
-15.715467 21.947306 38.45545
-16.395523 21.352161 48.15231
-16.610033 21.566603 53.602474
-16.180796 21.68817 54.025455
-15.701619 22.246098 37.113243
-15.87763 22.507637 37.553974
-15.900555 22.6041 38.4438
-15.694931 22.374577 38.863346
-16.60939 22.468582 54.25221
-16.176517 22.838417 54.668236
-15.679283 23.347298 36.985394
-15.872419 23.455452 37.56548
-15.928654 23.43553 38.322475
-15.710184 23.371912 38.887558
-16.43817 23.78871 47.807106
-16.286844 23.443151 54.667446
-15.743664 24.006973 37.67598
-15.802064 23.989159 38.314808
-16.387486 24.729357 46.849037
-16.788504 24.505983 54.39421
-16.791607 24.18609 54.556976
-16.191118 25.931314 46.30562
-16.416237 25.25226 46.523415
-16.815666 25.379864 54.369087
-16.043499 26.477674 46.103424
-16.29982 26.514605 46.504112
-16.304964 26.480593 53.48796
-16.669401 25.89817 53.959126
-15.931374 27.098972 46.240757
-16.004255 27.285637 46.605083
-16.32942 27.368204 47.260918
-16.481087 27.096087 51.749645
-16.585644 26.842901 52.321793
-16.178816 27.916994 48.622467
-15.896998 28.32341 50.68033
-15.785113 18.975094 49.49728
-15.243579 18.623198 50.357624
-15.560568 18.571142 51.23124
-15.883027 18.982159 52.16808
-15.640355 19.639984 48.76619
-15.4614935 19.81511 53.092834
-15.047553 21.274227 37.863777
-15.166993 21.340872 38.4235
-15.648065 20.406794 53.48026
-15.3546915 20.881903 53.780632
-15.175562 21.992071 36.82423
-15.3577175 21.590614 37.67579
-15.400787 21.50766 38.379242
-15.127134 21.80191 39.05237
-15.320004 22.11327 54.392845
-14.980725 22.731739 36.240067
-15.253282 22.459948 36.55181
-15.169085 22.207748 39.267082
-14.814926 22.4434 39.69632
-15.42013 22.593287 48.085575
-15.334273 22.438677 54.52828
-15.573617 22.808615 54.651363
-15.006332 23.338253 36.128212
-15.262933 23.485563 36.373394
-15.25126 23.461622 39.361214
-15.31411 23.800589 47.011143
-15.483492 23.405823 54.721138
-15.296174 23.970856 36.70488
-15.348139 24.46979 37.571815
-15.59529 24.171019 38.592007
-15.144881 24.182016 39.151123
-15.636301 24.50381 46.34219
-15.326875 24.599682 54.317936
-14.965178 24.686665 38.739967
-15.092707 25.56507 45.531334
-15.750998 25.160635 54.18354
-15.714303 26.17746 53.362198
-15.771114 26.002611 53.70519
-15.304237 27.213537 45.885483
-14.832879 27.40681 52.56976
-15.111544 27.945955 46.750786
-15.309677 28.173279 47.65783
-15.496025 28.180431 48.34587
-14.652476 28.990892 48.52508
-15.260657 29.203556 49.76558
-14.914538 28.860216 51.82674
-14.7114525 30.04488 53.50473
-14.666112 29.8119 54.412586
-14.627913 29.969357 55.047836
-14.84154 30.621525 49.448544
-14.897716 30.93799 51.232136
-14.934181 30.99442 52.547523
-14.730229 30.44638 53.45809
-14.891945 30.590256 54.58579
-14.811231 30.824795 55.34273
-14.58494 31.74857 45.02432
-14.661482 31.521082 45.58281
-14.626654 31.480267 46.12025
-14.760556 31.312346 50.498745
-14.865996 31.603218 51.3764
-15.18905 31.742779 52.621216
-15.259901 31.621675 53.384033
-15.085845 31.547804 54.479095
-14.848727 31.333113 55.41512
-14.640128 31.507904 56.043976
-14.578324 32.11886 45.065174
-14.646462 32.404392 45.507317
-14.620789 32.13647 46.051758
-14.588684 31.92894 50.311756
-14.927801 32.25241 51.85657
-15.118902 32.430992 52.653893
-15.231468 32.264057 53.462128
-15.027121 32.369926 54.381104
-14.828866 32.490982 55.270195
-14.610184 32.45586 56.025898
-14.623586 33.00262 51.648483
-14.831235 33.04887 52.623455
-14.972744 32.89948 53.303104
-14.773245 32.84654 54.389717
-14.665083 32.904705 55.373425
-14.575028 32.83853 55.903774
-13.680293 16.018866 45.111008
-13.8257265 16.017815 45.589622
-13.822903 15.994271 46.16238
-13.808077 16.525595 45.051342
-14.024264 16.578396 45.574627
-14.0294075 16.627256 46.118927
-13.697096 17.584581 45.05075
-14.059389 17.152187 45.728504
-13.914831 17.278442 46.251846
-13.633558 18.221996 45.643246
-13.630098 17.93972 46.338493
-14.708166 18.846848 50.29054
-14.857379 18.764376 51.023952
-14.856702 19.325987 52.51086
-14.263299 20.117311 48.99399
-14.526261 19.920105 53.07282
-14.223484 21.398075 36.904213
-14.543927 21.152079 37.731995
-14.63315 21.181229 38.375523
-13.990652 21.391283 39.126835
-14.360393 20.876265 53.662952
-14.367065 22.228508 36.0711
-14.721154 21.784056 36.715782
-14.386145 21.503765 39.219643
-14.665692 21.182167 48.489174
-14.631558 21.839212 54.01064
-14.396399 22.52286 36.036083
-14.273664 22.590729 39.92692
-14.63918 22.934603 48.15225
-15.091463 22.967936 54.599415
-14.04698 23.876757 35.346188
-14.2755165 23.66962 35.64922
-14.323795 24.223886 46.140438
-14.380529 23.839502 46.974663
-14.650121 23.414314 54.263363
-13.834084 24.57509 35.353935
-14.233376 24.540884 35.62396
-14.060087 24.632244 39.554035
-13.774986 24.348629 39.83653
-14.617725 25.059786 45.596832
-14.749385 24.066338 54.089203
-14.094163 25.117613 35.75894
-14.369081 25.2618 36.36663
-14.267413 25.466812 37.228508
-13.762443 25.838398 39.574734
-14.354866 25.837198 45.287968
-13.73862 25.810768 36.119595
-13.776909 25.878073 36.74522
-13.735593 25.858423 38.12731
-13.990828 27.005823 39.504726
-13.742688 26.737747 40.32329
-14.26354 26.183992 52.77234
-13.858132 27.707548 38.85725
-14.020798 27.670748 39.537647
-13.894879 27.54152 40.44178
-13.624097 27.61114 41.147606
-14.450757 27.633488 45.98396
-14.791892 27.482996 52.172745
-13.693598 28.414633 39.00725
-13.808639 28.346125 39.53653
-13.926151 27.934324 40.35874
-13.805673 28.61123 47.156296
-14.089701 28.550913 53.685394
-14.185618 28.583485 54.41696
-13.78763 28.478212 55.22375
-13.8932705 29.026052 55.79534
-13.671218 28.772606 39.758286
-14.49892 29.39411 48.403313
-14.38804 29.947416 53.33017
-14.422932 29.267313 54.785126
-14.467046 29.763983 55.410976
-13.955724 29.553062 55.99737
-14.240508 30.877855 45.283726
-14.035761 30.634724 46.180782
-14.544118 30.36522 55.63312
-14.291829 30.469406 56.04755
-13.83631 30.814035 56.809376
-14.398062 31.733631 44.76871
-14.376225 31.372833 46.629982
-13.989919 31.032684 48.217567
-14.301382 31.293097 48.71344
-14.398459 31.689388 56.461864
-13.995282 31.790358 56.93735
-13.907939 32.468163 44.218395
-14.249708 32.56842 44.687695
-14.526729 32.650536 45.481586
-14.50432 32.436165 46.125847
-13.759969 32.65083 47.331093
-14.225119 32.140182 49.698586
-14.536223 32.573467 50.75699
-14.35991 32.552288 56.379448
-14.010205 32.603405 56.805187
-14.163088 33.05485 44.91953
-14.19401 33.252155 45.46349
-14.102245 33.239643 46.08252
-14.164763 33.610447 50.850742
-14.33105 33.460503 51.582798
[...]
POINT_DATA 12449
SCALARS features_00 float 1
LOOKUP_TABLE default
0.6113572 0.6545474 0.6764441 0.68205917 0.73096275 0.7098044 0.67439 0.69121945 0.72875273 0.7290982 0.7027787 0.6596893 0.6919086 0.7023784 0.72658604 0.74570346 0.71277845 0.58788985 0.6467452 0.60205436 0.6153686 0.44558853 0.45535958 0.53880066 0.5931643 0.56672394 0.6336785 0.6192479 0.57852614 0.69617 0.6640088 0.4674923 0.5659185 0.61513543 0.6575098 0.6996868 0.69646287 0.5666798 0.63488257 0.6660265 0.7844274 0.7214174 0.77047646 0.81032604 0.7827969 0.6133705 0.67994213 0.7295376 0.73188937 0.6790063 0.5290233 0.5542229 0.64775157 0.42700258 0.45393017 0.18731937 0.5178515 0.5281013 0.5587671 0.60677284 0.6880025 0.34770456 0.48948932 0.5717838 0.61530626 0.2924617 0.77515984 0.793118 0.6809449 0.7143192 0.7527717 0.73861086 0.56735826 0.5976697 0.61486185 0.5421606 0.51458037 0.5514761 0.47156012 0.4551433 0.37403765 0.33238292 0.45156413 0.45403415 0.43669418 0.38931543 0.53401583 0.49414057 0.46465522 0.4339924 0.5711138 0.43933475 0.42175347 0.35656834 0.23298883 0.55101997 0.5387556 0.26799044 0.19939154 0.20580171 0.49702305 0.69431305 0.69946325 0.6349157 0.6765071 0.68149555 0.63044083 0.5412259 0.60402966 0.46500167 0.503875 0.29533488 0.2940274 0.8196174 0.80729544 0.4327647 0.29665777 0.32217985 0.7769779 0.82154745 0.82695377 0.80428725 0.36451125 0.4037271 0.7538855 0.7899654 0.7871432 0.75727326 0.36050928 0.44217455 0.7414245 0.7319045 0.46082246 0.4869437 0.47581375 0.48967367 0.48670954 0.50506467 0.47770444 0.45325905 0.39934808 0.49132514 0.43927357 0.40728062 0.3669865 0.2909416 0.34012896 0.2083181 0.17157972 0.57344943 0.51755786 0.54592454 0.50380766 0.52724546 0.30353242 0.74209225 0.75136113 0.2759099 0.27533567 0.7078166 0.77673864 0.7776216 0.7547473 0.352754 0.6052579 0.67528147 0.7617713 0.7080252 0.094399646 0.37721246 0.40348053 0.5851627 0.6359558 0.66740465 0.2611717 0.4335267 0.66157854 0.6630497 0.68283516 0.5838393 0.4615508 0.43121535 0.54909265 0.56349546 0.43940017 0.33219847 0.3761559 0.49017644 0.044661857 0.32373318 0.19294262 0.14418238 0.020601727 0.043118432 -0.09494203 0.2907144 0.27882323 0.2956972 -0.0056746677 0.17128453 0.33498165 0.343503 0.35857278 0.39245063 0.47519833 0.46972907 0.46510893 0.1253365 0.20702554 0.3349855 0.4153298 0.46241784 0.45993105 0.4917616 0.47855896 0.4776286 0.47116533 0.13727552 0.22785953 0.3050748 0.4085204 0.4740026 0.5220372 0.56031895 0.18719809 0.27159116 0.3569824 0.45548183 0.5243483 0.5555393 0.85797334 0.8870419 0.9141278 0.8194056 0.84176475 0.8685018 0.7173793 0.78344226 0.7922791 0.6595539 0.70839155 0.4180821 0.42464077 0.35452664 0.30079174 0.2996704 0.63634706 0.6810951 0.6828617 0.58788234 0.28171793 0.5551193 0.6639372 0.6614888 0.23380288 0.32678097 0.54591995 0.584001 -0.053758517 0.4048977 0.51051515 0.51480097 0.26021934 0.04236436 0.38972074 0.5304808 0.5377861 0.26312158 0.22287822 0.48189038 0.38947347 0.53800327 0.52274764 0.43373364 0.16278487 0.4886667 0.4831697 0.4171002 0.3001017 0.4218287 0.3195261 0.12030147 0.46935079 0.4555893 0.38501304 0.31697267 0.45886946 0.04669246 0.44966915 0.4497841 0.41886657 -0.020345293 0.10146562 0.20072213 0.23109786 0.20389768 0.42593533 -0.022576153 0.25790894 0.24482976 0.27537972 0.22214413 0.40714395 0.3591975 0.33111143 0.3323378 0.36707148 0.46734878 0.41049182 -0.093099415 -0.025692508 0.51802075 0.53257 0.39741233 0.45164102 0.47219542 0.4617451 0.27589476 0.122784495 0.15835369 0.57782555 0.59607244 0.4482777 0.45371658 0.43636268 0.20423105 0.19503462 0.25859156 0.36388934 0.47129235 0.5163196 0.5603258 0.4347886 0.35139126 0.3350116 0.28534496 0.4727198 0.46848884 0.44114363 0.4224146 0.9007745 0.92612326 0.81828547 0.84896755 0.9002546 0.9326931 0.9263425 0.77289236 0.8032222 0.9777835 0.63889456 0.71420264 0.5739418 0.6117513 0.7329256 0.3233039 0.26873556 0.28165567 0.46690252 0.55729926 0.4633489 0.29271653 0.32333714 0.3131653 0.45893273 0.019390583 0.1937261 0.29349336 0.27957368 0.50431925 0.5683425 -0.10439754 0.25169057 0.44354346 0.4075055 0.026098538 -0.03762544 0.295534 0.3349499 0.4725396 0.4891407 0.2198022 0.021796802 0.05302164 0.020999234 0.5196161 0.13501778 0.50114465 0.51126313 0.10739938 0.4658243 0.40353715 0.25424528 0.4105557 0.64393735 0.48069957 0.21579286 0.26198116 0.3986989 0.53092325 0.5808507 0.40934628 0.112912826 0.09431401 0.09187224 0.5061058 0.36606982 0.43068495 0.40442783 0.4270435 0.30282345 0.18090874 0.12780109 0.22003628 0.25691995 0.37990066 0.41647524 0.20990257 0.23586759 0.21072626 -0.20283757 0.17101458 0.09244503 0.16168723 0.23724255 0.25469166 0.27762532 0.11935705 0.4877993 0.10797678 0.22202438 0.5854448 0.24012971 0.39942786 0.29928577 0.08977623 0.55116266 0.60201335 0.41165638 0.4223143 0.3831884 0.36486065 0.3974759 0.21111819 0.3181129 0.4346462 0.5041738 0.40775537 0.39980185 0.3612888 0.46229213 0.4910152 0.48713404 0.4197079 0.48018792 0.5112556 0.5208201 0.48696896 0.5386235 0.56957 0.50445086 0.5524321 0.57300365 0.5291208 0.5384558 0.49947512 0.59984785 0.58987117 0.5586089 0.4986698 0.6047419 0.594385 0.5706986 0.52546084 0.5973762 0.83527076 0.8716684 0.9049688 0.7994201 0.8171783 0.92077315 0.905355 0.7553506 0.7876766 0.68492985 0.78629553 0.5157038 0.772014 0.14943972 0.55474323 0.43520194 0.3976244 0.311628 0.15453841 0.18260548 0.17794378 0.48183468 0.13551027 0.27524498 0.14650425 0.113860354 0.04691358 -0.124908894 0.26427716 0.19333372 0.10368803 0.019041061 0.13573013 0.01959297 0.47971782 0.09634833 0.47404566 -0.11975682 0.4540431 -0.14233147 0.39443073 -0.66484076 0.19384053 0.44650093 0.65964437 0.6475632 0.39811856 0.35694224 0.07619146 0.032526247 -0.70106065 0.04356155 0.21232201 0.6288736 0.6305587 0.2573375 0.028928693 0.45651543 0.50353044 0.2904664 0.20410976 0.38271114 0.32461685 0.3197974 0.28343594 0.12470041 0.093227446 0.1218043 0.44380766 0.18229118 0.17166479 0.13313377 0.5132046 0.5322887 0.13106036 0.2667095 0.54574275 0.56747824 0.5735156 0.30342865 0.15758431 0.18089107 0.21851476 0.3803842 0.4356625 0.5111876 0.4402206 0.30856386 0.38209516 0.3682741 0.2816918 0.4024696 0.30223444 0.3597006 0.40263402 0.54248595 0.58557004 0.61353713 0.33247727 0.18329357 0.35515994 0.43495953 0.47059098 0.5192243 0.45847827 0.31468928 0.36123908 0.4948379 0.58509886 0.6258267 0.63589764 0.48258656 0.52072173 0.45517403 0.33925855 0.3595888 0.33535683 0.44659287 0.5187431 0.5987214 0.6125183 0.6105026 0.2512211 0.3141917 0.4549196 0.48726282 0.5748391 0.57625544 0.25532252 0.49854076 0.5332716 0.5347156 0.26241562 0.29467595 0.20027554 0.3302697 0.41190177 0.5673343 0.53800106 0.48977315 0.45508605 0.32372582 0.5926021 0.59065795 0.43628597 0.37185982 0.29434258 0.5845753 0.60515726 0.60577524 0.46228984 0.3881481 0.31825572 0.6075736 0.6100724 0.6108183 0.5165679 0.63040996 0.6483905 0.6564114 0.62747157 0.77903867 0.80606914 0.85310405 0.706224 0.73321676 0.6955105 0.8259232 0.8015939 0.6224673 0.6457245 0.559098 0.5707075 0.6300334 0.41233093 0.34468573 0.007599205 0.67226774 0.59574795 0.24863008 0.15496461 0.26827475 -0.096797764 -0.16023628 0.10377161 0.13952027 0.649778 0.5999664 0.14558426 0.103014074 0.18757734 0.16874997 0.15622753 0.55804515 0.09257213 0.049297854 0.08160571 0.08739861 0.024292998 0.026253026 0.36102098 -0.1316636 -0.29046363 -0.3575604 -0.2813033 0.41677445 -0.18919921 -0.10587461 -0.56975317 0.54277277 0.56120014 0.34849572 -0.20211759 -0.24122126 -0.6150823 -0.023287613 0.12298522 0.6234336 0.62597156 0.23668371 0.6277047 0.58488667 0.07511508 0.16155973 0.31229323 0.16210014 0.074238956 0.09986226 0.097875014 0.100384384 -0.096331894 0.33823392 0.14263971 0.12655398 0.37321463 0.39586103 0.43425614 0.4653803 0.47531775 0.15737657 0.16848017 0.18025987 0.5166067 0.28529492 0.46642047 0.4902324 0.51802516 0.52976716 0.4373963 0.18134946 0.16871245 0.31535113 0.49594378 0.5613738 0.13195834 0.14561167 0.030503683 0.22200131 0.4480812 0.49718088 0.48749816 0.24686344 0.23764637 0.07043477 0.37903577 0.42385533 0.42597854 0.33957657 0.22312495 0.303962 0.4148991 0.50453836 0.5559806 0.58258176 0.5927509 0.36000788 0.23846954 0.11979109 0.3006909 0.3390835 0.37138927 0.37885273 0.26018003 0.578449 0.38932413 0.2974409 0.20505577 0.3525849 0.4356205 0.33169782 0.62495005 0.59476817 0.3416762 0.5645543 0.46741408 0.43534744 0.2856449 0.20839396 0.5798632 0.6600431 0.66804403 0.6587043 0.6018146 0.048048794 0.09397471 0.067630544 0.4591725 0.6541712 0.6965995 0.6834258 0.63956046 0.37755713 0.44581535 0.31780106 0.23236942 0.6696756 0.6684548 0.6441957 0.5249123 0.07714789 0.015640942 0.40639818 0.388161 0.42638093 0.50189185 0.5630589 0.19163841 -0.0081308335 0.49845013 0.56210506 0.5556614 0.5610113 0.57566977 0.5855088 0.29383498 0.05354219 0.2202496 0.49854606 0.5914599 0.6024462 0.5920179 0.5780872 0.6010793 0.36989534 0.25378346 0.34569564 0.46768925 0.55998415 0.58679855 0.5980617 0.6241897 0.6755934 0.671751 0.62600493 0.6891393 0.67639166 0.6432778 0.550966 0.58224297 0.66515064 0.7168519 0.63977087 0.43341815 0.6005519 0.42626655 0.27704814 0.32771623 0.4031946 0.8103814 0.7532036 0.6577188 0.5356974 0.35954466 0.27800536 0.342892 0.24996847 0.16428602 0.17718072 0.3398655 0.24295023 0.8007021 0.74775493 0.24137896 0.19441828 0.18100423 -0.0050942004 0.10155175 0.73651636 0.22037378 0.17355698 0.12554206 0.07198913 0.6266379 0.57177824 0.009746227 -0.037440564 -0.08953834 -0.42378062 0.40350822 0.37885833 0.49773902 0.14482142 -0.28426975 -0.07197955 0.522879 0.5311049 0.5615503 -0.08190866 0.5524937 -0.08322379 -0.023506071 -0.08597597 0.13903618 0.24457186 0.29050255 0.059445128 0.22573182 0.3303504 0.34013635 0.3084061 0.13968253 0.3838889 0.34894654 0.15444992 0.168647 0.32815605 0.375702 0.13175029 0.15706125 0.042298447 0.27855563 0.13683376 0.025810948 0.017112922 0.23252265 0.12973306 -0.08719474 0.07400194 0.31470582 0.40965766 0.4732772 0.01577886 0.12211752 -0.1697277 0.2522308 0.27693233 0.1802341 0.28721836 0.35995528 0.475044 0.4751227 0.22147721 0.19060032 -0.2511379 0.05862954 -0.20193335 0.14467824 0.25251663 0.28150123 0.2723949 0.3056918 0.28104448 0.24279976 0.44196954 0.43483484 0.307313 0.4574501 0.2794364 0.29102743 0.36865532 -0.16837047 -0.10462953 0.16826746 0.2099468 0.2612028 0.27389723 0.0022665262 0.42283982 0.49319458 0.50400627 0.43696794 0.34362197 0.38996816 0.03182979 0.10474527 0.0453517 0.6064496 0.5172745 0.551685 0.59633976 0.6046517 0.5415303 0.08481465 0.10605717 0.5878781 0.6267313 0.6409473 0.6017752 0.53108466 0.34461188 0.3820396 0.43639058 0.57802474 0.4284833 0.52451086 0.48878193 0.5300346 0.55653393 0.552735 0.2700719 0.026761908 -0.038852848 0.30137882 0.3956148 0.48766172 0.5290961 0.49354362 0.55481726 0.56794345 0.59689796 0.5854244 0.49143183 0.31057835 0.40586013 0.35445157 0.62312204 0.6756243 0.6456518 0.6300912 0.49414462 0.52343583 0.46452713 0.6264907 0.40246543 0.42879957 0.47356948 0.48080412 0.41456664 0.41887158 0.58045816 0.48207778 0.6728851 0.6293543 0.49614125 0.3309984 0.41603303 0.30758452 0.35072356 0.36483118 0.3856884 0.8331295 0.75190735 0.65903276 0.49740964 0.42593133 0.36456856 0.3115618 0.29862443 0.1507386 0.2596608 0.25871113 0.8200704 0.30131623 -0.008379206 0.13196887 0.16809563 0.7638669 0.060667455 0.5787353 0.009968461 0.010702109 0.6107917 -0.069687545 0.62488365 0.52000856 -0.21562368 0.61614215 0.51118135 0.3264696 0.5344466 0.4275871 0.41181317 0.41598973 0.15577927 0.36724183 0.08795085 0.0041130837 -0.18526253 -0.19973738 0.15545008 0.17631729 0.21441197 0.006420099 0.07245503 0.17411354 0.060817488 0.21101026 0.07323255 0.13511786 0.16143121 0.17835821 -0.03227949 -0.16424929 -0.0282562 -0.11674599 0.07833661 0.26282877 0.22005342 -0.18739544 0.043931954 0.089041285 0.08659159 0.227923 0.29864573 0.32496417 0.11249407 0.14436819 -0.059729353 0.12086611 0.1967471 0.23762894 0.15418783 0.3855545 0.33217454 0.2945056 0.39902875 0.11166039 0.08619975 0.16778164 0.22806743 0.22955427 0.19691548 -0.15242586 0.3001478 0.30914417 0.41232067 0.48041955 0.41249388 0.106516644 0.2309206 0.16171172 0.06871119 0.040015623 0.4923703 0.51412964 0.26147705 0.21724865 0.24593613 -0.18350805 0.05886011 0.2982548 0.20960748 0.17422943 -0.12876649 0.059665684 0.113389105 0.41283792 0.50801355 0.46187764 0.12793855 0.13584423 0.28682286 0.56709206 0.19563764 0.55033135 0.6100172 0.6188956 0.41122082 0.38149706 0.5914304 0.630057 0.61369014 0.4675857 -0.05793769 0.14117381 0.06885922 0.35413507 0.44318676 0.5474975 0.61279035 0.6050856 0.5168426 0.09040291 0.23276682 0.3152513 0.25770062 0.039481685 0.2623283 0.42303488 0.50922847 0.55378056 0.5262384 0.5992092 0.55017465 0.55920124 0.25086987 0.20328371 0.8218073 0.5758347 0.7387425 0.79464626 0.78641605 0.46451992 0.5241028 0.6731522 0.7314016 0.34975684 0.35863233 0.4205962 0.38998294 0.49854547 0.57536674 0.55447453 0.46333438 0.3937316 0.27849406 0.2541572 0.28043377 0.49481302 0.80972266 0.71553475 0.55704427 0.47830707 0.30971286 0.25736865 0.19163367 0.12898967 0.16563536 0.31815094 0.4223004 0.78201914 0.007707298 -0.062218376 0.16043594 0.7230144 0.0636483 0.44177592 -0.0019396916 0.70778894 0.67538345 -0.103349164 0.71786547 0.6958946 -0.13087687 0.70551956 0.6728615 0.6231656 0.4384386 0.13072489 -0.18361579 0.5522707 0.37594947 0.107429095 -0.045237035 -0.16733986 -0.15961622 -0.05134484 0.1190557 -0.0438471 -0.07498309 0.13856998 0.106681556 0.06529518 0.6736393 -0.0003192695 0.00089140283 0.10327709 0.033641566 0.5987772 0.65339035 0.6556722 0.0224671 0.4717765 0.53554654 0.5827408 0.051984213 0.055666983 0.025385872 0.10095969 0.47475266 0.53424 0.13687837 -0.15803948 0.28614992 0.29933676 0.25518978 -0.109439805 -0.35015088 0.15730993 0.09491025 0.44147578 0.46081716 0.43623087 0.32482246 -0.0021694303 -0.19497615 -0.15444152 0.21356 0.5275104 0.5433414 0.5684414 0.46866888 0.0948294 -0.023206808 0.03241165 -0.11441176 0.24177748 0.25791273 0.28073242 0.570945 0.62213993 0.62181807 0.50283515 0.21033937 0.30817786 0.14007704 0.27828515 0.222725 0.6869135 0.6964555 0.6498804 0.40865046 0.0993416 -0.0004905239 -0.06373819 0.108396664 0.04634233 -0.18566272 -0.17916909 0.089563 0.2178265 0.29996043 0.7208811 0.46300554 0.4885334 0.49577042 0.4336682 0.14610165 -0.19304156 0.1631966 -0.20707524 -0.18717955 -0.05528467 0.47605258 0.46631622 0.033424072 0.11010303 0.18950608 -0.21806854 -0.221625 0.2503138 0.29679632 0.31120557 0.20186612 -0.19607207 0.33059496 0.47367567 0.4270044 0.38073075 0.37625244 0.30979753 0.18577635 0.079908244 0.28555572 0.19413891 -0.17267087 0.5704423 0.53090286 0.38090223 0.38194948 0.3419289 0.3017098 0.33662876 0.33475095 0.256263 0.25192717 -0.07780272 0.54941607 0.49010003 0.28995043 0.36128694 0.40426275 0.3672884 0.33721823 0.5583905 0.3230798 0.37698525 0.39849555 0.377965 0.20420292 0.26911193 0.061591867 0.04268769 0.08766483 0.4782772 0.53763616 0.29497343 0.32636464 0.36614102 0.37881607 -0.1975578 0.07671453 0.13798887 0.11206201 0.34467486 0.39925086 0.39007694 0.3890586 0.45655686 0.4093425 0.37543076 0.34558243 0.33675373 0.36211956 0.54727924 0.5377601 0.51199126 0.43590802 0.7163743 0.613009 0.48583853 0.4579187 0.598377 0.5597929 0.8701354 0.80655 0.72689545 0.5680107 0.47936344 0.9605671 0.9132771 0.80841875 0.66979265 0.9036156 0.85103506 0.7124456 0.8290999 0.88075435 0.89875853 0.5263796 0.65570545 0.71757376 0.84900403 0.84436905 0.44107038 0.4745656 0.758595 0.75642467 0.3538826 0.60034186 0.6108939 0.41492766 0.22440347 0.213433 0.1533972 0.2930602 0.5211394 0.5536636 0.67681366 0.4984115 0.43517065 0.3332464 0.14412472 0.027967835 0.07118808 0.44718117 0.59323865 0.5054281 -0.015769482 0.22851598 0.32996616 0.52612436 0.54624593 0.5626521 0.5402997 0.2540111 -0.100568414 0.7073557 0.6750338 -0.028544977 0.72967464 -0.071247235 0.18186924 0.38791993 0.7463838 0.10036867 0.2785081 0.7278714 0.6649815 0.14283554 0.6046289 0.41784048 -0.0905241 0.3400744 0.20325474 -0.14317983 -0.15069821 -0.03343983 -0.01601357 -0.083403185 0.03130324 0.30705872 0.48014748 0.6509506 0.7467817 0.75156933 -0.017334953 -0.0010307543 -0.07929814 0.39178145 0.6647614 0.7024827 -0.018466039 0.02998646 0.63189065 -0.000754389 0.049089618 0.4827226 0.102152124 0.101080984 0.24863528 -0.00054728985 0.43715668 0.35311416 -0.138553 0.05072406 0.5018426 0.36693323 0.28694922 0.05454914 0.23658285 0.5669721 0.6283126 0.20193785 -0.34984612 -0.3091784 0.2299043 0.34524092 0.39759186 0.6451367 0.7096456 0.73140585 0.68739563 0.5838963 0.3607336 -0.07173648 0.17811245 0.40922737 0.37004542 0.7617278 0.7679496 0.748219 0.6844357 0.43713933 0.46698686 0.3658288 0.034709327 -0.07247205 -0.28040951 -0.1510073 -0.15469377 -0.2294071 -0.3255353 -0.2222704 0.44515145 0.3719144 0.27980378 -0.027909242 -0.057787023 -0.12783988 -0.3176128 -0.33685228 -0.37004036 -0.2337782 0.09716964 0.35904682 0.35769284 0.1137496 0.037915282 -0.06743982 -0.34406576 0.20624089 0.3183762 0.36091435 -0.09495632 0.21918349 0.2561283 0.21481974 0.18841475 0.062393595 -0.17323153 0.37270138 0.3661036 0.3823045 0.32369262 0.2157205 0.037300434 -0.021989528 0.19889803 0.25830632 0.11947788 0.3885815 0.3562121 0.2839353 0.25067714 0.04435287 0.15292512 0.25651845 0.24429294 0.48214054 0.16718358 0.16382976 0.15624188 0.26684856 -0.16240825 -0.15595782 0.5301586 0.20496243 0.14239433 0.29407865 0.1790328 0.21431905 0.29246387 0.025555283 -0.14172813 -0.05467207 -0.027552068 0.018110193 9.179488e-05 0.36176223 0.40326294 0.24118486 0.23707186 0.43688676 0.46329275 0.15140438 0.23326513 0.3029543 0.2392 0.08952215 0.15972559 0.1622769 0.12087125 0.04082337 0.3387856 0.3796739 0.36831838 0.3491324 0.3478387 0.76979786 0.67030686 0.5183452 0.40273026 0.33287448 0.24291068 0.45961523 0.5182195 0.5554826 0.5391493 0.5002443 0.40227613 0.27119067 0.27053297 0.5526027 0.58484495 0.5392678 0.43436265 0.40234885 0.3883153 0.8900248 0.822597 0.72882223 0.6137428 0.42801362 0.40970966 0.31109843 0.55756104 0.6005835 0.60620606 0.5758488 0.26319277 0.5801275 0.6022103 0.57182264 0.523162 0.9505547 0.9027678 0.4522796 0.37425303 0.56465507 0.61813426 0.6178472 0.5726142 0.50482374 0.9978666 0.9974104 0.60800374 0.47088358 0.5646869 0.56327987 0.9607015 0.8854957 0.7938323 0.7066537 0.833482 0.783201 0.7211362 0.9038383 0.95478594 0.91886085 0.58240974 0.6619481 0.8825861 0.8479692 0.44982156 0.47667494 0.80247355 0.38189822 0.7000731 0.14617324 0.26466584 0.07742785 0.046533287 0.5381799 0.52484596 0.43562987 0.28441313 0.17216453 -0.031114034 0.03538269 -0.17165047 -0.19889809 -0.09889422 0.010613173 -0.017295033 0.08906079 0.42881712 -0.046010412 0.25142893 0.21575584 0.3445834 0.043022152 0.6500219 0.5412881 0.15551391 0.44757357 0.5451 0.72515213 0.6943141 0.4139035 0.5091534 0.7458117 0.7307031 0.4512736 0.4633271 0.7275636 0.69916487 0.26211327 0.2768321 0.61537445 0.49290574 0.0053750426 0.19334753 -0.03875933 -0.060990505 -0.09280968 -0.09220682 0.61209637 0.17455612 -0.17636478 -0.14157549 0.276561 0.5294323 0.6776422 0.7624512 0.75268114 0.18704456 -0.0037673563 0.6711917 0.59749126 0.2558857 0.19419816 0.058666 0.57544357 0.5592095 0.07441601 0.399858 0.43963152 0.058340125 0.1156478 0.22612378 0.40821266 0.52176386 0.5383161 -0.18094496 0.5563313 0.58120984 -0.02363772 0.26411238 0.30438754 0.37852383 0.41355133 0.37463713 0.68012667 0.7216598 0.33385804 0.1905919 0.31705302 0.3048498 0.7868379 0.8230991 0.76158154 0.61441505 0.3923164 0.41107 0.0703247 -0.38377762 -0.47717124 -0.23070261 0.24544027 -0.44763163 -0.37510735 -0.029254436 0.04645407 0.28065655 -0.3712008 -0.18590146 0.014399476 0.008044053 -0.32132936 0.22597703 0.2822842 -0.100623935 -0.29247618 -0.26137093 -0.055858243 0.034030326 0.2961488 0.25606027 0.29018748 -0.09272125 -0.14339542 0.008128002 0.31800595 0.30284852 0.4141054 0.25076342 0.29423243 -0.13624379 -0.25191736 -0.04612178 0.40114343 0.17988235 0.10224934 0.037083074 -0.110699415 0.10165845 0.5272439 0.21063484 0.17041603 0.10413325 0.17413026 0.20365112 -0.035313368 -0.012092434 -0.09706518 0.4042787 0.4700244 0.32790658 0.17196009 