# vtk DataFile Version 2.0
Really cool data
ASCII
DATASET POLYDATA
POINTS 11700 float
-29.691336 0.11401795 67.859924
-29.782164 0.06605111 68.60529
-29.727945 0.070399165 69.30685
-29.838917 0.65355104 67.77973
-29.966825 0.54589605 68.290855
-29.870756 0.56202716 69.40202
-29.726921 0.8404945 69.85283
-29.880278 1.319884 67.73057
-30.068079 1.4435062 68.6235
-29.944906 1.4450998 69.3692
-29.69951 1.2848078 69.87607
-29.788269 2.0940728 68.00576
-29.879524 2.1753414 68.611435
-29.806581 2.1348462 69.33701
-29.05265 -0.013280958 67.26678
-29.282408 -0.113450974 67.70023
-29.468237 -0.2974757 68.63187
-29.326319 -0.29258877 69.33539
-29.204374 -0.048876584 69.90791
-28.718815 0.6341346 66.30629
-29.338322 0.5937444 67.01145
-29.535479 0.258503 67.45745
-29.251219 0.51959515 70.14437
-28.685709 1.2851256 66.160576
-29.004864 1.1239696 66.64672
-29.408842 1.4738337 70.114914
-28.761425 2.5688136 66.71943
-29.403 2.3771946 67.48433
-29.601614 2.431694 69.42825
-29.333017 2.155319 69.93366
-29.212217 2.97518 68.47667
-29.36489 2.6829362 69.493645
-28.584352 3.8634217 67.89372
-27.949518 -0.6801783 66.830635
-28.185347 -1.0496321 68.01383
-28.364904 -0.9670683 68.480255
-28.382782 -0.87408215 69.341515
-27.895552 0.13085422 65.673065
-28.162994 -0.23967943 66.586365
-28.76113 -0.50840235 69.67038
-28.423656 -0.23591897 70.11228
-28.046146 0.654619 65.57495
-28.700174 0.28651497 70.3627
-27.908405 1.2622558 65.02423
-28.352638 1.5642668 65.468376
-28.724466 1.046817 70.42901
-28.09336 1.3486236 70.62623
-27.906776 2.8378258 64.59885
-28.439636 2.7057798 66.37668
-28.268717 2.0467913 70.58543
-27.95219 3.5705159 64.660484
-28.194006 3.5700676 65.291046
-28.41773 3.8097517 66.29759
-27.76057 3.9164653 64.3017
-27.823435 4.2070045 64.74315
-28.087517 4.2877493 65.70913
-28.105661 4.7684216 66.92931
-28.307314 4.229227 67.4108
-28.216928 4.7485075 68.72361
-28.067213 4.6741614 69.49909
-28.037298 4.3615327 70.420616
-27.834566 4.9102015 66.56432
-27.856472 5.480206 67.339714
-28.0214 5.229156 68.5694
-27.871498 5.0583463 70.049255
-27.803556 5.791381 67.41852
-27.605736 7.91374 70.72713
-27.633823 7.984716 71.00976
-27.650337 8.460694 70.62573
-27.596178 8.347807 71.19649
-27.534643 8.983503 69.72842
-27.611174 8.9171505 70.48949
-27.591913 8.894185 71.00342
-26.930765 -1.9245145 68.62675
-26.784094 -0.93892133 64.95389
-27.229368 -0.80519366 65.910614
-26.866695 -1.3924562 66.76967
-27.554611 -1.5111283 68.55646
-27.178362 -1.4906511 69.488304
-27.401957 -1.0099226 69.86662
-26.963896 -0.33461976 64.838745
-27.143791 -0.41673675 65.49902
-27.618416 -0.019155428 70.411316
-27.331118 0.8748686 70.751625
-26.879288 1.714046 63.78945
-27.385181 1.8681468 70.924446
-26.78381 3.0029566 63.277912
-27.463232 2.7645779 63.992672
-26.90857 2.917348 71.31927
-26.718128 3.0309236 63.225807
-27.226166 3.384606 63.724876
-27.31192 3.8272388 71.36143
-27.024021 4.2608624 63.841686
-27.368317 4.5801272 64.427605
-27.470491 4.3118916 71.33283
-26.952883 4.4252534 71.617714
-26.617506 4.8092837 74.63897
-26.698158 4.8428764 75.374176
-26.591389 4.9642954 75.887825
-26.720541 4.9892983 63.916912
-26.843082 5.2403283 64.66987
-26.869312 5.341372 71.34285
-26.774643 5.3319216 74.866
-26.734352 5.4208546 75.43031
-26.607882 5.480207 76.01189
-27.324854 6.291542 66.94132
-27.17051 6.8408146 68.94412
-27.13012 6.6094866 70.48526
-26.807913 6.36544 71.56932
-26.723057 5.871304 74.98777
-26.603449 6.0877247 75.698135
-26.672632 7.8774633 65.9558
-27.084747 7.5740285 66.73366
-27.410683 7.362067 69.6628
-27.470013 7.2001185 70.761986
-27.45256 7.895017 71.507545
-26.811806 7.701475 72.10001
-26.693317 8.338473 65.90105
-27.220171 8.562859 67.10343
-27.242321 8.692716 67.50889
-27.287138 8.574756 68.77464
-27.406145 8.411196 71.54519
-27.169611 8.570828 71.92777
-26.790552 9.556506 65.720116
-27.07079 9.576743 66.62955
-27.334408 9.239936 67.49996
-27.445753 9.775678 68.48491
-27.39262 9.529723 69.34647
-27.338707 9.191356 71.26184
-26.753431 9.110739 72.568115
-26.638662 10.251747 65.30739
-26.93889 10.501609 65.75221
-27.209528 10.497752 66.480225
-27.306446 10.446053 67.40988
-27.189869 10.038905 69.18052
-26.84722 9.886869 70.3801
-26.839092 11.358932 65.79652
-27.111868 11.434687 66.555305
-27.026276 11.456324 67.31977
-26.84901 10.984053 68.62792
-26.68963 10.7789 69.3417
-26.683296 11.825333 65.82215
-26.872246 11.948789 66.63307
-26.877434 11.90203 67.02079
-25.735285 -3.0729308 63.716488
-25.926123 -3.0708559 64.54396
-25.775967 -3.2575936 65.13256
-25.779058 -2.8354757 66.17045
-25.718645 -2.3829327 62.753216
-25.971087 -2.6213887 63.687466
-26.150015 -2.5615199 64.58575
-26.255323 -2.421417 65.44568
-26.204035 -2.3504648 66.40932
-26.356352 -2.1258566 68.49284
-26.567398 -1.9252734 69.26959
-25.680613 -1.4834173 62.6061
-26.06847 -1.2805011 63.440018
-26.74709 -1.6088071 69.659904
-26.544418 -1.2143217 69.987946
-25.686537 -0.7211719 62.92553
-26.401983 0.05393645 70.35459
-26.415173 0.4834675 64.04734
-26.345678 0.84820616 70.94637
-26.5369 1.8448279 63.396374
-26.3022 1.5426347 71.279106
-26.17886 2.6028156 62.911945
-26.19188 3.5896106 62.898335
-26.355677 3.7721205 71.74414
-25.744455 3.4668322 74.68596
-26.145777 3.9358883 75.21524
-25.793932 4.091489 76.42076
-26.095558 4.422571 62.93128
-26.631502 4.284075 63.44993
-26.230492 4.1964946 71.78568
-26.514025 4.487351 75.43238
-26.307404 4.5321555 76.058716
-25.734098 4.652015 76.94021
-25.933336 5.10975 63.130615
-26.43436 5.100891 63.649105
-26.38516 5.6189194 76.460175
-26.068169 5.526211 76.82728
-26.273542 5.990929 64.391754
-26.494946 6.845438 65.65921
-26.484005 6.369593 74.9457
-26.445389 6.3865385 75.500275
-26.240736 6.263206 76.34222
-26.07657 6.11585 76.70803
-26.019363 7.7237225 65.26831
-26.314287 7.2748165 65.643196
-26.32042 7.1966133 73.04463
-25.925913 7.0359335 75.59495
-26.351284 8.886093 65.6146
-26.456652 9.643744 65.354095
-26.09977 9.63457 74.14879
-25.681808 10.049209 75.55795
-26.139984 10.721124 64.991776
-26.234516 10.255706 71.559814
-26.286345 10.27831 72.16006
-26.204008 10.300905 73.54994
-25.94675 10.5512705 74.47579
-25.775162 10.577482 75.3881
-26.165651 11.294793 65.14701
-26.62197 11.4295225 65.45141
-26.546177 11.358424 68.38133
-26.297739 10.81574 69.414375
-25.861374 11.011002 73.916214
-25.78413 11.209267 74.61815
-25.71354 11.210929 75.298515
-25.958588 11.772175 65.294876
-26.260078 11.965707 65.698326
-26.544598 12.175672 66.58073
-26.285965 12.241165 67.23719
-26.120895 11.797469 68.55871
-24.818455 -7.853133 73.84709
-24.795849 -7.8435044 74.37109
-24.856676 -7.0975995 72.97292
-24.989939 -7.4572716 73.69022
-25.098122 -7.380765 74.33766
-24.808222 -7.44308 75.03127
-24.583101 -6.924546 76.2261
-24.853844 -6.4990363 72.84167
-25.17019 -6.680147 73.59133
-25.151743 -6.613158 74.55429
-25.016916 -6.540355 75.33162
-24.721262 -6.4709654 76.223625
-24.726719 -5.9420424 72.7863
-24.840977 -5.5166564 73.328606
-25.121658 -5.8261685 74.57907
-24.89556 -5.6870637 75.745415
-24.74357 -5.652643 76.21263
-25.145025 -3.6188374 63.918827
-25.17501 -3.7028737 64.52794
-25.203062 -3.6731043 65.08544
-24.811844 -5.135304 73.39715
-24.577576 -4.9120126 76.50493
-24.869076 -2.8842838 62.066216
-25.14954 -3.079039 62.704945
-25.344196 -3.3699396 63.6501
-25.538757 -3.4890318 64.445465
-25.420334 -3.46005 65.401
-25.192772 -3.2583761 66.08907
-25.23021 -2.808652 66.90702
-24.912687 -3.6320643 75.02308
-24.891891 -3.5687585 75.301315
-24.653465 -3.7543454 76.382866
-25.112291 -2.365155 61.912254
-25.45551 -2.6168482 62.512543
-25.48632 -2.2920597 68.20403
-25.69937 -1.9072398 69.31244
-24.944595 -2.5068219 74.688614
-25.020126 -2.6532 75.47275
-24.828857 -2.529462 76.231606
-25.17993 -1.6104318 61.90428
-25.60686 -1.433019 70.04447
-24.617165 -1.4543492 72.70093
-24.858593 -1.3817244 73.6052
-25.050032 -1.4387008 74.66901
-25.100233 -0.85474414 62.026836
-25.574913 -0.24286303 62.94651
-24.947033 -0.15370876 71.25079
-25.009201 -0.4623087 73.83572
-25.112928 -0.31589937 74.34695
-25.086939 -0.30766997 75.40855
-24.778057 -0.12661862 76.26724
-25.357567 0.3796203 62.96383
-24.875538 0.38088906 71.23422
-24.711475 -0.025187798 72.963684
-24.838457 0.13862665 73.495964
-25.044733 0.37741995 74.8535
-25.349377 1.7474031 71.39789
-24.807535 1.7262937 74.650246
-24.65697 1.5624497 75.7082
-25.445827 2.779306 62.683746
-25.432241 3.098691 71.98071
-25.208527 2.7225854 75.13662
-25.029306 2.9902828 76.0969
-25.44332 3.462159 62.57509
-25.447699 4.0159297 76.60515
-25.55998 4.0286374 76.7762
-25.189632 4.5867224 62.446663
-25.51373 4.5386486 62.59342
-25.629261 4.7310705 73.657745
-25.335226 4.970452 77.284874
-25.202171 5.1713853 62.71291
-25.695318 5.5913215 63.32937
-25.32234 5.3712196 72.287415
-25.392294 5.291864 73.32489
-25.379725 5.4412456 77.35854
-25.358322 6.2744265 63.842037
-25.630045 6.587951 64.412476
-25.33402 6.1355867 77.20272
-25.3254 9.027876 65.0347
-25.50261 9.288166 65.03014
-25.335978 10.676708 64.79554
-25.283531 10.512883 76.011444
-25.5257 11.41582 64.95453
-25.677895 11.342234 69.742355
-25.276325 11.009484 70.48525
-25.235779 11.122458 72.622536
-25.537971 11.469454 73.991234
-25.533062 11.631678 74.93108
-25.481737 11.547441 75.41451
-25.145634 11.267174 76.04837
-25.392868 11.950045 65.22689
-25.417383 12.327785 65.767494
-25.445637 12.46613 66.46728
-25.21268 12.414916 68.55545
-25.345247 11.726697 74.10039
-25.226067 11.80576 74.58981
-25.19473 11.853248 75.323006
-24.902765 11.735038 75.88752
-25.581127 12.555513 66.42223
-24.139967 -7.7839313 73.04657
-24.392586 -8.00225 73.633606
-24.417803 -8.066423 74.32437
-24.290388 -7.8576336 75.133965
-24.127716 -6.920756 72.29509
-24.4041 -7.3434362 72.76254
-24.674301 -7.664565 73.291046
-24.459333 -7.4232373 75.71748
-24.173988 -7.300849 76.479866
-24.076843 -7.0490084 76.84688
-24.275305 -6.445524 72.26775
-24.504147 -6.6247435 72.417145
-24.48435 -6.762129 76.64352
-24.2825 -6.5148506 76.93289
-24.60685 -5.825282 72.72033
-24.547787 -5.183197 76.48637
-24.193653 -5.767783 77.05525
[...]
POINT_DATA 11700
SCALARS features_00 float 1
LOOKUP_TABLE default
0.5677278 0.68704075 0.72645676 0.5899876 0.6852193 0.7447109 0.71405107 0.6089623 0.73131144 0.72085965 0.69728565 0.59518564 0.64159083 0.667046 0.40817097 0.49555 0.64703596 0.6810392 0.6693458 0.28343126 0.4136397 0.48851573 0.66095394 0.30517542 0.3699596 0.654884 0.3073035 0.4412639 0.61996126 0.61923635 0.41674212 0.5553397 0.18303119 0.2668164 0.46081236 0.52977884 0.5480939 0.18537638 0.25510597 0.60694766 0.5489925 0.19405535 0.57558477 0.20931415 0.2586304 0.55975586 0.4087537 0.3203233 0.27935168 0.40061575 0.32851487 0.29282355 0.20630547 0.34224847 0.32112008 0.2435786 0.15443626 0.16505452 0.15417306 0.17408694 0.27679598 0.16095322 0.13761485 0.1273572 0.1732274 0.12475096 0.25109655 0.24808203 0.26468575 0.2547316 0.30084455 0.28121173 0.26909786 0.3590243 0.2126339 0.17469078 0.2332212 0.4188313 0.4045627 0.42437732 0.17238446 0.17395552 0.40831023 0.29069632 0.24992347 0.19056652 0.3812303 0.3333204 0.11135529 0.387344 0.36139557 0.20244473 0.3696087 0.32926962 0.21606061 0.15506127 0.4632287 0.4952372 0.5040883 0.36485445 0.2853948 0.113100715 0.4828039 0.50824827 0.5124215 0.09495904 0.10435299 0.1877441 0.061068345 0.48429406 0.5104861 0.15980467 0.12385381 0.21654058 0.23035252 0.23034582 0.18964659 0.22115843 0.24283653 0.26091057 0.27700904 0.25713444 0.26822448 0.4411432 0.392136 0.32608944 0.3630518 0.3299504 0.27199447 0.2738923 0.62724453 0.6265739 0.5849596 0.49647996 0.3238526 0.25609893 0.709851 0.67081684 0.57869864 0.34953886 0.26990658 0.7272923 0.6908535 0.64255655 0.6188295 0.5406198 0.52003497 0.41849107 0.72454655 0.5909021 0.48469555 0.41762772 0.3618231 0.3208543 0.34834498 0.6858499 0.4816557 0.36559203 0.3421427 0.5304478 0.20475742 0.14646488 0.08951501 0.2717616 0.057921924 0.3833612 0.45205545 0.114004105 0.31125766 0.41991043 0.43496162 0.47224584 0.40526852 0.0890639 0.4781744 0.48502827 0.4596185 0.47290987 0.39806402 0.5131137 0.5063545 0.30724972 0.06897478 0.454704 0.49555373 0.508147 0.51009053 0.13120191 0.087062 0.04186678 0.4619844 0.35051087 0.5243952 0.276116 0.45374775 0.7174387 0.18054989 0.20727421 0.28473133 0.40425923 0.4671869 0.7369776 0.72542524 0.3743453 0.24828193 0.3803682 0.4491821 0.47955188 0.7435753 0.734986 0.7042957 0.6278913 0.32600954 0.91758287 0.89570653 0.87305766 0.889289 0.8490883 0.8193468 0.73963505 0.81691563 0.82866776 0.76967525 0.68535215 0.66901255 0.74682117 0.7032503 0.6442044 0.5311394 0.56391644 0.6324236 0.5888984 0.54489696 0.6437776 0.49260476 0.80079794 0.74491847 0.64628536 0.58156633 0.5135373 0.436979 0.3082328 0.29639012 0.32094046 0.38092482 0.79101753 0.76211864 0.22384654 0.2985121 0.23887143 0.2940272 0.38075745 0.73898304 0.26674414 0.08484044 0.18754613 0.21215528 0.66088396 0.4771344 -0.22312438 0.17240661 0.16860405 0.23817444 0.28050625 0.38006774 -0.23165162 0.058108054 0.12752499 0.14599502 -0.05196318 -0.004974127 0.04129155 0.41851872 0.01946982 0.12409232 0.19275816 0.48180005 0.39536414 0.40051964 0.5175751 0.51138496 0.30310532 0.4289379 0.521706 0.47340217 -0.33968204 0.14436878 0.4616533 0.44611552 0.3411283 0.5069633 0.53961486 0.5969087 0.74506813 0.49089986 0.7506167 0.2017081 0.14943272 0.24361084 0.40822065 0.4823557 0.49798834 0.5002908 0.7416041 0.72562444 0.70718277 0.3237154 0.42128968 0.46343035 0.5021796 0.5162561 0.7137963 0.9173142 0.93315643 0.9181489 0.8692267 0.85755384 0.8964529 0.9173932 0.8088681 0.81968606 0.8203014 0.8074546 0.83328664 0.7395736 0.74757564 0.72754216 0.5336005 0.6783453 0.6532463 0.5978992 0.5130148 0.6000838 0.5366756 0.5211859 0.79224086 0.75310516 0.70043516 0.4718113 0.3391683 0.22242452 0.42425135 0.722947 0.7769791 0.133273 0.10313004 0.4167052 0.6796446 0.71608007 -0.1550767 0.39094895 0.64050865 0.3088229 0.46187565 0.2551596 0.11539926 0.4071599 -0.13845542 0.1161777 0.410243 0.4831289 0.47880805 0.34241927 0.43309498 0.51507616 0.5108354 0.3325258 0.42038047 0.52438414 0.3868897 0.5056672 0.45815873 0.45858416 0.44147304 0.40881246 0.46879995 0.5542636 0.6975447 0.44871032 0.73375475 0.72444713 0.6994399 0.6171043 0.4965223 0.514107 0.65228426 0.41575798 0.41256633 0.5120899 0.4931301 0.37879267 0.55032593 0.5387736 0.4721743 0.42952487 0.5253005 0.58520955 0.47744483 0.45512342 0.59654355 0.54803145 0.4912858 0.8859916 0.8957636 0.89196706 0.8344792 0.8419497 0.8448392 0.8739991 0.8501854 0.856307 0.80826735 0.8204726 0.72148544 0.69096565 0.6310564 0.62995994 0.49990994 0.49981108 0.5484991 0.7433228 0.71089506 0.54637873 0.48366302 0.21465462 0.07966933 0.47211504 0.39866164 0.7230036 -0.039759178 0.38785505 0.6907786 0.6561594 0.38305634 0.5770775 0.27053207 0.32412446 0.48421395 0.22334126 0.22632748 0.20612371 0.42693073 0.47508425 0.516586 0.40651023 0.461053 0.52951324 0.47615737 0.4777875 0.53857744 0.50181097 0.44811547 0.46727294 0.41162455 0.2372005 0.43761277 0.38445282 -0.051078595 0.28775465 0.5228305 0.48614445 0.5244026 0.66685796 0.70974755 0.6064447 0.4274803 0.394149 0.7916032 -0.037709184 0.34208447 0.481363 0.39314553 0.46819356 0.5016265 0.44172415 0.41245717 0.4506647 0.49469692 0.5223607 0.52826375 0.49637324 0.5031423 0.59566265 0.6524461 0.6313541 0.60519314 0.61473995 0.68232477 0.6839701 0.8372549 0.79865694 0.73119164 0.76027584 0.80387366 0.80610955 0.7131434 0.6257887 0.65948176 0.80525684 0.82746404 0.76651746 0.68134665 0.7592531 0.6083308 0.68087584 0.500258 0.5005517 0.63120496 -0.02565667 -0.08514945 -0.05206558 0.058834955 0.19782251 0.44034067 0.6478745 0.5745439 0.39367294 -0.046248835 0.3475873 0.5873766 0.5386119 0.3447503 0.45143723 0.2615481 0.16390392 0.28351614 0.40762687 0.46998322 0.5799297 0.39726946 0.58459663 0.29718658 0.5709082 0.2194395 0.51752377 0.5693569 0.24830572 0.2544792 -0.17815022 -0.2556908 0.25168908 -0.13382512 -0.03239318 0.3165697 0.51400965 0.7469058 0.8151562 0.8554579 0.88852656 0.34063554 -0.092198804 -0.2114467 0.6706314 0.8057268 0.86623967 0.9030982 -0.10461274 0.11530326 0.56240827 0.67470896 0.7688407 0.8555115 0.9000772 0.2975832 0.6296248 0.8037011 0.838555 0.36567223 0.32382023 0.40196583 0.38218933 0.40213305 0.4035512 0.43851328 0.5861913 0.47491044 0.59394264 0.66080976 0.693401 0.65823275 0.58959675 0.6791909 0.6937943 0.6175814 0.57389057 0.6100749 0.7068784 0.5924107 0.4673506 0.49525148 0.5656186 0.63809574 0.6724554 0.38015488 0.5179255 0.5865528 0.1386796 0.14409113 0.5141798 0.021530055 0.38910726 0.09692648 0.11422789 0.068480596 -0.04378148 -0.08410021 -0.06438806 -0.14470918 0.20924401 0.266334 0.2996124 0.21607994 0.37827227 0.35846886 0.26083854 0.41168153 0.32277864 0.23245737 0.16863155 0.4697981 0.24971956 0.5360795 0.598966 0.2695779 0.5928316 -0.24466354 0.5690328 0.58690083 0.18806928 0.4555246 -0.24390405 0.43828145 -0.26829523 -0.21287681 0.386168 0.28152138 0.009217136 0.43243837 0.54873675 -0.06440402 0.62003684 0.71962506 -0.019013386 0.81944996 0.8827305 -0.17152825 0.9381106 -0.24827877 -0.31734005 0.2578006 0.34724814 0.8972111 0.9310627 0.10254487 -0.034748107 0.4385132 0.7292669 0.8140297 0.8787266 0.15939969 0.29372025 0.35014254 0.36460793 0.38265297 0.4423867 0.46990928 0.49520165 0.59059554 0.56214106 0.62865734 0.6558106 0.39122602 0.23705934 0.3636294 0.44663638 0.48770708 0.12669714 0.1231557 0.13883013 0.14247353 0.2542298 0.37419152 0.41270795 0.41926157 0.19998674 0.18628557 0.14880696 -0.10451668 0.114781626 0.33586755 0.34434628 0.28692648 0.24559517 -0.090743 -0.06546575 0.28577918 0.21813871 0.28593296 0.09494206 0.35452363 0.37049806 0.21927252 0.33012462 0.34608397 0.31611454 0.39673626 0.4358943 0.21042296 0.17738555 0.4879626 0.13823843 0.5234731 0.17402707 0.5304684 0.5550961 0.35435802 0.564241 0.39279968 -0.6332806 0.044256426 0.15054525 0.26876014 0.42561582 0.42614558 0.41692477 0.4615822 -0.4319567 0.460522 0.425445 0.19963393 0.4060564 0.5357008 0.35878798 0.15393531 0.729354 0.79798985 0.8920636 0.038018372 -0.07666416 0.9849916 -0.13236873 -0.08603309 0.04729811 0.97127306 -0.12598976 -0.2698688 0.29648766 0.6940848 0.8046324 0.8510572 0.920717 0.07671532 -0.27245376 0.19381881 0.18643314 0.30311838 0.25322637 0.30521107 0.3484679 0.38810736 0.2554547 0.29376107 0.4209483 0.4782992 0.3230575 0.50332713 0.5512736 0.57846165 0.5539397 0.5710987 0.5564045 0.57809615 0.5455134 0.5170038 0.5810796 0.12842207 0.12302765 0.10616742 0.3450174 0.4374953 0.1533697 0.13550393 0.101372495 -0.0283758 -0.0014752317 0.11683588 0.13409075 0.11746949 0.06798023 0.28507644 0.34663728 0.31667367 0.17083196 -0.008508267 0.20069729 0.20561239 -0.12137983 0.34155822 0.058538638 0.32170793 0.19602858 0.27977356 0.29272148 0.28924257 0.3295581 0.40656012 0.2591419 0.1457957 0.38634318 0.4379747 0.45915025 0.22235575 0.21134776 0.21251254 0.33010563 -0.27752823 0.09674454 0.26032066 0.30493453 0.32432994 0.35521716 0.40802658 0.45903105 -0.57978344 -0.4913913 -0.17352882 0.45317876 0.44496602 0.24378005 0.3388478 0.49979705 0.32395828 0.5584074 0.6748588 0.18491945 0.71236014 0.85184836 0.104287975 0.017986648 0.92851627 0.8005833 0.9144511 -0.0919778 -0.23644106 -0.034814626 0.45025682 0.61992055 0.7048708 0.7845276 -0.07723989 0.08167595 0.24997218 0.2621789 0.31625438 0.364798 0.3197468 0.3006737 0.3582225 0.35965857 0.4195524 0.33366686 0.48109716 0.50584745 0.2746339 0.3331253 0.46406347 0.51630116 0.53692335 0.52710754 0.4578306 0.53164434 0.55497813 0.536012 0.42408657 0.46491432 0.5230757 0.40707663 0.41058296 0.43982053 0.48235753 0.2712524 0.04246071 0.3922054 0.40934417 0.010733224 -0.008473115 -0.0013101175 0.110430054 0.07897468 0.06389342 0.38078043 -0.096037984 -0.07067849 -0.049121067 0.33542526 -0.3051013 0.16503575 0.26173246 -0.32212937 0.05630213 0.19224241 0.25431144 0.27475926 0.20522249 0.0815387 -0.01429747 0.38655633 0.4589535 0.056493707 -0.07009562 0.09997183 0.5178111 0.36842626 0.18756104 -0.03706105 0.4582144 0.30556238 0.25585756 0.5199935 0.3712445 0.27778465 0.5526582 0.5152663 0.40960833 -0.22674665 0.3579145 0.32879573 0.24975306 0.48283 0.1721264 0.1364693 0.5421707 0.6418719 0.1371739 0.13714524 0.6066152 0.76235014 -0.21971117 0.5864595 0.6356737 0.75551033 -0.22608835 0.031382903 0.5202475 0.6144369 -0.16009977 0.17081082 -0.12392757 0.0891121 0.33098754 0.3938392 0.21918598 0.45798042 0.35780606 0.37543988 0.4167046 0.43883607 0.4254099 0.3761768 0.5805009 0.6507914 0.75018764 0.48434845 0.55325115 0.60370135 0.7274704 0.76341605 0.4308492 0.46620095 0.51610994 0.5852126 0.65430516 0.66899544 0.7223623 0.41443238 0.43185258 0.4694107 0.48960626 0.5163386 0.5154917 0.5339362 0.45937216 0.4973935 0.37955552 0.4017775 0.49248305 0.35751444 0.37661916 0.33531553 0.41315222 0.30490696 0.42150053 0.4673585 0.48506305 0.4988305 0.37784764 0.41913718 0.41197202 0.3911427 0.3980907 0.38387692 0.3881571 -0.0012793504 0.03584902 0.3629794 0.005411342 -0.072078146 -0.027888516 -0.0350041 -0.10363041 0.030212343 -0.087034315 0.32748604 -0.17171544 -0.12750334 0.27017814 0.22642577 -0.24898903 0.107441865 0.069603145 -0.29748625 -0.06263212 0.07885398 0.07080048 0.11429544 0.20279862 0.21413784 0.16384116 0.07152468 0.4141967 0.021754473 0.49430048 0.41865662 0.34996617 0.02647613 0.10606182 0.5321496 0.5215839 0.0527533 0.021916717 0.5438576 0.5524926 0.5403962 0.035252806 0.566213 0.55910206 0.47779956 0.28979102 0.18664202 0.008896526 0.08865201 0.57163346 0.5550742 0.46442264 0.2651835 0.22021678 0.005417349 0.16801232 0.4018698 0.16207471 0.14136705 0.35557297 0.47138825 0.13872989 0.12443788 0.33986577 0.40300807 0.5422262 0.3930406 0.019818872 -0.056102887 -0.10042915 0.010791235 -0.090818316 0.21515144 -0.09526008 0.34974793 0.4640509 0.26374334 0.2079522 0.43988472 0.3783937 0.2799009 0.32972378 0.34520212 0.3458711 0.34932116 0.45401943 0.43061954 0.47165465 0.41072106 0.35776 0.37853637 0.4605931 0.6354893 0.5187008 0.5655701 0.662696 0.7432061 0.79616535 0.8082733 0.34919816 0.4040938 0.4782171 0.7945384 0.7887128 0.35767382 0.40000737 0.6307517 0.6995532 0.29280448 0.3331306 0.51355714 0.5458926 0.33690742 0.40603232 0.28988433 0.25356597 0.2234737 0.17250814 0.149039 0.40867847 0.36484897 0.124575794 0.059637822 0.07761393 0.41286096 0.38707215 -0.1088627 0.4081377 0.062426023 0.14346507 0.36998653 -0.070181996 0.081823334 0.19884884 0.3094536 0.29456893 -0.17483178 -0.2389999 -0.107113734 0.1826381 0.23573218 0.25646672 0.20507321 0.17339484 0.023274124 0.14369272 -0.2093184 -0.07750346 0.12777811 0.2755226 0.22910903 0.20780984 0.40047544 0.17209548 0.119726226 0.052338257 0.20930493 0.049187943 0.08239725 0.15585624 0.19785678 0.36112374 0.41209912 0.19532357 0.18811688 0.15345949 0.18088135 0.40478384 0.45273364 0.44225085 0.5124785 0.07623936 0.13359271 0.14541668 0.4662044 0.5298075 -0.004830947 0.109035574 0.5530241 0.5382979 0.46627802 0.039575886 0.110386685 0.13678166 0.14109805 0.08329116 0.0036160052 0.2981225 -0.1464509 0.2927569 0.30886993 0.04152295 -0.049256 0.22041212 0.093586326 -0.047188938 0.14114906 -0.04174564 -0.12714407 -0.18752885 0.18100451 -0.18784477 0.32750306 -0.16070399 0.26664233 -0.021634273 0.2639892 -0.05133056 0.1534422 0.3288665 -0.016188145 0.25500324 0.2750979 0.4946313 0.40970123 0.19495936 0.37685958 0.43169796 0.49486017 0.442303 0.61294985 0.5696759 0.42857742 0.3118055 0.2626831 0.48046458 0.5022632 0.5060637 0.69232327 0.6610399 0.5726968 0.4659368 0.35192025 0.2761578 0.21746811 0.51530534 0.6524896 0.63419324 0.55224675 0.42580503 0.31517664 0.27866828 0.588676 0.54423237 0.4678581 0.37996274 0.3575981 0.31243658 0.28609285 0.5651686 0.57259744 0.5233906 0.46746424 0.413319 0.42236823 0.34454584 0.6209574 0.5385566 0.48926806 0.5885874 0.5512835 0.5456468 0.6516066 0.7103749 0.49198973 0.705768 0.7564094 0.78512484 0.31233242 0.36571336 0.7949117 0.27821362 0.71856135 0.4661705 0.4961033 0.14949982 0.18215236 0.34270087 0.38288432 0.10580839 0.17040282 0.20585012 0.37014025 0.33123076 -0.12422085 0.09535879 0.1130323 0.42362496 0.35406077 0.15404409 0.077683166 0.005147986 0.43676245 0.43102255 -0.14217164 0.13792932 0.08882409 0.41120988 0.12093872 0.082734905 0.08433016 0.057367973 0.21548773 0.28461117 0.35280594 0.2811974 0.20735295 -0.3773445 -0.2019366 -0.005099519 0.30755568 0.07131634 0.12689812 -0.010896236 -0.05553908 0.064296484 0.26731622 0.36167598 0.30535483 0.43805683 0.5211204 0.34142837 0.27597404 0.43762714 0.44897825 0.36931977 0.2449067 0.18362477 0.058174282 0.041874528 0.3383046 0.30314973 0.35045147 0.32070577 0.21370351 0.34118193 0.37325883 0.295455 0.107471205 0.13071732 0.29801917 0.31048197 0.35004902 0.13841909 0.33419496 0.14878823 0.16704437 0.30608344 0.43159246 0.010245696 0.035097763 0.16184925 0.17520833 0.12967256 0.092669465 0.15101676 -0.49884796 -0.14656007 -0.4832247 0.18239658 -0.035354607 -0.057821486 0.2101735 0.2687122 0.27557853 0.24530044 0.10989921 -0.03905478 0.26184708 0.2843341 -0.0643954 0.2010724 0.20487495 0.2375085 -0.11488542 0.18621443 0.14091118 0.14464572 0.17009673 0.13762864 0.009425402 0.074206874 0.06327285 0.0930918 0.03322713 -0.1887088 0.05093793 0.010555297 -0.009815311 -0.1895669 0.13833447 0.40266573 0.49945715 0.040298134 -0.03836768 -0.071466625 0.11315702 0.29528716 0.5187314 0.08283655 -0.034280412 -0.02965187 -0.020479042 0.070096605 0.5595651 0.5223019 0.12176561 0.16568735 -0.0012918636 -0.0017413907 0.01691972 0.003228061 0.3675309 0.3200124 0.6759821 0.6282381 0.14504941 0.05032359 0.082408965 0.48856395 0.48136276 0.40905398 0.70561737 0.12567043 0.48865294 0.51277435 0.5200723 0.49640638 0.6641308 0.59593785 0.5792419 0.2524958 0.54636806 0.5699376 0.31867033 0.32548392 0.54351026 0.56894267 0.4917891 0.37947452 0.5693207 0.5939541 0.5913645 0.5258982 0.41641366 0.56026155 0.38142994 0.48605508 0.5543927 0.682982 0.19918919 0.43400198 0.594028 0.6984997 0.7487726 0.16296083 0.7532189 0.13917267 0.16995144 0.7163243 0.16295317 0.15777507 0.3726395 0.16035114 0.17342106 0.27138203 0.33422428 0.23749542 0.035952866 0.39787382 0.3180148 0.2329206 0.12393504 0.47352365 0.4298394 0.0062893815 0.45101494 -0.07452577 -0.17771617 0.4218462 -0.19124016 0.31891668 -0.033562586 0.22529651 0.37913406 0.34458515 0.20567077 0.21610655 0.2664631 0.23834804 0.19162758 0.27438036 0.16788566 0.016290352 0.28547728 0.48165315 0.5257623 0.31228036 0.54241157 0.5400025 0.47179914 0.42743358 0.5276215 0.45428365 0.4335072 -0.12497097 0.14163218 0.328812 0.38815504 0.20590532 0.26447633 0.26444942 0.16688459 0.1762894 0.13171981 0.1538533 0.1420117 0.279603 0.16059725 0.3215097 0.29794425 0.16951738 0.3289341 0.3028864 0.11856447 0.27801257 0.2611976 0.04783715 0.09470807 0.079902045 0.034292884 -0.09256824 -0.5360493 0.16823708 0.009505495 -0.007203035 -0.025333874 -0.5558038 0.09004471 0.29898882 0.014626777 0.010230105 0.08091886 0.09208361 -0.003957346 -0.06058701 0.2709962 0.15284263 0.23864606 0.16139041 0.19125903 0.105691776 0.2379242 0.2585467 0.25466275 -0.11525359 0.2487317 0.19210823 -0.013009768 0.14122446 0.12476335 0.25546303 0.35669217 0.50953066 0.13541277 0.06728814 0.5301267 0.56338906 0.13126656 0.08976658 0.6053461 0.6095479 0.15758115 0.22039776 0.5611273 0.6054295 0.6257013 0.51749074 0.4107051 0.4955253 0.5771364 0.66187346 0.44768876 0.4023304 0.66138786 0.1089444 0.39310172 0.52863336 0.5067066 0.47426087 0.6302593 0.5235721 0.2501269 0.47365817 0.4767264 0.29190657 0.48988557 0.49450934 0.34053162 0.5276213 0.5397177 0.36616117 0.5390789 0.5005014 0.45237678 0.5280553 0.50570345 0.51033664 0.48644072 0.42395088 0.12260342 0.1667031 0.30492646 0.3814867 0.598171 0.6637173 0.060191143 0.5016852 0.72107124 0.14991567 0.08375774 0.17652883 0.14557281 0.21963562 0.14612986 0.12680471 0.39792177 0.37010878 0.27447528 0.10692295 0.5018803 0.4126516 0.09631676 0.4964833 -0.1196666 0.48108435 -0.24183564 -0.2953635 0.43741095 -0.16947983 0.14250144 0.3026775 -0.20120752 0.3325314 0.48241028 0.5098834 0.2942546 0.511274 0.56333303 0.59027797 0.6007882 0.22594604 0.1469405 0.6222364 0.6748792 0.6262265 0.28550813 -0.0127386 0.17544596 0.46636826 0.5276933 0.72168684 0.5357892 0.54455256 0.4622168 0.52723 0.43667126 0.42830744 0.48361027 0.46167332 0.4079924 0.3696985 0.37626445 0.4087395 0.11243497 0.3028872 0.10655747 0.1867234 0.111909434 0.14811914 0.22967142 0.2011215 0.34127522 0.30637962 0.206336 0.35463372 0.15610597 0.3416754 0.29458243 0.30044648 -0.18551941 -0.31887594 0.103908375 0.26565343 0.25816762 0.13354059 -0.28584325 -0.42156035 -0.35669446 -0.36769295 0.13483682 0.29052216 0.24345432 0.20937061 0.08645136 -0.05682932 -0.12351529 -0.11267561 -0.25802743 -0.35694742 -0.36850184 0.3768125 0.14352515 -0.03721395 -0.21479481 -0.14621909 -0.0989323 0.515377 0.10676046 0.09517373 0.39269298 0.50715363 0.19754231 0.18416262 0.36481053 0.17906517 0.21007898 -0.11066822 0.21788295 0.19081424 0.16697896 0.48120517 0.13714406 0.56615674 0.18456729 0.61075974 0.17985955 0.5977606 0.60804397 0.39173183 0.5166743 0.5649743 0.4208463 0.3239162 0.54830855 0.47874662 0.4140465 0.53061354 -0.01569672 0.44397765 0.41090998 0.1610285 0.34146023 0.29888052 0.3444052 0.424475 0.41407347 0.3751641 0.46987224 0.45421344 0.26835316 0.33474693 0.5134024 0.47210622 0.50645477 0.5505526 0.579653 0.54833 0.50270355 0.56260294 0.557456 0.5043255 0.4604891 0.4144109 0.49753377 0.27299848 0.35363483 0.27964073 0.23392515 0.16758092 0.15577158 0.16856384 0.10995247 0.18508205 -0.0052967817 0.11701889 -0.01940655 -0.042962708 0.41621792 0.3307793 0.2158705 0.03450057 0.006931912 0.383824 0.4647107 0.5877228 0.60680664 0.5064074 0.46488422 -0.13109161 0.15740466 0.32382855 0.4614819 0.5805255 0.627305 0.6365403 0.51149124 -0.19002092 0.09066464 0.26690528 0.46800092 0.5450095 0.58133686 0.6211901 0.4994208 0.39381564 0.47587448 0.5397632 0.3792448 0.38294467 0.3937345 0.43526757 0.20699055 0.30477387 0.33564273 0.35506925 0.3813058 0.3991228 0.32281846 0.4013381 0.4216327 0.47812375 0.5393647 0.23198935 0.49138552 0.61117923 0.6396647 0.43286607 0.5736548 0.6292523 0.62075686 0.60176957 0.2373369 -0.046996698 -0.0051832534 0.38817936 0