# vtk DataFile Version 2.0
Really cool data
ASCII
DATASET POLYDATA
POINTS 13416 float
25.401634 31.925617 79.726295
25.422634 31.986633 80.42718
25.211382 33.10402 78.26867
25.000246 33.002987 78.82955
24.982727 32.90752 79.38508
25.341738 32.640713 80.53001
25.13518 33.677986 78.15695
24.875 33.617924 78.7308
24.855104 33.551277 79.387314
25.122038 33.51887 80.06568
25.230785 34.156982 78.02875
25.02013 34.317398 78.67949
25.038748 34.33757 79.413826
25.17653 34.086388 79.96971
25.247591 34.7278 78.80999
25.20017 34.742275 79.098305
25.903196 31.212444 79.75786
26.071838 30.941845 80.5669
26.263866 30.884855 81.13793
26.225187 32.129536 78.24123
25.763285 32.038986 78.78918
25.59886 31.766626 79.59053
25.579561 31.70403 80.52917
25.911535 31.66303 81.20032
25.782055 32.9303 77.92687
25.589596 32.49132 78.47928
25.485819 32.456657 80.68722
25.62184 32.389248 80.976906
25.638123 33.627613 77.72838
26.076221 34.280655 77.383545
25.726904 34.492676 77.68874
25.64019 34.287556 80.11379
25.892622 34.940365 77.86317
25.716421 35.079296 78.58915
25.60045 34.915695 79.2822
27.449873 19.83714 87.84147
27.41274 19.74424 88.12587
27.379173 19.63397 89.396194
27.38858 19.484426 90.22692
27.314518 19.838192 91.242294
27.45452 20.277277 87.75274
27.373894 20.336372 88.37254
27.354086 20.323025 89.72606
27.204897 20.422405 90.698105
27.26758 20.334253 91.17554
27.409594 21.072727 90.293304
27.105026 30.269663 79.772354
27.006285 29.98758 80.775444
27.036316 30.016611 81.25654
26.867281 30.906836 78.92485
26.594587 30.794712 79.54153
26.446392 30.562248 80.537895
26.537058 30.59989 81.25553
27.196423 30.699465 82.09692
26.435434 31.7285 78.553116
26.732773 31.505024 82.00117
26.78292 33.009186 77.384056
26.707142 32.66842 77.681015
26.680923 32.313866 81.91951
26.538933 33.545494 77.31617
26.39889 33.19379 77.58048
26.657734 33.523636 81.19499
27.192474 33.016426 81.892784
26.48977 34.463543 77.33414
26.216764 34.75715 77.476814
26.117842 34.495083 80.21596
26.490765 33.877544 80.85786
26.57257 34.82626 77.39453
26.536806 35.022938 77.6834
26.472761 35.34511 78.49557
26.45351 35.177574 79.30954
26.28181 34.9063 79.85793
28.286882 18.135847 86.745094
28.289488 18.111027 87.52152
28.224142 18.208008 88.5801
28.19043 18.279198 90.14115
28.275112 19.117922 85.64431
28.167358 18.521557 86.703896
28.011024 18.552763 87.523346
27.815495 18.8526 88.78571
27.77749 18.915417 89.421005
27.888062 18.700706 90.47472
27.898252 19.070147 91.346466
28.329792 19.64687 84.99238
28.048897 19.602999 85.821754
27.84438 19.643879 86.63345
27.657934 19.564352 87.42744
27.513119 19.482252 88.35843
27.588108 19.247879 89.75535
27.534233 19.296465 90.90425
27.515648 19.578407 91.47678
27.847422 19.758448 91.96709
28.325699 20.304392 85.027016
28.257818 20.452751 85.41707
27.927153 20.330248 86.783646
27.61038 20.530317 87.637505
27.732231 20.284079 92.04709
28.318264 20.895803 85.8418
28.217575 21.061563 86.98545
27.90854 21.206186 87.77353
27.653715 21.169054 88.56262
27.581858 21.218576 89.17877
27.553202 21.318497 90.6279
27.49275 21.213009 91.38318
27.831669 21.033714 91.94696
28.365398 22.102654 93.04634
27.950459 21.843678 89.75351
28.238737 22.300879 92.51155
28.32362 22.658728 93.365234
28.127361 23.931038 91.65556
27.922207 23.715559 92.565674
28.103546 23.499098 93.382225
28.272263 23.97217 93.80962
28.132442 24.481041 91.787445
27.93077 24.56231 92.63416
28.078556 24.480688 93.391
28.26804 24.363401 93.81244
28.152573 24.809067 91.913765
28.177868 25.05087 92.60641
28.202753 25.004513 93.17827
28.066128 29.424988 80.98718
27.381975 30.264597 79.72403
27.565369 29.652515 80.68239
27.587105 29.778637 81.489204
27.508762 30.106197 82.06848
27.585358 31.126005 78.475296
28.275227 30.580137 82.937416
27.839462 31.444553 78.41197
27.912352 32.834198 77.3124
27.598248 32.37899 77.56253
27.459541 32.28849 82.53958
28.002605 32.350037 82.900246
27.60257 33.511974 77.18034
27.838146 33.265762 82.274345
27.477993 34.37344 77.29007
27.76743 34.658882 77.521324
27.175573 34.418293 80.43359
27.73401 33.823414 81.1644
27.487846 34.95671 77.7225
27.207844 35.23239 78.508835
27.503468 35.066216 79.20615
29.418016 17.820889 78.237564
29.34363 17.65301 78.72478
29.3051 17.620922 79.24702
29.139053 18.27909 84.7977
29.023312 17.998035 85.58791
28.798384 17.77435 86.697
28.58044 17.842943 87.64234
28.540926 17.894737 88.28139
28.604244 17.972282 89.72819
28.768854 18.00479 90.28067
28.80993 18.30746 90.86288
29.3129 18.255203 78.74646
29.316624 18.480324 79.303
29.41735 18.475977 80.08956
29.129545 18.67263 83.704315
28.6371 18.93833 84.90321
28.69659 18.41465 85.59953
28.420937 18.274128 86.545654
28.527105 18.729048 91.31074
28.635843 19.160095 91.94933
29.430504 18.922714 78.7742
29.425499 19.05599 79.47207
29.40099 19.0377 80.24942
29.40824 19.196993 81.7544
29.11811 19.44335 82.79069
28.882038 19.674004 83.56608
28.45171 19.511925 84.653755
28.698711 19.72831 92.42268
28.700325 20.17414 92.662575
29.154152 20.408215 82.91594
28.867918 20.246452 83.71658
28.651508 20.505735 84.683075
28.330717 20.353964 92.51651
28.612225 20.893162 92.9383
28.972937 20.950642 84.599815
28.610674 21.12527 85.808075
28.591057 21.379879 86.722496
28.397133 21.508398 87.22382
28.618631 21.893507 93.39325
29.00185 21.920507 93.85624
29.081749 21.872267 87.02735
28.749096 21.736012 87.272964
28.583927 21.97688 88.58593
28.647703 22.500465 89.91954
28.489445 22.301523 93.46785
28.883257 22.69609 94.05464
29.277042 23.586952 89.91074
28.597912 23.548712 90.58854
28.665112 23.773882 94.07052
29.278967 23.90615 90.20177
28.797396 24.479788 90.88909
28.43773 24.630995 91.32213
28.621449 24.478777 94.019035
28.810747 24.822544 90.991905
28.62615 25.123333 91.63226
28.547348 25.407124 92.55258
28.612413 25.23571 93.386734
28.813452 24.93728 93.90825
28.912827 25.638771 92.40449
28.414686 29.469921 81.474106
28.63656 30.056627 79.07549
28.57933 29.71591 79.71776
28.540916 29.490803 80.25606
28.422281 29.514463 81.691734
28.428448 29.780819 82.450874
29.042082 29.911154 83.15104
28.37131 30.935095 78.516594
28.580757 30.950205 83.21718
28.176708 31.722965 77.95771
28.869947 31.32554 83.49681
29.087786 31.670546 83.636345
28.587704 32.709476 77.24694
28.48384 32.542007 83.15195
28.653255 33.731182 77.148705
28.88982 32.882393 83.25497
28.206186 34.206345 77.229836
28.27828 34.520622 79.84275
28.562962 34.00235 81.35564
28.218702 33.680355 81.85581
28.230934 34.86166 77.7701
28.273954 34.996983 78.17971
28.059755 34.908257 79.542725
28.085497 34.667725 79.881516
30.169813 16.385899 78.89504
30.15421 16.378645 79.369896
30.026316 16.977987 78.068375
29.763906 16.888075 78.661224
29.852337 16.741032 79.545
30.063541 16.75739 80.25475
30.126616 17.272852 84.52489
30.057247 17.213871 85.4012
29.754475 17.363379 86.36365
29.78053 17.435349 87.25372
29.806292 17.556131 77.96838
29.497023 17.46616 78.45409
29.543297 17.936333 80.41185
30.103458 17.458073 81.00808
30.012192 17.77315 83.78837
29.715963 17.57333 84.89986
29.749586 17.548452 85.15612
29.365316 17.483948 86.733376
29.631178 17.61358 88.14857
29.488419 17.871998 90.25252
29.546406 18.25041 90.94586
29.8008 18.380507 77.99406
29.4507 18.138926 78.364174
29.508495 18.397326 80.30512
29.692364 18.383327 82.8875
29.45251 18.618996 83.516266
29.620031 18.877703 91.598724
29.407076 19.285263 92.11954
29.979332 18.953876 78.090195
29.817327 19.192406 78.42552
29.69879 19.623398 79.20317
29.519423 19.478285 80.70703
29.288446 19.530035 92.33292
29.32702 20.00593 92.692154
29.769655 20.185596 79.90885
29.592705 19.903034 80.176506
29.537508 20.06494 81.2464
29.438318 20.614202 82.5372
29.643894 20.954315 93.232605
30.216549 21.114517 81.10462
29.803328 21.208801 82.79221
29.663 21.090244 83.44296
29.533747 21.330338 84.5658
29.633774 21.804632 94.06039
29.890125 21.67424 84.87892
29.983646 21.890696 85.62948
29.486631 21.85561 86.640884
29.858536 22.189676 87.69451
29.546558 22.347055 94.2817
30.008072 22.994877 88.485085
29.461626 23.523613 94.35283
30.047697 24.138311 89.66369
29.421217 24.390549 94.29385
30.05391 24.808075 90.1676
29.573593 24.883062 90.66494
29.293615 25.528114 91.63176
29.140371 25.452608 93.532684
29.38583 25.201843 93.87706
29.672781 25.69118 91.63886
29.44475 25.830288 92.35265
29.463173 25.77818 93.15926
29.649963 29.255331 81.43716
29.667912 29.229368 82.57419
29.931736 29.286888 83.096016
29.836504 30.011581 78.78607
29.708593 29.523045 83.37294
29.732601 30.071444 83.81754
30.126886 30.49134 77.65471
29.838736 30.61198 84.0852
29.872602 31.54428 84.19671
29.206282 33.020336 77.19792
29.639706 32.52726 77.56299
29.52851 32.176003 83.90476
29.420994 33.566757 77.28519
29.457268 33.456024 83.09124
29.00081 34.206944 77.34119
29.44044 34.2133 77.534584
29.915144 34.258846 82.0465
31.076447 16.338146 77.75731
30.700842 16.236423 78.53694
30.576979 16.218145 79.555855
30.680458 16.293432 80.16866
30.87094 16.733093 77.61983
30.36719 16.467249 78.46808
30.832922 16.428738 80.466515
30.875875 17.134665 84.04315
30.472889 17.146605 84.68159
30.512575 16.94567 85.1765
30.79965 17.159515 86.63332
30.409084 17.446825 88.000946
30.794771 17.54597 77.210495
30.57151 17.435387 77.449684
30.873457 17.57426 82.98641
30.80131 17.60584 87.89088
30.304422 17.783587 89.21271
30.18883 18.054993 90.1385
30.076836 18.263891 90.79798
30.589588 18.28604 77.34434
30.40874 18.450573 77.56196
30.313263 18.586926 90.99597
31.112774 18.849344 77.20653
30.547707 19.285988 77.86244
30.362795 20.110487 92.55328
31.181604 20.131159 77.80569
30.46105 20.402939 78.60728
30.142008 20.88701 93.38302
30.634504 21.37214 79.89692
30.787 21.424725 93.62629
30.369688 21.841396 94.124886
31.29881 22.79896 75.420906
30.932062 22.28516 81.977104
31.118174 22.315954 82.10043
30.920599 22.140953 83.23108
30.583199 21.773172 84.77855
30.810686 22.349426 86.56492
30.400188 22.502954 94.40854
30.27679 22.733023 94.54088
31.422493 23.552301 74.07024
31.04554 23.944214 75.035545
31.055792 23.512354 75.5976
31.149645 23.945456 76.44048
30.758726 23.229816 87.99563
[...]
POINT_DATA 13416
SCALARS features_00 float 1
LOOKUP_TABLE default
0.6319661 0.61738086 0.79228497 0.79422617 0.76366395 0.65886545 0.88617456 0.9055977 0.8701423 0.8127618 0.92581666 0.9625173 0.9249927 0.8548622 0.965017 0.9460832 0.57774293 0.5774768 0.57439536 0.57662284 0.6234711 0.6153256 0.6012962 0.5844677 0.713794 0.6815002 0.630442 0.6093942 0.81212866 0.8019049 0.8867725 0.7831841 0.89724725 0.9525016 0.9074774 0.44105715 0.44075328 0.47556394 0.55041635 0.6178602 0.4413262 0.4441937 0.49094337 0.5663436 0.59969866 0.50363636 0.51700115 0.53836435 0.5340114 0.49068302 0.53830993 0.5644197 0.56306785 0.53208697 0.5324223 0.58349717 0.62327003 0.582622 0.5508989 0.7019786 0.6837486 0.45453882 0.38148412 0.76528513 0.82139623 0.6809738 0.50233376 0.7777148 0.8016608 0.8860444 0.8251083 0.72676563 0.40066344 0.41975513 0.4494333 0.56842774 0.42081094 0.41110915 0.42530626 0.44507667 0.4869412 0.58882856 0.6239133 0.41882357 0.43587953 0.43707356 0.4358121 0.43805012 0.51047945 0.6103972 0.6288018 0.5991239 0.41169265 0.41806063 0.43705943 0.4366414 0.57085454 0.39365804 0.38793933 0.3999349 0.42420733 0.43552363 0.50384235 0.5419277 0.51022303 0.459805 0.33492815 0.43817112 0.5420468 0.5487653 0.71041 0.66734403 0.7041444 0.6022303 0.7361741 0.7491361 0.73317075 0.63132346 0.7226769 0.75162137 0.4534753 0.5001231 0.499978 0.49261376 0.48718032 0.4303531 0.44859055 0.41677746 0.50590026 0.48701662 0.41789067 0.36728176 0.5993215 0.314319 0.6725322 0.6840756 0.46685794 0.32541755 0.7317167 0.81679875 0.73581123 0.6102389 0.6260421 0.6276125 0.31781638 0.33670467 0.37395126 0.41008693 0.43363312 0.5310038 0.53976357 0.55682945 0.56169784 0.5185884 0.47309157 0.34039667 0.391051 0.3733198 0.39652395 0.58771944 0.5580108 0.50672245 0.456081 0.386116 0.24368843 0.33143812 0.3740694 0.40769896 0.5023133 0.46344247 0.2847333 0.3549326 0.38385752 0.48936966 0.4366929 0.33797345 0.35670897 0.32397434 0.32923007 0.46737278 0.49904162 0.20140316 0.25672746 0.22447275 0.116687626 0.50471234 0.5716677 0.11511491 0.23204383 0.66555 0.17250618 0.34900028 0.48067868 0.7218769 0.38659722 0.54232645 0.70299166 0.7494493 0.7333379 0.67061573 0.40878728 0.36114872 0.40250546 0.40909368 0.40749097 0.4201618 0.38557783 0.34461218 0.40994588 0.38505575 0.37077755 0.3422498 0.41926154 0.31824666 0.50231934 0.26535845 0.59350705 0.45451015 0.21760462 0.25505456 0.64794385 0.6886224 0.6105534 0.4931721 0.6888653 0.6872362 0.66933274 0.68957007 0.70146894 0.6725275 0.22210434 0.23736589 0.2866651 0.2966714 0.633546 0.6486857 0.5558366 0.59769416 0.25751752 0.2594905 0.26514733 0.3381674 0.33060646 0.44684762 0.4831801 0.5590364 0.5816065 0.4694314 0.28864816 0.3248277 0.46390957 0.45603758 0.50743157 0.48901212 0.4176427 0.28194338 0.4493286 0.40871036 0.30466548 0.29973382 0.19870603 0.22073118 0.39358103 0.13753009 0.12574577 0.18932949 0.26014954 0.49800628 0.19777831 0.15210281 0.16379267 0.035650246 0.5444501 -0.038474657 0.61758703 0.08478582 0.6592498 0.15939236 0.26224503 0.48303077 0.7359742 0.70684814 0.4359404 0.62046987 0.70529723 0.2082613 0.24535276 0.25598383 0.22576343 0.3112942 0.3546063 0.23576397 0.35384685 0.3028304 0.37319708 0.27860373 0.28231242 0.38387778 0.18271549 0.4815503 0.38713747 0.059335597 0.64038956 0.6677289 0.6572643 0.5976627 0.6377892 0.6783489 0.54353374 0.18483052 0.20782647 0.21426852 0.16909787 0.15210149 0.5935174 0.6165403 0.09417084 0.09251232 0.22959939 0.34833398 0.40168738 0.53558576 0.5307479 0.34768608 0.44493276 0.45557025 0.28201175 0.33869722 0.38982642 0.35890707 0.1672497 0.36247104 0.45060351 0.4206763 -0.0003466457 -0.016287148 -0.045390278 0.042737983 -0.063686565 0.48816362 0.511607 0.55369663 0.517221 0.417722 0.30448973 -0.1341366 -0.0063807387 0.50690216 0.528277 0.68427515 0.62133706 0.49636865 0.34116802 0.13548724 0.14273903 -0.012589237 0.12097089 0.7387986 0.71222746 0.5302442 0.17534614 0.18204108 0.021178251 0.13994789 0.5320824 0.68481654 0.57513446 0.21105082 0.22235811 0.05470151 0.2804483 0.31517386 0.272027 0.28354722 0.07093694 -0.03726406 0.09525937 0.21114554 0.28731984 0.19552979 0.3061116 0.24202509 0.30587932 0.21800412 0.24161522 0.17504182 0.23829272 0.22477521 0.19245724 0.18555391 0.13872844 0.16559309 0.29525518 0.28222263 0.24681258 0.4802689 0.48874336 0.45793784 0.5023887 0.5294056 0.553383 0.60113204 0.62227726 0.6372982 0.6004766 0.5020362 0.27471033 0.27456498 0.17975412 0.58267534 0.6214073 0.365653 0.19138989 0.25717607 0.1479369 0.08443848 0.06281057 0.53813493 0.24871309 -0.09149346 -0.042334303 0.12243143 0.44697824 0.26261708 0.42667958 0.37288463 0.13306059 0.2512497 0.4774735 0.45365646 0.38563663 0.25286323 0.34039253 0.3732974 0.52116585 0.5002179 0.4855617 0.374284 0.18692999 -0.12030742 -0.043349907 -0.086288646 -0.3531347 0.4327719 0.586777 0.5795709 -0.00087051466 -0.08416803 -0.092881545 -0.14046308 -0.22221254 0.373424 0.6885878 0.6736375 0.16482586 0.05581723 -0.1214532 -0.07148185 -0.16214424 -0.16993888 0.73319036 0.7418847 0.33643 0.22005907 0.1142717 0.036624275 -0.036898337 -0.06529091 0.084671736 0.7403127 0.755414 0.7038381 0.5858975 0.47951186 0.21317466 0.13636139 -0.1486662 -0.009677693 0.7234162 0.6537921 0.45335847 0.26770002 0.05199209 -0.19818634 -0.07736723 0.30887827 0.3758725 0.36862564 0.15179119 -0.14447325 0.086157635 0.13876379 0.24718907 0.28563452 0.45725468 0.4746802 0.42478734 0.17389694 0.082287714 0.3342972 0.42515957 0.4842515 0.49327448 0.47044024 0.1896294 0.30762163 0.48716643 0.4894876 0.2182311 0.21126813 0.1693144 0.19151375 0.15824205 0.18517032 0.1657315 0.35075524 0.25850546 0.35654056 0.43327165 0.35193858 0.46234816 0.50301737 0.5255907 0.560922 0.5686532 0.45845586 0.5431603 0.56196535 0.57689893 0.59447074 0.5780815 0.4752798 0.41914317 0.1645168 0.25801432 0.27463308 0.19630073 0.22886655 0.24646571 0.5393174 0.31637254 0.22294483 0.16893497 0.18642256 0.45359635 -0.074285015 0.05098825 0.3793742 -0.13411938 0.17311448 -0.12894675 0.44504976 0.42659634 0.16673192 0.18774861 0.47216547 0.47608984 0.12823366 0.5073452 0.49869066 0.30356145 0.5484358 -0.19356285 0.6651797 -0.23320477 -0.22300144 -0.058264967 -0.083926335 -0.01901871 0.71050274 -0.28744066 -0.06555995 -0.005930014 -0.016767997 -0.044484142 -0.1978109 0.0797698 0.72091043 0.7260809 -0.39873576 -0.17531684 -0.092826806 -0.0015229508 -0.0024205595 -0.1788294 -0.21087995 0.056548066 0.7207917 0.70439804 0.08470757 0.1527252 -0.273771 -0.30240473 -0.058346562 -0.13459732 -0.08801615 0.03808078 0.14236398 0.0121766925 0.045506805 0.36780638 0.2462672 0.12335424 0.2933368 0.40388554 0.4698649 0.42217016 0.33295545 0.21843162 0.21478942 0.19196236 0.4225697 0.4521434 0.46633995 0.16792709 0.23006803 0.15402111 0.103256494 0.193979 0.2331451 0.07536083 0.32579204 0.18757479 0.3565924 0.39676952 0.33989805 0.41173846 0.49495405 0.5814609 0.60838175 0.5015981 0.51276636 0.536411 0.68758357 0.70827997 0.6840093 0.6779885 0.70485395 0.7418918 0.71690166 0.6692959 0.695845 0.73903805 0.69739246 0.6579789 0.7033626 0.71548975 0.7018007 0.18242784 0.2694775 0.5492766 0.4979944 0.39100513 0.17434937 0.1987879 0.24363852 0.2882901 0.24468955 0.4378901 0.47721562 0.33842593 0.07959066 0.18252586 0.26632032 0.16979639 0.13034433 0.32638466 0.3771569 0.26756302 0.15389712 0.21998896 0.36716163 0.4040531 0.37630275 0.2807607 0.28955117 0.4500051 0.4479624 0.4700513 -0.30596763 0.501526 0.596205 0.11622051 0.23072302 0.63227373 0.14221829 0.24795955 0.6550673 0.6334797 -0.3530831 0.1900947 0.2810899 0.45976263 0.50257295 0.61693025 0.52251834 0.037882343 -0.102949314 -0.23992516 0.42551702 0.5240278 0.6587833 -0.07416093 -0.17812684 -0.18130754 -0.23329902 0.307222 0.38842404 0.5671863 0.67172056 -0.06263256 -0.059481014 -0.05938317 0.20017953 0.18813753 0.3195622 0.5257507 0.69655657 0.21600965 0.17337182 0.12896276 0.3923694 0.37901384 0.20922846 0.25769177 0.12217376 0.16425072 0.27976495 0.27413446 0.37201226 0.36683607 0.35344982 0.25391793 0.19018076 -0.022062648 0.1231397 0.41237092 0.13929957 0.0026581585 0.17352356 -0.0034729764 0.29875493 0.20441097 0.35404286 0.37816894 0.31300056 0.40559512 0.4746294 0.54699326 0.47964817 0.64144766 0.65997344 0.660042 0.620494 0.6816257 0.68264115 0.66070426 0.6311792 0.66836953 0.6490495 0.65312195 0.635692 0.6175765 0.6263876 0.66591406 0.69782054 0.6749535 0.64098793 0.6494952 0.6732948 0.663224 0.16198769 0.19695179 0.37927732 0.32179406 0.2553932 -0.024700096 0.18225259 0.32062495 0.41072786 0.35081613 0.2611032 -0.11836049 -0.14219147 -0.035907965 0.2271944 -0.10285154 0.40034533 0.09756632 0.19899121 0.21813948 0.32179117 0.40656883 0.42371896 0.23982926 0.11856233 0.3881211 0.39001366 0.28127548 0.33413872 0.34024858 0.046668746 0.37519678 0.009292427 0.15452889 0.16250311 0.43577933 0.43328434 0.23200372 0.25794205 0.5175851 0.44254398 0.25512725 0.30393904 0.40693107 0.5308783 0.3824562 0.56557435 -0.09606318 0.6938153 0.82131577 -0.085343614 -0.0804452 0.77762794 0.8877796 -0.10879338 0.60336506 0.79225945 0.8819628 0.12904102 0.14626497 0.18896087 0.30961415 0.6646434 0.18481477 0.16888912 -0.0001565516 -0.21576661 0.344151 0.40928686 0.3661157 0.16032824 0.0956859 0.37751147 0.4297151 0.46455437 0.12385807 0.09892547 0.09998463 0.057677165 -0.058880594 -0.053796086 0.0647416 0.32425785 -0.05763751 0.3417595 0.3595545 0.38231754 0.38929138 0.38949996 0.42003527 0.37681758 0.5149571 0.5565957 0.60749173 0.5770016 0.5931851 0.6094041 0.6435379 0.51813895 0.64874256 0.57324636 0.59922457 0.5975209 0.52550304 0.6017517 0.58910227 0.6168485 0.635398 0.62718207 0.619379 0.25333655 0.17119499 0.12572229 0.17016074 0.31465542 0.38917756 0.40725428 0.24345315 0.15135604 0.09075657 0.11117187 0.32500368 0.4205696 0.3995377 0.1650407 0.13918978 0.09315024 0.1789476 0.19949329 -0.16351157 0.050856113 0.084001444 0.12334645 0.0081865005 -0.15737446 -0.15265705 -0.06444129 -0.039631754 0.22777964 0.36998755 0.37836236 0.39673474 0.3971787 0.08991311 0.3792842 0.12573062 0.323742 0.25465664 0.08004896 0.15261742 0.2673014 0.22883116 0.042317994 0.08954579 0.25818175 0.24678268 0.2458633 0.29278243 0.3811654 -0.12623529 0.5348928 0.6514199 -0.12721543 -0.11529198 0.8601086 0.95826995 -0.0445679 -0.13766684 0.84419656 0.9177208 0.04199022 -0.08972729 0.66723263 0.8122925 0.8561758 0.10570726 0.009864166 -0.02579285 0.3466853 0.122096576 0.07996942 0.05695106 0.20719756 0.37411627 0.50665474 0.48409283 0.39488798 0.2838451 0.08819515 0.050501235 0.38067383 0.14791965 0.027968526 0.070506185 -0.028965335 0.2763457 0.30193222 0.17880431 0.46795607 0.5261891 0.65675557 0.6762292 0.30463105 -0.042403094 0.3485151 0.47443464 0.5772649 0.66659695 0.70420945 0.3954792 0.42337734 0.5433776 0.65159804 0.677937 0.559136 0.6139435 0.62515837 0.27743506 0.3325262 0.51848847 0.43903416 0.5158529 0.56281334 0.5515221 0.7558149 0.60989696 0.61724246 0.61437964 0.58016765 0.77917576 0.8134967 0.6143509 0.27780125 0.27521586 0.2211707 0.09133877 0.25330168 0.30814224 0.35116214 0.25657797 0.26149598 0.21041082 0.15465716 0.12874438 0.2834567 0.3843865 0.38977545 0.34103414 0.37592077 0.074639045 0.24791445 0.32736072 0.30963588 0.31825855 -0.10079768 0.072978854 0.23407322 0.25493923 0.2800212 -0.18908548 -0.19435261 -0.1733738 0.012831825 0.038341444 0.24039274 -0.14775449 -0.33139196 -0.25489396 -0.03718377 0.047917143 0.11914013 -0.29014117 -0.33371356 0.28486785 0.32814574 0.31028193 -0.047505904 -0.12440364 0.3519387 0.35781923 -0.08619796 0.27834076 -0.12994683 0.17069057 -0.042082146 0.097370386 -0.03793314 0.064675346 0.03459561 0.00011768937 -0.04248342 0.20651242 0.13627324 0.039035738 0.37718344 0.5153104 0.64577615 -0.13082632 0.7771056 0.89746094 0.801111 0.89406526 -0.038648847 0.39667824 0.6306249 0.7719369 0.17371653 0.32082534 0.47626162 0.41716298 0.2700209 -0.13895297 0.047914617 0.3045649 0.46815902 0.3548507 0.4813164 0.44736248 0.020158261 0.17793462 0.30038595 0.3883709 0.49992445 0.44102752 0.08467859 0.5187589 0.46562064 -0.027766215 0.46975023 0.27363643 -0.449377 -0.11062197 -0.076669924 0.4101608 0.43493903 0.5279609 0.19361387 -0.29248214 -0.17194588 0.35790488 0.6095145 0.2929576 0.54489267 0.4219156 0.42491814 0.3014948 -0.17595008 0.56981313 0.5090036 0.4549681 0.51034063 0.543964 0.5502492 0.1683994 0.017837636 0.39902306 0.56530297 0.5769989 0.25071034 0.3445185 0.4064628 0.43542773 0.5445312 0.6792036 0.3952956 0.5131345 0.68724906 0.8181833 0.83527935 0.5644143 0.57090163 0.5624223 0.49732345 0.59767425 0.6675267 0.7617382 0.84256804 0.87048835 0.6853552 0.79804707 0.837019 0.8875309 0.6139151 0.45744878 0.67207193 0.6288338 0.45568115 0.3189623 0.17395431 0.1558384 0.24947226 0.6553141 0.6270441 0.43617564 0.19309005 0.24687225 0.24256831 0.19171362 0.108238816 0.041760005 0.1694853 0.24563621 0.25495303 0.2639541 0.34824693 0.4512402 0.5022172 0.5975194 0.5269805 0.2500975 0.4794756 0.52743256 0.08500408 0.08835507 0.33850637 0.41286653 0.44986212 0.2603483 0.35214388 0.43496186 -0.20395195 0.05024776 0.15480123 0.15573917 0.24671169 0.4160177 0.32859838 -0.09151797 -0.20589861 -0.31727093 -0.30948758 -0.15798156 0.013445077 0.07627798 -0.18048055 0.2460392 0.24761695 0.22098735 -0.081149995 -0.24505806 -0.3362485 -0.095825374 0.13077827 -0.002659455 -0.042810947 0.109667 0.028870821 0.09252262 0.0756502 0.16437626 0.15052906 0.031062305 0.20606521 0.20102412 0.26103577 0.22291878 0.18025772 0.105182976 0.51315224 -0.15838076 -0.18565235 0.44608968 0.66525424 0.63905394 0.7751497 -0.21338433 0.39979237 0.6877694 0.7988082 -0.04030823 -0.013606982 0.40203583 0.10947141 0.48154768 0.42798376 0.26654392 0.18589658 0.51538 0.16020273 0.5584041 0.5442256 0.015814684 0.5508069 0.15622067 0.3380704 0.5099281 0.4644403 0.1362043 -0.048259802 0.3726868 0.42258328 0.2842443 0.067371145 0.068139434 0.36076236 0.24467967 0.22495015 0.18228239 0.42409825 0.3299518 0.4298814 0.13898638 0.42403412 0.5170536 0.23998733 0.53506076 0.5706186 0.58796793 0.57950175 -0.018836979 0.5743062 0.58168674 0.59046185 0.57333946 0.2981884 -0.16371992 0.7557908 0.6871673 0.37241006 0.48582518 0.41538817 0.16722481 0.3763309 0.8709337 0.6195804 0.6797215 0.76159596 0.8431032 0.8872173 0.67237115 0.7376131 0.7824539 0.1616134 0.27347225 0.37807566 0.19714364 0.23922512 0.6235885 0.6344485 0.5809244 0.45786726 0.34594497 0.1160105 -0.08390124 0.057468064 0.64864326 0.6620161 0.0006881077 -0.18131131 -0.22403884 0.027750123 0.16177003 0.21202207 0.2505068 0.34550822 0.430461 0.4924021 0.52648556 0.5768266 0.6423725 0.6427734 -0.038907416 -0.06808697 0.13034679 0.47563905 0.54135793 0.6224034 0.7028112 0.5371864 0.49564645 0.549284 0.66070145 0.74827266 0.6849077 0.6747025 0.4309258 0.3901347 0.6591962 0.7359313 0.6107346 0.625591 0.4490815 0.5997299 0.67764914 0.4058355 0.41235328 0.30150747 0.068473384 -0.118425965 -0.30435434 0.14645538 0.3140983 0.32670492 0.37303403 0.43497872 -0.12644765 -0.19811286 -0.34231845 0.2096878 0.23203953 0.12972653 0.15367526 0.108205274 0.21572839 0.22016408 0.24888435 0.24140625 0.14748745 -0.013009179 -0.06942191 0.21425632 0.22674517 0.24103814 0.26037228 0.26373342 -0.20590398 0.21613833 0.22114801 0.22283503 0.17552137 0.1075508 0.10727951 -0.062152326 0.17927265 -0.008864399 0.16698958 0.19166458 0.0058235675 0.09860247 0.061146308 0.21742234 0.21967642 0.22724935 0.19246109 0.27496156 0.21179643 0.19511892 -0.0817454 0.26538244 -0.16793983 -0.16857496 0.016353756 -0.06593671 -0.11621812 0.32231033 0.44642505 0.3926957 0.024951555 -0.07060617 0.53101933 0.50834596 -0.30535892 -0.26758212 -0.2743926 -0.034587786 0.0164835 -0.04063598 0.54207134 -0.38019204 0.0067130364 0.551514 0.5456787 -0.03800443 0.11833494 0.13809027 0.11578217 0.51246715 0.4848476 0.175978 0.29667592 0.1987263 0.24085207 0.18634763 0.14465603 0.31901023 0.07592496 0.36693418 0.44079491 0.3152063 0.5220888 0.56482685 0.3408522 -0.112231836 0.48048323 0.4814796 0.5717156 0.5762518 0.5241734 0.100845136 -0.068968475 -0.2518453 0.5887352 0.5920314 0.09215335 0.2725234 0.7159854 0.45004946 0.6054292 0.7455586 0.7967533 0.65165806 0.6356357 0.6479192 0.6798396 0.7704506 0.72619355 0.76321036 0.68092334 0.4869923 0.34679514 0.38908973 0.4118121 0.70940673 0.6322991 0.40458477 0.29803625 0.20056303 0.3032608 0.37505955 0.3940346 0.4157176 0.61608064 0.50003564 0.30702156 0.18395741 0.16441266 0.1751056 0.22381194 0.31427717 0.3610825 0.39987904 0.19336858 0.10713184 0.08629351 0.16194522 0.23105931 0.2943133 0.5008135 0.41386294 0.2926336 -0.05099579 0.018162386 0.13678105 0.2425521 0.21581559 0.56525815 0.4994718 0.52625024 -0.05291325 -0.04404739 -0.0031641498 0.18620771 0.10380843 0.56323516 -0.16908337 0.18536046 0.33259478 0.42519912 0.4900627 0.54216367 0.6182008 0.57762337 0.62249124 0.7377888 0.66390765 0.7235782 0.7173154 0.66990644 0.77364194 0.79283524 0.5973824 0.65846217 0.6979177 0.69184726 0.64850074 0.24844578 0.7635205 0.78407717 0.53958184 0.5686419 0.5577786 0.5821044 0.57388246 0.6583844 0.73222256 0.4126869 0.4204357 0.46768332 0.38846254 0.37675348 0.31227386 0.015175574 -0.1778771 -0.33823693 0.4844146 0.63495606 0.28428918 0.22421159 0.2845571 0.29477695 0.32156172 0.3706287 0.1903016 0.22003472 0.12407032 0.12845014 -0.038162738 0.07520534 0.27142078 0.28106374 0.20578828 -7.7322125e-05 0.2650757 0.28077367 0.19290277 0.20165192 0.27664313 0.16057462 0.17105955 0.23518896 0.25662723 0.06309693 0.2564833 0.09074889 0.053948753 0.03354913 0.24742979 0.12538603 0.08822653 0.19918177 0.23631114 0.26100492 0.2348811 0.21268484 0.08974038 0.31062707 0.26326263 0.14207733 -0.080828175 0.28871936 0.14773095 0.16626981 0.17412998 0.14774509 0.13342644 -0.08909646 0.15957749 0.17672643 -0.3062067 0.032024983 0.21219584 -0.012427032 -0.15415344 0.24750859 -0.07640511 0.033933282 0.47375745 0.44341883 0.10761929 0.22664136 0.4976656 -0.37086993 0.06144701 0.17002645 0.36206138 0.50062793 0.30810627 0.44857138 0.46333453 0.41491467 0.41843122 0.4587418 0.3181637 0.27182162 0.2003195 0.08688599 0.26959202 0.033235714 0.2858293 0.32008746 0.20044032 0.37380862 0.47241935 0.4513529 0.4245709 0.4568342 0.52107537 0.5150181 0.39729393 0.021751124 -0.27904275 0.50006044 0.4992482 0.22386393 0.08612973 0.09642743 0.60196745 0.34046113 0.36363673 0.5716778 0.61383736 0.689687 0.61750066 0.6035454 0.60204697 0.6306885 0.8874438 0.826957 0.69417274 0.5597726 0.42548078 0.3640717 0.8550112 0.8481766 0.52503633 0.35824057 0.31641215 0.22619921 0.38887703 0.4103071 0.42121136 0.44277668 0.49674752 0.7868806 0.7136917 0.18779962 0.42770517 0.46547163 0.5223598 0.6645154 0.4130687 0.48323485 0.5509551 0.44127202 0.15044984 0.22832194 0.38698936 0.16328114 0.43172425 0.1649784 0.3849563 -0.035844013 0.27460223 0.3814624 0.4360085 0.5224905 0.61340225 0.61320627 0.64816886 0.6128464 0.6974709 0.74155515 0.780717 0.564192 0.60738397 0.6600313 0.6015028 0.062443472 0.23323616 0.7957368 0.5433645 0.55382764 0.60081184 -0.31798136 0.7863866 0.5392866 0.5363307 -0.008533362 -0.24555337 -0.36279154 -0.42071098 0.7250825 0.7628528 0.4342252 0.4540184 0.47843376 0.3134026 0.29476318 0.228828 -0.13610412 -0.12603495 -0.25870085 0.6727497 0.26372257 0.24486768 0.1894949 0.33324328 -0.0333334 -0.17637761 0.2588166 0.26860464 0.2755702 0.24652816 0.09183985 0.2699812 0.29849565 0.29455858 0.21104515 0.053752482 0.2693926 0.29253596 0.2539368 0.16693673 0.27639997 0.18882175 0.17220616 0.08109598 0.28448004 0.15278786 0.13854012 0.1545288 0.2647959 0.19054878 0.22370741 0.33448756 0.3428043 0.39719144 0.36050653 0.27260512 0.106789336 0.076175205 0.14705297 0.4047667 0.39273196 0.2919001 0.08489931 0.07962952 0.022967748 0.20543781 -0.10025325 0.24143158 -0.087156594 -0.08778423 0.24259362 -0.12078436 0.20173123 0.26296243 0.0047266404 0.025572434 0.30491474 0.16641939 0.06519704 0.35757074 0.27193624 0.41375226 0.33201128 0.4205891 0.42683196 0.42067534 0.3667259 0.46804214 0.4731644 0.28126758 0.47042358 0.23976706 0.28960323 0.37499815 0.18699007 0.21156192 0.25124156 0.08965166 0.2658141 0.27240232 0.07207227 0.30673558 0.25275102 