# vtk DataFile Version 2.0
Really cool data
ASCII
DATASET POLYDATA
POINTS 13342 float
68.399445 38.95661 80.03557
68.26406 38.74067 80.61245
68.26209 38.860027 81.39675
68.45017 38.818367 82.47686
68.30386 39.33319 80.07739
68.11376 39.46374 80.69585
68.133354 39.35579 81.34587
68.38643 39.747967 82.022545
68.26292 40.132347 80.62091
68.262665 40.121838 81.32642
68.83245 38.043674 80.782364
69.010056 37.877693 81.60141
69.060394 37.9888 82.62758
69.208755 38.03336 83.04148
68.87338 38.54978 79.735634
68.47711 38.41493 80.46308
68.44131 38.341965 81.39931
68.566505 38.64335 82.52639
68.96124 38.774197 83.400635
69.13981 39.048817 83.698204
69.136055 39.603313 78.74751
68.63807 39.517506 79.61924
68.81559 39.483032 83.34212
69.137665 39.35722 83.78881
69.45014 40.34153 77.45463
69.204414 40.29358 78.83011
68.61354 40.619415 80.32196
68.48377 40.749805 81.391556
68.547485 39.90194 82.33517
69.03413 40.065388 83.37315
69.325714 41.05071 78.626205
69.18875 41.23344 79.65368
68.85286 41.036842 81.57499
69.097244 40.780144 82.5657
69.64484 37.390697 81.96235
69.84429 37.32113 82.32964
70.233284 38.112408 77.8531
69.943016 38.240204 78.8053
69.860054 37.854862 79.60492
69.61277 37.53559 81.654655
69.44147 37.61274 82.68513
69.73571 37.906353 83.36556
69.850044 38.199135 83.690994
70.234795 39.051384 75.71079
70.020355 38.934826 76.54538
70.00428 38.568905 77.50758
69.324974 38.36483 83.48679
69.738594 38.577282 83.83691
70.23918 39.902275 75.19108
70.079735 39.4855 75.54094
69.70172 39.678535 76.605675
69.54134 39.341335 83.94526
70.15247 40.236774 75.31136
69.93751 40.45466 75.65619
69.615845 40.514736 76.510086
69.56017 40.562756 83.48701
69.6362 40.087395 83.815704
70.0277 41.350018 75.94041
69.770035 41.172173 76.47947
69.91871 41.64351 77.99336
69.59017 41.577553 78.91515
69.41089 41.086006 82.44
69.73686 40.878197 83.155525
70.19767 41.932858 76.4827
70.13997 41.959637 77.09838
69.95242 41.952213 78.56886
69.965904 42.014866 80.20805
70.86909 37.372795 79.69309
70.67146 37.370884 80.54361
70.70501 37.252728 81.625824
70.32758 37.23574 82.478905
70.69954 38.12232 77.06423
70.58183 38.007496 77.558105
70.76357 37.75095 78.319466
70.51299 37.57973 79.24855
70.30983 37.666664 83.310234
70.12085 38.239056 83.87467
70.61374 39.18197 75.23492
70.62818 38.814125 75.690956
70.658165 38.47224 76.36814
70.201324 38.7344 84.057755
70.7087 39.63018 74.96694
70.59963 39.46972 84.082634
70.72483 40.43107 74.86011
70.8672 40.391476 83.97065
70.96996 41.02963 74.825806
70.51012 41.40582 75.35543
70.80677 41.356804 83.17939
71.148125 41.850746 75.0262
70.59495 42.607746 77.90303
70.51329 42.200256 80.191246
70.99518 41.84851 81.57228
70.84483 41.766865 82.266205
71.25775 43.740242 77.21162
71.27717 43.46555 78.27311
71.1319 44.45665 77.059235
71.03304 44.553658 77.60888
71.29232 44.781326 78.38837
71.210526 45.211674 77.001884
71.27966 45.485367 77.64854
71.26362 45.25835 78.05302
71.29258 37.420162 79.60903
71.42145 37.31055 80.52485
70.898445 37.26623 82.63059
71.46418 38.38976 76.07306
71.27732 38.220257 76.39665
71.508026 37.719135 77.70576
71.69581 37.579956 78.47648
71.756775 37.49434 80.60913
71.15659 37.45364 82.77562
71.31586 38.05163 83.55777
71.38484 39.0952 75.10735
71.51658 38.630512 75.651
71.36231 38.549862 83.979675
71.502594 39.619778 74.751366
71.52368 39.344524 84.16475
71.8497 40.70582 74.31747
71.39226 40.41567 74.59246
71.38942 40.74638 83.97956
71.90599 41.237946 74.29815
71.63464 41.312103 74.48869
71.48573 41.30458 83.55436
72.02707 42.247746 74.667564
71.88861 42.679188 75.35225
71.76444 42.377567 79.99433
71.58856 42.104424 81.2654
71.61164 41.922634 82.220604
72.07137 42.052624 82.8178
71.74673 43.35492 75.67128
71.8442 42.756638 79.75701
71.553185 44.55801 76.11061
72.231926 45.620434 75.170784
71.85017 45.433968 75.7608
71.57065 45.66826 76.56192
71.58999 45.46015 78.2649
71.797905 44.9644 78.676926
72.31723 45.84087 75.26245
72.15641 46.021618 75.742615
71.83131 45.958168 76.592224
71.77633 45.941936 77.50323
71.71659 45.725075 78.01102
71.93343 37.410904 79.89543
72.37769 38.208588 76.93206
72.31632 37.94444 77.48695
72.5954 37.8212 78.38496
72.29569 37.704037 80.10855
72.740204 37.761036 81.56601
72.39234 37.741226 82.298325
72.30472 38.068325 83.34458
72.52966 39.24469 75.00527
72.47764 38.700558 75.80745
72.621254 39.847862 74.62293
73.17169 39.939445 90.9421
73.23997 39.708294 91.754364
73.11285 39.673878 92.58878
73.12803 39.823387 93.290054
73.323875 39.95814 93.89197
72.62005 40.660908 74.22027
72.40295 40.097595 84.19208
72.98087 40.77806 90.59149
72.907906 40.654152 91.71619
72.89605 40.436768 92.48361
72.96782 40.465275 93.29089
73.16092 40.49131 93.83683
72.505745 41.40149 74.14342
72.709404 41.43809 83.71539
73.15474 41.67856 89.77932
72.93406 41.56623 90.58409
72.94917 41.407906 91.411575
73.0008 41.22397 92.607994
73.07851 41.111 93.30461
73.3184 41.17761 93.86521
72.80129 42.12741 74.216934
72.52068 42.38244 82.29421
72.882614 42.147034 83.2893
73.08371 41.94801 90.02862
73.162994 42.16281 90.57118
73.02939 41.896603 90.973625
73.31673 41.84456 92.24064
73.34743 41.756985 93.09086
72.89638 43.33504 80.115166
72.494354 44.80637 74.955574
72.7991 44.498295 79.091774
72.665565 45.49951 74.940605
72.57476 45.559807 78.522995
72.53781 45.35055 78.70364
72.791306 46.059837 75.09854
72.762566 46.40481 75.62385
72.531044 46.440147 76.36245
72.49038 46.252472 77.34299
72.60858 45.839607 78.19597
72.87662 46.5612 75.878
72.91338 46.64172 76.032486
73.45717 38.22185 78.04337
73.53518 38.156055 78.59431
73.696754 37.73298 80.247116
73.95737 37.88639 82.1285
73.670876 39.268574 75.26231
73.74398 38.924797 75.93678
73.75434 38.591766 76.7919
73.85971 38.571728 83.34989
73.63972 38.86275 83.63856
73.95538 38.824642 90.71483
73.84674 38.661102 91.486275
73.72138 38.85853 92.37713
73.69233 38.99862 93.30119
74.166115 38.882103 93.850746
73.17599 39.901295 74.602684
74.26092 39.48717 89.80083
73.66079 39.40522 90.69969
73.70686 39.710506 94.22208
73.26835 41.010063 74.12193
74.26862 40.281506 84.501236
74.29081 40.677727 87.87452
73.66725 40.881 89.159645
73.90449 40.353096 89.43333
73.541245 40.537384 94.34199
73.41497 41.470795 74.11175
74.309814 41.30634 86.96235
74.15014 41.691704 87.58002
73.81434 41.5413 88.72894
73.45962 41.65358 93.62677
73.66991 41.535545 94.220085
74.082016 41.629116 95.132904
73.610115 42.561447 83.32002
74.11237 42.189175 84.09555
74.31305 42.107258 86.46829
73.91002 42.51437 88.15107
73.79071 42.46159 88.659424
73.53285 42.659992 89.72327
73.52543 42.581486 90.51148
73.555626 42.458626 91.37306
73.83605 42.115776 93.41357
73.8957 42.209286 94.312775
74.268196 42.251427 95.05691
73.59306 43.456512 81.097885
73.39628 42.89274 82.47191
74.204506 42.716454 83.51635
74.35717 43.16941 87.82963
73.963905 43.03983 88.60101
73.82343 43.204487 89.80548
73.62879 42.742607 90.54813
73.94762 42.873962 90.99288
74.31543 42.714436 94.43548
73.93005 44.662514 74.403465
73.53962 44.67194 74.512314
74.46306 44.323673 90.00568
73.49386 45.319714 74.63338
73.54791 45.019516 78.81062
73.35834 46.150726 75.08043
73.483696 46.41763 75.548325
73.52008 46.464516 76.49205
73.40116 46.285404 77.13117
73.11794 45.839333 78.13603
73.32009 46.569542 75.812225
73.32019 46.5628 76.28831
75.3532 30.847303 89.457085
75.22272 31.57293 88.95545
75.1179 31.55279 89.55801
75.15719 31.674246 90.129684
75.310974 32.34657 88.81754
75.099365 32.306427 89.48533
75.19728 32.269627 90.17081
75.38532 32.819065 88.99703
75.322716 32.940845 89.89963
75.3732 33.00598 90.031166
75.312584 35.367996 85.51149
75.33217 35.437862 86.21855
75.20267 37.217743 80.4673
75.349304 36.279823 85.630936
75.43158 36.50844 86.403755
74.631485 38.362656 77.02573
74.569405 37.766865 81.78612
74.884636 38.119194 82.923195
75.16303 37.734352 90.51216
74.6975 37.866333 91.30752
74.85828 37.953705 92.1195
74.29682 39.27976 75.282196
74.85641 38.74427 83.624985
74.53081 39.225883 83.99178
75.43221 38.705032 85.32928
74.69256 38.561253 89.85747
74.51034 38.30897 90.39686
74.49844 38.537838 93.379944
74.47186 38.93039 94.18014
75.331696 39.080826 99.86851
75.34029 38.952953 100.49304
75.39204 39.00019 100.93533
74.67634 39.85007 74.775475
74.94761 39.849323 84.57004
75.01539 40.11336 86.354095
74.766846 40.091953 87.56401
74.501854 40.24691 88.84254
74.781654 39.29043 89.3775
74.65582 39.405506 94.68006
75.44929 39.714104 99.04185
75.195595 39.487175 99.96997
75.22306 39.436417 100.56386
75.33028 39.393898 100.977394
74.61294 40.68838 74.365234
74.77173 40.30248 74.60284
74.61558 41.156788 85.75434
75.39223 40.415295 99.763306
75.32014 40.21744 100.59864
75.412346 40.324306 101.02019
73.947205 41.675587 74.17729
74.50497 41.87341 85.700645
74.41239 41.26108 95.406166
74.723976 41.57832 95.7186
74.2228 42.182247 74.33942
74.55486 42.770897 74.59406
74.63866 42.41377 84.857475
74.46682 42.21599 86.0658
74.483475 42.6151 86.1558
74.722374 42.411785 95.42408
74.7099 41.95813 95.67515
74.55831 43.718464 74.38649
74.44438 43.415768 82.45078
74.311714 43.059444 83.6156
74.83283 43.077415 84.038605
74.46496 43.487606 91.057724
74.69018 42.990772 92.37997
74.411545 42.796066 93.466774
74.61957 42.95373 94.26325
74.63646 42.73779 94.968254
74.532265 44.394775 74.36329
74.76804 44.783417 74.48922
74.7359 44.61767 78.3934
74.3435 43.970932 80.03324
74.477295 43.603176 81.572395
74.85087 43.669514 82.38703
74.81908 43.629116 83.040985
74.90636 43.90358 87.76951
74.66064 44.54757 88.90888
74.57954 44.852337 89.94308
74.571205 44.664085 90.126175
75.26183 44.003086 91.452705
74.41057 44.90858 74.40897
74.468666 45.215652 74.64475
74.5547 44.929802 78.266426
75.247604 44.877926 88.12692
74.97239 45.291958 88.99078
74.8503 45.35633 89.60654
74.86503 45.14566 90.43023
75.11722 45.357063 90.83384
74.05325 45.92878 75.06177
74.20034 46.181858 75.63558
74.14885 46.285496 76.407196
74.701515 45.76625 77.12848
73.93337 45.68208 77.941055
75.14742 45.84938 89.065895
75.30011 46.04094 89.16324
75.12934 45.793766 90.324844
76.111465 27.86799 93.940254
[...]
POINT_DATA 13342
SCALARS features_00 float 1
LOOKUP_TABLE default
0.557231 0.5959123 0.6449411 0.69826263 0.5478426 0.58671 0.63148874 0.6705731 0.5556871 0.6157243 0.5925879 0.6492517 0.67098784 0.66678333 0.5365404 0.5796559 0.64901114 0.6941539 0.6826032 0.6839372 0.44051132 0.50801253 0.7077026 0.6903062 0.40633103 0.37405336 0.4985193 0.59594 0.68565774 0.6981995 0.3175887 0.4011659 0.5778018 0.63438296 0.6272847 0.634078 0.3991792 0.39102215 0.42578167 0.6110952 0.659698 0.65303695 0.6526299 0.60340214 0.5586845 0.4454655 0.6675259 0.6592164 0.6121789 0.6220505 0.5944942 0.6729371 0.60104287 0.5928366 0.53532875 0.6345657 0.670674 0.5169505 0.47001672 0.23732157 0.30871737 0.55839705 0.5747398 0.36046332 0.24776736 0.22636117 0.32643682 0.3122919 0.3706159 0.46796963 0.6052797 0.45070788 0.41204667 0.35491726 0.3376695 0.63371164 0.6455486 0.6058396 0.5800307 0.52127075 0.6473767 0.60300565 0.6543809 0.5693919 0.60241187 0.51876557 0.50980484 0.40400186 0.4352445 0.117865115 0.17115036 0.13366133 0.24664128 0.4020108 0.3389018 0.555628 0.57857066 0.6186605 0.6768611 0.6989033 0.6734769 0.28549835 0.28746456 0.56165206 0.48261875 0.46954978 0.34987515 0.29059103 0.25733414 0.5493571 0.5844688 0.567993 0.5163616 0.60759777 0.5638645 0.61563796 0.5041808 0.5388998 0.49860573 0.4798517 0.47856852 0.34811908 0.42371327 0.3678485 0.018746443 0.049412042 0.1370671 0.16102844 0.3702028 0.034467705 0.5792054 0.72645307 0.7027502 0.73642486 0.6749057 0.59657216 0.73884946 0.74016047 0.75448775 0.7396774 0.6995213 0.2292194 0.30343723 0.27895752 0.21107124 0.19702385 0.16936874 0.2897722 0.38322198 0.44121975 0.38618052 0.45281732 0.4695674 0.5126207 0.56213236 0.5762085 0.5803824 0.46157926 0.4695003 0.4724794 0.48759726 0.51616055 0.52833694 0.5370564 0.4575589 0.20702639 0.38210958 0.3778394 0.40408483 0.44939387 0.480263 0.49019545 0.41454554 0.09503731 0.14768103 0.3450426 0.3168478 0.34380102 0.36576667 0.41505352 0.0101463795 0.63121927 0.40780964 0.72825813 0.60514957 0.5771549 0.74471277 0.74847984 0.74099994 0.74108994 0.64884853 0.7457294 0.7407722 0.13380231 0.117369436 0.038364083 0.014267519 0.315806 0.23443544 0.12776153 -0.008904219 0.02667956 0.32729447 0.4031539 0.50570863 0.55803335 0.46272922 0.39067984 0.23898251 0.3694414 0.5798808 0.3927152 -0.11103813 0.1337651 0.34574473 0.28737915 0.5414659 0.35902214 0.20044014 0.22688513 0.3249042 0.45410794 0.4813436 0.47795945 0.1509039 0.07414496 0.23269275 0.25095648 0.2978168 0.27806437 0.2703607 0.2727084 0.40628052 0.47362864 0.47996685 0.17820577 0.14997359 0.20552163 0.20910752 0.2459079 0.21504262 0.2508299 0.2103462 0.45973682 0.54024875 0.57221156 0.25758937 0.6962545 0.41223115 0.7446247 0.7391343 0.701426 0.68621314 0.61459196 0.7380115 0.71951485 0.5912417 0.57927334 0.6046754 0.56890494 0.54275924 0.5755384 0.5534618 0.51563203 0.52193594 0.50951236 0.42929026 0.39525738 -0.07315771 0.32772714 0.27114153 -0.039673835 -0.10976297 -0.14251329 0.24892989 0.30947867 0.30020773 0.23026356 -0.17985184 -0.16474329 -0.27377242 0.21747456 0.27124017 0.37153405 0.39522594 0.7153251 0.7745755 0.81375307 0.221855 -0.21182258 -0.038049787 0.017238721 0.13927488 0.15951331 0.39262098 0.63019496 0.7355034 0.7908342 0.82774436 0.26186177 0.23818123 0.14093737 0.70956975 0.79793835 0.841933 0.2700981 0.18461657 0.4642198 0.42066395 0.2116149 0.2066302 0.07420164 0.21249051 0.21231976 0.45533 0.43677813 0.35483015 0.30952495 0.24711484 0.273764 0.15368354 0.21541989 0.36993453 0.4216562 0.4614852 0.46733886 0.51572007 0.20124842 0.14761803 0.30464178 0.34733814 0.35226446 0.2145331 0.29673797 0.32110167 0.29809895 0.14805931 0.55036575 0.5908891 0.30221707 0.27994567 0.339831 0.36479348 0.34017542 0.3428063 0.72242385 0.7350385 0.6938721 0.5595832 0.53446627 0.37648082 0.39719194 0.3986113 0.5511178 0.5882177 0.6019692 0.5371702 0.54267216 0.4406267 0.5332248 0.5693192 0.5889899 0.5581289 0.5083603 0.53919953 0.54526377 0.42585272 0.25529808 0.21257629 0.45675963 0.48775682 0.41951507 0.28328732 0.5598991 0.48308188 0.54307526 0.56455594 0.47894937 0.34229884 0.2876858 0.42030454 0.5422675 0.500062 0.38864788 0.6206143 0.6408477 0.4371943 0.50840724 0.42374396 0.60041803 0.61777747 0.6181202 0.33506328 0.27147168 0.3755479 0.38238144 0.47524637 0.37228808 0.5097097 0.5598763 0.4310597 0.44116828 0.30591196 0.062036633 0.31178534 0.3898016 0.2966735 0.393251 0.2580775 -0.032238755 -0.05710104 0.11704259 -0.02941275 0.09558519 0.23510456 0.29845625 0.18991652 0.15146306 0.1081762 0.32199994 0.049632944 -0.08562953 -0.2916701 -0.2641964 0.12397392 0.17456943 0.1347189 0.111653626 0.21731183 0.20404169 0.18718445 0.6962245 0.7695725 0.8000239 0.19323626 -0.18581918 0.26398513 0.20941454 0.41487765 0.57487667 0.67051435 0.76744473 0.8390072 0.8887826 0.20655915 -0.12456327 0.20910351 0.044175804 0.42757583 0.5882342 0.86847746 0.92182666 0.16606838 0.34457192 0.58222455 0.6689802 0.7941853 0.8814144 0.9266453 0.16923797 0.15452796 0.27918947 0.4030498 0.49271125 0.74389386 0.8269175 0.19636433 0.3660095 0.48810256 0.56852365 0.3901041 0.32899815 0.23309037 0.3282999 0.13973795 0.14036816 0.30012825 0.36540154 0.4650693 0.04729525 0.024030246 0.16993906 0.35203344 0.35011894 0.32756507 0.13502982 0.108801775 0.12480654 0.54375535 0.60165596 0.34381497 0.21749665 0.26400945 0.31550536 0.3041408 0.23186152 0.69410515 0.3934284 0.37319815 0.4232196 0.429502 0.36994588 0.51570904 0.5325503 0.4577957 0.55007863 0.53437406 0.5782285 0.3987332 0.5006692 0.5501455 0.55824924 0.50116944 0.5049033 0.63936436 0.66752 0.64965296 0.5159893 0.5379627 0.49030894 0.3768075 0.3509325 0.5839776 0.6595643 0.6352351 0.449735 0.51464677 0.3658723 0.31681368 0.24093139 0.2529648 0.4819844 0.5745855 0.5708796 0.4185987 0.071346864 0.2499432 0.2168355 0.18244633 0.06472488 0.39243942 0.49431825 0.6507981 0.65813684 0.12331871 -0.038328506 -0.034788005 -0.037333965 0.05358822 0.61501634 0.64691913 0.64207804 0.074624434 0.11569733 0.26961026 0.26600915 -0.095644206 0.037822105 0.33573478 0.49011025 0.60973847 0.57179284 0.22819623 0.18265522 0.11790422 0.19639951 -0.028170664 0.17959656 0.21838038 0.25266716 0.391352 0.3501646 0.21740529 -0.033505052 0.24174672 -0.104058325 -0.09677383 0.26583582 0.28679538 0.4599366 0.38894463 0.25095183 -0.08297026 -0.042405054 0.024573922 0.43764934 0.45124888 0.028903052 0.028336724 0.51676494 0.61767495 0.7405504 0.8410702 0.3772418 0.14763203 0.15775082 0.29281187 0.86349815 0.9194095 0.23731308 0.017666072 0.96189046 0.90540105 0.12257371 0.6104358 0.7268313 0.79185927 0.85150945 0.12583831 0.13947317 -0.08666912 0.3309433 0.45540366 0.5747542 0.62891275 0.0133949565 0.017930679 0.11426904 0.27680287 0.29641172 -0.042283237 0.102973826 0.091856904 0.16977541 0.239258 0.47233588 0.43702984 0.15603101 0.31038687 0.32493 0.08597031 -0.024627447 0.48364606 0.4981025 0.21580522 0.3399764 0.4156868 0.33254406 0.31415236 0.50799507 0.4934983 0.4029212 0.6014421 0.5931038 0.5843439 0.48955044 0.58498454 0.54687524 0.42197055 0.4680252 0.54504657 0.51977 0.3963558 0.3342634 0.41608125 0.48881716 0.35561845 0.29897648 0.29309595 0.34413013 0.22924873 0.30193093 0.45120513 0.3600194 0.29454225 0.3763199 0.4463572 0.5755138 0.5175111 0.043720845 0.5683234 0.4768343 0.47460246 0.5619993 0.5181492 0.3638947 0.53208363 0.43562493 0.09725586 0.23607968 0.42315775 0.6119628 0.6577443 0.0056159347 0.114549726 -0.13122196 -0.16940421 -0.031252563 0.4096982 0.5869068 0.6551735 0.08392623 0.04801739 0.0020124167 -0.029972613 0.029994272 0.02858235 0.33449733 0.36164263 0.4947276 0.0646379 0.13843067 0.21256945 0.17883721 0.15748441 0.16647951 0.19070883 0.22292298 0.41744512 0.3721712 -0.018488765 0.23028 0.30081987 0.19806862 0.5012365 0.47771287 0.21945815 -0.09366673 0.2549649 0.21561877 0.45390338 -0.2715154 0.2035042 0.50093645 0.79714715 0.86293525 0.38165396 0.3305211 0.92505676 0.9525455 0.86217654 0.07090907 -0.50976276 0.57635784 0.7116359 0.7762225 -0.056341395 -0.08357303 0.35186613 0.41732544 0.46849903 0.6030045 0.12962061 0.22724512 0.17212103 -0.16707066 0.015181899 0.15283796 0.26963368 0.30202132 0.37140477 0.58031964 -0.07378232 -0.13352413 -0.003646724 0.3670243 0.20753886 0.50072646 0.5433242 0.33479288 0.5593937 0.6188313 0.6424804 0.6099756 0.55642045 0.6443163 0.6217754 0.517972 0.56472313 0.5543924 0.46440488 0.5470126 0.5797734 0.43313557 0.30481702 0.27358282 0.4355464 0.50944823 0.28620785 0.23116358 0.32345486 0.20433635 0.21888444 0.22287363 0.26842415 0.12788089 0.0013935864 0.10107446 0.25300124 0.43931717 0.1307312 0.11777868 0.4260656 0.47290447 0.3345309 0.27485013 0.12874936 0.26118335 -0.15172176 0.20989752 0.31962144 0.32603383 -0.08487539 0.2397447 0.038064487 -0.04970383 -0.19004305 -0.019090662 0.0042606182 0.2015931 0.2820388 0.33846143 0.5662946 -0.06407445 -0.009716302 -0.10945573 -0.17687261 -0.21040818 -0.12525874 0.095319755 0.1652755 0.4608143 0.21092089 0.05342424 -0.15853412 0.24232933 0.3517917 0.41091067 0.15247959 0.061896548 0.33323905 0.3988373 0.4372475 0.44052443 0.3762045 -0.004823044 0.070720516 0.44658503 0.49770626 0.45760173 0.041602105 0.47021207 0.46947604 0.48503742 -0.027894616 0.38748577 0.8286179 0.9083692 0.8202843 0.17777869 0.67020905 0.76434016 0.11194939 0.06909675 -0.36052823 -0.21965271 0.5284372 0.63201517 -0.06959432 -0.32668132 0.31712276 0.3791236 0.44288266 0.48067665 0.33880872 0.43398786 0.23626164 0.30093762 0.456509 -0.12072885 0.49886405 0.5873468 0.61141455 0.6230278 -0.0143844485 0.336051 0.487666 0.56849015 0.61649364 0.54342926 0.6347686 0.6373426 0.6086991 0.5705692 0.39739764 0.39030206 0.3318991 0.30802703 0.3587001 0.3966932 0.4144926 0.40009612 0.3947875 0.37321836 0.47984493 0.46658295 0.44946495 0.4072756 0.3164984 0.34711623 0.408508 0.4395916 0.49492693 0.47337502 0.45130727 0.486783 0.4977988 0.51532036 0.36202577 0.29468396 0.26763284 0.41279212 0.41428113 0.31060874 0.3204225 0.4136311 0.49256998 0.4964434 0.46893135 0.46374968 0.4712688 0.2681925 0.22805351 0.35522544 0.40088826 0.37567732 0.30229402 0.16949284 0.2135701 0.34493718 0.44582587 0.48667544 0.47130108 0.34770322 0.17819951 0.3021413 0.31128612 0.23827705 0.09764512 0.23938896 0.33181742 0.28795367 0.120610476 0.20499416 0.17762895 0.08375691 0.019290313 -0.105365686 -0.064221025 0.21421643 0.17695631 0.1195969 0.17100212 0.12436783 0.15896453 0.17955618 0.23135972 0.26174194 0.3090474 0.35932565 0.007104121 0.054590248 0.1925846 0.2326191 0.30814457 0.3358919 0.351821 0.39867395 0.3973954 0.3683035 -0.021972213 0.34147036 0.35104972 0.3658778 0.402309 0.41686708 0.38710344 -0.13981085 0.28664023 0.34356022 0.35775125 0.40648812 0.42524427 0.44062257 0.42592937 0.39630195 0.27375275 0.09723295 -0.229801 -0.1442678 0.32850772 0.38742787 0.12254399 -0.07481533 -0.2500109 -0.16206212 0.31035975 0.35121977 0.060507186 -0.2813476 0.3955574 0.006815888 0.42421788 0.08871486 -0.122651644 -0.091879256 -0.071409896 0.15846215 0.32069436 0.4264979 0.36148745 0.26211447 -0.003162399 0.39328843 0.44675407 0.39904082 0.48352623 0.42746407 0.3702312 0.5764175 0.17535372 0.124826804 0.46910203 0.49071312 0.10027599 0.41143832 0.47617128 0.50085706 0.2064468 -0.18488574 -0.07371315 -0.033378035 0.30002183 0.34516633 0.41681194 0.33359194 0.38371944 0.037076414 -0.011381358 -0.11207036 0.009003401 0.25701246 0.27536368 0.44314107 0.48687083 0.6077812 -0.076400355 0.043528207 0.51046634 0.5689398 0.5960568 0.6206614 0.61986774 -0.04252735 0.3246812 0.6110407 0.6165253 0.41890782 0.47768834 0.43504542 0.48033231 0.5556933 0.5852723 0.4759913 0.61500543 0.6055895 0.57708234 0.5463092 0.44571337 0.46619302 0.422247 0.4179607 0.43895292 0.44755724 0.4224987 0.40894628 0.40233666 0.3860793 0.405247 0.39405954 0.3783586 0.387856 0.35433733 0.7369373 0.69146997 0.61092424 0.6867142 0.62124974 0.5680738 0.6018244 0.57140326 0.50304943 0.46703994 0.44895646 0.30679876 0.36388683 0.3472345 0.24636556 0.12784427 0.16530761 0.31949127 0.2992187 0.34414828 0.38009697 0.37595594 0.26499236 0.23792906 0.21692018 0.37802976 0.39253858 0.25010675 0.29373986 0.30267075 0.34822357 0.37039042 0.41974688 0.43039638 0.40526694 0.3284546 0.3250125 0.27357328 0.33144933 0.35346407 0.31619912 0.25996244 0.4043225 0.40363514 0.38170797 0.24557377 0.3429649 0.13034177 0.056560367 0.41545957 0.37175548 0.37744877 0.05521725 0.051333748 0.4056134 0.28293437 0.047311276 0.038235277 0.051781133 -0.0655272 -0.052410096 0.10030884 0.4145326 0.24857733 0.25628495 0.14673534 -0.109918356 -0.1423504 -0.110697135 0.15421431 0.26851913 0.20011587 -0.2757668 0.14381734 0.111817926 0.1812165 0.29354173 0.36193174 0.43504652 -0.016601719 0.40163046 0.47178328 0.51737803 0.12510622 -0.0051422864 0.008063943 -0.045898497 0.4550053 0.51483583 0.5464822 0.42485154 0.4047799 0.35697412 0.2579814 0.13062438 -0.11141015 -0.08770333 -0.012362562 0.46197486 0.51544595 0.4595114 0.41939083 -0.09633942 -0.15382677 -0.13140407 0.43111038 0.46294463 0.49124515 0.060320176 -0.06648476 -0.24069795 0.18868351 0.3452072 0.39948305 0.44530928 0.46116102 0.11088977 -0.37972683 0.24799833 -0.030277759 0.25298485 -0.25227407 0.31371564 -0.21813378 -0.22044593 0.30988792 0.80279297 0.746624 0.66920197 0.24420798 0.13653673 -0.056948055 0.28827223 0.3519622 0.28232917 0.77422273 0.7558098 0.38710248 0.5652622 0.5109695 0.480134 0.17023653 0.24250293 0.33538902 0.034412913 0.3753764 0.42729825 0.051638428 0.22118995 0.30574054 0.3930694 0.22610477 0.120755814 0.22656491 0.26832676 0.38429093 -0.0168515 -0.09283084 -0.12438995 0.050752558 0.4356349 0.46771598 0.5726171 -0.05849118 -0.049638763 0.13157055 0.50246096 0.5609033 0.5805938 0.59127563 0.58419836 0.08546967 0.3517864 0.6056084 0.099938594 0.054297037 0.45780054 0.49581957 0.4878829 0.5343008 0.44281653 0.32912874 0.13079278 0.47783142 0.49676412 0.5490554 0.5240598 0.55526274 0.4719569 0.51056564 0.5508995 0.5562979 0.42573097 0.45402253 0.49944648 0.53672266 0.5744698 0.400414 0.41969693 0.46638882 0.53991234 0.5425202 0.40253764 0.420444 0.4152922 0.46242112 0.3927126 0.41885978 0.36092904 0.380727 0.38707775 0.3991777 0.38645625 0.36873466 0.33432877 0.34977978 0.34136808 0.5280719 0.50928646 0.45333487 0.67996645 0.33713353 0.31081736 0.32710865 0.31844038 0.30627275 0.51722926 0.5091958 0.4549803 0.2631046 0.33149204 0.38450527 0.76662457 0.72486275 0.6817359 0.6128768 0.28106 0.29967618 0.29163304 0.47728372 0.49394426 0.43861216 0.29894078 0.19132604 0.28069592 0.74851835 0.762419 0.5777455 0.47880608 0.19726595 0.2249985 0.14232369 0.24191558 0.6975852 0.7070565 0.48679137 0.44276887 0.31735742 0.11758837 0.13421421 0.19150853 0.62538505 0.546987 0.40259945 0.33522117 -0.043801203 0.051721767 0.16002071 0.28282622 0.3333045 0.4761566 0.44004527 0.45534346 0.4470436 0.33710453 0.0958524 0.23368418 0.2891529 0.19581178 0.08057712 0.42103386 0.39337066 0.42004836 0.4101647 0.31644666 0.15210356 0.28295708 0.42266214 0.09869957 0.39859182 0.31927502 0.36052248 0.36472952 0.32166648 0.22465014 0.054256674 0.22013444 0.3425305 0.49346054 0.47206384 0.45675 0.43312097 0.28053936 0.26330277 0.5342964 0.5002318 0.46235108 0.44788966 0.4264309 0.15319648 0.5194409 0.45844442 0.42540687 0.41343436 0.4013406 0.18999124 -0.08785233 0.16253394 0.40780163 0.38472638 0.33922684 0.36247498 0.36447626 0.35888308 -0.100421526 0.22266768 0.26201725 0.2739381 0.33149698 0.3037747 0.13860178 0.410162 0.07937783 0.19818605 0.21099475 -0.019681022 0.48272777 0.52964485 0.35351598 0.21538626 0.07662843 0.08583936 -0.04737007 -0.0030424893 0.56640804 0.42106843 0.541332 0.55366945 0.46597672 0.4960187 0.49791256 0.37337327 0.36716837 0.40680102 0.4345408 0.19469787 0.18763745 0.20506653 0.33378476 -0.16627094 -0.058164887 0.5614997 0.4121108 0.30569494 -0.20324577 -0.2775235 0.16020526 -0.012212589 0.79799885 0.7663724 0.64571774 0.53302795 0.2915045 0.03001666 0.83182216 0.8103478 0.27032954 0.17793328 0.8308765 0.80055857 -0.14272305 0.29226157 0.31794026 0.7749598 0.7270349 0.43152618 0.44532287 0.45185304 0.41561854 0.5964791 0.5081346 0.2343273 -0.054548755 0.4440809 -0.042858433 0.0094756875 0.030265354 0.0847032 0.059602458 0.13639405 0.15274523 0.124648154 0.22780445 0.06513151 0.12594451 0.34489828 0.24672857 -0.03608641 -0.05955386 0.06654263 0.46084553 0.44361663 0.3789618 0.411035 0.2021709 -0.008140236 0.2882909 0.21293789 0.50509584 0.5275806 0.5295782 0.5115485 0.5125273 0.22704394 0.3954531 0.2705949 0.27520785 0.18485415 0.4544058 0.28155917 0.25850484 0.11860311 -0.11724882 0.48065582 0.47305292 0.034252815 0.14749812 0.32852405 0.4610313 0.4824332 0.45194185 0.3597226 0.4043224 0.460168 0.50541496 0.48136413 0.47214425 0.3603212 0.37324756 0.4343813 0.49837366 0.48901477 0.48479524 0.5017862 0.29765886 0.3457187 0.36075544 0.38483828 0.44130373 0.5016129 0.27482268 0.27546287 0.27995756 0.3967004 0.54587734 0.5289914 0.21473381 0.2492362 0.22847906 0.2392574 0.5513732 0.5488711 0.59454095 0.60094965 0.60941374 0.20162615 0.19889176 0.16535124 0.57715255 0.5935354 0.65248716 0.6588339 0.6701418 0.64603484 0.58370876 0.6746772 0.68786657 0.6872045 0.66817534 0.1233324 0.47572464 0.4265537 0.6481035 0.63112783 0.27474102 0.38801444 0.4878968 0.46712863 0.41036284 0.44056386 0.2814163 0.330713 0.35553765 0.5033546 0.5250865 0.5076339 0.39777005 0.3089238 0.31508455 0.4303295 0.48494554 0.61643577 0.600438 0.48048878 0.2562378 0.28490394 0.4714613 0.50061965 0.34289536 0.4284246 0.4803589 0.47865626 0.7176399 0.72565556 0.5218999 0.24235387 0.25406843 0.26015103 0.2375854 0.41155493 0.46670586 0.4679188 0.64227176 0.70040417 0.31368652 0.22011997 0.17392743 0.117528215 0.2702542 0.23763305 0.42722508 0.5918906 0.6561029 0.2673871 -0.033380963 0.13799778 0.48089164 0.24738774 0.12527414 -0.060107715 -0.06605723 0.12207256 0.01900362 -0.033987112 0.33636498 0.26347366 0.16545056 -0.17232382 -0.08234756 0.029535942 0.3617326 0.276056 0.33104658 0.39711714 0.29648352 0.17159341 -0.10585779 -0.18498844 -0.09020454 0.3566518 0.42571378 0.29870847 0.33949727 0.2746806 0.013720706 0.3759204 0.34255785 0.4685076 0.44754535 0.42345408 0.49423325 0.4606412 0.4109754 0.578298 0.5002834 0.46979046 0.44393748 0.40914756 0.3643219 0.4814064 0.43386003 0.32860363 0.091211624 0.19071004 0.18235423 0.63995016 0.59078586 0.5120647 0.39608797 0.34252244 0.40405887 0.37096727 -0.04323882 -0.068109766 -0.08847621 0.0737516 0.15121381 0.6090107 0.5700744 0.34966564 0.300427 0.14985068 0.17628255 0.5422601 0.49015638 0.2319383 0.36436272 0.20969784 0.059333146 0.41137373 0.29773074 0.20889837 0.04594688 -0.13056028 -0.19119878 0.5280983 -0.09865211 0.54848003 0.36596665 0.51572824 0.23363599 0.39283234 0.21963552 -0.34082544 0.5308219 0.59061396 0.60950756 0.28167772 -0.063894 -0.3581779 0.4519074 0.53610295 0.6382711 0.63763934 0.65698457 0.5447389 0.34601268 0.25043985 0.17714468 -0.22088145 -0.05766034 0.3671677 0.46167594 0.5814066 0.6053543 0.79880846 0.751436 0.1100249 0.094084084 0.31872264 0.45751074 0.49865454 0.830261 0.8337753 0.13656174 0.25210008 0.21616639 0.7346498 0.66924727 -0.13288103 -0.15584545 0.3829646 0.41032857 0.37383506 0.47660017 0.33268297 -0.06384348 0.4494151 0.48367244 0.47434777 0.44387683 0.43172854 -0.0034996644 0.012213939 -0.005479429 -0.16813463 -0.087834485 0.15519238 -0.10769628 0.36672467 0.3760535 0.2635396 -0.046499677 -0.10626194 0.123081304 0.4639513 0.4637068 0.41743758 0.37860805 0.21722655 0.26469883 0.45523006 0.38902384 0.34587267 0.3496064 0.39085174 0.34622884 0.4229036 0.34702432 0.3277272 0.4351412 0.44390386 0.1775757 -0.08117318 -0.01787968 0.24409005 0.40514427 0.42537934 0.33774483 0.40722558 0.44279504 0.45078647 0.46621406 0.31162763 0.35110223 0.4697944 0.46832538 0.46730974 0.26239747 0.4905492 0.27156115 0.48224458 0.32811508 0.44378826 0.42753804 0.43480688 0.36783263 0.188876 0.49489146 0.5030168 0.5460968 0.56757236 0.108657785 0.5235047 0.5556687 0.6010822 0.012942331 0.64918184 -0.07091755 -0.020009087 0.46353763 0.38635784 0.40936965 0.38104898 0.34458515 0.3070748 0.6384554 0.6205573 0.5455