# vtk DataFile Version 2.0
Really cool data
ASCII
DATASET POLYDATA
POINTS 5296 float
4.217598 3.70723 22.696785
4.2501726 3.673382 23.308487
4.3200083 4.442201 22.025917
4.0627084 4.3509684 22.708559
4.1514373 4.4672894 23.333447
4.3209248 4.5318427 23.8026
4.3443837 5.9583383 15.229143
4.401905 5.68892 21.694624
4.215453 5.453681 22.442638
4.1265736 6.0231237 23.097652
4.36472 6.573857 14.976334
4.3377056 6.4442525 15.524334
4.4170337 6.455682 15.94303
4.2459383 6.210561 23.293459
4.2640076 7.148747 24.563732
4.404142 6.945992 15.457535
4.1537185 7.1995044 21.185432
4.0539875 7.303487 21.661604
4.031168 7.475248 22.32052
3.9870436 7.9344735 23.743078
4.098696 7.525637 24.370768
4.398213 8.862737 18.746601
4.4239206 8.707299 19.3555
4.160636 8.162224 21.677351
4.044389 8.826448 23.732016
4.0206165 8.522004 24.382603
4.25449 8.758388 25.333443
4.3882327 9.387869 18.634031
4.4488754 9.549181 19.215649
4.2716007 9.530663 22.74252
4.198045 9.373798 23.529413
4.1929183 9.499348 24.285704
4.3360057 9.292303 25.198416
4.3376875 10.074448 22.892822
4.3568444 10.440068 23.472414
4.4069653 10.314795 24.203863
4.490658 14.773766 16.884813
4.917321 3.1275747 21.995195
4.641758 3.0501757 22.684893
4.615448 3.1180227 23.309273
4.9148293 3.176354 23.977665
4.676265 3.3810284 22.014511
4.4673247 3.3526773 22.38734
4.522323 3.392942 23.641531
4.731398 3.5824683 24.01979
5.189891 5.1602306 13.941589
5.018506 4.95422 14.774253
4.8388376 5.0050597 15.259165
5.1494327 5.124664 16.365753
5.0365987 4.702317 20.749235
4.495937 4.551249 21.538937
4.5796485 4.3843675 24.11002
5.3480005 5.962701 12.99065
4.9977965 5.7252545 13.817509
4.6750426 5.5651345 14.696059
4.5339794 5.581445 15.413312
4.5218034 6.0216384 16.08874
5.1681175 6.016418 20.188828
4.629506 5.092518 21.1747
4.463479 5.0534377 23.703468
4.8555326 5.7400846 24.284328
5.2004128 5.6030593 24.824863
5.268557 6.692126 13.001897
4.8854494 6.4259934 13.74313
4.5642443 6.4443827 14.402143
4.628905 6.3597302 16.337816
5.3149805 6.9875884 18.364063
5.174235 6.5289965 20.297863
5.2950535 7.2079535 12.977686
5.069721 7.298699 13.610131
4.745718 7.2539387 14.463982
4.483462 6.867123 15.845567
4.837672 7.748534 18.360098
4.665172 7.767727 19.649595
4.487354 7.4152155 25.21602
4.85068 7.680429 25.99732
5.3370595 8.063307 14.201071
4.866265 7.6599236 15.5519
5.225825 8.283969 17.022114
4.828809 8.531915 17.603626
4.516338 8.441588 18.539093
4.5806384 8.734321 20.386225
4.789635 8.678562 26.439186
5.144186 8.5332155 27.033123
4.759817 9.775602 17.721022
4.5011005 9.743464 18.616207
4.4952297 9.432352 19.309208
4.7060914 9.385177 20.197939
4.644935 9.461374 21.507671
4.535185 9.004635 25.55344
4.765202 9.377329 26.586016
5.076372 9.62452 27.233025
4.9884725 10.210651 17.829664
4.7397804 10.175237 18.61073
4.8124495 10.126429 19.81441
4.9653034 10.0527935 20.541307
4.8143735 10.310215 21.908226
4.7259965 10.643672 22.591549
4.496368 10.663482 23.417562
4.6497817 10.629306 24.317816
4.745627 10.318644 25.16679
5.0086107 10.398466 26.553862
5.128892 10.255111 27.151207
5.399511 11.121755 20.61647
4.969759 11.139556 22.719011
4.847474 11.109814 23.508158
4.8039026 11.027297 23.934847
4.9951973 10.743034 25.559608
5.2471557 10.847403 26.50201
4.997563 13.233094 16.585981
5.0320125 13.922248 15.837775
4.749044 13.7612 16.679598
4.640694 13.997472 17.16703
4.881425 14.597702 15.966727
4.5971336 14.50534 16.621792
4.6420393 14.523473 17.3045
5.0192084 14.711292 18.091047
5.0988264 15.371666 15.92722
4.767438 15.277242 16.584341
4.7773495 15.296115 17.403156
5.067898 15.306687 18.038345
5.2059827 15.799441 16.075575
5.1225 15.925989 16.666286
5.0789227 15.903027 17.257206
5.2714343 15.833766 17.967827
6.4335585 -1.4137096 14.652875
6.346776 -1.2749147 15.344414
6.3564453 -0.5990157 14.588434
6.2384243 -0.6300555 15.597636
6.3509116 -0.58967686 16.330372
6.334705 0.27328002 14.852659
6.209769 0.18293577 15.528812
6.4101567 0.5096215 15.927689
6.055971 2.42533 21.981098
5.674955 2.3428903 22.644587
5.6234345 2.4349775 23.075384
6.2349806 3.14007 19.865124
5.478006 2.982327 21.645742
5.4817 2.504725 22.58771
5.810929 2.4881997 23.597956
5.977161 2.7209024 24.043594
6.3727946 3.1403944 28.048111
6.338564 2.9109383 30.450047
6.4256682 3.0098424 31.01187
5.734856 4.164001 15.067709
6.162143 3.9001436 16.6344
6.0642877 3.699754 17.661514
5.9205766 3.781485 18.354305
6.052888 3.455766 19.850752
5.6125207 3.783308 20.696741
5.6178904 3.2917764 24.578716
5.862252 3.7227457 25.154184
6.283885 3.894938 25.965921
6.2834663 3.6093786 27.655104
5.976615 3.8736367 28.687878
6.1791143 3.548638 30.544203
6.3309636 3.5644372 31.301283
6.0202045 5.219494 12.959542
5.8972883 4.930773 13.544148
5.6164966 4.634461 14.359276
5.534107 4.459815 15.217094
5.830458 4.369747 18.538595
5.580285 4.7951765 19.988953
6.331585 4.356448 26.950287
5.9650106 4.3222885 28.445868
6.0308843 4.524734 29.185177
6.087932 4.2039332 30.374125
6.2767625 4.262652 31.213238
5.737763 5.5770946 12.803485
5.855709 5.7051725 17.088264
6.0853767 5.071602 18.620117
6.1779995 5.455685 28.753363
6.160457 5.2993174 29.554056
6.2897444 5.1434536 30.624483
6.2618604 6.897082 11.911011
5.646356 6.112032 12.445003
5.6262293 6.6670194 19.143053
5.457262 6.5970955 26.078188
6.3313184 6.0619245 29.39536
6.4418135 7.7045946 11.678304
6.3467345 7.074838 27.763422
6.4061604 8.7744 9.813943
5.9482064 8.14406 12.599794
6.092641 8.616293 13.837684
6.116307 8.638108 27.882921
6.4060526 9.345655 9.696388
6.367565 9.273811 10.380852
6.0914454 8.870986 13.923208
5.8021536 9.424347 27.988596
5.4203 9.884123 16.927622
5.475869 10.221885 17.306267
5.418953 10.435029 27.42943
5.9433036 10.19937 27.969524
6.288552 11.451392 14.82877
5.943473 11.710101 15.532848
5.7512774 11.919181 16.18243
5.8800187 12.073436 16.984865
5.5756087 11.087828 18.430769
5.7366233 11.455505 20.326122
5.3626766 11.503961 23.518589
5.53509 11.340358 24.765194
5.434157 10.9305935 26.557184
5.848406 10.924869 27.27976
5.9751525 12.610922 14.863634
5.4811554 12.560965 16.252365
6.184289 12.053143 20.432507
6.2263274 12.05739 21.293587
5.9657907 11.889351 22.293507
5.9023843 11.747259 23.442019
5.9018154 11.655261 24.252857
6.399678 13.029212 13.969071
5.8512206 13.431817 14.773043
5.448022 13.232904 15.717922
5.7353272 13.273557 18.163946
5.3927336 14.883782 15.328595
5.9181824 15.195264 15.14192
5.524087 15.563037 15.541034
5.474571 15.340487 18.458982
5.977373 15.100168 18.954618
5.686232 16.012663 15.8998
5.5552397 16.276325 16.524633
5.5634694 16.223997 17.361908
5.676624 15.78776 18.358465
7.188184 -2.8224075 14.770827
7.3664913 -2.9840508 15.377352
7.3262467 -3.263709 16.551895
7.3804064 -3.1195097 17.459116
7.1086273 -2.0736482 13.783141
6.8064156 -2.189983 14.766814
6.8465595 -2.4525158 15.523571
6.756914 -2.1615717 16.449574
7.0605216 -2.2956529 17.24218
7.4174027 -2.8506377 18.072224
7.1865892 -1.3217006 13.162911
6.835047 -1.3955724 13.659491
6.537317 -1.3743132 14.397037
6.523926 -1.7094907 16.529173
6.538915 -1.0391815 16.924152
7.0806904 -1.3129659 17.997345
7.2228947 -0.6578151 13.167615
6.8310237 -0.6851797 13.58472
6.7536716 -0.32773957 17.549925
7.1505136 -0.765375 18.07009
6.9467883 0.32256162 13.962818
6.5262966 0.25830317 14.402969
6.498377 0.27724287 16.72344
6.8067894 0.40295088 17.332336
7.1465597 0.94906414 14.401885
6.740376 1.1703469 15.625687
7.2998357 1.3624015 16.09224
7.0468364 1.9808575 17.746922
6.942727 2.150842 18.25168
6.508807 2.2106993 22.665295
6.622885 2.2827258 23.207434
7.030652 2.3620896 29.790216
6.974231 2.3103724 30.474913
7.05214 2.2897544 30.923534
6.4887867 3.2868488 17.317572
6.7101474 2.6849546 18.675905
6.5986 2.692476 19.719465
6.4378104 2.6320012 21.209023
7.0524464 2.7835884 26.282707
6.8971124 2.7784283 27.553694
6.5821314 2.8976798 28.308805
6.6133265 2.6046968 30.584206
6.7646213 2.8207269 31.3542
7.0206842 3.0742576 31.92794
6.5287495 3.882344 14.765677
6.838573 3.5067174 15.84791
6.6443133 3.952111 25.985878
6.5278025 3.4989777 31.607708
6.953827 3.6314824 32.14228
6.78967 5.2851205 12.289827
6.630883 5.194174 12.363395
6.6027575 4.6880007 13.36106
6.563435 4.4864826 31.587452
6.931346 4.226522 32.12641
7.2055373 6.03453 8.449443
7.300711 5.892555 9.4007225
7.200553 5.951371 11.094205
6.9094405 5.6099997 11.923639
6.597722 5.4093876 31.134176
7.219673 6.5916386 7.853614
7.09929 6.510509 8.290846
7.0017195 6.6599174 9.419034
6.9547462 7.0402265 10.471797
6.557995 6.150125 28.36706
6.5717864 5.9337945 30.463306
6.630689 5.965186 30.81967
6.9529915 7.5001836 8.683062
6.694823 8.089782 9.535363
6.547303 7.9885335 10.122521
6.5253916 7.8572416 11.644935
6.40376 7.937229 27.842445
7.366775 8.090873 7.9499974
6.7119107 8.961846 8.987588
6.5962133 8.210907 9.441333
6.95087 8.47562 29.050282
7.4103084 8.019897 30.047647
6.8771667 9.38424 8.897476
6.5183516 9.691721 9.603142
7.037638 9.1828575 29.24859
7.3668613 9.249241 30.253529
7.128204 10.688858 8.723988
6.6382575 10.067677 9.673585
6.7071924 10.248241 10.37885
7.185757 10.63915 12.056718
7.094857 11.024947 13.200462
6.6730175 10.823946 14.557265
7.187664 11.3974 8.62348
6.9521976 11.154358 9.423155
6.989859 11.358078 10.691087
6.995747 11.575106 12.453124
6.643127 11.375217 13.967206
6.2363977 11.479234 26.536947
6.1960344 11.119062 27.12212
7.253338 11.980368 8.755082
7.3131504 12.593157 9.492625
7.046234 11.949917 10.655183
7.0218134 12.422522 11.516532
6.990734 12.593969 12.448396
6.7823105 12.2370205 13.383381
6.5119147 12.267107 21.672972
6.370686 11.555139 26.178228
7.333354 13.390184 10.626555
7.209178 13.22605 11.844462
6.6771855 13.414418 13.634369
6.532956 13.970532 19.037235
6.468168 14.09977 14.081064
7.093153 14.319623 19.931824
6.5039754 15.419739 15.045879
6.26543 15.548189 18.753813
7.4166102 15.579061 21.570454
6.1765614 16.25184 15.93937
6.6248393 16.340527 17.580694
6.531397 15.9684925 18.311333
7.442088 15.889745 19.840414
7.465459 16.332872 20.776554
7.3290777 18.019445 11.468343
7.343885 17.932028 12.036255
6.4760847 16.545824 16.75962
7.3692102 18.388632 11.035492
[...]
POINT_DATA 5296
SCALARS features_00 float 1
LOOKUP_TABLE default
0.56391954 0.56638134 0.4617124 0.5210105 0.49856448 0.45427576 0.5255542 0.32122803 0.4053386 0.30942512 0.51620793 0.49941468 0.46266875 0.27385047 0.23737225 0.45663056 0.18742079 0.20769489 0.22899292 0.2925246 0.27515325 0.2986061 0.2631606 0.13259138 0.31635225 0.32833183 0.3468352 0.30650693 0.27645028 0.26368347 0.31658405 0.3388151 0.3559486 0.29674876 0.33012152 0.34364673 0.69226915 0.48750204 0.5706 0.5810549 0.53491163 0.49785674 0.552014 0.5627223 0.51209146 0.47652996 0.48467827 0.49575198 0.41618115 0.19139029 0.37407935 0.4268241 0.45680737 0.5044216 0.5263415 0.5212834 0.47703367 0.04166126 0.26582107 0.3925948 0.24505028 0.18558207 0.44183022 0.5104175 0.5305681 0.4071437 0.04095212 0.07667433 0.41213977 0.4640873 0.49250966 0.42191285 0.24275894 0.20555058 0.26594123 0.2855015 0.42287678 0.3284845 0.19435805 0.28910637 0.29736495 0.16514914 0.3621301 0.33369726 0.31168956 0.30566812 0.27211642 0.19215038 0.116109736 0.36154807 0.4124086 0.43186706 0.29460442 0.29595053 0.2136409 0.15131903 0.20016529 0.28376046 0.32874548 0.34356105 0.35707015 0.42665774 0.4452443 0.14339781 0.29022977 0.3267706 0.33634517 0.36870304 0.41982082 0.42713568 0.49823695 0.5400905 0.6056938 0.6084684 0.6541794 0.68057704 0.6406249 0.6502569 0.7002912 0.7177742 0.6662024 0.6705413 0.71185267 0.7215009 0.6689426 0.6130962 0.557232 0.65756357 0.5646986 0.49580792 0.6496862 0.59677106 0.5505551 0.38294774 0.48390776 0.5118791 0.060872532 0.39748386 0.5017602 0.49312156 0.44382238 0.3105505 0.6638348 0.7380244 0.3789562 0.20190877 0.09167984 0.06916618 0.058754154 0.19608103 0.4000895 0.20562004 0.035444528 0.24893871 0.4229926 0.65278375 0.7506366 0.3990147 0.42059258 0.42364693 0.40935576 0.023461215 0.0076394305 0.14470106 0.36443812 0.41376275 0.5644949 0.67859554 0.41842985 0.1705479 -0.09459326 0.29467124 0.37956858 0.49343443 0.29735085 0.40162337 -0.050919175 0.14803499 0.25378424 0.18962775 -0.07542521 0.17147751 0.3074932 0.33631456 0.21149386 0.21172619 0.16392863 0.2728323 0.35661244 0.2007733 0.20600662 0.45325333 0.43263555 0.097190894 0.14021167 0.14764638 0.14798154 0.20069999 0.149432 0.3135869 0.3221489 0.41790402 0.4223541 0.17818543 0.2763325 0.09033862 0.114811264 0.19953518 0.2764536 0.28490663 0.10997759 0.27212128 0.32937652 0.5013339 0.5494574 0.5156007 0.6101233 0.58586884 0.41654414 0.6455736 0.69590807 0.7037951 0.5996881 0.55802524 0.49883443 0.44298518 0.4148134 0.6813271 0.5773152 0.49741018 0.43789822 0.38742095 0.36175513 0.7408024 0.7092281 0.6413068 0.44644013 0.4325617 0.3265736 0.70279384 0.6969416 0.37688553 0.31738883 0.6211355 0.6500687 0.44659537 0.30950147 0.58246624 0.5845923 0.4781153 -0.10481713 -0.010654166 0.36693156 0.36931205 0.5940082 0.68858534 0.73563504 0.085378624 0.032479607 0.048247524 0.20514978 0.095807336 0.20901303 0.35980773 0.6946744 0.7770492 0.8471564 0.3201124 0.20844443 0.03420785 0.7911241 0.88380146 0.289342 0.306859 0.36629784 0.73726654 0.87080705 0.38348734 0.31905764 0.19802418 0.26846412 0.5604742 0.40264347 0.35970077 0.24431317 0.16653475 0.10241407 0.3730036 0.4164232 0.26986474 0.17983848 0.13790166 0.16399306 0.07944123 0.2926918 0.22764957 0.18597353 0.029673588 0.09848627 0.24077587 0.24307352 0.126371 0.27501112 0.3420896 0.26747674 0.2220901 0.022504676 -0.027020022 -0.009961211 0.39491567 0.3305479 0.18991148 0.004867904 0.027836353 0.35334453 0.38401043 0.40596357 0.37593284 0.21107051 0.104747705 0.018261418 0.016305603 0.07967466 0.32731754 0.24950285 0.115312606 0.07055949 0.2981898 0.17548095 0.06352637 0.4382735 0.4269581 0.34113723 0.6326877 0.5893755 0.4799639 0.09691692 0.25298846 0.6239208 0.564059 0.64700216 0.70553875 0.6706106 0.6070218 0.71794283 0.65514994 0.6848698 0.6096687 0.67828447 0.7280505 0.69910085 0.74095523 0.6906427 0.66485316 0.62456477 0.65275085 0.64467067 0.514003 0.48329285 0.46996987 0.46518505 0.45766264 0.5930537 0.5583853 0.45502764 0.42961997 0.4134335 0.35003346 0.6986465 0.65158963 0.29295954 0.23021194 0.73684645 0.27271035 0.6941656 0.2231225 0.1418865 0.6128294 0.5965842 -0.2238921 0.5748068 0.5349204 -0.13503712 -0.13151412 -0.10023529 0.05542751 0.16556592 0.26259968 0.5252061 0.689818 0.75236315 0.8101143 0.8830689 0.94084 0.803431 0.70875067 0.63952494 0.4614311 0.233625 0.22256294 0.3030872 0.9118495 0.78308296 0.68993515 0.5620901 0.47275144 0.18041915 0.7903478 0.75279033 0.6260495 0.568117 0.70395696 0.528408 0.35128292 0.29219368 0.48973453 0.30122343 0.5011635 0.40787828 0.5634327 0.65896964 0.42267644 0.27497646 0.5147487 0.7172799 0.6958332 0.41947186 0.41585866 0.0754656 0.1863842 0.59193975 0.77346885 0.34826306 0.28718203 0.05527936 0.07879864 0.1481874 0.3156274 0.26603323 0.1392421 0.08071996 0.26379767 0.25860673 0.065026164 -0.07963578 0.33497456 0.29860067 0.38048396 0.33998623 -0.018791199 0.036963366 0.4849937 0.13033655 0.30198434 0.37537628 0.31753263 0.6635662 0.5056439 0.52641404 0.20129322 -0.012202829 0.14440998 0.26163945 0.29604015 0.7772043 0.7683141 0.5578183 0.51072115 0.18344189 0.28729436 0.8370459 0.8098811 0.7397101 0.64661217 0.47713995 0.3159572 0.52516377 0.6746986 0.6209233 0.8133595 0.75261575 0.67309487 0.37873697 0.39921016 0.7136924 0.4431126 0.56411535 0.71352947 0.7406261 0.73110163 0.59828734 0.688361 0.7196189 0.70516646 0.8468504 0.8361546 0.77705663 0.783232 0.7935367 0.7264834 0.65746355 0.72564125 0.70836824 0.62759924 0.43446225 0.41589504 0.42207342 0.5970937 0.6114707 0.607864 0.5425614 0.48716655 0.4446431 0.45929164 0.45637423 0.53721374 0.46614337 0.41846314 0.55505943 0.5476726 0.22109756 0.06245669 0.6221167 0.60708237 -0.09949806 0.6569358 -0.09051657 0.09055942 0.6704238 -0.14060935 0.09891066 0.097741656 0.56832325 -0.14278293 -0.04964864 0.0243486 0.07576947 0.016888663 0.11136803 0.3320099 0.084607884 0.23116603 0.3789575 0.48003796 0.6498282 0.7508141 -0.2914864 0.77284634 0.8586627 0.73598534 0.6572634 -0.25816604 0.8962085 0.8203007 0.7669313 0.6594211 0.30783024 0.18924406 0.12364103 0.18399447 0.07991408 0.79576385 0.8844725 0.8325056 0.7239601 0.8628371 0.7940957 0.7782978 0.6821641 0.58909553 0.6185071 0.40651262 0.71358347 0.7426895 0.351228 0.7376683 0.75554657 0.37988454 0.77569544 0.36563656 0.35889274 0.55822974 0.7738908 0.81519896 0.8091899 0.31904632 0.31574064 0.23535651 0.18738417 0.20976414 0.1501038 0.14215447 0.20495671 0.21969828 0.49542934 0.21930847 -0.09380719 0.27177095 0.6086962 0.05051753 -0.114708915 -0.10990444 -0.058243714 0.3524042 0.7563863 0.40698206 0.016715426 0.0089997575 0.02657986 0.23936325 0.8242278 0.17061897 0.12199091 0.37830564 0.8448305 0.8442018 0.7798475 0.65253353 0.31900072 0.34077254 0.3975302 0.41077483 0.43464074 0.68669665 0.43693864 0.45201352 0.50263625 0.63318926 0.6776136 0.65816224 0.81479466 0.8013474 0.8303493 0.83107185 0.8121475 0.79222035 0.80451894 0.6937474 0.54484415 0.48795336 0.38289997 0.4102725 0.33033243 0.27595836 0.3217383 0.42533112 0.3755663 0.457023 0.39316818 0.38466746 0.21147501 0.48529708 0.3713212 -0.06162812 0.1061172 0.041248213 0.5423678 0.485413 -0.16496971 -0.0039770156 0.041705046 0.5699895 0.43068957 0.0011554672 0.06746797 0.030363515 0.29755753 0.013978571 0.30642852 0.4336123 0.03644487 -0.15230848 0.35064706 0.48160744 0.6898618 0.7347206 0.63962656 0.7234447 0.8679157 0.8121375 0.7317318 0.3118113 0.121274255 0.09488624 0.24250877 0.5582055 0.7215097 0.92284167 0.19683313 0.38087222 0.9373474 0.44363296 0.51074386 0.8065965 0.63521206 0.7320363 0.5968798 0.69403404 0.26558462 0.74070674 0.1379305 0.25088322 0.77613986 0.29368463 0.38986838 0.8223385 0.80620337 0.2939834 0.49585128 0.6622438 0.77298033 0.85159254 0.8410608 0.16295092 0.18178834 0.2814119 0.1454092 0.10675497 0.17720373 -0.056107014 0.17062181 0.5698271 -0.13081326 0.18990085 0.19791909 0.7151519 0.762151 0.7961877 0.17648657 0.21422237 0.21705055 0.82513696 0.84429157 0.80022544 0.5390601 0.31305486 0.5462686 0.38526142 0.39927873 0.5282916 0.41665483 0.4274938 0.4870464 0.53561974 0.5342714 0.42965633 0.4412846 0.5524267 0.86955243 0.90172666 0.79130334 0.7647555 0.7710081 0.75726956 0.7842324 0.766214 0.6580967 0.522828 0.3352858 0.31741667 0.2841382 0.26584995 0.25774235 0.25612152 0.23427576 0.28988576 0.18133205 0.29243132 0.099138685 0.36530045 0.10883428 0.0994042 0.095753215 0.25517237 0.07390142 0.05952356 0.26741686 0.1124609 0.25799105 0.74404943 0.67502546 0.60429764 -0.01772745 0.20208168 0.8468363 0.87518644 -0.25162405 0.18692721 0.41100878 0.8538358 0.014347494 0.57876426 0.6190473 0.5887746 0.37235603 0.64654595 0.6856785 0.19953936 0.13200402 0.24224675 0.70989156 0.7218529 0.10704877 0.15189126 0.2686684 0.74525845 0.7533581 0.030838206 0.41101223 0.57146955 0.6834285 0.8025106 0.8098213 0.21612985 0.20985138 0.65379643 0.726421 0.8220241 0.8373401 0.20398943 0.28167823 0.17308828 0.12509213 0.21578403 0.26375976 0.23665664 0.13304593 0.48976135 0.14224929 0.6908866 0.17487192 0.15405098 0.758934 0.16458939 0.14552961 0.7821548 0.7933271 0.53528893 0.35949445 0.28301656 0.36976132 0.38126552 0.3862846 0.39712352 0.45911586 0.5324767 0.3413278 0.37149382 0.41083103 0.80764073 0.8261883 0.769174 0.70418584 0.8628309 0.8735758 0.8384933 0.7756737 0.89613205 0.91420066 0.8796678 0.79104745 0.9103807 0.92297065 0.90354943 0.71854085 0.6183898 0.64954567 0.6753037 0.69671226 0.28213587 0.47731444 0.18218572 0.11997235 0.185722 0.23343219 0.15918818 0.14601861 0.13497075 0.2229366 0.33549765 0.12786531 0.2316108 0.32719353 0.14333577 0.14395116 0.2112725 0.114783764 0.1852439 0.12373097 0.12730381 -0.14433552 0.036027655 0.3406485 0.0076242834 0.3025021 0.17299743 -0.029673204 0.059846766 0.77901626 0.6622531 0.34091043 -0.32888865 0.7976872 0.70390934 0.780019 0.7197646 0.17232749 0.42789638 0.64638156 0.39318627 0.60990214 0.6743792 -0.2008094 0.6792103 0.71749026 0.120106615 0.6679027 0.74621844 0.27209842 0.17998816 0.18787907 0.31163532 -0.059592493 0.43129689 0.27920628 0.014816385 0.4016681 0.29012874 0.08925103 0.120206445 0.31680372 0.13572171 0.65162057 0.4478265 0.2313802 0.009195004 0.16322306 0.13006309 0.6432471 0.34815985 0.25066286 0.1541995 0.3478239 0.32834375 0.3547079 0.38418013 0.26750642 0.29583693 0.367692 0.29815346 0.71479887 0.33706146 0.78135085 0.6983148 0.74511003 0.6137334 0.8082502 0.8658395 0.69128454 0.8793606 0.9110772 0.8804682 0.78000766 0.48599887 0.52424055 0.5090601 0.486607 0.4247353 0.41883215 0.36319 0.20850489 0.24061859 0.096676655 0.17143023 0.49849623 0.56743985 0.048188966 0.4243635 0.49104148 0.22436428 0.40860274 0.4768018 0.27194992 0.2961101 0.37857282 0.20089692 0.2577195 0.20982122 0.18901134 -0.06858581 0.086803205 0.45698386 0.35540354 0.030740764 0.4237251 0.39822948 0.33732158 0.36202866 0.48666853 0.18346763 0.43063414 0.092353985 0.055736214 0.0443286 0.10830499 0.22782467 0.20701183 0.41014996 0.13740654 0.2264623 0.43254927 -0.1718388 -0.020560518 0.25541228 -0.05420117 0.33233023 -0.023754776 0.41456154 -0.12527037 0.48338252 0.035302844 0.026012182 0.47954535 0.47106916 0.10593683 0.43501318 0.20060164 0.16538575 0.19687137 0.08573436 0.11240984 -0.2643643 0.13075891 0.09089521 0.13435622 0.263335 0.29071048 0.2498759 0.0883891 0.28928027 0.3966693 0.4445521 0.48435676 0.4608541 0.4616484 0.4471906 0.5319009 0.4117812 0.3764925 0.6331285 0.39143577 0.7241725 0.5271932 0.7941551 0.7982551 0.86856794 0.85408485 0.71572196 0.33191907 0.3580947 0.32435766 0.3101726 0.25779277 0.24109757 0.23914683 0.1732164 0.29052475 0.55169576 0.7439017 0.18829173 0.7198286 0.21651986 0.16213465 0.06655635 0.6546458 0.32883462 0.34397137 0.5023245 0.3786248 0.3739387 0.40733552 0.29050645 0.2153573 0.3621108 0.42052555 0.114342794 -0.03163465 0.48642725 0.49039167 0.46629623 0.17547609 0.41016454 0.4601747 0.5764095 0.39556867 0.6152759 0.13110587 0.5931372 0.12019335 0.38066065 0.19383831 0.3702829 0.2311933 0.122538194 0.41496012 0.4327577 0.40267473 -0.35304987 0.32061768 0.41386724 0.44709325 0.123038106 0.06283446 -0.18876016 0.23271266 -0.10710432 -0.08035409 0.43392715 0.4577457 0.02730123 0.47317344 0.44548044 0.14389455 0.39795893 0.09197134 0.17471297 -0.5376611 0.16738069 0.16581216 -0.39521813 0.06385874 0.13698359 0.11996289 0.36158457 0.17410278 0.08873228 0.20681688 0.29140118 0.4224347 0.45051056 0.42367423 0.17862117 0.019784503 0.43752944 0.041438967 0.39753488 0.4663968 0.3564349 0.55503464 0.3396669 0.34278482 0.6221937 0.63335747 0.41622874 0.32389164 0.6675732 0.7505084 0.76466644 0.32356465 0.28908205 0.28347734 0.24872027 0.10684076 0.44543326 0.5906315 0.64991736 0.6798873 0.21809556 0.3015954 0.032019366 0.6883159 0.29661587 0.20493087 0.68470955 0.40835553 0.37500995 0.31205422 0.5856799 0.5871746 0.41730818 0.5181795 0.5542692 0.3523695 0.37548554 0.4874376 0.5720221 0.18038051 0.4301309 0.1044211 0.48020223 0.47252095 -0.04380703 0.40401572 0.54939413 0.4182008 0.44988406 0.61590934 0.6513269 0.36200333 0.6780702 0.23616453 0.6714192 0.6719646 0.11388264 0.3446868 0.20034862 0.31285495 0.386492 0.37059402 0.24854875 0.15453202 0.32977942 0.40106684 0.41774362 0.22404833 -0.20265624 0.14612588 0.05460698 -0.15088956 -0.07767211 0.24520393 -0.015400484 0.3441581 -0.020510659 0.4342159 0.379177 -0.003729999 0.26954618 -0.015254766 0.10573253 -0.08057479 -0.14538968 -0.20774372 0.14318907 -0.20153078 0.12788859 0.13236693 0.105436325 0.048713334 -0.31878674 -0.0029577762 -0.3333108 0.1860323 0.16240345 -0.2793566 0.15088718 0.19070163 0.2968782 0.2009061 0.32580766 0.2927076 0.2409674 0.26565838 0.32508504 0.2576968 0.31298238 0.37189358 0.38441095 0.42431402 0.41888762 0.41402453 0.31128448 0.23612082 0.51259774 0.32767424 0.5318569 0.5304616 0.47690764 0.33868915 0.3527089 0.3299263 0.332619 0.45612434 0.58260787 0.61478657 0.656029 0.31047237 0.35006362 0.3608785 0.3567155 0.36617488 0.34267414 0.25935394 0.079375915 0.2125316 0.5520325 0.6330644 0.6520498 0.28532764 0.29971325 0.073765285 0.6520315 0.6478146 0.39868325 0.3090128 0.63953304 0.42013878 0.39612514 0.62637293 0.36480433 0.6235294 0.55505985 0.046813183 0.3071889 0.4278381 0.34710565 0.54790354 0.62630785 0.40206635 0.36260343 0.67678165 0.69402504 0.70990944 0.71075594 0.24196771 0.72022474 0.7048778 0.34435934 0.4740103 0.61028296 0.22193672 0.14203128 -0.022054998 0.24292845 0.22234237 0.20260471 0.11259538 -0.17310089 -0.18714532 -0.24494466 0.3760016 0.1489347 0.4206079 0.3864573 0.17909868 0.21341637 0.42765185 0.40403372 0.330059 0.11778025 -0.019370183 0.14254136 0.2516201 0.18025579 -0.06850098 0.09229682 0.3365551 -0.07141326 -0.036905423 0.028136343 -0.10127641 0.025712058 -0.021070272 0.024176799 0.12835734 0.14575815 0.19863696 0.18370508 0.049232718 0.22109342 0.24025941 0.077873036 0.112097256 0.29598 0.13450669 0.18608433 0.38699543 0.37265855 0.4146474 0.46383014 0.4725647 0.4953714 0.45095783 0.26988295 0.30622005 0.4564108 0.3079918 0.3101257 0.33766693 0.20734154 0.3776701 0.32608932 0.35515267 0.35142633 0.4161745 0.37808654 0.34207392 0.3670093 0.388869 0.37146375 0.25270474 0.3253392 0.50141925 0.6120089 0.2571618 0.3106255 0.34144598 0.37405276 0.32676902 0.081979536 0.1620283 0.31900024 0.6219486 0.641287 0.24502167 0.22929731 0.065461844 0.6541993 0.6515794 0.37755892 0.32541 0.6559546 0.6507405 0.27542713 0.6433097 0.034821533 0.6033175 0.018051008 0.40301293 0.44039407 -0.028352795 0.6034838 0.6384795 0.33305573 0.40802014 0.65634274 0.68226546 0.2792475 0.25955936 0.6610995 0.7035339 0.59283483 0.6887847 0.10841742 0.03262387 0.2618358 0.3926244 0.5420842 0.020701347 -0.018215436 0.37323758 -0.052609343 0.42630315 0.25959298 0.18894462 -0.30449986 0.22939652 0.20549531 0.16920051 0.3652658 0.14409426 0.2284753 0.27797166 0.38637984 0.35816932 0.38259146 0.4020828 0.29157215 0.32785684 0.33316994 -0.13416758 -0.3187404 0.1308332 0.251 0.33037102 -0.15137722 -0.14094953 -0.09448753 -0.064970784 0.020450365 -0.05877795 0.13759202 -0.007838279 -0.07392919 0.38991693 0.34307876 0.28607684 0.16128972 0.011320069 0.095454045 0.20848677 0.31161034 0.44497696 0.4245092 0.10436243 -0.40262407 0.2299616 0.288105 0.31872064 0.4564215 0.47109812 0.45292747 0.14238395 0.16061558 0.22466365 0.21238814 0.28608498 0.31384137 0.26523387 0.12398587 0.1691139 0.2307635 0.2638936 0.3699977 0.32416934 0.28730524 0.42388952 0.4585654 0.36813185 0.31615105 0.2885465 0.31707987 0.4977109 0.54558605 0.5673361 0.49765235 0.3460418 -0.0012621507 0.061659172 0.34154463 0.14383231 0.054820143 0.35346642 0.41185325 0.60471505 0.56712496 0.6304537 0.6398632 0.27629793 0.33547258 0.3646723 0.36211184 0.30827674 0.21292824 0.26913196 0.49305147 0.61139977 0.6392809 0.17394581 0.17863387 0.23703824 0.03864155 -0.013620928 0.26760286 0.51752937 0.61774355 0.64868397 0.15086196 -0.018820677 0.08018865 0.21825662 0.6258492 0.6461998 0.15283899 0.15861088 0.4271055 0.58753777 0.63510036 0.18093516 0.44496047 0.3371658 -0.11571677 0.3668393 0.19920668 0.60188174 0.11985013 0.23324245 0.4297 0.5808078 0.65470725 0.1321642 0.011086963 0.55454123 -0.085595235 0.033015158 0.048546985 0.047160063 0.54843485 0.44821373 0.3868431 0.3350081 0.6066597 0.43756193 0.64279187 0.55772483 0.42431742 0.42838073 0.23010582 0.15785643 0.21319449 0.2953357 0.25896096 0.3779639 0.27571043 0.33479065 0.47056913 0.27763292 0.47361025 0.52982485 0.2719443 0.3985389 0.5137869 0.23201698 -0.19803028 0.162842 0.35859913 0.30076334 0.22964324 0.09732985 -0.06744041 -0.18459824 0.047903918 0.21045029 0.113844365 0.09047955 0.23838867 0.17591472 0.3584016 0.37639523 0.33593166 0.33581412 0.3988107 0.43670893 0.33206362 0.4185902 0.4512247 0.47321767 0.45979226 0.28246233 0.30810362 0.47210664 0.27568674 0.29618695 0.27575463 0.29391223 0.3385653 0.3962417 -0.31066394 0.30254963 0.31394133 0.4529434 0.5118132 0.51773036 0.32977265 0.55879784 0.5966222 0.6066867 -0.14399315 0.35850522 -0.14013499 -0.07101111 0.34749198 0.3435507 0.21522488 0.23245674 0.46407962 0.604569 0.74593884 0.5942104 0.6407517 0.8229375 0.8379952 0.663851 0.6997547 0.7433456 0.79711497 0.8716482 0.89048684 0.8771521 0.89383614 0.13769856 0.054055456 0.06739818 0.15843017 0.3699348 0.15242225 0.16738689 0.16695079 0.29978406 0.074380785 0.2068117 0.13600062 0.09562017 0.40452534 0.4297588 0.39382097 0.325273 0.41197073 0.3907248 0.43007725 0.2023824 -0.060387485 -0.40129513 0.3176019 0.17588994 0.00082296133 0.43324152 0.37707415 0.32860148 0.14182824 -0.03939949 0.58025527 0.46444923 -0.2058241 -0.08313405 0.6966506 0.6407176 0.69867754 0.0045310184 0.10040435 0.67843556 0.6124532 0.20561118 0.33857718 0.44179896 0.46165478 0.5480401 0.19039148 0.5838952 0.59511274 0.5730549 0.5984305 0.32739785 0.55072 0.360103 0.4432525 0.41262364 0.36159906 0.035139546 0.4109041 0.34087592 0.23456973 0.09502715 0.33266336 0.24736814 0.2914479 0.3424458 0.36248833 0.31325486 0.3137501 0.3565006 0.37688404 0.3956746 0.31881753 0.37263927 0.39486057 0.43493557 0.09729928 0.28058216 0.4412125 0.45773017 0.45349276 0.25670362 0.31765696 0.37327635 -0.13483042 -0.009837747 0.3109893 0.4425013 0.50742584 0.550793 0.49103823 0.44139087 -0.043737005 0.2965837 0.5588372 0.5802281 0.5642303 -0.079373 0.30647057 0.30849433 0.20998113 0.5973567 0.4277974 0.7177959 0.78888345 0.6098692 0.86903965 0.8460957 0.7020755 0.7340337 0.75142837 0.9059739 0.91353184 0.75988173 0.80091214 0.8829228 0.9060159 0.91779006 0.4950945 0.5080754 0.29717568 0.47121963 0.1712017 0.21962558 0.25050268 0.29469723 0.03667803 0.082862146 0.19127755 0.32892177 0.30834484 0.29915795 0.19573599 0.14428696 0.18513937 0.33231536 0.030833483 0.48043483 0.39168593 0.40287936 0.24561106 0.2506337 -0.037054166 -0.35884896 0.41690886 0.4694117 0.32763875 0.41784376 0.22294712 0.020226687 -0.18644099 0.46485597 0.3968898 0.3525724 0.27819112 0.23314773 -0.2085374 0.6860411 0.6091287 -0.15731704 0.7298633 -0.122678876 0.7376738 -0.003076829 0.23316912 0.6764626 0.5238148 0.3676536 0.46946695 0.49392566 0.54912686 0.57918644 0.23827219 0.581509 0.59678584 0.30609643 0.27016282 0.59715104 0.313500