# vtk DataFile Version 2.0
Really cool data
ASCII
DATASET POLYDATA
POINTS 5249 float
6.0799785 14.057712 25.65724
6.0331125 13.93171 26.451193
6.097923 13.8425865 27.624966
6.279877 13.769694 28.213686
6.265175 14.236941 28.944086
6.1186867 14.687622 24.88578
5.7867146 14.611657 25.438486
5.650646 14.622545 26.44661
5.7226434 14.668689 27.484472
5.8853817 14.719538 28.541468
6.1829953 14.75586 29.2035
5.9350853 15.353661 24.984457
5.615804 15.327148 25.637568
5.5803256 15.522375 26.232786
5.692968 15.481658 27.761011
5.8055162 15.564242 28.576735
6.1075807 15.493503 29.290377
6.1215763 15.890301 24.858406
5.9236636 16.403 25.69089
5.699195 16.182425 26.494045
5.877696 16.349955 27.440214
5.9163337 16.329866 28.45191
6.1578245 16.243292 29.096514
6.172796 17.0291 26.623383
6.142296 16.981363 27.126545
6.2293954 16.815916 28.417873
7.369318 -6.0436254 35.000694
7.364476 -6.2266517 35.39883
7.381936 -6.0917087 36.280567
7.3116565 -5.4168186 34.859703
7.2074494 -5.5162754 35.444107
7.282743 -5.3817077 36.35267
7.4230213 -5.2752438 37.06225
7.4281006 -4.332337 34.782772
7.249368 -4.555511 35.4166
7.2355056 -4.9293823 36.422268
7.3832135 -3.9722726 35.379894
7.3848534 -4.038801 36.25693
7.467779 -4.015099 37.026722
7.2166653 7.911252 42.767498
7.1269712 7.870959 43.40977
7.1781435 8.043464 44.546425
7.3434806 7.9729257 45.606865
7.340914 8.099553 45.90956
7.1185365 8.616333 42.684437
7.0071177 8.524563 43.392216
6.9563737 8.633062 44.50484
7.0768213 8.647834 45.561543
7.235186 8.623904 46.025715
7.383431 9.055246 42.241844
7.1688256 9.162603 42.778275
7.0744367 9.363696 43.455585
6.990108 9.511493 44.54767
6.974678 9.430933 45.42858
7.1562357 9.434938 46.022427
7.1602106 9.88527 44.084846
7.2132945 10.158267 44.670013
7.1654997 10.135703 45.448463
7.3384438 10.236412 45.851715
6.775792 13.146394 26.758389
6.713649 13.072961 27.386726
6.983836 13.031977 28.035517
6.694185 14.104 24.86831
6.4698853 13.820022 25.554815
6.387381 13.5304365 26.959082
6.748194 13.532464 28.589634
6.8814588 14.00143 29.270746
6.892095 14.228759 29.679554
6.6439652 14.543378 24.611616
6.556569 14.494856 29.528557
6.6821823 14.757934 29.770184
6.854273 15.2764845 24.209848
6.499748 15.630666 24.558384
6.6669073 15.503894 29.868935
7.1846247 16.011894 23.976103
6.889116 16.404778 24.474388
6.5561986 16.480139 29.333117
6.739777 16.026566 29.767729
6.7099752 17.269392 25.412258
6.5253997 17.400326 26.811337
6.7196345 17.262257 27.586687
6.7591386 17.235746 28.230772
6.9585557 16.871683 29.22581
7.189064 18.394955 25.670929
7.147154 18.588066 26.313122
7.3049293 18.991861 26.446661
7.9089103 -6.908965 35.03171
7.8412304 -6.9201894 35.48513
7.919315 -6.8448462 36.107292
7.9407387 -5.981207 34.122635
7.689785 -6.453569 34.75147
7.4999647 -6.55758 35.23616
7.560749 -6.3852167 36.236713
7.88265 -6.1084967 37.31849
8.1241045 -5.9965534 37.848103
7.7864037 -5.397192 33.946415
7.4893017 -5.5305643 34.432808
7.64162 -5.3525267 37.40725
8.076981 -5.51995 38.1378
7.7213163 -4.7377825 33.867706
7.489639 -4.5466056 34.44435
7.5269766 -4.2589827 35.787193
7.504406 -4.9706264 37.48486
7.9228277 -4.4437757 38.205433
8.19653 -3.671245 33.704014
7.699832 -3.6102471 34.758705
7.618842 -3.6942253 35.379887
7.6773553 -3.3055449 36.928993
7.826869 -3.516741 37.39155
8.014456 -3.6084735 38.532326
8.27185 -3.42961 39.30096
8.403438 -3.162562 40.75532
8.440042 -3.2674525 41.009975
8.211051 -2.902287 34.54052
8.010459 -2.9155252 35.39751
8.055275 -2.5915782 36.11703
7.9597764 -2.7350132 37.66248
8.0442915 -2.9331598 38.40605
8.279795 -2.5755596 39.162704
8.390308 -2.6145499 39.98321
8.436062 -1.7922434 36.236713
8.413828 -1.9531156 38.127045
8.482647 -1.1525623 41.935272
8.472125 -0.7492627 41.58139
8.481885 0.61571765 35.985054
8.27307 4.694714 38.955765
8.101267 4.784069 39.485138
8.160897 4.7594576 40.303062
8.152864 5.5161633 38.903957
7.89475 5.4654036 39.608257
7.9926753 5.418534 40.340553
8.244883 6.357879 39.03957
7.976714 6.1329484 39.579838
8.054006 6.2044764 40.46073
8.125384 7.1781464 44.38283
7.9323015 7.757757 41.93265
7.4964776 7.4486585 42.9582
7.661073 7.5000706 43.957924
7.584641 7.68447 45.556793
7.69892 7.875971 46.147644
8.046473 8.082414 46.68442
7.5518827 8.670264 41.955112
7.499455 8.605396 46.382946
7.7546725 8.806224 46.67333
8.325173 9.720103 41.148792
7.803263 9.231323 41.773663
7.442916 9.521531 42.650948
7.5027046 9.440564 46.45794
7.779889 9.471905 46.741405
7.850615 10.115448 42.73878
7.658527 10.418506 43.831028
7.497218 10.504567 44.61723
7.4789386 10.589175 45.318695
7.693634 10.344041 46.2546
7.9588513 10.03188 46.754932
7.85849 10.893766 44.708786
7.97079 11.187538 45.658722
8.088775 11.073113 46.00093
7.399233 13.272316 25.80117
7.3893523 12.783469 26.786957
7.5051894 12.692742 27.533333
7.602125 12.892421 28.256653
8.394809 11.73629 45.26328
7.803032 14.180872 24.21571
7.507745 13.82748 24.803902
7.30641 14.01854 29.480278
7.4240956 14.243238 29.736977
7.673828 14.677429 23.959393
7.3823376 14.7201395 29.97764
7.79657 15.499324 23.61844
7.264347 15.460713 30.104046
8.121039 16.326492 23.43529
7.8592243 16.44722 23.674194
7.3969426 16.114962 29.838427
7.713329 16.924942 24.017881
7.7068586 17.576637 24.498297
7.4017053 16.932032 29.16451
8.211707 18.82546 24.712776
7.3643727 18.535471 27.351498
7.863352 18.198572 27.680956
8.2244005 19.450129 24.662418
7.564215 19.131073 25.516209
7.6130657 19.458364 26.462917
7.9086256 19.130924 27.344484
8.229115 20.154238 25.00023
8.193042 20.37134 25.593916
7.9111247 19.93532 26.384457
9.2424345 -8.133091 43.48364
9.288944 -8.051682 44.247894
9.219725 -7.707598 44.91567
8.411209 -7.0743675 34.943985
8.43204 -7.144789 35.571095
8.4913845 -6.946252 36.35953
8.592723 -6.642182 37.16342
9.039401 -7.440147 43.07956
8.917227 -7.3573074 43.641644
8.912722 -7.270078 44.44605
9.055603 -7.0506783 45.378387
9.218185 -6.9190965 45.830822
9.383001 -5.851933 28.492886
9.324588 -6.2229033 29.45187
9.34833 -6.3924923 30.591208
9.319464 -5.906063 32.557793
8.71846 -6.4795303 34.00757
8.286154 -6.511391 37.322567
8.550526 -6.2003956 37.94643
9.292187 -6.3984385 41.848164
8.919015 -6.3357644 43.00655
8.799767 -6.4466825 43.69963
8.784168 -6.622238 44.497223
8.903245 -6.477421 45.42271
9.146076 -6.4678283 45.918953
9.348496 -5.22859 28.036343
9.190562 -5.331385 28.498285
9.055054 -5.4948287 29.392813
9.079983 -5.59081 30.265152
9.349625 -5.5619 31.525684
8.435806 -5.4486723 33.268066
8.352303 -5.6060233 33.441917
8.695815 -5.0276675 38.955902
9.074881 -5.7721915 42.52353
8.905978 -5.803225 43.890804
8.8755045 -5.7036495 44.632526
9.01229 -5.6272554 45.417355
9.199362 -5.8271437 45.90454
9.345862 -4.8186502 28.020462
9.0961895 -4.6132317 28.695095
8.957365 -4.5310225 29.413961
9.051518 -4.4421124 30.292408
9.069683 -4.50132 32.633965
8.557929 -3.9830604 38.95752
8.864149 -4.360622 40.7088
8.866361 -4.247121 41.293938
9.199303 -4.0728803 42.086353
9.253926 -5.1503396 43.435467
9.316854 -4.911119 45.224075
9.224915 -3.7955873 28.888304
9.127617 -3.5926392 29.58497
9.160908 -3.559587 30.183355
8.905607 -3.978658 32.88644
8.632978 -3.4205267 41.48916
9.368251 -3.161059 29.386686
8.575757 -2.844253 34.062504
8.459364 -2.3370214 34.735085
8.418179 -2.3608325 35.95119
8.522464 -2.9614682 39.89777
8.545097 -2.4868398 40.8281
8.578838 -2.579997 41.593903
8.994936 -2.4580207 42.39903
8.878286 -1.8177266 35.054077
8.523836 -2.0017066 35.38491
8.889167 -1.3145891 37.664318
8.658383 -1.5122627 40.886837
8.626648 -1.450876 41.54157
8.657614 -1.3163495 42.311916
8.669132 0.03353592 35.788597
8.672024 -0.44249272 36.492535
9.107159 -0.6677552 39.282658
8.638161 -0.55300134 40.778408
8.5566845 -0.51591927 41.67114
8.659941 -0.6414551 42.391697
9.12918 -0.3134105 43.0718
8.905476 0.5564241 34.747395
8.654792 0.52820516 35.41076
8.5530205 0.5500762 36.273804
8.772241 0.6994389 37.198093
9.075622 0.34598562 40.04774
8.958731 0.44228068 40.668606
8.817174 0.28557998 41.625065
8.759829 -0.034679934 42.37742
9.179133 0.047276497 42.98816
8.991805 1.1989394 34.791336
8.757085 1.5401785 35.58192
8.722147 1.4712087 36.53418
9.378217 0.8414779 39.148125
9.114029 0.88073456 40.652603
9.259262 1.9540944 34.9237
8.943133 1.9793072 35.565422
8.8572035 1.9944994 36.21085
9.233712 2.6641388 37.488934
9.274004 2.9856243 38.84543
9.192019 3.7262971 37.456104
8.992952 3.2910128 38.815063
8.627773 3.925302 39.528255
8.645486 4.241548 40.255135
9.252072 4.290515 37.26712
9.087567 4.3142877 37.794792
8.495596 4.813944 38.56538
8.547981 4.497484 40.50095
8.819193 4.7281528 40.934036
8.7107315 5.6080513 38.10909
8.439473 5.358662 38.380924
8.551141 6.0254197 41.285282
8.895344 6.1742315 38.020695
8.689964 6.429046 38.48149
8.793723 6.483975 41.550808
8.69737 6.9779367 43.41583
8.923115 6.9775047 44.14933
8.397076 7.190643 45.197697
8.93323 7.0793824 38.76837
8.715518 7.095711 39.374607
8.68211 7.5042553 46.457195
8.951507 8.390553 39.869415
8.561361 8.395504 40.73207
8.584676 8.484186 46.983242
9.00219 9.305882 40.32712
8.648624 9.913558 47.162827
8.868816 10.389429 40.79522
8.596676 10.218294 41.524986
8.715761 10.399202 47.058453
9.302488 11.514004 40.19231
9.142922 11.555707 40.55087
9.071095 11.791828 41.101547
8.972517 11.623601 42.92162
8.3860855 11.092736 43.655453
8.563581 11.403447 46.34647
8.387052 13.2655525 25.874882
8.19442 13.10355 26.300146
8.068827 12.673164 27.30506
7.9969463 13.095333 28.474945
9.269743 12.1295185 40.61513
9.23805 12.323396 41.434162
9.211635 12.204803 42.098755
9.171327 12.1168995 43.612343
8.761033 12.028761 44.773914
8.844328 12.19152 45.50348
8.694044 11.857559 46.08024
8.610707 14.163134 23.971815
8.419848 13.650578 24.665886
8.388938 13.541651 28.653427
8.213458 13.703606 28.89571
8.511324 14.667513 23.620417
8.210947 14.700282 29.702856
8.327471 15.648123 23.406288
8.26819 15.506333 23.482838
8.00834 15.338656 29.906067
8.412497 16.107313 23.399128
8.446403 16.56954 23.529564
8.822648 16.38337 29.353657
7.961632 16.082607 29.681719
9.470962 16.868225 31.704863
8.58637 17.293043 23.82582
[...]
POINT_DATA 5249
SCALARS features_00 float 1
LOOKUP_TABLE default
0.63834155 0.6365543 0.65316284 0.6677596 0.7020469 0.6348893 0.65628743 0.66086996 0.6699945 0.71845174 0.750668 0.63973 0.66050076 0.6490632 0.66176605 0.73620737 0.7953077 0.6031935 0.57301867 0.5641187 0.5308427 0.63707155 0.72990024 0.40471882 0.41334635 0.55198824 0.5966228 0.61904323 0.61149246 0.55743587 0.57367694 0.5537745 0.5058224 0.4756169 0.48880118 0.49980456 0.4229322 0.40268338 0.37323338 0.5248085 0.5878065 0.6242229 0.5915934 0.5799924 0.49394488 0.56804246 0.62418574 0.6095015 0.5869229 0.39984375 0.45895517 0.49599028 0.5618176 0.60649943 0.5916892 0.47765642 0.49331915 0.54686093 0.54301625 0.62916607 0.65871406 0.68559045 0.60189044 0.61363995 0.6351292 0.67563397 0.69804645 0.7292893 0.60404277 0.7465764 0.775664 0.5592876 0.57947576 0.8175491 0.47717535 0.48336056 0.7147141 0.7939182 0.4463352 0.34642226 0.37125912 0.43695706 0.62631786 0.38120788 0.3532418 0.3655592 0.61104697 0.6244166 0.61661357 0.5361173 0.5970503 0.62551105 0.622334 0.54191613 0.47815478 0.5154368 0.5477662 0.4860245 0.43092734 0.4941852 0.49500397 0.4382094 0.4418994 0.3300361 0.3713851 0.39215887 0.38837805 0.3098728 0.3009717 0.22217622 0.13564637 0.088488825 0.09709633 0.33176577 0.32580394 0.27623656 0.2179364 0.17727913 0.10854827 0.0883473 0.13588725 0.13724296 0.2871013 0.29943183 0.28058168 0.49812287 0.5285297 0.51609683 0.5072619 0.558185 0.54938406 0.4708026 0.54102814 0.54626924 0.4549564 0.38930833 0.50935435 0.54380554 0.57133484 0.5404806 0.5005446 0.38242674 0.5581167 0.53105766 0.16980556 0.29158053 0.39498466 0.56006926 0.5255704 0.3194521 0.3784112 0.44156992 0.4887165 0.5197896 0.4945528 0.3983493 0.44600183 0.45935756 0.5437845 0.62650263 0.687765 0.7073411 0.3826648 0.5209982 0.53187835 0.69859684 0.71803117 0.52884746 0.77325046 0.4781011 0.8091934 0.4058233 0.40466547 0.7526202 0.36965314 0.3365147 0.578506 0.41045696 0.3004536 0.25097287 0.49931931 0.43215707 0.3884135 0.3024865 0.57985306 0.5466916 0.41651848 0.6276604 0.6331694 0.63635564 0.56407106 0.55755824 0.54585695 0.50430286 0.5815032 0.62495184 0.6589993 0.6710714 0.6705798 0.6979011 0.5404024 0.38573492 0.14411215 0.4756089 0.52840173 0.44507432 0.31626344 0.46553126 0.56637156 0.6652847 0.70078766 0.6921499 0.7929642 0.74322486 0.6178794 0.48833883 0.27003422 0.43705964 0.45551953 0.28266054 0.30826187 0.55214393 0.66346633 0.6947919 0.69156015 0.82364094 0.78904516 0.7082474 0.5693154 0.3103225 0.1893657 0.080413416 0.12639405 0.13515094 0.40012813 0.6111689 0.78039217 0.68666226 0.589244 0.27607003 0.12645257 0.7093515 0.30859882 0.29974267 0.25222036 0.0904147 0.106732175 0.13993526 0.22992724 0.20374635 0.23030289 0.05643277 0.19238254 0.23621169 0.30547142 0.20574743 0.065659724 0.10293318 0.26236713 0.3187998 0.34951347 0.34346083 0.29426408 0.29515237 0.25428122 0.14946887 0.16264883 0.24140067 0.32910782 0.35494363 0.3312168 0.32332975 0.3167441 0.2669065 0.0050774207 0.19913828 0.29648644 0.2970996 0.26876384 0.119579926 0.16966724 0.28537458 0.311823 0.4448246 0.4599241 0.311875 0.37511158 0.4662484 0.47392172 0.42371944 0.41617376 0.45404756 0.40117973 0.38775155 0.4073984 0.21266986 0.18787284 0.20656344 0.47275993 0.32990748 0.34577695 0.44737923 0.12085985 0.1551561 0.44517195 0.117649704 0.3967734 0.20027307 0.20035774 0.38637698 0.3264312 0.31869912 0.3054936 0.16617452 0.2675579 0.4270932 0.39826426 0.48194176 0.65305746 0.6994835 0.35493767 0.30844077 0.23487839 0.1998134 0.33632421 0.3788293 0.4111075 0.44396096 0.41661897 0.6614731 0.66482604 0.4660431 0.72181475 0.44186717 0.4538218 0.77708125 0.40967366 0.37888363 0.48717684 0.7056641 0.40014994 0.3241279 0.2923058 0.41732103 0.2993217 0.14815871 0.5433199 0.30799568 0.6529728 0.6599502 0.46039727 0.3896984 0.3710873 0.6907779 0.6995673 0.65338135 0.5329474 0.46551555 0.3860253 0.69293445 0.42022163 0.47025186 0.5369876 0.55643964 0.5688839 0.6052623 0.61628103 0.6923934 0.5885585 0.5970379 0.4594196 0.553581 0.60797024 0.6139498 0.6024761 0.518079 0.44902083 0.3444381 0.25388733 0.25844604 0.4354493 0.35331395 0.3220302 0.42257142 0.63630855 0.637361 0.75278246 0.62934506 0.5364218 0.19284023 0.2891033 0.22765312 0.25250962 0.6606494 0.79446423 0.7920033 0.26502648 0.016112998 0.16296169 0.6317063 0.796594 0.823118 0.5856228 0.5868996 0.83606327 0.80093014 0.4365316 0.16438589 0.35262293 0.4070705 0.76857793 0.70946115 0.10486433 0.24727854 0.21148749 0.32376176 0.2358486 0.20612347 0.13271335 0.19963454 0.2884638 0.22791576 0.21924041 0.24286856 0.21985355 0.19288677 -0.0144375935 0.15519589 0.20281392 0.29734012 0.26848042 0.27423722 0.2179108 0.10624551 0.27396226 0.2523333 -0.14453223 0.21134111 0.2641197 0.36162275 0.40551525 0.39466947 0.35848844 0.35309058 0.40374738 0.40393186 0.0826012 0.2761099 0.30233803 0.38971037 0.41120487 0.4061573 0.3944927 0.41049483 0.43553382 0.42507008 0.3452718 0.22060841 0.24258734 0.2943415 0.45299268 0.4478533 0.4355946 0.38883856 0.2797203 -0.25327826 -0.34912485 0.4721604 0.44823503 0.4097892 0.3734359 0.23838267 0.3146188 -0.3111861 0.2666448 0.23181964 0.44793874 0.40887275 0.22142993 0.26734215 0.23222663 0.24546711 0.1624731 0.31501508 0.3586071 0.11722651 0.34401172 0.40659603 0.20997268 0.35003537 0.42780435 0.32836413 0.34406203 0.34860864 0.06700384 0.39710844 0.3675585 0.22302927 0.29031593 0.35420138 0.31946015 0.35907242 0.26700333 0.5774566 0.4366774 0.40703034 0.33002895 0.22460054 0.25350276 0.32586542 0.33515888 0.39328647 0.4121347 0.55523914 0.42296374 0.3888117 0.30201152 0.29766887 0.37690598 0.3789135 0.35610953 0.3134664 0.29178178 -0.13916358 0.33962905 0.41024125 0.33402854 0.11766053 0.3726679 0.38120922 0.2909641 0.44500256 0.5118523 0.23764446 0.32973593 0.6622563 0.35167462 0.2979635 0.691294 0.7034795 0.4027011 0.69706726 0.6618163 0.6094354 0.4555182 0.4268188 0.35533044 0.37228823 0.35716093 0.36965054 0.3639599 0.41197467 0.42580885 0.44425192 0.45686918 0.4370479 0.41461647 0.5103592 0.5725868 0.4647696 0.496409 0.63025934 0.65184236 0.46692026 0.47872943 0.65790236 0.7098815 0.7051072 0.74415183 0.6307956 0.7174152 0.73831725 0.3775585 0.47720826 0.53173774 0.5530433 0.16902316 0.02333121 0.017185308 0.09834804 0.3374167 0.35232794 0.4266231 0.5688132 0.5393099 0.55930424 0.5514123 0.13588029 0.015515506 0.031731986 0.05871752 0.114008315 0.11736728 0.27401394 0.57282084 0.7517891 0.5969713 0.7716799 0.7702168 0.54130316 0.7724149 0.75726014 0.7891561 0.0060673505 0.72878015 0.69418436 0.3193856 -0.010313399 0.15485838 0.13908836 0.25618964 0.15428938 -0.038238503 0.13362734 0.2551846 0.25424662 0.0802208 0.26656574 0.23957774 0.3272277 0.33130854 0.35396057 0.34485018 0.03994921 0.37639445 0.39156607 0.35342664 -0.08679045 0.38251036 0.42578512 0.26343662 0.062592804 0.1166131 0.34045932 0.4574348 0.43659544 0.28751197 0.12749128 -0.070862815 0.48133224 0.482312 0.30066466 0.17581597 0.3062868 0.3843835 0.4676879 0.42871416 0.3537222 0.3157888 0.16294748 0.21063691 0.33198082 0.38872072 0.4306767 0.41530567 0.2905459 0.26859495 0.12583977 0.10563319 0.41575763 0.45011398 0.041898467 0.4483239 0.16641383 0.21441424 0.44848448 0.22377479 0.20699254 0.2851119 0.35483563 0.13720109 0.14339826 0.23722434 0.35254115 0.26111126 0.28470594 0.24793616 0.1323456 0.14801094 0.39644924 0.43798667 0.107767925 0.23427111 0.25783262 0.25898165 0.17255881 0.16390419 0.17247228 0.14879294 0.38862437 0.45183477 0.41049564 0.34638885 0.3195354 0.21942571 0.2276634 0.21152721 0.17229031 0.3012631 0.16247486 0.37830752 0.4292491 0.26233906 0.236759 0.33584097 0.41137 0.45573992 0.43346593 0.3606744 0.3526711 0.3518864 0.20716612 0.25458372 0.047817037 0.21168417 0.21062794 0.15053318 0.24132107 0.41018218 0.43670854 0.4212342 0.38921523 0.37578782 0.37290633 0.4859442 0.23733108 0.19300054 0.21113262 0.15246482 0.093139425 0.046483207 0.15346745 0.2584472 0.23715556 0.2205213 0.28253117 0.40621766 0.39431137 0.41445515 0.40141705 0.38408017 0.6180983 0.25561172 0.037058398 0.06531236 0.01993632 0.27771443 0.2425338 0.16566949 0.66864 0.6636956 0.02365917 0.04827313 0.09090009 0.025784917 0.17365018 0.24796087 0.29294837 0.26708406 0.2425215 0.6694844 0.6031095 0.5581941 0.47372252 0.39847994 0.079132825 0.22347596 0.16988581 0.1318072 0.23991816 0.29798704 0.29033396 0.2810082 0.23971279 0.20670894 0.24700482 0.2666565 0.30772504 0.506385 0.41641885 0.22231957 0.26499167 0.2412539 0.462049 0.19028768 0.20681565 0.64192224 0.6053226 0.51178277 0.6484382 0.5885477 0.51182234 0.47616318 0.77957857 0.5010432 0.4755774 0.48094404 0.5853543 0.6800829 0.72580504 0.76175827 0.55441415 0.19015713 0.028162014 0.30882785 0.3582774 0.4410787 0.47812787 0.13291104 0.16060925 0.13568795 -0.026455805 0.05663663 0.086688474 0.2586279 0.2433418 0.31181294 0.0772679 0.020471007 0.23150583 0.38084543 0.3354065 0.7336433 0.68900406 0.25550503 0.7464582 0.7045561 0.18459234 0.21850573 0.716519 0.6244739 0.6672429 0.5902321 -0.38600126 -0.21762466 0.18965557 0.30742577 0.25162992 0.008366376 0.1947878 0.30981135 0.28313702 0.28503746 0.5155356 0.6579299 0.27460968 0.6800102 0.3198851 0.29518658 0.25608888 0.6837986 0.37318176 0.30549687 0.43423504 0.41148356 0.3259803 0.44577265 0.07783672 -0.13759856 0.01787214 0.46143875 0.17963044 -0.082097486 0.3504335 0.37765047 0.46072537 0.034970082 0.35164896 0.40037948 0.437526 0.45348075 0.17642772 0.09322377 0.12810552 0.45924792 0.50719213 0.26980555 0.18139796 0.14329773 0.11182064 0.51580286 0.5554425 0.40466827 0.35558137 0.18363565 0.098517284 0.102483064 0.1431248 0.043549594 0.49279332 0.3737067 0.26184636 0.17471474 0.04813392 -0.06590715 0.4247917 0.44707528 0.31871903 0.19565512 0.3346426 0.15382145 0.19797558 -0.011463955 0.053813867 0.0044203624 0.034565825 0.027046833 0.15592866 -0.12460807 0.081575215 0.12083317 0.12233907 0.12445985 0.11417157 0.06231924 -0.07112273 0.13773628 0.16047192 0.19398656 0.24971095 0.2358087 -0.20071174 0.14550722 0.13765754 0.13411641 0.05687788 0.21872035 0.2253181 0.08871438 0.041178763 0.057614777 0.2884544 0.08594051 0.27654114 0.28614292 0.27059644 0.28105947 0.3376256 0.30717307 0.27757213 0.29049432 0.04398492 0.040966406 -0.034318056 -0.060790733 0.36706033 0.30919898 0.29016677 0.32296917 0.33365554 0.31293425 0.3019181 0.21095955 -0.15402718 0.028194182 0.082087316 0.1072757 0.105890006 0.20769787 0.3502804 0.3437931 0.32684585 0.2982869 -0.044717945 0.18557453 0.16572708 0.124472365 0.3629942 0.34384042 0.3838241 0.021461695 0.10999955 0.39749804 0.37096313 0.32766828 0.50031126 0.22171655 -0.081651054 0.14089629 0.17965707 0.4155852 0.40368629 0.36011338 0.5869366 0.23310041 -0.009593874 -0.035565242 -0.026753545 -0.09172399 0.11965366 0.25010195 0.21514049 0.26049194 0.48694336 0.32241234 0.018148467 -0.02169913 -0.1577292 0.29861122 0.30827314 0.2622 -0.26100716 0.15237541 0.31665578 0.32496455 0.3184592 0.46677408 0.055933543 0.3112542 0.31645432 0.5254071 0.5606034 0.14646097 0.17440113 0.17228338 0.6616602 0.35409683 0.35795423 0.5273087 0.56525445 0.64143026 0.6248456 0.70166594 0.43288004 0.51824975 0.54822266 0.6351767 0.632136 0.6280252 0.60393226 0.5379907 0.43201017 0.43538216 0.56359255 0.6484768 0.6684492 0.7233311 0.547789 0.5726436 0.616992 0.668823 0.65907407 0.6502356 0.6194322 0.65020704 0.67275727 0.3961763 0.26034144 0.37887365 0.33682203 0.28246272 0.26626718 0.22005111 0.21981636 0.22443143 0.11956232 0.22207472 0.29072425 0.2731884 0.23802653 0.022712365 0.06337364 0.15610927 0.22858503 0.24474165 0.28274843 0.24605876 -0.11087104 0.0659523 0.27652994 0.2986306 0.63097155 0.30714062 0.28035396 0.2909197 0.518201 0.16873762 0.2937916 0.085016586 0.45681685 0.24690735 0.29897165 0.14792229 0.49782598 0.5500053 0.24885564 0.2689937 0.6655865 0.6803222 0.2669763 0.5966819 0.70716816 0.7405107 0.7400685 0.3062239 0.69924784 0.7408924 0.3965824 0.5848344 0.6595 0.4205969 0.13047582 0.399374 0.41884562 0.33422527 0.40168813 -0.47562152 -0.4652136 0.45519763 0.53784096 -0.075842276 0.5120926 0.5710738 0.5878061 0.52541125 0.39588815 0.12975508 0.046812706 0.064463355 0.600639 0.5976424 0.553872 0.48489392 0.30914432 0.15719521 -0.041987095 0.09624616 0.5540078 0.5707606 0.5151906 0.017010126 -0.006505649 0.044498365 -0.014669247 -0.031024456 -0.3106864 0.4639935 0.5533252 0.39999855 0.35284707 -0.113905594 -0.15616074 -0.1359012 -0.14584932 -0.072343476 -0.018738031 -0.09932521 -0.18437856 -0.21965945 0.3202741 0.21338443 -0.40894908 -0.21139309 -0.24167395 -0.09236053 -0.18283306 0.18104973 0.11262989 0.7212386 0.22278666 0.24492973 -0.29307163 0.18066818 0.24976563 0.20352663 0.14143887 0.21792933 0.4853652 0.61292607 0.7522983 0.7628207 0.27825814 0.27202278 -0.26521173 0.22382343 0.14042616 0.13750705 0.09511112 0.21804614 0.20993085 0.6450417 0.7245263 0.793658 0.81777716 0.27574956 0.25496718 0.044113994 0.046002477 0.22752272 0.232388 0.29239112 0.4754723 0.56603897 0.7120472 0.77295077 0.8080412 0.21193385 -0.08431534 -0.03630746 0.2645473 0.12559506 0.38588083 0.683092 0.75114006 0.014034655 0.23375726 0.19822276 0.33250812 0.27107394 0.20951971 0.24759115 0.30919853 0.32417655 0.37724292 0.24102166 0.44928613 0.22019398 0.16357854 0.020148654 0.31180656 0.28302798 0.2442307 0.4032174 0.26193118 0.49670023 0.13710807 0.62422323 0.5090825 0.38250002 0.348212 0.62117326 0.59162426 0.57818186 0.52796394 0.61640394 0.58422667 0.48161846 0.4115444 0.35552764 0.55423534 0.5546924 0.6464747 0.4836794 0.67443204 0.621699 0.5789366 0.56008387 0.64623535 0.6644025 0.65496314 0.6330938 0.45509493 0.42844468 0.44519946 0.4588778 0.4196438 0.3830508 0.22662449 0.2433768 0.30840144 0.34685507 0.28708124 0.28996933 0.2517369 0.2365426 -0.18907864 0.11713306 0.119381115 0.1058227 0.13955422 0.281924 0.25379622 -0.1731149 -0.118358694 0.20227051 0.25827146 -0.15481229 0.30737033 0.31074905 0.29347324 0.2394079 0.24332406 0.15703538 0.043033928 -0.0076903887 0.3583051 0.09440123 0.48259312 0.51374686 0.17551367 0.62810063 0.21916693 0.7292437 0.75574684 0.74784577 0.38139686 0.4802441 0.6709417 0.68530154 0.33766195 -0.26697373 0.29883003 0.2096803 0.24809831 0.5237976 0.6002578 0.51107836 0.4948482 0.25681776 0.63150597 0.6661998 0.62863475 -0.168161 -0.12921154 0.6674298 0.6612315 -0.5980199 0.6417246 0.60928947 -0.29174247 0.46774504 0.5588176 0.52142644 0.38668972 0.26442242 -0.19737059 0.5807042 0.7045087 0.19155432 0.18852556 -0.5484151 -0.3974649 0.029569143 0.06953173 0.1349338 0.4750643 0.61989486 0.7241215 0.746493 0.2194599 0.078150555 0.7805748 0.8063599 0.2495084 0.11210583 0.8381948 0.2221241 0.01976332 0.81160784 0.120698914 0.17753316 0.70360893 0.7380873 0.7731297 0.088911474 0.16884753 0.09108389 0.6371752 0.7012123 0.09457321 0.02355805 0.31000096 0.22898215 0.28883436 0.35003218 0.3931704 0.17389509 0.17187485 0.3180065 0.36270612 0.32755664 0.19679546 0.14960079 0.16474283 0.14973812 0.44614738 0.10517038 0.42880195 0.4370979 0.27890465 0.5649366 0.01962128 0.20564623 0.43744606 0.52157927 0.5625808 0.29506114 0.16052262 0.5494368 0.53546375 0.55368185 0.526663 0.54927003 0.45537573 0.49175736 0.48627806 0.4460476 0.3796788 0.38335356 0.43006828 0.40907893 0.390765 0.43447307 0.41260883 0.3263482 0.20029588 0.2128611 0.29523057 0.38944292 0.3971607 0.33774024 0.34632254 0.6006211 0.5418347 0.2881098 0.21900064 0.12920763 0.25725383 0.22517446 0.5450149 0.35589176 0.2561946 -0.14370295 0.13308537 0.09402398 0.4988937 0.32287723 0.2938745 0.17862733 0.36900908 0.30049807 0.26782888 0.2742635 0.115520336 0.09564087 0.2638462 0.24483164 0.15043366 -0.26436117 0.038871154 0.017892245 0.17803515 0.23090994 0.046261795 0.31503916 0.3551919 0.083761066 0.5704422 0.034633294 0.69331694 0.7311878 0.2397146 -0.17575678 0.4675927 0.66878754 0.22347331 0.11031202 -0.20362484 0.00042505562 0.031111725 0.3920533 -0.09179133 0.55696905 0.61657894 0.6290709 0.52192086 0.33869898 0.051037088 -0.12676084 0.67108643 0.6903131 0.66253126 0.6930739 0.70075417 0.66322875 0.6100988 0.63047546 0.5052618 0.31694347 0.5670248 0.643736 0.68734515 0.7052633 0.21006572 0.3774386 0.71848863 0.22455351 0.7837177 0.2622038 0.85899186 0.26568413 0.80726445 0.23636778 0.7124944 0.7436297 0.0897222 0.62486434 0.686494 0.11111436 0.41204074 0.28587028 0.3840235 0.36433858 -0.095801696 -0.091724545 0.28741038 0.3522262 0.38143378 0.36953792 0.36583486 0.14357565 0.06614436 0.15440544 0.15110578 0.053428076 0.15669864 0.11877131 0.2667252 -0.5975989 0.08784801 0.35216624 -0.18183146 -0.03856472 -0.62180156 0.25471303 0.17454809 0.37687856 0.17018215 0.10517417 -0.079328544 0.088792674 0.43837184 0.4664268 0.09641468 0.15624335 0.38624966 0.43136775 0.4238 0.45588356 0.47041732 0.44973397 0.46196443 0.47789285 0.4421857 0.34008548 0.1345879 0.36349928 0.42898545 0.44475827 0.4221258 0.74877465 0.72794926 0.6739383 0.38614017 0.40801948 0.15406956 0.24803288 0.38600746 0.36880323 0.30677378 0.7358724 0.68682134 0.59532356 0.4700695 0.30502442 0.20250072 0.22415522 0.24006447 0.69437146 0.6392188 0.4554355 0.11735931 0.60742176 0.19974181 0.49222657 0.3099485 0.17525652 0.26423883 0.08101815 0.088545896 0.26142156 0.2443361 0.026448399 -0.010172013 -0.07002524 0.22878821 0.071984395 -0.16444442 0.28649855 0.43908542 -0.064700864 0.0018861517 0.20876713 0.40419874 0.30395988 0.54767483 -0.14793691 -0.047953613 0.5492116 0.6212996 0.47254354 0.5863061 -0.13786238 -0.18558413 -0.1803681 0.062489882 0.31166556 -0.108864404 0.48252326 0.2706651 0.074744105 -0.15755342 0.62438524 0.6755331 0.64627045 0.656607 0.68864644 0.60849273 0.5615787 0.56417376 0.6011631 0.44202042 0.35281605 0.35556233 0.29624715 0.6332311 0.63031834 0.22073367 0.65446025 0.28231275 0.77753794 0.30833596 0.7363149 0.2762581 0.7138699 0.2259929 0.67411065 0.66779983 -0.011003623 0.6334857 0.13467881 0.27924702 0.4280666 0.2927307 0.25788465 -0.2765489 0.08571847 0.23078643 0.34092438 0.39053273 0.095266856 -0.039167926 0.14163616 0.16008493 0.19383615 0.34406793 0.3123031 0.13432615 0.20238942 0.44137916 0.45850468 -0.3508592 -0.48066202 0.115431204 0.48538822 0.10795167 -0.0032508075 0.33421546 0.33994865 0.00039832294 0.577969 0.20801637 -0.032136604 0.071562774 0.18003513 0.18421097 0.24866845 0.47337735 0.5508869 0.4496277 0.059881113 0.52627647 0.59270835 0.5730212 0.35293323 0.44395852 0.48873416 0.4973894 0.48404112 0.6497398 0.6280024 0.4754073 0.40165967 0.41686118 0.3579548 0.33515638 0.17677441 0.09362055 0.2585023 0.45651063 0.43288708 0.39070874 0.7713959 0.73253727 0.64604187 0.56077707 0.3709636 0.28715032 0.33877173 0.3477431 0.33914933 0.7889895 0.03664223 0.26102275 0.19830497 0.7339902 0.65808725 0.48722804 0.09738171 0.088157184 0.17514029 -0.11491558 0.18354923 -0.12286655 0.1626704 0.6439525 -0.011900932 -0.04512171 -0.11610424 0.540455 0.63547873 0.6756172 0.116079636 0.07400237 -0.104610205 0.59929043 0.65292466 0.48073766 0.5380969 0.4246657 0.50035554 0.045720235 0.39741296 0.124283314 0.12043202 0.0703303 0.21023086 0.09211466 0.064823896 0.0023346916 -0.015386101 -0.10835862 -0.39585382 -0.12871721 0.048164465 0.30524436 0.43054032 -0.18244286 0.50862336 0.55091906 0.57598764 -0.24203637 0.5527819 0.57334584 0.51521635 0.24910769 0.3566193 0.43031356 0.52956885 0.5730083 0.44136783 0.35367933 0.38987 0.3286951 0.26841527 -0.028378539 0.40004405 0.40269774 0.5073561 0.54882574 0.032552056 0.22852494 0.5252578 0.5596145 0.26942104 -0.030264834 0.5260669 0.30481318 0.19675991 0.63402444 0.21095589 0.5246006 0.6075016 0.108333826 -0.028884575 0.359575 0.5366365 -0.10572318 0.28660017 0.3804664 0.13737679 0.34566814 -0.03548705 -0.013077453 0.29329816 -0.02932553 -0.20137471 0.24086824 0.28774986 0.40485206 0.008247629 0.020932287 -0.005951425 0.10045433 0.10587367 0.17798612 0.1369949 0.22308815 0.39499348 0.2270948 0.23485905 0.4752434 0.23945738 0.49945295 0.51511097 0.22997338 0.15954986 0.4061262 0.27176553 0.16229466 -0.04140161 0.08084975 0.37457058 0.42619115 0.07081027 0.03590084 -0.02355919 0.08035708 0.14426234 0.2642711 0.23903093 0.47032815 0.5618943 0.59367645 0.55995846 