# vtk DataFile Version 2.0
Really cool data
ASCII
DATASET POLYDATA
POINTS 714 float
1.4415236 5.7335744 -4.1195583
1.4265823 6.7445917 -12.362428
1.3348123 6.5945873 -11.5794525
1.1982586 6.818361 -4.9746814
1.2622426 6.7187757 -4.4438887
1.4312575 7.1969466 -12.41086
1.3892379 7.071783 -11.68825
1.2742369 7.423686 -5.183948
1.2145294 7.3335643 -4.617047
1.3112234 7.2213507 -4.1643643
1.3469578 7.84049 -5.144473
2.3946216 1.7369165 -9.102241
2.4778862 1.6338438 -7.380946
2.334042 2.257955 -9.066695
2.4555988 2.231481 -8.219583
1.9614122 4.154248 -4.9644113
2.3212364 3.6805527 -4.2757397
2.2287326 3.758713 -3.70502
2.3004436 4.0853643 -3.0232985
2.0669234 4.928824 -12.434319
2.2353525 4.58961 -10.936688
1.9014285 4.7029834 -10.097825
2.0289836 4.493886 -9.830714
1.8217258 4.589893 -5.112657
1.6512666 4.616224 -4.663327
1.8657613 4.410271 -3.847696
2.0754743 5.621078 -13.503687
1.6574061 5.8998322 -12.66362
1.6904151 5.537275 -11.7499075
1.7375072 5.5233483 -9.598505
1.5924274 5.7888985 -5.363764
1.538923 5.384927 -4.166122
1.6358287 5.3723426 -3.851725
2.0311704 5.4372287 -3.0850983
2.1940417 6.6167393 -14.269055
1.7062026 6.4471483 -13.271616
1.5254884 6.4111314 -12.775798
1.8568541 6.0487595 -8.931075
1.4678133 6.330593 -5.2531004
1.563231 6.1293178 -4.13738
2.1753585 7.3283534 -14.139316
1.7859998 7.336676 -13.164326
1.5378877 7.453101 -12.306865
1.5526464 7.560373 -11.670901
2.031755 6.8975377 -9.983261
2.1801624 6.6654162 -9.145928
1.4528823 7.6077256 -5.5605483
1.4931769 7.5260777 -4.0761557
2.1833568 7.912516 -13.028598
1.9374847 7.9032907 -12.30102
1.853405 7.879842 -11.702003
1.7007381 8.209726 -5.2272844
1.7363026 8.254792 -4.6541123
1.7411208 7.9510994 -4.047353
2.1266887 8.595974 -5.031864
2.1385434 8.586326 -4.8468733
3.2792323 -1.0842805 -6.1301107
3.1672451 0.028582305 -10.900672
3.1966832 0.15232766 -10.824376
2.7426703 0.09188301 -6.367549
2.8774762 -0.28601223 -5.4994364
3.125121 -0.34699753 -4.596038
3.3535123 0.09597914 -3.9554667
3.020681 0.66185695 -11.235024
2.7337663 0.9183688 -10.449946
2.7433772 0.99206716 -9.75934
2.9253163 0.65935254 -8.760125
2.7974267 0.15231162 -6.3593917
2.801287 0.7077865 -5.373912
2.865617 0.2943024 -4.7175975
3.2197206 0.8956134 -3.8200502
3.2771933 1.3310534 -12.042956
2.9545817 1.390929 -11.400815
2.620737 1.7024096 -10.726725
2.626329 1.7828993 -7.435049
2.9734075 2.3719246 -5.08929
2.636662 3.0975084 -4.7303452
2.5857842 3.0667226 -3.945866
2.9865322 3.0632992 -2.7895107
3.0818691 4.0951815 -13.1833
2.692648 3.0974927 -10.646329
2.7122636 3.6417773 -8.406488
2.8971212 3.3103867 -7.3094177
2.929266 3.750794 -2.2697752
3.1530051 4.8812194 -14.316704
2.9545107 4.328448 -2.1372607
2.6621025 5.696755 -14.308474
2.7354426 5.62374 -2.3537729
3.373696 6.179402 3.0902412
2.699481 6.426596 -14.787479
2.3756444 6.648572 -14.53258
3.396738 6.250229 3.1577785
2.6685236 7.199273 -14.718224
2.4421916 7.6204343 -14.374639
3.068484 7.707658 2.9931357
3.1370654 7.5944037 3.3412454
2.8703742 7.820812 -14.304946
2.6485667 8.044214 -13.434987
2.8550994 8.242148 -12.45233
2.5719352 8.162775 -11.75202
2.9781704 7.8682384 -10.853283
2.7296433 8.409351 -5.8822703
2.2899466 8.422369 -5.5148
3.0742974 8.505818 3.600548
3.244492 8.482704 4.4504657
2.360691 8.692999 -4.927797
3.279663 9.441909 3.5754476
3.2965357 9.278449 4.3987417
3.3789124 9.818837 3.7281816
4.270525 -1.8497449 -6.5065646
4.1325383 -1.7574306 -4.845909
3.6720762 -1.4322624 -6.7003875
3.5472383 -1.2618511 -5.5071397
3.7591965 0.2120885 -11.785877
3.7011347 -0.10268158 -11.332175
3.8825428 -0.4407953 -10.557899
3.5378299 -0.24713182 -9.88221
3.9300709 -0.405542 -3.6719878
3.754416 0.66824424 -12.057968
3.4764862 0.96586347 -3.5373816
4.329755 1.135632 -2.5627456
3.7154164 1.4328974 -3.0356722
3.3952029 2.2814488 -2.9814982
3.878004 2.817338 -1.6179863
3.5108256 4.087206 -13.469847
3.5735164 3.5354183 -1.760111
4.140396 3.9094934 -0.92459357
3.95314 4.883829 -14.986415
3.6974058 5.5041423 -15.085582
3.4006777 5.900236 -6.3377213
3.6804402 5.881244 2.816387
3.6893167 5.773674 3.2065144
3.8029783 6.040809 4.171344
3.630991 6.314589 -15.1664715
4.0918064 6.041675 -1.2916248
3.6767597 6.459424 1.7996049
3.8103316 6.3488646 4.404735
3.9209082 6.865068 4.7514057
3.4248288 7.349074 -14.856741
3.3249266 6.953431 -8.771478
3.5590556 7.2316856 -6.195207
3.3798962 6.948292 -2.1202128
3.7328842 8.005281 4.955429
3.3269684 7.8975754 -14.343323
3.3669453 8.179432 -13.578331
3.4559991 8.152353 -12.521655
3.1516454 8.228989 -11.881491
3.5657363 8.541062 -5.5093665
3.9217873 8.474127 -2.3109574
3.7208772 8.716726 5.0573635
3.5393739 9.376859 2.991256
3.7617671 9.3357725 5.00427
4.062479 10.247351 2.9764462
3.9010136 10.296605 3.4923832
3.7019541 10.023812 4.3132105
4.8228045 -2.7280498 -6.7822285
4.9459624 -2.2647529 -7.853989
4.7959 -2.4742367 -7.2894006
4.6009617 -2.3401423 -5.610364
4.8537917 -2.1645274 -4.513734
4.5988874 -1.8285003 -4.1428623
5.253771 -1.2349445 -8.861929
4.6525826 -1.5757743 -7.996246
4.4502015 -1.4472839 -4.087051
4.4713793 -0.019624978 -11.935108
4.447466 -0.26393107 -11.650141
4.4658084 0.6793927 -12.53276
4.678225 1.2219224 -12.621249
4.821149 1.3818026 -1.3201017
4.871182 2.8775125 -0.51676893
4.792229 4.305489 -14.743505
4.8455634 3.4979825 -13.832205
4.6781964 3.1408265 -0.3930692
4.548071 4.9525585 -15.187152
4.9693 5.1314554 2.595543
4.57737 5.637369 -15.400496
5.058818 5.678634 1.4484946
4.6701956 5.6781573 4.245412
4.577141 6.2852464 -15.338961
4.278722 6.5168467 4.8233824
4.405311 6.9249654 -14.99734
4.221848 7.5544806 -14.364215
4.7590747 7.4585433 -0.39709714
4.466146 7.1269746 5.0570946
4.0845294 7.8421593 -14.008502
4.269399 7.8273697 -13.629811
4.7010636 8.356282 -0.53242546
4.6056805 8.660102 0.5305976
4.4268317 8.684136 5.516916
4.8338637 8.712956 5.6391044
4.7112517 9.423273 -5.518364
4.8435507 9.174625 -4.0433316
4.459404 9.622248 5.4573445
4.913157 9.455582 5.727579
5.1904826 10.090191 -5.9731503
4.9170938 10.082041 1.8137319
4.3681536 10.269006 2.5729516
4.8055196 10.132191 5.261104
4.8648577 10.846564 3.129507
4.7714257 10.859415 3.578824
4.7098846 10.787311 4.1105485
6.157941 -3.2059574 -9.069874
6.192715 -3.5583086 -8.6063385
5.921261 -3.3584151 -7.8236117
6.08428 -3.1766887 -6.013431
5.1793694 -2.4094696 -4.6147203
6.4114037 -2.0919926 6.644269
6.449231 -2.062916 7.112732
5.73619 -1.0778286 -10.147194
6.2882695 -1.5439346 5.936311
6.309589 -1.6429818 6.693662
6.434442 -1.7434082 7.2753944
5.8752007 -0.28550562 -1.4178646
6.2514563 -0.33099356 4.857966
6.1790743 -0.48624521 5.648074
6.2655034 -0.62505925 6.4128785
6.249498 0.59870243 0.09264979
6.4725294 0.9742738 3.0131378
6.3800726 0.33726507 3.4998796
6.2203474 0.35607472 5.6531806
6.3915586 0.7984357 5.561751
5.950903 2.5160122 0.0059123337
5.241354 4.917466 -15.004509
5.223432 5.580039 -15.233832
5.29813 6.139261 -15.091363
5.011157 7.176209 -14.229546
5.5396075 6.877439 -13.749628
5.640642 7.431176 -8.270087
5.4137535 7.936714 5.3041615
6.1562996 8.725445 -8.079718
5.116975 8.683398 5.7333503
5.2292376 9.096276 -2.404637
5.60172 9.7097225 5.5649014
5.422045 9.417227 5.7205534
5.787626 10.038645 -7.222156
5.6714826 10.352699 -6.2331924
5.7161803 10.402205 -5.6737876
6.1041703 9.764537 -0.7182107
5.5992875 10.344678 1.5726093
5.46046 10.168178 5.2044735
5.477744 9.832785 5.612893
6.1354523 10.568426 -5.6539826
5.615734 10.780109 2.924202
5.336317 10.913376 3.5105126
5.4471116 10.721878 4.3242164
7.188665 -3.7842407 -11.246081
7.0161943 -3.760272 -10.578385
7.0959697 -4.132789 -8.51562
6.859734 -3.9289536 -7.967576
6.456026 -3.5565014 -6.6776786
7.09795 -3.1715653 -12.004733
6.9531226 -3.462144 -11.444404
6.8267345 -3.4753926 -10.556329
6.5248375 -3.4889827 -9.357628
6.3601537 -3.53154 -8.810943
6.632258 -3.436393 -6.318769
6.808195 -3.2525854 -5.652302
7.2129903 -2.704524 5.934597
7.0090423 -2.743784 6.7541575
6.9684258 -2.6760094 7.265857
7.2390194 -2.179529 -12.69631
7.0349674 -2.3043358 -12.387112
6.820112 -2.5424075 -4.611294
6.491099 -2.1178482 -4.1491427
7.153126 -1.8093518 3.73522
7.0328207 -2.04454 4.6448755
6.8736105 -2.1820006 5.5729327
6.66617 -2.4376163 6.7189207
6.7717137 -2.3515854 7.3619013
6.8670893 -2.1540437 7.7177396
6.5988445 -1.2829609 -3.5569358
6.988362 -0.6121259 -1.3909453
6.727138 -1.360956 3.8632944
6.5249233 -1.277053 4.4753976
6.5741053 -1.6149541 7.4796677
6.8885818 -1.711718 7.811513
6.7144184 -0.6344548 7.2870584
7.0481844 -0.87569785 7.717662
7.1776037 0.2987784 -12.526869
6.43205 0.3520037 6.4952035
6.7280636 0.124063045 6.861782
6.6376405 1.858392 2.0969908
6.1525054 3.054155 -13.339033
7.3484244 2.6740603 4.328552
6.4926453 3.9218564 1.7898661
5.651855 5.517649 -14.924242
6.113222 5.405642 -14.266759
6.271205 5.4217343 3.5717492
5.8704157 6.4648395 -13.567809
6.1124444 6.064295 -12.818123
6.0372667 6.02841 -11.740901
6.211804 5.605093 -9.242576
5.931137 6.7072186 4.8744574
6.290578 7.6695976 5.132506
5.833536 8.684954 5.6045356
6.6304507 9.322747 -8.122985
6.048898 9.629222 5.351599
6.653617 9.967578 -7.7873783
6.6963816 10.39592 -7.3662076
6.373738 10.278354 -3.6481545
6.8560762 10.347926 -2.5148456
6.3290796 10.1259365 4.566726
6.7509794 10.617392 -7.0422378
6.511797 10.687062 -6.651778
6.754409 10.745574 -4.583716
6.2124195 10.646376 2.7861233
5.927741 10.76556 3.5774472
5.9789166 10.619419 4.1312914
7.564976 -3.6569915 -11.98121
7.684648 -3.9466336 -11.429865
7.8202643 -4.157334 -10.607828
7.438056 -4.1743145 -9.266398
7.254062 -4.2147055 -8.2964525
7.8031816 -4.301512 -7.5601554
7.561475 -4.046157 -6.601611
8.048697 -3.6646597 -5.7071657
7.905281 -3.0427008 -12.694195
7.625417 -3.5014346 -12.10048
7.5562067 -3.1377032 -5.1398077
7.6738153 -2.7421107 5.7559624
7.5559506 -2.9111643 6.624227
7.5222664 -2.8176792 7.3093777
7.7496 -2.5760536 -12.862576
7.6425242 -2.0685818 3.7226667
7.5403023 -2.5365272 5.2889104
7.71887 -2.282722 7.9084244
7.953203 -0.7321662 0.54783493
7.7812934 -1.3919363 2.5852146
7.5093064 -1.5123175 8.010874
7.406449 -0.56003094 0.17336763
7.6226754 -0.8013763 7.8690457
[...]
POINT_DATA 714
SCALARS features_00 float 1
LOOKUP_TABLE default
0.4068576 0.58807933 0.5418403 0.5112509 0.4910387 0.62542576 0.58660614 0.5784364 0.56235313 0.5333543 0.59463537 0.24390738 0.18413599 0.20200965 0.18747881 0.28030246 0.25625455 0.2720109 0.29492554 0.43751568 0.2332991 0.25395194 0.2079133 0.31778407 0.3319916 0.3144799 0.576039 0.53243697 0.45082805 0.4419977 0.41656548 0.38225344 0.37551048 0.35289633 0.71249837 0.6243867 0.58329695 0.49234813 0.46573156 0.42919683 0.75738287 0.6868622 0.64223975 0.62368935 0.58176684 0.5214335 0.59049666 0.5649612 0.7207803 0.6771625 0.64714706 0.59028304 0.6075094 0.5940151 0.57024455 0.5661795 0.40172338 0.43980247 0.43602234 0.30884308 0.3811698 0.3702836 0.28557104 0.43827266 0.37846923 0.3366353 0.29141352 0.30352125 0.2603885 0.30796605 0.18562388 0.44004893 0.4146675 0.3238663 0.18045212 0.08861938 0.17726775 0.2138484 0.20071626 0.4579872 0.13975811 0.12757295 0.10093762 0.23311707 0.6209383 0.26048252 0.6623974 0.31133068 0.59812593 0.7537718 0.7381699 0.6056931 0.7943312 0.7883672 0.5914322 0.64406365 0.79450154 0.7513906 0.6864384 0.6553399 0.60653263 0.47630847 0.5375474 0.71866345 0.74087954 0.52385026 0.7315535 0.7851073 0.74098206 0.3554368 0.41102427 0.34527913 0.42067385 0.45499045 0.4449137 0.39418015 0.37197536 0.31386954 0.4576264 0.15504038 0.07902335 0.08924305 0.13291086 0.14022455 0.50973564 0.17670959 0.17629936 0.67881835 0.7368177 0.57648265 0.54659647 0.5750158 0.60581386 0.80412084 0.1258503 0.46685168 0.61714625 0.6225631 0.8104552 0.46294135 0.56223214 0.22586167 0.685658 0.7822147 0.7382897 0.65599155 0.6359236 0.4524244 0.17719637 0.7517741 0.6452217 0.8110572 0.67186373 0.7179079 0.83200264 0.337067 0.23390627 0.28342867 0.39318925 0.39680186 0.3958267 0.09461142 0.20551966 0.39810473 0.43094718 0.42124617 0.43935946 0.38627446 0.12381029 0.1463423 0.6338472 0.50182843 0.14737192 0.69529283 0.50123936 0.73838866 0.39003512 0.5822016 0.7893729 0.5890606 0.81450176 0.7577645 -0.032371044 0.5988489 0.7324947 0.683931 0.055977955 0.18144529 0.6943846 0.6786976 0.20403653 0.14067352 0.73556787 0.69756824 0.32818168 0.50468946 0.60996056 0.77798724 0.63301414 0.67335707 0.76903075 0.24630722 0.28559136 0.31573853 0.3457305 0.38552642 0.76510346 0.80779994 0.06874226 0.68334806 0.7552743 0.80438507 0.1921754 0.55113596 0.61973894 0.6976477 0.20342186 0.35509247 0.4629205 0.60794866 0.57753956 0.09436318 0.69219434 0.72827667 0.75279486 0.7333864 0.6719469 0.27651256 0.60289675 0.4568042 0.66505486 0.082441024 0.70216644 0.69027376 0.5020554 0.42261112 0.36372823 -0.016934015 0.46982884 0.7471874 0.70679283 0.4024842 0.59959865 0.64862525 0.73791677 0.43830544 0.38114667 0.3326038 0.34512424 0.35097897 0.4396162 0.42815512 0.3555917 0.2923829 0.28738546 0.33518493 0.3089338 0.6865226 0.7940943 0.8446008 0.3759597 0.38586006 0.30118957 0.31058136 0.419593 0.49849242 0.63373137 0.7803527 0.8443092 0.860096 0.25464985 0.12749508 0.4629984 0.53220487 0.81451416 0.85229594 0.7580218 0.7949769 0.30496705 0.64548117 0.6633109 -0.1070479 0.33439618 0.29855883 -0.39860022 0.72289956 0.7098454 0.5903824 0.64432794 0.4802092 0.26199263 -0.32034436 0.54992914 0.58675265 0.63817537 0.49723718 0.6909662 0.52498007 0.5311426 0.15005171 0.031910352 0.7166122 0.52601624 0.5023755 0.310883 0.5592431 0.63900536 0.6968133 0.46627626 0.44995904 0.40096846 0.32721967 0.3463812 0.3990388 0.38023335 0.37424606 0.4515465 0.46754923 0.2960774 0.64398664 0.80583906 0.9085586 0.4139703 0.4017008 0.5623863 0.97910607 0.1252855 0.2773112 0.8899192 0.1576477 0.7676691 0.5809436 0.6506786 0.45259196 0.4373811 0.34458554 0.24782391 0.40790686 0.34618947 0.29809687 0.42274934 0.57729053 0.51039624 0.5027708 0.6055555 0.53055644 0.4782548 0.3537889 0.28260157 0.4688076 0.44930118 0.39168122 0.34477478 0.3682778 0.45468974 0.50267375 0.45447242 0.4686071 0.42990792 0.62381625 0.8188094 0.99603856 0.3069715 0.34756598 0.42566788 0.5441274 1.0 0.5166605 0.13980472 0.13556977 0.8341763 0.6427262 0.7239542 0.6239109 0.5798436 0.6309802 0.410786 0.22252108 0.23067681 0.42072445 0.34196216 0.28663525 0.08815069 0.1815413 0.2016082 0.39444327 0.41016787 0.47428113 0.445522 0.40386647 0.4063817 0.4146325 0.5264762 0.41468716 0.4480062 0.51685315 0.53494054 0.48709357 0.43947873 0.44087425 0.4076308 0.71238256 0.8415349 0.9055071 0.6016221 0.2714597 0.4630679 0.87723136 0.8874503 0.70781064 0.6184732 0.1131566 0.10801064 0.17213851 0.8216635 0.68460864 0.74220836 0.67090356 0.6174065 0.29439443 0.35925835 0.18183406 0.54693115 0.5369512 0.08839826 0.08329175 0.11087564 0.13561079 0.28646585 0.29536134 0.38266966 0.54113567 0.5601299 0.401298 0.3965314 0.38788843 0.47607875 0.52826524 0.52715504 0.47192174 0.7130598 0.55263007 0.44366437 0.41913322 0.37415022 0.3330261 0.39015934 0.27744776 0.7682869 0.7872819 0.77643347 0.1354684 0.7598928 0.8594738 0.8643592 0.7485188 0.13536078 0.10563935 0.10175115 0.8017335 0.81684995 0.73864496 0.7446784 0.69256103 0.24199581 0.4351195 0.49533176 0.5993001 0.22268377 0.5813211 0.5378189 0.40209863 0.22810093 0.08011598 0.21897206 0.11165325 0.29675677 0.5416609 0.6008507 0.5607203 0.52484393 0.6136098 0.61779296 0.6443794 0.6261511 0.50338686 0.75962085 0.69056296 0.5688604 0.44407344 0.42911986 0.46692997 0.4408901 0.38074186 0.85165894 0.8387672 0.36921224 0.20097846 0.20160803 0.20194058 0.8106913 0.16084762 0.7454634 0.7095305 0.22268485 0.17099525 0.6712001 0.6271354 -0.03969807 0.549808 0.48931992 0.4576366 0.36575544 0.5654976 0.5647803 0.5926281 0.5874193 0.5691751 0.5318488 0.41216773 0.042490117 0.031245911 0.2929743 0.30872738 0.039880093 0.26324594 0.25771317 0.46154553 0.33704653 0.43128526 0.6342707 0.5831156 0.7072207 0.7603009 0.73068327 0.65736705 0.7303647 0.64097863 0.84036314 0.76952696 0.6601728 0.5116063 0.4025461 0.36199924 0.33330882 0.8236083 0.74096096 0.6089773 0.47018844 0.39982808 0.32228678 0.4115445 0.41720265 0.35528272 0.32000008 0.717585 0.6259308 0.5535886 0.16550176 0.39529482 0.6324854 0.6071845 0.4190558 0.03631045 0.06569916 0.27547085 0.2548394 0.098678425 -0.067010395 0.40254453 -0.111871496 0.3948586 0.5039675 0.24367055 0.38236046 0.5585235 0.5436388 0.3054636 -0.025722414 0.35982013 0.5753647 0.562734 0.54568774 0.5054061 0.05364602 0.33999342 0.3329138 0.5701941 0.5544913 0.17876348 0.28899622 0.3277929 0.056621805 0.29467306 0.4801867 0.33003598 0.29532424 0.36569694 0.675918 0.4785534 0.74551916 0.6817337 0.5549941 0.7599833 0.7876971 0.7746194 0.70559335 0.6907078 0.5798144 0.4258942 0.43749988 0.43417895 0.41782546 0.3965849 0.4232301 0.33958638 0.41930252 0.37560025 0.3070833 0.47620386 0.44745868 0.32645932 0.2866928 0.5364683 0.5800709 0.57951003 0.0696177 0.50121325 0.48224002 0.47485855 0.43240225 0.52416104 0.47713828 0.4877327 0.25897247 0.39208502 0.38220936 0.49438977 0.22717616 0.3102805 0.3341885 0.3488127 0.2929484 0.2744982 0.32936534 0.34937704 0.3434833 0.74552876 0.7261995 0.60016906 0.77265906 0.7842113 0.76341975 0.71128714 0.79082024 0.7779012 0.43509668 0.42761454 0.42306578 0.42460647 0.42213762 0.4078498 0.37637746 0.38562125 0.3776999 0.3954381 0.48891455 0.57270664 0.5966331 0.34419024 0.33779836 0.57789385 0.5928133 0.6068033 0.36885303 0.36560896 0.60469276 0.5633635 0.41523978 0.446025 0.4150288 0.50689316 0.55421454 0.50591147 0.4235974 0.4624471 0.5499851 0.5348291 0.5702796 0.40060115 0.48306376 0.50867045 0.47990367 0.40817103 0.5792108 0.59261173 0.6054461 0.40719682 0.5725224 0.5940759 0.60981864 0.61085093 0.43643174 0.46481425 0.4906681 0.56159663 0.5841243 0.6031515 0.46315986 0.53812075 0.5145409 0.5459144 0.5318649 0.5222734
SCALARS features_01 float 1
LOOKUP_TABLE default
0.041065484 0.07607699 0.060382284 0.06332768 0.059301298 0.084497474 0.0699631 0.07614738 0.07390277 0.06797583 0.07806556 0.011401307 0.0060388865 0.0059118494 0.004887225 0.017216511 0.012155872 0.01460005 0.017846182 0.045133855 0.009749787 0.007832606 0.00082305167 0.023845319 0.025696931 0.02218508 0.08195389 0.06626888 0.04405218 0.03041564 0.04348703 0.035712507 0.03415013 0.029170811 0.12224861 0.09200288 0.0782039 0.03148307 0.054028373 0.046068776 0.13429269 0.10627828 0.08796764 0.07802578 0.05917509 0.039628755 0.07690068 0.07414425 0.11563958 0.097792916 0.08484143 0.076295085 0.083165444 0.078915544 0.075830966 0.07408515 0.040310524 0.04728985 0.04643486 0.024511866 0.03658053 0.033382904 0.017030777 0.046382286 0.033958532 0.026319703 0.016741628 0.023725916 0.014928607 0.021088108 0.0029303664 0.045283128 0.040629182 0.023063157 0.0058061415 -0.009394834 0.0005233779 0.0042874357 0.0059628757 0.05022725 -0.003155278 -0.0041755447 0.0016611805 0.010730289 0.09453331 0.014308221 0.10897133 0.021994961 0.08814567 0.13718827 0.13121748 0.09015073 0.14872724 0.14546521 0.08604709 0.10127746 0.14862432 0.13043633 0.10654453 0.09125948 0.07437266 0.054663163 0.06703869 0.12150943 0.12871106 0.06502993 0.13016395 0.1470123 0.13485903 0.027363354 0.04060913 0.028341535 0.043635666 0.050060954 0.04811871 0.037261296 0.033037774 0.023736687 0.050208 0.0010185348 0.000815555 -0.0013630602 -0.00031196035 0.0039903116 0.060504768 0.0066395057 0.0073432587 0.10952176 0.13121617 0.07947991 0.07306255 0.07876118 0.084994964 0.15489964 -0.0010369155 0.05472808 0.08887422 0.09083047 0.15461382 0.029064763 0.07777468 0.0027392022 0.10938465 0.14591455 0.13038985 0.102875546 0.09109452 0.03742623 -0.031718954 0.13488716 0.09941589 0.15973143 0.106312715 0.12489331 0.17168407 0.020481048 0.010784219 0.01504611 0.03213085 0.035008963 0.03715488 0.0040186327 0.01007485 0.03844194 0.04446557 0.042209573 0.046038546 0.032942407 0.004114921 0.0038555877 0.08793139 0.04753793 0.003973151 0.11315106 0.0568789 0.12897527 0.036935516 0.0763095 0.14791808 0.08080947 0.15804984 0.13919665 -0.05412878 0.0845562 0.1310126 0.115393855 -0.0522013 -0.038153246 0.11859076 0.11393171 0.006949296 0.0033276351 0.13448854 0.12014473 0.025497943 0.04689148 0.08268732 0.14978904 0.08826616 0.10313083 0.14302929 0.0096324505 0.013201551 0.01462586 0.020351501 0.030750772 0.13674587 0.15509993 0.0029896954 0.10053941 0.13029827 0.15268984 -0.012672806 0.052656144 0.07910444 0.10548724 -0.017663874 0.0013137199 0.019865496 0.074997514 0.063899666 -0.0016705785 0.10756899 0.12381882 0.13300952 0.1304483 0.10819508 0.01616133 0.08839168 0.050838877 0.10913501 -0.0035416414 0.12025043 0.116900295 0.05706941 0.03980564 0.030149177 -0.009177085 0.033492997 0.13589276 0.122151986 0.035970606 0.07664406 0.09449345 0.1305342 0.04567903 0.03227195 0.022783801 0.025525901 0.023025773 0.04719704 0.044669263 0.028495513 0.015165316 0.013900356 0.02145195 0.017269468 0.107302666 0.15307091 0.17385283 0.033335432 0.035899695 0.014032912 0.014851972 0.018892083 0.039574545 0.08423718 0.14538921 0.17225535 0.17896818 0.006917893 -0.014417944 0.023761842 0.04418899 0.15722103 0.17532086 0.12893939 0.14743821 0.011238262 0.08691682 0.094002 0.003371246 0.0163677 0.0070965835 0.039325703 0.119038746 0.104807585 0.074967235 0.09546554 0.05762133 0.020945963 0.024924977 0.07108856 0.080072366 0.09795174 0.060486358 0.11386702 0.06595703 0.06574339 0.004146534 -0.0004454293 0.121638894 0.062906235 0.055894513 0.02073479 0.06237031 0.09266451 0.11535603 0.052113157 0.048096977 0.035963904 0.020379063 0.025978122 0.038561642 0.033940494 0.033130255 0.047289766 0.05236008 0.017499954 0.092895076 0.16019924 0.20473762 0.038884852 0.018021647 0.062123176 0.2368264 -0.026726853 -0.00064044434 0.19403866 -0.021595873 0.14070855 0.072157145 0.097591415 0.035994772 0.033707686 0.01208785 -0.0018076815 0.025300704 0.021176897 0.018413534 0.030200915 0.07165222 0.06269292 0.060292892 0.080671854 0.06314582 0.047052544 0.02239051 0.013389741 0.05086103 0.046580892 0.032358196 0.022705493 0.028806448 0.050474744 0.06258556 0.05148587 0.049436476 0.045840543 0.08811088 0.1662942 0.24524054 0.0044179102 0.010745071 0.025948903 0.0605509 0.2547193 0.065690786 -0.005710782 -0.022514988 0.17338657 0.09958774 0.1276558 0.088758744 0.07457608 0.09212133 0.03330196 -0.0024004057 -0.0031940334 0.040462896 0.027850507 0.009775851 -0.021593768 -0.018133862 -0.007115349 0.036428396 0.039349604 0.05021435 0.034082986 0.025469683 0.03339035 0.041950054 0.06609584 0.0348744 0.043055363 0.0634033 0.07008403 0.056951884 0.040743887 0.04547187 0.039955292 0.1190426 0.16773057 0.19370814 0.085152745 0.0006416261 0.04531708 0.18230242 0.18932833 0.12050171 0.09548941 -0.011001339 -0.027296148 -0.029509531 0.16364415 0.11202083 0.13312532 0.09948254 0.08934347 0.012263577 0.031500295 0.00014924546 0.07228575 0.071713604 -0.0658816 -0.0314858 -0.02182575 -0.00624167 0.017754799 0.017995972 0.017283402 0.06234292 0.07427788 0.03042432 0.02744203 0.021132626 0.050434757 0.06677252 0.06696857 0.05171426 0.12441713 0.06884406 0.038797874 0.032720983 0.009677215 -0.003522981 0.028660709 0.0031985142 0.1380929 0.15427877 0.15037689 -0.016357997 0.13107985 0.16829674 0.17244758 0.13802129 -0.008792471 -0.016728362 -0.038710658 0.14160597 0.1552675 0.12826572 0.12918484 0.108678885 0.001767999 0.045298807 0.06046833 0.0883598 0.0009836662 0.082770325 0.06961613 0.026332006 0.0033883867 -0.019575294 0.0031774414 -0.0057161506 0.0052880812 0.059425924 0.089865535 0.07741281 0.054305717 0.08690282 0.08988582 0.102069214 0.09801828 0.059702173 0.14241847 0.114408016 0.070797816 0.03797977 0.03853097 0.050903745 0.04290926 0.02682277 0.18075678 0.17557146 0.023906684 -0.01634513 -0.0036634305 -0.00013624062 0.16090988 -0.0075197974 0.13323608 0.121615335 0.009891329 -0.015600224 0.10348521 0.09232061 -0.033717066 0.06581718 0.05108113 0.046837192 0.033633552 0.0783558 0.07893488 0.086848624 0.084574424 0.078534156 0.06677253 0.02763429 -0.023981242 -0.0067669274 0.011560485 0.01412483 -0.0026220118 0.0037255764 0.005730182 0.04254659 -0.008899403 0.03452566 0.09639404 0.08044991 0.12190254 0.14308962 0.13318971 0.10675105 0.12966648 0.095644094 0.17579982 0.14567807 0.10334904 0.06011911 0.037606645 0.021026077 0.019311579 0.16932714 0.13574146 0.088671975 0.05104295 0.03853384 0.023870047 0.03951165 0.03549049 0.02848624 0.020655932 0.12740332 0.09491657 0.07034369 0.000862821 0.03719632 0.096926145 0.08870202 0.026490137 -0.02458566 -0.03267105 0.01438366 -0.007897235 -0.0034996662 -0.019457625 0.029357795 -0.01608751 0.03940055 0.061611854 0.012607988 0.03707507 0.077715576 0.07367438 0.014429384 -0.017664682 0.03073437 0.0822415 0.07834528 0.07315309 0.058312055 -0.004173196 0.0253084 0.025993772 0.07953834 0.07415884 -0.008445753 0.011046605 0.022477176 -0.001426284 0.008938916 0.03919522 0.010970886 0.008701527 0.0073710214 0.11462333 0.04128606 0.13879806 0.11283121 0.06815793 0.1437082 0.15450966 0.14939594 0.122691505 0.11687407 0.079321705 0.040535696 0.04150697 0.040451154 0.039720844 0.037482534 0.03884188 0.024205048 0.039530907 0.033401776 0.017079853 0.05550652 0.04961261 0.021832088 0.015897397 0.070760876 0.07980274 0.08045988 -0.0017978261 0.059216276 0.057916455 0.055594694 0.04650074 0.068514414 0.056201775 0.057861436 0.014331322 0.037390705 0.035591125 0.058761097 0.010485612 0.021226866 0.026503487 0.028852368 0.016946416 0.006033903 0.017308123 0.012139634 0.01668473 0.13755153 0.1305681 0.082161956 0.1491755 0.15328948 0.14494093 0.12433573 0.15595058 0.15064976 0.043155916 0.042757347 0.040403523 0.041193083 0.04204879 0.040552504 0.034323886 0.033177495 0.03148474 0.036752112 0.058188744 0.08052957 0.087068394 0.022322008 0.027697993 0.08237909 0.0863886 0.08980484 0.030267954 0.02811251 0.08983485 0.077935316 0.037642732 0.04424997 0.041609824 0.056336697 0.07662744 0.063450955 0.040051207 0.049947992 0.07320739 0.071275525 0.08125704 0.03631644 0.053051442 0.06482968 0.0552748 0.031489156 0.08241228 0.08659679 0.09041115 0.03475266 0.079891995 0.08655149 0.09199892 0.092204854 0.0413569 0.0461591 0.053789996 0.07590359 0.083612934 0.09034691 0.048105635 0.06799807 0.06375131 0.07289943 0.06908875 0.06544017
SCALARS features_02 float 1
LOOKUP_TABLE default