# vtk DataFile Version 2.0
Really cool data
ASCII
DATASET POLYDATA
POINTS 3321 float
-22.744377 0.16868764 -7.5764327
-22.85408 0.8070071 -8.169412
-22.902403 0.6632608 -7.5962396
-22.728174 0.63352036 -6.763375
-22.730053 1.4325149 -8.804449
-22.854584 1.6064131 -8.512155
-23.03769 1.5827324 -7.4642196
-22.913086 1.5329646 -6.781843
-22.71456 1.7029915 -6.1926064
-22.625078 2.6752937 -9.0991745
-22.774769 2.4310567 -8.466507
-22.969172 2.1266415 -7.4251475
-22.737343 2.2694423 -6.6821885
-22.716625 2.8593533 -8.468043
-21.906094 -0.8770499 -7.579528
-21.974323 0.0032553673 -8.845318
-22.080736 -0.38596275 -8.302519
-22.139273 -0.5439648 -7.556369
-22.22971 -0.1886028 -6.7845964
-21.777546 1.0822257 -9.704105
-22.360714 0.7906523 -9.004648
-22.559996 0.74719614 -6.442903
-22.126871 0.4812525 -6.1519985
-21.938213 1.7072984 -9.883194
-22.389572 1.8176303 -9.427788
-22.345564 1.5103577 -6.008376
-22.066555 2.4756088 -9.833115
-22.392527 2.6193383 -9.490079
-22.523087 2.434011 -6.4875693
-22.16565 2.1326578 -5.919024
-21.897131 3.099608 -9.78205
-21.996195 3.494212 -9.291515
-22.336367 3.4214516 -8.591983
-22.283125 3.4796178 -8.054912
-22.28395 2.945095 -6.894883
-21.882582 3.8073363 -8.635042
-21.742275 3.8116329 -7.9593916
-21.00799 -1.7231328 -8.00916
-20.934374 -1.8090214 -7.5968585
-20.712925 -1.8719715 -6.6918097
-20.650337 -1.8207557 0.874501
-20.689999 -1.8465315 1.1215198
-20.870113 -1.1645384 -8.829842
-21.017826 -1.2897382 -8.597977
-21.125458 -1.6430956 -7.547731
-21.251022 -1.3667712 -6.9220133
-20.95122 -0.9719905 -5.862109
-20.772415 -1.3965211 0.727166
-20.816427 -1.2911861 1.4072558
-20.685053 -1.1964787 1.8313351
-21.681679 0.09317216 -9.216666
-21.695097 -0.56415594 -8.517975
-20.797796 -0.6786337 0.7531953
-20.840097 -0.63136446 1.4007413
-20.723856 -0.8401355 1.8372905
-21.576843 0.60507196 -9.547024
-20.688526 -0.053883165 1.3159885
-21.205067 1.5086517 -10.214282
-21.612665 1.7838044 -5.450214
-21.51887 2.4298773 -10.178483
-21.075445 1.972684 -5.2888126
-21.15404 3.3395875 -9.89287
-21.56987 3.4363306 -6.884645
-21.235098 3.910276 -9.220726
-21.367937 4.168551 -8.510108
-21.42975 4.055217 -7.8807564
-19.676792 -3.1028109 -6.979347
-19.915335 -2.6244416 0.74317527
-19.945354 -2.657028 1.4738561
-20.399988 -1.9543985 -8.282184
-20.205988 -2.445135 -7.5615616
-20.334005 -2.2896094 -6.5135427
-20.065235 -2.2134824 -5.892477
-20.111877 -2.005944 0.19448619
-20.29767 -2.2600446 0.69640744
-20.299263 -2.3331504 1.4353771
-20.102705 -2.1988642 1.9856738
-20.302483 -1.3045553 -8.847549
-20.380156 -1.3552201 -5.7154593
-19.93927 -1.3854103 -5.178167
-20.293407 -1.3082379 -0.04131365
-20.514902 -1.6175277 0.33818698
-20.15878 -1.5478157 2.1888616
-20.33772 -0.701902 -0.031844705
-20.4785 -0.5851445 1.9606076
-20.76365 0.5813805 -9.918412
-20.669561 0.6241113 -4.8933945
-19.728817 0.4645057 0.01710701
-20.41351 0.11360034 0.78275114
-20.406046 0.06726161 1.4386787
-20.310362 -0.0969201 1.8254156
-20.58867 1.774445 -10.36638
-20.517069 1.5065658 -4.849483
-19.949091 0.6078975 0.8960173
-20.638508 2.1111803 -10.347753
-20.416183 2.3348508 -5.206343
-20.269974 3.5101423 -9.933773
-20.304605 3.1628404 -5.800284
-20.39853 4.1456184 -9.220156
-20.338825 4.511853 -8.601199
-20.625305 4.546342 -7.6131754
-20.466259 4.527283 -7.192779
-20.40613 4.609477 -8.284151
-20.221493 4.645609 -7.429757
-18.95024 -3.7225728 -6.505362
-19.111628 -2.8036559 -7.932189
-19.234465 -3.3748353 -7.051891
-19.429214 -3.373177 -6.4017954
-18.984352 -3.2188106 -5.0542054
-18.810553 -2.8630276 0.039829314
-19.251978 -2.9182696 0.6656005
-19.565062 -2.7976136 1.5416144
-19.166342 -2.7239156 1.9118664
-19.860004 -1.7859056 -8.690451
-19.255476 -1.9817585 -8.410993
-19.229725 -2.0072021 -0.5487151
-19.552217 -2.2252924 2.205406
-19.747932 -1.5559237 -8.829731
-19.290361 -1.7428485 -4.8672953
-19.111284 -1.6356443 -0.9257857
-19.600737 -1.7313771 -0.34500068
-19.283579 -1.374735 2.486502
-19.246752 -1.4055341 2.5661097
-19.776556 -0.5526166 -9.12905
-18.716377 -0.78575134 -4.3073025
-19.036108 -0.7741078 -1.1021595
-19.531483 -0.57685065 2.3717337
-19.504812 0.5757766 -0.2498634
-19.382952 0.02281937 2.1492298
-19.928684 1.6570609 -10.199869
-19.191586 1.02602 0.30887452
-19.517365 2.5519269 -10.187688
-19.780384 2.1087058 -4.9738607
-18.548933 4.0462856 -0.25479227
-18.604607 4.0056405 0.42694575
-19.043457 3.7631834 -9.833256
-19.51957 4.2525 -9.232084
-18.564129 4.4846487 -0.10670238
-18.58197 4.5353866 0.45921308
-19.316551 4.7858915 -8.238657
-18.946264 4.7774982 -7.4598184
-18.374258 -3.6965272 -7.1670775
-18.409657 -3.9378831 -6.3073187
-18.124287 -4.057492 -4.4335017
-17.65042 -4.440641 -3.7265222
-18.303131 -3.469245 -7.4474993
-17.860683 -3.1930137 -3.6488063
-18.02408 -3.1737561 -0.54291534
-18.681591 -3.1512446 0.5608676
-18.619385 -3.10196 1.2666239
-18.073753 -2.799999 1.9994215
-18.319494 -2.462841 -8.264368
-18.39775 -2.8178232 -4.163307
-18.48081 -2.3887944 2.2641816
-18.708885 -1.9089377 2.5302227
-18.477585 -0.9560785 -8.502174
-18.036505 -1.64369 -3.696393
-18.1162 -1.6044941 2.4828153
-18.993015 -1.5182232 2.5290453
-18.510836 -0.31989914 -8.915789
-18.004026 -0.52957064 -3.7052963
-18.441671 -0.75085634 -1.3197306
-18.936802 0.4818838 -9.335285
-18.790585 0.34086245 2.0140624
-18.383757 2.0459619 -9.90179
-18.325539 1.7307475 0.7787939
-18.100946 2.869008 0.8631318
-17.75118 3.358377 -4.170196
-17.902573 3.4980888 -1.0923463
-18.447954 3.397968 -0.24694379
-18.415943 3.3191788 0.20260653
-18.343525 3.4953003 0.93132436
-17.70118 3.4589434 2.2872884
-17.574686 3.2962596 3.5527778
-18.00299 3.772494 -9.906408
-18.082262 4.1148915 -9.6385145
-18.093473 4.7608776 -0.9004015
-18.492094 4.69678 0.7347491
-18.177637 4.4747405 1.4033449
-17.575968 4.779466 2.3028197
-18.249361 4.9700294 -7.066568
-18.289518 4.9067435 -0.58143467
-18.209185 5.238466 0.5591805
-18.07644 5.236078 1.0781232
-17.601957 6.8439736 -4.292138
-17.766712 6.5897818 -3.257932
-17.607775 6.439852 -2.5361917
-17.698166 7.1751537 -4.1226397
-17.895983 7.6208215 -3.5159996
-17.964134 7.3915787 -2.9824562
-17.778927 8.310763 -3.208681
-17.764448 8.320913 -2.7763202
-17.676672 7.980445 -2.1943696
-16.576832 -10.794196 -0.50742877
-16.675577 -10.267524 -0.9804528
-16.67274 -10.397125 -0.54399896
-16.63816 -10.341265 0.019805431
-16.638428 -9.495477 -1.2311974
-16.771288 -9.652773 -0.49455595
-16.647959 -9.571316 0.14793393
-16.611849 -9.024252 -1.1486167
-16.556902 -8.499453 -0.42639738
-16.611246 -6.926854 -4.0927114
-16.948105 -6.046466 -4.3492575
-17.235365 -5.961109 -3.8873162
-16.855612 -6.327072 -2.8515303
-17.29279 -5.584271 -3.561257
-16.681303 -5.444567 -2.2114248
-17.604229 -4.2798004 -6.168616
-17.3144 -4.847277 -3.496439
-16.968615 -3.8856032 -0.327372
-17.864132 -3.032243 -7.962329
-17.725355 -3.104943 1.4604576
-17.747948 -2.7843127 2.0772886
-17.545607 -2.3504968 -8.253722
-17.778881 -1.4000411 2.3432832
-17.102505 -1.3520668 2.5869443
-17.340708 -0.9000218 2.645805
-17.534464 0.6541947 -1.6907048
-17.363762 1.4851595 -9.860849
-17.125753 1.3785716 -2.492016
-17.228973 2.1690042 2.3535402
-16.9053 1.6253533 3.4110343
-16.859064 1.7387018 4.5567775
-16.978552 1.9633977 5.038718
-17.056334 2.8745084 -10.4248905
-17.290709 2.3011637 4.747437
-17.026775 2.5174322 5.2546415
-17.270287 3.4926581 -10.259949
-16.66341 3.2264435 -2.0334244
-17.434359 3.218935 3.6965432
-17.299753 3.6630802 4.232027
-17.071531 3.2595923 5.183411
-17.155987 4.36779 -9.728105
-17.255922 4.576228 -2.2110891
-16.980589 4.4018197 4.3675594
-16.792147 4.3628125 4.8071136
-17.22502 4.743454 -9.106712
-17.46383 4.9128385 -8.391843
-17.2476 5.1848707 -7.6289067
-17.371216 5.1458383 -5.337805
-17.32835 5.9438686 -2.3790612
-17.452698 5.604511 1.7514315
-17.469337 5.3423023 2.1359825
-17.170834 5.042596 3.2369938
-17.004286 6.170272 -5.0833664
-17.235996 6.1312594 -1.3519655
-17.446533 5.8363724 -0.46264616
-17.324217 6.044846 0.69935894
-17.332294 6.006375 1.2796159
-17.113373 7.64997 -4.817706
-16.824608 7.693613 -1.1240743
-17.075508 7.826598 -4.7357583
-17.26748 8.330251 -4.198954
-17.510483 8.502295 -2.510624
-17.396746 8.160999 -2.0443332
-17.128727 9.009806 -3.369412
-17.164864 8.942222 -2.6049242
-16.839275 8.836909 -1.7807289
-15.810063 -11.668091 -0.3029628
-15.857056 -11.652596 -0.05933901
-16.108578 -11.062166 -1.1678137
-16.131014 -11.31523 -0.43134597
-16.143293 -11.160599 0.16590863
-15.81204 -11.023996 0.75218797
-16.082605 -10.66038 -1.7562021
-16.417414 -10.424564 -1.3191639
-16.378323 -10.539881 0.34938234
-16.001791 -10.433038 0.92640054
-15.914401 -9.729227 -2.2244978
-16.497856 -9.816529 -1.6695783
-16.212484 -9.249114 0.69537795
-16.116854 -9.695103 0.96279657
-15.890253 -7.797257 -3.979458
-16.403748 -8.48621 -0.524247
-16.127779 -8.66542 0.67866707
-15.797972 -8.599987 0.9079918
-15.966188 -6.928431 -4.8641043
-16.230713 -7.2942157 -4.2909517
-16.329601 -7.447067 -3.7004564
-16.175915 -7.5309424 -2.8221078
-16.349516 -7.0744233 -1.4409046
-16.308754 -6.4021487 -4.94445
-16.340157 -6.736679 -0.71678865
-15.785905 -6.2308273 1.1308117
-15.724432 -6.178509 2.3864048
-16.557068 -5.220112 -5.333523
-16.304897 -5.8492856 -0.9609835
-15.76171 -5.438678 3.0087218
-15.625165 -5.0125246 4.860034
-17.048193 -3.7479148 -7.0319457
-16.647625 -4.1106853 -6.309273
-16.27569 -4.6627903 -0.22405855
-15.909633 -4.361267 3.3087797
-15.753152 -4.684803 4.3828435
-15.855743 -4.3261437 5.4665627
-16.218557 -3.8568635 6.148665
-15.78894 -4.0677915 7.5589976
-15.683251 -3.8441367 8.056076
-16.71821 -3.0726888 -7.521148
-15.884332 -3.4059792 3.6178315
-15.791393 -3.5103507 4.233545
-16.142595 -3.4131603 5.6300144
-16.213425 -3.519022 6.4237623
-16.04012 -3.471856 7.4690948
-15.770211 -3.4575806 8.169197
-16.886114 -2.06102 -8.094161
-16.55363 -2.4868958 2.5675144
-16.213535 -2.6130946 5.894698
-16.190578 -2.7351708 6.601007
-16.042473 -2.5130196 7.246444
-15.81339 -2.347349 7.920038
-15.719782 -1.1514689 6.078392
-15.923666 -1.6499798 6.752932
-15.796723 -1.228048 7.360711
[...]
POINT_DATA 3321
SCALARS features_00 float 1
LOOKUP_TABLE default
0.62789345 0.66120785 0.66019666 0.639692 0.66399467 0.683943 0.6806847 0.6467604 0.62375087 0.7036541 0.7004707 0.68404466 0.6401717 0.6957278 0.4943897 0.5304533 0.5231687 0.5291637 0.56007755 0.602147 0.6077401 0.62741756 0.5808567 0.64784336 0.6647287 0.6020442 0.6957623 0.7033371 0.6194923 0.57322556 0.7099237 0.6811221 0.6672013 0.6326688 0.629069 0.6162876 0.5627782 0.48721963 0.48132005 0.44730875 0.84685516 0.8691132 0.47976732 0.4884197 0.47710323 0.45083547 0.38335222 0.8516107 0.9080279 0.92132425 0.5097022 0.4933148 0.86145985 0.8982223 0.91315734 0.5479307 0.85710955 0.6145241 0.5058378 0.6825038 0.43220758 0.6868057 0.5483717 0.6077507 0.5501219 0.5267247 0.4913334 0.75589263 0.816429 0.48717484 0.49210453 0.45458212 0.3940298 0.7223924 0.7846067 0.85651326 0.87056553 0.46199417 0.34611848 0.27360258 0.7187062 0.77917135 0.89763117 0.7738793 0.8906586 0.50052387 0.41993427 0.63485056 0.7990198 0.83867264 0.84771 0.5851046 0.37099344 0.6955482 0.61541355 0.37869602 0.5927964 0.42078063 0.5378444 0.48487118 0.46267855 0.43022996 0.4706095 0.42602968 0.46136087 0.46151015 0.47425216 0.46605277 0.35087103 0.60779786 0.6995792 0.77195334 0.71083033 0.45586583 0.4333943 0.6015662 0.7590474 0.43053624 0.21390891 0.5585174 0.6386181 0.6847057 0.6662824 0.38680822 0.10563512 0.55257285 0.77656865 0.56009245 0.76251996 0.4674849 0.42921686 0.49053675 0.31033292 0.401878 0.39416456 0.44428945 0.4566197 0.40756017 0.40444592 0.38779062 0.33941776 0.44406748 0.44743636 0.15574175 0.15566802 0.4427392 0.14377989 0.38732463 0.620317 0.6591133 0.5439114 0.39849985 0.16869701 0.56486243 0.55897367 0.29415458 0.09534992 0.45910567 0.60635227 0.22170176 0.015921392 0.48485446 0.20804626 0.63892794 0.32349786 0.06594592 0.21261154 -0.1460245 0.3129816 0.36404786 0.35089523 0.32586598 0.26926896 0.35321718 0.41876492 0.40335375 0.35863048 0.40087503 0.37062842 0.28454494 0.23241252 0.38850662 0.39019793 0.36810568 0.49532425 0.4619323 0.37399977 0.55841494 0.6035377 0.5328021 0.59557927 0.53892493 0.4522381 0.71435565 0.67339426 0.6989237 0.71433234 0.6137075 0.6547153 0.66145754 0.554742 0.4979814 0.44963795 0.49138373 0.40757787 0.310023 0.2972294 0.09536343 0.342639 0.19398771 0.0721623 0.40333292 0.5226342 0.46881697 0.32461205 0.40961683 0.28862545 0.32835817 0.23184907 0.30385265 -0.43669742 0.24063402 0.35757214 0.34074205 0.33748364 0.49380842 0.39633924 0.34968078 0.46465322 0.09884804 0.37753227 0.37746015 0.40487507 0.43970576 0.15173072 0.271738 0.27577743 0.3921752 0.31213105 0.23959807 0.08200963 0.25780806 0.2641092 0.26112384 0.21128488 0.32119247 0.19429272 0.282412 0.2692977 0.24705875 0.50112146 0.2426438 0.5154299 0.6054562 0.49338692 0.42413178 0.565372 0.48258746 0.39011693 0.70200074 0.7003933 0.69159615 0.72006524 0.7164278 0.6831329 0.633286 0.6607642 0.72128576 0.6888008 0.5066308 0.60459566 0.591099 0.6249766 0.4011242 0.4861067 0.4931269 0.4308989 0.42757088 0.42910188 0.427114 0.37605524 0.0928041 0.45323658 0.01806134 0.06420166 0.13926624 0.35437176 -0.07020168 0.17793903 0.27194858 0.3478526 0.21951258 -0.21919109 0.16644368 0.22728634 0.3482327 0.43000716 0.5984785 0.63325566 0.25534213 0.08186509 0.20015979 0.33598536 0.4462191 0.5486069 0.6144206 0.1942911 0.1945754 0.32045487 0.3974599 0.42991537 0.47227806 0.27400467 0.31774628 0.30066374 0.3499091 0.2738183 0.26025575 0.26205903 0.14654975 0.20896779 0.093172655 0.18470857 0.55272704 0.16399102 0.5314261 0.14421697 0.4892859 0.266833 0.41484958 0.36677516 0.22308195 0.14952663 0.1393173 0.0989891 0.14465177 0.3969682 0.039199296 0.08078397 0.44687086 0.32604972 0.20869389 0.20075004 0.43985456 0.47501016 0.5065818 0.4283363 0.37731993 0.2985267 0.4606322 0.41773024 0.38615784 0.68144685 0.6661053 0.57330847 0.6171795 0.6668308 0.6629194 0.654821 0.5247767 0.5998421 0.57881474 0.4373027 0.3859044 0.37992793 0.3900061 0.25011593 0.16617554 0.40084156 0.40862238 0.13736324 0.11149053 0.3690987 0.41189337 0.15163195 0.2093484 0.22579351 0.3840375 0.29514134 0.48033273 0.61301965 0.65086854 0.6082276 0.6687225 0.68716407 0.1475558 0.66046864 0.68993974 0.60855484 0.61795014 0.08852516 0.36918813 0.13831852 0.23025665 0.25109988 0.4017028 0.31531778 0.17851569 0.20608309 0.08926326 0.1913429 0.51944613 -0.00394296 0.0353389 0.2879144 0.5782288 0.08335859 0.077110514 0.36758897 0.5944286 0.097160555 0.47232193 0.41735673 0.3745976 0.1734423 0.14148718 0.15697221 0.0798331 0.11572472 0.2017504 0.20353042 0.3331008 0.16218317 0.19104034 0.35733563 0.2352525 0.23237482 0.39924437 0.40794188 0.31198978 0.27938163 0.3154388 0.29166734 0.4286825 0.44802365 0.39142954 0.3608398 0.33764726 0.6371604 0.5795558 0.57249117 0.58507687 0.61613035 0.5640186 0.5821978 0.48751265 0.49780875 0.5127774 0.55252326 0.44756627 0.079728864 0.36307645 0.17349422 0.36427683 0.22672212 0.3350693 0.47812036 0.5911327 0.64092326 0.64903426 0.67041576 0.23437543 0.68634427 0.17940798 0.22493553 0.66473746 0.2122749 0.338936 0.4274762 0.45516777 0.33053067 0.34621033 0.46330065 0.5239748 0.41968083 0.5049257 0.5502994 0.44472456 0.5647951 0.5614117 0.3493601 0.52018994 0.56570435 0.53644365 0.38016915 0.50702477 0.1730791 0.14310364 -0.0039003417 0.21259019 0.23105663 0.19148234 0.21519127 0.23784807 0.21899721 0.13542508 0.14766315 0.20605111 0.3126752 0.3376674 0.3040163 0.25714955 0.3924646 0.31631234 0.30139154 0.33216566 0.35988218 0.3585096 0.56872845 0.49730122 0.5749494 0.5751538 0.37248138 0.2337037 0.5329545 0.518825 0.38618892 0.2492246 0.012262575 0.32304823 0.078849316 0.27105933 0.10046373 0.14194714 0.041310355 0.29206645 0.49139994 0.5211977 0.118566796 0.56032264 0.5934051 0.17972723 0.5999728 0.2666456 0.5080303 0.3067324 0.30289906 0.4883649 0.503238 0.5336783 0.5150926 0.41441226 0.5342626 0.5921825 0.51850444 0.48425746 0.60825944 0.6324098 0.5343239 0.51666296 0.6165433 0.64637977 0.48585662 0.3936562 0.54179287 0.6222927 0.2184341 -0.08118521 0.16816628 0.22932813 0.41503996 0.14189118 0.19886136 0.47686183 0.2995641 0.23153874 0.17980763 0.28538015 0.35069844 0.3622285 0.33603013 0.2815863 0.5143924 0.2824766 0.11157033 0.11951237 0.2068765 0.45228535 0.36184442 0.25740406 0.36024925 0.09112415 -0.020596445 0.009316582 -0.0023618117 0.20591256 0.07980907 0.39798272 0.4579541 0.20717353 0.12397706 0.28042328 0.4370204 0.26683918 0.26674715 0.346896 0.34398258 0.44912603 0.35926467 0.5083524 0.5283382 0.5502505 0.26960903 0.5913223 0.25004247 0.03292257 0.63192266 0.3830706 0.11686061 0.63598716 0.6406183 0.55360764 0.62305826 0.18741234 0.19426091 0.57069045 0.20209657 0.18296458 0.18107474 0.62424254 0.24655117 0.6376592 0.61965656 0.5174843 0.030297853 0.24275093 0.2915926 0.48064268 0.26407743 0.18780741 0.22237188 0.2507074 0.22337627 0.35097834 0.37359887 -0.17195432 0.3348183 -0.2124328 0.28517014 -0.010455827 0.07421085 -0.0404653 0.029379167 -0.07624055 0.06718135 0.0967374 0.14827351 0.1502179 0.12396955 -0.02007157 0.26580936 0.36697313 0.37632746 0.31802282 0.38769138 0.49486893 0.37444627 0.3301916 0.53098786 0.5512981 0.0663033 -0.2096633 0.5032381 0.5757664 -0.11227314 0.54600483 0.59113055 -0.040109687 -0.32625324 0.58093345 0.4457825 0.13664128 0.16602299 0.5541706 0.1796577 0.18806134 0.6310564 0.6506218 0.15361741 0.044173732 0.3203251 0.42055917 0.6735551 0.652251 0.22576648 0.07234081 0.06663379 0.0069315927 0.1401264 0.13835621 0.45654237 0.47720617 0.51913965 0.6221785 0.54654276 0.40753025 0.26580033 0.19300777 0.41384742 0.317842 0.27289748 0.23489666 0.27080518 0.28454784 0.5015366 0.42312622 0.3942212 0.2750754 0.35513628 0.49812 0.47213867 0.41426086 0.42657322 0.3344983 0.38316 0.22159001 0.08695278 0.032481726 0.12159203 0.033219263 0.111692056 0.20017636 0.2040174 0.0156889 0.2262226 0.007793851 0.24760231 0.008641422 0.17597814 0.39356968 0.2960345 0.40199816 0.38624722 0.3706198 0.2576552 0.46140966 -0.2708644 0.44439816 -0.30796325 -0.24594954 0.4375563 0.37197816 0.32265553 -0.07210618 0.036422692 0.37033665 0.50777745 0.45802832 0.44511706 0.19591047 0.59646094 0.57151556 0.6357311 0.65585124 0.014459543 -0.16762012 0.17223704 0.4138577 0.6081919 0.6814575 0.6966237 0.14138797 0.04218386 0.09145159 0.41884872 0.54231006 0.55943143 0.627037 0.673082 0.67131233 0.5764538 0.20199105 0.17072845 0.63838685 0.68784684 0.6964528 0.32540196 0.39897186 0.30747047 0.21274495 0.18179208 0.26354223 0.5070493 0.49344555 0.26749465 0.28634775 0.4972545 0.50125957 0.26282787 0.39224234 0.49458206 0.49006265 0.43487304 0.4782589 0.4189126 0.41245186 0.3704979 0.44030127 0.24962938 0.031701192 0.21680185 0.12345018 0.20862654 0.28425837 0.29704857 0.07438415 0.30035025 0.04811087 0.3083622 0.0667025 0.2890242 0.068809606 0.1698977 0.014035057 -0.14041573 -0.16251004 -0.3316464 -0.011410594 -0.121587634 0.46531254 -0.046254747 0.46557242 0.102770455 0.47982612 0.58294237 0.6014849 0.63508654 0.022217315 0.6868676 0.73973227 0.6886424 0.68878615 0.21345514 0.29423863 0.37474263 0.72137326 0.7690173 0.44222608 0.22596401 0.22759506 0.23634668 0.42480734 0.6191228 0.6891425 0.7346615 0.7510855 0.7882464 0.7570385 0.78666794 0.7943034 0.7269198 0.72345066 0.70065 0.703545 0.68665385 0.61095923 0.6628729 0.62526345 0.581866 0.5686457 0.48134392 0.36932537 0.29993132 0.4125817 0.14978625 0.19743134 0.4729702 0.21166848 0.49186003 0.4931467 0.49150187 0.49382907 0.37845722 0.49667224 0.38355643 0.51010454 0.5161215 0.24815561 0.53677386 0.09536968 0.21519819 0.2451928 0.09843564 0.28283513 0.112098046 0.30264956 0.31174272 0.30370897 0.063139364 0.35014862 0.04685808 0.33070666 0.03986623 0.037169285 0.26786906 0.07374983 0.09583965 0.10565906 0.06332216 0.04101932 0.10997032 0.04305552 0.09737409 -0.3179115 0.025288101 0.36162382 -0.0049835704 0.45739216 -0.03936646 0.08062807 0.47774404 0.48811167 0.32747516 0.52360123 0.06413823 0.62353975 0.5739823 0.5199232 0.17118417 0.11134064 0.77578366 0.59641886 0.523837 0.19649816 0.25279638 0.3881687 0.8106164 0.24631175 0.25326505 0.24598977 0.22346038 0.51111186 0.57797563 0.83258677 0.8243226 0.7013545 0.8074514 0.8460227 0.8397229 0.73665535 0.74832666 0.74287844 0.69075364 0.70969653 0.7328597 0.6393702 0.5126203 0.6818508 0.5171052 0.42213762 0.3862899 0.42304516 0.11623214 0.46932653 0.46160784 0.48979658 0.4808023 0.33063173 0.50971335 0.51110923 0.3202057 0.524886 0.21997428 0.40692633 0.20265947 0.21171215 0.26715806 0.16937108 0.27354863 0.28726292 0.20706797 0.33762056 0.344867 0.086890556 0.32019815 0.16128981 0.035281926 0.107323535 0.14761311 0.14267819 0.1292063 -0.024918765 0.08744374 0.113782585 0.2882694 0.46856937 0.45272583 0.2832617 0.618132 0.3732432 0.06315043 0.7803027 0.1568562 0.16165854 0.15234794 0.855372 0.1929744 0.26703632 0.24956572 0.4630178 0.5753079 0.88239145 0.88234764 0.7331259 0.81620467 0.96461225 0.91124296 0.7406531 0.7723995 0.7755219 0.6544691 0.7046354 0.57276785 0.63847387 0.41069806 0.32910156 0.38536242 0.23332821 0.2622656 0.05687942 0.3741432 -0.021308526 0.43930554 0.0057153404 0.47585875 0.51798654 0.24108094 0.5222688 0.14648896 0.5152206 0.0024909899 0.10703931 0.22698526 0.24648452 0.36475882 0.27565765 0.27868688 0.09226873 0.13003145 0.11597899 0.0077469125 0.0039532855 0.016138442 0.14064261 -0.060265303 0.13320194 0.11642029 0.12567633 0.28969938 0.2397052 0.07155426 0.18379992 0.23603073 0.026008992 0.1900423 -0.010452699 0.15040077 0.17754768 -0.035725668 0.28001115 0.30499756 -0.16709223 0.43716472 0.53838265 0.042271167 0.078015745 0.47821727 0.6736413 0.21623889 0.11994368 0.109852105 0.47737253 0.61443335 0.65518486 0.8660871 0.84192175 0.31829035 0.28945053 0.2544463 0.21417923 0.17555049 0.5930938 0.7850855 0.9360558 0.98644334 0.9844954 0.7552056 0.6512847 0.6588216 0.51761055 0.46754968 0.57875526 0.3605236 0.2837781 0.5075659 0.023018464 0.62550545 0.67014647 0.30115452 -0.06432505 0.4072854 0.6119063 0.6593815 0.71740645 0.7424481 0.42820275 0.71890914 0.764771 -0.098175794 0.2815029 0.4862721 0.51727915 0.45074582 -0.14345685 -0.060796954 0.034750134 -0.05289188 -0.03964811 0.3851343 0.1663008 0.38638645 0.4773839 -0.015640542 0.4871073 0.35305217 0.021694258 -0.1382169 0.071176104 -0.07951625 -0.24258657 0.11346439 0.087591276 0.08680202 0.040689565 0.11539939 0.00045865774 0.07249728 -0.05256726 0.25459066 0.44877124 0.018028378 0.100400895 0.25475988 0.0029480308 0.040652014 0.09604646 0.15563917 0.5158679 0.60020554 0.12947994 0.1230404 0.06186539 0.35894054 0.36208105 0.27440733 0.4064356 0.41944978 0.3905592 0.2956987 0.67972624 0.59389675 0.6086792 0.53194916 0.35073805 0.5566579 0.2012611 0.45136392 0.1536787 0.5681514 0.30175993 0.46748346 0.5925927 0.6632757 0.71036947 -0.0061409324 0.7061226 0.74873567 0.042169973 0.8056899 -0.032051004 0.7950326 0.80810225 0.40069768 0.5030089 0.07567261 0.49793595 0.5766622 -0.059979185 0.5151678 0.050304394 0.44504938 0.5030871 0.41819054 0.37969023 0.5503669 0.5391518 -0.05326934 0.55402416 0.5285739 0.48861623 -0.18652064 -0.021049839 0.020733193 -0.08173766 0.019967847 0.61113834 0.5825493 -0.023045255 0.08233251 0.5720468 0.23972972 0.3295529 0.12631153 0.318955 0.06947352 0.2989833 0.3654332 0.19396864 -0.009579934 0.43782878 0.48705208 0.4769059 0.4022535 0.0784024 0.12981653 0.47865263 0.47540325 0.43894798 -0.018919997 0.09611388 0.43317616 0.3823266 0.14452133 0.27115145 0.3467965 0.23578474 0.4198948 0.46090668 0.38346118 0.3086533 0.45617813 0.91551876 0.80811054 0.8891247 0.9120436 0.8982389 0.86372894 0.91484743 0.90838003 0.8744643 0.49131662 0.41789836 0.41979253 0.104012996 0.2902503 0.34175313 0.50027514 0.59646606 0.65255314 0.71665645 -0.040594473 0.75370234 0.7880758 0.75999266 0.11983171 0.4068693 0.4131774 0.5062643 0.13448933 0.5942596 0.63398886 0.012052497 0.6325952 0.61824965 -0.055364408 0.5531098 0.51038396 0.40820938 0.3909573 0.5523759 0.5408197 0.08865683 0.23914158 0.5551937 -0.32755202 0.4884079 0.29796994 0.373532 0.4774117 0.50880027 0.6858984 0.5192573 -0.019325411 0.10178368 0.69660735 0.67644894 0.3319096 0.6136708 0.54314625 0.37354466 0.43624 0.3622049 0.39934242 0.3681273 0.35983634 0.37256724 0.23828025 0.3665871 0.36949867 -0.037350435 -0.020210013 0.12521014 0.4204831 -0.23271611 0.09245005 0.09387938 0.43418306 0.46257392 0.0065790936 0.42571634 0.4312085 0.28643528 0.06932115 0.113961965 0.21337588 0.26297992 0.3691301 0.44921222 0.36093354 0.43408778 0.41493565 0.7385349 0.6493876 0.60727406 0.63407207 0.665229 0.77114314 0.8089237 0.7616887 0.74382377 0.84546256 0.8730134 0.8400539 0.7886921 0.86083615 0.8640549 0.87197423 0.8473839 0.8088633 0.8080925 0.80728054 0.13438714 0.17608713 0.13711202 0.21204518 0.11319069 0.26081264 0.3143534 0.3696233 0.62147856 0.6817824 -0.24440046 0.70682657 0.7483257 0.6448041 0.37014997 0.04115239 0.0020082407 0.5984504 0.65396726 0.65649945 -0.031065915 0.66656286 0.67563564 0.61741614 0.46998817 0.460204 0.5232661 0.3522195 -0.020695865 0.5048388 -0.034634054 0.41285765 0.44912025 0.5295993 0.095271885 0.5259621 0.45520502 0.67946804 0.67967385 0.63319844 0.3518541 0.210527 0.28954437 0.6637461 0.68814695 0.30636078 0.6274513 0.38830864 0.4099577 0.29210278 0.26343095 0.3806129 0.397712 0.25964665 0.21847719 0.26493338 0.36106163 0.28850332 0.3058889 -0.11999714 0.34953243 0.37939495 0.39664474 0.12250095 0.51180965 0.39407527 0.37689978 0.18099183 0.09746079 0.26092398 0.23661748 0.29629207 0.51605266 0.47604752 0.48134607 0.446014 0.70149994 0.58902526 0.5085727 0.7712557 0.61480427 0.8423496 0.7317116 0.84153587 0.75429416 0.74684745 0.7158138 0.7296433 0.73856306 0.7170785 0.10908089 0.17077541 0.1714594 0.70708394 0.072129115 0.6368365 0.51907015 0.3747302 0.15124139 0.30754876 0.60428476 0.5053137 0.42748064 -0.25583366 0.6179052 -0.32925272 0.21051715 0.35664916 -0.11938301 0.0017536804 0.04886596 0.4330793 -0.12559801 0.6354022 0.40117985 -0.09843965 0.644961 0.6618447 0.2639801 0.083670296 0.6673519 0.6681635 0.5008023 0.28460246 -0.07760741 0.2647152 0.42550147 0.09576397 0.48935068 0.04326632 0.47051436 0.395378 0.6341723 0.61424994 0.583155 0.3502729 0.29368865 0.62590635 0.6389998 0.19840676 0.56273514 0.31931147 0.49176514 0.3323065 0.34697217 0.37109613 0.29077244 0.2884032 0.27389392 0.25997216 0.24338691 0.29595172 0.049673617 0.12773508 0.3296429 0.40622982 0.47383446 0.38402334 0.54604733 0.5729457 0.57760274 0.52962565 0.35238612 0.2843852 0.2512528 0.6497771 0.61624616 0.48920715 0.26163614 0.14819932 0.26725832 0.22061104 0.40521115 0.44847804 0.13463758 0.19609472 0.28326058 0.3498553 0.40737724 0.43054897 0.43461287 0.4147073 0.49563825 0.7554816 0.5702745 0.8380111 0.63413966 0.679852 0.6387827 0.6730284 0.6501441 0.6510392 0.62344205 0.6291616 0.6331013 0.8545525 0.8490473 0.84443676 0.7498965 0.52020854 0.3380043 0.23419227 0.050219864 0.15636592 0.8213732 0.7669407 0.35221344 0.10326855 0.74786997 0.73466897 0.67023927 0.622712 0.27106166 0.30268964 0.36320817 0.6067701 0.47679654 -0.14636064 0.50270563 -0.34729946 0.50902915 0.47690442 0.4730202 0.45287043 0.51784307 0.5070175 0.36118287 0.111085795 0.29870412 0.5316113 0.4773562 0.27897215 0.4870354 0.63835895 0.47211444 0.31656015 -0.568753 0.30637747 0.57163703 0.6497369 0.23373058 0.3377514 0.63321215 0.22771242 -0.021875251 0.3164105 0.16877002 0.283193 0.06982307 0.14618477 0.39755583 0.39872795 0.3611827 0.48896796 0.49443507 0.4348637 0.12852094 0.22176313 0.529669 0.444784 0.54679763 0.20443077 0.5112781 0.40531838 -0.045676045 0.30952707 -0.0051638484 0.3117912 0.3224333 0.124101944 0.33303976 0.17959753 0.241364 0.4766153 0.5593563 0.2299988 0.5986005 0.41924432 0.05318495 0.25465584 0.30353105 0.50849426 0.52820504 0.57568175 0.19861811 0.23356545 0.4727419 0.56524277 0.5772845 0.0775189 0.5343045 0.26478487 0.24931711 0.06515537 0.13893552 0.13545416 0.46313286 0.38958824 0.4362495 0.5004633 0.5117162 0.48741928 0.36371803 0.43596086 0.5597221 0.55760425 0.56439805 0.49094522 0.59907174 0.5442426 0.6069478 0.61205405 0.5566162 0.5765971 0.60183984 0.8667446 0.85167253 0.7241448 0.36488858 0.24526915 0.8366968 0.8534967 0.29312518 0.063091405 0.16433583 0.815542 0.8249217 0.07642037 0.050835744 0.7793069 0.79732263 0.73537004 0.33919424 0.42146194 0.68032604 0.63731956 0.5610701 0.53635025 0.5182397 -0.119408935 0.49878502 -0.26390278 0.35789335 0.41995123 0.4406257 0.47283933 0.19045633 0.3326162 0.47992533 0.075715706 0.11422456 0.49860662 0.5091922 -0.33596224 0.43790418 0.19876406 0.3899932 0.2712325 0.18461388 0.42544338 0.27770293 0.50550616 0.3768363 0.15930472 0.18614191 -0.16221836 0.19429323 0.40951306 0.34431195 0.2640893 0.1491198 0.41575754 0.3929729 0.32183498 0.50772715 0.483004 -0.20494586 0.5194779 0.48123908 -0.25369537 -0.2213907 0.3509017 -0.23685676 0.2754357 -0.045864683 0.26929602 0.022368632 0.31166726 0.033076003 -0.046434674 0.5676143 0.59148127 0.6079767 0.37755945 0.21760601 0.41618454 0.14419468 -0.08144148 0.6126636 0.30271137 0.13400495 0.4608205 0.505692 0.058339864 0.55510104 0.58781916 0.28284687 0.23502678 0.18340832 0.041989494 0.46481752 0.51873875 0.36784792 0.50042856 0.36259785 0.5151424 0.6268004 0.62051475 0.5694461 0.37930906 0.5426663 0.5204968 0.5306933 0.3916242 0.42944318 0.5349168 0.6132809 0.85634017 0.84225464 0.7470799 0.5483809 0.3636582 0.2572604 0.5359385 0.5409015 0.8265527 0.8441344 0.35388392 0.32722634 0.80666906 0.7636657 0.751812 0.26630288 0.3632692 0.7120447 0.48072654 0.6484472 0.60252666 0.5102583 0.35990515 0.49684277 0.44646937 0.31442356 0.35330564 0.39031225 0.35876223 0.20270675 0.38231456 0.38153967 0.42968398 -0.013566192 0.18578431 0.29260424 0.3420332 0.4349478 0.46429408 0.43769354 0.5332133 0.32094795 0.5400866 0.12038194 0.6106832 0.033995282 0.065654516 0.13692015 -0.026062116 0.12221475 -0.1261862 0.17451271 0.3405938 0.31498462 0.30017692 0.43479604 0.39108038 0.313752 0.042048328 0.4818182 0.44388098 0.39949298 0.45841372 0.43185657 -0.19930544 0.41587374 -0.015724778 0.2579288 -0.010974124 -0.00398992 0.28449476 0.39326155 0.63166857 0.49694625 0.1479695