# vtk DataFile Version 2.0
Really cool data
ASCII
DATASET POLYDATA
POINTS 8691 float
-6.592911 33.089005 16.541077
-6.5909915 33.069847 17.366028
-6.710651 33.599648 16.5872
-6.7564435 33.763508 17.526268
-6.6345735 33.731724 18.031776
-6.6322355 33.96926 16.141191
-6.7760735 34.414246 16.776548
-6.874958 34.709164 17.45567
-6.7193785 34.595608 18.427996
-6.6060505 34.71651 18.817774
-6.713111 35.286926 17.013597
-6.840672 35.333622 17.502836
-6.757223 35.442524 18.304081
-6.6164136 35.267994 18.746315
-6.6981735 35.92854 17.753296
-6.653357 35.91802 18.173708
-5.7568483 17.291965 33.588455
-5.7235184 17.13143 34.47001
-5.762938 17.975214 32.01143
-5.8916807 17.900404 32.578133
-5.982906 17.810823 33.446136
-6.034781 17.695038 34.560654
-5.9270945 17.751104 35.254597
-5.848771 18.392046 31.870352
-6.0576243 18.458897 32.636368
-6.1748095 18.396734 33.55866
-6.2345753 18.468987 34.5407
-6.113724 18.55334 35.23818
-5.8124638 18.68326 35.858295
-5.7407193 19.11092 31.708189
-5.929999 19.312037 32.475533
-6.0624814 19.41441 33.511642
-6.173624 19.257235 34.404316
-5.9837565 19.213398 35.401264
-5.786543 19.16192 35.908695
-5.6323605 20.422447 33.592712
-5.587539 21.724398 31.28482
-5.6463466 21.657574 32.34435
-5.72382 22.566332 31.20581
-5.743822 22.50101 31.604303
-5.8670607 22.625553 32.304783
-5.9080005 23.200848 33.88865
-5.829001 23.262457 31.644787
-6.1662307 24.069313 32.63123
-6.2054734 23.864191 33.80397
-5.997251 23.887045 34.35041
-5.742824 24.975595 12.759424
-5.7288904 24.861458 13.239775
-5.690419 25.001211 14.172651
-5.811238 25.066212 18.83828
-5.8006954 24.961788 19.41536
-5.708249 25.001497 20.267197
-5.961465 24.510065 32.054226
-6.2461805 24.61578 32.632744
-6.342801 24.601816 33.37771
-6.0626783 24.271921 34.356686
-5.752618 24.733942 34.89151
-5.6654186 25.4844 12.221528
-5.823635 25.445765 12.585187
-5.922208 25.479584 13.455665
-5.91094 25.806637 14.305429
-5.749495 25.831398 15.1990595
-5.7031517 25.483696 18.15324
-5.9136305 25.702068 18.665792
-5.977619 25.557383 19.424332
-5.8129854 25.54354 20.298157
-5.8065405 25.031166 32.035263
-6.1412463 25.241987 32.675373
-6.247461 25.321177 33.32379
-6.1165247 25.34346 34.141453
-5.7596474 25.440212 34.87312
-5.759905 26.237625 12.723815
-5.931314 26.31578 13.5273905
-5.915705 26.623516 14.5810175
-5.810803 26.648249 15.516457
-5.580477 26.80649 16.11421
-5.880674 26.262354 18.722212
-5.9312115 26.313576 19.397823
-5.7843037 26.253641 20.290306
-5.7502346 26.346281 33.866524
-5.7507644 26.297031 34.411537
-5.6296415 26.140793 34.944214
-5.6562138 27.204012 13.700246
-5.8239365 27.28384 14.656454
-5.6952763 27.39591 15.328109
-5.67391 26.780434 18.935938
-5.7023425 27.004396 19.537062
-5.5669546 26.980097 20.41072
-5.840706 32.1955 16.616907
-5.760872 32.22424 17.340445
-5.5845127 33.066196 14.849611
-5.676305 32.37606 15.556304
-6.3929543 32.80204 16.591993
-6.2335606 32.755028 17.4916
-6.125479 32.979134 18.139984
-5.757771 33.620663 15.0320635
-6.3090267 33.619194 15.678379
-6.4287586 33.670696 18.527098
-6.1846604 33.7994 19.087837
-5.762659 33.98687 19.735903
-6.5433893 34.25612 18.777836
-6.2523355 34.524456 19.276588
-5.8554516 34.37228 19.751493
-6.1691093 35.179287 16.012014
-6.526599 35.665867 16.881338
-6.57489 35.661854 18.60191
-6.124117 35.405323 19.22601
-5.788494 35.072926 19.694656
-6.2489533 36.066063 16.98358
-6.2519674 36.301403 17.55701
-6.2491984 36.246834 18.291538
-6.1514425 35.93913 18.859371
-5.9550114 36.51506 17.929283
-4.547583 16.88503 23.703573
-4.6379423 17.057331 24.29048
-5.257991 17.219753 32.781242
-5.2740774 16.95967 33.687214
-5.4606943 16.869152 34.519382
-5.3343897 17.002008 35.256752
-4.645234 17.611616 23.591934
-4.789986 17.676813 24.365292
-4.6619864 17.735191 25.056593
-5.275612 18.1296 31.260605
-5.3808756 18.026525 31.458963
-5.5929823 17.595022 32.392437
-5.478243 17.425344 35.635754
-5.2349224 17.737944 36.09754
-4.5328264 17.51032 38.218628
-4.703504 18.211172 23.90618
-4.719707 18.389725 24.50314
-4.662691 18.231876 25.053576
-5.366845 18.620462 31.19429
-5.347074 18.679344 36.45538
-4.836445 18.842434 37.18414
-4.984904 19.464348 30.871574
-5.5104356 19.378555 31.488401
-5.493661 19.248667 36.15864
-4.888376 19.589163 36.90176
-5.1205277 20.416714 30.925749
-5.370643 20.668118 31.901707
-5.3368454 20.530752 35.338696
-4.810159 20.55564 36.64364
-5.0823145 21.46015 30.74828
-4.993175 21.841356 34.618526
-4.634296 21.09796 36.468006
-4.7107477 23.294495 19.182451
-5.1943703 22.39692 30.720419
-5.007777 24.2454 12.697294
-5.10269 24.122936 13.43897
-5.0592837 24.108225 14.442702
-4.751001 24.297743 17.03411
-4.9685645 23.954708 18.091293
-4.91315 23.58143 19.003084
-4.918582 23.593878 19.705593
-5.0593877 23.981874 20.29099
-4.7100234 24.096151 20.95084
-5.243574 23.330868 30.909723
-5.341481 24.874807 12.092076
-5.4579153 24.712442 12.589292
-5.501915 24.543222 13.515718
-5.427031 24.644722 14.487954
-5.092809 24.673775 15.343276
-5.0469537 24.848076 16.23066
-5.256756 24.567652 17.900482
-5.5658207 24.72768 18.694815
-5.5236893 24.342754 19.289766
-5.39379 24.605276 20.559792
-5.1212087 24.71475 20.966526
-4.976685 23.969837 31.01215
-5.2754574 24.56705 35.260098
-4.8284636 25.037418 35.59639
-5.3258924 25.658459 11.901352
-5.546161 25.26787 14.849342
-5.508163 25.430191 15.930271
-5.3342185 25.384733 16.451925
-5.5442796 25.175322 20.700167
-5.2955694 25.424295 21.045315
-5.460527 25.53599 32.047256
-5.4214716 25.61836 35.25907
-4.8849454 25.921782 35.63802
-5.2905526 26.133942 11.929864
-5.486202 26.599506 12.462952
-5.2110353 26.766342 17.033567
-5.4621983 26.609417 20.70948
-5.2112637 26.344755 21.100517
-5.000115 26.19583 32.274143
-5.4199123 26.256676 32.783592
-5.50564 26.471798 33.304195
-5.5218334 26.67149 34.540504
-5.337694 26.4364 35.13961
-4.894847 26.107967 35.622143
-5.136318 27.163736 12.638459
-5.460433 27.234282 16.135265
-5.3253527 27.179539 18.905073
-5.5125437 27.141096 19.17846
-5.3268986 27.369633 20.542946
-5.028503 27.329687 21.08506
-5.1153226 26.819105 33.176395
-5.15964 27.02952 33.839626
-5.196727 27.01468 34.483273
-5.108146 26.87243 35.02653
-4.843479 28.404894 13.959394
-5.0770445 28.56684 14.92484
-5.2330613 28.374964 15.316329
-4.9131002 28.357525 16.808802
-4.91739 27.980465 19.68658
-5.021841 27.915937 20.27987
-4.8117266 27.853466 20.966707
-4.6044803 29.176012 14.737057
-4.683646 29.285854 16.687792
-4.671159 28.88412 17.444714
-4.8012304 31.922644 14.007872
-4.8232703 31.793257 14.503369
-5.1951957 31.973856 15.56769
-5.2316227 31.809126 16.833784
-5.37573 31.881838 17.105
-5.032351 32.104214 18.260706
-4.665351 32.995457 10.34227
-5.1046576 32.70734 14.064803
-5.4524946 32.826477 14.85804
-5.062831 32.887028 19.237137
-5.265327 33.25206 19.71934
-4.832745 33.95156 9.0700245
-4.9600377 33.782932 9.59667
-5.0901494 33.698044 10.490851
-5.020955 33.77838 11.127152
-4.947466 33.631832 13.023264
-5.206024 33.460434 14.004695
-5.489724 33.8262 14.532982
-5.653206 33.409 19.475508
-5.376047 33.834034 19.948187
-4.8469563 34.67822 8.961273
-5.135324 34.674007 9.424197
-5.259094 34.474987 10.468925
-5.097 34.153275 11.185586
-5.056508 34.834038 12.131667
-5.1612163 34.15421 13.967932
-5.499707 34.197193 14.946565
-5.386475 34.417114 20.054918
-4.8377066 35.217335 8.980851
-5.0947204 35.27354 9.601003
-5.151525 35.29594 10.323305
-4.9858036 35.33826 11.471348
-4.6810117 35.67449 12.5624485
-4.8844504 34.98042 13.541195
-5.166568 35.317257 14.7534685
-5.372194 35.506268 19.540829
-5.4224753 35.21883 19.790354
-4.7880855 36.00598 9.717415
-4.8349857 36.175194 10.613234
-4.8894925 35.95032 11.229313
-5.2957907 35.85547 15.941192
-5.612536 36.29669 16.880573
-5.721688 36.481533 17.289268
-5.5431633 36.42798 18.445316
-5.447434 35.99072 19.094574
-5.5733423 36.552635 17.587675
-5.6197515 36.56193 18.025452
-3.650704 11.053657 18.047626
-3.721903 10.987649 18.577742
-3.6608558 11.000504 19.179174
-3.669527 11.539369 17.9317
-3.8291988 11.513504 18.503412
-3.7586372 11.512704 19.186197
-3.6308248 12.178424 17.99864
-3.765363 12.036035 18.570467
-3.666477 12.142419 19.157612
-3.5520043 14.819095 28.797691
-3.7949507 16.074867 22.786032
-3.9887943 15.974946 23.466724
-3.8225074 16.106699 24.465536
-3.612693 15.535383 28.718246
-3.6916986 15.698721 37.981697
-3.8854446 15.956276 38.48013
-4.1180816 16.778627 22.787254
-4.3501134 16.538557 23.520012
-4.474696 16.861298 24.418388
-4.261937 16.945568 25.085077
-3.6178327 16.221916 28.586779
-3.61713 16.473778 29.258966
-4.059461 17.450245 31.857779
-4.2545385 17.224205 32.3472
-4.3242607 16.556265 34.385586
-4.2029014 16.578304 35.2233
-4.567945 17.050518 36.388496
-4.3511047 16.989864 37.835304
-4.2022414 16.607016 38.284077
-3.961427 16.80137 39.228985
-3.592497 16.220142 40.099354
-4.212399 17.407986 22.88313
-4.445654 17.359076 23.253086
-4.4660916 17.499834 25.206055
-4.3970985 17.590199 31.128418
-4.315577 17.58245 38.60098
-4.0336137 17.45303 39.150597
-4.1064315 18.235275 22.954378
-4.510182 18.405376 23.559542
-4.592807 18.71898 24.725006
-4.470287 18.286264 25.271889
-3.9833188 18.142271 25.712015
-4.2798057 18.305656 38.37997
-4.0573673 18.119892 38.972286
-3.868525 18.810661 23.204557
-3.9595313 19.243565 23.646637
-4.3699207 19.021627 24.37149
-4.2339983 18.942375 25.07395
-3.6907656 19.915089 29.223576
-4.2833457 19.717817 29.920286
-4.1719494 19.304914 38.01594
-3.6865845 19.805098 24.25967
-4.0343137 20.299442 29.791025
-4.3016477 20.41202 37.366722
-3.8060796 20.194115 38.051193
-3.755207 21.892647 7.989626
-3.847712 21.88539 8.393189
-3.8253126 21.975796 9.009379
-3.931974 22.17643 19.667265
-4.093002 22.240211 20.26954
-3.6106694 21.641666 21.086424
-4.114847 21.50675 29.921776
-4.286197 21.485405 36.491913
-3.917661 21.02848 37.26707
-3.7647157 22.480886 7.8477683
-3.9866664 22.320974 8.465821
-3.8960118 22.51194 9.095002
-4.0338526 23.404957 13.683372
-4.115516 23.23253 17.980677
-4.2261624 22.997194 18.764246
-4.236936 22.833443 19.387068
-4.2116313 22.614452 20.467878
-4.0277395 22.793873 21.072784
[...]
POINT_DATA 8691
SCALARS features_00 float 1
LOOKUP_TABLE default
0.50825256 0.5443971 0.5477922 0.6127777 0.6111398 0.5216557 0.63297725 0.7150862 0.6996451 0.7013645 0.74547577 0.7824017 0.7952336 0.76352274 0.81326354 0.82044613 0.53480506 0.5474672 0.4925154 0.50807804 0.5230767 0.5358324 0.5054043 0.46030188 0.48117208 0.51456946 0.53104144 0.4950391 0.42901558 0.38292602 0.406049 0.46363354 0.50314254 0.4425019 0.39135897 0.36638194 0.2744363 0.24258506 0.3361087 0.32850674 0.33070445 0.44584042 0.38643292 0.5078197 0.5611905 0.5523722 0.5618322 0.53772306 0.4551481 0.4634453 0.5178702 0.55617523 0.49214107 0.55744606 0.6046064 0.6041752 0.63748753 0.5688422 0.5744472 0.53676116 0.4489628 0.34825873 0.3671114 0.48608914 0.5796653 0.61133283 0.51094174 0.6020967 0.6568309 0.67085 0.6622044 0.57091755 0.5346427 0.41753244 0.3335159 0.27491158 0.49155763 0.5867161 0.6339346 0.6791162 0.68829453 0.67578995 0.45942345 0.38409492 0.32703486 0.50300246 0.577911 0.6297707 0.4278735 0.43138453 0.25943545 0.33992812 0.488549 0.50196326 0.51469845 0.30185366 0.4297065 0.59119886 0.59380925 0.5992713 0.651371 0.66816187 0.6360596 0.56680393 0.74815136 0.8028288 0.7511365 0.6937877 0.7536564 0.7892286 0.812397 0.8002782 0.780329 0.67697847 0.6658206 0.52351606 0.53180134 0.5516801 0.530453 0.65205 0.65240073 0.6315066 0.47142693 0.4837687 0.51593006 0.47831652 0.4060684 0.31386462 0.6064082 0.58882105 0.5977639 0.41074508 0.3452626 0.24508739 0.236321 0.3289015 0.35004896 0.2767557 0.18681665 0.23707822 0.32746157 0.2843945 0.24560164 0.16579764 0.24974188 0.28733525 0.3155418 0.49922675 0.47178727 0.3869025 0.13656528 0.23146123 0.29735667 0.34736586 0.41575205 0.42474258 0.36471656 0.54015464 0.5461146 0.5028411 0.40796012 0.28374863 0.19415617 0.24255653 0.3885378 0.42226845 0.5064575 0.5117838 0.356214 0.5981089 0.60521096 0.5450921 0.37244195 0.26328406 0.21310683 0.57589024 0.58799154 0.5001018 0.656641 0.64274395 0.53098184 0.5424296 0.16794953 0.65272474 0.6475303 0.4568441 0.5588076 0.61392236 0.6728029 0.67012024 0.64767265 0.44456223 0.2525467 0.447995 0.5190108 0.62813973 0.63561106 0.52746224 0.58861446 0.639197 0.6590481 0.27394527 0.27994925 0.29603264 0.14128084 0.50530434 0.5782705 0.58712494 0.15612902 0.079312816 0.045737065 0.093588345 0.1300867 0.2594699 0.3398285 0.3695796 0.3372114 0.38668036 0.1463645 0.24885416 0.40680975 0.48437506 0.5028224 0.50663036 0.45172563 0.3643813 0.08979122 0.16048445 0.22720456 0.5310215 0.55990505 0.5273228 0.5486108 0.5125756 0.39755353 0.2863905 0.16704226 0.2740148 0.6067332 0.52963907 0.54525423 0.52203155 0.39672744 0.22634691 0.13979088 0.20083892 0.7078284 0.680554 0.49924415 0.44708782 0.3998475 0.55868834 0.68159544 0.72269547 0.7585617 0.7538362 0.71685386 0.74706066 0.82059145 0.8510009 0.87414336 0.7887423 0.82345366 0.8547522 0.74209046 0.7912869 0.816579 0.4560523 0.65649945 0.67704165 0.5968511 0.43195063 0.3626888 0.40727174 0.64321256 0.68031436 0.65405726 0.59628785 0.38817254 0.38767177 0.4477476 0.4831526 0.5257008 0.5416918 0.33776143 0.29410386 0.35555947 0.41743648 0.49712634 0.6217776 0.65367293 0.61722285 0.48185372 0.3446147 0.3785958 0.5515398 0.570163 0.54060656 0.5684931 0.5139679 0.27679995 0.31261778 0.4661535 0.42267126 0.48975202 0.470714 0.06706851 0.10814821 0.23352134 0.32932523 0.10591316 0.27419272 0.25669128 0.74376166 0.73946303 0.6962158 0.25101647 0.2630597 0.23414524 0.17324379 0.22369826 0.25060174 0.71063894 0.7285367 0.68305457 0.3105954 0.1592756 0.23038378 0.2666716 0.2693802 0.25833166 0.24522425 0.13041796 0.19440009 0.65807855 0.68279666 0.66646975 0.42351016 0.38840944 0.27573824 0.2553496 0.078865714 0.151854 0.30846763 0.3212253 0.21083555 0.289041 0.31397587 0.41182676 0.42397633 0.5858411 0.20313159 0.48806953 0.43133467 0.29165968 0.3634113 0.60789204 0.5661254 0.30505472 0.6432021 0.635853 0.5716098 0.38555706 0.58863264 0.63661885 0.19179243 0.18433593 0.13414037 0.1192434 0.22103347 0.4911186 0.5172742 0.41973788 0.51101977 0.17590189 -0.020933345 0.12434384 0.03621377 0.0131035745 -0.058202177 0.17896865 0.15499678 0.053921033 -0.21209048 -0.019884579 -0.0249224 -0.1518511 0.31340656 0.13602583 0.13214347 0.38914967 0.43415737 0.29751867 -0.054047137 0.021860246 0.19006807 0.34133568 0.4248535 0.44424567 0.12703788 0.4646534 0.44800484 0.49456304 0.53891385 0.49753147 0.117676884 0.55866396 0.46520746 0.46293065 0.42231405 0.2533877 0.1719742 0.555313 0.6039778 0.66490906 0.43327433 0.3729071 0.30689228 0.26394278 0.19935334 0.8015162 0.8625984 0.88643545 0.7750155 0.80906844 0.8666154 0.89283276 0.8985516 0.7686777 0.7534113 0.87656283 0.89036936 0.7088716 0.7039909 0.7221165 0.80859184 0.86553454 0.6633766 0.6450651 0.6873937 0.7733893 0.45510632 0.4682244 0.46753654 0.41937977 0.38214004 0.44476092 0.4632019 0.4554913 0.39367688 0.41205996 0.5325695 0.59391356 0.61983573 0.54548776 0.61098087 0.6680852 0.61323094 0.27605194 0.42379403 0.38866997 0.23538698 0.4378044 0.56170386 0.5988751 0.5486529 0.36152846 0.29180288 0.17299365 0.33008745 0.3955809 0.5099146 0.5630604 0.39585966 0.2919544 0.45287016 0.26017436 -0.06742326 0.011522964 0.27290958 0.336383 0.23161848 0.3131145 0.30302835 0.32925457 0.2424142 0.04919428 0.17985457 0.7083136 0.6977627 0.59636533 0.18953256 0.1426475 0.11992913 0.21645188 0.22365679 0.24993975 0.02642325 0.22536162 0.20600343 0.7023392 0.73189974 0.72977674 0.6337514 0.55615246 0.21510223 0.24412249 0.25207838 0.16211697 0.13155727 0.13666162 0.10790716 0.20834412 0.22726434 0.2355886 0.66832185 0.6923822 0.48076484 0.20029445 0.080750585 0.018558193 -0.0325932 0.20486012 0.12673609 0.1171671 0.101907045 0.13949996 0.54395366 0.5073623 0.56218886 0.4011056 0.13351476 -0.039717436 0.13484539 0.41216087 0.2962969 0.33485126 -0.064489335 0.14340097 0.062448528 0.38767296 0.46099615 0.12123242 0.10449893 0.049338534 0.3825224 0.0646573 0.5242888 0.14569846 0.16182798 0.41775495 0.5604218 0.16592105 0.17767732 0.16617242 0.16436459 0.44828862 0.46029752 0.29266527 0.5876732 0.1787865 0.1940362 0.19498281 0.18957782 0.34459123 0.4315366 0.4929067 0.47688642 0.44914475 0.19123378 0.19213295 -0.057473604 0.6014621 0.6198282 0.40990815 0.51839393 0.5140964 0.51000065 0.16720639 -0.0017750217 -0.18038605 0.5898162 0.6207544 0.62856156 0.5302417 0.5317328 0.20415656 0.17902121 -0.24438298 0.098696135 0.60073555 0.37231198 0.34379417 0.1852684 0.37607083 0.30442992 0.40813565 0.23369755 0.41242653 0.3808002 0.27216512 0.30164182 0.41519362 -0.09788989 0.02300518 0.3561347 0.26202917 0.37816805 0.41272375 0.3589614 0.28110403 0.21557519 0.19952723 0.1543918 0.3522826 0.32550576 0.2104452 0.69861495 0.7834487 0.82211864 0.8505438 0.8592395 0.71566033 0.74754727 0.86203474 0.7658583 0.8583739 0.7183254 0.41064107 0.40178615 0.66104543 0.58941483 0.6026536 0.56365645 0.6481264 0.41835955 0.44955325 0.4517008 0.4169534 0.3695723 0.28862026 0.3913073 0.5492702 0.59601766 0.5708728 0.29806602 0.39511657 0.36582786 0.396863 0.36769336 0.5164857 0.6174578 0.63442993 0.19922705 0.30866727 0.63662815 0.67301166 0.43130282 0.43988466 0.010779947 0.32092798 0.25372615 0.6028993 0.6775062 0.4290327 0.4302231 0.41338068 0.094055675 0.30887285 0.42730817 0.5638232 0.6774982 0.38166034 0.3945251 0.3873155 0.10107429 0.14608464 0.47055167 0.31586206 0.020859502 0.17907517 0.65942013 0.6494516 0.6044123 0.45183933 0.24922067 0.11096679 0.06405793 -0.014187509 0.15656015 0.63031113 0.6579836 0.35250974 0.051686406 -0.1887484 0.11094226 0.108699895 -0.096555635 -0.011710493 0.23020512 0.22185874 0.6093615 0.6482799 0.07719439 -0.18907158 -0.110719144 0.039472286 0.036265124 0.03793726 0.008000761 -0.011689423 0.007815781 0.5033041 -0.17497092 -0.018868696 -0.051267967 0.3203234 0.3597648 -0.019113742 -0.08582845 -0.14002895 0.048619695 0.067937486 -0.1633544 -0.11009366 0.30561173 0.40772498 0.1370962 0.27754372 -0.0049061775 0.34274304 0.08600922 0.1481342 0.17212774 0.29608023 0.17821877 0.02582657 0.008076355 0.48770916 0.42465723 0.5073295 0.25843513 0.34778926 0.44381458 0.41005084 0.16270387 -0.11025897 -0.1797683 0.4496786 0.5432862 0.5969306 0.6081553 0.42791107 0.49025065 0.40914714 0.40175188 0.14475007 -0.29885828 0.48547238 0.569875 0.63336354 0.45817864 0.53412557 0.5382981 0.5163927 0.40872556 0.18327254 -0.1637225 0.5298632 0.56529075 0.5732412 0.5913261 0.8170842 0.8063632 0.27026868 0.12616377 0.23936042 0.3173012 0.36978295 0.48992252 0.8339354 0.8202821 0.8022048 0.3408706 0.17742021 0.41576707 0.37972158 0.35538495 0.82687646 0.79902387 0.7783818 0.37564686 0.15153706 0.38123757 0.44168478 0.41649747 0.38977325 0.7726952 0.36765364 -0.0435661 -0.0008935183 0.0046652406 0.40600508 0.42993063 0.2796993 -0.134267 -0.091842234 -0.049542442 0.123375125 0.11117479 0.52784973 0.30071482 0.19352895 0.18326497 0.1831425 0.15537441 0.6448555 0.6407583 0.6074915 0.6176647 0.25501987 0.6621925 0.6593429 0.6636864 0.6449081 0.65607727 0.65487564 0.64870906 0.63376987 0.57013047 0.7065815 0.72492236 0.76618934 0.7442697 0.67826843 0.6492482 0.7586602 0.7094027 0.7202172 0.2976396 0.6727202 0.5611123 0.35363913 0.33717713 0.36410806 0.36170107 0.65395963 0.30910408 0.244751 0.3478529 0.4070902 0.40517646 0.3721973 0.36254603 0.3022195 0.28191605 0.31039143 0.50448143 0.5637214 0.5852884 0.5165573 0.4308399 0.33359897 0.36723077 0.60683024 0.639513 0.3572201 0.38002312 0.19434997 0.14185941 0.2476947 0.32880923 0.31759232 0.7126864 0.3522144 0.4091733 0.4355721 0.2706492 0.16859032 0.18272504 -0.05686748 0.77241486 0.33034992 0.39132285 0.39326778 0.20277467 0.1970348 0.04576445 0.16172652 0.75902754 0.07100206 0.26363522 0.30082297 0.19229285 0.17419809 0.0006599948 0.6165374 0.70843214 0.5404755 0.4185152 0.060041904 0.04099811 0.017488405 0.24957334 0.27538055 0.15073256 -0.029171756 -0.016686141 0.59814835 0.5630187 0.18521126 -0.061525866 -0.08740128 -0.15538748 -0.063047886 0.007409379 0.07222609 -0.019567788 0.19928816 0.5664165 0.5884079 -0.2147291 -0.25059256 -0.19542804 -0.16226763 -0.18428783 0.2534651 0.2180853 0.5267192 -0.24510592 -0.26440758 -0.058353778 0.15000711 0.18156119 0.31788552 -0.10039589 -0.12498666 -0.32404417 0.01290831 0.22209771 -0.07159319 -0.10346214 -0.26536506 -0.25580367 -0.057180673 -0.0795144 -0.09937726 -0.12127982 -0.00023952499 0.3918011 0.055999592 -0.022713013 -0.1765214 -0.25325003 -0.11794829 -0.03916036 -0.10322529 -0.27922326 -0.18898764 0.03893343 0.4416777 0.4256567 0.4236116 0.044725373 0.07667111 -0.31027833 -0.24625158 0.031324472 0.11512059 0.1817762 0.025362976 0.10044532 0.46085846 0.4728818 0.4906866 0.45483944 0.28372914 -0.19217983 -0.08155018 0.2517206 0.32549596 0.37848264 -0.02980107 0.22914997 0.34964794 0.4660146 0.46397406 0.44283164 0.4489628 0.37320513 0.22847602 0.08699493 -0.2040075 0.38667205 0.5105001 0.27616325 0.47182983 0.43745017 0.49694878 0.44536102 0.4191589 0.41110623 0.3493932 0.2753982 0.058454227 0.1019003 0.005735405 0.22480547 0.4472744 0.38240415 0.2734866 0.44246936 0.482927 0.48564914 0.74085623 0.7227027 0.4709606 0.41230762 0.38796413 0.3254671 0.09928746 -0.07146048 -0.2890714 -0.21725598 0.5295558 0.5541124 0.39101064 0.42992407 0.43383574 0.77054346 0.7934381 0.7814605 0.40534073 0.44369894 0.42125958 0.41936487 0.2857282 0.14343686 -0.04223016 0.3202129 0.38534 0.83200246 0.7634138 0.3855328 0.41075546 0.4094649 0.25467944 0.29435098 0.33243388 0.27328897 0.8358595 0.72575915 0.6985581 0.3467505 0.41310877 0.36514828 0.815784 0.76640356 0.7142943 0.4715715 0.4240246 0.40098006 -0.06117307 -0.049697503 -0.0054119676 0.124446936 0.28150356 0.42309022 0.75283253 0.74349016 0.44427642 0.48768723 0.5008724 -0.03944564 0.016485775 -0.045045845 -0.09057214 0.44751874 0.50241584 0.2077964 0.110531114 0.04035601 0.05620247 0.46841204 -0.012245294 0.13903722 0.098309554 0.13327402 0.6041009 0.12760854 0.11575762 0.1498784 0.63860035 0.34298855 0.11029554 0.53105515 0.4135234 0.3404028 0.63512456 0.62616086 0.6356214 0.5511363 0.5786597 0.6826827 0.59528935 0.44879067 0.34748775 0.6166291 0.60420793 0.6950611 0.6971048 0.48356473 0.5699407 0.6683297 0.6056591 0.45873383 0.37053543 0.81233096 0.81570345 0.744308 0.559037 0.62890625 0.58713084 0.49883455 0.37580916 0.82744205 0.8553673 0.8304894 0.70291924 0.6204026 0.5941542 0.54637235 0.8308927 0.8702911 0.86113644 0.64431334 0.63638985 0.58616126 0.53585994 0.6410583 0.60814553 0.5497925 0.48171243 0.5497124 0.602015 0.6074883 0.54386014 0.48528937 0.56499535 0.5967696 0.39848718 0.49291953 0.49810404 0.626345 0.23288138 0.247227 0.24567305 0.30779517 0.40841982 0.44446886 0.5966643 0.15810496 0.24812391 0.25383198 0.31337187 0.29968134 0.26576626 0.2634545 0.24567482 0.61885536 0.60779953 0.49663985 0.2599883 0.079162575 0.34992492 0.23265077 0.43537277 0.51192576 0.5153389 0.55251884 0.059950538 0.32176355 0.14501461 0.053271286 -0.19123898 -0.024291176 0.43912527 0.33288258 0.5513935 0.62164223 0.21075287 0.25085032 0.17958163 -0.1738065 -0.20330681 -0.17394668 -0.08524409 -0.021611333 0.38038385 0.7059531 0.31985044 0.1116748 -0.08613308 0.784688 0.048260286 0.16409276 0.1557512 0.08765954 -0.17686734 -0.002459325 0.7564961 0.049277678 0.059408844 0.1430431 0.09283979 -0.077847466 0.5038279 0.6247369 0.7049574 0.28200307 0.05215612 0.07022588 0.14504871 -0.124212354 0.09611615 0.5033907 0.14483106 0.16026078 0.17334217 0.49870652 0.28170595 -0.23762056 -0.4922129 0.3609243 0.34628183 0.4525111 -0.17447622 -0.52729845 -0.3462353 0.26919642 0.43550307 0.43985096 0.046730902 -0.10930437 -0.14188664 -0.34599745 -0.31032872 0.4278198 0.45155686 0.25219467 0.19729246 0.0774445 0.09181318 0.07901464 -0.0544411 -0.24017721 0.36557883 0.34707132 0.2889266 0.113501504 0.12087976 -0.104819074 -0.15401316 -0.3376185 0.43547854 0.3816266 0.17330317 0.16196413 0.40684116 0.3924601 0.24470694 -0.026223898 -0.04231155 -0.094731756 0.2876305 0.44358104 -0.1252746 -0.14072697 -0.456391 -0.031071529 0.41290838 0.47977027 0.034234345 -0.113396175 -0.13707417 -0.17438251 -0.5041145 -0.36003333 0.14708014 0.27477837 0.4348623 0.66428024 0.669588 0.0018487684 0.28552768 0.3466764 0.3527214 0.34658003 0.34011272 0.7121341 0.7152944 0.35342947 0.21937405 0.035387717 -0.085896626 0.1580543 0.73140967 0.74384135 0.31662217 0.3804679 0.37504584 0.040444285 0.022566304 0.23706122 0.16102946 0.23083603 0.7296932 0.4537521 0.21507853 0.3535988 0.19706109 0.2603099 0.19923525 0.282201 0.771037 0.43564746 0.040948495 0.33934054 0.30531764 0.73137534 0.7340888 0.7089921 0.5341689 0.39385045 0.5244936 0.070446014 0.044912696 0.16830322 0.21797496 0.70662063 0.70128083 0.3652621 0.54280734 0.12599087 0.12746927 0.20410568 0.21313895 0.2617361 0.16196944 0.17307061 0.15631033 0.14280058 0.21316743 -0.1738194 -0.030857392 0.031436235 0.1356048 0.17218964 0.18916577 0.270421 0.2176818 0.506231 0.6053834 0.308365 0.2570069 0.21957117 0.53209704 0.5470629 0.2793709 0.33107233 0.44464153 0.2881321 0.23691714 0.5298408 0.50924367 0.3987545 0.34911382 0.46303403 0.34064776 0.23286057 0.73337895 0.467044 0.46985477 0.45783818 0.38359934 0.3707615 0.7369387 0.78202593 0.66402394 0.54950047 0.58636236 0.48374903 0.43534112 0.7706292 0.8455472 0.8385217 0.75994265 0.60489315 0.64084214 0.515769 0.48946768 0.4702815 0.8286368 0.81936514 0.78914094 0.6531043 0.6419724 0.59746736 0.5231922 0.4760908 0.642854 0.62656236 0.574402 0.5021446 0.42765933 0.39474288 0.44701374 0.48327112 0.5218173 0.5395321 0.52026623 0.42645207 0.40299812 0.3357049 0.33367783 0.5071937 0.5223039 0.5027467 0.3434961 0.16703522 0.13050023 0.1280885 0.4333855 0.34204894 0.23547396 0.32951212 0.73699105 0.7601394 0.21484737 0.123264015 0.03497699 0.1621995 0.092313334 0.29015535 0.3421927 0.60325956 0.6423371 0.66312456 0.23520207 0.052651227 0.2939404 0.2752731 0.5255489 0.022815421 -0.24632174 -0.0480183 -0.01579775 -0.16928059 -0.13169189 0.44051352 0.5006365 0.36478314 0.5165118 0.5931632 0.06126922 0.09405658 -0.23743218 0.7377652 0.017773122 0.6713325 0.7235861 -0.0428114 0.3359886 0.63817394 0.70639044 -0.020745656 0.31485316 0.3035503 0.29686642 0.089960285 0.2653718 0.38132048 0.16308308 -0.06441836 0.46342653 0.44274086 0.2154127 0.0077980645 -0.008102139 -0.252764 0.23364934 0.46762428 0.48043323 0.29333138 0.25023213 0.293652 0.31659597 0.31977317 -0.19860622 0.32225537 0.008816533 0.3288252 0.17989399 0.32618916 0.24576059 -0.09352104 0.56833065 0.5309708 -0.08530269 -0.0760628 0.09205563 0.1884599 0.030164152 0.21577239 0.22839883 0.23300654 0.14450385 0.56156194 -0.0413165 -0.11958656 -0.08663173 -0.03899859 0.08523337 0.20405 0.2305511 0.17387995 0.5789083 0.5988232 -0.23467241 -0.23787047 -0.23963343 -0.20605673 -0.019409135 0.6821665 0.1265838 0.013802275 -0.004946992 0.7124011 -0.107010014 -0.24487616 0.2745598 0.017588452 0.68957853 0.6886189 0.59770334 -0.027774915 0.18418504 -0.054772124 -0.12128903 -0.029089779 0.10847108 0.08104094 0.66545314 0.6709343 0.6610004 0.3418385 0.27558348 0.19733843 0.069637686 0.12500456 0.084323406 0.119481504 0.090713754 0.6183369 0.52131367 0.37764952 0.17766993 0.16421527 0.13108969 0.18653136 0.2609628 0.23755084 0.18932028 0.1091724 0.14593288 0.69849503 0.66900706 0.6419315 0.5544733 0.4677018 0.10575025 0.09506065 0.019211084 0.18074235 0.17971995 0.19923207 0.17464875 0.2457131 0.19715717 0.16573682 0.692956 0.66370153 0.6181102 0.559006 0.34919542 -0.052372575 0.09935956 0.14771892 0.17113478 0.26081845 0.18231449 0.37172833 0.17706542 0.3072042 0.37078658 0.5072471 0.5568004 0.5834131 0.37785506 0.30014074 0.3866283 0.17619622 0.44899496 0.5233083 0.56527257 0.38510218 0.36533257 0.30309305 0.28673717 0.33146 0.3880102 0.47223282 0.5309441 0.5805155 0.6009253 0.53493786 0.44954622 0.39065033 0.37525445 0.6216595 0.7038692 0.6079303 0.57156086 0.439286 0.6845824 0.781579 0.79429376 0.75056624 0.6124146 0.6333384 0.47302324 0.44198585 0.36962628 0.61845636 0.6039519 0.50636727 0.4491279 0.35097638 0.36832952 0.3108629 0.35536844 0.47200364 0.5360155 0.515642 0.34427705 0.3238853 0.30409625 0.26134112 0.16105494 0.115763485 0.28537428 0.47581112 0.69917893 0.2469236 0.09347646 0.36317083 0.38921088 0.6901431 0.75374866 0.7462977 0.6962142 0.6387749 0.25001216 0.1092062 0.39568472 0.33647257 0.5884629 -0.10386862 0.03934884 -0.058819085 -0.13014205 -0.013182513 0.47288227 0.38699168 -0.07262338 0.40894765 0.21761626 0.2824635 0.45518103 0.0436517 0.5044694 0.6387068 0.35058522 0.27380458 -0.005590733 0.5546957 0.3632652 0.21906361 -0.10819853 0.31851053 0.1169409 0.45679024 0.07927811 0.42946723 0.37872916 0.31095874 0.1916419 0.36869 0.36839777 0.31808293 0.21317914 0.036481533 0.38949722 0.14452109 0.28015512 0.22571656 -0.38133955 0.4784722 0.45417956 0.22996798 0.21568462 -0.075122654 0.4037199 0.46426442 0.47628486 0.26747316 -0.19076763 0.25343025 0.27114096 -0.18526232 0.20419535 -0.2173637 0.13104059 -0.045456894 0.27405912 0.10250786 0.28025836 0.07391062 0.11192989 0.22058906 0.24794407 0.4035431 -0.1733637 -0.0094038695 0.056801945 0.48030645 -0.1462552 -0.12694347 0.103095666 0.15662898 0.15449029 0.085343614 0.041866735 0.5017951 0.5014778 -0.2600489 -0.16586323 0.15106195 0.14259762 0.6215405 -0.15810561 -0.05484645 0.61846757 0.16310325 -0.006016504 0.63697827 0.62283313 0.0057985336 0.6167295 0.58698976 0.071734756 0.054181583 0.0885418 0.6603708 0.23911887 0.10878171 0.08423447 0.1931697 0.104381666 0.13727862 0.110892065 0.6851342 0.37969124 0.22247656 0.16381878 0.21169174 0.1450846 0.12955539 0.6801473 0.633442 0.56264114 0.5221703 0.47326815 0.42035562 0.28696904 0.11010038 0.019138552 0.09948548 0.23471183 0.47692883 0.5519061 0.5937612 0.5894362 0.5747123 0.5383129 0.47492164 0.45754513 0.30490845 0.1318954 0.12994148 0.17068985 0.36602888 0.46760023 0.5498268 0.60024065 0.60225844 0.25490862 0.14581978 0.23309603 0.24312866 0.3742541 0.40624928 0.5671146 0.58264637 0.24378255 0.28264323 0.18569104 0.26439774 0.5269588 0.48611426 0.34712982 0.34957284 0.30181915 0.340312 0.18894492 0.30131143 0.35581344 0.43428248 0.4352625 0.44509763 0.56669796 0.48193628 0.3758753