# vtk DataFile Version 2.0
Really cool data
ASCII
DATASET POLYDATA
POINTS 741 float
2.0534077 25.177027 -2.9294329
2.1029036 24.97388 -2.569743
2.20843 25.027546 -1.7499449
2.2610407 25.992998 -3.8124418
1.9576336 25.730768 -3.2561889
1.7470467 25.657383 -2.5441482
1.8381339 25.67642 -1.7618877
2.1728604 25.653328 -1.3256227
2.2361226 26.766483 -3.8948562
1.80225 26.426203 -3.1011322
1.6574829 26.418917 -2.3953936
1.8030655 26.470818 -1.7972369
2.1935916 26.30931 -1.298904
2.1003852 27.273901 -3.277367
2.0196834 27.264126 -2.5717654
1.9825648 26.807129 -1.8174256
3.1693254 24.164452 -2.980384
3.270092 25.089062 -4.4361563
2.3863893 25.111359 -3.3012347
2.641965 24.406378 -2.7774913
2.5916383 24.761248 -1.4524388
2.8631847 24.572735 -1.2571477
2.6473873 25.79906 -4.154206
2.4197998 25.696442 -1.126072
2.5914345 26.593224 -4.1519303
2.5976295 26.522688 -1.2043195
2.6198556 27.361969 -4.0653586
2.5062487 27.437288 -1.9579251
2.6450355 26.882069 -1.3636457
2.999049 28.182787 -3.8634398
2.8270726 28.199308 -3.4423437
2.5858192 27.95329 -2.7124834
4.4086967 16.09674 4.7999024
4.4192348 16.050194 5.321875
4.3835425 16.477062 4.7109766
4.378046 16.628765 5.6487823
4.4088645 16.576271 5.942057
4.327463 17.505453 3.814303
4.2666407 17.758076 4.524187
4.345003 17.336637 5.2821746
4.3630724 18.427574 3.4300673
4.3732476 18.314163 4.2781444
4.30734 19.39162 0.8236633
4.2466993 19.531923 1.3094049
4.3512163 20.07612 1.0254933
4.332152 20.148336 1.3685123
3.5467324 23.588985 -2.3168335
3.3834016 23.602425 -1.9585391
3.513465 24.627527 -4.3734665
3.9641902 25.817183 -4.763509
3.4300966 25.557535 -0.6081899
3.629795 26.325357 -4.7557735
3.3990164 27.618156 -4.4124513
3.2614934 27.612877 -1.8366921
3.3894515 28.233929 -3.9850338
3.2705097 28.398508 -3.5452795
3.4504871 28.260378 -2.4972532
3.2959895 27.917168 -2.0726013
3.3672478 28.516954 -3.3129148
5.2270594 15.017634 4.0687194
5.0169687 15.102302 4.7042274
5.0517263 15.03571 5.206742
4.822577 15.490076 4.0859985
4.6064825 15.663341 5.4380627
4.8423157 15.906998 6.1639442
5.32313 16.934145 0.66087246
4.7796125 16.552546 3.1405776
4.5351725 16.304895 3.9274936
4.6862874 16.674055 6.2565656
5.285322 17.990156 -0.0604178
4.6995773 17.995678 1.0922751
4.7746286 17.731812 1.4412316
4.704046 17.08537 6.2231913
4.733359 18.396978 5.306333
4.4851084 19.651789 0.5591011
4.9910975 19.58204 3.8389802
4.747172 19.24226 4.3622293
4.7656994 20.68003 0.7040773
5.2444663 21.91386 -2.1492057
4.937387 21.836409 -0.112473674
5.0276747 22.063951 0.2445752
5.181035 22.2246 1.3956462
5.0055585 23.5208 -4.4729176
4.656031 23.792572 0.071848005
5.0570183 23.149015 0.8341949
5.0444455 24.431238 -5.214086
4.2124724 28.157864 -2.9337196
4.392171 27.833605 -2.217765
5.434596 14.72148 4.627232
5.47162 14.830243 5.4346066
6.0729394 16.151114 -0.08051692
5.9637303 15.963333 0.58436424
5.5086355 15.771797 2.5268514
5.4687 15.479098 6.48885
5.818569 15.4001 6.664078
6.129886 16.857105 -0.7103883
5.8449774 16.70829 -0.27558315
5.5389147 16.68558 0.5414562
5.818081 16.319033 7.0753055
5.9890947 17.36176 -0.8198849
5.614049 17.41875 -0.43386167
5.326207 17.654377 6.3854914
5.747839 17.216015 6.832002
5.60955 18.187572 5.9435554
6.124589 17.715889 6.6745033
5.898473 21.744907 -3.594121
6.3699617 21.589924 3.7092454
5.8805246 22.90559 -5.80378
5.8280654 22.306597 -4.9789796
5.510738 22.026953 2.3294325
6.0283356 23.718372 -6.2104583
5.458229 23.583263 -5.535992
6.0160375 23.617455 1.3358452
5.8712554 24.089214 -5.9887705
6.0818844 23.865622 1.4436793
5.5588775 25.165405 -5.321843
5.242608 25.279486 0.18642756
5.2891617 27.225468 -4.1102176
5.4371743 27.151262 -1.7603115
6.685093 14.437461 4.385783
7.0527525 15.403397 0.11699545
6.740225 15.405135 0.5215733
6.390827 14.616994 5.852907
6.7564826 16.263288 -0.7583327
6.627357 15.858959 -0.23718697
6.6331596 15.505974 0.42755434
6.885518 16.699509 -1.0164092
6.5348988 16.341875 -0.62812376
6.2663717 17.424904 -1.0022566
6.628564 20.217155 -1.8472004
6.7354107 20.902636 -2.4806738
7.2063594 22.273762 -6.739625
6.546842 21.932854 -5.2950954
6.474378 21.53089 -3.2045536
7.2956843 21.2121 6.3436165
7.0446405 22.665329 6.23204
7.0888066 23.202314 -7.022186
6.497493 23.583246 -6.5514874
6.6203346 23.37062 3.9221096
6.65676 23.40515 4.374267
6.8991985 23.246082 5.430059
7.1937013 23.096268 6.191696
6.676599 23.942493 -6.7115703
7.121626 24.022076 4.4262886
7.22961 23.758204 5.31182
7.058765 26.813993 -5.137709
7.1017838 27.811708 -3.5164676
7.3261633 30.801704 -6.371444
7.1745033 31.766754 -6.160448
7.0930877 31.940655 -5.740806
7.3389935 32.188972 -6.377795
7.1938486 32.419834 -5.39168
7.5701466 14.3706665 3.665874
8.098977 13.6733265 7.529943
7.732521 15.416317 -0.0015982836
7.3832254 15.331444 0.46444875
7.654894 14.952694 2.4874206
8.35702 14.671759 10.275154
7.427045 16.111969 -0.6968373
7.594824 15.739303 -0.41390717
8.098294 15.545067 10.144067
7.9492164 16.205746 9.737944
8.281656 16.367521 10.30971
7.807153 17.253574 -1.5388622
7.361209 17.497276 -1.4310086
7.796198 21.410381 -4.4642563
7.214275 20.876003 -2.8494077
8.197468 20.648415 7.8592334
7.8123918 22.080593 -6.9399548
7.4270697 21.886623 -6.32915
7.7863626 21.03402 7.548874
8.146616 21.34767 7.862768
7.606645 22.608572 -7.17335
7.643504 22.34904 7.072428
8.17383 21.87257 7.678261
7.412847 23.203135 -7.2257056
7.477037 23.289728 6.3985443
7.831246 23.04992 6.822578
7.5709944 24.25155 -7.0747437
7.5096397 24.352299 4.094037
7.7169166 24.170732 4.932722
7.717223 23.694923 6.0202913
7.93596 25.57977 -6.872612
7.8817163 25.776144 -6.78253
7.6876698 29.587482 -6.3879848
8.139592 30.96244 -8.110804
7.4979877 30.472822 -6.457199
7.9601755 31.368444 -8.003674
7.8973637 31.079338 -3.6824355
7.6330843 32.221268 -4.343193
8.137207 32.577293 -4.1113844
7.8427944 33.06211 -6.2411013
7.843384 32.92274 -4.8725796
8.160731 34.70179 -10.032191
8.072617 35.53041 -10.162352
7.7440615 35.61126 -9.508079
7.6653914 35.830013 -8.901252
8.07978 35.780914 -7.9594135
8.009598 36.37082 -9.975755
7.771867 36.41954 -9.468441
7.8726645 36.510223 -8.634173
7.9910765 36.89856 -9.37958
8.089487 36.954643 -8.7924385
8.698009 13.389202 6.8949385
8.9631 13.115176 7.7918057
8.811963 13.279448 8.296742
9.05934 13.343514 8.958522
8.525201 14.366044 3.4830353
8.345144 14.103686 4.2100058
9.073582 13.641702 6.0104547
8.917756 13.532061 9.194706
8.745092 14.206655 10.277114
8.600254 14.500953 10.460102
8.637167 14.878542 10.786629
8.614084 16.071014 -0.75205636
8.451239 15.687245 -0.19577694
8.667606 15.442782 10.839632
8.226477 16.474873 -1.0517135
8.471575 16.469772 10.48654
8.94811 16.278656 10.942214
8.464772 17.666143 -1.6749612
8.929526 17.239159 10.367316
8.529678 18.292076 -1.8293105
8.840725 21.431683 -5.3829875
7.9506974 21.173702 -2.8336055
8.302325 20.985472 7.994566
8.35248 22.02413 -6.928528
8.4407215 21.624302 -6.288892
8.473621 21.543945 -4.4597616
8.32116 21.49384 7.923445
8.344073 22.683025 -7.3593407
8.866634 22.399874 7.3915715
8.313502 23.237492 -7.5311728
8.430875 23.723753 -7.4990897
8.421368 23.536804 6.3817277
8.315702 22.976269 6.9575872
8.277656 24.513311 -7.3726835
8.606656 24.28202 3.3872101
8.390959 24.424803 4.0507474
8.521533 23.979599 5.392977
8.334222 23.73454 6.0342135
8.735495 25.22432 -7.2437005
8.064019 25.456854 -0.4684385
9.215595 27.145943 -0.82324517
9.306888 28.592575 -1.4386877
8.932564 30.068071 -8.148332
8.33992 29.644838 -7.1362534
9.13662 29.596914 -2.2467422
8.832943 30.980907 -8.542493
8.716684 30.730734 -8.449078
8.488718 30.828724 -2.940414
8.4205475 31.773287 -8.34991
8.560991 32.501873 -3.9255779
8.787839 33.924732 -10.402234
8.5721035 33.163555 -4.3774643
8.929171 34.603657 -10.903837
8.661222 34.39083 -10.647826
8.768259 35.35765 -10.8342085
8.37184 35.392506 -10.561031
8.804795 36.195354 -10.618677
8.558427 36.338585 -10.406349
8.828327 36.048557 -7.0262547
8.770625 36.971527 -10.033991
8.645524 37.24989 -9.404206
8.53663 37.082245 -8.542244
9.469464 13.344389 6.707654
9.268421 13.0917225 7.642542
9.2088 13.093823 8.140252
9.698447 13.721181 5.570746
9.279494 13.742983 9.993081
8.789481 15.083536 2.8598933
9.465374 14.616482 10.931933
9.391223 15.834893 -0.13707504
9.568178 15.851653 1.6509597
9.349249 15.810217 11.246491
9.30451 16.883364 -1.1368215
9.6813345 16.35337 -0.54679334
9.156691 17.963322 -1.6773276
9.333154 17.46981 -1.3965728
9.57539 17.077198 10.9661255
9.179191 18.226967 -1.6747925
9.492321 18.491234 -1.569848
9.772602 17.75838 10.637223
8.956161 21.461037 -5.3371434
8.910076 21.423866 -4.832651
9.076092 20.223076 -0.83306086
9.0889015 20.62339 8.0766115
9.209845 22.21005 -6.716047
9.115106 21.761568 -6.26658
9.441185 21.711216 -5.4171124
9.437794 21.818214 -4.630515
8.745246 21.583351 -1.7455163
9.354162 21.042309 8.033069
9.186676 22.489893 -7.002322
9.377158 22.380661 7.0736327
9.048584 21.94115 7.8215346
9.201695 23.382484 -7.3571134
9.333968 23.571732 5.4194465
9.045537 23.292625 6.287101
9.05037 22.788162 6.860919
9.306538 24.500992 -7.3423295
9.488049 23.828215 1.0290015
9.032324 23.992876 4.300412
8.836262 23.685692 5.8674703
9.3389015 25.247084 -7.3101025
9.326378 25.621841 -0.7409258
10.048816 28.580074 -7.3066487
9.911858 29.845991 -8.438926
9.297387 31.742893 -8.629946
9.717512 30.986748 -2.1069992
10.035562 32.169117 -8.796313
9.675913 33.950962 -10.783498
9.429286 33.027657 -3.6832051
9.657774 33.702164 -3.0238905
10.236766 33.747166 -2.1208231
9.535917 34.59421 -11.070697
9.347565 33.802532 -5.012701
10.33655 34.675842 -2.3268495
9.534386 35.309063 -11.049118
10.317269 35.085 -2.7666636
9.51456 35.95781 -10.866723
9.350131 36.526314 -6.976503
9.21215 37.128014 -10.005371
9.6215105 37.29669 -9.419268
9.376623 37.089336 -7.672013
9.998844 37.525093 -9.166932
9.715053 37.549595 -8.667741
9.919017 13.169181 7.770138
9.988903 13.168649 8.150569
9.9142275 14.351659 4.2888145
10.268784 14.134114 4.9093094
10.274298 13.884195 5.504451
10.315338 13.726854 6.4538827
10.208466 13.478905 8.64941
10.526545 15.144368 4.218141
10.53523 14.575889 4.6544967
[...]
POINT_DATA 741
SCALARS features_00 float 1
LOOKUP_TABLE default
0.7007989 0.6946451 0.7223424 0.6865555 0.7450093 0.81339633 0.79885465 0.75759095 0.7877759 0.8657217 0.9012861 0.8459724 0.7791983 0.9343158 0.9373528 0.8548391 0.48597074 0.4771238 0.6302756 0.57628 0.6587428 0.5966401 0.60929656 0.72260034 0.7070236 0.7320597 0.8467809 0.8536209 0.7632283 0.8670156 0.8732238 0.87640333 0.5278696 0.5547655 0.51412445 0.5632681 0.5822657 0.4455455 0.48195308 0.53061557 0.39420602 0.4564727 0.24281423 0.2443614 0.13331908 0.12348205 0.45451045 0.47128677 0.41198647 0.40660733 0.5392872 0.53965974 0.79277515 0.7761482 0.81947494 0.843838 0.78838426 0.78995776 0.8213514 0.48891294 0.53679127 0.5616494 0.4966976 0.566031 0.60755104 0.3818815 0.39918134 0.4767732 0.6093322 0.37289488 0.3527665 0.3188539 0.5952039 0.5097403 0.19964625 0.35758194 0.42332852 0.12943277 0.16131361 0.12695047 0.13946879 0.17694649 0.25579688 0.15440112 0.15726657 0.24122067 0.70061165 0.6512911 0.5270928 0.57068324 0.45225567 0.43006384 0.34244043 0.6275131 0.6295389 0.46390617 0.4439671 0.40410084 0.64116395 0.44905958 0.42069823 0.57653594 0.5963485 0.52912927 0.53026366 0.25498474 0.14022729 0.39110607 0.38992822 0.13775347 0.35926673 0.29537153 0.13784598 0.30305597 0.11852197 0.2060438 0.19772509 0.59438014 0.4437086 0.47978055 0.46767187 0.4440421 0.5362295 0.4812346 0.46919364 0.44933522 0.4953435 0.47394782 0.46059346 0.15537933 0.17323153 0.61164683 0.4976294 0.20505373 0.49655026 0.5363715 0.5378107 0.43328273 0.4073013 0.47278553 0.51940686 0.5610331 0.41962844 0.5482889 0.5613961 0.1857145 0.14939599 0.49249357 0.52366614 0.53362256 0.5185494 0.5272751 0.2916605 0.413277 0.4753749 0.4406472 0.2906608 0.5639523 0.49867785 0.4942512 0.50983214 0.4621253 0.4740413 0.57463264 0.532211 0.29397354 0.15881008 0.5419698 0.6999016 0.6708449 0.53208923 0.589983 0.6415638 0.5733059 0.59509027 0.57285106 0.5797616 0.5860871 0.49921507 0.57533556 0.58380246 0.5813863 0.47697484 0.45606807 0.41092187 0.37933302 0.47632784 0.39364606 0.14423248 0.33038443 0.22919813 0.5250218 0.39231223 0.6599198 0.7386589 0.77612954 0.7852572 0.6580564 0.80462956 0.81926244 0.77416265 0.8145927 0.77738684 0.4531863 0.45247126 0.44119275 0.48398125 0.27959636 0.306503 0.41793677 0.49732846 0.59389716 0.5857526 0.5600247 0.6104347 0.554316 0.5285248 0.5820757 0.46986717 0.47727254 0.5864003 0.40090197 0.5339655 0.53847706 0.14374241 0.5838393 0.7246281 0.6753278 0.3976655 0.5938493 0.69277656 0.6000684 0.6459924 0.6124698 0.58421105 0.5904796 0.5491411 0.54416686 0.58204824 0.5797935 0.5841972 0.5334445 0.048382677 0.22870797 0.22431515 0.3715431 0.4180086 0.09339762 0.35431945 0.36239284 0.070019685 0.3356045 0.16231361 0.58003867 0.22748125 0.6510798 0.6426896 0.6833434 0.70529974 0.74554527 0.77459955 0.51859033 0.77835715 0.757325 0.71761584 0.44626942 0.45323998 0.46415198 0.40827823 0.5668985 0.24756962 0.5955161 0.6568561 0.5567329 0.5144967 0.64305544 0.66448414 0.5937103 0.61920047 0.43057728 0.57512236 0.55770314 0.39170521 0.5410666 0.49272543 0.21979266 0.59473693 0.6961059 0.6482661 0.5620384 0.477365 0.13481733 0.59991056 0.71023273 0.5905009 0.5875059 0.6715913 0.5427734 0.5671371 0.587109 0.6049049 0.28214493 0.5474732 0.5714524 0.55619586 0.034784976 0.34045678 0.33793122 0.32806224 0.031579893 0.26134408 0.57194024 0.11558295 0.22516868 0.34794682 0.63538486 0.23596604 0.4026784 0.6493931 0.39832336 0.6781454 0.47770783 0.7065439 0.60203767 0.5363223 0.53162915 0.54034865 0.44144726 0.46205473 0.38236672 0.39811045 0.4253872 0.4250818 0.48258612 0.37546456 0.40187857 0.65481657 0.640263 0.6130688 0.5917922 0.6478781 0.63939947 0.60786694 0.51993465 0.50023085 0.6175753 0.61238605 0.51032573 0.5929624 0.50675654 0.18619904 0.45161313 0.5362604 0.4303181 0.6097802 0.5712878 0.19227761 0.2385605 0.6052239 0.6268449 0.5491363 0.48668414 0.2528443 0.26091075 0.3284819 0.3960395 0.5404157 0.63896435 0.6332054 0.2642075 0.4113543 0.5071887 0.6252984 0.58068264 0.5702504 0.3508609 0.5969142 0.3644224 0.5007712 0.16452706 0.1865049 0.099337034 0.3689276 0.5887213 0.4363492 0.5919614 0.40559524 0.45807117 0.48296452 0.5020865 0.35371602 0.35251057 0.46374232 0.43713158 0.4241863 0.47888118 0.43066144 0.52645284 0.4080253 0.527879 0.39946598 0.41526675 0.44654587 0.61928993 0.5647445 0.599849 0.5089716 0.58018875 0.35727286 0.53252196 0.58543897 0.2027924 0.23994842 0.30348125 0.633088 0.21881574 0.23744181 0.29115513 0.23822036 0.25954545 0.36140507 0.39970535 0.5110961 0.34814298 0.5742687 0.11236422 0.6102439 0.7359871 0.6976783 0.3670349 0.3398277 0.60746366 0.58276856 0.29014224 0.40622875 0.44454533 0.47772452 0.46104497 0.5504564 0.49787557 0.58307666 0.5380003 0.51965606 0.41226757 0.46463335 0.46767458 0.5260598 0.4915085 0.46236798 0.41224423 0.41649097 0.33732012 0.5127913 0.5752803 0.6641832 0.6951916 0.7101139 0.67651045 0.07217464 0.06269176 0.5800787 0.08678989 0.81419545 0.18940173 0.7387259 0.24863902 0.7319039 0.40271235 0.70689386 0.42462283 0.5696001 0.42207128 0.50730884 0.41118032 0.44967207 0.36445418 0.57678634 0.58112615 0.46491575 0.70215476 0.5077964 0.7389833 0.542366 0.55221105 0.5174245 0.6238507 0.5294408 0.47902185 0.45948088 0.45719624 0.46872503 0.50511044 0.44595 0.49178514 0.45010108 0.75533366 0.7071508 0.66586685 0.688589 0.7045505 0.71623856 0.7144091 0.12552896 0.22801632 0.47348237 0.60440546 0.6559917 0.76782835 0.26499885 0.20078707 0.78663766 0.22587934 0.7794441 0.42228585 0.4166383 0.39653096 0.22225459 0.73680985 0.4391454 0.43921497 0.4438331 0.5193902 0.45435163 0.45048913 0.57271487 0.3623842 0.75809383 0.48077428 0.4762388 0.790971 0.7796743 0.4896775 0.7306633 0.52174205 0.5009365 0.4870472 0.46259725 0.46809676 0.5509487 0.6435238 0.64405954 0.6586529 0.7631736 0.8631295 0.8316832 0.84108806 0.8079312 0.756207 0.7303859 0.7506077 0.7433568 0.7602037 0.7175761 0.7310616 0.5477054 0.5799871 0.61069524 0.2458367 0.5355076 0.5998095 0.64967096 0.70372665 0.26736122 0.63260436 0.652151 0.4332989 0.3996778 0.46659708 0.47398207 0.47699052 0.38249296 0.36897624 0.42803198 0.4787286 0.43104702 0.48162702 0.46356785 0.70241666 0.7526257 0.39319357 0.79604065 0.78535104 0.4038182 0.39424968 0.40664068 0.34453723 0.4632405 0.50545704 0.6961606 0.79311883 0.8027351 0.4258917 0.43946254 0.40668252 0.44162866 0.47177228 0.6673792 0.7591649 0.7162038 0.78840375 0.8581016 0.84502256 0.80463994 0.8363271 0.83799285 0.8894371 0.83676004 0.79722905 0.75515807 0.84865814 0.86900544 0.8883335 0.8192102 0.80624366 0.80156004 0.7611926 0.77628154 0.7788828 0.7799504 0.7462712 0.49769288 0.48843944 0.49895087 0.51074255 0.51115435 0.49165553 0.5109417 0.52814764 0.52801955 0.5159408 0.52725446 0.49696955 0.46913296 0.46598178 0.5183046 0.5592927 0.6812128 0.7376481 0.4111371 0.42160046 0.60666156 0.690668 0.76227164 0.3962955 0.39070326 0.38862073 0.33984104 0.5540513 0.72410715 0.75053966 0.7953303 0.64889455 0.8205533 0.65753555 0.60558563 0.8611212 0.86773026 0.627641 0.76651096 0.6337457 0.72934246 0.751389 0.69360316 0.63976383 0.74465907 0.67677164 0.5459478 0.53254235 0.54225165 0.55780715 0.5595479 0.5201744 0.525261 0.5583565 0.50272626 0.6994315 0.68381894 0.659688 0.6629287 0.6058862 0.5893949 0.6058788 0.591912 0.6891383 0.6291612 0.5990892 0.7006228 0.68713105 0.64495975 0.6367941 0.6778408 0.7061938 0.69424856 0.6532129 0.6410321 0.63511455 0.5944328 0.5723777 0.7133466 0.60535085 0.72074425 0.6515708 0.61893064 0.6799419 0.72173065 0.69308126 0.64642406 0.6206938 0.613734 0.6238007 0.6350553 0.68394226 0.6636593 0.67484254 0.68549216 0.72405005 0.6489694 0.6509239 0.61010456 0.65965664 0.69363725 0.6116363 0.6588104 0.6169667 0.59101796 0.59690994 0.5986165 0.5965533 0.7040936 0.709132 0.7437642 0.7330528 0.67469645 0.62279975 0.66022 0.6032836 0.6606909 0.83859944 0.7363553 0.80035955 0.831419
SCALARS features_01 float 1
LOOKUP_TABLE default
0.11669254 0.1103203 0.117304 0.11670527 0.13707814 0.1580754 0.14937505 0.13285872 0.1544668 0.18486297 0.1964813 0.17303248 0.14542219 0.21271607 0.2147977 0.17868611 0.05125119 0.045827374 0.09455638 0.072774194 0.09328807 0.07133897 0.08908549 0.12002903 0.12339472 0.12925023 0.17371559 0.18114074 0.1432007 0.1804657 0.18339723 0.18892297 0.06663737 0.074087046 0.06201622 0.0742445 0.07972927 0.04226429 0.05076447 0.06272875 0.028266203 0.044393472 0.009959917 0.006236648 -0.007600122 -0.0065952325 0.036099076 0.03805037 0.02648671 0.027413234 0.054292724 0.067159496 0.1440299 0.15032122 0.15572795 0.17086813 0.15424724 0.15594314 0.16334973 0.057724465 0.07041579 0.07751512 0.05919063 0.07807225 0.08928581 0.03503511 0.033358254 0.053041726 0.08690682 0.033968106 0.029510904 0.02239944 0.08093308 0.05611869 0.0066083595 0.025631486 0.03879196 -0.013044586 -0.008501092 -0.043629304 -0.039052207 -0.016847778 0.002752788 -0.045440942 -0.034327596 -0.003777136 0.11702292 0.10429991 0.068399064 0.08018151 0.049506888 0.043530907 0.023126222 0.09573426 0.09546514 0.052970458 0.048114806 0.03918245 0.09469928 0.049632814 0.04370914 0.074000575 0.08110278 0.059973683 0.06471338 0.013538882 -0.0025960058 0.032291688 0.026865268 -0.00480781 0.026734801 0.0107385395 -0.02850325 0.015696315 -0.0301864 -0.0034191408 -0.039150774 0.05445249 0.04772333 0.05406423 0.05276496 0.046374697 0.06851963 0.056740172 0.05347734 0.047943663 0.060496278 0.0549891 0.051896024 -0.035563968 -0.037599195 0.08970215 0.05111754 -0.016996128 0.059232976 0.06564673 0.07057635 0.04393145 0.027992278 0.04446988 0.056924675 0.068966314 0.042514116 0.056651156 0.0639467 -0.00038516114 -0.118050404 0.051659927 0.05620453 0.055122018 0.053449217 0.053547867 0.008250635 0.04195347 0.05490201 0.045770768 0.013317551 0.071870886 0.060892258 0.059655786 0.061499428 0.05096299 0.05489995 0.08050324 0.06849863 0.001456747 -0.048585158 0.06742499 0.1165991 0.103514 0.06682345 0.0787683 0.09989321 0.07454059 0.079374254 0.08055322 0.073053926 0.075844385 0.061562654 0.056583174 0.06605896 0.07112192 0.0547518 0.050459843 0.034294304 0.03608855 0.04901002 0.037926815 0.005454546 0.01801505 0.0069330595 0.056433044 0.03158808 0.10798834 0.13622524 0.14931528 0.15279746 0.10959797 0.16170636 0.16748713 0.14987142 0.16569756 0.15065801 0.04911349 0.049565937 0.047684748 0.05533606 0.0045901844 0.008350771 0.03572507 0.057832826 0.07831264 0.0784319 0.07320145 0.0896713 0.073512666 0.06639638 0.08260086 0.05410148 0.05566634 0.08237652 0.040041216 0.06406463 0.07123118 -0.08079947 0.077199675 0.12451734 0.108020045 0.033907726 0.07969807 0.11491896 0.0794922 0.1006138 0.08961019 0.073242694 0.07655331 0.07151488 0.049129196 0.061061803 0.06753186 0.0717556 0.06510882 -0.07580044 0.0067576994 0.010916982 0.034736067 0.04197878 -0.0014795423 0.03171442 0.033176564 0.0012311114 0.027454926 0.0008940124 0.08168549 0.009737226 0.10576444 0.10283181 0.11660477 0.12425107 0.13885833 0.1499159 0.06753571 0.15108147 0.14232506 0.12681766 0.046607614 0.049319986 0.051638618 0.028814085 0.067442134 -0.0071135797 0.08164342 0.10002855 0.06647348 0.06373666 0.097598284 0.10427762 0.08171043 0.089482404 0.044800006 0.07428359 0.06597478 0.036919422 0.07200826 0.059262495 -0.009379725 0.07890887 0.11620879 0.10217353 0.078249514 0.05704651 -0.07678275 0.08206272 0.11972154 0.07679148 0.078245975 0.104666814 0.06109438 0.06933098 0.07503289 0.08145704 0.0067838924 0.05692745 0.06866132 0.0659789 -0.08867759 0.022156153 0.027339535 0.026347153 -0.0046740053 0.013676402 0.080661096 -0.0049526244 0.0037832987 0.025365276 0.100748226 0.009163122 0.035968527 0.10535341 0.0363702 0.11454346 0.049658787 0.12328831 0.08394596 0.06190826 0.0598918 0.063109994 0.04662593 0.05032484 0.021327594 0.02714571 0.032732714 0.038994543 0.052363273 0.025009766 0.029680917 0.08711025 0.097624406 0.0895413 0.08266521 0.09854189 0.097260244 0.08871748 0.06633743 0.05506814 0.087770835 0.086451665 0.06460291 0.081155546 0.06338522 0.005310409 0.043482278 0.05516774 0.044306595 0.09154681 0.08100451 0.005895395 0.008964889 0.08294479 0.093562625 0.0734376 0.059370633 0.008819726 0.011335453 0.019937089 0.03044801 0.06144053 0.09076384 0.092266575 0.0089266505 0.028839275 0.051766995 0.08468356 0.068704054 0.07924931 0.026193505 0.08824259 0.03253606 0.06137614 -0.0032903128 -0.021032212 -0.021319574 0.028425869 0.086485215 0.042808153 0.08744741 0.03904393 0.048723977 0.057835743 0.049906246 0.01640626 0.020182379 0.04007386 0.034398306 0.03336998 0.04864373 0.018417139 0.042858057 0.032629367 0.030276552 0.032140743 0.03504735 0.039398983 0.059546985 0.05182112 0.08671355 0.051942162 0.08176306 0.009510123 0.061484832 0.08052373 0.009677421 0.012743583 0.019619899 0.09291662 0.0103352675 0.011709916 0.018246623 0.010367512 0.013638653 0.02702359 0.032442532 0.057835136 0.018328778 0.07010587 -0.0034850948 0.09211541 0.1286305 0.11814303 0.025133377 0.014614796 0.09088489 0.08132618 0.017287139 0.028923744 0.039867222 0.051214315 0.04655341 0.073263824 0.05269602 0.0848464 0.05976474 0.05422966 0.029005904 0.041620206 0.049064532 0.05751645 0.04887366 0.04259179 0.030344138 0.030068532 0.0017525131 0.023378775 0.074812666 0.10486266 0.107963234 0.11342972 0.10531867 -0.0012947532 -0.0008025085 0.08373748 0.0010251218 0.15424609 -0.00030674227 0.13050078 -0.005828622 0.12517251 0.03665853 0.11404672 0.041529085 0.06334348 0.04133473 0.0007639251 0.039336648 0.028336965 0.0280978 0.07757721 0.08122528 0.049336057 0.12147866 0.058596127 0.13577142 0.064659424 0.06984414 0.04680312 0.09221665 0.06280783 0.04819819 0.041256357 0.03865884 0.03449052 0.055679273 0.03279688 0.056167156 0.03476632 0.13496402 0.11608991 0.10205032 0.11502674 0.118459806 0.12016807 0.118807964 0.003867636 0.011449333 0.053267997 0.08976599 0.10294536 0.13804193 0.011806596 0.009732801 0.14266983 -0.00021665031 0.13722342 0.0396719 0.037799817 0.026222622 -0.0005898606 0.116012506 0.043969892 0.043129314 0.026226908 0.035238966 0.04718229 0.047020122 0.07005876 0.028857913 0.14046489 0.05353067 0.054409176 0.15266643 0.14931472 0.057846807 0.12642533 0.062527195 0.055093035 0.047533266 0.034874123 0.033145133 0.071420126 0.097928815 0.10095905 0.10520576 0.13055721 0.16550604 0.17273936 0.1686325 0.16243409 0.13878101 0.12973957 0.13633436 0.13042937 0.13568215 0.122312754 0.12691157 0.073182106 0.082213394 0.09005048 0.01038727 0.0689095 0.086619526 0.10151498 0.11661784 0.010058633 0.09290594 0.09896709 0.04172105 0.032360878 0.04910619 0.050406463 0.04547036 0.020559464 0.016366523 0.029336559 0.05204626 0.03877162 0.054222215 0.05145626 0.117419474 0.13777898 0.035839327 0.15531445 0.14868666 0.038865797 0.03713083 0.04078287 0.015118885 0.034824062 0.05322179 0.119634144 0.15350881 0.15688959 0.044498526 0.047293436 0.035908308 0.032562315 0.03572247 0.10709587 0.13891946 0.12515147 0.14852922 0.18399654 0.17830175 0.1605674 0.16483574 0.16731977 0.18366075 0.1749177 0.15884942 0.14228651 0.16884375 0.17896685 0.18385611 0.16762604 0.16190106 0.15994966 0.14434427 0.1502307 0.1505178 0.1501111 0.1381315 0.054874685 0.052028384 0.056680046 0.05856042 0.05766227 0.053860012 0.06099123 0.06462489 0.063443586 0.06252433 0.066553235 0.060465228 0.053388495 0.052588414 0.0662344 0.07713183 0.11603775 0.13512892 0.04036437 0.04314298 0.09187777 0.1196025 0.14414491 0.03774447 0.037450064 0.038001943 0.016931482 0.07297485 0.13022242 0.13959628 0.15311265 0.09831596 0.16745742 0.102149606 0.08722349 0.18374844 0.18793602 0.09549576 0.14623217 0.09872971 0.1327851 0.13978705 0.11854527 0.100510545 0.13581105 0.112708665 0.070071146 0.06652759 0.07047803 0.07491901 0.07552955 0.06602107 0.06755976 0.07644965 0.06303378 0.11452477 0.10563002 0.10289726 0.10865891 0.08701842 0.08320757 0.089348026 0.084854156 0.118008666 0.09618397 0.08633254 0.1209565 0.11630037 0.10151193 0.098597296 0.111005045 0.120281875 0.11445636 0.10220802 0.09844283 0.09735688 0.0859803 0.077446945 0.12650701 0.086732164 0.12821728 0.10341568 0.08989633 0.11340138 0.12600301 0.115266345 0.09989916 0.09493647 0.091578126 0.09622224 0.09882944 0.113561355 0.10579436 0.11251112 0.11644762 0.12499675 0.09984769 0.10548945 0.0888621 0.103969306 0.11949785 0.09172832 0.10702787 0.09394636 0.086179204 0.08767955 0.088147 0.08642374 0.122331604 0.12607476 0.13723193 0.13263917 0.10982625 0.09285825 0.104294874 0.08882297 0.10852697 0.17403825 0.13178182 0.1600471 0.17139257
SCALARS features_02 float 1
LOOKUP_TABLE default