# vtk DataFile Version 2.0
Really cool data
ASCII
DATASET POLYDATA
POINTS 4038 float
-34.524734 10.8272505 10.4482565
-34.842194 11.921446 5.0410748
-34.89787 11.734816 5.5141716
-34.869843 11.677472 6.2604647
-34.539585 11.513372 10.42232
-34.867302 12.603994 5.074028
-35.01687 12.469036 5.496684
-35.04589 12.572216 6.231862
-34.655693 12.799651 9.5710125
-34.702816 13.250446 5.0552588
-34.878654 13.200831 5.622538
-34.80515 13.735553 6.096929
-34.733917 13.764102 7.5575023
-34.77793 13.395493 8.859491
-34.67548 13.656732 9.379001
-34.57251 14.405975 5.8641367
-34.73086 14.374871 6.145766
-34.58213 14.170647 9.182114
-34.541832 15.050905 7.01531
-33.862484 7.999893 8.827721
-33.795544 8.058683 9.461661
-33.719185 8.339424 7.893757
-34.043335 8.56161 8.64669
-34.09869 8.705224 9.365991
-33.882896 8.983494 10.477464
-33.938335 9.788995 5.341659
-33.811413 9.535583 6.4002104
-34.130924 9.462681 9.619494
-34.15511 9.699024 10.3668375
-33.92392 9.540445 11.000243
-34.057526 10.468722 4.8290796
-34.407948 10.675271 5.448362
-34.404755 10.657562 10.6063175
-34.17653 10.657927 11.292877
-33.80956 10.381823 11.698173
-33.87801 11.35674 4.2927504
-34.35039 11.561008 4.7096143
-34.329178 11.78335 7.3243847
-34.371605 12.01096 8.843725
-34.24301 11.74384 9.210252
-34.44041 11.532557 10.537962
-34.139576 11.472447 11.369107
-33.80282 11.388001 11.843108
-34.142242 12.22452 4.42338
-34.44782 12.271017 4.550398
-34.35668 12.2502365 9.07936
-34.34202 12.266569 10.701936
-33.92036 12.562734 11.291485
-33.913315 13.340079 4.373098
-34.314503 13.392431 10.56497
-33.852898 13.6325245 11.283538
-34.397305 14.5542 8.752328
-34.362404 14.434848 9.329879
-34.18325 14.210445 10.336912
-33.75936 14.209268 11.155738
-33.985874 16.12831 3.8259263
-33.87843 15.5922365 4.393141
-34.32536 15.118313 7.4960656
-34.282085 14.952827 8.182129
-34.063084 14.855753 9.081063
-33.836926 14.807233 10.195808
-33.76487 16.7512 2.7104542
-34.185123 16.65814 3.9724298
-33.993824 16.36709 4.88607
-34.118294 16.305574 5.016742
-33.683167 17.44673 2.3728848
-34.116936 17.592087 3.5704086
-34.21665 17.547606 4.691284
-34.08974 17.634403 5.364014
-33.73317 17.789421 5.7897663
-33.80547 18.34002 2.6771677
-33.963867 18.47315 3.4152489
-33.93031 18.362211 4.670899
-33.900314 18.138397 5.2756357
-33.71973 17.879725 5.757963
-33.765373 18.931242 3.4163568
-33.7491 18.752775 4.4713516
-32.703842 6.9942384 6.564424
-32.951653 7.1964955 7.797056
-32.843143 7.0862694 8.379727
-33.3411 7.591478 7.579314
-33.549496 7.632971 8.778487
-33.417828 7.6060634 9.340352
-33.22863 7.8293676 10.166485
-33.19955 8.619859 5.7968187
-33.41812 8.39535 7.064664
-33.123806 8.616289 11.416496
-32.850166 9.034222 12.026762
-33.368546 9.694975 4.7450294
-33.614258 9.625163 11.59582
-32.954132 9.640834 12.151083
-33.447945 10.686321 4.2731724
-33.29326 10.706359 12.227173
-33.580658 11.646769 4.142334
-33.250637 11.465477 12.271583
-33.36743 12.471044 11.978764
-33.293324 13.473292 11.764164
-32.711594 15.083099 2.1553798
-32.93966 14.857686 2.7661285
-33.274384 14.4365015 11.473767
-33.115395 14.245062 11.656347
-32.98134 15.715718 1.9878048
-33.20704 15.776274 2.3718786
-33.41196 15.557286 3.3862848
-33.030262 15.257622 9.600536
-33.391773 14.957968 10.538559
-33.20109 14.758413 11.181247
-32.94602 16.702227 1.4150776
-33.51461 16.538692 2.4852736
-33.434032 16.679323 6.412591
-32.830585 17.409224 1.3264992
-33.461002 17.467268 1.913572
-33.209003 18.370615 1.9714983
-33.462776 18.439823 5.4586062
-33.38792 18.08619 5.865491
-33.052143 19.018194 2.177733
-33.256897 19.19758 2.7074926
-33.293137 19.36428 3.390862
-33.301495 19.083216 4.3661084
-33.228767 18.820885 4.9560733
-31.566015 5.1517825 7.4230533
-31.71124 5.8298836 5.4934683
-32.037125 5.95899 6.4191594
-31.77256 5.8213363 7.9525433
-31.966312 6.695245 5.1384745
-32.09441 6.5336547 5.5750957
-32.34833 6.7203655 7.5331454
-32.30314 6.736438 8.068458
-32.246704 7.3637705 10.309898
-32.072155 7.746655 4.991613
-32.291733 7.2637324 5.290444
-32.515694 7.6999574 10.804233
-32.384212 7.9789715 11.315457
-32.57823 8.948791 4.640161
-32.507244 8.727452 12.017534
-32.035103 9.699875 4.1122065
-32.49452 9.394546 4.5903645
-32.53662 9.408153 12.255335
-32.64765 10.930243 4.0673566
-32.804745 10.363785 12.437047
-32.319946 10.655775 12.593485
-32.52335 11.8039465 12.470528
-32.560543 11.405264 12.58244
-31.763693 13.114969 3.0268118
-32.02779 12.573312 3.5536838
-32.5203 12.459509 12.213429
-31.810917 13.691967 2.468979
-32.767048 13.717637 11.969784
-31.971876 14.9845705 1.3574388
-32.41617 14.406759 2.1951716
-32.64895 14.274511 11.778648
-32.14665 15.713375 1.4584208
-32.65415 15.116287 10.390817
-32.758884 14.831393 11.368988
-32.25268 16.592821 0.9943063
-32.874397 16.53415 6.4877653
-32.792805 16.258057 7.03117
-32.437523 17.430923 1.0058175
-32.293667 18.143448 1.1657459
-32.235653 18.57061 1.3926436
-32.222027 19.249912 2.0830162
-32.699154 19.320862 2.3509874
-32.72706 19.252108 4.3540726
-32.510937 18.76676 5.24372
-32.673584 19.548588 2.7543976
-32.63949 19.550655 3.138762
-30.829952 4.2403693 6.9289856
-30.804674 4.105245 7.216831
-30.831894 4.052214 8.037081
-31.369036 5.3281546 5.9091763
-31.18058 4.8854012 6.5188394
-31.181147 4.6163764 7.5541296
-31.037376 4.5050354 8.12043
-31.207338 6.002954 4.9314537
-31.36275 5.6194296 5.525135
-31.575943 5.4700146 6.272118
-31.5604 5.4607253 7.073876
-31.360615 5.5269504 7.9145064
-31.136976 5.8998203 8.832117
-31.227468 6.505771 4.653245
-31.180166 6.9126563 10.045938
-31.165482 7.86191 4.375114
-31.319595 7.0951056 4.456346
-31.35743 7.8952785 11.868629
-31.506603 8.741064 4.2051587
-31.265738 8.557169 12.3172455
-31.138796 9.24572 4.01777
-31.81829 9.421037 12.560777
-31.617489 10.491279 12.617334
-31.145493 13.262377 2.0515902
-31.079506 12.96747 2.4860215
-31.804682 12.074268 12.313362
-31.12152 14.130333 1.1271809
-31.215023 13.794408 1.4747144
-31.650019 13.157975 11.982677
-31.270828 14.624488 1.0218638
-31.679415 14.445208 11.590132
-31.218388 15.355704 0.86118484
-30.965921 15.3522005 8.370314
-31.871119 15.211327 10.820698
-31.313772 16.788864 0.6091708
-31.8124 16.282873 6.539367
-31.64713 17.45621 0.53119445
-30.687067 18.527044 0.27169365
-31.656122 18.149567 5.348757
-31.771805 19.235828 3.7649226
-32.013393 19.550127 3.2997332
-29.681543 2.666065 14.589409
-29.613764 2.5350287 15.637575
-29.631144 2.5303054 16.072887
-30.044 4.275445 6.1215105
-30.416119 4.0953207 6.644077
-30.545683 3.8441145 7.5215445
-30.101059 3.5888407 14.602025
-29.868301 3.9450805 15.563395
-29.697863 3.754572 15.835816
-30.581629 5.335954 5.27106
-30.182331 4.6202555 5.7837925
-29.890615 4.397323 9.290632
-30.183039 4.508262 13.945502
-30.20533 4.582145 14.465995
-30.029705 4.5366287 15.094608
-30.26762 5.4130397 9.42812
-29.930786 5.6075387 9.946894
-29.93305 5.004352 12.998164
-29.937525 5.21349 14.454778
-29.81753 5.110364 14.993557
-30.706373 7.016057 4.3140388
-30.665606 6.3404803 4.547922
-30.054945 6.438774 11.544101
-30.288443 7.0739236 11.7664995
-29.70458 6.1138606 13.430058
-30.479229 8.784351 3.9192376
-30.375483 8.812472 12.781685
-30.897724 9.772833 3.9148445
-30.571142 9.1600895 12.704588
-30.858023 11.111074 4.1042795
-30.19456 11.244033 12.349868
-31.011293 11.026187 12.623649
-30.068668 12.972181 1.7045566
-29.975182 12.463243 2.8014429
-30.739386 13.624848 1.3544332
-30.33699 14.3103075 0.80808604
-30.36075 14.580258 11.779252
-30.335905 15.53205 11.053467
-30.019918 15.143427 11.905623
-30.19765 16.846134 0.27064222
-30.175516 16.65568 6.0127654
-30.015411 16.172735 8.617543
-30.416248 15.733522 10.27207
-30.401508 15.666379 10.918123
-30.014942 17.43139 0.023521781
-30.119516 18.573614 -0.10235089
-29.78409 19.35014 -0.30038837
-30.478388 19.344978 0.71023417
-30.151457 19.54204 2.743537
-29.657425 19.9102 -0.1450074
-29.93525 20.023483 0.5195767
-29.874437 19.964407 1.2969038
-29.839733 19.873695 2.2998788
-28.752539 -2.0825672 10.963749
-28.745409 -2.1598668 11.60043
-28.743063 -1.9756365 12.30774
-28.777634 -1.2646697 9.820054
-28.796528 -1.6267859 10.388427
-28.94044 -1.5470046 11.541528
-28.826612 -1.4818087 12.450533
-28.838383 -0.65859675 9.758967
-29.068453 -0.86888057 10.626369
-29.006458 -0.78325975 11.614479
-28.872036 -0.98811656 12.367757
-28.640913 -0.7107416 12.798177
-28.634794 0.51913327 8.904234
-28.756203 0.31510234 9.3199625
-29.017227 0.5501499 10.4975195
-29.028324 0.5004543 11.127469
-28.798523 0.56637126 11.844202
-28.71093 1.9244403 8.644616
-28.810883 1.3318374 9.80821
-28.695322 1.847836 11.059298
-28.72643 1.1081462 12.396316
-29.187012 1.9801252 14.776286
-29.312483 1.8507683 15.632491
-29.183239 1.8838224 16.462193
-28.880116 2.0184364 17.01859
-29.672592 3.2566226 7.626194
-29.380747 3.1578445 8.429025
-28.873882 2.8115602 9.155263
-29.24164 2.42051 13.619631
-29.506725 2.3609695 14.570009
-29.5156 2.27491 15.773294
-29.451649 2.5501068 16.509668
-29.051922 2.5650256 17.037651
-29.703308 4.2788873 5.9216986
-29.484827 3.5283751 6.696931
-29.651176 3.6417782 8.764341
-29.001274 3.7113621 11.844017
-29.29946 3.5298688 12.822295
-29.430197 3.2313414 16.387045
-29.01311 3.2143645 16.937567
-29.439116 5.1387568 5.139077
-29.516426 4.517005 5.6941853
-29.45178 4.424954 12.097705
-29.263205 4.470249 15.997676
-29.476286 5.908843 4.815954
-29.578745 4.901209 15.56425
-29.058933 5.1943493 15.906919
-29.296932 6.1138515 14.485982
-28.981121 5.9249907 15.267763
-28.993313 7.56489 3.3159297
-29.370462 7.5396066 3.6283932
-28.984896 6.8766966 13.748423
-29.254435 8.883088 13.183108
-29.359406 9.81495 3.533996
-29.083414 9.536502 13.22424
-29.208345 10.917526 3.75504
-28.819386 11.628892 2.886716
-29.239538 11.136577 12.35581
-29.019178 13.085228 0.81195676
-29.59265 12.844131 1.574859
-29.221409 11.871425 12.182941
-29.539595 13.577766 0.86518663
-29.208256 13.684325 12.08895
-29.375818 14.830953 12.358994
-29.02612 15.538879 12.340704
-29.541138 17.052431 0.04603046
-29.347183 16.29542 11.654707
-28.998867 16.354536 11.92756
[...]
POINT_DATA 4038
SCALARS features_00 float 1
LOOKUP_TABLE default
0.38241118 0.443099 0.4523543 0.44079852 0.38276833 0.43693897 0.44032985 0.4101568 0.39594156 0.40438348 0.40141365 0.31578678 0.29798323 0.36800092 0.4248675 0.21889846 0.22670808 0.4066314 0.22868706 0.30891287 0.35703385 0.2539407 0.31883788 0.37540844 0.41965315 0.37878498 0.30189073 0.36524153 0.40360093 0.43802258 0.40242755 0.42615622 0.4027853 0.45523423 0.47265804 0.38912785 0.42700952 0.29727012 0.2939694 0.3073756 0.39353493 0.46270138 0.48684454 0.40450978 0.4246083 0.33330673 0.41848952 0.48386598 0.34401006 0.4795593 0.5034604 0.36980832 0.42481074 0.50121784 0.5138464 0.41234255 0.30982012 0.26254314 0.3172353 0.39937693 0.5119943 0.44090277 0.48955423 0.46236455 0.44457197 0.5481054 0.6328584 0.59164 0.5677866 0.54598 0.7076962 0.7245032 0.6089389 0.5753928 0.54296476 0.7217506 0.6316794 0.26454532 0.19983003 0.20686159 0.21463385 0.27921963 0.31477988 0.38564622 0.27564794 0.2224428 0.43418473 0.41425788 0.34232268 0.4560055 0.4315016 0.34989005 0.47006604 0.33895856 0.4714688 0.47621855 0.47579494 0.31875682 0.28333873 0.49062067 0.4720251 0.34887278 0.35181692 0.32902294 0.4488982 0.50959015 0.48946956 0.41085157 0.40854463 0.5140042 0.47329134 0.5237563 0.6285177 0.54191375 0.481754 0.655708 0.6944078 0.69966483 0.6455723 0.5874937 0.3002158 0.38934943 0.31092274 0.234708 0.37171787 0.37485632 0.19181523 0.18267049 0.28608024 0.28485548 0.34162837 0.3588047 0.3632398 0.24078292 0.38624698 0.19016057 0.24561495 0.39516783 0.22828408 0.4334715 0.39929533 0.410419 0.4156822 0.120177776 -0.011304207 0.4114356 0.2255379 0.42229146 0.31906253 0.28890717 0.4209027 0.3368787 0.43521577 0.44675392 0.37102425 0.41671413 0.29943365 0.43472472 0.4538737 0.4717756 0.5516007 0.6480045 0.63401645 0.5488026 0.6530459 0.649414 0.3813652 0.37526298 0.3361145 0.38571557 0.37306356 0.33491158 0.31538188 0.38045758 0.39423513 0.3544041 0.2973109 0.2703128 0.18795271 0.34555 0.06642508 0.20112678 0.28745982 0.28962034 0.16535252 0.31827858 0.11432252 0.3428177 0.3450144 0.20838922 0.16224557 0.32378477 0.28002423 0.25750697 0.2912888 0.30274662 0.30562732 0.29726553 0.0766903 0.3209744 0.30485386 0.24544226 0.34733078 0.4369461 0.41497833 0.4981949 0.53042084 0.47732258 0.5799066 0.62252986 0.3597938 0.38905698 0.37492067 0.5011077 0.5262121 0.54997075 0.36076707 0.35407144 0.24671692 0.47354895 0.47459874 0.4824773 0.17183045 0.0625114 0.4239663 0.45040503 0.44688046 0.23754548 0.30714408 -0.13429792 0.057786524 0.37685925 0.08426639 0.23169632 0.05722955 0.24679703 -0.045055695 0.11888972 0.26633066 0.22421245 0.07677591 0.24614838 0.27291566 0.2522137 0.32571378 0.34841287 0.3112079 0.10422639 0.19381934 0.2726397 0.31973302 0.41115153 0.52814996 0.6477683 0.55202526 0.25113916 0.69169414 0.6557208 0.5501806 0.38127956 0.66736114 0.7067206 0.7300599 0.5556921 0.6085613 0.6418345 0.68464077 0.50115556 0.5388454 0.545508 0.61010456 0.60712624 0.38238394 0.4163454 0.37624583 0.36220676 0.33903527 0.14178509 0.25167888 0.15227242 0.17249517 0.5329293 0.637439 0.73977166 0.79338 0.35044265 0.23921356 0.039758366 0.26033878 0.47622007 0.61396706 0.67808676 0.74870867 0.31682 0.35736746 0.25754827 0.097014725 0.30128163 0.6214758 0.6786801 0.22128692 0.27735788 0.24259129 0.49696797 0.19800434 0.45851278 0.43508673 0.35830903 0.3606895 0.24512717 0.18761158 0.21493024 0.03130026 -0.090329506 0.08459893 -0.20392582 -0.011239268 -0.008698441 0.29628018 0.23356995 -0.10326557 0.2948596 0.14044228 0.34764582 0.39726555 0.38101983 0.43173414 0.4431119 0.17556095 0.36500657 0.45587254 0.46951663 0.62853104 0.57599014 0.10201455 0.6953037 0.72450244 0.14721859 0.18711527 0.7504822 0.74457633 0.670427 0.411631 0.35143173 0.76167035 0.71639967 0.6159885 0.4915042 0.75084126 0.80077523 0.8214756 0.62581867 0.6775422 0.73661906 0.7996045 0.7984538 0.5377723 0.57923776 0.74264705 0.46632588 0.6171547 0.3085331 0.57159126 0.6919564 0.754766 0.7787813 0.8106125 0.2335134 0.7753427 0.17579341 0.6582401 0.120061465 0.17552531 0.5146103 0.6014699 0.24969116 0.4197087 0.34307793 0.30089492 0.2954717 0.3349704 0.3377502 0.05736783 0.16510111 0.2674067 -0.051931042 -0.03335484 0.01815077 0.24072282 0.2212101 -0.08034089 0.2758004 0.26045075 0.18356615 0.17936143 0.3412832 0.31437406 0.16677079 0.11163566 0.39137688 0.40511292 0.44950324 0.4184808 0.5425065 0.4655727 0.49255317 0.48162833 0.683622 0.74294996 0.22652206 0.27401266 0.7946218 0.8041759 0.41752887 0.34238014 0.80498505 0.7677339 0.65341914 0.444762 0.7731602 0.8308746 0.84727263 0.8417177 0.5556222 0.6327182 0.83978105 0.4998284 0.78439826 0.24641857 0.3660591 0.07843536 0.17309703 0.6268528 0.7069384 0.7683487 0.09215698 0.08726562 0.78836566 0.75610316 0.74312884 0.13811909 0.6804811 0.68805766 0.5968899 0.33873165 0.29980063 0.15836684 0.37330186 0.39855278 0.2805869 0.15863988 -0.10035257 0.17874722 -0.30318493 0.22321412 -0.19938454 0.20560516 0.13179418 0.3729699 0.2256939 0.18711321 0.42807484 0.44735867 0.24003676 0.4555248 0.46315444 0.72712153 0.67152846 0.31562287 0.7992009 0.8313182 0.38860992 0.3966356 0.8293548 0.8498633 0.5683173 0.44082728 0.35401943 0.35832852 0.41134772 0.8510737 0.83826745 0.7264026 0.75465035 0.8089545 0.83512807 0.5129499 0.5864678 0.60530174 0.80632806 0.33005673 0.63267016 0.094656415 0.37101442 0.06747131 0.076400034 0.55213904 0.13561155 0.09690277 0.7298516 0.17036632 0.64538014 -0.021261787 0.59136283 0.26652214 -0.15650721 0.36535695 0.30824018 0.360772 0.037120942 0.5849693 0.5892147 0.6585939 0.6582966 0.04801207 0.619476 0.65498185 0.6733997 0.0982637 0.45041937 0.55791086 0.6200547 -0.20741631 -0.13428134 0.18715793 -0.21498066 -0.1913306 0.18186301 0.16700876 0.10628248 0.12247303 0.014930129 0.28845364 0.16254814 0.33835202 0.3073752 0.41158408 0.6699091 0.25241235 0.15736115 0.82082665 0.78107303 0.36809793 0.32647407 0.8619839 0.8399841 0.56945693 0.4739124 0.36854443 0.4061253 0.4180984 0.5142429 0.7963987 0.51149285 0.500897 0.46885264 0.5717763 0.6831439 0.6579525 0.4993746 0.49487352 0.4659132 0.34715414 0.030612133 0.36186028 -0.33557865 0.096509874 -0.47614378 0.15868688 0.11596243 0.1823773 0.50451833 0.056245457 0.11298345 -0.18695505 0.28698874 0.18995328 0.62962914 0.16100009 0.6684839 0.0029688403 0.6576402 0.0012438223 0.534463 0.6032702 0.627946 0.4405882 -0.056213886 0.22447324 -0.045134634 0.18362129 0.025021609 0.1773862 0.15872864 0.13248864 0.15946051 0.12377313 0.15556835 0.13490963 0.5188736 0.59195834 0.40389502 0.44342497 0.33937386 0.309283 0.3815152 0.27538902 0.43717065 0.379642 0.38916612 0.41402012 0.45598757 0.44751528 0.4036848 0.42437828 0.46405512 0.50515497 0.45835555 0.44977444 0.41724133 0.48554125 0.4574018 0.3943853 0.44895 0.46577978 0.39292306 0.48210323 0.26870763 0.25286573 0.38499254 0.4540283 0.46330762 0.23262244 0.23785225 0.028240234 0.41342366 0.32466376 0.25364184 0.37532395 0.45446873 0.4645574 0.3926897 0.020365797 -0.10663773 -0.2521752 -0.015193254 0.03197012 0.26964998 0.3884743 0.48262745 0.44471678 0.14507347 0.10579393 0.039564192 -0.2708588 -0.00045597553 0.16915026 0.36891818 0.49925417 0.4657594 0.16125844 0.051231034 0.17889272 0.23347393 0.23834336 0.14401494 0.14235774 0.41515452 0.49583143 0.06524001 0.15277135 0.4621816 0.48242176 -0.0075321198 -0.36366576 0.050475344 0.12738185 0.5585283 0.6085447 -0.14419788 0.59065306 -0.001238782 0.51081795 0.5714874 0.5077281 0.35969627 0.16105172 0.2920191 0.5390706 0.39131477 -0.036651596 0.4845305 0.11869651 0.2283869 0.17890167 0.18895254 0.21511321 -0.011554671 0.09644455 0.13531865 0.24394795 0.27424568 0.16522855 0.38382357 0.3713249 0.31269842 0.3669606 0.3800704 0.2826114 0.38983196 0.43304515 0.36088482 0.2864455 0.21787831 0.35304818 0.42555386 0.36084995 0.4378909 0.20581213 0.1158569 0.42564777 0.4538436 0.42972112 0.28311157 0.2987228 0.4628259 0.4519331 0.39042562 0.38721076 0.3175312 0.089581355 -0.044572964 0.02835735 0.040999226 0.03031008 0.42883676 0.25086892 0.36756465 0.033586018 0.0787541 -0.07383891 0.14807639 0.34691703 0.09783979 0.11069571 -0.1874781 -0.13194616 0.07256789 0.16884908 0.46036306 0.35830766 0.29776216 0.10976583 -0.036042564 -0.0053894557 0.31486207 0.36910507 0.36186922 0.4959681 0.5010386 -0.014599953 -0.44284105 -0.039347913 0.15524802 0.4660727 0.4951882 0.4951229 0.4417628 -0.42823678 -0.3071076 -0.046362735 0.3782508 0.4400857 0.46465817 0.5436158 0.3768654 0.17677684 -0.24588485 -0.12232148 0.5965574 0.57282597 0.34747377 0.18545775 0.10836148 0.49320346 0.09775037 0.42351478 0.4594244 0.41256958 0.16516486 0.39984256 0.439518 0.575802 0.5003623 0.2219566 0.29932654 0.60869175 0.5870594 0.60568225 0.5780194 0.037830584 0.53103685 0.22239459 0.34829345 0.2576842 0.30659536 0.35314962 0.3834877 0.12144093 -0.22460186 -0.08581485 -0.037205998 0.07969663 0.2033511 0.33331212 0.08209123 0.119175665 -0.29206768 0.63357484 0.332226 0.67444897 0.62097406 0.51506495 0.67859757 0.66442513 0.67755103 0.63601387 0.5884401 0.63710076 0.6112506 0.2875218 0.2538284 0.2110053 0.17039534 0.23767321 0.2340264 0.13371283 0.097918496 0.0503103 0.1777942 0.20828725 0.14882162 0.19471483 0.413168 0.16486734 0.42161983 0.34375912 0.3813601 0.39936185 0.28411055 -0.060012534 -0.02360221 0.36938742 0.22142647 0.30457038 0.33777696 0.20602795 -0.063608564 0.09927887 0.14873314 0.33968934 0.51285195 0.06076106 0.30604455 0.4411723 0.09214634 0.17443216 0.35887954 0.39181525 0.08823548 0.21821405 0.28843856 0.063700184 -0.046185754 0.47187296 0.35032618 0.56003267 0.4588319 0.33070904 0.3710218 0.42267245 0.6349815 0.5940681 0.17575146 0.65055203 0.19306771 0.61203694 0.5524776 0.2077497 0.23206614 0.43654042 0.1692347 0.2714319 0.57419515 0.2065272 0.6324961 0.12149584 0.64121425 0.64306945 0.014557824 0.6242037 0.6139755 0.5308447 0.494306 0.24532698 0.37559986 0.32165933 -0.0061017126 0.4372021 -0.011177331 -0.6479598 0.44913572 0.51224995 0.032896042 -0.31956965 -0.09218907 0.109623976 0.13765162 0.3087353 0.37539518 0.44154635 -0.11934592 0.1587749 0.18428206 0.18654537 0.14160378 0.25495106 0.5051364 0.6569574 0.6721112 0.45587176 0.6586081 0.64087886 0.5756822 0.53983563 0.62650704 0.6432688 0.6327987 0.5961131 0.51311135 0.4875145 0.39287332 0.36335266 0.46347323 0.379461 0.31974897 0.2780239 0.3843357 0.48267472 0.35079515 0.18648495 0.18934211 0.249991 0.29600918 0.5282492 0.39737782 0.053298917 0.25264493 0.29387894 -0.11054039 0.2507574 0.29001576 0.35434908 0.36019695 0.31948465 0.19362798 -0.103605226 -0.14315723 0.35478103 0.6412493 0.6890942 0.20639536 0.2904228 0.6064029 0.6644485 0.17017204 0.5198084 0.61143273 0.6080789 0.093003295 0.4512621 0.505997 0.24026462 0.12229896 0.26020747 0.40440196 0.45347553 0.16098464 0.08889199 0.32995474 0.4036794 0.12510863 0.15014964 0.2870533 0.23223813 0.5870161 0.5376008 0.32846013 0.17292883 0.20708583 0.640543 0.14297682 0.6626798 0.14571106 0.6108571 0.1964458 0.5353595 0.43622935 0.13844728 0.17484257 0.13092244 0.6464638 0.62723076 0.6273302 -0.054917544 0.601145 0.5578633 0.5553342 0.5145749 0.45076054 0.51066244 0.5729241 0.6788669 0.5405743 0.62644863 0.6713463 -0.38523674 0.47740495 0.5172337 0.62596166 0.22181547 0.21805957 0.30467826 0.40975392 0.5732055 0.57313085 -0.008818287 0.6050916 0.0948203 0.62600386 0.6427845 0.33962196 0.6296824 0.60435414 0.46275944 0.60212046 0.59768546 0.59782296 0.5482296 0.4753437 0.56540155 0.5240204 0.43949696 0.5979794 0.58100045 0.52396065 0.37403113 0.5107006 0.59606254 0.6144403 0.5360502 0.5213362 0.5865028 0.6001818 0.45214754 0.56093377 0.40773603 -0.1226456 -0.04006151 0.14854053 -0.01607757 -0.1678591 -0.050791018 0.13057399 0.19524255 0.26781034 0.07121678 -0.00029873848 -0.04861753 -0.063994355 0.527875 0.6666248 0.7133984 0.75151086 0.161472 0.7115344 0.7260361 0.575824 0.49460942 0.44967595 0.14987835 0.64358836 0.55474514 0.46014392 0.29308397 0.53673685 0.5602486 0.5303861 0.3793739 0.48335415 0.51667166 0.28188038 0.014373243 0.11502683 0.31920105 0.40322685 0.43862385 0.4705978 0.13480031 -0.008904088 0.074263394 0.23281027 0.3583345 0.020689018 0.061557025 0.544886 0.13858557 0.6110001 0.53123116 0.0853425 0.06385405 0.5666753 0.16995594 0.53089726 0.18713725 0.085702665 0.1091004 0.11946385 0.08473584 0.113766946 0.5387696 0.6173002 0.5646599 0.20995587 0.59345174 0.53988993 0.43594033 0.6225637 0.7173881 0.051843382 0.74564314 0.6930852 0.738176 0.19189169 0.19180664 0.23133805 0.22407582 0.44696468 0.6129589 0.65921485 0.53655314 0.49033415 0.5475484 0.1313055 0.5838195 0.55104864 0.27072084 0.57126325 0.53106695 0.38586056 0.529592 0.53987104 0.5408547 0.4614225 0.52754515 0.48553807 0.43064392 0.6056526 0.56602913 0.5108922 0.41075462 0.33395082 0.2555716 0.5398383 0.6183066 0.2934094 0.39050716 0.6072278 0.62747175 0.53957784 0.5303612 0.6231367 0.37819883 0.5994067 0.5788093 0.10966662 0.14074695 0.15567702 0.15900034 0.11317049 0.03256631 0.06207201 0.08857774 0.04850405 0.12938985 0.00010546483 -0.1618872 -0.08172173 0.69507426 0.76656413 0.7849797 0.5438194 0.43303418 0.15595767 0.09124182 0.77197576 0.6302497 0.580515 0.6875709 0.6347753 0.62255573 0.598444 0.5868253 0.544917 0.5018152 -0.14102627 0.42359507 0.45738912 0.0043142512 -0.103936076 -0.092016965 -0.35974452 -0.05111609 0.041261017 0.32769865 0.40157002 -0.28280914 -0.02902519 -0.078181535 0.022973673 -0.004049927 0.13658476 0.32666755 -0.0037629604 0.26817358 -0.04152701 0.5044703 0.42588198 0.13539132 0.16372596 0.14789866 0.12628229 0.032008607 0.016679466 -0.042682953 0.049058944 0.038089767 -0.41501915 0.20740959 0.29853016 0.53403044 -0.33379287 0.6615765 0.7080667 0.77019 -0.0018160567 0.7979629 0.037390873 0.10049656 0.7335651 0.77289 0.10426849 0.18953967 0.020926654 0.5374884 0.6317997 0.68358636 0.4924059 0.51321 0.49305955 0.12037541 0.046577476 0.5274903 0.49182615 0.45373255 0.3109057 0.26664466 0.4485712 0.4631504 0.3911098 0.36192822 0.51723546 0.47753936 0.37104473 0.330203 0.575288 0.5416567 0.5364653 0.58568174 0.59652865 0.6217978 0.50752026 0.6224302 0.40933648 0.44180045 0.58272225 0.104559 0.14121616 0.51259863 0.011439472 0.12481122 0.2830944 -0.20798254 0.02416404 0.032407504 -0.004277312 -0.11177679 -0.22012922 -0.2504703 0.39402494 0.60933775 0.6351758 0.6165824 0.545585 0.39031655 0.1786043 0.091874674 0.579545 0.7002412 0.65700257 0.6533854 0.663029 0.64748263 0.6509819 0.6287482 0.6045298 0.5651305 0.49124628 0.52553046 0.22890738 -0.39009 0.3188331 -0.51956797 -0.07190702 -0.0032112915 0.2126039 0.08391434 0.13423683 0.19566736 0.16870645 0.21089801 0.28156906 -0.05263614 -0.08804516 -0.042148333 0.05710051 0.15995762 0.18056493 0.24600595 0.23542133 0.2414374 0.13565505 0.1898323 0.2321901 0.2538192 -0.018032432 -0.064689204 -0.0275679 -0.056854635 -0.1759135 0.19854996 0.017139852 0.49026063 0.08894244 -0.07158693 0.2836716 0.46604997 -0.31374198 0.7041751 0.7565475 0.7559639 0.7959156 -0.0618492 0.6657729 0.7294719 0.12116807 0.035974853 0.56231594 0.6725617 0.3953302 0.024939477 0.45759305 0.05788033 0.163229 0.26465708 0.41395494 0.41847727 0.18191728 0.0788116 0.41495284 0.40714005 0.39518517 0.34813148 0.29097256 0.23869446 0.46117437 0.43611306 0.38470268 0.33375415 0.45536113 0.43932167 0.29260164 0.27316982 0.46681327 0.23880228 0.45990458 0.45441166 0.4330627 0.47710216 0.54781765 0.41850665 0.39768237 0.37236482 0.4081013 0.26338127 0.28824902 0.28925946 0.42018592 0.14085841 -0.0015682578 -0.19502328 0.076796226 -0.116546825 -0.09905108 -0.14573133 0.044851176 -0.11720114 -0.15378428 -0.18759143 0.36926085 0.46081036 0.44602832 0.61397755 0.5529487 0.42268458 0.26294026 0.3471639 0.48605555 0.6453439 0.42265272 0.49354863 0.6388143 0.61473465 0.48618466 0.5931485 0.5545615 0.53093076 0.4365058 0.4437462 -0.11250122 0.26634294 0.3235195 -0.11368361 -0.11539954 0.33561638 0.34218544 0.15374118 -0.002244336 0.24314082 0.29150394 0.3241762 0.34105155 0.21749991 -0.028268345 0.080847025 0.23240541 0.25315118 0.24632823 0.2357492 0.24962884 0.17978357 -0.108207546 -0.090745635 -0.009883601 0.10185604 0.14385127 0.15957652 0.21051627 0.20825222 0.09078768 -0.16352332 -0.03696696 -0.14750949 0.0025875606 0.48398155 -0.15856224 0.5618408 0.56241775 0.14886238 0.48099563 0.062859185 0.19077608 0.19615734 0.01867979 0.1746383 0.11935009 -0.0041821077 0.08814266 0.65724456 0.34731343 0.6481872 -0.04612622 0.6684326 0.34024245 0.36898887 0.35857955 0.030087639 0.2411815 0.2884097 0.35757402 0.38248324 0.059027877 0.278887 0.29436672 0.3936422 0.38923877 0.3721239 0.32686758 0.28082082 0.25215828 0.1857481 0.38689482 0.36291152 0.3358591 0.30617592 0.33802807 0.35567737 0.28216898 0.5201746 0.38745585 0.17252749 0.49519008 0.48678523 0.48757714 0.45988846 0.43673205 0.23819461 0.32154512 0.31874973 0.29875752 0.09737663 0.24563397 0.26093352 0.10725482 0.14355169 0.2946388 0.07024253 0.48973536 0.4215849 -0.07627316 0.059859112 0.24995086 0.5300512 0.47687423 0.23314276 0.33179158 0.5161736 0.23357141 0.4210837 0.4751679 0.3233091 0.35792413 0.3216442 0.10647211 0.3065951 0.21981595 0.35593855 0.2524898 0.3453489 0.2833569 0.19704463 0.22894487 0.29151317 0.2380235 0.13674901 0.1747291 0.11975491 0.039755248 0.03923758 0.050711483 0.04728642 0.4309348 0.26867977 0.045161176 0.023004591 0.6122694 0.56736696 0.014101639 0.07856247 0.6506634 0.60812926 0.6595992 0.63689876 0.57977843 0.43558896 0.16349283 0.15647492 0.18976067 0.40042442 0.2951387 0.07155082 0.42317635 0.09632473 -0.0075733513 0.38301927 0.45783374 0.4796661 0.29895866 0.16707397 0.34322378 0.41111457 0.46737373 0.36340725 0.35822237 0.28773034 0.20088977 0.25755766 0.3179625 0.36999685 0.36749244 0.35267186 0.21921217 0.33056447 0.37258705 0.3533769 0.34167203 0.28300247 0.24805908 0.58041334 0.56317466 0.5230056 0.13679521 0.5524588 0.5542946 -0.075097635 0.32813373 -0.013065249 -0.042702585 -0.079561874 0.30833057 0.35830727 0.27492708 0.2662469 0.081462115 0.09778452 0.43943295 0.4186321 0.32933715 0.015956225 0.46174765 0.42979413 0.0040835887 0.14433563 0.48193622 0.46120822 0.1780614 0.43031824 0.120673746 0.29742762 0.19242233 -0.115932286 0.105785355 0.37730795 0.20237952 0.06258027 0.32501972 0.3561535 0.26419184 0.34792197 0.3200192 0.3017062 0.36340323 0.32138652 0.24190195 0.2748526 0.30743468 0.3442218 0.05262629 -0.00095690787 0.20263322 0.17575207 -0.027239911 -0.04871191 0.4861132 -0.018872332 -0.08247228 0.64990056 0.583542 0.086935185 0.0858388 0.045776263 -0.017458457 0.68568575 0.031924963 0.09066948 0.06865148 0.68563545 0.6755394 0.63664424 0.04389983 0.184036 0.16323932 0.5112657 0.20672253 0.55056566 0.5386928 -0.006350653 0.12653896 0.19455412 0.14745484 0.04303679 0.49750465 0.49923012 0.1860172 0.44085544 0.4742565 0.23540395 0.23855275 0.24326834 0.31956613 0.36395475 0.4177575 0.2035043 0.18625383 0.1944486 0.25231504 0.19786197 0.30377215 0.39878425 0.3952931 0.3504213 0.55101955 0.49760157 0.48965928 0.42852277 0.063344896 0.31285357 0.251518 0.577675 0.5708684 0.47668839 0.24163225 0.10252816 -0.050320424 0.4313768 0.5584576 0.23633423 0.37960023 0.3482172 0.2512424 0.38509232 0.38920784 0.26909667 0.39511395 0.20494662 0.13698563 0.40313685 0.28523445 0.093053356 0.4288724 0.39859876 0.073977634 0.4348587 0.36064595 -0.057367515 0.35007375 -0.0077748224 0.18530191 -0.020458981 0.29800606 0.37606308 0.20547 0.11030652 0.38045266 0.3749417 0.29241836 0.26024055 0.37120688 0.37713158 0.35771626 0.34545988 0.3773886 0.3652087 0.3122081 0.3803063 -0.095381126 -0.02634646 0.08135294 0.20105621 0.369972 -0.0905211 -0.09516035 -0.060701616 -0.023949161 0.6844948 -0.048659123 0.696844 0.6794731 0.057902556 0.021217901 0.011380548 0.68678606 0.6628947 -0.031526193 0.03820597 0.025698956 0.6408667 0.42604852 -0.007041823 0.14625624 0.08050541 0.5337615 0.53043324 0.20998967 0.16133878 0.55319005 0.5394748 0.50106543 0.33669162 0.18552929 0.20998925 0.040374614 0.18507075 0.2106918 0.48152077 0.2383992 0.22996141 0.4306956 0.45720404 0.26093778 0.25536323 0.23464578 0.23994213 0.2752869 0.34153903 0.40271452 0.23965561 0.22146119 0.237