# vtk DataFile Version 2.0
Really cool data
ASCII
DATASET POLYDATA
POINTS 9147 float
-18.628506 -8.882634 41.97133
-18.605787 -8.850299 42.1784
-18.657627 -8.445225 41.702785
-18.648684 -8.526929 42.22693
-18.614998 -7.8425407 41.53449
-18.644253 -7.8045616 42.036057
-17.911438 -9.711696 41.449528
-17.77685 -9.862362 42.15418
-18.080778 -9.125927 40.94659
-18.302877 -9.302699 41.585503
-18.355509 -9.222088 42.29207
-17.912483 -9.14715 43.214287
-17.906733 -8.468229 40.228573
-18.308249 -8.395095 40.805904
-18.487362 -8.76183 41.27501
-18.476381 -8.407479 42.58703
-18.19839 -8.479674 43.028416
-17.810946 -7.2684026 39.90909
-18.310005 -7.4878616 40.722218
-18.459696 -7.3726697 41.544838
-18.446518 -7.621834 42.342148
-18.21361 -7.672241 42.832523
-17.773726 -6.685396 39.943386
-18.028954 -6.5054626 40.537556
-18.210426 -6.782544 41.421467
-17.685997 -6.151686 40.10877
-17.860312 -6.158904 40.531803
-17.801842 -6.1108427 41.251747
-16.771454 -10.890118 43.34487
-17.342361 -9.756272 40.890484
-17.218925 -10.261755 41.448223
-16.94032 -10.639735 42.929344
-17.231142 -10.150694 43.564396
-16.9508 -10.369937 44.033516
-17.154297 -9.128584 40.17412
-17.532377 -9.787292 43.438267
-17.082855 -9.393783 44.43263
-16.847448 -9.081092 45.083786
-17.230581 -8.152398 39.73207
-17.190992 -8.713462 44.673073
-16.965868 -8.205118 45.080116
-16.914476 -7.4951997 39.360767
-17.573542 -7.1244335 39.659664
-16.815084 -7.647057 45.306065
-17.382223 -6.5840254 39.681705
-17.409292 -6.8612876 42.746815
-17.116072 -6.1827354 43.31104
-16.845055 -6.8197784 44.698166
-16.716211 -6.587398 45.183453
-17.279045 -5.999779 39.93063
-17.352156 -5.703123 40.440807
-17.117802 -5.3393025 42.34617
-16.680676 -5.335707 43.673927
-16.809076 -5.743974 44.088688
-16.64299 -5.693341 44.99971
-17.018679 -5.296736 40.754795
-16.898445 -4.7663355 41.579086
-16.858995 -4.0950904 42.427883
-16.859375 -4.125613 42.93703
-16.626667 -5.104704 44.605625
-16.727869 -3.7548854 42.02437
-16.707436 -3.6579642 42.378677
-16.70024 -3.7953653 43.01571
-15.603502 -12.232934 39.074657
-15.665199 -12.149982 39.71328
-15.547014 -11.402987 38.734795
-15.738267 -11.722743 39.7671
-15.990016 -10.909057 40.448383
-16.572283 -10.754971 41.753796
-16.207676 -11.184443 42.561577
-16.309586 -11.109927 43.442795
-15.876942 -10.933116 44.5197
-15.923442 -10.771407 44.781548
-15.838828 -10.245056 39.30414
-16.283688 -10.6696005 40.401897
-16.42932 -10.517336 44.537663
-16.08019 -10.219188 45.229633
-15.899188 -9.968653 45.877975
-16.47657 -9.020186 45.59036
-15.968315 -9.396557 46.080025
-16.589548 -8.071447 39.416298
-16.401695 -8.471271 39.531326
-16.554167 -8.532645 45.5424
-16.11918 -8.727324 46.088036
-16.429575 -7.436807 39.281384
-16.500692 -7.0557737 45.554325
-15.856894 -7.6679435 46.050293
-16.432436 -6.759265 39.339664
-16.070728 -6.049637 45.789326
-16.442722 -5.873262 39.711826
-16.38843 -5.664529 45.45572
-16.0917 -5.645385 45.713596
-16.285046 -4.4984193 44.495617
-16.120478 -4.8806 45.246338
-15.966367 -5.145971 45.693287
-15.916841 -3.481093 41.039246
-16.402554 -3.506696 41.565388
-16.504526 -3.3205097 42.216965
-16.390402 -3.56923 43.285496
-16.01799 -4.135475 44.384205
-16.209164 -3.0824146 41.89467
-16.23178 -3.0645356 42.406944
-16.013311 -3.227887 43.31934
-14.847526 -14.020248 38.740597
-14.931463 -14.114243 39.560688
-14.760225 -14.072986 40.303898
-14.783145 -13.260245 38.133327
-15.01106 -13.490235 38.530178
-15.277328 -13.352164 39.404022
-15.092817 -13.326211 40.32451
-14.881393 -13.132717 41.32121
-15.008187 -12.598362 38.290913
-15.26284 -12.319339 38.606766
-15.468487 -12.37792 39.776833
-15.233422 -12.597392 40.312355
-15.042234 -11.376737 38.059513
-15.335845 -11.586718 38.378273
-15.477962 -11.127634 44.4551
-15.197038 -10.995721 38.248795
-15.209396 -10.495769 38.552498
-15.255386 -10.454948 46.258945
-15.043463 -10.262394 46.701084
-15.163966 -9.73001 39.05909
-15.592143 -9.589202 46.522686
-15.230175 -9.428888 46.866432
-15.603857 -8.229528 46.510487
-15.110851 -8.534612 46.86398
-15.370038 -7.3300385 46.291664
-14.987333 -7.762004 46.70518
-15.464738 -6.1326437 39.671875
-15.388547 -5.599388 45.98558
-15.6656685 -4.8091955 45.479572
-15.364572 -4.937227 45.680714
-15.415736 -3.4801087 40.82598
-15.391704 -3.7172832 44.446095
-15.350634 -4.150492 44.91913
-15.486106 -3.1481848 40.943897
-15.381843 -2.7824974 41.53924
-15.440162 -3.0225513 43.33196
-14.179632 -14.674134 38.90284
-14.184625 -14.774805 39.472534
-14.134553 -14.774515 40.36394
-13.909611 -14.722193 41.43131
-13.785359 -14.7026615 42.17713
-14.195296 -14.075882 38.22721
-14.371041 -14.337434 38.627064
-14.57152 -14.528943 39.384678
-14.517113 -14.545421 40.353127
-14.312743 -14.306983 41.362144
-14.208626 -14.09773 42.23403
-14.29089 -13.483386 38.01293
-13.893578 -13.708258 43.177227
-14.407658 -12.487449 37.954975
-13.898564 -12.4245 44.293335
-14.37296 -11.450399 37.90528
-14.613102 -10.628702 46.520287
-14.808266 -10.500883 46.552734
-14.611444 -10.15045 46.96846
-14.722841 -9.686589 38.900665
-14.347926 -9.651458 47.29908
-14.011525 -9.117796 47.65918
-13.706645 -8.171971 32.88351
-13.823825 -8.207775 33.50748
-13.818678 -8.232138 34.151035
-14.516534 -8.688844 47.29396
-13.968248 -8.690396 47.692005
-13.689388 -7.621163 32.598293
-13.936555 -7.6000447 33.350388
-13.952923 -7.8840075 33.947197
-14.614546 -7.355873 39.86292
-13.983564 -7.6749897 47.330383
-13.774758 -8.02967 47.733532
-13.719428 -7.02188 32.651363
-13.686371 -6.2214413 34.42473
-14.907546 -6.9315977 39.68089
-14.660143 -6.786972 46.415863
-13.878189 -6.90101 46.937294
-14.028496 -5.2673736 34.875244
-14.057743 -5.3698254 35.52009
-13.755884 -5.5404706 36.487713
-13.583225 -5.1067543 36.957966
-15.096107 -5.6149745 39.95207
-14.582614 -5.8530316 46.00875
-13.65117 -4.9987993 34.01378
-13.835918 -4.9134507 34.490856
-14.097414 -4.25841 35.68519
-13.8823595 -4.763083 36.56582
-14.62926 -4.4343543 45.267353
-13.705448 -3.5153682 34.68733
-13.794633 -3.4152935 35.51534
-13.895731 -3.9533198 36.30547
-14.655292 -3.4675446 40.628704
-14.010215 -3.492175 44.587353
-14.154654 -3.8542948 44.902214
-13.631532 -3.0036588 35.590916
-14.867686 -2.565013 41.98627
-14.65588 -2.909865 43.505604
-14.82359 -3.1856894 43.98511
-13.615932 -14.69252 38.874687
-13.55891 -14.9391 39.52727
-13.440029 -15.00441 40.424915
-13.426583 -14.90215 41.30194
-13.25311 -14.828331 42.4226
-13.641688 -14.051854 38.21136
-13.681882 -14.41253 38.51606
-13.418146 -14.475753 43.139893
-13.003475 -14.089855 44.147568
-13.490545 -13.361011 38.028316
-13.3466425 -13.182738 44.556675
-13.040489 -13.377575 44.779526
-13.466753 -12.610432 38.10277
-13.149922 -12.549539 45.063972
-13.269901 -11.91579 38.086365
-13.729461 -10.632532 46.73762
-13.3351345 -9.973017 47.511017
-13.069017 -8.874219 32.76359
-13.292397 -8.959924 33.40776
-12.877599 -8.96724 35.011803
-13.217124 -9.095675 48.016766
-13.075308 -8.078963 32.13533
-13.416521 -8.283746 32.580357
-13.4940605 -8.625266 34.60709
-13.008333 -8.6825905 35.044434
-13.416356 -8.4556875 39.958893
-13.281982 -8.535414 48.08695
-13.230602 -7.4475083 32.087685
-13.56029 -7.552277 32.406292
-12.76847 -6.802911 37.336525
-13.143891 -7.335312 47.634354
-13.319901 -7.777772 47.86945
-13.224536 -7.028499 32.162827
-13.521789 -6.790459 32.683197
-13.2236 -6.6960196 35.453762
-13.415574 -6.384857 36.053104
-13.226138 -7.0664005 47.381596
-13.288981 -5.5963306 33.567886
-13.042082 -5.639399 37.743782
-13.589079 -5.782065 46.120197
-13.005364 -4.5726705 33.680656
-13.340307 -4.955769 37.44514
-13.486112 -3.3470826 34.3739
-13.140628 -3.5374696 37.256523
-13.759835 -3.44785 40.76012
-13.442568 -3.5075555 44.555714
-13.975656 -3.50474 44.656956
-13.085572 -2.6059093 33.98789
-13.35492 -2.7615614 34.476727
-13.401873 -2.6951458 35.87425
-13.371813 -2.9885378 36.576412
-13.909376 -3.2427642 40.938587
-13.714722 -3.004961 41.41728
-13.703205 -3.1293802 44.076004
-12.987559 -1.9112495 34.59648
-12.980163 -1.1667011 35.772686
-12.800383 -1.1820434 36.848415
-12.56268 -0.48289207 34.578743
-12.881366 -0.97051024 35.35515
-12.848207 -0.6701862 36.340984
-12.712138 -0.78330004 37.163704
-12.609489 -0.4241109 38.641865
-12.666043 0.065448806 37.735455
-12.568059 0.62948596 38.195488
-12.753845 0.8990964 39.199223
-12.80419 0.6694026 40.010735
-12.641635 1.3979089 39.042973
-12.7361765 1.3719555 40.281143
-12.550328 1.8257089 41.059147
-12.602159 2.219872 40.33708
-13.060424 -14.664336 39.101093
-12.937877 -14.88373 39.76325
-12.662771 -14.876059 40.34394
-12.422956 -14.921256 41.606876
-12.475523 -14.924423 42.430454
-12.485686 -14.736725 43.246002
-12.993947 -14.389283 38.818867
-12.531785 -14.453359 39.435413
-12.393 -14.501889 43.641968
-12.356754 -14.205047 44.4839
-12.275257 -13.916709 44.807793
-13.133229 -13.466351 38.211426
-12.724731 -13.526904 38.538826
-12.397711 -13.42806 45.10642
-12.917063 -12.761105 38.401325
-12.770601 -12.806233 45.147972
-11.973616 -11.014489 46.999043
-12.012742 -9.623529 34.58217
-12.889593 -10.449326 38.88706
-11.946777 -10.515639 47.627544
-12.590716 -9.827406 47.830856
-12.465348 -8.7394705 32.261757
-12.320327 -9.195902 32.751816
-12.562512 -9.377128 33.6556
-12.137872 -9.506431 34.717255
-12.051546 -9.2077055 35.42505
-12.566899 -9.375039 48.115856
-12.5915575 -8.264814 31.966053
-12.678772 -8.537058 39.971043
-12.639245 -8.418051 48.28479
-12.540045 -7.732046 31.696674
-12.58215 -7.556991 47.982403
-11.834255 -6.999404 31.207516
-12.079206 -6.539663 31.594862
-12.696776 -6.545665 40.125317
-12.225388 -6.656868 47.309933
-12.337841 -7.0079184 47.689693
-12.184437 -6.0811253 31.837584
-12.466919 -5.5059175 38.60147
-12.0477915 -6.263473 46.76512
-11.6622505 -4.692993 31.868185
-12.07449 -4.1090503 32.623615
-12.67346 -4.4000926 33.430836
-12.057279 -4.0643654 38.048126
-12.779193 -4.649626 40.55789
-12.218922 -4.4609466 45.052876
-12.488036 -3.268274 33.046772
-12.601393 -3.2953248 37.819324
-12.684549 -4.0078044 41.062378
-12.54345 -3.5364487 41.83781
-12.137364 -4.089205 44.738586
[...]
POINT_DATA 9147
SCALARS features_00 float 1
LOOKUP_TABLE default
0.57202077 0.5649754 0.58909667 0.57090586 0.59983444 0.57629895 0.511616 0.47950476 0.5675802 0.55823195 0.5389776 0.46859568 0.613628 0.62346303 0.59207344 0.54551053 0.5005066 0.62647367 0.63582444 0.59006345 0.5439781 0.49068946 0.61351633 0.5775088 0.54636127 0.5818517 0.54686815 0.46515596 0.36849737 0.4392262 0.38137954 0.3852443 0.39043063 0.3681675 0.45348108 0.41620156 0.3641228 0.34290287 0.5612123 0.33474964 0.31124586 0.58378255 0.61942685 0.3161525 0.6105777 0.36647123 0.2907405 0.35215485 0.37168413 0.5854931 0.52468514 0.3232552 0.36408773 0.37079608 0.41465944 0.45376992 0.37204608 0.41871575 0.4184553 0.42780936 0.45220864 0.46718293 0.45312446 0.48772383 0.39749193 0.4531191 0.34279835 0.22978497 0.30178428 0.32641804 0.3471461 0.33071196 0.3407098 0.3450575 0.23492043 0.35798138 0.35903794 0.37168 0.3466043 0.37332597 0.499294 0.39636913 0.32918558 0.35304818 0.5602737 0.33338606 0.3165701 0.60643893 0.3724832 0.62226903 0.4093861 0.39717725 0.45585567 0.439793 0.41696757 0.52518547 0.48444587 0.5068036 0.48458183 0.47033107 0.5394652 0.54233783 0.51932174 0.78775746 0.70568573 0.6107368 0.772832 0.74575454 0.6213653 0.5413508 0.43864185 0.6440103 0.5646325 0.4366771 0.42821932 0.4952865 0.50266844 0.27892742 0.45481974 0.42653978 0.36993438 0.39532351 0.3209603 0.38980067 0.39307088 0.34092838 0.36072776 0.2970693 0.3067768 0.52932554 0.3645864 0.42431086 0.3981585 0.58645976 0.45161724 0.43774176 0.61121786 0.6075856 0.54711896 0.80443203 0.7678455 0.67147624 0.55303025 0.5136763 0.83438265 0.8205242 0.7620138 0.64444757 0.52578944 0.459592 0.8304732 0.4387743 0.73446167 0.24486445 0.57970005 0.351343 0.37319595 0.40045178 0.32683763 0.40612537 0.4140262 0.5899085 0.62012756 0.6380322 0.38028994 0.40700904 0.5359114 0.53476834 0.5763606 0.24642302 0.33438846 0.3833203 0.45077276 0.40480316 0.40187693 0.2594118 0.25766194 0.4448219 0.48286885 0.4064687 0.34918925 0.41445756 0.29838374 0.3170981 0.38979486 0.44087914 0.39901587 0.3715936 0.34348026 0.36217865 0.4037665 0.55629784 0.33490354 0.33492184 0.3122816 0.68021566 0.48307773 0.43453398 0.79139405 0.7612142 0.68556213 0.58307683 0.52707005 0.8074155 0.8049752 0.4952559 0.46104696 0.78797853 0.37389058 0.38123485 0.7586708 0.2766105 0.6940113 0.30599678 0.37301326 0.6085338 0.6741514 0.6112815 0.43843538 0.53241 0.57887185 0.666665 0.59140635 -0.07201426 0.4392553 0.4844163 0.5188497 0.32286116 0.3402779 0.38649398 0.42627236 0.39989293 0.41264707 0.39933905 0.30038342 0.25217986 0.27088398 0.18458799 0.23387873 0.28503585 0.30146152 0.33140022 0.37884164 0.2555328 0.32822382 0.2108569 0.25341678 0.27536497 0.32293695 0.43246263 0.40119112 0.3099866 0.19066104 0.1607942 0.12597352 0.24492207 0.17627817 0.15336534 0.118034154 0.17640841 0.1410015 0.19666043 0.30227685 0.34534425 0.34094074 0.39624506 0.4611295 0.47080314 0.7320641 0.69100624 0.62789977 0.56120074 0.5299684 0.51057184 0.7273319 0.63390803 0.49952477 0.45054555 0.41083091 0.73973334 0.6715896 0.3611399 0.6505368 0.309011 0.16933613 0.56792593 0.3412968 0.2506836 0.36045465 0.54222304 0.5771926 0.6594193 0.5676981 0.518233 0.415048 0.5142776 -0.07097487 0.46270925 0.47558755 0.38364208 0.38328427 0.32617098 -0.23192511 0.22978607 0.29974464 0.22641617 0.10741726 0.12255092 0.08710496 0.092223376 0.18168513 0.1994705 0.20189549 0.008028142 0.16153756 0.24367183 0.23621026 0.2210066 0.019373778 0.2374177 0.15784873 0.1349635 0.31753525 0.1871422 0.17015678 0.14105092 0.30698866 0.34174842 0.24063113 0.23449698 0.35033506 0.2879027 0.40937075 0.3931275 0.3770238 0.18058446 0.2763921 0.25112343 0.42617095 0.41885924 0.38879076 0.33518678 0.38377056 0.49066395 0.48902857 0.44020358 0.41175842 0.47080874 0.6118257 0.66230214 0.60436785 0.6275317 0.557147 0.7093184 0.7412622 0.7018405 0.64185023 0.75569856 0.772105 0.7378572 0.5190293 0.51272345 0.49601167 0.47898892 0.606526 0.5504107 0.49213612 0.43932533 0.4714042 0.45410395 0.40010166 0.49908012 0.4787177 0.4435144 0.2518161 0.13597053 0.45754468 0.42418915 0.13040632 0.16618994 0.54094976 0.55316365 0.531157 0.26650897 0.4839176 0.48543376 0.48132667 0.36837697 0.41071194 0.44516897 -0.08461532 0.44580182 0.40199742 0.3668213 0.24909377 0.24803117 0.21611613 -0.11647481 0.19571857 0.1388985 -0.12044997 -0.20710495 0.25634846 -0.11023477 0.31490445 0.29624593 -0.15148081 0.3347177 0.29931125 0.3602988 0.3718256 0.18042353 0.07859122 0.3936866 0.39932132 0.40915716 0.41794893 0.42323226 0.42857167 0.4200778 0.3350134 0.31732023 0.4163037 0.40486452 0.39218548 0.33001098 0.21771632 0.37528753 0.34560955 0.44652343 0.5041563 0.5695716 0.46890122 0.5505124 0.69367814 0.65577316 0.6070233 0.75417125 0.7997346 0.7424327 0.6844086 0.41375494 0.4219514 0.38550836 0.38908458 0.43306416 0.25087342 0.13742495 0.29849264 0.15121284 0.105557926 0.06445615 0.10220271 0.4770583 0.5031128 0.52027774 0.51254 0.4417924 0.45472813 0.28437337 0.41836196 0.33577073 0.3675157 0.38440776 0.33311474 0.07299982 0.17839505 0.30295703 -0.09551901 0.2776742 -0.1970739 -0.12750883 0.27220508 -0.2909154 -0.33022356 0.30243903 -0.25844365 -0.014311251 0.22222409 0.573311 0.5152143 0.31310454 -0.31214675 -0.035017353 0.17907739 0.36661917 0.5719737 0.52880424 0.37695265 -0.07762939 -0.16784817 0.30537525 0.49408138 0.5542616 0.5808727 0.40775347 0.41079816 0.005344454 0.3898675 0.48722872 0.41537142 0.4181077 0.41202497 0.1287773 0.16486551 0.40382114 0.32783234 0.32827726 0.23216003 -0.21727931 0.29392475 0.43182045 0.31489244 0.36131722 0.5167998 0.58769965 0.61960554 0.6719903 0.7554263 0.7840599 0.71897876 0.31934953 0.33981073 0.34715956 0.30241007 0.3116809 0.3119796 0.26416704 0.25536788 0.24107714 0.32831204 0.22880861 0.43516368 0.22120017 0.21140875 0.6082471 0.36983806 0.29191822 0.6729337 0.63000727 0.4777268 0.35394144 0.66735196 0.27894747 0.18972449 0.3032657 0.20841962 0.16367128 0.12131302 0.12821595 0.10313441 0.44395888 0.4669599 0.47221375 0.20881647 0.20552129 0.18451521 0.45045236 0.45407262 0.4438744 0.43706632 0.38246322 0.39169127 0.07023408 0.34472358 0.07484983 0.29692304 -0.048178237 0.2804266 -0.05552969 0.2627799 0.26452744 0.29764408 0.26051897 0.44264677 0.2813117 0.53641534 0.3641044 -0.36453396 -0.028847933 0.5734849 0.55460113 0.40064436 0.08552492 0.21603584 0.43158585 0.5052926 0.58230627 0.5894519 0.41554087 0.39220756 0.12528972 0.22728068 0.49079442 0.55056494 0.35344368 0.29508388 0.11666468 0.03380692 0.2188358 0.26859754 0.26105148 0.27182773 0.3753153 0.36000738 0.38653785 0.5327833 0.4523068 0.3217628 0.28254485 0.397632 0.42249727 0.4069542 0.6121081 0.49863917 0.46281275 0.44791102 0.40794444 0.67473394 0.71462846 0.69913876 0.6760007 0.6490345 0.5858402 0.45038047 0.43794757 0.42545807 0.5063778 0.44837618 0.3909838 0.36605418 0.38191128 0.4275981 0.40755123 0.3352899 0.36387366 0.38302246 0.3236639 0.44836563 0.40218264 0.35945582 0.3578931 0.31173033 0.41260803 0.3111211 0.30780116 0.2436989 0.24414548 0.4736829 0.18251576 0.17947686 0.20372288 0.23078753 0.23099002 0.2500564 0.2731025 0.7093924 0.6179614 0.26516068 0.2537064 0.75157213 0.7259688 0.70143086 0.37772948 0.32002705 0.2982128 0.2785555 0.7851502 0.77978754 0.74357617 0.6657759 0.46238816 0.32395816 0.79469395 0.73484373 0.052577183 0.03157851 0.100672156 0.18651213 0.21316329 0.22797251 -0.17487495 0.2056318 0.2854365 0.17082465 0.20940515 0.34021026 0.17924207 0.3880611 0.44409546 0.43657792 0.41878465 0.39415395 0.3941722 0.2961562 0.20288655 0.44052422 -0.27936053 0.40100703 0.008363105 0.3445971 0.07333567 0.28008977 0.2897001 0.11407374 0.26967898 -0.05007042 0.26541412 0.29211247 0.27570537 0.23965867 0.3931247 0.43964595 0.5171957 0.22289631 0.5599151 0.3228444 0.58025 0.27831984 0.29220012 0.5382985 0.5790002 0.43982938 0.2450677 0.0876374 0.35915083 0.4480454 0.4349446 0.42848554 0.139765 0.22435632 0.27715185 0.65267026 0.6232694 0.49107167 0.45090267 0.43081346 0.36142704 0.42508382 0.3809686 0.37998208 0.3783685 0.32578367 0.39912447 0.42362124 0.4047749 0.70579255 0.6740654 0.39335132 0.46241158 0.60812914 0.6222577 0.41049433 0.40892905 0.41599292 0.6935426 0.32505718 0.57747185 0.3232848 0.44353443 0.2573611 0.2146999 0.43966168 0.25561315 0.42211124 0.18562533 0.33433047 0.35982764 0.386729 0.32049337 0.31717122 0.3888181 0.39319023 0.54862267 0.29760122 0.37482888 0.35983083 0.71919113 0.28118974 0.28195843 0.7912864 0.26407602 0.25889635 0.25556698 0.2477271 0.8190484 0.8302515 0.31216246 0.28366727 0.24423857 0.21416958 0.8303424 0.81560075 0.7658714 0.09019969 -0.0054379106 0.19550753 0.25457957 0.2831127 -0.083803676 -0.0105476305 0.2981493 0.38552883 0.028589854 0.35149965 0.41743958 0.15548629 0.13870952 0.4215844 0.42075157 0.3921692 0.31793222 0.41875213 0.4122317 0.33554074 0.23461431 0.19064909 -0.2765029 -0.11589095 0.39034098 0.4069248 -0.21278697 -0.34698492 0.2759755 0.25164938 -0.05508934 0.2816241 -0.044942737 0.27581912 0.14600314 0.25735843 0.21195704 0.35451633 0.18310454 0.4284317 0.5196464 0.5483718 0.5474643 0.42181587 0.4223575 0.40107903 0.020954814 0.42285243 0.6287146 0.5428838 0.42723188 0.4138386 0.03660156 0.26596183 0.05699659 0.048019096 0.097841635 0.52103865 0.58503306 0.6539236 0.39988902 0.37648332 0.44242936 0.32458335 0.0377509 0.55889434 0.7176509 0.747347 0.7931765 0.7313452 0.69198775 0.47809702 0.5342096 0.5502895 0.40946847 0.4406431 0.4354804 0.336461 0.73974013 0.782217 0.823779 0.84312433 0.7275939 0.1450686 0.4466583 0.43609428 0.799248 0.8355431 0.8590627 0.69530064 0.6673609 0.18574905 0.6378314 0.15305193 0.16006285 0.37215027 0.021050416 0.044118468 0.24826735 0.2285366 0.31993884 0.37815276 0.3314198 0.3544387 0.34138334 0.29652774 0.23880994 0.76106715 0.25440693 0.22284073 0.790727 0.24362347 0.81301975 0.81803596 0.25516087 0.18803558 0.25425184 0.2839239 0.2848569 0.82707113 0.80763656 0.7641167 0.25190264 0.32158393 0.33912417 0.075229496 0.14929646 0.056414895 0.24694672 0.29985368 0.031408302 0.35079443 0.40019864 0.017573647 0.43230867 0.42313734 -0.018594064 0.035265975 0.3764128 -0.04400882 0.36587888 0.33775192 0.098994896 0.3241035 -0.094777 -0.19148482 -0.29290307 -0.34958637 0.11709293 0.16484497 0.2198055 -0.00078653544 0.2769634 -0.1803682 0.27485466 -0.059218504 0.2552433 0.3038254 0.14592059 -0.118329115 0.30975926 0.11337592 -0.17425491 0.37231714 0.3119078 0.11914533 0.39397043 0.41486838 0.2860008 0.38139948 0.36192262 0.30592448 0.23343188 0.56189173 -0.0313619 0.40676597 0.4682621 0.5733529 0.56975746 0.47026086 0.2922973 -0.01606746 -0.16216458 0.42070198 0.43226087 0.5255266 0.62671435 0.6592442 0.7542521 0.6507498 0.14950287 0.31037697 0.36118695 0.05290981 0.19749439 0.09016672 0.13097441 0.46238062 0.7012094 0.76492834 0.7838819 0.7665736 0.3919374 0.41199365 0.5236058 0.4710579 0.3564809 0.3645115 0.26528835 0.05918658 0.11661087 0.26553398 0.40899977 0.84441286 0.838554 0.7331933 0.14379016 0.21613745 0.42788172 0.4258256 0.40684575 0.3223257 0.596434 0.74105006 0.82876676 0.8619548 0.8628977 0.6854043 0.6583879 0.22776364 0.20002106 0.74738073 0.80576956 0.8357968 0.62779844 0.18774226 0.16850679 0.39575875 0.20436056 0.2597125 0.27290013 0.2541344 0.26315016 0.29254434 0.25498495 0.26799423 0.37843508 0.28065047 0.5556855 0.17212985 0.20808756 0.2672181 0.70593274 0.7572067 0.34308025 0.75828385 0.29446852 0.3552201 0.38420016 0.45043933 0.37680358 0.3878867 0.3450966 0.37712395 0.056190394 0.25130206 0.0630657 0.047443897 0.26512626 0.2855712 0.34268177 0.39686865 -0.01682081 0.34531105 0.0061104074 -0.0110715255 0.34383512 -0.00560458 0.20092145 0.36435944 0.116635695 -0.01049827 0.20671621 0.3522872 0.3845522 -0.10832621 0.25396112 0.2413291 0.24734263 0.24286306 0.21082366 0.18635057 0.10632994 0.18329287 0.25003058 0.05029903 0.13223785 0.2505512 0.09946579 0.23038536 0.12898174 0.21201357 0.17783079 0.3478716 0.2061135 0.2426933 0.21867153 0.47332233 0.21775798 0.26405904 0.68434554 0.6633792 0.41340357 0.4749713 0.34307772 0.73465514 0.63261235 0.4708363 0.5131666 0.59553474 0.75759226 0.7317437 0.25725845 0.7480489 0.6937232 0.5524874 0.30689114 -0.059886016 0.1522444 -0.2052885 -0.0024336278 0.7095361 0.7635294 0.76592743 0.16586556 0.20415452 0.36947295 0.2740394 0.016061801 0.043196246 0.10017664 0.15921886 0.8303294 0.73897386 0.36470503 0.20665297 0.30339372 0.47880957 0.8330431 0.8432449 0.6938147 0.66826427 0.1265057 0.13924031 0.63160336 0.7491338 0.81635964 0.5877884 0.15040469 0.24875316 0.35245106 0.14443678 0.08899668 0.17984882 0.23109652 0.24020228 0.19016992 0.35629553 0.42780042 0.36507747 0.429756 0.46294624 0.46368134 0.42265454 0.4722564 0.47049555 0.41864657 0.4631339 0.47725624 0.30801108 0.34936798 0.41488957 0.17682602 0.2626555 0.3501104 0.47980103 0.5216733 0.38091022 0.6167861 0.6036403 0.5351749 0.4323178 0.40499023 0.3950591 0.3761819 0.6180532 0.58858305 0.51864636 0.34654194 0.29586273 0.36963072 0.3816815 0.325084 0.18906435 0.28464255 0.37258327 0.27607018 0.1492362 0.004788513 0.038148534 0.052393313 0.20234525 0.24650027 0.009516485 0.31452644 0.33187518 0.06048623 0.03232507 -0.055184625 0.32399154 0.09117461 0.062326968 -0.004491642 0.25577348 0.03968461 0.23648609 0.40157795 0.39906937 0.378361 -0.06417507 0.2709056 0.3766331 0.39729667 -0.24043258 -0.27042544 0.28993237 0.2922174 0.27349418 0.26750982 0.23305658 0.22322014 0.20228611 0.18176238 0.12753314 0.13193536 0.040856138 0.11347303 0.1863043 -0.32845744 0.51185524 0.42582172 0.25266087 -0.056243345 0.44365865 0.28463095 0.53324234 0.35732815 0.42235994 0.26292622 0.3152856 0.6694063 0.6697 0.46410847 0.33944538 0.3396323 0.73219395 0.7601591 -0.14373195 0.61336833 0.26193044 0.78480566 0.74169433 0.58268356 0.35774636 -0.013023511 -0.07279895 -0.08385112 0.063090935 0.015667154 -0.1702319 0.7826091 0.7586065 0.7275066 0.10938241 -0.1062367 -0.04349333 0.16316894 0.2408154 0.008078631 -0.059080128 0.029013753 0.81146437 0.82336915 0.720291 0.68274754 0.10517577 0.10002431 0.16018674 0.16651984 0.8233973 0.83537734 0.6397308 0.5534185 0.11655314 -0.005270399 0.10596355 0.34509712 0.4581176 0.48093313 0.4652679 0.6056521 0.6929529 0.7812334 0.8087654 0.016764026 0.39842755 0.43048614 0.30579987 0.065931454 0.028882597 0.23063233 0.05391796 0.33653757 0.39732257 0.4180047 0.4450242 0.44463226 0.44580793 0.3675064 0.365837 0.4712326 0.46779132 0.3937212 0.3299974 0.4370059 0.45621598 0.36783195 0.23504227 0.22914866 0.31273276 0.21956691 0.30205977 0.25477722 0.550385 0.60484767 0.4527585 0.41437173 0.3749137 0.63288784 0.6200731 0.5429287 0.5001766 0.2460143 0.29129624 0.32847133 0.13062426 0.1768395 0.20268595 0.1306431 0.26456904 -0.01300359 0.084739745 -0.017160524 -0.041544206 0.072408855 0.03618454 0.19487223 0.2551207 0.0956949 0.20739895 0.3378793 0.32616 0.019401643 0.22974512 0.38111067 0.37203482 0.23670396 -0.07795793 -0.26475155 -0.119355425 0.2857137 0.342659 0.37069097 -0.26882952 -0.29729262 0.27015078 0.31721145 0.21770325 0.21096067 0.16242304 0.18150643 0.20706896 0.09244913 0.10796929 0.19226898 0.19775257 0.026864178 0.8319888 0.7163982 0.6112402 0.23272666 0.2316105 -0.16006905 0.9045492 0.7808741 0.6286303 0.5049031 0.44761604 0.26142105 -0.12389262 0.8017595 0.36144423 0.37674236 0.541523 0.29763445 0.31615552 0.32889655 0.6490138 0.57654846 0.3266951 0.72691244 0.74703133 -0.20649077 0.7534454 0.8214566 0.29713264 0.2613969 0.80002475 0.7728967 0.21134481 -0.017520513 -0.144248 0.8423236 0.8391949 0.6435318 0.22227848 0.052154116 0.048247285 0.24886538 0.15856467 0.16404231 -0.07861875 -0.14812382 -0.12123438 -0.082745366 -0.07515055 0.025542088 0.8572971 0.59295714 0.10574014 0.48342615 0.30370727 0.3084618 0.29811507 -0.026782902 -0.00961522 -0.12424164 0.26648983 0.4513768 0.8521799 0.8553183 0.005777744 0.43713284 0.48125666 0.49912906 0.45852476 0.5946034 0.71728444 0.76933765 0.8270258 0.33501443 0.272793 0.15646045 0.13492572 0.31618306 0.31632525 0.389837 0.33210492 0.36926848 0.35888153 0.31665385 0.24627377 0.41186368 0.45379883 0.45792913 0.40381277 0.3511489 0.43201467 0.46883735 0.47751552 0.44607988 0.4086854 0.4253224 0.29961622 0.4361807 0.46133012 0.47709998 0.43231094 0.40393645 0.43860444 0.40354368 0.17613685 -0.09967852 0.27989373 0.3596064 0.37625462 0.3819671 0.43636733 0.45626938 0.37293676 0.2849072 -0.05189659 0.13981423 0.27056044 0.33246964 0.3705865 0.41764593 0.39663112 0.40028763 0.38068727 0.30006585 0.32381654 0.59070253 0.58940315 0.41371995 0.36315235 0.3867473 0.462591 0.46447688 0.4386532 0.48323518 0.45097733 0.622681 0.639052 0.67461574 0.6350867 0.5903596 0.38479775 0.44501144 0.5007838 0.539155 0.5584521 0.52951646 0.40180925 0.45882243 0.5473163 0.5650729 0.55273485 0.4784938 0.52152216 0.6494541 0.6035505 0.511955 0.60113525 0.5578919 0.4491594 0.47585464 0.41291356 0.29524702 0.36270052 0.47353953 0.2177729 0.38302732 0.50278103 0.5911096 0.6265788 0.16470194 0.47087437 0.5905534 0.6283875 0.010029705 0.016035464 -0.048712283 0.2088351 0.5918489 0.5964377 0.05299304 0.04418197 0.10989788 0.16587098 0.17649761 0.5341228 0.4967153 0.051623713 0.390835 0.28231752 0.33972853 0.27667212 -0.041678935 -0.1513497 0.05760172 0.034461062 -0.016176794 0.19763601 0.039473988 0.08838839 -0.08298814 0.29707128 -0.06502497 -0.12991501 0.03196112 0.16102347 0.3392479 0.05291026 -0.26024657 -0.22351938 0.22168946 0.2555821 0.3186902 0.18141007 0.23064938 0.15905392 0.25325426 0.15155631 0.24870212 0.30816525 0.24346845 0.3158732 0.37598905 0.2602926 0.2552926 0.25047615 0.3602387 0.96711683 0.93258125 0.8115169 0.67398155 0.25638685 0.24819794 -0.0902679 0.8900758 0.91725475 0.55929124 0.48343852 0.24489832 -0.2244214 0.851962 0.4634025 0.39922684 0.310382 -0.11122507 -0.06945097 0.7414634 0.3003772 0.3000705 0.5591952 -0.013745137 0.23527677 0.7029226 0.58956754 0.31106138 0.7089453 0.68274546 -0.24812938 0.62063634 0.82699114 0.28070042 0.25221902 0.75821424 0.77082634 0.6195562 0.17386903 -0.12020539 -0.19503975 0.8834903 0.2629816 0.17746437 0.15193866 0.30133063 -0.008298963 -0.09052209 -0.066995434 0.8900567 0.8730339 0.13485047 0.46847767 0.28581303 0.360376 0.37089637 0.37294805 0.39436695 0.36080635 0.3157441 0.32122394 0.27881914 0.17238645 0.07868385 -0.06728498 -0.045343295 -0.029102538 0.56437624 0.7555165 0.8362076 0.87433094 -0.044937864 0.38544297 0.42360172 0.46211305 0.4750942 0.44311476 0.38016546 0.4014902 0.4398232 0.44626474 0.404657 0.29835078 0.2848873 0.16673173 0.81576157 0.8472684 0.3449574 0.27079073 0.39161825 0.42054427 0.08922318 0.07607817 0.098523974 0.15010753 0.25457776 0.20851351 0.22938281 0.14427538 0.39096147 0.15258488 0.3031251 0.39492637 0.3975104 0.4102016 0.42084956 0.35915798 0.38704354 0.43613744 0.45078534 0.43977618 0.41267562 0.45510176 0.4660378 0.44754255 0.43644878 0.4476499 0.44818354 0.37556022 0.25738925 0.27378616 0.43212116 0.037026033 0.11411508 0.24310343 0.38471797 0.38870504 0.47613156 0.39999923 0.36311623 -0.07489553 0.16594093 0.19227253 0.31930238 0.34085888 0.51100266 0.5564301 0.51432407 0.5247575 0.32236856 0.3727345 0.36675215 0.38521615 0.3569268 0.65276325 0.5107962 0.50699157 0.41071054 0.4306781 0.45828545 0.4141503 0.15207793 0.2947942 0.5164518 0.44194135 0.46992916 0.16418144 0.34782374 0.42423818 0.4276545 0.48498142 0.8499573 0.8430956 0.8569241 0.8715 0.9066948 0.90184534 0.8757403 0.90276 0.82906073 0.77557594 0.847186 0.8409575 0.7794974 0.8023443 0.7913022 0.72949374 0.7242393 0.6785591 0.64807403 0.58436143 0.71963936 0.73432803 0.71275496 0.62147427 0.5163766 0.4207299 0.6829332 0.63378906 0.6652663 0.36737972 0.37430972 0.42680153 0.5432179 0.5061898 0.47531953 0.34168565 0.23433702 0.27429906 0.35347158 0.5499265 0.6184848 0.63668466 0.33639443 0.33049768 0.08774422 0.040799633 0.6371779 0.6296845 -0.016605265 0.039775014 0.08330218 0.6338668 0.62837785 0.5374588 0.51560783 0.0050035864 -0.046383046 0.617802 0.6036375 0.5691502 0.5684211 0.5014418 0.42286426 -0.07044356 0.009781867 0.53733164 0.5458148 0.56782746 0.51662374 0.003986314 0.4340099 0.47044