# vtk DataFile Version 2.0
Really cool data
ASCII
DATASET POLYDATA
POINTS 2477 float
17.335215 41.74794 25.399843
17.210222 41.728035 26.612574
17.251642 41.86147 27.381096
17.327408 42.36726 24.034397
17.005543 42.726204 24.653337
17.027927 42.44931 25.454712
16.947224 42.48944 26.735765
17.081001 42.527126 27.388382
17.184998 42.58373 27.758657
17.28606 44.04178 17.99636
17.200584 43.930294 18.712435
17.332542 43.70813 19.422138
17.278328 43.467354 23.937891
17.040733 43.245235 24.448437
17.019077 43.434242 25.251032
17.116617 43.203545 26.675035
17.266033 43.23956 27.334232
17.246918 44.737003 17.638094
16.89038 44.786613 18.617022
16.976767 44.771618 19.171024
17.113268 45.42556 17.817097
16.939486 45.61481 18.494823
16.981216 45.70648 19.027615
17.269686 45.38711 20.59181
17.45168 45.697132 21.52005
17.322695 46.08293 17.89335
17.133823 46.08538 18.46805
17.237108 46.146984 19.338762
17.410337 46.22094 20.632784
17.33188 45.95575 21.010326
17.395876 49.92284 24.10219
17.249708 49.79754 24.734613
17.296263 49.699707 25.238768
17.429272 50.432312 23.935583
17.229317 50.29272 24.48459
17.316868 50.336662 25.157526
17.341404 50.88738 24.86423
17.889692 41.28574 24.709742
17.89952 41.242355 25.575676
18.03592 40.854767 26.438295
17.789173 40.95315 27.104551
17.956663 41.242306 27.806694
18.010292 41.68551 23.855375
17.746239 41.53373 24.420282
17.424486 41.566757 25.842735
17.563776 41.41993 27.462927
17.663431 41.807148 27.899368
18.068266 43.32966 18.06605
17.947876 42.982403 18.812675
17.927795 42.847973 19.520798
17.715359 43.104412 19.978
17.91162 42.49016 23.260439
17.582615 42.46541 23.652082
17.659107 42.51312 28.148237
17.978954 44.023296 17.128304
17.73747 43.869053 17.599573
17.461632 43.627235 18.517702
17.523064 43.67356 20.347528
18.120441 43.195362 22.994825
17.466494 43.27974 23.607258
17.533957 43.334667 27.661037
17.796347 43.223606 28.04925
17.829132 44.569016 16.986675
17.457306 44.563828 17.377623
17.510803 44.51549 21.313921
18.024351 44.24613 23.73928
17.43358 43.957573 25.499521
17.794683 44.170902 26.613325
17.78777 45.31895 17.057367
17.535633 45.684227 17.370567
18.113699 45.508156 22.33875
17.90963 46.04366 17.316736
17.546059 46.162132 17.749758
17.510494 46.466328 18.330254
17.527514 46.312477 19.574768
17.460855 46.118958 20.79458
17.718151 46.08795 21.696957
18.00819 46.709183 21.94732
17.940878 46.61883 18.109827
18.03437 46.71326 18.408154
17.97065 46.698517 19.690073
18.045488 48.635284 23.288664
17.77676 48.992664 25.441628
18.017767 48.980473 25.747562
17.50952 49.781395 23.571007
17.488785 49.434845 25.378546
17.882761 49.69866 26.019821
18.043865 50.821598 22.833435
17.568825 50.830868 23.76965
17.864977 50.59636 26.276196
18.25982 50.875793 26.882465
17.82435 51.253418 23.85721
17.705172 51.662735 24.4641
17.625065 51.23462 25.44618
17.897285 51.067272 26.307856
18.316126 51.65443 26.911407
18.048655 52.059746 23.89595
18.16564 52.49104 24.631332
18.078827 52.2291 25.269234
18.186022 51.99958 26.292593
18.295597 52.696487 24.507904
19.425535 34.219578 26.757635
19.35097 34.647003 26.69823
19.37843 34.585484 27.336737
19.38275 35.128056 26.73385
19.37973 35.049057 27.374094
18.777718 41.186634 23.96071
18.381102 41.09995 24.641031
18.754192 40.777214 25.682076
18.359644 40.693085 26.248386
18.524801 40.64111 27.153269
18.339428 41.23556 28.011724
18.492556 42.19999 23.12338
19.08683 41.839138 28.701303
18.386183 43.224735 18.131994
18.589485 42.79219 18.786484
18.552952 42.648964 19.49313
18.671127 42.71385 20.206444
18.262249 42.651127 23.062212
18.835169 42.761467 28.782757
18.554144 43.96194 17.053432
18.588589 43.507492 17.49671
18.71263 43.545696 28.370073
18.601723 44.563675 16.77112
18.934141 43.733856 28.28968
18.526436 45.407955 16.818903
19.195076 45.731884 24.374804
18.64701 45.29606 25.888227
18.50849 44.965324 26.565855
18.67653 46.0925 17.109587
18.327156 46.437454 17.523464
19.343111 45.784916 24.784351
18.463488 46.703445 17.861225
18.549763 46.963924 18.649134
18.648106 47.719097 22.958174
18.887224 47.870407 20.065422
19.023405 49.21743 20.666597
18.681585 49.783302 21.800468
19.093155 50.06683 20.88437
18.610874 50.354866 21.999954
18.877684 50.742172 27.325506
19.21571 50.745987 21.134514
18.705645 50.91293 22.090986
18.859253 51.5704 22.352789
18.601528 51.49675 27.260632
19.026793 51.32899 27.633358
19.083796 52.20522 22.81429
18.551716 52.554104 23.668978
18.579908 52.565212 26.194178
18.797459 52.24483 27.032766
18.769243 52.875393 23.89861
18.506626 52.828075 24.495947
18.834623 52.98068 25.220604
18.951174 52.871067 26.26295
20.266962 34.290237 24.806458
20.014051 34.032448 25.852438
19.775934 33.914604 26.709106
19.869314 33.894024 27.415619
20.004423 34.065144 28.067533
20.172682 34.805687 24.737465
19.70507 34.58918 25.814182
19.450033 34.34061 26.640026
19.477901 34.338234 27.424593
19.810835 34.60972 28.139305
20.374763 35.2286 24.181913
20.112564 35.337482 24.715082
19.835527 35.342102 25.613705
19.508009 35.223446 26.281435
19.57662 35.403255 27.52192
19.938963 35.215553 28.272585
20.250168 35.0939 28.637465
20.19864 35.857285 24.947603
19.95491 35.79602 25.917505
19.952694 35.919914 26.490057
19.92876 35.91512 27.315372
19.098219 41.028454 24.26461
19.403656 40.773705 25.57596
19.50353 40.50607 26.764812
19.18452 40.852818 27.844349
20.066576 41.077297 31.662413
20.186487 41.165478 32.192554
19.2977 41.5794 23.44365
19.368855 41.464237 28.453356
19.570396 41.568546 28.813381
19.850065 41.567482 31.473188
20.039637 41.496597 32.245827
20.188103 41.921734 32.96619
19.40449 43.156082 18.134151
19.39205 42.83767 18.761333
19.274973 42.62709 19.205072
19.381376 42.65926 20.253868
19.88627 42.30405 30.98202
19.741732 42.28097 31.722067
19.805939 42.81196 32.794113
19.99285 42.744427 33.367332
20.17574 42.863586 33.73824
19.235016 44.064835 17.10317
19.131422 43.77299 17.338572
19.794706 43.35566 32.51934
19.927816 43.446945 33.409145
20.124632 43.53902 33.736835
19.307472 44.617775 16.949448
19.946928 44.512955 28.067574
20.353735 44.872498 29.476913
20.031607 43.95346 32.598824
20.117937 44.019894 33.27438
19.328299 45.44282 16.996431
20.42321 45.45604 29.503736
19.319582 46.05248 17.166441
19.369581 46.461864 17.51864
19.750729 45.767414 26.416965
20.006016 47.561047 26.043165
20.356188 47.07685 27.253782
19.75991 47.907948 19.574522
20.43288 48.854485 35.924347
20.423693 48.844 36.282238
19.886091 49.688126 20.25266
20.429674 49.174168 35.895725
20.415142 49.19072 36.334145
19.759804 49.940506 20.293055
19.559477 50.353188 20.68941
19.968826 51.16315 21.077942
19.520603 51.31879 21.422964
19.747223 51.242893 27.791613
19.940113 52.002846 21.900568
20.03491 52.63792 22.458502
19.49037 52.45175 27.292662
19.962257 52.939903 22.922386
19.832514 53.05699 23.547115
19.420786 53.331184 24.894596
19.571648 53.345222 25.627876
19.842888 52.961323 26.933619
20.827032 33.44758 26.626543
20.744707 33.399494 27.448727
21.19888 34.255127 24.004793
20.776484 34.038326 24.726439
20.671185 33.8452 25.329914
20.388474 33.55499 26.68401
20.399265 33.520954 27.451708
20.52892 33.86868 28.399916
20.843206 33.940468 28.748852
20.795189 34.689346 23.936686
20.550337 34.519802 24.317806
20.33065 34.330963 28.621964
20.649773 34.54819 28.931753
21.235588 35.43062 23.278976
20.608963 35.456776 23.938223
20.471397 35.252842 28.750984
21.047806 36.171455 23.828695
20.93017 36.498753 24.505865
20.732147 36.59324 25.296911
20.679308 36.31906 27.753885
20.603952 35.89368 28.336145
21.211027 36.96062 24.53932
20.648912 36.620174 26.26973
20.903492 40.118843 30.510067
20.916342 40.13917 31.438173
20.05365 41.31929 24.074198
20.56633 41.186607 24.464945
20.672348 40.762455 25.72835
20.069313 40.651516 26.787844
20.477448 40.96013 27.248264
20.683601 40.782135 32.216187
20.950274 40.87047 32.693207
20.009098 41.93684 23.486105
20.582481 41.794827 33.23803
20.845772 42.065807 33.68617
20.188824 43.155113 18.716467
20.471846 43.07513 19.428581
20.006264 42.92705 20.195894
20.277275 43.342785 20.958708
20.438387 42.36867 33.60654
20.575632 42.69681 33.92694
19.979918 43.974613 17.737879
20.28483 43.52257 18.339495
20.566124 43.416134 34.081184
20.387804 44.302204 18.04471
20.643135 44.782314 30.27243
20.907238 44.262695 31.934784
20.55368 43.93661 33.91613
19.89044 45.31185 17.266186
20.20806 45.373295 17.668674
20.653477 45.078274 30.13662
21.169165 44.895687 31.080683
19.912159 46.040123 17.488333
20.552591 46.750362 28.293728
21.04406 46.42566 30.366941
20.686909 47.319443 27.070824
20.946571 47.323784 28.346878
21.33724 47.370155 29.625439
21.223293 46.81792 30.045515
20.857569 48.157368 35.62801
20.870174 48.08836 36.272007
21.173523 48.04852 36.85554
20.922657 47.8984 27.158121
21.223486 47.940483 28.584084
20.929707 48.917835 35.022804
20.598488 48.721344 35.57741
20.577139 48.638844 36.4859
20.9262 48.76459 37.215286
20.219627 49.778687 20.20033
21.379147 49.48156 28.368834
20.89622 49.400986 35.153576
20.597544 49.391033 35.600853
20.547812 49.56463 36.447987
20.892954 49.46974 37.341923
21.171843 49.37887 37.70819
20.462957 49.919598 20.16135
20.536757 50.500595 20.550117
20.318396 50.276974 27.543718
20.839302 49.869766 35.712387
20.891144 50.04171 36.51718
21.063267 49.95149 37.303417
21.20133 49.84459 37.684402
20.599295 51.37799 21.206133
20.114431 51.553577 27.920538
20.239254 52.228893 21.95269
20.13276 52.68373 27.352444
20.938282 52.76141 22.245575
20.721027 53.048546 22.760494
20.55054 53.481087 23.650742
20.573406 53.10234 27.010052
20.610506 53.74809 23.978731
20.86323 53.99035 24.57456
20.624397 53.903168 25.223713
20.586912 53.60877 26.071663
21.734077 33.36631 25.885708
21.493269 33.132866 26.94364
21.29667 33.29848 27.125109
21.837486 32.78717 28.43241
21.901178 32.918896 29.076696
21.779253 34.12452 23.68551
21.853495 33.74094 24.497751
21.398573 33.55285 25.60399
22.019667 33.32897 29.51209
21.86944 34.74401 23.018616
21.541332 34.542774 23.384342
21.624157 34.37753 29.219124
21.938389 35.394974 22.729973
22.078852 36.317303 22.738285
[...]
POINT_DATA 2477
SCALARS features_00 float 1
LOOKUP_TABLE default
0.59778225 0.6704539 0.6950668 0.5800524 0.60901284 0.6398194 0.6809504 0.6832993 0.6813475 0.81583595 0.75684416 0.6978911 0.5458298 0.58691776 0.62158865 0.6391562 0.6293239 0.8781268 0.7984531 0.7204181 0.8073858 0.71621585 0.6332872 0.40270442 0.26468337 0.72003764 0.6681888 0.5745496 0.37085572 0.33404776 0.46996868 0.49530208 0.5153866 0.47145057 0.49454814 0.5158791 0.5075666 0.5667853 0.56970984 0.6079241 0.66006196 0.6830261 0.57730067 0.5799031 0.6083641 0.6895333 0.69903797 0.7622354 0.71446717 0.69910204 0.68577254 0.560539 0.56805587 0.68496084 0.88141215 0.8330054 0.75000393 0.67262673 0.5019363 0.54207534 0.6110232 0.6235297 0.9437201 0.90225637 0.36027968 0.46022546 0.54350674 0.48210788 0.9110997 0.8190987 0.13439812 0.78686154 0.7274457 0.6504034 0.5312016 0.3517661 0.21248432 0.09826225 0.6565341 0.6125213 0.45895743 0.41241583 0.48643342 0.47236437 0.4482767 0.5139096 0.5066335 0.42566246 0.46602994 0.533373 0.5339232 0.47278944 0.5004791 0.5358501 0.5485978 0.57280266 0.47988746 0.50146335 0.5285992 0.57318455 0.49422723 0.736138 0.7416765 0.7614738 0.7293303 0.7554207 0.5175341 0.53677005 0.50384367 0.57168967 0.6259138 0.6728103 0.55845165 0.67935383 0.75110626 0.7082454 0.69507897 0.66990685 0.54210687 0.6813665 0.87377703 0.8035047 0.5228113 0.95022804 0.44522244 0.94227743 0.046340212 0.1303154 0.24365447 0.8406229 0.7466622 0.008799486 0.6824913 0.5338114 0.007335834 0.24037467 0.2801651 0.3649075 0.3636832 0.37492847 0.50312155 0.38754746 0.38395363 0.39246523 0.5688937 0.55872226 0.40563864 0.4592122 0.5723109 0.59239745 0.4563298 0.48678148 0.50104725 0.56741726 0.62105685 0.66035986 0.70498115 0.7291224 0.7095499 0.6268544 0.68533975 0.73353857 0.75880575 0.7357994 0.6119981 0.6094199 0.6476374 0.69917804 0.7526901 0.7341186 0.6866021 0.57663715 0.6280931 0.6630559 0.72903275 0.4591993 0.42413402 0.49499303 0.61449003 0.44560874 0.44887054 0.4729359 0.63756454 0.59522194 0.47095954 0.4720385 0.49260655 0.72847104 0.69444823 0.6771683 0.62277883 0.44165406 0.50882053 0.5617876 0.5699731 0.58201426 0.82720345 0.80371106 0.5639131 0.60896516 0.6238357 0.8595228 0.017485984 0.054807466 0.5461997 0.611534 0.87370265 0.1366831 0.8552846 0.7788284 -0.039738342 -0.22461227 -0.08468175 0.20230171 0.8247782 0.84186816 0.3101992 0.82832205 0.85264504 0.33349022 0.37237874 0.3775288 0.38371706 0.53613687 0.36028418 0.35764548 0.5895355 0.3716132 0.40289646 0.46883112 0.499561 0.5401729 0.567968 0.5870337 0.5976754 0.5881171 0.5898695 0.6279031 0.6511043 0.6094024 0.5454413 0.61748767 0.61368096 0.6464034 0.58463496 0.64323616 0.61385345 0.6486392 0.5757425 0.51219 0.50819016 0.6382041 0.6473843 0.46246302 0.5657118 0.26119632 0.31075412 0.32165754 0.27058208 0.27297193 0.4049948 0.36292773 0.3956647 0.3858198 0.3151588 0.4671062 0.47815183 0.6605582 0.58172137 0.55723375 0.38216877 0.5281351 0.5532373 0.7084973 0.6696938 0.61603844 0.6323865 0.11897841 0.3040265 0.6472424 0.74946404 0.6316812 0.12810056 0.10990573 0.7106142 0.061212506 0.19753052 -0.092414945 0.03277378 0.14926375 0.19252062 0.7757366 0.8036973 0.81053156 -0.058752038 0.0077305585 0.72442365 0.78956604 0.8402227 0.8483052 0.3047967 -0.26929432 0.7417458 0.79995626 0.86074567 0.8546388 0.8103519 0.30195653 0.34146965 0.308672 0.79295677 0.8541086 0.8372059 0.81148225 0.34770232 0.53246737 0.34772623 0.51713914 0.33631465 0.35407174 0.39159304 0.39379096 0.41020736 0.4413557 0.4559852 0.4312364 0.44897717 0.44024748 0.4815108 0.4117707 0.41779205 0.5946759 0.51694024 0.50704336 0.3997066 0.6223546 0.621135 0.40375307 0.6210667 0.60632366 0.56008255 0.24861829 0.45190412 0.37355047 -0.11817901 -0.24024495 0.11682001 0.17634922 0.09945924 0.18826383 0.15721071 0.3472357 0.34550375 0.1635215 0.38898438 0.39511782 0.4815399 0.56947553 0.4850036 0.1672002 -0.2542143 0.5322391 0.66879463 0.51627874 0.3145163 0.18927617 0.14635627 0.612365 0.259771 0.16251275 0.6946596 0.74856853 0.19797581 -0.08517071 0.61520225 0.78423166 0.18025996 0.6202829 0.75824416 0.26792356 0.29640597 0.092095256 0.636161 0.681653 0.7917011 0.78156316 0.75401264 0.7331298 0.7401973 0.28897297 0.042858522 0.3499245 0.38834366 0.44060206 0.39894503 0.2927888 0.42128706 0.44541374 0.38601565 0.44153237 0.46803457 0.5991069 0.5571637 0.41247085 0.59660006 0.60578275 0.27353582 0.59243673 0.6040571 0.05602111 -0.076512314 0.5492053 -0.13687396 -0.2212229 0.38476875 -0.3873936 -0.030557062 0.01351992 0.14453776 0.16738877 -0.101565026 0.22872004 -0.010775492 0.3369692 0.12456398 0.41731215 0.24729477 -0.009174781 0.43944377 0.24483493 0.068165615 0.14364178 -0.17831273 0.40857154 0.21722504 0.56943667 0.6323916 0.035928506 0.14463148 0.26051664 0.5822463 0.20149289 -0.0047327876 -0.0635027 0.07286133 0.120517895 0.3342478 0.64731866 0.22758028 0.04971137 0.06972808 0.14913413 0.6910976 0.072858095 0.04139327 0.5532388 0.2558323 0.12551302 0.10916074 0.28430644 0.1305793 0.14821984 0.01467517 0.39181656 0.38284954 0.26901984 0.2612179 0.7543994 0.7520635 0.7313434 0.73793614 0.40936136 0.31234372 0.39862594 0.40652293 0.43871886 0.44753835 0.21464483 0.44129682 0.5672488 0.5157879 0.37052572 0.1768804 0.25054657 0.5815226 0.10667108 0.58167315 0.5869065 -0.0638476 -0.032702677 0.56518674 -0.117805704 -0.29481578 -0.11194986 -0.0029791333 0.057614785 0.55408585 -0.24950507 0.039621208 0.4647724 -0.17753147 -0.013404405 0.070093356 -0.043023616 0.26922277 0.16380642 0.3282897 0.25407946 0.25113237 0.2175131 0.2424618 0.06925687 0.11461848 -0.06724088 0.16748148 0.3563014 0.047935233 0.44883955 0.3579697 0.41491762 0.029468313 0.02150976 0.036583573 0.20810139 0.4061638 0.43031895 0.1820185 0.06561785 0.01201855 0.11061972 0.016964205 0.06527406 0.010832597 0.24372053 0.7061324 0.72125876 0.61906755 0.69165426 0.7266579 0.7036824 0.5599227 0.6538179 0.7025708 0.71141005 0.6921482 0.64453363 0.6693839 0.6672877 0.616008 0.3774984 0.38613698 0.3744247 0.236144 0.20016927 0.16880439 0.21299529 0.28010538 0.32286003 0.42435825 0.44510153 0.17395034 0.20040062 0.25227243 0.31379467 0.36204574 0.55107814 0.71783024 0.7661741 0.16102594 0.3860898 0.1440714 0.1403249 0.20340432 0.3194038 0.37140197 0.39708218 0.5660233 0.7414375 0.8172678 0.4373324 0.26748818 0.23515978 0.021235023 0.052925106 0.26412132 0.34084737 0.44629198 0.6429553 0.75725436 0.82330406 0.51512474 0.3808757 0.099208325 -0.09438363 -0.06351158 0.74347997 0.49837577 -0.009253044 -0.04760981 -0.01032456 -0.010546874 0.44906986 0.04546568 0.0507569 0.0491347 -0.007421815 0.043684065 0.083183624 0.14347939 0.4487318 0.072731405 0.06943063 -0.013856791 0.10725911 0.15945886 0.16044089 0.34353477 -0.045954578 -0.14234409 -0.015022965 0.11763394 0.14669089 0.43509185 0.4056604 -0.19480154 0.07959995 0.393084 0.021987628 0.08801774 0.077827275 0.083207026 0.3200262 0.070963584 0.18196757 -0.23666312 0.16911586 0.22830471 0.27418336 -0.37963206 0.16078344 0.22336727 0.28221154 -0.11939649 -0.06929472 0.2062076 0.096123084 -0.10728823 0.13768245 0.30757427 -0.05938235 0.37435305 0.12430061 0.3530689 0.3000377 -0.0052695796 0.29084438 0.29260588 -0.008033136 -0.0087579 0.26272583 0.2207914 -0.04472015 -0.040086277 0.21597661 0.15492621 -0.07094627 0.40667653 0.50116885 0.2767316 -0.10543066 0.36454523 0.41337895 0.4395135 0.273416 0.5345468 0.52496123 0.6086315 0.6219231 0.5255361 0.61307925 0.6297312 0.6455331 0.6514152 0.54167825 0.4007657 0.62486184 0.63363564 0.61356187 0.7477013 0.71016645 0.77254814 0.75015485 0.6499311 0.5351927 0.644394 0.58605814 0.4678054 0.43608117 0.27691263 0.37431538 0.28103983 0.2762433 0.3580349 0.3799525 0.21625173 0.17255883 0.14319949 0.11990223 0.15988606 0.34011737 0.1623969 0.33198494 0.26403737 0.24971506 0.2288172 0.1291627 0.22707345 0.26732826 0.5523656 0.68854487 0.73338705 0.2934632 0.31657517 0.27876243 0.19022942 0.69886136 0.7698724 0.81619704 0.25076827 0.8373883 0.87920904 -0.055880904 0.0461951 0.17874657 0.87888604 0.9089262 0.33465302 0.029504154 0.025194734 0.046748884 -0.0012021959 -0.06444145 -0.040760517 0.08435376 0.2172337 0.2846839 0.36575747 0.6752633 0.7670256 0.8698881 0.3414135 0.15311763 -0.034798034 -0.036278315 0.13585491 0.18378147 0.17850237 0.1765523 0.20145547 0.5031724 0.47081074 -0.12592253 0.18774062 0.5261462 0.10559312 0.1399688 0.46177614 0.27394876 0.21557112 0.08858595 0.2553116 0.2882204 -0.091393724 0.30682176 -0.22206302 0.33503538 -0.1384044 0.32443625 -0.20856547 0.27997202 0.062318653 0.056044996 0.20967264 0.271487 0.21053264 0.31144226 0.31891257 -0.05376409 0.14155188 0.31024414 0.27557254 0.0936412 0.2845366 0.22903681 0.1611929 0.14207353 0.12181123 -0.019925484 -0.21192275 -0.11121443 0.34583554 0.21111175 0.43189833 0.40278685 0.18532757 0.3177473 0.40376934 0.4967031 0.17143372 0.32645717 0.32838544 0.21711515 0.59831893 0.47683555 0.3579557 0.5930167 0.6103853 0.6106654 0.5698048 0.52899414 0.39295274 0.5917255 0.59209913 0.5804419 0.71955436 0.69906133 0.7611547 0.75066817 0.69045424 0.5638614 0.6833013 0.7552452 0.4891434 0.46994507 0.43865985 0.45478228 0.5824455 0.6944276 0.44133502 0.4308607 0.32197946 0.39931327 0.46585906 0.48857468 0.6200634 0.54812145 0.3859048 0.29430383 0.1190282 0.15691939 0.13878703 0.43593755 0.4698063 0.46871275 0.43884578 0.2413783 0.11511942 0.20266339 0.16173437 0.09907131 0.26748788 0.42498112 0.41181448 0.037381485 0.05210851 0.18929799 0.05980943 0.38560694 -0.02600357 0.045906812 0.5721374 0.63905674 0.7223854 0.74972403 0.80552566 0.88144416 0.020029578 0.087882176 0.9054099 -0.22730775 0.16439873 0.86295205 0.8808633 0.053904023 -0.024570279 0.77451897 0.012800526 0.16021414 0.026840858 0.01149012 0.24815397 0.457026 0.468934 0.040737767 0.39162087 0.45904076 0.5552591 0.31897646 0.42395806 0.47085214 0.5599835 0.17316473 0.32172394 0.441803 0.31285012 0.35342556 0.3814668 0.15042552 0.4365924 0.47434467 -0.04374865 0.43640262 0.46344894 0.44004816 0.45093048 0.6563737 0.58156204 0.38327467 0.9344494 0.8889186 0.41308507 0.21898954 0.8867055 0.7589417 0.61611617 0.49808788 -0.03340627 0.78617144 0.7168387 0.5245108 0.30837303 0.0017299294 0.26604402 0.081351414 0.07901034 0.12990248 0.24362536 0.18401766 0.30763194 0.25784844 -0.27018026 0.18530686 0.034648076 0.28277898 0.22470674 0.41877112 -0.2690575 0.34009612 0.3801607 0.37263715 0.22147964 0.32932183 0.5746817 0.22946532 0.22804338 0.5348515 0.32317072 0.290134 0.5777406 0.56008685 0.4627197 0.37482136 0.35394642 0.5779571 0.5460493 0.5249056 0.67125297 0.64081776 0.7294704 0.7174444 0.5578722 0.3820575 0.6326381 0.36179724 0.43724516 0.47359112 0.47522867 0.50892407 0.12290405 0.21718091 0.4819052 0.48156518 0.41905257 0.14175726 0.44667998 0.20987812 0.40854108 0.05196569 0.33451632 0.06808883 -0.11661196 0.49106878 0.62302077 0.66209185 0.7557783 0.79350317 0.45826858 0.2998057 0.8382602 0.41031414 0.1768606 0.8130863 0.29110065 0.20581242 0.7082196 0.8104903 0.50638205 -0.05170139 0.46421075 0.47237933 0.48788112 0.49544019 0.511497 0.5521165 0.51124096 0.48800653 0.538681 0.4367758 0.16000791 0.32762882 0.18151636 0.50703216 0.005271944 0.5054445 -0.085215025 0.517727 -0.29071197 0.49762344 0.8595393 0.86866045 0.73858154 0.47263366 0.4153801 0.4560172 0.90046823 0.9165342 0.2840759 0.37442464 0.4409412 0.9009687 0.8657439 0.7997043 -0.0051537305 0.638613 0.5351963 0.15616474 0.5416012 0.38550925 0.1635198 0.21684667 0.22263835 0.17472579 0.20040685 0.17433289 0.184879 -0.3668705 0.1830363 0.46083465 0.5060603 0.42349523 -0.28369778 0.32391 0.26173598 0.56139374 0.34904647 0.30548656 0.31855804 0.34268633 0.31683373 0.3577741 0.40818244 0.46348488 0.46340677 0.43617105 0.4058175 0.3980859 0.48195684 0.4783914 0.4644614 0.46671724 0.4909528 0.6406878 0.43601006 0.40377215 0.35624152 0.43744108 0.49139786 0.5197813 0.5818989 0.50200135 0.031308055 0.35075384 0.41150677 0.5040854 0.5029035 0.45167193 0.4850101 0.15445662 0.3596239 0.13322599 0.04999523 0.063006625 0.5115845 0.42775896 0.47485045 0.7302282 0.49977243 0.5922723 0.42265862 0.4025837 0.63202184 0.7088306 0.63804865 -0.18627134 0.4814115 0.52861536 0.45794278 0.3985002 0.5203819 0.47480363 0.41481787 0.35657567 0.35074994 0.36794513 0.31555173 0.57798636 0.0399609 0.5335187 0.5356767 -0.018800661 0.52663213 0.5280963 -0.11438638 0.51504266 0.5214207 0.767003 0.72518814 0.5391066 0.4916969 0.83948284 0.79279196 0.47051242 0.45755213 0.85270846 0.81971836 0.7600227 0.68784964 0.18346263 0.6206385 0.53846693 0.2234261 0.119625136 0.24407661 0.15092793 0.19414268 0.4089769 0.1799742 0.17450145 0.4814187 0.22213246 0.582623 0.58971524 0.57539904 0.31839833 0.6023449 0.5825962 0.53119373 0.36364737 0.3607161 0.40047744 0.36439604 0.37868226 0.2823283 0.44994992 0.44051245 0.38171348 0.39378422 0.40870014 0.39292932 0.45935285 0.47780767 0.39259967 0.52597356 0.539115 0.48407364 0.50086457 0.5212834 0.5341455 0.5096127 0.43505347 0.40569296 0.4938935 0.5522221 0.5466195 0.54046196 0.35110617 -0.010536566 0.072842404 0.51994187 0.48855332 0.25710595 0.45565182 0.38472524 -0.07939768 0.27867705 0.49099353 0.4305327 0.20334288 0.5238743 0.5054313 0.21554662 0.41425478 0.24745849 0.042700835 0.037418254 0.007738904 0.010469075 0.19768171 0.109320864 0.33065438 0.157904 0.24421763 0.28623834 0.21843067 0.11247986 0.18843478 0.63442755 0.56873965 -0.067471296 0.53235 0.5349414 -0.28878522 0.53388214 0.71277595 0.63007957 0.54501784 0.23145327 -0.033524863 0.56652224 0.77264607 0.7047642 0.6355293 0.57422125 0.5441386 0.74311864 0.70703197 0.5189036 0.7483374 0.70340574 0.4271173 0.6991029 0.6755425 0.62649965 0.3983408 0.555286 0.41602552 0.5048389 0.052900575 0.39812654 0.26268807 0.21947804 0.3149132 0.53084457 0.5999895 0.60605067 0.2525708 0.6242275 0.60982037 0.5590682 0.4186309 0.39363453 0.35382226 0.4287008 0.41290304 0.4231671 0.33405033 0.36273032 0.5142133 0.49011174 0.3734907 0.37220705 0.36428955 0.38128412 0.4799297 0.52509844 0.51674193 0.5296116 0.5468224 0.48428375 0.52003205 0.5558976 0.5619658 0.54489857 0.6213175 0.56417274 0.5808308 0.5702285 0.5548646 0.69192004 0.52968353 0.6816425 0.5370525 0.49073362 0.3719477 0.13169618 0.37595734 -0.026459701 0.31486785 0.29809585 0.07726496 0.45998576 0.39066657 0.25479898 0.47878057 0.27225703 0.4515733 0.19034368 0.38857657 0.1295971 0.15714046 0.3352356 0.13803345 0.3471857 0.33586925 0.31921312 0.042608947 0.05908759 0.4952024 0.55259156 0.55203444 0.6050241 -0.08299538 -0.1851049 0.59305805 0.59992087 0.6317173 0.5730244 0.4460507 0.084462345 0.51807773 0.5841806 0.6343777 0.5680521 0.6632252 0.6615629 0.6362805 0.5860505 0.6874366 0.6607344 0.6419492 0.563208 0.6848432 0.2734155 -0.017210752 0.5730697 0.19651079 0.559806 0.58724606 0.4212369 0.4384917 0.44459945 0.29974583 0.6142849 0.30686387 0.63092923 0.6241578 0.40296295 0.45747584 0.346709 0.45827132 0.41760767 0.33162463 0.5218358 0.45768654 0.33386245 0.33375427 0.31789118 0.42687592 0.45527017 0.5382449 0.52619505 0.49537998 0.46793973 0.5271421 0.53106475 0.48530284 0.5093423 0.5485939 0.56790763 0.5626009 0.6651982 0.657919 0.6411528 0.76471555 0.75040096 0.5361093 0.6086887 0.56555617 0.7496107 0.73002034 0.18524283 0.54326475 0.6900016 0.5652193 0.433747 0.356128 0.14952417 0.34702808 0.40561765 0.39967602 0.29922414 0.29931068 0.2170762 0.22691768 -0.022292756 0.23764354 0.089971915 0.17005 0.174511 0.16089757 0.37114272 0.12785304 0.4343739 -0.021992022 0.47204122 -0.024157407 0.28686288 0.3187378 0.00058791414 0.2147961 0.3209866 -0.02096495 0.35303757 0.40164226 0.0051542185 0.31162298 0.45551854 0.5641057 0.104524896 0.34093827 0.56956804 0.43534723 0.34060624 0.17756954 0.543293 0.5627581 0.47576874 0.61968267 0.5852314 0.48272246 0.5858092 0.46494952 0.37236023 0.75950336 0.45702502 0.37409267 0.07627145 0.76809216 0.76711744 0.762516 0.610819 0.63734317 0.7049618 0.46039778 0.62685156 0.02058367 0.2428462 0.18422595 0.6179475 0.60888517 0.5247595 0.4902485 0.28907636 0.102081574 0.16263022 0.14567594 0.19980563 0.24705455 0.5584576 0.44202104 0.26784405 0.33925396 0.42505518 0.495641 0.38059026 0.41216415 0.353156 0.33903497 0.333252 0.31816274 0.3592191 0.49865556 0.54347837 0.541427 0.45718586 0.33277524 0.3365667 0.3263999 0.50871325 0.5476489 0.5503897 0.5161563 0.6456089 0.67653704 0.6820388 0.79606164 0.78690296 0.7678224 0.72994184 0.3352208 0.3409533 0.39752626 0.5612906 0.65439296 0.6755589 0.646477 0.77807647 0.4156126 0.20340876 0.31026775 0.5885006 0.5221193 0.743031 0.4756828 0.5972588 0.43103057 0.44183302 0.3273822 0.34070408 0.06891105 0.1470831 0.16935319 -0.19979872 0.1864796 0.20349604 0.23244207 0.09377092 0.16930324 0.20297632 0.20382717 0.22401056 0.56448 0.18612732 0.48759478 0.593159 0.5484872 0.6066946 0.54110396 0.67532176 0.4474358 0.5980246 -0.050590504 -0.067550935 0.090923905 0.2583694 0.3910239 -0.07241238 -0.09495872 -0.047403067 0.14915833 0.26838326 0.0023370087 0.4441622 0.28921926 0.11334227 0.096083805 -0.38648945 0.32129413 0.4057472 0.3450927 0.28122717 0.068140544 -0.0014672428 0.16670829 0.71406424 0.7699357 0.78802043 0.56923664 0.77650166 -0.039619196 0.057857826 0.10069187 0.67785525 0.7321821 0.66448087 -0.02762182 -0.032691833 0.041367985 0.18206885 0.25312066 0.20618027 0.28064963 0.35376036 0.5418954 0.66054124 0.47253937 -0.0011754334 0.027008068 0.07983641 -0.048721455 0.27097276 0.64390934 0.632581 0.5883021 0.51079327 0.13662301 0.20287308 0.21627045 0.3087848 0.30453467 0.31952614 0.66922814 0.80770814 0.8036885 0.76584524 0.2481735 0.25488746 0.35440636 0.6034821 0.6382021 0.6543266 0.64689946 0.81021607 0.37717053 0.431445 0.55052865 0.5806999 0.5951611 0.57251096 0.77759224 -0.12750857 0.018443944 -0.038377058 0.2757926 0.33441982 0.41656816 0.48973987 0.4732395 0.657961 -0.19827716 0.44224694 0.4428289 0.36609548 0.3343174 0.2674836 0.29435265 0.15195219 0.03800799 0.0844205 0.10309681 0.15603259 0.19047768 0.03192256 0.1796203 0.19492093 0.11044995 0.12793462 0.24025029 0.22354853 0.27136952 0.53430873 0.68745625 0.23221877 0.2831028 0.7508334 0.21594185 0.7672038 0.16266087 0.7924695 0.0074797235 0.59859526 0.72392714 0.7839993 -0.14490917 0.0878898 0.30034095 0.33778623 -0.14893588 0.18259437 0.15328619 0.16669677 -0.009999061 0.10335553 0.25837106 0.23927785 0.17413813 0.25931063 0.20614885 0.21455769 0.18057567 -0.014077023 -0.16750094 -0.22903657 0.5806533 0.7124026 -0.11380301 0.12458124 0.34584272 0.61906254 0.71954906 0.75821006 -0.048540175 -0.1412716 -0.03217148 0.04565596 0.10050179 0.5432584 0.63367915 0.7002276 0.7526214 0.68659985 0.67404485 0.6108037 0.405905 -0.05118586 0.26866394 0.289994 0.31166118 0.4146924 0.5859722 0.65950286 0.6930026 0.67226696 0.6174771 0.5544981 0.33977067 0.18614122 0.2727847 0.2647596 0.31850648 0.3626988 0.67255765 0.6558485 0.61104417 0.5252291 0.641781 0.60956764 0.805619 0.7432339 0.820492 0.8157068 0.7728786 0.6394961 0.54811764 0.5037902 0.780468 0.42468625 -0.022592269 -0.12710404 0.023332754 0.40404385 0.39655 0.4414093 0.46036324 0.646268 0.015185149 -0.05067067 -0.10345289 0.21686946 0.33276325 0.3895731 0.42353356 0.5315636 0.29262996 0.3976804 0.39718357 0.38112104 0.25761223 0.30447128 0.1386397 0.14236367 0.10721102 0.07759096 0.1032555 0.046257928 -0.013814186 0.14020607 -0.15156293 0.31409228 0.30176842 -0.21766932 -0.20162307 0.33577573 0.661916 0.7527869 0.3316332 0.78272355 0.810095 0.838323 0.27029598 0.8258954 0.1216613 0.6612741 0.7832893 0.80916905 -0.05261261 0.17085557 0.33525506 0.19382872 0.009311944 -0.13877827 0.2536116 0.1541939 0.23330876 0.27371716 0.27487552 0.40766966 0.37996268 0.2982601 0.27966255 0.30372885 0.24195261 0.40486753 0.0028116181 0.1533728 0.21439207 0.17321852 0.27718282 0.2647645 0.101930276 0.21320853 0.24230087 0.05443725 0.19747931 0.24429384 0.32242787 0.35244733 0.2973845 0.6158029 0.31700104 0.32952043 0.80299133 0.76467764 0.7801927 0.767526 0.71974003 0.16934273 0.7008158 0.6957712 0.64548934 0.52330035 0.15681599 0.07389184 0.18351167 0.18957935 0.22452283 0.09113711 0.19759488 0.30618984 0.5291805 0.54969573 0.4662953 0.