# vtk DataFile Version 2.0
Really cool data
ASCII
DATASET POLYDATA
POINTS 2132 float
-6.5068088 32.002472 7.256731
-6.534588 32.64829 7.3537655
-6.524905 33.12708 6.893223
-6.5513897 33.005474 7.4120607
-6.0580025 29.959389 6.8308444
-6.0643272 29.885609 7.61007
-5.9343486 30.005175 8.224777
-6.3233385 30.559471 7.650366
-6.122738 30.546446 8.26792
-5.896756 30.787968 8.637777
-6.2440023 31.337185 6.6376414
-6.43257 31.414438 7.5938315
-6.2889566 31.605957 8.202364
-5.9290237 31.348879 8.773543
-6.3868136 32.695 6.507008
-6.4842625 32.37381 7.137137
-6.3288484 32.516743 8.239062
-5.902265 32.776447 8.878047
-5.8995347 33.567654 5.8427267
-6.3611765 33.354282 6.7742476
-6.377465 33.502163 7.4040117
-6.169508 33.372295 8.257162
-5.9008646 33.382336 8.787613
-5.6654925 34.039253 5.71193
-6.163676 33.904285 6.7702303
-6.0068417 34.03681 7.553271
-5.935646 33.904587 8.1260395
-4.9144635 28.089031 5.2788153
-4.8377213 28.136423 6.3851175
-4.9423842 28.66563 3.9903767
-5.2907567 28.816362 4.882301
-5.220772 28.576767 5.4167166
-5.079785 28.751007 7.358816
-4.7856984 28.957186 8.081447
-4.6959095 29.137867 3.2217362
-5.0662975 29.373598 3.9355042
-5.3017774 29.348314 4.5118046
-5.521312 29.41921 5.991078
-5.6413803 29.374058 7.6466866
-5.4498787 29.926462 8.600543
-5.537903 30.535887 8.802708
-5.392763 31.383883 9.037112
-5.0288887 32.682564 4.7485237
-5.385006 32.75783 9.1999855
-4.8612638 33.87044 4.235347
-5.258194 33.530178 4.97071
-5.5187106 33.339886 9.029417
-4.998075 34.5205 4.8058553
-5.1815724 34.687145 5.4860125
-5.498282 34.526093 7.5746326
-5.51681 34.172108 8.381854
-5.499048 33.872597 8.714129
-4.757558 34.974354 4.9796014
-4.989979 34.96611 5.5893483
-5.291455 34.663345 6.718249
-5.2376013 34.770092 7.379179
-3.7544684 27.227722 2.9952762
-3.8172398 27.221388 3.312237
-4.0561185 27.253159 4.8929143
-4.022487 27.333143 5.4935937
-3.8429244 27.20122 6.807128
-3.8986688 27.682255 2.579318
-4.359307 27.856138 3.8324196
-4.255216 27.438002 4.9306383
-4.151212 27.626625 6.5041137
-4.1413617 27.67677 7.163607
-3.8527021 28.263554 2.0543427
-4.176624 28.430103 2.5670252
-3.8532822 29.267923 1.7785332
-4.2008276 29.295616 2.5788245
-4.894697 30.010351 8.766565
-3.9086394 29.971384 2.2674215
-4.45236 30.453074 3.6667602
-4.0910716 30.438437 9.233038
-4.254886 31.507158 4.1879377
-3.7121065 32.15984 1.5132359
-3.916607 32.845913 3.1591883
-3.6817298 33.118042 1.5501059
-3.626889 33.744274 2.5415473
-4.4772553 33.594402 9.216153
-4.179752 34.057182 3.630126
-4.4936213 34.469753 8.660126
-4.276141 34.38689 8.788194
-4.45032 34.982327 4.5719566
-4.6174345 35.307007 5.334623
-4.5202055 35.520767 6.7245893
-4.7069654 35.014816 7.636158
-3.9858205 35.106087 8.106787
-4.1537066 35.862583 5.7103333
-4.3455706 35.689774 6.133825
-2.7534316 26.084867 7.2955
-2.732764 26.148283 8.171407
-3.2611024 27.096165 2.4824364
-3.2342553 26.890099 3.4235253
-3.716801 27.126408 4.256057
-3.4873745 27.18226 6.2620897
-3.0792637 26.43801 7.485309
-2.8679616 26.42404 8.364479
-3.2407525 27.692358 1.779182
-3.3244953 27.662907 8.180419
-2.8925738 28.024479 9.964413
-3.1651654 28.737076 1.2689487
-3.4727135 28.589293 1.5130318
-2.7049842 28.338272 10.355352
-3.1519647 29.108234 1.099395
-3.591052 29.592648 1.4608171
-3.4721432 29.49146 9.171449
-2.893803 30.133892 11.089163
-3.3688536 31.272856 1.2402191
-3.0534365 31.257109 10.683255
-2.766007 31.69887 11.54825
-2.6746657 31.315552 11.754387
-3.2848952 32.485935 0.7999021
-3.1372375 32.136456 10.689126
-2.8122225 32.231113 11.175027
-2.8634062 33.59066 -0.100456536
-2.6858895 34.13423 -0.30478755
-2.8114917 34.50945 0.6479755
-3.2917292 34.155888 2.2543306
-3.158385 34.331406 9.102015
-3.634373 35.447483 4.4082203
-3.186818 35.262207 8.334087
-3.4817865 34.73448 8.706831
-3.260221 36.08803 4.8624263
-3.623327 36.272507 5.7759295
-3.109473 36.55373 6.550697
-3.1407099 36.183506 7.343285
-2.9262938 35.900764 7.806999
-2.9192946 36.740467 6.003304
-2.9559612 36.724606 6.303209
-1.9764028 25.199198 7.8380127
-1.899629 25.035942 8.45234
-1.9425526 25.128649 9.18583
-1.714525 25.94881 6.005113
-2.2835872 25.481213 7.899117
-2.3058467 25.495062 8.511435
-2.3330002 25.72005 9.534141
-2.0490074 25.796385 10.217754
-1.7748059 26.14201 10.903894
-2.6596797 27.222748 1.9743371
-2.87487 26.868124 2.6636755
-2.2608771 26.887207 3.372084
-2.5776553 27.062117 4.16692
-2.4174986 26.40746 10.246349
-2.0812333 26.508242 10.79753
-2.6697872 27.430635 1.7065308
-1.9179996 27.559132 11.329102
-2.2353342 28.92281 0.74087167
-2.1390874 28.705439 11.320057
-2.0114942 28.99018 11.6995735
-2.7153485 29.84559 0.6905134
-2.383128 29.371492 11.50699
-2.0668736 30.892355 12.131755
-2.364171 31.823154 -0.09874177
-2.1953983 31.698927 12.0480175
-2.1555867 33.038277 -1.0172845
-2.4990447 32.68895 -0.40715417
-2.259236 32.54946 11.561207
-2.1576416 32.215275 11.873962
-2.170868 33.60402 -1.0406466
-2.138575 34.349045 -0.9318587
-2.3467593 34.400887 -0.6291424
-2.3621638 34.513268 9.364309
-1.9331005 34.77897 -0.76666486
-2.1707091 34.826523 -0.37950498
-2.1674988 35.202015 0.37635684
-2.6097095 34.664066 1.9527351
-2.467359 34.955727 2.8051655
-2.7332723 35.44725 8.128942
-2.5530255 36.429558 7.228064
-2.2319055 36.921432 5.956296
-2.4028652 36.840847 6.3533354
-2.5468967 36.744198 6.898484
-0.68590987 18.775984 1.2798212
-0.83421785 19.14567 2.4762516
-0.6263547 19.210228 3.4770627
-0.68219256 19.541819 0.6412961
-1.1049385 19.754784 1.7454879
-1.0047479 19.426727 2.3933914
-0.7943234 19.49933 3.4530237
-0.6429076 19.848291 3.8588274
-0.7969669 20.104364 1.0067023
-1.3020346 20.483976 1.7961755
-1.3530363 20.606133 2.332625
-1.0768274 20.413431 3.1987014
-0.6997253 20.182165 3.8228683
-0.72139657 21.68851 -1.3230287
-0.98727894 21.72102 -0.57244146
-1.0689129 21.985483 0.4486347
-1.198922 21.142092 2.4795318
-1.1129191 21.034843 3.022533
-0.7523173 22.387177 -1.3563457
-1.0992929 22.549732 -0.34652367
-1.0308398 22.473196 0.31206638
-0.85801566 22.41799 0.80726886
-0.83980155 23.146261 -0.47010106
-0.89634347 23.062878 0.19481592
-1.0963155 24.45241 8.360276
-1.4483714 24.882517 7.7151365
-1.3164294 24.594175 8.605152
-1.4278946 24.73948 9.203895
-1.2491308 25.103094 10.255173
-0.9867528 25.856813 5.000067
-1.5838196 26.004652 5.500137
-1.4903982 25.396025 10.382991
-1.5936792 25.846409 10.758441
-1.7432269 27.309566 2.4929535
-1.660426 27.218458 3.7229812
-1.0585854 26.444256 4.8869576
-1.743339 26.605366 11.098929
-1.4388494 28.122297 11.632292
-1.6434178 29.034569 0.73963416
-1.3253305 28.630257 1.3481039
-1.7130766 28.693104 11.539113
-1.4450454 28.798271 11.781231
-1.2926025 30.227852 0.44534528
-0.83514464 29.424469 12.287025
-1.7504718 31.08744 0.091831654
-1.6584212 30.208996 12.2076025
-1.0345175 31.874273 -0.74459994
-1.4477342 31.509373 12.365405
-1.6510721 33.008354 -1.2928774
-1.41234 32.258423 12.162004
-1.2802869 32.901863 11.829525
-1.5748811 34.482635 -1.3042079
-1.2535284 34.402798 10.146332
-1.5689843 34.921726 -0.9407071
-1.5708216 35.256207 -0.42414913
-1.4885386 34.82705 9.41507
-1.2586919 34.625908 9.962806
-0.81588924 35.629242 -0.5628991
-1.48407 35.62383 0.50501025
-1.1745844 35.918278 1.6578207
-1.258661 36.470867 2.5958529
-1.8642559 36.502174 7.319899
-0.82013786 36.966106 2.6204877
-0.8610512 37.076458 3.3305736
-1.5681089 36.60044 7.267167
0.20530505 17.562849 -0.25338608
-0.20883885 17.801802 0.5601486
-0.0828712 17.677696 1.4792789
0.16492753 17.730251 2.1646228
0.38602638 18.918186 -2.1384735
0.36478102 18.665054 -1.7793835
-0.06591034 18.652205 -0.6175262
-0.37881333 18.215176 0.5946346
-0.5147331 18.30804 1.2640471
-0.45336428 18.726427 2.116361
-0.31179175 18.779982 3.4120824
-0.055499732 18.908684 4.0386214
0.16740808 19.714773 -1.6192043
-0.2966395 19.35541 -0.16088356
-0.56151426 19.263195 3.747745
-0.13490638 19.502718 4.3284364
-0.0768829 21.00856 -2.0233624
-0.48340237 20.33237 4.0011845
0.37049362 21.298841 -2.7707133
-0.1813072 21.60118 -2.1144485
-0.51791936 21.294607 -1.5436352
-0.26024202 22.427172 -2.030623
-0.505904 22.765604 -1.5179068
-0.53464466 22.447367 1.2162786
-0.4600409 23.377922 -1.180233
-0.34380668 23.034927 1.2129009
-0.34163114 24.322836 9.645167
-0.10746585 24.359262 10.085736
-0.2970491 23.887678 -0.33465794
0.37994555 24.422367 0.18112682
-0.4716374 24.682404 7.398829
-0.2418047 24.530222 10.304381
0.015878558 24.911379 10.847694
-0.53069687 25.684412 4.8490934
-0.376826 27.372461 11.440283
-0.6319911 28.034376 11.727425
-0.1443637 28.873453 12.628605
-0.9365561 29.955244 0.7017251
-0.60002005 29.669067 12.579004
0.15059328 29.436884 13.02723
-0.38476866 30.343912 12.786115
-0.04140845 31.70362 -0.7976421
-0.17933743 31.8087 12.515145
-0.43605 31.517359 12.632362
-0.35190815 33.012783 -1.7803987
-0.8471882 32.728233 -1.4674357
-0.4127615 32.286922 12.375028
-0.34492987 33.65675 -2.0360138
-0.39399558 32.960716 11.893962
-0.32740137 34.37464 -2.019994
-0.3552483 34.42088 10.300503
-0.43315846 33.81889 11.017946
-0.45752186 34.811802 -1.9092556
-0.61481655 35.30761 -1.1976749
-0.55767626 35.000908 9.144493
-0.57500464 34.657036 9.929838
-0.1683411 35.647877 -0.992271
-0.92797077 36.45035 7.177188
-0.3413833 36.019352 7.829047
0.16121829 36.8258 0.4983901
-0.6049396 36.995945 2.11845
-0.42408183 37.494 2.7080703
-0.80919 36.655632 6.8184032
-0.21264398 38.12484 3.5270886
-0.10275167 38.24756 4.086198
0.16615212 38.23498 4.990992
1.0407238 17.167519 -0.94448036
0.77539635 17.081085 -0.3492725
0.8297165 16.831842 0.44402882
0.7804508 16.893026 1.3247966
0.7336433 17.137915 2.0010834
1.2069995 17.873423 -2.426523
0.822193 17.721138 -1.5088725
0.67320025 17.42243 2.4051225
0.83275527 17.6754 2.8184114
0.7784169 18.39762 3.8598356
1.1456301 18.680935 -3.0232258
0.68403196 18.646475 -2.4752429
0.62489855 18.766209 4.297793
0.9375135 19.158983 4.6760044
1.0855527 19.330446 -3.2411132
0.23597774 19.263437 4.5658374
0.60242724 19.495754 4.7214823
0.6279191 20.706743 -2.8771322
0.22542448 20.658875 4.22492
0.61623037 20.400846 4.6397705
[...]
POINT_DATA 2132
SCALARS features_00 float 1
LOOKUP_TABLE default
0.51825595 0.52997035 0.5209366 0.53793085 0.43522817 0.4684479 0.46935934 0.5056459 0.5002172 0.4968585 0.46817914 0.52733433 0.54387796 0.52522874 0.4722132 0.516666 0.5539971 0.56733674 0.46544015 0.5211104 0.54754406 0.56683624 0.5687208 0.44471663 0.5286629 0.55365694 0.56235373 0.33863652 0.25635168 0.41864952 0.38474056 0.34953815 0.3168258 0.33131823 0.39140004 0.38058653 0.37494665 0.34456897 0.42181814 0.43082672 0.451193 0.46362507 0.2351649 0.524488 0.26337257 0.3483715 0.54849774 0.33350718 0.39461905 0.5316641 0.5398147 0.5414033 0.3452302 0.39144832 0.48536947 0.50609535 0.53867215 0.50894225 0.3214897 0.24935454 0.122277096 0.5445136 0.4453674 0.32809773 0.17341255 0.14039738 0.49964947 0.46554613 0.39943781 0.37938428 0.3800919 0.2989262 0.2683053 0.23288552 0.07165358 0.2581706 0.1269846 0.31009877 0.18341509 0.42047036 0.17626564 0.42183447 0.38770527 0.3088515 0.36647427 0.42320678 0.4551519 0.35133895 0.3837536 0.39507115 0.18525721 0.24993001 0.57864606 0.4879463 0.3998834 0.13502207 0.15975113 0.23510213 0.5750557 0.15683056 0.26485944 0.4870637 0.48419046 0.24788348 0.4552725 0.37638402 0.12568323 0.30983394 0.2677382 0.36304343 0.44187573 0.4342715 0.36336595 0.37645656 0.42868125 0.4830871 0.46279386 0.37169886 0.2087806 0.22036019 0.28762048 0.24682643 0.25377086 0.35774547 0.4002301 0.40704313 0.3873207 0.3290264 0.39713767 0.40228546 0.32140157 0.36649525 0.4136048 0.1765424 0.30177075 0.33531308 0.40462467 0.42732263 0.3987057 0.6014844 0.5525061 0.44752988 0.32675675 0.37886566 0.36984974 0.5997232 0.30863804 0.4467383 0.26471063 0.27578637 0.37776527 0.28217998 0.43399107 0.36013138 0.47111 0.52253777 0.47997254 0.45695078 0.4718773 0.5287566 0.47436374 0.45856714 0.19102459 0.44111508 0.41454387 0.33069927 0.20998411 0.08247969 0.24791351 0.38959658 0.37803134 0.39018863 0.39856353 0.41043413 0.50429946 0.602648 0.35122073 0.44936472 0.5031581 0.59856546 0.6266134 0.3576579 0.44098896 0.50390536 0.57986945 0.6147371 0.41260517 0.46880513 0.42282894 0.4695897 0.5436401 0.45163548 0.49773026 0.4605338 0.4233358 0.48316494 0.45935082 0.4292639 0.34431025 0.42883348 0.46111774 0.50592417 -0.0503005 0.036162406 0.4778641 0.43049246 0.51749426 0.30865955 -0.084796436 0.3685079 0.28302345 0.35424167 0.3208242 0.27575612 0.28113055 0.194199 0.35257256 0.20675069 0.3705541 0.23207153 0.49420184 0.5226506 0.4894169 0.46847913 0.5000231 0.24781367 0.4461458 0.3953681 0.21464321 0.24197665 0.39804906 0.29017356 0.114728615 0.059793882 0.36598742 0.11291253 0.12341724 0.35313493 0.4947946 0.47884697 0.50353444 0.51592755 0.40781575 0.42042038 0.38407838 0.4243329 0.4344632 0.47399956 0.5926524 0.6290187 0.309119 0.31693122 0.6249819 0.6511172 0.2997278 0.61919594 0.28648555 0.32957736 0.35024482 0.3624324 0.4348947 0.38989478 0.44972733 0.3911891 0.5443084 0.57038045 0.4054743 0.28348213 0.37348688 0.572418 0.58055556 -0.021909323 0.32787699 0.29746547 0.4149546 0.12197497 0.41345638 0.51386815 0.51766646 0.06283413 0.5050813 0.51523274 0.44728288 0.4143647 0.48209053 0.5438394 0.44337797 0.57667786 0.2804702 0.33586088 0.56732047 0.48820305 0.2450982 0.26281455 0.46590638 0.29018328 0.23887438 0.2432132 0.11465736 0.18114106 0.2786033 0.3103367 0.39620006 0.444726 0.4535169 0.49561512 0.5149089 0.5114897 0.5173013 0.43447453 0.44815552 0.51520514 0.50607526 0.5845771 0.4140097 0.434118 0.6208384 0.6338304 0.3641437 0.6451952 0.6412964 0.27920356 0.5944649 0.6030431 0.27914628 0.46902072 0.2913092 0.30749068 0.04667627 0.28447828 0.27155334 -0.0052269697 0.522586 0.56562394 0.5950827 0.6018797 0.60002893 0.19887473 0.18843019 0.20394292 0.117878504 0.5724117 0.17274179 0.36350697 -0.19941705 -0.122471854 -0.123598255 0.42285317 0.52182865 -0.1322904 0.5682829 -0.038202785 -0.039218865 0.6086942 0.11113875 0.5788003 0.39982176 0.4812311 0.5078314 0.41382128 0.44098186 0.52947605 0.26788536 0.32934952 0.5038388 0.20827751 0.22335477 0.21070379 0.3538252 0.30952004 0.42825204 0.28187624 0.40288717 0.44420087 0.45562452 0.44240832 0.43293715 0.38512602 0.41662455 0.44491506 0.45836005 0.46956643 0.47462988 0.3910666 0.42082888 0.42731154 0.5437236 0.38272405 0.5596128 0.6163902 0.30107975 0.34801894 0.6099007 0.25903317 0.55939746 0.30187225 0.2725001 0.011487767 0.3397172 0.29400933 0.310367 0.23836315 -0.035053223 0.03987123 0.10416235 0.36842594 0.5229783 0.5952866 0.092803374 0.59382474 0.58743465 0.16759686 0.5213179 0.15146989 0.44466442 0.37006578 0.42207316 0.5096857 0.5774871 -0.04079311 0.6341963 0.03001295 0.66931236 0.5942967 0.4347244 0.52226907 0.3876738 0.46011412 0.32159957 0.17985377 0.20569679 0.40327585 0.16256534 0.4408554 0.407098 0.28818285 0.31354308 0.4222954 0.438415 0.42550808 0.41647416 0.34531653 0.37734914 0.371773 0.34898183 0.3620469 0.42492348 0.4116606 0.4112959 0.34992152 0.33867693 0.28301108 0.28931683 0.37634426 0.35995656 -0.046482965 0.3764539 -0.0051849037 0.32490337 0.2602328 0.18915737 0.3776728 0.54257464 0.41554186 0.49952596 0.49823868 0.059903387 0.3485584 0.45903385 0.08383937 0.08680835 0.23216091 -0.01800584 0.54517066 0.5803329 0.0139959445 -0.090056255 0.4201659 0.54438484 0.63076425 0.6572787 0.08395053 0.59472454 0.63890743 0.12589973 0.6091816 0.39126796 0.08648646 0.30390736 0.0831835 0.2737519 0.18521272 0.37039453 0.27721134 0.39459184 0.39687216 0.28011358 0.40364033 0.33240584 0.32340834 0.3140904 0.2129448 0.24672796 0.30956414 0.2826236 0.18859442 0.24296477 0.28215778 0.21668242 0.36674458 0.33933038 0.37894562 0.37299573 0.114640586 0.35552824 0.32857627 0.32432926 0.15588912 0.21519169 0.06334393 0.20461361 0.16526474 0.15859838 0.34345415 -0.062265787 0.118765436 0.019178143 0.035038993 0.086290285 -0.075187236 0.58245134 0.5541595 0.19588804 0.16682547 -0.18863608 0.2094053 0.2281907 -0.17628253 -0.00021576136 0.14755005 0.46391332 0.21085696 0.29686543 0.28225338 0.7166666 0.7676301 0.44792426 0.33786523 0.7552723 0.6457444 0.30426815 0.34628636 0.7557529 0.45395097 0.34048322 0.4376421 0.44155306 0.36318508 0.24010198 0.10141126 0.054023467 0.2154391 0.1616305 0.16094503 0.01396586 0.072853245 0.14705999 0.08114974 0.32518008 0.2768778 0.2538178 0.3037604 0.36706388 0.2807586 0.34384465 0.40678126 0.32892454 0.37087187 0.2459817 0.30273247 0.22699235 0.23116152 0.06647835 -0.1500103 0.020180166 -0.15092595 0.07374984 0.07149866 0.102819055 -0.13801852 0.16596875 0.23313585 0.06597281 0.243899 0.1138359 0.2728694 0.2842455 0.25439197 0.23700303 0.099996105 -0.34091014 0.023146458 0.0105187 0.4236146 0.18524173 0.14253157 0.69151205 0.6288277 0.24096204 0.7517683 0.7423472 0.30540842 0.81757545 0.3568449 0.3417847 0.82287955 0.7746887 0.6769147 0.5017189 0.45356026 0.48889613 0.024116367 0.093712926 0.11788738 -0.015947118 0.046577573 0.10120114 0.13929883 0.11106376 0.08220048 -0.018851057 -0.006496258 -0.08774823 -0.059891723 0.053683735 0.24536341 0.35494202 0.62647283 0.41138154 0.4409709 0.4386568 0.24831554 0.41449827 0.22590454 0.14549655 0.39590573 0.08987808 0.051999256 -0.04636103 0.09784638 0.2553549 0.21463427 -0.14296907 -0.04768778 0.2721343 0.21247958 0.1419828 -0.13451058 0.14226201 -0.09855437 0.19975139 0.23931542 0.23655662 0.2604655 0.3190176 0.30045968 0.21619745 0.6220641 0.7171389 0.6900876 0.23846254 0.20552745 0.7486586 0.72891665 0.31453186 0.7990237 0.830338 0.3621619 0.34000826 0.84155023 0.796607 0.4448979 0.39213717 0.759007 0.6398061 0.63568103 0.5848794 0.51802516 0.47299457 0.11519453 0.07014994 0.10389899 0.11896483 0.07381721 0.35425508 0.27130455 0.12591772 0.0680718 0.6780448 0.4262504 0.12846054 0.27228814 0.7706988 0.7264773 0.6094483 0.3809051 0.4148527 0.7442776 0.7409467 0.43827796 0.6614516 0.6508828 0.46318537 0.4436568 0.5700371 0.08733694 0.42218858 0.04790185 0.024007706 0.3870537 -0.019306526 -0.031293273 0.05910601 0.23350903 -0.09168387 0.28491437 0.29753736 0.29030418 0.28935063 0.25722018 0.19560076 0.14305687 0.06462908 0.22619708 0.18103199 0.2537287 0.27427286 0.13079509 0.2690678 0.28393257 0.22598958 0.19882283 0.107452706 0.39371678 0.08955347 0.71332204 0.6584679 0.19529374 0.753755 0.7324424 0.30033582 0.28588927 0.790353 0.81465757 0.38794464 0.8372706 0.79580796 0.68360746 0.4807472 0.45754567 0.62878543 0.54446507 0.50542486 0.084458396 0.24184877 0.16938716 0.15675959 0.07578946 0.10382053 0.065789565 0.46532485 0.35185844 0.2701409 0.07740104 0.16813964 0.31467777 0.7294679 0.6727518 0.51258594 0.3414452 0.38085124 0.76424396 0.38283372 0.7406218 0.73253584 0.40052676 0.6857226 0.63445675 0.4258327 0.6460965 0.58160555 0.38615832 0.40562302 0.013658628 0.38339323 -0.024701163 0.2541422 0.060334504 0.17146534 -0.0372306 0.3294096 -0.031773135 0.3233065 0.056103736 0.2781797 0.2569461 0.21576959 0.13249795 0.10455363 0.116222814 0.07406693 0.107796684 0.1904254 0.1824406 0.13743632 0.23864046 0.26252437 0.35753602 0.16842568 0.10995568 0.70595 0.744286 0.2551492 0.24319386 0.7838866 0.6762693 0.42179358 0.38527104 0.75578344 0.7167566 0.61152625 0.49997413 0.4714446 0.44290012 0.6333113 0.60764456 0.22947872 0.28345603 0.25893754 0.029777177 0.122771256 0.22210264 0.2035807 0.18473722 0.26506734 0.18608432 0.15810776 0.14945166 0.16096051 0.015103899 0.023914594 0.4729985 0.34223711 -0.06708151 0.13618724 0.21058884 0.7236093 0.6642016 0.38817814 0.75237274 0.7441511 0.3487876 0.33761537 0.7265502 0.71295774 0.706666 0.6875681 0.38050818 0.6348419 0.58526325 0.3460122 0.349925 0.3666361 0.34702182 0.2715236 0.29864663 -0.027263358 0.25455022 0.14339195 -0.10760689 0.347058 0.29899356 0.09485698 0.09122829 0.27489254 0.25194266 0.12232222 0.20330289 0.17973462 0.13891633 0.05412505 0.20836489 0.17773966 -0.090146676 0.20144811 -0.003800407 0.14505462 0.3724485 0.5080799 0.09466632 0.4029398 0.031034123 0.041101173 0.46121466 0.11915013 0.09454577 0.4002365 0.16970149 0.12402958 0.55915606 0.35985595 0.31799716 0.28286606 0.637262 0.4633063 0.46313336 0.47104144 0.38429356 0.38392845 0.55078083 0.5170332 0.43517104 0.37388954 0.10678099 0.20364553 0.32221553 0.30393124 0.3418904 0.09344935 0.008212261 0.059295367 0.24665394 0.24702829 0.4410537 0.09463513 0.09965082 0.09331319 0.49874672 0.684731 0.5949278 0.29500976 0.7130035 0.31870806 0.6986041 0.67143524 0.6279014 -0.037448186 -0.06287302 0.31531024 0.26879153 -0.16629927 0.1862436 0.22519526 -0.04181397 -0.15422323 0.1456168 0.13726346 0.1656789 -0.1484923 0.24342793 -0.008087572 0.28016776 0.012959987 0.26883548 0.1495871 0.46714842 0.5273066 0.20782939 0.5440208 0.11597282 0.54030955 0.53822553 0.3568082 0.3187938 0.5445957 0.61416095 0.48683888 0.59493816 0.24219877 0.28237224 0.3225597 0.49300182 0.57507926 0.21811807 0.24007654 0.30833507 0.52602583 0.6196185 0.32100517 0.38496515 0.37858617 0.4818349 -0.01753366 0.42789578 0.61045754 -0.068997405 0.48100942 0.6679945 -0.030069804 0.37789196 0.47897947 0.28054172 0.6103482 0.29793632 0.6411425 0.28493464 -0.011497511 0.24121046 0.21742615 -0.23936996 -0.22502321 -0.14590934 -0.319721 0.2559465 0.28565645 0.30619138 0.091881156 0.3177477 0.5972267 0.51209044 0.037352726 0.3624548 0.67279065 0.6459434 -0.024948765 0.33290404 0.35528398 0.7482798 0.78533655 0.8530484 -0.0576327 0.006806493 0.30230075 0.15249884 0.4496636 0.38590366 0.09742501 0.51759 0.48078763 0.30928108 0.25552922 0.5401761 0.53928006 0.45512694 0.35179493 0.5241107 0.5141181 0.4423445 0.5254301 0.6483616 0.47578648 0.49181968 0.48791444 0.32858717 0.51979923 0.62354624 0.7220737 0.42414293 0.44434094 0.44099987 0.3684916 0.309348 0.38068077 0.7137746 0.757301 0.36232114 0.37033284 0.27214193 0.70847046 0.23350525 0.1856181 0.19815566 0.19673657 0.67507005 0.07278015 0.066854104 0.11747493 0.55252284 0.08434595 -0.040808305 0.19514221 0.2916731 0.09373981 -0.15386131 -0.22227696 0.16024627 0.36364096 0.620302 0.66360664 0.048474737 -0.09663811 0.6704922 0.6351596 -0.12759228 0.51920754 -0.105295606 -0.13514425 0.15262842 0.37624913 0.2321869 0.20683125 0.21402572 0.021775685 0.13945585 0.0993973 -0.032209184 -0.05136829 -0.15722224 -0.20820528 0.075221166 0.063684426 -0.2330333 0.10379106 0.4463733 0.34807673 0.28695732 0.5098239 0.3175765 0.34110987 0.75412863 0.6526218 -0.07434034 0.3750617 0.38355553 0.8239838 0.7289367 0.2431592 0.33977798 0.37658826 0.82666504 0.814631 0.8915968 0.247886 0.29286295 0.92548263 0.9320375 0.80193305 0.41774064 0.478782 0.6167003 0.49002844 0.56303406 0.5527226 0.44553813 0.55613625 0.5921551 0.53975886 0.51015365 0.51288927 0.52449334 0.54478455 0.5223113 0.43821824 0.5739275 0.6724029 0.4491908 0.44677132 0.3406818 0.7959378 0.78516424 0.38784024 0.76749814 0.6832549 0.04103968 0.5777018 0.13469343 0.06265072 0.059607893 0.522424 0.09987642 0.2799902 0.1005719 0.48164672 0.59854674 0.611038 0.59397775 0.15640335 -0.10503811 0.5623207 0.45762372 -0.15371442 0.18082109 0.18170622 0.12111223 0.52935404 0.0030559152 0.11903106 0.5662222 0.48408026 0.39255196 0.48188174 0.32624388 0.32329723 0.3748684 -0.07723527 -0.19715986 0.35751897 0.4625817 0.0822206 -0.12159923 0.47947606 0.040244788 0.26674777 0.69600683 0.56125283 0.29536897 0.32534832 0.8453842 -0.06403078 0.1785398 0.20686889 0.9200363 0.33647245 0.92668307 0.9132713 0.6688429 0.9077977 0.8958246 0.8210119 0.75466764 0.6420393 0.7037674 0.55805385 0.6098764 0.50611055 0.541942 0.60902184 0.7084646 0.7960313 0.7801358 0.3372051 0.19528012 0.71031845 0.32083887 0.24430028 0.64476144 0.2837438 0.03519015 0.55224633 0.5751176 0.19063833 0.49380916 0.26142505 0.4192202 0.34421083 0.2711865 0.36681372 0.30637348 0.2827856 0.4949833 0.56499803 0.5650262 0.3768261 0.46898693 0.5225358 0.38674533 0.10637409 -0.3318854 0.15928403 0.45195174 0.17354605 0.16266763 0.5124049 0.035386354 0.59265286 0.5826695 0.6086465 0.31298828 0.5896044 0.43574703 0.50388694 0.51805675 0.21244374 0.5191556 0.51958895 0.4237222 0.25643963 -0.009099819 0.37914145 -0.059682414 0.5027459 -0.07700187 0.8735582 -0.09818722 -0.033185378 0.9068848 0.90637064 0.8611649 0.77820003 0.61195135 0.41869494 0.8439468 0.7952675 0.69600165 0.63593405 0.67817104 0.71818256 0.41307867 0.46016872 0.43805635 0.5769472 0.50603116 0.57352513 0.67569035 0.739585 0.7873676 0.39852613 0.32162213 0.31795222 0.40595472 0.7925677 0.76553345 0.38029692 0.37862468 0.324409 0.29571247 0.7140399 0.33557966 0.34491512 0.5995877 0.6393465 0.3084594 0.2793904 0.5111997 0.5612985 0.2701991 0.28153375 0.23988214 0.33577734 0.36036193 0.37309256 0.40747595 0.32592887 0.31838116 0.24418089 0.24252799 0.46057355 0.15612413 0.19603258 0.5428109 0.50709367 -0.039556455 0.5865048 0.5820147 0.30254132 0.5915892 0.5687194 0.47448903 0.55182457 0.50445837 0.12119084 0.50360954 0.18122777 0.37682027 0.45658904 0.11562847 0.14197236 0.19056588 0.042578027 0.8534484 0.718174 -0.036994115 0.86680305 0.7948097 0.2593041 0.25321743 0.7779177 0.6751334 0.5057721 0.3901035 0.6883554 0.5867002 0.6557895 0.6888013 0.41596764 0.43253446 0.4290377 0.7009059 0.76702815 0.7850735 0.3802308 0.4070899 0.26523295 0.32569024 0.76551354 0.7703575 0.34522253 0.38730165 0.7161567 0.36299402 0.26681715 0.33917397 0.47575524 0.23217633 0.26139233 0.2386463 0.21997428 0.124057524 0.25296658 0.31761277 0.35718533 0.18146667 0.3384775 0.3272917 0.32139656 0.24622774 0.25305295 0.28594482 0.25304607 0.2512885 0.090691596 0.23392048 0.07295498 0.42142949 0.22341336 0.46363842 0.45230365 0.42973816 0.5285374 0.39582425 0.45108336 0.15144539 0.43493396 0.46142444 0.22367597 0.23404895 0.44382098 0.46255916 0.22581983 0.41703337 0.12199704 0.056427706 0.295661 0.1167387 0.0032269657 0.30821192 0.28044632 0.53275853 0.4083555 0.36866137 0.6215382 0.6653895 0.6331016 0.685063 0.69210887 0.6878433 0.63522154 0.68532157 0.65751994 0.42940378 0.5556798 0.4516745 0.7441119 0.6461129 0.71584356 -0.00017048419 0.05665595 0.14234743 0.32689643 0.49574357 0.6696458 0.2818489 0.29207712 0.41346604 0.5513116 0.21918689 -0.1314467 0.081838995 0.2764451 0.17989895 0.19913267 0.038772665 0.18883374 0.12870933 0.27222908 0.32050636 0.20074628 0.2316016 0.31454724 0.22542726 0.2521265 0.2020326 0.2244892 0.06752604 0.12896112 -0.13229263 0.3491801 0.16378161 0.3907897 0.41491455 0.24187458 0.21912622 0.4025569 0.23869494 0.38741645 0.22288251 0.18326691 0.1396799 0.42904907 0.1819597 0.5010427 0.31269276 0.43052155 0.5511573 0.6192194 0.62779224 0.7011285 0.7410412 0.704725 0.6925123 0.6735099 0.61036986 0.6782762 0.6538454 0.63067657 0.3958155 0.49199706 0.33394 -0.09434385 0.21414886 -0.110352576 0.20436935 0.19338197 0.2427514 0.24394207 0.20953655 0.14712602 0.22048616 0.059841923 0.11352974 0.15727118 0.28247607 0.2450651 0.2202076 0.2032562 0.28129882 0.11077307 0.29194498 0.20164338 0.25968763 0.2257658 0.33130115 0.2846433 0.23813352 0.18328467 0.2076619 0.25351712 0.30882394 0.24470107 0.24078447 0.09907381 0.22261456 0.051295493 0.026888385 0.1562321 0.51899934 0.12999944 0.5723606 0.18444708 0.5830094 0.48482397 0.65300226 0.60998 0.62331736 0.7207041 0.7703092 0.73557425 0.6899039 0.6840394 0.6753123 0.7393813 0.6371585 0.6476548 0.756631 0.72103494 0.52967405 0.6555755 0.3718781 0.4187151 -0.29651254 0.23858224 0.23495011 -0.20875296 0.26560986 0.2637401 0.22975081 0.25382707 0.24385372 0.17976148 0.10890056 0.05143147 0.062274672 0.07099377 0.14379886 0.20387337 0.26462764 0.10954445 0.114716284 0.3430886 0.23384605 0.25662592 0.3690033 0.3012669 0.37143385 0.3619527 0.20953177 0.24600133 -0.03208291 0.1428611 0.22275585 0.09796415 0.44129235 0.5712174 0.14925325 0.6147284 0.3091889 0.26496205 0.61967564 0.4983244 0.64489424 0.6448737 0.7461795 0.72595197 0.6896199 0.8470994 0.86101806 0.7523492 0.7740085 0.74923277 0.7273123 0.67568576 0.12740853 0.6284247 0.11771652 -0.09189159 0.23596065 -0.059716024 0.20592846 0.26858386 0.26910868 0.27374303 0.26379675 0.2544342 0.09088979 0.2319425 0.2901933 0.32764325 -0.1582225 0.29645014 0.34951013 0.34935427 0.3631182 0.13039863 0.37513158 0.23103112 0.39569026 0.2638988 0.20255902 0.40608445 0.23967424 0.38294172 0.2892013 0.31599033 0.1627163 0.12847269 0.07937036 -0.084259376 0.5135692 0.0742482 0.28991854 0.60449344 0.5888654 0.6143123 0.377927 0.4291154 0.5644332 0.59425086 0.6120882 0.56362844 0.652833 0.60741043 0.6433686 0.7032428 0.9113444 0.86297536 0.77499783 0.82103276 0.8434417 0.56439275 0.46222442 0.7808723 0.7309283 0.33569393 0.36910307 0.17207046 0.06522902 0.24564269 -0.08036126 -0.016970776 -0.09535502 -0.08512455 0.29864454 0.35664654 -0.16070011 -0.12379681 0.37131467 0.38340235 -0.2877277 0.4100027 -0.31829625 0.37648278 -0.3072081 0.26027435 0.2520671 -0.25850362 -0.1202512 0.015627367 0.123904854 0.7900867 -0.14482714 0.7963298 0.33463776 0.47359905 0.5735293 0.4988166 0.56975 0.5555914 0.8345703 0.9228592 0.8593987 0.7904426 0.72081935 0.8405521 0.8853564 0.612591 0.53859055 0.7934003 0.80795085 0.7522677 0.38780177 0.58735543 -0.0016616732 -0.029385865 -0.0048205256 -0.1166944 -0.12127612 0.35406804 0.2738922 0.5135598 0.5804113 0.5290067 0.130038 0.039328735 0.29902047 0.03858118 0.3359291 0.3213269 0.3053496 0.36048144 0.33354104 0.29072317 0.2908262 0.59391403 0.44587195 0.07347936 0.124121174 0.7427424 0.80450326 -0.10568896 0.045753423 0.82293326 0.84468895 0.8467472 0.85074496 0.77878624 0.8435817 0.77187383 0.702661 0.8770766 0.79807234 0.74112284 0.64545023 0.6082852 0.79320896 0.73778987 0.527374 0.7122201 0.43946448 0.40263057 0.62357837 0.35989538 0.30455855 0.32818875 0.30885625 0.38538814 0.20326006 0.5870007 0.18587765 0.20385365 -0.08871493 0.5815084 0.5775366 -0.0068864785 -0.050974835 0.5191161 0.33520576 0.47254848 0.5742918 0.62593555 0.6043552 0.23313388 0.588577 0.25885972 0.5444136 0.56594306 0.31450415 0.24036106 0.22881141 0.050883546 0.09910322 0.26872265 0.34147948 -0.09754261 0.3928511 0.35273725 0.088422254 0.41193485 0.39529622 0.22309108 0.38206506 0.39318296 0.40871865 0.21800119 0.5644026 0.46035856 0.0733905 0.12898834 0.7151594 0.76432014 0.8087703 0.8227872 0.7870822 0.78783673 0.7849666 0.7601204 0.7315287 0.68763787 0.66018367 0.6080874 0.66779