# vtk DataFile Version 2.0
Really cool data
ASCII
DATASET POLYDATA
POINTS 7443 float
11.225868 21.359188 -13.004501
11.182346 21.906727 -13.991625
11.012879 21.710127 -13.305028
10.905091 21.89219 -12.659525
11.07819 22.014565 -12.083465
11.1356 22.57631 -14.1472435
10.745527 22.593819 -13.404702
10.665948 22.523487 -12.659646
11.003981 22.515434 -11.963208
11.205103 23.2901 -14.1999655
10.8267 23.303543 -13.333019
10.768827 23.239962 -12.639578
10.91635 23.130278 -12.087308
11.130256 23.927177 -13.438531
11.196947 23.952286 -12.658899
11.399435 31.135662 11.757947
11.469175 31.14092 12.041161
11.413091 31.583673 11.75261
11.412829 31.51119 12.254765
11.402235 31.979803 11.738935
11.429029 32.185654 12.490637
12.276345 20.377577 -14.287124
12.200788 20.941948 -14.858939
12.049072 20.751268 -14.271121
11.979357 20.649414 -13.617007
11.6287365 21.188318 -12.711686
11.8944235 21.618538 -14.8274355
11.6160555 21.610697 -14.456662
11.365403 21.489208 -12.5504465
11.511143 21.68825 -12.063129
11.792658 22.377014 -14.945175
11.482797 22.745075 -14.550842
11.458498 22.396355 -11.544122
11.995826 23.41404 -14.916693
11.523246 23.578259 -14.486056
11.5443535 23.734175 -11.858617
12.157521 24.199419 -14.77624
11.798687 24.342089 -14.295684
11.525599 24.531101 -13.422921
11.846458 24.441141 -11.161929
11.979544 24.65902 -10.662446
12.155683 24.773035 -9.604535
12.3941965 24.70396 -9.1399355
12.006041 24.9825 -13.881456
11.838163 24.906212 -13.58174
11.869841 24.973024 -12.743757
11.900875 25.608332 -11.043393
11.874075 25.57426 -10.330113
12.072306 25.608036 -9.546178
12.280245 25.523302 -9.104381
12.10508 26.334606 -10.342026
12.166166 26.212624 -9.627366
11.758515 30.734241 11.622534
11.711949 30.798016 12.436756
11.990945 30.874428 13.0674305
12.411074 32.167423 2.6613433
12.318121 32.16323 3.116414
11.869015 31.530025 10.750085
11.508284 31.459429 11.381038
11.512107 31.403288 12.579476
11.860728 31.628044 13.299194
12.139737 31.530746 13.615358
12.250972 32.623466 2.550823
12.080103 32.771275 3.3376539
12.113639 32.806038 4.5849986
12.164553 32.959747 5.039452
11.86718 31.994751 10.806099
11.676022 32.398434 11.511868
11.556814 32.242344 12.506043
11.8621 32.257786 13.20987
12.153085 32.095184 13.656807
12.349897 33.255344 2.200982
12.167624 33.538418 2.652866
11.911571 33.437325 3.4146178
11.844362 33.57565 4.4801517
12.095226 33.657906 5.2168436
11.9768715 32.911953 11.810501
11.967624 32.88923 12.45074
12.148101 32.851337 13.096803
12.128805 34.42034 3.0292246
11.925044 34.55832 3.6484118
11.900585 34.46947 4.3625536
12.086713 34.100964 5.1955085
12.115529 34.95495 3.7232916
12.141032 35.007023 4.2443533
13.002375 20.334417 -14.842666
12.711034 20.2161 -14.195129
12.740566 20.15694 -13.535276
12.9816265 20.168247 -12.867228
12.646315 20.798145 -15.051287
12.434821 20.486612 -14.581651
12.407565 20.510794 -12.85022
12.803651 20.74634 -12.05746
13.234728 21.29467 11.604429
13.29846 21.135088 12.328689
13.11689 21.423191 -15.570747
12.445077 21.487005 -15.264395
12.726223 21.736994 -11.26712
13.232807 21.767271 10.797839
13.025594 21.7172 11.604418
13.122286 21.522451 12.286147
13.230326 21.873957 13.384336
13.001805 22.303421 -15.643277
12.556984 22.426647 -15.414786
12.710927 22.784592 -10.682736
13.060108 22.972837 -9.881002
13.274528 23.204266 -8.68745
13.242832 22.281507 10.206829
13.106453 22.232826 10.6229315
12.689461 22.673443 11.692391
12.684794 22.608324 12.382025
12.883667 22.663624 13.106476
13.320196 22.789408 13.992818
13.118885 23.001429 -15.579315
12.826536 23.296946 -15.348034
12.984507 23.685371 -8.719356
13.073417 24.193466 9.648339
13.1099 23.676786 10.607675
12.704593 23.308237 11.598009
12.684232 23.411339 12.515631
12.854689 23.303514 13.082645
13.27326 23.299158 13.822166
12.720569 24.266253 -14.880626
12.707418 24.523718 -8.808107
13.051497 24.926016 8.8299055
12.886851 24.756716 9.573439
13.058496 24.611973 10.306885
13.03862 24.325806 11.648055
12.987411 24.109695 12.372674
12.95376 23.79387 12.982861
12.595356 25.006416 -14.166872
12.40411 25.266937 -13.660854
12.731328 25.347868 -8.640492
13.084719 25.557709 -8.319451
13.31503 25.69441 8.157899
12.951455 25.411291 8.770888
12.740701 25.511005 9.417389
12.801752 25.618168 10.31822
13.200369 25.448 11.185147
13.054067 26.41357 -12.345371
12.548445 26.410786 -11.4222
12.420425 26.455948 -9.436112
12.552896 26.119709 -8.982398
13.252805 26.359724 8.10743
13.022889 26.269917 8.773167
12.816958 26.061642 9.545996
12.862097 26.06837 10.032943
12.84254 26.754148 -11.818013
12.600927 26.98106 -10.423176
12.660562 26.961746 -9.991293
13.401477 27.098719 9.092694
13.404528 29.372446 9.415302
12.69268 29.91829 12.505381
12.960907 30.040047 13.001022
13.167034 31.404566 2.8199956
12.813004 30.905218 9.635148
12.572309 30.605541 10.312564
12.498598 30.86646 13.554541
12.799527 31.15315 13.680115
12.75937 32.066177 2.0461192
12.763021 31.808107 2.5020607
12.69147 31.749119 3.3139288
12.710014 32.053562 4.4213057
13.20478 31.886993 9.089044
12.762844 31.495275 9.706011
12.497499 31.663683 13.7423315
13.171086 32.77364 1.4173889
12.678256 32.61585 1.897683
12.449661 32.335663 2.2827125
12.632953 32.841515 5.632313
13.285074 32.073555 9.057217
13.07604 32.305412 9.418762
12.266913 32.678883 13.326364
12.470334 32.195312 13.706462
13.244309 33.446743 1.3612643
12.87058 33.411842 1.7089276
12.410077 33.872593 2.2922065
12.931077 33.815464 6.1808968
12.7841835 33.148018 10.691595
12.5753765 33.459957 11.786857
12.66019 33.39893 12.439339
12.561569 32.98131 13.186474
12.844917 34.315807 1.9902023
12.562834 34.603783 2.6699042
12.795454 34.329185 5.9087477
13.158799 33.874207 11.497401
13.107458 33.776356 12.247236
13.327117 34.774857 1.5551045
12.6905155 34.971695 2.7665775
12.508228 35.370476 3.714104
12.542734 35.39067 4.399033
12.8718405 35.26759 5.3203225
13.199631 34.90061 6.000247
12.931054 35.64875 3.744446
13.205649 35.90987 4.4818935
13.890775 20.201761 -14.826942
13.236631 20.04409 -14.317516
13.595114 19.802597 -13.394888
13.651851 19.98739 -12.464253
13.66911 20.191244 -11.972639
14.020332 20.325928 12.093078
14.125529 20.263552 12.4750395
14.131945 20.280678 13.142548
13.382274 20.803753 -15.33441
14.05842 20.673737 -10.848368
13.987492 21.285866 10.219383
13.698559 21.191881 10.69673
13.758205 20.823938 11.595982
13.648819 20.786469 12.489395
13.89432 20.67824 13.281771
14.044481 21.068012 14.158629
13.361466 21.714048 -15.732988
13.59596 21.810925 -10.360016
13.871975 21.712597 9.964482
13.535524 21.46266 10.522531
13.844252 21.717209 14.322902
14.13976 21.83177 15.00828
13.4186325 22.498251 -15.776911
13.51965 23.097643 -8.65097
13.617309 22.54317 9.814213
13.730054 22.518429 14.703086
14.085293 22.3846 15.071946
13.185986 22.857618 -15.710088
13.677828 23.64563 -8.130676
13.676419 24.133718 8.797013
13.690922 23.331417 9.549491
13.81394 23.4361 14.292309
14.184662 23.000626 15.075746
13.8735895 24.56237 -7.8161774
13.541561 24.90119 8.2774725
13.472819 24.634775 8.553025
13.525358 24.093237 13.277773
14.187015 23.9638 14.098507
13.148455 25.369078 -13.698216
13.393187 25.797598 -8.414024
14.108867 26.156912 7.223006
13.551191 25.528381 8.026646
14.028295 25.47649 12.02741
14.159932 26.557228 6.9643097
13.502291 26.304243 7.853129
13.541627 26.038204 11.125016
13.669221 27.352297 -12.224525
13.519534 27.460709 -9.829712
14.053349 27.310247 7.0380726
13.814234 27.420113 7.393428
13.43103 26.80493 10.654969
14.042378 28.024797 -10.94683
13.642735 27.92364 -10.611012
14.175812 28.700336 -9.821325
14.442598 28.73068 -8.987971
14.435148 28.945381 -8.02596
14.165355 28.060627 7.1193347
13.72725 28.981709 7.9996166
13.612029 28.090294 9.743299
14.324745 29.82654 -9.908752
14.2360935 29.169394 -9.584333
14.414967 29.63751 -8.184292
14.475101 29.479044 -7.3778687
13.802633 29.74093 8.099953
13.68939 29.615047 8.488792
13.494014 29.409441 11.485144
13.371456 30.20683 13.213392
14.338246 30.09923 -10.141492
14.34568 30.374243 -9.324836
14.294284 30.121065 -8.313354
13.682999 31.226547 2.7507336
13.656388 31.100609 3.4364047
13.553205 31.259533 4.1208854
14.306045 30.689726 5.4632854
14.229634 30.163631 7.293087
13.568528 30.070107 8.954058
13.072488 30.377363 13.333
13.831589 30.811363 13.622276
14.314804 31.6451 -5.997768
14.337299 31.820862 -5.7160034
14.376575 31.983702 -5.077494
13.742329 31.630611 2.0085444
13.719735 31.47032 2.2789495
13.781867 31.54143 4.7154803
14.098719 32.18145 6.48764
14.022776 31.132439 8.009775
13.530092 31.79547 8.77378
13.344159 31.924654 13.844095
14.413513 32.240448 -6.9206953
14.232553 32.42025 -6.324104
14.140184 32.40418 -5.8046036
13.605479 32.687683 1.2979403
13.40225 32.561314 1.4553502
13.285845 32.36823 5.779104
14.375877 32.595142 7.5771446
13.682977 32.16121 8.498895
13.49008 32.715427 9.338645
14.24619 32.863434 -6.0143094
14.343591 33.04658 -5.689456
13.410663 33.840855 1.2475611
13.896638 33.17973 6.981245
14.202423 33.314953 8.065008
13.652203 33.45019 10.085035
13.396658 33.101387 13.458424
13.703802 34.454823 1.0578244
13.5951185 34.50597 6.7128716
13.80662 34.02569 7.2042866
13.819645 33.6008 10.055144
13.761581 33.97399 10.94691
13.595624 34.086143 11.633923
13.6060095 33.943424 12.310902
13.871171 33.764694 12.733322
14.461126 36.130363 -3.4241939
13.73464 35.258297 1.7384796
13.629561 35.170536 6.3308125
14.099276 35.160053 6.95451
14.451021 36.43142 -3.9981558
14.424263 36.354572 -3.4781234
13.990279 35.9403 2.684959
13.481934 35.98718 3.534459
13.888442 36.30461 4.610237
13.766469 36.04817 5.3209324
14.435831 37.24909 -3.4126542
14.991737 19.33446 -14.235306
14.916529 19.34504 -13.517759
14.688955 19.420652 -13.045956
14.821341 20.275864 -15.343186
14.734853 19.476843 -14.282373
14.403739 19.538462 -13.461324
14.563403 19.624207 -12.675234
14.575332 19.90685 -11.9090185
14.929376 20.295143 11.085966
14.50275 20.162312 11.883267
14.545189 19.974007 12.574312
14.661807 20.014217 13.256663
14.782563 20.32185 14.119553
14.247047 20.92234 -15.373016
14.5770235 20.712402 -10.364454
[...]
POINT_DATA 7443
SCALARS features_00 float 1
LOOKUP_TABLE default
0.6442064 0.7079521 0.7102432 0.6957628 0.64095855 0.70799613 0.78150177 0.74316084 0.6642086 0.6740352 0.7473235 0.7166681 0.6608554 0.66135037 0.59752214 0.67495334 0.7039351 0.692768 0.7304456 0.69353104 0.75248486 0.56992704 0.59220123 0.60098034 0.57590413 0.56733704 0.60852337 0.6463138 0.60377204 0.5497153 0.5904511 0.63439447 0.55146796 0.5678952 0.6209843 0.5170145 0.55326796 0.5771041 0.56422675 0.3855548 0.39792514 0.43908846 0.44262666 0.49784625 0.50128186 0.4187944 0.43012312 0.45161843 0.45675194 0.4562727 0.46329522 0.4663511 0.65116864 0.74605787 0.7925242 0.611089 0.61453116 0.55806863 0.648018 0.7530963 0.7988819 0.7924202 0.5992166 0.63428533 0.62747216 0.58366364 0.5908403 0.6891397 0.7569964 0.7918589 0.7887 0.560901 0.57570535 0.64903706 0.68038297 0.5981642 0.7141656 0.7413496 0.7519562 0.5776752 0.61844337 0.64921856 0.6089566 0.5807817 0.5913066 0.54244536 0.5317111 0.49039775 0.42825872 0.56813097 0.57312787 0.48429203 0.3820846 0.4824169 0.5053842 0.51455826 0.5642604 0.30670485 0.4489457 0.5133912 0.5364092 0.5933454 0.48477408 0.5237664 0.28462166 0.30672866 0.37992874 0.41074204 0.4453614 0.5457095 0.5764249 0.5606311 0.5321839 0.45492053 0.49521303 0.42430645 0.41588786 0.413103 0.49910754 0.5065497 0.5065041 0.5015049 0.49884388 0.43959042 0.43412226 0.4516874 0.43999195 0.4370857 0.4395405 0.45531708 0.43862733 0.39783975 0.4358555 0.40598404 0.37840647 0.44535044 0.47129083 0.45252728 0.40999442 0.24268356 0.3924741 0.46679872 0.4599343 0.34880382 0.42690355 0.46790096 0.456328 0.3241127 0.41318965 0.42755944 0.36593 0.07296021 0.6205149 0.5693522 0.5945411 0.20140147 0.35392952 0.7424331 0.7064271 0.6008861 0.6076955 0.5959165 0.54257685 0.18672745 0.2688346 0.7586144 0.5560227 0.5820198 0.6009035 0.48124385 0.18755345 0.30170682 0.7602661 0.7613553 0.51037097 0.52979887 0.5368867 0.4126802 0.56079197 0.62629646 0.6376128 0.70535684 0.49368525 0.5245294 0.4733501 0.5242493 0.5502488 0.4556046 0.50561917 0.52023274 0.53525126 0.52271646 0.45403272 0.46980295 0.4510104 0.47777268 0.4982915 0.4044379 0.33662745 0.30021626 0.4400558 0.45991063 0.49630582 0.52677536 0.23900071 0.35831222 0.402248 0.43630177 0.48745 0.51543933 0.5537635 0.47273389 0.2242118 0.35142666 0.40781856 0.56680846 0.536639 0.42726976 0.35885534 0.3661672 0.5438225 0.53560174 0.44453257 0.36854404 0.35201398 0.34844193 0.4989872 0.51922894 0.33276904 0.36983067 0.38478148 0.38557163 0.4345857 0.25798059 0.38109156 0.22234249 0.3480273 0.31664968 0.193632 0.30849904 0.38252643 0.23633038 0.2604552 0.16439769 0.18138891 0.38715878 0.19394012 0.21940821 0.13920239 0.18598536 0.19199204 0.08627109 0.0515017 0.2700879 0.2501495 0.19075248 0.19578838 0.15848064 0.04338698 0.05832014 0.4658088 0.54761183 0.2800076 0.25567615 0.20504738 0.55358464 0.53378874 0.47789213 0.004244879 -0.0047188513 0.08143812 0.6110287 0.5498818 0.37848783 0.42108914 0.4700531 0.5634284 0.5589224 0.35829553 0.103777364 -0.010320395 0.09491071 0.67719615 0.32760566 0.40513483 0.45431614 0.5484073 0.56796086 0.36152002 -0.09348741 0.0021293461 0.23122135 0.43387064 0.45991725 0.48444808 0.21754935 0.075968444 0.43414623 0.6008793 0.44018415 0.36387977 0.31541866 0.40938202 0.47231054 0.47587878 0.4806394 0.44594687 0.5489057 0.407628 0.4199009 0.36839017 0.5783728 0.56857914 0.36846966 0.4096862 0.39331388 0.4195892 0.6201186 0.37057126 0.34495983 0.32625487 0.37148702 0.38099363 0.35599852 0.30640864 0.2573703 0.30004802 0.40027982 0.44469625 0.47396344 0.4966036 0.44657224 0.18813813 0.16014168 0.32574832 0.32350963 0.52305865 0.49370003 0.34135377 0.19967744 0.28857887 0.5053809 0.47914153 0.2966508 0.2829321 0.52031887 0.49361366 0.27445054 0.25299382 0.49088117 0.4970724 0.49456897 0.28347096 0.1601198 0.28462464 0.4183565 0.4785776 0.14939845 0.14426328 0.116481334 0.22280824 0.21389651 0.23048371 -0.054224864 0.027205195 0.08070562 0.20261106 0.18269214 0.087803304 0.09046152 0.16797118 0.16545191 0.1748921 0.19575481 0.15761238 0.13539144 0.13742337 -0.016447842 0.06377824 0.30817586 0.2549742 0.14967969 0.13252896 0.11959025 0.02360326 -0.051698606 0.40987396 0.4274066 0.3270833 0.17118092 0.22856252 0.3405976 0.35906 0.44672439 0.41977733 0.34399617 0.25730205 0.22869575 0.17759624 0.4525493 0.4200228 0.42147547 0.42967024 0.3548818 0.18187371 0.19117925 0.24036562 0.35357368 0.5024404 0.1823943 0.28333676 0.35961154 0.45991218 0.49889845 0.49249136 0.44473416 0.39073527 0.25503668 0.26505244 0.39936137 0.28036565 -0.02271688 0.34975937 0.35147953 0.29862615 0.26381028 0.21741003 0.4939434 0.4900009 0.46122682 0.314597 0.23712185 0.4251254 0.5687932 0.48399192 0.108056 0.09080492 0.25938103 0.28360313 0.29114607 0.3354256 0.31463403 0.4826417 0.6288613 0.6409894 0.58424693 0.0805879 0.29555523 0.3127821 0.6312114 0.6067548 0.5369088 0.35381266 0.34385276 0.28101894 0.33061743 0.28690124 0.12565902 0.16037402 0.19795895 0.3154177 0.39596212 0.39118737 0.4272434 0.2646925 0.23017085 0.18883973 0.42479554 0.3476483 0.17344904 0.44611424 0.40611935 0.31901747 0.0683893 0.21765825 0.18598224 0.46759307 0.44372094 0.41326854 0.14466754 0.464202 0.4417295 0.3822602 0.080290005 0.206207 0.2586489 0.2221036 0.42033297 0.44238776 0.45326233 0.32850257 0.08259525 0.19920456 0.25041822 0.29914033 0.26154882 0.23764299 0.4181043 0.4194922 0.18142018 0.20006323 0.24738592 0.2451812 -0.054739743 0.044477608 0.21966985 0.18653569 -0.27483937 -0.26404017 -0.007924028 0.051794887 0.13564222 0.14710821 0.2983746 0.15643153 0.11328852 0.12783986 0.4076924 0.24269363 0.25797978 0.048804723 0.42257428 0.42712685 0.30862197 0.11200744 0.6246673 0.669624 0.40959758 0.3445481 0.10682673 0.3631412 0.19461776 0.5394442 0.5511769 0.6624741 0.10520305 0.50906265 0.1355431 0.18080907 0.17936511 0.2882641 0.052053228 0.22211955 0.15746084 0.28333157 0.4224726 0.1437421 0.14687082 0.23925766 -0.026174411 0.1919344 0.22982857 0.27549285 0.09131171 0.10055645 0.23355082 0.29900503 0.3489048 0.1519835 -0.101552844 0.23130853 0.17730673 0.4941236 0.57143104 0.44798893 0.3745761 0.06893943 0.15445796 0.22659194 0.083687216 -0.039763287 0.51285577 0.52822465 0.37891775 0.2357086 0.30447805 0.32356048 0.28174865 0.2640319 0.34798163 0.3476475 0.34162846 0.30071336 0.37415385 0.4008651 0.3908809 0.5716674 0.47518408 0.53920746 0.6047207 0.6381064 0.6614406 0.7255215 0.71548367 0.24812917 0.30030635 0.30622506 0.36008307 0.2315071 0.18698812 0.20555921 0.23824394 0.26171303 0.24198547 0.2743514 0.4218161 0.31187773 0.22552195 0.17476512 0.23927534 0.24020973 0.20548132 0.34024745 0.30083895 0.25996935 0.229033 0.24863872 0.33769065 0.19292533 0.4078793 0.5960045 0.40199956 0.37061024 0.119266525 0.23901564 0.12097065 0.47335342 0.59851635 0.437607 0.42506185 -0.14923805 0.15745002 0.5333093 0.46752888 0.03809082 0.17478149 0.041378774 0.41554222 0.4612088 0.17363238 0.29567617 0.28969908 0.4265952 0.31123817 0.22960082 0.26158014 0.3156178 0.27025795 0.35250998 0.25511658 0.15924072 0.24297868 0.23871699 0.31295425 0.09753618 0.062836766 0.12591338 -0.22599307 -0.109093316 0.060589492 0.09004663 -0.085306704 -0.00044325367 0.24374609 0.048008956 0.030020574 0.095537215 -0.1367651 0.34103465 -0.027020028 0.32057762 0.6338485 0.39345568 0.17765905 0.010809492 0.6797766 0.69831514 0.38746673 0.13128158 -0.17991772 -0.12723266 -0.10517426 0.69420683 0.71656215 0.14053665 0.047054388 -0.12302493 -0.19401303 -0.1014813 0.63187945 0.6961503 0.72429025 0.062277157 -0.141565 -0.09214604 0.15497646 0.41702038 0.5422714 0.6673175 0.038926385 0.119428955 0.25171185 0.288743 0.42342228 0.20671949 0.14125173 0.060921013 0.16443247 0.08530678 0.37989867 0.23847461 0.022821665 0.21683721 0.17089878 0.22550881 0.25806096 0.23509234 0.39556038 0.3911804 0.3356477 0.33345503 0.271611 0.6612523 0.5874351 0.4812113 0.43112767 0.71523285 0.6827905 0.68214715 0.71403337 0.6647957 0.7933006 0.76999056 0.76325595 0.77498734 0.7663114 0.8265269 0.8160693 0.59907633 0.5692173 0.14589587 0.2698431 0.3245833 0.34863883 0.5464444 0.56991774 0.5107031 0.37656957 0.24415722 0.17173563 0.16473359 0.22456875 0.17066556 0.26011905 0.32131386 0.31665108 0.27039158 0.47468826 0.1355768 0.12452638 0.21062765 0.31188667 0.5039002 0.2636661 0.1753478 0.7200791 0.40481597 0.38084835 0.6406257 0.6900319 0.3607626 0.32805502 0.13140005 0.69033813 0.75810444 0.31754112 0.3105069 0.65657115 0.69489264 0.41425347 0.03158413 0.66497326 0.20409513 0.6479117 0.70665157 0.45168114 0.13709682 0.16622224 0.636549 0.4776916 0.39292693 0.29347435 0.2573434 0.23609677 0.32061172 0.40186572 0.32731432 0.28318346 0.28273878 0.29041073 0.20706995 0.26581728 0.29595035 -0.019275907 0.008802813 0.11449891 0.2232928 0.16768463 -0.098065995 0.07166933 0.03867342 0.12902218 0.20151663 0.0135733625 0.045079313 0.06873339 -0.019556757 0.121665575 0.23748252 0.25970903 0.035695136 0.023021922 0.5084658 0.6276646 0.2885185 -0.32624912 -0.19209108 0.6829614 0.7015502 0.26668596 -0.24005035 -0.15003945 -0.22793859 0.7283746 0.07806873 0.72292376 0.7350501 0.1030015 0.5725816 0.6836381 0.071194015 -0.045326825 -0.23508546 -0.12262465 0.005901836 0.13349219 0.24601415 0.31917033 0.37420923 0.455137 0.5072483 0.012769759 -0.061516535 -0.1098847 0.03648699 0.29128173 0.10902782 0.18449982 0.021414403 -0.16172056 -0.011237249 0.14557728 0.051543787 -0.003365565 0.27909556 0.10645537 -0.080720425 0.18813819 0.18770638 0.37944654 0.3870685 0.35027897 0.052660763 0.18490306 0.5640297 0.5718827 0.47959846 0.48702794 0.58257943 0.5693003 0.25791168 0.21728316 0.64951 0.6565659 0.6525919 0.54707235 0.33714557 0.7059689 0.7051272 0.69199276 0.69735944 0.7628957 0.64712775 0.5290558 0.8074623 0.8671723 0.77572536 0.861651 0.8275932 0.8052676 0.10480831 0.109722294 0.10939066 0.59603405 0.64062726 0.6086145 0.40981838 0.3209877 0.1353837 0.1220556 0.1142071 0.20329405 0.30570638 0.3670296 0.49280804 0.55118144 0.21794353 0.08471061 0.18912706 0.33354902 0.56544596 0.67805064 0.44224858 0.48413223 0.0425104 0.18851292 0.29333705 0.43935335 0.576186 0.21591678 0.14121804 0.08153497 0.47963262 0.6796334 0.82406414 0.39624244 0.6677371 0.7118598 0.28634906 0.24896526 0.1130493 0.08334909 0.73379153 0.78370607 0.889866 0.33600074 0.73854893 0.32685363 -0.01303412 0.5719845 0.62102187 0.7586763 0.8352319 0.21004143 0.7387084 0.3496132 0.5837383 0.70028245 0.1037688 0.6506283 0.70467246 0.18886085 0.15499759 -0.076847896 0.24508914 0.3128586 0.20749518 -0.09229048 -0.061343163 0.13491946 0.12381314 0.28563964 0.26906067 0.17790353 0.19489397 0.024786346 0.26518065 0.1654141 0.25634223 0.14722589 0.08029811 0.08031326 0.17315552 0.17109838 0.28252527 0.19256817 0.040089127 0.08154903 0.11827293 -0.33523932 0.24323808 0.020218607 -0.037848312 -0.36903533 0.48987666 0.54562193 0.17269322 -0.19795495 -0.2283024 -0.36437878 0.6105025 0.6710178 0.71376914 0.006536521 0.7151747 0.7304284 0.06817073 0.5836105 0.690145 0.09541469 0.09269979 0.3550818 0.41956908 0.16286227 0.12669179 0.050686464 -0.34833056 -0.19526786 -0.03525703 0.031706985 0.2020719 0.25811392 0.30169973 0.21563569 0.20753801 0.06328407 0.34366286 0.300916 0.25221455 0.18948467 0.36938667 0.35130727 0.3183517 0.088547915 0.12010637 -0.13308802 0.22844493 0.3625873 0.25033742 0.19940495 0.5123137 0.3567918 0.39941266 0.16297945 0.62228334 0.62450796 0.51293284 0.41496274 0.37926233 0.5857185 0.522195 0.21553889 0.7101147 0.72865903 0.7286537 0.6893625 0.56742793 0.4627262 0.662268 0.44932646 0.73818845 0.7361426 0.6911285 0.7007922 0.77334666 0.7090263 0.7224386 0.8069092 0.7893233 0.77653015 0.19963469 0.18248652 0.13516504 0.077094994 0.07870331 0.58641773 0.64825547 0.614569 0.45570105 0.2746675 0.17407775 0.15430559 0.2696584 0.34386784 0.35252267 0.49184173 0.52457213 0.20970638 0.036405884 -0.0048611686 0.4508602 0.680481 0.79658246 0.42155778 0.0254433 0.06515639 0.19924116 0.31835052 0.40440214 0.5482359 0.10923736 0.021567859 0.2346214 0.8714966 0.9427359 0.38417518 0.6461514 0.72916496 0.055544175 0.12641664 0.960303 0.3200062 0.7371056 0.17019951 0.89117205 0.14305001 0.7093572 0.15333623 0.75209254 0.7637285 -0.011060357 0.5801343 0.6749983 0.43693694 0.13669147 0.25833136 0.113023624 0.06985751 0.12980184 0.2831431 0.36620843 0.37562072 0.29450616 0.15966736 -0.065602615 0.017782902 0.16568887 0.22751284 0.27445847 0.20426914 0.15874979 0.16477275 0.2846971 0.29452863 0.24461077 0.28398398 0.30505052 0.17289868 -0.0510747 -0.193973 0.30188087 0.3739133 0.25832635 0.121157825 -0.26634556 0.29493183 0.37289494 0.32184297 0.29988557 -0.023415357 0.52976114 -0.02186378 0.55745244 0.67720675 0.02453377 0.5738615 0.67672265 0.06673598 0.10315317 0.28621322 0.28674883 0.32288468 0.15473625 -0.29861662 0.0069229268 0.005631976 0.182127 0.26847228 0.26228428 0.3345009 0.2870897 0.365293 0.36893624 0.41327846 0.38290808 0.37768233 0.17260894 -0.21085533 -0.25004366 0.32860914 0.3498826 0.3363092 0.32400697 0.3523955 0.21722883 0.17715041 0.25205356 0.41741443 0.34826565 0.40910846 0.690856 0.72953266 0.5373563 0.42676485 0.41012925 0.44798997 0.35854715 0.7339628 0.72452044 0.6736204 0.5789173 0.54564965 0.6336053 0.65302503 0.5516279 0.47061223 0.49851328 0.4439987 0.20727637 0.20037118 0.3350923 0.21850039 0.21191944 0.105900034 0.1264244 0.12999636 0.19552024 0.54802454 0.61579746 0.55276203 0.37361836 0.20963934 0.24062172 0.41936657 0.47924894 0.14821973 0.0016819686 0.23553193 0.14086254 0.24691075 0.395954 0.56982976 0.7380204 0.829011 0.41020346 -0.075972125 -0.010666151 0.039018203 0.15920609 0.2675876 0.33259365 0.8664298 0.63146555 0.033967867 -0.10743391 0.889819 0.22300777 0.6096193 0.6692808 0.33239815 0.060710132 0.84009457 -0.043606363 0.57143986 0.6516797 0.5249347 0.5566608 0.7283065 0.38588756 0.57886827 0.5204725 0.27329862 -0.032592453 -0.08067393 0.22336513 0.3538844 0.46654576 0.33673596 -0.017726928 0.15442622 0.16839114 -0.08534061 -0.11288479 0.21936199 0.081738204 -0.11594987 0.07632315 0.23414949 0.16731668 0.1622615 0.20274282 0.17171966 -0.15436058 0.113869935 0.1699389 0.19806312 -0.18585145 0.13700813 0.23839265 0.21259767 0.10800578 0.09643654 0.21487494 0.3736656 0.28338534 0.29313883 0.41492528 0.4061613 0.28544366 0.41196692 0.3925102 0.30526355 0.22341281 0.30629838 0.21184291 0.34995776 0.24212596 0.03962322 0.09308082 0.07567008 0.09847529 0.044487234 0.17484735 0.21881011 0.17553496 0.0011816584 0.26252615 -0.03499174 0.0034232326 0.32564288 0.41782057 0.33386612 0.35507044 0.39427215 0.36204967 0.16447823 -0.44271654 -0.3070436 0.41128305 0.23447764 -0.03239003 0.3064772 0.33753043 0.3543742 0.1102117 0.10911165 -0.06272356 0.67786586 0.68012524 0.48285618 0.30610085 0.28168523 0.2147126 0.69447386 0.6812545 0.6324473 0.5796857 0.08466621 0.46394223 0.47669923 0.41502494 0.48509687 0.5149932 0.5314994 0.5475263 0.20764977 0.22146893 0.325449 0.4077832 0.5178296 0.5374031 0.5457958 0.225781 0.2659262 0.2505694 0.12544277 0.2665949 0.3545244 0.44227412 0.46579194 0.509994 0.24847214 0.28452533 0.20127276 0.13921416 0.10125257 0.20532933 0.26401407 0.24069417 0.2207177 0.19276488 0.1845815 0.17519748 0.14397228 0.15707761 0.23611902 0.2994789 0.25980076 0.20398706 0.21568653 0.2806821 0.3241886 0.29110897 0.21189192 0.43398607 0.32823485 0.2783048 0.27558213 0.26825154 0.521734 0.49447882 0.43961108 0.37342492 0.4116722 0.42703146 0.18937606 0.19408208 0.15363319 0.2591409 0.33767268 0.39125016 0.39975652 0.18297157 0.19106314 0.35101068 0.24320741 0.22831988 0.50134516 0.473171 0.21660182 0.25937575 0.25900507 0.25111705 0.42652196 0.12768404 -0.12586376 0.15167524 -0.051779732 0.096405596 0.14998043 0.25398582 0.45461696 0.5986166 0.30467236 0.25495598 -0.10441388 -0.07126445 -0.027509406 0.09489747 0.12875982 0.2649264 0.6252898 0.7484498 0.2824082 -0.041052707 0.6848316 0.17581126 0.499363 0.34679335 0.5279842 0.7002138 -0.604699 0.41949987 0.59852916 0.5404224 0.47926632 -0.39122579 0.2543066 0.6135606 0.55724597 -0.017614178 0.146334 0.19594948 0.595918 0.5215701 -0.26703453 -0.1774426 0.2018638 0.20183352 0.2018349 0.17533718 0.094328575 -0.24890926 0.42032152 0.35801786 0.14571193 -0.14868449 0.20009427 0.20075664 0.20512016 0.021902502 0.18660341 -0.2867618 -0.09082523 0.15046297 0.17073622 0.34688085 -0.033424944 0.2014026 0.41011995 0.41316858 0.4052268 0.4016534 0.16635358 0.018168963 0.0750866 -0.05141601 -0.003510099 0.020645814 0.06267603 0.0022320598 0.04829204 0.059305817 0.16967851 0.115883656 0.28305244 0.25668734 0.31702495 0.26937452 0.29824352 -0.5993733 0.37557903 0.277536 0.15462577 -0.29058632 0.23583263 0.37606522 0.47356194 0.28580913 -0.10345562 -0.027845085 0.58979523 0.11576971 0.27974746 0.4124166 0.4384964 0.58777773 0.56975234 -0.24649653 -0.235749 0.22127137 0.35729873 0.4276302 0.57409286 0.6232859 0.438654 0.5198244 0.57421994 0.6181948 0.3797484 0.41858685 0.453941 0.4822871 0.3260295 0.3521489 0.3701822 0.3750416 0.40265423 0.25584498 0.29648283 0.2494674 0.3118084 0.28807497 0.35177237 0.4379708 0.5033887 0.52157974 0.15669799 0.1541257 0.15595914 0.20958945 0.20986201 0.51110196 0.5489955 0.5571597 0.094388835 0.55358 0.5580808 0.14167853 0.5082934 0.52126324 0.44419542 0.4496711 0.1995697 0.31231776 0.40408486 0.4913604 0.5353256 0.5482994 0.45047075 0.085957274 0.15908182 0.18014282 0.55264586 0.61678493 0.6624408 0.61451197 0.082277894 0.10607618 0.5665684 0.6282791 0.65993035 0.6492607 0.3802067 0.23688115 0.15245995 0.11007885 0.57699645 0.59187263 0.4341569 0.45052004 0.39193034 0.3283905 0.2169461 0.15171376 0.1254838 0.113285094 0.51155263 0.53578216 0.39474198 0.28168514 0.19391489 0.14457196 0.08266808 0.115219854 0.12190546 0.49295574 0.53735936 0.5340202 0.43488786 0.023264736 0.09342383 0.42968124 0.44192687 0.45315653 0.4894895 0.46625346 0.3219664 0.41195256 0.44436133 0.4483113 0.4422629 0.21489419 0.2191793 0.20097996 0.39613944 0.35998037 0.24320325 0.2604879 0.21721022 0.04390826 0.38132107 0.2903933 0.15371881 0.2905522 0.21723466 0.24100994 -0.21642376 0.46373323 0.34404016 0.2776756 -0.0142734535 0.1274879 0.11180081 0.26878142 0.26137787 0.24619311 -0.0063460916 -0.12620735 -0.09797095 0.5563342 0.38842255 0.17443404 0.26734644 0.30703753 0.30697343 -0.15848833 0.015940487 0.0334569 0.48963383 0.385255 0.505889 0.29768798 0.30331418 0.26569998 0.43863893 0.21801537 0.40735152 0.2611177 0.26242563 0.19007757 0.087945364 0.09293413 0.5172673 0.36050436 0.11182459 0.093839504 -0.032612205 0.13890272 0.63686633 0.14225927 0.20620738 0.110196784 0.096973695 0.6439402 -0.11246063 0.01698742 0.21993113 0.19566086 0.18009348 -0.25963402 0.061396584 0.10746708 0.6256925 0.55979 -0.21100457 -0.2286816 -0.04094076 -0.3070876 -0.46444064 -0.20032525 0.20971623 -0.203977 0.15837096 0.1376812 -0.1006883 0.26783016 0.31455016 -0.40096134 -0.12336701 -0.10134986 -0.09621213 0.031057715 0.32677424 0.2467151 0.11559487 -0.081945546 -0.0985536 -0.06418635 0.15130016 0.051752046 0.063477255 0.107792936 0.086563 0.10333683 0.11702157 0.18381189 0.16767174 0.19277339 -0.07382586 0.13625751 0.22067958 0.21111082 0.2457116 0.24240871 0.2688434 0.2987143 0.013391979 -0.3210712 0.19740888 0.32468548 0.28134242 -0.16743578 -0.28534207 -0.04767242 0.4719336 0.5065297 0.23247913 0.27220917 0.60258245 0.61355233 0.5269973 0.45102513 0.3519944 0.2429368 0.15342662 -0.23035608 0.6434743 0.6376827 0.57446384 0.3496297 0.4461186 0.53301406 0.5997424 0.6430911 0.5229968 0.6133828 0.6362841 0.42085066 0.47500977 0.520439 0.56036943 0.56446624 0.36872604 0.3973922 0.48922765 0.5325509 0.54071623 0.34706655 0.3300366 0.39116836 0.6062772 0.5978207 0.5836816 0.4541615 0.30256772 0.28215814 0.31186295 0.45822692 0.5120084 0.52929413 0.5594347 0.5396049 0.5012686 0.29558024 0.19544731 0.08412491 0.54525423 0.5511181 0.50766474 0.44691038 0.37093234 0.2506817 0.036716536 0.007692352 0.021548763 0.5612854 0.3464906 0.28919646 0.0019816766 -0.18124497 0.4944127 0.3764423 0.4024013 0.28575668 0.24445082 -0.17511733 -0.12700696 0.28225717 0.33303487 0.3641483 0.441565 0.25909704