# vtk DataFile Version 2.0
Really cool data
ASCII
DATASET POLYDATA
POINTS 3508 float
23.3768 33.662468 11.295554
23.279343 34.12901 12.06122
23.216074 34.770245 10.875423
22.89626 34.808525 11.833506
23.026066 34.87002 12.327258
23.218725 34.802353 12.757589
23.140087 35.388184 10.867879
22.864147 35.395016 11.620022
22.96051 35.49295 12.361455
23.204468 35.483795 12.866959
23.27061 36.01245 11.043631
23.141228 36.263435 11.720133
23.16883 36.250458 12.27702
23.297634 35.877884 12.930745
23.347427 36.706978 12.22925
24.170465 24.965435 5.9785457
24.072748 24.886026 6.5176415
24.107204 24.94778 7.735998
24.153559 24.950825 8.289925
24.291832 25.143223 8.923794
24.023903 25.699215 5.7039857
23.783346 25.529165 6.5286117
23.814957 25.649132 7.35592
23.852484 25.692575 8.229673
24.219767 25.426826 9.010746
24.267027 26.016243 5.2912574
23.97514 26.338562 5.782434
23.731842 26.506174 6.4140096
23.741756 26.549623 7.122365
23.99526 26.434505 8.586532
24.179184 26.476583 9.267358
24.156199 26.907393 5.8698025
24.04109 27.148342 6.6514
23.918041 27.162386 7.942222
24.022293 27.46168 8.500469
24.193699 27.603752 9.323179
24.270397 27.771633 7.780967
24.21582 27.976791 8.607731
24.359493 28.318665 9.108807
23.865276 32.880127 10.708825
24.051428 32.702797 11.401466
23.954739 33.701996 10.0716
23.576624 33.482456 10.847834
23.540611 33.550644 11.433037
23.562153 33.82335 12.311127
24.272005 34.47964 9.657531
23.496666 34.610405 10.416632
23.668146 34.65763 13.16484
23.656519 35.54015 10.304097
23.475607 35.3868 10.449849
23.741928 35.542355 13.389859
24.099203 35.679665 13.609432
23.424187 36.47863 11.074195
23.48575 36.620434 12.401732
23.768421 36.333996 13.124671
24.44399 37.793095 3.6124563
24.083527 37.04494 11.140736
23.667252 36.954647 11.7529125
23.88683 37.045944 12.349461
23.694513 36.75212 12.788356
24.157291 39.20545 -0.19101031
24.122877 39.034286 0.15055726
24.286114 38.804337 1.2595077
24.320122 38.97342 2.7064757
24.421047 38.395718 3.5029702
24.299002 39.93893 -1.3565304
24.151833 39.634598 -0.43607596
23.895481 39.73611 0.5206215
23.876423 39.71794 1.2621186
24.13265 39.384937 2.2668495
24.248804 39.687916 3.406617
24.428982 39.293858 3.917214
24.226555 40.42049 -1.2408286
23.976213 40.567577 -0.3082718
23.839455 40.37791 0.4302535
23.959536 40.778225 1.431863
24.061388 40.32522 2.466288
24.26534 40.465446 3.6099916
24.329708 41.31254 -1.3019092
24.170502 41.629066 -0.8341627
24.047821 41.37433 1.3273716
24.088552 41.182804 2.4226456
24.319138 41.395317 3.2231276
24.455517 42.017048 -0.3339699
24.384007 42.06388 2.2825642
24.437645 43.85652 -1.987383
24.343084 43.856438 -1.2760736
24.311764 44.46524 -1.5525749
24.301384 44.85111 -0.6959618
24.426617 45.384293 -1.9496083
24.351103 45.402145 -1.4615682
24.271671 45.71544 -0.45959738
24.238716 46.62159 -0.601946
24.312723 46.55566 0.30675292
24.35005 47.470608 -1.1996711
24.355104 47.48921 -0.5756762
24.39528 46.997936 0.39988327
24.401846 48.4054 -1.3480508
24.420595 48.206715 -0.646149
24.950087 24.299967 5.9292493
24.866983 24.24178 6.554434
24.694193 24.3288 7.361364
24.869604 24.410393 8.350516
24.883123 25.030619 5.246098
24.72889 24.609188 5.698216
24.467962 24.473362 6.4416904
24.452608 24.540363 7.5975513
24.582739 24.50263 8.310713
24.73058 24.851358 9.077338
24.722692 25.644781 5.145118
24.492762 25.228544 5.396559
24.58379 25.221203 9.38517
25.121096 25.42855 9.663977
24.744133 26.41736 5.2078114
24.289661 26.272736 5.410557
24.687654 26.684336 9.847638
24.722971 26.856194 5.385495
24.591587 27.148901 5.798727
24.384237 27.452139 6.5328693
25.22078 27.974108 11.041079
24.818853 27.810669 6.5269775
25.128366 28.793858 10.643795
24.992527 28.807318 8.102452
24.95781 28.826935 8.303799
25.216618 29.171532 9.854728
25.069405 31.815138 10.996989
24.361738 32.340446 11.05069
25.166273 32.065662 11.950235
24.624918 32.661045 10.049554
24.75954 32.512695 12.220063
25.05338 33.469833 9.443983
24.889006 33.427345 9.4870825
25.028526 33.277363 13.072222
25.000969 34.233643 9.252148
24.474617 34.511917 9.585068
24.560913 34.31644 13.514233
24.771608 34.740585 13.713741
24.912 35.610962 9.3106985
24.594889 35.49889 13.772882
25.282846 36.898697 2.104268
24.798075 36.998703 2.927375
24.773956 36.922092 3.537294
25.041485 36.764965 4.175074
25.10905 37.06828 4.7467213
24.995058 36.441494 9.790935
24.294043 36.409424 13.364877
24.56668 36.162132 13.583608
25.04653 38.022755 1.0132762
24.92377 38.15568 1.6260546
24.668337 37.22062 2.8485026
24.554302 37.337433 3.297825
24.648802 37.813824 4.2738104
24.271717 37.352276 11.860625
24.464277 37.36816 12.3026495
24.504738 36.941284 13.004167
24.840841 39.2351 -1.1532865
24.586542 38.787907 -0.14680484
24.555075 38.572643 0.6283191
24.585402 38.72014 2.049346
24.719536 38.267334 4.4928675
24.839684 37.52165 12.143656
24.88427 39.792828 -1.8848938
24.645536 39.547924 -1.3830755
24.752369 39.703835 4.421424
24.955215 38.977688 4.7553434
24.712132 40.406796 -2.026781
24.655275 40.535156 4.1891956
24.734583 41.51279 -1.8719453
24.675755 41.54268 3.7480736
24.704578 41.366055 4.165531
25.306753 41.398235 4.9437084
25.368282 42.695538 -3.3392363
24.5972 42.445972 2.5053456
24.8501 42.419697 3.479351
25.171244 42.543404 4.198135
25.169735 41.94486 4.8050365
25.413094 43.728123 -4.0184736
24.598322 43.55828 -2.1498506
24.491367 43.346714 -1.4623126
25.14189 43.456165 1.726304
25.10399 43.243244 2.5585368
25.167072 43.04273 3.4830003
25.186935 44.732574 -4.166105
24.934727 44.445908 -3.2032268
24.59949 44.53342 -2.4577298
24.889772 45.071 0.8511119
25.29127 45.27639 -4.2718573
25.091028 45.323112 -3.7459252
24.637 45.495514 -2.3050215
24.48868 45.694843 0.5323507
25.094763 45.381096 1.2329458
24.814493 46.375893 -2.4504852
24.458101 46.85388 0.4348396
25.021523 46.25 1.2001945
24.76862 48.0039 -2.0755312
24.64169 47.397026 0.45950103
24.815739 48.46764 -2.1608706
24.543695 48.66437 -0.61705625
24.800695 48.24946 0.12911254
25.003326 49.178734 -2.0626085
24.771725 49.19457 -1.4400916
24.704607 49.195576 -0.80383164
25.253181 49.40265 0.14655465
25.185467 49.73088 -1.4463444
26.457926 19.567446 19.845604
26.444725 19.654734 20.277662
25.386438 24.27501 5.890094
25.456417 24.16089 6.40994
25.465542 24.17392 7.363725
25.39178 24.298956 8.3871975
25.472248 24.87599 5.237864
25.433416 24.52517 5.5366597
25.140802 24.485306 8.713838
25.37225 24.508043 8.956604
25.79732 25.11479 9.769579
25.504602 25.568092 5.00977
25.575022 25.50552 10.165272
26.30112 25.984585 13.786859
25.580633 26.316725 5.029213
25.93843 26.566584 11.353181
26.414646 26.498623 12.0419035
26.212765 26.300688 14.623899
26.2884 26.604826 14.89543
25.420507 26.856205 5.2063518
25.916395 27.630775 12.607678
26.29961 27.326315 14.338634
26.421665 27.09156 15.244893
25.619785 27.732126 6.082107
25.401728 27.999313 6.546443
25.790781 28.292557 12.340541
25.922825 29.38749 8.070079
25.611483 29.241835 8.205975
26.261766 29.568954 12.425322
26.32115 29.61375 12.75248
25.6784 29.672821 8.951225
25.528097 32.081604 12.258882
25.2031 33.74971 9.189894
25.607141 33.770264 13.285956
25.525198 34.237694 9.153064
25.42638 34.71482 13.71151
25.859255 36.20123 3.6821752
25.67355 36.303215 4.13892
26.182476 35.22193 8.623003
25.600437 35.411278 13.694338
26.216127 36.987247 1.0229461
25.375084 36.700916 2.2058315
25.487076 36.573486 4.384182
25.689276 37.044273 5.2927885
25.250483 36.58705 9.873707
25.112926 36.206154 13.672386
25.480967 37.932045 0.66732734
25.515013 37.26403 10.523436
25.534014 37.383854 11.206852
25.383074 37.270855 12.501197
25.618174 39.153767 -1.5089619
25.949179 38.212288 5.696499
26.367989 38.57427 8.569279
25.488703 39.59438 -2.02115
25.409414 39.91309 4.910976
26.14144 39.80227 7.5991383
26.258488 39.570656 8.684831
26.285372 39.15519 9.166656
25.6508 40.88861 -2.808555
25.39095 40.17571 -2.4175963
25.506872 40.80603 5.1136155
26.205002 40.476646 6.8981757
26.046522 40.61435 7.5957847
26.172907 40.627693 8.146915
26.234049 41.875145 -4.237209
26.101458 41.438747 -3.4658568
26.183346 41.10745 7.797348
26.298862 41.06293 8.278226
26.28723 42.574554 -4.899657
26.075811 42.5189 -4.5868073
25.78865 42.003353 5.443395
25.997965 43.81805 -4.978736
25.653097 43.211773 4.2291956
26.018827 44.443314 -5.1976595
26.143505 44.4446 3.2638977
25.87772 43.755486 4.126165
25.653912 45.359245 -4.899248
25.69508 45.766735 -4.7325172
26.19675 46.358208 -4.8890257
25.715033 46.499256 -4.1567864
25.358263 46.54623 1.4245956
25.552057 46.057198 1.760632
25.55194 47.38652 1.1763029
25.474783 49.287003 -2.3257139
25.416754 49.288177 0.48852006
26.051968 49.76522 1.4241383
26.124563 49.57797 2.1055174
26.003584 50.18062 -2.0261035
25.78382 50.372387 -1.3777423
25.699902 50.401814 -0.6414242
25.838863 50.340153 0.33917075
26.228607 50.346233 1.6042148
26.278065 50.26576 2.1898437
26.17707 50.8713 -1.1562519
26.038286 50.898357 -0.52526265
26.186806 50.927326 0.049002342
26.255562 50.72708 1.093268
27.26795 17.088924 18.07349
27.182049 17.046741 18.457672
27.154022 17.589231 17.882126
26.96499 17.506618 18.476334
26.916382 17.542122 18.963959
27.373945 17.369284 20.064695
27.157364 18.372614 17.763016
26.746397 18.571573 18.65154
26.600603 18.730455 19.482742
26.68681 18.84314 20.381975
26.808907 19.35731 18.717049
26.547953 19.696861 19.466087
26.547052 19.557219 20.548243
26.83688 19.635288 21.047037
27.107399 20.083904 18.784582
26.614359 20.24918 19.86331
26.674232 20.294565 20.31018
26.972193 20.255592 21.12601
27.099657 20.796469 19.6201
26.963932 20.799269 20.550676
27.281776 21.071255 21.144526
26.009224 24.26628 6.37705
26.303476 24.243582 7.6505084
26.406267 24.385796 8.453247
27.069145 24.327496 13.500298
26.986862 24.280392 14.247813
25.926361 24.990149 5.253058
26.237272 24.808409 5.7141156
26.376696 24.453493 6.4497705
26.46187 24.492355 8.627619
26.506916 24.708178 9.092223
27.16748 24.500345 13.137035
26.600021 24.873669 13.661928
26.76933 24.690613 14.384435
26.813227 24.885485 15.332972
27.097164 24.78218 16.171337
27.296085 24.897095 17.211353
[...]
POINT_DATA 3508
SCALARS features_00 float 1
LOOKUP_TABLE default
0.65449935 0.6960723 0.68976545 0.7449249 0.75896966 0.7582027 0.7278141 0.7705761 0.7713971 0.76127577 0.75308704 0.7612585 0.7554581 0.75230694 0.7381977 0.9218153 0.8767864 0.7028942 0.6435927 0.605304 0.9181552 0.8976052 0.7828119 0.6533896 0.5988302 0.91446954 0.86636853 0.8165448 0.75158715 0.62665856 0.5850897 0.81622666 0.7316619 0.6260851 0.57488567 0.5196162 0.573401 0.5300251 0.49294305 0.6330085 0.60639966 0.5790291 0.64050156 0.64456 0.6637136 0.47868785 0.63421315 0.748302 0.63253593 0.65869224 0.74109936 0.7258061 0.73642695 0.73842967 0.731708 0.4042914 0.68407714 0.7149018 0.7143551 0.7255368 0.42486855 0.407255 0.35756642 0.32434395 0.35060745 0.45946744 0.4442715 0.41668013 0.3895278 0.3413573 0.31206393 0.3094014 0.4552458 0.43600306 0.4240679 0.36513484 0.33723667 0.3037089 0.3801627 0.3298882 0.33356494 0.31447327 0.29914767 0.264455 0.2698648 0.1925229 0.18024297 0.22134094 0.28902662 0.24825427 0.27798074 0.3606133 0.35506612 0.35589838 0.38808823 0.37209442 0.35327852 0.47356707 0.40495324 0.91660714 0.86360204 0.755723 0.64587164 0.95487165 0.9340089 0.8758246 0.7236682 0.64777374 0.6013653 0.946606 0.9498547 0.58753514 0.5713326 0.8969039 0.8937073 0.5047885 0.8478982 0.80356514 0.72098374 0.32203558 0.6852749 0.383764 0.5054728 0.49441636 0.4259029 0.54726934 0.61875355 0.43871456 0.57437706 0.4985432 0.35004294 0.38451007 0.46887425 0.3300173 0.4431718 0.61750686 0.603608 0.45119858 0.6838641 0.32484615 0.41551012 0.46836507 0.4861226 0.47678488 0.63895106 0.71437985 0.70552844 0.30648485 0.31425983 0.39437938 0.42563316 0.4308265 0.67907614 0.67810214 0.6907662 0.4341026 0.3857746 0.36206308 0.33037195 0.39057836 0.641689 0.4436356 0.4540971 0.28995 0.32195616 0.44102383 0.2856614 0.3358281 0.29154634 0.28842172 0.26163515 0.2615502 0.25232267 0.27508885 0.2837837 0.28011787 0.34163272 0.18003821 0.15569375 0.10343646 0.20758983 0.260546 0.3371234 0.25361538 0.21516035 0.3075714 0.33582896 0.2792795 0.22897479 0.36320853 0.29226744 0.23088911 0.35273612 0.33394137 0.46206743 0.34454408 0.5105271 0.4269358 0.34427887 0.53702664 0.52440816 0.47827488 0.36698735 0.52067834 0.57311213 0.55438495 0.91288924 0.8773109 0.7601671 0.65266955 0.94088537 0.92841434 0.6269097 0.6206068 0.5807897 0.94960505 0.5341381 0.41827554 0.92197454 0.16572478 0.1866881 0.35161436 0.31468004 0.8679451 0.2002883 0.25412083 0.2733154 0.7152795 0.6497636 0.16196291 0.4834902 0.48821214 0.05322875 0.020075537 0.39353004 0.31856927 0.29583305 0.36909112 0.24770117 0.47690412 0.41237998 0.42349797 0.14367542 0.52792126 0.27249035 0.34081277 0.45882356 0.41883665 0.6392005 0.6648747 0.27934834 0.6175283 0.5838243 0.5766866 0.39090562 0.37905687 0.29192218 0.39383692 0.25147402 0.25843048 0.36470687 0.39081287 0.30197746 0.38913262 0.2195564 0.19544467 0.30528992 0.36342517 0.25190642 0.21711768 0.36096662 0.4084671 0.31302378 0.29918832 0.23915961 0.3770844 0.26966643 0.40336877 0.17471936 0.24466075 0.38348278 0.3693232 0.3728018 0.29046735 0.31370115 0.25094724 0.3012643 0.5213132 0.3173399 0.304148 0.31670558 0.5016127 0.49539566 0.4598117 0.35860142 0.3375648 0.34951586 0.4913985 0.45481393 0.402911 0.33732522 0.6933 0.687094 0.7109291 0.70484364 0.6766013 0.5115422 0.7179143 0.6842161 0.61295116 0.55375266 0.63170373 0.5804934 0.5399639 0.50927824 0.58381057 0.55628717 0.54706347 0.51511014 0.5455502 0.53362656 0.5120464 0.85970736 0.71308327 0.62136805 0.56388456 0.55839676 0.9142798 0.87044024 0.82101834 0.60246474 0.57372475 0.5543643 0.51933914 0.534145 0.5013565 0.5062923 0.47725114 0.8920362 0.8619173 0.46553767 0.3712477 0.40219858 0.38567114 0.34391114 0.86510193 0.8304254 0.3413511 0.34361252 0.33267438 0.29374677 0.853226 0.78551483 0.28955248 0.28874058 0.2764616 0.55890936 0.12679827 0.17618966 0.24525896 0.4980976 0.44276214 0.043305237 0.05296299 -0.039854176 -0.05223681 0.0127700865 0.03312297 -0.14398304 0.091935456 0.22427547 0.47682035 0.4207471 0.087689206 0.25321263 0.31353223 0.32271123 0.28598475 0.26345563 -0.11838165 -0.0724349 0.31944567 0.26713508 0.27251434 -0.32321763 -0.31447423 0.5259326 0.28574944 0.29582512 0.35351878 0.332459 0.432246 0.4303736 0.47338277 0.27136278 0.2364535 0.450934 0.47671723 0.33542603 0.40839845 0.4690312 0.47446382 0.3856374 0.36226952 0.21251486 0.19722554 0.16217086 0.4252432 0.15987296 0.39707178 0.38583887 0.090281256 0.35873342 0.3405081 0.4503088 0.28259674 0.4861564 0.3774394 0.50776786 0.3601844 0.37519282 0.5118613 0.50402176 0.47707844 0.35446197 0.34170103 0.36135092 0.7310326 0.77953994 0.6181879 0.7177353 0.7716366 0.73475814 0.6702243 0.67401755 0.6517471 0.56374407 0.65764487 0.7150603 0.6879815 0.6914852 0.6954764 0.57127464 0.6209081 0.628281 0.69345975 0.7085233 0.40684903 0.6587901 0.42672986 0.5564009 0.5391545 0.3845777 0.50399303 0.50432867 0.48561773 0.4292161 0.4724475 0.43122834 0.6014925 0.559724 0.5428891 0.5284221 0.5247549 0.51024896 0.8121033 0.7371105 0.61869913 0.57195175 0.43659568 0.49664408 0.4856134 0.770341 0.72431827 0.20014256 0.27813232 0.7488737 0.6716819 0.24975301 0.13388476 0.684429 0.5524284 0.14525871 0.46773762 0.20254897 0.3742264 0.098396674 -0.11993298 -0.16395085 0.45368317 0.5068263 0.4743049 0.44889605 0.39836472 0.13795161 0.10621451 0.19084573 0.21206857 0.18780233 0.24057369 0.24793646 0.13003346 0.23469299 0.036559485 0.055223495 0.10096052 0.30389327 0.1779411 0.39760226 0.24429512 0.48237884 0.10057528 0.41449046 0.48180783 0.47268456 0.33010677 0.4570378 0.12633587 0.41645885 0.40440094 0.37225747 0.24916428 0.3443067 0.515444 0.5283497 0.525599 0.4296391 0.5557232 0.52450484 0.5101221 0.49544963 0.34225464 0.3533217 0.3489653 0.469945 0.35290205 0.5204373 0.70725524 0.76277316 0.7489634 0.62081087 0.56764495 0.40753496 0.6338263 0.7248582 0.66504437 0.6444812 0.6158646 0.65378326 0.61239713 0.6602299 0.5172651 0.6420568 0.14042228 0.61048996 0.2014109 0.07328771 0.5327536 0.20604981 0.04442738 0.45455667 0.19785446 0.43004215 0.32952744 0.42469227 0.48645902 0.44927132 0.44226983 0.5264391 0.07324611 0.47959557 0.46567696 0.5095632 0.44403926 0.32299325 0.19190376 -0.004577022 0.22440423 0.1887298 0.4251365 0.3937317 0.110469855 0.18489374 0.23980364 0.22907096 0.36872983 0.12766705 0.21759462 0.2680721 0.25357622 0.21881253 0.3397024 0.28370547 -0.09710921 0.07279249 0.20243321 0.25873965 0.27261764 0.26973653 -0.03971188 0.12376825 0.059399456 0.1598952 -0.1504016 -0.27776444 0.058085933 0.14992642 0.31126583 0.29689312 0.1650884 0.37038547 0.41033536 0.4719496 0.30779287 0.13656694 0.31035906 0.32120928 0.27578217 0.18075168 0.32019323 0.1626954 0.23916718 0.1722323 0.08738137 -0.0804797 0.22016223 0.18879387 0.20840214 -0.07440123 0.46381307 -0.1845305 0.6801739 0.0077046677 0.100561775 0.6775627 0.7069927 0.705005 0.23439166 0.24998292 0.7243167 0.23075327 0.45786908 0.4085492 0.23084442 0.2555349 0.06381157 0.44679964 0.27681944 0.068943754 0.4061318 0.42741674 0.4884275 -0.024521291 0.5232178 0.5585401 0.5277039 0.3324721 0.56182516 0.6360018 0.5061759 0.5996699 0.6457412 0.5402585 0.5177215 0.42814553 0.381073 0.5056534 0.57925045 0.6484689 0.43881613 0.41431397 0.3962659 0.4948883 0.54921246 0.37908113 0.41206765 0.58801556 0.6886524 0.6931378 0.6775404 0.46293497 0.3467191 0.6015598 0.54002917 0.48798117 0.5893197 0.5496284 0.35172498 0.56422067 0.1745375 0.55541956 0.11077943 0.44073594 0.029679783 0.4044984 0.35162362 0.08330921 0.14414892 0.3783326 0.34052035 0.30714217 0.4444228 0.50074625 -0.019567292 0.21573746 0.21156988 0.24428327 -0.04346178 -0.07388853 0.12212331 -0.04158447 0.15314972 -0.11771738 0.09081203 0.18769227 0.1304957 0.12290899 0.2766651 0.19651747 0.22873849 0.20824164 0.044685863 0.2547252 0.23801774 0.069850974 -0.06247038 0.02730959 0.084277995 0.24176967 0.08883837 0.081890926 -0.40236294 -0.051988576 0.04411763 0.0012044683 0.33071506 0.37809944 -0.56856364 0.1861288 0.2880849 0.25219333 0.18345654 0.021416403 0.30732155 0.41927773 0.24859208 0.25854704 0.24242732 0.16606665 0.11377332 0.42731163 0.4644442 0.4917739 0.5008534 0.1772046 -0.36499166 0.1386057 0.17256019 0.37254924 0.50768584 0.5521326 0.5434458 0.52217394 0.09063308 0.068030894 -0.14371139 0.52037823 0.59683037 0.5621298 0.17632595 0.16439274 0.3014405 0.08010674 0.12561448 0.38204116 0.42221895 0.023184791 0.61169624 0.20901783 7.8231096e-05 0.034597866 0.25349897 0.68690085 0.66698223 0.23582527 0.6022642 0.74206114 0.7033119 0.6822947 0.31268448 0.2814424 0.17745006 0.12876944 0.23876856 -0.11533512 0.40548518 0.6403891 0.58455527 -0.10765405 0.70742524 0.69529843 0.6469272 0.5833029 0.29109854 0.63161343 0.6358645 0.6774981 0.6587237 0.55845785 0.30507097 0.2816649 0.7212659 0.48278272 0.3968901 0.72250974 0.7665735 0.6997724 0.45419356 0.4760605 0.49767864 0.5462012 0.63558775 0.51892656 0.5738338 0.3704195 0.45071483 0.60480285 0.6105792 0.60777783 0.31495765 0.32630438 0.5331524 0.29694295 0.35007516 0.5107803 0.45055908 0.32189274 0.51076305 0.22802986 0.23629627 0.50358737 0.37560707 0.30145365 0.06609393 0.11719596 0.2522505 0.15765922 0.26202255 0.22023037 0.3710859 0.15720706 0.119399294 0.13012609 -0.16428316 0.10424946 0.111245506 0.12296225 0.11335418 0.17272109 0.12829319 0.19615664 0.2143339 0.055551507 -0.25565773 0.18217677 0.21217644 0.09050359 0.038708925 0.0768775 0.14560102 0.15397827 0.33211 0.39259562 0.34820354 0.25878152 0.43932888 0.14776437 -0.09089797 0.067061886 0.12228988 0.05105396 -0.0039457753 0.48865545 0.11291054 -0.24626178 -0.13791947 0.24157193 0.4717738 0.5170568 0.49424613 0.12683277 0.12073135 0.25581092 0.5559751 0.64034325 0.59742224 0.5004285 0.12713073 0.47616285 0.6296222 -0.024241999 0.57861644 0.23092617 0.09721127 0.63163626 0.25009948 0.24874225 -0.52651507 0.4789507 0.64068604 0.6662078 0.6421821 0.261293 -0.02882285 0.068387516 0.20795658 0.30888426 -0.04371357 0.459253 0.43906188 -0.26787928 0.565083 0.569739 0.55173343 0.761765 0.7204562 0.66056144 0.6206094 0.63670266 0.106772006 0.81276375 0.7804477 0.70051837 0.66190195 0.67075 0.6682033 0.8076799 0.67497605 0.67606014 0.629485 0.31975153 0.81998 0.14582525 0.8080029 0.2831447 0.45336455 0.74228144 0.5353405 0.6727495 0.6825148 0.70638555 0.5439124 0.57033587 0.6122364 0.6507759 0.37405157 0.44234514 0.4673351 0.48673773 0.31301987 0.34267896 0.43347335 0.26363146 0.39673954 0.46206185 0.40766305 0.30388707 0.48341888 0.44713318 0.21074498 0.45849925 0.23670822 0.42412913 0.29497296 0.22010322 0.08462937 0.2724658 0.33719835 0.13661693 0.3335898 0.18839058 -0.015539885 -0.21359754 -0.25642434 -0.2162201 0.098703966 0.33966646 0.09087627 0.04095525 0.2023676 0.1063247 0.24092174 0.06153641 0.2341891 0.2304101 0.06929755 0.22305751 0.22345425 0.17561083 0.18688095 0.14224127 0.14088517 0.37452978 -0.09252607 -0.09563462 0.33699864 0.38643116 0.37958673 0.056172885 0.05605495 0.3526186 0.49803817 0.5278816 0.4807376 0.36109895 -0.04648067 0.05910766 0.5514609 0.6040182 0.5323328 0.5437795 0.19224085 0.10852571 -0.08604618 0.5724977 0.3047667 0.2580957 -0.3428585 0.47772795 0.6232661 0.6409571 0.5683967 0.51330525 0.3794709 0.3039707 -0.1692459 0.25989234 0.3161138 0.41642934 -0.11865476 0.5020987 0.7080406 0.6524668 0.59257424 0.64748 0.6180712 0.020366222 0.056999713 0.14133173 0.8388848 0.81621486 0.7030237 0.65356547 0.6480732 0.5888972 0.060014647 0.45864028 0.13129123 0.7981437 0.4813322 0.7479537 0.77994114 0.5890043 0.7044393 0.7261646 0.6341219 0.6476978 0.67229724 0.37425342 0.40479845 0.30105942 0.35293806 0.37055472 0.37054226 0.24641663 0.18844417 0.33879074 0.34536058 0.40003693 0.3302657 0.031117104 -0.16207534 -0.2047804 0.38122088 0.47102723 0.4920826 -0.34976757 0.39527273 0.4450576 0.5067071 0.69738483 0.6675786 -0.043819293 -0.12647563 -0.07878288 -0.17565927 -0.48531684 0.4676944 0.49350476 0.060746513 -0.052860864 0.3391177 0.43085897 0.46305177 0.0071122795 0.04178416 -0.057091214 0.09007069 0.01541394 0.2322221 0.14655459 0.11605099 0.23153183 0.16723125 0.22681957 0.17924626 0.20761985 0.12300345 0.17228003 0.039274342 0.1076228 0.055395335 0.08997821 0.18743157 -0.08018728 0.2645262 0.26665065 0.23134613 0.29259586 0.23061536 0.41606092 0.3393341 -0.068349406 0.4913448 0.43174654 0.37490332 0.27343458 -0.24052268 0.31961644 0.4095136 0.4711176 0.4602595 0.74142635 0.13236815 0.7961602 -0.09041637 0.3205806 0.75175655 0.578375 0.2874785 0.43947852 0.34892675 0.094211906 0.15553416 0.055728495 0.621657 0.57079256 0.5381062 0.5535899 0.51878667 0.41771513 0.1062284 0.18781428 0.14992407 0.53157204 0.6873139 0.65464234 0.56015384 0.13935353 0.22858535 0.22955078 0.7949581 0.23925744 0.31072935 0.37902072 0.3745181 0.46545333 0.8034971 0.8308349 0.42873782 0.7744713 0.78783095 0.52269745 0.6102439 0.7173139 0.7443218 0.5988417 0.63123167 0.6571154 0.6795825 0.7027966 0.6420139 0.6629634 0.671835 0.40308607 0.3954305 0.38296208 0.36176693 0.39556468 0.38087755 0.4609836 0.3776059 0.1848156 -0.11290502 0.09694121 0.44660556 0.46847016 0.75870085 -0.024029672 0.49180636 0.5526383 0.7399174 0.75210714 0.7390989 0.66579044 0.2589573 0.26863492 0.15341851 0.55088913 0.59000766 0.7150795 0.71962166 0.6877746 0.60711056 0.046176706 0.122684754 0.118335836 0.53725207 0.54314613 0.63056195 0.65032846 0.62665343 0.04748611 0.0898531 0.47426772 0.3768496 -0.026540546 0.2107625 0.38530326 0.42780763 -0.13617347 -0.08867657 0.05700386 0.140262 0.19293681 0.15954427 0.15827821 -0.044856083 -0.060414266 0.113040425 0.12660578 -0.004874561 0.10138353 -0.034784064 0.1425182 0.3389327 -0.3162995 -0.057411097 0.17152882 0.15109524 0.4307587 0.40380627 -0.27799976 -0.01561564 -0.30620074 0.23743662 0.23197931 0.28464136 0.26123592 0.2705085 0.24851611 -0.038239405 0.2331365 0.12934545 0.3262714 0.42257518 0.52076733 0.4235097 0.09185028 0.7706289 0.6427914 0.5904249 0.84495044 0.5612471 -0.14919192 0.8606848 0.74958736 0.71819276 0.38540354 0.26101556 0.038430102 0.6436149 0.5904809 0.27724594 0.24511738 0.3199746 0.25811017 0.4201306 0.30797723 0.16983402 0.21091364 0.24980046 0.4907669 0.45493495 0.504468 0.42877162 0.44953513 0.49809194 0.55014104 0.6367066 0.59263337 0.6217101 0.65644956 0.648962 0.37352443 0.38637465 0.40275759 0.43021014 0.47650844 0.34751725 0.50190854 0.5248833 0.08108403 0.6007104 0.04415527 -0.0019502975 0.58454716 0.31139857 0.28388032 0.47895694 0.30974394 0.38249844 0.35859478 0.1751256 0.15424846 0.48108125 0.5548317 0.7499685 0.7749926 0.758806 0.6387594 0.29783747 0.36410213 0.36949253 0.18252541 0.57068855 0.63346833 0.74568397 0.76434743 0.56405884 0.45449603 0.06437171 0.23064864 -0.0016853362 0.62464666 0.67743516 0.6281631 0.60680354 0.5535519 0.48662674 0.39713216 0.475192 0.23837736 0.028870508 0.1104089 0.24769814 0.12414676 0.21189831 0.15861723 0.24316758 0.19228819 0.2174768 0.030457411 0.16922008 0.11621333 0.4528914 -0.032376714 -0.11886598 0.13647312 0.55556214 0.51936275 0.41593724 0.23201296 -0.10227883 -0.11970717 0.15391342 0.55582464 -0.385597 -0.37205744 -0.3624611 0.25945348 0.60041463 0.60484886 -0.1833928 -0.35619843 -0.37489945 -0.1302949 0.24371421 0.24045837 -0.0036728084 0.1035724 0.114306755 0.40951505 0.51069915 0.5130894 0.53809875 0.5750653 0.18964112 0.11437519 0.1768436 0.17254466 0.17173205 0.524217 0.5709574 0.58942926 0.5842637 0.83952 0.7703533 0.71054435 -0.28150254 0.09347293 0.5977088 0.6044401 0.6007453 0.8696456 0.17812328 -0.073822916 0.86987877 0.020543061 0.7766063 0.74531347 0.46526515 0.3382143 0.11100887 0.7147108 0.6242413 0.51942647 0.44210953 0.4048759 0.30386233 0.23202695 0.18242885 0.4561779 0.47323337 0.26993304 0.26872724 0.3449713 0.35234934 0.21801722 0.33083242 0.36872554 0.41227677 0.49300724 0.51472104 0.53443503 0.5555975 0.22966391 0.5822501 0.1433772 0.5591246 0.2230179 0.24156559 0.2518484 0.5663202 0.26859736 0.67180145 0.6514307 0.5887119 0.37805715 0.37257016 0.36189812 0.3153143 0.46442357 0.53479934 0.61081207 0.6898185 0.7181753 0.55960083 0.12309836 0.3139027 0.63683444 0.6598052 0.6408762 0.10666704 0.051175877 0.6708087 0.52366686 0.56237775 0.63242483 0.45948207 0.4916399 0.59324026 0.62330043 0.4046627 0.56576496 -0.07671864 0.35909408 0.11968731 0.34598586 0.1539928 0.28836036 0.11260697 0.26473492 0.22248107 -0.19131792 0.12539706 0.53567004 0.49281496 0.3855806 0.027442137 0.110461846 0.5981011 0.56517947 0.21577713 0.6160307 0.6114399 0.22668938 0.6221746 -0.25283068 0.20194799 0.0037455177 -0.096894994 0.05039072 0.18615846 0.039220206 0.3141626 0.5491228 -0.2647684 0.19365403 0.4573207 0.5490232 0.5834854 0.5634156 0.8242067 0.80281734 -0.0058971457 -0.024497388 0.19699703 0.25402063 0.22828388 0.57609963 0.6215055 0.6112062 0.59660864 0.8656979 0.8440335 0.8175702 0.73628944 0.07110168 -0.0862778 0.8232232 0.7965373 0.55043817 0.0759691 0.7724331 0.7527051 0.7185697 0.6359718 0.57377803 0.4779672 0.28606626 0.20276505 0.19609396 0.72191846 0.668495 0.5210812 0.49868482 0.26251104 0.26201534 0.5437929 0.5327231 0.32109746 0.3115155 0.38610086 0.5956981 0.5468729 0.46743992 0.34055063 0.3873247 0.47396308 0.48290443 0.5238765 0.54152286 0.29598233 0.3462723 0.5190872 0.54172695 0.53430927 0.20850313 0.18209822 0.18295592 0.45934653 0.19870785 0.6264709 0.59894353 0.5569042 0.26698893 0.30800903 0.28367177 -0.08024213 0.56764275 0.60903454 0.5875006 0.614428 0.47301495 0.1972549 0.035679024 0.14687583 0.18408561 -0.11210917 0.63806653 0.66926485 0.49543202 0.6872903 0.6788691 0.4124058 0.49852073 0.67495996 0.65586776 0.3321424 0.63295555 0.6372434 0.5910397 0.12542999 0.48591647 0.3867222 -0.09594166 0.40857685 0.11105396 0.372236 0.40422362 0.09267141 0.35336623 0.31459203 -0.04000938 0.5610177 0.5255861 0.22954477 0.6153587 0.6005472 0.17259705 0.6103905 0.60640013 0.19308697 0.60569435 -0.45350304 0.17578137 0.5720776 -0.10106237 0.22485209 0.41996008 -0.13722876 -0.064550824 0.035185903 0.39882088 0.36232322 -0.31699806 0.17101151 0.38645512 0.52838874 0.18037497 0.2550874 -0.115612894 -0.4310215 0.20283847 0.2123375 0.57143587 0.61186296 0.5877558 0.5654001 0.52839637 0.8044242 0.29817706 0.33209586 0.007951256 0.5689546 0.5759759 0.79558253 0.7727894 0.4412341 0.18302561 0.12035018 0.74815905 0.73541665 0.32204407 0.52430284 0.54563105 0.5606686 0.56051385 0.53832287 0.31743586 0.33680704 0.36713028 0.5544952 0.5556982 0.5485971 0.4237985 0.4273163 0.43712947 0.46053755 0.5382645 0.6767618 0.65568274 0.5548617 0.4920043 0.5036042 0.33196306 0.4618677 0.49861598 0.3377806 0.38090512 0.44930705 0.44196272 0.48305222 0.50026006 0.21805286 0.23208115 0.48372644 0.19865903 0.12273526 0.091184765 0.43490642 0.13986874 0.2653788 0.5632837 0.5247066 0.20362507 0.21193613 -0.109595954 0.43494016 0.5563292 0.3203922 -0.07203637 0.09349125 0.101624236 -0.097206876 0.09082882 0.54815346 0.64142877 0.4237342 -0.20650768 -0.14404868 0.62478805 0.6837474 0.3127265 0.67738736 0.17657082 0.6593789 0.25756204 0.61574936 0.31885254 0.17598838 0.2092415 0.17895445 0.3582712 0.20126805 0.065226406 0.41641372 0.43213648 0.05221253 0.40470845 0.007365711 -0.06386268 0.26206648 0.02567023 0.07306372 0.55982333 0.42884517 0.029749475 -0.09162464 0.60598254 0.6142667 -0.082591034 0.5974293 0.5955345 0.078514814 0.5767528 0.5581759 0.5314408 -0.33942583 0.4273025 -0.0897318 -0.098977394 -0.25796238 -0.34619832 0.078543976 0.34931365 0.34476864 0.2631232 0.255691 0.45985287 0.25348207 0.44463256 0.45159736 0.45367694 0.38259608 0.4640882 -0.13395998 0.45487428 0.48207211 0.41925442 0.47191685 0.49659455 0.13889852 0.2534266 0.4875722 0.53496337 0.5554996 0.530171 0.25503337 0.4178868 0.5473568 0.555894 0.55609703 0.39328146 0.4531353 0.49083155 0.44966835 0.48151422 0.5507653 0.5385182 0.57254434 0.6769426 0.6343846 0.5876343 0.52464163 0.5925772 0.59268457 0.57243574 0.3749495 0.48879 0.49151015 0.27718487 0.4170515 0.45229486 0.20847884 0.2779526 0.33924967 0.41459203 0.4463942 0.46362165 0.29391974 0.3085642 0.21302259 0.42182308 0.44823572 0.11177366 0.28939813 0.37804908 0.11286023 0.023314245 0.31269324 0.29192805 -0.07214035 -0