# vtk DataFile Version 2.0
Really cool data
ASCII
DATASET POLYDATA
POINTS 3560 float
33.365166 46.082268 -3.196449
33.339108 45.966354 -2.9894447
33.298103 46.51002 -3.3362274
33.219257 46.51504 -2.5772486
33.383667 46.80186 -1.6237223
33.200027 47.672382 -3.2319632
33.02635 47.41908 -2.675414
33.00942 47.498695 -1.858291
33.28847 47.590935 -0.56522346
33.351467 47.898422 0.417545
33.153843 48.24115 -3.1525335
32.93163 48.401855 -2.3625515
32.95238 48.348835 -1.5124934
33.086304 48.089798 -0.82683146
33.266003 48.44991 0.5301083
33.376797 48.635193 1.1203071
33.26026 49.18438 -3.0466347
33.093254 49.165024 -2.3641691
33.050323 49.119793 -1.7774587
33.431564 49.1846 -0.867493
33.322495 49.06243 0.16825025
34.01786 45.117428 -3.2072554
33.975624 45.61565 -4.008884
33.638245 45.528126 -3.1089957
33.63082 45.573147 -2.6285512
33.975006 45.777813 -1.764293
33.734325 46.428493 -4.0722036
33.427536 46.67041 -1.5512185
33.76552 47.0733 -0.098899364
33.86135 47.27613 0.56396425
33.9242 47.30988 0.92985886
33.446438 47.671776 0.56095165
33.71127 47.699547 1.1247876
33.797733 48.6855 -4.13125
33.423256 48.331566 -3.6433513
33.597683 48.50782 1.4530488
33.866463 48.91825 1.9469786
34.072598 49.456795 -4.127789
33.597786 49.446316 -3.4790072
33.481735 49.674023 -2.780611
33.382725 49.58068 -1.6782299
33.703636 49.8713 0.93700796
33.613045 49.083344 1.1434247
34.04962 49.96342 2.6883538
34.29849 49.724464 3.2107887
33.978912 49.990234 -3.3226671
33.684135 49.871414 -2.6088457
33.7491 49.95611 -1.7296534
34.31615 50.493355 -0.23005418
33.65859 50.165436 0.7559426
33.764107 50.776405 1.3558768
33.851448 50.56253 2.2219224
34.31424 50.912037 3.4024808
34.143852 51.273926 0.8729439
33.934193 51.21974 1.5067261
34.03818 51.243057 2.3151631
34.17972 51.243355 2.9458106
34.310474 51.72177 1.4970839
34.42099 51.98265 2.8309639
35.100475 44.07925 -3.141024
34.98771 44.035213 -2.3699715
35.16933 44.08119 -1.72362
34.46703 44.826065 -3.3171968
34.69688 44.326645 -2.149893
34.664997 44.491962 -1.9489707
35.090767 45.095627 -1.1045928
34.438293 45.39096 -1.410535
35.08821 45.408203 -0.7508297
34.320267 46.32162 -4.515683
34.23591 46.97262 0.76741
34.343304 47.237957 1.1737057
34.6189 47.474285 1.6239753
34.596695 47.789547 2.0281339
35.204536 48.24152 3.3668106
34.361565 48.081974 -4.425004
35.127434 48.442875 3.7450519
34.933094 48.9548 4.3541145
35.234554 48.935966 4.7443724
35.06473 49.501335 -4.6909122
34.460228 49.53473 -4.3713627
34.757122 49.56452 4.314088
35.179214 49.436573 4.923808
34.878494 50.08777 -4.137089
34.626762 50.29246 -3.4410326
34.554455 50.73537 3.557087
34.752884 50.4336 4.3569565
35.313362 50.010174 5.084328
34.874622 51.470573 0.0019206405
34.546696 51.577015 3.4320152
34.891556 51.302353 4.2358947
35.23899 51.087936 4.799842
34.863266 51.993404 0.6986085
34.73962 52.125652 1.372921
34.633396 52.215595 2.6188943
34.87563 52.33791 3.4678006
35.101543 52.23334 3.9763887
35.11702 52.612904 2.086956
35.147343 52.73143 2.7588863
35.175777 52.736454 3.2700121
36.119144 43.325478 -3.2884834
35.73499 43.44579 -2.397457
36.19549 44.119263 -4.99887
36.23182 43.55745 -4.3301477
35.658234 43.619095 -3.250818
35.468998 43.63333 -2.623355
35.511112 43.90924 -1.5874074
36.31806 44.74516 -6.5105596
35.867413 44.643555 -5.275019
35.574726 44.646248 -0.9377109
36.175587 46.07476 -6.797537
36.181747 45.202232 -6.649495
35.191532 46.337208 0.05278334
36.32968 46.847668 -7.7025604
36.24837 46.42954 -7.539597
35.849182 46.294327 -6.5278015
35.693386 47.26743 1.695471
36.057693 47.529934 -7.37817
35.839344 47.43412 -5.945166
35.601593 48.3042 4.124815
36.1071 48.216633 -7.1875057
35.724804 48.566658 4.6552944
35.594955 48.843452 4.874187
36.423977 48.92503 -7.083248
35.64305 49.557854 5.2794795
36.01673 49.752262 5.5616865
35.598236 49.728313 -4.2749653
35.710037 50.422703 5.336123
36.173573 50.414837 5.6593814
35.704582 50.86326 -1.337575
35.354847 51.5664 4.6230903
35.67013 51.197407 5.084415
35.530422 52.03568 0.07781115
35.4855 52.399548 0.80587107
35.5329 52.421368 4.130947
35.965878 51.72221 4.9604907
35.756348 52.721832 1.5874455
35.579166 52.93531 2.712849
35.595158 52.857452 3.4223402
35.922302 52.76788 3.8914046
36.954727 42.98658 -4.643116
36.817818 42.85456 -3.2714646
36.734818 43.09999 -2.5874565
36.94545 44.156223 -6.6167827
36.470074 43.948193 -5.6397724
36.35709 43.469284 -4.4196987
36.806778 43.71476 -1.1067554
36.78168 44.82557 -7.1585455
36.45588 44.475533 -6.5309486
36.381298 44.450893 -0.5537263
36.816715 45.745777 -7.706332
36.778767 46.46381 -7.9728565
36.65367 47.22418 -8.052207
36.333805 47.771107 2.753113
36.05944 48.097916 3.7465184
36.545788 48.589443 4.6459227
36.25156 48.8603 5.0458465
36.831573 49.56421 -8.121686
36.537395 49.8061 -7.630899
36.715416 49.87457 5.706506
37.05248 50.36779 -8.139404
36.723118 50.30738 -7.5719557
36.489502 49.900116 -6.4005256
36.094753 50.50053 -2.1428506
36.611042 50.49264 5.8026476
37.18838 50.74639 -7.9574127
36.9635 50.763058 -7.4255304
36.006783 50.875732 -1.7848068
36.2749 51.442875 -0.39790046
36.335636 51.47521 5.3197556
36.64164 51.050396 5.65355
36.032955 51.690163 -0.29438344
36.480804 52.30243 0.66066456
36.452255 52.261986 4.5406446
36.52472 51.894875 4.952067
36.503674 52.749435 1.7299429
36.462307 52.96467 2.5063066
36.30848 52.967514 3.3541641
37.398308 43.17308 -5.320082
38.011856 42.86953 -1.2992765
37.915035 42.918198 -0.69086444
38.1344 43.971592 -7.2345095
37.64494 43.703857 -6.4031806
37.266796 44.692337 -7.394362
37.86165 44.187508 0.7235154
37.904266 44.70275 0.8820105
37.799423 45.9654 -8.177414
37.571167 46.537064 -8.330986
37.84546 47.085995 -8.51232
37.35535 47.340137 -8.355007
37.124783 48.466892 3.2402558
37.60295 49.666016 -8.580507
37.34284 49.75162 -8.472034
37.291245 49.522278 5.3770194
37.17943 49.935688 5.8120213
37.54051 50.410778 -8.411016
37.32581 50.574093 5.84923
37.49906 50.810715 -8.067915
37.590828 51.06701 -7.464959
37.645416 51.08681 -6.8869605
37.865074 50.926598 -6.191684
37.59382 51.234608 5.4993296
37.3051 51.092136 5.716131
36.999386 51.74896 0.021941915
37.72154 51.898464 1.0536505
37.23716 52.42658 1.6455408
37.59774 52.52161 2.4020557
37.63405 52.441284 3.340538
37.20244 52.063778 4.6251063
37.036827 51.96949 4.8706164
37.153656 52.81164 2.591044
37.110497 52.842724 3.1817815
39.183067 40.70064 -3.4683502
38.681896 41.21855 -2.256905
38.90432 40.953705 -1.2870487
39.086933 40.827797 -0.56544477
39.255493 40.659832 0.22361216
38.99777 42.080532 -5.0687118
38.51768 41.87347 -1.0543474
38.85808 41.39337 -0.25600392
39.030266 41.687576 1.1300496
39.11273 43.339775 -6.9482183
38.95772 42.934635 -6.2275753
38.198303 42.953056 -5.502051
38.461037 42.386967 -0.73515517
38.63409 42.234184 0.8582757
39.01394 42.30318 1.780422
38.64657 43.791645 -7.182733
38.800106 43.275654 1.7921087
38.613182 45.14835 -7.964431
38.989243 44.389725 2.320149
38.789883 45.061474 2.138665
38.498993 46.6711 -8.394442
39.112106 46.49125 2.2588875
38.244663 47.798733 2.0813377
38.728786 48.65729 -8.396027
38.183964 49.16307 -8.654066
38.234436 49.72989 3.4387987
37.84189 50.035255 5.5245643
38.187283 50.538208 -8.427951
38.44713 49.59095 -3.808646
38.343742 50.400837 -1.8008642
38.337067 50.57685 3.0352626
38.263912 50.693123 4.7621984
37.914562 50.777367 5.5655518
38.516655 51.25712 -7.5863767
38.572853 51.270668 -6.7041373
38.366272 50.98937 -6.050316
38.91118 50.63692 -1.6142198
38.382423 51.13344 -0.43954217
38.34881 51.2903 3.3151789
38.19468 51.19396 4.6909347
38.04272 52.04215 2.270756
38.240986 51.885063 2.9981034
39.91303 40.134117 -4.221144
39.779663 39.88689 -3.2375696
39.840828 39.754005 -2.566117
39.973995 39.60506 -1.6049916
39.949974 39.757378 -0.7027526
40.01132 39.858227 0.3025389
40.109142 40.94854 -5.156149
39.61349 40.534073 -4.3157487
39.43167 40.72342 0.3508377
39.523643 40.874058 1.1064256
39.916153 41.950924 -5.3096895
39.75885 41.52937 2.2474134
39.281937 43.2681 -6.9870954
39.56632 42.890415 -6.4013405
39.468555 42.630833 -5.6706653
39.51062 42.130096 2.3477688
39.830475 42.24538 2.7030222
39.422237 43.512787 -7.2097015
39.721798 43.260937 2.5423656
39.649616 45.034233 -7.7997565
39.81255 45.34529 -7.834574
39.690575 46.383022 -7.9114184
39.432125 46.66118 2.4632366
39.908043 47.156116 6.7872705
39.821663 46.981003 7.6619706
40.065823 46.86045 8.119696
39.85848 47.467743 -7.892371
39.38821 47.892265 2.3153307
39.751907 47.643097 6.769827
39.55569 47.516438 7.487132
39.893967 47.43133 8.284214
40.200424 47.649826 8.616425
39.01106 48.84358 2.1451902
39.598175 48.545895 6.701471
39.582726 48.54911 7.625708
39.819813 48.27159 8.143961
40.19938 47.940437 8.697935
39.69155 49.11847 1.7228075
39.695477 48.96077 7.430949
39.983486 48.87439 8.161026
39.334797 50.32009 -4.9800196
39.58636 49.838863 -3.1944892
39.344223 50.860016 -8.087351
39.563274 51.421013 -7.2060256
39.778545 51.376354 -6.6279283
39.29918 50.944897 -5.851106
38.696125 51.05118 0.98977274
40.65927 39.32576 -3.3583462
40.585342 39.08498 -2.2855961
40.692097 39.180687 -1.5723042
40.416847 39.418743 -0.32601362
40.64433 39.399483 0.2804621
41.043118 39.325542 0.9810731
40.488617 40.26249 -4.7823553
40.49593 40.041298 -4.3905487
40.45139 39.549038 -3.482297
40.741604 39.488155 0.6599857
40.585495 39.939068 1.3042078
40.613472 40.670586 -5.1202545
40.339382 40.40603 1.5923765
40.945904 40.937843 2.7035446
41.168667 41.084057 3.3258126
41.14317 41.099014 4.269561
41.383068 41.14155 5.565023
40.93912 41.399868 4.475451
41.02279 41.877464 5.6911197
41.19382 42.08431 6.221941
40.420807 42.94697 -6.302201
40.49449 42.416904 3.3318639
40.78566 42.04767 4.4922757
41.06244 42.26166 5.8116093
41.139126 42.380085 6.144907
40.195217 43.520588 -7.108653
40.582157 43.743084 3.0825446
41.082916 43.087376 5.56583
41.273636 43.088894 6.353124
39.966785 44.890224 -7.7940664
40.61447 46.221405 7.504892
40.960743 46.208702 8.123374
40.70274 46.209415 -7.8691263
40.861652 46.568176 3.152638
40.545605 46.521683 6.6856623
40.389473 46.81741 8.383547
40.77566 47.00181 8.713301
[...]
POINT_DATA 3560
SCALARS features_00 float 1
LOOKUP_TABLE default
0.45479947 0.44737554 0.46325907 0.45023122 0.3879702 0.507314 0.4853205 0.45646337 0.39902145 0.42190573 0.5208347 0.5037066 0.47495383 0.43440902 0.4250685 0.4418239 0.507743 0.48875588 0.4715371 0.42545307 0.40392005 0.42041525 0.44484442 0.43674797 0.41906822 0.36396754 0.47092694 0.37151897 0.34144944 0.38094282 0.38870102 0.41863275 0.42756772 0.5305846 0.5269873 0.4538151 0.43423933 0.5343455 0.5187904 0.4926238 0.44755965 0.40952915 0.42838925 0.42110878 0.4745837 0.5039383 0.47472504 0.41450122 0.39638844 0.410677 0.45365345 0.44590962 0.5204149 0.48597306 0.4883207 0.5014557 0.51729786 0.5322336 0.56754464 0.32969534 0.367877 0.3499074 0.38341385 0.38327104 0.38266808 0.30479774 0.33627227 0.24945818 0.4247486 0.32809263 0.35063645 0.35462126 0.381911 0.44081795 0.47068757 0.50917023 0.6039186 0.6273018 0.4784934 0.53056633 0.6233028 0.6571207 0.50159657 0.49506485 0.5328282 0.6095912 0.6710248 0.46869922 0.5637316 0.6007268 0.6437882 0.53958845 0.56824684 0.58685577 0.6187933 0.63274515 0.62396276 0.6437508 0.6508858 0.285844 0.3160568 0.25581527 0.26330084 0.29932833 0.33148018 0.3300407 0.3262654 0.24758336 0.28748658 0.38456607 0.34680718 0.20285563 0.4242334 0.41451597 0.3605923 0.23407358 0.4146756 0.30227524 0.53639567 0.427514 0.5910364 0.6286651 0.4991843 0.68058634 0.6969831 0.4493516 0.6870483 0.7116705 0.22009718 0.64182514 0.6727646 0.46288556 0.55492866 0.6613652 0.67692447 0.62728286 0.6738064 0.6808332 0.6947905 0.24807987 0.25495523 0.2598297 0.3180819 0.27273571 0.26179305 0.20757093 0.36321077 0.32007957 0.207551 0.4078796 0.41915423 0.4294194 0.35192588 0.4792971 0.58570516 0.63949054 0.59947383 0.60169995 0.72179717 0.65007204 0.63211375 0.52642715 0.13787012 0.7339184 0.6569121 0.64773357 0.13299006 0.2948245 0.7062079 0.73472404 0.358677 0.48970476 0.68893766 0.69542307 0.6126436 0.6793917 0.71949136 0.252347 0.045779966 0.04975378 0.35873064 0.29539368 0.38333 0.15003356 0.17985654 0.39043638 0.39015087 0.36727417 0.40450498 0.42082 0.61752987 0.6244271 0.72087514 0.7423928 0.653885 0.77448195 0.6606991 0.65216786 0.6209631 0.52736783 0.7892481 0.77545345 0.32595974 0.4211148 0.53636456 0.5798015 0.6900196 0.73899436 0.7232061 0.63620114 0.6981106 0.43210354 0.22384489 0.21685013 0.24416126 0.27906615 0.16179672 0.123381615 0.20255817 0.25992638 0.27288845 0.20442253 0.20254825 0.10881482 0.21964945 0.22601062 0.34163016 0.20377496 0.37581694 0.17213488 0.15992221 0.31195313 -0.11303282 0.018859647 0.3869881 0.5315691 0.58994055 0.78091335 0.6610986 -0.13136016 0.038533635 0.61345273 0.80366975 0.80311334 0.60481995 0.5017217 0.43422997 0.017021634 0.21984364 0.65666676 0.80474794 0.52301294 0.5880083 0.45243287 0.45829827 0.4401995 0.3796354 0.32098168 0.2901164 0.37512165 0.42558146 0.28329918 0.28536564 0.22718145 0.20673065 0.2684819 0.20838553 0.16985962 0.19298218 0.15451792 0.3138038 0.14644329 0.32672435 0.27083987 0.20228885 -0.12476687 0.68845755 0.69808924 0.66534626 0.13824388 0.00226745 0.7305839 0.73473173 0.6777059 0.6447315 -0.011536062 0.72212327 0.7069578 0.68027633 0.63509744 -0.048837423 0.6677532 0.61226475 0.052058067 -0.078784145 0.52557886 0.40942726 0.35210508 0.31229877 0.3368967 0.45058152 0.43411225 0.3815142 0.29572296 0.26931933 0.2349264 0.44019103 0.4525205 0.4576142 0.2519893 0.21991344 0.4147969 0.22225973 0.08696461 0.0930677 0.2145878 0.33061165 0.23927176 0.35152802 0.39460737 0.21023412 0.09698564 0.22992069 0.36718678 0.3931958 0.31618845 0.051554594 0.33093184 0.4094712 0.32966483 0.63232577 0.5987767 0.16554916 -0.14626351 0.57227683 0.6347354 0.5863613 0.12940493 0.61610824 0.21112679 0.598451 0.53055227 0.16462082 -0.113262415 -0.011350146 -0.026168242 0.4871708 0.3125863 0.40505058 0.3978973 0.33466077 0.29160094 0.24672383 0.43715417 0.43642533 0.44030872 0.19775203 0.17825858 0.40741616 0.40698683 0.24491076 0.31796265 0.3878588 0.32597432 0.39442977 0.4071002 0.41185346 0.41323674 0.3202318 0.40486017 0.2611785 -0.08523941 0.25360915 -0.2104989 -0.04095407 0.48992294 0.47819746 0.39741898 0.49680227 0.24090296 0.4712844 0.46025664 0.4947664 0.64842755 -0.0383042 -0.30383053 -0.15722655 0.14711869 0.30274987 0.29951167 0.80721927 0.7572429 0.09987734 0.39737684 0.34831476 0.44306234 0.47837806 0.3912994 0.38063818 0.45312765 0.33178583 0.5076181 0.4633892 0.52564204 0.7556509 0.6796844 0.51918715 0.43513608 0.7995366 0.83788383 0.74456173 0.8003805 0.7938659 0.63775605 0.7137083 0.7123068 0.46650338 0.47281194 0.38438687 0.63611424 0.2553447 0.32052338 0.16517358 0.37073904 0.32009637 0.016555436 0.29022026 0.32931057 0.31433403 0.37606543 0.35455105 0.37823337 -0.005510222 0.3573976 0.14613618 0.007116474 0.14818515 0.19873485 0.19427364 0.2210914 0.22404037 0.23919937 0.22138438 0.34541625 0.29567277 0.3330002 0.570643 0.41097945 0.7223679 0.024654038 -0.27296972 -0.16666088 0.265369 0.27964124 0.33121756 0.81436867 0.324222 0.81084967 0.77882755 0.472865 0.4766999 0.5684657 0.5260333 0.5250666 0.29507926 0.5320306 0.8028133 0.75766504 0.65237814 0.5487175 0.5581192 0.63912386 0.6080097 0.6481903 0.6250307 0.57911617 0.7189829 0.7671609 0.80737424 0.6957239 0.7704712 0.8366692 0.82411957 0.59095144 0.6309401 0.80766976 0.5588629 0.59297824 0.616523 0.64940405 0.71118355 0.69982594 0.3741889 0.45542902 0.46152574 0.50464934 0.5010061 0.57226825 0.611187 0.2297039 0.29745978 0.1997236 0.17775735 0.3772828 0.3225647 0.22212663 -0.0064725876 0.123259656 0.29778558 0.25335985 -0.0069555705 0.29610872 0.71549034 -0.03346433 -0.03128003 0.69462526 0.049310006 0.21930328 0.17514645 -0.14329258 -0.06972184 0.23018393 0.24420358 0.016578844 0.117431164 0.27406865 0.071842514 0.39735156 0.3069332 0.18823689 0.5000408 0.74051905 -0.0074947327 0.124394216 0.23792446 0.8142009 0.38272268 0.26524937 0.42612043 0.8271151 0.83191514 0.45715633 0.50413597 0.25398684 0.51924086 0.48603007 0.8216142 0.82772136 0.8212925 0.79083276 0.5726987 0.61270225 0.6088469 0.5909027 0.31733805 0.44773453 0.596487 0.5676557 0.5947033 0.513242 0.5728122 0.6182435 0.6039438 0.6684964 0.7344215 0.769652 0.7753221 0.5592811 0.62423503 0.78700244 0.7618655 0.49884754 0.75530696 0.44841123 0.6208714 0.68895304 0.4091489 0.3953032 0.36766803 0.4953323 0.24842718 0.31500614 0.008326575 0.39936307 0.24812302 -0.050410926 0.25132453 0.70590234 0.73106337 0.1411045 0.19944501 0.062493365 0.5771487 0.66944534 0.71333814 0.75194395 0.7552007 -0.4485065 0.51266205 0.6235671 0.69003785 0.7374776 0.73945427 -0.0075187273 0.012891499 -0.29582563 0.55692333 0.6602421 0.7004164 0.044474464 -0.29586723 0.21790291 0.18908322 -0.13644807 0.2848066 0.2092194 0.4101255 0.38200912 0.33770254 -0.016081225 0.616766 0.5735164 0.07372064 0.7282254 0.6624229 0.10881671 0.2197459 0.7784929 0.7781515 0.63517934 0.25951874 0.24353628 0.36355293 0.82559705 0.8266337 0.832423 0.8321401 0.7418151 0.23350663 0.49343336 0.20500743 0.18174574 0.48771647 0.4868706 0.83684194 0.8468473 0.85124946 0.476363 0.5229897 0.5672097 0.5704297 0.5593842 0.19339955 0.27686387 0.5706479 0.5623852 0.5673172 0.52152044 0.53450525 0.5734016 0.61378175 0.5305709 0.54710495 0.5719336 0.6404777 0.6758214 0.6306702 0.6627988 0.5041221 0.7020492 0.6434734 0.47896743 0.67434305 0.13686594 0.24649602 0.22320738 -0.013034627 0.3790577 0.2529999 0.24597648 0.2086551 0.6094003 0.6435839 0.2603643 0.57947326 0.6565915 0.66409016 0.6416248 0.22959906 0.71184826 0.104770854 0.6928524 0.037510004 -0.061878324 0.5800247 0.59536254 -0.012859216 0.32541987 0.006803637 -0.017322842 -0.22953685 -0.24934842 0.15457231 0.39250985 -0.20097634 -0.021368671 0.53400624 0.46646065 0.7084223 0.6633177 0.5566876 0.12919363 0.20074926 0.76362157 0.75686157 0.725008 0.67084754 0.18823692 0.22386363 0.37333116 0.24440609 0.05071354 0.39625043 0.79612863 0.7979216 0.35876995 0.468468 0.13655588 0.095707916 0.49371743 0.4501384 0.4857742 0.5286181 0.5475294 0.54059345 0.27385074 0.3788665 0.57178783 0.44091043 0.4703147 0.62278646 0.6346767 0.4807775 0.5306665 0.5860487 0.5447879 0.6192194 0.59687155 0.5300947 0.5700798 0.36589444 0.4823811 0.24229598 0.21472605 0.40101475 0.38723773 0.24604043 0.2037074 0.3005414 0.30764568 0.20316854 0.4908055 0.23098373 0.56740797 0.5427749 0.22617084 0.59724045 0.14754558 0.60022426 0.09126155 0.47887433 -0.010825049 0.3630151 0.3970883 0.37321907 -0.08018982 0.09928942 0.12692992 0.18980348 0.14075077 -0.035976235 0.020863682 -0.039993733 -0.027313225 0.051849782 0.32295227 -0.07855743 0.09534747 -0.03086419 0.21097156 0.07906709 -0.05447332 0.3589985 0.3763532 0.4597551 0.12317899 0.42771024 0.4394325 0.51392317 0.5348848 0.5082482 0.5030043 0.22588676 0.48464203 0.40282637 0.43108177 0.61814415 0.43713942 0.480362 0.55924356 0.5477641 0.56125975 0.47378176 0.37660393 0.23817553 0.3284747 0.40865624 0.1664589 0.16463599 0.45696938 0.45892984 0.4186356 0.34510887 0.38165784 -0.13926992 0.23055655 -0.22321384 0.3532269 0.4522197 0.42323577 0.5090301 0.062432453 0.5460064 0.16466011 0.5598259 0.57306916 -0.068551265 0.09281042 0.07170578 0.53387594 0.57350975 0.59953004 0.6047933 0.17130093 0.5585344 0.600412 0.6288579 0.62195444 0.60523784 0.64735126 0.20792569 0.6054039 0.63528746 0.6200537 -0.4325807 -0.15684816 -0.25406665 0.12906647 0.22215483 0.08600072 0.36698362 0.32688475 0.24022123 0.38336024 0.44770926 0.35103327 0.4404378 0.4918962 0.51263446 0.48896316 0.4739071 0.25371924 0.32010183 0.43202505 0.3699873 0.5506345 0.39844877 0.44341618 0.5506975 0.13246 0.12150362 0.20077935 -0.10577756 0.045646526 0.4515288 0.4610614 0.4117555 0.5847709 0.6037227 0.35149795 0.3997953 -0.16131102 0.5752629 0.60542214 0.577495 -0.15468147 0.5907768 0.61657816 0.58806944 0.27965507 0.5037246 0.5302584 0.5947299 0.5253732 0.22592613 0.42116833 0.50028414 0.054725036 0.00067652017 0.12899557 0.43496788 -0.021728553 0.028431721 0.45405 0.49139094 0.49063623 0.5094469 0.53820366 0.104668915 0.4889357 0.59067404 0.57882005 0.5914761 0.14389783 0.5276166 0.5686212 0.6749115 -0.18811303 0.15018886 0.5521316 0.5809401 0.5197218 0.6466406 -0.2296977 -0.1488714 -0.13601722 0.15454452 0.5203304 0.59558785 0.123805046 0.43666962 0.13652559 0.3131317 0.32008237 0.42920202 0.37340727 0.14935215 0.22981946 0.4334666 0.44432697 0.47554052 0.27745366 0.34075996 0.3368284 0.35482168 0.49022096 0.37308952 0.37516326 0.45072195 0.5314388 0.5103519 0.46783164 0.44656718 0.3727154 0.31883174 0.29547217 0.29693717 0.231738 0.23628494 0.18471074 0.056864977 -0.0015397817 -0.09534554 -0.06941387 -0.103952274 0.5297581 0.5722283 0.5982485 0.4251959 0.42771024 0.3813788 0.27336487 0.16971834 -0.05694142 0.51575166 0.58300745 0.6086464 0.5952939 0.37845564 0.35850272 -0.06594824 0.13740525 0.16870087 0.22119747 0.4308429 0.59469604 0.5344795 0.32133716 0.081853785 0.05673474 -0.019994646 0.406304 0.47008997 0.29926038 -0.029544614 -0.048262678 0.26998723 0.43420193 0.35775182 0.22936228 -0.04078865 0.29845768 0.25134164 0.22745052 0.14280534 0.25186536 0.36803383 0.24007758 0.03233227 0.29623425 -0.023926135 0.29965892 0.53739035 0.52831554 0.40656835 0.056222767 0.39977998 0.45794624 0.43276793 0.6125005 0.12513068 0.37784183 0.47914404 0.4079794 0.6817483 -0.018086188 0.289728 0.36141258 0.4545102 0.41076076 0.6988801 -0.14356123 -0.117070176 0.053773932 -0.059615895 0.20646599 0.2893688 0.39354706 0.40956146 0.5950208 0.51788723 0.038743153 -0.11915341 0.31472802 0.3407333 0.43416128 0.31317624 -0.016379386 0.09627174 0.2722797 0.33269373 0.3283593 0.4179819 0.52951294 0.35816503 0.11045921 0.21774435 0.17114078 0.3044023 0.34505543 0.38292766 0.4733692 0.5490532 0.56318176 0.2566587 0.2826222 0.1597772 0.35522228 0.4304877 0.54646623 0.5865245 0.30677673 0.317665 0.5150324 0.34234887 0.35630003 0.3986562 0.42759326 0.7732676 0.61583453 0.55612946 0.87811935 0.80062133 0.6513583 0.50099075 0.45396233 0.8435179 0.79966015 0.69169164 0.24677458 0.118526 0.7839095 0.65822214 0.14395653 0.117136694 0.5597795 0.29306242 0.0798859 0.080237776 0.24372548 -0.07842128 0.3528411 0.35032338 0.32759583 0.14970136 0.3245126 0.3818958 0.3709266 0.305345 0.47783104 0.55570865 0.2878693 0.23318267 0.3331573 0.52617323 0.45449585 0.32930198 0.27369764 0.48420668 0.43010795 0.2789699 0.20929958 0.41105723 0.3162297 0.24005578 0.2765211 0.20629111 0.21239942 -0.2668231 0.2468766 0.24634746 0.13229892 -0.21385923 -0.12597476 0.29501843 -0.1700655 -0.13500434 -0.03413055 0.30835864 -0.41909042 0.5299593 0.4636479 0.36375973 0.070373565 -0.025030449 0.25641766 0.25384703 0.6090274 0.5578435 0.031744003 0.35577762 0.6804734 0.25480625 0.321469 0.67769575 -0.15174732 -0.014908619 0.26465806 0.5992563 0.5357722 0.010053197 -0.06943852 -0.06180033 -0.12448849 0.016908929 0.41174802 0.44499552 0.43267497 0.38939917 0.31783223 0.22573455 -0.04255028 -0.014947519 -0.0130244 -0.00073863566 0.12858732 0.5133268 0.5456746 -0.033377036 0.107604206 -0.015613347 0.028792072 0.24046296 0.5913806 0.61125433 0.17451127 0.00256408 0.24985163 0.614207 0.67084634 0.25682688 0.28499222 0.29396844 0.37717092 0.15843742 0.2977125 0.35584745 0.39346302 0.49131957 0.60549295 0.6782335 0.30811122 0.4090138 0.42287832 0.5009142 0.62580204 0.91727525 0.8833178 0.7946632 0.6347672 0.5787585 0.48352313 0.93324566 0.9012734 0.36927173 0.23122033 0.94589424 0.107910104 0.16560452 0.22640903 0.22057854 0.88720775 0.721116 0.16375723 0.17027624 0.5600971 0.4812904 0.081393994 0.0654497 0.4437879 0.36058635 0.10859884 0.106077924 -0.064713694 0.3204385 0.34801018 0.3399988 0.2589795 0.10366982 0.06296103 -0.16710971 -0.23869744 0.3227478 0.29647556 0.32300144 0.48574537 0.45944405 -0.11766689 -0.043574527 0.47084808 0.42610693 0.27092615 0.067006804 0.18187723 0.04959414 0.22116841 0.24407716 -0.26365986 0.22956862 -0.17748092 -0.30284446 0.1450237 0.53126645 0.49124146 0.25056985 -0.08427011 0.032872044 0.58753586 0.08045171 0.24504253 0.6637847 0.6395573 0.14563382 0.66293764 0.57415235 0.5242187 0.43545845 -0.090154365 -0.042630628 0.23643109 0.34088337 0.37584916 0.34206733 0.28813228 -0.043716475 0.071637236 0.4718148 0.5205163 -0.10720919 0.077950485 0.004778737 0.038571578 0.5983937 0.17603132 0.0049824566 0.20419583 0.6798316 0.6861307 0.23102891 0.2325697 0.28210083 0.20885652 0.2811654 0.7262814 0.7249912 0.32584256 0.37217787 0.37530464 0.3530196 0.36279768 0.36775252 0.4264753 0.5472755 0.6844345 0.75781965 0.44031686 0.50385165 0.61440706 0.7424867 0.7907227 0.7372726 0.65277743 0.60894203 0.9086137 0.8597431 0.80649424 0.64458287 0.58841515 0.5508268 0.92768526 0.36321476 0.14265269 0.2414153 0.33809137 0.36392912 0.96562374 0.22639763 0.27477473 0.3409539 0.88666254 0.80285686 0.7340363 0.5980888 0.20961887 0.16295123 0.25258547 0.33965164 0.27832255 0.29409784 0.2411001 0.22835848 0.22357202 -0.0021931976 -0.13107494 0.29949576 0.18102515 0.15638262 -0.081532106 0.23538533 -0.3455509 -0.0072748773 0.28816107 0.08140073 0.30808198 0.26581424 0.024371073 0.055229776 0.19974594 -0.07860943 0.22435182 -0.14339663 0.16659391 -0.3385538 0.07243599 0.50568163 0.17097384 -0.0747858 -0.049184542 0.55217177 -0.030440826 0.560233 0.5046717 0.40814123 0.066194 0.48029608 0.3635428 0.067415275 0.41809297 0.35421348 0.15565684 0.2987025 0.06779627 0.035052262 0.39911282 0.57643116 0.5561843 0.16303265 0.034252882 0.58794385 0.620141 0.65579915 0.6781665 0.68766725 0.08264871 -0.03224312 -0.076646194 0.1310536 0.62974024 0.6749714 0.6665677 0.80493355 0.84001833 0.7925315 0.7657236 0.21629502 0.2801121 0.23170063 0.18330419 0.72123957 0.85797024 0.8338669 0.3190206 0.34260052 0.35121432 0.33538985 0.8389566 0.85537386 0.37591308 0.44319665 0.50353444 0.67336977 0.7951467 0.90970516 0.91079545 0.56587875 0.7151573 0.83154505 0.9022713 0.7468165 0.63134086 0.88233364 0.8606477 0.80601215 0.68112946 0.6218714 0.9007561 0.8747749 0.19425404 0.44055682 0.40963954 0.43791232 0.4220374 0.42316133 0.4009484 0.9240689 0.3358102 0.30290315 0.89529514 0.82071567 0.15359703 0.06997656 0.16827506 0.21998487 0.25786388 0.76173115 0.5027488 0.15943506 0.22694106 0.2658616 0.27047324 0.27602473 0.35524547 0.28703135 0.21395338 0.09873824 0.1882512 0.16111438 -0.2915276 0.12399796 0.13854264 0.06467802 0.009562459 0.12089161 0.113082014 0.14213182 0.093242526 0.10107505 0.109970614 0.099969134 0.04372275 0.1632782 0.14273326 -0.30083823 0.04746504 -0.035702866 0.30826116 0.073807985 -0.4314031 -0.25103384 -0.011427838 0.056218937 -0.26030654 0.040953264 0.11004834 -0.06147877 0.05285902 -0.030397391 -0.10843834 0.45122248 0.56787884 0.5868465 0.26262853 -0.08710833 0.57259583 0.6021483 0.6174239 0.64264715 -0.05240447 0.64122117 0.663375 0.73131233 0.7418842 0.1909258 -0.040518068 0.08138723 0.6972382 0.7878741 0.811106 0.8607105 0.83692825 0.8035316 0.34724668 0.33611253 0.15489036 0.3325493 0.8831245 0.4557917 0.486068 0.42641544 0.45676574 0.5466341 0.9536494 0.9445988 0.5937954 0.7551305 0.9100387 0.94865084 0.8460592 0.8130441 0.7336291 0.68833184 0.5423872 0.87807286 0.8594363 0.80665135 0.7775459 0.5652149 0.6255329 0.51683253 0.5146346 0.5132017 0.46028632 0.42842805 0.41072822 0.89657146 0.86576235 0.7853234 0.48287576 0.45889854 0.1403081 0.25758612 0.8388598 0.6644459 0.6567271 0.4878539 0.12871844 0.21598439 0.24894577 0.24849983 0.23799211 0.20757632 0.5809402 0.32772076 0.23837927 0.17255929 0.20154142 0.17837386 0.18352202 0.17380494 0.16924632 0.062325582 0.167363 0.16210762 0.19020315 0.11784158 0.076572664 -0.08769813 -0.05426867 -0.012291566 0.09111261 0.056025594 0.06641069 0.1349212 0.07251525 0.14317812 -0.635319 -0.45784155 0.123525985 0.19020423 -0.332843 0.02717334 0.047231745 -0.20805523 0.5413755 0.50518894 0.24043359 0.26166007 0.58795184 0.3694948 0.034528047 0.47329578 0.63466305 0.6691994 0.7184267 0.13265947 0.17235099 0.7895541 0.71770304 0.7942841 0.83654714 0.76860195 0.1707942 0.19261673 0.1959255 0.23728895 0.40067172 0.06142167 0.070335396 0.36701673 0.88580906 0.8752482 0.91177714 0.22417283 0.3423362 0.46887645 0.42130893 0.4466711 0.5187401 0.8214319 0.9127299 0.9333729 0.44348156 0.49986756 0.5267128 0.51439273 0.76269996 0.91494226 0.4783901 0.52241254 0.54819196 0.44442165 0.6836428 0.58877313 0.5056928 0.52276385 0.42445782 0.4270615 0.3708269 0.6127353 0.56313205 0.43916816 0.46343106 0.22749278 0.2615786 0.45863992 0.031303138 0.3247719 0.19842699 0.18116082 0.15639745 -0.09348742 -0.060742807 0.1920095 -0.061460443 0.2039493 -0.04728893 0.18780656 0.0786085 0.003940448 0.17671384 0.22479093 0.22660813 0.25008965 0.1130015 0.32303736 0.16843885 0.30541894 0.0046690144 -0.076914795 -0.08879833 -0.14971119 -0.020304278 0.03918639 0.149082 0.17107046 0.16054715 -0.1799919 -0.41071397 0.13139094 0.31803396 -0.07688825 -0.13878506 0.43825924 0.2072365 -0.13183919 0.0056541874 0.025499046 0.52921724 0.5282326 0.4802822 0.05326508 0.025892884 0.2911714 0.56287396 0.57202816 0.58895916 0.64569855 0.5369662 0.5648588 0.5424353 0.65557164 0.67691195 0.76558775 0.15695536 0.16595119 0.3442992 -0.017104805 0.09438251 0.35837454 0.8760196 0.22113791 0.24096358 0.3989771 0.5086499 0.8806108 0.24911106 0.36403385 0.49661344 0.46743238 0.42199892 0.49037558 0.51667994 0.50507057 0.50048697 0.4913255 0.5429231 0.48359036 0.4460045 0.38318223 0.43209302 0.44862267 0.4245095 0.12999925 0.21058494 0.14054722 0.12701398 0.16401312 0.31867355 0.09078034 0.09266671 0.1696354 0.18491744 0.24605331 0.08476653 0.10008179 -0.10986358 0.097999245 -0.040844087 -0.08021467 -0.03839353 -0.10501022 -0.07056601 0.19319756 0.018493548 0.2622547 0.28542426 -0.16896178 0.3608453 -0.13459203 0.106263265 -0.25304845 0.01827452 0.1117285 -0.04966605 -0.2614556 0.0130896345 0.09439027 0.34540373 0.20021187 0.275043 0.12842144 0.29230422 0.17577699 0.293782 0.22711897 0.13112128 0.17704204 0.3107009 0.32621062 -0.10099632 0.4336354 0.4097851 0.2716851 -0.082372434 0.4725614 0.48672336 0.61765766 0.061437625 -0.044392183 0.52649957 0.53957874 0.5810588 -0.010110894 0.18743876 0.19972229 0.37482718 0.29461825 0.3987495 0.40089524 0.3675866 0.475255