# vtk DataFile Version 2.0
Really cool data
ASCII
DATASET POLYDATA
POINTS 4920 float
-1.6283352 16.934217 40.96785
-1.6600624 16.763899 41.639736
-1.606424 16.65867 42.140076
-1.572371 17.772202 39.97986
-1.6587701 17.605911 40.494446
-1.6931593 17.372004 41.5416
-1.5848732 17.329891 42.18195
-1.5804917 18.461632 39.9539
-1.6526383 18.34807 40.429943
-1.6050303 18.086218 41.134037
-0.6436175 2.2328079 42.773426
-0.67707646 2.2252197 43.6848
-0.5932592 2.919779 41.948524
-0.7364672 2.608567 42.56487
-0.8923714 2.514499 43.461124
-0.7450795 2.8271945 44.436596
-0.9547734 3.3292673 42.77685
-1.0869274 3.5930371 43.522118
-1.0249183 3.370211 44.20037
-0.8342427 3.658865 44.81527
-0.96391314 4.204955 43.562737
-0.85935575 4.327504 44.37587
-0.67940503 4.28295 44.795155
-1.0066603 16.120926 40.750072
-1.1201407 15.9877405 41.668396
-1.1151555 16.057741 42.349335
-1.0196 16.207632 42.70359
-0.79542017 17.009739 38.89081
-1.0407581 16.762274 39.581768
-1.3225144 16.634157 40.494423
-1.4940441 16.36594 41.618256
-1.4471775 16.565416 42.429386
-1.1321847 16.712917 42.834896
-1.055204 17.574295 39.024952
-1.4222132 17.534826 39.56102
-1.4835368 17.299715 42.380405
-1.0667083 17.2203 42.859688
-1.1100497 18.549742 39.004498
-1.3929197 18.609623 39.62641
-1.2596433 18.53876 41.48041
-1.0946809 17.976742 42.38015
-0.8115665 17.859978 42.83331
-0.7121544 19.29366 38.84557
-1.0837915 19.296442 39.653446
-1.2760969 19.112087 40.443336
-1.0754464 19.051336 41.122658
-0.70172006 19.792997 39.50508
-0.7503152 19.671309 40.554718
0.489493 -6.1886344 21.946297
0.38572285 -3.9298527 17.80355
0.2998215 -2.8434281 16.240059
0.23952909 -3.076441 16.597502
0.12812698 -3.2989202 17.434042
0.1526109 -3.2874777 18.42723
0.3336573 -3.0424457 19.329329
0.20314945 -2.3921533 16.094578
0.015939385 -2.3679097 16.523445
-0.114361614 -2.3236122 17.318354
-0.088750124 -2.2867517 17.997324
0.43074444 -2.257176 19.55559
0.18771376 -1.7974485 16.105568
0.0719254 -1.7235026 16.461073
-0.059271783 -1.7581505 17.440218
0.148157 -1.6274376 18.25495
0.363908 -1.8929794 19.156334
0.3026894 -1.0074083 16.736605
0.18970102 -1.0007386 17.351858
0.2714824 -1.076314 17.895754
0.26772764 2.0553992 40.987225
-0.10620767 2.015736 41.999176
-0.27331898 2.0472512 42.56069
-0.29687706 1.9223068 43.490646
-0.16791505 2.0341656 44.34394
0.0520086 2.1253438 44.8421
0.06370288 2.6649067 40.774426
-0.38176307 2.610258 41.705444
-0.5243672 2.4962816 42.235474
-0.4461775 2.4441695 44.625935
-0.16906366 2.673482 45.025387
0.04271874 3.3617833 40.832306
-0.45654035 3.334943 41.773163
-0.17470121 3.3699865 45.252697
0.33559462 5.112767 23.63502
-0.110230625 4.1885157 41.86018
-0.57591087 4.423567 42.684788
-0.43618453 4.2773857 45.036797
0.24581107 5.617072 22.885113
0.14124346 5.5766444 23.436394
0.08645788 5.7577834 24.370079
0.32021546 5.6429906 25.114864
0.07635102 5.1713123 42.44341
-0.19645569 5.1582885 43.560787
-0.17492151 5.1322837 44.55611
-0.16609946 4.9483576 44.91006
0.20633948 6.4048643 22.675695
-0.13378668 6.569684 23.571787
-0.1688247 6.8461785 24.484514
0.081567585 6.8116336 25.182858
0.038729787 7.404703 22.882483
-0.29246998 7.574201 23.576296
-0.29658005 7.6142263 24.356089
-0.028792381 7.618655 25.077457
0.08801034 8.131199 22.941715
-0.17474803 8.343166 23.615156
-0.24663123 8.301056 24.285645
0.101147175 8.294433 25.317099
0.108413115 8.879569 23.750994
0.1677398 8.9505825 24.22069
0.38893157 9.170204 25.003206
-0.43988353 16.242691 39.645718
-0.54148716 15.946496 40.723076
-0.52955437 15.790019 41.58391
-0.6267939 15.8099575 42.290398
-0.4050112 16.1479 42.83081
-0.3066199 16.640673 38.825527
-0.51053226 16.415348 39.40282
-0.4802939 16.678772 43.070087
-0.22669595 17.869486 37.809555
-0.41268325 17.326885 38.421574
-0.4838153 17.43836 43.090576
0.22426501 18.466494 37.002747
-0.18060952 18.451363 37.523365
-0.5535281 18.426542 42.480488
-0.23532878 18.155296 42.860355
0.13458759 19.179928 37.150623
-0.2430279 19.337637 37.69035
-0.42703336 19.489017 41.10942
-0.23060305 18.685612 42.36155
0.049320042 20.25335 37.783073
-0.11004314 20.405258 38.431828
-0.2759602 20.290224 39.28831
-0.27821058 19.847538 40.61779
0.09785783 20.702967 38.456367
1.2363713 -11.974192 28.569738
1.1261299 -11.963789 29.373299
1.2341607 -11.814742 29.965427
1.1512408 -11.247672 28.134693
0.95035625 -11.447963 28.86892
0.88463974 -11.346233 29.512619
1.1238794 -11.364633 30.050226
1.317554 -10.447687 28.133106
1.0103085 -10.618216 28.787422
0.9063773 -10.658386 29.628126
1.1375983 -10.791784 30.141047
1.1075051 -8.8511915 21.926075
1.0621749 -8.849517 22.345308
1.3341281 -9.928545 28.945473
1.2557697 -10.059512 29.489449
1.2567903 -10.216341 29.931509
1.1523 -8.215728 20.941122
0.9717879 -8.509718 21.548141
0.80274224 -8.4284935 22.378565
0.88060117 -8.034011 23.248873
0.8185142 -7.3092694 20.792522
0.6491902 -7.469206 21.490065
0.634312 -7.562847 22.372002
0.7641264 -7.5165024 23.410223
0.97487366 -7.260313 24.217606
1.282375 -7.047508 24.813126
0.96920866 -6.686373 20.164576
0.6590737 -6.7152824 20.752415
0.54862005 -6.253465 21.353931
0.63927406 -6.5835185 22.681812
0.63751054 -6.5979905 23.299444
0.79393435 -6.8882594 23.926271
1.1654298 -6.778304 24.737778
1.1126728 -4.7448463 17.726303
1.227581 -4.8843465 18.328661
0.70871073 -5.6733956 20.894596
0.62715447 -5.7222376 21.42449
1.0014973 -5.7954426 23.764008
1.2271001 -5.644557 24.626293
0.9960799 -3.933051 16.758478
0.6876706 -4.2478313 17.580645
0.66794854 -4.387898 18.503439
1.0175211 -4.8322797 20.058681
0.85869086 -5.1196218 21.81642
1.4298997 -4.538967 23.302797
1.3560742 -4.7527204 25.53535
1.2874974 -4.4148464 26.460394
1.4363927 -4.3806486 27.273256
0.5815723 -2.8609154 16.002
0.6368291 -3.3308043 16.421854
0.55665886 -3.6638439 19.228432
0.7372819 -3.5343156 19.924461
1.3638046 -3.9338887 25.57566
1.3889979 -3.6379666 26.449245
1.4415296 -3.7964215 27.234413
0.6838916 -2.3719952 15.77359
0.55625045 -2.0929189 19.832775
0.61825675 -2.5513556 20.244076
1.0717524 -2.596664 21.12804
0.6773381 -1.7101994 15.839145
0.4933775 -2.0709753 19.70111
0.8591422 -1.7202555 20.305273
1.2149761 -1.6159511 20.891233
0.6695285 -1.120285 16.172892
0.65533704 -0.7516715 16.609709
0.43842462 -0.70100355 17.693888
0.5139895 -1.1403644 18.437685
1.182255 -0.49914795 19.255789
1.0162418 -0.36482924 16.950066
0.8701433 -0.38731113 17.1501
1.2474301 1.326328 40.70839
1.0491108 1.2939922 41.418613
0.858191 1.4724488 43.511276
0.96640027 1.8362898 40.24019
0.9086026 1.6865458 40.54857
0.4641776 1.5908062 41.751877
0.5777881 1.5661907 42.621204
0.4540685 1.5849916 43.387585
0.46679926 1.7689593 44.429016
0.57459843 2.0885897 44.985985
0.78424627 2.5985901 40.041576
0.42305183 2.2575963 40.492424
0.540365 2.5111837 45.300064
0.672711 3.2217774 40.054806
0.4747104 3.6710055 40.415688
0.8522701 5.1065383 22.301195
0.75521874 5.036806 22.519438
0.8451009 4.643156 23.422583
0.67640734 4.827794 24.384222
0.85965866 4.8025045 25.184692
1.2126625 4.8759594 26.341167
1.4630847 4.7460175 27.503323
0.930205 4.1239505 40.28012
0.77592087 4.5378323 40.835037
0.45255345 4.4670615 41.449883
0.5310549 4.827123 45.38497
0.7019337 4.5776987 45.605553
0.92625445 5.654862 22.03602
0.45191735 5.692611 22.458794
0.49915648 5.8120303 25.659035
0.86579347 5.701983 26.261307
1.3376553 5.1582775 27.121553
1.4609203 5.659313 28.467123
1.2282063 5.882582 30.631834
0.696825 4.859895 41.152225
0.8902106 5.219266 41.42253
0.49133658 5.4431267 42.372074
0.650957 5.29538 45.37257
1.0766907 5.138985 45.72202
0.7067077 6.5214543 22.170979
0.73712337 6.764402 26.339735
1.0879911 6.4226575 26.961472
1.373148 6.5985785 28.824007
0.9428999 6.9790177 29.978083
0.97652936 6.6667986 30.455046
1.169951 6.5988536 31.081657
0.9307548 6.002174 42.632526
0.748816 6.027277 43.49481
0.916885 6.1263294 44.53583
1.029565 5.917062 45.225937
0.8388856 7.423802 22.237766
0.49720532 7.710351 22.52219
0.61623096 7.496316 26.436672
0.9466274 7.4769783 29.78469
0.9079718 7.310517 30.435684
1.2038608 7.4718785 31.087944
1.0474796 8.159831 22.283667
0.52907205 8.471188 22.770796
0.92569363 8.822311 26.61569
1.1733248 8.738886 26.771214
1.1391206 8.033426 28.996565
0.98833126 8.441228 29.926641
1.0907289 8.56833 30.4293
1.2374153 8.186013 30.959259
0.7381509 8.927402 22.997122
0.6456944 9.216275 23.548637
0.95152795 9.575408 24.262629
0.6202243 9.392675 25.421818
0.78833663 9.218384 26.050205
1.1927295 9.058828 29.728436
1.2888722 9.2463875 30.217628
1.3603535 8.876959 30.859184
1.0671246 9.986099 24.73711
1.1565462 9.914482 25.451393
1.4880978 11.983162 37.608887
0.6276835 15.937148 40.781647
0.102386795 16.03544 42.616077
0.6134955 16.160662 42.728294
0.52899766 16.683088 43.123383
0.75076073 17.851566 36.811623
0.2364226 17.452942 43.270702
1.0730212 18.363224 36.461945
0.60922694 18.505325 36.673645
0.4192953 18.123407 43.091022
0.79144615 19.260286 36.69146
0.6948121 19.102736 42.237972
0.7097542 20.090956 37.11404
0.4067341 19.79538 41.113792
0.52955294 20.843838 37.99697
0.9177673 21.355484 38.63022
1.0937347 21.49387 39.941498
1.9874737 -12.757103 28.828814
1.9883782 -12.759219 29.482706
2.0544112 -12.666786 30.009794
1.7616773 -12.05893 27.88895
1.4811625 -12.282608 28.562553
1.5440347 -12.4340105 29.47837
1.6855956 -12.128264 30.1446
2.0398247 -11.605005 27.32417
1.6915979 -11.402732 27.579079
1.4512205 -11.435982 30.39213
2.1506095 -11.7226715 30.710007
1.5220649 -10.706545 30.434696
1.9442091 -10.508084 30.6845
1.6473868 -8.863108 21.142036
1.537702 -9.066496 21.620617
1.6638951 -9.249422 22.434202
1.9109763 -8.803622 23.499165
2.0175366 -10.188903 27.755457
1.5943887 -9.947075 28.54627
1.5852004 -9.681988 29.645288
1.7990062 -9.75163 30.180574
2.2753067 -9.8623085 30.76194
1.9638946 -7.9727693 20.063864
1.5062068 -8.369318 20.644772
1.4005752 -8.651608 23.48358
1.851063 -8.215136 24.407022
2.1768289 -8.979894 28.84361
1.8902285 -7.305106 19.62453
1.4381342 -7.7338963 24.61664
2.0821824 -7.2011824 25.370872
2.352315 -6.882298 26.281801
1.5415162 -6.6199718 19.63295
[...]
POINT_DATA 4920
SCALARS features_00 float 1
LOOKUP_TABLE default
0.7329124 0.8178677 0.867355 0.6236261 0.66466415 0.77175087 0.8258827 0.60603654 0.63013625 0.68799317 0.6136833 0.70025945 0.5774957 0.6082866 0.69494617 0.77329946 0.65975106 0.7643573 0.793041 0.7804774 0.77577114 0.7544546 0.734276 0.72557056 0.84212196 0.8990102 0.9146373 0.5599288 0.5956219 0.6803193 0.83021116 0.8906675 0.89864826 0.57012075 0.5991237 0.8404801 0.86033916 0.5644699 0.58609676 0.66650176 0.76040137 0.7810198 0.5180054 0.5515803 0.5785382 0.5940213 0.5124429 0.5187543 0.4224412 0.71273553 0.88780296 0.83933145 0.76049405 0.5817114 0.42000872 0.9318633 0.8932016 0.80508196 0.657965 0.42962003 0.9597863 0.93197274 0.80211043 0.6218086 0.4760514 0.89668244 0.8227989 0.720086 0.55432177 0.55436146 0.5838507 0.663694 0.7077881 0.7078599 0.5734488 0.5653531 0.582144 0.7464136 0.74294275 0.55623657 0.5813644 0.75419533 0.555609 0.5144766 0.6260835 0.70580006 0.6120328 0.59038967 0.49264395 0.35299116 0.43286842 0.66090226 0.64937186 0.6556773 0.6340827 0.64084834 0.54678965 0.4190042 0.65542376 0.687883 0.63735056 0.5231911 0.6573994 0.68017757 0.6572826 0.53262615 0.64164567 0.6178937 0.53397936 0.5970371 0.7304512 0.84249556 0.894771 0.91007304 0.5206591 0.57531023 0.8942699 0.5422698 0.53769904 0.8226721 0.53093624 0.55674815 0.68024707 0.7257297 0.54364395 0.5461112 0.5128664 0.62618685 0.5011424 0.4602852 0.44269192 0.44819075 0.443852 0.85328186 0.81679094 0.77682555 0.87097657 0.876755 0.834866 0.7757418 0.82860535 0.83778775 0.7826136 0.73100805 0.71215826 0.7036456 0.69531596 0.6840745 0.67427456 0.6825959 0.6927857 0.6631603 0.56764364 0.62893033 0.5974891 0.5630949 0.49813902 0.41580692 0.3427774 0.58597314 0.52797174 0.43931657 0.43271527 0.4128639 0.40734297 0.32787752 0.65855587 0.5984839 0.3472469 0.36126226 0.31516236 0.25003707 0.74043506 0.71681994 0.61585265 0.26549664 0.25394097 0.1768824 0.3514569 0.4627956 0.549418 0.8959311 0.82945883 0.424129 0.3239223 0.38447914 0.48271364 0.56578636 0.9489089 0.40745908 0.35046306 0.2494114 0.98952794 0.42048582 0.36938217 0.28704572 0.94901377 0.88867676 0.75358105 0.6018398 0.5200752 0.8096823 0.7946388 0.5825743 0.56110954 0.6023511 0.57507026 0.5680484 0.5459771 0.57038105 0.62265396 0.6655681 0.6674918 0.5772625 0.56858927 0.6804734 0.5355504 0.47829735 0.6028889 0.6008496 0.5417608 0.4288485 0.2704037 0.10310854 0.038960986 0.36568773 0.35480812 0.40654868 0.64654064 0.6582099 0.59003013 0.6113837 0.261837 0.14993244 0.0371624 0.034967463 0.31672668 0.3443513 0.30805054 0.37176597 0.6364852 0.655239 0.5962157 0.232686 0.067395456 0.1953913 0.41602397 0.42527717 0.44337475 0.33543706 0.5114533 0.60724497 0.63110954 0.5852212 0.6172162 0.3142328 0.43694395 0.48353267 0.5024986 0.5830722 0.6288037 0.26776764 0.21602516 0.3241259 0.44233516 0.48594186 0.5116341 0.6141138 0.6019506 0.54989874 0.4579558 0.35878247 0.34891492 0.40991497 0.49333462 0.5026316 0.41101265 0.7705986 0.7292078 0.86932087 0.8203665 0.83515084 0.4771326 0.80553055 0.48618954 0.5047252 0.7266736 0.5042248 0.52696854 0.5272466 0.36066195 0.46663207 0.44158858 0.24532297 0.74577236 0.7130231 0.68840045 0.8081914 0.82396126 0.7641755 0.7283944 0.7362164 0.801409 0.7206361 0.63722277 0.66114354 0.5802098 0.69979477 0.72088873 0.7240827 0.64759934 0.7475278 0.70834064 0.5845611 0.53839564 0.46659198 0.5933755 0.66829765 0.6204654 0.470779 0.49010652 0.5385813 0.40703347 0.2611532 0.15982416 0.5214993 0.25231615 0.28940454 0.60359 0.31869388 0.46508756 0.62059104 0.6569146 0.4965227 0.5677681 0.6726701 0.7136026 0.8190561 0.68061185 0.23872143 0.3846768 0.50687444 0.59381145 0.6724876 0.7230581 0.9307345 0.08456404 -0.042881247 0.27440032 0.44156957 0.5954964 0.69522136 0.98555815 0.1762489 0.031013722 0.8965298 0.8283285 0.46808615 0.3360858 0.18683052 0.7717333 0.72745895 0.63324803 0.42011642 0.6497059 0.6275826 0.6055056 0.5585229 0.5498068 0.22754744 0.2885579 0.6036154 0.5301053 0.5751393 0.06986417 0.080470644 0.12815703 0.2331757 0.28666544 0.30285537 0.5778302 0.5862676 0.64156616 0.42961127 0.0751149 0.0832551 0.09105552 0.083492294 0.09298752 0.205419 0.26236767 0.2916524 0.67265666 0.57795274 0.5818585 0.05334611 0.043665618 0.06484527 0.12134576 0.22779916 0.24424596 0.27821594 0.6832548 0.5212332 0.022059843 0.24508628 0.2999492 0.25144416 0.20540811 0.30406827 0.6779375 0.5441965 0.21433821 0.414185 0.39873487 0.19455795 0.23335515 0.5999193 0.6446519 0.6604134 0.541199 0.42495793 0.5822469 0.6176611 0.54805636 0.08744803 0.49892938 0.45889235 0.55748343 0.5573729 0.2051469 0.05931586 0.058387093 0.47139055 0.645633 0.4839163 0.47738472 0.34202376 0.16012473 0.05351714 -0.04239851 0.12641928 0.241499 0.68370557 0.72019947 0.72137177 0.63167304 0.22125526 0.057524048 0.7126599 0.76926124 0.76099414 0.6709174 0.39657435 0.3640362 0.71765924 0.75001574 0.7671696 0.44751847 0.4476081 0.45321003 0.68084705 0.6895509 0.7070317 0.6229217 0.710855 0.21201305 0.58941 0.7055278 0.7238156 0.45352334 0.44175893 0.7182707 0.48324066 0.45332947 0.71702063 0.49028006 0.4747184 0.45288074 0.4367417 0.12042434 0.01653085 0.39297476 0.17948477 0.61421484 0.7347566 0.7836977 0.7602644 0.6459575 0.8003181 0.81744444 0.8092773 0.6786749 0.64862096 0.61416924 0.72009134 0.59637237 0.64339626 0.5729253 0.7095331 0.39560962 0.6630262 0.7150085 0.7071086 0.6865814 0.54396725 0.41751295 0.52779824 0.6226897 0.37697357 0.38837034 0.35611194 0.2575153 0.41311142 0.48000798 0.30619046 0.26463088 0.44468543 0.31707138 0.6380165 0.56297624 0.49669784 0.6829787 0.67787695 0.582817 0.7021426 0.7967845 0.36129725 0.5398624 0.7272942 0.89117754 0.7502031 0.034225974 -0.24847022 0.44918182 0.46335018 0.8554406 0.76366675 -0.07674739 -0.17615496 -0.04098949 0.13031265 0.16863644 0.37107974 0.38450992 0.63274074 0.55524427 0.012407266 -0.13908683 -0.16894236 -0.09980007 -0.04992218 0.021227568 0.07032362 0.12525561 0.119224146 0.23002431 0.2626773 0.69487023 0.6712245 0.53922284 0.4714737 0.10072185 -0.1345702 -0.084608704 0.024190882 0.065605015 0.12756772 0.3007872 0.6378018 0.42429674 0.4092961 0.47044557 -0.0496208 -0.20596436 -0.08503257 -0.004286539 0.06855138 0.30567607 0.30459094 0.4189886 0.5092208 0.32807297 0.22728665 0.009934686 0.041938715 0.3077763 0.31371808 0.33461404 0.5923198 0.28556183 0.20322618 0.6614068 0.22492707 0.26533112 0.11713061 0.6941826 0.4637211 0.1746133 0.23288581 0.10244845 0.65557885 0.6894881 0.3834325 0.2160058 0.2461434 0.24033174 0.10747932 0.52799594 0.44384408 0.34142402 0.15876639 0.43891495 0.36304116 0.31694394 0.5973172 0.037961334 0.3834185 0.065897554 -0.070399776 0.37015638 0.39588022 0.21569562 0.14633064 0.08186823 0.20853171 0.16075571 0.6408334 0.46024805 0.34580028 0.40120584 0.19629341 0.44267046 0.4403413 0.47279406 0.4877333 0.45386657 0.42565686 0.38666925 0.55575454 0.63814735 0.45437914 0.48021787 0.48925805 0.47651634 0.4613762 0.07921474 0.63093776 0.5753415 0.3008683 0.47795522 0.48511013 0.41583446 0.17340927 0.3692559 0.20844448 0.52703124 0.4671066 0.6826024 0.73061293 0.7808069 0.8199481 0.82837987 0.52801216 0.5708235 0.55634445 0.52517843 0.54798055 0.44435686 0.46484217 0.42415476 0.31155142 0.6420015 0.6702606 0.6612358 0.63354087 0.22249249 0.12589099 0.15294394 0.46153998 0.5469488 0.1757988 0.17787418 0.36463654 0.40390754 0.11782011 0.13425677 0.11513223 0.22583362 0.13568562 0.21790513 0.15716113 0.20771551 0.44234675 0.33519775 0.51040864 0.47878087 0.3523606 0.43350446 0.41536772 0.49059194 0.53926015 0.5058944 0.41329256 0.4703079 0.5369101 0.56575537 0.6133002 0.112179235 0.14253451 0.10300887 0.39646763 0.41088238 0.45132804 0.5069604 0.57026535 0.44562072 0.17061558 0.09443039 0.3146004 0.3902044 0.38491213 0.42396283 0.5014642 0.32421973 -0.15159935 0.25106934 0.28840855 0.32064527 0.37974963 0.4020859 0.6705626 0.68809927 0.66763157 0.44331175 0.43681413 0.09164375 -0.03949268 -0.19514388 -0.15307108 0.26862687 0.19796614 0.5984687 0.38877326 0.38992304 0.41411304 0.2944563 0.19605878 -0.07058434 -0.16547939 0.28093874 0.5625572 0.3920983 0.40939754 0.3617162 0.3561078 0.2822981 0.4860863 0.55536556 0.3691221 0.36878002 0.3185439 0.30955672 0.28461924 0.6445185 0.3281281 0.31408715 0.57260317 0.66744137 0.12746431 0.15083577 0.16733551 0.09445906 0.09513363 0.1044277 0.09502752 0.20453584 0.043766305 -0.048793234 -0.07550257 0.22718862 -0.052981023 0.18505894 0.06763418 -0.06163189 0.13781177 0.05765643 0.1027139 0.08285739 0.0034568198 0.11286491 0.12704207 0.20885798 0.32592347 0.27319118 0.18115434 0.21360055 0.22448637 0.35808194 0.28029698 0.2783135 0.43210262 0.53482336 0.41951814 0.22740379 0.42676973 0.45389012 0.46317494 0.4702065 0.44910836 0.39677888 0.29578793 0.31953865 0.44619578 0.44256026 0.42959672 0.13036314 0.030547056 0.015492737 0.43847895 0.048931047 0.16112128 0.4691347 0.26757962 0.4508952 0.4315194 0.29518327 0.40090823 0.36782536 0.41916507 0.38724583 0.40451658 0.5491183 0.53095734 0.4694819 0.47609973 0.59399176 0.6586619 0.74323964 0.77053374 0.81748015 0.86365545 0.61710143 0.59823394 0.59661055 0.5621012 0.47077695 0.48807123 0.4270672 0.32976237 0.13928463 0.3538884 0.0833269 0.03649255 0.041680656 0.024420515 0.18282662 0.5837392 -0.08858138 0.21806976 0.4662832 0.38950512 0.34921497 0.18285614 0.18823214 0.35276 0.35979486 0.19415867 0.17412391 0.22459105 0.27804598 -0.25918418 0.20038289 0.18578976 0.12645352 0.15986209 0.043306626 0.16381152 0.22371182 0.18172845 0.1268435 0.2044342 0.20673504 0.017038092 0.12940222 0.21020831 0.16596615 0.066091225 0.025245875 0.31435046 0.16272743 0.10413414 0.38754296 0.37447217 0.5155349 0.27527535 -0.029629476 0.5526438 0.53542787 0.24995445 0.06906647 0.13942873 0.34603533 0.51561505 0.16907047 0.48009962 0.463158 0.42437902 0.43492788 0.66208255 0.3475886 0.30413717 0.18911846 0.35744047 0.37553835 0.37355226 0.3656253 0.3551004 -0.16282429 0.4356009 0.3578333 0.37362987 0.37050378 0.36343884 0.24698788 -0.16144364 0.37104738 0.36044273 0.13737735 -0.22984827 0.51214814 0.36003855 -0.16317216 -0.17905119 0.5247192 0.07642128 0.14030096 -0.073374175 -0.29355246 -0.06916969 -0.07225304 -0.14711109 0.018965919 0.08211469 0.01961609 -0.05511194 0.45946014 0.6365968 0.0912285 0.37495 0.5673844 0.6294328 0.65058875 0.112874284 -0.004046157 -0.14323047 0.045622952 0.5887596 -0.070111826 0.09292491 0.34321806 0.19173309 0.2583167 0.15426587 0.32716012 0.27821296 0.17766722 0.20757708 -0.021243721 0.30913627 0.36971337 0.40202203 0.3592471 0.28233257 0.19444394 0.051792987 0.2616521 0.03287887 0.031527907 0.22916847 0.20625709 0.42052406 0.28886905 0.20838669 0.42231956 0.27042168 0.2747295 0.41569614 0.30454826 0.34926355 0.37650508 0.4481623 0.38956314 0.5665163 0.4379301 0.43917304 0.5598194 0.6561789 0.5212474 0.62895834 0.5634906 0.64272 0.6581286 0.75206107 0.7272104 0.6551916 0.64756846 0.5923774 0.5569976 0.6545869 0.6400038 0.5912888 0.575053 0.61181986 0.5997077 0.5944989 0.56042194 0.5773065 0.58367515 0.5190441 0.47222668 0.5035911 0.5582498 0.5637458 0.3183186 0.39657286 0.4097156 0.18791135 0.1231117 0.08402607 -0.008479305 -0.012774896 0.07399117 0.42244864 0.04016244 0.10205815 0.27461398 0.37067068 0.39392442 -0.12768067 -0.10200749 0.26988947 0.28349042 0.2816376 -0.01682201 0.17209916 0.18565264 0.23837137 0.095159866 0.09056175 0.2129896 0.12156905 0.08190412 0.035913743 0.115992695 0.0053882897 0.024075702 0.16846794 0.11713183 -0.28579265 -0.1777419 0.02029623 0.027923942 -0.06313425 0.44485217 0.23385908 -0.15436569 -0.10976595 -0.3043568 0.47305033 0.18851906 -0.30784467 0.44841337 0.44326764 0.43511456 0.22415462 0.36745027 0.35188666 0.2993372 0.32222146 0.3805208 -0.019472077 -0.10932733 0.14581609 0.2875759 0.33695728 0.38379124 -0.1965681 0.27993253 0.33207333 0.40218508 -0.19744338 -0.28495267 0.29604238 0.25466493 0.21118969 -0.26814693 0.20459613 0.030048484 -0.029419936 0.8490255 0.78740704 0.6433791 0.6545285 0.85596347 0.85982 0.83767235 0.6748657 0.6738693 0.67745876 0.84408134 0.7941135 0.7129879 0.65728533 0.7931695 0.7810861 0.25531012 0.6256671 0.6443939 0.3850354 0.36046785 0.24321756 0.20537767 0.45534387 0.5523573 0.57750237 0.3974691 0.45155483 0.39955398 0.21258235 0.2295337 0.21480407 0.23893504 0.15794203 0.2066203 0.095126815 -0.018501252 0.03074786 0.21084546 0.2534372 0.30429572 0.29673052 0.10931708 0.029960096 0.1940186 0.039821524 0.32400787 0.056670688 0.012152385 0.2951743 0.27899122 0.30481085 0.28081298 0.24850494 0.3913082 0.41454756 0.3862266 0.48178798 0.41685525 0.5787247 0.45591348 0.48689055 0.7178614 0.5158025 0.5357464 0.6802596 0.72532284 0.7553879 0.58725035 0.50418735 0.49483845 0.494597 0.37266806 0.5157341 0.58632445 0.4821422 0.4663095 0.57449555 0.533718 0.5426376 0.5409715 0.56009185 0.36680067 0.48285308 0.27475706 0.30842802 0.3484846 0.37114787 0.32006678 0.3564186 0.36111885 0.46493325 0.37629747 0.4019649 0.41916287 0.40382615 0.4287582 0.27283087 0.30437675 0.39139885 0.30596477 0.39881825 0.44048345 0.42920607 0.22135761 0.07763357 -0.020028792 -0.070350215 -0.011235258 0.3131237 0.4547031 0.47736633 -0.116578355 0.32712597 0.44919604 0.47768164 0.47390336 -0.23057675 -0.20002846 0.44636762 0.46185297 -0.11219134 -0.18804447 0.33148983 0.3194811 -0.11800488 0.1889255 0.1999342 -0.20912452 0.10201035 -0.27500847 0.077593885 0.115577914 0.0070670145 0.048210613 0.1548225 0.018119387 -0.13969521 -0.31958377 -0.19511089 0.08055807 0.16628729 -0.120496064 -0.5197411 -0.55247056 0.4338355 -0.10857916 0.43830088 0.4232691 -0.26646677 0.31181708 0.32205394 0.039110176 0.41747844 -0.114009045 0.4493004 -0.09885013 0.21934846 0.26008457 0.4411093 0.22557297 0.12523606 0.14001282 0.7674768 -0.3414848 0.8192872 0.8265984 0.6275946 0.6407666 0.8168746 0.67243403 0.49997795 -0.13595599 0.6634557 0.8239938 0.82497317 0.62140137 0.66644955 0.7950175 0.78598315 0.7308825 0.6345941 0.09546913 0.60528857 0.6386732 0.3367225 0.34678146 0.47929358 0.57556164 0.44194305 0.49348417 0.25072983 0.51979125 0.50879467 0.46464568 0.31158414 0.13454531 0.10689927 0.14267246 0.43898022 0.12386511 0.17467678 0.17140542 0.057106595 0.040301446 0.07698253 0.013270736 0.13133518 0.32516325 0.09166882 0.34015718 0.08014996 0.38766396 0.06713325 0.37626165 0.3122346 0.33643016 0.44887555 0.3769471 0.38113964 0.51810086 0.4106418 0.4305535 0.688203 0.44291925 0.4327008 0.3960343 0.7678741 0.48419946 0.4790175 0.76763606 0.78420925 0.79902077 0.80089176 0.8019616 0.8123568 0.31466022 0.28522822 0.28265357 0.42819417 0.36831188 0.3471429 0.2949556 0.43841 0.41407207 0.39045617 0.348515 0.32952607 0.22917889 0.25367427 0.19621374 0.27999306 0.23503262 0.3683943 0.47040915 0.3341463 0.44803056 0.19034663 0.35987356 0.27047408 0.32862848 0.12927859 0.28031904 0.22453335 0.33582336 0.45063725 0.3558725 0.4476125 0.48505062 0.122363895 0.49596697 0.5007466 0.47540697 -0.15554689 0.37415147 -0.070475094 -0.12045632 0.23281579 -0.05533474 0.23927322 0.35934055 -0.21618743 0.20653504 0.3749253 -0.34345663 0.39088374 -0.370915 -0.4279135 0.2404773 0.0674285 -0.0028603524 0.42043483 -0.124748945 0.42773288 0.41800874 -0.2798306 0.387243 0.377284 0.29947436 0.107697606 0.38951236 -0.076580904 0.4528966 0.4444045 0.27309617 0.12725252 0.7158631 0.44273055 0.56247276 0.7170583 0.5863628 0.61656636 0.73061985 0.7339189 0.6404382 0.72253925 0.74939203 0.66000116 0.752319 0.73855937 0.55750114 0.38504153 0.5680313 0.61333084 0.6854797 0.6785088 0.28764772 0.40361357 0.52922964 0.49730927 0.24219282 0.53440726 0.48767686 0.06552965 0.4582095 0.35260883 0.22984596 0.21817897 0.06802868 0.029248143 0.25640613 0.37299484 0.42733634 0.42798 0.34852305 0.2923569 0.32248706 0.2311507 0.41376418 -0.023649447 0.46607494 0.35477737 0.30523008 0.50311804 0.3783441 0.54147345 0.36838186 0.2685208 0.763885 0.31899646 0.8405819 0.7640041 0.8500583 0.8425314 0.8436098 0.8332529 0.3317824 0.37324637 0.3107603 0.2878523 0.28340492 0.41548234 0.39681754 0.30859482 0.40491205 0.4151832 0.29542062 0.3842376 0.35834324 0.24012795 0.34888047 0.2824138 0.1156528 0.39602587 0.33675718 0.36099786 0.3017817 0.17563525 0.25019616 0.4042345 0.46922648 0.35903183 0.2769139 0.25179437 -0.0039478242 0.43287215 0.33847898 0.24016285 0.10577683 0.115570396 0.3985796 0.44232678 0.47308376 -0.02263384 0.037922516 0.47867548 0.48801297 -0.3580135 0.45439637 0.40151364 -0.20862363 0.35056883 -0.045775395 0.36976212 0.42190826 -0.05339389 -0.04922777 0.42318553 0.45401493 -0.065381885 0.47640932 0.4990189 -0.03103213 -0.39585602 0.16460426 0.119859785 0.096163414 0.5088973 0.24862236 0.120472394 0.5162494 0.4245665 0.074275136 0.49051833 0.45565915 0.26838765 0.117187984 0.30319852 0.35712272 0.3454925 0.42913875 -0.2562706 0.2487254 0.3511676 0.35699737 -0.030575376 0.24213144 0.115696624 -0.05863464 0.38759148 0.03842853 0.35148075 0.1864227 0.31577367 0.08178254 0.06527023 0.53152287 0.3774049 0.49126738 0.5276818 0.5929625 0.58022285 0.59735173 0.6865128 0.6388956 0.617311 0.68566144 0.6617226 0.6292661 0.6680428 0.66173714 0.53872305 0.49592215 0.5586911 0.4888606 0.3054135 0.5057097 0.47441757 0.1788078 0.3227353 0.45872495 0.42248487 0.2302161 0.09933598 0.35431185 0.12852988 0.021590069 0.14384311 0.395557 0.45778432 0.49265113 0.48779714 0.382547 0.5026276 0.3189818 0.34813976 0.44715273 0.36229858 0.37050435 0.55295306 0.53067774 0.5689882 0.29410374 -0.0009816336 0.22490942 0.5689574 0.55856174 0.33466285 0.20179774 0.62159824 0.40447283 0.790921 0.5543787 0.9131057 0.7106779 0.7734927 0.8898075 0.8970422 0.8472931 0.44665202 0.40461463 0.4403621 0.43323 0.3073733 0.3472396 0.44965583 0.37732494 0.375158 0.42517585 0.38680875 0.24104758 0.33773074 0.3629275 0.15042013 0.24997026 0.35863835 0.08109431 0.36751547 0.42740798 -0.1913976 0.22230694 0.42116147 -0.057248794 0.2930346 0.36684716 0.33608794 -0.052235425 0.33824492 0.34949875 0.31159353 0.35157898 0.18630172 0.08309546 0.41684356 0.4416931 0.16685694 0.055444047 0.45571387 0.4554363 0.11922731 -0.013633637 0.40763158 -0.1687474 0.3764677 -0.13852564 0.39301562 0.4260745 -0.119338445 0.46893358 -0.18186715 0.52155125 0.5342624 0.08347364 0.062052563 0.5210503 0.51660323 0.35506156 0.19355175 0.113988034 0.38599122 0.46551526 0.49435258 0.58381796 0.544746 0.4575618 0.57649535 0.5621333 0.5026904 0.5213165 -0.3283308 0.470545 0.4268781 0.2679652 0.17460138 0.2340056 0.31231964 0.39252728 0.38673854 0.32096553 0.085856386 -0.42094326 -0.15689161 0.18068492 0.2654227 0.009965494 -0.18501599 -0.0756808 -0.12499976 -0.3370796 -0.046674043 -0.25335246 0.3901701 -0.021442354 0.30151024 0.20760643 0.44616085 0.539029 0.53939044 0.5454076 0.5943727 0.58683264 0.5015288 0.5695183 0.5585805 0.48381793 0.45708853 0.33302653 0.018292561 0.25300902 0.34781176 0.3368709 0.04597315 0.13580722 0.21631294 0.24857622 0.12537089 0.33142787 0.08708763 0.09281161 0.45412198 0.48393536 0.49732858 0.4372276 0.36532632 0.31980604 0.22484386 0.14323243 0.50267816 0.35981345 0.30956143 0.24621645 0.37172073 0.28866965 0.25660044 0.5876196 0.6101062 0.6228999 0.6239073 0.3134967 0.66105837 0.6666615 0.65717053 0.6462675 0.47203383 0.6048975 0.70919305 0.6621864 0.53311753 0.5945558 0.65722936 0.7266407 0.58674985 0.6520492 0.77592444 0.742219 0.8208008 0.48881418 0.49606115 0.42913806 0.40765905 0.49593312 0.51904917 0.43792474 0.47408116 0.40285516 0.4522626 0.48639238 0.516521 0.34529078 0.42819566 0.34609795 0.30099648 0.3403733 0.35711414 0.3354865 0.2709293 0.20866562 0.328029 0.3256774 0.05753812 0.34621355 0.1984067 0.39480215 0.35017 0.4231463 0.3755782 0.39441562 0.35419545 0.2966571 0.34303492 0.22579004 0.2716338 0.2651055 0.20200759 -0.11588794 0.27117032 0.17508528 0.42028344 0.44323254 0.26379797 0.20375031 0.41837102 0.17724022 0.14219624 0.40100646 -0.20271915 -0.2285371 0.40958157 0.43141282 -0.21080182 -0.3145101 0.47471035 0.08064372 0.03927608 -0.15281573 0.53707135 0.4235351 0.261925 0.13205074 0.095487565 0.4950571 0.5623841 0.49991438 0.38205445 0.41020125 0.45905125 0.56643856 0.5852318 0.5550792 0.5595255 -0.28357503 0.52050054 -