# vtk DataFile Version 2.0
Really cool data
ASCII
DATASET POLYDATA
POINTS 11309 float
11.154758 3.368018 5.990809
11.156244 3.348068 6.4091043
11.117962 4.063304 5.272748
10.859928 3.7578485 5.8334937
10.799303 3.753214 6.3960104
10.978348 3.8706732 7.0967016
10.983643 4.5614705 5.3611174
10.683957 4.4532394 5.7314744
10.558695 4.5490093 6.3938394
10.7372055 4.4408503 7.094974
11.23816 4.4413724 8.007522
11.102101 4.8807445 5.310326
10.941528 5.233875 5.7521815
10.715385 5.2405066 6.473082
10.782467 5.3657103 7.1066823
11.126589 5.2891097 8.020651
11.087199 5.730445 6.008258
11.21159 6.2851977 6.689032
11.124819 6.2382555 7.407217
11.331384 6.2958317 8.176071
11.677556 3.1647673 5.7208195
11.665991 3.0788727 6.3766403
11.813537 3.1751971 7.13702
11.520037 3.7678137 5.1643424
11.380113 3.4536488 5.524994
11.499692 3.5295277 7.4259496
11.75999 4.035475 8.530974
12.1531105 4.0694485 9.359042
12.208186 4.253612 9.787968
11.573832 4.5080514 4.9856052
11.511017 4.5145316 8.423276
11.892224 4.5582514 9.342003
12.077535 4.745395 9.945649
11.657176 5.1915336 5.169232
12.251451 5.151632 10.2164345
11.642486 6.081196 5.8912086
11.497253 6.4191 6.3689375
11.55549 6.167321 8.676169
12.128177 6.8057284 9.813814
12.461916 6.656217 10.398612
12.353848 7.014053 11.237487
11.737247 6.9042215 6.8301077
11.770977 7.101337 7.5250154
12.040215 7.861228 11.649643
12.049596 7.9253883 12.143142
11.987017 8.510175 10.985054
11.753985 8.74293 11.4566345
11.831519 8.597284 12.409783
12.128502 9.327056 10.965374
11.736151 9.523443 11.726785
11.73221 9.404519 12.384465
11.976099 9.5925455 13.034576
12.098984 9.913021 11.1243
11.945927 10.18121 11.772434
12.028134 10.419011 12.427038
12.218318 10.7114725 11.751922
12.2395115 10.726867 12.335917
12.601583 2.7994883 5.6355047
12.436828 2.7343783 6.5309362
12.479064 2.880808 7.1850452
12.857666 3.250807 8.267658
13.356518 3.8167152 3.8032734
12.32552 3.4104748 7.8084607
13.199001 3.4069545 9.732307
12.826886 3.9990268 10.192577
12.374355 4.443761 4.765545
12.50012 4.656808 10.409417
13.313219 4.6861835 11.2987
13.026125 5.481524 5.0471287
13.20412 5.9243917 12.267859
12.939363 6.459792 5.6500115
12.489846 6.8932176 10.795465
13.145895 6.7118745 12.600952
13.229827 6.783052 12.930243
12.558545 7.2206163 6.468284
12.692876 8.102509 13.4312105
13.068958 8.020795 13.925484
13.2985935 8.057102 7.798439
12.67061 7.682089 8.25151
12.86287 8.259947 9.424524
12.446959 8.585679 13.353168
12.796972 8.697135 13.955494
13.246447 8.810767 9.458173
12.447581 9.112024 13.463769
12.9860935 9.575607 14.126991
12.4343815 10.166531 11.009763
12.476655 10.596978 11.321711
12.537172 10.323272 13.478231
13.026041 10.354063 14.028725
12.835822 10.74214 11.160092
12.501084 10.823229 11.678523
12.607543 10.996624 12.455515
12.660421 10.737826 13.318527
13.309424 19.080282 3.3836696
13.283595 19.051409 4.24446
13.318188 19.553701 3.1018245
13.192763 19.455723 3.5611181
13.199427 19.621536 4.1808896
13.246359 20.244682 3.6550508
13.291389 20.26641 4.3239207
13.405212 20.12476 4.807457
14.402046 1.1799031 11.577763
14.380232 2.0691905 1.1324925
14.286362 1.9869087 1.5839292
14.348565 1.7591598 2.2827742
14.354341 2.27708 3.751771
14.3500595 2.2547715 3.9718566
13.926886 2.4462986 5.7654085
14.302456 1.4078251 10.976689
14.222907 1.7623433 11.442229
14.385323 1.4381881 12.248791
14.268569 2.3904445 0.98675764
14.061935 2.4589353 1.6212813
14.0212555 2.399963 2.2340517
13.913628 2.6900835 3.1837142
13.25792 2.5467248 5.6863093
13.285045 2.557993 6.63718
14.028124 2.4687033 10.023359
14.035986 2.500794 10.796689
14.261336 2.1600666 12.299992
14.221222 3.0323591 0.92308134
13.980818 3.5007699 1.6968857
13.813715 3.2981184 2.3220398
13.72546 3.4291952 3.246516
13.83231 3.7490687 11.448165
14.189549 3.509964 12.306016
13.995366 4.6551046 2.0532806
13.728167 4.572152 2.667354
13.862123 4.739737 12.543129
14.201656 4.7468243 13.173945
14.156861 4.966894 2.207774
14.224447 5.1751738 2.540502
13.721897 4.7907515 3.3487573
13.369109 5.9965196 12.666432
14.049355 5.8641033 13.261035
13.633454 6.446262 13.083036
14.405673 7.20864 3.5646036
14.322136 7.5236 4.6694965
13.360795 7.695915 13.602079
13.809059 8.12244 14.3202715
14.279365 8.885321 0.728286
14.195043 8.629572 1.5408711
14.281306 8.688836 2.0320606
14.066272 8.643439 3.2909472
14.287275 8.28126 4.8877206
13.960528 8.734428 6.4163065
13.45999 8.588161 14.49721
13.93514 8.868809 14.905336
14.31535 9.444457 0.7528358
14.198767 9.374511 1.3343474
14.162429 9.37641 2.6204681
14.172226 9.297262 3.312797
14.203094 9.369451 4.2218704
14.31498 9.265117 5.5951743
14.337206 9.221321 7.8265147
14.068085 9.203881 8.914017
13.804894 9.582652 15.079292
14.346402 9.905648 1.4334233
14.343621 9.731967 3.7635777
13.434145 10.008931 14.666508
13.98058 10.472086 15.296516
13.585461 10.999716 11.636025
13.304217 11.388583 12.486484
13.415895 11.395318 13.002661
13.69511 11.104385 14.589469
14.027898 10.964512 15.167589
14.166438 11.968213 13.560408
14.213339 17.893015 3.8910732
13.9682665 18.082392 4.4107413
14.211999 17.997398 5.1953154
13.727699 18.920517 2.9964087
13.604554 18.62884 3.5693812
13.752706 18.452065 4.612616
13.818101 18.712885 5.090947
14.105994 19.606005 2.4317365
13.692877 19.593996 2.737792
13.444076 19.148413 4.7425447
13.672309 19.566479 5.184065
14.036903 19.731098 5.6261754
13.814208 20.350542 2.7991798
13.569735 20.596973 3.2953444
13.559827 20.680218 4.634347
13.658399 20.25003 5.1196103
14.258753 20.08351 5.7307024
13.929344 20.803768 2.9785976
13.755915 20.99693 3.6891704
13.925264 21.183561 4.379608
13.913813 20.998684 4.924722
15.118142 0.21268263 11.897365
15.232445 -0.06200999 12.04063
14.93253 1.2815976 1.7041278
15.000234 1.2377443 2.3368268
15.097559 1.2865599 3.067756
14.75428 0.87310195 11.06591
14.679097 0.78220785 11.525584
14.711589 0.76451135 12.410829
15.052976 0.8271911 13.055556
14.734361 1.8472002 0.8158033
14.477175 1.6876445 1.4922993
14.520076 1.6211113 2.3721693
14.71445 1.6058198 3.417122
14.670676 2.0415945 4.4214683
14.856704 1.9199498 5.1597967
14.716187 1.7045345 9.864473
14.480917 1.32177 12.49984
14.864502 1.4707762 13.118088
14.949931 2.6121502 0.1827937
14.528961 2.6106188 0.5854051
15.069891 2.5523348 6.0530963
14.495449 2.9907715 7.663832
14.656742 2.3427289 13.05411
15.07525 3.3923519 0.22961682
14.555109 3.23619 0.6206493
14.647494 3.766854 1.0088363
14.446859 4.4929676 1.6763108
14.552311 4.4804645 13.511031
14.880045 4.247357 13.699566
14.885084 5.6367393 13.901245
14.567245 5.7283363 2.993412
15.213663 7.8416395 0.28755313
14.888212 8.003834 0.64455885
14.954615 7.627526 1.2488962
14.469739 7.4976416 2.7651346
14.475248 7.568714 14.235203
14.651427 8.150986 14.701801
14.766342 8.770421 0.09831092
14.717786 8.283548 0.3898186
14.381673 9.092269 15.264013
14.816273 9.401959 0.09386268
14.503543 9.416452 0.41510493
14.547466 9.523724 4.713471
14.590472 9.50847 5.4672666
14.406733 9.0381 6.961744
14.404735 9.284194 7.220209
14.623671 9.40558 15.419025
14.834597 9.68309 15.632621
15.087371 9.92462 0.098157525
14.831504 10.161705 0.67455745
14.776131 10.408164 1.3373315
14.82089 10.486586 2.2609713
14.839567 10.376634 3.5583055
14.5679 9.913072 4.4600716
14.695995 9.677793 6.0864205
15.009083 9.848111 7.5537114
14.467862 9.802669 8.720978
14.676742 9.912116 9.302323
14.087234 10.497969 10.541536
14.3119955 10.548296 15.528709
14.677553 10.357512 15.690715
15.194825 10.708315 1.8564262
15.26935 10.942601 2.1513858
14.264313 10.691065 10.734208
14.469986 11.18178 11.8367405
14.55804 11.123558 15.398268
14.75049 10.958841 15.612843
14.965089 11.632002 12.133689
14.735229 11.889529 12.439408
14.73407 12.046217 13.597653
14.655181 11.889205 14.369866
14.840271 11.642027 14.997647
14.995551 17.384903 3.8736959
14.670126 17.386877 4.317974
15.092205 17.667633 3.2469246
14.746865 17.67018 3.6734872
14.509513 17.585258 4.7743473
14.860293 18.007248 6.0322037
14.542466 19.13641 2.4596167
14.583783 18.652676 2.6914673
14.678948 18.459538 6.043565
14.484975 19.63429 2.378527
14.573789 19.434477 6.0018525
14.681519 20.390339 2.3656435
14.6163 20.65048 2.489595
14.504744 20.698578 5.568034
14.493926 20.41776 5.718195
14.696663 21.07209 2.8511584
14.494746 21.390778 3.624157
14.424512 21.428385 4.570336
14.543854 21.161823 5.167333
14.786881 21.549898 3.8117576
14.779206 21.559034 4.346356
16.333158 -1.8349643 11.665613
16.196655 -1.5105025 10.929547
16.00101 -1.2009889 11.691653
16.049671 -1.3809545 12.26115
16.243227 -1.1873786 12.862581
15.602433 -0.22051749 11.601316
15.519847 -0.15127993 12.410929
15.792879 -0.14845343 13.009673
15.821736 1.0941576 0.8782566
15.566627 0.9503767 1.5283775
15.878045 0.8628669 2.3482833
15.704834 1.1666744 3.433238
15.651406 1.3255415 4.2464814
15.763753 0.9969051 10.028877
15.384059 0.78176683 13.277636
15.51985 1.5257502 0.604118
15.344689 1.5711044 4.9079123
16.116085 2.0240743 6.021926
15.445943 2.1606588 8.966148
15.23353 1.747501 13.539976
15.412127 1.7586253 13.598244
16.084105 2.869494 -2.3721087
15.959857 2.997478 -1.721303
15.879784 2.4693756 6.6297984
16.288132 2.5437293 7.4969587
16.127193 3.7289746 -2.9437993
15.864982 3.6714437 -2.3890288
15.998924 3.6693053 -1.2396653
15.903521 3.5562644 -0.7773068
15.562891 3.7148824 13.968713
16.204233 4.4069567 -2.9223042
15.928183 4.246742 -2.4611092
15.969058 4.535931 -1.7544928
16.055073 4.4311404 -0.5749993
15.451792 3.9763646 0.47178745
15.927143 4.4386816 14.318485
16.167942 4.9093466 -2.3020756
16.233753 5.0368943 -1.5937004
15.417019 5.672922 2.4595299
15.563609 5.4384413 14.366649
16.041164 5.6312647 14.662227
15.99863 6.9562945 1.7315077
15.932173 6.174068 14.714671
15.443915 7.9400215 0.097387075
15.436991 8.649268 -0.24536708
15.286067 8.64357 15.046315
16.031418 9.178167 -0.5449935
15.484843 9.555188 -0.31869474
15.067495 9.294389 15.466548
15.758013 9.851767 15.622271
15.560289 10.122982 -0.033961028
15.33662 10.45572 0.6007998
15.457719 10.390993 5.484761
15.521835 10.153438 6.268127
16.020895 10.449586 7.557122
16.121845 10.337668 8.900557
[...]
POINT_DATA 11309
SCALARS features_00 float 1
LOOKUP_TABLE default
0.7577925 0.7139547 0.79787177 0.8218068 0.80009353 0.6977108 0.78359485 0.82408154 0.8488687 0.773007 0.534825 0.7380526 0.7265953 0.74934256 0.70590687 0.57893944 0.6529374 0.5728723 0.5787412 0.52917564 0.6838125 0.61614996 0.5409807 0.7557548 0.76807684 0.55878806 0.38725752 0.23701826 0.18801239 0.7007562 0.44049007 0.2685145 0.18657127 0.6254133 0.1841436 0.54934376 0.5323775 0.4390554 0.24431281 0.20355284 0.21798061 0.45398453 0.42644414 0.40851 0.43552878 0.49087077 0.5873958 0.59299135 0.55452645 0.6338064 0.6733041 0.67711616 0.57103133 0.61010695 0.63471794 0.5829835 0.6168732 0.45503154 0.45555404 0.4304664 0.30854172 0.30504602 0.42068607 0.082030386 0.12378022 0.5325734 0.13081336 0.048027955 0.3830843 0.11386629 0.3923834 0.20060852 0.17916211 0.1752298 0.32858038 0.35972804 0.33038792 -0.017130023 0.117159665 0.13410711 0.466538 0.43785262 0.07924074 0.552271 0.5405263 0.5167011 0.5331836 0.6675619 0.62721735 0.468903 0.5506839 0.6011938 0.6670524 0.90906984 0.8333212 0.97659105 0.9366882 0.8836508 0.99121356 0.9124043 0.83687425 0.3833093 0.5075475 0.4867185 0.43292838 0.3302703 0.28983635 0.072174855 0.36169225 0.36293203 0.4133448 0.5114753 0.49868828 0.47305408 0.43771142 0.23537523 0.26363415 0.2467071 0.27789244 0.38706827 0.4745398 0.4791466 0.49072418 0.45497268 0.09105186 0.19539426 0.34529704 0.3491763 0.10994371 0.15850256 0.28753096 0.25099537 0.27500576 0.10128459 0.10321262 0.11710557 0.10963501 0.2263853 0.27337793 0.34363815 0.70898145 0.62283456 0.549513 0.36200488 0.25598574 0.028334081 0.41252425 0.44777483 0.7116786 0.66348124 0.49986646 0.4043253 0.3065754 0.18232337 -0.0034760535 0.016804947 0.52248096 0.6379064 0.37189132 0.56347156 0.5934061 0.3987673 0.5257523 0.57824314 0.65198076 0.6244277 0.5599751 0.7055393 0.71764696 0.66789037 0.89410627 0.8310944 0.7522168 0.7332692 0.9099803 0.96344477 0.7921578 0.7627449 0.7144455 0.9880991 1.0 0.88725126 0.80544704 0.70460045 0.9975139 0.9849191 0.89727724 0.84736025 0.40022492 0.40105927 0.42443335 0.37862223 0.31173214 0.3698668 0.38684162 0.41953117 0.43672988 0.5092567 0.4742905 0.41319042 0.31050122 0.17660765 0.059629563 0.30368155 0.4252301 0.43288165 0.44230983 0.49855083 -0.019165598 -0.025267337 0.38694513 0.2972914 0.4162246 0.36244705 0.33226866 0.20261082 0.2344486 0.16937193 0.15013255 0.62711084 0.6477188 0.5695013 0.28674433 0.23473138 0.33564508 0.7272915 0.69375944 0.46798897 0.73469484 0.7288327 0.27438387 0.20943426 0.030256916 0.025568038 0.49116945 0.5072396 0.71512735 0.6813045 0.61943007 0.52701074 0.41859448 0.30163878 0.15681227 0.04481223 0.0006706128 -0.022603646 0.14713794 0.5891227 0.5613019 0.55246204 0.51990837 0.1367816 0.2591642 0.6128036 0.5941629 0.22427535 0.37343258 0.51868564 0.589591 0.60703087 0.6105642 0.60188556 0.6600107 0.66236866 0.6147814 0.61937386 0.83124673 0.8105537 0.6271123 0.8622196 0.62233335 0.8862447 0.9164438 0.7293006 0.7024435 0.93235564 0.8869183 0.81810266 0.77215075 0.82777905 0.78608644 0.39077044 0.39203453 0.37097207 0.39599094 0.42086428 0.36376935 0.41491586 0.4280285 0.3116466 0.3566686 0.291946 0.23382661 0.15243691 0.16293496 0.42936158 0.43261746 0.0927524 -0.050698243 -0.077443376 0.3860668 0.365353 0.48949167 0.4445678 -0.11014658 -0.277658 0.5695685 0.55277026 0.39196458 0.27795345 0.2482779 0.61439407 0.5806978 0.47902778 0.2891912 0.16349608 0.23993537 0.57574165 0.45578504 0.10766482 0.23584385 0.25646624 0.31992963 0.23060423 0.6367285 0.7028674 0.3577518 0.67754376 0.71632695 0.45801106 0.45925206 0.70013356 0.65777034 0.2763548 0.18448675 0.07321017 -0.10708004 -0.16268887 -0.11160405 0.5240886 0.61609364 0.5640074 0.46749103 0.46178848 0.31573313 -0.2153734 0.56542706 0.5445931 0.45119902 0.5127702 0.54850554 0.39813513 0.39480326 0.3841141 0.5758643 0.54713404 0.46600395 0.47714046 0.38392597 0.42759418 0.41910118 0.39741385 0.6946343 0.60967267 0.40877715 0.41385183 0.7319623 0.38449168 0.39462337 0.4012933 0.7778152 0.4828493 0.8232924 0.78766406 0.5271567 0.8634887 0.80773294 0.69157875 0.6681755 0.7613141 0.76555324 0.9488491 0.88588125 0.99104565 0.9748688 0.89465815 1.0 0.99208516 0.9333556 1.0 0.48273554 0.475533 0.47118795 0.4418176 0.5259911 0.4183507 0.395831 0.39559713 0.35133928 0.4274938 0.4006493 0.41427818 0.42312583 0.20752178 0.35450605 0.41430706 0.42568946 0.30856782 0.20359059 0.08897098 -0.02207238 0.16813554 0.41077867 0.40385818 0.37643817 0.35529244 0.23765376 0.09884976 0.23255756 0.03983751 -0.0077487165 -0.08779304 0.37826473 0.38015354 0.39959678 0.41260135 -0.031856738 -0.13056627 -0.35349882 -0.3472941 0.38429135 0.44207448 0.21185757 0.5259263 0.1787609 0.57253695 0.23134269 0.061767988 0.21038713 0.216727 0.60934144 0.6034052 0.40621227 0.045671795 -0.07603005 0.25925398 0.50793844 0.38191754 0.18141997 0.253955 0.16487175 0.58878636 0.25923854 0.6802139 0.6414795 0.3847875 0.3841843 0.66928434 0.62144935 0.429568 0.47122252 0.5990677 0.515366 0.44916502 0.40612766 0.37190023 0.20855206 -0.23145041 -0.23703495 0.49291366 -0.20845501 -0.19497924 0.36869818 0.3989817 0.48281243 0.17644686 0.22880116 0.1293774 0.2210562 0.14693436 0.16283923 0.32344154 0.23932275 0.032856733 0.07264197 0.17305544 0.34038067 0.34744638 0.29565403 0.5385987 0.48303163 0.32667387 0.12422745 0.11027774 0.3635732 0.30696914 0.5661046 0.39521238 0.36991364 0.31554028 0.66899896 0.22863363 0.38947517 0.3323621 0.7008568 0.67042285 0.3768869 0.72350943 0.4445547 0.7017019 0.6238328 0.50459015 0.4326771 0.8834889 0.78387475 0.9402942 0.9245188 0.84092593 0.7459487 0.87072295 0.94100285 0.75475097 0.85845125 0.9478644 0.8472823 0.7782071 0.9631902 0.99001884 0.89822245 0.9048176 0.49789974 0.51532805 0.51756614 0.5312017 0.56358606 0.60867536 0.4887119 0.5081174 0.51309335 0.49957937 0.51643133 0.5781263 0.61714935 0.6404059 0.47909573 0.4835853 0.48102748 0.43335226 0.47058642 0.4939022 0.5859796 0.615217 0.43068668 0.4177842 0.41246068 0.37694734 0.40831247 0.48927617 0.50961673 0.37031186 0.32568088 0.3552887 0.30211806 0.32814586 0.6072058 0.19949397 0.15336716 0.33198407 0.288146 0.40311736 0.11659134 0.19391342 0.19940662 0.07908209 0.14722607 0.40974212 0.4110097 0.38827503 0.21267653 0.110119 0.06358211 -0.062136255 -0.052832864 0.04900774 0.11209952 0.13171317 0.113951735 -0.009260263 0.12340294 0.42003074 0.39193618 0.300293 0.25795263 0.22232702 -0.05144242 -0.052753285 0.0019897372 -0.001966665 -0.049957495 -0.040253792 0.030510617 0.3755701 0.33355427 0.32911158 -0.2011414 -0.33754808 -0.39567864 0.23994231 0.3387267 0.34640685 0.35435098 0.069673076 0.5128529 0.47268572 0.05981651 0.46916753 0.5178608 0.17812677 0.54376495 -0.14253436 0.24136856 0.52307206 0.448139 -0.51788217 0.22654213 0.17022638 0.27333564 0.4704249 0.1819233 0.3020131 0.31796673 0.37038925 0.40028685 0.29911807 0.29994243 -0.21851036 -0.044218197 0.34243694 0.3819179 0.26981527 0.11009322 0.00080998987 0.07401475 0.03706698 0.24039204 0.029787958 0.2266685 0.17261508 0.42037523 0.36045957 0.2927089 0.53687465 0.44925815 0.24951988 0.21290085 0.54213905 0.07582807 0.06725866 0.56304204 0.2503836 0.5292464 0.55576175 0.5407486 0.43693718 0.38678253 0.5546759 0.8143256 0.7748568 0.7417487 0.69136643 0.78714997 0.7098583 0.6506814 0.7873808 0.8118713 0.60278964 0.7704326 0.6028917 0.70196843 0.76768625 0.6276878 0.8347859 0.91709256 0.9032068 0.46126363 0.45786154 0.47847784 0.48441428 0.49492037 0.48453468 0.5182937 0.6073704 0.6390281 0.6695368 0.46523386 0.66152334 0.6877021 0.45428604 0.63398576 0.67069924 0.38102207 0.40710407 0.3935276 0.4608062 0.67999846 0.6887702 0.67046934 0.23320846 0.15988036 0.16638082 0.207715 0.3170796 0.63429135 0.66456497 0.67519027 0.6278473 0.55621934 -0.056134865 -0.099218205 -0.11820915 -0.13414052 -0.084769666 -0.035609484 0.5598786 0.5984822 0.6135836 0.55588794 0.4680624 0.23260924 0.24570169 0.24573699 0.17995179 -0.03146171 -0.061547026 -0.108754694 -0.05716066 0.48774529 0.4669178 0.48534507 0.45920497 0.40766162 0.37533775 0.15504962 0.23794104 0.23124039 0.16979167 0.091008395 -0.010182019 0.26954502 0.38319087 0.22454137 0.2775665 0.17751081 -0.094955206 0.029325042 0.12747969 -0.082376756 -0.07673192 -0.033927176 -0.007302217 -0.14871442 0.35326982 0.09898196 0.116280496 0.3295096 0.21898189 0.25344616 0.24781738 -0.03376155 -0.08892849 0.24715188 0.4135586 0.19031899 0.25388515 0.23724093 0.43021223 -0.27071178 0.23730403 0.47083002 0.37866437 0.20277633 0.5490603 0.5486169 0.49169895 0.35813722 0.17532384 0.52662426 0.51769716 0.07352416 0.20030242 0.4235717 0.35822088 0.18290702 0.19095168 0.16586098 -0.016645655 -0.40201133 0.2975239 0.28765482 -0.17005439 0.30382752 -0.16693795 0.09307565 0.04840362 0.17535359 0.08035409 0.042457953 0.3247734 0.3703841 0.3369745 0.2965885 0.19044812 0.3580463 0.15838443 0.46497983 0.20147529 0.5177899 0.4798428 0.21356991 0.5173541 0.49150714 0.11093887 0.3678206 0.5432846 0.4915011 0.49073645 0.37831628 0.28149784 0.15869224 0.52022666 0.5671803 0.59247565 0.5806389 0.57275736 0.6015425 0.6147754 0.73946905 0.73172605 0.6505203 0.68594223 0.7360502 0.7180437 0.6631693 0.66224194 0.59068817 0.6632277 0.6281557 0.54661804 0.5197306 0.6570327 0.6003692 0.51571196 0.62278295 0.4779523 0.5361232 0.4386951 0.4444825 0.44721013 0.4364987 0.44125253 0.5616312 0.60685277 0.41851535 0.46416095 0.5705215 0.63492966 0.6829528 0.3220839 0.3841725 0.71618116 0.3233208 0.30877602 0.68153083 0.5905547 0.29178172 0.5677099 0.6270258 0.617084 0.654788 0.61530256 0.20560828 0.3806827 0.5320517 0.5963184 0.418293 0.047245264 -0.01860191 0.4962688 0.36652806 0.14854254 0.2387168 0.088329956 -0.06577404 -0.07356266 0.021499984 0.27254754 0.3226654 0.15854478 -0.07849718 0.108208746 0.08819048 -0.0873293 -0.101349406 0.2441535 0.40934056 0.22632374 0.10099368 0.039631844 -0.17867088 0.26121202 0.41571343 0.3255122 0.03658168 0.066229574 0.1595848 0.2883838 0.24595171 0.01449024 -0.10105867 0.084597856 0.08901038 -0.01597675 0.1800198 0.057896968 0.070648685 0.24200684 0.33057183 0.24278149 0.5162595 0.17107302 0.5355592 0.15155675 0.54287267 0.5322962 0.016495 0.1414368 0.4396605 0.3680846 -0.4599486 0.2832688 0.16522977 -0.2225532 -0.09859622 0.41143715 0.4916218 -0.013792172 0.4828754 0.022618067 0.3586069 0.4450689 0.14445513 0.22529112 0.2558044 0.20914127 0.41669685 0.23958716 0.34788567 0.44298416 0.49557495 0.4196152 0.06318046 0.5984428 0.6113144 0.60472715 0.636166 0.65433294 0.5206888 0.580024 0.69179296 0.67308146 0.58384275 0.56312317 0.53010094 0.37449098 0.34729365 0.28508118 0.37170956 0.14312607 0.34618416 0.4193678 0.4043433 0.37707537 0.34392807 0.4495282 0.5942147 0.26066914 0.6650479 0.6989965 0.2910866 0.7358513 0.28089643 0.68415713 0.6587533 0.7979371 0.6175771 0.51082027 0.53355825 0.4271161 0.2429864 0.51440847 0.7892763 0.6821305 0.5830909 0.47520533 0.5425699 0.54886806 0.44374996 0.48809838 0.09043385 0.14423513 0.30797833 0.7702975 0.65860116 0.5469493 0.19806115 0.41695666 0.35027108 0.031631917 0.32767645 0.63769644 0.5842452 0.40508693 0.27785918 0.26245636 0.005313605 0.09840284 0.14999524 0.2435444 0.27010864 -0.16518453 0.07057896 0.16800651 0.060921695 0.011816247 -0.014137968 0.018625543 -0.17491756 0.21991155 0.1664089 -0.00092402846 0.47174656 0.4419828 0.21916713 0.12076046 0.18095484 0.34659016 0.47682804 0.50187373 0.071230814 0.37423068 0.44392496 0.49085253 0.47641817 0.43075472 0.35140222 0.12626329 0.29938334 0.45179313 0.50908107 0.31718644 0.44711506 0.58853126 0.56145173 0.18791983 0.09730621 0.1409674 0.039494507 0.1689139 0.16298044 0.42833745 0.16715172 0.195856 0.47876966 -0.44150913 0.06666556 0.52292997 0.5008394 -0.4221945 -0.5256974 0.009678293 0.4505194 0.38310817 0.2618419 0.15019175 0.237699 0.27794042 0.2945044 0.20533903 -0.16529505 0.14132097 0.23540553 0.2629222 0.2697138 -0.09976604 0.36188692 0.4857017 0.5086891 0.17646256 0.24079159 -0.047646806 0.49658757 0.52567375 0.52054024 0.53253484 -0.037529785 0.49794427 0.32248342 0.4136603 0.010964662 0.30445945 0.09721214 0.400335 0.43420592 0.35203433 0.037076354 0.5873114 -0.21357718 0.12308189 0.65939057 0.46864682 0.54006577 0.6125609 0.68767655 0.704486 0.46827585 0.39582357 0.30838102 0.33800235 0.36209086 0.27213773 0.30028364 0.2286721 0.18616986 0.1762568 0.058294013 0.038499825 0.07381236 0.20716946 0.28991115 0.13807544 0.24258612 0.52900887 0.7141122 0.21468839 0.74394745 0.21991637 0.2324709 0.89375335 0.8772267 0.7625034 0.610177 0.47165984 0.17836098 0.30228353 0.8484831 0.8692803 0.83866775 0.36761868 0.38933304 0.29435468 0.38047683 0.3738281 0.121844254 0.09397766 0.36538354 0.81153125 0.75313497 0.20864056 -0.020962685 0.3938474 0.76195896 0.6312932 0.12768969 -0.30892816 -0.24534518 0.3398291 0.2633422 0.15558688 0.07294105 0.039324727 0.38872346 0.4342502 0.42133653 0.28468275 0.43963116 0.46184912 0.42864162 0.44228625 0.4831013 0.51078117 0.40595227 0.42296198 0.5276048 0.5557032 0.396497 0.29242763 -0.1268312 0.618397 0.6025964 0.13505681 -0.10892816 0.5929544 0.6775655 0.67845696 -0.13238622 0.48051155 0.63474685 0.67217135 0.68191314 0.1654478 0.038873453 0.1424297 0.11467291 0.030118808 0.09667119 0.25640348 0.10477521 0.3587853 0.051412616 -0.4076077 -0.53119624 0.029675718 0.12438031 -0.22597826 0.19201294 -0.022817506 0.045983605 0.27006817 0.2047311 -0.06596559 0.4648586 0.50817084 0.01731664 0.14303344 0.18653332 0.22128797 0.2546983 -0.038529538 0.5317895 0.41538295 0.06434142 -0.0764312 -0.070696026 0.5290085 0.53640103 0.5139923 0.43317884 0.31515688 0.11252937 0.10662293 0.119247824 0.48512226 0.52587545 0.46273795 0.39772162 0.18235087 -0.19427782 0.16620845 0.38408527 0.55600584 0.4888649 0.4068107 -0.019611396 -0.042218767 0.1409911 0.395289 0.36311644 0.20696911 -0.22898188 0.5454346 0.5287719 0.30302763 -0.05749534 0.6752086 0.6256606 0.4609416 0.4862463 0.44565767 0.38259393 0.53772736 0.5688206 0.6626662 0.7082721 0.55855477 0.62553406 0.37027895 0.347332 0.3748467 0.32336107 0.22363202 0.30372968 0.13660851 0.26609376 0.1219157 0.1376751 0.14065097 0.095048174 0.05754623 0.12508136 0.06677165 0.14145368 0.68217933 0.63381016 0.12946282 0.6923276 0.8753505 0.8950584 0.8827002 0.76352894 0.56848955 0.46014303 0.107786246 0.0037204376 0.02219288 0.074934185 0.11677409 0.86964905 0.88749623 0.06697944 0.11814348 0.2654064 -0.115543604 0.31884518 0.817202 0.7696582 0.41105008 0.7090587 -0.24183747 -0.30841935 -0.30788755 0.3632878 -0.03681483 0.15940312 0.17705198 0.2560281 0.36964813 0.3817209 0.33846036 0.46818396 0.30638885 0.344731 0.49985206 0.2905259 0.37784564 0.5416614 0.3312751 0.30076957 0.62309945 -0.073128216 0.03281704 0.66308963 0.17317009 -0.14974931 -0.08059073 0.64662766 0.64382076 -0.052845605 0.3773078 0.56197095 0.6050023 0.12656036 0.12787679 0.10543823 0.005221419 0.03418181 0.054576155 -0.06703942 -0.004979104 0.16717951 0.11100465 0.18506679 0.15088354 0.14939556 0.12665723 0.20387179 0.15221551 0.073748276 -0.06250009 0.42019865 0.09634045 0.02211281 -0.07050833 0.14395444 0.22506988 0.22656345 -0.040525522 0.5158392 0.52282906 0.5351646 0.42114937 0.06498651 0.052260436 0.0412596 -0.09575495 -0.09258978 0.5136507 0.57186425 0.54003584 0.16791326 0.18132615 0.14785238 -0.22085267 0.3688935 0.46373957 0.61330444 0.5656088 0.17915359 0.13778529 0.20723838 0.2207993 0.18880008 0.11697394 -0.31415886 0.19896403 0.74515027 0.69132215 0.6130867 0.53910923 0.2512232 0.16055444 0.26723018 0.25212103 0.25045183 0.0033573285 0.74763423 0.6956572 0.5975816 0.263846 0.33838978 0.29457757 0.0049987994 0.7535705 0.7294005 0.65024865 0.3307635 0.31909537 0.41122466 0.36690047 0.21001425 0.37133282 0.5381601 0.5982951 0.25586236 0.37358052 0.6544426 0.42159796 0.480956 0.21537727 0.13794574 0.45315307 0.6397311 0.68090975 0.58677125 0.6144583 0.60776126 0.57666713 0.5893063 0.6581844 0.67631805 0.6503854 0.57622385 0.5251134 0.3151691 0.2653282 0.26297483 0.09523432 0.07145398 0.1190276 0.11360114 0.38674176 0.3982451 0.36340714 0.10159308 0.40105325 0.39473137 0.35741597 0.29963607 0.08569699 0.035779465 0.38868523 0.37696457 0.36404726 0.33207262 0.31781578 0.35403308 0.1286827 0.7315963 0.1383526 0.10135846 0.05239363 0.85662293 0.8219905 0.6177219 0.042463806 0.022746336 -0.24665013 0.013103977 0.84932363 0.8069743 0.20304838 -0.4626854 0.15135679 0.78070843 0.71956706 0.13274747 -0.109021746 -0.17790078 -0.22215529 0.33572814 0.6073857 0.2323023 0.3688061 0.21896094 0.30239558 0.37476918 0.13966912 0.39558876 0.2269659 0.4004076 0.22154772 0.24561024 0.48495606 0.1341963 0.48956057 -0.007087454 0.56097174 0.5703862 0.16648844 0.0689387 0.074478276 0.59353733 0.1709032 0.10302574 0.17630179 0.38083792 0.49487653 0.5297965 0.13997404 0.09812138 0.31118387 0.33494788 0.04661782 0.022628743 -0.080964684 0.23985763 0.01967287 -0.17399159 0.21490748 0.14677465 0.13772997 0.28275415 0.28548437 0.18436396 0.16333497 0.2654611 0.18400481 0.16315572 0.24048616 0.15188386 0.14345455 0.2980939 0.3600984 0.3834066 0.32741264 0.37191465 0.46465883 0.45508233 -0.4997317 0.35751984 0.42520332 0.55561197 0.5424302 0.13960414 0.01637057 0.20598769 0.3207438 0.6358154 0.650738 -0.124318495 -0.49791342 0.7299515 0.082279064 -0.43681204 -0.15865119 0.7735292 0.77309334 -0.00083617866 0.7751961 0.7584055 0.689566 0.52084786 0.18404248 0.18632352 0.12971902 0.13462484 0.08947322 0.037488863 0.5263154 -0.0055294186 0.23358431 0.44717708 0.52610326 0.43719143 0.07420679 0.2925538 0.42483616 0.56515557 0.61499375 0.5097904 0.61700237 0.45316267 0.4017202 0.6864481 0.70422745 0.68131375 0.6241023 0.55741215 0.7054565 0.6889125 0.63337255 0.20537004 0.26483035 0.27120453 0.22964713 0.23969543 0.36959136 -0.06605387 0.35051087 0.38272214 0.35380584 0.31162226 0.34551495 0.39549717 0.3698231 0.26074868 0.15760753 0.05991748 0.3201086 0.3733095 0.18930247 0.10510095 0.109074116 0.30672708 0.27628046 0.30702576 0.07197462 0.27151954 0.06805669 0.28643113 0.23865597 -0.00035504252 0.29819098 0.1979669 0.21304062 0.25100186 0.24898645 0.2132693 -0.026439585 0.37137136 0.1532427 0.58252114 0.31735784 0.22678564 0.15437783 -0.0924613 -0.07279531 0.710579 0.64348495 -0.07834064 -0.102226265 -0.21941093 -0.0062437505 -0.009992838 0.60168546 -0.056047924 0.3366719 -0.059106547 0.20037732 0.026574336 0.24142802 0.09566233 0.2500969 0.30168563 0.25466195 0.14365785 0.18199737 0.35935473 0.29030952 0.38723066 0.34227565 0.17204596 0.14408503 0.25523508 0.3251582 0.3884391 0.17572291 -0.33191174 0.031421445 -0.23330702 -0.17339858 0.26272038 0.21254268 0.11149958 -0.20814438 -0.23379925 0.34037843 0.44509226 0.33728474 0.027751774 0.019025795 -0.112944245 0.19657208 0.693992 0.5531446 0.48404098 0.485734 0.07494088 0.07102542 0.5696111 0.548038 0.10847267 0.35568088 0.20022762 0.35250247 0.21123165 0.22988988 0.28294402 0.2006824 0.2989082 0.14667514 0.20671573 0.26434422 0.4073144 0.23889056 0.27038157 0.28072274 0.472336 0.475583 0.23899929 0.57836807 -0.04855302 0.6546874 -0.18560934 0.74685776 0.010459691 0.36743483 0.71667624 0.6056378 0.3902182 0.1511774 0.25564668 0.39760065 0.13258654 0.16479737 0.13023323 0.08211406 0.06763917 0.16914934 0.25021723 0.018427774 -0.01995574 0.022275835 -0.048789144 0.005606428 0.4506123 0.055649884 0.6486819 0.39763153 0.12710632 0.6906055 0.6973492 0.5687171 0.5380924 0.6983262 0.6737373 0.62920326 0.60284257 0.8121531 0.79007 0.73229086 0.543835 0.60972446 0.6531503 0.45896608 0.07282166 0.11386711 0.29806623 0.3618832 0.31554562 0.14595564 0.09938003 0.12657282 0.39442742 0.40061057 0.1785827 0.3587861 0.3806733 0.38009745 0.3775236 -0.23511648 0.12152353 0.35776916 0.3534375 0.2748357 -0.19333443 0.24553615 0.38980663 0.45605683 0.2342709 0.30703792 0.49265712 0.60929465 0.45816645 0.57952356 0.6538469 0.06253532 0.3313677 0.49664676 0.068001784 0.19786574 0.35992062 0.37776917 0.35222661 0.313918 0.012866542 -0.108997054 0.10475531 0.3081305 0.056670684 0.15761858 -0.27934667 -0.0070157535 -0.012317622 0.2823041 0.3330967 0.24477473 -0.07762167 -0.009913387 -0.016579198 0