# vtk DataFile Version 2.0
Really cool data
ASCII
DATASET POLYDATA
POINTS 3281 float
-15.698898 -13.907553 -5.342277
-15.829321 -14.053344 -4.4384623
-15.791575 -13.980363 -3.6041062
-15.793051 -13.539677 -5.7222233
-16.011612 -13.356987 -5.3087277
-16.19487 -13.278791 -4.4726987
-15.979092 -13.52779 -3.7233102
-15.801533 -13.306479 -3.2287498
-15.657411 -12.260485 -5.9484043
-16.034338 -12.626377 -5.3056893
-16.118183 -12.616095 -4.619481
-15.83591 -12.622982 -3.5056562
-15.688381 -12.827953 -3.1987054
-15.6210985 -11.631398 -5.973144
-15.717175 -11.470619 -5.4593806
-15.850744 -11.880958 -4.7166505
-15.586654 -11.642251 -4.097227
-14.876763 -14.698562 -4.3596396
-15.083358 -14.640351 -3.7338128
-15.398176 -13.864105 -5.7525563
-15.3744955 -14.287238 -5.1612654
-15.582453 -14.3159895 -4.6816525
-15.45175 -14.255532 -3.4961953
-15.3519745 -14.007299 -3.059023
-15.459303 -13.428488 -5.987563
-15.412157 -13.565624 -2.9242117
-15.29982 -12.709315 -6.2348933
-15.438989 -12.213317 -3.2665508
-14.804335 -11.273912 -7.2148166
-15.352308 -11.587227 -6.367818
-14.788685 -10.497217 -7.058357
-15.241551 -10.718321 -6.548634
-15.308251 -10.661063 -5.5265903
-15.298859 -10.772663 -4.6543126
-15.114106 -10.91687 -3.916993
-14.9711075 -10.027886 -6.0744705
-15.093757 -10.130411 -5.435604
-14.689785 -9.934325 -4.6280856
-14.442994 -14.633814 -5.304757
-14.400699 -14.9328 -4.4205003
-14.635223 -13.987445 -5.927822
-14.823911 -14.150787 -2.7607276
-13.91449 -12.858323 -7.205647
-14.784523 -13.70291 -6.278251
-14.397006 -13.315766 -2.6404638
-14.50024 -11.865029 -7.190837
-14.48984 -12.297541 -2.8663006
-13.809387 -11.549805 -7.754122
-14.342502 -11.502394 -7.4232244
-13.78815 -10.781757 1.9148073
-13.711157 -11.075731 2.3912964
-13.745261 -10.904114 3.2441492
-14.041269 -10.924687 -7.675699
-14.463336 -10.61951 -7.3637776
-14.692973 -10.988786 -3.3663487
-14.551517 -11.181778 -3.1969445
-13.985735 -10.11894 1.7362993
-14.0353565 -10.330119 2.529739
-13.930519 -10.350276 3.3512335
-13.716783 -10.3205595 3.7478685
-13.997057 -9.961023 -7.2304764
-14.341798 -9.625626 -6.5359793
-13.8566885 -9.59349 -4.31994
-14.005606 -9.209183 1.8366007
-14.163661 -9.615915 3.1475105
-13.98426 -9.078325 4.233368
-13.958999 -9.255074 -6.5040755
-13.75967 -8.5865555 1.4448924
-14.326027 -8.419982 2.8048096
-14.387223 -8.223627 3.4250553
-14.11251 -8.470235 4.3209825
-13.853968 -8.2766695 4.715164
-14.177144 -7.5496554 2.6270697
-14.241478 -7.635439 3.554326
-14.058902 -7.7115736 4.2607565
-13.708356 -7.7890167 4.8066254
-13.633412 -6.057585 -1.210428
-13.649912 -6.1643567 -0.4505669
-14.001439 -6.984137 2.6546938
-13.951238 -6.973787 3.5332108
-13.785346 -7.050832 4.15276
-13.609366 -5.6671906 -1.2357086
-13.700512 -5.4129853 -0.3359988
-13.5589075 -5.5445933 0.60156673
-13.544318 -5.0091205 -0.64629096
-13.012942 -16.084139 -2.2354524
-12.916679 -16.03812 -1.7755101
-12.956109 -15.506916 -3.3901649
-13.26159 -15.4337225 -1.8654616
-13.343938 -14.281493 -5.68002
-13.569135 -14.592749 -2.295799
-13.330921 -14.790324 -2.0631757
-13.037557 -13.527176 -7.1791844
-13.104013 -13.953242 -2.0063815
-13.109048 -12.413486 -7.999437
-13.261727 -11.600282 -2.689365
-12.810756 -11.259998 1.0309472
-13.347482 -11.189024 1.7592094
-13.562785 -11.281446 2.4228032
-13.351141 -11.103488 3.4369617
-13.042291 -10.94519 3.9055767
-13.200757 -10.951887 -8.190275
-13.032461 -10.436531 0.7418108
-13.283318 -10.680501 3.889966
-12.576851 -10.002679 -8.532297
-13.2229805 -9.69522 -7.553378
-13.469845 -9.464939 -4.49646
-13.572288 -10.062283 -3.628561
-13.469355 -9.537303 0.82681143
-13.305434 -9.140029 4.7823563
-13.625705 -9.031334 -6.047445
-13.061034 -8.871722 -5.6747775
-12.887041 -9.016547 -5.1179624
-13.347128 -8.592615 0.90495396
-13.372449 -8.332861 4.987567
-12.840657 -7.1771417 -2.3170123
-13.0197935 -7.143349 0.64054096
-13.398648 -7.646878 4.9333987
-12.87876 -6.5406437 -3.0312245
-13.074846 -6.4178104 -2.5516193
-13.378505 -6.3454137 -1.8121723
-13.472209 -6.4128175 0.7201639
-13.268039 -6.816212 1.223526
-13.6030245 -6.5056887 2.8811493
-13.387692 -7.0922327 4.6257305
-13.051541 -5.608512 -2.8075435
-13.363507 -5.2712407 -2.3166015
-13.457667 -5.8933744 -1.6613617
-13.203999 -5.873134 1.3027221
-13.051959 -6.1685367 2.6696393
-13.214233 -4.7508526 -2.2002258
-13.278973 -4.6353693 -1.4722462
-13.374059 -4.6412416 -0.567721
-13.409002 -4.7614675 0.13663581
-12.64847 -5.158049 3.6396625
-13.103365 -4.2570953 -1.1401745
-12.998896 -4.3047757 0.2069579
-11.657271 -17.029392 -6.9806576
-11.543505 -17.179722 -6.8728237
-11.579465 -16.335327 -7.4041715
-11.6685 -16.103607 -5.187081
-12.487177 -16.101799 -3.1793082
-12.379284 -16.431707 -2.2542055
-12.255735 -16.280268 -1.5964061
-12.069586 -15.988775 -1.1104995
-11.539721 -15.659075 -11.113911
-12.570694 -15.675953 -1.0415676
-11.600706 -14.984438 -10.666108
-11.823921 -14.639704 -9.055476
-12.326817 -14.026929 -7.9023876
-12.070087 -14.591946 -7.3113008
-12.003051 -14.227057 -0.29965577
-12.698446 -13.097752 -7.759816
-12.595121 -12.649039 -8.026005
-12.572735 -12.754582 -1.483702
-12.142392 -12.670375 -0.8914954
-12.465739 -11.663914 2.796897
-12.598156 -11.627718 3.014902
-11.731059 -11.031673 -10.57706
-12.249562 -11.485191 -9.267681
-12.833498 -11.340035 3.4966226
-12.319353 -11.1391325 3.770066
-11.710915 -10.320507 -10.934614
-12.241371 -10.420172 -10.18643
-12.4431925 -10.315413 -9.294548
-12.172658 -10.468029 4.372608
-11.769885 -9.804861 -10.811145
-12.190613 -9.831707 -10.248908
-12.3268585 -9.649817 -9.656739
-11.91463 -9.319805 -2.8748932
-12.314756 -9.34777 4.853807
-11.857432 -8.833492 -9.539545
-11.942715 -8.756048 -8.645132
-12.366082 -8.849871 -3.9321404
-12.141723 -8.373198 -1.2608011
-11.825766 -7.4474063 -5.215603
-12.274113 -6.2132125 -3.5574884
-12.454005 -7.069216 5.1422634
-11.751455 -5.5038157 -4.655668
-12.238517 -5.866479 4.8597226
-11.615341 -5.0464306 -4.637666
-12.603486 -4.731846 -3.1598442
-11.622026 -4.3402424 6.449306
-11.864847 -3.8250701 -3.0514297
-12.253849 -3.7061293 -2.3035402
-12.311644 -3.7435374 -1.417032
-12.050741 -3.6344266 -0.15634862
-12.189633 -3.6834893 0.6352016
-12.007511 -3.9228854 2.8307524
-12.154277 -3.8741143 4.462851
-11.841758 -3.633247 5.4782887
-11.59568 -3.4085124 6.2323875
-11.800743 -3.0584502 2.3633966
-11.791407 -3.0856235 3.8535326
-11.656883 2.1041856 2.267133
-11.6207695 1.9591674 3.4176934
-11.894714 2.7349274 2.677701
-12.1128435 3.1427054 3.4959707
-11.721732 3.072353 4.3663445
-11.780904 3.4798274 2.02399
-11.993838 3.4791572 2.5389242
-12.146359 3.6575153 3.455077
-11.997394 3.5626028 4.023169
-11.738638 4.4002037 2.0623112
-12.015346 4.2821403 2.7378407
-12.031398 4.321387 3.4328167
-11.823359 4.2520213 4.1322026
-11.630685 4.7608147 2.0766926
-11.663109 4.9089937 2.5757442
-11.764518 4.8211465 3.3982298
-10.715269 -21.713514 -7.657924
-10.907655 -21.15734 -9.181636
-11.026169 -21.294312 -8.592434
-10.9254875 -21.360598 -7.6322594
-10.722766 -21.456053 -7.1016717
-11.074272 -20.5891 -9.305498
-11.375263 -20.736597 -8.388142
-11.302181 -20.371428 -7.6978188
-10.814506 -20.129854 -6.580515
-10.776416 -18.699295 -10.963906
-11.28858 -19.126865 -6.90105
-10.880571 -19.409649 -6.1554
-10.983161 -18.230663 -11.263834
-11.030804 -18.30111 -5.9026885
-10.868786 -17.56745 -11.758893
-11.274933 -17.144634 -11.211388
-11.4058 -17.633814 -10.281183
-10.830256 -17.209946 -5.369222
-11.547677 -16.551636 -2.7223282
-10.792613 -16.467312 -12.12469
-11.2589655 -16.631805 -11.487467
-11.313056 -16.415886 -4.7749004
-11.560324 -16.365261 -1.651564
-11.015319 -15.38907 -12.109323
-11.395081 -15.47872 -11.279713
-11.696636 -15.608498 -0.7052928
-10.887243 -14.868201 -12.163384
-11.246986 -14.745978 -11.302775
-11.501817 -14.654152 -10.116139
-11.078875 -14.31354 0.13419208
-11.368682 -14.111514 -10.623966
-11.353429 -13.785704 -9.625113
-10.57636 -12.86352 -11.581378
-11.435177 -11.688448 2.3624043
-10.654482 -11.688504 -11.804809
-10.977073 -11.2926655 -11.324203
-11.691796 -11.377357 3.3393974
-11.136891 -10.548653 -11.424253
-11.1843815 -10.5499115 4.147898
-11.909226 -10.0122795 4.684024
-11.228404 -9.836653 -11.168131
-11.140899 -9.348242 4.883052
-11.454914 -9.19978 -10.758396
-11.649311 -8.932613 -10.288379
-11.420417 -8.523402 -9.36134
-11.798932 -8.344691 5.0388308
-11.183371 -8.13213 -9.139763
-11.253476 -8.045688 -8.410017
-11.378357 -8.008689 -7.9244123
-11.6031065 -8.030649 -6.1053653
-11.1269245 -7.156677 -6.0635796
-10.709247 -6.300112 6.9466686
-10.67048 -6.316355 7.6135483
-10.990491 -5.6321216 -5.55275
-10.868108 -5.244836 7.343373
-10.940468 -4.9218473 -5.0809903
-11.301138 -4.842926 6.7736993
-10.932951 -3.6778274 -4.8395944
-11.007337 -3.6425765 -4.4545197
-11.193545 -3.9427767 7.502788
-10.83672 -3.483393 7.9830813
-10.7610445 -1.9987508 -5.9868116
-11.182416 -2.2660522 -4.8756714
-11.528314 -3.2076066 -1.5159414
-11.242868 -3.1203485 -0.8695487
-11.321312 -3.216075 0.2134081
-11.259997 -2.466072 2.3604574
-11.147737 -2.6695025 3.7943628
-11.285094 -2.330678 6.8816395
-11.131555 -2.4510906 7.368355
-10.784931 -2.2154853 7.956452
-10.795797 -1.4449879 -6.045559
-11.08235 -1.5306736 -5.424539
-11.146136 -1.3468922 -4.932991
-10.760017 -1.197584 -3.1275418
-10.902408 -2.0176857 1.7633697
-10.723876 -1.928075 3.79217
-11.063949 -1.6413405 5.6524267
-11.1334095 -1.2877897 6.644085
-10.945307 -1.5758519 7.6070943
-10.791075 -1.6859553 7.90243
-10.703418 -0.9837122 -6.023245
-10.910231 -0.8452812 -5.481806
-11.050319 -0.953513 -4.457729
-10.682868 -0.60274976 3.5604544
-10.870811 -0.43470055 4.532252
-10.970728 -0.82181966 5.465552
-11.036636 -0.98426586 6.9232893
-10.778327 -0.73274183 7.1355276
-11.03995 0.61215997 2.6423416
-10.687862 0.416081 6.2235217
-10.590322 -0.051136866 6.850699
-11.089259 1.8217074 1.3159194
-11.396085 1.78047 1.8873515
-11.4595995 1.53468 2.4431334
-11.328175 1.4944986 3.7065113
-11.151418 1.888012 4.556623
-10.882247 1.1867585 5.348955
-11.051165 2.5456522 1.2043421
-11.532435 2.9931295 1.7212824
[...]
POINT_DATA 3281
SCALARS features_00 float 1
LOOKUP_TABLE default
0.66633594 0.73775476 0.71128255 0.64224285 0.68742883 0.7643491 0.7385211 0.6878618 0.60179913 0.67120445 0.7263216 0.6992188 0.67102027 0.58439445 0.5994405 0.64022386 0.61245716 0.64148855 0.6313809 0.60875016 0.6517741 0.70324695 0.66810584 0.620769 0.5907726 0.61496794 0.5477699 0.62643576 0.45967996 0.5500489 0.49350196 0.5508128 0.58578557 0.5602455 0.5370963 0.59046364 0.5894902 0.5175501 0.5597451 0.55461645 0.50149274 0.52324927 0.27663732 0.47890294 0.44829562 0.40402335 0.500932 0.30511755 0.38823086 0.64884144 0.6720987 0.6656248 0.35873437 0.4357236 0.5005727 0.4940335 0.61448824 0.6488197 0.6559011 0.6471455 0.42058548 0.5339339 0.40030408 0.53268284 0.6457052 0.6260257 0.4900643 0.35541123 0.53827906 0.5701472 0.59222156 0.5738737 0.4003666 0.5321144 0.55215967 0.547633 0.38852054 0.34795272 0.34192836 0.47505295 0.50287265 0.40695173 0.38072515 0.31677282 0.3992095 0.57571006 0.5882224 0.3454658 0.5582717 0.34962904 0.4005019 0.4552764 0.094676 0.27577162 0.18735819 0.33295313 0.6256676 0.6682729 0.6775876 0.654354 0.6149616 0.2290357 0.58121413 0.62881637 0.25641242 0.28389433 0.3518596 0.32843328 0.5061004 0.61660355 0.4739463 0.35484523 0.30729616 0.30828866 0.5580305 0.33586317 0.1818681 0.5299338 0.35782358 0.38105965 0.38363636 0.26313847 0.19710639 0.29541948 0.4952519 0.38554233 0.41323888 0.4050208 0.20098081 0.17763977 0.4317069 0.41915232 0.3857814 0.35726902 0.18810222 0.37832794 0.30784178 0.13257055 0.158413 -0.008354793 0.055545226 0.41386867 0.55928946 0.5575385 0.52342546 0.32541862 0.5496547 0.22354265 -0.012852206 -0.070520915 -0.109888196 0.5250032 0.07842207 0.11728002 0.183015 0.26669395 0.6244754 0.62276167 0.27475262 0.17525047 0.6171531 0.5533485 0.33080584 0.3621964 0.3303149 0.52991354 0.381017 0.4030347 0.4004423 -0.07864823 0.55880594 0.39073735 0.32068408 0.07642806 0.09440888 -0.10335938 0.2748152 0.4660989 0.012491059 0.27453825 0.012759082 0.36741078 0.2784588 0.3167563 0.36586958 0.28754532 0.16678284 0.1319026 0.068725124 0.09717573 0.19335349 0.28192168 0.03271948 0.04107566 0.4917757 0.49390247 0.58080673 0.6466766 0.5730526 0.62762034 0.670524 0.71759784 0.67170686 0.6874399 0.74138427 0.7725191 0.73503387 0.6970134 0.7344897 0.7822775 0.7054511 0.7361511 0.7692908 0.6748381 0.62043375 0.6473558 0.72741014 0.59603375 0.5214951 0.41780466 0.36496857 0.4289992 0.48501188 0.27381265 0.4841996 0.45763642 0.4652059 0.11982225 0.48530483 0.4275673 0.42535374 0.043515757 0.5186864 0.3611639 0.32509518 0.45783463 0.3163304 0.25764525 0.15779126 0.37203658 0.17099881 0.067949295 0.068298 0.4214406 0.058281362 0.1521914 0.4748698 0.23968558 0.40388817 0.49898577 0.33633858 0.42831326 0.39743084 0.40986335 0.3513342 0.5357884 0.3085062 0.25441456 0.19487233 -0.13874754 -0.10497618 0.43859172 0.46787804 -0.03496988 0.3898588 -0.030438982 0.31150448 0.11028247 0.08204758 0.33825734 0.34692472 0.4923215 0.44717097 0.14282617 0.053620286 0.02077484 0.004954286 -0.0027573481 0.36075228 0.3850336 0.40752342 0.5535925 0.5567907 0.5824821 0.41453236 0.017663226 -0.086472094 0.20396206 0.34972107 0.41720903 0.4227793 0.5759838 0.59194493 0.6057957 -0.08927897 0.022839174 0.17578359 0.36774853 0.37707865 0.2848415 0.21964604 0.30380565 0.39822868 0.43281496 0.43275833 0.39432734 0.36176378 0.17391214 0.46499997 0.55007464 0.49096775 0.41224033 0.5558872 0.5625012 0.5442329 0.61539894 0.6609506 0.7238945 0.59763217 0.6765008 0.72539306 0.7677921 0.7547991 0.7320026 0.7699849 0.8049152 0.73129094 0.6570535 0.61571133 0.7476142 0.66901016 0.5951979 0.579479 0.53287005 0.37410688 0.42547745 0.46591827 0.41481045 0.4264067 0.4748854 0.38409272 0.36874962 0.29449716 0.28863522 0.25261492 0.26744378 0.17779393 0.03550945 0.02514872 0.050228633 0.04618826 0.2823241 0.35361195 0.07648815 0.31081283 0.30347827 0.3004314 0.32393315 0.3044851 0.23113438 0.17739415 0.43063298 0.5149162 0.51465327 0.52518076 0.44651702 0.46667573 0.3820722 0.36062387 0.3233506 0.12044667 0.3481127 0.34251052 0.38454592 0.5372388 0.5364331 -0.104542375 -0.043453705 0.42202538 0.39474285 0.57593644 0.5920709 0.53448236 0.33849332 0.40181044 0.4229713 0.5826106 0.59155667 0.60141444 0.5361158 0.14907482 0.2931677 0.287373 0.14548513 0.41690785 0.20369329 0.4424188 0.51281285 0.3585308 0.5631943 0.5880211 0.60330904 0.63360983 0.68171275 0.6702018 0.61980766 0.69258404 0.69432145 0.6541935 0.76010317 0.84060436 0.74054533 0.6256182 0.6554312 0.7087623 0.61226296 0.48575562 0.5323609 0.31167763 0.3208761 0.36628002 0.33703646 0.25713503 -0.044530295 -0.16781466 0.38708803 0.33875772 0.20599526 0.25810108 0.19218001 0.12855983 0.002148917 0.014804531 0.1860196 0.15748543 0.12657647 0.06201883 0.2168419 0.22310886 0.14214678 0.24183667 0.16286653 0.12142326 0.17664629 0.34290576 0.5073776 0.57865727 0.042853843 0.47825804 0.5615578 0.5803046 0.56333494 0.44307995 0.5387229 0.36396942 0.403777 0.47017914 0.34438828 0.50643814 0.3546898 0.5510273 0.41290042 0.37992746 0.5483703 0.55773115 0.06676461 0.39634663 0.5666784 0.56422794 0.57771647 -0.068637565 0.037361875 0.23256665 0.36489472 0.16456121 0.18877777 0.389439 0.4318313 0.40975833 0.4543455 0.5873318 0.6250237 0.5928998 0.56024665 0.63939977 0.6413493 0.60931104 0.771693 0.8019134 0.8067099 0.66938955 0.71232796 0.6846546 0.5178187 0.23952135 0.34101513 0.3821708 0.3084566 0.18649945 0.33167145 -0.1578337 0.023079898 0.12296717 0.43800047 0.21784031 0.042601682 0.44829792 0.36501595 0.04960639 0.3982036 0.32370186 0.2783472 0.07787737 0.37088975 0.31662285 0.27677888 0.49832237 0.5380217 0.58361804 0.60309553 0.3089456 0.24751227 0.20910776 0.6055186 0.6226971 0.22569798 0.16591504 0.15299311 0.17863049 -0.07069566 0.5936067 0.60980755 0.1760782 0.23995017 0.5573527 0.21609327 0.4202075 0.4782263 0.53961146 0.3134394 0.5629982 0.55754757 0.56704384 0.5637225 0.25203022 0.5584601 0.5421699 0.44591165 0.18681635 0.27669108 0.05450329 0.2782184 0.32734376 0.25756305 0.3515367 0.3291343 0.34940466 0.28593597 0.35591656 0.38248068 0.47247186 0.446705 0.4004449 0.52406996 0.5448246 0.52516913 0.57122886 0.56194985 0.7496948 0.66082895 0.6758323 0.6695825 0.6539719 0.5574029 0.60398835 0.49053052 0.4998781 0.46662593 0.38286734 0.4049397 0.47498998 0.4845081 0.259339 0.43139014 0.45777276 0.3082076 0.18498993 0.07036017 0.20699933 0.08298709 0.25626302 0.04626575 0.5056679 0.44256812 0.5367786 0.52711743 0.10797138 0.52715015 0.5107241 0.1472486 0.46012855 0.38052908 0.38086376 0.60272324 0.61292005 0.28271663 0.24441883 0.6132783 0.62208 0.24270383 0.19576737 0.61020154 0.16289377 0.1253935 0.13692084 0.5436356 0.11937564 0.13587677 0.25659463 0.4499044 0.28594846 0.63787746 0.16685368 0.5986258 -0.014575213 0.6418042 0.63277674 0.054390803 0.56907314 0.5240308 0.5066719 0.36586678 0.103944585 -0.02388528 0.34252188 0.28693187 0.39385894 0.30257398 0.37768304 0.3265514 0.3524069 0.31172878 0.36787656 0.49668434 0.55905056 0.57712567 0.5983466 0.52710986 0.5425743 0.4994908 0.4859606 0.47666788 0.4208333 0.40485072 0.5008601 0.28418398 0.4791717 0.20697016 0.42397127 0.38523477 0.3305511 0.11609337 0.10994676 0.526841 0.4229543 0.16332512 0.5422418 0.21003945 0.2665458 0.5476339 0.2967487 0.47645 0.39514998 0.050999813 0.521207 0.56733114 0.310091 0.28781006 0.27135578 0.5149582 0.56183285 0.5873693 0.24715778 0.22840449 0.53246456 0.57409465 0.17884605 0.1374324 0.5162555 0.14383142 0.11577286 0.07628308 -0.22548501 0.021737859 0.18130907 0.29551828 0.16494435 -0.06031837 0.6563177 0.63783777 0.5638764 0.4841447 0.36362252 0.026171297 0.24665925 0.17303826 0.34435004 0.2957803 0.6138388 0.33768165 0.36023563 0.20741124 0.3455825 0.4745639 0.41146082 0.32774085 0.5269804 0.5718036 0.60143256 0.60090333 0.5679786 0.5859146 0.5795944 0.53318846 0.43281978 0.6008681 0.59209836 0.35799176 0.5581074 0.33259058 0.50367033 0.31733605 0.38552123 0.24677831 0.32145602 0.095073536 -0.24464282 0.027652547 0.5357326 0.0007920237 0.20745113 0.37791103 0.34944794 0.52815866 0.4294319 0.40438804 -0.0422229 -0.038046286 0.34215507 0.4066734 0.0036326821 -0.06014914 -0.11111341 0.19634245 0.372423 0.41998526 -0.023033248 -0.033661287 -0.1328665 0.4470001 0.50251573 0.27926105 -0.05152627 -0.060995974 -0.09397129 -0.01817123 0.47642958 0.28566593 -0.14624648 -0.18406756 -0.19526908 -0.24006967 0.41528708 0.557503 0.556369 0.4690296 0.20899275 0.1361966 0.01819527 0.083377704 -0.085782215 0.02626588 -0.05568311 0.32747233 0.550703 0.54583484 0.25528997 0.1089943 0.02783914 -0.0064633116 0.015363291 0.054518133 0.27427095 0.29455218 0.1363312 0.14166687 -0.009665772 0.20699954 0.4456073 0.13710438 0.042309172 0.051084243 0.012856841 0.46875542 0.3614633 0.37184376 0.24202022 0.20957609 0.1728654 0.15112202 0.2318941 0.16931838 0.12046537 0.49759814 0.45560548 0.38629818 0.3172725 0.021470658 0.09303239 0.27762112 0.4645875 0.40731198 -0.2688613 0.2947411 0.32840788 0.39670408 0.34219927 0.63494956 0.16237952 0.32119444 0.15461251 0.3798771 0.23816845 0.42148376 0.47748888 0.4925331 0.45031428 0.49897844 0.44538617 0.40510243 0.39979866 0.5453093 0.61460096 0.61407864 0.5520601 0.5971989 0.66681415 0.6829008 0.6173514 0.67901665 0.518867 0.58701235 0.23959807 0.55449855 0.5943187 0.6038059 0.25617284 0.21092156 0.58813304 0.5645364 0.6352152 0.58684874 0.525675 0.62090623 0.6218812 0.5079341 0.42398763 0.6312337 0.6212503 0.38689357 0.6354431 0.5983486 0.33222812 0.4835776 0.18578689 0.25923082 0.065874316 0.12783049 0.027972303 0.41268522 0.008836191 0.2908411 0.41008085 -0.060331896 -0.05425671 0.21943328 0.26100558 0.38304976 0.43784934 0.4510745 0.26195714 -0.24023364 -0.1374857 -0.018118061 0.17348878 0.26202977 0.33833042 0.40288886 0.46689352 0.47856745 0.46695897 0.3080644 -0.11426545 -0.0688158 -0.006895927 0.111963846 0.21426117 0.12351337 0.19699821 0.36778736 0.36643356 0.3989678 0.4371784 0.17758378 0.36557323 0.5278052 0.5259862 0.22109617 0.13917686 0.14201397 0.422858 0.5373685 0.54478335 0.24549505 0.52503633 0.5370661 0.4026041 -0.09152925 0.5129948 0.48480326 -0.00023464859 -0.020891972 0.20812964 0.45819432 0.2381677 0.13000183 0.04692051 0.03134335 0.22003439 0.73349583 0.28574723 0.21906404 -0.04709642 0.5834347 0.70425415 0.7471688 0.71243453 0.5589876 0.47046304 0.29614243 0.29491034 0.27926978 0.3066876 -0.21837997 0.3274637 0.5173348 0.53772724 0.6304472 0.55154073 0.61188626 0.5673009 0.52021486 0.30901414 0.26904702 0.2621131 0.30565202 0.09465009 0.13401264 0.32004893 0.48660606 0.5022223 0.4651817 0.6538826 0.6488681 0.7702787 0.3221642 0.20463887 0.123835884 0.10603593 0.34965196 0.39659524 0.3865815 0.3170526 0.28672546 0.23033816 0.3684792 0.26773682 0.2537263 0.20834374 0.14482008 0.08331099 0.44218725 0.4744396 0.5079769 0.4988895 0.26342058 0.19132948 0.18637888 0.17020315 0.13318424 0.10262148 0.50726515 0.5080038 0.26377177 0.26058385 0.1690696 0.131624 0.31877694 0.3965697 0.42744493 0.3555587 0.1536002 0.42276615 0.4935342 0.4874015 0.47319287 0.59443545 0.5686847 0.49875146 0.6373716 0.6741693 0.6427456 0.56391597 0.6554438 0.62173986 0.3772591 0.5078546 0.57179964 0.4840359 0.41117588 0.58399767 0.6005509 0.490958 0.57200944 0.5455876 0.6540461 0.6572089 0.58985066 0.4944983 0.6476163 0.64722896 0.6480783 0.36022833 0.43896013 0.65773416 0.65730214 0.3791728 0.38329488 0.6484068 0.35370457 0.5464295 0.30818486 0.34154427 0.43732104 0.38862312 0.0038289726 0.12432571 0.23259366 0.21541089 0.025162056 0.08726917 0.010186572 0.048955385 0.28205138 -0.084224775 -0.05752922 -0.01976654 0.020478087 0.19119772 -0.20192903 0.3537096 0.40803477 0.44166297 0.079603665 -0.049563676 -0.059080277 0.30275983 0.38151014 0.43861464 0.45140392 0.28306127 0.021606117 0.047199693 0.27207714 0.31455922 0.39471072 0.3682354 0.36894852 0.42650855 0.3069655 0.10083845 0.12501976 0.24677894 0.3145219 0.23600467 0.24296865 0.31196886 0.3922591 0.36845344 0.34584567 0.49873787 0.19370838 0.15422373 0.16575584 0.15581818 0.216368 0.34696552 0.2784168 0.5230688 0.2381964 -0.21320453 0.5086711 -0.06988467 -0.20414296 0.28650784 0.46565598 0.46914855 0.07603344 -0.075807765 0.30268526 0.06657145 0.050542217 0.017931119 -0.05951418 0.6722325 0.760632 0.8212175 0.76863945 0.49528578 0.10349882 0.12739062 0.5334684 0.7818917 0.6859846 0.5885873 0.57576954 0.5058684 0.3355577 0.5778969 0.6766827 0.68947196 0.16796534 0.34601346 0.5703175 0.56391764 0.63918996 0.64764404 0.23703572 0.17578888 0.5501996 0.66551614 0.7259516 0.7549014 0.27399296 0.4663875 0.46654654 0.71935403 0.71071553 0.6701255 0.58204514 0.34478953 0.3632184 0.67868745 0.7848278 0.78526133 0.7777902 0.24987414 0.12811784 0.32096037 0.7585641 0.73241353 0.66493404 0.74506134 0.7672831 0.78123504 0.22585122 -0.31442702 0.23930365 0.18514079 0.3894121 0.40516064 0.27675563 0.4652238 0.509748 0.52505636 0.2810492 0.118409954 0.24777219 0.17711166 0.20643446 0.14338346 0.29068273 0.3289874 0.22216833 0.31840748 0.35299113 0.4162811 0.25284237 0.3138389 0.35518533 0.5020283 0.3315241 0.37911093 0.38850197 0.5307413 0.59888035 0.48138648 0.31999195 0.3344493 0.41115904 0.6268437 0.6297513 0.5960707 0.4995014 0.40307033 0.41481942 0.54065204 0.5464317 0.41678768 0.4685759 0.5365225 0.5706117 0.5469698 0.49575794 0.59886426 0.61331356 0.53122145 0.5981311 0.5155422 0.5280242 0.52252084 0.6370517 0.61241066 0.3650052 0.42796716 0.6543679 0.6336832 0.58204794 0.28591365 0.38061926 0.60304487 0.24841413 0.31930432 0.37572873 0.55696857 0.5015929 0.30350336 0.3237098 0.35038793 0.35111576 0.06837988 0.024187028 0.050236348 0.21394928 0.2351546 0.061962146 0.14236899 0.15483512 0.12036243 0.05847294 0.044865385 0.0644755 0.08148572 0.02037258 -0.19915494 0.27545536 -0.15511386 -0.13125579 0.33778113 0.0083411485 0.4412654 0.10188227 0.080781154 0.38769373 0.44652456 0.45721567 0.16732964 0.36435604 0.35698932 0.22929186 0.44194525 0.07752112 -0.053535096 -0.038467333 0.2865415 0.25262392 0.19661596 -0.00047262013 0.13571465 0.82275283 0.7708113 0.7339296 0.40452212 0.29902035 0.4167468 0.6824062 0.63282955 0.4964512 0.59284073 0.037515357 -0.12335479 0.55126476 0.6325336 0.72572196 0.4592561 0.738052 0.11147103 0.31074217 0.39476186 0.7740567 -0.0004949868 0.75347733 0.7701725 0.7685852 0.72811365 0.4254185 0.59075475 0.69822264 0.73476565 0.7551155 0.76229906 0.032344073 -0.0027593076 0.63548565 0.6993458 0.7232877 0.32462144 0.2565047 0.25781003 0.2894957 0.35318267 0.40744144 0.31502387 0.3346434 0.35662845 0.39580935 0.3665906 0.34600002 0.38787496 0.38474113 0.43086982 0.40582103 0.4036804 0.5111114 0.43563128 0.444327 0.54608905 0.5744986 0.4817388 0.46356905 0.50299877 0.47932425 0.5475851 0.55819106 0.5948293 0.6583252 0.64184844 0.558839 0.5856018 0.5996057 0.5932683 0.49205196 0.532712 0.5974978 0.61548 0.5724745 0.5954428 0.6004708 0.5308605 0.5289089 0.4103872 0.41440472 0.38003471 0.39108706 0.5719638 0.5215846 0.49173775 0.33727115 0.2882599 0.36508527 0.37413496 0.4678267 0.31403714 0.18026468 0.122389875 0.33040434 0.3337817 0.25299963 0.19650754 0.11714155 0.21702419 0.356946 0.22105417 0.11953254 0.082552426 0.06781028 0.0310302 0.057271957 0.0645666 0.21712549 0.07439097 0.09518323 0.13590053 0.122587964 -0.07466518 0.25686926 0.22016765 0.17791435 0.3110205 -0.13555786 0.3332336 0.31699726 0.36930203 0.3765568 0.29427433 0.3176722 0.2670829 -0.012172427 0.19083495 -0.011656143 0.28224224 0.25831676 0.020381544 0.23507766 0.2787549 0.3306368 0.19955543 0.22014381 0.7375448 0.70667374 0.6512374 0.39808738 -0.343024 0.5597166 0.4822253 0.34368652 0.51039815 0.03212242 0.49608916 0.54797494 0.60840344 0.6323576 0.10286027 0.4867353 0.46228746 0.67575645 0.10544963 0.37189034 0.69950706 0.098402545 0.3958327 0.7048006 0.7355565 0.7540057 0.7094698 0.4132077 0.43961143 0.47662896 0.71198165 0.7391446 0.06685723 0.5107087 0.59059143 0.64717555 0.6923231 0.097688414 0.07458952 0.39062685 0.2518896 0.27888846 0.28135222 0.31517333 0.40112016 0.3628761 0.3342567 0.3904865 0.4077215 0.4358598 0.43112412 0.4869852 0.46646398 0.54566574 0.5801996 0.56921816 0.547987 0.75497603 0.7924426 0.7743641 0.6799736 0.5622784 0.66265017 0.7053394 0.59291595 0.52477956 0.56991214 0.60881627 0.53622425 0.41541585 0.49531633 0.43348247 0.4325087 0.3977892 0.40881532 0.3605538 0.3507746 0.2708478 0.29447702 0.3540432 0.38064808 0.2948141 0.28832173 0.15718254 0.20355307 0.18553236 0.13930675 0.12404522 0.16150089 0.19839717 0.19710718 0.19760564 0.17323723 0.15564269 0.16113195 0.3766201 0.2233864 0.20610446 0.3309044 0.2901544 0.25696295 0.2072311 0.28566048 0.26959395 -0.006884925 0.2506045 0.24014398 0.26716307 0.080230385 0.10711892 0.104736105 0.31693313 0.3200895 0.3263421 0.055818744 0.25453287 0.17851949 0.06234481 0.12748145 0.30008522 0.33000705 0.041356906 0.24311742 0.26440594 0.02250819 0.18854368 0.58771 0.5953687 0.5980933 0.45767546 0.050327785 0.1407463 0.4769557 0.5262478 0.49255362 0.49347532 0.29636165 0.11292921 -0.33784717 0.4729027 0.4704411 0.5283911 0.38465255 0.1058103 0.4493813 0.6045409 0.58266497 0.41671836 0.14012133 0.4194883 0.65505314 0.6664781 0.68086684 0.6682217 0.37571293 0.41320473 0.6892624 0.18714553 0.3726785 0.42294604 0.4937233 0.57712126 0.61809564 0.1707294 0.1438664 0.113568574 0.3031631 0.24096933 0.30350587 0.2809509 0.2971061 0.3022853 0.32904473 0.3003333 0.30534708 0.29201633 0.3071301 0.37371564 0.404844 0.36809814 0.38038066 0.35655037 0.43781924 0.4097551 0.46804827 0.5367584 0.5826832 0.48817152 0.5304162 0.56158596 0.5724512 0.8678965 0.88686025 0.84898365 0.72017735 0.84459966 0.7205215 0.652287 0.76651275 0.60965246 0.58456194 0.4914088 0.47245997 0.5216495 0.2827301 0.399754 0.42426336 0.33372486 0.20894188 0.21916348 0.26395673 0.21343046 0.22833622 0.25406814 0.35515967 0.40650505 0.42057514 0.24030735 0.25857416 0.4226905 0.44241256 0.18700528 0.17320085 0.43299276 0.2468799 0.34483707 0.23655249 0.15669405 0.13222721 0.12880296 0.14094163 0.12027712 0.16285743 0.2804674 0.3094635 0.31677824 0.3261295 0.08058897 0.2590903 0.09688744 0.29999548 0.2790691 0.37736207 0.040645808 0.22658359 0.2393039 0.4007905 0.016598657 0.21046142 0.12074783 0.47405112 0.016670758 -0.1429052 0.36132044 0.42848933 0.4555281 0.50877434 0.07780559 0.20054014 0.059881967 0.05947359 0.12200544 -0.13360251 0.090196714 0.4275258 0.4426386 0.4518373 0.51484704 0.5356856 0.14472763 0.4358687 0.43805918 0.5844752 0.59491926 0.6130107 0.55789447 0.4045896 0.2617534 0.10832571 0.42391366 0.6347798 0.62845045 0.33967757 0.35091114 0.501484 0.41428143 0.12591186 0.13336705 0.27221617 0.08361736 0.2008549 0.07215694 0.042176872 0.100923285 0.08324316 0.19632277 0.22669908 0.37515077 0.45397708 0.47664922 0.37417775 0.5127089 0.47570723 0.4336901 0.42502153 0.38828325 0.5004497 0.5582224 0.45420414 0.5443338 0.5588561 0.92436635 0.8559144 0.79126227 0.8840422 0.9077174 0.8695408 0.78727037 0.6985761 0.7916358 0.8170956 0.83070123 0.7757437 0.693864 0.6846968 0.69946814 0.7242121 0.7145629 0.5944046 0.5769037 0.24836698 0.25844243 0.29154086 0.2666328 0.30087876 0.27498335 0.24926168 0.26075578 0.37114865 0.45853284 0.16030373 0.23805556 0.4534693 0.13044822 0.13874087 0.15872213 0.1433605 0.19464496 0.15093465 0.3395069 0.14296281 0.2627878 0.41566724 0.17206158 0.07336019 0.20301628 0.25566992 0.45846575 0.18280348 0.20430717 0.48716843 0.019536473 0.00017284602 -0.045055628 0.06296613 -0.015029717 0.103517324 -0.18603408 0.48701194 0.481263 0.25103 -0.055626042 0.11800843 0.115198374 -0.15353683 0.10692343 0.30860358 0.37495407 0.3963062 0.5042235 0.50743055 0.45616537 0.4549994 -0.05655442 0.068668 -0.15418184 0.3923173 0.5459381 0.5589559 0.55385745 0.156248 0.1774153 0.14030989 0.18050055 0.39813262 0.40249366 0.19378619 0.16382188 0.2846955 0.23777491 0.21308497 0.3726612 0.5032962 0.36703715 0.33645245 -0.016257018 0.43564007 0.4213727 0.3956642 0.28777787 0.04585187 0.07542126 0.07257047 -0.11856844 0.06992628 0.08851585 0.08327926 0.39861494 0.44222587 0.5432688 0.53328574 0.45439023 0.5436632 0.43507546 0.5317654 0.50734633 0.4345271