# vtk DataFile Version 2.0
Really cool data
ASCII
DATASET POLYDATA
POINTS 3264 float
-15.558625 -1.5850868 -12.184368
-15.610584 -1.397152 -11.829818
-15.603735 -0.59820443 -12.225633
-15.66339 -0.7671038 -11.780851
-15.540238 0.044489026 -11.98137
-15.128418 -2.212028 -12.883816
-15.189283 -2.2574751 -12.288998
-15.237353 -2.1622627 -11.517297
-14.947263 -2.0796666 -10.935659
-15.204547 -1.4236599 -13.0706215
-15.43117 -1.5734942 -12.6913
-15.444178 -1.4568039 -11.373473
-15.394971 -1.2794018 -11.0387745
-15.113353 -0.6868026 -13.184683
-15.425714 -0.20230746 -12.495744
-15.276632 -0.65493166 -10.816502
-14.899079 -0.89119637 -10.1286125
-14.894463 0.17231677 -13.20838
-15.317185 0.18512669 -12.332046
-15.313516 0.19531804 -11.670433
-15.078883 -0.010131806 -10.792055
-14.888327 0.7711135 -12.273998
-14.617931 -2.6698062 -11.617609
-14.127812 -2.8022654 -11.141763
-14.509333 -2.280357 -13.273012
-14.624085 -2.1784186 -10.605306
-14.157375 -2.193631 -10.024105
-13.821005 -0.80035704 -7.4980965
-14.559134 -0.4871716 -13.893954
-14.241456 -0.010844387 -8.228098
-14.111419 -0.36858353 -7.6999936
-13.8436985 -0.2797709 -6.934565
-14.003877 0.13457343 -14.18482
-14.197447 0.57436264 -8.050083
-14.185645 0.58856267 -7.4600554
-13.979707 0.34166026 -6.8980107
-13.994528 1.4241589 -13.195867
-14.34191 1.4109278 -12.54521
-14.319593 1.273274 -11.461133
-14.0261135 1.0859346 -8.790168
-14.11926 1.2207068 -7.590345
-13.876212 1.1676271 -6.926415
-13.75729 1.7724006 -13.064048
-13.920137 1.9730275 -12.349724
-13.803154 1.9838139 -11.649664
-13.720494 2.212939 -8.306915
-13.724547 2.2338672 -7.638435
-12.689211 -5.010937 -15.241057
-12.830967 -5.2357965 -14.534445
-12.8910675 -5.327605 -13.623473
-13.201266 -4.470102 -13.975796
-13.163196 -4.5203533 -13.680407
-13.657957 -2.9316208 -10.683343
-12.905775 -2.4291213 -15.152249
-13.526302 -2.3784485 -14.429687
-13.02258 -2.1971402 -8.231206
-12.669058 -2.6038854 -7.728222
-13.243974 -1.288493 -7.373114
-13.183061 -0.8652928 -6.817632
-13.370036 -0.88434756 -14.9545
-13.616448 -0.19672097 -14.570962
-13.452979 -0.38881046 -6.6715565
-13.137479 -0.076273456 -6.3441424
-13.609144 0.32170254 -14.290886
-13.621538 0.36713213 -6.5344114
-13.186602 0.51634383 -6.2823696
-13.299825 1.5022761 -13.749201
-13.611834 1.3680347 -6.7392054
-13.116098 1.3899037 -6.3707414
-13.199758 2.2272878 -13.155756
-13.503668 2.3557017 -12.439602
-13.379042 2.2984822 -11.574872
-13.338868 2.0401587 -11.017109
-13.450542 2.2728186 -8.906887
-13.582593 2.4925923 -8.454482
-13.513016 2.6223521 -7.6588874
-13.148905 2.4832616 -6.95863
-12.853208 1.8751206 -6.336974
-12.920476 2.6903958 -12.446043
-13.22077 2.852349 -8.451538
-13.184267 2.8957136 -7.6367717
-13.049241 2.7974682 -7.170534
-12.056914 -5.863306 -15.162899
-12.079848 -6.1142344 -14.485688
-12.269672 -5.983271 -13.62271
-12.097564 -5.8634524 -13.116081
-12.099356 -5.1323385 -15.761018
-12.3347845 -5.2932506 -15.505452
-12.353068 -5.5147796 -12.830591
-12.211915 -4.4907994 -15.802618
-12.489622 -4.880998 -15.553995
-11.732276 -4.6232185 -11.921812
-11.791816 -3.9788868 -8.397151
-12.369421 -3.7898345 -15.765072
-12.0922785 -3.2819226 -7.550301
-12.18498 -2.3886738 -15.878185
-12.631254 -2.6984982 -15.605163
-12.526008 -2.7386692 -7.522003
-12.14206 -2.0265253 -7.040487
-12.264762 -1.7083994 -15.917572
-12.49817 -1.2380499 -6.697696
-12.3744755 -1.1479471 -15.687986
-12.098366 -0.6623232 -15.453672
-12.527664 -0.15833727 -6.2268004
-12.34438 0.13162127 -14.6446705
-12.7222185 0.63925564 -6.096911
-12.5250225 0.8182399 -14.38983
-12.442818 1.3804667 -6.130697
-11.944557 2.4821544 -13.590571
-12.586872 2.2838259 -10.977426
-12.509581 2.47589 -6.621365
-12.480187 1.8984063 -6.3378654
-12.317139 2.769844 -13.04003
-11.953046 3.1633916 -12.448921
-12.461027 2.938219 -11.859468
-12.195908 3.058059 -9.295874
-12.491122 3.2178934 -8.15994
-12.458219 3.1946955 -7.6596866
-12.610278 2.897965 -7.0542474
-11.333942 -6.1361556 -15.070709
-11.521148 -6.346085 -14.571281
-11.454204 -6.3271327 -13.647013
-11.343722 -5.989165 -12.88953
-11.6195965 -5.1999006 -15.840908
-10.939958 -5.2649307 -11.674265
-11.476628 -4.6342154 -15.981153
-11.320435 -4.2832627 -8.644674
-11.385397 -3.943491 -7.6871085
-11.210259 -3.7876792 -7.270075
-11.288448 -3.3013198 -15.941133
-11.582262 -3.6414845 -7.345773
-11.488597 -3.337835 -7.072791
-11.701071 -2.2258666 -16.071224
-11.389947 -2.5925014 -6.8189096
-11.6096325 -1.7881079 -16.07126
-11.278703 -1.8461448 -6.78109
-11.649003 -1.1843834 -15.88491
-11.665209 -0.5717678 -15.4236965
-11.353056 -0.4018777 -6.1476583
-11.52789 0.036610037 -15.020007
-11.240364 0.7788605 -14.298143
-11.696334 0.47905618 -5.928364
-11.521388 0.84329754 -14.41192
-11.411961 1.7488136 -6.1069326
-11.437773 2.5983636 -13.713028
-11.061676 2.1289532 -6.4543777
-11.5272455 2.1303382 -6.275453
-11.160041 3.37075 -13.068143
-11.343811 3.4206643 -12.524288
-11.41128 3.2937272 -10.150636
-11.6919775 3.3043423 -9.366252
-11.543403 3.430997 -7.982562
-11.866306 2.9289083 -7.0334935
-10.977054 3.6296873 -12.36829
-10.979059 3.6539557 -11.462871
-10.76902 -6.518047 -14.061836
-10.73069 -6.1902995 -14.957901
-10.6700325 -6.391224 -14.342268
-10.448704 -6.3566236 -13.978506
-10.454669 -6.056322 -12.878386
-10.495787 -5.6084914 -11.974372
-11.099516 -5.0361595 -15.869231
-10.611988 -5.6367974 -15.462272
-10.47139 -5.187314 -10.352063
-10.343084 -5.0921316 -9.451524
-10.278221 -4.6685357 -8.512464
-10.610483 -4.5364523 -15.848409
-10.454456 -4.192984 -7.868023
-10.833711 -3.7990024 -7.21594
-10.595623 -3.5901086 -15.865386
-10.658308 -3.2711794 -6.9832706
-10.714063 -2.2844803 -15.979005
-10.712272 -2.1874776 -6.8176475
-10.916473 -1.6448758 -15.900906
-10.639585 -0.8576851 -6.5425534
-10.685751 -0.8451346 -6.4049864
-10.296447 -0.24068643 -14.573113
-10.74568 0.39624485 -5.840248
-10.12612 1.8899416 -14.1022625
-10.703911 2.516974 -13.92768
-10.766884 1.9894294 -6.1151805
-10.894919 2.9511588 -13.749138
-10.721635 3.3396702 -13.2943535
-10.369575 3.013303 -6.859912
-10.639184 3.5944533 -12.96829
-10.660116 3.7917142 -12.318228
-10.1149435 4.056483 -11.416156
-9.974788 4.1964436 -10.601254
-10.666064 3.7698264 -9.292462
-10.237473 3.7326343 -8.588117
-9.956436 -5.9690857 -14.427247
-9.908265 -6.0006247 -13.604564
-9.829387 -5.8908343 -12.900919
-9.794299 -5.6263723 -11.810732
-10.060014 -5.06053 -15.480761
-9.546784 -5.663262 -14.223557
-9.430613 -5.471747 -11.128393
-9.608917 -5.3590164 -10.320503
-9.565648 -5.2508535 -9.682604
-9.532989 -4.872839 -8.717535
-9.873574 -4.2011547 -15.69044
-9.474466 -4.361379 -15.27564
-9.819682 -3.2935627 -15.689153
-9.540068 -3.661683 -7.676428
-9.811529 -3.287288 -7.2997675
-9.498999 -2.7178824 -15.358724
-9.73585 -2.6677804 -7.0951295
-10.169806 -1.6620696 -15.501029
-9.461647 -1.6034727 -7.433507
-9.713972 -1.1485858 -7.0649323
-10.236666 -1.1103168 -14.969823
-9.376635 -0.50429016 -14.249753
-10.018627 0.07669337 -5.9655943
-9.669418 0.3448609 -6.1124053
-9.497127 1.2921026 -14.001829
-9.492133 2.1781025 -13.946264
-9.835615 2.9686096 -13.722943
-9.2502 3.1529408 -13.231568
-9.029985 2.8251143 -5.7521186
-9.501147 4.1431913 -11.373757
-9.498079 4.2592163 -10.673861
-9.229088 4.0909414 -9.548922
-9.722992 3.941259 -9.02858
-8.904052 -5.315135 -11.524413
-8.21357 -5.056308 -10.267131
-8.670316 -5.05613 -9.824984
-8.444808 -4.8369727 -9.116006
-9.126294 -4.133252 -15.060291
-8.927413 -4.708615 -14.203498
-8.653508 -4.5067186 -8.472387
-9.089381 -3.3768513 -15.223811
-8.752368 -3.6167743 -7.918238
-9.267136 -2.8938963 -15.332789
-8.636892 -2.4971156 -14.570822
-9.174741 -1.9813946 -14.67803
-8.736659 -1.8379288 -14.445679
-9.164835 -1.0211434 -7.239743
-8.150347 1.7032465 -4.7027607
-7.745006 1.5103308 -4.1237755
-8.177523 2.228302 -13.689776
-8.287645 2.618431 -4.8203964
-8.035471 2.2217214 -4.271966
-8.667688 3.0667102 -5.746951
-8.847439 3.5705907 -11.989579
-8.985065 4.1777406 -10.953514
-8.686892 4.1646004 -10.285294
-8.257179 3.9124966 -8.188795
-8.155679 4.050895 -7.143066
-7.801905 9.710042 -1.1847785
-8.003983 9.827248 -0.4768445
-7.809367 9.731879 0.3411423
-7.6235604 9.8985615 1.1371617
-7.6397214 10.3693075 -1.7118368
-7.847138 10.573836 -1.3309819
-8.096064 10.527759 -0.35245523
-7.9992456 10.669283 0.3513565
-7.7519116 10.599689 1.1961551
-7.7643256 11.186942 -1.1469643
-7.854518 11.360203 -0.36258277
-7.800922 11.370376 0.35697234
-7.7146525 11.183382 1.0328842
-7.67952 11.77947 -0.22182776
-8.07468 -5.031276 -11.634063
-8.135332 -4.968381 -9.927858
-8.288577 -3.9096863 -14.011657
-7.5542374 -4.389139 -9.305276
-7.480087 -3.5978942 -8.847839
-7.941667 -3.3673556 -8.12523
-8.229392 -2.5615687 -14.112168
-7.014638 -2.7503147 -8.32096
-7.582205 -1.2704641 -7.864968
-7.9911933 -1.0051014 -13.575757
-6.8358335 -0.45961446 -5.4395633
-6.8096495 -0.37037563 -3.4736586
-7.3561535 0.6800961 -13.810479
-6.8263793 0.15820757 -2.995372
-7.233126 1.5214865 -14.090728
-7.188922 1.5811396 -3.5249612
-7.0204678 1.0657623 -3.1511574
-6.6716723 3.7947936 -14.628027
-7.9174914 3.4990861 -11.412734
-7.1520844 3.2926562 -4.314309
-6.6508384 4.1012783 -14.678839
-7.0137315 3.9825788 -13.018757
-7.291092 3.6554399 -12.941424
-7.2094574 4.2537246 -8.319742
-7.5407853 4.242135 -7.475276
-7.4112253 4.328127 -6.5956244
-7.0745583 4.242863 -6.102046
-6.990264 4.652066 -7.6369643
-6.815942 5.7092166 -1.5143694
-6.7258315 5.898851 -0.95050365
-6.8150606 6.1672697 -1.267033
-6.673806 6.276286 -0.80088866
-6.905569 8.606518 0.35825017
-7.194535 9.773056 -1.93105
-7.580625 9.667072 -1.4958355
-7.5216208 9.449683 0.7628039
-7.3724627 9.903064 1.415149
-7.1254706 9.9453335 1.839947
-7.308857 10.490099 -1.937151
-7.466198 10.675868 1.6351899
-7.2265244 10.627505 1.9094357
-7.319573 10.93226 -1.8355833
-7.5408416 11.222311 -1.4844176
-7.6293855 11.65973 -0.685434
-7.4130416 11.35423 1.4507941
-7.1116614 11.1080675 1.8968642
-7.153154 11.976393 -0.91822964
-7.1929345 12.217177 -0.2506763
-7.2036366 12.288294 0.43346763
-7.0552983 12.098302 1.1667205
[...]
POINT_DATA 3264
SCALARS features_00 float 1
LOOKUP_TABLE default
0.60196793 0.5979495 0.58620477 0.5889324 0.5616698 0.59393 0.59409463 0.5783193 0.5459777 0.58718437 0.59984857 0.59048593 0.5816263 0.5701263 0.5670551 0.56381655 0.4874748 0.5156721 0.54489255 0.54463476 0.52855253 0.49457973 0.5274695 0.45474127 0.546915 0.49947882 0.3939587 0.5130643 0.5108032 0.57024527 0.5821091 0.5940005 0.44150105 0.6484007 0.6787369 0.6521803 0.45666814 0.45640135 0.40885735 0.5683677 0.7099217 0.6997994 0.44287997 0.42670798 0.38907754 0.6282415 0.69315004 0.6992972 0.7663301 0.7533194 0.6545994 0.6585276 0.36069113 0.4360604 0.43364757 0.27705416 0.37822154 0.41998544 0.4790604 0.39764458 0.38817146 0.5556578 0.56331265 0.41767582 0.6345178 0.61573946 0.44347036 0.6880506 0.6345751 0.42752558 0.41517943 0.36749387 0.29216334 0.47559825 0.58236015 0.66706663 0.6612551 0.6042156 0.4070243 0.5502974 0.6418271 0.6533065 0.7977374 0.81579226 0.74816906 0.6482281 0.70844954 0.7335407 0.6186017 0.61928016 0.67213845 0.37901306 0.4443823 0.542961 0.46148872 0.48311836 0.45371354 0.4124789 0.40973228 0.4678203 0.4054314 0.4266259 0.38436884 0.50175065 0.3119706 0.58478606 0.33992562 0.5668131 0.42074007 0.260113 0.5802964 0.568663 0.4191581 0.38208637 0.34852806 0.29772937 0.5396306 0.586503 0.61173797 0.82229495 0.80668604 0.6814406 0.54086107 0.72027814 0.31893185 0.64400434 0.45281425 0.49699372 0.50499296 0.5350096 0.49514365 0.49045515 0.49886596 0.45386517 0.4864828 0.3766977 0.4492762 0.3847909 0.3506224 0.31218562 0.24778756 0.5074438 0.26036587 0.48918867 0.41371283 0.44118008 0.48667592 0.40856022 0.38408834 0.2152119 0.268332 0.44263172 0.5324818 0.3784158 0.31269413 0.69863886 0.79566175 0.731378 0.6700705 0.48557526 0.33309352 0.70546263 0.7874901 0.2576871 0.36536276 0.4699902 0.62373626 0.50986606 0.5066669 0.5232791 0.47462997 0.48140073 0.3724767 0.46307868 0.2709657 0.27398503 0.25171524 0.39077297 0.29503855 0.38601527 0.4029296 0.41363952 0.41434777 0.2870839 0.40283984 0.37330508 0.31335866 0.27735424 0.2536198 0.21243015 0.70941126 0.5791924 0.4325339 0.25577644 0.68075275 0.6795088 0.23917966 0.27990228 0.33833888 0.4455007 0.5380735 0.52808195 0.44831896 0.43529546 0.41198796 0.36831045 0.3270898 0.38241524 0.19099939 0.21243383 0.32854158 0.14896876 0.23807648 0.21845081 0.14798585 0.28437912 0.40700653 0.4202196 0.10932022 0.28980595 0.26818717 0.1740193 0.1645638 0.23552561 0.29376593 0.32870686 0.38701075 0.4706682 0.5418904 0.43210185 0.40041375 0.33967116 0.3699582 0.27621105 0.26018938 0.2085139 0.12878296 0.29343924 0.3254749 0.16858234 0.29134613 0.29929078 0.20634449 0.27381626 0.25446427 0.20462298 0.10120502 0.22050513 0.653539 0.7243079 0.6670624 0.62559897 0.61524415 0.6516311 0.73767275 0.7382659 0.6840403 0.6723316 0.7302391 0.7725527 0.74783367 0.72863066 0.27368775 0.31803417 0.34232062 0.35807198 0.3248673 0.2547303 0.23107296 0.049034685 -0.06177484 -0.013061417 0.029377818 0.31180596 0.17043665 0.30621588 0.22597763 0.30144793 0.302517 0.6511098 0.10647139 0.40483475 0.6739325 0.34194446 0.1948203 0.23864344 0.24627003 0.306204 0.36249304 0.2924225 0.43848246 0.40071318 0.447946 0.37623096 0.389573 0.5175275 0.60170543 0.57714534 0.5963529 0.5800506 0.5799131 0.6736171 0.65627146 0.59382 0.63639486 0.6969725 0.7520999 0.706647 0.64583147 0.69633687 0.74130464 0.77825844 0.69620335 0.5394536 0.55653477 0.5338859 0.54762506 0.5168205 0.30711347 0.3388447 0.33495966 0.30208382 0.2513378 0.2813905 0.28636837 0.18428932 0.35459405 0.30386153 0.28189927 0.34080297 0.24334271 0.23934364 0.3228014 0.29329947 0.23229341 0.26141712 0.08261579 0.25268474 0.2284058 0.18651146 -0.02007258 0.19477457 0.26252654 0.1779193 0.26093173 0.26551878 0.22322401 0.31959662 0.2631653 0.24269289 0.56701785 0.66836274 0.738467 0.68205917 0.096377395 0.2764871 0.29607266 0.45320523 0.38184288 0.36407542 0.7561719 0.7298267 0.61823857 0.47161597 0.3380026 0.38313204 0.29502353 0.2784504 0.64670694 0.29477933 0.30457988 0.25451627 0.31454962 0.3621735 0.4035211 0.5564363 0.48760086 0.6296315 0.4961162 0.7232247 0.56547654 0.6295867 0.7168336 0.7031162 0.61270714 0.66503394 0.6871726 0.44536424 0.49019194 0.5124369 0.49063766 0.5282203 0.5547609 0.5150468 0.4793929 0.4841675 0.5174827 0.47662675 0.47407708 0.4732026 0.47646183 0.44933546 0.24148141 0.35699615 0.10184882 0.1921065 0.02359699 0.11271435 0.21859623 0.2589317 0.13956046 0.030652937 0.1319485 0.2791183 0.18613951 0.030425161 0.13750377 0.12724471 0.209861 0.24035841 0.13465467 0.19324712 0.15058322 0.044648685 0.27425182 0.090815976 0.19282684 0.072053164 0.23669377 -0.20524204 -0.16228342 0.0744105 0.08441967 0.08130754 0.08840401 0.09088829 0.09149706 0.09673242 0.31372705 0.15637627 0.37846607 0.18361773 0.57934344 0.26815107 0.14944229 0.7268312 0.7204274 0.13568051 0.30388427 0.7800946 0.7676984 0.30231965 0.2668649 0.34931087 0.31291634 0.29346752 0.8113444 0.78654355 0.45295882 0.37210956 0.43287444 0.45803067 0.2831734 0.28094578 0.82039726 0.7907875 0.6849096 0.5964834 0.28274167 0.33205009 0.37692845 0.25428915 0.20649296 0.39427474 0.4213673 0.35583013 0.3321796 0.4530222 0.37515345 0.35457906 0.49968708 0.5021255 0.38954073 0.5548464 0.30293506 0.2982422 0.524506 0.59902704 0.6528253 0.5531833 0.5751592 0.62242377 0.47409135 0.29558098 0.34594464 0.40374315 0.49897087 0.5490774 0.34095943 0.41000032 0.48232532 0.51224935 0.6754736 0.40818942 0.6869334 0.690055 0.8464633 0.3337024 0.2236195 0.38817888 0.38209686 0.7606881 0.80137336 0.93575394 0.403731 0.37094015 0.31052572 0.46157542 0.49572432 0.80023956 0.8042271 0.9761492 0.4146883 0.33984423 0.262791 0.011084929 0.015792537 0.03868674 0.45480657 0.4922595 0.4187563 0.03462797 0.043662637 0.040850654 0.45466375 0.46036816 0.031149143 0.04254421 0.1414132 0.049431734 0.13289171 0.28867173 0.18369044 0.17153804 0.1588394 0.05407175 0.1110255 0.253959 0.41421983 0.41699815 0.0872341 0.17215377 0.28391415 0.39434725 0.4521342 0.26042914 0.24788971 0.20028615 0.33602113 0.39915574 0.22016975 0.03968203 0.0019469559 0.2044129 0.09272128 0.09764663 0.25276697 0.08559308 0.40702987 0.11950151 0.59060395 -0.1419739 0.7311415 0.69750446 0.49877435 -0.003984168 0.18490799 0.25273642 0.7994115 0.80655915 0.2598499 0.10825214 0.28106427 0.8309505 0.59406745 0.36234725 0.33526337 0.32293797 0.28521317 0.28115264 0.82491374 0.7908998 0.77425003 0.7198658 0.7794414 0.27940142 0.24987784 0.3054836 0.31865853 0.28566712 0.36150786 0.36088213 0.41587225 0.37258786 0.37824154 0.4351127 0.425081 0.39628437 0.39659855 0.4827393 0.35968423 0.29662085 0.4332223 0.503701 0.3311555 0.3025116 0.30786583 0.44929153 0.342925 0.4172945 0.47916907 0.5122613 0.5196042 0.19871815 0.267901 0.2846858 0.5252202 0.6161288 0.64101803 0.6653786 0.16130263 0.20025554 0.48050243 0.6305531 0.6397654 0.71107477 0.17772615 0.18563361 0.56418556 0.609388 0.6439915 0.3107915 0.25393426 0.54003924 0.550852 0.54517967 0.6712235 0.69921875 0.8804122 0.85804296 0.41110432 0.391449 0.46162096 0.5151001 0.51660657 0.72494006 0.7760219 0.9101932 0.97293663 0.9702619 0.43402565 0.06865296 0.1168711 0.36920142 0.50271857 0.50956535 0.79876447 0.86234915 0.96185774 0.42665368 0.15078224 0.38086563 0.48070928 0.46292987 0.28632927 0.38306555 0.41302305 0.13425782 0.119547635 0.17773226 0.17117974 0.38876492 0.19375275 0.18614165 0.4525587 0.43476003 0.18401022 0.15145034 0.22975373 0.3389721 0.39328676 0.4532072 0.20556235 0.19123283 0.11647426 0.19816592 0.18889135 0.17555217 0.1865788 0.2258098 0.31564835 0.24029124 -0.0029557347 -0.17657055 -0.37589458 0.34656954 0.2034475 0.7079653 0.5389308 0.21223804 0.80636907 0.68283194 0.15850249 -0.19558233 0.2900153 0.82058156 0.7859236 0.8158265 0.82451695 0.8480166 0.872635 0.18874253 0.2566515 0.21376978 0.34655735 0.3578872 0.38203722 0.37144607 0.38725317 0.44409066 0.36388987 0.36415833 0.39229754 0.45552796 0.3625386 0.34572333 0.29819033 0.24744782 0.42758137 0.45187706 0.46960527 0.27498746 0.30233198 0.34110528 0.38210624 0.47414094 0.4595278 0.5623901 0.17366463 0.22291392 0.41000724 0.451414 0.5991062 0.5620379 0.6181746 0.58488506 0.6341096 0.12901273 0.12418374 0.60643816 0.57686365 0.56228065 0.5960487 0.7119784 0.20281762 0.5658268 0.5434635 0.5270734 0.62971115 0.8648865 0.8026519 0.49828994 0.70276093 0.7306998 0.8092741 0.4837544 0.755163 0.8628823 0.9065545 0.86680704 0.3320198 0.36612386 0.19336662 0.2790791 0.23095065 0.22611254 -0.15905868 0.20125327 0.16746275 0.32102367 0.21341401 0.3960309 0.40024412 0.17443426 0.24250655 0.3426904 0.13712616 0.13936344 0.070611656 0.17747173 0.13035995 0.2687485 0.43275785 0.40189716 0.30145717 0.49194568 0.5284658 0.51744986 0.5511792 0.6262821 0.6861545 0.1669879 0.6985246 0.6877848 0.8044908 0.78292966 0.822728 0.9044882 0.8310914 0.29440963 0.8384253 0.87306786 0.9108068 0.94418633 0.17892754 0.09133434 0.053577125 -0.06457494 0.15457469 0.2055513 -0.07230164 -0.035243005 0.3245135 0.34727696 0.3564974 0.37920845 0.38574326 0.36433715 0.30869275 0.22536376 0.68531966 0.6969029 0.5921939 0.64340985 0.66575503 0.32625645 0.34127176 0.4143285 0.4507054 0.4325984 0.49752334 0.44883192 0.43388486 0.4132315 0.42863292 0.4426191 0.46173316 0.34948948 0.34209943 0.1820336 0.33031467 0.19623995 0.22167236 0.2617277 0.05907614 0.10015871 0.541085 0.59852576 0.5663718 0.51670235 0.38633412 0.52591574 0.4499728 0.4538497 0.26867065 0.31217042 0.7210891 0.28741655 0.2517903 0.3772766 0.76404387 0.80766594 0.8558771 0.2713751 0.3688 0.3715958 0.1495175 0.29602113 0.3394872 0.10565067 0.23481016 0.29215196 0.30476052 0.20491783 0.20565234 0.30995685 0.19984809 0.18173909 0.16591327 0.22864091 0.23867407 0.5109255 0.49909356 0.5250984 0.16905397 0.6648147 0.62957704 0.62148964 0.09050135 0.17590743 0.17931455 0.70597535 0.75996256 0.7596523 0.71099466 0.6349757 0.06800105 0.21994379 0.7394979 0.77205026 0.77769345 0.7514547 -0.016075093 0.1992906 0.118720084 0.61163926 0.5959372 0.66795576 0.7131878 0.73455906 0.7498882 0.08789259 0.0072961748 0.10640011 0.81629795 0.8506929 0.16282995 0.16344374 0.51236165 0.09464985 0.53950644 -0.0012827963 0.25045806 0.39866275 0.48300081 0.14259425 0.18074079 0.39543867 0.41910616 -0.031179786 0.34483215 0.3696883 0.38409615 0.38323766 0.36615106 0.14984316 0.4055067 0.70099473 0.7039398 0.710538 0.6668318 0.684605 0.6959199 0.7118181 0.71107584 0.49238765 0.55675495 0.7050029 0.32474 0.29283273 0.35906628 0.3203413 0.15487963 0.22782663 0.06638897 0.42876816 0.2955399 0.27224675 0.3550658 0.4480602 0.23393452 0.15929855 0.23753347 0.30561575 0.5078972 0.59386945 0.38018066 0.38859197 0.66091484 0.19971865 0.34530246 0.3245704 0.32077822 0.31824374 0.28450865 0.21206795 0.26773727 0.22127439 0.18422976 0.120578155 0.4270324 0.41608468 0.17514314 0.09462102 0.12879328 0.1549643 0.33508596 0.43077105 0.45007926 0.4442852 0.4276322 0.18990621 -0.15902302 0.054742005 0.09294995 0.42181987 0.17242385 0.020644933 0.6835115 0.5923979 0.71911466 0.75295424 0.6851877 0.071798496 0.17030874 0.7394209 0.72700495 0.7266754 0.111185834 0.11071165 -0.023404792 -0.11076158 0.12025002 0.12655945 -0.07180016 -0.023284093 0.15860116 0.42877752 0.5238919 0.57668406 0.59886485 0.12970948 0.46583956 0.5122643 0.5587694 0.58733416 0.6018445 0.61856186 0.5460038 0.20256716 0.32038718 0.47413945 0.49442124 0.15253592 0.10295659 0.23682246 0.3445652 0.44995588 0.47541243 0.35000783 0.31397894 -0.05734814 -0.042395975 0.37834954 0.00030887127 0.3986941 0.40478554 0.02430129 -0.007763393 0.3970261 0.2721914 0.08226215 0.6677357 0.6967765 0.7092569 0.711127 0.6493074 0.65136415 0.6847569 0.7091862 0.6123093 0.31470466 0.30379122 0.302798 0.22040337 0.40730065 0.23923314 0.24968687 0.19611955 0.19568488 0.17606324 0.24713403 0.37234223 0.4537225 0.26413515 0.38075992 0.222265 0.32800302 0.13556671 0.2880357 0.18992037 -0.0041308412 -0.18913378 0.09289396 0.058740474 0.22675863 0.25000265 0.37485233 -0.13099262 0.34043396 0.36034778 0.10770349 0.3239363 0.28113398 -0.10178197 0.22600672 0.20033073 0.21398193 0.23089577 0.16518067 0.12272014 0.100307286 0.22283521 0.20824595 0.20352897 0.07570642 0.123355046 0.3924639 0.17681536 0.18352178 0.13878232 0.38197476 0.19316155 0.019527711 0.10602997 0.10208234 0.3765427 0.36178914 0.34260273 0.18526359 0.18294424 0.5821433 0.4616549 0.14688466 0.15812099 0.6696061 0.59123963 0.2952909 0.36433566 0.16067602 0.1860449 0.6845103 0.68165815 0.6530637 0.109366104 0.11200115 0.088005096 0.12347424 -0.06424354 0.31284052 0.5787424 0.65054655 0.14362526 0.012680814 0.09659607 0.31290722 0.53963447 0.60787326 0.66007805 0.6633513 0.68615246 0.62735975 0.16449356 0.5532978 0.22033578 0.49066472 0.49708575 0.40145245 0.4540429 0.47426653 0.3463149 0.10180375 0.3971302 0.4067086 0.27153188 0.21660006 0.39780656 -0.030932982 0.12199795 0.2839042 0.38533145 0.39227593 0.34815174 0.29101825 0.1598914 0.09312401 0.025996037 0.31468803 0.3883403 0.6949487 0.7308948 0.6924919 0.61924565 0.6541691 0.6951457 0.70382625 0.66460425 0.61256844 0.7058202 0.53579354 0.54599476 0.6558061 0.688343 0.69158816 0.6780133 0.6360699 0.44599396 0.39082778 0.33701822 0.62898767 0.6025372 0.34657842 0.33921427 0.30480236 0.365709 0.29869732 -0.028252833 0.046403594 0.43883848 0.33818668 0.3742574 0.38700056 0.34477553 0.3312713 0.034113705 0.10765393 0.43438035 0.42815956 0.38063616 0.62479013 0.07842019 0.13156419 0.109353065 0.27009574 0.03701411 0.10866515 0.25060505 0.1915343 0.07863057 0.071824774 -0.102139995 0.16755465 0.25051188 0.06489171 0.1703905 -0.0003334731 0.18391539 0.14059448 -0.049875863 0.1645525 -0.09152368 0.18976353 0.06576225 0.2797212 0.25790337 0.15901008 0.18356772 0.34525666 0.19808877 0.033792377 0.163451 0.15725845 0.29670218 0.35548255 0.20612913 0.13226593 0.045483828 0.33386245 0.42108887 0.20846587 0.19218722 0.19823088 0.37654155 0.3843525 0.21713765 0.22605552 0.20859593 0.64864266 0.5150671 0.24912089 0.3429288 0.36325574 0.19802219 0.27467924 -0.13368069 -0.15683375 -0.06691605 0.43663722 0.6722343 0.6673914 0.48380974 0.10645678 0.22318347 0.7467221 0.5569334 0.6584215 0.43916833 0.6137374 0.6075742 0.45959413 0.5383247 0.37904125 0.30097362 0.4894305 0.36592525 0.44469646 0.46349555 0.4184115 0.17970146 0.28116384 0.43100733 0.44250518 0.28948826 0.1590751 0.446082 0.43942362 0.41214424 0.33389637 0.31116378 0.34879214 0.03812938 -0.02827478 -0.037771747 0.1125587 0.33007073 0.4189749 0.4567423 0.4566319 0.078592345 0.3202935 0.39644474 0.71057624 0.66804224 0.7056693 0.7036091 0.70258844 0.56486773 0.5690142 0.59501636 0.6411094 0.6424637 0.61975014 0.59957993 0.5851319 0.55874586 0.56995875 0.37482238 0.17752506 -0.040118832 -0.0068539754 -0.005655214 0.0507607 0.08467919 0.42063564 0.38357043 0.40859556 0.412816 0.43943816 0.15917864 0.07326775 0.37733752 0.47401884 0.47875655 0.48733354 0.61686313 0.3197807 0.108613364 0.49141902 0.6822052 0.67943794 0.3814452 0.07059262 0.72611564 0.7156174 0.6695825 0.5494694 0.080589406 0.48487628 0.7026962 0.8003913 0.71437615 0.647932 0.05399051 -0.09994688 0.055832557 0.24360661 0.5713259 0.7205678 0.7491131 0.79407465 0.23386753 0.18302487 0.5531008 0.7149294 0.23951912 0.33837348 0.19865979 0.001495257 0.07163632 0.052502334 0.04628563 0.027232528 0.0108842 0.15678197 0.4754222 -0.057723492 0.18520507 0.19729012 0.202085 0.023944456 0.22840515 0.25519812 0.36586213 0.48814416 0.15633997 0.11648054 0.016155459 0.13917607 0.16519052 0.05450804 0.412236 0.4852519 0.19652581 0.19108768 0.020207196 0.10974966 0.40514717 0.4615432 0.4960786 0.21935394 0.18419446 0.15965265 0.087044 0.24703765 0.4297733 0.3781249 0.32144263 0.40775263 0.4607845 0.22117835 0.2290566 0.19645149 0.24390392 0.2563303 0.27257875 0.54927284 0.3360408 0.3569489 0.4096108 -0.13979305 0.20368809 0.26822832 0.1123137 0.25261506 0.24105813 0.22827224 0.1785799 0.2003051 0.4082651 -0.13957597 0.50743604 0.6265143 0.64098316 0.5406149 -0.22109947 -0.064862765 0.07302652 0.14444102 0.22840516 0.32551706 0.62511396 0.5779116 0.55501217 0.54993564 0.5459133 0.49026048 0.3618513 0.3904481 0.41967118 0.42690894 0.42973727 0.4316489 0.4092734 0.16210742 0.42977637 0.31682637 0.44925898 0.4502552 0.3932812 0.4239266 0.31284547 0.38852948 0.4609167 0.50150156 0.50389075 0.47951186 0.4073716 0.5166822 0.64439505 0.6398638 0.630858 0.6559578 0.65771496 0.6284838 0.5871647 0.59969294 0.67367995 0.52323675 0.4506248 0.61725426 0.60606825 0.4044158 0.001543805 0.58448225 0.5690496 0.5546075 0.3240077 0.07207434 0.076547496 0.43220153 0.452545 0.47692707 0.4625692 0.45330667 0.2713944 0.17031887 0.3855524 0.4116673 0.47223502 0.46546602 0.48202008 0.09331254 0.07209687 0.15216899 0.14907333 0.088199615 0.21827497 0.46291387 0.70942366 -0.15806 -0.08655217 0.40621498 0.46777803 0.6282711 0.6922165 0.7348862 0.39811942 -0.111770704 0.20789793 0.082389325 0.40087122 0.52923805 0.65226245 0.76028097 0.8177479 0.7470579 0.7336664 0.18781035 -0.36074048 0.2630307 0.787815 0.1494229 0.6932296 0.2929342 0.34110552 0.5614017 0.37630016 0.34995133 0.35600454 0.27909988 0.11548853 0.043058224 0.03693771 -0.11362128 0.4822369 0.5262336 0.15306978 0.13428871 -0.020283993 0.45682544 0.51679975 0.5374466 0.070051566 0.11870322 0.13628078 0.1470567 -0.017499084 0.08136353 0.5053762 0.52916586 0.029668454 0.07885518 0.13046059 0.103241175 0.11970587 0.022390334 0.52503526 0.13637158 0.13306193 0.04221649 0.016820531 0.52115613 0.47630957 0.49478048 0.24991247 0.25970933 0.10674849 0.24352404 0.3647687 0.46317023 0.49008793 0.1598213 0.020984486 0.16445294 0.43862396 0.47393292 0.44918063 0.43067324 0.09005318 0.15513651 0.4752826 0.3419545 0.53903806 0.5040359 -0.001724977 0.070033714 0.1726707 0.51641375 0.5201025 0.2965387 0.56141317 0.13442028 -0.06406524 -0.081326485 -0.042694878 0.052725986 0.03464298 0.35476547 0.29697746 0.29385662 0.5491432 0.32172823 0.5083356 0.46149975 0.45337054 0.43576604 0.31467408 0.40159255 0.38540578 0.38105 0.41052353 0.3843308 0.2897321 0.159276 0.123836264 0.37032908 0.29982883 0.42982972 0.19532074 0.40122527 0.5485667 0.54262495 0.5000823 0.4344934 0.33307472 0.56649816 0.56129754 0.5309098 0.47392786 0.6382545 0.63944554 0.67270064 0.5732122 0.5687077 0.5348089 0.41614246 0.36975986 0.122972384 0.033051442 0.4857496 -0.06281644 -0.08439176 0.015198126 0.39164034 0.45215654 0.48760074 0.49197385 0.4727643 0.5170972 0.24523184 0.41516805 0.6778302 0.038289133 0.07437603 0.25870046 0.59832644 0.6575438 0.7303575 0.12799506 0.031034786 0.26444182 0.055129647 0.31786513 0.40534258 0.49986106 0.58054245 0.7072159 0.7733667 0.7426224 0.7452738 0.723663 0.6594322 0.20479421 0.19597796 0.11285329 -0.010584712 -0.10511458 -0.0057537146 0.015754506 0.06731093 -0.02916821 0.21839502 0.76166606 0.7260095 0.2041334 0.64200354 0.36789808 0.38354003 0.55097353 0.38975656 0.36557263 0.09407471 0.23820491 -0.34780958 0.3770018 0.46276933 0.5218843 0.5711595 0.22700635 0.19006062 0.30925304 0.35484678 0.48432827 0.51704836 0.5787917 0.6027439 0.23414358 0.055316705 0.11571091 -0.049466576 0.57063615 0.58972585 0.30234748 0.32691252 0.09365359 0.1394726 0.07595712 0.060773082 0.10512519 -0.04208236 -0.019825159 0.5435879 0.112308085 0.11916235 0.13529563 -0.005902536 0.52698004 0.53083766 0.49003622 0.44427603 -0.017447948 0.3830688 0.496436 0.43426055 0.3154716 0.49068457 0.49639577 0.4799283 0.43043244 0.3634076 0.21801607 0.06400563 0.486354 0.46872732 0.45312893 0.32675955 0.15393779 0.24677932 0.12808853 0.5046946 0.43391478 0.2515426 0.11668149 0.17220497 -0.0070280842 -0.0907683 -0.107851334 -0.044686016 -0.114595056 -0.018393405 0.29026368 0.09474802 0.2512816 0.53001654 0.50950795 0.42934084 0.02278924 0.3104787 0.25921705 0.47379345 -0.08832581 0.24140273 0.28835034 0.30693734 0.40048718 0.37055558 0.349161 0.30588818 0.20820689 0.11082679 -0.0660843 -0.04607018 0.020966295 0.13979185 0.3452897 0.36128217 0.17055464 0.58858943 0.44336808 0.382577 0.6102843 0.61135256 0.57094824 0.47790438 0.650043 0.6465565 0.6515926 0.6019112 0.6064598 0.4828176 0.4584995 0.33053988 0.288865 0.1701122 0.