# vtk DataFile Version 2.0
Really cool data
ASCII
DATASET POLYDATA
POINTS 11463 float
100.47021 -3.1448517 141.02675
100.48162 -3.086697 141.38628
100.47445 -2.8283138 141.55202
100.285835 26.672567 118.62856
100.26598 26.932737 119.402176
100.40577 27.504799 116.34634
100.182465 27.395075 117.92502
100.06377 27.515116 118.61111
100.076225 27.542168 119.292114
100.33583 27.60974 119.88467
100.3859 28.05144 116.54011
100.275894 28.060326 117.62475
100.12327 28.31938 118.607544
100.176186 28.298494 119.244354
100.35706 28.723825 118.37913
100.35363 28.741972 118.965164
100.92116 -4.018786 140.74678
100.910835 -4.255989 141.56761
101.08535 -4.3044443 142.26454
101.050095 -3.4784496 140.11961
100.72049 -3.390532 140.60455
100.594604 -3.4098208 141.47574
100.79264 -3.427202 142.40222
101.17921 -3.2104235 143.07124
101.05339 -2.6879292 140.08057
100.71322 -2.6417787 140.67535
100.59453 -2.5013995 141.29733
100.7484 -2.3855126 142.31104
101.113846 -2.2412806 143.239
100.98179 -2.2344635 140.49521
100.78549 -1.8511016 141.7097
100.90019 -1.6432639 142.5713
101.130165 -1.6478966 143.13245
101.119995 -1.1836656 141.82504
101.19675 -1.0991776 142.55145
101.29971 -1.2309124 143.15408
101.06255 25.956089 116.55839
101.18945 25.716452 117.36386
100.84499 25.96683 118.56994
100.81884 26.138655 119.40987
100.79924 26.278776 119.76288
101.2129 26.748875 115.180145
100.87102 26.653471 115.81806
100.57661 26.60293 116.948555
100.58765 26.381887 117.1932
100.57983 26.408934 119.49763
100.832565 26.803534 120.10625
100.672356 27.666433 115.73791
100.74111 27.464754 120.237305
101.342674 28.61563 114.97483
100.71307 28.426271 115.844505
100.603676 28.338299 116.235344
100.40036 28.44402 119.58938
100.847336 28.237656 120.18826
100.87462 29.169785 117.98994
100.729225 29.029509 118.63236
100.7201 28.935322 119.3224
101.915565 -4.9487076 140.62878
101.565384 -4.912512 141.72667
101.76517 -4.8484845 142.28809
102.190414 -3.9351063 139.31212
101.87241 -4.2944403 139.72678
101.59053 -4.57456 140.36581
101.48397 -4.546576 142.54657
101.80009 -4.251773 142.99988
102.13005 -3.4068496 139.21964
101.42722 -3.7829206 139.79532
101.55079 -3.4013467 143.34363
101.99309 -3.1594462 143.75389
102.14743 -2.6569724 139.21667
101.55345 -2.922192 139.57881
101.345 -2.0602348 143.54337
101.90184 -2.5396338 143.83914
102.00516 -1.0509835 139.82942
101.51619 -1.4674083 143.5107
101.788315 -1.6508266 143.73962
102.31845 0.036594853 138.36104
102.10371 -0.87515515 139.97212
101.70677 -1.0417634 140.59967
101.69363 -0.62982684 142.26134
101.76743 -0.9605458 143.21822
101.98646 -1.1982336 143.65298
102.10034 0.64681566 138.74336
101.94209 0.69426644 139.44977
101.95498 0.023258619 140.34573
102.08441 -0.2730327 141.4085
102.02116 1.146548 139.46005
102.25383 5.20835 105.32674
102.13342 5.660023 104.18201
101.92338 5.839024 104.47491
101.91168 5.764323 105.23035
102.05935 5.765522 105.92847
102.07147 6.322226 104.035416
101.77256 6.4419894 104.634514
101.667595 6.6536703 105.46836
101.79803 6.772789 106.56258
102.025246 6.791735 107.06472
102.17442 7.322322 104.05671
101.870094 7.5326624 104.68932
101.61011 7.357616 105.61656
101.64453 7.491653 106.613106
101.93844 7.5119004 107.255936
102.21597 8.428608 104.7181
101.88417 8.448129 105.595764
101.8065 8.279227 106.49947
101.950386 8.140898 107.08782
102.16815 8.939984 105.46137
102.20114 8.869728 106.49137
101.90259 25.813408 115.69026
101.46841 25.70742 116.224365
101.436844 25.611542 117.48803
101.42111 25.747252 119.151115
101.363144 26.307146 120.1904
102.10603 26.461365 114.66748
101.48049 26.680136 120.3627
101.53077 26.98066 120.59141
101.97195 27.882395 114.10649
101.55544 27.511652 120.67904
102.193306 28.558748 113.764496
101.45044 28.41869 120.42023
101.81227 28.091312 120.66255
101.97932 29.551004 114.71657
101.69582 29.508816 115.39927
101.50749 29.583895 116.06529
101.62664 29.197687 119.52768
101.57341 28.891521 120.06052
102.29035 29.85392 114.42313
102.00704 29.951458 115.50652
101.69025 29.534573 118.2552
102.76466 -4.7937856 139.22733
102.69259 -5.0948668 139.71582
102.28253 -5.2313166 140.4064
102.67727 -5.241991 141.49562
102.634 -5.0447927 142.38048
102.987686 -4.6913905 142.86143
102.716385 -4.5368204 139.1563
102.45334 -4.6766014 139.39362
102.56421 -3.9804149 143.37779
102.61739 -3.4713576 139.01358
102.22569 -3.5260842 143.5326
102.66561 -3.2446172 143.83607
102.83884 -3.015697 138.8923
102.52947 -2.5054128 144.01976
102.48003 -1.7708862 143.91391
102.90482 -0.3263071 138.0609
102.50649 -0.35687286 138.47609
102.5116 -0.4886497 142.68091
102.37528 -0.80931437 143.28365
102.272934 -1.2058736 143.64932
102.63058 0.6598477 138.01385
102.89082 -0.36491585 142.78426
103.010124 1.1550361 137.76717
102.44591 1.1829907 138.31607
102.808876 1.790722 140.29733
103.00226 1.0158489 141.13428
103.176476 2.202911 137.80705
102.57893 2.4775567 138.8491
102.76406 2.4069617 139.51428
103.25452 4.3213186 104.82766
103.14736 3.4087586 137.21637
102.73941 3.4183002 137.78288
102.56706 3.5725741 138.47807
102.67147 3.502106 140.30391
103.03714 3.53733 141.2332
102.98741 4.9695373 104.06014
102.48657 5.249936 104.27094
102.92824 4.832486 106.04256
103.261024 4.525229 136.72748
102.81837 4.3386736 137.7576
102.679565 4.3322773 138.53444
102.68077 4.4574237 140.4471
103.06265 4.340052 141.23898
102.89447 6.08748 103.34183
102.664536 5.565073 103.786964
102.4183 6.2558227 107.1335
103.255165 5.5636673 136.87914
103.033035 5.105824 137.50131
103.18173 5.3625975 138.50706
102.74609 5.1710296 139.86176
103.01385 5.2464623 140.47841
103.22714 4.918606 141.21445
103.00603 6.629839 103.26134
102.53593 6.5002704 103.54412
102.44054 6.846382 107.47276
102.60426 7.0122795 107.684685
103.34773 5.8907957 136.88689
103.299675 5.902128 137.58536
103.3141 5.867803 138.49443
103.20552 5.8065243 139.1647
103.19699 5.8596973 140.03146
103.039314 7.239457 103.350784
102.690216 7.41525 103.65931
102.61114 7.634506 107.76976
102.89136 8.232994 103.95256
102.46839 8.41484 107.396416
102.749344 8.164287 107.72037
103.021355 8.979357 104.329346
102.701195 9.201731 104.829216
102.569954 9.385561 105.32512
102.49199 9.197739 106.25744
102.56728 8.818076 107.021866
102.97727 9.674583 105.398674
103.061584 9.6001215 106.04811
102.46857 25.374945 116.73368
103.21753 24.582623 119.31463
102.25353 25.652555 115.75392
102.95334 25.509354 116.550285
102.92115 26.65649 120.309975
103.440346 27.555445 110.08829
103.300476 27.683783 110.54189
103.27282 27.669651 111.415535
102.16635 27.412159 120.7068
102.99772 28.658783 110.88222
102.49366 28.488195 113.201996
102.54807 28.221365 120.46459
102.25272 28.10421 120.631905
103.33432 29.173597 110.309044
102.97422 29.044588 111.098335
102.816185 29.273287 112.45856
102.49173 29.241964 119.46831
102.708336 30.099464 114.04224
102.56262 29.912455 114.28512
102.46078 30.502827 115.420876
102.30332 29.77729 117.29344
103.26281 30.651415 113.77107
102.87109 30.709415 115.480835
103.14147 30.641108 116.49988
103.8319 -5.686908 139.83702
103.892715 -5.724461 140.61201
103.16143 -5.5348787 141.04411
103.1682 -5.5223927 140.06244
103.98159 -5.0469246 142.82547
103.7344 -4.5120435 138.80984
103.31868 -3.9782724 143.43709
103.475006 -3.4774263 138.70412
103.33552 -3.4160094 143.7273
103.4616 -2.2389605 138.69797
103.218025 -2.3918278 143.97318
104.14001 -1.0211737 105.90993
103.97795 -1.1280344 106.60676
104.109566 -1.0224415 107.368614
103.24023 -0.7339423 138.10999
103.33861 -1.8895483 143.86856
103.84086 -0.35593176 105.71432
103.76058 -0.5395445 106.60202
104.01561 -0.5862241 107.358894
104.23562 -0.5827952 107.67534
103.6605 -0.37486672 137.69565
103.3222 -0.8655833 143.19513
104.42748 0.7349108 104.51124
103.82058 0.19732621 105.864746
103.83639 0.24039716 106.66928
104.19546 0.05623904 107.44716
103.52314 0.3789254 137.42873
103.41102 1.3093836 137.50885
103.664406 1.3124553 141.45982
104.21083 3.046519 104.42057
103.382996 2.2075317 140.98047
103.96363 2.7059076 141.67215
103.71096 3.8415296 104.266495
103.72172 4.058898 106.144806
103.885315 3.55917 136.63768
103.665726 3.4723032 141.8208
104.108635 4.4364533 103.40399
103.45653 4.2619467 104.086464
103.398766 4.7195253 106.80532
103.8681 4.908658 135.96555
103.48037 4.988112 136.29515
103.878624 4.3605895 141.92986
103.64811 6.01589 103.169365
103.328445 5.2310147 107.145386
103.73765 5.554762 136.00554
103.51217 5.513248 136.33269
103.68761 5.2747664 141.38246
103.9164 5.2195954 141.71942
103.65616 6.686832 103.11561
103.92104 6.149497 135.94193
103.69197 6.2778263 136.53796
103.54648 6.3098574 137.5088
103.948906 6.40507 138.72826
103.54518 6.1969237 139.80305
103.64979 6.010865 140.37631
104.00644 5.829604 141.12349
103.49257 7.2615595 103.24317
103.46692 7.7037606 107.841606
104.060326 6.7596207 136.85213
103.9295 6.7646556 137.44304
104.19697 6.9803157 138.02145
104.22351 6.644577 139.1392
103.598206 7.7436132 103.38898
103.524284 8.258604 103.72955
103.302414 8.167733 107.764786
103.29765 8.993907 104.257034
103.65308 9.392541 104.63191
103.43509 9.4801855 106.37897
103.46397 9.158265 106.85868
103.46817 9.683703 105.00334
103.40501 9.74949 105.49085
103.420006 9.686761 105.93138
104.06578 22.321644 119.247375
103.96838 22.58444 118.61702
104.0002 22.606178 119.4912
104.09734 22.679579 119.997955
103.94601 23.679588 117.88747
103.63927 23.342337 118.69705
103.536285 23.369377 119.41318
103.87231 23.626322 120.50601
104.484276 24.488392 109.177925
103.82799 24.366611 120.498695
104.00509 24.675528 120.926056
104.35626 25.898691 108.118095
104.344864 25.827957 108.32125
103.5195 26.086039 114.4286
103.71298 25.067976 120.565315
103.65194 27.130468 110.53754
103.827675 27.017532 110.94796
104.03703 27.91934 109.17935
103.51149 27.866497 109.737526
104.00182 28.062141 109.2374
103.649826 28.251322 109.69986
103.15866 28.257748 120.13
104.12463 29.244379 109.38755
103.8877 29.521545 109.86481
104.04454 29.920519 109.992615
104.19161 30.406183 110.79223
103.66044 30.110262 111.18204
103.53037 30.535402 113.04845
103.50844 30.438637 113.40916
[...]
POINT_DATA 11463
SCALARS features_00 float 1
LOOKUP_TABLE default
0.6329806 0.65748197 0.65322256 0.69771147 0.7664042 0.5453128 0.65619653 0.7341646 0.79659766 0.82823765 0.51344377 0.61037534 0.7136123 0.78245085 0.671248 0.7371647 0.6610699 0.7483522 0.75851476 0.57873106 0.61375535 0.6856954 0.7588933 0.74731374 0.5150303 0.5600928 0.60091174 0.7119756 0.7296188 0.50537264 0.5981873 0.6746652 0.69030976 0.57625926 0.6306503 0.659384 0.53956723 0.53501487 0.6049515 0.6846075 0.72056663 0.55459505 0.56427276 0.5771879 0.57772005 0.72530377 0.7635294 0.50033987 0.8140038 0.34662685 0.4270984 0.45602506 0.81120896 0.8508805 0.5805634 0.67614603 0.7531692 0.6128422 0.71629167 0.66625905 0.47976968 0.5333759 0.6084932 0.69608116 0.63380986 0.45057243 0.54911387 0.69677764 0.667032 0.3799926 0.47670865 0.71383584 0.702994 0.34675416 0.6812401 0.6866782 0.40934813 0.34909517 0.40392238 0.587973 0.6432301 0.660533 0.39115718 0.35664055 0.3322637 0.43556818 0.35759652 0.5921013 0.6127777 0.64076006 0.63897204 0.61270905 0.65623343 0.69113344 0.7161345 0.7167978 0.71851194 0.68427134 0.76695865 0.80088234 0.8117312 0.7940967 0.7836814 0.8563444 0.86514515 0.83188665 0.8256444 0.83156896 0.48839295 0.51436317 0.5095984 0.5320426 0.67903376 0.5174625 0.7067228 0.7304388 0.35328287 0.7631389 0.2831885 0.8102689 0.7657161 0.328805 0.34597865 0.3790281 0.73202896 0.7931012 0.33889368 0.35390186 0.5503721 0.47440937 0.50314736 0.55019146 0.5564451 0.529728 0.45700333 0.46275115 0.49750793 0.5313906 0.39992428 0.6116448 0.59284335 0.32337418 0.67191184 0.6765454 0.36554462 0.39104724 0.5848874 0.6289781 0.6532466 0.40554562 0.556489 0.37034205 0.38970065 0.28385806 0.17707984 0.29565465 0.36442146 0.3571166 0.50100696 0.33410826 0.3453158 0.36199304 0.4112339 0.39274395 0.52130413 0.5700351 0.5112013 0.43304706 0.40378946 0.399714 0.47950286 0.46761084 0.58680063 0.5734768 0.5946535 0.4769801 0.43403724 0.40680298 0.4477222 0.4623772 0.47732025 0.5917422 0.6253794 0.6910502 0.6925397 0.48913366 0.449791 0.40604126 0.3968948 0.4160974 0.59313846 0.62725073 0.7526696 0.65341157 0.7860491 0.74554205 0.71521294 0.7754087 0.7974634 0.8091152 0.7896863 0.78001416 0.77835745 0.42316887 0.43387425 0.44618952 0.37567297 0.4728315 0.47793025 0.505499 0.46450222 0.6852112 0.5088971 0.2578346 0.6845059 0.7196417 0.54885566 0.5126108 0.32250345 0.63091004 0.344637 0.3435872 0.36461684 0.3932345 0.32607794 0.37594926 0.3540147 0.3678244 0.35481462 0.46154162 0.45418447 0.34027302 0.36251476 0.44090852 0.29810613 0.49131513 0.13644522 0.6223583 0.7865186 0.83636576 0.85645735 0.28038847 0.62851906 0.7863909 0.8332369 0.85377896 0.85457754 0.29423815 0.568396 0.5009042 0.7813644 0.8013686 0.8142763 0.34338558 0.31998807 0.11583182 0.25409132 0.22532661 0.26358515 0.36959493 0.40380976 0.3279382 0.37749624 0.41956502 0.43617025 0.38878286 0.46894962 0.4681779 0.44155568 0.5384369 0.37301558 0.5276711 0.5049352 0.4642917 0.45630056 0.54894006 0.57388204 0.53078264 0.45670795 0.36995232 0.38137615 0.41157827 0.43498814 0.5638168 0.5959344 0.5068519 0.45421326 0.3980956 0.32443246 0.5605179 0.5912727 0.65864766 0.69248927 0.70516574 0.7463521 0.7198901 0.7425066 0.7614844 0.75962317 0.46607044 0.4593175 0.49441203 0.5278807 0.39150062 0.49415773 0.53431666 0.56981003 0.3687514 0.5199028 0.47262532 0.2778378 0.2836029 0.3291107 0.41246057 0.4068873 0.34367937 0.40762597 0.4787592 0.4296385 0.49195084 0.5590787 0.5284668 0.54809904 0.5411886 0.45048586 0.4760403 0.3074829 0.3120377 0.31105697 0.34615654 0.29822865 0.31049785 0.36891347 0.35529888 0.23078167 0.23255178 0.2608127 0.30425733 0.20555171 0.3125173 0.3267194 0.31023535 0.20274308 0.16615546 0.47728032 0.77202755 0.826898 0.88798416 0.006013397 0.4623712 0.5369462 0.74103844 0.8041451 0.8519046 0.8520125 0.8848915 0.8833114 0.119947284 0.50002915 0.5400173 0.8422519 0.20360926 0.78677315 0.18731612 0.047792632 0.4905944 0.5695712 0.56509614 0.5031759 0.5425549 0.17410435 0.122078404 0.29276633 0.30640495 0.3481847 0.34283805 0.3720377 0.31310436 0.4276448 0.41560268 0.39146692 0.3805245 0.4958609 0.35952294 0.40180388 0.5355175 0.39910716 0.5085594 0.3789186 0.6231555 0.6196322 0.30499947 0.39963818 0.3795313 0.50666595 0.5945569 0.5060127 0.40528244 0.34459662 0.3064533 0.5310271 0.57473654 0.33769536 0.4233851 0.58398664 0.6475738 0.6711103 0.6367247 0.71802676 0.37866342 0.42441797 0.5074087 0.36462313 0.40368623 0.40793735 0.45842987 0.4119017 0.45156005 0.49230665 0.47105634 0.38550246 0.3984778 0.55661905 0.5872842 0.5609194 0.33251405 0.3782683 0.41115522 0.392476 0.41533327 0.33944383 0.5437448 0.29941985 0.3575002 0.49961847 0.4912818 0.31067654 0.3048389 0.26608735 0.13842544 0.25134262 0.408967 0.308949 0.28111637 0.0339773 0.26963896 0.2729323 0.18210645 0.34371442 0.5161755 0.18490586 0.54459506 0.520926 0.44766328 0.44130442 0.34627706 0.2839547 0.2641669 0.26298016 0.25538296 0.3886482 0.34776306 0.2944705 0.25485015 0.48999864 0.43964657 0.36085546 0.16645858 0.12207286 0.4959203 0.460527 0.36781093 0.20764577 0.2206977 0.22531329 0.19732878 0.46474493 0.4525208 0.20778495 0.22887456 0.4113443 0.33544973 0.23317184 0.84017307 0.8386879 0.76995546 0.723989 0.16519293 0.277879 0.46728927 0.6683872 0.8666409 0.8789619 0.8332399 0.7404469 -0.06199427 0.47067744 0.82266825 0.82747114 0.81553584 0.86687404 0.8643446 0.8414534 0.7275476 0.09745598 0.43471593 0.45810717 0.7869406 0.80706537 0.8218498 0.78602135 -0.015244354 0.45122123 0.6800102 0.7243736 0.4303019 0.5744706 0.18215293 0.1946606 0.45388147 0.21012537 -0.017282711 0.29788244 0.162894 0.31260455 0.3347745 0.35886586 0.33212486 0.42257547 0.38300696 0.53875744 0.34360808 0.33975655 0.40563262 0.7630917 0.6024792 0.32313278 0.45653516 0.23879 0.7430365 0.7750063 0.77647644 0.60839206 0.5789305 0.47410172 0.35893226 0.29319018 0.1961386 0.23532055 0.39645943 0.11107227 0.1524547 0.29998392 0.67455006 0.72553474 0.7442183 0.72566366 0.49674523 0.45334587 0.38650244 0.35319066 0.39066508 0.6748553 0.6961204 0.71076304 0.5895524 0.6491525 0.26539093 0.47723466 0.43594432 0.44600704 0.4955698 0.51263016 0.39144513 0.353844 0.31856287 0.30587283 0.22583431 0.5049593 0.42401195 0.43377647 0.51188236 0.49492246 0.4227885 0.36693478 0.33899838 0.44214594 0.48693514 0.39777273 0.4128055 0.4051696 0.40023357 0.5711638 0.46114278 0.42174363 0.3334964 0.33169657 0.3556555 0.52341354 0.5223439 0.39205423 0.30986884 0.45995903 -0.27216327 0.3946405 0.3661725 0.23701821 0.342146 0.31993517 0.12976263 0.4826998 0.39285928 0.34136626 0.25032076 0.2248159 0.34102416 0.23824035 0.2698483 0.36165023 0.34123132 0.313913 0.44383514 0.41112983 0.36242002 0.31447256 0.26061964 0.1486812 0.025941595 0.49033257 0.42514026 0.6848669 0.68417764 0.67889893 0.48584363 0.50304145 0.16809852 0.16819885 0.6804672 0.6698634 0.45151675 0.45123053 0.18381432 0.65460026 0.6648687 0.6709261 0.3762151 0.1417006 0.7390684 0.74967736 0.70769393 0.6686385 0.33859664 0.3419397 0.28260562 0.33570176 0.35396206 0.5403553 0.75208074 0.77665615 0.6713832 0.30508673 0.17719804 0.06886217 0.5697849 0.7148234 0.6777481 0.45849788 0.4495657 -0.2251242 0.38532877 0.69139373 0.5176147 0.67072546 0.739123 0.61341774 0.55461586 0.3463556 0.52290964 0.6000633 0.6508141 0.6219464 0.19560894 0.19342527 -0.15027726 -0.10087798 0.35682777 0.55164075 0.5492792 0.17211226 0.19256993 0.19363496 0.14500949 0.15235892 0.20446774 0.20438853 0.19714786 0.06234151 0.19310212 0.4549763 0.49060318 0.43366003 0.22693652 0.251895 0.25390688 0.2577924 0.49199674 0.5138171 0.4605792 0.37705037 0.17627186 0.32169542 0.29123777 0.24751322 0.47952887 0.48244613 0.446508 0.28319988 0.3619061 0.21208447 0.6678673 0.70941705 0.75557345 0.43726444 0.44032967 0.46734017 0.25260976 0.26185966 0.2894011 0.770154 0.7753112 0.5405024 0.5062555 0.18944934 0.20557281 0.21566917 0.29837024 0.75627226 0.4234467 0.38543978 0.31891227 0.22008413 0.10347083 0.24159715 0.6698266 0.7089395 0.73976225 0.176729 0.19350393 0.19535436 0.26245207 0.33921403 0.5371089 0.6263399 0.6846136 0.7283691 0.2039364 0.60593504 0.37683755 0.37312806 0.49455592 0.5296722 0.35019463 0.25830787 0.61487865 0.53662074 0.48018897 0.46737814 0.507816 0.47409952 0.3795339 0.3601056 0.6468977 0.5741022 0.43432468 0.41815385 0.62706053 0.53483176 0.41044176 0.36058992 0.54595524 0.6233422 0.22842197 -0.03266649 0.35023218 0.4739057 0.63597375 -0.23643792 0.20248404 0.6537869 0.47410148 0.43232 0.06408575 0.3296732 0.32528743 0.32242176 0.16216731 0.337063 0.39643744 0.33915493 0.33322123 0.31556723 0.4456719 0.3286042 0.43169293 0.48235324 0.4991439 0.51422775 0.47193453 0.40752882 0.44325647 0.42599282 0.3794148 0.44156617 0.40880874 0.36757714 0.41398787 0.4097081 0.382346 0.47672212 0.46197176 0.44031742 0.5258664 0.5209027 0.32269984 0.31056094 0.3009004 0.3094153 0.26662242 0.3636214 0.44832405 0.52089214 0.48709488 0.38223672 0.40488756 0.3659128 0.19684437 0.06384045 0.07927561 0.6966436 0.69085133 0.69388586 0.40540493 0.4636095 0.43644714 0.45881498 0.09939591 0.70824146 0.6984432 0.69473916 0.6928197 0.62196827 0.37987208 0.4640648 0.7041059 0.6880721 0.5983145 0.49702752 0.3457511 0.4013127 0.62135315 0.5594172 0.33339694 0.58904487 0.6803708 0.57340944 0.43276328 0.27053457 0.015558794 0.36788073 0.14356913 0.51898813 0.491619 0.39124224 0.46162993 0.48030677 0.41106898 0.26844114 0.2940595 0.5043649 0.46324298 0.44222677 0.46074882 0.4758139 0.4421943 -0.018387668 0.46346575 0.5179751 0.39564306 0.35924548 0.40162453 0.402616 0.34507257 0.17201743 -0.26871264 0.4890781 0.557034 0.46984714 0.22708756 0.28563893 -0.14966835 0.2230478 0.20218246 0.18124844 0.018664036 0.29012734 0.4316889 0.5375875 0.5452129 0.51386786 0.32271177 0.1151265 -0.014438346 0.04944568 0.45179302 0.3669452 0.17869061 0.11426405 -0.0131405 0.106129214 0.1308355 0.01693739 0.36941975 0.4303231 0.31830516 0.20712657 0.1675475 0.15038915 0.39579916 0.32863656 0.18708448 0.0807001 0.14010885 0.07239822 0.32146978 0.37588906 0.42977053 0.38252527 0.32719743 0.2106084 -0.00046306849 -0.06102836 0.19917402 0.20762835 0.31603754 0.4848401 0.5724378 0.6357798 0.35304815 0.39236262 0.40284425 0.38884377 0.32658744 0.2671096 0.18334943 0.28559786 0.68743277 0.7377708 0.34463203 0.37530667 0.36859024 0.22543415 0.19987036 0.7794212 0.7826699 0.35536265 0.3621708 0.34201047 0.30797237 0.28535706 0.21677789 0.1893028 0.22204913 0.76923907 0.1596511 0.15898684 0.7188692 0.7242615 0.15195 0.14590278 0.17687482 0.19093108 0.58654344 0.67959493 0.23782142 0.297334 0.3079644 0.22760141 0.24478784 0.3769877 0.2426787 0.31878698 0.35604596 0.36536098 0.36929804 0.34013838 0.35293913 0.39678124 0.4249527 0.29338217 0.35897294 0.37512392 0.36736074 0.35805193 0.33184165 0.4042924 0.2843036 0.35861832 0.3723551 0.34843493 0.34272382 0.32246876 0.3680586 0.28582847 0.20120512 0.68908894 0.6673069 0.6348784 0.30906165 0.24618274 0.16930959 0.070702046 0.69893694 0.6836686 0.34142554 0.32713968 0.10332775 0.70841205 0.6880915 0.32316273 0.18970154 0.09200682 0.7111949 0.68960655 -0.061325118 0.73108864 0.7121495 0.734574 0.7118694 0.08646187 0.08804736 0.4859181 0.4246095 0.27124107 0.28137067 0.14800408 0.30003846 0.3037653 0.24732968 0.30378076 0.31566507 0.2913462 0.43697882 0.5386081 0.5580022 0.5537003 0.5661316 0.55085254 0.58899003 0.75469226 0.7205557 0.6591219 0.705063 0.7222918 0.6865621 0.5705879 0.5415853 0.61253995 0.6243002 0.5178759 0.47885054 0.47575486 0.4868338 0.47676706 0.4011119 0.37506 0.3637678 0.45988297 0.45431027 0.3657498 0.30317956 0.31284532 0.43676603 0.45392805 0.23368749 0.2668179 0.37929374 0.3864656 0.36406723 0.1667871 0.28474423 0.2933881 0.34013206 0.3266574 0.30932778 0.117920436 0.12893279 0.34985325 0.34769303 0.328651 0.26157525 0.19605708 0.06924998 0.123880476 0.3648715 0.38473895 0.36551636 0.18940267 0.21950805 0.24915494 0.253827 0.3860789 0.29188907 0.25812703 0.24373293 0.22442558 0.26028076 0.24449782 0.14780025 0.09674916 0.1305401 0.16646187 0.63970774 0.3128335 0.33636245 0.27488276 0.29773188 0.10610957 0.22550887 0.30367255 0.6936903 0.68228114 0.66376543 0.63623744 0.3086315 0.3678781 0.32730487 0.32050133 0.19334382 0.32575268 0.49233449 0.7041812 0.4855201 0.41096038 0.37636483 0.17022815 0.31987247 0.2890351 0.21558756 0.11498008 0.141239 0.40611207 0.5804336 0.69853973 0.30887973 -0.05388213 0.21084824 0.21236078 0.23429671 0.14793964 0.12978676 0.46065277 0.5363003 0.6786848 0.24204148 0.012314826 -0.045790408 0.25866738 -0.07075408 -0.058482826 0.20182228 0.17585462 0.15767601 0.42781624 0.09131809 0.010714889 0.22499791 0.27671024 0.0984759 0.015336156 0.21114059 -0.10804543 -0.13086018 0.011040151 0.41032624 0.09980665 0.35515967 0.1292307 0.02389139 0.2012051 0.30142927 0.40617338 0.10378667 -0.09347619 0.12872535 0.12907884 0.2583385 0.38391662 0.29013234 0.3426244 0.19845065 0.1714478 0.18387173 0.27124146 0.33127943 0.43183184 -0.005510077 0.21134779 0.30937186 0.26907527 0.23947063 0.32883808 0.43411475 0.48619482 0.042531177 0.3063607 0.29926428 0.29852808 0.30979928 0.16017549 0.2429722 0.23247327 0.2004304 0.028257802 0.0023768768 0.46785098 0.24232599 0.0069726408 -0.08214531 -0.15135537 0.0022734255 0.39864266 0.42963862 0.48569405 0.5066433 0.54466635 0.24859095 0.30755985 0.2842476 -0.014731338 0.17001036 0.5524876 0.6185403 0.23382017 0.28330296 0.3159815 0.33454388 0.2531562 0.1160263 0.2642744 0.38167053 0.71191055 0.76828015 0.32271537 0.35475343 0.32564038 0.20342156 0.16671373 0.17980057 0.18448637 0.19113901 0.31009862 0.34173033 0.7843479 0.33280754 0.14598513 0.7862754 0.17623599 0.17490537 0.14757201 0.12693426 0.12985092 0.55670995 0.7027836 0.039214883 0.058306627 0.20480415 0.08302608 0.11213677 0.055438176 0.18389495 0.1693869 0.20746553 0.09015096 0.06801779 0.17329784 0.27433556 0.33725905 0.17768194 0.19002186 0.21064258 0.23633248 0.11255419 0.1675889 0.2698825 0.3579806 0.39904997 0.40639368 0.18006906 0.39804417 0.4303867 0.42523348 0.1781373 0.18156642 0.21927443 0.3703184 0.42776173 0.43488955 0.19669029 0.28531697 0.3579855 0.3886734 -0.0889381 0.2142874 -0.08971913 0.07382409 0.7278911 0.7274504 0.68252915 0.5631412 0.21667975 -0.14628917 0.7238432 0.73311687 0.4821735 0.36016795 0.23826364 -0.09888503 -0.18075164 0.7239764 0.72236514 0.7361491 -0.069278374 -0.07863146 -0.16015299 0.7356852 0.122859344 0.21194619 0.72887576 0.6969285 0.2169343 0.2894104 0.6606295 0.59591013 0.39253062 0.36796695 0.39192456 0.21876997 0.39364982 0.2628997 0.24971333 0.4045342 0.25897196 0.28120404 0.2603171 0.14297283 0.2856258 0.2760443 0.25919792 0.29382157 0.34090722 0.4851134 0.5830455 0.58800995 0.5870564 0.6013835 0.6423738 0.6308155 0.6410148 0.6071382 0.62687033 0.71780014 0.756027 0.7266563 0.6488733 0.5838912 0.6588709 0.70458555 0.59760284 0.5474265 0.5235531 0.6521993 0.5660932 0.5031194 0.58986276 0.42930382 0.45597124 0.5956241 0.4541189 0.35034195 0.3085708 0.40241846 0.18192554 0.19770955 0.33101547 0.21955578 0.22406167 0.20623913 0.17268836 0.17203128 0.23279738 0.284653 0.1392321 0.2738798 0.19985771 0.27105302 0.20403771 0.18139972 0.0677344 -0.098812535 0.15906529 0.25160438 0.32570302 0.32153612 0.12211372 0.122444525 0.15080783 0.12915957 0.15193099 0.15482281 0.04525596 0.052204803 -0.10446389 0.19696972 0.27365157 0.31547785 0.32595336 0.004184112 0.07689719 0.279906 0.38777167 0.62404734 0.63713807 0.65881944 0.15153572 -0.035460785 -0.07834058 0.16167 -0.14832586 0.14813592 0.170793 -0.030155227 0.042861372 0.4395872 0.49995315 0.6676636 0.62652695 0.6258557 0.6077267 0.51575965 0.50656307 0.39053327 0.33347434 0.23233902 0.15096611 0.09887165 0.07341924 -0.2376644 0.5163982 0.59016204 0.66810954 0.45085204 0.41185805 0.47791287 0.461671 0.34795827 0.17532143 0.04034145 0.121585384 0.03507025 0.59996486 0.66604674 0.6801598 0.6735076 0.32097864 0.2706108 0.49472356 0.50863874 0.4233455 0.3202749 0.10463926 0.12263704 -0.16910498 0.041533954 0.08370843 0.063122734 0.2501792 0.5966368 0.64914846 0.6059418 0.1786917 0.23438822 0.47989723 0.36827603 0.3383979 -0.19190167 -0.16707727 0.03242535 0.054434266 -0.041801084 -0.31158775 0.3302785 0.49443856 0.60046417 -0.17743659 -0.09318282 -0.091474116 -0.58791304 -0.0769323 -0.003020279 0.23025353 -0.18279666 0.21069947 0.19458838 0.19905925 0.23125267 0.1530951 0.22142532 0.14976972 0.2523354 0.24353683 0.14902489 0.098677665 0.37251684 0.2363241 0.2212563 0.48360115 0.19719256 0.24620675 0.45889518 0.312483 0.5840836 0.61982214 0.6400086 0.53810394 0.33683705 0.590395 0.6381893 0.4051623 0.2979554 0.6537292 0.5581893 0.4413398 -0.05025629 0.21382952 0.4952508 0.485543 0.44185483 0.22099295 0.6199515 0.55099535 0.41949072 -0.21997659 -0.17480724 0.024138303 0.5132304 0.31460744 0.42609274 0.4501033 0.47434044 0.49307555 0.5402136 0.3225073 0.05849209 -0.20514075 -0.26468948 0.21589032 0.446098 0.46112305 0.051899508 0.123638235 0.19520181 0.027718393 -0.1481559 0.05450941 0.32905307 0.42238808 0.5597862 -0.109396614 0.08874317 0.27437925 0.19011676 0.07333044 0.051923245 0.0970015 0.18683453 0.30084884 0.33589652 0.39531773 0.38391173 0.74027157 0.04027678 0.08924408 0.24158381 0.14306311 0.112253755 0.17711464 0.37254027 0.7923156 0.158351 0.118485734 -0.024063187 0.021389168 0.075144775 0.11315197 0.10122664 0.030005038 0.16186309 0.30345201 0.18245643 0.1784824 0.17029384 0.14423609 0.010215804 0.032314587 0.088282295 0.11124697 0.15615068 0.619167 0.40013543 0.33637112 -0.09954432 -0.013615191 0.17959666 0.03424452 0.31721336 0.34838864 0.49465263 0.51728123 0.43868497 0.14301638 0.01085606 0.15017611 0.16897713 0.35949653 0.506198 0.2832939 0.14052358 0.16557968 0.1735903 0.38158274 0.368555 0.5920282 0.19423345 0.40370327 0.3845383 0.22764584 0.2719984 0.34382296 0.37864053 0.022107206 0.17216954 0.2519428 -0.21907546 -0.20959802 0.5638411 -0.27108085 0.7358316 0.73719895 0.5548146 0.35330778 0.057374477 0.2928132 0.3995779 0.7279654 0.2285971 0.049315244 0.11008088 0.34247312 0.3887881 0.7300712 0.7107569 0.047742903 0.29404384 0.3571855 0.72413313 0.6897453 0.015231788 0.20539325 0.25025925 0.3062399 0.6729275 0.5418379 0.29240912 0.24883263 0.29221225 0.60267025 0.34984267 0.21416156 0.36208493 0.35612738 0.19295076 0.4405242 0.422303 0.22586069 0.1942624 0.12077514 -0.04933044 0.43264157 0.4382103 0.24843657 0.23521571 0.0037589436 -0.093776286 0.33996877 0.49871057 0.54084694 0.49465683 0.6416961 0.607656 0.6315534 0.6745862 0.7109008 0.63073957 0.65087974 0.40932465 0.4080363 0.40206432 0.40400022 0.40067777 0.43246108 0.4240267 0.42307597 0.41405994 0.3868632 0.37505484 0.4241774 0.41951463 0.38916916 0.3827641 0.36925268 0.34285533 0.5781422 0.4727447 0.7454625 0.72211826 0.66243297 0.5149539 0.37561542 0.7029401 0.7007371 0.6773369 0.6302614 0.55693734 0.5402588 0.76315075 0.74714386 0.6924864 0.5623065 0.40466872 0.33636355 0.57553756 0.49700224 0.7721043 0.7663835 0.6948106 0.5793556 0.44787857 0.40465096 0.32686985 0.37086105 0.47682723 0.41520447 0.35299793 0.7669818 0.70330954 0.6243473 0.49726522 0.48815846 0.2697133 0.15739572 0.7397372 0.67121583 0.59939456 0.4768326 0.18210581 0.037997805 -0.038714327 0.112181336 -0.021422043 0.11635172 0.0047163516 -0.011399845 0.2066369 0.4255618 0.099356614 -0.09098591 0.12969261 0.20625861 0.22577696 0.0826729 0.16976108 0.30857986 0.07683101 0.26067227 0.20701036 -0.08642852 -0.12991554 -0.0711752 -0.07856656 0.016849698 0.030768864 0.06710542 0.11357709 0.024805402 0.0016603097 -0.026339397 0.20692751 0.5898359 0.64926994 0.6790591 0.66590667 -0.02160976 0.51285833 0.5480923 0.61361873 0.5542636 0.26611286 0.6188227 0.6507499 0.6203158 0.47595978 0.3868659 0.67558277 0.3872378 0.4179397 0.6412606 0.6600178 0.4602546 0.4148059 0.39176467 0.48943973 0.5624566 0.34104514 0.31025118 0.19166759 0.13097322 0.40508145 -0.046592377 0.08508016 -0.07777654 0.048468206 0.04502154 0.15428692 0.022063404 0.36792153 0.22804496 0.23461552 -0.054667242 -0.092921376 0.3973902 0.22948861 0.39975515 0.3611149 0.49918926 0.62285924 0.24139336 0.605207 0.4752163 0.694393 0.13713463 0.405