# vtk DataFile Version 2.0
Really cool data
ASCII
DATASET POLYDATA
POINTS 9070 float
71.30957 17.176641 95.47611
71.29156 17.112478 96.059685
71.112206 17.91941 94.73939
70.95119 17.72589 95.5982
70.99023 17.803335 96.243675
71.253845 17.84614 97.01598
71.05672 18.870945 94.0239
70.90101 18.509438 94.71526
70.785576 18.455246 95.54976
70.897514 18.43603 96.40745
71.18033 18.56041 97.04538
71.061966 19.515577 93.652855
70.70714 19.700161 94.45042
70.73566 19.451668 95.40902
70.982956 19.385788 96.32154
71.27398 19.33799 96.95235
71.023575 20.226126 93.714714
70.78915 20.257822 94.486855
70.92811 20.220304 95.18832
71.29191 19.931723 96.67062
71.2625 21.373066 94.55365
71.26585 21.378883 95.230095
71.45295 22.432678 93.91087
71.42873 22.744728 94.4365
71.47095 22.950167 94.23695
71.47329 24.048576 96.2917
71.39699 24.801401 96.11583
71.31673 24.62631 96.65486
71.32845 24.781883 97.187035
71.40438 25.062458 96.08029
71.34987 25.303526 96.59921
71.40397 25.285177 97.20037
72.18965 6.975832 96.789024
72.18925 6.907 97.38404
72.27811 7.019304 98.00002
72.12465 7.467705 96.15755
71.99368 7.5237546 96.73304
71.958855 7.5740895 97.36911
72.13611 7.4997654 97.99021
72.27225 8.224304 95.70186
71.97659 8.402326 96.53719
71.92428 8.337481 97.241234
72.17901 8.228083 98.047356
72.258255 9.672467 95.81295
72.12372 9.516005 96.50873
72.225 9.571457 97.372665
72.34592 10.574268 95.8661
72.168976 10.404058 96.49415
72.38263 10.07566 97.5884
72.3337 11.818475 95.94938
72.19346 11.803092 96.338394
72.367775 11.220542 97.12124
72.266525 12.44056 95.94384
72.15954 12.735405 96.34164
72.232834 12.383863 96.932724
72.292694 13.195611 95.956604
72.16244 13.242801 96.73288
72.35139 13.303707 97.06536
72.145065 15.027811 76.07362
72.173004 14.901871 76.47499
72.21747 15.002551 76.97748
72.46955 14.015652 97.629616
72.03065 15.517493 75.87106
71.922264 15.494024 76.500374
72.10641 15.533546 77.06948
72.35341 15.918553 96.281586
72.12227 16.334736 75.70662
72.01261 16.398943 76.5176
72.10341 16.202105 76.98078
71.717094 17.22548 94.5705
71.66025 16.720356 95.61976
71.675995 16.727915 96.50205
72.335365 16.324488 97.25593
72.21028 16.949333 75.96637
72.29736 16.998552 76.33502
72.31528 16.780378 76.89805
71.7416 17.842731 94.159836
71.42208 17.452536 94.79399
71.60126 17.604036 97.252495
71.94514 17.507902 97.776855
71.48056 19.124086 93.38353
71.41253 18.278423 94.00054
71.5589 18.711275 97.50712
71.95966 18.53736 97.82194
71.61178 19.795862 93.21371
71.5483 19.358479 97.311424
71.86135 18.914225 97.67585
71.75193 20.177902 93.224625
71.95778 21.711462 92.86258
71.73058 21.447247 96.16358
72.2248 21.771513 97.318344
72.28967 22.533516 91.98345
71.95085 22.649616 92.5958
71.76762 22.713188 93.342445
71.511284 22.593061 94.23413
71.587555 21.972475 95.699585
71.74309 22.81134 97.42713
71.990425 22.825663 98.056656
72.276955 23.361557 92.06159
72.0318 23.309742 92.464424
71.77807 23.547878 93.36426
71.621666 23.64052 94.40513
71.53401 23.373688 95.06287
71.60641 23.567818 97.548874
72.03771 23.508448 98.20998
72.19453 24.033121 92.68008
71.94008 24.051394 93.468864
71.84936 24.19959 94.335014
71.63462 24.641132 95.45415
71.51535 24.580761 97.56739
71.84506 24.468002 98.11234
72.37292 25.717901 75.61273
72.41815 25.465157 75.899
72.30332 24.904503 94.6773
71.712296 25.408945 95.834595
71.48751 25.595148 96.54121
71.537 25.4912 97.34359
71.82735 25.253824 97.95257
72.45055 26.330359 74.85981
72.36625 26.296215 75.37314
72.375595 26.128494 75.94042
71.96027 25.9571 96.07465
71.709015 25.935537 96.55858
71.85688 26.016878 97.2825
72.04172 25.85581 97.86246
73.11459 6.18626 96.620964
73.0199 6.163647 97.45235
73.110085 6.2089734 97.89163
73.14356 7.118764 94.96615
72.840004 6.815121 95.944496
72.643364 6.576736 96.50842
72.46481 6.629047 97.28175
72.739105 6.725253 98.13588
73.21376 8.017518 94.122185
72.9329 7.663847 94.70396
72.5626 7.5105724 95.60792
72.4074 7.4259725 98.46551
72.88644 7.563187 98.905945
73.14756 8.466208 94.16892
72.799614 8.449405 94.60936
72.542725 8.428675 98.53137
73.05741 8.279937 98.98986
72.80147 9.22289 94.698204
72.74652 9.594917 98.28408
72.98316 10.511617 94.89477
72.85522 10.119554 98.281815
72.92864 11.584191 94.977356
72.62712 10.999228 95.5603
72.76018 11.738403 97.85912
73.29737 12.910798 87.2032
73.16515 12.8069105 87.61481
73.23427 12.688897 88.49108
73.27202 12.902035 88.96823
72.95813 12.181728 95.04137
72.561455 12.640983 97.46985
73.06899 14.421875 76.10501
72.88008 14.401802 76.6081
73.274864 13.726309 87.039276
73.016975 13.470026 87.66411
72.964516 13.545707 88.339066
73.34421 13.35857 89.23545
72.9087 13.015506 95.11719
72.58619 13.072918 95.42954
72.839226 13.405515 98.270065
72.9288 15.070616 75.26007
72.64523 14.763929 75.83128
72.46529 14.624215 76.44727
72.58065 14.906514 77.22848
73.250755 14.410273 87.04422
73.02668 14.194181 87.665146
73.01545 14.513039 88.48467
73.24482 14.562842 89.23927
72.723816 14.150375 95.82073
72.613045 14.437431 96.52857
72.75105 14.949365 98.25083
72.65723 15.613907 75.150345
72.40337 15.3893795 75.39798
72.46469 15.538456 77.439156
72.63874 15.671534 77.58002
73.34071 15.25344 87.09495
73.21013 15.425939 87.51158
73.11086 15.349213 88.324905
73.3445 15.404613 89.29452
72.86686 15.976018 95.04518
73.10635 15.211521 95.52485
72.716156 15.535121 98.47825
73.10791 15.719241 99.2715
73.38277 15.431014 100.28947
72.84055 16.45189 74.876236
72.63274 16.471027 77.365845
73.36511 15.9332285 87.73779
73.28088 15.889376 88.36159
72.55795 16.44396 94.920784
72.284424 16.590155 95.30532
73.02894 16.300167 98.55553
72.94354 16.066135 98.88557
73.04039 17.549622 74.793755
72.663185 17.373459 76.6032
72.81637 17.208504 77.00534
72.89375 17.815817 93.47477
72.630684 17.63057 98.22145
73.25594 17.13361 98.74508
73.29325 18.140596 74.66234
72.96454 18.144527 75.52516
73.03443 18.101536 76.17673
72.404434 18.683748 93.22389
72.99601 18.779957 98.08832
72.52544 20.978935 92.6518
72.83152 21.808367 91.80707
72.338806 21.928099 97.656975
73.037674 22.921436 91.44629
72.58595 22.43922 91.73898
72.59953 22.641037 98.372604
72.74466 22.917976 98.64522
73.11753 23.805128 91.426605
72.659706 23.51564 91.73623
72.4402 23.625744 98.57322
72.67346 23.642809 98.724754
72.880936 24.906107 74.77771
72.83206 24.567465 75.58235
73.06938 24.555359 76.40861
73.23079 24.805206 77.49595
73.386505 24.673635 77.88076
72.839745 24.18528 91.961945
72.61704 24.355606 92.40389
72.34993 24.686632 98.49565
72.83151 24.511015 98.786995
72.95799 25.512732 74.156204
72.63429 25.668352 74.64126
72.53876 25.292099 75.25867
72.6018 25.62705 76.336586
73.196846 25.579214 77.52212
73.36018 25.630362 77.910995
73.046425 24.725204 92.52262
72.82702 24.924482 93.39293
72.44894 25.67684 95.51844
72.50571 25.62023 98.23998
72.94943 25.35254 98.723335
72.92924 26.40805 74.17007
72.69166 26.434061 74.57634
72.4754 26.478338 75.22777
72.648636 26.589668 76.22079
73.18996 26.398592 77.23327
72.51388 26.15193 95.87658
72.43921 26.54047 96.84877
72.96862 26.315987 98.21887
72.97363 27.159399 74.7779
72.76923 27.053085 75.51297
72.82217 26.906416 76.26339
72.8943 26.718363 96.4807
73.07569 27.005177 97.30452
73.7968 6.2616096 95.78267
73.78616 6.0297294 96.53277
73.46037 5.9891887 97.51303
73.54509 6.1642957 98.077095
74.06676 7.0911193 94.18953
73.678024 7.106062 94.48654
73.774185 6.5254087 95.35709
73.57615 6.435626 98.46029
73.41805 6.8207355 98.79661
73.64989 7.6587305 94.031204
73.429665 7.356451 94.332344
73.3847 7.5099454 99.183304
73.667915 8.534144 93.786705
73.77248 8.269199 99.239685
73.78198 9.404697 93.967255
73.46754 8.982602 98.91801
74.02182 9.980178 94.08348
73.89538 12.208049 87.163414
73.66897 12.171512 87.71544
73.77541 12.034345 88.24367
73.93499 12.080637 89.158714
73.69791 11.453698 94.49212
73.401085 11.5288515 98.3892
73.72565 12.661398 87.02616
73.513 12.434754 87.407974
73.92841 12.362677 89.6033
73.87136 12.8903885 89.995766
73.507454 12.39322 94.644585
74.09728 13.249026 99.61607
73.538445 14.400605 75.9679
73.70681 14.220592 76.603935
73.76759 14.281975 77.26131
73.7345 13.353976 86.67743
73.47575 13.412168 89.48556
73.83254 13.697206 90.10985
74.28271 13.436804 90.72393
73.54344 13.162655 94.96568
73.469635 13.476006 99.15696
73.77969 13.781741 100.44157
74.1833 13.845666 101.18654
73.59946 15.068031 75.162254
73.54009 14.674423 75.58092
73.66939 14.43475 77.39459
73.716774 14.770831 77.78605
74.07849 14.167869 86.246544
73.58971 14.565311 86.62099
73.80261 14.450338 90.1936
74.15375 15.300022 93.79254
73.666626 14.222832 100.52408
73.46133 15.499396 74.89039
73.50463 15.418299 77.91694
73.93811 15.33757 86.332726
73.59394 15.455117 86.777214
73.57836 15.216537 89.5717
74.18822 15.2731695 90.83606
74.21659 15.673288 91.817375
73.49251 16.007795 93.31158
73.453 15.261591 94.601746
73.52572 15.580265 100.45124
73.91398 15.355457 101.20425
73.70682 16.369383 74.424194
73.345024 16.06447 77.79868
73.90643 16.032919 86.83948
73.64195 16.16931 87.521866
74.008606 16.601688 89.87802
74.14789 16.411896 90.58266
73.481125 16.339931 93.15057
73.94309 16.47865 100.46453
74.12746 16.073942 101.11362
73.88359 17.7549 74.16375
73.37686 17.654156 76.893326
73.6209 17.037619 77.67913
74.25426 16.715292 87.42074
74.242 17.001204 88.46893
74.04368 17.076519 89.77961
73.72505 17.409576 91.45994
73.71117 17.786682 92.54897
73.682365 17.293695 98.95856
73.88731 18.099283 74.19192
73.566345 18.325949 74.506836
73.77337 18.01946 77.119156
73.523605 18.336866 92.37313
73.843254 18.843552 98.451675
73.877785 17.828135 98.733
74.02162 19.152075 75.41606
73.76579 19.045288 75.88417
74.03426 18.871525 92.05084
73.58143 21.553612 91.67135
73.38534 22.042727 98.35381
73.733536 22.917845 75.666046
73.99427 22.495255 76.35257
73.59146 22.755188 91.34151
73.26938 22.191803 91.50299
73.41536 22.90436 98.83813
74.053825 24.100101 74.19278
73.51386 24.12683 74.67169
73.58842 23.37315 76.56122
73.81235 23.587482 77.46334
73.790405 24.120804 77.99936
73.47494 23.530182 91.37195
73.586754 23.635653 99.03384
73.52444 24.870941 73.95064
[...]
POINT_DATA 9070
SCALARS features_00 float 1
LOOKUP_TABLE default
0.43634522 0.47858942 0.4610271 0.52046454 0.5437147 0.49028766 0.47610122 0.52060044 0.5720864 0.53354627 0.47348255 0.4720682 0.53828406 0.5408647 0.4811629 0.44509655 0.46539456 0.47596675 0.43551973 0.37914014 0.30743983 0.28158402 0.3008939 0.23928747 0.2619295 0.4141869 0.4663038 0.52964354 0.5957904 0.48320746 0.56333756 0.61582667 0.6512831 0.67116475 0.67808306 0.6017822 0.6381656 0.658216 0.6693628 0.5234529 0.5657838 0.60245496 0.6142621 0.39605653 0.44877252 0.46110183 0.35261586 0.36948955 0.38640463 0.3717699 0.37060022 0.3347516 0.37502882 0.36795324 0.3443864 0.3630243 0.3445204 0.32260674 0.9048306 0.9263586 0.94258636 0.26778615 0.9489826 0.96788627 0.93819106 0.20238096 0.94962883 0.865461 0.86370003 0.32603717 0.36925548 0.44448823 0.30650842 0.782436 0.7401917 0.75221765 0.3380443 0.39794222 0.457591 0.37470344 0.37947124 0.3934623 0.4296997 0.37647486 0.3537224 0.3989678 0.38111794 0.34262735 0.4105445 0.21471375 0.3675726 0.52773523 0.50158626 0.39996147 0.26556388 0.21693069 0.42310977 0.43572378 0.5586659 0.5352982 0.3995795 0.25882876 0.21426734 0.51847416 0.47499007 0.50711787 0.38860756 0.28190622 0.36248952 0.60070235 0.5633613 0.6619308 0.63216925 0.29324365 0.46174634 0.567503 0.63150835 0.61437494 0.73134226 0.6932099 0.6455448 0.50314337 0.57911795 0.6502498 0.64210224 0.62498176 0.6645647 0.6717752 0.52038765 0.5807844 0.62971735 0.66713 0.6744905 0.5166367 0.5220611 0.555499 0.66447604 0.623217 0.5087663 0.5019599 0.5672591 0.53017116 0.44080907 0.41944864 0.31681654 0.3228798 0.30624163 0.34230718 0.24574937 0.61674047 0.6190852 0.59954643 0.5554456 0.30661818 0.28693178 0.7666968 0.8389982 0.6297585 0.64331675 0.62255096 0.49103087 0.29864126 0.34337783 0.19682385 0.7468062 0.8067749 0.87913585 0.9189867 0.6197241 0.6319044 0.57233655 0.43503925 0.24249578 0.23322481 0.17514755 0.805714 0.83920354 0.8970035 0.8631887 0.5888258 0.57627666 0.5381266 0.37930214 0.02600668 -0.05359249 0.13049321 0.18056706 0.3335049 0.82128584 0.7499148 0.5197536 0.48412687 0.14146012 0.24734528 0.17018029 0.15517804 0.7547834 0.6650432 0.65141165 0.1282041 0.26204583 0.1692646 0.6815969 0.7347444 0.64590603 0.1983607 0.20596752 0.3264175 0.43541983 0.40037382 0.49330834 0.50838476 0.4112007 0.40124786 0.51494896 0.54898775 0.4511124 0.4311441 0.71100986 0.6307311 0.533216 0.4902076 0.48188466 0.5218426 0.50091124 0.52285564 0.45978498 0.7874185 0.7290734 0.674891 0.5990913 0.51767385 0.51224196 0.42041996 0.3296857 0.37481686 0.58154976 0.49929824 0.8324578 0.77855396 0.71402174 0.6363393 0.5595142 0.42449108 0.58283055 0.59654653 0.8129678 0.735337 0.6632552 0.46006837 0.5615932 0.52113664 0.5870906 0.6589119 0.66563296 0.47633183 0.49545193 0.49959418 0.65436614 0.63570684 0.50185597 0.50789547 0.56892395 0.49716645 0.42697746 0.4071337 0.40048635 0.28988218 0.5352135 0.54800284 0.5304365 0.5015815 0.20893204 0.08114607 0.57799554 0.58076835 0.4539004 0.38739604 0.20553617 0.09776586 0.70175993 0.7467067 0.8070084 0.59730303 0.44238764 0.3304636 0.2634598 0.18037161 0.14048009 0.20662445 0.22452575 0.6470615 0.67669964 0.8312039 0.841924 0.57260716 0.6036054 0.26804483 -0.10419715 0.29362497 0.6718031 0.81078327 0.56112045 0.5701955 0.32381663 0.11820895 -0.09045775 -0.017422736 -0.1127335 0.34369773 0.4124894 0.65733075 0.7260685 0.51152796 0.4931864 0.2469708 0.14116924 0.010635562 0.23962677 0.34272647 0.5983403 0.57194823 0.5398555 0.395944 0.31804857 0.23511404 0.046902448 -0.0074807853 0.12210084 0.615093 0.6365807 0.49532402 -0.009332567 0.046440102 0.0745413 0.64449203 0.6552423 0.03452014 0.3273964 0.34151113 0.51047546 0.47638133 0.4148547 0.42228985 0.32951552 0.5607182 0.6382222 0.46179557 0.4471382 0.46569514 0.47430652 0.3319903 0.75802994 0.4824602 0.4975245 0.48212707 0.48274615 0.35857964 0.82687247 0.5051819 0.5023627 0.43110055 0.3495836 0.17915837 0.20277908 0.45521706 0.8616295 0.5355145 0.54697 0.16272216 0.17125657 0.29052502 0.5253912 0.8251875 0.824831 0.6852599 0.63225436 0.22950283 0.2686296 0.40690863 0.47759765 0.57332414 0.78700423 0.73815906 0.72020876 0.7560065 0.7071825 0.7259065 0.74492395 0.80466413 0.8234788 0.8407134 0.6402413 0.7492497 0.9012118 0.9322312 0.89484084 0.6247732 0.7726507 0.86286163 0.94089663 0.92371833 0.79210436 0.8542277 0.9134441 0.40053836 0.51147926 0.5920164 0.42479354 0.4437682 0.55996126 0.45855004 0.41065487 0.46092525 0.14776869 0.26115298 0.33530915 0.326549 -0.29799196 0.17176522 0.27701268 0.42710686 0.44894916 0.37026972 0.30654714 0.076134086 -0.190631 -0.105822526 0.50829095 0.23458575 0.10248865 0.028799023 0.07120998 0.09522562 0.14101231 0.6213748 0.65952224 0.7190376 0.79467857 0.53474844 0.1850711 -0.27571788 0.19634193 0.5908545 0.58354664 0.8013407 0.5535578 0.07493611 -0.1900117 -0.2006416 0.29337895 0.32544246 0.60870045 0.5063633 0.3829822 0.42014417 0.45747378 0.4393878 0.31541702 0.52245355 0.3272559 0.34589225 0.23924722 0.23979844 0.08180228 0.57353157 0.33060953 0.13054577 0.11913175 0.094152175 -0.03309878 0.60176444 0.5788467 0.5580672 0.55236804 0.09639913 0.071311966 -0.032783337 0.5896269 -0.051944308 -0.16601004 0.23513637 0.3360371 0.51172644 0.35334826 0.22682884 0.07674458 0.1554384 0.29515392 0.39385504 0.4069928 0.123640046 0.21738625 0.4513142 0.4318809 0.34712213 0.17064822 0.62882936 0.50129545 0.35274482 0.7167407 0.5376488 0.2690351 0.16616425 0.3040639 0.7947529 0.78503644 0.5976581 0.57657063 0.115522094 0.12986076 0.15659949 0.46329057 0.76615113 0.71411836 0.6935724 0.6468829 0.15815233 0.22856852 0.27677968 0.4285041 0.5393394 0.73389924 0.72797596 0.67039216 0.69988954 0.7434633 0.75262034 0.24384813 0.71664816 0.6245392 0.7186574 0.7485257 0.51595116 0.53017366 0.7674987 0.8165683 0.54623085 0.85790145 0.8421992 0.5789259 0.619915 0.8717917 0.643554 0.7430562 0.8358811 0.911742 0.8700234 0.58203924 0.5836191 0.57358694 0.57527375 0.5345241 0.49202266 0.56780696 0.5690958 0.5385321 0.50994503 0.4598149 0.5236639 0.4346525 0.477705 0.42119128 0.4314844 0.3081387 0.3586837 0.3056862 0.39575076 0.35475287 0.2974496 0.33550283 -0.18683514 0.32036668 0.3984846 0.3796627 -0.2929261 0.12130566 0.32400858 0.37520552 0.42840904 0.583376 0.0639559 0.12158864 0.09707924 0.3282133 0.11811346 0.38713902 0.38493153 0.6050312 0.5625529 0.11336878 0.037729114 0.06041291 0.06853069 0.06470403 -0.10247829 -0.40368864 -0.16268685 0.0045405757 0.14485562 0.36110753 0.35873106 0.26654786 0.22806099 0.2930253 0.32107112 0.41736114 -0.21664956 0.15131748 0.1652514 0.524899 0.6001115 0.70074874 0.3900702 0.20212966 0.13173267 0.43431526 0.5103873 0.6241831 -0.3177635 -0.33090246 0.22388735 0.4019597 0.4852981 0.4016447 0.2786321 0.3686565 0.38496357 0.38330215 0.354061 0.38607794 0.3006188 0.22964858 0.11731724 0.16185817 0.5075266 0.23140886 0.17729399 0.11080624 0.087489575 0.28975588 0.48073107 0.4732117 0.04085298 0.04869546 0.049924478 0.05400971 -0.105245076 -0.16585487 0.5137553 0.5438011 0.5051212 0.35391864 0.058794707 0.08938798 -0.100767024 0.5397148 0.6471796 0.6279329 0.57985973 0.45105946 0.14106092 -0.21862856 -0.03208031 0.67069817 0.615182 0.19634531 0.26664764 0.0025036484 0.06083957 0.16193089 0.42611018 0.28088433 0.13696879 0.06542793 0.06643534 0.44051337 0.5418205 0.38588342 0.08922465 0.099183194 0.6467949 0.57185763 0.4305298 0.11383919 0.102852456 0.10841553 0.62170494 0.59430146 0.100014 0.08646892 0.09417071 0.41200826 0.480041 0.6880606 0.70945626 0.6619798 0.10895144 0.12875776 0.43091002 0.38066137 0.49489397 0.5200593 0.6808957 0.6411575 0.677838 0.7405269 0.7558483 0.11045077 0.14912464 0.36071128 0.46426105 0.50186706 0.7189257 0.19447148 0.43952787 0.25786752 0.15379407 0.31283504 0.2856486 0.33125654 0.5638932 0.62689286 0.4498955 0.7732425 0.48577583 0.79855597 0.819452 0.50859404 0.54110175 0.8082702 0.8250568 0.56683743 0.5827844 0.6782929 0.77163637 0.83971727 0.8232248 0.6005896 0.5935694 0.58906084 0.57929325 0.55626494 0.5909408 0.5957038 0.58783156 0.53714764 0.49019778 0.54550815 0.43865204 0.4519301 0.3624897 0.086997405 -0.003921278 0.19039524 0.11496742 -0.054447785 -0.13672754 0.07542615 0.0667571 0.19936043 0.33690992 0.43972588 0.49460763 0.15697873 0.44807658 0.5125103 0.61346453 0.55166835 0.46903297 0.28530502 0.15445976 0.029769678 0.037066814 0.092411846 -0.16064471 0.45443606 0.5150387 0.6774881 0.5911563 0.5150376 0.37210363 0.15843365 0.105947785 0.40488654 0.44669357 0.7359899 0.6315105 0.38515905 0.3848365 0.654536 0.54311424 0.46502233 0.3203133 0.30156255 0.18032922 0.05584917 0.23109765 0.59373116 0.6559914 0.1270144 0.10963898 0.42443162 0.70975256 0.25913978 0.15265344 0.34303507 0.4111551 0.11743091 0.32872117 0.32864532 0.3610555 0.14333072 0.33892086 0.2186504 0.2065445 0.16208453 0.062397603 0.0493332 0.3847949 0.092593566 0.05557985 0.058098715 0.3303932 0.26847023 0.15251198 0.70150673 0.7608393 0.088046506 -0.010965884 0.2863108 0.6650561 0.73533165 0.149092 0.17083706 -0.10845813 -0.059742052 0.26382118 0.4595254 0.28950357 0.16791572 0.26142862 -0.035310682 0.52578926 0.54002666 0.2882222 0.20185876 0.19128433 0.2593509 0.13595283 0.07511588 0.41583222 0.36865658 0.34386852 0.3208966 0.043043956 0.09385021 0.5872024 0.53689444 0.4312668 0.4742068 0.4510712 0.09384554 0.062289547 0.5332135 0.46202362 0.5199804 0.5059413 0.42635858 0.059853226 0.17762014 0.31993705 0.55054224 -0.034813646 0.4643667 0.6031803 0.6571543 -0.031735934 0.07118407 0.52599335 0.61603296 0.67765236 0.7161378 0.7238082 -0.119037315 -0.032232553 -0.07561528 -0.038534652 0.49798813 -0.027127322 0.0035357065 -0.0047420636 -0.105512366 0.064475946 0.39366767 0.4248392 0.015293729 0.029787755 0.042151146 0.20791718 0.063695446 0.044027932 0.09063741 0.2593966 0.7003894 0.27235442 0.742473 0.66113645 0.6488349 0.43904763 0.75727785 0.80455554 0.7783134 0.7476138 0.64048946 0.60588264 0.44903502 0.5110914 0.5442686 0.63542783 0.7289851 0.8601335 0.862718 0.80391335 0.6463851 0.6062023 0.93020654 0.9179816 0.8597232 0.9110242 0.8671477 0.5153814 0.65060794 0.6514144 0.5921742 0.580257 0.5615356 0.5519997 0.54580307 0.51907384 0.60247767 0.5877883 0.5803547 0.4128815 0.342552 0.49974564 0.5202118 0.40512103 0.12844452 -0.019497696 0.537222 0.10293729 -0.04854846 -0.04391493 -0.063712105 0.40547284 0.5192942 0.5657131 0.5322033 0.461482 0.2985887 0.10013181 0.12596154 0.0805659 -0.11486938 0.5537959 0.5708695 0.5786822 0.533044 0.4307948 0.33082205 0.20028047 0.08098571 0.037913416 0.07567439 0.044834826 -0.03858255 0.5102946 0.54504377 0.6881236 0.48609012 0.4867017 0.77285427 0.3867668 0.71487725 0.3359168 0.34915632 0.30092448 0.09559346 0.67994225 -0.035111383 0.030134795 0.35594225 0.39074358 0.5484066 0.70660985 0.6757764 -0.1765361 -0.20889187 0.007298067 0.3307985 0.07882461 0.3271016 0.32828403 0.31500658 0.24598543 0.12384595 -0.16388258 0.65036863 0.7815416 0.32516047 0.039801147 0.28345144 -0.12338305 0.012760317 0.40563375 0.51629686 0.72431123 0.86046916 0.8777754 0.26698405 0.3251903 0.2764807 0.15095568 0.017879225 -0.059261195 0.28957355 0.56872535 0.80783135 0.8433169 0.19009173 0.09629497 0.20889941 0.008950822 0.0124036 0.1364248 -0.02861987 0.18350127 0.43964672 0.65244985 0.7543943 0.8026788 0.17681968 0.0642163 0.020494636 -0.27207384 -0.20709518 0.07772746 0.06109954 0.09912161 0.23120716 0.62383324 0.7044096 0.25411382 0.236243 -0.061043467 0.44660616 0.18425523 0.2594778 0.37243637 0.25697213 0.21775064 -0.013223365 0.3952876 0.32447076 0.43557602 0.44072586 0.2995404 0.12606478 0.3759064 0.149621 0.37518305 0.60850215 0.5654727 0.55085117 0.21372946 0.22502449 0.51673603 0.53314036 0.63935375 0.6225041 0.55567694 0.307182 0.5314201 0.50246865 0.4564714 0.64145756 0.6262533 0.4605859 0.47195596 0.42576683 0.45394307 0.3415718 0.053825483 -0.23488072 0.5304644 0.5870884 0.54852116 -0.19895928 0.544503 -0.18678167 -0.10674709 0.51242256 0.6127426 0.570539 0.43086308 -0.0018480085 0.4573839 0.69924855 0.6479052 0.49736702 0.38732374 0.016460568 0.038189195 0.20425364 0.7366734 0.7348145 0.69001466 0.5113393 0.020569285 0.08867856 0.102025926 0.36448795 0.72923434 0.7161064 0.6628423 0.5871949 0.6862079 0.64133507 0.07152043 0.025438579 0.6332471 0.5824874 0.41794133 0.25978962 0.368065 0.3710292 0.36379284 0.58877593 0.66792464 0.7533307 0.6015667 0.42700648 0.43229377 0.45508292 0.52419597 0.5543536 0.5585638 0.6021131 0.8682198 0.5820794 0.89542735 0.93460035 0.83570826 0.77214205 0.9452953 0.8956003 0.8355858 0.75597596 0.6247982 0.6634351 0.6734563 0.46469474 0.43678242 0.4640562 0.6224549 0.6699258 0.658467 0.6386952 0.5685457 0.5509858 0.5046227 0.38790047 0.32870674 0.21637066 0.62056124 0.61763823 0.51173055 0.37872022 0.5181087 0.5654353 0.22257909 0.42517412 0.4844702 0.41685003 0.07500458 0.31124628 0.28633273 0.19946483 0.0408411 -0.01698672 0.30082333 0.6113578 0.5620545 0.5104946 0.1589016 0.22459592 0.19813637 0.13936628 -0.11624586 0.5400425 0.5606499 0.6158774 0.5966464 0.52758026 0.2888389 0.03371717 0.08757027 0.55841386 0.6113105 0.6112174 0.49961975 0.6637046 0.38764077 0.49282068 0.29449248 0.74841225 0.15799446 0.6472386 0.33902258 -0.04732439 -0.095159076 -0.031250436 0.34888068 0.39115122 -0.082363985 -0.09422013 -0.06977224 -0.0061876737 0.33166772 0.33867005 -0.002839759 0.3349024 0.33347568 0.20279051 0.42718065 0.55227894 0.72844195 0.7926731 0.32181582 0.30808693 0.31986845 0.13859028 0.8278407 -0.0074920356 0.32184583 0.32727253 0.8167389 0.7820021 -0.003843516 0.26280895 0.7780541 0.23852 0.12358027 0.13266073 0.15951353 0.22121817 0.7011544 0.70136946 0.3352268 0.2163475 0.123002365 0.09403306 -0.014668838 0.35350674 0.17706308 -0.03828247 0.13264242 0.46736288 0.45777962 0.12677151 0.2972696 0.5106324 0.44927704 0.07782025 0.4609245 -0.18000367 -0.19866052 0.51938367 0.43366542 0.17363916 0.4608398 0.48282433 0.5777159 0.48156255 0.58108836 0.13202617 0.4342031 0.3368771 0.18138507 -0.16390432 0.300506 0.5516413 0.29246485 0.55719876 0.33227503 -0.03590923 0.27040505 0.60466826 0.574313 0.13042107 0.70906055 0.22159097 0.19724119 -0.13904524 -0.014595108 0.15824577 0.7056049 0.102831386 -0.010717366 -0.18672821 0.11794552 0.13836028 0.64620787 0.6280328 0.44650927 0.023175187 0.12091103 0.052154295 0.4148248 0.46819338 0.31196022 0.31103972 0.34144574 0.44246748 0.47824442 0.5236943 0.77608657 0.43255728 0.37123984 0.378046 0.4954809 0.4981284 0.52438927 0.81427455 0.86920893 0.64956295 0.5653818 0.8860915 0.927148 0.8611207 0.7568194 0.6895615 0.5886663 0.65168023 0.6515254 -0.04831277 0.08519119 0.6328857 0.6133145 0.48101187 0.42154193 0.29489982 0.09260337 0.58566415 0.5546018 0.477093 0.45736519 0.5315951 0.5407789 0.47890267 0.40929425 0.45209706 0.39145154 0.44205752 0.4571675 0.43756697 0.36673784 0.30272427 0.27346286 0.18410534 0.15076102 0.3730235 0.25423872 0.17054601 0.060212024 0.6636776 0.6573684 0.6143644 0.497374 0.24186912 0.3810532 0.6568706 0.2680153 0.088706315 0.38518816 0.6206617 0.43085963 0.55582345 0.31554466 0.6679331 0.5005075 -0.17258511 0.27382532 -0.09185995 -0.03852186 -0.057832375 -0.019226369 -0.037784774 -0.021537952 -0.04867263 0.33046424 0.32599035 -0.056106612 -0.00036216527 0.0101391375 0.3723871 0.31541872 0.32275754 0.07703057 0.0735949 0.08047836 0.22988936 0.22076365 0.5923426 0.6992185 0.2870641 0.2874512 0.112956114 0.27950284 0.7254176 0.23642872 0.08198592 0.15309078 0.26224405 0.7089077 0.7385287 0.15741754 0.13147615 0.66108185 0.21794766 0.11784406 0.10287275 0.03749673 0.123551734 0.30455244 0.34272125 0.6170092 0.28844702 0.08491622 0.12929296 0.16749933 0.3413747 0.11439904 0.13242285 0.13220376 0.324194 0.18384598 0.39007998 0.3896375 0.16911107 0.3420292 0.44065264 0.40455392 0.19066596 0.3709497 0.22479403 0.6970598 0.6573557 0.3017692 0.2629618 0.64529634 0.5390716 0.4780178 0.118762225 0.3685516 0.33523378 0.14368196 0.36868918 0.41030687 0.121209905 0.4070727 0.48500383 0.015816223 0.6312041 0.6362603 0.18228129 0.5549984 0.55551517 0.0855422 0.018846452 0.25708994 0.4895912 0.16723666 0.07418458 0.057099655 0.39241767 0.5361478 0.70155466 0.48745713 0.78544176 0.54752517 0.5475373 0.8182094 0.80107725 0.66944635 0.61123776 0.88728315 0.8797028 0.86468685 0.8516472 0.83971286 0.79904675 0.7411314 0.7573228 0.7271459 0.604459 0.14810431 0.16878161 0.5638844 -0.07288723 0.51203704 0.00024071243 -0.067160726 0.5395988 0.28329986 0.4218269 0.4912874 0.535752 0.49413317 0.44988093 0.3964392 0.3007129 0.25797382 0.20000206 0.33420408 0.3470499 0.28090438 0.47770232 0.24739882 0.13847603 0.35059053 0.403166 -0.19801706 0.64904183 0.62885225 0.56370866 0.25533372 -0.31670374 0.6096595 0.62644696 0.29776147 0.1120914 -0.013716519 0.52285904 0.21881783 0.1640351 -0.2470918 0.25672925 -0.02136524 0.15654403 0.16804744 -0.17550924 -0.04282813 -0.09549886 0.30574977 0.17258847 0.18421263 -0.12175858 -0.025904521 0.16665179 0.30059475 0.30544326 0.07776727 0.087631725 0.10969803 0.4365481 0.26132852 0.26594186 0.133533 0.06947305 0.58486795 0.21554756 0.004390478 0.5394571 -0.07012552 0.52483994 0.13347834 0.037878126 0.52533114 0.23819157 0.18636619 0.085432515 0.03314527 -0.057879284 0.014246784 0.074721776 0.116967015 0.21999027 0.073519096 -0.012385845 0.11334621 0.26887634 0.09156965 0.11414758 0.10593506 -0.024724748 0.34706223 0.59969205 0.22315326 -0.02251707 0.11449848 0.35368073 0.35960612 0.7322853 0.3423499 0.02446166 0.11854258 0.08800477 -0.19917618 0.3087724 0.32323658 0.7664723 -0.35586807 0.7425165 0.6974689 0.6231733 0.46283615 0.5219512 -0.0064385254 0.65334976 0.62839603 0.25178716 0.32794362 0.0028803423 -0.018580295 0.4085351 0.02258917 0.124168575 0.4511643 0.37278774 0.189753 0.46526152 0.38500547 0.2962855 0.06574765 0.1981341 0.2454715 0.09421617 0.062131807 0.052815057 0.31871587 0.27984983 0.40114158 0.2901973 0.19727331 0.49450728 0.5427047 0.3990389 0.33835256 0.6223661 0.58242697 0.55840683 0.527793 0.48807776 0.6368959 0.5947431 0.5711545 0.92554903 0.88292396 0.9087564 0.8831167 0.83098793 0.74561787 0.83095986 0.7947016 0.77014744 0.50751626 0.6762527 0.6807158 0.2385987 0.5440426 0.5919508 -0.045204885 0.12264216 -0.11004942 0.41532052 -0.26362482 0.3771864 0.5695573 0.51711994 0.031959035 0.5310889 0.5810734 0.58004034 0.48187095 0.40869832 0.31202465 0.17339548 -0.09993653 0.48923755 0.13226962 -0.057254747 -0.14962685 0.31615523 0.5210952 0.3951157 0.09012676 -0.16547799 0.5069746 0.44564748 0.27917722 -0.10946389 -0.12791525 -0.101770416 -0.04017604 -0.023113709 0.10342472 0.21833779 0.30866137 0.24483716 0.24571994 0.32002664 0.24208248 0.21167257 0.2332475 0.12623744 0.2076447 0.11541733 0.07289696 0.1486281 0.19176474 0.10015224 -0.12820135 0.2090415 0.11004771 -0.15702417 0.24983074 0.25951096 0.22330365 0.23020136 0.17142361 0.10076579 0.19952857 0.13129029 0.27578247 -0.06623131 0.12046214 0.04197 0.0426703 0.19731942 0.21143319 0.107112974 0.014832102 -0.04646136 -0.041193593 0.25506103 0.23958616 0.12370211 0.057130456 0.031311866 -0.003094092 0.27051556 0.47430947 0.3044536 0.0408661 0.060386345 -0.041177467 -0.10132148 0.2658497 0.3088759 0.6868881 -0.055752937 -0.15434861 -0.1947008 0.23315907 0.75617063 0.016680177 0.7577286 0.7396349 0.51453584 0.110677734 0.0548398 -0.11274747 -0.07402964 0.7106756 0.6877402 0.6832495 0.6759509 0.22506389 0.23091923 -0.17162171 -0.16039492 0.2609323 0.25666735 -0.08594012 0.41482162 0.027043276 0.3991856 0.3611974 0.12594944 0.18079115 0.028252028 0.13777906 0.053405635 0.32860446 0.25080368 0.47337836 0.47637624 0.44067734 0.38974267 0.5453539 0.51315546 0.53431207 0.47298253 0.92462265 0.9305204 0.79207724 0.85579747 0.8981961 0.8488568 0.63739896 0.75771534 0.71915114 0.36763513 0.42101187 0.6567604 0.6123143 0.28872162 0.23731036 0.4457073 0.13494825 0.14731811 0.1270187 -0.21686381 0.21010217 0.27232212 0.34596887 0.14585945 0.054819096 0.034672648 0.11874814 0.3359595 0.3782558 0.5775373 0.5067824 0.4682727 0.16421823 0.14153475 0.33507556 0.36126143 0.37724674 0.5389421 0.57803315 0.4102019 0.326188 0.17899095 -0.0134911