# vtk DataFile Version 2.0
Really cool data
ASCII
DATASET POLYDATA
POINTS 788 float
20.088606 60.005512 25.593395
19.958597 59.87306 26.67936
20.115341 59.74476 26.962355
19.909218 60.858276 24.947369
19.676622 60.729008 25.599842
19.711529 60.405407 26.32522
20.048101 60.714275 27.440014
20.060225 61.7546 23.74741
19.674555 61.742092 24.373064
19.675436 61.5888 25.10827
19.629587 61.107765 26.185383
19.804235 61.429924 27.011316
19.913609 62.51378 23.830334
19.733404 62.58391 24.298468
19.706905 62.534504 25.25081
19.995852 62.487034 26.142487
20.189302 63.20402 23.77565
20.046478 63.297283 24.430275
21.369951 57.149002 24.54107
21.404648 57.802376 23.821033
21.265617 57.650112 24.42221
21.233799 57.513885 25.100126
20.38324 59.58819 27.200932
20.826101 59.884087 28.29385
21.251045 59.84572 34.88791
21.19548 59.855335 35.497658
21.171825 60.1081 36.41049
21.360538 60.172604 36.94572
20.61704 60.44711 28.285967
21.169827 60.500427 34.768845
21.029135 60.317722 35.704502
21.087324 60.43879 36.304077
21.296892 60.55452 37.015667
20.333706 61.523678 23.634296
20.549744 61.210228 28.36089
21.001884 61.264793 28.867369
21.356632 61.21425 34.672073
21.122137 61.12855 35.686596
21.282148 61.308895 36.42031
21.355394 60.985325 37.082592
20.57394 62.324776 23.196896
21.261034 62.587597 28.535503
20.404892 62.912613 23.311152
20.580582 63.39569 23.567602
20.395445 63.60893 25.383545
20.56941 63.05142 27.055635
21.310152 62.785492 28.417645
20.762585 63.770874 23.925865
20.646448 63.90139 24.412184
21.035591 64.012474 26.30289
22.148434 56.412697 24.627151
21.804922 56.988094 23.91191
21.717512 56.850296 24.35433
21.821009 57.031784 25.519058
22.003181 57.96612 23.009754
21.657253 57.422146 23.653473
21.554663 57.34766 25.457884
22.105167 58.27941 22.81857
21.619158 58.62724 23.3067
22.006605 58.486618 26.757826
21.753674 59.235516 28.217066
21.998058 59.0352 34.782
21.906698 59.011234 35.446033
21.905592 59.22668 36.35031
21.75207 59.388203 23.521227
21.902246 59.445393 28.829962
21.651926 59.85826 34.07014
21.584354 59.516502 34.632725
21.41072 59.46441 35.42007
21.526682 59.59911 36.39324
21.735899 59.8641 37.028244
21.185312 60.92951 23.58535
21.64899 60.449272 37.320007
22.195276 61.19806 23.344095
21.61993 61.455322 23.430933
21.918823 61.351933 29.829643
21.778248 61.688637 33.962215
21.51784 61.589516 36.69945
21.703451 61.154526 37.25124
22.262306 62.47448 33.576508
21.831673 62.284615 34.882
21.57878 62.03302 35.233025
21.64503 61.738594 36.57385
21.960999 61.773968 36.922764
22.470642 63.124317 20.870571
22.442202 63.42304 21.206879
22.109228 62.835445 35.07234
21.574749 64.41597 25.65867
21.586266 64.08966 26.832815
23.29455 56.20999 23.082188
23.06814 56.111195 23.454273
22.291113 56.367176 24.87967
23.264585 56.74231 22.415733
22.301407 56.60047 25.603975
22.99488 56.425076 26.02562
22.365711 57.254578 22.930292
23.043375 57.81511 27.085197
23.017963 58.442856 35.044163
23.037853 58.389843 35.573574
22.605381 58.78804 34.6759
22.541168 58.6211 35.423866
22.588276 58.756245 36.132523
22.812088 59.034653 36.703545
22.21652 59.47231 33.98887
22.395973 59.86487 37.262383
22.219563 60.697746 37.55323
23.181585 62.107574 20.35362
23.457745 61.917576 31.847822
22.23291 61.502544 37.26219
22.317015 60.96964 37.529186
23.239656 62.73155 19.90174
22.683718 62.9693 20.545954
22.710861 62.58011 33.18215
22.47282 62.14948 36.598648
22.271822 62.083218 36.76888
23.088654 63.473793 20.064114
22.737297 63.602936 20.549978
22.6427 63.269894 29.430525
23.319971 63.302692 30.905449
22.925291 63.50521 34.995
22.687996 62.815582 35.90952
22.973694 64.048965 20.646486
22.973951 64.24484 21.177862
23.105143 64.12954 22.033518
22.823763 64.33089 24.065363
22.618877 64.56351 24.453474
23.077263 65.81267 30.490005
23.206242 66.71223 27.297874
22.615206 66.31358 28.873804
22.60538 66.4422 29.379438
22.783184 66.79743 29.995953
23.430943 66.40359 31.73886
23.177778 67.44897 27.781929
22.813782 67.27914 28.676596
22.74236 67.242035 29.396006
22.997143 67.23041 30.08691
23.27873 67.87094 27.978794
23.162487 67.772934 28.88024
23.15035 67.82865 29.234629
24.130802 55.300575 23.588234
24.279705 54.668076 24.59053
24.246845 54.57925 25.433504
23.694782 56.037796 22.755642
24.014376 55.512936 23.311592
23.596525 55.43819 24.508272
23.898933 55.543747 25.772411
24.2147 55.503498 27.391819
24.264004 55.62825 28.114563
24.02362 56.613735 21.96778
23.554487 56.58319 22.544865
23.311512 58.37028 35.51528
23.944431 58.095016 21.232338
23.486767 58.46899 34.914513
23.357546 58.59136 36.249825
23.769726 59.005615 36.738228
23.373005 59.871075 33.67375
23.534916 59.70994 37.090267
23.663363 61.128567 20.534744
23.319485 61.090828 30.943235
23.771053 61.52133 20.194696
23.009882 61.257206 37.291206
24.084682 62.38549 19.417654
23.663492 62.688686 19.608255
23.230597 62.428185 36.52622
23.717155 63.410698 19.636171
23.872217 63.139725 36.19807
23.577717 63.914043 20.007015
23.524187 64.36083 20.682642
23.395761 64.44098 21.1895
23.6211 64.32745 22.286709
23.559399 64.90811 32.045925
23.655947 64.52815 33.39518
23.692074 64.114784 34.637325
23.913158 63.725586 35.7072
24.063364 65.03969 33.564293
23.439594 66.94675 26.802097
23.66866 66.755005 31.795303
23.652006 66.538956 31.88958
23.613716 67.51139 26.866253
23.48622 67.33935 30.656704
23.931067 66.93082 32.09764
23.843836 67.93773 26.881546
23.851015 68.3038 27.724642
23.8249 68.29653 28.464386
23.618107 68.196945 29.311266
23.425747 67.64396 30.006039
24.914589 54.25768 24.642227
25.001661 53.99202 25.239662
25.035128 54.204693 26.230091
24.492704 54.40026 24.751884
24.471546 54.43951 25.642633
24.561064 54.59702 26.381405
24.820581 54.648045 27.256292
25.005527 54.94423 28.277948
24.895086 56.117115 21.800684
24.826748 55.863747 22.342379
24.613855 55.585144 28.664389
24.809328 55.803448 28.836618
24.95058 57.020416 20.905828
24.42683 56.724815 21.458447
24.917377 57.580387 20.632204
24.183865 58.42327 35.84833
24.380713 58.569744 21.228289
24.538542 58.446632 29.736113
24.03311 58.52563 36.13722
24.308712 60.104053 31.171406
25.000906 60.013798 32.444595
24.355997 60.56414 32.883026
23.877052 60.2246 37.19382
24.643482 61.969696 19.627716
24.57335 62.527187 19.423473
24.327635 62.303642 19.485584
24.589535 62.290752 36.851067
24.235722 63.161343 19.414654
24.497498 63.490227 19.522219
24.323368 62.94894 36.371235
24.306572 63.94597 19.939915
24.568884 64.30915 20.701979
24.539402 64.47314 23.08913
25.123657 64.0695 36.009354
24.38357 65.72038 33.447678
25.031143 65.36966 34.437164
24.989113 64.6946 35.096336
25.01775 66.62026 33.183964
24.411585 67.37115 26.212208
24.777107 67.377525 32.230556
24.914557 67.03053 32.689983
24.492313 68.242165 26.800085
24.216482 68.5315 27.941376
24.339357 68.463844 28.910374
25.010275 68.05075 30.529531
24.382702 68.57027 27.614016
24.581068 68.635796 28.464203
25.486164 54.316082 24.196352
25.436413 54.072388 24.759975
25.474194 53.965935 25.475569
25.58845 54.109367 26.472965
25.366838 54.390335 27.429873
25.565477 54.579033 23.86972
25.50328 54.754246 28.258211
25.567652 55.053146 28.685879
25.484528 56.2336 21.299246
25.54767 55.66046 29.084366
25.55291 56.725296 20.8682
25.568258 57.713657 20.343735
25.428873 57.237156 20.465603
25.888025 57.867374 30.623007
26.11794 58.280407 32.44296
25.635435 59.050777 32.1679
25.398108 59.459225 20.180891
25.397774 60.80228 36.91254
24.998724 62.61475 19.464506
25.74596 61.99687 19.771357
25.078346 63.642025 19.766323
24.956333 64.01223 20.300426
25.622154 64.334435 22.48309
25.29867 64.49134 35.57699
25.678146 64.14707 36.106102
25.580933 65.008484 34.966366
25.990795 66.06285 25.213985
25.355774 66.474075 33.26023
25.463972 65.78078 33.91921
25.490463 67.37086 32.377453
25.535406 68.43444 26.900642
25.600836 68.50322 29.49458
25.429247 67.85301 31.350409
25.107014 68.75384 27.578474
25.49354 68.78497 28.395699
25.780142 68.68901 29.037294
26.182611 54.13465 24.830452
26.206963 54.020493 25.623333
26.427423 54.057976 26.610703
26.49893 54.193813 27.32718
26.58863 54.753666 24.442017
26.546423 54.646217 28.19125
26.495985 55.151375 28.69407
27.056803 55.996243 21.05282
26.371656 55.669945 22.15678
26.279266 55.531746 28.986404
27.12202 57.100136 20.101223
26.577423 57.410503 20.208685
26.650259 57.784027 32.629078
27.113325 58.909157 19.403982
27.232677 58.51721 19.562542
27.099361 58.893883 35.371082
26.5155 59.951527 19.85219
26.769073 60.10071 36.69035
26.736332 61.570484 19.477833
26.741446 62.593815 37.285416
26.697031 63.2969 37.02733
26.332891 64.5573 35.42873
26.97286 64.32563 36.028427
26.448969 65.37481 23.40644
26.692278 65.85377 23.995823
26.453615 65.9632 24.204834
26.534702 65.8129 33.45127
26.730278 67.65207 26.22894
26.49632 67.22445 32.3586
26.043041 67.02138 32.763615
26.607473 68.29715 26.853024
26.66016 68.52062 27.313215
26.437603 68.40646 29.80899
26.211004 68.208405 30.325409
26.2314 67.562996 31.89699
26.36943 68.601 27.391008
26.15505 68.73104 28.176378
26.378736 68.61761 29.013357
26.962606 54.40654 25.071793
27.261574 54.253735 26.37869
27.346882 54.314064 27.178759
27.239368 54.856678 24.593153
27.688147 54.493202 26.710335
27.694902 54.60206 27.320978
27.039152 54.927227 28.388218
27.716324 55.985306 20.801105
27.737349 55.625244 21.543797
27.756886 55.653767 22.392162
27.396145 55.338913 28.469496
27.863344 56.876686 20.051516
27.70708 56.302498 20.402317
27.78283 57.367447 32.499104
28.143875 57.248146 33.747684
27.952675 58.14075 19.291412
27.596786 57.465057 33.573074
27.843565 57.58293 34.055317
27.507252 58.780228 19.330061
27.454218 58.58869 34.877262
27.970732 59.01891 19.115892
27.51999 59.651596 36.311104
27.702465 60.100624 36.705902
27.450901 60.676826 36.946373
27.615261 61.8149 19.28217
27.705448 61.71046 37.20641
27.776402 62.432545 19.789143
27.411419 62.54045 37.262012
27.58641 63.23242 36.996944
27.368408 64.12086 36.237934
27.156096 63.68568 36.66613
27.443403 65.48394 23.796581
27.52707 64.68384 35.288837
27.34459 65.61261 23.978912
27.534708 67.49057 26.599518
[...]
POINT_DATA 788
SCALARS features_00 float 1
LOOKUP_TABLE default
0.3999226 0.44674265 0.4368315 0.4785454 0.47188002 0.4674673 0.452539 0.5857501 0.58074206 0.5350536 0.48010015 0.47928917 0.6097255 0.6028874 0.57933927 0.5409052 0.59935904 0.5912954 0.42852923 0.4025176 0.42146364 0.42520133 0.41059193 0.44752145 0.71975017 0.7533007 0.8235406 0.8505163 0.46509323 0.73676205 0.7836008 0.824425 0.847461 0.55065393 0.44376242 0.3997739 0.708091 0.7768831 0.77923155 0.8192726 0.5696196 0.31852326 0.5775042 0.56378925 0.52965236 0.41425782 0.3050449 0.54617584 0.5557501 0.42004657 0.4084133 0.42055306 0.4264931 0.38625377 0.36363778 0.41244504 0.40291727 0.31644762 0.3228972 0.23102538 0.25149688 0.65858877 0.6886736 0.76687574 0.22169992 0.27506813 0.66907096 0.68213415 0.7240063 0.79545367 0.849645 0.33204806 0.8477366 0.19209604 0.35375723 0.30149162 0.575174 0.7305211 0.7853011 0.50409997 0.6017603 0.6439252 0.6916622 0.6663087 0.69235206 0.6728687 0.5210426 0.44967407 0.32601497 0.30096158 0.3197512 0.39538187 0.29539734 0.3637818 0.29529256 0.37474144 0.18744603 0.6301646 0.6538495 0.62527204 0.66085446 0.6954397 0.7574651 0.61180604 0.870085 0.8166326 0.61312354 -0.06523764 0.67647314 0.7691268 0.6741096 0.70499647 0.28618804 0.5284903 0.57381 0.7350809 0.74074334 0.12808889 0.045519575 0.3286628 0.41401827 0.741187 0.7015461 0.51775825 0.13679051 0.25182506 0.32988292 0.5219827 0.4714439 0.44899577 0.42668894 0.3388142 0.53922755 0.50320613 0.47368535 0.43629307 0.5399749 0.51389605 0.5008045 0.34312016 0.44521877 0.44218564 0.28219742 0.30911028 0.345644 0.33083257 0.41108513 0.45268422 0.2919843 0.29018492 0.6438329 0.3127332 0.5865717 0.6739011 0.70727766 0.415252 0.7612238 0.43346092 -0.0020319223 0.51437175 0.63281155 0.5929728 0.6460247 0.38516408 0.7037637 0.29396558 0.74425215 0.7334039 0.6793438 0.3695993 0.21601886 0.2394107 0.22117126 0.26486623 0.25980183 0.5476276 0.3823228 0.36320367 0.5666083 0.40125096 0.41161585 0.5691892 0.5517476 0.53332067 0.5021459 0.45713165 0.49718237 0.5127807 0.5153029 0.47333312 0.466412 0.4584418 0.4988743 0.5169827 0.30505845 0.287278 0.48276937 0.46441185 0.3075327 0.30469614 0.28979486 0.60941374 0.27465546 -0.053484023 0.6415983 -0.12701282 -0.35254714 -0.24428457 0.696954 0.48558196 0.5676542 0.5657933 0.3360365 0.6494321 0.66231835 0.2892643 0.72438824 0.6887561 0.1636604 0.23352402 0.30126697 0.22054288 0.18787494 0.33834136 0.57127106 0.43557996 0.38643053 0.5808251 0.54325116 0.51097214 0.4540436 0.549924 0.51993537 0.49857852 0.5211847 0.5323505 0.54732126 0.5453439 0.46300507 0.53212476 0.52059454 0.3194846 0.47867584 0.31504515 0.26859462 0.2976448 -0.057919055 0.077749945 -0.12331127 0.13839436 0.38904384 0.5220945 0.33692142 0.62360835 0.6851417 0.22430092 0.19774094 0.2500915 0.1773232 0.25484362 0.31809664 0.24325536 0.38183227 0.5350951 0.45145673 0.41784883 0.535484 0.5079464 0.47564566 0.512584 0.53299093 0.54531157 0.5587749 0.42644566 0.53438586 0.49654692 0.41802162 0.3302918 0.46754447 0.3899489 0.3299336 0.27001935 0.28951895 0.33330458 0.40785104 0.1937135 0.3474529 0.122146025 0.46340322 0.42749822 0.24065031 0.36067316 0.19491397 0.21700001 0.21224816 0.23256844 0.4016627 0.3529632 0.33872008 0.48833144 0.5048176 0.4409796 0.42060715 0.38404799 0.5097652 0.5036405 0.47280374 0.42873827 0.42733425 0.46643496 0.34115082 0.37441036 0.41591358 0.47855866 0.4655921 0.45624644 0.39625156 0.39700475 0.46918774 0.4644119 0.38942882 0.481529 0.46007437 0.40782806 0.45569402 0.35223562 0.46413592 0.40350813 0.390088 0.3902104 0.3955531 0.042119995 0.47057995 0.06322897 0.48604375 0.47689915 0.4099294 0.42966563 0.24433352 0.3312012 0.24480665 0.39925092 0.29211953 0.47541475 0.48713043 0.49182168 0.46865922 0.20837465 0.24097818 0.18240997 0.36225754 0.49376708 0.4800505 0.16914484 0.50371516 0.1180678 0.47975862 0.55564284 0.5222096 0.55449384 0.5636328 0.50496006 0.3923844 0.4201314 0.46847194 -0.013694301 0.49304512 0.04398614 0.47576547 0.49077085 0.21253991 0.4638281 0.25911486 0.25538018 0.21514294 0.17780642 0.29721922 0.28821653 0.40237415 0.41166964 0.47606683 0.16283996 0.499975 0.49350125 0.3695032 0.14554092 0.14862259 0.5147041 0.50470734 0.15660122 0.5831767 0.59391534 0.532289 0.59469044 0.5816083 0.5256438 0.5288677 0.5135189 0.4198718 0.37795663 0.4227972 0.54121923 0.48013407 0.38560897 -0.0039851516 0.48700592 0.065254755 0.4463141 0.4712087 0.24038115 0.16013268 0.037440095 0.23672865 0.40562057 0.12188713 0.15819582 0.21379262 0.23785354 0.36077988 0.09937498 0.29521552 0.44164115 0.32846078 -0.06668582 0.5757051 0.5755267 0.5598949 0.38212425 -0.13374558 0.50421697 0.48148608 0.40246558 0.5503651 0.3416034 0.36282212 0.6002457 0.592103 0.39990932 0.5847918 0.5375956 0.46245503 0.5347044 0.08356552 0.1481216 0.4464842 0.52714396 0.5242652 0.5008915 -0.2059979 0.11499248 0.26733744 0.5422286 0.50326276 0.54423857 0.5628236 0.52745146 0.26576778 0.3058 0.33630264 0.3987556 0.016871024 -0.15750396 0.4744467 0.47436887 0.23801182 0.58676803 0.55373585 -0.054297432 0.33107927 0.5963731 0.27282465 0.20690072 0.19124103 0.5828392 0.57824194 0.37146267 0.5552907 0.54461235 0.44173867 0.5802276 0.5328451 0.030642398 0.13527644 0.12796095 0.56724876 0.5829075 0.54664445 0.56733584 0.55939 0.46619916 0.5721129 0.5914756 0.5500097 0.33364648 0.4633951 0.46190846 0.20342365 0.34530222 0.49283797 0.1802268 0.45245618 0.47379833 0.21721111 0.4737384 0.5566058 0.51841015 0.5709833 0.31348342 0.56495583 0.280583 0.5508121 0.24973497 0.62409174 0.61658025 0.52074087 0.2730391 0.24093673 0.6056677 0.61153245 0.60933423 0.5368398 0.22601396 0.5994494 0.35351035 0.39302158 0.42679805 0.48989502 0.48276448 0.50188476 0.5004047 0.3065282 0.41619375 0.43015093 0.53224856 0.5131715 0.5226752 0.3491056 0.23104389 0.30679283 0.5185518 0.33206922 0.36447078 0.47514433 0.4654889 0.53915435 0.50441927 0.4556464 0.5012012 0.37812513 0.36588943 0.48789945 0.37095967 0.4998121 0.054113932 0.618254 0.70230484 0.696977 0.7093249 0.7515247 0.45941353 0.4778588 0.5373306 0.5351379 0.474207 0.52215225 0.5349141 0.5380845 0.19860944 0.35952744 0.3693726 0.46523887 0.517641 0.52642363 0.4646239 0.48495317 0.42173105 0.42463452 0.4210297 0.40083098 0.4201445 -0.11220716 0.36312497 0.23615736 0.49138188 0.4123028 0.5998588 0.55133796 0.63702714 0.675645 0.7644489 0.78271294 0.783456 0.7468946 0.8456863 0.833679 0.17649649 0.47724766 0.45107698 0.41102666 0.50223064 0.4719034 0.44498134 0.46348304 0.4536515 0.44414133 0.43768585 0.43650377 -0.049809232 0.055885807 0.27897543 0.38730285 0.43088818 0.46972892 0.4864229 0.5924037 0.75719833 0.70702124 0.82531893 0.85672116 0.86419946 0.7864244 0.43839985 0.19168767 0.13026004 -0.026629798 0.082216606 0.21307367 0.41812703 0.43398726 0.4866768 0.51726687 0.49390933 0.42566925 0.5519625 0.6935421 0.71998715 0.63762426 0.75096333 0.8092375 0.8354594 0.4828812 0.51366293 0.4460411 0.36100253 0.14934525 0.10144481 0.284365 0.09779328 0.09684938 0.13554177 0.46390092 0.2885552 0.49465653 0.5029834 0.51388747 0.569559 0.72572124 0.6700541 0.73031485 0.7714734 0.53915006 0.5724586 0.53840816 0.5093715 0.5029427 0.34647864 0.31942907 0.09792445 0.10305584 0.46534127 0.48697615 0.24516526 0.46481454 0.31674212 0.46307364 0.48558345 0.5945914 0.5614646 0.5923203 0.5675169 0.54636854 0.524903 0.48916605 0.5119677 0.4479866 0.4082601 0.6271187 0.59753525 0.1137016 0.79569894 0.7739718 0.36266917 0.42148846 0.39133698 0.2801304 0.438224 0.1754672 0.58614075 0.5808594 0.54213107 0.5788483 0.57977784 0.5689261 0.5570633 0.50659394 0.5197645 0.40956616 0.43869072 0.5063038 0.3638546 0.6194566 0.7923094 0.7164005 0.8653163 0.37703303 0.8505515 0.4869984 0.38157547 0.52428144 0.5446649 0.5658919 0.4776067 0.4870565 0.5528194 0.56584734 0.5067059 0.5044608 0.46100035 0.49835247 0.42637748 0.6443492 0.5712575 0.36544225 0.7970778 0.7040266 0.87794924 0.8980136 0.85799134 0.6819011 0.4465713 0.41564408 0.47775197 0.4874109 0.5377009 0.38221663 0.44537386 0.49747223 0.5175257 0.47691166 0.49234015 0.53392726 0.7553118 0.5340594 0.8652942 0.563022 0.8607775 0.67072755 0.5228463 0.56562936 0.5667214 0.46224207 0.47731572 0.5497703 0.55249 0.5729706 0.5711293 0.5744863 0.59835213 0.5976802 0.59055495 0.59452426 0.585989 0.59209615 0.59187603 0.5902467 0.57391584 0.5834688 0.5809959 0.5869111 0.5888343 0.612721 0.612231 0.6107317 0.6062672 0.60909796 0.6080061 0.6000407 0.59727395
SCALARS features_01 float 1
LOOKUP_TABLE default
0.03783787 0.049846545 0.047600918 0.056154247 0.0551239 0.054583404 0.05083314 0.08329765 0.08200404 0.06980475 0.05741989 0.056784537 0.089110084 0.08792074 0.08210155 0.07112931 0.08569516 0.08454627 0.036728133 0.032237742 0.03447184 0.034867007 0.0415127 0.045086764 0.1268173 0.13982072 0.1666926 0.1774928 0.0493927 0.1300156 0.15017006 0.16606395 0.17597169 0.074159354 0.044260763 0.031031178 0.11733227 0.1448747 0.14811358 0.16513102 0.074554674 0.016267776 0.07651548 0.07346965 0.07004846 0.041596156 0.015144422 0.072019696 0.07669589 0.044094123 0.034168866 0.037627354 0.037529737 0.027752146 0.028055403 0.035954796 0.030888446 0.020513412 0.017879933 0.006710921 0.007211128 0.1083715 0.1185595 0.14680961 0.0044402345 0.01072674 0.10782081 0.114913985 0.13008027 0.15700474 0.17778134 0.023999251 0.17621002 0.009198388 0.030402482 0.0065347943 0.070919335 0.13179101 0.15270644 0.044991937 0.07267653 0.09139608 0.11749019 0.10991986 0.11550639 0.10494456 0.044616934 0.049875487 0.024675298 0.021996839 0.023869457 0.031243486 0.02149318 0.02371929 0.012127556 0.032228023 0.00021364819 0.09749769 0.104473844 0.09743238 0.10841041 0.1195861 0.14129423 0.09263559 0.18650955 0.16473609 0.09371159 -0.090943515 0.11446238 0.14720379 0.11312698 0.12240584 0.022949629 0.06485475 0.07899261 0.13373178 0.13475151 -0.012213284 -0.012404232 0.00903493 0.031315647 0.13495894 0.12013057 0.06514812 -0.014450294 0.006621106 0.023837518 0.0670392 0.05507236 0.048899733 0.042268753 0.015469709 0.070699416 0.062327575 0.054188926 0.04413747 0.07041914 0.06407308 0.06048351 0.02883767 0.04621092 0.045928117 0.019797247 0.023598198 0.025791444 0.022396507 0.042247843 0.050600998 0.020796226 0.020804366 0.10023329 0.022798968 0.08148046 0.10969296 0.119534396 0.032816272 0.13986003 0.044212304 -0.05502937 0.0650773 0.09762855 0.08647413 0.10364703 0.029596265 0.12283528 0.014948979 0.13724753 0.13315581 0.11422974 0.033842728 -0.003343775 -0.02252116 -0.0031256452 0.012051191 -0.013869418 0.07280794 0.02037515 0.01538686 0.076893635 0.035108306 0.020758653 0.077163525 0.072417125 0.06775649 0.059705302 0.048811037 0.05739029 0.061229642 0.063036494 0.05214703 0.051334407 0.05077283 0.06119178 0.064666204 0.022296892 0.020319857 0.055621892 0.049944524 0.021694774 0.02204149 0.019242836 0.08439697 0.017768417 -0.0016939997 0.09597332 -0.028593693 -0.0036496446 -0.029983386 0.105022855 0.054741643 0.076586746 0.0777369 0.020403737 0.10366796 0.10759043 0.016071493 0.12991928 0.11769377 0.0076112966 0.012538092 -0.0057037184 -0.006540971 0.001771798 0.00937808 0.07800903 0.030945249 0.019520208 0.07999092 0.0701629 0.061027657 0.045102157 0.07184556 0.06413607 0.057440765 0.06306904 0.06616174 0.07126938 0.07274021 0.048989274 0.0687827 0.06553264 0.023420684 0.0532176 0.022322556 0.015969457 0.019726759 -0.0043298653 -0.0106781805 -0.008872356 0.0045605684 0.018125324 0.061070915 0.015000546 0.09234417 0.11495788 0.013122685 0.006732393 0.01462902 0.0002115322 -0.0012908182 0.008612035 -0.004171954 0.026614761 0.06991092 0.047808494 0.037736475 0.06934968 0.0625802 0.054269303 0.061834175 0.06737119 0.072306335 0.076945074 0.04324097 0.07032329 0.060627446 0.04026068 0.022994624 0.052895986 0.033172697 0.022674082 0.012134863 0.020636523 0.025770295 0.02702058 0.0077360296 0.025352951 -0.009533415 0.04821503 0.042439643 0.013264362 0.031975303 0.00047320826 0.0019181544 0.0012698678 0.00298043 0.03847384 0.024500974 0.019723287 0.05921265 0.06343241 0.044929348 0.039444186 0.031486362 0.06453485 0.06252434 0.054181527 0.04547594 0.04559423 0.053146712 0.02892803 0.033731353 0.039970394 0.054381423 0.05129282 0.048880834 0.03349486 0.030971482 0.05071562 0.050784364 0.036299393 0.0502727 0.046453387 0.037104283 0.043066457 0.029198248 0.038886063 0.035462886 0.029928457 0.0332447 0.035891555 -0.0075154398 0.053230587 -0.02043153 0.055356912 0.053772848 0.040638976 0.04399173 0.00725946 0.026759814 0.0067268857 0.037053045 0.011053218 0.056480557 0.05929505 0.05978053 0.051549178 0.010177499 0.012624234 0.0019260589 0.02841905 0.058098376 0.054450657 -0.013636697 0.05858989 -0.0059864107 0.05128322 0.06429231 0.059630927 0.06306706 0.06438981 0.05339082 0.030408043 0.04164496 0.054132022 -0.023013683 0.05872878 -0.0313863 0.05394387 0.057638448 0.00052811764 0.05067428 0.009641477 0.007610024 -0.00035506344 -0.0023392027 0.019381644 0.02005855 0.0385754 0.039040722 0.05521767 0.0035387499 0.05954908 0.057621565 0.030299295 0.005425642 -0.009313574 0.061179973 0.059571505 -0.009242014 0.073255986 0.07484938 0.05983882 0.0759107 0.071950816 0.057252955 0.059329607 0.05095406 0.035806958 0.029731449 0.044076283 0.06898439 0.05692559 0.023527607 -0.033089925 0.056541886 -0.0047140485 0.04474222 0.05192275 0.008646908 -0.0014728622 -0.0033729149 0.011386338 0.040574223 -0.007825624 -0.014244947 -0.008897293 -0.0015765782 0.030575883 0.0010160184 0.018561376 0.04510231 0.025856541 -0.0028330174 0.0774288 0.07455255 0.06958819 0.026517356 0.0006599403 0.060141433 0.05375618 0.036625423 0.0679616 0.028686093 0.028942471 0.08584652 0.08186948 0.039538093 0.08165723 0.06809606 0.051939733 0.06771835 -0.016931228 0.0030032815 0.04500299 0.06443388 0.061197273 0.054986637 -0.0011499505 -0.0023514247 0.016607216 0.064524606 0.06324286 0.07370608 0.077215195 0.06948808 -0.0011442685 0.019544002 0.026313838 0.037659574 -0.009868344 0.009581044 0.055704337 0.055143625 0.014194918 0.081934705 0.07162423 -0.003923493 0.027217302 0.0847592 0.015031768 0.00883972 0.009168329 0.08137073 0.08002662 0.030481363 0.07339505 0.07016647 0.04986931 0.07928133 0.06358379 -0.017141549 -0.0018518874 -0.009883192 0.07931883 0.0807979 0.064335234 0.067240894 0.06719788 0.041566893 0.08071822 0.08514938 0.06335657 0.027488777 0.048945777 0.048385736 0.013731467 0.027257083 0.053403024 0.007361948 0.037902933 0.053075008 0.007408832 0.049971387 0.07375968 0.06417877 0.07757918 0.021507805 0.075706385 0.01467688 0.07152527 0.00735721 0.09180993 0.0913235 0.060152266 0.0081518525 0.003416162 0.08890176 0.090780765 0.09011352 0.06176953 -0.022374943 0.08753749 0.0070911627 0.03486396 0.041201044 0.055399776 0.05511923 0.05721244 0.056679323 0.02248728 0.03601049 0.03985432 0.0658582 0.05897416 0.062066104 0.026123399 0.009092879 0.008063838 0.06191194 0.02376764 -0.006687645 0.0411681 0.050266813 0.06851928 0.05894353 0.045662884 0.057237424 0.02508459 0.026071291 0.05409023 0.022789285 0.05320802 -0.007649176 0.09126513 0.12077915 0.120348044 0.12482616 0.14091106 0.041521475 0.050017 0.06855079 0.06685308 0.037180133 0.059031088 0.06622996 0.06792344 -0.00045546447 -0.0037898691 -0.021334331 0.015166381 0.06193687 0.064243376 0.02627064 0.052583802 0.03825248 0.027630195 0.033632252 0.028752025 0.033616256 -0.054042496 0.02344546 -0.012723497 0.047144063 0.040619593 0.08522132 0.07642613 0.10059367 0.11205004 0.14441013 0.15266043 0.15336967 0.1386807 0.17757496 0.17357913 -0.012226835 0.037677452 0.027487608 0.011652688 0.042766992 0.03898076 0.03178068 0.038858783 0.037585795 0.03563058 0.035179347 0.035808973 -0.065037884 -0.04434391 0.0070734443 0.033550795 0.044162635 0.04756259 0.056959864 0.0814466 0.1423154 0.121568345 0.16734447 0.18219684 0.18601048 0.15315959 0.019636095 0.0056245998 0.0011972779 -0.07539076 -0.0015850576 0.011228656 0.03988973 0.03840971 0.047856208 0.057948787 0.05085682 0.03344934 0.06890908 0.11629781 0.12525447 0.09571885 0.13984391 0.16333127 0.17324996 0.047733363 0.050026152 0.04355623 0.03007285 0.0023521385 -0.00055884605 0.0140569275 -0.0012409866 -0.0028256094 0.0030334578 0.043610085 0.010751845 0.04991628 0.05189918 0.057415653 0.068975486 0.12715054 0.10608006 0.13260315 0.14717175 0.060550757 0.06543075 0.058476884 0.05229141 0.055183426 0.021045486 0.01913865 -0.002488053 -0.0015702592 0.0457327 0.047745883 -0.013879984 0.04644361 -0.01123579 0.050801188 0.05138579 0.08231013 0.06692517 0.07260117 0.06762587 0.06300433 0.058087613 0.053355314 0.05535708 0.041051157 0.03549105 0.095598385 0.07746059 -0.0008009897 0.14982475 0.1397298 0.030802637 0.037933223 0.011036044 -0.013949763 0.042546928 -0.0140652 0.07313484 0.07191408 0.062236886 0.07121757 0.072026975 0.06889655 0.06595565 0.054113656 0.05741138 0.029239878 0.04093648 0.061193284 0.030151857 0.09523611 0.1554122 0.12814404 0.18300998 0.041399978 0.17451207 0.048055567 0.022662487 0.05374241 0.05930757 0.065527335 0.043563373 0.04244821 0.05792351 0.06533523 0.054626472 0.048017807 0.045406558 0.05895647 0.038510576 0.10371531 0.080782555 0.027450975 0.15661165 0.12360722 0.18723324 0.19540076 0.17927854 0.11415417 0.047372952 0.03807851 0.03734245 0.038181573 0.05150228 0.019540526 0.030115604 0.043832447 0.04749751 0.045294773 0.057312906 0.065215126 0.13880159 0.07082017 0.17698172 0.07933251 0.17888281 0.112128906 0.0685103 0.07998416 0.08023162 0.051889032 0.056621548 0.06521739 0.0688007 0.07399614 0.07419781 0.075291745 0.08340365 0.085315436 0.08138465 0.0869909 0.08302683 0.08504971 0.08679713 0.08658346 0.08161144 0.08473084 0.08436545 0.07950149 0.07986345 0.08867377 0.08885828 0.08898623 0.08890156 0.0902762 0.09006951 0.0879057 0.08778412
SCALARS features_02 float 1
LOOKUP_TABLE default