# vtk DataFile Version 2.0
Really cool data
ASCII
DATASET POLYDATA
POINTS 7867 float
10.320911 53.03488 19.80661
10.295002 52.985466 20.301949
10.393407 53.162354 20.963314
10.340135 53.616272 19.200895
10.163186 53.588493 19.671026
10.093102 53.73287 20.383293
10.3219 53.628136 21.12504
10.391359 54.16732 19.220278
10.149418 54.288383 19.707134
10.095561 54.233757 20.567757
10.266516 54.60896 21.080345
10.272174 55.016117 20.420013
10.343987 54.869843 21.199192
10.870067 52.33464 20.430998
10.900595 52.2657 21.04565
10.889127 52.932404 19.222141
10.655216 52.77382 19.659054
10.570646 52.623455 20.371925
10.854201 52.516083 21.40376
11.147558 52.936157 22.374136
10.4754925 53.57295 19.181747
10.482603 53.263885 19.316
10.577527 53.650745 21.600658
10.986224 53.45243 22.222235
10.965684 54.28565 18.660292
10.454304 54.28951 21.48804
10.768453 54.448296 21.902967
10.949615 54.965813 18.71782
10.474676 55.05675 19.541473
10.50163 55.35077 20.162718
10.67552 55.131065 21.43082
11.034462 54.836914 22.051985
10.825385 55.805378 20.595139
11.216809 55.805603 21.288364
11.9133835 51.27991 21.559196
11.917865 51.326782 22.09741
11.6175165 52.21835 19.811298
11.529448 51.553307 21.445587
11.704473 51.744408 22.403246
11.933266 51.914608 22.811563
11.465594 52.86406 19.031622
11.229833 52.498074 19.390362
11.459173 52.380466 22.664888
11.724038 52.76135 23.042019
11.7690735 54.103767 18.381008
11.5610895 53.45605 18.644203
11.867789 53.247364 23.201729
11.841201 54.65562 22.559402
11.74637 53.99006 22.933573
11.325948 55.514347 18.834259
11.417984 55.32841 21.831005
12.251006 56.838768 18.068598
11.615579 55.975235 18.823812
11.96765 56.09672 21.32307
12.317851 57.794247 17.106253
12.033117 57.862072 17.611841
12.294374 57.709633 19.789486
11.98622 58.478657 17.5111
11.789372 59.654236 18.0372
11.787437 59.38 18.479607
12.366418 59.400963 20.407034
12.344888 60.85024 16.156956
12.027274 60.742256 17.71911
11.787126 60.074265 18.523975
11.963045 60.347668 19.360329
12.171335 60.232967 19.84667
12.407338 61.589947 16.079058
12.227185 61.68655 16.576975
12.011939 61.187237 17.886374
12.149004 61.41329 18.349934
12.042718 60.85961 19.132088
12.381197 62.037827 16.2248
12.330979 62.257 16.772308
12.225077 62.08452 17.26389
12.34245 62.429806 17.913507
12.508685 51.255188 20.859554
12.438367 51.123787 21.622934
12.54481 51.19286 22.193415
12.320399 51.488544 20.576035
12.601387 51.843956 23.040703
13.351068 52.61782 14.667693
13.339541 52.71076 15.551679
12.476911 52.502964 23.426325
12.702895 52.838398 23.61724
13.352058 53.27859 14.535749
13.28688 53.55034 15.365238
13.26005 53.499924 16.264086
12.705977 53.88494 17.856209
12.287625 53.299576 23.50223
12.735967 53.251434 23.603178
13.408208 53.982716 14.708222
13.129853 54.401215 17.103657
13.188822 54.136356 17.316154
12.55229 54.42624 23.185448
13.336843 55.838997 16.470236
12.5266285 55.288177 22.569508
12.813249 54.921192 22.80509
13.004819 56.400894 16.74297
12.671405 56.656483 21.069775
12.941132 56.370125 22.10231
12.684856 57.933804 16.673782
13.19318 57.267532 21.106491
13.016881 56.803288 21.719933
13.121878 58.549324 16.252142
12.653034 58.223213 16.648697
12.709733 60.1722 16.127684
12.464503 59.322044 20.36932
12.736147 60.953423 15.768006
12.421283 60.332085 16.464855
12.764786 60.14332 20.43642
13.072316 60.02977 20.603516
12.754088 61.49795 15.735997
12.466086 61.21147 19.319574
13.137463 61.115246 20.097105
12.876193 62.282066 15.905152
12.615612 62.566498 16.472815
12.720647 62.40219 18.419407
13.123978 62.827297 16.05713
12.898153 62.894863 16.57159
12.8109865 62.886242 17.482676
14.37147 40.11061 12.719079
14.300958 40.216278 12.97449
14.341076 40.602448 11.952872
14.202361 40.583427 12.542786
14.302635 40.69323 13.386971
14.387939 41.01162 13.835215
14.300064 41.29085 11.901241
14.146366 41.30315 12.357342
14.263657 41.35216 13.464802
14.3719635 41.254673 13.80685
14.304358 42.129807 12.682193
14.283119 42.1342 12.966535
14.341475 46.01628 13.900594
14.319973 45.81463 14.461503
14.351654 46.0737 15.313591
14.186206 46.63644 13.94373
14.114496 46.343872 14.740154
14.026662 46.749405 15.434614
14.047915 47.126793 16.421818
14.394565 47.26084 13.911849
14.016469 47.618195 14.926588
13.832787 47.604717 15.741085
13.86085 47.650555 16.34453
14.034796 47.602036 17.020666
13.974113 48.474453 14.6480255
13.785748 48.545444 15.536609
13.748572 48.479786 16.141228
13.912295 49.35099 15.422054
13.807278 48.984417 16.048965
14.242436 49.210613 17.265219
13.83078 51.00839 14.55533
13.777367 50.78465 15.073909
13.935833 50.506496 16.072752
13.277293 51.179066 21.65259
13.173625 51.230114 22.24175
13.998106 51.56217 13.825872
13.600701 51.87166 14.305983
13.869297 51.872643 16.176924
14.12805 51.227386 16.75824
13.759141 51.49632 22.679365
13.335766 51.835274 23.101254
13.590044 52.68411 13.754371
13.519693 52.12363 14.685207
13.522787 52.238472 15.801621
13.523665 52.35876 16.51866
13.539786 52.84545 16.909409
13.539841 52.357407 23.348497
13.748873 52.935467 23.663683
13.824099 53.31062 13.295655
13.622661 53.602192 13.706995
13.730328 53.4886 23.486904
13.524465 53.364376 23.623587
13.884312 53.95457 13.647031
13.468595 54.36839 23.474445
14.22855 54.728596 14.314078
13.866775 55.595436 15.966596
13.703823 55.05028 23.299274
13.579139 56.331936 16.17621
13.346656 56.358204 22.27385
13.626528 57.565994 16.161297
13.743821 57.674137 21.31397
13.494116 57.03823 21.758694
13.878547 58.58949 15.959452
13.665659 58.55218 21.061981
13.645608 59.138226 16.063126
13.369862 59.57987 20.90163
13.317863 60.402805 15.699586
13.824713 60.39972 20.719679
13.252264 61.801094 15.451578
13.202332 61.275425 15.486369
13.711309 61.480724 20.179094
13.708999 62.165638 15.415817
13.461272 62.46662 15.676775
13.703593 62.043037 19.557068
13.908848 62.091206 19.754906
13.6246605 62.92415 15.947799
13.632671 63.203205 16.47891
13.565678 63.210022 17.319115
13.435142 62.960503 18.058132
13.716451 62.619656 18.825617
14.679326 39.879036 11.983147
14.692259 39.79941 12.405543
14.8483715 39.822567 13.172048
14.847215 40.229584 13.909969
15.031773 40.898144 11.038214
14.537865 40.459473 11.698159
14.435823 40.44307 13.655072
14.602852 40.762497 14.052484
15.166161 41.375095 11.004618
14.631912 41.545612 11.393528
14.694555 41.395477 14.153814
14.989908 42.22251 11.183573
14.678116 42.405006 11.623729
14.669884 42.382515 13.369963
14.854365 41.88114 14.145126
15.109717 43.640327 10.958133
14.892146 43.140156 11.576357
15.053946 43.40181 12.376657
15.0975 43.501637 13.018353
15.013222 44.489513 10.801866
14.81529 44.52699 11.605654
14.967151 44.453926 12.198801
15.28053 44.89426 13.525748
14.948406 44.95247 14.253027
14.954248 45.318775 15.056191
15.103449 45.192753 10.799655
14.862168 45.44382 11.588323
14.901241 45.60481 12.435115
14.859732 45.3005 13.645418
14.568927 45.704906 15.251929
15.234056 45.631 16.094833
15.191116 46.030594 11.098005
15.172589 46.30896 11.3555355
14.773022 46.577007 12.972627
14.50881 46.46731 16.168312
14.702891 46.973785 17.24724
15.310352 47.025734 11.78072
15.208265 47.458805 13.251375
14.725703 47.814064 13.825627
14.400519 47.40785 17.447544
14.406936 47.85086 17.876009
15.1038065 47.850323 18.96026
14.4594 48.556988 14.278182
15.043351 48.375843 18.987892
14.701646 49.474392 14.053546
14.376325 49.37638 14.47611
13.907703 51.342884 22.1561
15.297282 52.243587 9.89286
15.385456 51.901806 11.659298
14.575654 51.436794 13.2831
14.899046 51.401863 13.400599
14.87621 51.863815 19.59595
14.099013 51.69536 20.885544
14.38226 51.552715 21.567753
14.085797 51.54053 22.309132
15.199453 52.74982 9.076064
15.071916 52.762127 9.488199
15.048012 52.659843 10.329705
14.84725 52.448452 12.808613
14.288436 52.463184 23.316166
14.444091 53.159683 23.72894
15.1466675 53.476917 8.8216305
14.943444 53.43296 9.411928
14.881191 53.413338 10.133127
14.955467 53.28388 11.65497
14.967101 53.651745 12.162961
14.602468 53.59195 23.833904
15.179053 54.202957 8.999592
15.086732 54.31754 9.498099
14.689664 54.14659 13.029672
14.385183 54.33021 13.514336
14.60276 54.693928 23.776012
15.333806 54.79995 9.11448
14.443373 55.436646 23.269363
14.764341 56.03533 14.849857
14.624119 57.294994 15.601587
14.196199 57.44331 21.573446
14.25449 59.556404 15.856423
14.213402 60.867867 15.451089
14.6436 60.77235 15.599424
14.308475 60.140198 20.736563
14.105253 61.28665 15.39648
14.511497 61.662647 15.478282
14.404081 61.355473 20.47814
14.05895 62.07985 15.420883
14.313635 62.429256 15.64002
14.493344 62.424744 19.389185
14.3095665 61.99673 20.069773
14.355387 62.95258 16.004839
14.306126 63.1904 16.45698
14.376271 63.193237 17.432693
16.320688 35.222115 2.0630805
16.168179 35.032455 2.5386562
16.116203 34.756493 3.4327197
16.413618 34.40477 4.098166
16.132055 35.708935 2.1102893
15.877938 35.68532 2.5848694
15.781939 35.671368 3.3688042
16.06836 35.810783 4.391668
16.320263 35.30059 5.2266827
16.353056 35.395813 6.7392225
16.250103 35.525845 7.6559825
16.325056 35.545395 7.955798
16.13513 36.212513 2.0914676
15.827567 36.322838 2.7157965
15.765691 36.336075 3.2969613
16.189362 36.536148 4.307397
16.275988 36.747704 6.9217267
16.15541 36.29065 7.477925
16.312647 36.448658 8.357815
16.140694 36.848736 2.5862994
15.97422 36.805817 3.2906544
16.241009 37.023556 6.7491984
16.367268 37.46902 7.331845
16.376955 37.4542 8.443439
15.239513 39.360794 12.013742
15.29951 39.35534 12.429886
15.854623 39.418007 13.037526
16.08782 39.737988 10.680304
15.728846 39.793037 13.948685
15.71154 40.38992 10.9291525
15.409979 40.531994 14.4402485
15.285324 40.912647 14.626001
16.429499 42.055035 6.702052
16.380653 41.803375 9.123177
16.206833 41.74978 10.026905
15.48489 41.171303 10.611049
15.695752 41.361015 14.716256
16.472172 42.987064 5.4358873
16.30998 42.62571 6.6093793
16.343534 42.596657 7.363327
16.139431 42.94172 9.762519
16.036787 42.22442 14.7802725
16.340307 43.672348 4.6876264
16.276514 43.59469 5.498636
16.350698 43.478138 6.560096
16.047695 43.622547 9.764865
15.540203 43.33056 10.39343
[...]
POINT_DATA 7867
SCALARS features_00 float 1
LOOKUP_TABLE default
0.6477784 0.66685224 0.6789062 0.62533104 0.6636721 0.69672513 0.67894876 0.6432208 0.6966145 0.7046771 0.6681932 0.7001637 0.6482981 0.6433936 0.674915 0.58744514 0.6239901 0.6548598 0.6820071 0.6627547 0.61516035 0.6195084 0.6511218 0.62936294 0.53235805 0.6452554 0.5974053 0.54167485 0.68592954 0.6973805 0.5978392 0.54334265 0.6141516 0.48414004 0.6930223 0.7167516 0.58520544 0.6986244 0.73063475 0.71515334 0.5341282 0.57711357 0.6999358 0.6560718 0.37859768 0.48659548 0.6055731 0.47206986 0.5498267 0.47702366 0.46055067 0.04022896 0.3547642 0.3095494 0.19583586 0.21126562 0.23436573 0.31135485 0.47343245 0.47146744 0.36096644 0.6396459 0.564955 0.5025979 0.5164968 0.4908866 0.7066299 0.6969583 0.5900135 0.5871898 0.5357571 0.7286757 0.73373115 0.70688236 0.715664 0.6093765 0.6638194 0.68654966 0.6085286 0.6795686 0.36370358 0.2846132 0.61304754 0.56396997 0.3802979 0.2854866 0.15940143 0.008373588 0.56469625 0.53266454 0.3466034 -0.05918675 -0.07234745 0.46234828 0.07941424 0.34103894 0.37622446 0.10685875 0.14147352 0.19079226 0.20677787 0.0660475 0.13157706 0.26162955 0.23251317 0.51330507 0.34900248 0.65165186 0.54355013 0.44422042 0.41404337 0.7041979 0.5496793 0.52971035 0.75310534 0.7649667 0.6825061 0.78882784 0.7956716 0.79466856 0.66391814 0.66051674 0.63918793 0.6625022 0.64528537 0.6148753 0.59012854 0.63204134 0.61830735 0.60616624 0.55431426 0.56102145 0.3467742 0.3567183 0.37094653 0.36649123 0.39506552 0.407651 0.38759157 0.30696797 0.39970618 0.41149724 0.4020761 0.3787889 0.29973373 0.3672589 0.38888764 0.26750234 0.33628824 0.33147675 0.21635526 0.20303431 0.18398166 0.60096705 0.64894164 0.26839215 0.33728313 0.23795164 0.19268045 0.5910242 0.61752206 0.39134416 0.3420716 0.2612393 0.20587397 0.15292715 0.5381835 0.474422 0.36088422 0.37543803 0.453641 0.47128588 0.3450442 0.42816508 0.28612736 0.11116247 0.3499641 0.15151358 0.17277484 0.19421649 0.025276057 0.083497174 0.25020787 0.10571162 0.35363445 0.3184864 0.56213176 0.45712233 0.72407484 0.67920876 0.5489943 0.7486547 0.7712406 0.5754164 0.5738044 0.80835617 0.84780794 0.85760415 0.77295953 0.64048994 0.6423345 0.6498467 0.6243069 0.5987686 0.43778804 0.6138853 0.6319089 0.59858453 0.34920087 0.4527544 0.56130254 0.29929993 0.3875931 0.50797826 0.5201709 0.2259858 0.2985152 0.2944516 0.2262553 0.26529476 0.26625234 0.19564831 0.14820583 0.23757711 0.295725 0.28598818 0.2917738 0.2531219 0.26323232 0.34527403 0.26862776 0.2910692 0.28984004 0.25811112 0.35604823 0.29564303 0.24767676 0.09702174 0.17956306 0.32480824 0.30633003 0.2491684 0.2054517 0.24038644 0.025138937 0.15266083 0.5687534 0.44339028 0.14769903 0.13790038 0.094184786 0.03392425 0.44336593 0.44536895 0.53567386 0.6173686 0.5731506 0.42817557 0.23173806 0.43772018 0.40741992 0.7184572 0.65829563 0.55065143 0.30477163 0.29520494 0.3955331 0.75644433 0.7283342 0.26264995 0.27269393 0.36178938 0.7641257 0.27527308 0.13299437 0.12762713 0.048484273 0.4179321 0.6110026 0.5847636 0.42644832 0.66411793 0.69546425 0.5576675 0.7399956 0.7717326 0.5851075 0.5705617 0.8265834 0.86314416 0.8408227 0.7596892 0.7423388 0.6608703 0.53708744 0.8159393 0.8248286 0.78262556 0.5864806 0.33626527 0.3755368 0.4237583 0.4268682 0.85092247 0.8623495 0.8271266 0.630456 0.41054544 0.42949677 0.415534 0.8599005 0.8165842 0.3875659 0.35957214 0.34710658 0.5815417 0.56625557 0.48689258 0.36648625 0.53554827 0.40997964 0.51435596 0.49655622 0.32507688 -0.07227637 0.025424115 0.2634438 0.40533352 0.5117616 0.36353773 0.26387405 0.076987125 0.24972421 0.67195 0.52013487 0.37560368 0.15074307 0.17663607 0.34846598 0.011399634 0.7149905 0.60546696 0.47892845 0.19934541 0.22735697 0.26902053 0.22799522 0.20928547 0.2414078 0.19176917 0.21422487 0.25194848 0.12711273 0.2335166 0.21540815 -0.24457836 -0.08553825 0.20783783 -0.21111028 0.131287 -0.0055513345 -0.11395196 -0.057127044 0.08933288 0.46335465 0.26351494 0.12346652 0.64555603 0.5452767 0.29499605 0.7384663 0.7255771 0.35485923 0.7473441 0.7685813 0.33579287 0.7642119 0.7414424 0.6597979 0.49782622 0.13537143 0.1889353 0.282814 0.021307435 0.119990066 0.16326378 0.040374067 0.06818488 0.20998573 0.056139912 0.033736423 0.583525 0.5389173 0.68555033 0.56552845 0.7746439 0.79487026 0.6074892 0.57228005 0.56795204 0.82604146 0.7293292 0.6718824 0.6040976 0.62672687 0.64393896 0.677266 0.6007627 0.6246681 0.64284813 0.6922643 0.5974039 0.61299837 0.6024142 0.55617094 0.50001055 0.34695047 0.7189678 0.6746185 0.3482309 0.3245715 0.39011395 0.412542 0.7458074 0.7729353 0.3598158 0.41055995 0.77423275 0.81569296 0.38586622 0.36342776 0.83026147 0.82039094 0.7592348 0.31802285 0.3230639 0.7483214 0.6799862 0.28990668 0.30868587 0.14268099 0.24114107 0.1833035 0.22864783 0.15606578 -0.16331771 0.31278595 0.5325475 0.383218 0.30589077 -0.08368584 0.21312407 0.606271 0.51968586 0.4526624 0.34933165 0.0835244 -0.038709767 0.67809165 0.6698947 0.09690879 0.7698392 0.7568603 0.16823643 0.08661188 0.12657164 0.060640927 0.7966711 0.7950788 0.75463176 0.35392606 0.1494572 0.017904863 0.1047397 0.027049813 0.79609644 0.741421 0.6671014 -0.066892006 -0.0354335 0.065796405 -0.0132178515 0.055216867 0.10493593 0.12522641 0.15526728 0.18531325 0.1325618 0.2243924 -0.23533732 0.1267111 -0.2019262 0.069045044 0.16466178 0.104893416 0.091822304 0.43564337 0.35753402 0.083630286 0.1389653 0.6546136 0.23285306 0.6990454 0.28947675 0.7179431 0.29222813 0.74969274 0.71208704 0.65902495 0.26307243 0.21366772 0.24958752 0.02323658 0.16116028 0.10098997 0.2620297 0.17743865 0.527497 0.527127 0.69524574 0.57915074 0.5606228 0.7253423 0.6817683 0.6345823 0.5891562 0.62282073 0.6509423 0.68632925 0.70004606 0.5582332 0.6150299 0.6572161 0.698197 0.7195015 0.68725145 0.5141714 0.5853414 0.6905228 0.661513 0.53957695 0.54547536 0.569121 0.57805336 0.5781162 0.42732733 0.47724402 0.39643985 0.6343019 0.5515057 0.49898195 0.23409417 0.3433081 0.6615164 0.671433 0.3754856 0.7089632 0.7190126 0.27731827 -0.056399204 0.72835165 0.77709436 0.021572553 -0.16684987 0.50617975 0.56677496 0.7780539 0.7419536 -0.16398515 -0.18274531 0.1402564 0.36981755 0.4931659 0.5370868 0.6723939 0.5530188 0.24775915 0.05456301 0.24379109 0.47025847 0.47056556 -0.08507086 0.24063152 0.53666574 0.40353274 0.23912472 0.5996259 0.027317695 0.08973336 0.0762018 0.7024145 0.61192036 0.12346765 0.75843513 0.01828435 -0.0036731502 0.79754484 -0.12185821 -0.15193951 -0.12332179 0.79887676 0.7905297 0.7578749 0.58205295 0.33890682 -0.082940765 -0.08935831 -0.034617946 0.11674933 0.13070291 0.7188394 0.6726001 -0.17417516 -0.14810087 0.18695612 0.18292701 -0.20152517 0.19766322 -0.08081054 0.13071792 -0.05287151 -0.11386677 -0.035323866 -0.00828324 0.081806354 0.08157694 0.16009454 0.59393466 0.36966854 0.19533943 0.5583902 0.27550697 0.6723612 0.64692086 0.29308817 0.7134906 0.63749385 0.181083 0.2625631 -0.06040138 0.34269214 0.076311246 0.133682 0.058316685 0.38985044 0.44133332 0.10565682 -0.10485068 0.4239493 0.44283044 0.4641099 0.45893514 0.44596165 0.55121595 0.56632227 0.6449086 0.616668 0.6051478 0.65685695 0.48646533 0.566072 0.61097145 0.6078237 0.6589314 0.64762557 0.5273602 0.6447687 0.60269094 0.34402707 0.57431674 -0.038263857 0.532632 0.45704252 0.19496964 0.26789483 0.060153842 0.396749 0.3112155 0.38134277 0.43961012 0.2509909 0.17342837 0.24191707 0.57232696 -0.12606414 -0.138023 0.650584 0.6058608 -0.1835688 -0.013212867 0.47709844 0.570245 0.576399 0.6969125 0.68205136 0.24434872 0.39432514 0.47122854 0.59087205 0.5885248 0.56430846 0.6944252 0.5532319 0.5375858 0.6618388 0.5189481 0.3165462 0.34116465 0.3667206 -0.05446261 -0.03378795 0.08323479 0.054446757 0.47172844 0.3436937 -0.18100028 0.49903098 -0.022197532 0.58563185 0.5793693 -0.07239172 0.034560647 0.13507886 0.71634465 -0.01719588 0.1121309 0.21459994 0.34956002 0.4444069 0.7737658 -0.0098978765 0.21197197 0.38444138 0.48261562 0.7889793 0.7725976 0.40127963 0.21933424 0.32993707 0.4361432 0.7182355 -0.14162448 -0.162916 0.15867491 0.21296294 0.076686375 -0.0066701695 -0.014080852 -0.06711738 0.05315932 0.024489554 -0.042907547 0.094321854 0.016117945 -0.13965768 -0.038666215 0.06251437 0.15404245 0.12717554 0.07945267 0.27419093 0.2889672 0.32078457 0.05437811 -0.03091044 -0.047792107 0.42826816 0.32879585 0.23239875 0.0680954 -0.015286818 -0.07455816 0.48974964 0.3024397 0.2535028 -0.026037127 0.11915924 0.4976539 0.50659233 0.4799043 0.49587154 0.42110607 0.43097576 0.428575 0.33479038 0.39115924 0.50355095 0.52626896 0.56098986 0.60230815 0.2854362 0.6142643 0.54110646 0.17559394 0.4976142 0.09298754 0.375557 0.25871673 0.2086913 0.37889022 0.29436564 0.080757685 0.11535813 0.1413249 0.42940882 -0.09607552 0.5440927 -0.07421581 0.054741196 0.33004987 0.33454922 0.55080587 0.5341885 0.55448353 0.54517174 0.6024208 0.030764945 0.5193675 0.35423046 -0.21244447 0.02630956 0.06645001 0.28052324 -0.28419092 0.38348073 -0.102333516 -0.1874946 0.105271414 0.15265124 0.34094423 0.068416715 0.12147506 0.19242847 0.24983238 0.41036695 0.6210043 0.32015106 0.46286213 0.5296941 0.7472178 0.7262858 0.5077156 0.56156355 0.74707323 0.68145204 0.48198733 0.5488247 -0.28002942 0.24344905 0.41112942 0.46788138 0.12438057 0.16645727 -0.07185755 0.16491787 0.11174142 -0.22832724 0.16242118 0.14869282 0.10931258 -0.146233 -0.35380346 0.14177406 0.119277075 -0.26098567 0.15981583 0.18204068 0.1899238 0.25552505 0.17191496 0.28129277 0.31782869 0.3053039 0.33772907 0.43568778 0.40669042 0.3623195 -0.11353124 -0.101354524 -0.16800489 -0.30968785 -0.16589127 0.49903917 0.41288894 0.38609862 0.33977354 0.27912733 -0.09173588 -0.027033724 -0.005668357 0.5189993 0.5215074 0.3681425 0.2337248 0.49656978 0.5179068 0.41192794 0.39377555 0.38897318 0.3563862 0.35182357 0.40223983 0.49779284 0.23930477 0.14590555 0.3729409 -0.029051088 0.18311156 0.26214904 0.15601447 0.16541769 0.29029706 0.20009714 0.037523497 0.007749893 0.18657613 0.37762573 -0.29205224 -0.008248493 -0.09465967 0.44851604 0.09859872 0.14293367 0.38248414 0.5070829 0.4879423 0.3108757 0.48768073 0.245447 -0.28399506 0.4503034 -0.23929688 -0.048065186 0.12341318 0.2895711 0.3632116 -0.21645121 -0.34116113 -0.20406692 -0.07524688 0.15259376 0.24994189 0.30422246 0.31390947 -0.116058186 0.008376554 0.13660583 0.24873431 0.103653274 0.07785745 -0.019847095 0.36515838 0.43547815 0.17517644 0.52760565 0.5505569 0.5838767 0.5796923 0.5506884 0.5640216 -0.33064708 0.43155903 0.027135888 0.31662488 0.060106583 0.09412272 -0.008267522 0.18666516 -0.12777418 0.19811387 0.17786463 -0.10786636 0.10182704 0.24820983 0.13776302 0.15264578 0.14507188 0.18774775 0.14410654 0.20999566 0.22895032 0.23874658 0.31864148 0.37072137 0.40283513 0.43675622 0.43613464 -0.23006798 -0.32138154 -0.3211087 0.44125473 0.4609333 0.43986997 -0.013162911 -0.34146208 -0.05464331 0.037966296 0.47448123 0.4976279 0.44241112 0.4171611 0.35223022 0.20026545 0.3799174 0.1872792 0.123431355 0.24301818 0.45317125 0.4826852 0.48323968 0.3802807 0.40362912 0.47184753 0.4742864 0.4217897 0.56173074 0.5570694 0.54910874 0.5889763 0.41034424 0.41100848 0.39249438 0.33514708 0.30323634 0.24497688 0.31171855 0.3076889 0.2141428 0.2099282 0.06260569 0.031183828 0.14063229 0.32360438 0.3214991 0.3424644 0.06555997 0.3110162 0.26022393 0.13933457 0.18971984 0.49202305 0.31744704 -0.15975748 0.23176435 0.36232337 0.46571705 0.29556757 -0.060547657 -0.09464207 0.20638517 0.26924276 0.05678311 0.40461892 0.408643 0.120200105 0.3499599 0.27458775 0.34198773 0.34567952 0.35938385 -0.13317275 0.25444627 0.3386225 0.38541573 0.39249715 -0.2213958 0.38917512 0.39472786 0.09951472 0.3502592 0.25999624 0.17072111 0.27823758 0.26610315 0.3862595 0.15721959 0.053164758 0.35421848 0.31669295 0.04891441 0.31715524 0.31993723 0.27405274 0.25668854 0.24648285 0.19067013 0.52047443 0.20010109 0.14166136 -0.133397 0.516494 -0.040978342 -0.24723165 0.3818549 0.42876565 -0.012311159 -0.22265622 0.29067293 0.11382945 0.1352506 0.11289615 0.16221449 0.18698794 0.19509363 0.23668265 0.29475015 0.24882086 0.2221764 0.3038314 0.32602918 0.25484437 0.196174 0.22177386 0.29711306 0.37212086 0.34974617 0.12567267 0.103393205 0.1741072 -0.10447814 0.16941419 0.3216654 0.22508633 0.41435742 -0.42320502 0.37293452 0.4088203 0.45382372 -0.37344274 0.4069164 0.45335507 0.4279687 0.40819502 0.115532644 0.10315393 -0.014928848 0.17753923 0.27839842 0.3141177 0.4012957 0.42389992 0.4341837 0.37319562 0.35680312 0.29493952 0.42580497 0.5443475 0.5829359 0.54978836 0.47132128 0.55042404 0.5898048 0.5687684 0.4779489 0.4041763 0.38712555 0.36328474 0.382401 0.40897232 0.37306863 0.32427365 0.2393203 0.3353778 0.14154054 0.08951139 0.07835193 -0.1515122 0.15469015 0.23323897 -0.041439235 0.3503189 -0.11306411 0.33060154 0.28235394 0.052852683 0.20423807 0.4956367 0.57014936 0.5680853 0.17762569 0.12944223 0.1898574 0.29056185 0.4288792 0.5395838 0.5481302 0.11703813 0.4898877 0.43960518 0.057467975 0.06706895 0.41714287 0.36489153 -0.11188264 0.33767417 0.3432698 -0.18448023 0.37398595 0.104855075 0.39118594 0.35794032 0.3803894 0.19134764 0.271963 0.25281137 0.4231331 0.38881713 0.25530797 0.15393205 0.42549664 0.40134212 0.005942948 0.37787232 0.3512248 0.11476058 0.2787499 0.27763045 0.24950926 0.35025522 0.32035998 -0.012576118 0.019946028 0.048982453 -0.053302914 0.091384545 0.13042478 0.15738848 0.21804065 0.3354565 0.20147559 0.28989387 0.3842807 0.36413032 0.28853652 0.33076525 0.3570758 0.3879127 0.38372424 0.38618767 0.40512028 0.3874007 0.22383645 0.413937 0.37301418 0.036096066 0.15293446 0.119427316 0.029325768 0.20209369 0.19856599 0.11677929 0.027473502 0.21904224 0.30620402 0.15721515 0.1777961 0.39401215 0.28403035 0.35469678 0.43503684 0.40727913 0.3653539 0.35714242 0.2725869 0.120823786 0.39794642 0.40319937 0.3705461 0.30456623 0.28811085 0.36615184 0.39451057 0.41074112 0.50522554 0.52308524 0.50902224 0.3800731 0.4644355 0.32390946 0.36220664 0.36877447 0.29581675 0.35859618 0.38952047 0.37924552 0.42289525 0.46338978 0.48229992 0.35703862 0.37668318 0.36734676 0.3605958 0.32782495 0.2986101 0.3167258 0.36395073 0.43919024 0.4849307 0.5228732 0.5353514 0.34116006 0.36157945 0.21472782 0.3056484 0.36473793 0.45225614 0.5086118 0.5205849 0.53579724 0.2686839 0.2454296 0.13664941 0.29518485 0.29455015 0.39350653 0.4702021 0.5100607 0.15731764 -0.35398346 -0.16111979 0.00884555 0.12504096 0.28279912 0.16208303 0.13504419 0.24923494 0.32728955 0.26206785 -0.016005885 0.34921163 0.2746201 0.23207024 0.163218 -0.22538011 0.50924563 0.5634332 0.5380867 0.3611131 0.31440803 0.2010956 -0.1184195 -0.13214171 0.15790425 0.25743583 0.53221023 0.4969942 0.2535299 -0.01372619 0.44860923 -0.050584786 0.33900377 -0.102048926 0.3333108 -0.2775786 0.37949267 0.3902722 0.19941482 -0.12739015 0.37131655 0.40773153 0.3662175 0.3087836 0.42000562 0.19299358 0.3685997 0.4193639 0.06878378 0.049054034 0.3820387 0.07294224 0.14714393 0.19406277 0.18528548 0.12301223 0.071416885 0.059981734 -0.058830637 0.0063333064 0.0033712909 -0.1399891 0.036337655 -0.0048829913 0.23074113 0.43400162 0.48492593 0.06268122 0.44510972 0.52448654 0.60018855 0.19813958 0.44489142 0.55465543 0.6033037 0.33296573 0.4406443 0.401937 0.10666436 0.33270147 0.41936862 0.42190248 0.08163944 0.415006 0.40882474 0.28241572 0.045387354 0.16900253 -0.062020868 0.2719918 -0.17725761 0.307086 0.35144842 0.07617557 0.1771047 -0.014893524 0.034909356 0.16013563 0.11319009 0.29350585 0.046768688 0.059374016 0.43325618 0.44391054 0.04575447 0.13964815 0.27108696 0.279491 0.37753928 0.4284059 0.44784513 0.31751513 0.349253 0.3231141 0.22647285 0.27350006 0.44094053 0.2747103 0.23632762 0.24718735 0.22784303 0.25025883 0.2275917 0.24413574 0.2987661 0.30065867 0.33103037 0.36052477 0.42653564 0.23843998 0.26911086 0.48671824 0.5166228 0.33995616 0.3647847 0.36858016 0.321965 0.2916215 0.25700048 0.19470309 0.519549 0.5351849 0.26091868 0.32211792 0.212945 0.18672621 0.10406169 0.1913206 0.51694155 0.5258945 0.2069225 0.24968943 0.48589528 0.49135104 0.21968864 0.180785 -0.47254488 -0.15662141 0.061553776 -0.024281733 0.23110574 0.3496483 0.42344254 0.2970653 0.21718737 0.12955166 0.14819261 0.38019562 0.3345716 -0.3470428 -0.10985999 -0.079475865 0.3979252 0.37700182 -0.22760889 -0.20043883 0.15707934 0.46095824 0.46937236 0.40470698 0.3490234 0.48073864 0.45856684 0.39141673 0.331109 0.27240875 0.37069345 0.27612588 0.27696404 0.31036532 0.18403858 -0.4472386 -0.4383675 0.3121543 -0.3517914 -0.30430558 0.35357875 0.35337943 0.36671585 0.19497505 0.30841234 0.36627015 0.112184905 0.09463681 0.15742186 0.15600938 0.189843 0.18297327 0.15544401 0.14963266 0.15475938 -0.08146562 0.009534869 -0.075089395 -0.057737835 0.3436088 0.13674334 0.10652323 0.40107703 0.5420178 0.59511495 0.12690431 0.56610507 0.65396726 0.11173289 0.6855818 0.29706052 0.5477687 0.612178 0.673246 0.36683172 0.39855057 0.03434682 0.37972018 0.4129966 0.41807196 0.020951942 0.40813062 0.3001532 0.1843866 0.05628274 0.28042147 -0.57849574 0.35856897 -0.25583288 0.14795113 0.30284044 -0.005772084 -0.097531006 0.10614145 0.13324828 0.03151226 0.18068284 0.06516543 0.34444323 0.13037428 0.36731255 0.33340508 0.43598694 0.32174385 0.42520785 0.44217592 0.44739667 0.33246914 0.3114006 0.39723134 0.43450582 0.018696249 0.11520581 0.186983 0.21715346 0.2540317 0.16639477 0.30446622 0.26655036 0.126357 0.13713714 0.22166198 0.22537449 0.20899703 0.1667319 0.15962866 0.1754155 0.20826921 0.23072648 0.18648386 0.18225902 0.20345648 0.21536325 0.37394828 0.1667892 0.27121574 0.46731186 0.19314574 0.31382915 0.3338036 0.17921814 0.14868557 0.262393 0.49610782 0.15336362 0.1692644 0.18587677 0.18286058 -0.0030979514 0.49067447 0.17437631 0.09282367 -0.45590413 -0.010597995 -0.072528474 0.46390456 0.20401186 0.32224563 0.29772657 -0.0038694143 0.15026803 0.3773768 0.034262285 0.079781294 0.41411608 0.14547813 0.34387204 0.43070716 0.32683682 0.41430154 0.31751353 0.33920485 0.28175506 0.19436559 0.20360056 0.22372858 0.2506222 0.20022228 0.15674585 -0.6024779 -0.47848248 0.29696834 0.29924196 0.15652673 0.1004943 -0.225203 0.30025664 0.24926904 -0.064348586 0.20417911 0.36017212 0.2144469 0.025895055 0.031844173 0.33341193 0.14871456 0.28729314 0.19879033 0.15747385 0.27830094 0.18888545 0.04012976 0.24169981 0.21776922 0.061008036 -0.029252097 -0.13893405 0.17590743 0.17508826 0.43087697 0.56837755 0.17201757 0.69531566 0.17052925 0.16223961 0.7352242 0.19649124 0.5996698 0.7097653 0.34487492 -0.2727024 0.12437354 0.38612366 0.100460835 0.37806588 0.38399905 0.30888328 -0.031181585 -0.39372227 0.39273775 0.43058664 -0.16712171 -0.7893541 0.48898906 -0.49571788 0.43363464 0.026193567 0.016523235 0.24611722 0.27420494 0.04655088 0.23183674 0.15839517 0.22381082 0.2221638 0.31506282 0.3479244 0.35428748 0.29493418 0.45395523 0.36656833 0.14455543 0.3280453 0.37424186 0.40890118 0.48514822 0.4810586 0.44458035 0.2921633 -0.07768018 0.17326376 0.30848598 0.40166998 0.49426186 0.30867705 0.34898603 0.42426506 0.40525913 0.47904605 0.39618337 0.4452179 0.504452 0.51472604 0.51848376 0.34135062 0.37434813 0.36891067 0.32856375 0.2802008 0.20199871 0.2146351 0.29589456 0.33865958 0.28116152 0.16821142 0.12853605 0.17336504 0.26739532 0.350775 0.09945791 0.17329511 0.19413304 0.35305026 0.39461386 0.07119933 0.10823768 0.1307207 0.39781606 0.43677986 0.5018103 0.43876728 0.11229008 0.41613698 0.4792915 0.41685158 0.24371292 0.0920174 0.029335573 0.12970723 0.10400089 0.037780046 -0.0055689625 -0.0051673613 0.11436491 0.4261215 0.41806424 0.47243118 0.3140413 0.16227347 0.3699536 0.39366975 0.25608993 0.19672713 0.11320606 0.3014242 0.20474902 0.35521615 0.1850955 0.1381318 0.4102833 -0.108316794 0.09889809 0.44030097 0.036963485 0.23959763 0.43093425 0.35826147 0.3111138 0.21065329 0.19054902 0.2657131 0.17746347 -0.49234954 -0.5357878 0.26909477 0.35826904 0.3475116 0.11354035 -0.55780816 0.16267273 -0.122516245 0.4141945 0.3875359 -0.015002742 0.37114972 0.075799264 0.3294109 0.31125277 0.14655426 0.29648775 0.3