# vtk DataFile Version 2.0
Really cool data
ASCII
DATASET POLYDATA
POINTS 4975 float
-4.6949854 38.183254 105.20657
-4.795798 37.993286 105.59547
-4.854416 38.01347 106.23484
-4.836528 38.65952 105.069496
-5.0277586 38.595978 105.621925
-5.0707235 38.696995 106.3056
-4.8041863 38.531918 106.85977
-4.7133274 39.442596 104.8214
-5.0523543 39.379993 105.7301
-5.0241194 39.161125 106.349655
-4.804339 39.151386 106.88243
-4.628971 40.27057 105.063255
-4.7111835 40.168514 105.53581
-4.708491 39.99204 106.16831
-3.7752252 37.111877 104.98064
-4.00664 37.057343 105.53478
-3.934464 37.06752 106.18025
-4.479842 37.94906 104.97259
-4.447648 37.549572 105.52362
-4.4198484 37.544228 106.337364
-4.173375 37.63497 106.983635
-3.62728 38.212364 108.59014
-4.45095 38.474285 104.66373
-4.2650175 38.37891 107.29517
-3.7755272 38.72481 108.4516
-3.6629596 38.680077 109.08721
-4.22939 39.914043 104.1672
-4.5028462 39.652058 104.41995
-3.7929611 39.25861 108.77072
-3.6320367 39.315315 109.17896
-4.168928 40.254814 104.21687
-4.365315 40.50172 104.60749
-4.4829454 40.720703 105.38506
-4.4979315 39.927204 106.525444
-4.2030277 40.22351 106.74699
-3.5723932 41.953846 95.30674
-3.742212 41.139164 104.17061
-4.1266003 41.090546 104.804184
-4.170953 41.087788 105.39983
-3.9953785 40.91562 106.06456
-3.6476963 42.75621 93.85234
-3.8448558 42.883945 94.76697
-3.7900708 42.407326 95.349365
-3.653571 43.054836 96.49137
-3.5365996 42.656967 96.93837
-3.9185092 43.590355 93.81719
-3.9791007 43.47366 94.54295
-3.9257655 43.418636 95.46339
-3.7469668 43.469357 96.53338
-3.6801615 43.84211 96.87888
-3.8205945 44.260757 93.7544
-4.15112 44.432537 94.869446
-4.2146707 44.672707 95.61199
-4.093057 44.551258 96.14256
-3.7627935 44.57438 96.72195
-3.7476773 45.52499 94.09716
-4.0010824 45.46988 94.71909
-4.066466 45.4659 95.501724
-3.916018 45.33352 96.23755
-3.753389 46.041527 94.75969
-3.8363156 45.96232 95.38257
-3.778226 45.91984 95.85633
-3.0983946 36.372 105.55814
-3.1401353 36.36695 106.08565
-2.531945 36.557293 99.24174
-3.3615296 36.833855 104.880135
-3.4064312 36.53401 105.640526
-3.3518443 36.605167 106.312614
-3.50777 37.01513 106.79693
-2.5032082 36.991306 99.105446
-3.392448 37.727062 104.16781
-3.3436933 37.54336 107.44671
-3.1633098 37.632465 108.51149
-3.1120508 37.82235 109.29043
-2.7854073 37.96264 109.8373
-2.5766857 38.76077 92.78213
-3.514593 38.430138 103.81286
-3.4355674 38.55434 109.51066
-3.067362 38.62417 109.97815
-3.2774518 39.681515 103.27054
-3.5410388 39.667828 108.82998
-3.4993165 39.397026 109.45094
-3.0428293 39.51679 110.137115
-2.6921535 40.99331 94.78022
-2.981936 41.184036 95.74016
-2.8038635 41.116547 96.62724
-2.5839896 41.0165 98.226746
-3.1934628 40.296764 109.21496
-2.9309492 40.40802 110.061455
-3.321235 41.648323 94.80388
-3.3745277 41.52866 95.479774
-3.291898 41.696915 96.25501
-3.015953 41.830215 97.41622
-2.7968905 41.63795 98.2861
-3.4648054 41.225468 103.99295
-3.550763 41.517036 104.56302
-3.6132424 41.47409 105.44166
-3.4501941 41.218864 106.074196
-2.935507 40.979282 108.87603
-2.7731361 41.30563 109.400375
-2.76727 41.08708 110.01526
-3.244648 42.44707 93.69834
-3.595837 42.366188 94.193214
-3.0467908 42.382015 97.64855
-2.9677372 42.477306 98.012985
-2.937937 41.757374 103.861984
-3.427408 41.603664 104.70124
-3.3953602 41.63088 105.430595
-3.335736 43.6066 93.10649
-3.592886 43.195072 93.33769
-3.4694498 43.189724 97.30976
-3.3097975 44.222652 93.16861
-3.2787378 44.366642 97.28948
-3.4648294 45.55339 93.849945
-3.6525776 45.639442 96.36474
-3.2859817 45.25429 96.91184
-3.1897526 46.003525 93.96715
-3.3025613 46.33975 94.55698
-3.338964 46.39555 95.31457
-3.309745 46.0943 96.08222
-3.0667138 46.591652 94.63052
-3.0144534 46.55489 95.29123
-1.7730893 35.392822 99.072845
-1.6673121 36.118458 93.62018
-1.7503934 36.107143 94.09599
-2.0931785 35.90286 98.67175
-2.1815715 35.9134 99.39792
-1.9112426 35.846893 100.17988
-2.3630998 36.41626 104.98585
-2.5208733 36.268574 105.59532
-2.6719124 36.36242 106.33975
-1.8284775 37.010105 91.715546
-1.9508958 36.951572 92.51227
-1.8401511 36.33909 93.49369
-2.0241933 36.59959 94.11397
-1.813714 36.86644 95.29703
-1.9606745 36.634644 97.899574
-2.4306417 36.70867 98.75393
-2.4526012 36.563606 99.459915
-2.1618085 36.600456 100.26934
-1.9859846 37.0913 103.90068
-2.7336388 36.715332 104.54486
-2.8267543 36.53213 106.619125
-2.2751322 37.131107 108.70303
-2.203354 37.259964 109.423515
-1.7998743 37.634674 91.15196
-2.138996 37.67559 91.67947
-2.3164845 37.69901 92.520836
-2.3666859 37.71312 93.7099
-2.3208327 37.565575 94.624275
-2.1937973 37.812294 95.00712
-1.6158371 37.90021 95.991234
-2.2353675 37.0048 98.23937
-2.3469567 37.43168 98.78702
-2.4145124 37.156998 99.438416
-2.2031057 37.302536 100.33098
-2.5959125 37.48234 109.345406
-2.3536956 37.860855 110.10402
-2.0021405 38.649452 91.16616
-2.34992 38.62668 91.780624
-2.4707568 38.13719 92.86911
-2.463124 38.381893 93.36189
-1.8501177 38.54178 98.99862
-1.6989992 38.310936 101.35269
-2.7166588 38.996616 103.07058
-2.4749827 38.66107 110.50888
-2.2527618 38.72589 110.66191
-2.282802 39.24712 91.90107
-2.4199731 39.381237 92.30251
-2.4972281 39.04162 93.08569
-2.0046365 39.559887 94.38747
-1.9628485 39.527485 94.97719
-2.0598752 40.285778 97.3943
-1.5432117 39.89913 98.79486
-1.76363 38.868813 99.481445
-1.5591896 39.192665 100.486084
-2.4816365 39.385544 102.80653
-2.0672665 39.556824 111.011856
-1.9252663 39.813698 91.63812
-2.320488 40.629845 98.51562
-2.025801 40.79037 102.299286
-2.6014788 40.193768 110.37387
-2.184913 40.55878 110.86917
-2.553177 41.42402 103.03925
-2.7757802 41.30509 106.25107
-2.2448692 41.337955 108.32565
-2.5540948 41.584454 109.781845
-2.4704027 41.29472 110.32308
-1.8648543 41.358562 110.929
-2.6806035 42.903824 92.9396
-2.0059795 42.508324 99.18132
-2.1376286 41.803032 102.73901
-2.1183028 42.267475 103.558846
-2.2070868 42.249348 104.26358
-2.271339 42.0659 105.45444
-2.3846684 41.799553 109.762665
-1.9958274 41.924072 110.13773
-2.597486 43.464214 92.83249
-2.4936728 43.561207 98.3954
-1.5925894 43.819515 109.163475
-2.7233224 44.51346 92.88238
-2.3867748 44.516144 97.825
-1.5896778 44.750793 107.95129
-1.6650769 44.578682 108.55601
-1.5948809 44.680756 109.34726
-2.7163913 45.48335 93.54971
-2.255148 45.15104 97.322815
-1.655697 45.438065 108.480995
-1.6275913 45.282066 109.14025
-2.6258209 46.08718 93.88916
-2.4715738 46.476498 94.41291
-2.1914153 46.49343 95.75745
-2.4887462 46.22562 96.26414
-2.4670918 45.838337 96.73417
-2.7242556 46.633217 94.888
-2.5437021 46.591873 95.42336
-1.2966907 35.320034 98.771065
-1.3421199 35.26221 99.54868
-1.1778871 35.268578 100.1055
-1.4405631 36.24399 92.89014
-1.3286289 35.84429 93.65074
-1.128766 35.74293 94.250275
-1.6745675 35.61531 98.495415
-1.5974185 35.58945 100.29351
-0.9151778 35.655376 101.04511
-1.7088201 36.453766 105.124626
-1.2507272 37.1357 91.09444
-1.4151763 36.78131 91.67972
-1.5554156 36.517574 92.475845
-1.5462642 36.70054 97.53896
-1.3007164 36.318943 101.19447
-1.8280603 36.99058 103.949455
-1.4803613 36.599934 104.817024
-1.3950558 36.518944 105.26739
-1.4302866 37.1387 108.793
-1.6181695 37.229107 109.44901
-1.2599137 37.396637 109.9922
-1.2750885 37.610188 90.84344
-1.4904099 37.215263 97.01387
-1.4307806 37.31202 97.389404
-1.4183707 37.70835 103.122795
-1.442332 37.67379 110.27048
-1.4575671 38.10342 110.72727
-1.2738823 38.34622 90.68189
-1.5358362 38.865475 95.860664
-1.3459146 38.2771 97.86013
-1.5857334 38.534817 102.55033
-0.9500821 38.689407 111.42204
-1.3046327 39.297337 90.85586
-1.4492366 39.91923 101.69702
-1.5529172 39.301567 111.24817
-0.856151 40.08403 91.05453
-1.2501649 40.45594 100.80643
-1.559455 40.430515 111.37151
-0.9113996 41.08266 91.70926
-0.8849345 41.195038 92.23935
-1.4147848 41.267384 111.21409
-1.0948362 42.854843 91.52536
-1.5715623 42.710945 99.347855
-0.88800204 42.342777 101.0566
-1.4537311 42.408638 102.63035
-1.5385795 42.564686 105.4352
-1.3173459 42.375526 106.29263
-1.0584285 43.009987 108.35524
-1.2050148 42.623497 109.73016
-1.4451945 42.01809 110.59645
-1.0239424 43.8274 91.91695
-1.215849 43.21131 99.55742
-0.8225161 43.057217 100.315765
-0.9290792 42.762955 101.40062
-1.2731495 42.75855 103.64718
-0.9419837 43.21109 104.668
-0.8878752 43.279045 105.51474
-0.95302016 43.00497 106.54533
-1.1899877 43.281414 109.461494
-0.8256501 43.538494 110.38974
-0.68522155 43.92156 90.92842
-1.653941 44.043648 98.4462
-0.80158967 44.33139 106.8007
-1.4288915 44.876305 107.41239
-1.2294551 44.49936 110.02884
-1.2352915 45.224068 93.35987
-1.7311804 44.981453 97.335205
-1.1421958 45.1005 107.19238
-1.4477406 45.424652 107.715996
-1.4408056 45.434887 109.351395
-1.2065916 45.166378 109.89375
-1.8099561 46.0136 93.93652
-1.7193471 46.253952 94.60795
-1.6341742 46.38779 95.33173
-1.7905043 46.177994 96.30688
-1.1622331 45.948887 107.76212
-1.2356822 46.103127 108.49471
-1.226333 45.978367 109.05625
-0.86378396 45.841717 109.813705
-2.1308396 46.605186 94.85415
-2.043705 46.554676 95.14081
-0.7015103 35.23429 98.70748
-0.5528763 35.041355 99.37536
-0.47478953 35.127956 100.25642
-0.55154103 36.12406 92.65196
-0.54222125 35.66032 93.71475
-0.6446646 35.66979 94.41652
-0.57445246 35.800484 95.01506
-0.32286087 35.897255 97.43349
-0.589106 37.032654 91.13199
-0.60423386 36.700443 91.615395
-1.1008663 36.837814 105.441284
-1.1248173 37.0057 106.18153
-0.9951618 37.16064 108.95392
-0.6148636 37.755863 90.71277
-0.30839887 37.98791 111.08987
-0.43429038 38.48478 90.46841
-0.24479692 38.67398 90.534836
-0.5250104 38.532734 111.50361
0.04424955 39.00198 112.15557
0.28581452 39.882565 112.91384
0.009721905 40.023212 90.75803
-0.31107646 40.65241 112.41596
0.20902817 40.398865 112.89488
-0.11588001 41.46925 112.35856
-0.4640213 42.944084 90.56661
-0.32389912 42.074284 111.922325
0.21923062 43.863117 90.255325
-0.48914418 43.24927 90.52233
-0.5235907 43.51368 102.0743
-0.5881731 43.481632 104.47291
-0.15144712 43.09882 111.40453
-0.12557226 44.387623 90.74276
-0.34568298 44.00076 99.50537
[...]
POINT_DATA 4975
SCALARS features_00 float 1
LOOKUP_TABLE default
0.6559675 0.657038 0.6464022 0.6666385 0.6800707 0.6721485 0.59577954 0.6465571 0.6723049 0.6634958 0.58438355 0.6007139 0.61453557 0.61777234 0.6011051 0.59998655 0.57362735 0.63473576 0.6279421 0.5973865 0.51574427 0.4667254 0.6313968 0.4908666 0.44557542 0.48977542 0.5716742 0.6119156 0.43502724 0.4732992 0.55282664 0.5662762 0.56977963 0.5735128 0.49380076 0.36006802 0.4686956 0.52256334 0.5294446 0.51113105 0.49466175 0.46638462 0.39996898 0.39011547 0.3379858 0.553084 0.5353572 0.48759776 0.44153452 0.48410332 0.65413725 0.7009783 0.670195 0.6176487 0.59750986 0.7853265 0.7870924 0.76115435 0.71486115 0.7812269 0.7806814 0.7695384 0.5830667 0.56932664 0.5970162 0.5896561 0.58290124 0.5556757 0.5048734 0.52965343 0.56971794 0.43576893 0.47476035 0.531999 0.55365515 0.525013 0.52294135 0.52483416 0.55023277 0.45512396 0.42112416 0.48883903 0.50929767 0.16956699 0.23034063 0.2349888 0.20214096 0.44235894 0.43648818 0.32866976 0.30376682 0.3030268 0.27640525 0.2803407 0.42571637 0.43047315 0.4450888 0.42626944 0.38135362 0.3601339 0.38019243 0.46301356 0.44478482 0.31842706 0.336033 0.30670148 0.4085536 0.40289336 0.52179193 0.52598834 0.38346553 0.5842558 0.5364364 0.7738211 0.7329321 0.6647855 0.75591767 0.7649443 0.7687988 0.7576188 0.7512606 0.75230646 0.6482929 0.5987723 0.5899383 0.6403507 0.6463963 0.6376252 0.56430984 0.5690465 0.5352026 0.68532264 0.6192811 0.58561134 0.55069005 0.4170011 0.52855426 0.5625482 0.60063314 0.5938746 0.48454535 0.5639111 0.5125255 0.48249054 0.52527857 0.7380095 0.69912696 0.60448456 0.4794035 0.39980453 0.2956289 0.024704993 0.49254996 0.44619983 0.5010247 0.4749902 0.53428257 0.53787035 0.72459525 0.6541814 0.5420615 0.43983325 0.23727822 0.005729541 0.31625855 0.53807306 0.5201571 0.613578 0.55862844 0.44634682 0.1381078 0.06613766 0.071661904 -0.15668333 0.1074403 0.00141594 0.21979833 0.48472562 0.5710956 0.09807438 0.18620071 0.453309 0.4076297 0.28595117 0.27835026 0.18067503 0.30987233 0.34155607 0.3031482 0.4336076 0.2336742 0.19534443 0.16453746 0.18124193 0.17874008 0.26204896 0.22792889 0.42033798 0.3635891 0.38178807 0.54578733 0.4752131 0.516923 0.5276836 0.50989556 0.73270124 0.57666194 0.6394862 0.600994 0.71702397 0.7098061 0.69150925 0.72169596 0.69617593 0.7349483 0.72224164 0.6205597 0.6132977 0.58861053 0.605101 0.6043271 0.6114645 0.65650964 0.6250994 0.54770786 0.5064247 0.71391636 0.6817905 0.62618107 0.4992727 0.5713151 0.47531542 0.46184427 0.45139617 0.41839248 0.49278432 0.46119416 0.72299254 0.22291298 0.33178383 0.3825136 0.47259018 0.45334572 0.70117927 0.07605074 0.24179392 0.08804631 0.37855515 0.6316043 -0.11229882 0.43906343 0.46965247 -0.13671638 0.3787626 0.2558956 0.19987817 0.2811251 0.0947659 0.09782943 -0.20076483 -0.007668942 0.012846511 -0.07582806 0.22303015 0.12844513 0.18573056 0.20941703 0.025660291 -0.13594197 -0.28593707 0.021555651 -0.04961196 -0.14801684 -0.13199082 0.2411086 0.19340158 0.28105155 0.20785144 0.13868052 0.46355772 0.41238332 0.5081955 0.48389912 0.45083535 0.5921247 0.60684264 0.5281831 0.6371026 0.6223917 0.6166782 0.6522256 0.6502396 0.6907341 0.66778207 0.60041714 0.68095386 0.6714326 0.54283804 0.51994634 0.50683 0.620611 0.60571676 0.595507 0.5529461 0.52615047 0.665072 0.6519053 0.36415893 0.3185495 0.36445346 0.6613829 0.35664544 0.59564185 0.56359655 0.35212612 0.33973396 0.39871275 0.36116397 0.30843782 0.3664826 0.21391538 0.22087166 0.14424741 0.28736103 0.24608761 -0.19316088 -0.10057579 0.089532904 0.3113842 -0.07965276 0.05993235 0.13358414 -0.022130035 -0.18953826 -0.01049827 0.24026123 0.316087 0.2925948 0.302441 0.08817314 0.030396312 0.27524686 0.20568928 0.19129664 0.031620234 0.5032484 0.43124187 0.412052 0.4682961 0.26590353 0.307298 0.30647236 0.26058015 0.18089369 0.3184265 0.589813 0.60152924 0.5980343 0.24553421 0.26738083 0.29961243 0.26756293 0.55858636 0.58655524 0.6251571 0.80376995 0.784362 0.7550522 0.79390776 0.8197545 0.7899974 0.7526188 0.8153795 0.7832128 0.33788317 0.40159157 0.40480834 0.37941742 0.3794243 0.50732857 0.5517142 0.4840812 0.31664747 0.33246416 0.24571887 0.4931472 0.43940192 0.1143908 0.0021721795 0.5775919 -0.018824935 -0.017680068 -0.043970272 0.31031716 0.3177107 0.3140876 0.50628936 0.33388636 0.37663952 0.41995513 0.40467712 -0.09038712 0.38511986 0.39145038 -0.007610433 0.281633 0.0564076 0.091658466 0.25357357 -0.0005778484 0.22263978 0.12087324 0.040797245 -0.121487 -0.0044926032 0.077329926 -0.1236006 0.37080017 0.22920299 0.118488505 0.461398 0.051656418 0.11913942 0.2212413 0.22917092 0.25857896 0.15317187 0.4467377 0.43261117 0.5462335 0.76646054 0.6297871 0.14451882 0.1358102 0.18318981 0.20321308 0.6062818 0.78175545 0.7344286 0.71457183 0.12536393 0.6016059 0.7051725 0.72228825 0.66334516 0.7420492 0.7943258 0.7613007 0.70999616 0.64480203 0.7365114 0.7487472 0.7412653 0.66655004 0.32253385 0.34268916 0.3515585 0.32175928 0.37248573 0.21985802 0.39501566 0.3091902 0.20899779 0.07983865 -0.21264887 -0.09567099 -0.043117702 0.009577143 0.0024544687 0.46100602 0.3735857 -0.024359552 0.121924244 0.093705535 0.29126197 0.3601245 0.31790325 0.3941264 0.40584067 -0.08919332 0.38319904 -0.059652496 -0.06846936 0.67205966 0.64047116 0.5381193 -0.0199496 -0.047326174 0.2930516 0.66706204 0.64666665 0.39925358 0.19088382 0.011867154 0.15272814 0.27816904 0.6327411 0.5807004 0.42357603 0.34092742 0.22293061 0.3403145 0.48347795 0.36176354 0.27479136 0.16879456 -0.3525066 -0.0876736 0.007820919 0.40415937 0.29691875 -0.016714659 -0.011499945 -0.1281958 -0.25847763 0.19058052 0.3105235 0.26824576 0.18120222 0.09172838 -0.10152106 -0.067522824 0.012816347 0.2950775 0.5262198 0.50841725 0.2878186 0.2873581 0.20100987 -0.004454294 0.096165225 0.0801915 0.049707044 -0.11012879 -0.10099924 0.42516667 0.5518014 0.56932896 0.5816565 0.2741211 0.2686629 0.22469652 0.102853216 0.15927054 0.07316875 0.19136663 0.12877868 0.109506674 0.05394718 0.06080832 -0.07134331 0.52361465 0.603553 0.24221858 0.19263995 0.16234094 0.10254211 0.08165356 0.23836502 0.6368599 0.6303753 0.56956446 0.2901331 0.28317714 0.2213755 0.4206121 0.47234008 0.620559 0.675128 0.6588788 0.57365316 0.55410254 0.48731753 0.52045953 0.53771204 0.47582012 0.50050306 0.52261716 0.30171657 0.31435207 0.33197722 0.19501808 0.44170165 0.07383214 0.22949977 -0.026354471 0.009313572 0.19500247 0.19635677 0.1463841 0.05088188 0.011365994 -0.01898003 0.29652473 0.21592778 0.1889063 -0.05370102 -0.12147281 -0.16758652 0.12468387 0.21842402 0.5567943 0.5120475 0.29428557 0.30054316 0.15343262 0.2599496 0.17232461 0.3416022 0.061813004 0.025866047 0.3412047 0.016449265 0.64719677 0.66344047 0.46731687 0.35963917 0.3803716 0.6419109 0.6579492 0.36562103 0.39311987 0.6142075 0.6222999 0.39188743 0.39048392 0.54527676 0.51574576 -0.16114964 -0.3021961 0.37179267 0.45184457 0.4259286 0.33328134 -0.08301642 -0.116358146 -0.35781676 0.21103603 0.37698033 0.23152208 0.121150374 -0.011935016 0.38851964 0.3537703 0.06205653 0.12521335 0.100455284 0.05427528 -0.056044772 -0.08163296 0.41986182 0.59467524 0.5800636 0.5139697 0.46320984 0.22303642 0.26508892 0.20885661 0.10819324 0.13622884 0.15786104 0.15845096 0.086723 -0.026455633 0.021244075 0.019537218 0.047088027 0.0708068 0.036509193 0.018571295 -0.08686098 0.23436995 0.49661696 0.6180375 0.5734369 0.4901194 0.368864 0.20537046 0.19776592 0.16003951 0.19722249 0.17777936 0.1312842 0.08439062 0.19219017 0.1259919 0.04300365 0.08355989 0.090793945 0.21147351 0.49436274 0.60606426 0.5551144 0.47888508 0.21980187 0.20250238 0.24211636 0.2784688 0.28234246 0.23131062 0.15703648 0.09499106 0.078514114 0.080659434 0.4235075 0.45070916 0.36059344 0.50088817 0.5515341 0.4523937 0.29938674 0.29866752 0.27068108 0.17367974 0.08685516 0.036743015 0.046217643 0.4823339 0.5145954 0.5403131 0.4686184 0.50406575 0.45787087 0.4304976 0.51583606 0.5361841 0.50194323 0.38704675 0.4728449 0.52297175 0.5722436 0.5985507 0.38641912 0.48536393 0.53482604 0.55633914 0.6005078 0.20967923 0.16488774 0.22679496 0.41960728 0.5312674 0.5608871 0.13364808 0.050217517 0.48145697 -0.10994163 0.00339237 0.602242 0.5973954 0.19946918 0.22685629 0.22469333 0.16035977 0.11294006 -0.040783208 -0.047972444 -0.019701038 0.5983548 0.6128539 0.60244405 0.545878 0.17860657 -0.13446662 -0.029026855 0.0765745 0.14359808 0.18956126 0.5525762 0.56496066 0.55400634 0.5244919 0.12871799 -0.035745606 0.21841022 0.24013057 0.42991275 0.2806151 0.20087793 0.13545562 0.55064857 0.028731696 0.23770474 0.61717844 0.64826614 0.37383622 0.6023888 0.39678836 0.56644607 0.40898308 0.487516 0.43417972 0.3798494 0.3985291 0.29857796 0.28152704 0.22564054 0.3966202 0.34774375 0.5716077 0.36420697 0.61139274 0.6235547 0.116146125 0.116423234 0.1017949 0.09540236 0.17170258 0.4010898 0.61216927 0.60917723 0.5544101 0.43551207 0.31496143 0.082228966 0.0655126 0.06192872 0.23044032 0.35746622 0.40724227 0.5087999 0.4573282 0.2725415 0.26129162 0.2496677 0.24970043 0.27491623 0.19201526 0.10587631 0.09317719 0.021357954 0.05737003 0.047789715 0.39553595 0.44363493 0.41963154 0.36438674 0.40300232 0.39102226 0.2551461 0.252266 0.23726988 0.22820245 0.20611154 0.22101167 0.11855935 0.11794013 0.47572172 0.51055133 0.48456436 0.45150185 0.27213687 0.38331854 0.47614068 0.54731935 0.58931607 0.59928733 0.1539948 0.32690635 0.44459385 0.5824051 0.60241616 0.6056822 0.23623024 0.12711708 0.6196829 0.26156905 0.2538524 0.1650508 0.54401815 0.25755948 0.47464454 0.4396187 -0.13012445 0.5829938 0.58666897 0.55360234 0.5048206 0.29111296 0.27917337 0.18725786 -0.08311959 0.561939 0.58353615 0.6059186 0.49228168 0.26050422 0.29787278 -0.20347287 -0.061581843 0.0077431947 0.08502557 0.17242092 0.5503404 0.18094432 0.15973952 0.1804351 0.4999206 -0.21983784 0.21349815 0.3561849 0.16625986 0.30781737 0.571576 0.38009667 0.38744324 0.3993516 0.2760694 0.27255234 0.13418396 0.18390784 0.4927162 0.26787555 0.5809103 0.28359956 0.5888162 0.5873229 0.51913035 0.31463546 0.24493712 0.13265774 0.05161631 -0.0063396245 0.359667 0.3368364 0.5381681 0.48011237 0.31632525 0.22449172 0.12955908 0.23480293 0.07710703 0.22901091 0.29983968 0.35378152 0.36183962 0.26547843 0.25066888 0.24745274 0.22957964 0.20442583 -0.07338311 0.1781286 0.18038091 0.041929275 0.32441026 0.37938833 0.28294742 0.22954097 0.15246691 0.045517456 0.19249555 0.2182005 0.19404766 0.07339321 0.035319295 0.28156298 0.25788763 0.20985879 0.22979347 0.3414582 0.22051421 0.28928939 0.23704255 0.15534803 0.29488602 0.4019825 0.49399376 0.57771087 0.5897864 0.1975244 0.20430776 0.18728265 0.59293 0.23360378 0.21622327 0.5910748 0.19535315 0.25887674 0.45152593 0.18111056 0.24880761 0.255784 0.12992291 -0.2308271 0.54329205 0.5591052 0.5208242 0.39984936 0.3305423 0.29279757 -0.13192502 0.54695797 0.56840336 0.28028888 0.29198384 0.25291154 0.16241154 -0.15672141 -0.19942233 -0.06769949 -0.008622061 0.1540377 0.36960343 0.4921813 0.51875913 0.5338564 0.12882803 -0.07065751 0.17230669 0.4982802 0.5156763 0.49322888 -0.031597525 0.4628951 0.42477828 0.27131274 0.41304213 0.27408588 0.23863283 0.28792313 0.32872695 0.1429119 0.29503417 0.11414091 0.008472621 -0.051577643 0.19765656 0.14489387 0.19176114 0.1894357 0.30801016 0.4096596 0.24998192 0.49061078 0.29412684 0.23538935 0.515537 0.5371742 0.078433126 0.030171443 0.28986144 0.49268538 0.26373106 0.1797409 0.0998906 0.06380652 0.04528303 0.21545406 0.03998993 -0.042000122 0.1572384 0.28255206 0.3391141 0.22214295 0.23305365 0.005970907 -0.17062804 0.01271376 0.21964243 0.17468044 0.22093323 0.20924728 0.20019163 0.16832638 0.025415149 -0.16646135 -0.020618238 0.00440982 0.23339269 0.22743168 0.12420031 0.14440005 0.22176474 0.13521339 0.073972285 0.111978464 0.099519014 0.18730642 0.2347744 0.24046588 0.27968347 0.28882784 0.49963126 0.4633608 0.40554237 0.43180132 0.40954465 0.3401395 0.2507748 0.24598286 0.18572919 0.42296892 0.516209 0.54540145 0.5694593 0.09133943 0.54415244 0.13470735 0.4939186 0.45439872 0.14153339 0.120037764 0.10159655 0.09365898 -0.20107326 -0.18779354 0.5257876 0.35987496 0.3311272 -0.027935285 0.06093753 0.16116683 0.25829697 0.2746734 -0.14964321 0.0029168874 -0.10984591 0.51227736 0.51736283 -0.014118277 0.23412684 0.23722243 0.026596472 0.2086949 0.41582817 0.48829466 0.54770774 0.4861274 -0.38342342 0.18345366 0.16436893 0.55658495 0.44397193 -0.16979267 -0.09208673 0.48571897 0.32848823 0.42935267 -0.056595158 -0.17215434 0.15166491 -0.13939045 0.18850449 0.22062093 0.009244598 -0.059441194 0.18077847 0.13482359 0.22617921 0.13664575 0.22255579 0.18621638 0.31150466 0.24914029 0.35909474 0.32143566 0.37304553 0.3448345 0.29465348 0.22010216 0.26985088 0.30406034 0.23348543 0.18756016 0.13040192 -0.07340724 0.11531827 0.109984264 0.1886234 0.159357 0.11555715 0.16777745 0.12735562 0.1409585 0.033385262 -0.18438005 -0.055020258 0.15082934 0.17651117 0.16727886 0.1468339 -0.017879114 -0.17162578 -0.053837873 0.117948815 0.101695545 0.2652624 0.26583675 0.19115822 0.28977844 0.29139987 0.53035635 0.27592298 0.24499395 0.25679904 0.574558 0.56766415 0.53647506 0.4332475 0.61195594 0.6081728 0.5632613 0.47767347 0.4803782 0.46519822 0.4453453 0.62429345 0.59433234 0.49779266 0.5042552 0.48615533 0.5292343 0.5406877 0.5328182 0.5113666 0.5194102 0.50775015 0.4765942 0.5807168 0.5971825 0.5378653 0.39276934 0.30905098 0.4308023 0.59324855 0.59619373 0.4526658 0.31263652 0.09963675 0.26603562 0.37901932 0.47527635 0.48945713 0.58376163 0.53334296 0.4506381 0.12772268 0.06599501 0.46564505 0.11269083 0.07628425 0.4127892 0.38978785 0.12511069 0.26742706 0.31989908 0.112790994 0.08403624 0.22138266 0.0079304725 -0.16197738 -0.061676122 -0.035478894 -0.0034375116 0.11357978 0.21866113 0.2202552 -0.064608335 -0.11217823 -0.12462324 0.20126128 0.36402717 0.44478053 0.04189939 -0.051410593 0.18046156 0.04840136 0.34990454 0.46097776 0.540235 0.4581036 0.14343286 0.2714758 0.52989244 0.5057863 0.41756982 -0.23217225 0.022923384 0.062296577 0.4904243 0.4246223 0.089886665 -0.25873408 -0.18789488 0.21328714 0.23118111 0.20098042 0.16632499 0.22791483 0.27359924 0.28657055 -0.016934887 0.0493796 0.15895393 0.24412242 0.2742762 0.2945754 0.16854823 0.27295697 0.25704637 0.2531015 0.16317485 0.289987 0.30515677 0.17756769 0.37366295 0.35644424 0.18579389 0.4017111 0.2026076 0.28289816 0.32082635 0.3802568 0.1671109 0.053534564 0.17692804 0.3527463 0.37603837 0.39451966 0.16847587 0.17908578 0.14420009 -0.0317685 -0.054433323 -0.031589583 0.13513146 0.09975551 0.38279006 0.2146577 0.074876174 -0.15305407 -0.09284561 0.15744121 0.14361304 0.30728796 0.2796155 0.31238145 0.18670118 -0.20003682 -0.014604464 0.07470481 0.011838138 -0.0074895546 0.3632908 0.35589015 0.31999585 0.23191905 -0.11715074 -0.1116337 -0.12656787 -0.13870063 0.21898058 0.18635842 0.38443384 0.36818343 -0.11457711 -0.15885442 -0.16382886 0.21836343 0.49941355 0.5144405 0.44252282 0.3845379 0.14970571 0.15218768 0.25406322 0.23213269 0.5396605 0.55926317 0.5135295 0.40341341 0.19026664 0.39548576 0.36378908 0.15953875 0.21490979 0.2399251 0.60670376 0.6232367 0.40330493 0.42983383 0.3075105 0.23438251 0.20921907 0.26199234 0.6598575 0.6431449 0.5878852 0.5309404 0.4905674 0.5021546 0.4547207 0.3581097 0.34189957 0.67796695 0.6625479 0.6097635 0.5670203 0.5163033 0.53220594 0.5109749 0.44624078 0.5306688 0.5462056 0.5345663 0.48177856 0.53675497 0.5701748 0.5847542 0.54601395 0.4673095 0.38464874 0.49406952 0.5132299 0.47719434 0.5391367 0.56690013 0.46044743 0.31610408 0.36397377 0.5215273 0.1323866 0.17675053 0.36906675 0.48361093 0.41786242 0.47394207 0.49442106 0.39885885 0.39138532 0.31766713 0.26763594 0.25445697 0.16477585 0.29282212 0.16004692 0.2666521 0.20500469 0.14832547 0.13218124 0.13119222 -0.02699397 0.0619352 0.15956563 0.19152296 0.109941065 -0.14617194 -0.10743052 -0.09634806 0.20467415 -0.12822871 0.23576385 0.26728725 0.13116945 -0.01935644 0.27014232 0.33858502 0.43155497 0.3625894 0.050356094 0.33298308 0.40770876 0.32540566 0.1878258 0.44841656 0.4193627 0.0902459 0.44149935 0.13745844 0.006954389 0.10454566 -0.05624523 -0.38454428 -0.4268563 0.050308898 0.15315925 0.084631935 0.20053443 0.23238575 -0.0070449044 0.26357377 0.277777 0.30258512 0.04552973 0.047443345 0.19192395 0.34743336 0.27215454 0.42398304 0.30303127 0.25860414 0.43027917 0.30517924 0.3349651 0.2843973 -0.001121575 0.360375 0.046384096 0.4488958 0.1220951 -0.08199431 -0.16353694 0.095443815 0.4546029 0.44919652 0.14793363 0.09423031 0.2967168 0.42049876 0.46249527 0.4924209 0.17508765 0.06775896 0.121913284 0.1451667 0.124685474 0.21764635 0.2326847 -0.17539448 0.035338342 -0.00022287667 0.35284513 0.39374068 0.26969674 -0.003010355 -0.11322005 -0.09152987 0.13324066 0.42480525 0.41939598 0.36124426 0.28141353 0.08403549 0.27414706 -0.17712611 -0.13200954 0.18058844 0.1117684 0.4858272 0.4696322 0.4344736 0.19318792 -0.026104877 -0.019973285 0.1716904 0.5274546 0.26054132 0.61477035 0.28006294 0.32369515 0.64123046 0.659181 0.29984552 0.29333642 0.31148624 0.6526087 0.6725923 0.6681322 0.63876796 0.4837966 0.35069647 0.44955105 0.4680603 0.41508391 0.35399026 0.65849453 0.6032814 0.47994852 0.5033246 0.5401559 0.48866105 0.5032107 0.5216537 0.50064045 0.47191346 0.4761033 0.52343553 0.5303688 0.4777494 0.43384615 0.3391037 0.3824594 0.45194966 0.44404978 0.43453732 0.48691756 0.2383601 0.3834607 0.47509387 -0.005429808 0.2883599 0.48816848 0.44986534 0.3897151 0.3078064 0.09252847 0.22966811 0.5096408 0.44086397 0.315407 0.11452418 0.22495247 0.3525452 0.4511865 0.46262652 0.18816154 0.042767096 0.28650004 0.07032945 0.041415744 -0.077094026 0.114198744 -0.0660492 0.063904054 0.09683636 0.026738007 -0.16237852 -0.2978003 -0.05344721 -0.10813156 -0.09989879 0.12680843 -0.11723632 0.13927974 0.2064138 0.09964593 0.036141768 0.24161607 -0.23593141 -0.46747842 0.304044 0.311659 0.61194056 0.6301761 -0.30190337 0.32813525 0.29382154 0.12234004 -0.33769056 -0.4365989 0.22736779 0.19491224 0.60764796 0.19244081 -0.34121007 -0.1107547 0.23014058 0.1333945 0.047709655 -0.37345147 0.27535462 0.15804647 -0.054309353 0.0037207603 -0.04516467 -0.17898262 -0.23688954 0.147295 -0.4039228 -0.03527894 -0.22318852 -0.6111793 -0.14621976 0.10573785 0.0798692 0.09538259 0.13596469 0.06261276 0.22140273 0.03135887 0.32394177 0.41712886 0.041603915 0.44007373 0.45784938 0.19373691 0.3952227 0.4462211 0.31188107 0.5191268 0.24264361 0.5890791 0.5488582 0.3178593 0.6014737 0.53991055 0.2557676 0.15591164 0.419513 0.4957046 0.051653095 -0.01910692 0.22240621 0.5271289 0.12888703 0.006239686 0.43105337 0.50710315 0.545112 0.56128186 0.5569848 0.37202412 0.38156334 0.3608265 0.056714855 0.4825588 0.52221775 0.51909095 0.4471334 0.15313834 0.043505028 0.51040095 0.3756085 0.21662296 0.3940835 0.46210593 0.27755934 0.49809211 0.6552737 0.7110212 0.56894475 0.32725805 0.26861802 0.6560494 0.74702424 0.7783377 0.6340634 0.65279233 0.39559406 0.3595696 0.76201236 0.6637492 0.6506214 0.58343935 0.42583174 0.32375792 0.42648095 0.49981025 0.4713936 0.4375371 0.46871334 0.43141684 0.31950152 0.42885473 0.44449925 0.35406995 0.3249105 0.26610798 0.24395551 0.3554594 0.3887487 0.36990058 0.28217894 0.29726538 0.31743324 0.24499428 0.40451115 0.3903858 0.28644288 0.22427116 0.14654663 0.05351765 0.4974346 0.47287482 0.42436886 0.025340926 -0.029624488 0.5172783 0.5172909 0.014792979 0.3753451 0.5197439 0.4912846 -0.07773585 0.4013542 0.39579844 0.30005288 -0.15253063 -0.18174568 -0.08641068 -0.021591911 0.26132593 0.08322564 -0.061636116 -0.05544585 0.19699302 0.011145642 -0.034585413 -0.067055225 0.03704588 0.4621327 0.5615032 0.6350084 0.6584126 0.18124516 0.09712653 -0.05957347 -0.030441683 -0.18788525 0.09853967 0.6542462 0.6715059 0.2604611 0.2293333 -0.21383268 0.6488836 0.24603355 -0.40162396 -0.4351349 0.34450436 0.4972972 0.5575079 0.20009321 0.021246493 -0.34942842 0.07005391 0.2682804 0.12413457 -0.40910527 -0.22937305 -0.22984767 -0.27069426 -0.40931836 -0.055245116 0.088742904 0.14466861 0.29731232 0.036330726 0.4319198 0.4