# vtk DataFile Version 2.0
Really cool data
ASCII
DATASET POLYDATA
POINTS 2954 float
20.292713 6.2416797 25.877869
20.295362 6.519369 24.585373
20.047102 6.8508244 25.36972
20.226871 6.767411 26.329136
20.350933 6.947634 26.798573
19.924913 7.518393 24.902107
19.806293 7.5549693 25.510237
19.919436 7.7124505 26.3522
20.257744 7.515352 26.923702
20.15164 8.343745 24.645538
19.842093 8.236715 25.396004
19.920195 8.072652 26.176556
20.169132 8.897381 24.9399
20.208353 8.997731 25.532133
20.186373 8.979761 26.046621
21.072828 5.2356725 24.87062
21.458899 5.685513 21.263742
21.289434 6.059291 22.715637
21.16127 5.982286 23.342117
20.717522 5.6214576 24.527693
20.617617 5.7524905 25.598036
20.813751 5.8953333 26.301477
21.100513 6.8526874 21.791473
21.004095 6.540254 22.353569
20.796326 6.43443 23.380428
20.512878 6.293406 26.27488
20.773382 6.8667507 27.187105
21.093842 7.1919427 21.911304
20.964483 7.415307 22.307537
20.808846 7.64837 23.557144
20.79582 7.2813516 27.466114
20.85479 7.8016987 27.59457
21.261173 7.855487 22.010128
21.180681 7.787291 22.261333
20.599812 8.3159275 27.323006
20.569517 9.244477 24.692133
20.663311 9.355844 26.33041
21.035412 10.249141 24.85582
20.776945 10.171099 25.693666
21.264978 10.686573 26.56194
21.290222 10.601239 27.398136
20.950388 11.103492 28.784203
21.080143 11.411698 27.843962
20.931171 11.788855 28.45256
21.01841 11.642131 29.306097
21.274733 11.26831 29.72327
21.051989 12.305814 28.650059
21.124214 12.285705 29.195873
21.343039 12.320408 29.778112
21.306059 12.781412 29.087875
22.148674 4.2945614 20.92242
22.164711 4.1512885 21.360981
21.900175 4.8262563 20.38191
21.63569 5.0147157 21.41479
21.846851 4.969377 21.945398
21.57339 5.2286572 23.618765
21.322199 5.04005 24.46779
21.435587 5.0387855 25.385948
21.840033 5.135213 26.231346
22.113039 5.3846254 19.748812
21.724693 5.4771237 20.50901
21.50506 5.432708 22.156612
21.53423 5.541733 26.618109
21.729889 5.7849097 26.960548
22.248901 6.420935 19.811523
21.71451 6.2212343 20.565437
21.561966 6.4015803 27.313902
22.372307 7.389589 20.504965
21.290842 7.447403 27.698969
21.979582 7.974991 21.073084
21.646708 8.116165 21.85002
21.70008 8.583929 22.506039
21.439709 8.652359 23.357418
21.761251 8.274335 27.744009
22.46166 9.354787 19.462809
21.553532 9.086744 23.647322
21.697824 10.958443 29.792435
22.00973 11.172649 24.068132
22.098307 11.683113 30.287518
22.08739 11.920628 24.46317
22.102911 12.808905 25.273077
21.549332 12.358695 29.88816
22.079996 13.16954 25.3648
22.181408 13.448277 26.5578
21.706999 13.222374 27.656992
21.721941 13.376452 28.725052
21.625223 13.241887 29.39317
22.113169 13.551744 30.19988
22.36059 13.132427 30.71381
22.432726 14.503467 22.888683
22.43414 14.570614 23.427046
21.902592 13.761953 28.125574
22.0553 14.008731 29.065575
22.31204 15.502967 22.04096
22.192917 15.704878 22.444689
22.165058 15.535277 23.124252
22.426067 15.83631 24.054392
22.380705 15.958801 22.125767
22.269464 16.109545 22.622824
22.345211 16.013178 23.79014
23.16733 1.7613462 21.784323
23.16688 2.64206 21.200218
23.06999 2.3439996 22.287773
22.9016 3.841164 20.095476
22.82471 3.6322942 20.442842
22.763536 3.5208893 21.361746
22.763721 3.8848906 22.232761
23.255733 5.1449437 18.077824
22.997318 4.8007812 18.810762
22.578554 4.843611 19.526264
22.807474 4.7328296 24.733147
22.4401 4.852241 25.58533
22.535036 5.2031894 26.533024
23.19328 5.4767604 18.105227
22.709436 5.5862665 18.7733
22.424238 5.4510627 19.433504
22.490763 5.647594 27.00916
23.308886 6.021923 18.02821
22.528486 6.0277967 18.99624
22.618206 6.4983296 19.41768
22.29862 6.5194974 27.392284
23.19296 7.530822 18.562498
22.248522 7.403551 27.666693
23.2411 8.594232 18.236301
22.801416 8.584475 18.877628
22.647326 8.718183 19.694176
23.123762 9.517255 18.303328
22.854889 9.662511 18.59928
22.674454 9.973453 29.353212
23.253199 10.232462 18.309368
22.93672 10.075604 18.671383
22.875113 10.366958 19.340796
22.539742 10.478148 29.842855
23.191256 10.731848 18.947235
23.146616 10.702548 19.608862
22.411676 11.406025 30.372963
22.683891 12.052662 30.76898
23.1972 12.203202 22.91326
22.854214 12.721665 31.061293
22.813393 14.08088 22.629778
22.943848 13.604172 23.138805
22.486092 13.717778 30.701273
22.825964 13.422333 31.087402
23.107056 14.833758 21.247261
22.799854 14.722289 21.800705
22.457294 14.473923 22.783178
22.524717 14.012508 25.48938
22.518671 14.365782 29.252033
22.759201 14.190497 30.460321
22.935328 14.0263605 30.890623
23.256721 15.18502 20.780394
22.738905 15.537737 21.518076
22.533144 15.72873 24.095951
23.182201 15.746357 25.363728
23.120533 14.831035 26.707037
23.16131 14.867358 28.769041
22.827608 14.594777 29.682634
22.935995 16.069921 21.223423
22.720882 16.380142 21.84944
22.464617 16.457355 22.662182
22.47747 16.575905 23.105766
22.758686 16.439 24.29853
23.207224 16.375498 25.349308
22.94811 17.135862 22.825788
23.019955 17.35334 23.451225
23.22391 17.320257 24.49325
23.327394 17.697372 23.942007
24.381466 -1.0724473 18.096886
24.406542 -1.4279755 18.511711
24.400318 -1.2703351 19.106318
24.357178 -0.9004806 18.478346
24.256596 0.16833192 21.552227
24.388159 -0.118636295 22.327885
24.445702 0.12720245 19.383194
23.855732 0.8892102 21.105223
23.687218 1.0134792 21.632357
24.043535 0.5637696 22.357721
24.289711 0.81233346 23.02191
24.206646 2.062122 19.79454
23.52123 1.545438 20.910473
23.621561 1.874604 22.99876
24.180103 2.3113637 20.11047
23.900467 2.2042923 23.284065
24.00682 4.145506 18.031672
24.319609 3.8189857 18.305796
23.557919 3.605927 19.495218
24.35935 4.7858987 17.114712
23.57133 4.942521 17.860065
23.370565 5.0076623 25.419878
23.06973 5.1500354 26.18677
24.04734 5.466042 17.347364
23.665565 5.621063 17.69861
23.481495 5.5227304 26.46607
23.099974 5.708104 26.889627
24.032116 6.1858788 17.40502
23.65627 6.5947285 17.797516
23.309746 6.493178 27.116896
24.079762 7.212191 17.535793
23.129366 7.360837 27.416752
23.663912 8.449422 18.06123
23.070501 8.8288 27.856977
23.713139 9.384669 17.910439
23.222483 10.187811 29.598286
23.665733 10.3138 18.20051
23.416473 10.553669 18.61284
23.490414 10.355732 21.476973
23.548065 11.059004 30.318079
24.047958 10.83545 18.580015
23.419058 10.943753 19.189922
23.80387 11.250775 21.007935
23.756481 11.166146 21.286015
23.725773 11.981109 31.100338
24.401472 12.796053 21.586563
23.449034 12.729803 31.272064
24.3287 13.799127 20.665655
23.641232 13.66536 31.283073
24.308104 14.235352 20.311785
23.50045 14.514683 30.705698
23.574581 14.176987 30.995892
24.157354 15.212245 20.032457
23.542225 15.714944 20.438831
23.520859 15.3414955 25.544897
23.530428 14.918284 26.992773
23.741978 15.090058 28.36748
23.673046 14.890101 30.168156
23.604916 16.147213 20.463142
23.400772 16.156553 25.5084
24.20385 16.215368 26.35944
23.320868 17.052492 21.83972
23.510397 17.544554 24.579119
23.697515 17.538073 24.791622
23.58431 17.788528 22.956455
23.728968 18.019396 23.51331
23.679646 17.877232 24.248587
24.977512 -1.8858469 17.767872
25.003395 -2.1364458 18.478783
25.241335 -2.1594453 19.482819
25.201643 -1.9501694 20.261356
25.288507 -1.9186015 20.921972
25.049358 -1.1882329 17.102877
24.746407 -1.3307112 17.56615
24.529528 -1.6447041 18.587612
24.77142 -1.2992653 20.224432
24.997875 -1.033813 21.646141
24.930838 -1.0707641 22.443644
25.140905 -0.5223958 16.853539
24.687815 -0.7128108 17.355469
24.734898 -0.6382677 20.997156
24.526417 0.149673 22.291264
24.883862 -0.079167835 23.275776
25.209332 0.03633958 23.725298
24.776262 0.009201869 17.49088
24.493126 0.3047921 18.880512
24.807264 0.5139344 23.375675
24.680794 1.6346014 19.647657
24.356262 1.2723068 23.253017
25.151623 1.5470196 23.886667
24.604818 2.8214161 19.266497
24.25406 2.2317796 23.349808
24.85319 2.9300172 23.572165
24.942923 3.826637 16.46016
24.643915 3.7254062 17.426186
24.576899 3.4700298 18.475428
25.08182 4.624749 16.22022
24.742102 4.4992113 16.583052
24.442698 5.1754937 24.467937
24.599901 5.097498 16.7657
23.883009 5.8150826 26.284264
24.665102 6.261204 17.213915
24.349043 6.6659813 17.52459
23.854269 6.8274136 26.748077
24.732994 7.4157605 17.274527
24.593424 7.4836464 26.038277
24.735615 8.351804 17.314867
24.555737 8.425724 17.491388
25.058786 9.068297 17.272688
24.595867 9.671965 17.597492
24.340462 9.895751 28.163296
24.476921 10.421349 17.826447
24.461466 10.915075 29.799072
24.981556 10.942715 17.920404
24.6745 11.78824 30.803139
24.921646 12.238413 20.001282
24.872019 12.664519 20.757275
24.353018 12.562196 31.252396
24.202164 13.34265 31.335878
24.387592 14.355717 20.192003
24.324778 14.320289 30.90283
24.719845 15.527878 28.243467
24.38063 15.28441 28.921211
24.192247 14.644931 30.554659
25.25805 16.850817 18.011501
25.086771 16.471313 18.880444
24.41246 16.662336 20.060963
24.711046 15.818146 27.293123
25.305286 17.389395 17.867647
25.15422 17.372944 18.353167
25.397694 17.991686 17.844416
25.35442 18.145895 18.556438
25.365013 17.885271 19.34285
24.510973 18.059782 22.777914
24.53177 18.23074 23.465633
24.452662 18.192238 24.180298
25.91163 -2.6331158 18.052565
26.15094 -2.8892314 19.403938
26.069616 -2.81644 20.461878
25.37933 -1.9484675 17.285053
25.40592 -2.0327644 17.503868
25.310146 -2.4090815 18.5265
25.382996 -1.7487295 21.690598
25.78147 -1.4278805 16.697632
25.49723 -1.3935144 22.78259
25.636883 -1.1477935 23.20301
26.045568 -0.851581 23.641155
25.934044 -0.48746967 16.346579
25.423355 -0.6610143 16.630285
25.423862 -0.74493265 23.533337
25.658384 -0.25693777 23.768414
25.696573 0.6027255 24.044943
25.928392 1.239462 16.922878
25.723238 1.6806269 24.301407
25.889803 3.0722108 16.027058
26.206097 2.2866259 16.599432
25.701977 2.0648384 24.284645
25.792717 3.6030576 15.836918
25.519142 4.347588 15.970182
25.60911 5.2283607 16.127888
25.321592 6.0833054 24.481071
26.055235 5.862357 16.234367
25.431068 6.496723 16.832346
25.451464 6.703366 24.891586
25.25632 7.4551983 17.07463
26.181686 8.079096 16.731049
25.397902 9.207779 26.218464
25.014303 9.013068 26.732534
26.038088 9.543289 17.274677
25.319057 11.005842 29.137066
[...]
POINT_DATA 2954
SCALARS features_00 float 1
LOOKUP_TABLE default
0.6079506 0.50306433 0.58938277 0.62392974 0.63111186 0.55378103 0.5990155 0.62815666 0.6363198 0.44919872 0.539051 0.60506773 0.4165036 0.43493283 0.4632548 0.56273466 0.33016494 0.3112015 0.32794216 0.48362654 0.60400504 0.63444984 0.32455084 0.3329639 0.36284775 0.6235337 0.6310115 0.30816472 0.30579233 0.35797834 0.6308869 0.62816167 0.2671314 0.27871692 0.63897204 0.33608854 0.37759602 0.21416637 0.24320427 0.13030198 0.2585565 0.5101477 0.3741586 0.4682031 0.5487807 0.58984005 0.46947217 0.52233446 0.56545836 0.49297285 0.299466 0.27377003 0.33094487 0.29674312 0.25937957 0.31656995 0.51378006 0.64292693 0.6578151 0.3238606 0.34220818 0.2842015 0.661987 0.657242 0.28506815 0.33184826 0.6407948 0.19323926 0.61504394 0.19791141 0.23435354 0.20941785 0.26140034 0.5431596 0.4081758 0.22809358 0.6176942 0.050050274 0.63001245 0.044808716 0.05997859 0.58004487 0.048772685 0.18399999 0.3505473 0.45094752 0.50598514 0.5865685 0.6520016 0.4839344 0.46657598 0.37846878 0.47418526 0.5018523 0.5285984 0.54148626 0.48361263 0.51721877 0.5406505 0.51840854 0.3955471 0.2548947 0.4109438 0.25437123 0.24720185 0.23855273 0.20058794 0.26846445 0.27136838 0.30081755 0.5927825 0.6296198 0.6251273 0.2608009 0.27703822 0.305661 0.6272629 0.23836052 0.26993948 0.25709414 0.61429656 0.2256333 0.5518025 0.3463023 0.35611826 0.29606324 0.42423463 0.43841842 0.45138624 0.41793162 0.43188623 0.40430224 0.5627184 0.4038174 0.3520937 0.6252871 0.65222013 -0.17916836 0.6845306 0.38879383 0.24013059 0.6478395 0.69001514 0.36609954 0.4265508 0.4783257 0.064544514 0.48724133 0.62743014 0.6687449 0.34023884 0.45688912 0.47026986 0.24665782 0.039911956 0.35598454 0.5360217 0.43640992 0.49340957 0.5397669 0.5442723 0.47726625 0.33913606 0.5391116 0.5415895 0.49771678 0.53309304 0.50691116 0.49160856 0.43775946 0.486436 0.30639288 0.3866397 0.29854304 0.28597033 0.3706264 0.40619418 0.41429967 0.021359295 0.28298083 0.4190577 0.06704509 0.37022567 0.24123734 0.17871167 0.13382745 0.26986778 0.2680571 0.5617701 0.59510994 0.23517728 0.23975301 0.5619776 0.5943662 0.20524798 0.21290404 0.5486573 0.18613115 0.47604048 0.29800642 0.22558239 0.36913463 0.4531498 0.3970936 0.41187012 0.10206941 0.5536814 0.3568045 0.35909504 -0.017443135 -0.04543124 0.6477456 -0.115885764 0.70373905 0.06676557 0.69348896 0.117575616 0.64351857 0.6716563 0.20988041 0.3136502 0.13654438 0.040260486 0.2128843 0.5736109 0.31577626 0.27151278 0.088400155 0.48615015 0.49645793 0.4723313 0.5397629 0.5290832 0.51738465 0.49589437 0.468204 0.37501025 0.28925812 0.25248888 0.49200132 0.50987685 0.48341012 0.2870133 0.3087562 0.39603356 0.44570407 0.49768713 0.24694243 0.39155638 0.41325492 0.3712598 0.44801635 0.3290347 0.39735788 -0.007947706 0.3803894 0.32970753 -0.013439793 0.34009308 0.27406615 0.28663623 0.25245166 0.1047456 0.28202486 0.28312132 0.36109275 0.24872577 0.49371818 0.18078567 0.18321738 0.4422053 0.14574806 0.1435288 0.17556705 0.20297223 0.18479349 0.2791115 0.16706046 0.30662006 0.42262563 0.15977496 0.56698346 -0.23780207 -0.1952433 0.6840914 0.7008115 0.1127684 0.6539842 0.113357164 0.2670109 0.6135167 0.29323748 0.1944545 0.18938622 0.07205148 0.3244886 0.32454023 0.33262756 0.33050826 0.3230711 0.46188694 0.47006756 0.4699533 0.41398296 0.31932285 0.2535371 0.47300094 0.47165573 0.44468653 0.30410057 0.42923242 0.40344542 0.37790966 0.30726725 0.31005925 0.4157945 0.37084174 0.33824578 0.33025503 0.14175005 0.33893925 0.27675757 0.18692514 0.34002364 0.30816746 0.3020134 0.24133104 0.16208722 0.14579579 0.1268069 0.06303179 0.11066808 0.06276786 -0.12299066 -0.07720931 0.067931816 0.2722441 0.43281537 0.26049605 0.5807426 0.2852799 0.13576818 0.6417383 0.32640493 0.25922182 0.04358115 0.65865475 0.2053582 0.56182957 0.6424972 0.09916425 0.25607207 0.2898628 0.46634272 0.31374466 0.305797 0.31770194 0.22737616 0.27031448 0.32498044 0.32418615 0.32262075 0.3305637 0.32274586 0.3097681 0.26009506 0.3660911 0.38630766 0.37414312 0.28011835 0.24540758 0.3098427 0.30262038 0.49861807 0.57095975 0.5879556 0.4949546 0.5330008 0.5468185 0.117641255 0.136965 0.31811067 0.3278485 0.3080797 0.3771856 0.23196027 0.34112892 0.3091897 0.2809985 0.09317056 0.30269146 0.24827561 0.3358727 0.32108805 0.2935509 0.3610711 0.3301474 0.40389615 0.3677023 0.32788944 0.030585226 0.044157352 -0.11332144 -0.05198144 -0.092527196 0.05151677 -0.13897386 0.024294473 -0.035095 0.14319068 0.18303128 0.2257103 0.33737415 0.33803305 0.34639466 0.16982117 0.6799829 0.26906776 0.3131867 0.30021697 0.36983672 0.4654486 0.62709606 0.3520344 0.3332026 0.23491848 0.2688117 0.32290232 0.38908163 0.3957045 0.35875714 0.32740128 0.28925475 0.26728803 0.4944744 0.45402157 0.40897554 0.33532977 0.28063 0.2055985 0.5550009 0.51854557 0.402273 0.28991562 0.71223193 0.73097676 0.7259907 0.55341655 0.6807351 0.6941767 0.70778406 0.64181507 0.6297161 0.5622009 0.30626118 0.4904759 0.55599606 0.6313056 0.6225574 0.49718237 0.50785077 0.35715392 0.5409368 0.4604788 0.37520826 0.38946354 0.24140237 0.39388403 0.3513918 0.29548672 0.10178432 0.20017526 0.0658268 0.065139875 0.18786992 0.16320412 0.13915735 0.26643863 0.3083778 0.087334305 0.30002517 0.3392071 0.18825784 0.19507487 0.3927061 0.33542877 0.4186067 0.4082988 0.38093156 0.36256373 -0.16021891 0.2129456 -0.4029048 0.07516197 0.0651779 -0.0039677396 0.048403695 0.082553945 -0.051716812 -0.012657374 0.08055204 0.07429528 -0.0994396 0.06412245 0.17902589 0.31304172 0.23225981 0.32009357 0.32574403 0.2896897 0.29083887 0.13009986 0.0926113 0.67308086 0.71278906 0.35026622 0.3000884 0.56269443 0.6702918 0.38032454 0.19923311 0.021613838 0.05558285 0.08846424 0.14717297 0.29716027 0.44187015 0.506636 0.5224941 0.45189697 0.20386341 0.56627786 0.48732188 0.2042771 0.26646954 0.29350823 0.63727117 0.59258235 0.64177424 0.2657769 0.2750888 0.29238 0.6899687 0.68169725 0.6220349 0.43830413 0.6920815 0.72204894 0.7262417 0.719606 0.6582556 0.7123695 0.73290765 0.7177136 0.7176212 0.7073758 0.6608592 0.539773 0.6935568 0.6538948 0.6584446 0.62690675 0.48764446 0.6306542 0.5820819 0.54334664 0.54137844 0.38626266 0.24395745 0.27854726 0.15684722 0.07065594 0.075244024 0.03205815 0.13934852 0.09047707 0.055176254 0.27278495 0.2972182 0.37827188 0.08499369 0.42097014 0.31699836 0.46492237 0.33679152 0.40149733 -0.50734186 0.1670464 0.0922185 0.17616329 0.016411275 0.14343266 -0.07270532 0.11597359 0.24753372 0.10226829 0.13748258 0.2838862 0.21653056 0.21887182 0.3446336 0.20303793 0.49943972 0.5443245 0.619539 0.641662 0.32864326 0.69800746 0.7019731 0.37504795 0.38882124 0.11138484 0.25195092 0.50352275 0.598317 0.66585207 0.46351963 -0.088874474 -0.17823325 -0.008528028 0.50751185 0.5498611 0.5375491 0.53598285 0.1608335 0.5785514 0.3171779 0.28998673 0.61291873 0.31528625 0.34473652 0.34014136 0.65672976 0.6785006 0.58422434 0.68855476 0.6912924 0.67876494 0.6942687 0.7025875 0.69419354 0.6842794 0.6876682 0.655439 0.68043965 0.6806416 0.7105127 0.701001 0.6429282 0.6115328 0.66772133 0.5359574 0.5272725 0.36522746 0.23390946 0.19070606 0.2363512 0.24559018 0.29017955 0.058113173 0.322612 0.28096616 0.23154542 0.31804454 0.3610934 0.32698616 0.4149354 0.3381632 0.32827646 0.49742627 0.23294082 0.52368844 0.1697237 0.5644329 0.1933355 0.4883352 -0.43266308 0.172165 0.19978029 -0.05722981 0.22614267 0.20054871 0.14516371 0.28050822 0.0955606 0.26325908 0.06063196 0.11276444 0.004273951 0.2477223 0.32629257 0.034570664 0.074906334 0.41986024 0.51896614 0.58741903 0.63644695 0.27167344 0.22420533 0.27322376 0.53182375 0.6222341 0.6756741 0.3686083 0.025329104 0.13321927 0.5354951 0.6168176 0.660542 0.47566715 0.5348294 0.5607048 0.29909107 0.5840144 0.6010009 0.26323974 0.30043262 0.3571493 0.64256454 0.66551566 0.30378142 0.3468718 0.6694374 0.67092943 0.6516972 0.6551572 0.6405616 0.6490592 0.6501447 0.60032344 0.54905534 0.5977616 0.5989093 0.63973844 0.4082724 0.177869 0.5518174 0.48891395 0.5471211 0.49437618 0.31946594 0.11658195 0.18181267 0.15974237 0.23015495 0.25907955 0.3146219 0.3199334 0.20016144 0.2625391 0.30879545 0.31273067 0.2600943 0.33598608 0.3499952 0.16201207 0.35865265 0.36159092 0.41337347 0.33676928 0.34571758 0.46644336 0.31187862 0.23711544 0.5342199 0.57022023 0.40425014 0.5450812 0.13017565 0.2032775 0.19976164 -0.41550088 -0.4199316 0.22191845 -0.3742023 0.22919893 -0.19075291 0.04227148 0.2024894 0.18987624 0.23127925 0.26176035 0.033212233 0.21078697 0.10594803 0.29419956 -0.11095256 -0.12077271 -0.057822164 0.28571165 0.07516311 0.26693636 -0.016289702 0.10992664 0.20427322 0.4499733 -0.06564794 0.5028305 0.50857234 0.5210105 0.5478956 0.5138249 0.38887292 0.3835827 0.5883074 0.6258633 0.60511965 0.51478887 0.37819725 0.42001778 0.54403245 0.51080626 0.45074403 0.013149805 0.40120173 0.38934094 0.40200663 0.38084364 0.33620232 0.17821434 0.20732227 0.21742612 0.34034824 0.101774246 0.06574249 0.3532785 0.23124957 0.33306903 0.2543707 0.30216098 0.25728512 0.32496592 0.22416191 0.33256686 0.29328823 0.31332326 0.37669975 0.47286287 0.2745821 0.5135702 0.55231416 0.54460144 -0.0148835555 0.42827296 0.00969919 0.21790978 -0.46416664 0.2686798 0.24249175 -0.3080203 0.25375187 0.2504913 -0.28192264 0.24965319 0.21203831 -0.055374414 0.11475472 0.09944871 0.16424823 -0.13541047 0.35774451 0.3171777 0.11972479 -0.078378074 0.57285094 0.283067 0.52987313 0.24315768 0.422522 0.20488259 0.33485198 0.31932274 -0.21530738 0.042936597 0.21946463 0.26728618 -0.009607635 0.096002705 0.45285314 0.12637603 0.27568123 0.42712712 0.45390153 0.4153967 0.43191442 0.24107593 0.3221628 0.098232195 0.37059614 0.25718564 0.37457803 0.29098827 0.34997702 0.20978895 0.31794602 0.31782806 -0.080846414 0.009825595 0.033170853 0.3214466 0.28714222 0.31764227 0.19075643 0.25523236 0.20927519 0.22264078 -0.04054963 0.26587582 0.29358137 0.39880735 0.15555729 0.11920318 0.4607904 -0.0039052665 0.5019313 0.030296177 0.20958501 -0.3716648 0.25207183 -0.24301675 -0.11680276 0.25209594 -0.0440841 0.15565848 -0.103575915 0.16969775 -0.24175449 0.007954277 0.08584669 0.26183772 0.30044222 0.2809335 0.20963255 0.32197958 0.4766091 0.27898538 0.30890468 0.5668029 0.28543124 0.57410395 0.278363 0.39588106 0.48467952 0.045355223 0.18352936 0.37004337 -0.107966974 0.083802745 0.07586893 0.16373876 0.26611882 0.006125197 0.3202468 0.20874214 0.45444632 0.4662246 0.22539183 0.36947364 0.33501428 0.13287485 0.3581375 0.11024402 0.17294978 0.36246264 -0.08245751 0.23194037 0.0687325 0.3048262 0.27837947 0.20905045 -0.055804983 0.28120402 0.22060359 0.040665053 0.18799113 -0.19953123 0.18037955 0.18872733 0.2036086 -0.1898624 0.095619544 -0.082007945 -0.0008543134 0.0068418644 -0.004608229 -0.08523692 -0.03566168 0.18923141 0.23569503 -0.013854755 0.1972435 -0.07450838 -0.16898765 0.24632296 0.2392427 0.19927618 -0.18311715 0.013232252 0.48928148 0.35768718 0.30270866 0.2830373 0.34094915 0.4864303 0.51294976 0.4985854 0.36263716 0.5378305 0.57611954 0.26356822 0.41480917 0.52886105 0.5655676 0.2391214 0.10495179 0.3292422 0.5007524 0.19196557 0.24698949 0.21580301 0.19591244 0.11238258 0.12986135 0.32094008 0.21089764 0.21785 0.5642965 0.40556288 0.4023949 0.60751355 0.5735686 0.1137655 0.019305719 0.12134238 0.36905202 0.60521185 0.55180776 0.4340257 0.10303264 0.30473423 0.39834207 0.48470134 0.26473284 0.30379218 0.35832927 0.35015774 0.051221002 0.33090928 0.033753473 -0.03022737 0.30510935 -0.032785058 0.06378455 0.12799133 0.0875583 0.09397019 0.24371988 -0.049745545 0.073446155 -0.15364097 0.1412222 0.11013337 -0.12224667 0.17661977 0.19270903 0.23545313 0.26289403 0.22679427 0.20853072 0.28488603 0.16271 -0.14456318 0.30301723 0.1864429 -0.051958054 -0.1267675 -0.0404205 -0.087924734 -0.059729263 -0.026117628 0.7611488 0.78563386 0.060198545 0.69832003 0.7763612 0.105738126 -0.008121906 -0.005276086 0.7174861 0.1055073 0.069369 -0.18186168 0.5886955 0.5387894 0.48925105 0.2579611 0.026246376 -0.27972895 0.5948104 0.5371225 -0.17782137 0.6020224 0.5123135 -0.13086389 0.5922419 0.52623576 -0.017377496 0.0033638477 0.5730462 0.48741043 0.13228522 -0.09472135 0.29285446 -0.22541207 0.37541246 0.35337418 -0.01588818 0.35316265 0.217255 0.08360158 0.5220034 0.3328402 0.60917866 0.24009919 0.6374635 0.6383295 0.6179138 0.58240086 0.21628803 0.39326674 0.40381867 0.5934299 0.5557564 0.47333366 0.33445507 0.5222665 0.33283097 0.41990876 0.5017755 0.11187291 0.15390198 0.20129248 0.34722003 0.38227877 0.16327542 0.11266841 0.38090667 0.35216415 0.1503852 0.12757613 0.10156718 0.42108625 0.17121138 0.37052247 0.08814649 0.012900533 0.039436422 -0.107005805 0.11447962 0.14997214 0.16607796 0.106431976 0.1916354 0.20713395 0.28434575 0.24247992 0.30301777 0.25730202 0.30069792 0.26571444 0.3271025 0.23189613 0.2079773 0.089320734 -0.21032669 0.32018566 0.13395758 0.0026417226 -0.20178236 0.3021871 -0.24837445 0.773134 0.75944436 -0.16175999 0.779711 0.76066864 -0.106469065 0.4485679 0.7697934 -0.16526417 -0.040229008 0.64582634 0.7232474 0.7509314 0.3644944 0.57848334 0.7135453 -0.14005724 0.36650765 0.5586412 0.5931471 0.5713867 0.44523555 -0.21817939 0.623834 0.61010724 -0.25327492 0.65384054 0.63848615 -0.24436247 0.64345884 0.5908363 0.056994453 0.5974067 0.56537485 0.13512121 0.22534816 0.5171272 0.46725917 0.32678708 0.32426572 0.27852497 0.09539811 0.41921276 0.37649477 0.05538687 0.17861944 0.35941032 0.41559386 0.5717392 0.6052274 0.18564558 0.6169411 0.6262995 0.34799087 0.62652194 0.59781575 0.44936943 0.5859414 0.54658794 0.43487093 0.5281522 0.5200211 0.3043718 0.43608323 0.5285555 0.54641557 0.13234839 0.0933874 0.12230836 0.20932579 0.26289687 0.28957313 0.4327158 0.20646864 0.4481222 0.18455529 0.39601213 0.3314848 0.17505226 -0.31703815 -0.027536245 0.049115792 0.15936604 0.15500537 0.2544306 0.17562564 0.3071639 0.2000407 0.21016727 0.32460576 0.19529688 0.32916158 0.16828635 0.32814094 0.38674206 0.33762512 0.18906996 0.11460829 -0.006049983 0.2793029 0.38006032 0.35002095 0.24877748 0.14685616 0.07930226 -0.3701595 0.7510475 0.73203135 0.7433711 0.40223563 0.32827884 0.23972148 0.16291368 -0.08363761 -0.39291358 0.7529695 0.75475204 0.4074631 0.34013376 0.21443552 0.14774844 0.17340727 0.012542609 -0.05494758 0.7687297 0.30880818 0.15938997 0.17919418 0.10096881 -0.052991703 -0.2298556 0.76294994 0.17860118 0.07438562 -0.46144682 -0.6406483 -0.52874523 0.7001589 0.71612 0.60186875 0.6701926 0.56680226 0.49469692 -0.0024405941 0.58958673 0.56193995 -0.2902794 -0.085606135 0.6481335 0.6600208 -0.031976257 0.5895901 0.5518166 0.089619435 0.14853516 0.50103736 0.44875187 0.42933646 0.18325253 0.22330031 0.601983 0.53361636 0.13340884 0.5612196 0.35454097 0.32712734 0.573153 0.48472613 0.46234292 0.51427275 0.50351274 0.5572856 0.5074482 0.317353 0.35948256 0.44911584 0.56703603 0.5755882 0.36931804 0.42943758 0.548607 0.55594206 0.2930874 0.20633835 0.09998276 0.24198662 0.321854 0.40951285 0.5381588 0.52855974 0.55432606 0.38369775 0.38598922 0.43608618 0.44722915 0.44310892 0.4463737 0.53703755 0.24917881 0.46323234 0.34846812 0.34697932 0.33772707 0.43901533 0.26677027 0.25120714 0.2770133 0.2914933 0.22671564 0.24316686 0.1390057 0.25357613 0.14881243 0.27658588 -0.064011976 0.022572026 0.23274112 0.12158514 0.09638224 0.13355322 0.282895 0.12880623 0.25057164 0.19522342 0.11873487 0.28266397 0.4344594 0.23817766 0.30047256 0.48335376 0.43183368 0.3155182 0.4922207 0.44584194 0.5460664 0.6377202 0.6984205 0.53209007 0.4585775 -0.4078455 0.28803453 0.72976005 0.74057984 0.55402166 0.4746701 0.37994942 -0.51973414 0.75412667 0.5467533 0.49410406 0.32755053 -0.167288 -0.7485299 0.76194465 -0.14932384 -0.55352443 0.71365166 0.56637025 0.6573038 0.16861978 0.38330176 0.51609224 0.53920466 0.48129946 -0.19175068 0.62075615 -0.14946404 0.5968882 0.5580166 0.47686094 -0.33197176 0.49839872 0.4710745 0.062421344 0.39618248 0.3020188 0.15895367 0.11471605 0.065903015 0.054529615 0.4231916 0.23452061 0.27152902 0.3542139 0.48002183 0.25597233 0.5748808 0.5467199 0.37175196 0.33025536 0.59667706 0.5916766 0.40313372 0.4737297 0.5558123 0.58804274 0.61970603 0.6982635 0.7407416 0.7840768 0.19683146 0.27878737 0.30853915 0.32928205 0.33188456 0.5022674 0.5590631 0.41811585 0.40306842 0.3823359 0.45622447 0.44163725 0.40332967 0.45001176 0.35054463 0.33718634 0.26651147 0.34444377 0.22311603 -0.011818305 0.44936997 0.37936497 0.25399897 -0.19406487 0.45393774 0.26793772 0.08686951 0.13641502 0.24785984 0.2069113 0.44795978 0.47286388 -0.04155111 0.48529643 0.5054696 0.46031302 0.5919875 0.5582284 0.5539081 -0.5054414 0.38458422 0.45400536 0.60232246 0.6737348 0.5720612 0.57458043 0.67477345 0.7162087 0.5497011 -0.60867846 0.7199408 0.39710683 0.6318575 0.6859257 -0.12748215 0.47279036 0.5369762 0.3703896 0.58858013 0.50264245 0.55809385 -0.0031554364 0.5013854 0.43388224 -0.14754182 0.3590062 -0.20610094 0.37296283 0.30368084 -0.096469596 0.3053631 0.1195545 0.25438988 0.16302305 0.13245337 0.07878615 0.1506973 0.14717725 0.19906212 0.23966506 0.4642417 0.33978385 0.43619072 0.57130843 0.5399684 0.44934267 0.49041414 0.48960942 0.54967964 0.5982538 0.51578575 0.519227 0.79079235 0.8532477 0.8916701 0.63565946 0.68869054 0.85652286 0.7667599 0.31851995 0.3276102 0.329313 0.3212566 0.54801565 0.5502068 0.39332002 0.27628112 0.31080353 0.43694302 0.29020283 0.27104068 0.39688146 0.14806327 0.030696139 -0.15537965 0.19072331 0.19588058 0.21726073 0.0399084 0.49157244 0.44687247 0.521845 0.45559934 -0.0667676 0.58215016 0.5312314 -0.34757954 0.59577656 0.55403435 -0.109461844 0.5725044 0.4579998 0.4463883 0.2237701 0.17074287 0.40379387 0.42388743 0.46079668 0.4516848 0.5289919 -0.45616624 -0.01679761 0.2615261 0.36466557 0.45758915 0.5573705 0.35439378 0.46691525 0.6363182 0.6851467 0.5365672 0.54103863 0.6521025 0.68465126 0.4350132 0.23014651 0.47027835 0.5293908 0.0997903 0.38751486 0.4823869 0.19747858 0.37378722 0.3071055 0.35421073 0.4677331 0.16397439 0.11018511 0.10920671 0.3672487 0.051117536 0.3069926 -0.11116816 0.285073 0.28069985 0.26773125 0.23837566 0.22520387 0.1340217 0.20981482 0.19651291 0.17776838 0.15897834 0.2176735 0.23644339 0.28081125 0.42592418 0.40611446 0.51953506 0.53822994 0.53250545 0.45247847 0.48859406 0.5457896 0.5611696 0.58219874 0.59645 0.94505167 0.884357 0.9364865 0.915207 0.8597527 0.7279184 0.79108906 0.66312206 0.3005482 0.3154875 0.28126866 0.26417568 0.8216491 0.5874554 0.53669643 0.12834339 0.28063786 0.7316595 0.79624987 0.52149 0.28274202 0.30008394 0.18880446 0.5860871 0.69586664 0.39573777 0.14479391 0.1491774 0.061785504 -0.08469529 0.57299745 0.5563313 0.000398878 0.5798217 0.5834608 -0.0048519596 0.62213874 0.61671174 0.18635815 0.611857 0.59073746 0.18523178 0.5797565 0.49737802 0.4235831 0.24171731 0.36692038 0.34627533 0.17797257 0.35056916 0.3544299 0.5107142 0.021158116 0.10422701 0.30544606 0.21328369 0.4838206 0.36498004 0.24494532 0.32087624 0.5386964 0.4078829 0.15273377 0.43661278 0.44102895 0.181657 0.36749053 0.0018047132 -0.31305215 0.16167024 0.28951716 -0.0031442568 0.11206594 0.2441971 0.27177715 0.25721186 -0.20015457 0.27096736 0.24506189 0.18465388 0.18025064 0.27655926 0.2781448 0.20330726 0.30431217 0.2880894 0.27262297 0.25686514 0.2843739 0.29401645 0.21538886 0.36015633 0.50238115 0.5418147 0.5092224 0.55397856 0.59154683 0.58992976 0.48243904 0.6041196 0.95339966 0.9477745 0.95786935 0.9279045 0.8700551 0.402627 0.75020176 0.8253626 0.7903811 0.26871848 0.25750414 0.26632762 0.40269727 0.7066524 0.79731905 0.81493396 0.6833369 0.63673884 0.83448493 0.8516158 0.57531506 0.339203 -0.045687966 0.092071675 0.8164637 0.8696073 -0.033363868 0.587626 0.7626829 0.83760035 0.45033452 0.23053955 0.09899481 0.39969638 0.60141754 0.7230066 0.61174774 0.5509715 -0.009177908 -0.3516897 -0.29723066 -0.0078106634 0.6651271 0.6425998 0.0007389188 0.6630449 0.64668804 0.6187432 0.49811283 0.54219925 0.5549071 0.5548568 0.55706525 0.16269195 0.16901349 0.50969934 0.53122824 0.20481208 0.375102 0.47018337 0.0055582374 0.2855417 0.0878573 0.18251869 0.20031