# vtk DataFile Version 2.0
Really cool data
ASCII
DATASET POLYDATA
POINTS 7385 float
-8.7144 -9.684469 16.53858
-9.070311 -9.142428 16.678892
-8.940644 -9.29639 17.364222
-8.771236 -9.195776 17.807688
-8.957177 -8.5095005 16.002613
-9.26429 -8.518268 16.720541
-9.224243 -8.601299 17.294209
-8.915633 -8.563247 17.881886
-8.9432745 -7.726943 16.111769
-9.1773205 -7.9502034 16.632917
-9.083326 -7.7518067 17.305801
-8.829793 -7.7862787 17.843258
-8.608452 -6.89172 16.04302
-8.82911 -7.034504 16.614065
-8.751188 -6.84996 17.262375
-8.167103 -9.88333 16.047583
-8.222462 -9.986262 16.597658
-8.24755 -9.9004965 17.351696
-7.9876018 -9.818968 17.877144
-7.891429 -9.183857 15.3233795
-8.341196 -9.359941 15.744915
-8.624797 -9.598574 17.63045
-8.349536 -9.343377 18.084059
-8.152682 -8.601847 15.318276
-8.610791 -8.108829 15.661966
-8.427236 -8.673123 18.312366
-7.898484 -8.44385 18.6595
-8.280346 -7.6490974 15.356097
-8.418555 -7.61492 15.460125
-8.280779 -7.8027797 18.413153
-7.943291 -6.788407 15.324787
-8.122303 -6.607829 15.5667715
-8.487395 -6.230284 17.102047
-8.250882 -6.78409 18.175653
-7.637481 -6.019801 19.029043
-7.9726024 -6.116219 15.695273
-8.335328 -6.057373 16.604088
-7.7702146 -5.3896255 18.57073
-7.679223 -4.874682 16.918064
-7.7130375 -4.5318165 17.730682
-7.6357 -5.0467415 18.660011
-7.557355 -9.900724 15.813574
-7.4761286 -10.203223 16.588816
-7.522 -10.096244 17.346142
-7.4561663 -9.816498 18.067383
-7.417716 -9.266537 15.274053
-7.556925 -9.614185 15.521203
-7.709652 -9.430932 18.439724
-7.2147527 -9.197482 18.631464
-7.4167514 -8.507607 15.070846
-7.141397 -8.329918 19.037716
-7.4306293 -7.4077396 14.991246
-7.1655684 -7.809198 19.13216
-7.5772376 -6.6835723 15.206721
-7.290566 -6.118414 19.380161
-7.6011105 -5.901566 15.736758
-7.328791 -5.221948 19.607697
-6.8920193 -5.3957763 19.884727
-7.23261 -4.593114 16.688398
-7.457094 -4.3394523 17.700312
-7.523304 -4.546226 18.360159
-7.341214 -4.7344666 19.19969
-6.90571 -4.8868446 19.88338
-6.992655 -4.0948157 17.151775
-7.263525 -4.113688 17.630264
-7.133794 -4.040034 18.33841
-6.9840174 -9.905243 15.791883
-6.6775174 -9.973122 16.691803
-6.8683734 -9.973827 17.556604
-6.628111 -9.7221775 18.00894
-7.042342 -9.11796 15.27728
-6.741808 -9.459458 18.34906
-6.3832297 -8.349468 19.149225
-6.552156 -7.435913 14.83027
-6.504085 -6.7866187 15.007202
-6.337485 -6.327287 19.939693
-6.7497945 -6.0295863 15.277806
-6.554043 -5.7362695 15.595805
-6.452998 -5.6043105 20.170334
-6.3804607 -4.450729 16.434416
-6.2447557 -4.463691 20.397316
-5.857714 -4.4212074 20.7953
-6.7567277 -4.0517807 16.936138
-5.829332 -3.9546301 20.769377
-5.97851 -2.8009527 17.893074
-5.883039 -2.8706954 18.339384
-5.6654587 -2.2631965 19.114157
-5.752958 -1.9913303 19.235447
-5.6439548 -0.28454524 19.459805
-5.6646295 0.5781371 17.014067
-5.790305 0.5594168 17.673029
-5.8052225 0.4706972 18.61679
-5.713306 0.50322866 19.495611
-5.618528 0.38014182 19.876461
-5.6375446 1.242327 17.5266
-5.7436132 0.9154388 18.640656
-5.579044 1.2202395 19.059423
-6.1408057 -9.237762 15.72238
-5.8165855 -9.458679 17.428583
-5.2654066 -8.339256 15.488284
-5.5322948 -8.143843 19.175882
-5.7826056 -7.5033464 15.043808
-6.0015283 -6.8370767 15.022185
-5.3262777 -6.0077796 20.578424
-4.8637943 -6.1160746 21.227304
-5.58169 -6.0760927 15.589255
-5.109597 -5.511243 21.396427
-5.290327 -4.254308 21.155123
-4.702925 -4.7228594 21.67266
-5.3543806 -3.3490736 21.128746
-5.4255037 -2.7772593 17.413506
-5.059018 -2.965865 21.33423
-4.675387 -2.8853447 21.71648
-4.8767414 -1.5598427 21.084166
-5.3938956 -0.26600304 16.69478
-4.9635925 0.5430145 16.180264
-5.193283 0.47672713 16.434065
-5.328058 0.6557357 20.21636
-4.8801465 0.43727478 20.737404
-4.8530765 1.3147312 16.34158
-5.201676 1.4673882 16.811823
-5.5069494 1.4961786 17.423887
-5.429636 1.6231258 18.48692
-5.41551 1.28686 19.471815
-5.127123 1.1490717 20.166061
-5.0412197 1.9228616 17.016953
-5.102016 2.0176117 17.389236
-5.175539 1.9138944 18.43576
-5.0122485 1.8424034 19.236439
-3.74232 -13.640784 30.883041
-3.775886 -13.689143 31.349833
-3.9544337 -12.932965 30.056776
-4.006843 -13.281465 30.646744
-4.0396047 -13.248116 31.367176
-3.8218265 -13.253633 31.966688
-4.052185 -12.414804 29.969458
-4.353073 -12.441213 30.592915
-4.3206773 -12.494148 31.4046
-3.92795 -12.450171 32.249348
-3.6933458 -12.089495 32.830494
-4.045175 -11.623347 30.041
-4.3257937 -11.576397 30.628933
-4.35876 -11.448416 31.362902
-4.032221 -11.4199915 32.32192
-3.630438 -11.130911 32.724457
-3.8981032 -10.39063 30.163544
-4.204352 -10.6081085 30.750128
-4.250433 -10.628107 31.298117
-3.9189143 -10.459745 32.23755
-4.0776644 -9.026428 15.534091
-4.0659003 -9.391394 16.572657
-3.7061863 -9.773279 30.237171
-3.9505599 -9.739996 30.717012
-4.018193 -9.821272 31.313248
-3.740697 -9.5899105 32.07183
-5.163087 -8.240215 15.797527
-3.6770053 -9.264505 30.974142
-3.9476993 -7.686194 15.651405
-4.09512 -6.7758102 20.581144
-4.187499 -6.7769895 20.993402
-4.2527056 -6.3968263 21.615515
-3.8959575 -5.612508 14.918372
-4.375009 -5.4612627 21.959879
-3.9270878 -4.351353 22.287455
-4.1259747 -2.396813 15.706226
-3.9120617 -1.274383 15.825161
-4.5697947 -1.7243173 16.430647
-4.262166 -0.031026248 15.766518
-3.6011133 -0.2833995 35.055656
-3.7283807 -0.10503133 35.551296
-3.6537871 -0.26369888 36.27738
-3.796424 0.37320322 15.423059
-4.1660304 0.38559243 15.6846695
-4.182994 0.15296414 21.13468
-3.6499817 0.4279434 34.98508
-3.796971 0.5055144 35.610233
-3.7619526 0.44757608 36.212627
-4.3403373 1.3106341 16.13102
-4.503235 1.3749559 20.498493
-4.4275985 1.0727829 20.776537
-3.637422 1.0232131 34.957283
-3.690406 1.1945592 35.6682
-3.684017 1.1300812 36.09347
-4.3556824 2.1585999 16.822987
-4.399028 2.410855 17.431168
-4.421023 2.3546197 18.345034
-4.5329027 2.03288 19.704897
-4.1609497 2.1404288 19.968977
-3.5411859 2.8761227 28.569962
-4.1267138 2.5606556 17.938116
-3.543254 3.282457 28.253109
-3.3187013 -13.814252 30.715805
-3.2655473 -13.972142 31.367828
-3.2620566 -13.783166 32.032253
-3.466772 -13.185217 30.003231
-3.6517305 -13.48283 30.428448
-3.3935242 -13.420833 32.327858
-3.0723858 -13.065955 32.928677
-3.6007805 -12.389997 29.679947
-3.076441 -12.413337 33.215977
-2.7877455 -12.160443 33.835823
-3.4639933 -11.673971 29.68365
-3.131465 -11.45538 33.610134
-2.6981142 -11.3834715 34.135124
-2.968219 -10.101926 14.902168
-3.0852964 -10.403705 15.572322
-3.3556647 -10.172081 16.86774
-2.9448733 -10.347733 17.51969
-2.7308965 -10.558104 18.622234
-2.9519181 -9.856953 19.031351
-3.3092737 -10.3911705 29.88715
-3.156393 -10.529517 33.368046
-2.949755 -10.934265 33.911316
-2.8505232 -9.370679 14.435584
-2.9590745 -9.645975 14.54995
-3.263768 -9.752432 18.458717
-2.8702521 -9.188377 19.354256
-3.274819 -9.659073 30.081736
-3.586053 -9.460339 30.40482
-3.5478852 -9.511475 32.16341
-3.210965 -9.706033 32.926178
-2.981264 -8.943031 14.458967
-3.429962 -9.223738 30.69225
-3.446732 -8.987371 31.472157
-2.895236 -8.86192 32.287094
-3.7841082 -6.859418 20.4973
-2.9345822 -5.8137097 13.914068
-3.1536613 -5.2527504 13.744509
-3.8140593 -5.4302363 22.278955
-3.041671 -4.8217597 13.654701
-2.909095 -4.779903 22.589825
-2.697627 -4.011434 24.778667
-3.1119626 -3.5991135 13.972246
-3.1267014 -3.546388 22.600912
-2.9916039 -3.2166374 23.190916
-2.758339 -3.2946482 24.397495
-2.7017827 -3.7371995 24.957941
-3.0576806 -2.8610055 14.210103
-3.1488454 -2.4511585 14.557928
-3.6030653 -2.0841007 22.665836
-3.1878276 -2.503783 23.146397
-2.826466 -2.484601 24.267998
-3.0220942 -2.1418283 14.553809
-3.1979156 -1.7663323 22.999382
-2.6231353 -1.510106 24.345848
-3.383644 -0.8490435 35.71424
-3.2669024 -0.9058604 36.272655
-2.776877 -0.84312326 37.166504
-3.348331 -0.22475386 15.145344
-3.614223 -0.25060678 21.480988
-3.2765248 -0.7760082 22.49207
-2.9410098 -0.9770888 23.369034
-2.7677581 -0.75346863 23.981142
-3.03036 -0.15076521 34.31852
-3.294716 -0.39182568 34.770218
-3.4794579 -0.6830395 35.449802
-3.4650843 -0.53079045 36.455788
-3.2774901 -0.17256469 36.92679
-3.1629615 0.48029783 15.253951
-3.7788444 0.6147121 15.535117
-2.873487 0.74691725 21.89867
-3.0423737 0.16446769 34.232376
-3.400493 0.37801895 34.591644
-3.5300095 0.6631637 36.654423
-3.2421021 0.40240535 36.972637
-3.6894445 1.3512557 15.902348
-2.9957101 1.9814985 27.863413
-3.2027607 1.921346 28.560427
-3.0548136 1.9642003 29.291151
-2.7642047 2.0419514 29.758732
-2.9903438 1.0680287 34.339413
-3.238442 1.3808314 34.84853
-3.4638336 1.5637101 35.46107
-3.3820448 1.4089733 36.388298
-3.0317783 1.1874268 36.957485
-3.5871353 1.841542 16.191296
-3.3320913 2.1516 16.51855
-3.4821343 2.4697206 18.570871
-3.7225509 2.3698254 19.658962
-3.4034553 2.1202066 20.50646
-2.6691263 2.9707308 24.943726
-2.5639706 2.975944 25.304554
-3.135734 3.0207977 27.20421
-3.262461 2.6028008 27.698402
-3.445602 2.5032911 28.695059
-3.208026 2.5412986 29.304586
-2.7700784 2.5140047 29.789574
-3.1231258 1.8072443 35.197594
-3.1627274 1.8976943 35.66998
-3.184745 1.8235716 36.126152
-3.8895104 2.607164 17.873384
-3.3432267 2.5109441 18.237091
-2.6645033 3.4793165 24.363804
-2.8068929 3.697151 25.257753
-2.9903271 3.6526763 26.87755
-3.4112058 3.543861 27.772238
-3.4573839 3.5447848 28.474325
-3.2607555 3.3360403 29.120293
-2.6746361 4.701835 23.770994
-2.8498816 4.606769 24.546589
-2.7930958 4.1730804 25.41469
-2.707536 4.1536274 27.12928
-3.2804122 3.9758894 27.792274
-3.1034296 4.1206927 28.466675
-2.9229374 3.9191265 29.095255
-2.775793 5.6227765 23.76254
-2.864391 5.5528235 24.571377
-2.7847092 5.76242 25.155725
-2.6873355 6.2552 23.954357
-2.695292 6.3369036 24.490248
-2.6295407 6.0044494 25.15425
-2.5713227 -13.900459 30.752453
-2.611022 -14.095986 31.42888
-2.4980457 -13.90898 32.192722
-2.6073916 -13.385872 30.151167
-2.1536698 -13.287997 33.32671
-2.2333603 -12.856321 33.752098
-2.7069528 -12.508974 29.694159
-2.6932642 -12.691212 33.48611
-2.070161 -12.220998 34.347004
-2.5797558 -10.572336 15.592684
-2.4633834 -10.679142 16.591644
-2.202638 -10.791846 17.671106
[...]
POINT_DATA 7385
SCALARS features_00 float 1
LOOKUP_TABLE default
0.9569385 0.94336617 0.8767485 0.8202044 0.85066915 0.8847283 0.86261415 0.7990731 0.73054504 0.79957485 0.779473 0.73751754 0.64373726 0.6813697 0.6579395 0.9144081 0.94097877 0.8657743 0.7940186 0.8032351 0.8771978 0.8432168 0.7724328 0.77196825 0.75084364 0.73058784 0.6570269 0.67249864 0.6779264 0.63864636 0.60033053 0.6050413 0.5803343 0.53881 0.4102813 0.57430613 0.5714627 0.44727272 0.44658813 0.42384163 0.44170284 0.85503924 0.9096745 0.8359804 0.7505548 0.7634134 0.82035124 0.7112828 0.65756834 0.7018032 0.5669941 0.6064746 0.48879737 0.57648855 0.36607656 0.552969 0.38306677 0.33221292 0.40920705 0.39510185 0.4275251 0.41538805 0.3367483 0.33680218 0.3644006 0.37398204 0.81237835 0.8540777 0.77570856 0.7038564 0.70499146 0.65870297 0.50171995 0.56300044 0.53436935 0.24122469 0.5270027 0.5112022 0.26954943 0.35366702 0.2228374 0.20329517 0.3143148 0.17317443 0.18905264 0.1907598 0.17514223 0.1750908 0.3843078 0.56822944 0.556865 0.4796301 0.46232677 0.44413662 0.6031347 0.5190335 0.5124357 0.66751754 0.6699093 0.314612 0.34583634 0.47524244 0.49880275 0.27352363 0.31927845 0.396846 0.27617094 0.18210952 0.21159372 0.13209094 0.11200431 0.089040145 0.05217692 0.13593897 0.41531482 0.46313262 0.49119362 0.44634894 0.3657626 0.53859615 0.59851134 0.61479616 0.5656239 0.4948349 0.46283367 0.62112534 0.6270746 0.5792388 0.52098775 0.87806964 0.84615576 0.91101193 0.8781165 0.8199693 0.75006795 0.90627384 0.87005514 0.81397927 0.64344275 0.5091729 0.84530365 0.8226804 0.76789874 0.5961814 0.50735176 0.71304667 0.72858655 0.7147641 0.62230873 0.44724268 0.56919694 0.6795384 0.6871155 0.68612826 0.64801264 0.28180784 0.68092966 0.07806548 0.27062562 0.28996456 0.3073455 0.27447435 0.27466232 0.121506006 0.13488607 0.19662502 0.1674695 0.3201453 0.77827907 0.7835415 0.72133 0.3316642 0.3663069 0.19126026 0.818731 0.82121307 0.79800856 0.4881037 0.4124946 0.36421287 0.8267741 0.83972114 0.8376068 0.5868969 0.5985509 0.5648738 0.48702982 0.44304988 0.6912947 0.56166625 0.65065587 0.8920443 0.8674093 0.7960373 0.9182505 0.89912957 0.71593285 0.5759851 0.9186926 0.4684282 0.404475 0.86020947 0.40624106 0.37172264 0.6445173 0.6457666 0.5583348 0.54295516 0.51503205 0.47665268 0.6786547 0.45351696 0.38577148 0.58419037 0.61054736 0.49117717 0.38544524 0.6513517 0.6755339 0.6360537 0.53817236 0.48825115 0.67500055 0.677533 0.6051538 0.24513103 0.3887974 0.40099293 0.23134856 0.40904066 0.08587687 0.21586137 0.33990932 0.011897184 0.030024558 0.16468318 0.22997607 0.25665167 0.18581341 0.037585735 0.053567752 0.122674555 0.15462372 0.06735812 0.10401113 0.6772592 0.6206059 0.48270497 0.1959593 0.027831234 -0.004506357 0.06736942 0.08109776 0.7697803 0.7596846 0.7195001 0.6640256 0.63826966 0.29261222 0.36347726 -0.07131854 0.7902478 0.8110033 0.7783234 0.6939794 0.42604735 0.6299962 0.6911688 0.6668362 0.6026446 0.8010872 0.8195909 0.8363738 0.8367422 0.7827488 0.46025342 0.4611229 0.43937013 0.40838176 0.23688202 0.23456353 0.21175821 0.49726185 0.6021446 0.70615363 0.69398767 0.61024475 0.82533544 0.8343486 0.83864623 0.53614837 0.42835018 0.26896968 0.22382799 0.40864757 0.59274834 0.6517638 0.68947375 0.35845155 0.35490417 0.24214694 0.42534631 0.56358844 0.5940448 0.6559055 0.39864278 0.40399265 0.38552487 0.3993221 0.3964967 0.378713 0.8891984 0.8616675 0.78623986 0.9087058 0.5900084 0.46609616 0.9077467 0.46026176 0.37737787 0.6652231 0.60699606 0.54816437 0.521787 0.49430418 0.8581257 0.35224652 0.33717972 0.6555587 0.6784102 0.686046 0.4781144 0.43698373 0.3303317 0.62771213 0.6431952 0.37443477 0.62310195 0.4891482 0.35292768 0.54170954 0.114033364 0.6319268 0.66227937 0.646948 0.56758296 0.48611453 0.3239458 0.27946565 0.07572291 0.09978339 0.26805532 0.29950243 0.30544764 0.37891465 0.06114923 0.077608906 0.32598358 0.3109952 0.29511636 0.3117218 0.31743473 0.4263511 0.4199281 -0.01760701 0.13294786 0.39650458 0.3787439 0.32665187 0.29323816 0.28353736 0.28849372 0.4284234 0.41213715 0.16366825 0.2752742 0.28029054 0.39332822 0.260053 0.29679143 0.3066609 0.36593547 0.25465596 0.25012577 0.38859966 0.30141464 0.1777523 0.20823969 0.2909112 0.30441928 0.27875438 0.18369415 0.22815363 0.45926616 0.076940216 0.15057014 0.23103546 0.12542354 0.62719864 0.364155 0.41729206 0.27164766 0.037966263 0.04610809 0.72300863 0.524794 0.35636473 0.18143913 -0.07027717 0.6037601 0.5336345 0.78089625 0.59929895 0.49864167 0.32413426 -0.1251854 0.059076987 0.5797968 0.50957155 0.7750812 0.7898504 0.70545053 0.3349433 0.27364108 -0.086156584 -0.1549537 0.16184887 0.2380827 0.49081108 0.8021767 0.81910276 0.8272166 0.7799561 0.03180273 -0.024467632 -0.109067336 0.49386823 0.1403445 0.32932556 0.3660512 0.59105384 0.26687518 0.3516345 0.304471 0.2426784 0.26293683 0.32048798 0.38102132 0.37500778 0.34735972 0.23910868 0.2570868 0.2753463 0.3315134 0.3375197 0.26145685 0.7912537 0.7809905 0.7000269 0.6877968 0.76232374 0.5660703 0.69378823 0.43439227 0.68057835 0.6377398 0.521395 0.4828921 0.47936246 0.32469887 0.6787652 0.6855465 0.61852825 0.45533425 0.4149641 0.17829181 0.5922714 0.61589235 0.3069764 0.15237269 0.30282617 0.36986858 0.49666095 0.5406766 0.235775 0.5732608 0.41547546 0.18535782 0.28707862 0.3377937 0.37399673 0.3656295 0.032917447 0.31846654 0.392566 0.43094897 0.41449565 0.22573584 0.26362437 0.3389454 0.32855788 0.36673945 0.013023868 0.3903616 0.35915196 0.3745703 0.30920348 0.2769357 0.42569932 0.41917685 0.2107602 0.23173054 0.3845752 0.2879681 0.30630064 0.4252689 0.14327097 0.3821425 0.3234482 0.33642328 0.4057583 0.12735538 0.04314218 0.3581865 0.2934823 0.32273924 0.33819237 0.27492923 0.100488946 0.119603574 0.109700285 0.2857992 0.17147757 0.48252583 0.26724294 0.27398008 0.061876647 0.71668637 0.32448396 0.3232239 0.101248436 -0.07780873 0.24190167 0.41707674 0.4072084 0.74480635 0.4393951 0.40894115 0.39201355 0.60318804 0.20198253 0.39278856 0.3290875 0.75051206 0.67441916 0.1007323 0.3808449 0.24923648 0.13151364 0.05011309 0.05293765 -0.06772512 0.10842579 0.21332322 0.12960544 0.09804872 0.34726685 0.22544 0.13872808 -0.06166091 0.73551005 0.81611156 0.20359015 0.22503649 0.091903955 0.62267745 0.75624585 0.82373583 0.8258791 0.2266962 0.23183472 0.34531766 0.2631127 0.18251106 0.60202014 0.71910816 0.7572186 0.754375 0.38265902 0.39687878 0.35560504 0.6224133 0.679767 0.6858614 0.43611646 0.4456973 0.4119668 0.5272263 0.59057444 0.50786436 0.3679133 0.48412335 0.47936243 0.3121947 0.34010372 0.19815601 0.6418871 0.39071155 0.39025003 0.36454767 0.2601685 0.17531967 0.19873832 0.34897253 0.4108484 0.5575774 0.55897415 0.34204692 0.37830526 0.40295282 0.3500967 0.34301412 0.16580877 0.3090434 0.4022214 0.43762195 0.3971604 0.37510747 0.2587141 -0.09154427 0.22866412 0.3302982 0.39556792 0.37699395 0.2938826 0.37249148 0.32732165 0.22769591 0.26157284 0.40364686 0.13977847 0.25020772 0.28443837 0.41456097 0.39444125 0.10966425 0.053095788 0.26741418 0.34966806 0.3602314 0.007602781 -0.025524884 -0.06960827 -0.06321559 0.33433992 0.31918687 -0.03480877 -0.063753486 0.29001033 -0.090123355 -0.11144605 -0.104007795 0.29919785 0.059117947 -0.15567185 -0.13192545 -0.12590179 0.035577238 0.34274766 0.09368919 0.662094 0.40597555 0.1062013 0.10683522 0.2577442 0.6006998 0.5892327 0.53413403 0.6177175 0.6952578 0.59033096 0.55918443 0.13977222 0.19248945 0.1307372 0.18822192 0.15988865 0.08291784 -0.18933713 -0.01307543 0.6223062 0.18816584 -0.03672681 -0.18294717 -0.20585349 -0.026656523 0.29750103 0.57587653 0.6515335 0.76587665 0.83424044 0.19751891 0.20195633 -0.15402806 0.09839213 0.495495 0.7672765 0.73588866 0.23934256 -0.043377217 -0.117377155 0.5114311 0.73765826 0.7029059 0.33803 0.3187945 0.22107977 0.036412716 0.0133610815 0.14715931 0.254948 0.36186916 0.52929354 0.58666515 0.647709 0.6765207 0.37643078 0.4113308 0.44048393 0.28738683 0.17881039 0.093413174 0.25265518 0.28757584 0.4894083 0.59012115 0.41265205 0.4371816 0.40473932 0.30078334 0.37364513 0.48903602 0.49804 0.5590188 0.6073011 0.4990477 0.333339 0.25910416 0.24485931 0.33859748 0.23370205 0.22036186 0.21976182 0.27782416 0.3232928 0.18595411 0.17426254 0.21455574 0.1752281 0.21116887 0.3615864 0.43195885 0.4775882 0.051674455 0.29377794 0.2241008 0.11472667 0.4320602 0.43764323 0.10056849 0.2096318 0.3005384 0.30721116 0.07579538 0.06403777 0.3825085 0.15368822 -0.34515625 0.0968283 0.05379027 0.33970696 0.27858835 -0.06451926 0.088078685 0.28733692 0.01286827 0.08234088 0.2547812 -0.021756563 -0.04039249 0.2812114 0.24443403 -0.07180311 0.30413637 0.27972317 0.24738178 0.2558082 -0.07890942 0.32655185 0.30730253 0.09496212 0.3561229 0.085391 0.5825229 0.3890571 0.4015152 0.34619495 0.048592858 0.24324298 0.5804765 0.524994 0.47298807 0.0972213 0.21816075 0.06579654 0.11155985 0.19825009 0.096098125 0.31747702 0.49908668 0.47759944 0.1915926 -0.36463058 -0.43744934 0.6106249 0.20333508 0.20331788 -0.40686136 -0.2954164 -0.17398487 0.71551895 0.20778786 0.21195728 -0.02822296 0.05440467 0.7052144 0.7134665 0.2865099 0.16079918 0.16086814 0.63262343 0.68037224 0.7047684 0.3316257 0.34180516 0.29920503 0.29074943 0.2639647 0.37183475 0.5075834 0.58205664 0.64721143 0.38403982 0.3898288 0.257644 0.15491575 0.07574907 0.1983439 0.3858545 0.259872 0.47262627 0.5366185 0.37807813 0.3724434 0.28664047 0.18836366 0.3071579 0.4699999 0.5668646 0.63928795 0.59177077 0.59631896 0.63780415 0.6560393 0.62430084 0.77862644 0.7490448 0.73068184 0.18696657 0.21324265 0.17593454 0.20499206 0.24839997 0.2858588 0.3076238 0.2576628 0.23551801 -0.07909925 0.28811383 0.35427475 0.4032479 0.1888206 0.027875215 0.18065238 0.4351794 0.4380979 -0.012084007 -0.16352488 0.06845115 0.073008396 0.03752077 -0.041633397 -0.015242457 0.42286044 0.12075971 0.02704851 0.02514774 0.078591466 0.32667637 -0.18719554 0.20014963 0.081121325 0.08760654 -0.020480737 0.060192063 -0.014479935 0.13364726 -0.10041137 -0.1568158 -0.04818817 0.027995422 0.24408528 -0.12844864 -0.2119213 -0.1324564 0.2627127 0.3458543 0.21374287 0.34135848 0.2221324 0.2589455 0.21730953 0.27349377 0.23494081 0.22970173 0.17251205 0.36133426 0.21730381 0.22562727 0.2863201 0.2094531 0.100603014 0.3572849 0.26174423 0.2527842 -0.007016018 -0.008188218 0.028421395 0.10748478 -0.027144283 0.010413602 0.12351302 0.18827662 0.3274387 0.12763552 0.16762958 0.43428355 0.6807089 0.12937711 0.7017394 0.7081703 0.14370173 0.7206739 0.1826319 0.69265914 0.7125582 0.23918216 0.58651805 0.6465762 0.27649415 0.30700928 0.2828657 0.4159661 0.54420537 0.2940202 0.33320588 0.22356293 -0.007893672 0.32714218 0.40892756 0.5354817 0.30489996 0.37465322 0.37735182 0.36715353 0.29586634 0.63017863 0.61966443 0.57546103 0.39328295 0.34251288 0.6073369 0.60745525 0.5711035 0.90663636 0.8468038 0.8063327 0.8705579 0.85846066 0.8119169 0.7568434 0.70953256 0.7205346 0.7747464 0.7190222 0.6966002 0.6623999 0.54912794 0.5988356 0.031266943 0.09008155 0.12123999 0.21614441 0.28400832 0.3044715 0.1617246 0.39518023 0.25553238 0.2610068 0.21090433 -0.09528211 0.3820643 0.20097095 0.1733486 -0.12848978 0.011521831 0.062122248 0.19418022 0.35208026 0.39334664 0.22765118 0.24381271 0.0675886 0.04152587 -0.12405092 0.0033249334 0.34473342 0.22950853 -0.090647645 0.27712184 0.32256255 -0.24053 0.31366727 0.24840772 0.091238596 0.13216734 0.16626625 0.18618897 -0.27532205 0.23554072 0.23895894 0.36508828 0.20306277 -0.21897551 0.25633156 0.36318508 0.35804617 0.2038013 0.3490593 0.34178975 0.13849726 0.3081388 0.22594717 0.07862735 0.25138012 -0.4782089 -0.32097912 -0.35140622 0.14802966 0.1582216 0.20034301 0.22435996 0.24662791 0.23525333 0.0072851405 0.28411508 0.26669675 0.07971004 0.27798218 -0.04349313 -0.059273623 -0.12736711 0.0437914 0.04576359 -0.12998717 -0.17757525 0.021193162 0.10942167 0.20244148 0.03524874 0.40406328 0.5639289 0.6009171 0.6892256 0.7128582 0.023219839 0.69429433 0.7126434 0.5820218 0.63932073 0.23029312 0.33126384 0.22363642 0.24189937 -0.018580861 0.2656353 0.22246939 0.23291454 0.3086142 0.33727852 0.39911544 0.15799992 0.5209705 0.5065753 0.39787334 0.40894172 0.37915206 0.31587568 0.53680325 0.55545187 0.53240067 0.9021349 0.8717576 0.9230257 0.9114182 0.8687793 0.79659563 0.87841797 0.74913776 0.70331496 0.70666504 0.5883289 0.24772948 0.5522334 0.1675042 -0.0061770678 0.029877257 0.058787994 0.1740134 0.2426059 0.23993263 0.17156929 0.27134952 0.2832961 0.2380351 0.18271233 0.16350189 0.26296252 0.29401162 0.16630396 -0.010930285 0.023670405 0.12868892 0.20126893 -0.10015471 -0.04089141 0.22088242 0.28388202 0.13547656 0.2774957 0.24101457 0.0068211965 0.18118128 -0.290773 0.20474695 0.4186688 0.39487422 0.33965835 0.2021066 -0.020182014 -0.33566186 0.22203021 0.36888427 0.39656898 0.38498548 0.20700662 0.33049908 0.31615642 0.19245568 0.20550947 0.16914424 0.17479889 0.23772568 -0.37029123 -0.34852195 -0.13248414 0.04492818 0.27044547 0.35490888 0.2413539 0.25975114 0.27347296 0.2824743 0.012072712 0.28188705 0.28604817 0.16580719 0.020571187 -0.0007782951 0.31943482 0.36054993 0.3482856 0.21037522 0.04260789 -0.045654517 -0.1887363 0.051341936 0.36383855 0.2874831 0.008791548 0.05321024 0.17271072 0.11238688 0.2806698 -0.14681332 -0.13689724 0.3323526 -0.14613299 0.5689157 0.08195953 0.4427085 0.63650686 0.107697286 0.18015435 0.25833887 0.34840775 0.37868786 0.36045122 0.36864066 0.38288856 0.34172344 0.29665002 0.2632302 0.31606686 0.280069 0.47681198 0.9197079 0.9074118 0.85979176 0.9159428 0.8281802 0.7702267 0.7172664 0.800802 0.8485691 0.66525686 0.65265614 0.5463586 0.14714104 0.43450937 0.14906454 0.1424652 0.15598087 0.12013032 0.058613908 0.023790732 0.018669358 0.13700794 0.19815902 0.16860643 0.19946223 0.09325075 0.12033035 0.15431099 0.12862618 0.18582582 0.15098351 0.157936 0.04439971 0.07662743 0.20104793 0.16664131 -0.05894956 -0.01410535 0.24398145 -0.083954364 0.20821522 -0.22274414 0.16674916 -0.080733255 0.07266318 0.13501334 0.5131557 0.46091938 0.34625793 0.09662576 0.48758513 0.4694021 0.43174553 0.3712433 0.10347842 -0.096191786 -0.1399827 0.17193009 0.10537868 0.39555013 0.15207753 0.32648742 0.20400135 0.21643735 0.25794524 0.34269184 0.3062327 0.1846795 -0.43245867 -0.44200307 0.046962187 0.07740392 -0.026457738 0.1380128 0.3849452 0.39512578 0.4208431 -0.31494176 0.12975983 0.2043204 0.32625663 0.44066077 0.4570682 0.23854703 -0.2248774 0.22642368 -0.022015981 0.025267892 0.21480018 0.33243185 0.3631898 0.36794683 0.4109915 0.40274942 0.31817663 0.16614565 -0.10453598 -0.14116618 0.0068047196 0.020422064 -0.14103594 -0.15289217 0.032434706 0.03260608 0.13588664 0.29485124 0.037569568 0.24933752 0.21013266 0.5786211 0.5143842 0.07056315 0.09200598 0.2529217 0.58239746 0.5540703 0.11639821 0.16026749 0.20212443 0.23123783 -0.05418238 0.28589892 0.32525027 0.26540148 0.24750395 0.35127246 0.33883977 0.3181789 0.2768841 0.33141512 0.36170182 0.8871833 0.8576386 0.86861837 0.81206065 0.77305245 0.70892334 0.79584503 0.67962015 0.6679354 0.5797707 0.61047935 0.60768473 0.5254495 0.1638355 0.20377308 0.22924781 0.16977449 0.13672309 0.06872453 0.07636225 0.19484724 0.22455738 0.3419197 0.1520778 0.36843255 0.04238671 0.10184623 0.34887904 0.37466463 0.11104377 0.13978128 0.04134932 0.016761111 0.0022830665 0.23503938 0.27669236 0.18576674 0.11010007 0.008248847 0.14552358 0.020392127 0.15011877 -0.122010805 0.078881085 -0.17933053 -0.042735036 0.52008444 0.5321994 0.43332875 0.33104807 -0.2511528 0.06195448 0.48059255 -0.22270666 0.35753265 0.36895317 0.13942692 0.16163059 0.24099225 0.32137924 0.4924984 0.3537959 0.38128787 0.47326177 0.56394637 0.5289768 0.1048801 0.41898543 0.48704335 0.48492265 0.5770551 0.5960344 0.5430403 -0.24134424 0.2291012 0.17439099 0.13023546 0.10584928 0.23987907 0.38827014 0.4341572 0.47187385 0.48358947 0.6279789 0.5301136 0.4231987 0.25936636 0.2493738 0.20590891 0.5739585 0.51167756 0.40938967 -0.040509984 0.42578524 0.27609897 0.031074814 0.33803824 0.32843074 -0.01822485 0.35694665 0.36341316 0.27010763 0.03337556 0.036740713 -0.038731717 -0.058914006 -0.088228546 -0.25440225 0.4272015 -0.2972964 -0.11161669 0.09175065 0.56847256 0.54546875 0.38178656 0.6340292 0.62626433 0.5892476 0.45262945 0.17763357 0.6519255 0.6357768 0.567901 0.40289348 0.15780868 0.05673611 -0.10284982 0.023048703 0.122969076 0.1601959 0.66601396 0.66399276 0.58668596 0.4957112 0.3144229 0.104407035 0.14094257 0.122039795 0.63410294 0.5759996 0.46882784 0.37682748 0.18390079 0.15850256 0.20552485 0.24685308 0.3664769 0.3414588 0.370188 0.3855242 0.39187804 0.77405334 0.6939266 0.7198567 0.68775773 0.64147586 0.66123986 0.66999805 0.61858994 0.63906443 0.19118208 0.1822731 0.15705054 0.16817676 0.13023779 0.19807848 0.23046967 0.21418062 0.16538452 0.12877443 0.0420751 -0.033225954 0.1292421 0.22441678 0.33608338 0.2647758 0.15100123 0.013765514 0.01051135 0.06946297 0.10968921 0.36066675 0.3109559 0.3421934 0.28288448 -0.0024665967 -0.023278058 0.27944118 0.3483634 0.33405757 0.237331 0.2522456 0.12000586 -0.044651404 -0.057321604 -0.19106111 0.057138924 0.49021652 0.5212039 0.50218916 0.06855565 -0.26120296 -0.22732155 0.026000515 0.45892352 0.48257375 0.03809045 0.090083 0.4090246 0.11434929 0.27310124 0.35086614 0.514848 0.4572539 0.55723524 0.5308909 0.5023367 0.6134592 0.2845751 0.15254748 0.44146705 0.4596808 0.47683945 0.68187547 0.6662811 0.32383695 0.3664544 0.32094002 0.3547706 0.17985198 0.06344966 0.008588508 0.2857551 0.3463524 0.35412964 0.37998977 0.60541785 0.52173096 -0.12456515 0.355655 0.56923 0.5015342 0.42420825 0.26179686 -0.16982156 0.20564874 0.17556429 0.18801227 -0.15230374 0.17567934 0.20290494 0.11489375 0.036904514 -0.0028940188 -0.038353264 -0.04008551 0.012639783 0.23607925 0.12931685 0.15238038 0.49911496 0.436106 -0.02307801 0.14270997 0.7077832 0.7521292 0.56119776 0.5604476 0.15286192 0.7034481 0.62319803 0.63270134 0.142006 0.63629365 0.6520909 -0.052603222 0.034602314 0.11806841 0.6514747 0.26613054 -0.0061793625 -0.07071568 -0.0714281 0.6436627 0.62198055 0.57552326 0.4646948 0.35444093 0.21266231 0.23704447 0.3357696 0.32696033 0.57411575 0.5564357 0.49655384 0.30985358 0.37298414 0.4070869 0.38403878 0.5609157 0.5547104 0.6011907 0.39527166 0.42188177 0.44209117 0.50525016 0.60805345 0.24759099 0.22303489 0.35634452 0.3980465 0.47714376 0.09600562 0.1865173 0.110746786 -0.033767764 -0.12925558 0.10004145 0.15496022 0.4530748 0.39780927 0.36156845 0.10094866 0.062240675 -0.0146371275 0.08798901 0.02892832 0.036593106 0.06682926 0.031038702 0.27686352 0.21441297 0.46715412 0.43964803 -0.017354742 0.0950177 0.02839519 0.17601001 0.4119478 0.38443944 -0.023116887 0.36916095 0.2636964 -0.058947623 -0.058211595 0.11381014 0.06557988 0.03316915 0.112966225 0.44005316 0.44990656 0.45138547 0.09385297 0.40563104 0.44568616 0.06291264 0.36270654 0.15025547 0.27574214 0.42541957 0.32653823 0.55937755 0.5130964 0.47019407 0.6329045 0.39427465 0.67358625 0.37875915 0.38571864 -0.061675653 0.1750381 0.09930166 0.20259568 0.3022666 0.6616006 0.64109516 -0.23112437 0.42943102 0.4426393 0.36852935 -0.0070519 0.6061004 0.54870766 0.3712194 0.24380858 -0.30036086 0.19303235 0.14870024 0.06571591 -0.37552983 -0.27119786 0.06790166 0.030446619 -0.09177483 0.044930678 -0.10052623 0.08028942 0.07435452 -0.07900348 0.10144621 0.23098266 0.5379988 0.625087 0.7084867 0.31107396 0.6543454 0.7765993 0.80978703 0.37225187 0.22488335 0.515861 0.59586585 0.7278331 0.78264105 0.55552006 0.15461695 0.39533502 0.5048941 0.6258502 0.5688108 -0.0017265305 -0.046242908 0.037722558 0.13082501 0.15838057 0.28040418 0.46654317 0.52341986 0.5772295 0.5631633 -0.08414354 0.1566441 0.05547656 0.55348456 0.54964936 0.29952002 0.18751219 0.07872263 0.2670135 0.27801603 0.15463166 0.537864 0.5237432 0.45118302 0.4282337 0.36326414 0.34627005 0.38334048 0.39347702 0.32224894 0.35831907 0.3960781 0.4189946 0.3188919 0.28385848 0.2058076 0.1701691 0.24058393 0.28823254 0.21189412 0.19797826 0.18539332 -0.1531242 -0.081539586 0.16104747 0.53862023 0.52651 0.47457832 0.21161954 -0.0021588579 0.12437151 0.15