# vtk DataFile Version 2.0
Really cool data
ASCII
DATASET POLYDATA
POINTS 1548 float
-16.795963 -37.321632 42.782207
-16.860935 -37.24233 43.27773
-16.708677 -37.172184 43.96166
-16.866009 -36.22746 41.98498
-16.980907 -36.06731 42.59351
-16.96092 -36.605717 43.40654
-16.778002 -36.54328 43.946083
-16.541014 -35.506557 40.210636
-17.015219 -35.279472 41.977024
-16.792564 -35.58459 43.271152
-16.76699 -36.044537 43.902573
-16.839365 -34.61267 40.964756
-16.909697 -34.80072 41.30413
-16.663727 -34.070778 43.46249
-16.708242 -33.749783 41.297756
-16.627525 -33.61691 42.562527
-16.555826 -32.134502 43.741856
-16.58139 -31.562624 43.72405
-16.684162 -30.11964 42.68458
-16.718534 -30.352785 43.434143
-16.620665 -30.261723 43.862312
-16.65063 -29.643963 42.86345
-16.63648 -29.696804 43.409462
-16.206612 -38.022552 42.79028
-16.348482 -37.930218 43.340214
-15.95971 -37.86209 44.144108
-15.974603 -36.968376 39.98571
-15.965185 -37.54233 41.036682
-16.38244 -37.15172 41.49338
-16.469667 -37.598198 43.75199
-16.507425 -37.30712 44.09082
-16.41388 -36.52212 40.455692
-16.580523 -36.660667 44.250713
-15.844678 -35.50371 39.12509
-16.28823 -35.34197 39.77681
-16.483702 -35.796432 40.317047
-16.57299 -36.049145 44.150818
-15.943803 -34.65692 39.475155
-16.561226 -34.327225 40.746822
-16.299326 -33.989605 43.77886
-15.991463 -33.978107 40.135822
-16.487286 -33.07364 44.037952
-16.392246 -32.332363 44.19023
-15.88287 -32.116253 45.07158
-16.296436 -31.14867 42.195812
-16.37805 -31.367207 44.28122
-15.86135 -31.542465 45.12333
-15.830098 -30.20809 41.628464
-16.51556 -30.113874 42.314342
-16.350157 -30.433228 44.297234
-16.161095 -29.757408 42.060043
-16.540035 -29.599619 42.613663
-16.440538 -29.31501 43.572834
-16.163206 -29.72266 44.270382
-16.203667 -29.0781 42.7532
-16.137178 -29.016256 43.4395
-15.989998 -29.15966 43.99961
-15.452385 -38.19024 44.201523
-14.6883135 -38.13573 46.931747
-14.748439 -38.09353 47.091347
-15.48991 -37.494144 44.939133
-14.8371525 -37.498974 47.546177
-14.818333 -37.28365 48.378
-14.669492 -37.120163 48.830692
-15.315892 -36.257393 39.02737
-14.88283 -36.67139 47.69821
-14.814351 -36.723278 48.46354
-14.6943 -36.638817 48.801407
-15.577963 -35.46309 38.905197
-14.647347 -36.12737 48.312656
-15.285569 -34.675926 39.011963
-14.806879 -35.011894 44.979404
-15.038786 -33.727673 39.390507
-15.232862 -32.78888 39.83137
-15.259949 -32.37393 45.56422
-14.887533 -32.067844 39.955643
-15.550262 -31.911093 40.742893
-15.449417 -31.227404 45.607254
-15.096483 -31.224789 45.861362
-14.915518 -30.56134 41.044556
-15.312085 -30.60556 45.571915
-15.13902 -30.780373 45.73198
-15.204978 -29.790361 41.61722
-15.542464 -29.485071 44.611202
-15.260146 -29.88999 45.183594
-15.568393 -29.18378 42.153378
-15.519311 -28.822397 42.64262
-15.4603405 -28.754639 43.562572
-15.37105 -28.95399 44.171223
-14.977577 -29.268612 44.745102
-13.736122 -40.65449 39.796825
-13.737691 -40.624695 40.552486
-13.661523 -40.03673 37.933697
-13.656089 -40.244324 38.306187
-13.953652 -40.41009 39.39059
-14.09629 -40.179634 40.41499
-13.90751 -39.93158 40.983334
-13.78817 -39.380234 37.836555
-14.08402 -39.58372 38.76195
-14.33436 -39.707092 40.19252
-13.948528 -38.943428 46.756493
-14.24421 -38.780468 47.07363
-14.075532 -38.63369 47.824604
-13.909224 -38.654568 38.300102
-14.133846 -38.466423 39.718002
-14.674666 -38.341427 41.19776
-14.238632 -38.389812 42.90594
-14.245244 -38.631397 47.371235
-14.201512 -38.21283 48.231754
-13.99654 -37.90288 48.799164
-14.589161 -37.55409 48.645615
-14.273545 -37.26925 49.075066
-14.264718 -36.60642 49.112003
-14.886191 -35.55048 38.701614
-14.517157 -36.013027 47.809746
-14.399285 -35.953648 48.497723
-14.123116 -36.100086 48.963467
-14.596002 -34.94992 38.84334
-13.777701 -35.30236 47.50589
-14.464073 -33.11927 45.509323
-14.159958 -32.82421 45.908173
-13.978291 -32.675995 39.320557
-14.547365 -32.653854 39.450756
-14.229533 -32.040688 46.17477
-14.378072 -31.663013 39.943314
-14.524366 -31.50641 46.126366
-13.930025 -31.253935 39.959633
-14.374637 -30.612888 40.827126
-14.611622 -30.767025 45.959644
-14.333684 -29.690044 45.324486
-14.442962 -30.10359 45.65027
-14.086046 -28.96047 42.22824
-14.402576 -28.74025 42.680183
-14.627311 -28.598986 43.509796
-14.609655 -28.916662 44.317413
-14.363976 -29.214304 44.818974
-13.158217 -40.69149 38.757633
-13.272966 -40.842194 39.403145
-13.629247 -40.717075 40.20334
-13.135139 -40.785316 40.98518
-12.9483385 -39.894035 37.155678
-13.267592 -40.123894 37.66447
-13.5614805 -40.22976 38.265778
-13.209518 -40.239555 41.584248
-12.904587 -39.829773 42.181484
-13.134924 -39.468708 37.066547
-13.491807 -39.43944 37.414284
-13.300241 -38.888176 45.8878
-13.237283 -39.23781 46.721878
-13.558731 -39.120644 47.114605
-13.400832 -38.72357 48.04826
-12.991767 -38.727875 37.115257
-13.7865305 -38.288025 44.163048
-13.815063 -38.299194 48.518
-13.208711 -38.064507 48.87305
-13.501855 -37.40844 49.23169
-13.551887 -36.385395 49.273273
-13.810027 -35.574352 48.447624
-13.446943 -35.894512 49.011566
-12.883676 -34.9992 48.244717
-13.003267 -34.30826 46.797188
-13.347031 -31.872425 39.277943
-13.368768 -31.540401 39.499794
-13.505764 -31.484877 46.04571
-13.186328 -31.250786 39.68618
-13.8445215 -30.760893 40.41369
-13.71719 -30.686913 45.88831
-13.70102 -29.943563 41.28107
-13.515783 -29.782866 41.481216
-13.694029 -29.899637 45.295307
-14.056008 -28.95881 42.25131
-13.779575 -28.838428 42.73657
-13.727516 -28.732443 43.51931
-13.754512 -29.078037 44.419685
-13.992864 -29.180891 44.77968
-12.328428 -40.63795 37.815437
-12.2454 -40.954338 38.727253
-12.287153 -41.02557 39.437813
-12.387405 -41.129997 40.04621
-12.402598 -40.972923 40.963108
-12.407676 -40.023285 37.10119
-12.696671 -40.329254 37.489964
-12.300003 -39.296406 36.729744
-12.624519 -39.11603 47.52396
-12.328636 -38.72748 47.944748
-12.146242 -38.62194 36.84774
-12.261836 -38.45946 48.25049
-12.946836 -38.098957 48.848965
-12.853453 -37.29821 49.24676
-12.705043 -37.11183 38.514244
-12.499959 -36.521507 49.262936
-12.474546 -35.729427 48.99261
-12.562528 -34.89056 48.271523
-12.29831 -32.17361 38.869263
-12.700891 -31.630617 39.163956
-12.544182 -30.918186 39.881336
-12.825014 -30.587368 40.34285
-12.326248 -30.945187 44.83425
-13.01264 -29.418636 42.63023
-12.476862 -29.643572 43.079544
-12.912518 -29.58368 44.196835
-13.099491 -29.22272 42.665184
-13.057701 -29.064125 43.467842
-13.088056 -29.226297 43.91853
-10.622446 -43.961327 47.94157
-10.573239 -44.19216 48.396145
-10.630804 -43.7741 47.85047
-10.67756 -43.327896 48.516632
-10.684805 -43.071255 48.306145
-11.773857 -40.765152 38.057404
-11.564954 -41.027367 38.87681
-11.667691 -41.262054 40.547237
-11.593012 -40.1971 37.18114
-11.779748 -40.554512 42.38242
-11.510543 -39.421112 36.64989
-11.171769 -39.06351 44.905926
-11.048004 -38.86077 36.44129
-11.398823 -38.503456 36.638683
-11.478928 -38.21264 48.16088
-12.08517 -37.791687 48.65783
-11.44762 -38.093983 36.85285
-10.9537735 -37.59987 37.511604
-12.103452 -37.58775 48.931717
-11.850771 -37.330402 38.329296
-11.726756 -36.297787 49.219616
-11.019789 -35.657825 38.5023
-11.552359 -35.567303 48.909756
-11.161564 -34.546326 38.35791
-11.639115 -34.871937 48.157158
-11.224944 -33.232365 38.595654
-11.560026 -33.065086 38.713997
-11.579032 -31.900745 39.074764
-11.279137 -31.605341 39.377697
-11.632462 -31.091166 39.766647
-11.546485 -30.78462 40.512054
-11.164135 -30.740765 44.00479
-9.602759 -48.068127 41.947716
-9.688014 -47.985107 42.296387
-9.772037 -47.353 41.789284
-9.854291 -47.37059 42.40448
-9.702426 -47.48903 42.906666
-9.771569 -46.809425 41.81551
-9.748439 -46.651394 42.432026
-9.971369 -46.065144 48.97477
-9.9284525 -46.291454 49.486023
-9.84863 -46.18828 50.066006
-10.054234 -45.555458 48.75473
-10.264718 -45.267815 49.684437
-9.933581 -45.71002 50.25831
-9.643803 -45.084496 50.792023
-10.28044 -44.346752 47.811016
-10.464584 -44.423897 49.204468
-9.815036 -44.72505 50.51532
-10.481079 -43.701046 47.455044
-9.950145 -42.261803 45.088276
-10.396074 -42.682343 46.491413
-10.418217 -42.855877 49.171936
-9.956711 -42.72335 49.928368
-10.493277 -40.818764 38.818848
-10.439264 -41.031742 39.76861
-10.821869 -41.22258 40.407524
-10.491598 -40.7058 42.78482
-10.343472 -41.79262 45.83666
-10.40726 -41.424793 46.316364
-10.387585 -41.77562 47.767746
-9.791325 -41.75743 49.271976
-10.54431 -39.952152 37.02974
-10.514569 -40.212135 37.354664
-10.19998 -40.95278 45.555485
-10.6403475 -39.26932 36.584526
-10.620853 -38.82872 36.484882
-10.45187 -38.577656 36.567204
-11.046158 -37.99582 48.168625
-10.4237995 -37.91193 36.96685
-11.0769 -36.80377 48.92763
-9.98844 -35.76593 38.331867
-10.020879 -34.02234 38.05454
-10.560563 -33.12317 38.449486
-10.337022 -32.022957 39.231186
-10.17261 -31.9309 46.062553
-10.223713 -30.585308 42.10131
-10.508054 -30.66548 44.305267
-10.499 -30.320086 43.12039
-8.958936 -48.83129 41.716705
-9.054072 -48.790245 42.321342
-8.832246 -48.838165 42.78297
-8.87802 -48.337246 41.17718
-9.391214 -48.262344 41.713306
-9.339256 -48.47986 42.370857
-9.191629 -48.324223 42.907227
-9.1208105 -47.73912 41.040062
-9.592259 -47.40125 41.40789
-9.358937 -47.5602 43.229656
-9.273603 -46.705856 48.895264
-9.49885 -46.70528 49.546932
-9.063673 -46.85658 50.07068
-9.215153 -46.817562 41.175484
-9.478992 -46.546963 41.575665
-9.5515995 -46.33213 42.747597
-9.232867 -46.71763 43.24491
-9.401602 -46.52894 48.76238
-9.606034 -46.568573 49.8473
-9.375057 -46.314953 50.482746
-9.027621 -46.12415 50.909756
-9.167181 -46.06685 41.562077
-8.964864 -45.73197 42.20824
-9.210009 -45.32319 47.5365
-9.1825485 -45.574203 51.022247
-9.12074 -44.352047 45.865856
-9.096197 -44.95119 51.111244
-9.2034645 -43.463753 44.95774
-9.512099 -42.82725 50.32098
-8.987521 -42.89551 50.56628
-9.500279 -40.686745 39.126762
-9.8283615 -40.860203 39.386887
-9.535363 -41.023632 41.427574
-9.285286 -41.16358 42.646687
-9.067819 -41.49584 49.636337
-9.381302 -42.147835 49.99775
-9.979411 -39.87843 37.222813
[...]
POINT_DATA 1548
SCALARS features_00 float 1
LOOKUP_TABLE default
0.46940547 0.45862946 0.45352864 0.44061247 0.43498474 0.44975054 0.45116147 0.4224068 0.38113898 0.38560295 0.42347735 0.3748119 0.3648728 0.27360117 0.37870154 0.30623522 0.34314167 0.4495579 0.73286545 0.6956378 0.6855264 0.7796202 0.77303314 0.4638973 0.45211658 0.42724875 0.41026375 0.3829478 0.44287962 0.4497704 0.4463663 0.42683017 0.4370461 0.4467666 0.43627757 0.42488867 0.4022922 0.42013276 0.38289988 0.25833866 0.3901649 0.28530067 0.3440966 0.44401962 0.5755398 0.4663895 0.5019797 0.58122337 0.72393894 0.62624276 0.71750087 0.77674353 0.7997191 0.7310777 0.80784833 0.82302403 0.7904546 0.41226608 0.5639801 0.59706485 0.36948606 0.71194154 0.80281365 0.8299984 0.45083773 0.7550421 0.8086035 0.81570256 0.44374865 0.76379585 0.4110186 0.16135266 0.3332417 0.23324692 0.48451534 0.20245326 0.2289663 0.55343705 0.5590826 0.32341653 0.5990777 0.58685267 0.56587994 0.7050958 0.64448506 0.7606826 0.86094344 0.83482623 0.7594589 0.68232465 0.5165454 0.46956033 0.58360267 0.57520944 0.5325932 0.44869804 0.39255077 0.5749099 0.5494257 0.44475007 0.5660258 0.6007559 0.66070485 0.5681956 0.43644214 0.2636965 0.24465817 0.63291913 0.7234677 0.77822995 0.80839735 0.8407042 0.8242596 0.41827205 0.7029853 0.7479768 0.77123106 0.3782457 0.5317733 0.42111248 0.4615525 0.2234033 0.21787304 0.5267831 0.20905724 0.54735804 0.2265358 0.28781736 0.5807782 0.62588274 0.6075026 0.61575866 0.73719037 0.7946148 0.71416944 0.66467845 0.56413496 0.53974533 0.49349132 0.46107733 0.62271 0.5964066 0.5773024 0.39661968 0.2950424 0.61307234 0.5903106 0.3341058 0.5615699 0.60308874 0.6419256 0.61929035 0.25387746 0.7126472 0.6758813 0.80272055 0.814046 0.6638973 0.72551435 0.5272943 0.29337057 0.25428486 0.2524005 0.5524843 0.26205078 0.25032538 0.57516885 0.39469677 0.43373835 0.5905876 0.615183 0.64372826 0.6933882 0.6674459 0.6548042 0.59876657 0.5413245 0.5016141 0.48759404 0.46234277 0.64617026 0.6106106 0.6643858 0.58670753 0.5515195 0.6522248 0.5467253 0.6375344 0.7164067 0.29363847 0.7284001 0.64852744 0.5098816 0.29788193 0.29755193 0.29446673 0.26283953 0.3474598 0.56802857 0.4850697 0.5520624 0.5916642 0.6304939 0.61933637 0.4139889 0.44241494 0.39862543 0.4156561 0.4013454 0.58538926 0.48612875 0.43125266 0.6602019 0.37839243 0.66322666 -0.1914795 0.64273643 0.636558 0.4641677 0.54765487 0.5950285 0.44990265 0.5685533 0.28347176 0.65155923 0.11055278 0.5808912 0.23411703 0.47666526 0.2590906 0.25873196 0.3148843 0.30453077 0.32047305 0.28904957 0.18043527 0.8248196 0.8257439 0.84055865 0.851582 0.83851814 0.8313428 0.8522257 0.6454334 0.6804893 0.6971886 0.6011557 0.6612886 0.6978997 0.68245196 0.41338962 0.52117103 0.67394984 0.36220643 0.32884705 0.29404604 0.5783011 0.49372926 0.46149576 0.35266018 0.33865762 0.2646793 0.2540368 0.24554893 0.407743 0.45515132 0.6184262 0.60492605 0.1925163 0.6292346 0.61893284 0.59225816 0.4298852 0.52370334 0.5425686 0.15078297 0.21397562 0.26482257 0.27154744 0.39872468 0.12866288 0.25713527 0.17671569 0.771701 0.7652445 0.71938586 0.79503906 0.81126297 0.78735805 0.7587683 0.79674983 0.8208586 0.79812855 0.65739274 0.68612504 0.6957545 0.76053536 0.79003143 0.85145974 0.83995533 0.64738655 0.69440866 0.7027478 0.69756067 0.72513396 0.7026891 0.516923 0.68763477 0.36544353 0.6574879 0.38131863 0.43653798 0.42493755 0.40760773 0.36785227 0.2450971 0.17458768 0.37467733 0.40336674 0.57770634 0.54594976 0.3767542 0.58889365 0.5447042 0.5646925 0.3750527 0.03694001 0.17107822 0.20175093 0.23653895 0.48971784 0.27599216 0.2482484 0.23057836 0.15599862 0.3435367 0.4987359 0.4841599 0.24548972 0.7327066 0.680579 0.6249175 0.72861755 0.61061406 0.70451295 0.65771973 0.48423368 0.6407542 0.6784779 0.6971741 0.6636809 0.4370258 0.7023108 0.6967759 0.49189192 0.34248698 0.6640012 0.4327088 0.4554084 0.61179316 0.30554438 0.45979196 0.36635405 0.22414558 0.18746704 0.35238236 0.4567976 0.5439629 0.49169248 0.38402596 0.48584437 0.12360575 0.46772757 0.51848805 0.19682771 0.33350712 0.46528363 0.50490457 0.34302402 0.51572144 0.32250282 0.21480173 0.49154416 0.5389465 0.5414231 0.56450653 0.40077522 0.67835057 0.6094184 0.5356461 0.39907217 0.37938532 0.74840546 0.7024493 0.62520134 0.40759063 0.73192716 0.72325575 0.69275105 0.6530518 0.73441607 0.21223973 0.37757862 0.32268837 0.6736131 0.68775696 0.45363307 0.25984102 0.25232208 0.6928847 0.23965198 0.66703606 0.39504033 0.2761863 0.28859958 0.28015083 0.31796235 0.29368955 0.43178657 0.30644903 0.4513397 0.50208807 0.22965844 0.5293397 0.42232168 0.510506 0.54821384 0.30804262 0.5580065 0.38697422 0.5255147 0.47250614 0.5452601 0.4668871 0.46414328 0.56069237 0.38103247 0.4879576 0.523677 0.5728277 0.56092024 0.6020849 0.58988094 0.57913566 0.4774314 0.3856039 0.6153568 0.59635246 0.53756404 0.44605073 0.38080475 0.33879128 0.6593722 0.65438247 0.37571087 0.37857437 0.3476123 0.2949036 0.727087 0.3929201 0.40765864 0.35968828 0.7279073 0.7214462 0.37055004 0.34708625 0.3391804 0.71467185 0.6641091 0.57001173 0.07906885 0.08845441 0.62330705 0.59897524 0.109225616 0.0649853 0.1660911 0.32055247 0.13661717 0.32861677 0.13897304 0.35058755 0.60860854 0.29615593 -0.21081495 -0.25046209 0.15707111 -0.15857875 0.41876775 0.49819684 0.4322576 0.52758574 0.5528793 0.4549623 0.57799053 0.60195744 0.37481785 0.6594417 0.6607038 0.4517247 0.1041688 -0.030696034 0.6667741 0.48105937 0.2927246 0.52913594 0.30681396 0.41983986 0.44724935 0.58184254 0.5752611 0.5189545 0.43079245 0.26532984 0.40605217 0.52551365 0.5700502 0.598358 0.58844924 0.5725925 0.4856083 0.4335634 0.60818607 0.33459854 0.31887025 0.26805615 0.6362983 0.22897793 0.3104555 0.68190134 0.27593628 0.23895411 0.6818695 0.70914733 0.13601708 0.7450905 0.4561199 0.32130247 0.23021095 0.21004832 0.08404779 0.09122135 0.72916675 0.6372429 0.5583384 0.07546434 0.066908635 0.21727644 0.06104793 -0.09185347 0.20018741 0.28594416 0.014843628 -0.022084542 -0.0022932626 -0.01678536 0.5142207 0.5658776 0.4125471 0.6191007 0.54338443 0.66206276 0.5612701 0.5968834 0.42556995 0.73992145 0.7463287 0.53608716 0.59148586 0.469544 0.72402024 0.76574236 0.7758775 0.52537084 0.18649454 -0.0005519837 0.21101825 0.58342254 0.60779023 0.46902257 0.1994647 0.30221415 0.61117715 0.58982414 0.5523332 0.5681904 0.55704087 0.55655205 0.40123463 0.5882674 0.22277403 0.30850893 0.59536874 0.39788246 0.4513015 0.59618294 0.39725095 0.6352992 0.2793061 0.7038281 0.13619469 0.7486862 0.63086206 0.56385076 0.35150495 0.28461635 0.05594957 0.4012919 -0.09424221 0.14214839 0.31100512 0.33739376 0.515199 0.5028613 0.16149864 0.2129911 0.25724074 0.05783412 0.2796733 0.18088338 0.26528287 0.1740988 0.23109663 0.21168697 0.05914537 0.6264978 0.5943475 0.6199583 0.6786661 0.6512418 0.67455304 0.53056455 0.7274984 0.7033823 0.82429385 0.79691905 0.66110235 0.19478077 0.7810122 0.8085494 0.8323827 0.6068846 0.62358034 0.5621442 0.61984766 0.60469484 0.5364527 0.5975789 0.54619384 0.525284 0.44121876 0.33998042 0.541402 0.47226542 0.20087041 0.35428366 0.48886275 0.52409625 0.5375298 0.45543587 0.5697677 0.41724503 0.63613665 0.62252945 0.3665316 0.09957149 0.3596363 0.44771266 0.54575354 0.5708676 0.10797554 -0.17881392 0.17150757 0.5507056 0.5585286 0.49602467 0.16710748 0.2706194 0.19899213 0.4290973 0.07619389 0.4531063 0.0071952194 0.08280368 0.28814295 0.653818 0.13276596 0.4592163 0.72747386 0.66825044 0.737913 0.74169946 0.6573462 0.67674184 0.63369423 0.81302357 0.83592176 0.76018625 0.7714721 0.51349425 0.76877475 0.83719677 0.8463471 0.7209582 0.7320336 0.691378 0.40908635 0.5046744 0.5254614 0.8420189 0.6656598 0.6645742 0.6403147 0.48426148 0.16611376 0.25067592 0.09758763 0.30994678 0.30991384 0.30275497 0.5447911 0.43597364 0.51787245 0.4290428 0.4956962 -0.030318871 0.706058 0.7384006 -0.007373959 -0.008278817 -0.0067581236 0.24456052 0.4146558 0.46452594 0.6126346 0.65707 0.6780175 0.17895086 0.0025561647 0.5989394 0.22032017 0.28137133 0.047698423 0.33673877 0.38729352 0.37428755 0.30430937 0.25225148 0.55059993 0.40375808 0.4057237 0.39088535 0.41622543 0.37950304 0.37478822 0.13947454 0.09801072 0.5693129 0.106261306 0.07093469 0.5777907 0.064919375 0.62341285 -0.0060162246 0.5882523 0.5937529 0.2698724 0.41675842 0.41065478 0.2990157 0.3530898 0.7338164 0.79682016 0.45603627 0.5782522 0.59808886 0.589267 0.5789628 0.58914745 0.1674782 0.05799022 0.015750855 0.38614124 0.11375927 0.33537453 0.44210556 0.42931288 0.025075808 0.24997175 0.73056066 0.80784965 0.80339766 0.01196802 0.030807495 -0.0064480156 0.68327034 0.7634752 0.15220252 0.02975161 0.73001623 0.7116651 0.2136459 0.23771589 0.6845841 0.3200815 0.28697908 0.30507034 0.35074812 0.26846567 0.4779363 -0.037534587 -0.051226016 0.6144634 -0.015552044 -0.01803948 0.03812653 0.66819286 0.21568525 -0.01983349 0.6630082 0.45883077 0.34109825 0.04649836 0.44981974 0.5310638 0.54787314 0.60439664 0.6027929 0.4454893 0.41636837 0.43209732 0.5482065 0.5237459 0.55262053 0.5924091 0.5876093 0.55588573 0.54312253 0.5959265 0.60846436 0.6038235 0.59393626 0.24216592 0.47166324 0.19421706 0.42096332 0.13738143 0.088272355 0.24453412 0.25961632 0.020078579 0.2128892 0.30419964 0.04538727 0.12644336 0.8003738 0.82790244 0.8331727 -0.0063195694 0.8273811 0.81768614 0.057307687 0.021930065 0.80533576 0.08510281 0.79302144 0.49464068 0.19118299 0.7451008 0.50422966 0.49755654 0.45537275 0.4417215 0.63870966 0.71077204 0.49856585 0.49241608 0.40505093 0.2950815 -0.07462199 0.51307493 0.519543 0.47546065 0.4086221 0.14405017 0.20897453 0.11675282 0.1287134 0.47663987 0.59260714 -0.12712939 0.06685423 0.6413907 -0.048221163 0.34059584 0.6322659 0.645491 0.64793897 0.66731733 0.51417977 0.57600033 0.582734 0.58748776 0.63596165 0.6479078 0.56247485 0.39994824 0.6140737 0.6658304 0.6602917 0.5844039 0.50921476 0.60578954 0.62439865 0.61800516 0.5484917 0.5567999 0.526106 0.60448885 0.58882785 0.5730277 0.3821348 0.4426324 0.5399059 0.51300585 0.49834704 0.1469355 0.21246773 0.43740928 0.400317 0.32649767 0.26197296 0.27785495 -0.032979913 0.24358237 0.25888702 -0.03425043 0.18990523 -0.044333287 0.18307547 0.13042563 0.17297666 0.82151365 0.1170935 0.18740463 0.78704965 0.7977189 0.8187796 0.82243574 0.03772337 0.1360142 0.644163 0.7709454 0.85617346 0.8607377 0.46964192 0.41096413 0.62681806 0.8421651 0.4799571 0.4868524 0.019672938 -0.10554033 0.51287174 0.7891053 0.48783767 0.49813744 0.032798573 0.58965105 0.76753455 0.75607634 0.74214643 0.46784306 0.47034848 0.50141287 0.0720155 -0.04595232 0.4991455 0.10428893 0.08309966 0.031078074 0.028762542 0.064223014 0.52352315 0.49438167 0.34800667 0.26165095 0.04737255 0.0968609 0.026600376 0.046696268 0.38114437 0.35983962 0.5019777 0.5747403 0.29272488 0.45947477 0.51769555 0.5418124 0.6041027 0.5379803 0.5563813 0.5740585 0.5662473 0.5757681 0.54484123 0.56406265 0.5803817 0.4405012 0.5237345 0.55000365 0.5513776 0.5183674 0.26616266 0.48316365 0.42633104 0.29157192 0.29661682 0.3275833 0.27033406 0.2881378 0.15521935 0.24714833 0.19414335 0.19767058 -0.15895265 0.16557649 0.17823637 0.24741162 0.32633203 0.36377716 0.73347497 0.81413376 0.8716785 0.42514062 0.4306081 0.36082757 0.7074292 0.81873775 0.87587285 0.8769102 0.44191754 0.027333952 0.7321229 0.79453045 0.8315715 0.83734906 0.46320957 0.11697587 0.7506 0.78664535 0.39759427 0.08446834 0.120732784 0.46259177 0.025170488 0.06309265 0.38286132 0.22744112 0.15614046 0.22933024 0.31979573 0.33416167 0.28925455 0.1894743 0.1721924 0.29893702 0.23447396 0.5800657 0.5840663 0.5867202 0.45658812 0.56890035 0.57051295 0.53688514 0.36994904 0.51591086 0.46724683 0.24620679 0.23104574 -0.1264942 -0.1250351 0.24070537 0.2522111 0.44954216 0.15441418 0.5283171 0.2734724 0.3787007 0.39048487 0.4029102 0.118019596 0.2344959 0.35727185 0.10375424 0.28965586 0.3400885 0.3677062 0.3581273 0.1075839 0.36980158 0.31349432 0.41667694 0.46109793 0.61228585 0.5329073 0.62054884 0.5930641 0.5614965 0.42579442 0.48665154 0.49547553 0.3708428 0.44635987 0.24688154 0.40661663 0.30683804 0.0221051 0.34796926 -0.031810626 0.26560995 0.35252538 0.35617638 0.53723925 0.54069155 0.51402307 0.47151184 0.2514939 0.12518948 0.32808167 0.044543415 0.31293237 0.40404314 0.3300792 0.30026317 0.37786764 0.3544889 0.40380687 0.3793202 0.33570835 0.014840066 0.2685627 0.30482313 0.39994782 0.39776596 0.3846151 0.36939877 0.16516092 0.18210363 0.49945927 0.54609394 0.31285387 0.5189337 0.5505728 0.58030546 0.6185471 0.61290336 0.5292028 0.54614127 0.5047424 0.32906303 0.46342233 0.43199104 0.46105242 0.35345963 0.4294129 -0.044887178 0.34361425 0.41572952 0.5340362 0.28092754 0.51432055 0.3616942 0.43852568 0.20789757 0.3206103 0.1802917 0.6651983 0.5750098 0.44999206 0.32542452 0.6162265 0.47424373 0.4722945 0.41274306 0.38150576 0.53786755 0.4604811 0.4330961 0.4324405 0.41227898 0.42053032 0.3816557 0.38930398 0.53829014 0.3941424 0.56552374 0.56319666 0.48146692 0.35103643 0.31643274 0.27686745 0.41297725 0.5443629 0.56008315 0.46190304 0.51870614 0.44521284 0.38616687 0.41786304 0.50330126 0.53177714 0.5282243 0.56931573 0.04437153 -0.02166684 0.47248098 0.5216938 0.6949791 0.5205586 0.3270979 0.34736007 0.36931586 0.44553933 -0.05109415 0.22850148 0.30240405 0.11873712 0.7307385 0.6688745 0.5757412 0.34700906 0.20311807 0.79064643 0.72188085 0.40697268 0.3852952 0.7657959 0.36264238 0.4325926 0.43342784 0.41324553 0.38511285 0.73520213 0.62222517 0.5243041 0.44231492 0.43952847 0.42965215 0.50041544 0.39341384 0.5691383 0.37319946 0.32191488 0.5640454 0.5687567 0.28058738 0.4767254 0.48780602 0.3972718 0.5456573 0.5081566 0.49611145 0.45384598 0.36407545 0.52878845 0.62262 0.60779715 0.6215602 0.6150136 0.5485761 0.70565224 0.5974962 0.48125565 0.7718611 0.736028 -0.2207368 0.39876258 0.41966859 0.3020614 0.030438893 0.14508969 0.7725668 0.70800334 -0.031228658 0.8209499 -0.031622816 0.20130067 0.33621046 0.37210622 0.41575184 0.8423834 0.16311821 0.3949827 0.77651155 0.3418275 0.45953864 0.5218619 0.54265785 0.3226791 0.31192896 0.5696608 0.30403686 0.26878244 0.43792203 0.46452343 0.5380194 0.46157044 0.51589066 0.5027153 0.47370267 0.4879313 0.600848 0.3220217 0.45297182 0.67676437 0.612656 0.61639184 0.6178193 0.2919834 0.25645417 0.7114028 0.6025947 0.60783005 0.71809065 0.5960324 0.71676373 0.5889767 0.51854885 0.6002893 0.67752707 0.44898927 0.42829815 0.22975713 0.20727801 0.22360043 0.2217638 0.21351203 0.36713383 0.23809789 0.65244627 0.35535267 0.31132954 0.71309364 0.62475073 0.21960196 0.742404 -0.012208454 0.7982856 0.18345553 0.77630544 0.37058958 0.33371508 0.38081175 0.3157408 0.48193252 0.46935272 0.3198384 0.3372434 0.30763382 0.46167073 0.4792226 0.47396746 0.4323073 0.42340398 0.46561378 0.52186346 0.5882121 0.6043638 0.6473582 0.6088998 0.6020795 0.2869786 0.3897504 0.5334866 0.60169435 0.64868367 0.68011934 0.59681666 0.5854475 0.38868016 0.38226953 0.4882026 0.641268 0.6674001 0.58223426 0.5727763 0.5610614 0.5473836 0.41648185 0.5277255 0.5952712 0.6299255 0.67047113 0.21495491 0.50065374 0.55329067 0.5699742 0.6054607 0.23241235 0.34141123 0.44424576 0.40894097 0.216532 0.23481023 0.19367987 0.48606944 0.43110174 -0.01585491 0.022703163 0.6207038 0.46242005 0.65790355 0.5666093 -0.12010675 -0.007186234 0.6771314 0.60990644 0.13493039 0.18961233 0.21470557 0.25573647 0.31329936 0.39808625 0.39850712 0.43817276 0.40177548 0.38697314 0.33181787 0.4253934 0.4199962 0.40572244 0.5542113 0.6089529 0.6333008 0.44997835 0.55171883 0.601969 0.6228614 0.4648348 0.47966528 0.5816945 0.60750866 0.41683114 0.48462576 0.49877664 0.5098445 0.44606596 0.48714602 0.5099679 0.5082979 0.49326554 0.5153891 0.49801773 0.46996126 0.5096023 0.046724513 0.09688882 -0.0453275 0.4842679 0.3633592 0.28382987 0.44465706 0.25111428 0.16021994 0.5694828 0.51244634 0.44568604 0.38043553 0.45254755 0.5027882 0.52348375 0.50490963 0.50349265 0.5807343 0.30549008 0.28103504 0.20868371 0.2993074 0.57713795 0.6084336 0.6078069 0.61693615 0.47838056 0.33407122 0.55976117 0.59926 0.54311043 0.50102824 0.660532 0.69299614 0.72753215 0.73400956 0.7386497 0.68536246 0.2324285 0.43634713 0.37337768 0.4232687 0.57551485 0.5809504 0.30696297 0.27580363 0.614014 0.61973935 0.39645657 0.33005667 0.63400173 0.6407707 0.5273307 0.54307806 0.75636303 0.80064887 0.7185794 0.85898626 0.82676744 0.5675169 0.6330176 0.78203803 0.4638611 0.64415634 0.6847789 0.4974696 0.45036292 0.57131577 0.4853059 0.4838488 0.56536907 0.56062996 0.34537315 0.60551226 0.57091635 0.39946318 0.7937669 0.82406634 0.72881705 0.7864228 0.87914515 0.8834948 0.692222 0.7747581 0.9107673 0.8618622 0.67201054 0.76798356 0.8523504 0.7742598 0.770524
SCALARS features_01 float 1
LOOKUP_TABLE default