# vtk DataFile Version 2.0
Really cool data
ASCII
DATASET POLYDATA
POINTS 9090 float
-11.578437 -34.63706 30.94409
-11.56753 -34.330124 31.494883
-11.556542 -34.254314 31.880627
-11.560779 -33.836212 31.500801
-11.570735 -29.930937 40.25541
-11.5107355 -29.543732 38.46288
-11.573049 -29.522411 39.570873
-11.570876 -29.52978 40.41766
-11.544288 -29.104568 40.316177
-10.594236 -35.986423 30.141947
-10.703416 -36.003002 30.494982
-10.801143 -35.22992 30.141361
-11.106551 -35.354935 30.63864
-11.295363 -35.11771 31.260073
-11.04051 -35.047752 32.21691
-11.174539 -34.053215 30.210537
-11.464429 -34.54897 30.8412
-11.48495 -34.424576 31.739765
-11.377852 -34.471134 31.995518
-10.727579 -34.2188 32.863163
-10.707018 -32.73924 28.352224
-10.952642 -33.98616 30.044525
-11.441677 -33.732143 30.843086
-11.442357 -33.46526 31.566366
-11.348284 -33.59414 32.14508
-10.796466 -33.26447 33.219254
-10.80918 -32.119892 27.651764
-10.951973 -32.271374 28.52361
-10.989811 -32.12222 29.341848
-11.065257 -32.81505 31.659904
-11.227855 -32.76244 32.186302
-10.979595 -32.36684 33.16554
-10.705783 -31.723457 27.206541
-10.834405 -31.575382 27.56229
-11.00946 -31.470812 28.457052
-10.890255 -31.306025 29.024933
-10.722106 -31.566702 32.267395
-10.817149 -31.65149 32.929764
-10.874117 -30.714432 40.319035
-10.705576 -30.86106 27.764332
-10.68427 -30.580605 28.452667
-10.59861 -30.405909 29.227703
-10.829196 -30.091724 37.747112
-11.197504 -30.255787 38.794964
-11.321009 -30.240324 39.639885
-11.336345 -30.160316 40.527035
-11.093273 -30.191957 41.015656
-11.19434 -29.42593 37.838932
-11.408516 -29.534739 38.60438
-11.441508 -29.503866 39.374096
-11.497173 -29.627321 40.70407
-11.277622 -29.531614 41.10373
-10.82807 -29.581244 41.654034
-11.051228 -28.926996 37.825165
-11.195725 -28.723656 38.621025
-11.405989 -28.884398 39.364235
-11.253859 -28.744322 40.53428
-11.025459 -28.809507 41.208027
-10.687275 -28.191885 37.976833
-10.839994 -28.289137 39.541096
-11.048657 -28.312326 40.24143
-10.56973 -26.967289 56.039112
-10.613679 -26.9746 57.30096
-10.576288 -26.363865 55.810722
-10.709203 -26.288029 56.440292
-10.737661 -26.191034 57.437447
-10.751176 -26.121033 58.5425
-10.585551 -25.541662 55.94496
-10.767044 -25.622383 56.684406
-10.999502 -25.488644 57.887085
-10.982269 -25.405127 58.502537
-10.817217 -25.326242 59.22046
-10.864047 -24.617432 57.60642
-11.021706 -24.640354 58.492615
-10.755545 -24.556576 59.319954
-10.757722 -24.057316 58.01252
-10.807755 -23.996202 58.408337
-10.721991 -23.973051 59.063026
-9.526521 -39.34034 33.26497
-9.728356 -38.76252 35.48484
-9.712739 -38.7106 36.17905
-9.568321 -38.83395 33.031815
-9.909733 -38.365864 34.670967
-9.973066 -38.318474 35.64193
-9.871953 -38.281647 36.181408
-9.665486 -37.98572 36.67678
-10.188796 -36.745884 30.107576
-10.143409 -36.826828 30.53246
-9.631135 -37.803135 33.739777
-10.117333 -37.647427 34.77479
-10.1735935 -37.719677 35.632507
-10.005235 -37.688473 36.23633
-9.729386 -37.419067 36.74633
-10.263839 -36.2254 29.821054
-10.433787 -36.488472 30.702482
-10.202815 -36.665527 31.667799
-9.843628 -36.738304 33.98394
-10.054161 -36.83889 34.66984
-10.001374 -36.56574 35.3656
-9.881433 -36.78028 36.22311
-10.243626 -35.574574 29.558306
-10.288967 -35.017242 33.002518
-9.662537 -35.95584 36.096226
-9.8154745 -34.896572 53.23955
-10.006454 -34.945297 53.746735
-10.073911 -34.861286 54.407024
-9.692548 -34.932274 55.21578
-9.936702 -33.945084 29.074587
-10.352913 -34.182236 33.206177
-10.018121 -34.311237 53.17158
-10.264526 -34.34417 53.622814
-10.345608 -34.30038 54.420723
-10.075383 -34.30575 55.089188
-10.076996 -32.978928 27.579622
-10.392076 -33.698326 29.11718
-10.498935 -33.551834 33.544304
-9.799854 -33.404533 34.162
-10.004562 -33.66224 53.141747
-10.312376 -33.650867 53.72373
-10.3871 -33.63772 54.38335
-10.134446 -33.628574 55.217228
-9.83286 -33.497753 55.666107
-10.129447 -32.285385 27.001244
-10.476468 -32.646492 27.642506
-10.364407 -32.27655 33.92434
-10.018925 -32.862587 53.783806
-10.192415 -32.935154 54.45819
-9.9470825 -32.809845 55.268974
-10.375205 -31.468735 26.956095
-10.501045 -31.839249 30.293459
-10.344955 -31.529812 33.636173
-10.146365 -31.492027 33.80827
-10.290099 -30.635328 37.81534
-10.310779 -30.902578 38.727703
-10.438519 -30.91363 39.470016
-10.426402 -30.874853 40.6259
-10.248099 -30.770748 41.13985
-10.237527 -30.848143 27.021946
-10.420905 -30.60804 27.40514
-10.556857 -30.341082 28.44691
-10.31168 -30.157814 29.715128
-10.268611 -31.037964 32.026257
-10.054667 -30.913776 32.59859
-10.26031 -31.169323 33.14948
-9.817685 -30.099888 37.22046
-10.238089 -30.301126 37.44613
-10.633548 -30.331497 41.464878
-9.935558 -30.088396 42.223145
-9.987664 -29.832455 27.855625
-10.248821 -29.741997 28.694704
-10.156377 -29.651646 29.402225
-10.557608 -29.763407 37.271255
-10.403675 -29.71839 41.94752
-9.732396 -29.292227 56.667206
-9.853182 -29.038387 57.664738
-9.706558 -29.396908 58.660805
-9.660974 -29.176617 59.1993
-10.582908 -28.707476 41.463917
-9.907532 -28.67538 42.12625
-9.70086 -28.016136 54.71518
-10.098191 -28.072672 55.98617
-10.171202 -28.30481 56.330708
-10.130513 -28.554317 57.27833
-9.967639 -28.425062 58.37559
-9.669032 -28.606363 59.36991
-10.6462345 -28.256134 38.088432
-10.129372 -27.903397 38.847008
-10.559157 -28.050844 40.67839
-10.585847 -28.201105 40.939903
-9.551042 -27.135553 43.590984
-9.674782 -27.259533 44.724533
-9.762389 -27.211977 53.02396
-10.008734 -27.171406 53.608913
-10.062075 -27.23397 54.32678
-10.436304 -27.081518 55.771015
-10.494775 -27.289085 56.76978
-10.374896 -27.742083 57.248962
-10.063944 -27.56343 58.590454
-9.785324 -27.62369 58.82044
-9.661437 -26.05671 35.847176
-9.522965 -26.700674 37.857147
-9.635301 -26.13124 43.332417
-9.682842 -26.443361 44.599117
-9.592081 -26.702297 45.12979
-9.599939 -26.4926 52.13585
-10.022877 -26.32164 52.81503
-10.266307 -26.341705 53.619026
-10.37714 -26.228796 54.441216
-10.364135 -26.223106 59.06432
-9.671963 -25.406645 34.969448
-9.693689 -25.343214 35.52656
-9.733134 -25.33791 36.59736
-9.6656475 -25.44679 37.29803
-9.551676 -25.475685 43.01367
-9.587991 -25.527636 43.640965
-9.638524 -25.88531 52.24907
-9.955996 -25.654371 52.878613
-10.241514 -25.764046 53.54931
-10.299573 -25.70479 54.488216
-10.441633 -25.661945 55.314396
-10.521024 -25.47297 59.493855
-10.063405 -24.971897 60.025253
-9.624732 -24.462576 34.734226
-9.8074665 -24.381798 35.60086
-9.7983885 -24.42363 36.50508
-9.675752 -24.256218 37.167076
-9.537888 -24.94749 38.020756
-9.671493 -25.148811 52.68516
-9.710598 -24.864647 53.73081
-10.002862 -24.912872 54.545155
-9.819889 -24.626171 55.39573
-10.490721 -24.684458 56.57449
-10.558573 -24.344204 59.49094
-9.661487 -24.109554 60.55574
-9.646127 -24.013472 34.99186
-9.6811905 -23.891108 35.544006
-9.686661 -23.889761 36.532005
-9.603726 -23.907822 37.156624
-10.117339 -24.022615 56.81526
-10.420789 -23.676064 57.73213
-10.361749 -23.281046 58.892105
-10.418261 -23.578457 59.30132
-9.940304 -23.502207 60.185375
-9.744873 -23.120707 57.438084
-9.999267 -22.71859 58.79055
-10.008856 -22.764381 59.40373
-9.761396 -22.697159 59.962933
-9.704077 -22.29325 59.56196
-9.519508 -20.31476 45.89245
-9.505814 -20.658346 49.281246
-8.703893 -39.717102 31.51339
-9.036418 -40.102287 32.70961
-9.063713 -40.109627 33.412304
-8.972067 -39.809246 34.459797
-8.976865 -39.013126 30.73691
-8.961066 -39.58885 31.754843
-9.282617 -39.514523 32.553787
-9.386673 -39.441643 33.553673
-9.259089 -39.36149 34.423214
-9.377484 -39.136272 35.453964
-9.350475 -39.007683 36.065147
-8.932723 -38.76102 36.70236
-8.875907 -38.747505 30.120007
-9.12217 -38.58642 30.537348
-9.233444 -38.073486 31.638039
-9.320191 -38.235645 32.26162
-9.525488 -38.57349 36.524097
-9.303759 -38.156654 36.93636
-9.517902 -37.065006 29.79432
-9.381439 -37.4891 37.03403
-9.480089 -36.25679 29.223309
-9.05921 -36.57541 37.300495
-8.765202 -36.721043 37.612274
-8.807935 -35.833916 53.98222
-8.904766 -35.769436 54.56468
-8.795502 -35.837685 55.16474
-9.685052 -35.236813 29.259943
-9.361209 -35.42831 35.33731
-9.078537 -35.812294 37.099586
-9.502451 -35.031414 53.227055
-9.423071 -35.390373 53.762783
-9.473083 -35.406025 54.292854
-9.190979 -35.32172 55.45306
-9.000464 -35.105873 55.967728
-8.638185 -34.11514 49.022804
-8.697614 -34.16321 49.40304
-8.663999 -34.14257 50.09556
-9.227911 -34.51588 52.689857
-9.517926 -34.748398 55.63983
-9.314278 -34.472446 55.998203
-9.313252 -32.974987 27.247864
-9.63115 -33.046173 27.451817
-9.346194 -33.53772 28.34493
-8.634741 -33.48399 48.930195
-8.751788 -33.444035 49.5774
-8.728497 -33.373756 50.467564
-8.921068 -33.350933 52.138084
-9.414145 -33.67068 52.592854
-8.6761675 -33.325657 56.56895
-9.52513 -32.23588 26.829758
-9.375088 -32.6142 34.35874
-8.603056 -32.784813 48.77447
-8.61174 -32.713135 49.27019
-8.56237 -32.99302 50.696976
-9.368622 -32.982475 52.80557
-9.623465 -32.501442 53.524136
-9.440891 -32.44354 55.570652
-9.301852 -32.82183 56.023617
-9.669936 -31.61753 26.640646
-9.406319 -31.586487 34.208984
-8.956472 -30.683357 37.137337
-9.80938 -30.719608 37.64419
-9.71353 -31.165657 39.64067
-9.6452 -31.246693 40.312263
-9.660226 -30.970768 41.30532
-8.884484 -31.038244 42.051712
-9.315051 -32.286808 53.602173
-9.136303 -31.730774 54.720253
-9.436421 -32.209133 55.622467
-9.497071 -31.015537 26.721119
-9.55891 -30.440334 31.986763
-9.443378 -30.250648 36.990883
-8.629726 -29.794739 45.20616
-8.930467 -30.097387 56.092392
-9.287995 -30.099184 58.85533
-9.29983 -30.008936 59.32847
-8.946092 -29.806555 59.922485
-9.502885 -30.194069 27.05786
-9.695661 -29.795292 27.60217
-9.340764 -29.281141 30.52157
-9.228445 -29.461369 43.18266
-8.999196 -29.451643 44.84653
-8.782172 -29.42635 45.241035
-9.254583 -29.335876 55.83175
-9.29708 -29.654873 57.675407
-9.397761 -29.621601 59.462593
-9.050474 -29.375938 60.095345
-9.575754 -29.28946 28.115702
-9.119203 -28.77819 28.912544
-9.446467 -28.838448 29.284172
-9.057801 -28.696966 30.303566
-8.790026 -28.837036 31.501352
[...]
POINT_DATA 9090
SCALARS features_00 float 1
LOOKUP_TABLE default
0.44596842 0.4605152 0.4602118 0.4503212 0.6720514 0.6717274 0.65670633 0.66112953 0.6354878 0.4002887 0.4023212 0.40653682 0.43373954 0.45877776 0.44030595 0.4084345 0.44032064 0.46128112 0.45535117 0.44305474 0.5659316 0.39553335 0.42741156 0.43581086 0.46226966 0.5039199 0.693669 0.58769685 0.4679637 0.4023701 0.4619316 0.53574437 0.72885376 0.70267594 0.60889196 0.5310771 0.42056 0.4893629 0.6493299 0.6433341 0.5605351 0.46965078 0.6662518 0.6919704 0.67512226 0.6706089 0.6574863 0.69108605 0.67014736 0.65595245 0.66177624 0.647662 0.6175902 0.63228196 0.5880646 0.6086706 0.5991392 0.5846787 0.43883377 0.51476955 0.5448621 0.2662468 0.28195935 0.27606627 0.28403687 0.34106362 0.4123991 0.2945507 0.34047726 0.47027385 0.51904607 0.53021276 0.4754393 0.55272186 0.5713981 0.49293166 0.5291783 0.56054336 0.36230418 0.4847854 0.5192499 0.3274153 0.446803 0.51180077 0.5339552 0.54918224 0.34337413 0.31783435 0.35061935 0.4819762 0.5334295 0.5521071 0.56307495 0.37205324 0.35514194 0.2733813 0.34639165 0.47753006 0.52828884 0.57231134 0.37356126 0.35536182 0.5671406 0.7029582 0.7457955 0.7670119 0.69479907 0.30887306 0.43580288 0.712824 0.77121174 0.8106872 0.7503545 0.59211874 0.35385647 0.49541637 0.48362362 0.69226 0.7781259 0.81418324 0.7372453 0.6740197 0.708772 0.6446831 0.5592139 0.70368266 0.7565156 0.7059808 0.73724246 0.31809533 0.51713085 0.5211093 0.5340463 0.6111134 0.63685536 0.58381796 0.5524435 0.70277023 0.6564459 0.54545414 0.376298 0.29908723 0.3244769 0.43217748 0.43233526 0.5238582 0.61619467 0.4545771 0.5307834 0.47955406 0.40271738 0.5960431 0.5656884 0.2877358 0.33789223 0.41297367 0.46168762 0.5250712 0.31403306 0.23970778 0.26430166 0.27578413 0.30963933 0.35547048 0.46119648 0.45432395 0.2893163 0.4369003 0.46395594 0.25782242 0.39986938 0.4241105 0.40465528 0.33441395 0.26643074 0.27442652 0.28832388 0.3201808 0.3462712 0.3229074 0.0643219 0.2570172 0.38502893 0.4370828 0.47112578 0.47558534 0.44333997 0.3695799 0.39526114 0.48504695 0.46692905 0.3924139 0.31947684 0.25119096 0.30353492 0.45620435 0.44320622 0.42623442 0.35804707 0.30192915 0.48899207 0.5145817 0.6349941 0.59651375 0.52463585 0.49683392 0.32981795 0.4021463 0.34128273 0.29011932 0.20880257 0.3355167 0.5727243 0.5888655 0.66787815 0.6574734 0.590757 0.5394059 0.2765271 0.4089628 0.5250295 0.55720824 0.5845853 0.26700157 0.48347977 0.5331327 0.55821043 0.5180758 0.3992569 0.4708697 0.26258597 0.35048366 0.36681634 0.3828373 0.21903613 0.28462315 0.3400111 0.37209862 0.3967911 0.46261722 0.4976763 0.5094636 0.23151632 0.20016599 0.19362149 0.23767753 0.5277865 0.5377471 0.3185241 0.55506766 0.3383193 0.54303646 0.5193174 0.69530773 0.6967617 0.6760051 0.31649232 0.4508317 0.54805136 0.68426657 0.7045599 0.7156174 0.65644723 0.60867715 0.51994526 0.532756 0.5423877 0.6482878 0.64838743 0.59663403 0.5506564 0.5627039 0.41239455 0.47642937 0.47540814 0.39555937 0.34913772 0.599023 0.45610088 0.6872861 0.4921294 0.42349347 0.41189367 0.2727862 0.52670914 0.5784098 0.6651958 0.6007954 0.73287475 0.48582447 0.2839004 0.43355298 0.44010004 0.39627594 0.41076714 0.23569538 0.5071446 0.55146456 0.6425063 0.7163079 0.10789356 0.34241062 0.18831211 0.16177815 0.42502213 0.4670668 0.5128976 0.60980695 0.52007115 0.17399016 0.17450202 0.20680824 0.22121611 0.20002016 0.3432312 0.4872267 0.53928995 0.40662867 0.27807063 0.30548838 0.18957053 0.05122796 0.012287259 0.21579403 0.159257 0.33873513 0.338884 0.33331364 0.24108787 0.17381477 0.22291264 0.539987 0.09477262 0.09447279 0.031264193 -0.016701248 0.19252735 0.442478 0.43327105 0.42777956 0.40096158 0.45705834 0.3721531 0.3349375 0.1993047 0.025441501 -0.08685739 0.09306577 0.20248812 0.23862292 0.45132852 0.4465945 0.43697453 0.45721507 0.3318811 0.31356603 0.41444337 0.4429112 0.13634287 0.06536111 0.03936535 0.1569846 0.18207279 0.32149404 0.337421 0.41796803 0.43532676 0.40224725 0.42475313 0.4728635 0.66575825 0.640269 0.088137925 0.15191756 0.24865249 0.3120949 0.34884298 0.34859526 0.23848875 0.25963938 0.35610813 0.26824665 0.5426055 0.58847153 0.6956357 0.702623 0.6932409 0.62738264 0.5563847 0.48897445 0.1606749 0.23585403 0.29966265 0.23070616 0.10489013 0.13971579 0.10620421 0.59687185 0.61126924 0.7130315 0.70963407 0.67019 0.58649075 0.19550288 0.39536554 0.38279724 0.31331754 0.33860967 0.29913133 0.194042 0.57149 0.6024569 0.3914598 0.36693996 0.35022473 0.3953784 0.43189293 0.4674155 0.40782982 0.3622109 0.20367491 0.2719504 0.43435645 0.49573678 0.5431589 0.38963968 0.41438887 0.41348243 0.38562655 0.3809908 0.44201 0.4770682 0.46880013 0.41723764 0.37835926 0.4323139 0.4300685 0.41978547 0.3955881 0.34876072 0.41385734 0.4405559 0.41586566 0.37991023 0.44330186 0.4411499 0.4166373 0.3653306 0.31568477 0.33611187 0.30295724 0.40175754 0.3563536 0.24682409 0.25501922 0.3139274 0.35189053 0.3646604 0.42798817 0.41920096 0.30964166 0.23749897 0.48560917 0.47917432 0.3968765 0.5094582 0.3293238 0.5204744 0.49234274 0.31733614 0.5017261 0.6870472 0.70354867 0.6663004 0.6386244 0.15549538 0.50951946 0.5592761 0.58932173 0.60407746 0.6287807 0.6663127 0.6434815 0.6036298 0.149603 0.49475294 0.46057504 0.5281662 0.5694415 0.592246 0.52903634 0.53785276 0.494899 0.3816815 0.29370168 0.3926623 0.40086296 0.46545875 0.3346772 0.5941558 0.38553447 0.13725504 0.31177425 0.38371718 0.3889355 0.2419256 -0.0055911094 0.19655414 0.18064375 0.26200616 0.30812305 0.22222254 0.23407644 0.15887874 0.15884313 0.16017887 0.21755326 0.32375577 0.33503687 0.3060766 0.21342595 0.12300901 0.23465136 0.21703537 0.37816542 0.66430306 0.0023290515 0.18609731 0.14166835 0.13988207 0.13827197 0.0072011948 -0.22468367 -0.43322763 0.36637822 0.4628371 0.48745868 0.004121935 0.24917531 0.0021689422 0.53875124 0.5630517 0.28259155 -0.0006509051 0.3652401 0.30774325 0.16875812 0.572775 0.27294037 0.16519853 0.14918283 0.13326639 0.07895144 -0.035195746 0.08868754 0.39741746 0.36882234 0.4091064 0.37094954 0.5227455 0.50788486 0.41904992 0.40067345 0.4007857 0.3555112 0.49785912 0.63730335 0.067626745 0.57569474 0.670059 0.6995599 0.36448753 0.20684767 0.092001766 0.17572315 0.110450044 0.20030445 0.09449704 0.110434294 -0.00129411 0.61045074 0.6824362 0.692553 0.68999386 0.6520544 0.5535325 0.40623003 0.1658881 0.12640072 0.3713306 0.3573418 0.2596945 0.35002372 0.5703875 0.6041217 0.1298764 0.1188239 0.17534375 0.29448253 0.060538296 0.0906104 0.17080362 0.45773166 0.5370928 0.37077022 0.3436728 0.05773043 0.20490882 0.24653566 0.33548427 0.3786819 0.32605782 0.4110633 0.3285107 0.31394422 0.31249738 0.39691243 0.4326655 0.4364364 0.41607583 0.2779345 0.2566788 0.29898965 0.3127664 0.27279288 0.42417 0.41358763 0.33657852 0.65901583 0.60401845 0.5999441 0.615876 0.49875247 0.55022556 0.5040334 0.4724177 0.35033232 0.1240461 0.23125778 0.4233006 0.38975716 0.27791324 0.41185233 0.42615134 0.429502 0.37931687 0.39671618 0.39901567 0.38585746 0.32484677 0.44630092 0.31571436 0.43660754 0.6666453 0.71592784 0.6904434 0.65193033 0.30135316 0.42486888 0.45273554 0.5341788 0.5811298 0.54284334 0.4824886 0.53694904 0.5853772 0.53180593 0.18170498 0.27426186 0.39153194 0.44854254 0.3737753 0.06308137 0.11590529 0.28018945 0.31420872 0.29164588 0.24506773 0.44685465 0.05851421 0.0415447 0.047753543 0.16915983 0.13985126 0.21800527 0.102863304 -0.02475892 0.09748487 0.10755567 0.08661835 0.10735059 0.08175423 0.080934025 -0.1337124 0.2735754 0.31578124 0.10417595 0.2450549 0.061370004 -0.16342837 -0.18300284 0.41513133 0.4463073 0.579515 0.5330568 -0.19477956 -0.17898257 -0.28165394 0.5157777 0.58466727 0.55285835 0.3906533 0.19437379 -0.12694408 0.56986237 0.5211439 0.37687904 0.33530515 0.20908022 -0.022875078 0.30775654 0.12976752 0.38743618 0.48484904 0.015299328 -0.026719302 0.29028672 0.26337498 0.22003365 0.28329337 0.10633478 0.14214322 0.39377394 0.29639775 0.24122435 0.5046573 0.5383005 0.56729424 0.58469397 0.53515136 0.49590755 0.44523 0.20935643 0.12958263 0.13436474 -0.53076756 0.1272184 0.5331963 0.11864968 0.46534482 0.13550682 0.18371357 0.20799832 -0.006547995 0.055813156 0.15801516 0.316207 0.2474366 0.19932169 0.15679494 0.01842206 0.26924017 0.34102547 0.37752604 0.31864288 0.07497971 0.09371483 0.17549537 0.38398793 0.3732887 0.4015146 0.036805958 0.05255449 0.091113254 0.14230396 0.20463547 0.024586525 0.14523728 0.20154363 0.5799809 0.5434483 0.5932858 0.591583 0.71548796 0.72016835 0.69775426 0.56992686 0.68014634 0.692659 0.6630728 0.36760312 0.48647696 0.6184779 0.5749671 0.42074344 0.48880118 0.3224309 0.25715145 0.07048707 0.26293993 0.2914934 0.3924642 0.33977133 0.09678934 0.034446135 0.3979962 0.41863412 0.4152332 0.40526348 0.38167393 0.32755777 0.32297632 0.2942003 0.3167699 0.30175227 0.33545113 0.6095134 0.63896906 0.6548641 0.2833883 0.25846368 0.24463093 0.3365519 0.40782636 0.4657628 0.50880647 0.43659985 0.3099591 0.48769015 0.5870662 0.22908695 0.20130333 0.25824028 0.14665663 0.35423696 -0.17825913 -0.18848395 0.08685861 0.1785823 0.21161577 0.02643308 0.042447835 -0.20264705 -0.080414206 -0.08286412 -0.045886092 0.103501566 0.47629267 0.4101697 0.24691729 -0.02389239 0.17981137 0.20977539 0.50933146 0.4776641 0.3211379 0.36138308 0.5801981 0.40661693 0.5832504 -0.23636492 0.5612951 0.5657584 0.5503255 0.43639314 -0.2753501 -0.33122367 0.4953504 0.33973473 -0.3498309 0.012498015 0.40263397 0.36298764 0.117259175 0.04862584 -0.025703788 0.46619973 0.43322194 0.35297325 0.016240627 0.024357855 0.32119828 0.37001294 0.2651327 0.21793543 -0.15444656 0.4575951 0.3820293 0.23572117 0.13770542 0.12220284 0.13493888 0.12362954 0.10638206 0.07763556 0.40058494 0.11438615 0.20887406 0.07572781 -0.022665478 -0.021111052 0.11121847 0.24269384 0.30668184 0.36860347 0.4265886 0.4361913 0.28538758 0.10222041 0.03588499 0.285976 0.35072482 0.4020512 0.43333402 0.09080216 0.17125389 0.2082421 0.035749927 0.18593548 0.22006288 0.23717453 0.44153178 0.5075431 0.40857583 0.47188252 0.3075976 0.1076416 0.17484069 0.20970985 0.23613238 0.57367575 0.56268096 0.55724597 0.5507437 0.4400128 0.32149488 0.2114884 0.60174954 0.6156713 0.6178262 0.61478806 0.54117215 0.42614794 0.6488228 0.65177023 0.6316561 0.5357845 0.4809931 0.72437966 0.6566589 0.70657015 0.73303866 0.7156568 0.6345221 0.389559 0.5479063 0.62537056 0.50701773 0.26096332 0.37460077 0.42928138 0.49415576 0.5578609 0.19595586 0.33864602 0.5127077 0.31849772 0.29208937 0.18251456 0.06291043 0.15473518 0.35521418 0.34439397 -0.017242208 -0.040000714 0.15413824 0.24794361 0.3996663 0.38890675 -0.13123408 0.010067504 0.04846301 0.22368231 0.38454318 -0.028395874 0.09553237 0.3505287 0.10777072 0.2395015 0.05801996 0.12954971 0.19332653 0.06181466 0.20252293 0.13753659 -0.016181193 -0.053684413 0.1945817 0.24082984 0.2733447 0.31815386 0.36598814 0.19562751 0.32314283 0.40953648 0.46562713 0.5011351 0.06406552 -0.09021281 -0.27610123 0.18261816 -0.024113813 -0.04746917 0.31072003 -0.25368327 -0.28976238 -0.24897513 -0.10361723 0.008780729 0.10476926 0.14013352 0.44023788 0.12023071 -0.083998375 -0.34253842 -0.4379113 -0.30218425 -0.3358993 -0.41547754 -0.1407718 -0.07972872 0.4833558 0.45570713 -0.4039325 -0.32720184 0.21134102 0.5184648 0.30281278 0.5589478 0.54963756 0.5600677 0.57465726 0.49194777 0.56332403 0.18452373 -0.03093632 0.063324794 0.07647446 0.3808558 -0.42853436 -0.12660906 0.13972825 0.5195869 0.5086118 0.47732943 0.42611846 0.3270148 0.014172291 -0.097593516 -0.53066355 0.19739324 0.27179912 0.51294434 0.48912936 0.45329946 0.08071697 0.15797122 -0.5116029 -0.55803174 0.27633518 0.31400627 0.14872582 0.13315588 0.0877845 0.074907124 0.27048805 0.0034139454 0.31714243 0.39730453 0.057713594 -0.008216277 0.43240285 0.056038715 0.17404915 0.24884844 0.34551084 0.4205505 0.4533038 0.10504404 0.20115815 0.17188099 0.25910842 0.2161904 0.19619232 0.4362548 0.21716441 0.5451987 0.15626484 0.041965395 0.6374364 0.6451533 0.41491514 0.2531655 0.64427984 0.64493 0.66239125 0.62344325 0.54991114 0.4637076 0.63635594 0.599738 0.5531156 0.50663006 0.707847 0.617215 0.6811439 0.70335615 0.69798654 0.4235083 0.5385413 0.60886604 0.66270405 0.19728594 0.2632612 0.32067344 0.61936545 0.6240647 0.19982488 0.5369126 0.3094703 0.26308 0.38992196 0.41004688 0.37339327 0.34274656 0.33049846 0.42162827 0.20859963 0.23304872 0.4106381 0.16085279 0.16778654 0.22241831 0.15249228 0.14625981 0.11414039 0.130563 0.122388534 0.026010945 0.048367366 0.106659435 0.28554812 -0.02797532 0.11516393 0.12581924 0.07494541 0.0410911 0.31741917 0.05290067 0.10061904 0.14529395 -0.2269359 -0.24812992 -0.0069244877 0.066177934 0.28326142 0.26545563 -0.37360036 -0.37013817 -0.30392808 -0.04154753 0.023036255 0.21470024 0.47258562 0.41581255 0.13524994 -0.017074153 -0.29920077 -0.39214608 -0.40898895 -0.29142362 -0.11103533 0.064026095 0.063596964 0.4937728 0.051938497 0.4677016 0.12616277 0.510454 0.31065965 0.5398302 0.40778765 0.2337881 0.019003976 0.2882775 0.55133367 -0.018808978 -0.48436308 0.5420151 0.49250627 0.4413321 0.10491784 0.1578701 0.117173 0.036093757 -0.17042792 0.20073767 0.24713945 0.17694004 0.17623477 0.1227191 0.046581626 -0.0072360784 0.21214676 -0.102381036 -0.04773178 0.3467409 0.030284498 0.36164737 0.041921336 -0.19867693 0.19633296 0.39130962 0.42643487 0.072561845 0.06722392 0.30971166 0.18847895 0.1351906 0.27576786 0.18223187 0.19360287 0.49900386 -0.043910325 0.047528856 0.5613558 0.12310866 -0.0619911 0.053151254 0.2589073 0.56991017 0.5871868 0.44236237 0.5098123 0.5910213 0.54015523 0.5403181 0.51246536 0.4719715 0.58859605 0.562856 0.61145604 0.55354553 0.5396024 0.6630558 0.40549222 0.48182148 0.34662896 0.67170584 0.71038777 0.6886388 0.19291605 0.23710188 0.60985386 0.5612167 0.23067996 0.18869796 0.5074031 0.550846 0.31664607 0.25662732 0.28419775 0.8362799 0.8551341 0.35885236 0.34555233 0.2582302 0.8524776 0.8684571 0.8701081 0.41105497 0.13478562 0.8772156 0.3958254 0.14674702 0.44206324 0.5596957 0.6224526 0.2789385 0.1282758 0.09741326 0.3303175 0.5028449 0.62697953 0.6226238 0.11716694 0.11210692 0.101221785 0.1537591 0.21759066 0.5010661 0.58696914 0.5461681 -0.054804035 0.08910444 0.08067594 0.08799451 0.1671717 0.21557322 -0.13768958 0.04836969 0.058327504 -0.10412145 -0.20664743 -0.17113033 -0.31375283 -0.43036562 0.04618922 0.014266066 0.024699207 -0.35478222 -0.27772766 -0.3687008 -0.09019285 -0.26749885 -0.22925565 -0.036595635 0.4289922 0.34481528 0.035555698 -0.23702398 -0.24721664 -0.06414771 0.4687953 0.03188312 0.42421073 0.3052981 0.35481316 0.40286487 0.27719393 0.33147407 0.35559022 -0.2667977 0.2847786 0.28161973 0.1314912 -0.19422409 0.2256371 0.24668989 0.4972699 -0.14449623 -0.16239636 0.17029688 0.5294325 0.4894979 0.4202359 0.24026524 -0.006963242 0.09274489 0.17159237 0.16926208 0.10763918 0.043898985 -0.1789728 -0.24582978 0.5692782 0.18028437 0.17627843 0.5055244 0.6307464 0.6734171 -0.15869471 -0.084793404 -0.06984754 0.13202715 0.09212263 0.24393082 0.13257249 0.08907683 -0.14528587 0.19187368 0.1819069 0.29078445 0.28450313 0.12544638 0.06976551 -0.12945805 0.19095005 0.23211588 0.23539943 0.15031171 0.08568281 0.1891488 0.17065528 0.29618195 0.32506365 0.46778858 0.48907316 0.5074361 0.5013502 0.4919554 0.4644509 0.057818044 0.3478445 0.58048344 0.5629965 0.47906664 0.4000293 0.35880268 0.5523126 0.6207512 0.63783747 0.60006714 0.5459656 0.64173454 0.6624473 0.44642514 0.45257628 0.3340737 0.31718004 0.26796687 0.20613421 0.5025221 0.58941627 0.66593087 0.64201844 0.08677294 0.60477483 0.19179453 0.5121645 0.7478993 0.780789 0.79844993 0.29648253 0.23623523 0.7606414 0.8152436 0.835519 0.8128776 0.34596896 0.29112175 0.04829397 0.81221104 0.83468866 0.8404627 0.3600261 0.053223077 -0.07481244 0.3015619 0.42146236 0.5047955 0.85771346 0.89263606 0.84515357 -0.054355487 -0.07186058 0.12122345 0.2956605 0.5446699 0.6035577 0.6298535 0.79362017 0.22350839 0.0063103437 0.13489302 0.5625322 0.457623 0.16138558 0.095062524 0.09492037 0.33305186 0.29600772 0.03598129 0.053524368 0.057317846 0.050049383 0.024947096 -0.05027596 -0.35826844 0.0005037971 -0.10767386 -0.19904286 -0.32439253 -0.13248344 -0.074166045 -0.22671072 -0.44774365 -0.32216817 0.29373494 -0.20441526 -0.27732393 -0.3546027 -0.29460657 -0.20069724 -0.18355927 0.25146043 0.416668 0.18286112 0.06901112 -0.11328897 0.24208526 0.13233101 0.32474715 0.33040237 0.19597566 0.30929828 0.31426722 0.39282793 0.31779155 0.29873937 0.4010495 0.39958853 0.21539703 0.37922436 0.06609254 0.04637872 0.32909182 0.16781837 0.19457182 0.29007483 0.3084518 0.47022772 0.34654343 0.2605312 0.17630515 0.21321507 0.5167827 0.45229518 0.3488707 0.28483313 0.16838506 0.33860812 0.27284265 -0.14245659 -0.16327965 -0.43046653 0.46949705 0.6209403 0.5781661 0.49084747 0.42313376 0.31427005 0.41393965 0.2207056 -0.0956938 0.019866921 0.1460742 0.13712324 0.06313922 -0.4728549 -0.53717357 0.68366444 0.6177242 0.5225255 0.51315314 -0.11325857 0.6424233 0.69099927 0.5897925 -0.100102425 0.6044749 0.66860086 0.030403465 0.31916875 0.41734686 0.12813587 0.16000195 0.16016029 0.12072883 0.11516261 0.20134744 0.16181985 -0.14877585 -0.15472513 0.13218115 0.15723103 0.18734333 0.12670766 0.23717338 0.2543028 0.22154666 0.1668179 0.09271802 0.41975695 0.2973651 0.3465892 0.4737332 0.48206288 0.27481976 0.16202223 -0.025459878 0.046706766 0.23958072 0.55474603 0.4824077 0.32280788 0.5075245 0.6265854 0.66294324 0.63155115 0.7968397 0.8032929 0.78535956 0.7883013 0.7694431 0.26054814 0.4293959 0.5384848 0.13327134 0.17009932 0.1107303 0.002086727 0.13459346 0.50247955 0.7371136 0.70061946 0.11633822 -0.031001631 0.28907198 0.23168847 0.712232 0.74916536 0.7338624 0.641809 0.28861463 0.02230601 0.21022852 0.2535671 0.38417524 0.46901983 0.50260043 0.486291 0.6798137 0.6936736 0.6100093 0.050280258 0.16759735 0.31694284 0.442307 0.5213693 0.47743547 0.7317549 0.7370503 0.61430985 0.15286992 0.075456426 0.17793441 0.2817122 0.30754405 0.3984448 0.4723423 0.72460663 0.7801783 0.6082859 0.17569204 -0.055419236 -0.003617689 0.061854213 0.56850487 0.73405045 0.77643055 0.81714475 0.14823802 -0.058457755 -0.12717855 0.009620879 0.5155292 0.44193792 0.10609327 0.04617752 -0.12839617 -0.1336146 0.10309387 0.017564043 -0.33852857 -0.2532633 0.0104507245 -0.03450747 -0.3966183 -0.38284343 -0.27667782 -0.2309243 0.28445688 0.3965541 0.49771667 0.556326 -0.38333008 -0.14876729 0.11838226 0.31835604 0.49825805 0.585691 0.6097477 0.1968155 -0.298724 -0.2815785 -0.16304618 0.13931018 0.34371206 0.54136103 0.5833963 0.22102463 0.09055701 0.38221034 0.5359715 0.33224142 0.3856079 0.3924233 0.14836976 0.39465237 0.18781114 0.38157985 0.3857194 0.32918265 0.38607314 0.24600646 0.268766 0.49681032 0.4676062 0.13387448 0.5581289 0.03984034 -0.16860856 -0.00013069436 0.074690655 -0.22135192 -0.19912899 -0.25947315 -0.40882707 -0.4128955 0.41627496 0.577724 0.61499965 0.6045742 0.36511195 -0.05644343 0.09600441 0.030065417 -0.42527777 -0.46533984 0.6648674 0.7414721 0.719804 0.68446267 0.5484625 0.52726 -0.16279885 -0.2211861 0.72085464 0.7703022 0.7269409 0.6823133 0.6352523 0.62385714 0.68292415 0.8026974 0.8046193 0.74844253 0.48343498 0.5686246 0.10646806 -0.013606578 0.22771212 0.31436646 0.38978562 0.21845931 0.17943078 0.13154362 0.25134355 0.23063552 0.1061991 0.15623468 0.19887733 0.18070088 0.29632178 0.25963566 0.32694116 0.31004113 -0.039793447 0.27016526 0.03279399 0.20732409 0.16328314 0.09372838 -0.05438584 0.32672122 0.39182225 0.14299418 -0.114691 -0.011408072 0.5180857 0.4438879 0.1556746 0.3954086 0.57586646 0.57632655 0.6179906 0.8687159 0.8294188 0.7514067 0.84509146 0.87877727 0.8371626 0.7291255 0.66627765 0.79833055 0.81746185 0.8159225 0.77509 0.6978301 0.7036605 0.7631839 0.7823795 0.7893915 0.75615656 0.75493693 0.76230407 0.7649205 0.028798554 0.051995076 0.06105957 0.18847226 0.19776991 0.16659792 0.6874523 0.69559705 0.6472283 0.5553153 0.6736767 -0.04555931 -0.05787362 -0.045327302 0.02666527 0.17576782 0.09149319 0.17513886 0.21820697 0.16615357 0.2729246 0.37695807 0.60051894 0.5885855 0.49888426 