# vtk DataFile Version 2.0
Really cool data
ASCII
DATASET POLYDATA
POINTS 2702 float
-0.87997735 15.272505 11.837185
-0.84456587 15.056114 12.544667
-0.8010652 15.969194 11.241564
-1.0907187 15.70439 11.81728
-1.2548531 15.65818 12.526406
-0.9952369 15.73545 13.153349
-0.75589114 16.413122 11.180406
-1.1075585 16.335487 11.751472
-1.3250455 16.399584 12.509022
-1.064673 16.354702 13.146845
-0.90605354 17.087734 11.808235
-1.0501986 17.005768 12.391158
-0.84518886 16.942827 13.095777
-0.57522696 18.699774 4.070608
-0.7018802 18.757729 4.644338
-0.6624289 18.784107 5.190773
-0.63637507 19.539991 4.003717
-0.77952486 19.519312 4.6517854
-0.70627797 19.544527 5.2697587
-0.6756569 19.985432 4.504781
-0.6365406 20.124748 4.97431
0.1134118 14.242537 12.413843
0.1679945 14.265212 12.968214
-0.0467885 15.104192 11.165334
-0.28229982 14.807463 11.727237
-0.24926749 14.539771 12.412773
-0.16165113 14.671706 13.131382
0.19907796 14.856797 13.605678
-0.37021524 15.543755 11.075141
-0.4827096 15.344249 11.346224
-0.43362284 15.532331 13.527761
-0.102859944 15.688924 13.7126465
-0.18706915 16.264767 10.798371
-0.59858245 16.5861 13.468385
-0.30895507 16.347288 13.675861
0.045850664 18.06604 3.7835922
-0.19129768 17.90805 4.538713
-0.16626602 17.917694 5.2315083
-0.17302442 17.274181 10.870497
-0.29225942 17.528055 11.314272
-0.5661626 17.575155 12.489166
-0.34804904 17.424236 13.167975
0.1453812 18.594477 2.9684384
-0.23801336 18.69112 3.5832684
-0.4744206 18.312347 4.5194244
-0.5003177 18.66218 5.578135
-0.4166665 18.823921 5.7433457
-0.014395148 18.009039 11.297779
0.3653143 18.571014 13.399321
0.060860246 19.429419 2.7405844
-0.40173152 19.524456 3.5865433
-0.2969649 19.622131 5.876087
0.42728743 19.18761 12.003424
0.24145079 18.859879 12.268216
0.24041012 20.398495 3.0020478
-0.31982046 20.346212 3.943002
-0.43499333 20.434656 4.7453237
-0.42165148 20.294626 5.3069563
0.0010532141 20.154858 6.073644
0.3937179 20.533897 8.221152
0.4627782 20.639454 9.022541
0.084789276 20.71447 4.026968
-0.011531204 20.808775 4.526043
0.6142595 14.194511 11.911486
0.5575308 14.03175 12.4532795
0.6366473 14.116008 13.10061
0.6300293 14.875013 11.034573
0.32258275 14.550958 11.486878
0.4584008 14.525889 13.505309
0.58299226 14.860876 13.727415
0.73996115 15.960716 10.227353
0.44182298 15.357527 10.708875
0.40165126 15.519609 13.857354
0.6554896 17.430159 4.960205
0.5376911 16.781746 10.114971
0.69072944 16.362444 13.9428425
0.90280366 18.093277 2.6594963
0.62684685 17.688448 3.713738
0.38164103 17.529638 4.4577436
0.7316573 17.526627 5.1530194
0.3793257 17.892105 5.766631
0.55842376 17.598427 10.152351
0.77354056 17.298187 13.896979
0.8933139 18.72366 2.1601872
0.5708047 18.48683 2.6315734
0.9802023 18.891924 7.247537
0.71775746 18.692575 10.96639
1.037551 18.614452 13.977983
0.681657 19.302813 2.1172538
0.97005594 19.338226 10.541109
0.7916275 19.06029 13.52272
1.2315605 19.40121 13.695536
0.94086206 20.067999 2.1393344
0.51433253 20.30496 2.6056857
0.65065396 20.555868 6.457396
0.48849234 20.841267 7.984294
0.50858694 20.71138 9.112579
0.9860292 20.247402 11.593359
0.728359 20.18809 12.705176
0.9640113 20.503736 13.142081
1.3454623 20.547361 13.699475
1.1474148 21.174158 2.7622516
0.64197487 21.001234 3.7137935
0.46306497 21.103302 4.479986
1.1493375 21.101545 6.616241
0.75698924 21.2907 7.7130775
0.6216404 21.389452 8.568748
0.6974734 21.288525 9.276622
1.0862368 21.017233 13.13992
1.1618989 21.663824 3.7299442
1.0081525 21.873493 8.007984
0.868365 21.830883 8.549377
1.1110477 25.951822 3.6834219
1.1323954 26.080862 4.4050703
1.2530475 26.49902 2.9709284
1.0456645 26.394901 3.6151662
1.0424352 26.424717 4.2981076
1.2640115 26.719675 4.81156
1.2038777 27.34779 3.573954
1.2138611 27.311298 4.3504224
1.3184263 27.245712 4.893273
1.3480148 14.179636 11.858842
1.4212257 14.017932 12.526305
1.2983402 14.1174965 13.151273
1.6268461 14.891058 10.982347
1.4340655 14.481596 11.377992
1.3883284 14.362811 13.437287
1.1775287 14.696422 13.7036705
1.6281052 15.804644 10.159198
1.5768466 15.436653 10.456935
1.4583044 15.461639 13.7879095
1.5841774 17.43134 3.7533295
1.3746278 16.666452 9.812209
1.9827259 16.985636 14.26323
1.5474383 18.272299 2.1732535
1.5655234 17.808237 2.7813969
1.1728436 17.589474 5.3557167
1.5648735 18.09922 6.2613015
1.5795146 17.56078 14.146463
1.6973454 18.58603 2.038957
1.5974516 18.609102 8.892739
1.3802732 18.633072 14.127434
1.4698998 19.471449 1.7678024
1.7480464 19.403223 14.073322
1.9063854 20.293264 1.78315
1.7540042 20.402958 14.050019
2.1173024 20.90937 1.9631264
1.4412681 21.546528 9.944968
1.6705647 21.410406 11.621919
1.4950011 21.49622 13.41291
1.8712431 21.315487 14.149013
2.0668502 22.245686 3.3214307
1.9501123 21.74246 6.2323895
1.4058933 22.219631 8.425879
1.6784232 21.98172 9.635877
1.7258512 22.294312 12.515914
1.7198193 22.202951 13.202383
2.17183 22.38338 13.934898
2.4274018 23.037342 4.165551
2.3624353 23.529741 5.099316
1.9550759 23.790682 12.822413
2.1505458 23.44096 13.436489
1.9799073 24.720633 3.5418363
1.9701288 24.541113 4.0724096
2.2281337 25.079277 5.707972
2.003096 24.448257 13.198553
2.2068548 24.882805 13.899059
1.9777676 25.962988 1.9198738
1.6771896 25.258417 3.0339892
1.8034097 25.673979 5.345018
2.1352255 25.665127 12.0041685
2.0473616 25.89022 12.909965
2.0815215 25.486012 13.221504
2.164646 26.725615 0.83980817
1.8212162 26.332167 1.7178979
1.7273089 26.195091 2.3627813
1.534612 26.528204 5.3652153
1.851852 26.781641 5.743634
2.1754682 26.68915 12.002836
2.0896323 26.412914 12.684511
2.1453655 26.341846 13.416222
2.2863631 26.37433 13.887364
2.108228 27.485086 0.75267744
1.7649256 27.339293 1.4654927
1.5027771 27.489244 3.1507728
1.4545239 27.574574 4.715761
1.7823222 27.360256 5.50176
2.0354862 27.134632 5.79869
2.4154716 26.971432 11.530435
2.3404644 27.108294 12.237607
2.3488784 27.199875 13.179874
1.9154959 28.282888 1.2537341
1.6197325 27.9384 3.0444298
1.4771088 27.849012 3.775567
1.6946626 28.02582 4.461803
1.906644 27.810858 5.171929
2.3140967 29.36462 1.0314363
2.1689963 29.504416 1.6898724
2.2066581 29.260271 3.1898255
2.255279 30.28325 1.7797225
2.2868207 30.536772 2.3399663
2.2279732 30.09158 2.9090483
1.8547451 14.158491 12.419987
2.1232965 15.069553 10.937639
2.275047 14.801182 11.500396
1.9276452 14.446728 13.120007
2.3305542 15.881908 10.222326
2.631397 15.606245 10.418283
2.26977 17.422976 3.5478246
1.9518275 16.327875 9.984198
2.5989864 16.900398 14.219538
2.3330398 17.888659 2.5222027
2.55885 17.537165 3.401341
2.123679 17.653332 4.738919
2.4172792 18.04481 5.4908338
2.7401521 17.513035 9.544275
2.6204724 17.560066 14.511257
2.5667317 18.802013 1.7684159
2.6488328 18.479195 6.4496813
2.371914 18.480036 14.405383
3.0528467 20.171003 1.239399
2.7229328 20.567846 1.4883027
3.194168 20.97531 15.65331
2.9880638 21.569397 15.531676
3.175675 21.546444 16.00092
2.9519448 22.343885 15.387299
3.1490805 22.22811 15.907594
2.5492146 23.892176 2.2510674
2.518455 23.11094 4.763824
2.8608463 23.727495 6.468965
2.8670144 23.104912 7.4735117
2.6390698 22.811361 9.1040325
2.6457956 23.521725 11.035518
3.3657734 23.188913 15.480235
2.9777112 24.92105 0.9120851
2.5121436 25.036825 1.5123758
2.4718232 24.461292 2.6303563
3.0870476 25.094555 10.567331
2.66736 25.479177 0.98683864
2.4696522 25.994818 10.964929
2.6004734 25.180113 14.26474
2.9061434 26.871145 0.21751249
2.514939 26.227514 0.9357024
2.3694875 26.638233 6.0466814
3.0136406 26.706606 10.103583
2.5328 26.138876 10.711658
3.4116056 26.494053 17.273638
2.5816245 27.442835 0.2207814
2.435245 27.160374 5.938524
3.1024184 27.144054 10.151759
2.8738754 27.27694 10.583644
2.586584 27.2877 11.155096
2.5581512 27.546738 12.445824
2.493401 27.23732 13.511984
2.7720165 27.2604 14.029233
3.367963 27.578407 16.927578
3.388168 27.445843 17.456263
2.7811768 28.380348 0.13843071
2.9693017 28.243515 5.15145
2.6174872 27.753529 5.6861973
3.0205162 27.78591 11.039072
2.9136066 27.808182 11.463323
2.8982317 27.926956 12.702924
2.9687686 27.852898 13.317566
3.4668756 27.894514 17.37086
3.3252964 29.762985 0.0573231
2.7290215 29.451443 0.5805702
3.241377 29.307503 4.075115
2.796385 30.306587 0.8133229
2.6564271 30.407677 3.275758
3.1186736 30.470676 3.9402778
3.0126173 31.157536 1.0103741
2.6779315 31.16967 1.7361019
2.6033683 31.103376 2.4945357
2.8578 31.139915 3.1922393
2.8098106 15.030804 11.580529
2.9644718 15.119014 12.1986065
2.836548 15.399547 10.829053
3.6212552 15.716174 11.767539
3.6233582 16.078533 13.077724
3.2364938 17.878653 2.716621
2.97381 17.55815 3.4788575
2.9036298 18.383709 5.215734
2.933114 18.404469 6.289343
3.9824471 17.743067 9.647044
4.000886 17.28502 14.426806
3.5114434 17.857395 14.604136
3.460982 19.105492 1.3169041
3.5329978 18.645855 1.5823488
3.1936617 18.530571 5.8727603
3.4704773 19.727854 1.1945789
3.9276264 19.589016 15.529723
3.8890934 20.518768 16.56661
4.128034 20.71972 16.960527
3.6964014 21.43077 1.1419654
3.9635847 21.5687 16.886976
3.433519 22.963171 0.9683224
3.5023644 22.357439 16.3979
3.834178 23.632261 0.18168713
4.2670746 23.983734 17.550053
4.129387 24.243826 0.09964639
3.5856445 24.83733 0.5009761
3.4343162 24.55056 6.636382
4.045204 24.735365 17.95148
3.3168037 25.51587 0.53468865
3.4761605 25.629927 6.2932696
3.8999512 24.959526 9.235639
3.608531 25.605015 9.669924
3.6502545 25.72727 16.107542
3.6611478 25.456884 17.649893
3.80614 25.73361 18.015736
3.5329862 26.797731 0.06696662
3.4481652 26.488218 6.168684
4.1692247 26.118105 9.205451
3.4161496 26.756334 9.7855625
3.5247743 26.553768 17.56079
3.7588732 26.57344 18.252289
4.122819 27.004139 18.824118
3.2143505 27.484732 -0.05474046
3.6149602 27.641607 14.6135645
3.715668 27.4597 18.401915
4.2125087 27.610216 18.98668
3.4923313 28.701975 -0.23399308
4.1441264 27.869291 5.864887
3.9147048 27.868937 10.195642
3.508207 27.922434 10.651803
3.4976394 28.301903 11.57619
3.7049048 28.296762 12.108604
3.7156682 28.15231 13.242274
3.8725457 28.396723 16.040237
3.67531 28.209105 16.713017
3.7865279 28.59217 17.24459
3.997683 28.275013 18.419132
[...]
POINT_DATA 2702
SCALARS features_00 float 1
LOOKUP_TABLE default
0.8553953 0.9810807 0.7608651 0.8721031 1.0 0.96451885 0.74243367 0.8514117 0.95723265 0.9019903 0.76067793 0.8317986 0.79224956 0.74639237 0.7408511 0.7350141 0.6957457 0.6889005 0.6655687 0.6485789 0.6149502 0.9283139 0.92651963 0.7303308 0.82953626 0.9308435 0.92040515 0.84257597 0.7221937 0.76800495 0.8487474 0.754431 0.67879474 0.7498394 0.703938 0.7508172 0.78680336 0.78985584 0.6172066 0.5904759 0.6574712 0.63043267 0.711622 0.7403594 0.7704411 0.7413697 0.7210099 0.4651068 0.3784542 0.7018825 0.6997571 0.6056142 0.3028552 0.37222713 0.58446985 0.60060143 0.5752062 0.55988294 0.48333326 0.2699046 0.30234236 0.5347447 0.5054319 0.863191 0.92398894 0.9125557 0.6850347 0.7894479 0.87057847 0.8069781 0.5982067 0.647998 0.69805944 0.7190551 0.618097 0.53976595 0.6520628 0.71564883 0.75716126 0.69926596 0.73682165 0.5222994 0.40589413 0.63491744 0.6759237 0.5651263 0.28893512 0.3011605 0.6469674 0.14881851 0.31508368 0.27829182 0.6048129 0.60362816 0.26797584 0.26768652 0.30658787 0.18489589 0.2919542 0.27352527 0.22852588 0.45029482 0.46081007 0.41716832 0.1845063 0.25587967 0.3117832 0.33140594 0.24489975 0.3010868 0.27344942 0.3124946 0.49766272 0.53311723 0.46779832 0.5089632 0.53090626 0.5243568 0.5010309 0.5149158 0.51413333 0.79051065 0.8866854 0.9018984 0.5813068 0.6753265 0.8671806 0.8069822 0.50268745 0.5322487 0.63166285 0.62191355 0.49967736 0.29042584 0.58867854 0.60300076 0.5847035 0.41657454 0.28946474 0.56715155 0.11746321 0.28052402 0.557478 0.24161193 0.48412818 0.1813714 0.4109351 0.27102584 0.12560046 0.19562258 0.13072729 0.05370401 0.091909006 0.28030944 0.2905863 0.13334502 0.1383561 0.06430807 0.0278223 0.163291 0.15371352 0.07038412 0.32762533 0.33164096 0.36002618 0.22419201 0.23791109 0.29335764 0.3644055 0.48567307 0.40000236 0.37488 0.3298055 0.30593562 0.30617884 0.36154467 0.50620186 0.4707963 0.44823807 0.4153713 0.38406074 0.36239275 0.36465222 0.36683857 0.4701633 0.50055015 0.4782378 0.44557995 0.4591493 0.442031 0.4173873 0.40284082 0.42330858 0.4668951 0.45609504 0.46287584 0.38489056 0.40097266 0.28658843 0.3975633 0.35626793 0.3008836 0.80615205 0.5112467 0.54694605 0.8263413 0.40492558 0.39079773 0.52175295 0.42969382 0.22458759 0.52645993 0.47635686 0.4686914 0.29869533 0.13693056 0.18149956 0.48337206 0.16203383 0.23581685 0.31617856 0.3198095 0.2556424 0.19396567 0.24246839 0.14770997 0.20976907 0.20504093 0.09093726 0.01898864 -0.07137125 0.12209385 0.10513064 0.13675521 0.16929084 0.23080526 0.26285517 0.3400766 0.22066581 0.45447254 0.23014519 0.3134699 0.26527685 0.39095014 0.41698265 0.45393342 0.43584743 0.35942897 0.3808949 0.41042483 0.43858916 0.45397902 0.430866 0.4061765 0.37617567 0.4409224 0.48933595 0.38028994 0.30001658 0.3714637 0.42146495 0.42492712 0.41398072 0.40063924 0.47436088 0.29800332 0.35637313 0.0953365 0.35065007 0.22874947 0.11086607 0.34734666 0.3742608 0.31695795 0.22772497 0.46984154 0.4747831 0.40056002 0.37546322 0.37460726 0.41389105 0.405774 0.20028493 0.11175347 0.026162181 0.041380987 0.025056142 0.3738908 0.40824655 0.091307685 0.32098937 0.18745568 0.31168053 0.30632964 0.09412044 0.29293883 0.08230406 0.23521516 0.044116676 0.14756045 0.07751077 0.108448595 0.0398013 0.28073716 0.16836438 0.1283563 0.21699384 0.3343465 0.26724228 0.3547226 0.38890415 0.28635892 0.15248899 0.26825672 0.3706004 0.45464855 0.4603843 0.4794773 0.35906824 0.26494688 0.5055196 0.49588746 0.3240002 -0.048782296 0.31341678 0.37296838 0.3650837 0.34796107 0.35226926 0.3034284 0.40081555 0.43777692 0.4906441 0.49218518 0.28253037 -0.08574093 0.29135385 0.4129972 0.42822933 0.45735306 0.2637816 0.010288728 0.17797707 0.2205882 0.13798477 0.26806384 0.31786492 0.17955206 0.04816842 0.31298015 0.34181127 0.34399092 0.30206686 0.21816114 0.2124553 0.2845473 0.33428615 0.3380909 0.33000845 0.37446344 0.37388015 0.35113156 0.28264937 0.3722245 0.3780884 0.36057863 0.3231932 0.35944825 0.37011743 0.15526935 0.2851744 -0.006861381 0.11383889 0.0730688 0.005967669 0.31838012 0.2790914 -0.0821399 0.33574352 0.34884703 0.1303278 0.030930296 0.14524677 0.2607473 0.30519652 0.20319383 0.3107547 0.32976747 0.06596373 0.3036637 0.23712543 0.13120994 0.213229 0.15877882 0.20242806 0.16362807 0.25713044 -0.04759292 -0.15680355 -0.2839827 0.39368492 0.19144076 -0.29308686 0.21051937 0.45505133 -0.22814232 0.05485361 0.4679491 0.25450462 -0.037421774 -0.112963974 -0.09662567 -0.021134127 0.039500035 0.11488892 0.35267386 0.40941933 0.424451 0.42248398 0.24584833 0.114327416 0.11220069 0.12851587 0.3717506 0.41024792 0.1968323 0.31066525 0.25089055 0.19375598 0.20950648 0.17929399 0.34293124 0.17602967 0.32000706 0.30819857 0.21978784 0.21864021 0.17096819 0.26666725 0.3133392 0.22156987 0.33828086 0.32455346 0.34874696 0.3246007 0.30044055 0.7317827 0.68710715 0.6132349 0.71307313 0.64546764 0.56072485 0.4369375 0.50619256 0.49379274 0.54200673 0.4899478 0.5508596 0.56355524 0.585288 0.60707754 0.58296055 0.59823275 0.64752233 0.64093447 0.5808078 0.59728074 0.3767862 0.28621644 -0.009587422 0.18988498 0.15874301 0.25802678 0.28232747 0.20855317 0.05322985 0.17881219 -0.15676463 0.33430773 0.33090216 0.28555045 0.20966434 0.2992734 0.12420598 0.30674723 0.3859617 0.2751609 0.03965699 0.17870364 0.19147372 0.30589473 0.05244723 0.32428208 0.22255224 -0.21337165 0.19708218 -0.08223713 0.43670803 0.43986773 0.25367945 0.12399369 0.14364141 0.24875322 0.36383075 0.40289453 0.43180305 0.4430242 0.21437193 0.18577531 0.18340872 0.22013296 0.20456858 0.11616005 0.21448947 0.18572775 0.28758824 0.21979465 0.17059617 0.18853061 0.24734068 0.22565135 0.1914404 0.28498784 0.29558486 0.21034527 0.23729138 0.2973478 0.31744486 0.09160479 0.75653344 0.73915815 0.69431686 0.6693674 0.772709 0.7625483 0.7498161 0.42454398 0.74585474 0.7103421 0.30071384 0.34384844 0.67025 0.59308994 0.2623801 0.31353235 0.38821223 0.31241602 0.41226482 0.41489336 0.5530279 0.50611436 0.6045483 0.52732086 0.5481603 0.6534008 0.547049 0.57886326 0.6241049 0.68226874 0.6585262 0.59800184 0.6667815 0.6979307 0.41513944 0.42793807 0.45210886 0.40031505 0.0071865767 0.15994917 0.37001616 0.31795707 -0.072747216 0.26813576 0.16351789 0.22235706 0.2005862 -0.11671828 0.22088286 0.31867352 0.012063101 0.33625078 0.35219756 0.1484226 0.08000291 0.34429777 0.34716994 0.36960667 0.23477927 0.28580135 0.641214 0.5419555 0.21676052 0.63874876 0.4772716 0.050029993 0.49365193 -0.041485608 0.3381917 0.015022018 0.21324891 0.1503757 -0.03730356 0.3539365 0.32183918 0.13335572 0.41023678 0.43389237 0.4029162 0.3397851 0.38612533 0.42379445 0.42937052 0.32600045 0.23378934 0.23431574 0.28424376 0.2832802 0.2875877 0.33343634 0.21576235 0.13630316 0.22520667 0.041044284 0.21586356 0.14219268 0.23969403 0.06860122 0.2847833 0.00934203 0.16830847 0.31474608 0.2773924 -0.011398442 0.07399065 0.18811503 0.56153315 0.3955266 0.1553986 0.24775529 0.2617826 0.75706327 0.7069049 0.66120803 0.51962006 0.43256745 0.40395263 0.26637125 0.24216685 0.35823667 0.36654347 0.31230795 0.7668576 0.2974126 0.56018645 0.47202116 0.7752954 0.6873202 0.68366563 0.64654994 0.7348126 0.38380286 0.7397698 0.59620315 0.45046538 0.5152766 0.4366312 0.55881625 0.5053706 0.5672328 0.5300646 0.58001673 0.55855787 0.6951726 0.6697867 0.5993026 0.41700312 0.44207624 0.25179026 0.3849259 0.4273569 0.4648712 0.49610507 0.1614872 0.21520582 0.16497032 0.43845642 0.024060328 -0.026800893 -0.11922786 0.114449546 0.09938002 0.04466269 -0.101196095 0.10456516 0.28713992 0.056523144 0.3432862 0.37059134 0.37780684 0.08381888 0.37751302 0.37082767 0.7245929 0.66293085 0.32901245 0.73671436 0.22381201 0.6965778 0.10444691 0.6514447 0.20485707 0.5800758 0.5389389 0.36845678 0.25302136 0.17902073 0.40883714 0.42878664 0.40807635 0.4484049 0.39703926 0.4213785 0.28664693 0.40757796 0.3854126 0.5810651 0.52933526 0.2577204 0.38500434 0.40188664 0.54282564 0.296483 0.30270362 0.27870116 0.23231652 0.30088702 0.50631595 0.23392847 0.27867344 0.30021942 0.43939874 0.20505849 0.3223463 0.4035667 0.32203978 0.4152108 0.43234456 0.2471978 -0.081535935 0.18503307 0.2962988 0.037061557 0.23851314 0.003210403 0.08010773 0.6959661 0.50498366 0.37307328 0.29586345 0.28311235 0.24007393 0.2681497 0.15967138 0.075221084 0.16133563 0.13465601 0.74838066 0.7152113 0.27871698 0.24927822 0.30150467 0.25275025 0.7668618 0.2682966 0.3565557 0.75395226 0.70650303 0.56037885 0.5146514 0.60024035 0.7462784 0.7641617 0.73938566 0.679066 0.76615095 0.4769917 0.3987995 0.4584092 0.47464424 0.528636 0.49567878 0.46508926 0.6384088 0.56488883 0.3841471 0.30741805 0.35184675 0.45926458 0.40606293 0.402885 0.34318632 0.29805255 0.30245543 0.33180398 0.28215808 0.38434625 0.4126472 0.43609127 0.43702015 0.41124833 0.31041473 0.2821058 0.27719492 0.2669621 0.21951078 0.35908502 0.38651907 0.48716816 0.5468968 0.22378564 0.17190756 0.11799536 0.550802 0.035149805 0.49019682 0.10174917 0.11742708 0.089225344 0.32416895 0.3791505 0.39442486 0.61560774 0.5590074 0.39951727 0.038837165 0.3979598 0.7577543 0.70093083 0.5860884 0.38059908 0.7935865 0.7482184 0.7448422 0.21712247 0.6958066 0.32034072 0.35220733 0.61326635 0.46206647 0.41852635 0.30208173 0.45131055 0.461603 0.20222422 0.08746028 0.40511432 0.4357519 0.27424234 0.37601554 0.67248815 0.64620566 0.111863956 0.28761053 0.366384 0.37101102 0.67017126 0.6313878 0.22181883 0.21872601 0.25885004 0.6011641 0.16654627 0.34497744 0.36231256 0.4557503 0.0963088 0.42758548 0.46320456 0.4619777 0.34767166 0.4636201 0.33437082 0.057342574 0.3060714 0.07631123 0.39424977 0.2601292 0.22880857 0.33203042 0.122929476 0.7326156 0.18178423 0.7460017 0.6161016 0.5841987 0.29331768 0.47618014 0.7527586 0.7739643 0.6487763 0.5775404 0.4346415 0.77259094 0.73467624 0.69746184 0.43516272 0.406277 0.5797565 0.50140536 0.58364177 0.61248696 0.47825107 0.43230173 0.34603894 0.35330102 0.4925667 0.5719482 0.46158284 0.43077058 0.44645047 0.33178908 0.42653853 0.47947928 0.5543409 0.5628438 0.38264668 0.27341732 0.17716575 0.5207159 0.39281356 0.07897886 0.058465917 0.2227917 0.31465608 0.36400336 0.79213226 0.69989157 0.5850191 0.43148652 -0.036369905 0.3995434 0.8262516 0.77876675 0.22250289 0.7099045 0.22797263 0.3403107 0.631247 0.39597565 0.21593907 0.43764642 0.027919292 0.46442527 -0.08470096 -0.08850728 0.38988787 0.41264576 0.64406145 0.5471487 0.36815846 0.6946663 0.6809076 0.023992311 0.10625297 0.20357917 0.3341426 0.69396657 0.11391943 0.17602937 0.6751957 0.6540788 0.08367986 0.082829535 0.61139107 0.43744147 0.4667958 0.45957375 0.34104434 0.44093114 0.30847472 0.08725714 0.16182461 0.067824244 0.1547744 0.09575011 0.13743234 0.1755161 0.46190533 0.70845246 0.6161162 0.5561475 0.33487922 0.7475132 0.7277335 0.6762538 0.29640162 0.29072288 0.20204763 0.17690006 0.3431999 0.5417974 0.58379793 0.57516617 0.6128116 0.60256964 0.6203913 0.5922375 0.5436684 0.43005222 0.5358947 0.60430837 0.58016336 0.5892252 0.5582601 0.31570822 0.56046534 0.5327082 0.48679268 0.3992334 0.29212028 0.3761695 0.47109693 0.50371575 0.32934391 0.21898796 0.26585636 0.36061782 0.4425909 0.4433167 0.3097893 0.051769674 0.0026420392 0.011993043 -0.03586681 0.0030765906 0.022670623 0.047319036 -0.2631092 0.05013918 0.27586275 0.6796328 0.29158488 0.81333935 0.7222631 0.64735794 0.45916665 0.12319685 0.07680941 -0.46320292 0.14456797 0.7711469 0.68691957 0.0065697953 -0.3839733 0.70815194 0.5042742 0.27301577 0.43202695 0.20981225 0.09616086 0.44733632 -0.13033217 0.012846261 0.41228503 0.6522505 0.5529922 0.31585002 0.3652502 0.6952126 0.67280483 -0.032062177 -0.05809261 -0.08051577 0.0039801 0.21904781 0.29819143 0.3359971 0.6929342 0.059431795 0.6787535 0.6553484 0.63415945 0.27298415 0.4649819 0.46538866 0.46753234 0.2626895 0.40366864 0.7904641 0.6818074 0.22435337 0.74062663 0.55416286 -0.07204522 -0.046980843 0.17181316 0.19417986 0.68348306 0.112816125 0.2606807 0.27772963 0.42988223 -0.009922296 0.6214485 0.36980206 0.029021218 0.703614 0.6791527 0.67106795 0.38027814 0.09831604 0.3523882 0.18208797 0.28234044 0.16416353 0.23460728 0.59382594 0.6556139 0.67370975 0.60700357 0.579206 0.55081236 0.5778056 0.5690428 0.6473129 0.6157638 0.5470833 0.48359013 0.54852724 0.52143717 0.64772886 0.5026709 0.5355277 0.525798 0.389148 0.3827795 0.23671196 0.3253313 0.2763167 0.29651234 0.19463006 0.2026946 0.074709654 0.07893979 0.03766723 -0.011012258 0.025116839 0.034732338 -0.32439408 0.044025872 -0.34511018 0.61991674 0.4818778 0.28655493 0.40652245 0.32027876 -0.0082554445 0.29839498 -0.04043158 -0.083349735 -0.06805496 0.048036844 0.51176983 0.3172438 0.02749829 0.32127106 0.62786645 0.5658634 0.06734994 0.29341108 0.3173107 0.66904235 0.65364754 -0.04496562 -0.080065854 0.1237719 0.25284672 0.6267283 0.50116026 0.4055304 -0.21701643 -0.03422606 -0.036316484 0.45413792 0.47503024 0.15249747 0.32063127 0.40052497 0.4263091 0.81438315 0.820425 0.75484776 0.64826334 0.06186214 0.22847125 0.7608993 0.78120995 0.4435532 0.18662378 -0.08937347 0.1929104 0.71792567 0.6258764 0.4585224 0.50031173 0.41234523 0.4943846 0.5080656 0.30645722 0.52299315 0.28846064 0.37477627 0.0053484887 0.6139027 0.592562 0.3891396 0.6481793 0.41899717 0.09733852 0.07966455 0.38611108 0.28221583 0.5418811 0.6927967 0.70308536 0.78891146 0.7996277 0.7912653 0.7557909 0.72631896 0.847857 0.61771727 0.5760436 0.5198074 0.6574992 0.6420034 0.472338 0.31043193 0.47217837 0.48123568 0.63754153 0.6679448 0.43614215 0.42662293 0.5437099 0.23437035 0.390035 0.30068994 0.27501085 0.23476985 0.20913742 0.20526132 0.16171964 0.120310016 0.114102334 0.14342988 0.15814558 0.115003735 -0.08459962 -0.008965578 -0.31856006 0.046964284 0.06361847 -0.3088173 0.33791494 0.36915585 0.36940253 0.1041999 0.23308258 0.5983065 0.21816033 -0.014952397 -0.041202493 0.10720788 0.4165277 0.07895165 0.22857499 0.06344887 0.28259838 0.0014594998 0.17066297 0.25724927 0.2700739 0.09425964 -0.25858387 0.07111576 0.3338054 0.2471723 -0.015484028 0.0756363 0.37063628 0.40850186 -0.066811025 0.46202335 0.47237122 0.4806053 -0.1822308 0.37136745 0.42065954 0.4552792 0.08552448 -0.08060591 0.32873216 0.4150389 0.43238854 0.87676626 0.88067657 0.8118236 0.6049752 0.08954032 0.19352186 0.21282375 0.77075124 0.8062004 0.529752 0.048055276 0.24344234 0.7158746 0.53282666 0.67888814 0.57949686 0.5980257 -0.30534226 0.63191885 0.6174459 0.5378047 0.5749611 0.33278823 0.33698037 0.1036578 0.09072561 -0.007099103 0.3899693 -0.0012418032 0.42509466 0.38569295 0.41303194 0.7368021 0.7229973 0.7521831 0.7493725 0.80698764 0.8267462 0.8433198 0.7763566 0.8859947 0.89076257 0.8606554 0.57057667 0.5038569 0.6532452 0.625002 0.38193196 0.40870526 0.39437425 0.64697295 0.3361736 0.19157955 -0.026878018 0.2819685 0.23987283 0.3044103 0.21328697 0.26802596 0.26386967 0.0849038 0.29591316 0.15822355 -0.09890112 0.15242317 -0.4328713 -0.4169683 0.28058147 0.30461317 0.38408786 0.4057182 0.43077916 -0.020242825 0.48955816 0.24962324 0.5747327 0.67008543 0.7707132 0.114731714 0.7177087 0.046703495 0.41388938 0.5634545 0.7185057 0.038960885 0.20792532 0.09562377 0.23997958 0.015339179 0.17391762 0.2198677 -0.09857139 0.29143798 0.24167767 -0.0882427 -0.09003226 0.030046988 0.31050456 0.4025652 0.460751 0.5228859 0.5234838 0.5412613 -0.058648244 -0.0867732 0.029546622 0.31571418 0.4083958 0.091431186 0.40766186 0.43714213 -0.148147 0.1273156 0.3893075 0.41947776 0.048293762 0.11696094 0.87687993 0.8665806 0.801282 0.70684373 0.103537485 0.10998822 0.84189516 0.1316861 0.55381596 0.7355171 0.73519385 0.45015296 0.6503637 0.6993156 0.6802784 0.6971873 0.6779034 0.5184805 0.41054684 0.66464376 0.67738456 0.69091535 0.6731117 0.28988835 0.0251787 0.35404587 0.6480031 0.4190641 0.3531921 0.32868063 0.09880543 0.38718075 0.3960964 0.3807991 0.38547397 0.3801562 0.7426895 0.5414958 0.79160243 0.77104276 0.7691148 0.80585563 0.8317258 0.8742354 0.9300549 0.8820733 0.8369149 0.8841169 0.9276701 0.9203254 0.4979876 0.49013567 0.5795261 0.57374763 0.051221523 0.29983917 0.005804587 0.01130658 0.15994157 0.12749395 0.23453552 0.034044404 0.008585915 0.13654053 0.26687717 0.3621534 0.25135744 0.26721442 0.4092419 0.38544953 0.41961664 0.20853156 0.2427569 0.0030700266 -0.26288477 0.15047298 0.27018327 0.3434403 0.44880447 0.3531124 0.5112549 0.55485815 0.35496795 0.6859585 0.24575764 0.7840016 0.80261475 0.16410795 0.8057451 0.73455215 0.77767396 0.009588659 0.06535716 0.32388866 0.16450952 -0.426675 -0.08502048 0.16133817 0.38440776 0.42931604 0.4117668 0.046821434 0.4176529 0.44218802 0.49429244 0.58535504 0.49538916 0.096716836 -0.066498786 0.22315161 0.5411862 0.5826923 0.6181974 0.6204177 0.041771904 0.09678679 -0.019337803 0.0010382012 0.015471302 -0.0858547 0.8354595 0.77252734 0.1217255 -0.016624449 0.32965276 0.832387 0.79476386 0.70777386 0.62363654 0.15796089 0.5679791 0.75435436 0.71584564 0.5840483 0.52165735 0.49833572 0.680737 0.6626171 0.58213276 0.5473927 0.49110046 0.34020555 0.08734077 0.6196893 0.69210136 0.714679 0.70575356 0.36112538 0.21744044 0.1643633 0.6555623 0.7140057 0.7227684 0.32554513 0.3015112 0.2637002 0.078833014 0.6396573 0.29423702 0.28507313 0.2746144 0.11417616 0.11319481 0.51106507 0.6037483 0.64280593 0.5941577 0.3367127 0.2611153 0.36816525 0.32164738 0.37881696 0.60631037 0.60320294 0.6906223 0.7407604 0.7074219 0.762134 0.7978054 0.77717507 0.8098246 0.854735 0.8609928 0.8347923 0.8643366 0.91489756 0.9178227 0.5901544 0.577234 0.52709174 0.58445096 0.5996343 0.5512996 0.5157854 0.4697986 0.23055312 0.2906479 0.2758283 0.026412204 0.042027585 0.08022311 0.027781118 -0.055044092 -0.016796902 0.09503457 0.0898074 0.10372366 0.3045354 0.121286206 0.20484594 0.277913 0.37419403 0.29520017 0.31016722 0.44828385 0.31198537 0.46886325 0.28219992 0.380107 0.31779176 0.54810536 0.5688034 0.62212634 0.35555893 0.665103 0.71705747 0.29501987 0.79337084 0.7987393 0.06906502 0.8167397 0.4353221 0.744936 0.81195974 0.81357175 0.25473496 0.20773533 0.040561903 0.33771986 0.118347295 0.35204363 -0.05118595 0.3295455 -0.03866898 0.41071957 0.48314562 0.43277204 -0.1006849 0.46358258 0.50015277 0.59236777 0.5210124 0.094107434 -0.07705294 0.52364254 0.5701119 0.60101485 0.2877396 -0.04315275 0.04346586 0.13038039 0.033666566 -0.009476818 0.14742503 0.030765317 0.13294697 0.029863045 0.12823391 0.1993528 0.16946957 0.44286293 0.56038433 0.53802484 0.48913723 0.46327996 0.466585 0.386096 0.6462432 0.66787994 0.43349856 0.33890593 0.29201907 0.43546426 0.32527778 0.30975664 0.29740453 0.44989032 0.55416334 0.66002274 0.7631173 0.75762343 0.7171155 0.66041636 0.72016585 0.76266706 0.7347379 0.76792777 0.78030086 0.7958367 0.5586665 0.5223056 0.61448705 0.6108775 0.54789215 0.4942931 0.46539587 0.49700397 0.16960885 0.11101505 0.16880842 0.030922048 0.29855227 -0.012979522 0.00832621 0.08427313 0.11655452 0.111005545 0.23489851 0.21989742 0.29228693 0.39739674 0.3134376 0.45190233 0.29724324 0.4780928 0.47823492 0.2729529 0.38525358 0.19987947 0.30263218 0.55449474 0.1304789 0.2245969 0.5829097 0.62851185 0.63226783 0.29904282 0.65664077 0.6844717 0.72722137 0.1715143 -0.13635617 0.16918918 0.66838396 0.73620415 0.78743684 0.455859 0.67092943 0.8082046 0.81036377 0.3312142 -0.09637099 0.7070836 0.37529147 0.34640396 0.3837067 0.19925956 0.22970662 0.3678835 -0.097137004 0.0036059842 0.36638522 0.41654038 0.33627498 -0.09575716 -0.12061119 0.41684097 0.3954243 0.51150924 0.47189343 0.32049286 0.026303837 0.49414852 0.49753824 0.5610222 0.56017935 0.5361923 0.27534094 0.15332547 0.15587965 0.52998126 0.56554866 0.23785332 0.19453984 0.12407786 0.19729908 0.30935475 0.27552348 0.32062078 0.38549525 0.36309737 0.31992227 0.4757073 0.45058304 0.28836715 0.23451261 0.53620243 0.27378398 0.2939941 0.52397794 0.5646184 0.56752914 0.5360335 0.5852445 0.6915802 0.6725123 0.6443056 0.7426844 0.77555907 0.7387752 0.6059086 0.52587986 0.48336303 0.43667585 0.5353749 0.53209066 0.20401987 0.34847623 0.12738939 0.093932115 0.14856681 0.070174694 0.3594948 0.37173882 -0.051522426 0.35047594 0.10739638 0.26697588 0.11256