# vtk DataFile Version 2.0
Really cool data
ASCII
DATASET POLYDATA
POINTS 2712 float
-4.5075526 28.091448 -6.881732
-3.7660983 27.221016 -7.7723055
-3.925012 27.108128 -7.3856087
-4.023999 26.974842 -6.5701604
-3.6447065 26.724205 -5.46591
-3.5102105 26.246685 -4.687687
-3.9561088 27.680866 -7.843916
-4.211733 27.615843 -7.3624215
-4.366472 27.709608 -6.6165457
-4.20885 27.760809 -5.8745456
-3.9554346 28.307442 -7.8248253
-4.2250285 28.308655 -7.406068
-4.39962 28.423174 -6.5435066
-4.1787443 28.448767 -5.6913595
-3.717309 28.62727 -4.8524356
-4.0740595 29.011621 -7.2228417
-4.1902246 29.053364 -6.482615
-3.8748605 29.301846 -5.2195716
-3.731227 29.547768 -4.720818
-3.7200797 29.804514 -6.5237436
-3.5835092 30.101957 -5.4667125
-3.5979922 29.8852 -4.4422426
-3.072208 25.228245 -5.273081
-2.9090016 24.993559 -4.4312525
-2.9038138 25.08407 -3.969988
-2.8033874 25.74118 -6.4545636
-3.0457945 25.54108 -5.5876007
-3.2369967 25.650959 -4.524306
-2.9736018 25.509691 -3.6757348
-2.8291368 25.986279 -3.140089
-3.3869214 27.020885 -7.8340244
-3.4859698 26.8323 -7.4685473
-3.137232 26.434793 -6.5780077
-3.3828452 26.187773 -5.274245
-3.384801 26.346943 -4.1893454
-3.1964486 26.31054 -3.8639295
-2.833606 26.141375 -3.1771843
-3.4642718 27.586178 -8.132516
-3.5698192 28.227968 -8.147429
-3.0809355 28.10346 -4.326527
-3.332308 28.750525 -4.171299
-3.3292158 28.963774 -7.9667826
-3.4629657 29.394957 -4.099267
-3.2009864 30.180393 -4.00311
-2.9029315 31.04518 -4.717462
-3.1159475 33.18209 -4.124412
-2.6629043 32.668015 -3.2206595
-2.638371 32.765865 2.4772477
-2.610823 32.829487 3.2536347
-2.781373 33.93963 -5.732366
-3.0287883 33.997395 -5.310444
-3.1789937 33.568317 -4.4025025
-3.1310596 33.567726 -3.4881773
-2.6530159 33.387302 2.588834
-2.6001267 33.376667 3.2372184
-2.7458549 34.41459 -5.679957
-3.0338457 34.60911 -5.1942534
-3.1976023 34.477795 -4.621325
-3.1002758 34.48207 -3.5145566
-2.8362944 34.363815 -2.9181166
-2.7115798 35.27773 -5.3047514
-3.001427 35.093723 -4.559684
-2.9077873 35.03165 -3.7665544
-2.7688153 34.945457 -3.1853828
-1.5483861 21.81568 -2.4768124
-1.5571376 22.16549 -2.2217717
-1.6581872 24.135464 -5.5766044
-1.9784838 24.761114 -6.461569
-2.344922 24.548738 -4.7611527
-2.4363716 24.884424 -3.4591825
-2.348604 24.880245 -3.1999822
-2.489334 25.650862 -3.0167463
-2.6833372 26.94065 -7.942263
-2.4088962 26.582949 -7.6365848
-2.534653 26.724281 -3.0459232
-2.0430133 27.719563 -8.742894
-2.747782 27.603737 -8.431449
-2.4893725 27.667768 -3.608598
-2.1118226 28.369564 -8.713446
-2.1122184 28.908499 -8.710089
-2.440617 29.21796 -8.235317
-2.1047237 29.87511 -8.001952
-2.1782236 30.476702 -7.444067
-2.6678417 30.128408 -3.5915484
-2.2673674 30.351543 -3.006836
-2.0801692 30.973806 -1.3305987
-1.7558696 30.61797 -0.4132996
-2.0920863 31.385557 -0.3379416
-2.1173897 31.879238 0.41987494
-2.048869 31.817877 2.633546
-2.0223987 31.93824 3.4072933
-1.8754704 32.043953 3.9619536
-2.422669 32.19759 -3.8004694
-2.3336296 32.839848 -2.7000055
-2.2477612 32.5914 -0.35705465
-2.3787987 32.569042 0.7515006
-2.4431858 32.768513 1.2523766
-2.5055497 32.351013 2.6434588
-2.475657 32.637924 3.4107046
-2.068623 32.728622 4.0347133
-2.5247192 33.63786 -5.827855
-2.1947773 33.172028 -1.1547482
-2.1558933 33.63217 -0.41060898
-2.4229522 32.98048 0.59383
-2.487298 33.386063 3.4900315
-2.1552486 33.290024 3.9220424
-1.8492541 34.22729 0.3534161
-2.0035434 34.20553 1.589987
-2.2817886 34.05054 2.6110852
-2.1868663 33.925488 3.3220344
-2.3599253 35.593258 -5.789916
-2.564663 35.46585 -5.3697076
-2.6551268 35.490543 -4.175866
-2.5048842 35.41912 -3.6801596
-2.0607886 35.62781 -3.1578884
-1.9526031 36.313457 -5.4842772
-2.1638346 35.92122 -4.2455688
-1.8784735 35.979427 -3.8126047
-0.6959718 19.037867 -6.832754
-0.8616093 19.09428 -6.3656816
-0.78383684 19.159569 -5.6339617
-0.80245525 20.110788 -7.9744606
-1.0544264 19.815641 -7.2635946
-1.1096882 19.527456 -6.417625
-1.0393617 19.751648 -5.546284
-0.74197555 19.675657 -5.1559153
-0.8931022 20.333717 -2.04403
-0.72926855 20.219303 -1.9849207
-0.985412 20.600382 -8.029609
-1.3292924 20.571777 -7.372693
-1.364337 20.447319 -6.6712675
-1.133742 20.467554 -5.67554
-1.0990204 20.693869 -2.4305282
-1.0501062 20.773058 -1.6284213
-0.8601283 20.963932 -1.1298479
-0.9667063 21.410913 -8.069025
-1.3258519 21.285948 -7.43869
-1.3249383 21.494019 -3.2477107
-1.3921682 21.29285 -2.3375852
-1.33284 21.409876 -1.6350584
-1.0468984 21.56045 -1.020328
-0.6060645 22.876192 -6.2267227
-0.81457466 22.864048 -5.454033
-1.3961586 22.215448 -3.414227
-1.3421572 22.403128 -1.6489389
-1.0437078 22.28793 -0.9951849
-1.0773827 24.205032 -2.255838
-1.0405531 26.893581 -8.511982
-1.7475536 26.309736 -7.467916
-1.6378028 26.187628 -2.6958718
-1.6244495 27.825058 -8.871764
-1.6339922 28.266403 -8.909172
-1.1168594 28.847452 -1.1398503
-1.6403116 29.344078 -8.642221
-1.3494143 29.461588 -1.4407976
-1.2958161 29.452843 -0.8178461
-1.3544735 30.663551 -7.7273874
-1.372484 31.042624 0.68863666
-1.0451082 31.165464 2.9079916
-1.1556255 31.331593 3.6826067
-1.0704641 31.409307 4.0418577
-1.5514964 31.537697 3.5163262
-1.1837258 31.726528 4.3229237
-0.8499404 31.947237 4.773418
-0.6419081 32.617985 -7.2283435
-1.4426612 32.48175 4.524489
-1.0700148 32.46688 4.7787023
-0.8868187 33.90494 -9.041122
-1.0781862 33.993767 -8.791551
-1.430417 33.526176 4.277627
-1.0314876 33.05212 4.674826
-0.8663299 34.35623 -9.218065
-1.2363755 34.60418 -8.505976
-1.4344529 34.7236 -7.573987
-1.5738585 34.444202 2.7417216
-1.4183173 34.262558 3.4004111
-1.4688847 33.87945 3.9497757
-0.83432096 35.290504 -9.118866
-1.1436139 35.342754 -8.434688
-1.3787589 35.53523 -7.220475
-1.4203612 35.495556 -2.401702
-1.6310171 35.072315 -1.770209
-1.2185158 34.95455 -0.23425904
-1.4474293 34.734715 0.5360696
-1.2877085 34.73003 1.1958082
-1.2653148 34.548058 2.6465552
-0.8095491 36.079487 -8.279883
-1.1815438 36.565662 -7.291242
-1.4199599 36.71645 -6.689121
-1.4160666 36.182976 -3.6429543
-1.4510809 35.891758 -2.7453835
-0.9452723 37.048332 -7.0503116
-1.1991293 37.052673 -6.5313115
-1.1515536 37.224922 -5.755602
-1.2340369 36.784992 -4.54585
-0.1758319 19.252367 -7.761385
-0.2181878 18.945978 -7.2184477
-0.3799074 18.730772 -6.5401793
-0.32053137 18.772015 -5.639373
-0.34413862 19.975431 -8.173362
-0.36980402 20.252989 -3.0526395
-0.38095397 20.08068 -2.4765642
-0.3658262 20.18678 -1.6784614
-0.17071517 20.802406 -8.641114
-0.4276209 20.648056 -8.377575
-0.46840426 20.498053 -3.0379252
-0.6956152 20.45317 -1.3356506
-0.4403147 20.7445 -1.0170159
-0.4737752 21.243416 -8.44027
-0.44972205 21.627893 -0.6208672
-0.12608221 21.813473 -0.46628624
-0.4823854 22.464666 -0.6082221
-0.09977192 23.859463 -7.410824
-0.402718 23.271202 -0.92030275
-0.09019272 24.659227 -1.9804696
-0.42897588 23.802723 -1.3120562
0.010514766 25.15024 -8.087224
-0.13579595 26.169325 -2.2993083
-0.67482024 27.570738 -8.92018
-0.3389063 27.776056 -1.2166773
-0.048449814 28.220404 -0.14606784
-0.4559772 28.669874 -0.06889525
-0.46376514 30.849792 2.358938
-0.5345208 31.149258 3.6883974
-0.36788782 31.340702 4.263524
-0.46697512 30.862238 -8.257114
-0.49996555 31.556406 4.5815845
-0.40514252 31.853577 4.82234
-0.19120935 33.09931 -9.451447
-0.4798228 32.396782 4.9696503
-0.06319031 33.65142 -9.992195
-0.40554023 33.50158 4.4645085
-0.53169596 33.05753 4.779653
0.24244821 34.49294 -10.3082695
-0.62931997 34.701206 -9.546364
-0.21982095 34.476395 2.679945
-0.655512 34.25582 3.380332
-0.5888462 33.84257 4.1020904
-0.1740121 35.37303 -9.782586
-0.38781467 35.360355 -9.562474
-0.14299044 35.988995 -9.3616085
-0.13450149 35.694683 -2.211013
0.08383 37.06236 -7.9713364
-0.34580654 37.18307 -7.3532915
-0.5438886 37.47709 -6.616334
-0.56644243 37.368023 -5.2704363
-0.6430182 36.623802 -3.5528152
-0.5396687 37.5808 -6.2788296
0.12886637 18.48304 -6.522095
0.4834601 18.453453 -5.9955764
0.63803077 19.13128 -7.8804145
0.4152193 18.873417 -7.343022
0.46818975 18.512339 -6.2059417
0.20792547 18.57218 -5.650875
0.46757442 18.77528 -4.887824
1.1595898 18.905897 -3.4859202
1.1641634 18.980078 -2.8981493
0.37412745 19.431892 -3.6502457
0.5179447 19.538368 -2.5472555
0.5718671 20.051825 -1.5009639
0.5464195 20.292452 -1.1543112
0.44803268 20.34409 -8.504248
0.47332448 20.780926 -0.79566705
0.7872916 21.504555 -8.514316
0.45298004 21.564734 -0.5275548
0.3880811 21.63017 -0.4391172
0.57980424 22.234575 -7.9614725
0.08677333 22.650623 -0.5188491
0.4633568 22.289618 -0.43206477
0.43302214 22.97854 -0.5561866
0.5536252 24.697182 -8.410388
0.25477606 24.054382 -1.2575808
0.9168884 25.569628 -9.244896
0.5079011 24.881462 -1.7371215
1.1635869 26.951296 -9.822968
1.4435118 27.780664 -11.530815
1.2718145 27.217459 -10.767403
0.8244927 27.792685 -0.031136006
1.3914615 28.163857 -11.400856
1.3391999 29.983015 -11.353229
1.3503927 29.515512 -10.849164
0.6656914 29.455517 -8.9253
0.5569515 29.666542 0.7954006
1.1281278 30.897078 -11.481413
1.1938267 30.787344 -10.99949
1.474596 30.298174 -10.045125
0.56831765 30.982622 2.78994
0.16041496 31.265316 4.0030723
1.1420131 32.003 -13.084364
0.98113465 31.892864 -12.771734
1.1141119 31.607613 -11.928303
1.0141946 31.21199 -11.005466
0.33962336 31.729275 4.467501
0.18395808 31.952877 4.765365
1.2912468 32.67793 -13.790349
1.0966254 32.60339 -13.383278
0.9652603 32.432755 -12.438688
0.563182 32.382885 4.573572
0.10128862 32.506546 4.877335
1.1157303 33.4672 -13.240968
0.9057801 33.30104 -12.803492
0.70786285 33.140087 -11.747695
0.39727807 33.190823 4.370577
0.13927124 32.94156 4.743125
1.085237 33.96674 -12.65885
0.97437096 34.117474 -11.843626
0.36931288 34.031048 3.3675487
0.25029427 33.7112 4.050392
1.1715702 34.812336 -10.934244
0.5727665 35.245956 -10.336059
0.28419006 35.041626 0.3568251
0.54305446 34.86591 1.088643
0.5184257 35.774082 -9.987528
0.5034019 36.341286 -9.355043
0.39112514 36.539345 -3.7983859
0.26321316 35.960846 -2.5243316
0.7595684 36.72574 -8.947272
0.61832166 37.64104 -6.481338
0.358349 37.6025 -5.79835
2.019538 18.381203 -5.960427
[...]
POINT_DATA 2712
SCALARS features_00 float 1
LOOKUP_TABLE default
0.6670215 0.5994215 0.6021084 0.56397444 0.44262415 0.42579854 0.6382125 0.65477955 0.63231575 0.53337026 0.66288555 0.68509364 0.63931835 0.5027633 0.37060362 0.6762033 0.61172694 0.4074633 0.33712947 0.5782513 0.37994403 0.2946182 0.37892187 0.42018282 0.43838167 0.383252 0.37378663 0.42412883 0.44070584 0.4291978 0.5525416 0.549046 0.4704091 0.41867983 0.42980134 0.4318482 0.427196 0.57999694 0.6088054 0.33221397 0.29201287 0.59362423 0.27766246 0.23510122 0.15630911 0.4954921 0.2317612 0.68933666 0.7964519 0.4733085 0.545781 0.5676781 0.5201691 0.7421417 0.8262832 0.4750162 0.5356094 0.5674753 0.5478058 0.4807421 0.49720842 0.5334203 0.5076807 0.4545738 0.6021497 0.6206692 0.23697887 0.26519373 0.3818387 0.43781608 0.4252925 0.41682532 0.48220533 0.43566257 0.39765796 0.46280444 0.51779884 0.3428122 0.48019695 0.45645368 0.46199018 0.34755412 0.301882 0.17391406 0.012107509 0.050719023 0.14116663 0.16562866 0.24669918 0.64964664 0.7770604 0.8379932 0.11540264 0.20388877 0.21579422 0.32836145 0.45380273 0.6826949 0.80606747 0.89135647 0.4086641 0.21250749 0.34755683 0.3587942 0.8557408 0.9053172 0.42046082 0.5864349 0.76878065 0.85151577 0.43470305 0.48299962 0.4830552 0.44464117 0.3645152 0.44557655 0.43395805 0.38656205 0.65418684 0.6497338 0.5937426 0.6153495 0.67024636 0.66321933 0.57891595 0.49235845 0.58196646 0.5768192 0.60070413 0.6410256 0.6440877 0.52321 0.5623224 0.642417 0.69024956 0.53404653 0.5829467 0.48265588 0.60230756 0.6700276 0.71430695 0.15030524 0.019941758 0.41790125 0.6848122 0.69882274 0.2425966 0.3114521 0.3361344 0.2918802 0.43073735 0.42582515 0.28502104 0.34424576 0.16129223 0.2116939 0.18339269 0.24870539 0.6811139 0.77455866 0.8226613 0.7651482 0.87026834 0.94003206 0.09696386 0.9435791 0.972445 0.35826802 0.3538889 0.94455063 0.9814939 0.39661616 0.39255092 0.32735246 0.74590975 0.8228569 0.8951096 0.4274801 0.41722295 0.3420527 0.3387248 0.2833189 0.30845848 0.42085 0.50962436 0.7186949 0.43607104 0.39589792 0.3974492 0.36004665 0.3375817 0.4265307 0.42475146 0.45057976 0.42490175 0.6038246 0.62330854 0.63000745 0.56681174 0.575741 0.43215138 0.5094265 0.58935606 0.50332993 0.5446341 0.45279258 0.642959 0.67826426 0.4850227 0.67750657 0.6237103 0.6177797 0.035603225 0.51094747 0.16290544 0.38628864 -0.10181002 -0.107200176 0.2904614 0.2752354 0.37583506 0.36626968 0.6410303 0.78338265 0.8649081 0.061912008 0.9092296 0.9492475 0.2638885 0.981532 0.3212508 0.9133196 0.9700433 0.32486662 0.40554917 0.67977786 0.7897192 0.86639863 0.40363705 0.41973254 0.43740064 0.337604 0.42993718 0.43485308 0.44845566 0.45840147 0.37227166 0.44940853 0.5786738 0.4957626 0.54155594 0.5617863 0.51693666 0.5054711 0.37753618 0.37638152 0.41798192 0.30155098 0.45083904 0.5553812 0.59069574 0.4973253 0.6142777 0.33468607 0.56748176 0.5678284 0.2005273 0.5346324 0.5179024 0.4770692 -0.098819986 0.3312072 -0.033116028 0.07588602 0.0886915 0.1912036 0.16717362 0.33074194 0.18543315 0.20918635 0.15521178 -0.057726443 0.37705246 0.2579329 0.20589021 0.051186975 0.7166627 0.84655195 0.44507474 0.42385763 0.33732435 0.21499053 0.90131664 0.9368404 0.48385268 0.48321676 0.4341273 0.8937075 0.95353436 0.4876526 0.4799914 0.3585072 0.85412514 0.92746353 0.43838465 0.3298448 0.7291442 0.815012 0.20745288 0.3215503 0.4238162 0.46048868 0.35132277 0.38462597 0.20625561 0.23812206 0.35748452 0.47005987 0.44323555 0.29988113 0.29239768 0.53755397 0.43420452 0.38113648 0.4416027 0.45243728 0.4761173 0.4907285 0.47808087 0.5001323 0.35049015 0.5207852 0.14967333 0.010396719 0.19143 0.46286303 0.13145669 0.032374084 0.37872326 0.4000757 0.1374391 0.103409044 0.1570768 0.16178429 -0.025101013 0.07712859 0.15835553 0.17038423 0.18299618 0.28383222 0.13166764 0.19825274 0.2051079 0.29324114 0.32843557 0.21216092 0.36974418 0.23421547 0.2780504 0.74015707 0.37762928 0.3638402 0.77099377 0.8388285 0.46422452 0.65228784 0.8237505 0.46816877 0.4756797 0.6024177 0.75346947 0.43557602 0.4288289 0.37222773 0.4945324 0.63471305 0.2647208 0.1559318 0.09452917 0.15305272 0.31661415 0.2968467 -0.056611143 0.2866391 0.25447613 0.015201094 0.309639 0.4386695 0.5271353 0.46299917 0.4219752 0.56963325 0.5925945 0.61428463 0.5375188 0.4234514 0.23792106 0.24454308 0.28752303 0.5717306 0.59429634 0.61315316 0.44571453 0.3363204 0.2837649 0.37893045 0.43351254 0.4362912 0.52678084 0.53466487 0.53900164 0.41421825 0.35116875 0.41759378 0.41817492 0.44835007 0.34169683 0.43857208 0.18050775 0.27406046 0.24991477 0.36230773 0.38365924 0.2234509 0.19046059 0.15412499 0.29723233 0.3375448 0.13314185 0.21791458 0.06723885 -0.026645046 0.12493109 0.07449851 0.12195958 0.124842204 0.08981339 0.09256261 0.26509303 0.09900802 0.16090915 0.24492091 0.31100947 0.45503497 0.3897897 0.4099018 0.4846673 0.5506867 0.38139433 0.23121905 0.39427656 0.49993083 0.34070173 0.15702991 0.19423613 0.44854575 0.4707278 0.1795339 -0.08611399 0.17909835 0.22504815 0.13304909 0.011240073 0.3903109 0.5822734 0.560427 0.5982065 0.6020919 0.60057646 0.42255148 0.3697516 0.33032393 0.4755351 0.48110813 0.40335286 0.32037574 0.243179 0.5177672 0.5442822 0.31276518 0.18480767 0.5424042 0.14179027 0.11554509 0.14715068 0.14843407 0.16832179 0.33954227 0.39063928 0.5050855 0.50259 -0.23697618 0.39628896 0.36597028 0.21660551 0.3361978 0.1328468 0.09199548 0.13144712 0.18419495 0.07864633 0.12166223 0.14102814 -0.07913193 -0.077017106 0.058674864 -0.012568442 0.17406909 0.08827669 0.054174367 0.1663034 0.16116393 0.09694484 0.14195094 0.104402125 0.16612586 0.16813317 0.1299386 0.07806017 0.12337728 0.17089224 0.074891195 0.15075363 0.3388821 0.36293805 0.34159157 0.35685077 0.32417142 0.30062354 0.28900728 0.2159096 0.11016433 0.035090722 -0.07743094 0.3113967 0.55939007 0.47961557 0.60633326 0.56830466 0.57660484 0.55376923 0.63314193 0.6877632 0.58121425 0.59159034 0.60701513 0.6551931 0.7080128 0.5723847 0.5807269 0.5966668 0.59705186 0.5822429 0.624868 0.57457834 0.6468394 0.71961915 0.7713179 0.7460753 0.5726563 0.6110754 0.7036155 0.35278243 0.51168 0.4382897 0.19081703 0.17562377 0.31949282 0.2915388 0.17164704 0.34421563 0.35514128 0.21477789 0.45043644 0.19973356 0.1905603 0.5072184 0.5110818 0.094441086 0.04299067 -0.07226655 0.45214573 0.45084363 0.04797326 0.3383055 0.088963985 0.002738992 0.025645964 0.033241816 0.13033983 0.10649361 -0.0044217333 0.1849477 0.07647966 0.23130646 0.25059375 0.10349819 0.2536016 0.19312218 0.26100904 0.15934321 0.112678505 0.21025276 0.00011496432 0.1019661 0.30088058 0.24015197 0.35097277 0.3393695 0.1666872 0.37430686 0.37840253 0.3374197 0.3664698 0.30672857 0.31389534 0.27992365 0.29499477 -0.050038014 0.23546737 0.68373656 0.448464 0.7469554 0.54632455 0.7345456 0.7579877 0.54847485 0.553566 0.66935736 0.72096676 0.5418936 0.55126345 0.5988883 0.63827753 0.821306 0.8105031 0.71477634 0.8440384 0.8400073 0.80535257 0.78450835 0.62055767 0.65655196 0.7847787 0.7584126 0.57058084 0.69620025 0.38359928 0.505877 0.47078073 0.4154427 0.24117449 0.23081559 0.23080759 0.03976138 -0.107960135 -0.09967524 -0.08170106 -0.07456972 0.13244192 0.36741394 0.099726446 0.0721772 -0.11794458 -0.08606701 0.471184 -0.24975275 -0.24110213 0.11174114 0.5216365 0.52959895 0.45571232 -0.13546097 -0.17278445 0.22655135 0.53936934 0.5446983 0.50950265 0.20675486 -0.10899221 0.018989416 0.5416239 0.54572743 0.5005337 0.32742026 0.3840834 0.14464416 0.43103486 0.11317758 0.4218903 0.13898939 0.37093797 0.39568025 0.17007297 0.10833921 -0.095671095 0.27524853 0.04280813 0.33152086 0.37748656 0.38717055 0.38247052 0.38110715 0.30449808 -0.0459352 -0.1826545 -0.06608185 -0.07101426 0.2724837 -0.008698955 0.4161896 0.2041157 0.6726753 0.43597755 0.7404944 0.7527494 0.40362775 0.75305116 0.48887098 0.7400464 0.74981534 0.49944818 0.5166184 0.51663554 0.5619859 0.7065973 0.705922 0.5410073 0.5460906 0.7850092 0.80169916 0.797768 0.63510334 0.70846593 0.7933129 0.7723403 0.60639393 0.7419229 0.47982895 0.7228458 0.51519233 0.48401114 0.5461173 0.1668706 0.15965351 0.30911213 0.4546452 -0.1252236 0.0009649843 0.15140271 0.17967469 0.26677108 0.09231238 -0.22425348 -0.27260008 0.01316116 0.29921037 -0.22413622 0.10709053 0.31225058 0.25038844 0.1464051 0.103413835 0.31864503 0.21187001 0.01963098 0.1080561 -0.12029003 0.4474771 0.43005395 0.27271587 -0.021183953 0.4842238 0.4672894 0.04658289 0.033249572 0.47324347 0.49640995 0.10561153 0.4716704 0.5126798 0.5128808 0.40809238 0.43898124 0.4663456 0.34898868 0.45354217 0.4561784 0.063030005 0.4348368 0.44781685 0.075557075 0.2747516 0.35344926 0.08315197 0.033213977 0.18446773 -0.0003981348 -0.1261946 0.045446996 0.3690543 0.31766477 0.38486007 0.38216162 0.46613118 0.35169718 0.36120057 0.5383617 0.5559723 0.5414283 0.41783333 -0.10122266 0.2672926 0.5685549 -0.03165057 0.11289078 0.05445341 0.5614906 0.69710684 0.2560561 0.71319383 0.7286322 0.32919776 0.2900809 0.7309747 0.7411643 0.43902475 0.7543436 0.7481327 0.4915402 0.53363705 0.8328842 0.57484007 0.71041745 0.72685283 0.86549795 0.7429363 0.7453858 0.7682725 0.5908216 0.62930065 0.6756236 0.70710546 0.7505579 0.71917504 0.51222146 0.5507183 0.7175944 0.6134189 0.65304756 0.6477141 0.450528 0.5637155 0.55221254 0.60488355 0.6122618 0.25404653 0.28869236 0.32629034 0.41690916 0.5111639 0.5549435 0.56038296 0.15849215 -0.32415932 0.20343004 0.439354 0.52673686 0.037905794 0.15848945 0.24803743 0.35209784 0.31905168 -0.2522456 -0.5363018 -0.06825051 0.27926022 0.2790687 0.32633632 0.310737 -0.459851 0.19180767 0.333754 0.2913858 0.0637182 0.06195155 0.34591323 0.33606637 0.032022774 0.32269543 0.06676574 0.17453927 0.37634248 -0.31460115 0.41666573 0.43975484 -0.10608716 0.439907 0.030811206 0.15811126 0.44216007 0.45948023 0.2519774 0.42198077 0.43680292 0.37935168 0.4026527 0.38905835 0.4458022 0.32549065 0.28436553 0.29755515 0.42433247 0.08686726 0.27470952 0.07962807 -0.042534094 0.0024320264 0.0026477873 0.22854517 0.33707103 0.35704237 0.34090987 0.5101787 0.2974013 0.5681642 0.5808182 0.40178657 0.29872042 -0.23731042 0.58559513 0.5720781 0.51322824 -0.014704367 0.10258201 0.14149764 0.39781854 0.21369633 0.25592643 0.6157564 0.7027397 0.2850486 0.7455915 0.38109633 0.43806958 0.84002304 0.48254296 0.62342894 0.894039 0.7506717 0.8257436 0.89508605 0.49577737 0.53939223 0.602039 0.75968003 0.75269365 0.7430309 0.4994214 0.5097201 0.6587297 0.64406955 0.70186615 0.693294 0.69651103 0.66866547 0.44238454 0.22885063 0.5979461 0.28844002 0.542861 0.477626 0.13588789 0.39465973 0.3137376 0.2962887 0.3379898 0.22278756 0.34004262 0.19618033 0.34245086 0.33600974 0.085130945 0.34036857 0.16264978 0.26496983 0.21060751 0.28061828 -0.3250307 -0.33993518 0.36940983 0.34682503 0.09183009 0.35411543 0.33418676 0.32285804 0.28936636 0.0735844 0.13758986 -0.2455308 0.09631049 -0.34563062 -0.1642879 0.09211464 -0.20624088 -0.19255742 0.06699809 -0.20380741 -0.112563565 0.09477271 0.100339144 0.18675894 0.26963222 0.42048043 0.3383484 0.5245056 0.17882548 0.17301573 0.55034196 0.5634634 0.042397887 0.57117146 0.55033326 0.52701247 0.3396696 0.1850917 0.03219699 0.40163964 0.16649921 0.19050184 0.4604023 0.51085 0.5121089 0.61654896 0.26172537 0.5026845 0.65913427 0.759654 0.6434655 0.724126 0.85405046 0.85748446 0.7450522 0.76871634 0.82979536 0.89580274 0.90652466 0.7819525 0.84169996 0.8809942 0.43595916 0.43308067 0.83482015 0.80902797 0.77052784 0.46102268 0.41266355 0.37622854 0.3345688 0.7891115 0.72708964 0.6836344 0.44226724 0.4362089 0.58124995 0.31354383 0.42592287 0.3238651 0.26787707 0.2046888 0.30990988 0.27756232 0.2814246 0.30849957 0.21900989 0.3271351 0.12473823 0.2641986 0.17145751 0.25023776 0.3091071 0.2058988 0.39349636 0.17721453 0.45126227 0.5454891 0.62506515 0.14220324 0.32170862 0.49224165 0.6179261 0.67039615 0.15021694 -0.3188678 0.2759775 0.37517083 0.57602036 0.6497004 0.68532073 0.19601394 0.41734296 0.57924074 0.64306927 0.2355071 0.25749516 0.27566066 0.2651543 0.2927893 0.32179207 0.23739952 0.19121057 -0.3438791 -0.3503492 -0.33366358 0.13590795 0.1306054 0.26768613 0.4397339 0.4865434 0.045238048 0.5287754 0.5192628 0.05539283 0.53568614 0.517124 0.40777314 0.3555958 0.22284429 0.037998673 0.138403 0.097013265 0.17551951 0.26378632 0.2348602 0.15460962 0.7144914 0.74769986 0.71920633 0.77636254 0.8050834 0.80062413 0.8171598 0.85307515 0.79920053 0.7975556 0.7603206 0.7296775 0.4025595 0.36435723 0.35200447 0.729656 0.73016524 0.69505095 0.38344008 0.29321876 0.2962467 0.15938261 0.42255008 0.5666158 0.48865828 0.23838866 0.44478732 0.17606142 0.36204314 0.21028146 0.21110065 0.22483917 0.21884239 0.20817353 0.23086438 0.09406976 0.18168636 0.17675902 0.18641251 0.3526191 0.14795938 0.45103142 0.5774637 0.6474999 0.69689727 0.29504612 0.7031325 0.7294474 0.31227332 0.27124846 0.7143665 0.7347814 0.27705684 0.14230204 0.25194076 0.63011044 0.6755372 0.72295386 0.086504996 0.5818232 0.18793134 0.23357743 0.27750888 0.21082693 0.24499963 0.2235511 0.31506196 0.21039945 0.3137258 0.2828228 0.17599265 -0.3213801 -0.114824995 0.1740521 0.28022933 0.105403416 0.096585 -0.34874657 0.13677876 -0.321622 -0.119994015 0.15301138 -0.11130445 -0.11054984 0.14699717 0.15819743 0.013932183 0.103713736 0.15871218 0.10660659 -0.16103429 0.37291777 -0.048890993 0.37815785 0.36162335 0.3570429 0.27854362 0.1725596 0.07629149 0.13463351 0.20075496 0.16922599 0.7676284 0.71277833 0.7299367 0.70126325 0.65588665 0.23701341 0.25128913 0.28693688 0.39259523 0.4929874 0.64645237 0.5496184 0.17663181 0.16137198 0.07859852 0.43047395 0.40010145 0.14234257 0.3558481 0.18863231 0.22893934 0.17567322 0.0756513 0.0954124 0.1226506 0.1606427 0.11985859 0.29615825 0.43148768 0.03517965 0.040379316 0.5909216 0.21017583 0.7022426 0.4004483 0.35648146 0.75806236 0.402749 0.7685914 0.34645203 0.2642975 0.6810952 0.725981 0.41876492 -0.054354504 0.18589494 0.1568981 0.18294467 0.24196792 0.18562347 0.13755584 0.14314348 0.08794583 0.13798621 -0.083213985 0.1721054 0.25094235 0.16832094 0.18709642 0.19266826 0.21796176 0.12033306 0.24609092 0.22294012 0.23685381 0.29602757 0.1459628 0.3413522 0.21912488 0.21535379 0.18798131 0.3495528 0.24531677 0.26721457 0.20073587 0.22779152 0.1583518 0.07500929 0.18351428 0.11254561 0.14091197 0.33154204 0.326164 0.27863672 0.12901966 0.13134047 0.14935392 0.32899472 0.25527287 0.21680611 0.30488044 0.10349245 0.060996927 -0.0053922683 0.15252787 0.10792632 -0.020305075 -0.21188042 0.13162649 0.14420754 0.09062651 0.08852076 0.1796382 0.10031254 0.04279812 0.55886686 0.37570384 0.27710235 0.5989276 0.67416406 0.4515391 0.7546208 0.4772613 0.7999983 0.47894174 0.67510986 0.3669718 0.24122816 0.40497094 0.56632316 0.3745097 -0.11621617 -0.030908749 0.08153406 0.11650865 0.10336384 0.16822906 -0.0026061349 0.23856276 0.28931278 0.092754945 0.30483246 0.17235808 0.30450362 0.31292748 0.22072044 0.25177363 0.30676702 0.30046353 0.29654393 0.31329829 0.07070291 0.066926435 0.3710712 0.15356696 0.12993611 0.17310598 0.30653927 0.35638118 0.22486368 0.2513304 0.29751348 0.06061316 0.28664666 0.123505615 0.25371817 0.38709673 0.3849468 0.23626262 0.12147834 0.16240792 0.24609974 0.2151855 0.18660149 -0.012501389 -0.0003895387 -0.023916282 0.23474991 0.2737358 0.19772254 0.21027957 -0.073090434 -0.24475104 0.20929265 0.15822697 -0.16742176 0.17568052 0.17945415 0.25015765 0.09820332 0.3494073 0.43397653 0.22471489 0.09225175 0.48978472 0.49529833 0.5084953 0.6795881 0.52789295 0.613621 0.5080585 0.5001132 0.48487806 0.098976955 0.4232629 -0.14307597 0.30501667 -0.06538275 0.12540722 -0.017402887 0.115918264 0.0962862 0.120073035 0.037556425 0.22657186 0.29522395 0.0679553 0.32165375 0.3253383 0.3288981 -0.1528127 0.30902457 0.37618548 0.29877236 -0.049864233 0.33654535 -0.034377493 0.3614388 0.35126215 0.34871787 0.3584917 0.35166872 0.39013243 0.3010527 0.32835093 0.4319429 0.25664848 0.2908903 0.3179555 0.27823567 0.27750078 0.23506062 0.3849011 0.39214608 0.2730134 0.2399537 0.28075734 0.2834428 0.33262122 0.24288413 0.32779545 0.37984553 0.23025969 0.28600752 -0.39464656 0.13334641 0.14667827 0.13875745 0.40761817 0.3322208 0.21208788 0.19310331 0.5102092 0.2944389 0.38821983 0.5170511 0.52302945 0.23069921 0.37700066 0.48824602 0.47723573 0.45892614 0.40975899 0.35284656 0.05317313 0.2811356 0.23593839 0.05580259 0.16971149 0.16838574 -0.32678968 0.26717323 -0.303267 0.31637898 -0.08084558 -0.025576584 -0.050223313 0.32314986 0.37303996 0.45262045 0.13390452 0.09366237 -0.080537915 0.3112227 0.3188991 0.30231008 0.27262902 0.33333102 0.6672303 0.33981186 0.38149717 0.7433941 0.42612284 0.51793605 0.47794348 0.47091043 0.4631133 0.4537232 0.5100171 0.45494413 0.3509191 0.34901175 0.39591452 0.4441315 0.4969409 0.3778897 0.2700063 0.29609272 0.39657247 0.44294795 0.36912504 0.30319124 0.40111318 0.43837345 0.43833202 0.37673718 0.2812274 0.3581443 0.38051638 0.10228941 0.10553105 0.08721041 0.31703043 -0.01930008 0.3291779 -0.4575959 0.15242372 0.49256322 0.0893206 0.442486 -0.36461595 0.4315883 0.40314877 0.40194923 0.06799202 0.38114834 0.37377152 0.3641034 0.07373436 0.3224074 0.07086569 0.24526297 0.29231566 0.06663004 0.1705732 0.34504658 -0.24565604 -0.27709797 -0.045214795 0.35817918 -0.1433107 -0.12906745 -0.15100901 -0.14961769 0.25026688 0.5320644 0.5105922 -0.055427313 -0.06719292 -0.09250299 -0.11247589 0.30126035 0.50498754 0.45593667 -0.025016073 -0.08979018 -0.115494475 0.34114027 0.1507676 -0.004792936 -0.10773126 -0.119696155 0.4074592 0.1939381 0.03294555 -0.03243769 0.317964 0.36280835 0.2038909 0.1692218 0.6432222 0.33485043 0.2994216 0.77802014 0.7560281 0.7260817 0.46590126 0.44091073 0.69429904 0.62585485 0.52603036 0.51948047 0.48623136 0.53682643 0.54333264 0.5074982 0.42165408 0.45469743 0.54569525 0.5593958 0.42705002 0.35544923 0.41374075 0.44986024 0.47276568 0.51264316 0.47308657 0.3983101 0.5491304 0.3598623 0.43638253 0.45362827 0.45188722 0.4018177 0.34705025 0.3340313 0.44401675 0.45282665 0.35089445 0.293513 0.32787886 0.19676174 -0.3691077 0.1334811 0.42710805 -0.4999782 0.41934824 0.42819542 0.395112 0.40118796 0.38855207 0.40221614 0.39296997 0.37424293 0.53095883 0.40368497 0.18936379 0.48671228 0.60365295 0.70392215 0.3807664 0.38493812 0.3120757 -0.012527235 0.02813802 0.47591424 0.60213363 0.38225287 0.03538987 0.34117046 -0.020146443 0.58215284 -0.38583127 -0.11162183 0.050067056 0.5915933 0.28278124 -0.14868718 0.12024966 0.6590414 0.32042804 -0.039216574 0.30314273 0.66004074 0.66263866 0.64589036 0.32477307 0.29695463 0.3811832 0.06620053 0.43282518 0.42574927 0.08932434 0.029009812 -0.1346022 0.21273404 0.21061414 0.31594098 0.5691582 0.30151173 0.7499219 0.716548 0.3157181 0.8050095 0.40200138 0.36734462 0.7830452 0.7633594 0.5852866 0.47263294 0.44071275 0.7355621 0.69037 0.66356146 0.5820106 0.50508773 0.5456502 0.51818603 0.5675951 0.5521237 0.51732635 0.4037622 0.37238175 0.43943352 0.46844316 0.48140228 0.5512057 0.5686171 0.3723712 0.39185265 0.4394295 0.4766705 0.46940765 0.3792265 0.4733232 0.3840977 0.43516946 0.4354732 0.41852477 0.40560746 0.3028729 0.37373823 0.33203945 0.29925194 0.41458616 0.2905914 0.42076677 0.41453147 0.04316171 0.20718971 0.15058167 0.22225058 0.44116336 -0.5010101 -0.2690867 -0.057803046 0.1422091 0.4275111 0.44112256 0.1220631 0.17499977 0.40864542 0.4263693 0.3837384 0.38193488 0.34132332 0.6200684 0.601534 0.36658114 0.23713145 0.7125765 0.7371247 0.30891016 0.25572982 0.21025403 0.13787758 -0.17907736 0.74784184 0.3109864 0.2649678 -0.04215103 0.63870096 0.69565815 0.359358 0.27549618 0.122823045 0.18499678 0.14503413 -0.10409824 0.18027176 0.6137872 0.26433665 0.64619356 0.50119954 0.21261188 -0.58316016 0.029234214 0.6997583 -0.32181326 0.10668609 0.7025337 0.71397996 0.5603286 0.5095153 0.15379594 0.6995184 0.70025647 0.6634633 0.5677886 0.45795304 0.12689747 0.19592486 0.21561033 0.27639467 0.33563912 0.21688557 0.7324943 0.5623046 0.8325314 0.82835925 0.72716534 0.41117197 0.80648935 0.7738336 0.74946976 0.72176015 0.52666336 0.7510319 0.7390922 0.70056045 0.56499845 0.5510603 0.501