# vtk DataFile Version 2.0
Really cool data
ASCII
DATASET POLYDATA
POINTS 5126 float
28.36854 11.021739 11.63413
28.32411 10.900249 12.330054
28.323044 10.9523115 12.927528
28.291704 11.457591 11.965068
28.085135 11.7126665 12.8298435
27.925158 11.903219 13.328316
28.12847 12.006013 14.010563
28.241652 12.144017 12.214857
27.866692 12.563904 12.892869
27.787823 12.487686 13.55184
28.038534 12.524406 14.13359
28.045853 13.190048 12.932374
27.955984 13.212417 13.428316
28.146147 13.238571 14.062404
28.24892 13.646535 13.551366
29.206236 10.223474 11.245275
28.93274 10.101547 11.669166
28.755894 10.309414 12.3444195
28.973534 10.769022 11.084693
28.63953 10.549117 11.685445
28.556576 10.496216 12.428415
28.76246 10.9458065 13.610308
28.746643 11.314741 11.207155
28.58236 11.558831 11.500941
28.451145 11.854235 14.154747
28.948019 12.1319275 14.6979
28.94774 12.053036 11.273219
28.713839 12.092175 11.50488
28.49004 12.512225 14.536311
28.963377 12.532681 14.7545185
28.985994 13.249451 12.036439
28.490616 13.461211 12.67837
28.559235 13.359738 14.38671
28.820194 13.158247 14.65518
28.852667 13.835888 12.952822
28.640558 13.851772 13.483774
28.825964 13.84469 14.048369
30.090393 9.253196 11.497586
29.801905 9.748395 10.940257
29.674873 9.539043 11.349966
29.700571 9.711134 12.756033
29.798267 10.148712 13.451826
30.112207 10.274566 10.372662
29.503834 10.355673 10.800637
29.580162 11.447957 10.728538
29.937864 11.977774 14.831391
29.457706 12.059474 11.041086
29.475376 12.572761 14.884122
29.700098 13.391846 12.0442295
29.641249 13.353971 14.79304
29.514603 13.884601 12.656943
29.555557 14.136152 13.543304
29.544935 13.926511 14.243598
31.303131 4.225658 12.700556
31.335861 4.228303 12.921445
31.18656 4.7070904 11.778988
31.140596 4.5035005 12.491027
31.212425 4.662884 13.105207
31.197048 5.2261195 11.720108
31.04432 5.2671995 12.528878
31.18326 5.0986276 13.066431
31.376589 6.4025908 13.910852
31.432266 6.535378 14.377136
30.51436 9.231576 10.829012
31.045538 8.819504 12.207061
30.694519 9.826654 10.215589
30.373533 9.443746 10.599112
30.425743 9.7313795 13.164547
31.244392 10.012251 14.14322
30.666769 10.358642 10.153932
30.632912 11.296613 10.335752
30.746092 12.512131 11.017749
30.735222 12.161039 15.029393
30.580814 12.853082 11.184752
30.592085 13.114556 11.528502
30.675093 13.070761 15.02728
30.242397 13.648652 12.103711
30.399311 13.992808 12.668769
30.379843 14.182259 13.492697
30.577621 14.097079 14.22368
30.933908 13.815001 14.728667
31.766764 4.0045867 11.765025
31.669294 3.9027123 12.609247
31.797998 3.9158676 13.204142
32.191402 4.0104566 14.421817
31.940868 4.6693716 11.099678
31.481596 4.496863 11.510638
31.468584 4.4515843 13.559126
31.781828 4.5818443 14.269777
32.06221 4.864008 15.104475
31.859343 5.30554 11.106495
31.374271 5.091945 11.437753
31.632914 5.6322618 14.483523
31.761099 5.3746223 14.826164
32.215443 5.9521713 16.566175
32.401283 6.012858 17.123045
32.271706 6.7728634 11.682257
32.111786 6.7995086 12.273301
31.531923 6.526259 14.495416
31.773096 6.6888742 15.439615
32.107925 6.4962187 16.401886
32.30914 6.238734 16.931526
31.680508 7.017287 12.612362
31.770494 7.288005 13.505838
31.525362 7.453276 14.311758
31.696648 7.133861 15.09909
32.24418 7.0854573 16.503859
32.356277 6.933509 16.882849
31.315159 9.147475 10.361988
31.357374 8.673567 11.721876
31.89578 8.457773 14.329147
31.322773 9.475456 10.187219
31.989874 9.376566 14.986836
31.531399 10.561724 9.992882
31.818003 10.819263 14.71567
31.410173 11.327931 10.225295
31.091904 12.063818 15.065282
31.661762 12.031196 10.590866
31.625397 12.521538 15.051555
31.556805 13.282369 11.638363
31.510702 13.41971 15.016176
31.25843 13.790102 12.159187
31.33156 14.011997 12.599358
31.604282 14.319134 13.740192
31.484756 14.1525545 14.396031
31.583946 13.898469 14.752484
32.61678 3.447231 12.598153
32.93462 3.3555453 13.361801
32.700756 4.1279593 11.0327015
32.494762 3.7860165 11.553791
32.258644 3.5873063 12.391331
32.391434 3.498705 13.241653
32.57652 3.7413561 14.487657
32.87199 3.8157485 14.969848
32.521046 4.6212726 10.851795
32.983307 4.9272604 16.45848
33.00206 5.233399 17.113937
32.834763 5.269841 10.637754
32.425545 5.415234 16.633776
32.820435 5.637387 17.277119
33.022594 5.85504 17.631819
32.651524 6.2845116 11.000497
32.538307 6.7499256 11.423489
32.60578 6.4814744 17.339607
32.955616 6.277326 17.724438
32.948345 7.500615 11.212128
32.56841 7.526615 16.26542
32.86261 7.1469216 17.374477
32.933174 8.212438 16.038288
32.41717 9.730109 9.963813
32.489098 10.243417 9.906637
32.73112 9.854319 15.345965
32.699894 11.159433 10.059977
32.631508 11.488132 14.750507
32.248795 12.240211 10.712461
32.374058 13.350954 11.819358
32.64393 13.513222 14.599252
32.197456 13.5629015 14.820468
32.253056 13.736971 12.206098
32.531166 13.86234 12.719576
32.186184 14.170408 13.537261
32.15065 14.027051 14.381718
32.090946 13.839744 14.724065
33.577774 3.3759208 12.690383
33.33205 3.320961 13.895532
33.287327 3.4129622 14.3958025
33.42585 3.9012375 11.0969095
33.420547 3.6542628 11.469164
33.63616 3.9456482 15.3663645
33.620667 4.834294 10.430149
33.485302 4.572816 10.531439
33.526974 5.1239014 17.39892
34.050095 5.0860233 17.772257
33.62016 5.288352 10.40677
33.24125 5.6502624 10.62377
33.900433 5.9796953 18.294071
33.502926 6.0725684 10.759226
33.365326 6.295447 17.954521
34.282837 6.547797 18.635271
33.724777 7.160952 10.891369
33.563858 7.099397 17.93162
33.45097 8.925585 10.034203
33.504665 8.072232 16.70317
33.639565 7.687195 17.280355
33.346622 9.453093 9.880282
33.74857 8.893494 16.113546
33.660862 10.511226 9.8149185
33.638596 10.34117 15.247246
33.697575 11.586561 10.288663
33.186123 12.33407 14.665613
33.07332 13.196077 14.438188
32.828995 12.978971 14.805114
33.215363 13.670913 12.829071
32.901123 13.933715 13.568802
34.27611 3.3713846 13.259017
34.10476 3.38772 14.109786
34.016563 4.197104 10.790363
34.66466 3.7517164 11.813822
34.356983 3.6261656 12.7947035
34.43847 3.514243 14.25432
34.779243 3.929955 16.113256
35.201218 3.9554243 17.264605
34.023457 4.7468586 10.404331
34.275295 4.3819838 10.655128
34.325874 4.7534285 17.557838
34.961124 4.735973 18.191557
34.685966 5.3417215 18.466854
34.99647 5.994819 18.996359
34.2288 6.3527946 10.881391
34.72773 6.5180216 19.010149
35.16512 7.837015 19.581795
35.25964 7.7143965 19.711693
34.515167 8.588121 10.234245
34.746136 8.509076 16.590137
35.10411 8.098754 19.573565
35.34287 8.558802 19.850218
34.443058 9.960592 9.846455
34.69406 8.665696 16.807646
35.144566 9.062496 17.766115
35.082375 9.118346 18.659967
35.264603 9.053218 19.378141
34.437145 10.42869 9.883665
34.046276 11.305567 10.041349
34.390995 11.540574 10.410618
34.46604 11.7061825 14.008833
34.13933 11.731291 10.468434
34.38424 12.331532 11.634262
34.327206 12.593488 12.193606
33.774956 12.706008 14.28825
34.427334 12.711299 12.751907
34.090096 12.9598465 13.620502
33.83752 13.122512 13.918406
36.305668 -7.930938 12.635067
36.320827 -8.064789 13.159933
36.29288 -7.027184 12.0107565
36.20203 -7.5269113 12.645248
36.206398 -7.5181394 13.26348
36.37412 -6.6029935 11.951935
36.19687 -6.4672513 12.5145
36.224415 -6.495368 13.275154
36.367683 -5.5881557 12.077733
36.24504 -5.6502256 12.532089
36.334118 -5.7604575 13.2619705
36.344173 -5.157088 12.802564
36.416813 -5.1817074 13.060157
35.586422 3.3699985 16.951557
35.871056 4.2919226 11.242078
34.9748 3.5017161 13.804373
35.89565 3.9744215 18.382414
35.477283 4.8566656 10.857778
35.569565 4.6457586 18.63491
35.85 4.8849306 18.98065
35.483074 5.523123 10.744304
35.268505 5.219455 18.964382
35.768135 6.971231 10.760723
35.486202 6.6951203 19.39861
35.674423 8.135571 10.262401
35.62319 8.376747 20.006845
35.283905 9.453778 9.9515705
36.028202 9.553959 17.236088
35.488815 9.743189 18.555977
36.00385 9.633603 20.111258
35.486042 10.419927 10.227863
36.08503 9.973444 17.666592
35.911587 10.409708 18.682137
36.00589 10.407028 19.433939
36.078003 10.335829 19.838667
34.9258 11.164351 10.240231
35.425133 11.5639715 12.900198
35.429504 11.226773 13.84428
36.260803 10.717765 18.752604
36.207516 10.725427 19.33449
34.65086 12.352384 13.388425
34.842445 11.787497 13.820547
37.20299 -8.86485 12.104461
36.92183 -8.776497 12.703941
36.910664 -8.687404 13.324235
36.929256 -8.268094 11.894238
36.60476 -8.366383 12.581853
36.59789 -8.357471 13.4703045
36.804043 -8.182924 13.883003
36.59837 -7.4826617 11.758875
36.68357 -7.5331926 14.004943
37.081673 -6.3821225 11.048724
36.576595 -6.7080994 11.650929
36.445583 -6.643829 13.674043
36.476723 -6.6917825 13.805256
37.041008 -5.6593623 11.115395
36.67676 -5.5217094 11.595095
36.53652 -5.5208263 13.496638
36.63094 -5.7091746 13.748287
37.325615 -4.9191656 10.94072
36.95743 -4.846664 11.6355
36.587105 -4.8546543 12.563369
36.631683 -5.0087867 13.235737
37.216255 -4.1685033 12.321291
37.45557 1.5460709 17.656775
37.330597 1.7127401 18.944313
37.323463 1.912218 18.975609
37.055775 2.7225175 15.840146
36.565804 2.8568826 16.610746
36.855164 2.7171714 17.222261
36.688385 2.887013 17.991684
36.353615 4.2405295 11.224006
36.66936 3.642262 12.272547
36.766438 4.956534 10.407104
36.62556 5.258962 10.418804
36.627964 5.0765877 19.352476
37.03347 6.4484606 10.257771
36.559383 6.7664266 19.645695
37.014236 7.706118 9.852031
36.66357 7.9039254 20.357111
37.030544 7.9950066 20.605915
36.97478 8.697805 9.709178
36.33383 8.533594 20.41463
36.480965 9.448712 9.855077
36.17061 9.194439 15.818247
36.34311 9.58279 20.39242
36.90077 9.756617 20.65775
36.427807 9.880464 16.827814
36.723373 10.432175 20.305027
37.02908 10.111237 20.729515
37.477497 11.680232 4.5585175
36.502655 10.6176 18.136154
36.712376 10.918278 18.648592
36.52766 10.857448 19.45282
36.922062 10.756985 20.065384
37.396275 12.570391 12.0776205
37.84427 -9.145021 11.848406
37.822723 -9.330672 12.419232
38.044918 -9.427683 12.9908
37.72123 -8.098613 11.002166
37.39976 -8.527466 11.548825
37.472496 -8.227659 14.134134
37.696613 -7.3215017 10.760499
38.08634 -6.2876225 10.392586
37.630478 -6.2252564 10.623704
[...]
POINT_DATA 5126
SCALARS features_00 float 1
LOOKUP_TABLE default
0.6445124 0.65432537 0.67685366 0.67026436 0.7581363 0.8378643 0.86701393 0.7465239 0.8918439 0.9285563 0.9137485 0.9384532 0.9703562 0.953538 0.955348 0.599547 0.60246104 0.6162561 0.6130022 0.62519014 0.628189 0.6780451 0.6315225 0.65269196 0.820567 0.7652104 0.6515317 0.67515695 0.86239576 0.7973504 0.73203427 0.8714397 0.9187577 0.86247253 0.84221494 0.9155551 0.9231051 0.5257586 0.559474 0.55340755 0.58850133 0.5501932 0.554898 0.581172 0.60590315 0.59331065 0.62861407 0.7237706 0.5961824 0.7762557 0.7124002 0.825503 0.86235887 0.6709586 0.63524973 0.77963114 0.70044273 0.5807495 0.75376165 0.6459754 0.54978573 0.38824528 0.35116825 0.52113515 0.45247853 0.532519 0.53452706 0.513839 0.18467928 0.5368794 0.5567197 0.47114077 0.5332993 0.46932495 0.4637261 0.64310956 0.53215754 0.6055453 0.752571 0.7608503 0.704122 0.78245914 0.67780113 0.5958034 0.5247506 0.7426737 0.79555047 0.5426723 0.49437362 0.43918562 0.66872203 0.7619827 0.39537627 0.40226775 0.43914354 0.4444968 0.4869566 0.5440682 0.34639338 0.36914214 0.45144302 0.45464072 0.48711056 0.35660255 0.28474057 0.3095402 0.4634822 0.46776894 0.48900998 0.42002064 0.2125102 0.4996513 0.12930396 0.48615515 0.3141175 0.48268682 0.49476868 0.4268812 0.53695065 0.42829072 0.6296278 0.49075532 0.5701407 0.6977552 0.681222 0.6704806 0.6456289 0.5464425 0.6932337 0.7607081 0.6949706 0.5830779 0.5221182 0.47797072 0.6687912 0.36441797 0.38085255 0.55409247 0.41450825 0.41276425 0.40928578 0.45902282 0.4461714 0.45301923 0.43022668 0.23805991 0.43418404 0.4624381 0.27298558 0.40488756 0.4219341 0.120656624 0.41628373 0.39133403 0.38658863 0.4619763 0.6112174 0.62648976 0.5394485 0.63034105 0.6866195 0.6444919 0.6461852 0.5550436 0.49614233 0.48116884 0.610671 0.6493492 0.37334353 0.5098858 0.55158126 0.34844613 0.31240374 0.46209496 0.4707873 0.32436937 0.39679983 0.40426826 0.27291912 0.20595004 0.42836684 0.20834982 0.28360778 0.39752474 0.3162892 0.029610902 0.37654 0.123697944 0.40781283 0.47535798 0.56902045 0.5571753 0.62447965 0.6443317 0.46007246 0.44851443 0.49293888 0.4354319 0.46386042 0.4194936 0.14087735 0.18108821 0.45804194 0.4478859 0.28929406 0.25211942 0.25335383 0.21625455 0.26550603 0.22332025 0.35414952 0.33615905 0.088624656 0.093003556 0.3931474 0.4615447 0.31434238 0.11255692 0.30675602 0.49040633 0.5386684 0.34193563 0.39081347 0.38348487 0.30859053 0.40051228 0.51163656 0.49261358 0.46430695 0.44102272 0.45243046 0.48644167 0.7067964 0.72563636 0.65683854 0.69887173 0.7102766 0.63443494 0.6467345 0.6460525 0.6063659 0.6135849 0.60423887 0.59456074 0.5871551 0.09435618 0.24502565 0.36622068 0.20620207 0.2518145 0.22965527 0.21582706 0.1697784 0.22325414 0.01715696 0.22575161 -0.012573782 0.42582124 0.16438258 0.38826555 0.53570294 0.5444209 0.26357114 0.48688993 0.5758155 0.5951779 0.58407706 0.35649812 0.26023835 0.22558416 0.59147316 0.6047651 0.37308875 0.31079352 0.6928631 0.71410525 0.7391664 0.6817328 0.70950675 0.74049556 0.7405952 0.6540457 0.70046777 0.5197239 0.61200917 0.6337111 0.6266626 0.50433385 0.5699997 0.5650754 0.54480135 0.45677757 0.5479764 0.5861795 0.5618038 0.53513014 0.075588524 0.20434958 0.20934418 -0.0439167 0.011477053 0.013595082 0.053032275 0.19778302 0.09356597 0.052052528 0.062234677 0.124319956 -0.0007363297 0.17007183 -0.019910023 0.29492807 0.2733316 -0.013514459 0.40912825 -0.008678511 0.09161611 0.51885724 0.5105171 0.4005106 0.56350905 0.5260415 0.7330924 0.56454754 0.60336065 0.60434085 0.5761573 0.42893153 0.6651618 0.6712034 0.66181815 0.63287306 0.67661303 0.71949637 0.5392843 0.43891382 0.45550677 0.4191113 0.41579536 0.42545453 0.31262246 0.41090676 0.42283562 0.4538486 0.39442176 0.40941748 0.48338586 0.5150999 0.5772064 0.35406852 0.08760068 0.4962451 0.66953945 0.73366606 0.08881313 0.082525045 0.0831231 0.5973067 0.70843744 0.7404258 0.099516846 0.5765574 0.6544053 0.71123815 -0.04150788 -0.021018546 0.056523673 0.12880509 0.15973637 0.19387563 0.23979098 0.43168342 0.2600308 -0.09438876 0.017116368 0.08253727 0.2855962 0.42215002 0.4060874 -0.13572477 -0.14572258 -0.28027087 0.28868687 0.29287907 0.31969476 0.2781972 0.26356965 -0.09124379 -0.049534786 -0.15394814 0.040519487 -0.022754693 0.15490192 0.0059376135 0.3717618 0.06494259 -0.05016908 0.26047277 0.47264546 0.86566347 0.8682344 0.8326577 0.7631397 0.6872007 0.09988226 0.09992154 0.37893522 0.54592884 0.5122848 0.8657124 0.87309134 0.86568093 0.758692 0.67399955 0.6065388 0.0884194 0.5241993 0.63077295 0.58210135 0.54920757 0.5281632 0.82995677 0.7997817 0.7722338 0.67291284 0.60429555 0.24955478 0.4533168 0.48524153 0.47122937 0.6489532 0.50312376 0.4301073 0.2823645 0.34558254 0.42546853 0.47233474 0.32235232 0.40205044 0.53378373 0.59521824 0.6052545 0.6124983 0.61124206 0.5898738 0.6449573 0.5725614 0.67293924 0.49736643 0.53002614 0.49461037 0.4333617 0.007308215 0.013142385 0.41014498 0.07922272 -0.08918513 -0.05585693 0.40914285 0.046878353 0.38730055 0.35313037 -0.0043050274 0.019516282 0.07378268 0.10256091 0.11837694 0.16901866 0.24526505 0.4815798 0.6137831 0.23037049 0.2282038 0.26528376 0.09212575 0.09294866 0.099496186 0.12904255 0.7247255 0.7625488 0.18545863 0.04549755 0.07426629 0.062458556 0.16614349 0.7504662 0.77321583 0.283476 0.25078028 0.108434275 -0.03520166 -0.17591575 -0.044405334 0.14189376 0.70601344 0.7537483 0.40862206 0.3208535 -0.039219223 -0.1550668 -0.08724789 -0.0008549541 0.20509076 0.36328477 0.5689707 0.4257 0.43126422 0.38031214 0.26230153 -0.12805627 0.22041649 0.39838582 -0.15307459 0.23604175 0.37893945 0.25293306 0.18253802 0.17568067 0.10549394 -0.09779577 -0.032510355 0.08342893 -0.06887723 0.09595513 0.20456354 0.20473312 0.053586334 0.3367735 0.25829482 0.7807538 0.7410523 0.69365436 -0.028906107 0.23373342 0.46807486 0.42579222 0.8403324 0.8300586 0.74666023 0.67943096 -0.022689708 0.32995892 0.3673656 0.4983439 0.46709687 0.84805137 0.49665356 -0.10863222 0.44078404 0.41762507 0.47576934 0.5873005 0.5376882 0.5201301 0.7703939 0.73349226 0.19660178 -0.037639074 0.4373467 0.61778927 0.5460313 0.3007315 0.13837467 -0.040391356 -0.10447489 0.1301229 0.42091465 0.42496866 0.43799496 0.31799376 0.26338026 0.12553969 0.05976775 -0.021612756 0.059349142 0.1776948 0.41300583 0.25543308 0.22455797 0.19709282 0.15035406 0.22005685 0.31865886 0.2768448 0.24449092 0.36181006 0.48539087 0.32352617 0.38403878 0.29072723 0.28452462 0.41672993 0.5105383 0.54858816 0.5220741 0.369175 0.39754093 0.30888462 0.38287425 0.56564677 0.6094211 0.5662186 0.46163428 0.49079835 0.56890035 0.60835105 0.55889606 0.69672585 0.70868623 0.70459336 0.5502542 0.54181576 0.47459123 0.5978207 0.64203894 0.6612257 0.634259 0.5730983 0.55604756 0.5802008 0.54987735 0.5592705 0.5135907 0.54505783 0.27187935 0.414096 0.45620054 0.41576353 0.4907584 0.2225193 0.4607734 0.4410436 -0.012681542 -0.0004705917 0.38346952 0.4300757 0.39789668 -0.1127649 -0.09071007 -0.060636442 0.12558672 0.2839577 0.40181133 0.3504824 0.37592018 0.013349449 0.07221719 0.18752094 0.34391516 0.27889726 0.6935059 0.18314934 0.11754432 0.70551157 0.66847473 0.32121933 0.2717829 0.67481947 0.407061 0.37361854 0.59914005 0.6199933 0.21050702 0.42010242 0.42163914 0.2378658 0.22072147 0.40464222 0.35368654 0.15035683 0.17116469 0.32725987 0.08632762 -0.17606324 0.047955535 0.1618901 -0.08496618 0.2924439 0.2827728 0.39743802 -0.073806986 -0.13522503 -0.07513 -0.055346653 0.34990174 0.74910766 0.6026677 0.5656792 -0.033767313 -0.17722537 0.14643514 0.41522938 0.7949103 0.7432887 0.28002515 0.27887487 0.46585858 0.4445855 0.8280503 0.36107767 0.3281703 0.48205844 0.51931137 0.4927475 0.6719426 0.5352258 0.55018735 0.3968259 0.46239614 0.42943448 -0.103177324 0.037150443 0.2461127 0.26916313 0.04547131 0.20039555 0.13588625 0.34890297 0.30203766 0.43610972 0.3985088 0.38196996 0.4868826 0.4788636 0.4869889 0.43320286 0.59229136 0.5754528 0.4924393 0.56706613 0.5618485 0.5274205 0.6628296 0.6610552 0.63481456 0.7071377 0.73719823 0.7293476 0.7215158 0.39191964 0.70123196 0.6315838 0.5185352 0.5078918 0.38143206 0.58654886 0.4749682 0.48820156 0.46534133 0.5588694 0.58087534 0.47145706 0.4520383 0.46031258 0.54072523 0.5741914 0.42837673 0.23391232 0.29725325 0.4685091 0.5193856 0.330319 0.29644072 0.29827237 0.24970765 0.27368942 0.1831483 0.32111832 0.5751572 0.08645512 0.18358117 0.6356302 0.1533109 0.65180457 0.24236023 0.6223202 0.6415837 0.38092667 0.50102216 0.57912314 0.15724654 0.6798754 0.44008344 0.7025246 0.4249135 0.01753895 0.29132026 0.4050287 0.04903411 0.467924 0.04293123 0.50346935 -0.008498281 0.5106046 0.36225894 0.18643543 0.024457827 0.35589945 0.54872006 0.39907393 0.076157704 0.13947709 0.3659991 0.26676497 0.25915366 0.40870905 0.6002862 0.30446476 0.5173941 0.41726333 0.20162141 0.16623683 0.06495296 0.44483584 0.4739204 0.29020268 0.2921111 0.5252941 0.36958265 0.5851228 0.61880386 0.44881883 0.45691633 0.40518743 0.6729288 0.6752951 0.6330698 0.53537965 0.43944144 0.65973514 0.5989224 0.6417804 0.7519932 0.77298355 0.7619261 0.44359195 0.7272788 0.2871248 0.6583758 0.57415235 0.34501636 0.5318306 0.5162057 0.57692426 0.61429757 0.39252803 0.25768906 0.34615055 0.41363478 0.60239077 0.6065312 0.32545817 0.513278 0.55973864 0.2457492 0.10692181 0.31594265 -0.029961929 0.09019165 0.63151836 0.10293725 0.6231266 0.6266568 0.45672464 0.15471727 0.5665703 0.47922805 0.50389373 0.5248578 0.54983985 0.23067704 0.09991108 0.4496805 0.50572664 0.53329086 0.5527031 0.62095547 0.63757443 0.6017255 0.2243873 0.10412902 0.5826621 0.6233811 0.6888729 0.6604934 0.37015715 0.0599346 0.6574125 0.70105565 0.7324114 0.716986 0.6758565 0.3877375 0.10760051 0.77077144 0.7615378 0.20003533 0.4921931 0.19194461 0.5334221 0.09936334 0.5688009 0.5703277 -0.025591254 -0.03067252 0.5478921 0.25138307 0.19108424 0.14003527 -0.06463982 0.36682987 0.48391744 0.3682049 0.09601237 0.14007065 0.21959078 0.59328926 0.54432344 0.18937063 0.13381359 0.070363894 0.5636087 0.4613315 0.110726416 0.16525765 -0.048246704 0.063602775 -0.077594295 0.040723994 -0.016662054 0.15122561 0.29782367 0.23288834 0.40201208 0.45024502 0.33099252 0.30098817 0.51972306 0.31735462 0.30959788 0.61117077 0.6398928 0.6423984 0.544176 0.61606395 0.605067 0.7928432 0.78194076 0.73658615 0.715749 0.3263461 0.60575545 0.5721382 0.593239 0.70100915 0.24571079 0.39684975 0.47953624 0.49851 0.66564894 0.7046002 0.645784 0.2571334 0.36422077 0.19519809 0.5107316 0.45579076 0.17167085 0.32876277 0.4210168 0.42053664 0.3773503 0.15053613 0.35263848 0.3538841 0.36754578 0.52557635 0.403866 0.39298147 0.4013752 0.39621022 0.42386556 0.018668428 -1.6540289e-05 0.4942392 0.4445367 0.4415775 0.13716215 0.0629382 0.5061445 0.50494707 0.14244395 -0.04680969 -0.039846875 0.5599649 0.57673407 0.29419723 0.030274153 0.6191337 0.64068115 0.65199727 0.275658 0.055236794 0.74964744 0.7846129 0.7593969 0.6980057 0.247922 0.4886135 0.19082794 0.5474087 0.57707214 0.57910174 0.005813122 0.5696986 0.17497483 0.0673157 0.5046025 0.23996753 0.1503484 0.009434186 0.23583205 0.4634765 0.0950877 0.15798707 0.2232756 0.112268664 0.11759949 -0.056078397 0.12416092 0.16843535 0.23530315 0.21321958 0.4062743 -0.05502169 0.029530987 -0.007691793 0.0074434727 -0.003048554 -0.022378542 0.07530754 0.16055016 0.029606044 0.200322 0.09049678 0.341051 0.38587874 0.45499188 -0.11600073 0.16651271 0.5909308 0.40211958 0.36037073 0.10671336 0.5355344 0.6049719 0.70598024 0.8078792 0.78845775 0.27951255 0.28047106 0.45124263 0.76209545 0.75445807 -0.19930735 -0.2694164 0.14026159 0.20079786 0.6976951 0.6929706 0.4378677 0.39756483 -0.22331919 -0.12241626 -0.28509605 0.61134696 0.6485486 0.48258576 0.4866054 0.4583542 0.4513752 0.51197827 0.45997363 0.46872175 0.28797632 0.41037655 0.42624253 0.21211037 0.3239578 0.34676814 0.36061972 0.33060718 0.40213183 0.35948306 0.3290897 0.29583302 0.43448037 0.41196877 -0.15704894 -0.06136522 0.44766545 0.4318472 0.45578116 0.0012541637 -0.13067695 0.513545 -0.6218561 -0.115443334 0.57339 0.6015929 0.5791317 0.6458733 0.68929255 0.63005924 0.64755 -0.10605186 0.057365455 -0.07232745 0.12576461 0.32199 0.2203152 0.20076138 0.4814586 0.51524603 0.44904393 0.5179981 -0.10729479 0.39484715 -0.01724723 -0.23029736 -0.28338006 0.16314991 0.9180386 0.8366507 0.72506905 0.5640265 0.35895988 -0.07808523 0.12576036 0.9343598 0.9142271 0.8532897 0.6802645 0.5121707 0.4181252 0.3755616 0.04616414 -0.16152109 -0.06405307 0.05021265 0.14975514 0.92441905 0.881023 0.81859875 0.6362541 0.4459023 -0.019143954 -0.047452264 0.09802568 0.23214 0.2128516 0.85573876 0.77674234 0.67447734 0.09233287 -0.06204574 -0.014240138 0.08127989 0.06629804 0.034182206 -0.054394923 -0.064831376 0.08713932 0.03647802 -0.036869936 -0.06945405 0.17321599 -0.006136611 0.23290238 0.24736187 0.13995966 0.26268062 0.15102047 0.22364801 0.3727639 0.42866158 0.33322698 0.4710675 0.49300247 0.48174077 0.48156348 0.51502573 0.77214205 0.8242179 0.8776967 0.8487303 0.094823994 0.81896424 0.78242004 0.35366008 0.3001909 0.2830589 -0.11397028 0.05469568 -0.14032142 0.1977514 0.7218316 0.35736543 0.383707 0.3898933 0.20481463 0.14511707 0.6248212 0.66537756 0.454068 0.4691389 0.5172185 0.26241952 0.3266065 0.38353544 0.11798526 0.21690273 0.3711637 0.31329548 0.2679155 -0.028674036 0.05622454 0.42359415 0.40639752 0.22508365 0.08312251 0.10442724 0.4350146 -0.41784894 -0.27269098 0.4435574 -0.39608467 -0.29348803 0.20711489 0.50242877 -0.016145766 -0.593799 -0.7880003 0.2236316 0.52715874 0.51164246 0.5440814 -0.030464841 0.5030291 0.5723493 -0.18274328 -0.37123963 0.0002894923 -0.23860511 0.026846096 0.062026553 0.002033095 0.3405631 -0.01070042 0.20676681 0.25641328 0.11025563 -0.4520378 0.85548997 0.7261973 0.57652056 0.5013311 0.29240882 0.1218312 -0.118449286 -0.44787768 0.9707556 0.90486515 0.79245687 0.39990428 0.08903312 -0.041573763 0.091649994 0.96299434 0.12640226 0.07778678 0.91600657 0.89000094 0.49288693 0.36995038 0.30086976 0.08713109 0.1365071 0.07448587 0.8581896 0.76080096 0.60442865 0.40765166 0.39603 0.20045727 0.0069370447 0.11438164 0.11460863 0.09569911 0.09730411 -0.04408607 0.035999045 -0.024720488 0.12557745 0.09267967 -0.0054565743 0.21838307 0.3819065 0.30437496 0.427059 0.46962363 0.2610014 0.47841996 0.10158582 0.13394418 0.44648957 0.267556 0.22236818 0.34036314 0.51769847 0.48918992 0.23970817 0.42134717 0.4759148 0.5140911 0.524562 0.674199 0.6149838 0.689749 0.5723207 0.62263477 0.60396934 0.6022009 0.71045387 0.7892177 0.8244358 0.82759947 0.87604266 0.86312824 0.81189024 0.3871135 0.4684896 0.6618207 0.8162259 0.8112273 0.89249074 0.91418284 0.91133213 0.76951814 0.31060344 0.29454538 0.23315993 0.20513284 -0.011339381 -0.26047924 0.77859384 0.7712033 0.7723794 0.8289352 0.7419051 0.27598011 0.18937713 0.10271451 -0.13031787 -0.060641788 -0.26314777 -0.32969528 0.3648576 0.643183 0.72855395 0.12909451 0.42286807 0.4894228 0.2205142 0.30970365 0.3381687 0.2570868 0.13777879 0.33292097 0.09179625 0.38023597 0.1914075 0.35028303 0.22793838 0.37537318 0.3648927 0.3372121 0.31097436 0.38721013 0.230942 0.4347744 0.34371972 0.3341633 0.02510453 -0.07400188 -0.04406081 -0.01693948 -0.07100475 0.00017395616 -0.1598905 -0.19185223 -0.017382324 0.37689626 0.21919817 -0.22401088 -0.26205304 -0.0050550774 0.36981648 0.27158168 0.05331004 -0.29603112 0.06269923 0.7265015 0.6710062 0.5172704 0.32664838 0.2893688 0.22008178 0.13994929 -0.032569785 -0.04364302 -0.4717936 -0.44341478 0.07471595 0.077171534 0.85822165 0.7965093 0.7042724 0.6171494 0.37445995 -0.15376633 -0.5632844 -0.44582698 0.12709007 0.9482163 -0.13171132 0.11268043 0.97120905 -0.00201777 0.908944 0.059018984 0.85489386 0.74961424 0.4654556 0.31859338 0.11198714 0.0007661581 0.021667518 0.5648881 0.485031 0.3770488 0.06539857 0.0032592267 -0.096472085 0.2618904 0.2848153 0.35040024 0.43845338 0.48684242 0.4932453 0.286685 0.47787616 0.50653213 0.50940144 0.50680244 0.296854 0.49650806 0.29357934 0.42550635 0.29676706 0.3018724 0.2804031 0.22317852 0.23630893 0.44212618 0.45872143 0.4823147 0.761726 0.7928388 0.8055339 0.7947773 0.7271776 0.77107537 0.7340709 0.54702973 0.6226461 0.6879135 0.51526606 0.45912308 0.78891444 0.7679644 0.6753144 0.80691475 0.85248864 0.8275881 0.6913855 0.50496346 -0.14634143 0.14671329 0.6976234 0.7597375 0.79330087 0.79353845 0.79329383 0.8420836 0.48576313 0.1883061 0.19706014 0.16668212 0.18763226 -0.10557123 -0.06480554 0.48967505 0.75180763 0.7649066 0.7679559 0.7124648 -0.067850165 -0.29299957 -0.26960412 0.3426282 0.4241233 0.6130868 0.68529356 0.64892995 0.60853374 -0.16379674 0.09682326 0.24543169 0.06050034 0.058689974 0.25891137 0.3366326 0.26998967 0.24891566 0.16842744 0.21865469 0.22098091 0.3060392 0.26922762 0.2866755 0.3286518 0.22276358 0.33263072 0.24274345 0.13933343 0.1598717 0.043382786 -0.28376734 -0.025197156 -0.059327904 -0.14866665 -0.07846702 -0.08569193 0.23946248 -0.2536038 0.19690135 0.3860203 0.38605857 0.3046416 0.20904867 0.0053590797 -0.31389433 0.24189553 0.32236335 -0.26659817 0.06522635 0.7206516 0.64323235 0.5015156 0.36259183 0.21389815 0.07724666 0.8271136 0.76063657 0.66658366 -0.47915456 0.10703805 0.86092895 0.7972106 0.021653619 0.11326307 0.85384774 0.7574452 0.11534285 0.852919 0.7887511 0.04015743 0.7532473 0.6750503 0.04245368 0.08120877 0.55339694 0.48112392 -0.103066176 -0.16030961 0.10253054 0.31640375 -0.0404565 0.41523612 0.38428354 0.12595762 0.11674771 0.47956425 0.17081267 0.49641892 0.49319726 0.2849218 0.32886046 0.46168455 0.47750574 0.2573717 0.2838403 0.32561624 0.26557738 0.30002362 0.11482541 0.32085752 0.3161322 0.2797262 0.29401192 0.8369769 0.8427556 0.78271127 0.81455827 0.8317239 0.8260877 0.61502707 0.7142293 0.7891818 0.7288817 0.5283361 0.65592074 0.39036334 0.73210484 0.7042525 0.51453567 0.38011327 0.36672518 0.315252 0.7808485 0.36870068 0.26444292 0.20036912 0.704091 0.1781961 0.111652695 -0.0749777 -0.12892036 0.46710294 0.57430387 -0.084183715 -0.22930092 -0.15614037 0.39082444 0.08289609 -0.05659543 0.052933186 0.14575733 0.099564396 0.063844614 0.10044794 0.15964344 0.089615226 0.14190555 0.18539524 0.09604508 0.21601474 0.23897809 0.18912984 0.28291094 0.30873024 0.16462898 0.33288813 0.10965951 -0.3385657 -0.35540503 0.095179714 0.04022061 -0.38873488 -0.020316318 -0.23562041 -0.04040283 -0.12384505 0.14876926 0.39009157 0.06436029 -0.31218967 0.27169168 0.34707543 0.35405463 -0.39953744 0.17028242 0.25014868 0.24763614 0.05883478 0.06964616 0.1279694 0.1285835 0.03264901 0.71826285 0.626359 0.42180783 0.21137083 0.0035742894 0.8034103 0.74199903 0.7445053 0.17572942 0.6717283 0.27549243 0.54542977 0.18150008 0.052606743 0.25524902 0.46694553 0.085602686 -0.2342083 -0.018727984 -0.24173337 -0.26034108 0.16386028 -0.18969013 -0.014986664 0.42010117 0.38903442 0.10269033 0.45338106 0.44878852 0.18521744 0.15554304 0.38509715 0.42236194 0.15831661 0.07107254 0.12345706 0.030713178 0.19656155 0.23326778 0.050303634 0.07014542 0.20690413 0.20428617 0.13649051 0.006135987 0.8384123 0.8514757 0.79434526 0.82558227 0.85519814 0.8404863 0.73831874 0.7952242 0.7265914 0.4859078 0.5144185 0.26413554 0.26068553 0.56162924 0.42534 0.30718637 0.2214182 0.2230614 0.20649429 0.60028243 0.1857629 0.08933118 0.073662266 0.5310106 -0.060318664 -0.03873685 0.03471038 -0.14653364 0.39023358 0.12541607 0.14340967 0.16490757 -0.119267456 0.03827717 0.11893815 0.02652295 0.123811536 0.018642746 0.015843295 0.10490343 0.106991105 0.09999681 0.15064278 0.010331273 0.020929217 0.31354314 0.35806373 0.30398837 0.35080752 0.3483128 0.26066557 0.3361662 0.13112524 0.17236598 0.047050994 0.23395823 0.117872655 0.009311638 0.060817763 0.4879804 0.37838137 0.11237478 0.1345237 0.22497883 0.28102526 0.5805664 0.28438932 0.30089644 0.32187322 0.3405325 0.29827058 0.34664026 0.10795825 0.1804103 0.31509906 -0.026697155 0.0063077975 -0.0012592915 -0.0531059 -0.24079405 0.013998821 -0.006662406 -0.031905927 -0.12047213 0.28964865 -0.030495003 -0.074525006 -0.20326519 0.31161827 -0.17564519 0.015926942 -0.08180082 -0.07653