# vtk DataFile Version 2.0
Really cool data
ASCII
DATASET POLYDATA
POINTS 4730 float
24.293425 16.976934 31.678253
24.109123 17.291182 32.33172
24.147234 17.853487 31.034132
23.853378 17.762535 31.7411
23.866966 17.698917 32.259716
24.089064 17.772722 32.872517
24.06565 18.51968 31.070436
23.819044 18.381584 31.602968
23.759802 18.39781 32.429916
23.946157 18.444614 32.90314
24.285679 18.961996 30.956734
24.020685 19.254402 31.69508
23.967756 19.229734 32.372887
24.057236 18.993307 32.80906
24.35814 20.001186 31.77204
24.261866 19.888199 32.066254
25.17318 16.147808 30.947298
24.965815 16.184566 31.281134
25.12066 16.23578 32.348873
24.874065 16.718378 30.803955
24.619396 16.601404 31.53227
24.566645 16.701168 32.147373
24.765768 17.185398 33.19293
25.100285 17.614424 30.264692
24.673183 17.578962 30.57311
24.318604 17.336205 32.74396
24.781036 17.382023 33.20259
25.400578 18.029926 35.249756
25.037926 18.341228 30.254652
24.542028 18.573412 30.65353
24.72933 19.4616 30.775734
24.670635 19.34456 33.371517
25.01052 20.338804 31.022541
24.62209 20.29341 31.61393
24.742863 20.532389 32.392456
24.851124 20.31664 32.848713
25.112574 20.934328 31.699217
25.002659 20.850052 32.39572
25.687202 15.995397 30.816063
25.502777 15.798287 31.507175
25.419497 15.869359 31.955534
26.021109 16.241154 32.733086
26.11354 15.995137 35.614933
26.228977 15.837371 36.203213
25.777954 16.620975 30.257423
25.417578 16.365284 30.562576
25.32108 16.900732 33.119473
25.749262 17.054785 35.29666
26.077255 16.48242 36.3985
26.232616 16.708805 36.888313
25.606585 17.434664 30.003784
25.597628 17.757164 35.53888
25.975857 17.44251 36.380722
26.194067 17.665237 36.847664
25.636076 18.158142 30.00185
25.525436 18.598715 35.49566
25.80815 18.557436 36.101234
26.220972 18.586878 36.748734
25.37807 19.452795 30.276379
25.296715 19.762995 30.512375
25.861254 19.555635 35.38869
26.3384 19.695822 36.290302
26.044853 19.902824 30.053629
25.440367 20.38473 30.673428
25.777771 20.974997 30.989645
25.56581 21.247353 31.715958
25.46661 21.23811 32.206173
26.152412 23.078716 41.799767
26.154879 23.058516 42.383823
26.321085 23.119144 42.995514
26.184875 23.674614 41.051155
25.879612 23.664186 41.64709
25.91186 23.636097 42.39296
26.212463 23.545189 43.033108
26.134283 24.279768 41.100796
25.93055 24.341755 41.69334
25.969904 24.26018 42.332485
26.155504 24.004274 42.864716
26.24949 24.793747 41.515533
26.263552 24.806099 42.51931
27.411 2.8392131 34.710953
27.386242 2.8557506 35.141876
27.428785 3.2178729 34.682884
27.454382 2.995505 35.54133
27.279657 8.850096 37.885475
27.212564 8.77135 38.580536
27.293156 8.715431 39.140583
27.109934 9.483913 37.84636
27.008461 9.617649 38.402138
27.119434 9.556889 39.39329
27.33546 9.591052 40.088825
27.16653 10.221133 37.913273
27.102982 10.4113035 38.549583
27.060015 10.293567 39.33069
27.26034 10.883739 40.264507
27.248285 11.622378 39.10275
27.171192 11.466635 39.610188
27.332668 11.38589 40.30687
27.223917 12.009463 39.723324
27.343279 11.945359 40.232327
26.79971 15.255764 34.962265
26.976679 15.062268 35.220108
26.963472 15.245186 36.674778
27.289402 15.101688 37.532497
26.282217 16.029778 30.685093
26.289892 15.723322 31.375298
26.434439 15.816507 31.984362
26.602825 15.60924 34.767723
26.57866 15.518947 36.46611
27.138197 15.5641 37.43052
27.457094 15.383347 38.52182
27.442816 15.550967 39.73163
27.464474 15.610409 40.368763
26.264767 16.654299 30.132969
26.927748 16.258333 37.625298
27.40669 16.705872 38.44993
26.542057 17.687857 29.739698
26.575985 17.430424 37.359863
26.997343 18.942064 29.483078
26.65574 18.542097 29.634552
26.72218 18.76811 37.138416
26.370436 19.081568 29.710993
27.214802 19.315998 37.29334
26.69408 20.268072 29.956339
26.57292 20.744156 35.581947
26.655226 20.334417 36.391754
27.399914 20.454714 37.839767
26.821484 20.967937 30.220772
26.946045 21.39419 30.608706
26.30914 21.520096 32.49102
26.63502 21.041845 34.377342
26.746399 21.175291 35.486134
27.170835 21.453194 36.39427
27.208723 22.3594 42.607655
27.163212 22.37089 43.46782
27.139399 21.65666 30.931679
26.973825 21.85838 32.121067
27.289879 21.98501 34.199932
27.316883 21.960257 35.40951
26.456821 22.898527 41.641262
26.596884 22.817757 42.75105
26.752829 22.829035 43.48444
27.05776 22.866165 44.185265
26.708002 23.641804 40.65405
26.6696 23.248018 43.741524
26.89287 23.435032 44.141468
27.216707 23.237543 44.65586
26.690992 24.486542 40.64431
26.630152 24.123451 43.49441
27.214437 24.001337 44.350235
26.547657 24.922083 41.030502
26.720589 25.169289 41.459076
26.38596 24.816494 42.61452
26.852604 24.776999 43.26456
28.461298 -1.8700596 31.614035
28.37883 -1.0664454 28.860025
28.272171 -1.1745572 29.630743
28.361103 -1.2096891 30.524616
28.393276 -1.2806376 31.553356
28.251492 -0.34728432 28.839453
28.05913 -0.59745777 29.489723
28.211277 -0.36288387 30.424917
28.403994 -0.9676376 31.519234
28.071028 0.112274125 29.030136
28.077982 0.22160438 29.596523
28.35293 0.0032131225 30.99201
28.274853 1.0609989 35.046215
28.15573 0.9726568 35.589775
28.253597 1.0453339 36.640697
28.367853 1.1527162 36.84471
28.379587 1.3405552 28.841526
27.892439 1.6607387 34.736885
27.773205 1.741782 35.46287
27.920689 1.7423842 36.312756
28.210833 1.6893034 37.111065
27.662949 2.8776796 34.09606
27.54301 2.4321754 34.55695
27.507256 2.5571148 35.525024
27.787645 2.5620453 36.3367
28.13415 2.5399902 37.04249
28.417402 3.5459652 32.63327
27.963377 3.3256493 33.70267
27.52433 3.4666865 34.550518
27.581482 3.7189648 35.35296
27.975506 3.4066288 36.351482
28.473032 4.235807 32.50348
28.061693 4.122616 33.76122
27.750631 3.9726443 34.609722
27.928888 4.216659 35.590553
28.027264 4.055235 35.88437
28.464428 6.6405454 25.804535
28.438185 6.5196357 26.465124
28.254227 7.291606 38.450855
28.302063 7.3511853 39.079845
28.48145 6.9206934 26.855776
28.429804 7.974962 33.659058
28.42064 7.7590013 34.148766
28.408955 7.9150977 35.14794
28.165724 7.823757 37.802612
28.046059 7.619666 38.609165
28.030167 7.7435284 39.363827
28.203173 8.19705 40.44273
28.227148 8.630416 33.739246
28.202253 8.372273 34.09425
28.194843 8.58951 35.23537
27.84848 9.048501 36.74129
27.434801 8.833023 37.65443
27.429682 8.294021 38.641884
27.558771 8.370039 39.33611
27.867067 8.776408 40.473957
28.128965 8.824052 41.048134
28.343203 9.290062 33.742855
28.120937 9.380836 34.65471
27.50277 9.544276 37.169666
27.630493 9.285441 40.48975
28.085682 9.632819 41.364666
27.890173 10.061347 37.080296
27.481915 10.192504 37.41353
27.581766 10.322514 40.709892
27.703026 10.687984 41.091118
28.236656 10.51774 41.67997
27.54917 10.903457 37.814636
27.56346 11.801223 38.46605
27.563179 11.647946 40.745277
27.849125 11.43048 41.27364
27.735943 12.703032 38.570827
27.545202 12.448094 40.17807
27.974653 12.416716 41.103794
27.930796 13.50138 37.582672
27.565062 13.641956 38.787716
27.693178 13.400674 39.117607
28.102762 13.54533 40.78838
27.463898 14.881597 35.578106
27.612076 14.531908 37.335014
27.563126 14.535488 38.36417
27.658392 14.418214 39.42042
27.769464 14.688028 40.503796
27.987062 14.761992 41.01736
27.149124 16.166462 30.714508
27.236923 16.017717 31.548603
27.960718 15.922764 33.013283
27.546194 15.448215 40.42578
28.00344 15.634065 41.321804
28.270151 15.566901 41.65899
27.425291 16.806765 30.07427
27.525852 16.364836 39.66628
27.623085 16.377842 40.26975
27.94791 16.339275 41.036125
27.595522 17.727839 29.653612
27.685886 17.243725 38.50374
27.92788 17.39326 39.64553
28.11283 16.964262 40.560883
28.120682 16.889698 40.915665
27.530186 18.80506 29.438972
27.512505 18.3025 29.565903
27.965685 18.86244 38.232143
27.606808 19.737545 29.419645
27.314138 19.901712 29.53117
27.559793 19.818583 37.609123
28.09863 19.560843 38.515568
28.178782 20.024933 38.895985
27.68124 20.226719 29.339594
27.642836 20.434837 29.468662
28.078619 20.286446 38.828205
27.707216 21.124754 29.882559
27.538603 21.58287 30.386934
27.512213 21.046076 37.20618
27.81046 21.281332 38.35116
27.586132 22.254337 42.572353
27.7796 22.073927 43.55719
27.503176 22.332712 44.031048
28.045834 21.751858 30.185654
27.668303 21.879854 30.706045
27.637592 22.149057 31.94943
27.891119 22.422304 32.96561
27.504066 22.187906 33.57992
27.530413 22.184631 34.148094
27.631138 22.183247 35.277897
27.602564 21.968899 36.66154
27.854685 21.91888 37.243465
27.23155 22.614622 41.122856
27.473854 22.505434 41.819286
27.515158 22.55476 44.43362
27.762482 22.672983 44.760296
27.982084 22.690353 34.16612
27.749422 23.39679 44.915573
27.907673 24.16672 44.736523
28.021889 25.078775 40.147182
27.903843 25.52075 42.76876
27.3202 25.246675 42.849476
28.166649 26.701153 39.65613
28.225779 25.939646 40.926052
27.917072 27.828568 38.033283
27.849798 27.666195 38.23893
27.986086 28.46793 37.900646
27.66454 28.457588 38.604813
27.7925 28.334785 39.345207
27.810795 28.543882 39.97604
28.374636 28.810867 40.89957
28.066868 29.184168 38.13215
27.976027 29.275269 38.50423
27.939598 29.261154 39.310566
28.091988 29.150848 40.07084
28.195074 29.679674 38.598736
28.247538 29.695604 39.37362
29.266476 -2.7610772 30.538235
29.161076 -2.7520258 31.615538
29.209095 -1.9480788 28.684416
28.731344 -1.8903933 29.645882
28.791576 -2.186169 30.791874
28.780619 -2.3032088 31.498577
28.893536 -2.3194633 32.13044
29.153502 -1.9953172 32.750156
28.985527 -0.8545461 27.871906
28.835009 -1.4327937 28.542387
28.435158 -1.5094194 29.302038
28.479788 -1.6686506 31.838194
28.571333 -1.495467 32.152218
29.013731 -1.5267409 32.822533
28.767847 -0.3104697 27.918058
28.478365 -0.645041 28.431177
28.834524 -0.53762066 32.455036
28.954533 0.28928688 36.258404
29.180422 0.51728386 27.021051
28.657454 0.26027873 31.048832
28.999865 -0.1414566 32.197075
29.361916 0.8283484 33.51914
28.749165 0.6555834 34.87701
28.593552 0.43053168 35.892002
28.614033 0.55000484 36.337795
28.761034 0.9978956 37.1571
29.147833 1.1075715 27.110031
28.836231 1.7740395 27.743673
28.62 1.7853091 28.54972
28.662527 1.4842832 29.036095
28.809864 1.5312538 30.115961
28.734962 1.7360879 33.321163
[...]
POINT_DATA 4730
SCALARS features_00 float 1
LOOKUP_TABLE default
0.72337675 0.6887525 0.7507472 0.7683247 0.73194814 0.6658277 0.72140986 0.777078 0.7612691 0.70037866 0.66293883 0.6991652 0.70146 0.68902993 0.61712444 0.62833214 0.7336314 0.72907233 0.6446773 0.73214793 0.72236764 0.6694515 0.5539011 0.6404216 0.6989882 0.6486639 0.54761344 0.26487437 0.5760689 0.6378741 0.59566593 0.5271058 0.55363303 0.586746 0.5453372 0.50888324 0.52706194 0.50548065 0.7225184 0.71556103 0.6890116 0.56896615 0.36585534 0.33788586 0.68730956 0.72160864 0.52779764 0.29998648 0.3379997 0.30119488 0.6066997 0.2873843 0.2916274 0.24538825 0.52767324 0.26348388 0.25727153 0.21767499 0.50321627 0.5207577 0.2504402 0.24678832 0.42782304 0.50378704 0.47282222 0.474254 0.45543292 0.7835456 0.72869563 0.6854601 0.8307464 0.83020717 0.77470136 0.70481193 0.792433 0.81381 0.7952294 0.73818755 0.76211077 0.76167357 0.4811538 0.5207374 0.46024227 0.5382328 0.48740852 0.51163363 0.49781764 0.47768074 0.50606203 0.51085305 0.4684166 0.43254715 0.4493339 0.46891296 0.41481537 0.32413772 0.36126098 0.386012 0.3120865 0.34001112 0.2806561 0.26832715 0.25398892 0.11586628 0.69147414 0.69083834 0.6509003 0.29820764 0.30042598 0.1853568 0.08753356 0.27350855 0.39275062 0.6584322 0.21273203 0.14494501 0.52488244 0.19813117 0.3920204 0.43007505 0.16585526 0.4126506 0.17075603 0.39692017 0.26093295 0.2578134 0.25388777 0.4045539 0.39603728 0.2990111 0.21878023 0.24621227 0.2690901 0.604748 0.6134477 0.37151062 0.2767613 0.20558532 0.22854158 0.75875425 0.6677841 0.64167875 0.62300164 0.7828822 0.63869643 0.6133108 0.5979535 0.661306 0.66541886 0.5836246 0.68384707 0.66244113 0.74851114 0.6688583 0.53043646 0.5399298 0.5391087 0.5170235 0.48647943 0.51770675 0.5185211 0.48197213 0.46441135 0.49099067 0.4636238 0.43170512 0.49026012 0.5482562 0.599947 0.60753477 0.3272939 0.49952906 0.57997036 0.62688124 0.6393086 0.40227818 0.4750623 0.5608177 0.6045136 0.6301977 0.16088986 0.3163252 0.4269203 0.48651558 0.5595336 0.099430986 0.22099955 0.38576865 0.4526676 0.48797375 0.65115035 0.62036705 0.33563465 0.36689547 0.62248397 0.34310699 0.27611455 0.21287297 0.3419172 0.37404358 0.40405262 0.40838102 0.41686624 0.37407622 0.28336877 0.33584774 0.4658758 0.466439 0.4573701 0.43182147 0.40495312 0.44336903 0.42813307 0.39733577 0.4471746 0.40642595 0.30260712 0.3746059 0.43282676 0.4147686 0.38256812 0.33943537 0.26768434 0.3674114 0.3704909 0.15723754 0.29955497 0.31135672 -0.017955974 0.06644133 0.13396785 0.29384232 0.2183078 0.042698726 0.0054175053 0.13719808 0.3644027 0.42661765 0.5965855 0.5123694 0.1350417 0.3982822 0.5045763 0.5173438 0.5659722 0.30534428 0.3972403 0.48943043 0.49542558 0.09629145 0.27353776 0.42997873 0.46767935 0.37916124 0.42784232 0.07055496 0.3676434 0.3752137 0.2110772 0.18418902 0.2224348 0.3785284 0.38499013 0.24353635 0.39346224 0.3829998 0.28553718 0.30616468 0.570318 0.5808712 0.61312795 0.38014072 0.35888925 0.26705682 0.19670372 0.19837196 0.20530857 0.22670038 0.2886068 0.31214797 0.6693622 0.5922974 0.6213946 0.6132698 0.20113218 0.5680483 0.51384795 0.29666686 0.48779142 0.61974525 0.357938 0.30466345 0.6387987 0.63263106 0.65450966 0.67427826 0.6350176 0.57443327 0.5004902 0.6620914 0.6666863 0.6340774 0.57342136 0.64508367 0.6156253 0.5871255 0.59097385 0.5508739 0.55965 0.56710154 0.5663901 0.5488237 0.4835109 0.53958035 0.5467972 0.5493026 0.50987566 0.48246634 0.43805948 0.51912546 0.5292916 0.35896653 0.48570508 0.4844913 0.39656135 0.3177726 0.12754592 0.40583774 0.5009458 0.5378187 0.58392763 0.43979967 0.33924124 0.273304 0.28571683 0.24727789 0.350415 0.6317647 0.6328244 0.20490691 0.21708259 0.15911266 0.043254323 0.31768402 0.6392281 0.09730572 0.10932318 0.081299394 0.0074976813 -0.0031637438 0.09533587 0.5639484 0.6223693 0.45654607 0.44856206 0.4232772 0.26229274 0.013540316 0.004909696 0.093556166 0.49409485 0.52222097 0.5572248 0.52120054 0.40602195 0.40158662 0.046881538 0.11852226 0.11502886 0.07191275 0.6195116 0.63757765 0.5804412 0.53131056 0.5137831 0.1437507 0.13862404 0.07693915 0.07790318 0.33538812 0.3299704 0.6352987 0.66405404 0.6580566 0.6087929 0.54983854 0.25702298 0.19625515 0.11390366 0.14359409 0.38039473 0.37232018 0.37570596 0.6188846 0.63646495 0.6282184 0.61653435 0.3544576 0.35771948 0.2030905 0.3992778 0.43031853 0.285641 0.33629245 0.3911236 0.35500473 0.3066612 0.33936894 0.13939288 0.078942694 -0.07075924 0.3063959 0.008116685 -0.034873866 -0.02865918 0.27788055 0.25045374 0.110266455 0.41015482 0.44236156 0.11188844 0.5188212 0.46895373 0.39071757 0.52804095 0.55364 0.46468866 0.49563384 0.5442193 0.23042487 0.35914466 0.1645373 0.3834427 0.1785388 0.39322728 0.2214216 0.46756488 0.4889523 0.55738527 0.5920755 0.37821084 0.33602875 0.5653648 0.5090444 0.20407449 0.18768178 0.20410083 0.24264395 0.5055216 0.49389097 0.106987126 0.4089052 0.3221106 0.47016227 0.5531664 0.5434914 0.57943624 0.610181 0.40907806 0.5980001 0.6332545 0.64603245 0.4604063 0.6229499 0.59083766 0.5617872 0.5500419 0.5157733 0.5869163 0.58711725 0.6023968 0.5497312 0.54998994 0.5551107 0.5408691 0.48149747 0.55130386 0.4339233 0.520563 0.5447028 0.06798584 0.23407397 0.40855438 0.45651728 0.46969 0.44763386 0.11569539 0.5123199 0.32168457 0.63230026 0.2522779 0.6242967 0.58536834 0.5608266 0.34088776 0.35528785 0.36409977 0.36918426 0.5464932 0.5569337 0.6203282 0.5794692 0.53755486 0.39254636 0.08176179 -0.11796339 0.49100733 0.5423192 0.51691175 0.4402311 0.42851546 0.46853703 -0.078886256 -0.00053852797 0.39203542 0.43659317 0.46245113 0.33421835 0.37321693 0.5317155 0.56696594 0.3878221 -0.12682271 -0.007993992 0.1092203 0.14871505 0.22736639 0.2854604 0.33262637 0.30167773 0.5834912 0.13783476 0.11933768 0.17065327 0.5624989 0.57914424 0.5678276 0.5552479 0.47849756 0.32122457 -0.007684214 0.4854278 0.49846888 0.27349925 0.3027188 0.06159496 0.22606781 0.25063342 0.21174088 0.18892711 0.10553086 0.23779742 -0.059669934 -0.07526902 0.21441026 0.3731082 0.05086605 0.5236789 0.03836664 0.55115736 0.25421283 0.52919173 0.4048804 0.23639537 0.063725755 0.37804893 0.10083048 0.3533779 0.38463205 0.16236615 0.44153196 0.45179003 0.55244845 0.54669464 0.36069816 0.30769342 0.24920924 0.48487684 0.27826944 0.23072115 0.17866796 0.16414706 0.18600637 0.13730384 -0.38935113 0.3822168 0.4505276 -0.19310626 0.31122524 0.07437345 0.17129451 0.34450096 0.13078597 0.43642262 0.64253646 0.63521665 0.62205684 0.4808957 0.6758143 0.7246025 0.7011951 0.75671685 0.50919586 0.5746072 0.49034977 0.43658203 0.7247846 0.76750755 0.8385459 0.86480725 0.88436306 0.5826155 0.56997395 0.5519994 0.5112021 0.7712954 0.8263611 0.8845668 0.9071083 0.5745936 0.5789448 0.5570426 0.54398984 0.55030024 0.5812851 0.5686464 0.5349758 0.005932413 0.51707834 -0.17964399 -0.12984315 0.1246864 0.23068327 0.26452664 0.27211657 0.52086085 0.53611445 0.5460355 0.23809232 0.56766 0.52020645 0.2513967 0.49184567 0.4104753 0.3302231 0.30495596 0.32325616 0.33388758 0.35401237 0.39334637 0.35847533 0.3911706 0.2858347 0.3294757 0.32198215 0.46842757 0.056248903 0.2886714 0.49797267 0.19414884 0.42128876 0.07236436 -0.010725912 -0.01835465 0.38007542 0.25575393 0.20503357 0.3435673 0.1485391 -0.049220935 0.2701581 0.30085137 0.3155862 0.11298521 0.33541638 0.3486186 -0.22751185 0.08758173 -0.2084751 0.12396458 -0.11286427 0.37566108 -0.15357189 -0.15714203 -0.18172576 0.40465847 -0.09628666 0.36553705 0.009864569 0.24142116 0.28822607 0.2966684 0.28552806 0.27816242 0.45521766 0.44246435 0.3255444 0.49627438 0.30355412 0.15795954 -0.09398337 0.32098025 0.27662632 0.34890568 0.0932221 0.40752426 -0.08601414 -0.11356558 0.4226178 0.38283134 -0.1413329 0.41107044 0.3774926 -0.09935105 -0.06296995 0.5721608 0.52428854 0.51078784 0.6267477 0.5664039 0.2738277 0.7190741 0.7385818 0.535597 0.70513666 0.8830161 0.9073205 0.5224389 0.46621612 0.66977966 0.7462274 0.82301986 0.9132079 0.94441485 0.5246863 0.5537931 0.5600805 0.50106823 0.85148513 0.9055609 0.95369625 0.5547629 0.46255124 0.51588327 0.5310688 0.29616165 0.3718535 0.39951038 0.84989154 0.84754956 0.8275355 0.44530898 0.38558233 0.031454213 0.07415677 0.83980024 0.8381916 0.8269392 0.44436306 0.3032046 -0.0892547 -0.029334517 -0.04937108 0.80848575 0.81647 0.386595 0.24867374 -0.13633975 0.4377321 -0.09767164 0.2359089 0.28334484 0.277478 0.27105677 0.2882648 0.28345633 0.17876454 0.21954785 -0.108073056 0.17312384 0.38995188 0.41892773 0.14218558 0.15955722 -0.02188225 0.52154607 0.44224 0.12297019 0.17511809 0.13911885 0.29150072 0.30760545 0.2553555 0.3421483 0.31556964 -0.09103778 0.2502104 0.38531077 0.2558024 0.2220826 0.34874928 0.3256397 0.14086282 0.25653008 0.23896074 0.10222554 0.08388452 0.29318008 0.37893718 0.13545866 0.28185165 0.11187618 0.30964136 0.26376912 0.29922324 -0.19013399 0.041583743 0.10420152 0.2917377 0.26180592 0.0773678 -0.06030866 -0.21105523 0.0005099829 0.14406781 0.09375961 -0.20421606 0.15063146 -0.2907505 -0.2727878 0.2545278 -0.2828991 0.17387223 0.59054047 0.5584881 0.39121008 0.24204499 -0.19233647 -0.11133736 0.057172902 0.6001979 0.5798137 0.47912225 0.22929215 -0.116901115 0.5813082 0.54608476 0.41451505 0.13744378 0.0054434766 0.5571388 0.53170407 0.44726825 0.35018638 -0.018392727 0.25348753 -0.42953837 0.18741569 0.20605378 0.27910057 -0.13616669 0.35433787 0.27160633 0.17507473 0.15056053 0.11965701 0.087374195 -0.108563 -0.07830845 0.4205443 0.22610345 0.43089914 -0.09967876 0.3088077 0.42088318 0.36938798 0.51708 0.5265735 0.3254531 0.68528736 0.76205933 0.44891924 0.32788396 0.42604896 0.8523857 0.49958253 0.44932806 0.44668087 0.54368645 0.67526925 0.9250047 0.4773432 0.48580706 0.49674577 0.4817468 0.5764751 0.85376287 0.9658845 0.97172916 0.5609987 0.5594782 0.5207877 0.5564462 0.56738746 0.531202 0.43838465 0.44216022 0.5001226 0.84854144 0.8317058 0.7813813 0.37691575 0.42237663 0.38031697 0.86488295 0.85602456 0.8378204 0.8051008 -0.12290177 0.06063143 0.8192015 0.8217386 0.77922106 0.5934769 -0.18958321 0.050476752 0.1413351 0.77522105 0.76039463 0.5764409 0.008329168 -0.065933906 -0.08843216 0.05521069 0.11281218 0.20568071 0.7482933 0.71202385 0.33507276 0.1918151 0.24896039 0.25329262 0.21616109 0.3211842 0.19644487 0.21559495 0.019255884 0.2088038 0.35163704 0.4838249 0.49114713 0.00046657026 -0.033930853 0.3942338 0.43964967 0.5002896 -0.13991053 0.36299798 0.22256553 0.14094798 0.1388002 0.24279425 0.23845448 0.06089872 0.3370275 0.46396053 0.55676126 0.455032 0.5821894 0.33930957 0.44706765 0.58992016 0.17854093 0.15821256 0.25370628 0.19953647 0.22094867 0.29421318 0.18423013 0.16016845 -0.011916321 -0.2146177 0.2623295 0.006109759 0.19654782 0.4357471 -0.33412218 0.5796333 0.3886808 0.27065238 0.1819099 -0.3356499 0.007638528 0.616271 0.60844105 0.216951 0.06815019 -0.11148581 0.0042444337 0.6191255 0.61294216 0.10755749 -0.0144271925 0.0052518155 0.6111815 0.59632146 -0.019661224 0.59142137 0.60974944 0.60394126 0.5712062 0.53776586 0.33858812 0.4988775 0.5638432 0.57669723 0.5970521 0.54013115 0.5252579 0.3743443 -0.053641275 0.06851764 0.0017549954 0.37717924 0.44456446 0.5468964 0.54573876 0.49549747 0.070746765 0.10684085 0.098978534 0.07780511 -0.0025773905 0.3069182 0.29849476 0.30377945 0.32178575 0.4012539 0.4113866 0.32919034 0.38776642 0.20745447 0.63488615 0.14995006 0.3381018 0.37189597 0.77037203 0.36118263 0.3066026 0.3749436 0.4954703 0.4944554 0.77801865 0.8162987 0.3895408 0.4170817 0.41591492 0.5431872 0.7456131 0.88410366 0.8753345 0.88156605 0.5512247 0.55217886 0.5358939 0.5475195 0.5416714 0.54233116 0.5389427 0.5185591 0.49513984 0.48676524 0.4773445 0.43318468 0.49157274 0.5370234 0.4767655 0.4343768 0.3183455 0.28968614 0.37524605 0.30530906 0.87234575 0.85511744 0.79180014 0.7081398 0.27210915 0.22460465 0.1698188 -0.02723174 0.23385774 0.21396178 0.8911631 0.87939656 -0.17008084 0.054656453 0.8032938 0.23118414 0.06549281 0.08916786 0.7236383 0.41094252 0.15326458 0.1856285 0.68827367 -0.37684426 0.20408738 0.56664133 0.52040875 0.12761009 0.047612876 0.19164637 0.3695317 0.46350554 0.50597227 0.07784583 0.01715739 -0.038526043 -0.005580675 0.53071487 0.5527663 0.24808204 0.09498155 0.002126202 0.5328673 0.57484156 0.26436695 0.59026295 0.17892131 0.43513793 0.5961869 0.25136912 0.19297817 0.1050192 0.5208641 -0.0038122684 0.7005055 0.8016218 -0.020374093 0.04199629 0.6780193 0.8122319 0.011478536 -0.020011395 0.6744089 0.8095801 0.059292637 0.49159488 0.66794693 0.0747285 0.10745534 0.16568331 0.3024818 0.06957236 0.0063464567 0.14817949 0.23090933 0.24348614 0.40610242 0.29591027 0.060376167 -0.13724764 -0.40420657 -0.4071725 -0.053876646 0.5359992 -0.4067362 -0.030806083 0.6096908 -0.10980187 -0.26789382 -0.028389378 0.65877986 -0.03804686 -0.039775122 0.6227238 0.7273854 0.7411591 0.68348444 -0.073733106 0.571203 0.6583207 0.6481585 0.6606991 0.6647424 0.4116482 0.5844444 0.58905554 0.6494914 0.60444486 0.56374145 -0.27632764 -0.34411544 -0.13759282 0.5376857 0.54750127 0.5794816 0.5478563 0.5376383 0.47546414 0.41579735 0.47163773 0.06263289 0.2984733 0.039944388 0.006004714 0.34904754 -0.16700111 0.32050163 0.41669065 0.2192957 0.10915103 0.11196021 0.5607413 0.6735909 0.122482195 0.6245467 0.6871606 0.09049981 0.28138238 0.35064977 0.19235519 0.38512808 0.50247157 0.67485255 0.7033479 0.6838691 0.7776102 0.7630364 0.5476161 0.5532606 0.51794314 0.54050064 0.55347455 0.54143184 0.4772614 0.5013819 0.49739122 0.4925238 0.4641862 0.42154932 0.40764385 0.4236084 0.45653713 0.43694508 0.4830066 0.4107132 0.3584097 0.7776307 0.73662835 0.39151794 0.19393653 0.019423828 0.3365013 0.27197275 0.8280058 0.80754983 0.72672 0.5950967 0.49820876 0.21562079 0.8342731 0.2760132 -0.14256984 -0.20970225 0.103493586 0.05804952 0.7813163 -0.25027108 -0.26347375 0.015284583 0.54056394 0.06414607 -0.1365059 -0.30094042 -0.04096469 0.44868147 0.3416302 -0.016507953 0.25609297 0.45349753 0.50942755 0.5666861 0.35476243 0.3119195 0.087029114 0.58678395 0.3817531 0.33236945 0.60479987 0.39527905 0.3323012 0.6047193 0.41744277 0.3737666 0.59298843 0.5079804 0.42391032 0.58120716 0.488441 0.37946582 0.81139 0.47550732 0.35153574 -0.006028142 0.8515494 -0.0050123367 0.015034242 0.8651905 0.8886802 0.025652435 0.023498848 -0.059771203 0.86833 0.8937322 -0.14108628 0.6770935 0.78610384 0.8482663 0.6941698 0.69435257 0.6502048 0.50385135 -0.11001656 0.52778655 0.6699348 0.6828927 0.6072509 0.5339414 0.4780866 -0.011089064 0.22967514 0.25783348 0.6668514 0.70752275 0.68276656 0.59427285 0.5506725 0.16509038 0.021465141 0.18677178 0.19671667 0.76256424 0.8121492 0.7938479 0.72673976 0.2427819 -0.34095308 -0.13868469 0.84660274 0.8840262 0.87789524 0.7776265 0.44033435 0.3529141 -0.03441637 0.91755843 0.8875438 0.5458243 -0.04220317 0.7587969 0.7849045 0.805042 0.64460814 -0.05080558 0.6868165 0.77652943 0.7898845 0.7869476 0.70067286 -0.12762906 0.4535725 0.7346581 0.6822798 -0.10747889 0.61364305 0.6410898 0.59935427 -0.27737853 0.5424323 0.57924676 0.53617805 0.48787388 0.045280695 0.02139957 0.36517614 0.10207552 -0.014599115 0.47040632 0.25781882 0.45595893 0.30362478 0.55120426 0.4126488 0.31754684 0.20978561 0.18773508 -0.026828386 0.20535971 0.36757746 0.58584756 0.22943479 0.1887878 0.48558515 0.59754264 0.6043272 0.61858386 0.5330813 0.5522052 0.5380263 0.48467004 0.5258244 0.53067183 0.34935012 0.44301823 0.3961771 0.38463283 0.37651706 0.37874871 0.42927116 0.3608994 0.7631625 0.34036863 0.2909888 0.7818774 0.74042356 0.65417534 0.19997734 0.2018918 0.41094166 0.731669 0.68830436 0.37829494 0.5167009 0.6743247 0.06409301 0.28580534 0.4118127 0.4487998 0.2611887 0.11083206 0.21918476 0.2584254 0.17072725 0.3353985 0.41857117 0.41078764 0.38033694 0.53863215 0.5980931 0.41444647 0.39478225 0.66464245 0.66093904 0.39257437 0.38147116 0.62313056 0.6379524 0.4321246 0.6037537 0.5011858 0.5824125 0.5610634 0.58053595 0.7693572 0.45685166 0.35659462 0.22390944 0.76928383 0.85399365 0.032375284 0.8743944 0.89351475 -0.01914476 0.8937659 0.899756 0.69545794 0.67879695 0.57241064 0.43764362 -0.111052826 0.6239518 0.7920767 0.8789502 0.66782683 0.6954428 0.5978037 0.4674757 0.3901896 -0.23007135 0.34162158 0.64213014 0.66627115 0.4485889 -0.42215163 0.041395158 0.17138721 0.21853371 0.6215655 0.63173693 0.5146869 0.12618478 -0.009218715 -0.10046832 -0.14985156 0.67826843 0.70457333 0.6526848 0.18108524 0.21101168 -0.11133116 0.8043399 0.75843453 -0.10516535 0.8335997 0.93384796 0.8980267 0.8269166 0.35365352 0.37759688 0.69701797 0.8046556 0.80486923 0.5479634 -0.069862664 0.5661876 0.79931337 0.7797091 0.66859925 0.07172018 0.34291616 0.4679947 0.74484885 0.64917916 0.3335089 0.6423563 0.58731824 0.49628124 0.5507468 0.4713875 0.36877662 0.21377727 -0.059666757 -0.05869104 0.23145379 0.30123037 0.038325537 0.09572467 0.3441935 0.1517521 0.1528599 0.38193056 0.17460772 0.16733018 0.09125136 0.40676343 0.4089378 0.478322 0.5080985 0.4356481 0.45869997 0.14897147 0.16699465 0.35378277 0.51365644 0.5470175 0.55690485 0.5664045 0.51444155 0.514795 0.47685075 0.36874464 0.21272507 0.47297344 0.5739192 0.5772552 0.40214914 0.49828643 0.47421938 0.44009966 0.29774037 0.40031397 0.4266558 0.30324402 0.18837294 0.3070554 0.33556816 0.32112682 0.30879125 0.20936568 0.16561909 0.19013211 0.34066907 0.3106264 0.054958306 0.22357595 0.27170026 0.37285662 0.45057482 0.6468458 0.23082802 0.40075013 0.48190582 0.5187724 0.31418434 0.528349 0.54625237 0.23999837 0.4307008 0.12413246 0.2818304 0.2333071 0.12896532 0.09086237 0.35194102 0.35202292 0.38553327 0.60039306 0.4261431 0.4174907 0.63338315 0.68980145 0.4301522 0.7038255 0.71317786 0.43113124 0.69331336 0.50326735 0.664158 0.6678648 0.54470277 0.59832394 0.12852243 0.32377183 0.65349436 0.39615357 0.578459 0.5918101 0.5571268 0.7480997 0.8223257 0.44449717 0.83498824 0.43243694 -0.18653804 0.8046225 0.85673344 0.64668775 0.65153587 0.6163542 0.514119 0.44247383 0.37990645 0.30115545 0.3787799 0.6541159 0.8008283 0.6382508 0.33147117 0.26992372 -0.35179222 -0.35687685 -0.08975896 0.20415178 0.29798365 0.3286891 0.6124235 0.2237258 -0.36660135 -0.37674153 -0.100660056 0.100967824 0.5579464 0.44049466 -0.06603152 -0.01253362 0.0013439897 0.6810539 0.5883528 0.10275929 0.73195285 0.7586138 0.7287502 0.6660971 -0.04720769 -0.19211121 0.8003353 0.8959745 0.88491696 0.79336834 0.7106549 0.66876465 0.7275499 0.7891576 0.78869915 0.529942 0.5710757 0.75085145 0.74910676 0.09363037 0.35626438 0.6899107 0.5919692 0.4430582 0.50491893 0.53426707 0.42807585 0.1802114 0.27860296 0.062016338 -0.2254461 0.19906233 0.2712735 0.094897255 0.31685445 0.3189901 0.17427725 0.17448425 0.34397778 0.36242896 0.17605236 0.16203237 0.28973812 0.3226369 0.00058432296 0.28715461 0.27584073 0.3238583 0.35724008 0.4121224 0.42027473 0.42516798 0.51395714 0.514588 0.008892097 0.2711507 0.20020263 0.547663 0.5515287 0.49797416 0.29112756 0.19197237 0.45078203 0.48575342 0.29226685 0.38413012 0.37249124 0.32870534 0.27508438 0.2689028 0.2433278 0.24233902 0.16735962 0.3182203 0.2621433 0.25855112 0.24972211 0.26628292 0.34747627 0.2943653 0.27472073 0.27502695 0.25780526 0.35937285 0.20007652 0.15118864 0.3092338 0.4368773 0.24704747 0.47560585 0.49810612 0.48401886 0.018789258 0.40137225 -0.033118445 0.12899372 0.0455844 -0.010797247 0.037230447 0.32431462 0.4362799 0.62120676 0.64478195 0.371961 0.7048048 0.72860867 0.40648866 0.37661406 0.74919605 0.73867595 0.44093746 0.7411726 0.71993506 0.510149 0.4816236 0.70221865 0.6994769 0.51827186 0.51448405 0.32577237 0.5213448 0.6422658 0.6235549 0.3381101 0.6786659 0.57742846 0.72436213 0.16851674 0.3442704 0.5522383 0.71683687 0.7584567 0.373298 0.41771418 0.4430002 0.36469823 -0.07907037 0.15711598 0.34176415 0.5643647 0.7283377 0.79963213 0.5656316 0.5649965 0.2698328 0.12772432 0.07295442 -0.07580575 0.21646509 0.2761584 0.3857299 0.530115 0.22879943 0.063987166 0.14154032 0.13882211 -0.10937512 0.53063715 0.21778259 0.09688243 0.16794977 0.18744494 0.120675094 0.13601515 0.1341089 0.17171268 0.17812122 0.14773938 0.14404415 0.65143645 0.13013826 -0.100128576 0.0474