# vtk DataFile Version 2.0
Really cool data
ASCII
DATASET POLYDATA
POINTS 5661 float
-39.73779 -31.11275 -3.321947
-39.81407 -31.316397 -2.4956295
-39.806942 -31.37008 -1.3139622
-39.8179 -31.286783 -0.75182
-39.8069 -30.365643 -3.373896
-40.02868 -30.518917 -2.7463148
-40.10609 -30.399345 -0.82712847
-39.589725 -30.27128 0.54122037
-39.733044 -30.23431 2.7971516
-39.870018 -29.892628 3.4860392
-39.80575 -29.796316 3.872115
-39.693443 -29.993507 -3.534044
-40.071396 -29.255249 -1.3309456
-40.193943 -29.429937 -0.6709604
-40.113705 -29.710958 0.38473874
-40.132294 -29.255936 1.1014596
-40.39202 -29.153858 2.6506603
-40.19155 -29.39029 3.5250347
-40.026337 -29.127035 4.4447317
-39.964523 -28.737202 4.974674
-39.953632 -29.058237 -1.386016
-39.948822 -28.87732 -0.47576204
-40.215576 -28.522781 0.5289283
-40.19314 -28.312424 1.3833817
-40.417557 -28.432257 2.8046699
-40.43614 -28.21344 3.3777165
-40.33492 -28.332376 4.392222
-40.073555 -28.27074 5.3229246
-40.33081 -27.56676 2.2808597
-40.407345 -27.40982 4.568957
-40.31479 -27.584312 5.2520123
-39.89155 -27.513561 6.036067
-40.26871 -26.590664 -0.23220429
-40.435974 -26.504274 0.50371057
-40.25928 -26.412186 1.1077552
-39.75651 -26.229706 2.0993667
-39.909847 -26.404709 3.8412092
-40.27473 -26.673908 4.4420824
-40.25581 -26.75938 5.2767053
-39.932487 -26.625477 5.7811694
-39.72024 -25.17694 -0.8384824
-40.23989 -25.603289 0.31425878
-40.154354 -25.852468 1.2111386
-39.91677 -26.12319 2.8461275
-39.983852 -26.03456 4.534738
-39.72217 -25.494104 5.5181646
-39.82106 -24.965881 0.043642294
-39.955475 -25.010675 0.326665
-39.600388 -25.18846 4.503137
-39.59714 -23.244682 5.466334
-39.607334 -23.114798 6.1172943
-39.590088 -22.470354 5.6235247
-39.596962 -22.521719 6.1413517
-38.934902 -32.084927 -3.3995955
-38.86258 -32.22264 -2.520997
-38.870285 -32.28845 -1.5632902
-39.1564 -31.93621 -0.5401605
-39.078186 -31.268312 -3.9910429
-39.50786 -31.401903 -3.391654
-39.58806 -30.869493 0.3092159
-38.91233 -30.754793 2.2216983
-39.33293 -30.42799 -3.90626
-39.587418 -30.87837 -3.641898
-39.58252 -30.32819 1.087609
-39.38986 -30.408016 2.4880772
-39.345867 -30.313679 3.2567651
-39.31008 -29.842909 4.204858
-39.126934 -29.844072 -3.880106
-39.532936 -29.58019 -3.28996
-39.671616 -29.621687 4.2719326
-39.51094 -29.101498 5.06133
-39.302876 -28.998953 -2.966429
-39.332916 -28.313982 6.1804085
-39.012524 -27.977798 6.842483
-39.15986 -28.155132 -1.7601886
-39.497826 -27.47998 6.5005503
-38.803246 -27.301785 7.4105716
-39.407383 -26.656498 6.530527
-38.92896 -26.69742 7.1194615
-39.40332 -25.601822 3.1305742
-39.511642 -25.754997 5.808091
-38.75975 -24.29218 -2.0317218
-39.07511 -24.45205 -1.5280738
-39.49558 -24.58492 -0.514011
-39.3371 -24.849594 1.4753888
-39.157528 -24.023188 6.4209967
-39.133427 -24.180084 -1.1152453
-38.99742 -23.748312 -0.45319957
-39.18949 -23.85406 0.28504485
-38.632347 -23.725584 3.8060954
-39.338943 -23.361282 4.843004
-39.30736 -23.298485 6.4687085
-39.292225 -22.565765 4.8191257
-39.492046 -22.457724 5.2815228
-38.822727 -22.048378 7.6611533
-39.14609 -22.054338 4.9680767
-39.148247 -21.617815 5.732665
-39.182526 -21.494581 6.6226344
-39.06844 -21.555485 7.287117
-38.78405 -21.36439 7.853867
-38.868114 -20.873112 6.6523457
-38.879013 -20.957808 7.439236
-38.02836 -32.802517 -3.2627277
-38.17312 -32.83768 -2.5392056
-38.092873 -32.755592 -1.7778362
-38.243954 -32.124805 -4.056105
-38.478485 -32.4286 -3.21063
-38.41139 -32.12409 -0.4766206
-37.822964 -31.652008 -4.605622
-38.366543 -31.4921 -4.3532977
-38.298283 -31.377697 0.89960957
-38.57557 -30.961557 1.9307394
-38.78243 -30.499352 3.2879844
-38.074955 -29.85345 4.39977
-38.166054 -28.863426 6.3997183
-38.02147 -29.096746 -3.9221597
-38.4173 -28.235456 7.311134
-38.548927 -27.316086 7.607772
-38.518803 -27.458256 7.634583
-38.15082 -26.401606 7.774738
-38.146275 -25.302874 -2.8483837
-38.147247 -24.708477 -2.9639292
-38.560326 -24.595676 -2.558036
-37.81293 -24.084282 -2.9398577
-38.21723 -23.449032 -2.0193613
-38.55106 -23.530165 -1.3698816
-37.863415 -23.294415 -1.9634018
-37.97057 -23.016201 -1.3091676
-38.5195 -23.29497 -0.5471721
-37.860973 -22.928892 0.2039757
-38.34062 -22.028717 8.168768
-38.34547 -21.390154 8.264573
-38.22276 -20.8222 4.8133497
-38.366474 -20.573591 5.497924
-38.50148 -20.510305 6.5569305
-38.440746 -20.517817 7.4989505
-38.22867 -20.823826 8.0923605
-37.877827 -20.360172 5.026821
-37.92324 -20.269236 5.445152
-38.11168 -20.227333 6.126778
-38.379745 -20.4144 7.456966
-38.176064 -20.383444 7.776786
-37.46708 -32.89083 -3.4430907
-37.480026 -33.078133 -2.591612
-37.397194 -32.864918 -1.7829306
-37.430996 -31.938744 -4.6277514
-37.51473 -32.405243 -4.2278605
-37.367104 -32.480595 -1.0914394
-37.315758 -31.803524 0.40205985
-37.568195 -31.603846 0.9893226
-37.405155 -31.58785 -4.6622458
-37.47243 -31.21591 2.0742295
-37.55229 -30.291653 -4.4486833
-37.848835 -29.984167 -4.342424
-37.115753 -29.37844 6.2103643
-36.88762 -29.023977 7.1724143
-37.676533 -28.93936 -3.7179224
-37.23221 -29.080627 -3.569584
-36.72548 -26.098717 10.657661
-36.889057 -25.968773 11.394277
-36.70748 -26.165524 12.0514555
-37.407883 -25.425549 -3.0841484
-36.820545 -25.900852 8.41969
-37.048725 -25.532516 11.260787
-36.9968 -25.328726 12.000909
-37.37542 -24.806135 -3.234556
-37.064167 -24.90522 10.85043
-37.13848 -24.468637 11.66333
-37.00683 -24.335098 12.392379
-36.75272 -24.354622 12.949197
-37.39572 -23.867477 -3.0090666
-36.978466 -24.071014 9.892272
-37.069138 -23.588915 11.491866
-36.95028 -23.450447 12.490831
-36.70837 -23.566448 13.111122
-37.195873 -22.935583 -2.5460858
-37.288517 -22.53652 -1.4076822
-37.375813 -22.581406 -0.51598054
-37.72848 -22.807398 0.13482356
-37.14435 -22.332825 8.332142
-36.704594 -22.77468 12.364894
-36.65466 -22.994411 12.903021
-36.819996 -22.289776 -1.6340075
-37.049244 -20.696337 3.9227707
-37.69043 -20.462215 4.6317577
-37.724377 -20.599483 8.110075
-37.541725 -20.221865 4.9909735
-36.86519 -19.734198 5.4571
-37.29659 -19.880993 6.389692
-36.58856 -13.992779 9.9899
-36.630405 -14.322469 10.496366
-36.66379 -14.481491 11.030982
-36.82393 -13.236315 10.633642
-36.820084 -13.483909 11.486351
-36.851204 -13.093607 12.070411
-36.62886 -12.559684 10.011255
-36.994263 -12.365673 10.94068
-37.067894 -12.439931 11.319103
-36.95054 -12.385882 12.434065
-36.770058 -12.202908 12.844746
-36.714108 -11.364944 10.237227
-36.989784 -11.4866705 10.770768
-37.13526 -11.569802 11.674704
-36.990795 -11.660955 12.35445
-36.78247 -11.746262 12.824425
-36.81513 -10.826409 10.753191
-36.815662 -10.652787 11.492677
-36.840984 -10.894011 12.128677
-36.677555 -11.175326 12.762343
-36.780323 -32.71015 -3.8616025
-36.585587 -32.78364 -3.2643588
-36.784786 -32.942833 -2.6730485
-36.842503 -32.830025 -2.036494
-36.65138 -32.187195 -4.239768
-36.391808 -32.49647 -3.6383781
-36.558422 -32.41481 -1.4272109
-36.54118 -32.093117 -0.7068838
-36.800335 -31.986168 -0.10719679
-36.964493 -31.597212 1.2279863
-36.85494 -31.491508 -4.5979576
-36.446693 -31.591457 -4.4138584
-36.912014 -31.335445 1.6468146
-36.618134 -30.874556 2.1932287
-35.91113 -30.884493 5.6794786
-35.836353 -31.153248 6.4046936
-35.724854 -31.02398 7.066748
-36.95027 -30.92403 -4.610799
-36.369495 -30.89115 -4.320303
-36.00434 -30.377382 3.792847
-36.243458 -30.533283 6.7396464
-36.123768 -30.443918 6.944422
-35.68192 -29.883364 13.621612
-35.725563 -29.740034 14.378635
-36.51339 -29.858517 -3.7770731
-36.62 -28.836546 7.643827
-35.575237 -29.446241 12.619535
-35.894802 -29.428871 13.60107
-35.825874 -29.317179 14.369538
-35.690273 -29.28649 14.7815075
-37.197544 -28.540274 -2.7285113
-36.018806 -28.720566 13.572843
-35.900414 -28.598597 14.487761
-35.689793 -28.100481 14.913736
-36.110847 -26.981188 10.861682
-35.858147 -27.829311 12.849465
-35.996426 -27.944904 13.521221
-35.927814 -27.769608 14.128947
-36.56431 -25.894474 -2.9386463
-36.536057 -26.052868 9.958356
-36.45434 -26.389978 12.340593
-36.28614 -26.001976 12.863129
-36.322155 -25.60367 12.9323225
-36.243355 -24.364054 -3.329126
-36.13826 -24.750584 13.520903
-36.339222 -23.471434 -3.2016644
-36.432602 -23.438728 13.393153
-36.16348 -22.895584 -2.8833861
-36.707336 -22.594564 -2.47148
-36.546177 -22.582226 0.43523198
-36.222244 -22.695698 9.637883
-36.330006 -22.7737 10.1892
-36.601543 -22.387186 11.588401
-36.493164 -22.402721 12.239082
-36.269135 -22.78245 12.935058
-36.594585 -22.326275 -2.1447117
-36.331367 -22.118574 -1.5854924
-36.542263 -22.180445 -0.85382736
-36.31786 -22.390902 0.2598886
-36.17024 -21.43879 8.311511
-35.9655 -21.400911 8.588418
-35.692833 -22.219128 10.25824
-35.901234 -20.931908 2.7261467
-36.4345 -19.669357 5.0327177
-36.35492 -19.566607 5.706983
-36.019024 -19.505196 6.6353536
-36.903755 -19.99618 7.3441434
-36.104218 -15.192005 10.605049
-36.199245 -15.077551 11.472162
-35.945374 -15.006047 11.868888
-35.88721 -13.989052 9.065152
-36.34669 -14.245955 9.80106
-36.497982 -14.572291 11.568558
-36.365875 -14.141995 12.125816
-35.997826 -13.347137 8.985272
-36.47578 -13.772889 9.61454
-36.357708 -12.99346 12.848808
-35.90585 -12.719264 8.971034
-36.35096 -12.490581 9.677373
-35.756096 -11.902882 9.345049
-36.158764 -11.485855 9.753998
-36.175297 -11.211003 13.06974
-36.36026 -10.764436 10.137531
-36.501774 -10.615382 10.563494
-36.60683 -10.454676 11.362136
-36.362583 -10.456577 12.533408
-35.944904 -10.71986 13.052646
-36.207523 -10.294378 10.579765
-36.1924 -10.083536 11.489547
-36.106728 -10.217879 12.407128
-35.80067 -8.9988 17.738253
-35.645943 -8.781812 18.500801
-35.83243 -8.596049 16.842325
-36.04242 -8.36056 17.750254
-35.922554 -8.548459 18.226055
-35.71592 -8.156927 18.86254
-35.627144 -7.477517 16.303822
-35.825188 -7.5373917 16.690454
-36.024593 -7.531518 17.684792
-35.945827 -7.5356193 18.47873
-35.778664 -7.6304965 18.852545
-35.739803 -6.9117117 17.01687
-35.860104 -6.94976 17.611431
-35.753757 -6.992706 18.526276
-35.760323 -7.179085 18.85055
-36.23161 -32.626915 -3.0398152
-36.134075 -32.114235 -3.8954582
[...]
POINT_DATA 5661
SCALARS features_00 float 1
LOOKUP_TABLE default
0.62961376 0.6240968 0.56357306 0.4918732 0.6000607 0.57719827 0.42622548 0.342807 0.36605513 0.38864353 0.39421427 0.6003729 0.4192057 0.354503 0.3270071 0.2983992 0.40264368 0.41162544 0.41780126 0.4235735 0.41360638 0.29312456 0.22339007 0.23368129 0.39323673 0.4212973 0.44469875 0.44349152 0.25230145 0.45185035 0.46550626 0.42467237 0.29166484 0.2632234 0.23334816 0.16638884 0.26011765 0.37143877 0.42922854 0.41100085 0.30950975 0.30260378 0.24147192 0.15625212 0.30129415 0.28495303 0.31782958 0.31266415 0.16307358 0.35462394 0.40295762 0.44673684 0.4630589 0.7422354 0.68912184 0.6190874 0.51618433 0.7012962 0.66071284 0.3874428 0.35048968 0.6355582 0.63746625 0.3419367 0.36302647 0.35036224 0.3607458 0.6670421 0.59888476 0.3931027 0.37762833 0.60234255 0.3916383 0.36909908 0.3987029 0.3905894 0.33874536 0.36379763 0.32356355 0.09776659 0.3229734 0.47680902 0.39681512 0.33130437 0.23272331 0.24108607 0.37409133 0.35054997 0.3131331 0.13086338 0.31121325 0.4030221 0.39057496 0.43220997 0.5757376 0.44755 0.5171156 0.56561774 0.58821976 0.59208417 0.570032 0.59505546 0.84215224 0.7588763 0.6606462 0.8459896 0.78582716 0.47257406 0.8723075 0.81809855 0.3729468 0.34885865 0.2969547 0.28911984 0.30070013 0.7131907 0.342601 0.31707257 0.31599998 0.23595105 0.5884411 0.61203384 0.5520134 0.62334716 0.50236356 0.42325658 0.5213846 0.4543704 0.38837534 0.38212964 0.55995846 0.5617515 0.39130217 0.44119745 0.5393544 0.5828446 0.5680064 0.3473091 0.37318793 0.44837868 0.5768068 0.5730626 0.8820666 0.8003577 0.6612448 0.8841649 0.89547825 0.5142164 0.3587188 0.3443384 0.87216526 0.33653468 0.78836143 0.7755176 0.18618385 0.23397008 0.65639526 0.6316647 0.292507 0.32384425 0.29946792 0.64910245 0.034776986 0.34724796 0.35578573 0.66676986 0.37283856 0.41210985 0.40702242 0.37120366 0.66375506 0.38650918 0.44887102 0.40702802 0.36230624 0.62719256 0.50394344 0.43559477 0.39186376 0.3721882 0.34819004 0.3432938 0.5555378 0.22930634 0.30264986 0.53473055 0.31418884 0.293036 0.38575464 0.51604164 0.5513587 0.5522699 0.5496138 0.5727296 0.5939749 0.5046321 0.6167382 0.63671803 0.6480799 0.62230134 0.5886316 0.653713 0.7057292 0.68601763 0.64788043 0.66206133 0.70569026 0.7037313 0.6656429 0.8734025 0.8403889 0.8024537 0.7092522 0.8625446 0.8398911 0.59100133 0.45755744 0.37909564 0.3376213 0.85449314 0.8408368 0.33735085 0.31289124 0.52955663 0.58320487 0.5864754 0.8219527 0.79877424 0.4835561 0.44648743 0.44602245 0.61544394 0.5935969 0.69724584 0.26437718 0.55954725 0.5796517 0.5716994 0.5664439 0.5008899 0.5268979 0.52518797 0.49722221 0.18639378 0.36131868 0.4010052 0.39661866 0.6110201 0.24265008 0.25801253 0.23082983 0.26840633 0.71713346 0.24930508 0.7353276 0.3201689 0.71474326 0.6473688 0.403625 -0.030118 0.22810593 0.2935274 0.29085812 0.29720122 0.6217867 0.5761871 0.49366653 0.4330086 0.15469818 -0.055021897 0.032349132 0.0696265 0.23886764 0.24735576 0.21040897 0.4274084 0.5098028 0.47685832 0.42837232 0.4146973 0.5040737 0.5250344 0.50065917 0.3896428 0.47595632 0.51906383 0.36948264 0.45727208 0.40281412 0.49255085 0.6089643 0.5824388 0.6355992 0.69287694 0.67684436 0.6219351 0.6234126 0.6696563 0.66924214 0.7581938 0.6872653 0.80326605 0.78594387 0.73894334 0.65312386 0.6560116 0.7216098 0.74944276 0.67396104 0.6366999 0.6489003 0.66272324 0.60027045 0.5975244 0.79865617 0.8231133 0.7921463 0.7309365 0.6417023 0.3784188 0.686382 0.67133623 0.8034383 0.7639292 0.6989325 0.61978626 0.37458733 0.33368683 0.6582656 0.6422112 0.6401508 0.63895315 0.74578 0.71005416 0.77012384 0.72364956 0.32105124 0.7289664 0.6437888 0.65643394 0.60915446 0.571444 0.6056297 0.5666976 0.4021749 0.42433205 0.5536099 0.5852475 0.55928636 0.31317735 0.23574078 0.2101545 0.5329214 0.50805265 -0.110283256 -0.07784079 0.34929287 0.4268567 0.5557991 0.50578004 0.11948484 0.21152355 0.6135167 0.056744374 0.036019035 0.7096422 0.106596015 0.1495276 0.7307554 0.1365539 0.16258752 0.7378085 0.6964972 0.16625582 0.18066004 0.67821455 0.62979823 0.5206159 0.47054636 0.087965615 0.16299045 0.009785775 0.14631376 0.07998665 -0.27372742 -0.2574838 -0.08217632 0.01824398 0.006668225 0.12184557 -0.096908435 0.015697692 0.012057878 -0.014133766 -0.030074874 -0.0024577267 0.030409824 0.03481132 -0.079531044 0.25174156 0.28382254 0.27057225 0.4318347 0.46050775 0.40022334 0.29982847 0.289071 0.34930962 0.25308007 0.30254966 0.23148197 0.32975218 0.45741275 0.46953997 0.5801927 0.65131265 0.51567554 0.5606388 0.603773 0.6462288 0.58494866 0.7083857 0.72572887 0.6430172 0.54620165 0.7765758 0.58856285 0.5970228 0.5660914 0.5232512 0.57420295 0.5727886 0.5313752 0.55103284 0.5059451 0.5084363 0.44485128 0.44832283 0.74331325 0.72307944 0.6991377 0.69404924 0.7339492 0.7218724 0.7148394 0.7134117 0.6875814 0.64980507 0.7559259 0.74756515 0.7066233 0.6577747 0.6528477 0.51613784 0.44166097 0.4400776 0.625409 0.72371256 0.6679883 0.62549925 0.55198574 0.379109 0.30796194 0.280131 0.3451503 0.529804 0.5068512 0.4638744 0.0945704 0.47264594 0.41310805 0.39525038 0.6036075 0.4765196 0.13771789 0.6514143 0.6225529 0.23029634 0.7045708 0.670473 0.22605601 0.24148719 0.72090614 0.6590992 0.47581166 0.230415 0.21229523 0.61239433 0.5150814 0.04052087 0.13884163 0.1611777 0.1480042 -0.047799364 0.07282152 -0.029586531 -0.0603379 0.65937006 0.60838526 0.22395602 -0.0019856095 -0.096216865 -0.05469238 0.007569384 0.7862776 0.7424936 0.6073719 0.020994455 -0.021423869 -0.100353286 -0.08846066 -0.090066925 -0.086980134 -0.1492892 -0.019311108 -0.3085717 0.72979045 0.6487512 0.5341866 -0.029330123 0.17370328 -0.14648108 0.08189562 0.17683446 0.11298634 0.0036492702 0.1839115 0.21817054 0.20535351 0.22477725 0.11141654 0.116217256 0.21856657 0.14286177 0.2683641 0.13671851 0.29411185 0.5270169 0.5510234 0.41920346 0.47566843 0.5071524 0.6454899 0.4211191 0.36437514 0.4518715 0.36949158 0.4499293 0.49677366 0.39975104 0.4490505 0.4343865 0.3542164 0.36724162 0.41291577 0.37702695 0.3809056 0.37943992 0.7423326 0.7334926 0.7073263 0.7139251 0.6910156 0.6078638 0.7313659 0.69434726 0.646443 0.74094415 0.6764965 0.6423875 0.42297417 0.4762982 0.7381122 0.5691299 0.2482245 0.3019622 0.39228463 -0.057749946 0.29549664 -0.30384156 0.15310915 0.32402956 0.25013453 0.13785338 0.24084587 0.47670966 0.35665548 0.30264005 0.27440384 0.23806527 0.5627135 0.4204979 0.20835261 0.6030016 0.55435544 0.20917265 0.44471285 0.26354665 0.19635935 0.17728564 -0.03113027 0.17056882 0.16130249 0.102573685 0.1378775 0.009319667 0.09759809 0.15798081 0.863111 -0.10497533 -0.026929542 0.13198498 0.1676595 0.8268694 0.8346627 -0.011174209 0.04090903 0.7995937 0.74262977 0.4873157 0.09392848 -0.12563321 0.02748949 0.14260118 0.12176617 0.7756516 0.7264531 0.11100875 0.21857588 0.2572732 0.20665905 0.42687452 0.12699874 0.3815834 0.24974594 0.073672965 -0.014401145 0.43124932 0.25387108 0.030761361 0.032787528 -0.07848602 -0.020564206 0.21388619 -0.085170254 0.25562492 0.25802115 0.34752664 0.3477497 0.33601227 0.35381582 0.26866463 0.18479128 -0.12580581 0.143439 0.086882286 0.10427072 0.11342609 0.03208814 0.21953335 0.18349361 0.09433062 0.21221858 0.30630544 0.25056043 0.15402034 0.25354353 0.18370152 0.4134273 0.2271558 0.4905889 0.62458557 0.7007377 0.6694645 0.7727678 0.75067294 0.6624654 0.6414789 0.65002275 0.6475452 0.6598078 0.62605834 0.6355388 0.6128551 0.5458414 0.50392973 0.43071708 0.5355867 0.24242568 0.41449946 0.17983925 0.21459554 0.42818475 0.393674 0.0509775 -0.14363962 -0.39063197 0.1722039 -0.04136971 0.1006434 0.22199376 0.1988821 0.24605207 0.122320786 0.22120926 0.20318219 0.36448833 0.19153519 0.1599975 0.13055927 0.37612015 0.25937617 0.14839771 0.16663577 0.15048462 0.10719145 0.06601364 0.282767 0.6387243 0.18581642 0.7600472 0.7082603 0.19682094 0.21374975 0.78261286 0.12054593 0.7908213 0.79383135 0.7703333 0.7311275 0.6687943 0.23314144 0.167742 0.04018266 0.60235226 0.47534096 0.13558845 0.11773139 0.45366985 0.5144178 0.5771074 0.68260145 0.62686557 -0.050624877 0.40919298 0.46368563 0.4992007 0.5698389 0.65082633 0.5520625 -0.011752281 -0.08616999 -0.043592624 0.02709566 0.072228394 0.28390244 0.3356317 0.39940995 0.6443212 0.5651876 0.4006143 0.36032313 -0.077022724 -0.020941287 0.024164796 0.059621546 0.0340142 0.42841494 0.3462484 0.044935957 0.02408358 -0.11132732 0.02610474 0.03600433 0.13345219 0.20139132 0.13712704 0.08576668 0.18057188 0.2635703 0.36402625 -0.15423265 0.08308984 0.2545832 0.3347119 0.40098488 0.13741168 -0.012964575 0.061089955 0.34022275 0.42194498 0.44167072 0.26497254 0.10804889 0.36264396 0.6212549 0.5786271 0.42476386 0.20548078 0.06605355 0.61891526 0.55586874 0.46714962 0.1887361 0.07925295 0.58859205 0.21676147 0.18152592 0.3453125 0.43114242 0.5846205 0.6431786 0.53169036 0.64644617 0.75644875 0.7488092 0.67627233 0.7208911 0.8056294 0.80321133 0.47041827 0.52996325 0.5405436 0.21071228 0.38772455 0.48808473 0.4364801 0.16273193 -0.17157689 -0.39013618 0.31167194 0.10178594 -0.13775726 -0.016435515 0.23885277 0.28692088 0.09453965 -0.040872946 -0.027058601 0.07055983 0.1801905 0.17115274 0.22000615 0.23549034 0.16864549 0.13562201 0.16292219 0.21065935 0.15468019 0.1387652 0.16218075 0.07832155 0.10408345 0.052754097 -0.040789045 0.06949362 -0.092419915 0.31067443 0.45086896 0.39194366 0.108382925 0.37259877 0.36872223 0.3321661 0.5911381 0.49247408 0.14588982 0.38029376 0.3861581 0.36449453 0.73167455 0.6790508 0.3683001 0.7466668 0.7115584 0.1337491 0.76578 0.7516587 -0.08446972 0.7520697 0.6954372 0.64540577 -0.2717618 0.34523505 0.41530353 0.5242654 0.5835341 0.61252767 0.6340341 -0.05534367 -0.009335227 0.035238776 0.2481775 0.37942588 0.44074667 0.52381015 0.5929928 0.62058246 0.68352234 -0.13946141 0.06566679 0.07786189 0.13814396 0.29780963 0.3674625 0.5930551 0.6187465 0.6324284 0.716382 0.7091327 0.4036329 0.46886182 0.54638004 0.59361243 0.7125559 0.6277646 0.27264208 0.39623427 0.45137554 0.5948026 0.45259967 0.39847577 0.2102444 -0.030152263 0.36080447 0.43129537 0.08473727 0.4372612 0.45624116 0.4478889 0.44945794 0.45723605 0.6123041 0.40513697 0.44072026 0.69851196 -0.013954535 0.059378278 0.17892309 0.72179484 0.6780708 -0.03292121 0.011878327 0.7494335 0.678427 0.6552224 0.5798752 0.20181905 0.67907405 0.5820466 0.3216986 0.26848075 0.34583563 0.39761043 0.52178466 0.6758642 0.6541909 0.79573804 0.7809203 0.4129141 0.37618133 0.35139722 0.118879244 0.23524326 0.36182594 0.39015108 0.2122562 0.2762213 0.31776533 0.45361897 0.49483448 0.294874 0.46394616 0.4105575 0.3110686 0.35070089 0.32019073 0.0243885 -0.038454928 0.25652793 0.23472464 0.24077524 0.10001996 0.113706335 0.0010104924 -0.04560426 0.10879134 -0.12781039 -0.08221063 0.25281236 -0.22120492 0.020451443 0.04429127 0.100834794 -0.20031217 0.23262809 0.19700631 0.4904197 0.447711 0.27117014 0.5995674 0.54318535 0.35165685 0.32718182 0.23204705 0.66998994 0.22802298 0.32130322 0.71446085 -0.06525369 0.05039146 0.7162702 0.6653825 -0.29980886 0.56690073 0.66482913 0.13438776 -0.34126848 0.018365618 0.11495325 0.25185242 0.35187644 0.5198494 0.5903487 0.6127605 0.3062674 -0.07861121 -0.0713008 -0.0022613332 0.044887204 0.62889344 0.6301031 0.6641115 0.6304742 0.7184446 0.7096908 0.60136676 0.6253822 0.7358111 0.317713 0.46982598 0.611572 0.7027203 0.6682714 0.55674917 0.24357334 0.048202902 0.3625755 0.042936184 0.0069238916 0.3733619 -0.016633362 0.4401706 0.22960533 0.45281947 0.6818102 0.43686032 0.7464654 0.7786826 0.77072066 0.7427182 0.15738873 0.7229004 0.7063577 0.34069765 0.36440438 0.45703435 0.5187306 0.40908694 0.66444284 0.6881907 0.46372443 0.42305106 0.3724563 0.25937408 0.124794014 0.47194082 0.46093118 0.10242729 0.12191291 0.121251345 0.1379501 0.5982105 0.59814346 0.5535198 0.45237452 0.49973723 0.5701373 0.520591 0.4374289 0.0426454 0.24630685 0.3262323 0.28787208 0.501589 0.50405324 0.22773263 -0.12974635 0.2536804 0.36913633 0.46899915 0.49902272 0.50529003 0.2107124 -0.018338926 0.27618203 0.4193896 0.47636098 0.49743736 0.5034763 0.26649696 -0.05259428 0.22610085 0.3935731 0.47169703 0.51569337 -0.12018043 0.36244443 0.3675142 0.26619998 -0.05297281 0.04071325 0.26169372 0.07351821 0.4607832 0.44254944 0.14171669 0.14547719 0.19525188 0.52322793 0.4863255 0.20390466 0.5522309 0.49419975 0.17708102 0.26435363 0.65089124 0.59048665 -0.2852062 -0.12602574 0.08680771 0.59976125 0.5257628 -0.21795633 -0.4814477 -0.068351485 0.09662684 0.5476679 0.45440096 -0.5640105 -0.041833244 -0.0751703 -0.038383357 0.5825497 0.56791615 0.4336505 -0.06547897 0.60252374 0.6162963 0.6195748 0.6383184 0.6489732 0.6438688 0.61993766 0.64009786 0.65657383 0.6102246 0.5317466 0.40087187 0.19967508 0.61586666 0.21561174 0.27141428 0.30738056 0.4086015 0.42298424 0.69513303 0.13120615 0.7511929 0.030661419 0.7476082 0.7210986 0.052723266 0.7143316 0.6873027 0.5971846 0.20724343 0.67206615 0.5724006 0.6151297 0.2846555 0.5728514 0.76196945 0.8075346 0.78116214 0.398809 0.62519205 0.81404877 0.9036769 0.89049673 0.40264338 0.39532787 0.72370684 0.80503285 0.89673316 0.92691857 0.5307436 0.47025 0.45108545 0.36672294 0.22701073 0.062775366 0.061811194 0.5073443 0.088817656 0.09252349 0.13382377 0.55555886 0.5884603 0.58513355 0.5518543 0.570609 0.11739923 0.11097762 0.49160632 0.37808934 0.14228745 0.3418761 0.44161993 0.48218948 0.49736407 0.5046326 -0.6252111 -0.29360917 0.506744 0.5045672 0.2695269 0.51289034 0.27505338 0.49450612 0.46990252 0.2800789 0.32836038 0.35656005 0.43230027 0.45517433 0.276353 0.32974815 0.039462447 0.22654617 0.086262815 0.2070096 0.23323196 0.43838605 -0.09364569 0.24734485 0.25101495 0.521524 0.47393304 0.41991973 0.07817605 -0.0885314 0.5283462 0.47909105 0.43743837 0.33340955 0.07726349 0.26771873 0.5177156 -0.34508592 0.49706638 0.5141326 0.23812808 0.55242217 0.40316468 0.17843577 0.56875855 0.593134 0.5752813 0.50486594 0.37440825 0.6219085 0.6028708 0.55065167 0.4376309 0.23286015 0.62037 0.56605023 0.5024507 0.31452882 0.51504713 0.6054788 0.38038808 0.4450491 0.49821022 0.26215172 -0.04457487 0.119106635 0.30458224 0.24558103 0.08871204 0.4627762 0.6516211 0.5867911 0.35905838 0.2757599 0.091612674 0.18397917 0.6641846 0.58272445 0.54266566 0.57311296 0.5334872 0.6739116 0.6977463 0.38550025 0.13086687 0.24057293 0.770403 0.759566 0.47660506 0.09402843 0.063194275 0.21128559 0.55320174 0.86744416 0.82791746 0.45831114 0.4387485 0.34885204 0.3011091 0.66470337 0.78273284 0.9002321 0.93100464 0.7505064 0.8482331 0.59229654 0.55930156 0.50896627 0.39326644 0.28224373 0.0064649284 0.0407661 0.6026736 0.0340337 0.023917519 0.52523303 0.5295035 0.4791262 0.3442434 0.60023856 0.44123182 0.08847 0.44485343 0.47085127 0.49187702 0.43456703 0.4878205 0.49481526 -0.22782394 -0.1479979 0.5026671 0.48950955 0.24551523 -0.4353903 -0.60848653 -0.40495604 0.48109537 0.2553687 -0.5494156 0.44905972 0.24856198 0.41031265 0.42672503 0.24756339 0.21350066 0.24350001 0.23017573 0.026139677 0.22874977 0.24700877 0.2455517 0.07656283 0.24119994 0.08926476 0.24143809 0.22632259 0.30902332 0.2143747 0.21806803 0.37719768 0.16377501 0.39748153 0.3401491 0.31672758 0.45116252 0.26658368 0.09095054 0.5133728 0.1728907 0.55549926 0.31622446 -0.12220308 -0.39087883 0.56827605 0.4603985 -0.19619817 0.57536894 0.52983177 0.5586468 0.51777196 0.23574813 0.11551205 0.5845648 0.50652874 0.015578747 0.071065575 0.070774525 0.09890923 -0.06264315 0.19171987 0.056667767 0.09982027 0.1594094 0.39298168 0.5831607 0.4954924 0.7330632 0.50895685 0.511497 0.13280654 0.06534265 0.21423998 0.86478925 0.8171991 0.4986403 0.4953835 0.45661294 0.4312557 0.36599338 0.30240464 0.17828396 0.29242516 0.5974615 0.65242416 0.8977064 0.91098964 0.4065015 0.75081515 0.8489211 0.8093754 0.887012 0.8874094 0.8590648 0.835073 0.8587066 0.8304858 0.6583961 0.74818516 0.8192382 0.7778139 0.61221755 0.01604402 0.61562276 0.5899199 0.5074492 0.36546943 0.14145239 -0.011895984 -0.08040536 0.61760616 0.3208796 0.2732848 0.26751137 0.24118662 0.58462167 0.5986742 -0.15967155 0.40217364 0.19763857 0.27500394 0.40682304 0.51391286 -0.22215836 0.4538284 0.4175226 -0.29019946 0.43633384 0.4431094 -0.48785397 -0.51372963 0.45744318 0.45992112 0.44672698 0.45575863 0.18067655 0.43641835 0.008343987 0.3331577 0.39621517 0.06896263 -0.0025703907 0.16764712 -0.053419262 0.2139852 -0.040440664 0.23752546 0.100209825 0.20511085 0.13469557 0.31722605 0.07328422 0.40937454 -0.081617564 0.3670763 0.30531844 -0.4353246 -0.4915675 -0.327266 0.22094563 0.40473258 0.22969794 0.2040408 -0.019112715 0.37113333 0.40797454 0.25076872 -0.37164503 -0.4239543 0.27125108 0.46455717 0.60971975 0.44380277 -0.4310414 -0.38622287 -0.32109353 0.4642895 0.56975484 0.62003124 0.57829 -0.22988741 0.5776044 0.6293646 0.6596587 0.6293013 -0.089574024 -0.022958368 -0.00049987435 -0.17027262 0.03156294 -0.21293385 -0.05208596 -0.027211364 0.08136481 0.15161 0.2655061 0.4503612 0.41800147 0.61536324 0.514786 0.5172984 0.69164824 0.7362063 0.5154053 0.5070797 0.13248324 0.027302079 0.029008187 0.0616232 0.7819954 0.805912 0.48940971 0.4490431 0.41697875 0.35413972 0.2954258 0.31003183 0.4786978 0.6959988 0.8341702 0.84100163 0.885916 0.9543773 0.9653105 0.7326796 0.80122876 0.9210862 0.90825796 0.84644616 0.65183717 0.6559464 0.7748761 0.47581312 0.507606 0.7248013 0.41721854 0.40880886 0.61032706 0.29872367 0.29798043 0.35979497 0.47516668 0.16307928 0.11710331 0.31657058 0.13710985 0.60504663 0.57910234 0.53056204 0.30089462 0.06627769 0.5914705 -0.33291006 -0.06282314 0.11829924 0.18971518 0.20412336 0.23497671 0.22663727 0.55453813 -0.27360064 -0.29307976 -0.023425372 0.09881075 0.21792974 0.18631807 0.16991563 0.49570727 -0.18766482 0.32376882 -0.16274977 -0.2742147 -0.190454 0.43689945 0.14888754 -0.3554629 0.46164137 0.46869677 0.1350975 0.4683208 -0.37288755 -0.14508542 -0.16479756 -0.17208287 0.24102977 -0.19936457 0.19638121 -0.031018063 0.11153676 0.057272524 0.1976054 0.049168907 0.40595576 -0.17422442 -0.30410832 0.357567 0.23132017 -0.33825046 -0.19370611 -0.14783153 -0.22936259 -0.10431161 0.6179428 -0.07979557 -0.2849386 0.6456815 0.67054313 0.65646505 -0.27429414 0.6595905 0.66901875 -0.042324223 -0.16418695 -0.15625554 0.34121257 0.5044918 -0.1526508 -0.098357104 0.004060831 -0.18583104 0.28854954 0.23858365 0.44063836 0.51520884 0.5146455 0.4894787 0.56459224 0.6296971 0.51993465 0.51328784 0.4682989 -0.061905157 -0.014330472 -0.016342781 0.55375075 0.6549301 0.72689223 0.76302826 0.8393487 0.9212904 1.0 0.99003506 0.7574113 0.83197856 0.81381524 0.61163974 0.7098377 0.6598449 0.48695588 0.5613606 0.38474065 0.4927215 0.3549601 0.31584314 0.33631185 0.34443375 -0.032889895 0.19629501 0.23648524 0.5446234 0.51443535 0.21215226 0.23886247 0.06927933 0.1284141 0.17285714 0.26542205 0.29677585 0.3398401 0.5054314 -0.27779752 0.009042643 0.104566395 0.100165024 0.21155164 0.32148606 0.38071197 0.3150679 0.3812094 0.43233126 0.5222725 0.5069433 0.5627582 0.51763654 -0.4366426 -0.4808558 0.013677418 0.28478974 0.45728076 0.53375083 0.4276117 -0.2787385 -0.22178376 -0.13988483 0.11654689 -0.22296289 0.12659423 -0.20912622 0.24865752 0.22754963 -0.07352124 0.20894387 0.23930186 0.050168432 -0.020065723 0.32254577 0.08067663 0.11542833 0.12058203 0.2707581 0.15107867 0.29103634 0.1434131 0.22054525 0.3351477 0.2015163 -0.31294107 -0.14685705 -0.011756603 0.01776868 -0.23681855 0.24847597 -0.34216005 -0.17606509 -0.13578157 0.39685607 0.4427656 0.52447873 0.5549519 0.39218912 0.17516547 0.54218674 0.59976876 0.59669065 0.3888915 0.435642 0.5248609 0.6720165 -0.116762504 0.7047366 0.78906846 0.17828576 0.03865652 0.43959525 0.46765858 0.005298272 0.36148182 0.10998335 0.06540333 0.100808546 0.17272466 0.30836955 0.84933424 0.9064912 0.9785127 0.86668307 0.8123963 0.78962654 0.7679013 0.72812146 0.6376019 0.6185318 0.5509604 0.42251334 0.49605203 0.4807266 0.2678067 0.37396303 0.31842223 -0.073679805 0.35516793 0.047027342 0.045891367 0.2644348 0.29607284 0.17958853 0.3478284 0.0013518184 -0.09036171 -0.067421 0.08177997 0.086249076 0.22003266 0.2966085 0.31129