# vtk DataFile Version 2.0
Really cool data
ASCII
DATASET POLYDATA
POINTS 5952 float
-40.567047 -32.44651 5.5635133
-40.555855 -32.527653 6.1020436
-40.581295 -31.847023 5.1553893
-40.608612 -31.901646 5.792383
-40.668537 -31.78969 5.9845743
-39.71355 -33.086205 3.6760602
-39.94178 -33.16085 4.181728
-40.179432 -33.102306 5.7461576
-40.1511 -33.084415 6.16147
-39.8149 -32.62039 3.624278
-40.064224 -32.678173 4.368785
-40.432087 -32.62906 5.246928
-40.417675 -32.457954 6.3178697
-40.00649 -32.3205 7.0283
-39.883545 -31.915655 3.8530655
-40.477596 -31.477566 5.4133825
-40.503193 -31.43419 6.1357656
-39.72953 -30.978783 4.2987494
-40.337536 -31.029963 5.4971886
-40.107143 -30.652555 6.4475756
-39.764664 -30.766926 7.2417927
-39.77437 -30.263811 5.7299924
-39.67068 -29.986004 6.5792894
-39.52277 -33.70831 5.512083
-39.08788 -33.788513 6.5122294
-39.204082 -33.213093 3.107537
-39.40709 -33.294445 3.5027816
-39.62479 -33.450043 4.2116446
-39.441975 -33.333744 6.846618
-39.374233 -32.580902 3.0421288
-39.381886 -32.495663 7.368569
-39.109814 -32.07945 7.7393274
-39.146988 -31.663837 3.0100925
-39.48883 -31.543684 3.317386
-39.58604 -31.873547 7.4589734
-39.16234 -31.453005 7.918957
-38.867657 -31.03852 3.1567473
-39.137295 -30.801336 3.6617942
-39.360676 -30.676775 7.6213846
-39.215965 -30.510202 7.713134
-39.218937 -30.362135 5.166226
-39.20216 -29.742382 5.944244
-39.25814 -29.700655 6.555866
-39.20211 -29.83452 7.161569
-39.05517 -30.069607 7.6822915
-38.37326 -34.219444 4.4927607
-38.55172 -33.94088 6.4253964
-38.63734 -33.759842 6.7637596
-38.142338 -33.395287 2.462295
-38.50748 -33.168324 7.3242793
-37.735107 -32.52194 1.6580395
-38.638294 -32.275322 2.4140425
-38.282402 -32.300198 7.8749537
-38.34499 -31.49452 2.6242251
-38.465626 -31.277744 8.209402
-38.304462 -30.888716 2.9955077
-38.76932 -30.640306 3.4338448
-38.42981 -30.731285 8.154392
-38.219948 -30.301895 3.795277
-38.533657 -29.582844 5.7206826
-38.850876 -29.487406 6.42351
-38.521893 -29.617699 7.226013
-38.517624 -30.08018 7.791289
-38.620724 -29.411041 6.6807837
-38.694515 -29.401823 6.932132
-37.29121 -34.671272 3.2619672
-37.270077 -34.726765 4.4994445
-36.595478 -34.192787 0.66315556
-37.124172 -33.883026 1.9261509
-37.46537 -34.216843 2.7414098
-37.59294 -34.42137 5.4280953
-36.702576 -33.25971 0.255814
-36.98207 -33.56718 0.7983152
-36.755787 -32.239994 0.8933208
-37.54904 -32.341576 7.618727
-37.700882 -32.05904 8.000064
-37.080162 -32.128014 1.2496488
-37.83172 -31.505407 8.190889
-37.792694 -30.697107 8.058629
-37.302258 -29.802961 5.5441823
-37.6781 -29.57761 6.508243
-37.833908 -29.760536 7.2910323
-37.666862 -30.200317 7.8601418
-37.92441 -29.439825 6.4940166
-35.924072 -34.822987 0.56911224
-36.101433 -35.028366 1.6866076
-36.392715 -35.076515 2.2614431
-36.64141 -35.027344 3.3187623
-36.497032 -34.923916 4.6218834
-36.10166 -34.180893 -0.06927043
-36.110752 -34.322094 5.5136585
-36.76412 -33.973225 5.9718347
-36.29722 -33.624695 -0.22536105
-35.890713 -32.967445 -0.44711402
-36.510437 -32.896954 0.3999247
-36.461246 -32.025433 0.7546772
-36.99988 -31.255667 7.7622395
-35.89761 -30.574135 2.5670168
-36.96691 -30.502634 7.3817415
-37.17212 -29.83589 5.6864176
-37.044975 -29.843746 6.459429
-35.723064 -28.345781 -1.0423465
-35.826054 -28.276775 -0.591935
-35.880135 -28.52242 0.49167913
-35.797665 -28.412691 1.2962325
-35.670177 -27.60279 -1.0886521
-35.88565 -27.761587 -0.2241761
-35.846893 -27.528854 0.46064228
-35.742302 -27.669592 1.1237583
-35.68109 -27.188677 -0.07662283
-35.671894 -27.174826 0.57848275
-35.73913 -16.005129 -7.232773
-35.974133 -16.029093 -6.466187
-35.83524 -16.027876 -5.8400607
-35.806057 -15.491881 -7.3072267
-36.072395 -15.516161 -6.434594
-35.903503 -15.553741 -5.7688313
-35.753025 -14.878309 -7.1679463
-35.857098 -14.839239 -6.5102205
-35.795353 -14.909746 -5.8604026
-34.946564 -35.844963 2.315123
-34.917595 -34.779087 -0.118070275
-35.07383 -35.039898 0.26339817
-35.40369 -35.311363 1.1906388
-35.303658 -34.122124 -0.840225
-35.730225 -34.3625 -0.41844296
-35.32402 -33.488113 -1.020831
-35.466286 -31.759659 5.856622
-35.250896 -30.666798 1.9336869
-35.597702 -30.652706 4.091192
-35.688793 -31.022318 5.7648864
-34.8483 -29.160616 -1.7983499
-35.298683 -29.309292 0.8036699
-35.910873 -30.441721 2.9416225
-35.133675 -28.320154 -1.9445703
-35.47421 -28.399843 -1.5471473
-35.186947 -27.628 -1.8415825
-35.426468 -27.500832 -1.5458125
-35.53955 -27.587759 1.5058336
-34.911964 -27.79215 1.9267515
-34.86894 -27.254385 -1.8716453
-35.176933 -27.080193 -1.394851
-35.3065 -26.961138 -0.7623369
-35.209095 -26.84298 0.739754
-35.176273 -26.984503 1.2293268
-34.976154 -16.66422 -7.3719525
-35.17413 -16.765867 -6.487436
-35.410908 -16.617403 -5.942477
-35.080456 -16.036232 -8.195242
-35.36448 -16.387913 -7.3678827
-35.593014 -16.491728 -6.6832337
-35.47549 -16.308125 -5.6425805
-35.109455 -16.118235 -5.1562047
-34.829437 -15.493601 -8.734194
-35.30873 -15.4386425 -8.179574
-35.58158 -15.803811 -7.708839
-35.605827 -15.154697 -5.398349
-35.32606 -15.418817 -5.1061296
-34.77552 -14.98485 -8.691844
-35.080433 -14.790362 -8.207162
-35.39082 -14.617391 -7.524039
-35.57926 -14.461291 -6.3670244
-35.33772 -14.588312 -5.6297016
-35.189472 -14.88789 -5.1810355
-34.854706 -14.329063 -7.9694543
-35.053818 -14.15301 -7.2912974
-35.18664 -14.115651 -6.4585047
-35.042637 -14.140225 -5.816167
-34.10097 -36.568718 3.6407983
-34.50458 -36.20416 2.7795055
-34.314922 -36.362404 3.2256773
-34.081978 -36.46431 4.135755
-34.227234 -35.76928 5.6770935
-33.870598 -35.801 6.723339
-34.029747 -34.5917 -1.1214645
-34.356792 -34.805996 -0.46619618
-34.38718 -35.17446 0.7223258
-34.145824 -35.461628 1.2835135
-33.96017 -35.178062 7.1860976
-34.140667 -33.93691 -1.7030497
-34.319958 -34.386673 -1.2127131
-34.403255 -34.768642 7.081907
-33.897045 -34.427162 7.646848
-34.062283 -33.537186 -1.856506
-34.557526 -31.471285 -1.0865889
-33.902653 -30.652517 -2.298607
-34.449066 -30.550505 -1.5412251
-33.76814 -29.203335 -2.4350076
-34.59396 -29.795639 -1.4402033
-34.703342 -27.66431 -2.1594346
-34.48465 -27.31965 1.8667628
-34.6846 -27.10818 -1.8343455
-34.804127 -26.934992 -1.6600512
-34.594036 -26.637352 0.6325918
-34.78503 -26.962444 1.384495
-33.938305 -26.352907 0.14468512
-34.50685 -16.609049 -8.007577
-34.609833 -16.825893 -7.33512
-34.34371 -17.000261 -6.6158295
-34.214485 -17.088995 -5.8393216
-34.05006 -16.894644 -4.4693313
-33.75862 -16.84307 -4.0326157
-34.340015 -16.031557 -8.7370615
-34.29935 -16.351662 -8.426941
-34.749752 -16.527195 -5.4721494
-34.486145 -16.4224 -5.0411725
-34.176254 -16.135601 -4.0497274
-34.371277 -15.400887 -8.905447
-34.490337 -15.920322 -4.4728646
-34.075317 -15.738593 -3.9817052
-34.36454 -14.92773 -8.797552
-34.515827 -14.569396 -8.516948
-34.549717 -14.583463 -4.8710227
-33.823368 -14.862546 -4.082672
-34.47335 -14.1760435 -8.091181
-34.356766 -13.814765 -7.3343945
-34.42256 -13.66232 -6.5356936
-34.28033 -13.67459 -5.526288
-33.952217 -13.911197 -4.823616
-33.997295 -13.415998 -5.8932767
-33.42945 -36.56106 2.9950285
-33.60804 -36.610783 3.5495763
-33.445534 -36.340084 2.7324672
-33.108536 -36.392456 5.860131
-33.205807 -36.15407 6.7102933
-33.23608 -35.97834 7.233935
-33.281452 -34.7203 -1.0762095
-33.48633 -34.866188 -0.59242696
-33.45912 -35.55252 1.4893737
-33.40648 -35.56924 7.552562
-33.10199 -35.207813 7.9660106
-33.407654 -33.899307 -1.9593854
-33.43257 -34.371414 -1.5320482
-33.29038 -34.432693 8.132485
-33.378143 -33.460888 -2.2313871
-33.467133 -33.819366 7.927217
-33.077747 -32.49783 -2.7469535
-33.634014 -32.42534 -2.4609194
-32.731422 -32.435978 8.051337
-33.193977 -31.563368 -2.8760638
-33.492184 -31.09003 -2.4872375
-33.048626 -31.321297 6.6573896
-33.2345 -30.81459 -2.786606
-33.64917 -30.871553 -2.513178
-32.807705 -31.104712 6.4851475
-33.010746 -29.225279 -2.803526
-33.066814 -29.795654 4.599385
-32.807602 -28.986612 3.964076
-33.31361 -27.575058 -2.129723
-32.87379 -28.26526 3.4089649
-33.43535 -26.523952 -1.2796795
-33.971443 -26.719654 1.1668525
-33.381084 -26.41111 -0.8438014
-32.895546 -23.79727 -1.4840771
-33.354168 -23.075598 -0.23880273
-33.359444 -23.119072 0.100983694
-32.9069 -23.371077 1.2875776
-32.84993 -22.823433 2.2880406
-32.75426 -22.442305 -1.9648517
-33.12118 -22.388386 -0.84273195
-33.26026 -22.502829 0.21837178
-33.14752 -22.49377 1.5772153
-33.03059 -22.303009 2.038371
-32.65894 -21.733162 -1.3093138
-32.819756 -21.7374 -0.47335327
-33.040558 -21.795162 0.43990934
-32.96129 -21.636435 1.5407869
-32.843243 -21.491762 2.4658477
-32.688675 -21.981955 2.812908
-32.69104 -20.892231 1.6974746
-32.7664 -21.0178 2.2092204
-33.27778 -17.61511 -6.089864
-33.21138 -17.664375 -5.2457204
-32.556503 -18.04566 -1.4816425
-33.98591 -16.643393 -8.01327
-33.46852 -16.995047 -7.2269006
-32.926414 -17.416363 -6.5113425
-33.642372 -17.462772 -5.7904696
-33.043465 -17.450272 -3.4586906
-32.79811 -17.581497 -2.6456842
-32.58149 -17.428574 -1.5520098
-33.833477 -15.991538 -8.7480955
-33.71929 -16.491259 -8.258066
-32.83776 -16.800901 -2.374781
-32.710724 -16.693531 -1.7771633
-33.718346 -15.514591 -8.865077
-33.22413 -15.208302 -3.4164433
-32.797276 -15.543347 -2.8054087
-33.83722 -14.858604 -8.797292
-33.725216 -14.521529 -8.563529
-33.32794 -14.627137 -3.8018732
-33.816307 -13.993369 -8.017087
-33.52849 -13.692172 -7.509344
-33.462418 -13.620563 -4.851795
-33.234398 -13.96853 -4.2994123
-33.12952 -13.141743 -6.2038026
-33.50702 -13.114645 -5.672705
-33.238 -13.248139 -5.1888204
-33.001938 -36.648155 3.568407
-32.81155 -36.561073 4.379622
-32.980743 -35.795815 2.101306
-32.742992 -36.430557 3.01374
-32.544907 -36.433514 3.4520602
-32.252327 -36.360104 4.091144
-32.557228 -36.4042 5.222076
-32.604523 -36.362556 6.6439714
-32.63895 -36.21099 7.1069903
-32.52085 -34.73114 -1.0691655
-32.62482 -34.91997 -0.7366854
-32.642826 -35.109703 0.30416292
-32.491795 -35.16362 1.2899356
-32.505016 -35.195415 8.206015
-32.733818 -33.98048 -1.9092816
-32.24524 -34.518635 -1.4107143
-32.45852 -34.69802 8.506922
[...]
POINT_DATA 5952
SCALARS features_00 float 1
LOOKUP_TABLE default
0.63879025 0.66402555 0.6219566 0.65947425 0.66777384 0.54446584 0.5768523 0.65429306 0.68640035 0.55138177 0.5968348 0.6276146 0.68450284 0.7566835 0.5787282 0.64692724 0.6986693 0.6058818 0.6766458 0.7943212 0.8419632 0.7374896 0.7874533 0.6522346 0.6637779 0.4941225 0.5071025 0.54716516 0.7206462 0.5120264 0.74853134 0.7690921 0.48982194 0.52183855 0.7994292 0.8126827 0.47812536 0.509794 0.8389168 0.8381785 0.66510856 0.73113656 0.77309024 0.8012806 0.82578325 0.48594967 0.57356244 0.6135596 0.43755695 0.67540324 0.3573084 0.44716108 0.7433507 0.42344028 0.8186332 0.4160751 0.4766041 0.8415171 0.44225788 0.68488574 0.7467211 0.78579676 0.82760584 0.75300413 0.768509 0.36867926 0.36078316 0.46182656 0.37831038 0.3721936 0.405621 0.40389904 0.40187314 0.30752867 0.7040289 0.7659609 0.30290908 0.8075967 0.8449044 0.5972468 0.7089437 0.77890664 0.8344309 0.7134837 0.44850057 0.35714126 0.3260097 0.32559982 0.31144476 0.48447207 0.25399238 0.3497119 0.46128523 0.3955095 0.36901754 0.28098336 0.81120133 0.25539318 0.7929759 0.6067629 0.6701015 0.6276697 0.65869033 0.666104 0.66434824 0.644861 0.69057155 0.68960327 0.6650734 0.6925295 0.6795575 0.96272755 0.93306273 0.84195304 1.0 0.9538932 0.8530855 0.958096 0.91122246 0.83791137 0.27258024 0.39235812 0.37960565 0.33825615 0.44506592 0.47266912 0.4315226 0.37965122 0.20016007 0.29736573 0.42440408 0.40130496 0.5831535 0.29613593 0.55357254 0.5870055 0.5913286 0.6163137 0.6386486 0.5456697 0.55916536 0.59397566 0.638181 0.6410779 0.61824787 0.79709923 0.768331 0.77412325 0.9567808 0.8911412 0.8679477 0.76512635 0.6859789 0.9607405 0.98522127 0.9837749 0.77096355 0.71211106 0.91952413 0.91235435 0.91085696 0.8316905 0.73282695 0.6792967 0.83770037 0.8235267 0.77215993 0.68996763 0.35599762 0.30149066 0.32925284 0.36780232 0.41875875 0.5279027 0.35122445 0.35279852 0.283197 0.24230538 0.5317254 0.3567226 0.36793387 0.47771627 0.5288773 0.35008693 0.16440557 0.20629276 0.16554594 0.24300475 0.26086545 0.5324568 0.47522616 0.53315127 0.54458785 0.60264134 0.5711709 0.6086594 0.8019645 0.7077768 0.6226994 0.6044754 0.49694744 0.40949038 0.9150363 0.8597964 0.664978 0.61013067 0.47366196 0.9255179 0.56811124 0.4644545 0.88909185 0.8532425 0.54247814 0.40398276 0.79466766 0.74261385 0.6935508 0.55467165 0.44418788 0.56035995 0.32405102 0.35333657 0.30704084 0.5063591 0.56289923 0.58035153 0.31711423 0.30284435 0.19946465 0.573144 0.5928316 0.34504658 0.33672202 0.5836562 0.3496245 0.56862867 0.34377915 0.33016574 0.5805445 0.28488415 0.25413692 0.39295083 0.23123416 0.23498428 0.3616963 0.1808413 0.2170254 0.2616539 0.36561385 0.22086886 0.34020826 0.44991237 0.32664004 0.17102297 0.3568986 0.38590848 0.5351169 0.6331034 0.22550604 0.32421643 0.40275925 0.5664623 0.6156898 0.2582053 0.32914597 0.40865254 0.54192895 0.6494241 0.67689216 0.55476624 0.61660343 0.42789972 0.42196825 0.32371593 0.71095335 0.530691 0.4011186 0.49293342 0.26577166 0.24879383 0.32506967 0.8565433 0.7249223 0.30375326 0.3165303 0.8614141 0.2811937 0.22502208 0.83634174 0.78393865 0.3047805 0.7203003 0.66652346 0.39994657 0.32932183 0.5199809 0.4665753 0.40452445 0.34826857 0.38230997 0.22808921 0.3120609 0.32895893 0.35781765 0.4332673 0.56686 0.60357213 0.28533918 0.26703778 0.19090587 0.11993854 0.6514557 0.33636963 0.2930626 0.6670226 0.6774044 0.36044502 0.68210924 0.35174972 0.66044635 0.29243678 0.5338541 0.43258786 0.10405077 0.29174283 0.13779879 0.31464255 0.60172045 0.51580983 0.14092676 0.040042657 0.6657374 0.6743524 0.63417727 0.39035088 -0.23534402 -0.090329364 -0.14206873 0.7094376 0.7270478 0.66991705 0.5606347 0.18346116 0.16936746 0.16287242 0.354769 0.6823157 0.65720534 0.21099527 0.18861867 0.52018404 0.19318375 0.66469693 0.6196434 0.13824978 0.66594607 0.6410711 -0.03099005 0.004920885 0.22262515 0.3840592 0.52830684 0.6330392 0.6522662 0.04209882 0.12864396 0.21773046 0.51890147 0.6132356 0.2416982 0.2413275 0.21506613 0.2811458 0.33069062 0.24795547 0.3573234 0.3654083 0.3287893 0.6602418 0.4459379 0.30209187 0.29067475 0.7255346 0.72055954 0.18913744 0.23983668 0.7021767 0.1879226 0.59423584 0.57987845 0.3071275 0.21173926 0.5225242 0.31877986 0.3324648 0.3338297 0.35931176 0.393561 0.51423573 0.6558653 0.2393013 0.1952838 0.13384478 0.05533435 0.15969795 0.73491764 0.29350716 0.27671185 0.71391284 0.2943328 0.68847173 0.58705866 0.63587415 0.540888 0.39687094 0.48111504 0.29895306 0.3042346 0.26195106 0.21726093 -0.004669681 0.5361511 0.5061444 0.38910726 0.28771654 0.16516125 -0.16963771 0.33166975 0.5609497 0.56192625 0.54764974 0.37353277 0.32933933 0.21893337 0.055970214 -0.035642363 0.24709192 0.31737462 0.57357395 0.60202885 0.1459923 0.0734211 0.047785006 0.07642207 0.6137086 0.6852399 0.39430428 0.18002658 0.1495255 0.13712385 0.34206384 0.7063279 0.6747662 0.596411 0.5277536 0.20731077 0.21816956 0.25073403 0.5684122 0.5152322 0.23377025 0.56783986 0.5268148 0.17592703 0.61059785 0.17265844 0.63823617 0.6059967 0.091094434 0.45914897 0.56473196 0.60191554 0.17030686 0.122889265 0.26004046 0.19170955 0.3625868 0.20010632 0.4690492 0.20559306 0.48841563 0.34642285 0.071620174 0.16629332 -0.10284729 0.16245703 -0.050030425 0.19929543 0.17539045 0.17508534 0.15583715 0.34327382 0.33299312 0.27823383 0.2585623 0.1970109 0.18444708 0.37860343 0.39599344 0.346699 0.29738212 0.23591267 0.37762663 0.399003 0.36801034 0.3423046 0.29814434 0.39732862 0.41810298 0.40967375 0.5175226 0.31982905 0.35484445 0.4428684 0.23795506 0.21194158 0.213868 0.26992485 0.3058129 0.3545971 0.5023174 0.6108711 0.6969653 0.70303845 0.7025439 0.66124964 0.663674 0.21526055 0.15868881 0.59681964 0.36214486 0.3493877 0.31065762 0.48888975 0.528607 0.312153 0.2966843 0.28886572 0.45358032 0.2537337 0.22717956 0.23467928 0.46076107 0.33097157 0.30471903 0.5304582 0.52382493 0.25605363 0.28257105 0.54572636 0.5500088 0.26258656 0.55231106 0.59923846 0.128183 0.19731076 0.6310227 0.63855505 0.38017437 0.29020387 0.6024113 0.5626446 0.4393468 0.3534516 0.11729661 0.45088708 0.0443272 0.5300002 0.10623011 0.5864171 0.48414093 0.041259166 0.038693935 0.05063382 -0.06583482 0.007825516 0.11421333 -0.080595076 0.047903787 -0.0430745 0.21432438 0.014114179 0.10410503 -0.050250113 0.13605008 0.09773198 -0.10707305 0.21723075 0.047089018 -0.29914612 0.006553285 0.09064464 0.20684843 0.33904028 0.39785475 0.17551877 0.08106519 -0.13361049 0.030640975 0.069451615 0.14165784 0.106232345 0.24962832 0.30649206 0.4053854 0.4372971 0.19315872 0.19534138 0.20892318 0.14321868 0.2547536 0.33037078 0.4216453 0.43333372 0.18810579 0.23099276 0.29202938 0.15897103 0.18632165 0.31768042 0.39837468 0.32711858 0.32706398 0.3179716 0.27349353 0.31661937 0.23618405 0.2696867 0.32692283 0.37102926 0.4666062 0.39473137 0.30038637 0.3891871 0.4887965 0.5576384 0.55185914 0.5143273 0.38183677 0.47339594 0.5657973 0.5858506 0.33511484 0.33838427 0.29795435 0.2453282 0.4856316 0.5893117 0.2605011 0.36723143 0.06370595 0.6287205 0.6783337 0.2400266 0.58635575 0.6113539 0.4318739 0.3824303 0.30901265 0.41145065 0.48117203 0.55720055 0.39258885 0.40776336 0.3793039 0.32782894 0.4311196 0.35345882 0.3890298 0.30697173 0.26072723 0.38897753 0.38417143 0.26779687 0.49156064 0.44434333 0.21379118 0.51180243 0.049465604 0.5098531 0.08566159 0.5380581 0.10700723 0.52737254 0.1735253 0.5437399 0.32898918 0.10326617 0.19389546 -0.11413431 -0.023647144 0.42703074 -0.026096001 0.014958851 -0.02201886 0.09972073 0.16406517 0.007874445 0.0067959023 0.20247413 -0.023765896 0.009922636 0.14845319 0.0048758085 0.051705077 0.007945105 0.087800056 0.16511184 0.13608679 0.30031368 0.34775653 0.19094859 0.36185727 0.38364547 0.18149029 0.19993111 0.39942646 0.37955406 0.17883205 0.41168684 0.3756646 0.16711271 0.34556293 0.38186866 0.31169933 0.17918205 0.026636206 0.08432864 0.16635853 0.2480394 0.33708978 0.29943925 0.19202498 0.13347103 0.2706293 0.28337538 0.21761486 0.26423094 0.3335706 0.4835643 0.27286693 0.3898149 0.4768579 0.55931926 0.56227505 0.5394398 0.45190528 0.51568836 0.4356789 0.41462642 0.3673637 0.30470645 0.39250863 0.41034758 0.111546874 0.15955658 0.23768845 0.5073271 0.49427265 0.47450596 0.32799798 0.2297234 0.37461653 0.4326911 0.4711368 0.1462636 0.24106641 0.3524538 0.39417273 0.20551923 0.16923413 0.18250804 0.34600523 0.117457554 0.28131184 0.06921622 0.11859995 0.3770014 0.07567471 0.15439186 0.4086761 0.12806071 0.16107434 0.49975735 0.5092552 0.5520935 -0.017347783 -0.007405609 -0.04568319 0.5183559 0.56737155 0.58821136 0.41095474 -0.22868106 0.3819307 0.51321715 0.52382493 0.55756336 0.38738263 -0.29037732 0.30415875 0.47685587 0.48035526 -0.37309662 0.34188524 0.4030676 0.18152325 -0.21548307 0.20327973 0.30714652 0.2197651 0.22525962 0.16088417 0.18950081 0.22724718 0.20794421 0.10163155 0.27302474 0.32643092 0.37863058 0.38999814 0.13947694 0.39259648 0.40165973 0.16404371 0.349758 0.3841354 0.15157537 0.30346978 0.3313838 0.29270354 0.1943242 0.27071062 0.260783 0.37837714 0.27725685 0.41656893 0.4033593 -0.0670241 0.48460293 0.47531182 0.42200398 0.011309154 0.1847393 0.49564028 0.48904657 0.4460554 0.22840281 0.13167578 0.23069617 0.46659803 0.451774 0.3074091 0.46684283 0.47261733 0.41603452 0.4675194 0.4526888 0.45210195 0.40583566 0.35060847 0.3201161 0.43754894 0.46074972 0.23756835 0.18935016 0.18587695 0.40301412 0.19518925 0.51626354 0.5418966 0.47864664 0.31080356 0.2447893 0.45231742 0.49192202 0.06671885 0.3666903 0.10199816 0.10343473 0.13654697 0.16466427 0.12445246 0.1761253 0.13066815 0.21360171 0.18217939 0.3423589 0.40711385 0.4388495 -0.1709482 -0.44394776 -0.21859859 0.2760785 0.4333867 0.46697745 0.08447527 -0.086197376 0.39621687 0.44198513 0.48616588 0.3650981 0.039856143 0.5117807 0.5412314 0.4351338 0.4247105 0.4087115 0.23419358 -0.28105512 0.5000356 0.28225654 0.24283081 0.17113636 0.02087307 0.33756918 0.4156712 0.2546515 0.22913362 0.17303729 0.21719657 0.24807805 0.19356398 0.1432316 0.2095203 0.23516896 0.20180792 0.15971334 0.14700104 0.3174789 -0.019794136 0.3561257 0.40091497 0.07970788 0.34896564 0.38098308 0.26264197 0.28404322 0.23346236 0.17921361 0.22096941 0.3236449 0.074893616 0.08901631 0.41125506 0.1949023 0.24703899 0.4560601 0.25473684 0.28509623 0.4929294 0.4949195 0.22605377 0.312129 0.34552503 0.48429433 0.46518436 0.3927778 0.2519129 0.25184584 0.30348366 0.45031944 0.54194576 0.49257487 0.45851743 0.5541252 0.5636786 0.55041045 0.49245334 0.57439053 0.5838763 0.5903944 0.6137115 0.65905297 0.64254975 0.7281625 0.72917175 0.75036216 0.76060367 0.76692945 0.7671566 0.7559335 0.7424071 0.7312119 0.7225426 0.43090108 0.456551 0.46674418 0.3806682 0.3611313 0.2916208 0.21731803 0.4241987 0.21166638 0.29514927 0.52213967 0.5274061 0.5010182 0.41057003 0.2736724 0.39734244 0.45610142 -0.31844348 0.14476511 0.21711046 0.29433095 -0.05375626 0.12383004 0.13720313 0.10862546 0.11246051 0.21576777 0.21824923 0.14966603 0.14327994 0.23206869 0.116057634 0.23392981 0.15310109 0.19651118 0.30798897 0.08983846 0.3194976 0.3428504 -0.2749533 -0.47516012 -0.8243626 -0.121219054 0.36148787 -0.12992567 -0.5183455 0.5147878 0.5233542 0.33911645 0.025792442 0.5566023 0.31089336 -0.004796736 -0.23155862 0.5360656 0.13268104 0.10907521 0.4071444 0.22222033 0.24948925 -0.237069 0.25998506 0.1620714 0.18925714 0.1349839 0.051992923 -0.08466381 0.21518809 0.07385636 0.056112878 -0.04400053 -0.03197319 0.13187924 -0.051842365 -0.11945452 0.09993853 -0.22051199 0.25073057 -0.2644482 0.35218695 -0.0268335 0.3483464 -0.056684375 0.25115553 -0.047127835 0.14209846 0.18071915 0.06829627 0.053346336 0.2725082 0.31753018 0.1250636 0.40541592 0.43336356 0.37153062 0.45369437 0.4443732 0.34133586 -0.055340104 -0.11862525 0.2013507 0.32408407 0.12298073 0.059409883 -0.062306244 -0.043803062 0.07105806 -0.06507981 0.3634078 0.36016238 0.19779041 0.2916171 0.26586628 0.42598817 0.4185351 0.41052222 0.38230246 0.3432595 0.3711 0.4691099 0.473992 0.4348695 0.27286512 0.17423803 0.26306403 0.39774805 0.5257213 0.48973912 0.4965003 0.3367243 0.4131468 0.44988823 0.5152663 0.53357714 0.56541765 0.577349 0.5478432 0.5580649 0.5735991 0.6297552 0.54618824 0.5357887 0.5145345 0.734282 0.673715 0.79035145 0.7411567 0.74850005 0.78392166 0.7993775 0.7592478 0.7006655 0.63811517 0.7463676 0.73919743 0.71817565 0.70931816 0.6793276 0.7449595 0.7702681 0.74948174 0.7165234 0.667927 0.7256987 0.7067276 0.6912339 0.70299804 0.70318425 0.70019245 0.68343866 0.6611383 0.62700486 0.603727 0.5997391 0.5796288 0.2066093 0.42546922 0.27470756 0.17709792 0.18439662 0.24211615 0.48824638 0.38367093 0.15174928 0.42908487 0.36053008 0.018966112 0.061666533 0.29794443 0.21845245 0.13913298 -0.32122988 0.24111822 0.17380239 0.18056455 0.16883013 0.17042327 0.23479265 0.14659537 0.21255153 0.09671621 0.20119844 0.21382385 0.18456946 0.18269806 0.118630186 0.18744998 0.28375113 0.25151324 -0.28800592 -0.49390566 0.44780675 0.46293372 0.42688504 0.36958277 0.32564658 -0.48986956 0.48981547 0.44461346 0.33990324 -0.11492307 -0.44388193 -0.48112738 0.49734622 0.41482034 0.20654705 0.07618733 0.12692872 0.0937946 0.27236295 0.27728823 0.26929617 0.07894915 0.026873551 -0.025999146 0.14203078 0.18664931 0.322864 0.28429008 0.1298641 0.028859254 -0.050929926 -0.069539495 0.34673613 0.35942268 0.33087903 0.2057541 0.044607986 -0.048239388 -0.123298615 -0.16732565 0.16617915 0.3797617 0.36105603 0.2545974 0.10114887 -0.025459776 -0.23931634 -0.25787517 0.2691905 0.031777397 -0.24698201 -0.5197234 -0.40278554 0.302 -0.18946433 -0.2145306 -0.5387199 0.2513699 0.088412575 0.1547362 0.14817035 0.11598827 0.23932089 0.13022628 0.23487276 0.19807783 0.3269652 0.26165357 0.29274327 -0.17967145 0.06654159 0.23903382 0.29145932 0.2894356 0.28303745 0.29016218 0.1721853 0.10491045 0.2944425 0.29303348 0.32142445 0.28470612 0.3860417 0.3923104 0.31228086 0.25860542 0.16100977 0.099178076 0.16452631 0.5038578 0.5600306 0.52519095 0.45897555 0.32929024 0.17951377 0.18400016 0.3454644 0.2536875 0.2899858 0.30553463 0.3501514 0.3302713 0.31675053 0.2789185 0.2229301 0.34310707 0.35399166 0.2540742 0.50935817 0.5815153 0.59556687 0.5438591 0.46196526 0.19935256 0.2403588 0.30853945 0.40541565 0.48101848 0.37818658 0.41389006 0.3970187 0.5083407 0.57027686 0.57854754 0.510631 0.26417962 0.26301348 0.5374607 0.57207334 0.40897793 0.44135368 0.5013095 0.504388 0.438348 0.2828077 0.2422089 0.41812873 0.706787 0.4795001 0.4218527 0.32104066 0.27124706 0.28769818 0.72930217 0.7762753 0.79997706 0.7367863 0.52054626 0.29334444 0.6391314 0.7108596 0.7664687 0.5575416 0.5967134 0.69462734 0.6561787 0.620098 0.69350064 0.7172848 0.5088228 0.68270946 0.70148796 0.67355716 0.6563698 0.647787 0.63903916 0.42699975 0.579842 0.5233047 0.5239132 0.5081464 0.35548475 0.44357055 0.4164049 0.39305356 0.029582083 0.0054930374 0.12479041 0.061934665 0.45213744 0.15442115 0.119689904 0.0425607 0.54501057 0.16908339 0.05257045 0.527586 0.23729491 0.4825495 0.27903783 0.25668398 0.1353913 0.16906175 0.18585616 0.104380995 0.19863309 0.072050676 0.18447675 0.075762205 0.04452915 0.39711577 -0.026385002 0.49148402 0.4344344 0.31893432 0.52077013 0.48959154 0.4353076 0.3354783 0.43255237 0.50712955 0.47314537 0.33484936 0.49350268 0.45289934 0.32168186 0.30586174 0.256434 0.06394382 0.10073079 -0.36713743 0.2936199 0.3273149 0.25546852 0.2150794 -0.10138715 -0.23791742 0.27837735 0.31500155 0.32734945 -0.028333925 -0.045587867 -0.14052737 -0.19025283 0.1202102 0.21154502 0.37085348 0.36275625 -0.09099643 -0.11490242 -0.19431956 -0.16191502 -0.27874473 0.07213706 0.37278986 0.3647207 -0.4943921 -0.26371384 -0.34207088 -0.28779465 -0.0029885545 0.334916 0.24385676 0.16334511 0.08214125 -0.55739415 -0.47130328 -0.5394753 0.12230657 -0.12643911 -0.42693222 -0.45538944 0.19102521 -0.105880104 0.24164844 0.26732236 0.20746964 0.23490907 0.2408112 0.16242194 0.15866634 0.23841257 0.189991 0.15439092 0.059497345 0.11329589 0.28259283 0.23124914 0.30213147 0.2969901 0.12019274 -0.051765904 0.051350676 0.2585349 0.23089856 0.2772187 0.28829962 0.2874284 0.29746616 0.38843948 0.4098456 -0.223904 0.44448748 0.3830648 0.357935 0.335824 0.049143158 0.13142277 0.12719162 0.41136575 0.40741724 0.30311185 0.045493327 0.37781996 0.46001807 0.49663156 0.29482305 0.11764127 0.15579124 0.33488628 0.34812027 0.3489989 0.27634102 0.18779726 0.42197603 0.33887333 0.5088984 0.34356844 0.23551865 0.23372711 0.2880731 0.41037613 0.6207273 0.385424 0.37467152 -0.27169335 0.40267816 0.42371994 0.30056217 0.22160447 0.701435 0.35183346 -0.26368636 -0.19888669 0.37010646 0.37483454 0.26951516 0.24074483 0.20517926 0.67438245 0.7119553 0.58979595 0.122648776 0.25985578 0.23267457 0.21735016 0.16664106 0.5970818 0.6318433 0.1177095 0.61016333 0.6048939 0.600924 0.5660669 0.5910238 0.6480634 0.07854585 0.29681918 0.36415818 0.64579713 0.6344183 0.59253514 0.40183157 0.40170038 0.47697377 0.5004649 0.52969754 0.3401701 0.47676048 0.50819606 0.52154595 0.6023146 0.40309048 0.37027246 0.37108266 0.35586938 0.36019227 0.51051795 0.5951793 0.6347832 0.645048 0.32243544 0.45261282 0.65341246 0.18650019 0.15609339 0.05327582 0.17842624 0.21886697 0.21478406 0.15879574 0.38020387 0.48588422 0.13167007 0.20693809 0.56226003 0.17323706 0.09697745 0.095447846 0.53537387 0.23824096 0.50740004 0.5194753 0.2826244 0.48272157 0.50771946 0.24333307 0.22131518 0.22432205 0.056711152 0.15256967 0.15829694 0.1638333 -0.046129674 0.12269928 -0.025209598 -0.051099524 -0.12793937 0.38197497 0.04649031 -0.0074941516 0.49305215 0.44682282 0.025775224 0.53169537 0.53771454 0.2040026 0.5237261 0.52995515 0.2435017 0.48923078 0.4572115 0.280601 0.45384806 0.39978063 -0.1725684 -0.35619593 -0.3480667 -0.3458507 -0.35793233 0.31003934 0.34153393 0.41260314 0.37783307 -0.083729416 -0.11394612 -0.09447235 -0.37003475 0.34882277 -0.022222526 -0.047034167 -0.10419841 -0.28580052 0.2918867 0.32779783 0.36114773 0.3246823 -0.042972863 0.22660555 0.42686796 0.38437152 -0.5029507 -0.2201741 -0.103830226 -0.057174224 0.40636283 -0.108323805 -0.01862739 0.37372032 0.3190034 0.20715833 -0.47763565 0.056844868 -0.058584154 -0.3175571 -0.3721052 -0.4730792 -0.45195067 0.21249872 0.01386755 -0.4725309 0.27461764 0.15384038 0.28326428 0.27679008 0.18161932 0.22436067 0.14650485 0.03261268 -0.04870987 -0.26672348 -0.21389884 0.3192764 0.31765825 0.30289364 0.28758246 -0.12733117 -0.17593923 -0.20029756 0.27015892 0.2818998 0.3646023 0.38510174 -0.29501903 0.31237632 0.06318192 0.13873798 -0.0023035146 0.08149083 0.027829513 0.09361688 0.36092982 0.39116558 0.20623799 0.35615176 0.31165892 0.28482038 0.321701 0.023766976 0.23030202 0.2992459 0.3287289 0.24578081 0.010082349 0.020314664 0.63616765 0.0048138015 -0.11175209 0.016503945 0.69089544 -0.038281288 0.24579263 0.26509035 0.17303851 0.10990846 0.15506673 0.67112404 -0.15814601 -0.15610415 0.13142428 0.107243225 0.13288875 0.20452997 0.22092357 0.22988397 0.5767199 0.6219299 0.62585133 0.59103656 -0.10885487 0.13158646 0.25894693 0.30097955 0.29115525 0.52290994 0.5710027 0.3325116 0.32126677 0.5571245 0.46920377 0.32299122 0.60529584 0.6503873 0.2676131 0.31041825 0.3296523 0.66525733 0.6714933 0.6822812 0.3086486 0.22917446 0.23589507 0.42330247 0.49729615 0.6506258 0.69814503 0.7058756 0.62350833 0.6786159 0.2396282 0.1867399 0.05023148 0.37516722 0.51047784 0.640339 0.6809225 0.25284356 0.24880365 0.26190528 0.25125164 0.624777 0.615551 0.16707158 0.21643889 0.63597506 0.08034217 0.13936512 0.5679101 0.21944335 0.16419277 0.09589671 0.5167006 0.5453334 0.25871876 0.2593002 0.47455916 0.2192963 0.37234372 0.13509099 -0.053233683 -0.045711778 -0.062372494 -0.012055486 0.41135716 0.3608394 -0.026716966 0.06622733 0.47604114 0.4007432 0.062281825 0.52028036 0.48263285 -0.004211113 0.15380555 0.5111859 0.28493786 0.48864174 0.49383187 -0.52442336 -0.38361874 -0.38454646 0.32072467 0.4776513 0.46064657 -0.41780227 -0.37028766 -0.41368234 0.3314336 0.38474664 -0.50130105 0.33982703 -0.15765877 -0.19946465 0.039119083 0.28546843 0.31630793 0.458