# vtk DataFile Version 2.0
Really cool data
ASCII
DATASET POLYDATA
POINTS 2787 float
-6.545011 100.949745 76.5286
-6.5699797 100.919174 77.39688
-6.5931845 101.58438 76.67915
-6.635137 101.54995 77.71492
-6.701096 101.73303 77.907585
-6.582156 102.013985 76.81078
-6.585337 102.634895 77.41987
-6.567059 102.43419 78.01215
-6.0031753 100.25018 76.05484
-5.9555793 100.08613 76.55742
-5.9371943 100.12573 77.51561
-5.8600063 100.20634 78.05114
-6.0430546 100.70255 75.83372
-6.3710613 100.53844 76.53966
-6.4828253 100.769165 77.5087
-6.153907 100.71993 78.31932
-5.9831543 100.856155 78.79944
-6.1115527 101.395485 75.85911
-6.3861756 101.49282 78.46127
-6.0026393 101.44058 78.9326
-6.0428543 102.129295 76.120445
-6.231581 102.52757 76.54304
-6.384659 102.36336 78.41887
-6.008867 102.43346 78.749306
-6.1046114 103.34713 77.07138
-6.358067 103.23732 77.53518
-6.2267146 103.2226 78.12558
-5.8984847 103.69581 77.52297
-5.948874 103.64358 78.001175
-4.528849 90.878716 72.02895
-4.5745597 91.32223 71.74737
-5.6191998 100.00438 76.150406
-5.750959 100.055534 76.52235
-5.5884433 99.9828 77.84176
-5.748519 100.16231 78.14219
-5.250465 100.28417 78.77723
-5.5451427 100.707306 75.62189
-5.4887185 100.743385 79.05889
-5.6013584 101.22624 75.540184
-5.3703375 101.52656 79.25705
-5.4458175 102.33604 75.95745
-5.3941627 102.14289 79.15389
-4.9903674 102.96703 76.24792
-5.4306827 103.38489 76.74113
-5.3835397 103.47774 78.41347
-5.6568093 102.95576 78.780174
-5.626763 103.64915 77.12016
-5.4856997 103.768394 77.53663
-5.443916 103.718834 78.09512
-3.670031 89.33916 71.727554
-4.274106 90.08568 71.757904
-4.2439666 90.03432 72.130905
-3.9182005 89.98228 72.770004
-4.1563015 90.78363 70.876755
-4.431504 90.5782 71.64761
-4.4415903 90.78232 72.51768
-4.118473 90.830734 73.01506
-4.0260572 91.47321 70.70373
-4.4039555 91.498795 71.51642
-4.3802853 91.3475 72.53397
-3.9588675 91.60529 73.29046
-3.5972629 92.18093 75.809814
-3.8869696 92.16347 70.736496
-4.1605744 92.15571 71.466225
-4.146578 92.27946 72.30138
-3.9728663 92.211815 73.19521
-3.5495317 92.58047 74.08807
-3.7208138 92.7298 75.42667
-3.6492472 92.52759 76.02385
-3.8807228 92.68711 72.28714
-3.642536 93.18046 75.29029
-4.508592 100.17554 76.01252
-4.363154 99.9462 78.45485
-4.907046 100.66687 75.60789
-4.5849905 100.80177 79.2883
-4.6436896 101.6805 75.58544
-4.4185305 101.4355 79.37129
-4.6255937 102.269875 75.81289
-4.8073807 102.11781 79.258156
-4.266438 103.08913 76.22156
-4.5477066 103.37444 76.60326
-4.4261966 103.39066 78.370735
-4.661481 103.10192 78.78592
-4.4450207 103.71304 77.28038
-2.6990254 88.30713 70.99237
-2.9098587 88.639824 70.64946
-3.1247005 88.75591 71.127235
-2.950403 89.97592 70.03708
-3.395619 89.47095 70.80497
-3.6607018 90.10552 72.98309
-3.0235324 90.89061 73.766
-2.8149064 91.42286 75.599945
-3.2761588 91.68284 70.080414
-3.3468537 91.72366 75.523766
-3.0215678 91.94205 76.36293
-3.3209906 91.98873 70.16315
-3.517873 92.363304 70.564705
-3.3438435 92.60313 76.39947
-3.057008 92.531235 76.61175
-3.34156 92.874374 71.48729
-3.4677114 93.04 73.39504
-3.4031453 93.43479 74.78798
-3.35599 93.63348 76.21301
-2.742915 93.91796 76.76372
-3.0427384 94.355835 74.2422
-3.2181191 94.3366 74.597786
-3.4060583 94.15421 75.54801
-3.0615363 95.12552 74.70073
-3.2077656 94.98626 75.78961
-2.6550937 94.9306 76.59058
-2.606529 98.544334 76.089325
-2.9137704 98.72027 77.355354
-3.6002834 99.633415 76.34346
-3.127273 99.53529 78.84422
-3.7038424 100.463554 76.07105
-3.16928 100.75686 79.48873
-3.199305 101.21746 79.47285
-3.3863413 102.43432 75.854095
-3.2392058 101.9381 79.32632
-3.5305305 103.10544 76.175644
-3.9108622 103.338585 76.45766
-3.6869693 103.45844 78.09864
-3.5207462 102.78998 78.867516
-3.406937 103.556435 76.69555
-3.58096 103.65035 77.38989
-2.089835 88.12044 70.74817
-2.3819664 88.071884 71.37831
-2.1565785 88.300896 72.19146
-2.4506543 88.77695 70.00679
-2.6879878 88.44687 70.49303
-2.6832705 88.37674 71.76056
-2.0144978 88.64517 72.55454
-2.088819 89.6583 69.32115
-2.5778754 89.30777 69.69397
-2.008043 90.08886 69.260574
-2.1412814 90.9201 69.591835
-2.654068 91.603935 76.25784
-2.2184575 92.17106 76.838455
-2.762859 92.2841 76.763214
-2.5217028 92.802216 70.71826
-2.603154 93.26021 71.91163
-2.6307273 94.24318 76.80021
-2.3698506 96.008026 76.49471
-1.8908242 96.006454 77.145
-1.7163334 97.69747 74.98681
-2.1255846 97.34659 76.14418
-2.0815659 98.19086 78.05211
-1.6663274 97.91272 75.03895
-2.0867248 99.12874 79.073715
-2.3919563 99.86737 75.72555
-2.0179074 99.58409 79.56555
-1.9421041 100.08599 80.02453
-2.2398245 100.30701 75.79556
-2.478477 100.279205 79.74525
-2.6533809 101.50366 75.81969
-2.6874633 101.718376 79.39152
-2.2449973 101.29277 79.81056
-2.839107 102.431725 75.858444
-2.5698814 102.53913 78.9367
-2.7385592 102.89127 76.093414
-2.523226 103.376755 76.75364
-2.6626804 103.4788 77.47144
-2.6101518 103.09621 78.324684
-2.9438176 103.58157 76.83485
-2.9014142 103.60433 77.29167
-1.5601363 88.21568 70.19038
-1.5136355 87.92603 70.84478
-1.5288198 87.962944 71.35186
-1.6442027 88.22813 72.22066
-1.451482 89.092575 69.40656
-1.4985046 88.80631 69.63264
-1.1693798 88.503296 72.552376
-1.5815532 89.64586 69.22497
-1.4867024 90.34573 69.2338
-1.0330878 90.942406 76.002495
-1.2906466 91.4956 69.518684
-1.7254717 92.239784 76.88142
-1.4381993 93.06016 70.65996
-0.94253767 93.61603 77.712814
-1.6987014 94.47867 77.6354
-1.1972604 96.63553 74.02843
-1.3472166 96.08591 77.5253
-1.1410034 96.364136 77.73331
-1.2995241 97.82722 74.570404
-1.2673153 97.31997 77.695694
-1.2266598 98.87467 74.956215
-1.3092319 99.09582 74.90438
-1.303592 99.76395 80.08666
-1.3052177 100.43416 80.24225
-1.6849163 101.351166 76.00754
-1.443073 101.34358 79.942894
-1.1777319 102.453255 78.62669
-1.3519979 102.15727 79.20217
-1.7295173 101.80532 79.63564
-2.1791387 102.89934 76.22174
-2.128353 103.14998 76.78461
-1.941217 103.15537 77.35476
-1.5763683 102.86463 78.08702
-0.92794514 88.0619 70.47585
-0.6308786 88.03978 71.47984
-0.88192624 89.15462 69.39844
-0.855783 88.80411 69.74094
-0.2764766 88.39792 70.49992
-0.8612321 89.54683 69.29702
-0.41898817 89.44869 74.05625
-0.35019147 89.87997 75.145645
0.22292836 90.0075 76.94202
-0.07877928 90.19549 76.72707
-0.4509017 90.990555 69.47184
-0.008033708 92.49469 77.57716
-0.45484406 92.908 70.0465
-0.33613488 93.42505 70.851135
-0.3201067 93.42917 78.00354
-0.6304381 94.66747 78.18247
-0.6692257 95.63344 73.522026
0.008648872 95.91983 78.35591
-0.02394718 96.884636 78.11067
-0.4635893 97.14287 78.16928
-0.49099514 98.64644 74.44848
-0.44326532 98.97398 79.331894
-0.6658006 99.86977 80.12385
-0.6525286 100.421364 80.21825
-0.71241695 101.05589 75.9503
-0.7628453 101.2054 80.032
-0.91132694 101.94832 76.38471
-0.60475373 102.33553 78.47006
-0.7475206 102.00185 79.125786
-0.92222553 102.68583 77.45941
-0.94890106 102.58623 78.33612
-0.10309917 88.21606 71.038246
0.064954385 88.40018 71.528145
-0.21745063 88.973946 69.95095
0.071151376 88.55194 70.674324
0.4698712 88.63594 72.03032
0.49269035 88.905334 73.16657
0.8953778 88.6492 74.61761
0.8819035 88.83459 75.912445
0.72107494 89.04109 76.38865
0.9626142 89.1664 76.79434
0.25099394 89.46655 70.04729
0.66635287 89.63208 76.98678
0.7798872 90.66222 69.96635
0.535959 90.50324 77.39881
0.07366285 92.44528 69.73493
0.43450353 93.19696 70.04639
0.42757607 93.45832 70.438034
0.68293166 93.76771 70.86175
0.37709567 94.16643 72.64602
0.25805223 94.65398 78.51801
0.04549639 95.52974 73.48586
0.9370908 98.79059 73.64944
0.78663474 99.42394 74.01113
0.036131352 99.7488 79.74677
0.23435304 100.58139 79.66745
-0.19615693 100.79583 79.98592
1.2225839 101.2382 75.27821
0.1342935 101.26481 79.23792
0.09016955 102.05899 77.60652
0.09215838 101.96515 78.24717
1.9556495 88.44428 73.884605
1.8313662 88.47471 74.54103
1.301396 89.00967 71.73405
1.9014549 88.725555 72.74591
1.8970315 88.66217 73.16788
1.5538726 88.595695 75.60474
1.6630487 88.800674 76.49743
1.5150881 89.15991 76.91182
1.2042115 89.89211 70.37577
1.0437938 89.51812 70.5652
1.5622897 89.65467 77.328415
1.674243 90.83655 77.839775
1.1928647 91.430626 69.76414
1.6950552 92.70982 69.406975
1.681365 94.03767 70.44856
1.8287041 94.43853 71.17103
1.9274378 94.76645 79.640175
1.7355431 95.69714 79.267105
1.2629747 96.93145 78.63756
2.0150337 98.36856 73.2345
1.7625601 99.27665 78.18497
1.5521225 100.33192 73.837654
1.9868327 101.01869 74.01612
1.6038117 101.25556 74.65426
2.0760071 101.60573 74.94763
1.8619274 101.65867 75.41292
1.5225756 101.58864 76.46485
2.1551 88.43523 73.41004
2.1850255 88.47377 74.19854
2.5778885 88.69742 72.833145
2.6571927 88.663956 74.680016
2.2303207 88.62724 75.75524
2.5152974 88.8451 76.28668
2.3171966 89.09744 76.89665
1.8775036 90.003525 70.65966
2.634676 89.519035 77.124664
2.1529696 91.39973 69.81542
2.72933 92.105446 79.232346
2.7489254 93.38407 80.194885
2.305083 94.12456 70.06106
2.8467588 94.88946 80.469635
3.191141 94.61225 80.8628
2.9531174 94.92809 70.88121
2.7353756 95.36236 80.35018
2.6315765 95.84267 80.05461
2.6762943 96.96771 78.98917
2.2026453 98.36015 78.38942
2.3012776 99.631546 73.413284
2.3824651 100.54221 73.55531
2.282666 100.3818 77.73494
2.5374236 100.911804 73.74595
2.4885056 101.44921 74.35996
2.8235002 101.35805 76.65547
2.138104 101.50958 76.88673
2.4846814 101.664856 74.798996
2.6672027 101.78868 75.472885
2.56314 101.67003 76.23243
3.2125568 88.77883 73.81361
3.267779 88.89742 74.19142
2.9458375 88.77079 75.32604
3.2174358 89.14405 76.34125
3.4752486 89.74029 76.73898
3.0284553 89.59582 77.04124
4.462494 90.894226 67.5074
4.2877283 90.95435 68.87179
3.7579212 90.44373 77.22246
3.1654484 90.479324 77.62563
4.411891 91.36155 66.333885
3.6923332 91.48375 78.5914
3.391943 92.31469 79.78643
4.3691096 92.10713 67.94256
4.2592635 92.482025 68.513405
3.8009415 92.81759 80.23706
3.8957145 93.39255 68.71805
3.5431552 93.50632 69.51623
3.2156734 93.2956 80.44736
4.157722 93.64481 81.13302
3.863129 94.280495 69.351814
3.8017142 94.26879 81.21538
3.7001526 95.36502 80.975845
[...]
POINT_DATA 2787
SCALARS features_00 float 1
LOOKUP_TABLE default
0.89247143 0.83004624 0.93246245 0.8679646 0.87758267 0.9470645 0.9586653 0.93870246 0.8510776 0.82624394 0.7672946 0.74470896 0.87013435 0.86271983 0.8126334 0.77776885 0.77756864 0.93243206 0.8392398 0.82086194 0.9403671 0.94426435 0.9176903 0.9021419 0.9194591 0.95856357 0.9581455 0.92032653 0.9406183 0.60131806 0.6144841 0.80358034 0.8054755 0.7104627 0.7318328 0.69188094 0.815094 0.73702204 0.8763982 0.7559681 0.8368271 0.7995795 0.71876323 0.80684286 0.9002956 0.91037786 0.85824084 0.8731389 0.8970674 0.6372775 0.6142839 0.59818685 0.5528007 0.65955424 0.61887413 0.57607126 0.5388689 0.6613748 0.6300669 0.56702733 0.48424882 0.51939833 0.6540594 0.63288283 0.5559801 0.4482257 0.30031317 0.47030997 0.53385717 0.54234946 0.43090302 0.6585609 0.5629784 0.7271906 0.61727124 0.7222898 0.5837714 0.67095804 0.6803082 0.6411813 0.6904664 0.78030443 0.7809601 0.73932874 0.72454476 0.72643805 0.6919154 0.69684565 0.6837344 0.5243921 0.3701616 0.42759174 0.6512238 0.48741782 0.5036409 0.63830936 0.63581663 0.54263794 0.52838933 0.6115812 0.30573288 0.3288815 0.53959817 0.4727161 0.27759698 0.33503628 0.465456 0.3598861 0.44612128 0.37676826 0.20827109 0.39718726 0.36948258 0.35707313 0.46580297 0.47751802 0.48349333 0.5504502 0.49653882 0.60706735 0.63986963 0.67972195 0.5865389 0.63447165 0.6640636 0.7467042 0.71290386 0.6488079 0.74955213 0.7427532 0.6748563 0.55522084 0.6687728 0.7171687 0.6273062 0.57311666 0.4498123 0.42179346 0.49554536 0.51622975 0.52457297 0.422503 0.2886904 0.23116103 0.19752261 0.23649833 0.24076174 0.16854063 0.37731925 0.17523742 0.49931428 0.5855437 0.22165251 0.52983844 0.43463662 0.5016345 0.5445381 0.53534055 0.515975 0.5770548 0.61002445 0.60025394 0.562649 0.62393606 0.61875224 0.75279987 0.7334665 0.69932055 0.6252859 0.68292046 0.71082425 0.5082418 0.6450731 0.5747601 0.26432693 0.48214573 0.34192437 0.3260087 0.23682228 0.26082036 0.19501057 0.15819193 0.11105424 0.13078237 0.0047738254 0.04480214 0.036276158 0.6288371 0.6566945 0.40763265 0.6175761 0.47578636 0.5174412 0.55148864 0.57527745 0.5962881 0.5702046 0.49898976 0.7019992 0.59609336 0.63194597 0.66104954 0.60420156 0.5942701 0.28164956 0.3552848 0.4021483 0.3603617 0.49656576 0.15533502 0.2722005 0.16093354 0.1798869 0.17954208 -0.021600008 0.1041622 0.064528115 0.028243788 0.06464409 0.5538693 0.6797919 0.6995555 0.3077097 0.6754794 0.50680393 0.45614892 0.5323082 0.45372647 0.454899 0.55180275 0.46406263 0.5754095 0.5357901 0.32494637 0.2375507 0.3618704 0.487957 0.48225695 0.49324876 0.4854685 0.45631063 0.3369388 0.36571038 0.33293864 0.21475427 0.17334217 0.09557669 -0.11779771 0.098393284 -0.01916805 0.2936185 0.31950712 0.6671212 0.6731453 0.7055604 0.5418103 0.6072301 0.37249866 0.4227644 0.31136346 0.37300545 0.26237994 0.1792541 0.23436593 0.48306093 0.5182076 0.50834143 0.35600525 0.39588606 0.48211703 0.39515963 0.3329831 0.34358707 0.10444265 0.049561292 0.23216705 0.14971824 0.08757994 0.2964565 0.16546978 0.51702607 0.6005889 0.5872962 0.62875473 0.61012256 0.52142274 0.26752967 0.3474968 0.20322645 0.39777237 0.49044895 0.49650985 0.49953598 0.27884325 0.45685 0.24829806 0.3269474 0.45008522 0.07189629 0.44304278 0.540855 0.036745343 0.39086175 0.32489687 0.17188045 0.06199435 0.47135723 0.59338224 0.38150194 0.63436854 0.645347 0.56180656 0.5224282 0.64955205 0.64373106 0.601542 0.32620606 0.35586786 0.45095012 0.43124393 0.35021645 0.40957478 0.4369823 0.3301072 0.25555673 0.29707822 0.5877893 0.24754858 0.41054907 0.47013068 0.34400648 0.47023663 0.2068376 0.08782054 0.48866695 0.6147101 0.05028829 0.6349579 0.60474944 0.5092442 0.38539976 0.21829203 0.6709052 0.42417315 0.7043828 0.7275789 0.648174 0.59453636 0.5528115 0.692495 0.6617353 0.6179795 0.47379935 0.39619112 0.18074909 -0.11965777 0.31570888 0.27719855 0.6014898 0.5209308 0.4466238 0.019628875 0.20872602 0.19703658 0.69517374 0.21008758 0.6773609 0.5460166 0.5282931 0.6068044 0.5219327 0.45139688 0.6869526 0.31182057 0.2664714 0.7332207 0.7212613 0.7434875 0.35309774 0.3242624 0.7144091 0.43691087 0.38259035 0.698207 0.6820829 0.3974721 0.74385506 0.7651409 0.53595746 0.5133884 0.7654652 0.6779696 0.5881774 0.4116738 0.35815632 0.2607649 0.37248635 0.70317525 0.5454179 0.5072711 0.3895984 0.19138986 0.7214371 0.6504438 -0.062594935 0.15870243 0.1823219 0.6959591 0.12307364 0.34065744 0.34817472 0.57157224 0.5286538 0.036185272 0.6664349 0.68629456 0.50056875 0.7402779 0.4839971 0.45904732 0.76502633 0.76020014 0.7608771 0.7617491 0.74500525 0.75582725 0.45508325 0.4508692 0.7169894 0.44866684 0.37471348 0.0021595675 0.17075434 0.3759429 0.634796 0.57917595 0.3252653 0.38062567 0.3900295 0.39823508 0.28527492 0.34222624 0.39470246 0.4727855 0.30982882 0.7313446 0.70143646 0.7254238 0.6607772 0.5429423 0.47128755 0.4446501 0.43812037 0.3132546 0.5699284 0.7108933 0.75131977 0.43497193 0.31594163 0.7378373 0.7632011 0.2252091 0.37305325 0.5067681 0.74562293 0.7689165 0.36343277 0.41419575 0.29850495 0.42013812 0.57082343 0.7370186 0.7662897 0.43906564 0.45903257 0.41113502 0.38119125 0.019816317 0.5008176 0.44799668 0.43580145 0.6111666 0.6341474 0.60472244 0.5447955 0.28295207 0.31938735 0.3798504 0.3923932 0.3696805 0.62649107 0.5958524 0.54777336 0.36013016 0.63157225 0.31460038 0.4711824 0.27631575 0.45937166 0.721625 0.6305629 0.52430314 0.52136695 0.45625526 0.31968272 0.42502588 0.3780521 -0.62183 0.5603233 0.63160586 0.71176887 0.3258074 0.21781296 0.45754215 0.62545186 0.7258674 0.12427657 0.45070627 0.5827419 0.6961545 0.3134947 0.20913853 0.44277918 0.4301359 0.4104665 0.40033853 0.2861012 0.6245346 0.61545765 0.58486557 0.58151424 0.57081413 0.4965859 0.5069628 0.4644963 0.3852688 0.3823501 0.8129462 0.8012465 0.59089136 0.6384249 0.60695386 0.54384786 0.48082352 0.29843912 0.34683102 0.6569351 0.6466358 0.34935668 0.6594359 0.6418505 0.62542784 0.5959742 0.19947544 0.46859473 0.54777277 0.5934979 0.53275716 0.6496312 0.5714531 0.46900606 0.6650602 0.43567222 0.39594102 0.62023175 0.40114897 0.3206375 0.19748281 0.12150394 0.099858046 0.13021538 0.1806247 0.36277816 0.4071102 0.4128745 0.62898386 0.62955606 0.6210442 0.5975437 0.63189685 0.61579263 0.5384834 0.60451627 0.2711758 0.29187745 0.32787836 0.29875034 0.2519639 0.23452164 0.15330073 0.24046993 0.26013193 0.11386988 0.06466713 0.07248 0.80334634 0.7973722 0.79005533 0.8140631 0.77265483 0.6797064 0.30671078 -0.017636422 0.77896607 0.78125954 0.75112057 0.70698196 0.5009161 0.26887524 0.15080723 0.2045972 0.7076765 0.6623677 0.5925648 0.26127082 0.66881186 0.66517866 0.24293898 0.1700181 0.65504587 0.24646084 0.51554847 0.6193399 0.6066576 0.52782965 0.57978994 0.61868685 0.632742 0.47231436 0.41873065 0.35194397 0.66109717 0.07716055 0.6654476 0.34655342 0.6455664 0.005205497 0.1607027 0.11481397 0.10124371 -0.0011501759 0.6253047 0.62467283 0.61355865 0.6067749 0.5326638 0.59991896 0.5261811 0.2825616 0.22719537 0.47358727 0.24184775 0.23969485 0.23744401 0.238717 0.22812268 0.21632922 0.6313126 0.6183382 0.15348831 0.30663168 0.7429858 0.7184535 0.16117577 0.0027734563 0.05893384 0.73740596 0.22752763 0.031200938 0.72942346 0.71845055 0.20778507 0.64744073 0.6597544 0.49653572 0.48121315 0.39294058 0.18872255 0.4908464 0.4205686 0.59935486 0.11498151 0.5199986 0.52553463 0.49391577 0.4882872 0.5033251 0.57991654 0.52245265 0.5132771 -0.2794012 0.6180941 0.28219035 0.64157486 0.6470556 -0.13731363 0.42722347 0.6503528 -0.025718927 0.17160995 0.3358701 -0.049458742 0.12882462 0.075766504 0.15820147 0.59341013 0.6136375 0.60950935 0.591356 0.5914376 0.51310235 0.4070937 0.25503284 0.28918839 0.2467081 0.22438069 0.5218124 0.33358142 0.40692878 0.5344779 0.48197827 0.39526886 0.3495339 0.63597167 0.6849601 0.65330565 -0.09976406 0.037466772 0.58980834 0.55686754 0.104717605 0.49456158 0.4642142 0.41570264 0.43119165 0.5044103 0.51358104 -0.2815149 0.50774854 0.50174415 -0.15550466 -0.044437993 0.61394763 0.16263482 0.13952844 0.28007355 0.28008386 0.283462 0.17320418 0.5947815 0.6044507 0.60448086 0.56449413 0.5711876 0.58466953 0.54373634 0.39654204 0.2941774 0.667503 0.6916859 0.7107529 0.68154156 0.60559726 0.3935161 0.5076593 0.5535559 0.3518127 0.60058343 0.11185957 0.12656108 0.6158668 0.6321924 0.6317643 0.58441025 0.5068762 0.4664026 0.6155327 0.63822174 0.60766745 0.5721834 0.5015335 0.616816 0.46083078 0.45231393 0.42527202 0.61520636 -0.15396923 -0.06936923 0.30591512 0.33536366 0.2974057 0.27161893 0.32023582 0.32811868 0.36090076 0.34201574 0.83521056 0.60479605 0.67507565 0.78760356 0.8549961 0.73698103 0.5621138 0.6378542 0.8229434 0.59741926 0.6647444 0.7469796 0.72866476 0.6972375 0.6873388 0.65994644 0.63282466 0.60013556 0.6005182 0.59434384 0.50417185 0.58659446 0.549404 0.65075845 0.6556767 0.4623 0.6557822 0.3958416 0.44795862 0.6815378 0.35082084 0.72837603 0.7211949 0.7184187 0.67198586 0.6335488 0.44423258 0.55673236 0.64580834 0.08557613 0.6899532 0.44858015 0.6949552 0.3648088 0.50841415 0.554678 0.6149893 0.64753103 0.68592304 0.666216 0.6141386 0.5159812 0.43509924 0.18582642 0.36537454 0.29577643 0.16887659 0.6520227 0.41929924 0.6237751 0.5391189 0.17072047 0.24367309 0.33869833 0.36911157 -0.031778112 0.37418967 0.40844446 0.37838066 0.34879875 0.35584277 0.3568773 0.49115837 0.79115397 0.5971397 0.55924237 0.55775195 0.55171317 0.5045234 0.7222507 0.7894313 0.7780567 0.73367167 0.5315996 0.53215677 0.6667893 0.80839825 0.7803626 0.7069261 0.65118754 0.49398977 0.52352214 0.5215988 0.8214871 0.7775785 0.6833501 0.6469296 0.7607187 0.73550916 0.6906171 0.7583112 0.7944077 0.7919069 0.75360996 0.6799497 0.75255096 0.78291744 0.7395539 0.7189382 0.69850075 0.6537521 0.65530777 0.60946345 0.63046604 0.6482966 0.6532866 0.52753496 0.4934707 0.5040875 0.48877025 0.47491813 0.41756183 0.35176104 0.52134496 0.4458456 0.37274492 0.5035206 0.56155646 0.50114954 0.5065272 0.5121516 0.60378057 0.6550334 0.67679477 0.49738336 0.49747694 0.47924405 0.41233477 0.69401735 0.48704338 0.65372545 0.37230462 0.6127064 0.68394595 0.7113077 0.69072545 0.69938326 0.68848526 0.6980412 0.70454025 0.4601323 0.40170813 0.5859886 0.6360191 0.57944465 0.69420934 0.09316073 0.40710452 0.7126196 0.70132256 0.5489422 0.15176636 0.14896214 0.6057108 0.698604 0.66870093 0.58838147 0.23634925 0.22882059 0.18239722 0.19418901 0.2320781 0.60942197 0.6410669 0.18793018 0.6516728 0.016727313 0.45622596 0.3005383 0.24990264 0.019190744 0.0058944374 0.3782187 0.47031587 0.13729279 0.49226052 0.4770752 0.5038552 0.4290378 0.66036355 0.3645702 0.35469112 0.40923414 0.7149837 0.68209934 0.38060987 0.5862785 0.7715162 0.72702146 0.7048461 0.49174118 0.46203834 0.54513454 0.7732409 0.79825366 0.5876074 0.3885672 0.43651456 0.4303794 0.36265898 0.80463743 0.60141814 0.69845706 0.6732868 0.6480332 0.3970134 0.36749125 0.76654947 0.71992797 0.6803497 0.61261976 0.68709266 0.7160175 0.70605224 0.6235678 0.60867864 0.7020124 0.67915154 0.6460599 0.68333334 0.5719887 0.6460978 0.5688131 0.509207 0.45542306 0.3933308 0.6203127 0.5955939 0.28882217 0.6842556 0.63829947 0.55923563 0.3646386 0.30748165 0.6199964 0.5487716 0.4679913 0.39379114 0.5075612 0.46453667 0.47241288 0.61296284 0.6619034 0.46592355 0.42360425 0.43076783 0.5755514 0.6313259 0.6500397 0.47925502 0.4321922 0.37819 0.349544 0.3875826 0.5751902 0.6229939 0.6406892 0.35497648 0.3636427 0.24625939 0.20538223 0.3549648 0.55216527 0.21496853 0.23900169 0.14292991 0.11520496 0.6601019 0.6697825 0.6816559 0.14991918 0.27385914 0.6444929 0.677997 0.68519205 0.16206025 0.23272008 0.36719555 0.7039826 0.34995428 0.05883608 0.72737265 0.54747665 0.061894182 0.011009924 0.21975055 0.62197185 0.57016736 0.34910873 0.2557555 0.033341933 0.6820672 0.67037463 0.10608755 0.12196792 0.6928208 0.6939504 0.685526 0.62545407 0.5848104 0.28701812 0.5076982 0.52402955 0.56737506 0.6800833 0.6688005 0.64032096 0.21454102 0.26946086 0.2969129 0.28782278 0.5486643 0.61232376 0.29462034 0.52602667 0.33411974 0.33161747 0.115320705 0.3394752 0.36949897 0.4675572 0.31555164 0.5692414 0.12268604 0.5893234 0.59103775 0.63604885 0.64425087 0.516283 0.0805018 0.036972165 0.33736232 0.5118687 0.60020787 0.5958618 0.12100258 0.3430622 0.541041 0.38633972 0.41342908 0.48775357 0.4539125 0.5436778 0.19965267 0.3984729 0.62091416 0.6020319 0.35035244 0.42137617 0.440964 0.23843347 0.41326734 0.6790267 0.7214901 0.24241945 0.22576886 0.3123188 0.32992178 0.7273982 0.26348582 0.35345557 0.69328165 0.72766614 0.4244507 0.553275 0.58326507 0.5724345 0.55664295 0.27406842 0.3725233 0.34562746 0.6846037 0.3663708 0.5889732 0.6015176 0.55043894 0.44780913 0.6911627 0.68590724 0.65635556 0.54990804 0.55407655 0.4748931 0.596503 0.6063657 0.42652678 0.28396696 0.6793154 0.1490129 0.71351445 0.28599662 0.22605166 0.6503426 0.60859764 0.32247183 0.28947967 0.5649053 0.47928047 0.40284497 0.3539635 0.3081153 0.2903552 0.4525448 0.5366118 0.3634402 0.50265396 0.5236161 0.18980026 0.13299781 0.40033165 0.6564659 0.15525934 0.15219805 0.16653533 0.57465345 0.62726843 0.6633258 0.6846109 0.1600014 0.20714831 0.1928823 0.61081564 0.66117597 0.69052756 0.34036678 0.2486716 0.11860821 0.34570372 0.4685371 0.6426159 0.53073543 0.46840286 0.33505142 0.39155322 0.45975003 0.62327814 0.618327 0.531885 0.41999656 0.36980882 0.3796798 0.40649104 0.4124803 0.6973884 0.69798815 0.6152313 0.55364215 0.34213352 0.3610869 0.38192722 0.44419456 0.71351635 0.69384664 0.6565011 0.28964785 0.33267447 0.347914 0.4785965 0.5283074 0.54689753 0.31022158 0.42445076 0.500382 0.57202935 0.2652971 0.3569014 0.47405314 0.2777572 0.22847219 0.2948959 0.42205942 0.49348527 0.27888745 0.26653162 0.15848938 0.14771323 0.6043574 0.3158027 0.36029717 0.26664823 0.48743078 0.50948983 0.42592564 0.40942913 0.35985476 0.5905857 0.5599297 0.35679492 0.6650201 0.6665313 0.67839575 0.62009287 0.64507246 0.6495415 0.66981685 0.6634747 0.6394563 -0.08068298 0.42637187 0.62958586 0.5849596 0.055821896 0.31677514 0.27937335 0.54953754 0.48482472 0.543353 0.29663673 0.6499695 0.5965291 0.57894963 0.46252024 0.44666022 0.19561148 0.6146889 0.2830853 0.20629938 0.22526097 0.6187794 0.22709516 0.21002027 0.22399458 0.0731468 0.60977876 0.5716351 0.19897482 0.5116367 0.5107424 0.4680101 0.23316942 0.25684488 0.33769915 0.29478925 0.0051942617 0.5812588 0.26219743 0.35462067 0.40904838 -0.009594101 0.56205094 0.4316901 0.3782373 0.36136281 0.5461046 0.53987205 0.5219365 0.505475 0.25706312 0.25086066 0.078640155 0.594966 0.5691255 0.5875551 0.62238085 0.7334361 0.7202518 0.6830329 0.74809396 0.79314864 0.7560195 0.679832 0.6297537 0.7787466 0.7675952 0.5067739 0.26198995 0.22966892 0.3858204 0.32045895 0.27908137 0.23768523 0.22726536 0.26556414 0.4298945 0.47612625 0.5241106 0.4178137 0.4612143 0.76395464 0.7659586 0.7305926 0.720018 0.6695035 0.27206093 0.22407454 0.56987613 0.43644032 0.33991748 0.50286037 0.5032767 0.6609061 0.6872058 0.67799765 -0.061653942 0.35007903 0.5882354 0.6568984 0.62941605 -0.04291775 0.76729876 0.36181244 0.57671785 0.07425533 0.6684838 0.7151281 0.7299129 0.7206844 0.48238707 0.07609127 0.5940142 0.61301917 0.64533436 0.65539134 0.5349015 0.4233266 0.114984185 0.557269 0.5845841 0.53964466 0.53069484 0.113579616 0.14245184 0.006829411 0.47785527 0.5548893 0.26736176 0.14487569 -0.037605543 0.38683686 0.52006954 0.15596479 0.358949 0.057789225 0.28567407 0.14574137 0.053975165 0.308912 0.36907452 0.06534847 0.123384744 0.0908216 0.53591496 0.3886034 0.036677636 0.015600264 0.14655979 0.2843907 0.24701537 0.54174066 0.5358562 0.5414511 0.5162747 0.45184928 0.4316634 0.010277405 0.18211737 0.17249565 0.2048009 0.4551903 0.036943406 0.15261544 0.54616696 0.1828502 0.5918946 0.6078026 0.5001247 -0.2254625 0.45935982 0.51195836 0.5865336 0.66222334 0.03927853 0.5700799 0.6381049 0.67861986 0.558735 0.7761843 0.7582035 0.7045213 0.68208885 0.20761698 0.6991404 0.3304284 0.25580734 0.22369519 0.21560875 0.30290654 0.2923972 0.35541308 0.37458736 0.3698232 0.36843377 0.41829902 0.4096384 0.38849366 0.72245085 0.74889386 0.74722326 0.7372993 0.6846988 0.703434 0.67289424 0.6197319 0.24903986 0.4969353 0.060195148 0.3465027 0.42111844 0.64025617 0.5715593 0.029688068 0.7350575 0.75717425 0.74678946 0.72712266 0.33377546 0.52305216 -0.04617949 -0.10708211 0.6735234 0.69712114 0.35657334 0.6078418 0.37696412 0.19777834 0.02809538 0.19896941 0.5478997 0.56848854 0.4586606 0.28552207 0.19653486 0.11056498 0.21843131 0.49441788 0.4657327 0.0077084303 0.32855308 0.21728668 0.23103654 0.27824917 0.37417197 0.40585628 0.12513888 0.20493934 0.50131947 0.22860843 0.1762561 0.117269054 0.5381386 0.40917408 0.2148536 0.3356517 0.36838803 0.54904246 0.5774431 0.5667634 0.56408733 0.519405 0.11786039 0.46210638 -0.12530062 0.64770675 0.5884724 0.43779016 0.61817986 0.688029 0.68082714 0.51765937 0.68034005 0.33384377 0.09400123 0.6661289 0.5887391 0.60058117 0.31070712 0.5994891 0.5609361 0.20770651 0.55862 0.40937626 0.34207368 0.30243576 0.4855048 0.43313813 0.43579245 0.43022585 0.4198823 0.38712204 0.44081765 0.43861178 0.4321309 0.7061205 0.72828615 0.7289951 0.593457 0.66550004 0.70005363 0.7183813 0.45722526 0.6387594 0.26459563 0.3536806 0.63381964 0.6723757 0.21720454 0.08892082 0.64179623 0.5348111 0.08814947 -0.19523934 0.39674652 0.65367573 0.64392257 0.2727515 0.5985905 0.5662335 0.30114436 0.44704577 0.3578021 0.5632664 0.3374182 0.17237872 0.14863083 0.2306924 0.227971 0.4712124 0.36862028 0.22879691 0.1249658 0.03914213 0.2698659 0.30764595 0.18277948 0.41736674 0.5523722 0.5434049 0.6067177 0.6138191 0.5069418 0.15460198 0.4038045 0.3889379 0.62807864 0.6391206 0.67972386 0.15503821 0.63038236 -0.00779178 0.48651293 0.4686048 0.118935876 -0.004019439 0.23782787 0.45383266 0.47232115 0.0820795 0.60999024 0.58459073 0.58126765 0.58416814 0.45234552 0.35817367 0.44965956 0.44207427 0.42490152 0.3740322 0.3915518 0.60061926 0.6699998 0.6948202 0.45595688 0.5698203 0.66119576 0.65233135 0.42934376 0.55508935 0.4115194 0.15317976 0.26357564 0.2835456 0.036861777 0.5433397 0.5774499 0.542488 0.17363727 0.31287378 0.52529657 0.5703203 0.1411244 0.2498357 0.5846751 0.60170686 0.5977597 0.5044038 0.5564185 0.09131982 0.4994737 0.55140835 0.5625921 0.16426405 0.2958348 0.47773808 0.10258077 0.5694547 0.25441474 0.28351077 0.032929458 0.20955546 0.4332472 -0.099125125 0.559682 0.23594451 0.5817677 0.10222701 0.6208401 0.09767084 0.59995043 0.6069582 0.49709243 0.56856316 -0.080662996 0.44161123 0.41606647 0.19612384 -0.0037322864 0.4574514 0.50759375 0.2630937 0.60516137 0.19665487 0.6019108 0.27222824 0.3259939 0.5359504 0.3126523 0.3562696 0.29940414 0.31072634 0.35196358 0.49662584 0.5675749 0.5894378 0.4337449 0.4548031 0.45493072 0.5424792 0.41564253 0.4095757 0.31589434 0.3333819 0.45063037 0.40770006 0.6320538 0.6432104 0.4409901 0.49216247 0.036400393 0.6195222 0.6442386 0.62085307 0.5744799 0.26355055 -0.04139331 0.34264416 0.6280663 0.58349 0.03691577 0.33335432 0.31253994 0.29164803 0.14853078 0.70998377 0.08728185 0.5076121 0.6492642 0.66038597 -0.08717018 0.040886216 0.15537374 0.55544055 0.6159819 0.4721782 0.16776112 0.28328586 0.4927886 0.52144563 0.56395316 -0.009070158 -0.056429997 0.38104376 0.5694022 0.6218524 0.6412202 0.30326203 0.39761615 0.48152184 0.64612186 0.63438964 -0.04702203 0.22057372 -0.020080969 0.41121536 0.3769467 0.4383493 0.32311562 0.34772563 0.47479373 0.4205941 0.33952442 0.2906303 0.18028466 0.34548 0.5058235 0.49039242 0.4312419 0.4197672 0.42059866 0.41171136 0.3890974 0.33789146 0.41661435 0.40793404 0.27353987 0.28199136 0.3496832 0.21229738 0.48877954 0.18587777 0.05278033 0.3904009 0.6500058 0.22605136 0.37008908 0.2826901 0.15545736 0.1625056 0.6761636 0.6948199 0.66814345 0.64496577 0.5539361 0.0067757145 0.29919356 0.33958977 0.6786439 0.35803697 0.33724484 0.2819099 0.75833714 0.285984 0.010033451 0.64834154 0.7627289 0.7823876 0.20035319 0.18542928 0.7304313 0.7415733 0.65995395 0.6988343 0.5898149 0.6547378 -0.03501983 0.48098034 0.50428474 0.063536435 0.052938413 0.07214267 0.33362994 0.410895 0.54