# vtk DataFile Version 2.0
Really cool data
ASCII
DATASET POLYDATA
POINTS 7099 float
15.453323 6.9177995 10.656139
15.451913 7.251739 10.529876
15.460014 7.2106485 10.962922
15.456499 15.540508 19.284529
16.196285 6.1767993 9.884877
16.002237 6.16615 10.495611
16.115133 6.201621 11.10349
16.221346 7.0537553 9.123995
15.810547 6.7518935 9.858698
15.646374 6.692401 10.562959
15.872071 6.6803045 11.266275
16.08337 6.970205 11.649347
16.172626 7.231984 9.190157
15.705715 7.384679 9.801675
15.5337105 7.4909983 10.657419
15.69942 7.320519 11.254001
16.159365 7.347615 11.81748
15.935193 8.332217 9.783106
15.720751 8.21263 10.423973
15.71789 8.022904 11.152879
16.184315 9.259924 9.803366
16.206223 9.414201 10.388457
16.27808 8.988308 11.284766
16.37594 12.904899 17.689865
16.217081 12.794804 18.464968
16.178123 12.971942 19.451122
16.297241 12.951866 20.012745
16.151196 13.671851 17.655853
15.92323 13.711113 18.369635
15.87179 13.663827 19.349432
16.16088 13.655886 20.264051
16.34047 14.017055 20.668581
16.026098 14.71583 17.793797
15.6636 14.64826 18.71947
15.653274 14.647341 19.611895
15.974438 14.557608 20.256376
15.981578 15.596983 17.917643
15.635886 15.39553 18.548168
15.545038 15.691394 19.447874
15.831982 15.554405 20.129969
16.230703 15.289828 20.667088
16.178915 16.236162 17.871012
15.695823 16.144588 18.773596
15.69843 16.264015 19.384377
16.032244 16.257269 20.088795
16.169834 16.862785 18.71545
16.140842 16.764946 19.600248
16.585186 6.2561417 9.173733
16.614878 5.95092 9.688084
16.543493 5.8327756 10.590513
16.62046 6.004618 11.258846
17.061172 6.1889415 11.741984
16.598043 6.5780296 9.027573
16.717722 6.714475 11.922993
16.791204 7.472305 8.771934
16.694548 7.445599 12.107759
16.66254 8.124102 8.858748
16.848673 8.5730505 12.07212
16.960218 9.3760605 9.081184
16.501078 9.47133 9.616025
16.418402 9.626793 11.072981
16.918564 9.005194 12.071538
16.661871 9.846065 9.836078
16.779976 10.035038 10.354076
16.733633 9.882776 11.056814
17.402811 10.995788 16.887566
17.355726 11.0944605 17.10506
17.364992 11.474685 16.764814
16.979849 11.813904 17.532887
16.880886 12.067394 18.42286
16.76296 12.263596 19.635637
16.989426 12.358289 20.192442
16.698154 12.758065 17.136873
16.420576 12.894297 17.515396
16.480404 12.5496645 19.588556
16.719929 12.713081 20.345266
17.03008 12.902444 20.899303
16.85425 13.950972 16.784334
16.449272 13.33312 20.641138
16.74768 13.47802 20.863049
16.725466 14.568825 17.173223
16.698154 14.556177 20.938795
16.830673 15.719093 16.909351
16.652971 15.412751 20.915941
16.914644 16.417902 17.015072
16.449408 16.414988 17.540457
16.778776 16.086128 20.862616
17.287745 17.298695 17.115984
16.67068 16.989517 17.571299
16.481924 17.076069 18.355911
16.725334 17.307957 19.277334
16.694218 16.789564 20.183735
17.239002 17.938639 18.56294
17.35248 5.8003597 9.452795
17.347183 5.600886 10.596014
17.544994 5.771795 11.376741
17.450546 6.016063 11.75611
17.403845 6.579688 8.692302
17.778776 6.6535106 12.142401
18.049967 7.826118 8.179774
17.213251 7.459911 8.571007
17.589926 7.4506993 12.3284025
17.911005 8.2019005 8.33275
17.350647 8.639218 8.608489
17.599888 9.536062 8.889711
17.441078 9.18833 12.277673
17.978085 10.089918 16.598373
17.949688 10.116613 17.222754
18.25418 10.20829 18.060047
17.802465 9.939672 9.120463
17.704449 10.305875 10.503361
17.39064 10.046049 11.328771
17.95825 9.777312 11.924532
17.610569 10.884805 16.564322
17.710043 10.523176 17.529007
17.692451 10.7979 17.984182
17.865269 11.53952 16.005684
17.607214 11.3425 18.27529
17.419617 12.16784 20.151068
18.32637 11.996854 15.293464
18.310068 12.734345 15.443742
17.578266 12.899366 16.397404
17.505383 12.495933 20.603836
17.44467 12.819382 20.8962
17.721792 13.138813 16.445663
17.465845 13.820577 21.150259
18.055899 13.919401 16.37365
17.276114 14.0729265 16.545595
17.99584 14.1469 21.106483
17.874674 15.70226 16.282001
17.341053 15.919238 16.486681
17.634542 15.393545 21.356585
18.023596 16.547438 16.203096
17.685343 17.178236 16.681667
17.57905 17.50476 19.97022
18.199993 19.105307 15.105411
17.846571 17.89056 16.82373
17.788832 18.566652 17.561617
18.030201 18.337362 20.48268
18.244177 19.547201 14.9825
17.984682 19.726421 15.5485325
17.928738 19.466202 16.492414
17.99076 19.441332 17.873442
17.978949 19.033688 18.644375
18.046608 19.762917 20.56898
18.221722 19.327139 20.83658
18.25946 20.227707 14.997806
18.06441 20.412012 15.528232
17.9391 20.23485 16.329733
17.87707 20.698898 18.923601
17.745327 20.607439 19.564648
17.852566 20.448881 20.189219
18.152111 20.51056 20.714964
18.270124 21.068705 15.729406
18.269636 21.16378 16.146538
18.00488 21.24985 19.013517
17.961096 21.3972 19.546606
18.045507 21.293386 20.230518
18.213795 21.783278 19.548075
19.220259 4.1065764 6.8914022
19.251945 3.859768 7.367777
19.126818 4.099667 8.21041
18.981083 4.5305905 6.879987
18.770555 4.567183 7.447328
19.136662 4.5688267 8.872113
19.141588 5.399087 6.766852
18.934269 5.3420243 8.547492
18.507507 5.629244 9.903319
18.307346 6.1324673 11.761663
19.182339 6.196653 7.3104916
18.453484 6.56995 12.0569725
18.12942 7.53424 12.493275
18.674778 8.667531 8.02037
18.543701 8.468224 12.573686
18.80608 9.426427 16.764166
18.670042 9.141527 8.053528
18.247416 9.598955 8.623463
18.979582 9.536803 12.164458
18.74846 9.952036 15.948933
18.620255 9.550997 16.728561
18.547424 9.633384 17.360668
18.614609 9.949531 18.052826
18.614128 9.904868 8.608997
18.199007 10.472302 9.73042
18.424099 10.510021 10.880551
18.346914 9.754712 11.93107
18.764273 10.643893 15.234396
18.493486 10.687868 15.5675745
18.962782 10.62358 18.733597
18.818764 10.650759 10.654398
18.983871 11.202535 14.683287
18.689396 11.733673 19.288767
18.616089 12.490252 14.979608
18.429049 13.024152 20.653494
17.94852 12.774658 20.816057
18.926132 13.120922 15.0985155
18.89203 13.694964 15.492172
18.291779 13.251129 21.096619
18.377514 14.221373 21.243126
18.992783 14.819269 22.831026
19.41085 14.831016 24.098015
18.531883 15.534499 16.011524
18.98983 15.611975 22.602697
19.187674 15.578443 23.591396
19.272432 15.581654 24.38497
19.440615 15.67933 25.591803
19.010962 16.248627 15.691677
19.020372 16.041786 23.321507
19.292866 16.487967 24.881119
19.251173 16.191925 25.144514
18.883066 18.176493 15.020862
18.579584 17.90756 15.64661
18.499193 17.604502 21.090067
18.984015 19.043165 14.412359
18.710587 18.660645 14.893043
18.49367 18.680649 21.210678
18.945145 19.517813 14.336427
18.57019 19.62528 14.577463
18.649582 19.862444 21.229988
19.201534 19.568213 21.853384
18.876932 20.089869 14.383456
18.577778 20.456219 14.788535
18.464346 20.639359 21.057465
18.675858 21.129683 15.153955
18.529814 21.313738 15.60994
18.53754 21.433128 16.323729
18.83172 21.274666 17.833931
18.367788 21.600283 20.567764
18.6732 21.207008 20.921974
19.326593 21.831427 27.995281
19.354803 21.608496 28.614964
19.321884 21.644255 29.082764
18.862823 21.6628 15.627586
18.463512 21.819826 18.952465
18.722464 22.113869 19.564186
18.57636 21.930002 20.086872
19.408545 22.630276 25.87604
19.309141 22.844793 26.918653
19.244875 22.614738 27.373007
19.30934 22.686932 28.561026
19.351404 22.200354 29.156876
19.428783 23.295424 25.536041
19.332468 23.440603 26.762886
19.292929 23.5266 27.532259
19.30559 23.39783 28.208885
19.4528 24.037241 25.624163
19.393404 23.885157 27.04558
20.068008 3.4251263 7.705099
19.901968 3.4334288 7.9403048
20.07761 4.125501 6.165599
19.693054 3.8953986 6.761344
19.63932 3.6609378 7.4892726
19.586754 3.793699 8.26786
19.924284 4.0184093 8.998904
19.812891 4.6146474 6.081555
19.351501 4.2977695 6.547652
20.059444 5.434763 5.819253
19.437614 5.530603 6.454734
19.154188 5.6828256 10.816882
19.405571 6.151378 11.500935
19.48551 6.3247685 11.767611
20.030746 6.0168066 5.9477477
19.730999 6.135076 6.7029552
19.587303 6.661217 12.03835
20.369654 7.5212555 6.4853907
20.282307 8.11422 7.1442504
19.978128 9.365967 16.729595
19.315409 9.336079 17.410465
19.076487 8.9759035 12.354468
19.992128 9.548681 15.692533
19.42596 9.836111 18.204746
19.687674 10.216608 18.717093
19.60821 10.339383 8.8312435
19.628387 10.4362135 11.414246
19.652235 9.959758 11.746552
19.13607 10.759855 18.866917
19.842833 11.023689 10.365862
20.142157 11.107536 11.305967
19.552746 11.733499 14.342413
18.93736 13.108662 20.156143
18.884182 13.202259 20.837091
19.791868 13.296405 14.87863
19.735296 13.822352 21.859486
19.656052 14.095834 22.015255
20.15126 13.926168 24.033394
20.108124 14.384774 15.193315
19.315052 14.756933 15.5555525
19.623026 14.562195 23.804237
19.713005 14.484612 24.349411
19.979597 14.640778 25.417818
20.085127 14.943664 26.285755
20.322323 15.151188 26.894962
19.680302 15.350395 25.757187
19.71172 15.640299 26.16585
20.184282 15.655735 27.027063
19.700254 16.565594 15.122253
19.555002 16.543598 25.66519
19.730204 16.199602 26.250309
20.193722 16.537954 27.093634
19.52998 18.038233 14.726197
19.657116 16.937033 25.325163
19.754011 16.789177 26.034063
20.241 16.939957 26.860044
19.56148 18.698635 14.367602
19.443989 18.495665 14.444094
19.644558 18.399025 22.244806
20.155521 18.401554 23.458395
19.775005 19.75295 14.152557
19.653534 19.253225 22.350946
19.469923 20.36622 14.3268585
19.182829 20.573431 14.496361
20.314882 20.969282 25.66892
20.116629 20.932781 26.500917
19.885199 20.855324 28.622793
20.059643 21.018187 29.602684
20.023151 21.168112 29.778946
19.390163 21.04922 14.675896
20.043505 21.141203 22.142002
20.323183 22.06176 24.38731
19.881447 22.030672 25.260893
19.723757 21.458988 26.96008
19.53467 21.500696 27.723566
19.591175 21.538527 29.541761
19.907398 21.60894 29.913017
20.065313 22.251268 15.675118
19.319714 21.865198 16.477758
19.727358 22.22688 19.096561
19.637432 22.34944 19.651009
19.969358 22.401175 20.310493
19.793364 22.064877 20.950602
20.385859 22.680803 23.925392
19.79763 22.78306 24.779785
19.669514 22.554178 25.531797
19.539349 22.350174 26.871044
19.574753 22.451897 29.530533
19.962574 22.267174 29.969254
20.134203 23.262262 24.146034
19.639242 23.689774 24.766703
19.511717 23.11563 25.207123
[...]
POINT_DATA 7099
SCALARS features_00 float 1
LOOKUP_TABLE default
0.79976106 0.7921299 0.79436207 0.63050747 0.7966478 0.81337684 0.8038748 0.72216475 0.7918943 0.80431616 0.79231215 0.7788477 0.7243537 0.7744305 0.7877263 0.7856455 0.7756891 0.76879823 0.7853561 0.7814741 0.7266498 0.7488997 0.7781918 0.44377434 0.49220014 0.56730974 0.58804065 0.47595888 0.55808103 0.60356474 0.5996146 0.5926345 0.4965534 0.6201577 0.63516724 0.6040011 0.5002792 0.58959436 0.6256678 0.60951006 0.5770314 0.46780962 0.5748993 0.5938862 0.5771177 0.514737 0.5501656 0.7277942 0.7692929 0.8087499 0.7866875 0.70842993 0.70581305 0.74280083 0.60173595 0.7535556 0.596892 0.7625871 0.5850183 0.684143 0.7331052 0.72089374 0.683066 0.68544805 0.6954566 0.4780112 0.46743414 0.43664426 0.4198277 0.42874143 0.5387659 0.56045383 0.40290064 0.43173668 0.5526884 0.5875525 0.57255447 0.30411702 0.59815425 0.58688056 0.34692824 0.5648669 0.3164885 0.54560363 0.31615844 0.40401006 0.500425 0.27499643 0.3604194 0.44462574 0.46064252 0.47990394 0.2865429 0.67290604 0.7090386 0.61053973 0.62756515 0.5645616 0.57584965 0.35261437 0.5332528 0.65606153 0.4106777 0.48580563 0.50054747 0.63856506 0.56679726 0.5725384 0.5629145 0.52354074 0.6129673 0.6127932 0.5204093 0.50000376 0.5320261 0.49983558 0.45743227 0.45330745 0.51220614 0.40154627 0.24823871 0.28994483 0.5216508 0.5408431 0.24628282 0.5417855 0.121948875 0.21109831 0.47699466 0.16299932 0.23978585 0.42218298 0.1546215 0.22472782 0.2731488 0.48519522 0.210264 0.1638735 0.08975216 0.5279634 0.51751757 0.37420493 0.1637285 0.1787907 0.28857562 0.17060223 0.5571979 0.541311 0.45874768 0.44639122 0.5010603 0.4599517 0.40462643 0.50429 0.44454026 0.49434006 0.54426765 0.537663 0.5397688 0.6737786 0.6429128 0.5673457 0.6787939 0.6691159 0.4598421 0.59328794 0.5234516 0.375032 0.4662789 0.34978792 0.46064526 0.5753652 0.2659698 0.586427 0.5565128 0.28707668 0.4015845 0.38213393 0.5524359 0.5707358 0.5893971 0.56121993 0.35487327 0.5735495 0.43847167 0.4565969 0.56968284 0.5598625 0.3975312 0.37108007 0.5316137 0.3086286 0.30510277 0.42250675 0.48407656 0.18466827 0.10285363 0.43601155 0.34627086 0.28148955 0.37520272 0.060737636 0.2202516 0.34775665 0.4068464 0.49333107 0.033535384 0.28947088 0.44092065 0.4723159 0.32159638 0.24128401 0.020158835 0.45301178 0.42030072 0.06426994 0.4991268 0.528358 0.20592213 0.104866244 0.5413147 0.55921316 0.3695205 0.51911145 0.48223716 0.36947054 0.30972123 0.5379277 0.4739389 0.590647 0.69401526 0.75476325 0.42269254 0.47590494 0.4914212 0.5329491 0.4002735 0.47567013 0.51490885 0.6542318 0.74208796 0.41386747 0.47309482 0.53605175 0.602329 0.4385247 0.49009717 0.58404016 0.56476176 0.6460322 0.6625779 0.6251334 0.5401244 0.45368698 0.6469454 0.67783606 0.544963 0.5484858 0.28152305 0.28257126 0.2658874 0.41167685 0.36931437 0.25007588 0.20800266 0.08360639 0.40920433 0.53476757 0.42508548 0.3648403 0.4790166 0.35028785 0.21783848 0.22173108 0.24471325 0.33696106 0.21278098 0.11126873 0.42826867 0.32757306 0.27642804 0.1282958 0.073454365 0.1300889 0.31962714 -0.06468403 -0.01712431 0.34922847 0.37600252 0.43744236 0.52404577 0.57335806 0.49860084 0.53676224 0.5912129 0.05855418 0.50815797 0.5495589 0.594043 0.263885 0.4587511 0.5215047 0.56608224 0.35760438 0.3424887 -0.013074 -0.07267413 0.4330467 0.014837066 0.5076122 0.5366969 0.28663722 0.3872338 0.75625086 0.8326541 0.8410608 0.4990039 0.2804641 0.29076868 0.33256954 0.4450385 0.5430948 0.80840516 0.8372681 0.29631302 0.22724606 0.31416088 0.34290767 0.3008154 0.3668036 0.31318906 0.36013684 0.37220165 0.45672166 0.77580917 0.8280694 0.38405192 0.4184217 0.3930521 0.7252831 0.43560463 0.44291115 0.43795562 0.43193954 0.48561937 0.57687145 0.6292514 0.40060696 0.37689418 0.4187858 0.6035745 0.56743443 0.48714483 0.4406306 0.60602355 0.6141805 0.6157666 0.48592675 0.4041401 0.3275633 0.60626817 0.6173572 0.3735714 0.32644576 0.54642487 0.48773688 0.13948928 0.44471258 0.35628834 0.22520912 0.18823345 0.14924033 0.15235911 0.10144876 0.10734323 0.19576967 0.27675208 0.21993563 0.09780367 0.09110623 0.29803875 0.36872986 0.2405917 -0.0425838 -0.013566699 0.064215176 0.47923267 0.13727617 0.10089153 0.36259735 0.1674046 0.13315818 0.38535428 0.34438917 0.20925158 0.24040982 0.24564782 0.41546822 0.3705576 0.012788812 0.15714604 0.25594378 0.31212997 0.37724498 0.3948189 0.39559084 0.38751152 0.4234371 0.5111236 0.6077291 -0.014316317 0.62717986 0.65969515 0.050062362 0.62280285 0.6549473 0.15929762 0.10774149 0.44862247 0.5027571 0.5978902 0.18595563 0.31344518 0.35536772 0.31086534 0.34634683 -0.13489571 0.13295372 0.2738261 0.34710857 0.84232134 0.8669026 0.053006917 0.13718519 0.87667954 0.4460345 0.40096962 0.15412907 0.011135753 0.19367778 0.29438823 0.87568164 0.5010715 0.4856547 0.4155661 0.23763359 0.22006862 0.21919867 0.8677794 0.5054182 0.45510218 0.5067997 0.64566237 0.3866523 0.41007408 0.35897112 0.25946328 0.3958382 0.47027272 0.22720145 0.5141006 0.5505225 0.54569453 0.5065306 0.43964165 0.38400242 0.5920924 0.5830808 0.36950848 0.294302 0.5981573 0.55235887 0.06892989 0.3796137 0.40480244 0.422082 0.4576453 0.08084362 0.30268168 0.34923023 0.38157848 0.41503704 0.3043641 0.2548032 -0.011060536 -0.07302506 0.054614346 -0.103371516 0.34638682 -0.06818722 -0.061429594 -0.058019914 -0.06892333 0.11576521 -0.059810594 0.1938282 0.12302746 -0.08509996 0.048721954 -0.022798058 0.14889127 0.13890648 -0.21579657 0.16874114 0.19409043 0.16820955 0.2610324 0.2770211 0.08958031 0.26789388 -0.39218384 -0.23483725 0.2552664 0.32899058 0.448218 0.5679777 0.2712774 0.36812153 0.37387466 0.31364524 0.60366464 0.7021519 0.31522733 0.3163658 -0.038640216 0.71999025 0.7329092 0.046816494 0.64479315 0.1255073 0.17327341 0.13855307 0.64914775 0.6949819 0.7572444 0.2229563 0.81346905 0.85269916 0.88415277 0.42705292 0.43665165 0.89106345 0.5103413 0.52455175 0.26083142 0.031629078 0.03968906 0.124327995 0.8417666 0.5390842 0.529703 0.44830668 0.34664822 0.21106264 0.14828312 0.15894984 0.49068868 0.46660724 0.15913759 0.42424262 0.26333487 0.17834404 0.18224636 0.16297927 0.20419843 0.29468364 0.3202231 0.38870573 0.37328088 0.2378226 0.30526492 0.3754122 0.47820756 0.5344204 0.5061463 0.4107295 0.5126116 0.54523116 0.56022215 0.52416915 0.47714478 0.38686517 0.57159114 0.5481455 0.32928547 0.24403399 0.29525727 0.57820344 0.30935904 0.35976362 0.37358642 0.40404958 0.40510106 0.54452366 0.046777412 0.09668453 0.060470417 0.31208926 0.37825903 0.39637998 0.43541247 0.4231556 0.39120257 0.43995708 -0.08462367 0.013740443 0.07801594 0.07739945 0.056933925 0.42461777 0.43162063 0.17573857 -0.10796096 -0.07500241 -0.028586432 0.22952622 0.34487873 0.37073773 0.3965345 0.19272436 -0.27211502 0.19909449 0.19276093 0.19258201 0.30652 0.2593984 0.23358682 -0.004742816 -0.03390108 0.2682996 0.2533059 -0.046002947 0.25163615 0.24612537 0.08400473 -0.17486945 0.1398965 -0.23739044 0.15567683 0.21165632 0.30786747 0.37859744 -0.1044236 -0.29541677 0.40045863 0.55387974 0.17188503 0.090966 -0.33206028 0.769061 0.34330297 -0.003979981 0.08134684 -0.19197649 0.7999202 0.38644058 0.4327618 0.41459444 0.2716824 -0.09699174 0.69194746 0.7762114 0.41953045 0.44468033 0.43597123 0.34247637 -0.05807861 0.43180606 0.4297924 0.3477543 -0.053411294 0.17693111 0.6150195 0.6679138 0.7605424 0.8072041 0.21178436 0.7398635 0.80593383 0.37506324 0.73398805 0.8013562 0.5002485 -0.09526086 -0.21156251 0.70203805 0.5333747 0.26742676 0.122192 0.50783294 0.445274 0.3842359 0.38304323 0.31082568 0.24270765 0.1483991 0.14044799 0.34149852 0.33391643 0.30121857 0.17277011 0.11744627 0.24888042 0.27608287 0.2090016 0.25648168 0.29870564 0.35028622 0.39692262 0.30329973 0.25282502 0.2769977 0.3913996 0.47394222 0.5410617 0.55303663 0.5084044 0.49416476 0.52189237 0.28866383 0.29662666 0.4884293 0.38001987 0.274964 0.22356859 0.12998618 0.21463493 0.26641318 0.20739514 0.44531584 0.405015 0.07518834 -0.0851571 -0.16312116 0.04721617 0.2525967 0.32139158 0.34557706 0.29012284 0.29974338 0.43088073 -0.05523233 0.027796326 0.06887331 0.04589724 -0.027771987 0.36580855 0.36648113 -0.024092734 0.10968492 0.36465526 0.01503724 0.31272033 0.15551648 0.23122245 0.24367988 0.25355703 0.25329286 0.2573435 -0.0133071765 0.23027478 -0.022443254 -0.11017655 0.21034807 0.14435239 -0.0024880283 0.1601474 0.28494078 0.048730053 -0.04112173 0.50643057 0.6312374 0.17146331 0.19651304 0.7811103 0.24624196 0.23656341 -0.32881323 -0.44238347 0.73127234 0.46781003 0.3389896 0.3432377 0.089761056 -0.108321466 -0.10664162 -0.16783868 0.62270427 0.67941236 0.4864251 0.48563486 0.36955398 0.15620108 -0.022232424 -0.12946752 0.47742724 0.5999272 0.49828726 0.35706055 0.38934994 0.32701302 0.18586692 0.034663856 -0.32958898 -0.06604125 0.31572682 0.35113743 0.32927877 0.269002 0.29302365 -0.031284366 0.23329458 0.060431525 0.6060005 0.25245032 0.64398754 0.5011022 -2.7224422e-05 0.35991883 0.6775273 0.41653633 0.3582809 -0.01554887 -0.10726471 0.28337538 0.27410883 0.2572502 0.0015203953 -0.05726067 0.1945674 0.21553531 0.06079415 0.21887308 0.23578303 0.26799858 0.23816615 0.49871123 0.2155197 0.3686658 0.40376344 0.42269802 0.67818904 0.77800673 0.8257595 0.8319913 0.406076 0.4012183 0.6200336 0.68118864 0.783546 0.76621604 0.37461546 0.3430286 0.41417345 0.57144344 0.662529 0.6830307 0.18349282 0.193862 0.036073387 0.22094773 0.26306665 0.23605806 0.19250526 0.17400339 0.18628956 0.37273452 0.3285088 0.19219123 0.19337434 0.08690499 -0.18263906 0.15833119 0.18666229 0.118954696 0.056255654 0.1714909 0.16154093 0.2095054 -0.10168423 0.11778839 -0.04376676 -0.044163864 0.21822262 0.27468908 0.20125012 0.21646045 0.28313902 0.29373634 0.070993215 -0.06112849 0.27997604 0.268259 -0.020485781 0.24471837 0.20193692 0.15155989 0.19409737 0.2220408 -0.027932331 0.119406514 0.16759822 -0.086158335 0.12392463 0.46159166 0.41397232 0.38251185 0.010937378 0.43206394 0.414127 0.3696855 0.34523758 0.040654555 0.6916418 0.75078046 0.42007548 0.38931328 0.40223095 0.19148585 0.6026407 0.70273376 0.46671194 0.45128012 0.43063873 0.40536726 0.26170734 0.49380785 0.6269414 0.4646967 0.48955023 0.49144396 0.48182645 0.4711085 0.42345852 0.25151142 0.30031326 0.45428696 0.48827752 0.5032288 0.50209343 0.4958382 0.46644923 -0.055122178 -0.1120776 0.023262423 0.5072652 0.52350515 0.52128315 0.48922172 0.23871872 0.20761395 -0.03744011 -0.13792332 0.5187018 0.5122052 0.1270687 0.08225617 -0.10906619 -0.04080558 -0.06191568 0.1024793 0.07961013 -0.1136819 -0.13760626 -0.039103057 -0.04618384 0.08989869 -0.011080161 -0.12112052 -0.13135807 0.075928316 -0.04166189 -0.053223923 0.21742672 0.6050341 0.5102574 0.3722303 0.16967615 -0.034442365 0.3079914 0.68895054 0.69726217 0.7189824 0.5227739 0.266104 0.10505671 0.15298049 0.043250777 0.090345815 0.7552484 0.7795161 0.6556225 0.55224526 0.14740568 0.12642655 0.0873175 -0.0112257 0.12378273 0.73357034 0.71817446 0.68617415 0.03303182 0.29176393 0.39200708 0.17378104 0.2905027 0.33254957 0.3939091 0.22790504 0.32194346 0.26724774 -0.027742714 0.14392188 0.24012017 0.3435615 0.3684796 0.543692 0.44905627 0.47856432 0.4915964 0.685207 0.5597968 0.6484036 0.7340846 0.7015636 0.6925672 0.6565466 0.7752653 0.8178099 0.8464266 0.65100944 0.6531089 0.6153863 0.39066777 0.37641835 0.36710662 0.6790525 0.7461652 0.80799866 0.866848 0.8469204 0.60887045 0.58642274 0.34710658 0.40986007 0.40148932 0.36333516 0.5276614 0.7923073 0.7808795 0.64859796 0.55380386 0.21817704 0.3100157 0.37746748 0.34640414 0.26597288 0.3649788 0.6904925 0.70553106 0.65547144 0.65492594 0.59038454 0.12888399 0.16366902 -0.02666384 0.22338232 0.20695552 0.19441746 0.34661326 0.65114456 0.65754133 0.6369991 -0.03593126 0.15713157 0.622036 0.6200675 0.5734922 0.17473051 0.30992073 0.34971893 0.37737036 0.36080363 0.38232028 -0.14080039 0.31742185 0.35565916 0.14393106 -0.0042769313 -0.04231724 0.2282246 0.267915 0.27228263 0.3283417 0.11139146 0.16804264 0.19359896 -0.120369166 0.3251374 0.09738147 0.12145512 0.36459005 0.3607934 0.3621075 0.33145323 0.1042773 -0.27462262 0.44188684 0.4094563 0.3775655 0.3351944 0.055352814 0.44023743 0.4433306 0.42171073 0.3637875 0.32097352 -0.02930269 0.43865377 0.42197546 0.43771252 0.31759137 -0.04749198 0.44450477 0.4093808 0.39563653 0.21109138 0.40587214 0.41873592 0.3606525 0.0711419 0.3398976 0.31666392 0.32512316 0.34445366 0.42350408 0.4222287 0.33343947 0.28993323 0.31620404 0.37110412 0.32985696 0.18280149 0.3289688 0.29319966 0.1776889 0.099770926 0.04793869 0.35989267 0.42999366 0.44072586 0.22410306 0.24784583 0.23914275 0.06805325 -0.012390569 0.032615393 0.07194853 0.06276971 0.31095338 0.36414725 0.46218047 0.48930547 0.13391031 0.071320914 0.11465274 -0.01847981 -0.1663906 0.054310046 0.46404588 0.49087107 0.49369952 0.48524097 0.35978493 0.13191423 0.15330073 0.16700272 0.13376367 -0.07425716 0.013326209 0.046583284 0.46209204 0.42368728 0.3805262 0.18512684 0.17989188 0.032606207 0.083877236 -0.18714479 0.014380284 0.45184427 0.51774704 0.5005112 0.057831764 0.08106662 0.0923219 -0.097516865 0.17912072 0.61700153 0.65784365 0.7209115 0.7168097 0.039186463 0.1947937 0.67066145 0.74488556 0.7789583 0.5394577 0.51501775 0.2356674 0.76928705 0.78897107 0.7915163 0.68053246 0.45188272 0.5442806 0.69948363 0.7184323 0.34981138 0.083819315 -0.045159563 -0.055782598 -0.23695558 -0.369384 0.2839103 0.55002797 0.57385963 0.66044337 0.6828326 0.67033744 0.57660717 0.4224281 0.22390735 -0.031120434 0.4350564 0.52318954 0.5608293 0.6372748 0.6130961 0.5633412 0.13052993 0.40492454 0.44277143 0.19935252 0.37624142 0.40764615 0.2573594 0.28324795 0.31443095 0.45981312 0.75319076 0.82073736 0.49057764 0.594352 0.6932508 0.80639005 0.8386072 0.7615045 0.84077287 0.9002101 0.73052907 0.6967876 0.6098922 0.7169659 0.69770575 0.6315827 0.555461 0.53044736 0.6700697 0.6535013 0.5628736 0.4959321 0.5354814 0.5390114 0.5374747 0.5941992 0.51061934 0.454986 0.46475774 0.5080694 0.52469796 0.5289291 0.41551125 0.41747844 0.45572436 0.44310772 0.49171072 0.39581275 0.37928152 0.70656383 0.6673354 0.6046701 0.63905215 0.6995958 0.5886729 0.2340787 0.3221317 0.37065035 0.32888925 0.7794149 0.79736596 0.8278632 0.5639761 0.5799966 0.18775597 0.29803497 0.3546846 0.31447583 0.71726644 0.7480428 0.8419588 0.8373185 0.490614 0.39761597 0.03757836 0.32360625 0.29039598 0.49763402 0.52515554 0.73611176 0.7486376 0.61372983 0.60073847 0.4960888 0.26314226 0.12673502 0.03981782 -0.052838594 0.014593892 0.37803188 0.63995 0.6012306 0.62758946 0.3361259 0.09065453 0.38791832 0.5682064 0.626541 0.4306209 0.30214208 0.03737615 0.2972098 0.57315075 0.5946574 0.5679897 0.42975283 0.0631394 0.36213124 0.37761244 0.49709094 0.49657398 0.37625703 -0.119791254 0.3886352 0.8369328 0.8226188 0.2345005 0.16164425 0.037015393 -0.085753694 -0.15499121 0.3882867 0.837834 0.82858753 0.8019359 0.7602171 0.18036011 0.30181366 0.15307978 -0.01934348 0.8233174 0.8118792 0.78490984 0.678214 0.19745305 0.24660338 0.22345841 0.41925707 0.7624831 0.7614329 0.7060331 0.2481404 0.14823091 0.4483438 0.5007696 0.5383035 0.2959131 0.3251332 0.0027506277 0.061243653 0.41033983 0.51577616 0.5429094 0.40648293 0.34965205 0.3180676 0.30740714 0.07029216 0.20148285 0.39896783 0.57671213 0.586059 0.34927887 0.3075611 0.23328662 0.042401157 0.008862989 0.5858952 0.4068325 0.18939999 -0.01739855 0.20804253 0.25556496 -0.12819815 0.17660421 0.47908896 0.33636063 0.2173295 0.29454783 0.3767004 0.28193098 -0.10475902 0.3667707 0.08869944 -0.046465788 0.31774098 0.33331713 0.26920334 -0.13354081 0.29732344 -0.016531857 0.29707286 0.18435648 -0.0071188323 -0.28112537 -0.11464614 0.27617365 0.29169625 0.33019808 0.17768362 -0.0799831 -0.12090602 0.031815752 0.13911694 0.12684824 0.31753072 0.296365 0.10871783 0.05605643 0.10529534 0.12539913 0.111008465 0.40742356 0.4220578 0.18872923 0.10213405 0.046049688 -0.1682303 -0.12255341 0.36997557 0.40409046 0.35538006 0.3569581 0.3242077 0.33740968 0.1930958 0.2855238 0.10488849 0.016788311 0.40156066 0.46584484 0.4173183 0.115344994 0.06319066 0.07130954 0.14389521 0.17080243 0.5204482 0.5533152 0.6882333 0.17924936 0.21512628 0.66308296 0.7309927 0.72817504 0.45591414 0.70544744 0.76465666 0.78782684 0.7795013 0.5674645 0.54492277 0.56170315 0.75775117 0.76685613 0.53573126 -0.0568993 -0.2715208 -0.31270388 0.5749965 0.60725015 0.56960666 0.20511986 0.07709418 -0.117864065 -0.17268181 0.524992 0.57739013 0.55583304 0.48448923 0.3908103 0.27358 0.1006611 0.44479007 0.43835014 0.14738527 0.031161532 0.0436954 0.28680912 0.35420486 0.36041015 0.38424823 0.38438702 0.24928997 0.30047306 0.31920058 0.32893223 0.36913604 0.41312522 0.8374368 0.4890266 0.51020676 0.89425135 0.6591238 0.8184712 0.9170078 0.94339466 0.921834 0.65052855 0.75859845 0.7372501 0.6906265 0.59735286 0.5452742 0.53289384 0.7272148 0.74076414 0.52918404 0.5248204 0.5246124 0.69367206 0.67885065 0.5365987 0.53446573 0.5192174 0.6042938 0.55155337 0.42972457 0.52375495 0.51721734 0.3529854 0.4638806 0.44847417 0.29646066 0.28037637 0.3614266 0.36815038 0.32786885 0.399429 -0.016333349 0.20079173 0.17777553 0.3466166 0.38704348 0.43569946 0.45006347 0.63696146 0.44876552 0.3216851 0.3743195 0.43001956 0.36097714 0.29589033 0.33897686 0.37905318 0.12317634 0.19552891 0.27892312 0.33750856 0.34033608 0.23751718 0.74455607 0.7489475 0.2927947 0.4570645 0.20483868 0.0010613985 -0.0044402275 0.17117332 0.15399964 0.71303964 0.69249666 0.72370625 0.7559937 0.34110743 0.056573644 0.025169656 -0.21688356 -0.0394281 0.61731184 0.62344855 0.47112346 -0.18387894 -0.1480703 0.01209758 -0.00078140944 0.39760858 0.44739413 -0.14839655 0.20889814 0.45354462 0.23536322 -0.100213036 -0.07379134 -0.04763075 0.17413697 0.30801255 0.3982131 0.45008227 0.2450248 0.3589864 0.30105054 0.13697904 0.3559426 0.8704814 0.85376763 0.8354807 0.8179862 -0.02570223 -0.04903689 -0.079490304 0.29763135 0.86008036 0.84723353 0.79812443 0.7568351 0.005401588 0.11481534 0.24832529 0.8458779 0.6630356 0.5574008 0.0007136557 0.10164451 0.44329983 0.6963563 0.3929876 0.31483933 0.26681492 0.07497195 -0.00985156 0.03606049 0.48641077 0.50924015 0.5197453 0.19978654 0.30814844 0.3359912 0.3106749 0.21908686 -0.13536312 0.03646689 0.5273441 0.5308671 0.4661789 0.31136066 0.10781132 0.3192187 0.32081288 0.29639602 0.18677077 -0.15932119 -0.111347206 0.5907841 0.13358608 0.052867405 0.22293222 0.25141752 0.053295415 -0.20290585 -0.24399629 0.5810597 -0.13353516 -0.21883866 -0.019121462 -0.3039095 0.34345764 0.4584331 0.51930463 0.24141435 -0.3992073 0.21532725 -0.14618784 -0.33418763 -0.13444346 0.04299993 0.20769754 -0.35033798 -0.33902442 0.08296496 -0.51000845 0.25734147 -0.28617823 0.24337268 -0.13129249 0.2983407 0.32070887 0.0896695 0.3361126 0.32050142 0.26559505 -0.0005650278 0.34425548 0.27796197 0.2767532 0.202224 -0.17344259 -0.0137728555 0.3671806 -0.063533686 -0.14486761 0.050649863 0.13469614 0.42965287 0.51233166 -0.01463577 -0.10543701 0.09192577 0.12526275 0.51478803 0.5846988 0.6811806 0.23044595 0.23136799 0.31179562 0.6811187 0.7056078 0.73810256 0.17564034 0.498814 0.49126917 0.71329117 0.7327795 0.73066926 0.4107514 -0.15863883 -0.38649362 -0.50949335 0.55020976 0.3901363 0.03526372 -0.07302928 -0.33600628 0.52074987 0.48137182 0.41564578 0.39671555 0.35516113 0.22147007 0.015799848 0.01629496 -0.12858652 0.38609013 0.37541062 -0.07541183 0.14542222 0.10544023 0.34884217 0.3307732 0.26801187 0.06412346 0.08911221 0.29634956 0.32021004 0.31246394 0.34035087 0.34439814 0.3549664 0.37760413 0.830114 0.40300578 0.52316874 0.83673465 0.87160003 0.61262614 0.73821026 0.882738 0.88527954 0.7905368 0.6860341 0.5820504 0.54306144 0.7943554 0.7769161 0.5346168 0.5137713 0.7598901 0.4664248 0.665259 0.4865774 0.47040403 0.54942095 0.46112376 0.4476344 0.19147676 0.18416332 0.3562512 0.48797673 0.5018444 0.010640442 -0.038704127 0.01837876 0.3287592 0.46869546 0.4853056 0.48519218 0.41582543 0.3276292 -0.066190735 -0.06944309 -0.07201315 0.13604908 0.29692 0.08776276 -0.016143024 -0.11393523 0.02046302 0.18896735 -0.30947295 -0.19682842 -0.07828