# vtk DataFile Version 2.0
Really cool data
ASCII
DATASET POLYDATA
POINTS 7227 float
7.4628544 28.102873 50.02362
7.4512057 28.555632 49.747448
7.4781184 28.52084 50.196995
7.4615993 28.980223 49.78486
8.31967 26.790915 48.938583
8.100725 27.121796 49.359936
7.989622 27.321575 50.007187
8.289044 27.866886 47.156536
8.088461 27.804604 47.575
7.869061 27.730997 48.558342
7.6680174 27.77443 49.589214
7.8465433 27.783176 50.401806
7.963844 27.917536 50.787254
8.236428 28.383966 47.13949
7.995844 28.402716 47.5633
7.6536465 28.531805 48.692177
7.5051374 28.560621 49.26673
7.5357947 28.443394 50.38697
7.9392567 28.582151 50.976093
8.290287 28.911314 47.26259
8.161991 29.217499 47.691444
7.8457108 29.376368 48.72897
7.6707587 29.423378 49.683613
7.7604527 29.379875 50.453094
8.006894 29.25401 50.943966
8.211127 29.965364 48.719757
8.214237 30.238136 49.585487
8.187715 30.192226 50.225185
8.099094 29.83958 50.83378
9.250044 26.0397 47.00801
9.116475 25.84114 47.594734
8.856985 25.99203 48.540565
8.934777 26.057142 49.143227
9.161594 26.498917 46.68844
8.6715 26.504448 47.851547
8.525539 26.407732 48.60173
8.639252 26.590351 49.343998
8.5586405 27.170763 50.37568
8.735578 27.662989 46.757
8.242822 27.495592 50.60405
8.558056 27.763857 50.96859
9.158583 28.34646 46.38573
8.63028 28.426222 46.75075
8.475496 28.64034 51.30338
8.745526 29.21817 46.99456
8.684005 29.609499 47.280483
8.600324 29.4652 51.315216
9.051164 29.362051 51.56583
8.72471 29.800112 47.618256
8.656954 30.35672 48.718655
8.512201 30.572208 49.54192
8.54278 30.553314 50.566628
8.904554 30.48041 51.224407
9.137153 29.977457 51.579357
9.225243 30.782087 48.92216
8.818165 30.909054 49.626892
8.946894 31.008099 50.536636
9.037831 30.891413 51.039852
10.435666 9.834565 39.998795
10.436804 9.86943 40.27755
10.43063 10.185891 40.320026
10.292133 13.951542 41.964695
10.25546 13.806511 42.596867
10.33294 13.891858 43.12275
10.32593 14.395933 42.009888
10.24155 14.430447 42.484825
10.296404 14.321982 43.090057
10.36339 14.876447 42.64866
10.354571 14.796416 42.922146
10.084815 25.100168 46.448235
9.978225 24.974178 47.346725
9.815106 25.209185 47.997375
10.016692 25.69196 45.842712
9.637783 25.622835 46.55106
9.317939 25.618315 48.730297
10.103628 25.474894 49.49484
9.904077 26.41389 45.694725
9.525529 26.156399 46.586666
10.206605 26.511593 50.594616
9.854113 27.405106 45.784077
9.488708 27.928373 51.233147
9.577271 28.391356 46.25357
9.246752 28.509209 51.41369
9.534219 29.475126 46.77846
9.470755 29.864439 51.686237
9.9294 29.96539 47.006325
9.404809 30.668795 51.522083
9.592687 30.381144 51.633747
9.63733 30.962364 48.705154
9.595271 31.313248 49.70901
9.582717 31.34242 50.522617
9.568459 31.056244 51.186985
11.207814 9.102666 39.1653
11.089905 8.820974 39.699432
10.9930525 8.804533 40.414486
11.1115675 8.970816 41.204628
10.986023 9.611774 39.130917
10.628663 9.645563 39.706097
10.555921 9.567546 40.460163
10.984838 9.468991 41.339485
11.029721 10.4655695 39.01116
10.59816 10.353258 39.664528
10.543294 10.523842 40.383076
10.861358 10.18293 41.213287
11.233433 10.12423 41.616173
11.211652 11.624113 38.8544
10.858349 11.155404 39.594234
11.2312155 12.09502 38.973625
11.218484 12.362524 39.67135
11.419763 12.399718 40.503445
10.704907 13.038963 42.000893
10.735016 13.07059 42.262203
10.563051 13.3152 42.882717
10.888517 13.635694 41.29915
10.513732 13.478179 41.93862
10.592711 13.666399 43.331318
11.024844 13.924097 43.997227
10.872195 14.528553 41.198566
10.572249 14.403093 41.573284
10.469106 14.547789 43.39841
11.009911 14.524283 44.055313
11.191908 15.203373 41.13505
10.886211 15.25265 41.69566
10.613368 15.266329 42.54541
10.738132 15.28327 43.291363
11.169749 15.236104 44.120514
11.205597 15.733709 41.756638
10.972775 15.770216 42.433113
11.283533 15.8979645 43.66503
11.370249 15.86496 43.945393
11.371944 23.184343 47.993862
11.32877 23.798914 46.7853
11.229036 23.38276 47.674927
10.6521845 25.023882 45.74772
10.676689 24.580994 46.398052
10.46825 24.671627 47.670143
10.326677 25.131777 48.531605
10.766288 25.090723 49.136303
10.761155 25.787008 45.171986
10.427594 25.508898 45.48043
10.42919 25.682463 50.03269
10.770908 26.587797 44.972794
11.047978 26.35019 50.947163
11.076132 27.36239 44.72345
11.29434 27.968 44.776978
10.64445 28.646984 45.643192
10.261492 28.993519 51.50356
10.1260395 29.226725 51.495075
10.098245 29.87802 46.878056
10.238857 30.330416 47.544468
10.049517 30.530918 51.614082
10.364461 30.600897 47.99711
10.0891485 31.23818 49.124496
10.394385 31.423197 49.610806
10.300149 31.41411 50.359406
10.225863 31.019423 51.240658
11.785976 8.355769 39.67259
11.713842 8.280201 40.548874
11.837884 8.362049 41.155464
11.724077 8.786441 39.049484
11.495689 8.609756 39.41593
11.376073 8.466413 40.73618
11.576893 8.61029 41.350975
11.731722 8.929783 41.729774
11.666805 9.613956 38.659225
11.58608 9.511172 41.816757
11.985856 10.693606 38.199734
11.348151 10.499256 38.6189
11.358886 10.805871 41.58756
12.210631 10.816763 42.224407
11.901367 11.602237 38.123497
11.5302725 11.499369 38.499134
11.999695 12.289853 42.730255
11.93959 12.477656 38.2361
11.564829 12.385614 38.63947
11.467983 12.455829 42.14957
11.593091 13.054048 43.460724
11.962787 13.255666 44.23737
12.223767 12.874026 38.09926
12.047007 13.106702 38.59064
11.915614 13.367114 39.611153
11.429883 13.643881 44.145496
12.036311 13.738973 44.83302
12.212344 14.199588 39.545635
11.482389 14.507487 44.620506
11.815132 14.445823 44.964294
11.7593155 15.476912 40.815002
11.492874 15.288938 44.53773
11.926287 15.4573145 44.925697
11.774177 15.855054 41.168953
11.741657 16.087782 41.748074
11.5813675 16.211613 42.563988
11.595584 16.215015 43.593586
11.804231 16.137112 44.32846
12.133991 16.121557 44.748367
12.138523 16.702421 43.47086
12.187388 16.663153 44.088306
12.460481 20.085566 50.787853
12.459579 20.385641 50.673157
12.449836 20.35033 51.297546
11.548631 23.09552 47.177235
11.686637 22.858318 47.40566
12.004365 22.537024 48.51997
12.373834 22.539688 50.25105
11.674197 23.3771 46.726204
11.446065 23.28208 48.647354
11.41401 25.301237 45.318268
11.479013 24.769632 45.62157
11.399264 24.75945 49.631756
11.533524 25.166245 50.396023
11.901851 25.98346 44.51684
11.744336 25.8046 50.92043
11.860958 26.544367 44.23849
11.547962 26.601234 44.44501
11.814468 26.728254 51.42894
11.793088 27.522305 44.134995
11.660352 27.537025 51.40411
11.693877 27.24769 51.59029
11.980711 28.251034 44.167732
11.622489 28.502802 44.62988
11.437969 28.2597 51.474064
11.935284 28.873775 44.6501
11.136639 29.463152 46.606434
11.871522 29.647638 46.121674
11.515801 29.962326 46.992546
11.273021 30.213253 47.706367
11.321117 31.029411 50.458958
12.347975 8.328666 39.654163
12.228743 8.204371 40.632885
12.327996 8.309797 41.106552
12.347177 8.744654 38.898537
12.41513 8.455706 39.32857
12.481387 8.581085 41.490154
12.274614 8.870535 41.78272
12.500378 9.717856 38.28371
12.5869465 9.378476 38.51188
12.416819 9.632649 42.06387
12.76196 10.643848 37.87264
12.305798 10.532776 42.277203
12.696775 11.555375 37.630775
12.39259 11.167062 42.51423
12.723374 12.472799 37.768223
12.41942 12.61919 43.271244
12.446169 12.919982 44.144558
12.899317 13.047215 44.71268
12.6327715 13.270112 38.163425
12.435532 13.443608 38.488625
12.596509 13.79508 45.14029
13.142948 13.940626 38.24931
12.916857 14.264453 38.896053
12.595344 14.440607 39.673344
12.528769 14.546176 45.349243
12.777626 15.193263 40.060116
12.218398 15.518719 40.441734
12.418141 15.26458 45.28886
12.771553 16.382936 41.15551
12.689442 16.485304 41.41059
12.273614 16.444817 44.555595
12.429395 16.116808 44.890522
12.581274 16.726852 41.833725
12.633513 16.873478 42.636654
12.368194 16.816051 43.67171
12.478313 16.750341 44.1252
13.189444 19.065088 50.76838
13.190936 19.078846 51.280586
12.995703 20.062828 49.638294
12.749408 19.673904 50.69389
12.725116 19.748652 51.435345
13.000672 19.812809 52.072014
13.027291 20.937548 49.111076
12.712577 20.674004 49.721245
12.520872 20.494228 50.342613
12.545196 20.422604 51.578453
12.851771 20.46027 52.1039
12.789667 22.332426 47.17921
12.45985 22.315527 47.501827
12.283908 22.193054 48.174843
12.664555 21.439663 49.37177
12.670196 21.386524 50.59104
12.708086 21.169962 51.542747
12.99868 21.062763 52.125034
12.376781 23.030352 46.537376
12.483035 22.807383 50.203995
12.554318 23.862446 46.05273
13.008365 23.524214 51.04474
12.317743 25.339794 45.159336
12.854018 24.60788 51.037563
12.953488 26.062077 44.144455
12.376539 25.779148 44.590477
12.581943 26.026022 51.261795
12.418809 26.607637 43.89531
12.869987 26.38014 51.843636
12.525711 27.531946 43.79298
12.694458 27.426424 52.256546
12.699226 28.334078 43.83499
13.087265 28.169954 52.540916
12.619582 28.845507 44.162067
12.723999 29.157671 44.53759
12.453252 29.395401 45.61548
13.16129 28.991188 52.774036
12.591496 29.668833 46.123585
12.411924 30.449095 51.39193
12.963348 30.016987 52.238
12.671209 30.895367 49.312634
12.856633 8.224876 40.44926
12.866715 8.406723 41.152287
13.150151 8.884031 38.978783
13.298647 8.658197 39.60543
13.204394 8.489569 40.624573
12.9205 8.802075 41.556316
13.019226 9.099512 41.77283
13.366091 10.077138 38.17524
13.84213 9.9261875 38.443058
13.563983 9.610403 41.90815
13.3382435 10.565754 37.794003
13.410262 10.324769 42.270824
13.586828 10.917075 42.808685
13.372587 11.475737 37.416817
13.300868 11.925516 37.54481
13.757076 11.567181 43.550533
13.700432 11.889564 43.860188
14.439927 12.045082 63.975914
14.436592 12.128289 64.57521
13.724373 12.07402 37.444706
13.6614485 12.73439 37.595524
13.447164 12.569423 44.277405
14.426926 13.033896 62.731686
14.348854 12.730857 63.340717
14.390326 12.63024 64.449814
14.44593 12.522916 65.00644
13.359818 13.249772 37.77591
13.551444 13.357317 44.84934
14.370827 13.482146 62.851814
14.33658 13.347712 63.38892
14.380528 13.113066 64.24511
13.613558 14.109529 38.19373
13.5560875 14.364652 45.4387
14.391967 13.92598 63.392345
13.655029 14.692704 38.9547
13.439915 15.601079 40.007076
13.680954 16.119408 40.703575
[...]
POINT_DATA 7227
SCALARS features_00 float 1
LOOKUP_TABLE default
0.6766728 0.6954806 0.71750367 0.7178426 0.4705542 0.5315737 0.59011817 0.51219726 0.5444859 0.5830652 0.6182341 0.66409975 0.6960082 0.5263305 0.5604669 0.64237577 0.66607505 0.72000813 0.7484647 0.53876317 0.57015336 0.64379424 0.7182301 0.7639439 0.7666948 0.61654603 0.6885036 0.73540765 0.7575823 0.42588472 0.39845645 0.39003515 0.37920696 0.45174497 0.4429056 0.42305127 0.43326586 0.5379683 0.4828995 0.6269515 0.6569016 0.46794054 0.49857223 0.7217324 0.5078103 0.5234598 0.71930873 0.6630466 0.5332061 0.5853546 0.673296 0.73734164 0.7218825 0.687999 0.57898927 0.6746062 0.73156464 0.7267662 0.7831871 0.8012656 0.7509973 0.6742675 0.6851075 0.6862854 0.6792768 0.694291 0.6997698 0.6892911 0.6944807 0.38080525 0.35314107 0.3594502 0.4163509 0.41409403 0.36815938 0.3194099 0.42609054 0.43650556 0.25548172 0.4034739 0.4810468 0.44133076 0.5869584 0.44360065 0.6513039 0.37681657 0.7019888 0.67449164 0.5345385 0.6678716 0.72319543 0.71563435 0.82707113 0.88825274 0.9159847 0.8699342 0.76236594 0.7865561 0.8485925 0.8323006 0.6446493 0.6775204 0.68824613 0.76694214 0.6966586 0.5151976 0.53789604 0.47352242 0.40885526 0.34736672 0.6218409 0.63142973 0.6458458 0.549144 0.6525834 0.6634824 0.6475955 0.5723679 0.64382744 0.6942072 0.6680871 0.49543464 0.6036926 0.6637007 0.65953255 0.63080454 0.53137225 0.6047167 0.5868181 0.5819248 0.30107787 0.31345338 0.30376917 0.35702962 0.33169827 0.3042981 0.3287743 0.2835815 0.38685805 0.3914852 0.26358825 0.41630334 0.14606623 0.44823074 0.4549083 0.3664971 0.44643098 0.5054841 0.3485088 0.3616023 0.64832413 0.38572252 0.5557418 0.60506433 0.6920465 0.68776035 0.88287306 0.869923 0.8102357 0.83129084 0.87897193 0.88980293 0.8149202 0.7411772 0.74234176 0.70133185 0.614132 0.63497376 0.5329441 0.34033906 0.54460794 0.5389143 0.24179801 0.48877698 0.4756598 0.42333323 0.4791844 0.44465494 0.46734834 0.42314652 0.36892942 0.57564366 0.5166381 0.2915112 0.63888097 0.6169466 0.3494361 0.6110797 0.5868477 0.3765185 0.4413587 0.52906644 0.5534804 0.54938436 0.53211874 0.50733876 0.517994 0.5959923 0.5718037 0.6107242 0.33837625 0.34008536 0.27854723 0.29541773 0.3319261 0.23721161 0.31794766 0.2835374 0.1853234 0.13786887 0.34987426 0.10580577 0.4056314 0.4203918 0.10819568 0.47297898 0.12000687 0.11636353 0.47791058 0.45723233 0.11625301 0.43100753 0.24380675 0.23944145 0.18950427 0.2151994 0.5558176 0.83037853 0.81092095 0.7576951 0.7690805 0.8056965 0.6908947 0.670174 0.65125763 0.6731665 0.54471135 0.58672374 0.39839518 0.5573491 0.17465177 0.50442356 0.24878749 0.324385 0.31471723 0.4361773 0.4014854 0.45531428 0.38134217 0.31053707 0.25688684 0.5662391 0.19184658 0.2553087 0.5864542 0.25062674 0.2886162 0.5158507 0.51340556 0.34367096 0.41267037 0.49564928 0.5009259 0.604496 0.61654556 0.4572453 0.60508406 0.6394801 0.6282464 0.26685217 0.44244534 0.53789485 0.615733 0.6026159 0.29911208 0.3073079 0.26261333 0.30214804 0.48605528 0.5473411 0.5419761 0.32427114 0.22957064 0.22607386 0.059322275 0.23279677 -0.024263732 0.28041568 0.29028362 0.057714734 0.38392633 0.06264728 0.44662184 0.1075696 0.46067032 0.17694657 0.43692735 0.38125286 0.2731391 0.28832498 0.16902563 0.31789607 0.35583586 0.1186805 0.7342902 0.66917884 0.6508362 0.6754036 0.6555726 0.6035713 0.5408567 0.5092869 0.45020974 0.37295848 0.51730716 0.25536603 0.090065725 0.5328471 0.5276712 0.04194425 0.0764253 0.6355603 0.69555795 0.50846094 0.48432654 0.18970954 0.6308804 0.63536096 0.7045472 0.7397543 0.4554028 0.28845957 0.655565 0.6707753 0.7092067 0.3760305 0.37753868 0.69002074 0.26379696 0.105485894 0.07979974 0.4103384 0.0135330185 0.16200912 0.27269292 0.20851481 0.46237037 0.48789033 0.4975558 0.43281224 0.1412346 0.4851151 0.55369097 0.5745306 0.5797653 0.53338516 0.56639993 0.52027124 0.3512486 0.076268956 0.15835558 0.26718983 0.39795244 0.58938265 0.50776744 0.57881415 0.5885662 0.58306956 0.41983423 0.12333543 0.54635537 0.47394648 0.61033857 0.6193844 0.5808615 0.4219371 0.16155873 0.04942631 0.41591167 0.3829366 0.64485574 0.64351237 0.60306066 0.47112736 0.24156883 0.04651307 -0.073749006 -0.10670912 0.23026833 0.16377439 -0.10766015 0.25394303 0.31521952 0.09213539 0.11756067 0.34457594 0.41808993 0.19865668 0.33434162 0.43532705 0.22713989 0.35753906 0.3435733 0.22711349 0.3751235 0.16370755 0.46047813 0.43546847 0.07791111 0.47068638 0.54506123 0.58041275 0.5158479 0.528096 0.39559555 0.5405333 0.52821445 0.4462921 0.24945848 0.2295066 0.505556 0.40454724 -0.02542226 0.02283866 0.002816163 0.42273375 0.48130774 0.6441633 0.448483 0.09045095 0.53146994 0.5615339 0.58578426 0.6869716 0.73744667 0.7698766 0.4666605 0.15086779 0.5887855 0.6001971 0.6255864 0.71635234 0.7649993 0.78023285 0.41020894 0.19275263 0.07896195 0.62158823 0.6438064 0.73855376 0.76775575 0.7801017 0.36685944 0.22942847 0.63946116 0.6671437 0.69727325 0.7227859 0.7563778 0.27183288 0.111890644 0.14562014 0.6640028 0.6730882 -0.05500774 -0.044095576 0.103068605 0.35814044 0.23817588 -0.057801 0.03012513 0.4206218 0.3810991 0.33952588 0.42236722 0.45893013 0.13614291 -0.104621984 0.15650967 0.07235633 0.25052148 0.3303386 0.45582828 0.45094377 0.5067732 0.05107826 0.066661045 0.107667685 0.14504139 0.13397655 0.3668133 0.53651464 0.5577915 0.1821526 0.06633575 0.08537373 0.11422971 -0.034841992 -0.08662238 0.2964098 0.5660658 0.59509885 0.27487725 0.09011495 0.047594585 0.07960306 0.012777589 0.119129315 0.6292771 0.6515382 0.5953373 0.40923095 0.37208873 0.04078697 0.19655286 0.6304393 0.642974 0.6199019 0.4625731 0.39736003 -0.29631495 -0.020447508 0.22076115 0.2734247 -0.21595058 -0.117670245 0.18162909 0.2920961 0.41975656 0.555684 0.07657932 0.12441554 0.01877825 0.038120866 0.44385898 0.58005476 0.1715664 0.17714587 0.18166777 0.29354137 0.33605868 0.10175319 0.39600974 0.3988641 0.028857961 0.47760147 0.28547096 0.12084498 0.5948833 0.3222596 0.30984214 0.29387528 0.45767623 0.5566593 0.6105783 0.6234609 0.5621279 0.49646574 0.50748855 0.4562493 0.45983717 0.4288174 0.5470805 0.5457472 0.5471112 0.5650823 0.53845584 0.5037478 0.3793106 0.4564498 0.5489803 0.6450269 0.53086174 0.5523331 0.5513098 0.5089469 0.404941 0.46409446 0.5195378 0.20998876 0.21093689 0.34460273 0.0044427365 0.41685915 0.46656474 0.43377516 0.4303412 0.45188054 0.3260075 0.22784823 -0.02695521 0.07969262 0.24209264 0.6028992 0.67060286 0.18962392 0.1969652 0.75584185 0.7756733 0.19149333 0.5039048 0.7838768 0.38208434 0.0036004335 0.0316893 0.5094787 0.5788419 0.7731732 0.7819336 0.21166527 -0.05664748 0.6052872 0.6865157 0.70911705 0.04524762 0.051547587 0.62732804 0.6346933 0.6030376 0.5886638 0.08666684 -0.16533802 -0.006370172 0.0739332 0.18493561 0.20051998 -0.016324518 -0.061893754 0.13090451 0.2529372 0.1990714 0.19685873 0.053742573 0.24398455 0.34609354 0.007962599 -0.025378764 0.23042141 0.30320233 -0.033329654 -0.08487091 -0.073372625 -0.11629322 0.21779235 0.2443436 0.28159416 0.4638496 0.043221183 0.08566883 -0.014634147 -0.019786648 -0.06282286 0.19606629 0.2621352 0.26843792 0.52788407 0.027915206 0.044184253 0.086321175 0.22025865 0.6254331 0.09295846 -0.0025371648 -0.3452142 -0.20077467 0.12865216 0.3739782 0.610934 0.6056162 0.6138946 0.5529813 0.21078274 -0.39068905 0.48634773 0.58830583 0.59767324 0.59612966 0.53828675 0.018335566 -0.09293416 -0.19642338 0.62760425 0.66110903 0.049388625 0.042133767 0.27381486 0.52748793 0.6706203 0.7289729 0.052700877 0.07086694 0.3656994 0.56781435 0.6897558 0.748312 0.05538699 0.10707352 0.06639709 0.054633807 0.43501627 0.06884127 0.49139622 0.25779766 0.27956498 0.60366285 0.28681374 0.3394803 0.34367573 0.2978928 0.2341477 0.3715909 0.5973207 0.62747824 0.4869089 0.5636013 0.59033525 0.5718636 0.5973797 0.5784899 0.51105165 0.32227436 0.6234585 0.5957395 0.56098735 0.45678183 0.30224806 0.2831813 0.3385839 0.6208799 0.5996884 0.54903567 0.30575547 0.29125777 0.44672024 0.47803742 0.4302384 0.57923174 0.5012307 0.56984687 0.58156073 0.3607752 0.47150534 0.47346863 0.44330722 0.42735136 0.274037 0.6577846 0.6521456 0.26137555 0.2149107 0.25951493 0.30236563 0.46792406 0.44488376 0.26059365 0.32079643 0.5330013 0.1826118 -0.12912706 -0.12923327 0.08707392 0.21893111 0.22560066 0.24977373 0.39884984 0.28185228 0.3688264 0.4056767 0.2981539 0.27908528 0.34371597 0.32859653 0.29927495 -0.04012178 0.26849225 0.24349907 0.17123204 0.5951489 0.7141757 0.055172347 0.19040653 0.18155766 0.2598535 0.7192395 0.08274771 0.11079288 0.150055 0.099823765 0.17236242 0.19166383 0.18327495 0.41983616 0.7411287 0.024784446 0.033407956 0.04207658 0.01436843 -0.051348776 0.19642907 0.18369254 0.11152109 0.65718764 0.26864296 0.2019536 -0.030396957 0.077675104 0.084050335 -0.19035435 -0.12559494 0.07516751 0.08246098 0.15529433 0.04817819 -0.04499832 0.57272923 0.56671876 0.55925816 0.55634725 0.32030436 0.2728191 0.19485044 -0.09121083 -0.14277127 -0.06084263 -0.033746257 0.03227988 -0.19217008 -0.06933 0.030619362 0.06527187 -0.015454635 -0.049905162 0.5011604 0.47331917 0.3336851 0.26485682 0.1517466 0.02861321 0.058513977 -0.15683955 -0.09463911 -0.021514583 0.23087291 -0.09979656 0.13854608 -0.114833266 -0.1787096 0.17437223 0.20485842 0.09934384 0.05708553 -0.124756776 0.27684698 0.2690269 0.60254973 0.37863058 0.2786703 0.28362983 0.73204815 0.68920606 0.58021134 0.43614367 0.21560812 0.22735624 0.78454006 0.8014288 0.70793307 0.3777994 0.04948195 -0.107815795 0.23677592 0.83651954 0.86322486 0.78727114 0.6049033 0.38813144 0.5075988 -0.041696005 -0.3291523 0.5901643 0.87031066 0.86895853 0.8174467 0.7296853 0.5260045 -0.023913594 0.029405117 0.6620687 0.7076353 0.16893291 0.05516594 0.7613951 0.7452691 0.1613175 0.09427372 0.50049704 0.5748972 0.7703496 0.7798476 0.2448327 0.20232677 0.75430363 0.27188557 0.3929116 0.22905761 0.16092569 0.068832725 0.3709708 0.03949842 0.05919675 0.5266826 0.5044558 0.5532229 0.272112 0.3311642 0.23699729 0.4013333 0.5321834 0.5878854 0.3505777 0.35989058 0.34874046 0.5079206 0.55820745 0.549412 0.53600705 0.56986547 0.5794207 0.570833 0.52452135 0.37063438 0.23509845 0.59574413 0.5970832 0.31013006 0.16773751 0.5259746 0.51859486 0.6172228 0.23041466 0.2118314 0.31681025 0.33369303 0.5153656 0.503461 0.4585966 0.34266424 0.5747473 0.6027103 0.4143833 0.47451055 0.44999194 0.46929276 0.3625949 0.2762071 0.3061095 0.53178906 0.53395534 0.56498563 0.3841427 0.43974662 0.2675175 0.37279248 0.4168417 0.39886212 0.49679768 0.58694744 0.29705992 0.3728127 0.24849434 -0.0019093752 0.22797997 0.39753586 0.5573964 0.14023285 -0.113492616 0.0058890106 0.15397799 0.23053378 0.1903275 0.33183527 0.20728306 0.29408962 0.24566557 0.20590721 0.14355609 0.18962997 0.4219709 0.22049288 0.2525037 0.14260444 0.06775831 -0.13431193 0.19948311 0.15527293 0.042497557 0.4484876 0.5104782 0.15829222 0.19310889 0.1789984 0.12317483 -0.047543406 -0.49812472 0.16162248 0.25827318 0.27212927 0.3347692 0.12312782 0.09756909 0.5659094 0.078650944 0.0011693686 0.15464203 0.12368849 0.25379118 0.28950083 0.31741536 0.171682 0.468011 0.60359067 0.26351 0.0071736015 0.09177685 0.10185825 0.33007976 0.46107087 0.42457944 0.35621646 0.25016946 0.12458278 -0.008444522 -0.02443661 -0.03309856 -0.24402069 0.45575964 0.39786804 0.42077202 0.38623196 0.15428314 0.007207088 -0.4214486 -0.10134637 -0.20356011 -0.2597828 0.4509577 0.40431947 -0.0018063746 -0.17269245 -0.34601533 -0.11635454 0.048275895 0.034246467 0.0059745163 0.06329888 0.10935699 0.3051039 0.06985739 -0.43684387 -0.2890718 -0.2264696 0.050326884 0.18448636 0.11243549 0.054871738 0.15687644 0.21521065 0.14020556 -0.11182433 0.024389938 0.21576583 0.19562557 0.37285584 -0.0650143 0.22216113 0.2688858 0.6770352 0.6679476 0.2688845 0.28554434 0.20878902 0.72904193 0.5081795 0.43223828 0.21027248 0.29622346 0.2271466 0.21146362 0.09664093 0.76518106 0.8098291 0.560359 0.47387287 0.32349926 0.417104 0.42979705 0.3835314 0.4438388 0.85242474 0.8775195 0.8358339 0.7424158 -0.011920724 0.1551623 0.6921817 0.8754399 0.8607161 0.80113375 0.13273497 0.7652513 0.7418035 0.6210912 0.50522983 0.75904983 0.7765621 0.7363758 0.7134222 0.6647743 0.76242566 0.7542214 0.7232234 0.65966374 0.4553264 0.28532428 0.73362696 0.70161426 0.5933095 0.459925 0.30577075 0.22868016 0.14654571 0.10807778 0.34222886 0.13733761 0.081204616 0.016839154 0.41591436 0.03927675 0.08852754 0.49202436 0.21865581 0.38627487 0.47263658 0.52760434 0.3348459 0.341137 0.32877386 0.24789417 0.20905301 0.52739406 0.5173569 0.4781224 0.5349718 0.5463897 0.2514247 0.5263866 0.14132565 0.12983544 0.51685387 0.52361554 0.51165545 0.4593783 0.5311817 0.53894377 0.10518722 0.2206335 0.50364137 0.5152128 0.40267396 0.2655855 0.51883316 0.39292008 0.38049302 0.20382568 0.2371209 0.42646748 0.44268498 0.30969256 0.39119738 0.35203847 0.3269866 0.07968449 0.20962541 0.31221855 0.33789015 0.40460524 0.36596838 0.16746935 0.34154525 0.058701828 -0.029061213 0.015263607 0.10050611 0.3242651 0.083492935 0.39146918 0.22026512 0.26168796 0.07713426 0.12636645 0.24133307 0.16823435 0.17756206 0.14051285 0.06448117 0.1224923 0.09209886 0.13659462 0.20826052 0.2936531 0.34849957 0.10666686 0.090698235 0.112505585 0.01790085 -0.09003294 0.19207759 0.22299778 -0.09799123 0.36405033 0.19005045 -0.0032731295 -0.032488894 0.072844826 -0.09940384 0.39960673 0.33881283 0.06403946 0.059829526 0.106287286 0.05810798 0.23799483 0.37380046 0.4122295 -0.097079694 -0.0728106 0.02090516 -0.009111099 0.25726032 0.32496983 0.36985227 -0.13811223 -0.12979195 0.045999482 0.12513942 -0.074201345 0.30042344 0.32431644 0.3491789 -0.43832368 0.098055385 -0.08464145 0.29318202 0.2890218 0.07163462 0.14885595 0.14106299 0.34078482 0.20257953 0.16465583 0.61911213 0.30645066 0.32840738 0.6182506 0.18855524 -0.02290982 0.11663699 0.06565553 0.34176257 0.37980574 0.37917355 0.6346916 0.68723404 0.12116 0.38319796 0.769295 0.53451496 0.846724 0.84592795 0.7738981 0.3096394 0.15841593 0.11284752 -0.09643186 0.026345495 0.6886536 0.51661307 0.3521204 0.31518143 0.6400689 0.7339074 0.7168044 0.72222805 -0.010452725 0.6181825 0.7293068 0.74243337 -0.086847864 0.7174201 0.6325648 0.54915214 0.4001177 0.22286084 0.15021063 -0.067904666 0.111344464 0.115751006 0.043840706 -0.074785344 0.22485247 -0.077247754 0.35302442 0.40555975 0.39727178 0.14058425 0.2750132 0.08412039 0.26408622 0.3028046 0.27516437 0.22991398 0.15005817 0.23431978 0.5676694 0.34422082 0.33879247 0.27439225 0.4710648 0.44330832 0.468575 0.37038314 0.3435614 0.49051207 0.50171196 0.4793741 0.4129687 0.10859153 0.4641912 0.48618007 0.50752306 0.49003202 0.41827238 0.32965717 0.30452153 0.38473165 0.022135029 0.09283736 0.4055199 0.4611107 0.24986717 0.21554013 0.29894084 0.15184721 0.32851616 0.36840454 0.32342154 0.15885465 0.29940653 0.22028314 0.16500707 0.29972237 0.336307 0.29111484 0.14868622 0.22280985 0.4494082 0.44486007 0.39307463 0.11279693 0.10663366 0.077361874 0.26891428 0.121983506 0.04085613 0.37278593 0.4176325 0.39030248 0.27360186 -0.29279214 0.07283387 -0.404578 -0.054392155 0.25315073 0.3210467 0.22356156 0.13874404 -0.3239804 -0.06400302 -0.0057650274 0.08746676 0.0061406847 -0.044387784 0.0186105 -0.08329773 -0.16666159 -0.07930042 0.11258593 -0.039569277 0.061295323 -0.16232105 -0.17723568 0.055136748 -0.099743694 0.040865667 0.024359688 -0.20280236 0.09484263 0.07745767 0.16776155 0.3023729 0.25212952 0.1710797 0.17230847 0.29394776 0.19438848 0.28826046 0.31745255 0.12257565 0.26048413 -0.08960684 0.2706725 0.0073997527 0.21914192 0.3343858 0.26236796 0.054057766 0.35941157 0.44534263 0.21597484 0.06684465 0.11671557 0.2972631 0.39173284 0.4681756 0.53522384 0.2741096 0.22626552 0.36594084 0.52950776 0.5393991 0.34596527 0.44226456 -0.3267013 -0.13108465 0.36667207 0.39688578 0.2797007 -0.13687214 -0.22240853 -0.21369137 -0.3292802 -0.036863968 0.14438932 0.34812856 0.3479097 0.5746604 0.6521088 0.693967 0.35484755 -0.10589768 -0.19728827 -0.22775225 0.20658737 0.7811363 0.7470621 0.34335834 0.13033915 -0.1614698 0.40782893 0.49755114 0.5682478 0.26389104 -0.061887812 -0.119273596 0.63392144 0.6471597 0.5206117 0.32850185 0.211094 -0.14087552 -0.14996919 0.412016 0.3325064 0.043107823 -0.005733244 -0.14326544 -0.08965095 -0.07247728 0.036600735 0.42165446 0.1321637 0.23731917 0.14256528 0.060523123 0.52747387 0.1928484 0.5655663 0.58461976 0.53227186 0.58536446 0.5749048 0.20507717 0.15977548 0.49101087 0.58539647 0.5622679 0.14161327 0.11569042 0.52343416 0.49181515 0.32013935 0.3525865 0.4247343 0.44433486 0.500155 0.5175754 0.47894657 0.23081785 0.31610918 0.42755365 0.41069835 0.30662572 0.3394469 0.34784406 0.1373908 0.139537 0.32506627 0.41908836 0.42597297 0.38792562 0.2657371 0.3445084 0.3260704 0.31915805 0.25071332 0.0307668 0.25832114 0.32610995 0.26943192 0.36035547 0.37217474 0.4013882 0.29161626 0.2934929 0.20910296 0.18735221 0.25019142 0.13361976 0.12070882 0.35638788 0.2279762 0.2222262 0.19999383 0.15872733 0.00405466 -0.08485284 0.029052986 0.19621938 0.33106273 -0.11910274 -0.2750785 0.39978865 0.19448008 0.16647157 0.019635737 -0.117207885 -0.11496881 0.052836794 0.26280406 -0.22205736 -0.13322894 -0.26001763 -0.21024768 -0.19553667 -0.03814628 -0.1873714 -0.17519522 -0.094207875 0.011552751 0.027248647 0.13721532 0.13945454 0.06876278 0.085666895 0.22104767 0.29314902 0.2483465 0.48684758 0.59657836 0.34170341 0.5742371 0.6284975 0.65900636 0.4127006 0.3832876 0.6427305 0.3535336 0.30543387 0.56904554 0.62642634 0.40628427 0.45499992 0.5255041 0.58212113 0.61013436 0.12460505 0.34905362 0.47776124 0.5388266 0.57715505 0.22460952 -0.16110523 -0.2609451 0.13007307 0.10571891 0.24215941 0.26362613 0.27790874 0.2175756 0.08424261 -0.2174213 0.2190384 0.12853728 0.15477693 -0.15860498 0.21469708 0.29691043 0.4007262 -0.17638522 -0.18538757 0.43538857 0.36397862 0.31453124 0.22004867 0.33231115 0.32251245 -0.20147014 0.07368553 -0.017466877 0.045109816 0.16792727 0.1042848 0.11364374 0.24634182 0.15359043 0.14927766 0.015405767 0.5388999 0.57351524 0.10925363 0.039290167 0.06652189 0.4272464 0.50626075 0.6082928 0.6218511 0.43749654 0.5711247 0.62827665 0.63291997 0.39788938 0.3794848 0.28695926 0.35627508 0.51249963 0.551305 0.56433094 0.36182213 0.35448247 0.30239588 0.54874974 0.4896102 0.2211083 0.19709691 0.47366738 0.022188377 0.2881745 0.3985892 0.501596 0.51145387 0.45212913 -0.07085359 0.1799567 0.44050556 0.422814 0.33561847 0.38335425 0.26975316 0.3288855 0.3542049 0.35387883 0.4491564 0.32103586 0.14651552 0.14877948 0.35300565 0.40825775 0.43550095 0.3716151 0.2871857 0.14926681 0.12383123 0.10750769 0.13048285 0.3539301 0.35925832 0.5120763 0.036873974 0.08841707 0.23280215 0.23562136 0.145515 0.103106104 0.20435582 0.3567285 0.36115137 0.44323337 0.3187333 -0.26206407 -0.08341249 0.037601046 -0.048335675 -0.061177313 0.18930884 0.34250212 0.5495533 0.6535232 0.31165174 0.20634812 -0.5646986 -0.46116266 -0.12027126 -0.29404616 -0.020060383 0.45162144 0.6963616 0.2741046 0.21881106 0.19261292 -0.013263673 -0.19817668 0.7630365 0.1803848 0.11613789 -0.15305537 -0.3834293 0.16718054 0.3910784 -0.047819495 -0.25615755 -0.025131406 -0.22447759 -0.063668534 0.15994824 -0.34681666 0.35536212 0.36366412 0.34897143 0.5058334 0.5851552 0.6493615 0.42383277 0.389691 0.6590271 0.43097192 0.41894343 0.70000476 0.40552205 0.6523169 0.6891767 0.2480855 0.11215382 0.6032896 0.6358633 0.0042741597 0.35524824 0.46890745 0.55333483 0.6024389 0.6284238 0.13188043 0.1705542 0.08600063 0.07248932 0.04137914 0.072702125 0.114877135 0.023943707 0.12935759 0.14164345 0.005716089 0.10881436 0.18432117 0.16521701 -0.12317523 0.1815598 0.32056022 0.2980288 0.263843 0.14741664 0.025547585 -0.07259442 0.2704385 -0.02717584 0.06005364 0.009297616 0.012880208 0.09483273 0.11199094 0.17636889 0.16774252 0.29966474 0.19145554 0.20413396 0.45925966 0.47661865 0.1816113 0.1029821 0.10160998 0.12786245 0.580799 0.22852546 0.37546062 0.51103395 0.6187686 0.62928814 0.38085926 0.5190983 0.43601024 0.44302452 0.44790792 0.39121765 0.35798588 0.43586048 0.49609548 0.51140636 0.3768707 0.47685656 0.2