# vtk DataFile Version 2.0
Really cool data
ASCII
DATASET POLYDATA
POINTS 5050 float
63.43633 37.969303 2.65811
63.27648 38.91616 -3.4086938
63.181 38.99939 -2.7746692
63.330856 39.006626 -1.9464562
63.401623 38.570145 2.5428035
63.427055 38.424683 2.9773893
63.289886 39.569252 -3.902875
63.107254 39.401737 -3.4185295
62.97641 39.528954 -2.5000696
62.98076 39.86894 -1.7974632
63.35153 40.00724 -1.0618407
63.45832 39.021225 1.9491875
63.40285 38.97635 2.671053
63.42912 38.89477 2.9659734
63.213623 40.007076 -3.8305259
63.019062 40.412724 -3.3935473
62.803436 40.545822 -2.547348
62.921104 40.58597 -1.7643075
63.029655 41.0597 -3.1561263
62.891983 41.235855 -2.4716284
63.039783 41.226936 -1.7967042
63.261852 41.737656 -2.459193
64.07243 37.151623 2.1088336
63.96565 37.068455 2.6624143
63.970924 37.070904 3.1545916
64.18765 37.176765 3.7127979
63.986755 38.2916 -3.4220011
63.871735 38.32668 -2.532729
63.665447 37.759224 1.984692
63.599895 37.541977 2.4909782
63.676723 37.562305 3.2257402
63.990326 37.63311 3.8077
63.788258 38.797726 -4.0426745
63.53034 38.601906 -3.4420426
63.516914 38.552296 -2.880825
63.955357 38.53681 -1.5387671
64.23404 38.64818 -1.0322142
63.569927 38.75123 1.6975768
63.586605 38.518703 3.3903034
63.92535 38.49142 3.882634
63.71938 39.499287 -4.3310046
63.892147 39.601456 -0.71042645
64.35823 39.195507 -0.09029627
63.588207 39.194595 1.8252436
63.608093 39.381092 2.5568109
63.83971 39.272594 3.36321
64.156425 39.268764 3.8574347
63.52971 40.232384 -4.0877957
63.80018 40.564663 -0.7301121
64.16371 39.797043 1.6084658
63.964462 39.798473 2.555921
64.06496 39.7207 3.262617
63.660793 41.07515 -3.8734844
63.36583 41.54227 -1.5550543
63.762794 41.345123 -1.0739441
63.88898 41.86222 -3.2313166
63.502266 41.9215 -2.5123057
63.636204 41.878765 -1.7650931
64.80611 36.995995 1.4594271
64.45441 36.69185 2.70877
64.786476 36.644653 3.5469515
64.5803 37.04969 3.8345032
64.194725 38.372906 -3.8785918
64.60017 38.254166 -3.5248935
64.688675 38.05018 -1.8011293
64.41942 38.331707 -0.9933235
64.723366 37.651928 0.76403093
64.58409 37.63454 4.1480665
64.326126 38.581856 -4.081103
64.61516 38.610226 4.312778
64.586525 39.289577 4.1372585
65.25045 40.959923 -7.014136
65.1192 40.86651 -6.525961
65.10992 40.60894 -5.904265
64.86436 40.63483 0.5027398
64.57732 40.091526 2.6366484
64.41749 39.843494 3.417404
64.72602 39.74661 3.8640163
65.1839 41.469593 -7.063054
64.915855 41.59206 -6.5692277
64.815155 41.68858 -5.7001133
64.76384 41.777493 -4.6808195
64.57063 41.36032 -0.6406752
64.830086 41.069843 -0.13370049
65.163124 42.559193 -7.055542
64.90326 42.48868 -6.4172726
64.73252 42.58203 -5.59604
64.728 42.89803 -4.7390075
64.32238 42.055622 -2.9826865
64.56647 42.258118 -2.6412125
64.72507 41.9499 -0.9782214
65.248405 41.78479 -0.21879326
65.104675 43.400272 -6.9016566
64.92627 43.39262 -6.370022
64.79246 43.41925 -5.5202346
64.86877 43.427864 -4.8499966
65.03767 43.371906 -4.1533113
65.31138 44.03529 -6.826117
65.157036 44.114117 -6.473106
65.1174 44.243237 -5.6599717
65.172806 44.0649 -4.825009
65.694534 35.979458 3.3666248
65.91146 36.004173 3.924597
66.04711 36.52048 1.1081911
65.442505 36.61492 1.3012702
65.705986 36.705856 4.2620964
65.97233 37.946976 -3.1288984
65.44268 37.79322 -2.2519372
65.66888 37.93861 -1.1115912
65.72007 37.629864 4.5211406
65.91047 37.541782 4.731189
65.3767 38.55808 4.6113815
65.85903 40.015907 -6.5715213
65.43833 39.546803 4.1021023
66.08658 41.004326 -7.8016195
65.662445 40.6737 -7.1063066
65.41539 40.448345 0.60260415
65.36907 40.19204 1.5817643
65.56128 40.261524 2.3268626
65.85071 40.102505 3.4641178
65.467186 39.78771 3.9005501
65.442 41.4212 -7.3530107
65.927414 42.868774 -7.8328605
65.52053 42.592365 -7.455321
65.68442 42.505497 -0.75975794
65.970245 42.292473 -0.29297528
65.487206 43.29416 -7.267034
65.746284 43.47859 -3.5562906
66.10568 43.522507 -2.737763
65.91583 42.98364 -1.7094446
65.80719 44.401733 -6.976615
65.50196 44.528233 -6.428448
65.3954 44.533028 -5.661109
65.536354 44.31883 -4.57869
65.7304 44.75879 -6.2841525
65.666374 44.77675 -5.6532826
65.965385 44.793514 -4.864452
67.1121 35.098137 3.490754
66.65688 36.022133 1.5132198
66.90639 35.446262 2.5660024
66.32044 35.651516 3.6631057
67.061035 35.57738 4.3930984
66.875534 36.140987 4.8674803
66.59603 36.95347 0.53045833
66.84737 36.656597 5.101064
67.34274 37.640427 -3.9568958
67.27584 37.784683 -3.8254728
66.98864 39.217808 -7.270325
66.9199 38.856148 -6.2919555
67.263565 38.37327 -5.2131605
66.539314 38.585033 4.918282
66.52957 39.91568 -7.2759924
66.01999 39.206482 4.2869134
66.55741 40.781292 -7.940749
66.454025 40.341045 -7.475874
66.27049 40.309673 2.90528
66.56586 41.582893 -8.227947
66.55347 41.020615 1.2371253
66.796425 42.349216 -8.331875
66.20486 42.472916 -0.47030115
66.27351 42.04655 -0.0081451535
66.863205 41.820072 0.83527094
66.371155 43.365883 -2.3461552
66.79395 43.521793 -1.7389344
66.79439 42.641933 -0.32140625
66.48776 44.31133 -7.369269
66.79293 44.099236 -2.7372797
67.453 45.920513 -13.118666
67.448685 45.875214 -12.643528
66.36888 44.76331 -6.8825407
66.46676 45.056767 -6.1531515
66.69717 45.21336 -5.479476
66.7384 45.097168 -4.702691
66.74915 44.827744 -4.084744
67.39242 46.44497 -13.374464
67.39943 46.472507 -12.785313
67.423225 47.158752 -13.456596
68.15645 34.416374 3.6985013
68.26972 35.094376 -4.0333138
68.21338 35.043186 -3.4769018
67.9385 34.60019 3.1169236
67.70325 34.773323 3.4420958
68.072365 34.773586 4.5846066
68.163765 34.875378 5.065016
68.32372 34.400017 5.985961
68.100266 35.724056 -4.3701806
67.96099 35.504204 -3.503865
68.06808 35.55812 -2.782385
67.471 36.05968 0.99371874
67.45962 35.623726 5.0794697
67.701385 35.821907 5.779875
67.92883 37.079575 -5.073809
67.76842 37.132565 -4.2968407
67.68554 36.910248 -2.531953
68.08606 36.892956 -1.0955523
67.831955 36.667522 6.1685004
67.7485 38.084423 -6.267977
67.636925 37.740253 -5.159814
67.89174 37.53858 6.284828
68.20469 37.585957 6.702942
67.63653 38.620934 -7.1284256
68.285934 38.797966 6.7365565
67.734085 39.81682 -7.970985
67.513535 39.43886 4.847162
68.36186 39.272697 6.5301375
67.79533 40.16686 -8.022819
67.50709 40.327515 3.6710525
67.9595 40.606503 4.3439484
68.404335 42.074253 -11.050092
68.21682 41.673164 -8.963062
67.84322 41.546402 3.3924716
68.40877 41.058296 4.957978
68.45341 42.593987 -12.026159
68.44406 42.48151 -10.186926
68.2345 42.91455 -9.663711
67.504425 42.651188 -8.477688
67.939674 42.327435 2.4383082
68.0408 42.331455 3.7088065
68.3201 42.039093 4.315023
68.35738 43.822342 -14.029382
68.37222 43.88385 -13.690793
68.47596 43.146244 -11.731826
67.894905 43.58769 -8.9302845
67.85283 43.907738 1.8976846
67.81928 43.288994 1.9695243
68.09587 44.574463 -14.032469
67.928505 44.815174 -13.740474
67.9986 44.687576 -12.694257
67.84129 45.095657 -12.108377
68.11512 44.322685 -9.020021
67.62296 44.360847 -2.7673023
67.49122 44.008865 -1.8619652
67.899605 44.500263 0.9826462
67.88739 44.627224 1.5450624
67.9212 44.672348 2.3689523
68.10262 44.5907 2.9934914
67.652466 45.922024 -14.03645
67.54697 45.690224 -13.344816
67.690796 45.615353 -12.3593235
67.77869 45.553547 -12.014592
68.08694 44.835102 -7.4666777
67.51412 45.42531 -5.5383196
67.430695 45.335625 -4.621389
67.54104 44.78416 -3.522416
68.34242 44.821156 0.7692237
68.074 45.03343 1.4441022
68.141624 45.27616 2.2953298
68.379776 45.02105 3.390271
67.67382 46.576443 -14.230982
67.53628 46.27175 -12.365302
67.83945 46.77711 -11.845271
68.1641 47.588207 -14.787836
67.639465 47.329563 -14.105499
67.54841 47.270485 -13.80424
67.53551 47.348465 -12.799928
68.05777 47.189114 -11.793155
68.0462 48.588455 -14.348067
67.91596 48.748135 -13.434371
68.150604 48.800407 -12.471686
68.151596 49.286034 -14.255357
68.09317 49.356163 -13.42346
68.26343 49.14054 -12.450566
68.37082 49.88979 -14.13469
68.46756 50.322678 -13.602874
69.10972 34.134583 3.056726
68.536804 34.138664 4.769712
68.729935 33.920082 5.4645653
68.90421 33.88429 6.3812265
69.21099 33.76785 6.861868
68.92923 35.142143 -5.015324
68.7381 34.98957 -4.4144683
68.78628 34.61086 -3.5944247
68.72001 34.739304 -2.9153752
69.211174 34.97834 -2.0099258
68.84675 35.391537 1.331494
68.30565 34.46914 3.147343
68.893456 34.708336 7.231385
68.9119 35.41825 -5.20722
68.567184 35.711327 -1.9031692
68.59682 35.5801 7.0548353
69.17714 35.57929 7.6497145
68.728096 36.628452 -5.73742
68.40846 36.91446 -5.4342837
68.279305 36.654972 0.060833067
68.74229 36.363785 7.143313
68.55946 38.28317 -7.0420117
68.64731 37.26164 -5.9599843
68.3833 37.823284 6.63146
68.858246 37.66026 7.2300096
68.51395 38.92581 -7.6402984
68.61754 38.5455 7.1924367
69.37354 40.151226 -11.264216
69.3625 39.952812 -10.675392
68.81297 39.975395 -8.3365755
68.86079 39.23707 7.2344775
69.24441 40.80907 -11.904081
68.98069 40.772568 -11.359939
68.94313 40.7175 -10.763142
68.960175 40.68 6.414494
69.19131 40.06452 7.16661
68.767914 41.75223 -12.105841
68.69847 41.23158 -11.054848
68.78432 41.47539 -10.760288
68.764084 41.512394 5.612539
69.02377 41.348858 6.251918
69.18215 43.029705 -14.24736
68.7502 42.549633 -12.862232
68.69866 42.418087 -12.363441
68.519745 42.40978 4.6834054
68.91771 41.8622 5.721364
69.211815 42.069466 6.145894
69.24892 44.223804 -18.1889
69.25726 44.04107 -17.935991
69.35622 44.111168 -16.708395
68.85992 44.03985 -15.195658
68.67513 43.64217 -14.4501915
69.33671 44.7995 -18.826567
69.09099 44.680836 -18.318693
68.94549 44.66425 -17.60252
69.030396 44.716175 -16.576754
68.78988 44.29658 -10.100892
68.304054 44.315178 -2.8107126
68.73238 44.513653 -0.27423215
68.7002 44.79298 4.0836554
69.248604 45.496162 -18.705807
68.93678 45.537506 -18.2723
68.67874 45.513306 -17.512215
68.79695 45.415737 -16.75656
68.88773 45.571022 -10.361586
68.7834 45.609898 -7.9212465
68.38284 45.472374 -5.686539
68.474266 44.90617 -3.9057717
68.91956 44.8543 0.26164958
68.62255 45.528286 1.1857734
68.56143 45.645676 2.8928592
68.649796 45.460087 3.598112
68.903435 45.444866 4.114554
69.10001 46.079895 -18.228323
68.95262 46.20674 -17.629307
[...]
POINT_DATA 5050
SCALARS features_00 float 1
LOOKUP_TABLE default
0.71644723 0.6704295 0.66068196 0.60686076 0.6939312 0.7207469 0.67577636 0.69671196 0.70797217 0.694239 0.6258726 0.6386039 0.6886623 0.7040817 0.67442083 0.7055464 0.76421124 0.72370017 0.68210936 0.7136612 0.6893606 0.6438422 0.6597197 0.68046546 0.6765524 0.6480361 0.5821073 0.55438703 0.67719674 0.7127676 0.7275251 0.7150496 0.6365504 0.64305866 0.61248803 0.5355315 0.49447533 0.6131944 0.73989713 0.76198703 0.60475117 0.54170126 0.3802544 0.6174524 0.6616136 0.70848143 0.71877134 0.5952399 0.5343961 0.5061023 0.61915994 0.6680529 0.5193196 0.6110008 0.51208556 0.49954104 0.6024775 0.55388105 0.4712416 0.5903324 0.5269607 0.5864841 0.5785836 0.5035478 0.4477164 0.43949664 0.33571985 0.6526762 0.5630219 0.7119326 0.6795988 0.39916086 0.39295137 0.35380155 0.089781955 0.5453851 0.64159507 0.6320398 0.43340698 0.44465363 0.41553956 0.279317 0.25842455 0.1549392 0.49351853 0.49660185 0.47493356 0.40039426 0.41229656 0.34639475 0.2611735 0.11526873 0.5418569 0.54430425 0.52408695 0.4722152 0.34425792 0.55660915 0.55920553 0.5441808 0.49253815 0.3635442 0.33617115 0.22537854 0.33764595 0.41415626 0.17748404 0.3604064 0.23244543 0.50873375 0.4529152 0.5993314 0.31001538 0.536413 0.35910916 0.36661953 0.030588862 0.19346876 0.33215564 0.40679538 0.51891035 0.41880545 0.44675067 0.47131974 0.15625271 0.115650445 0.5173097 0.26426712 0.21943073 0.19630475 0.54040235 0.55238616 0.53916174 0.46056396 0.53925526 0.5280019 0.47177842 0.24184819 0.21008559 0.29245123 0.28795815 0.24310637 0.2514267 0.08383758 0.23460498 0.112928726 0.07997501 0.25537044 0.22525449 0.11712888 0.31825095 0.29049787 0.42476276 0.31603926 0.3100567 0.22793022 0.3393605 -0.05670692 0.29910043 0.12975082 0.08231078 -0.06447499 0.22302212 0.19920915 0.103796445 0.480659 0.26162645 0.37628847 0.3776163 0.49850246 0.47925228 0.43777066 0.40078062 0.3604624 0.40039003 0.40079516 0.4231602 0.1529039 0.4350506 0.43451267 0.17004025 0.19427872 0.21224067 0.24350956 0.31965265 0.38541922 0.41066015 0.37301308 0.070902705 0.24162522 0.25210622 0.22031891 0.21696042 0.20375228 -0.12839916 0.18756811 0.1643165 0.14472772 0.17258655 0.19437683 0.20915884 0.23969497 0.20857711 -0.03302107 0.2189686 0.21029517 -0.10576734 0.004697059 0.18745132 0.024696305 -0.017952226 0.085147515 0.16786313 0.08258491 -0.00064380467 0.14877738 0.059810694 0.078397475 0.06152597 0.105958484 0.119022936 0.10740864 0.0492049 0.42656493 0.302973 0.20423052 0.262213 0.25649923 0.30961394 0.08279692 0.24483494 0.19894555 0.46264204 0.48254403 0.4655472 0.43398625 0.35425258 0.35865337 0.35958314 0.34610265 0.2226218 0.34301764 0.3382387 0.29507473 0.44819063 0.48226306 0.48121032 0.4657694 0.38469207 0.38384297 0.3560066 0.3798717 0.41491407 0.4209893 0.42024302 0.34311944 0.3822219 0.4072073 0.35500985 0.3661738 0.38198453 0.3356912 0.36366695 0.36612377 0.09366962 0.17925555 0.24695769 0.3679453 0.3929349 0.3938293 0.43033385 0.44904244 0.41558185 0.23332082 0.14386751 0.1437133 0.4121066 0.37329304 0.24506718 0.3175894 0.37277424 0.29383364 0.26073554 -0.16994645 0.23422784 0.13694489 0.21649106 0.20789096 0.2168937 0.13316323 0.24165788 0.31981683 0.3023567 0.07895394 0.23724532 0.31059855 0.29754835 0.28322393 0.17230883 0.18892086 0.23610306 0.2593934 0.23350859 0.13848978 0.16886774 0.058018647 0.12999049 0.17930007 0.106010914 0.15039615 0.17706333 0.64722836 0.5839494 0.3474995 0.10294255 0.078221284 0.788553 0.70849204 0.58635026 0.37667957 -0.01993692 0.16373077 0.1876769 0.45852864 0.7856483 0.7564733 0.6832416 0.51220244 0.04616335 0.09887132 0.2786675 0.23161304 0.3497753 0.45391655 0.4757019 0.48905206 0.5017393 0.7598546 0.72467864 0.19383064 -0.029749796 0.1740666 0.21273574 0.46592718 0.46627134 0.48820126 0.3559032 0.09285544 0.3505022 0.1303117 0.32797807 0.3471233 0.32091454 0.18881634 0.39712685 0.37174726 0.36837167 0.17587784 0.41470975 0.4067855 0.38972804 0.45577323 0.48678422 0.49362475 0.32149097 0.31891656 0.24849017 0.26129416 0.24645296 0.06869883 0.30351096 0.35966134 0.17673984 0.1818445 0.08999756 0.4227903 0.44906312 0.36642116 0.41720474 0.38614482 0.006759271 0.44239506 0.47077513 0.5004116 0.30176985 0.33327675 0.44313598 0.25328442 0.3499694 0.19336514 0.21872519 0.32813948 0.32172713 0.2083345 0.34426007 0.34062555 0.30816442 0.13873439 -0.014338274 0.19703561 0.17890534 0.32402733 0.16475293 0.21393965 0.27920756 0.16361932 0.6354902 0.48256797 0.2411624 0.18503024 0.77823186 0.70810986 0.4434622 0.22879177 0.82642585 0.7582191 -0.0048808306 -0.12500453 0.4763167 0.81039214 0.08457591 0.18784043 0.3126228 0.5145173 0.775458 0.74799126 0.06612206 0.34010923 0.42077854 0.49978274 0.52336043 0.6926985 0.046549723 -0.054221153 0.01229509 0.2288072 0.24062723 0.32002917 0.5213698 0.3921618 0.1498965 0.19054614 0.3603269 0.44056356 0.41190875 0.43647736 0.34793198 0.20343316 0.35025465 0.4750486 0.49636817 0.52829075 0.47306746 0.47166222 0.48760277 0.5290972 0.4826829 0.43311822 0.59266263 0.49917176 0.5921362 0.6116891 0.5520519 0.55208296 0.59834266 0.5729176 0.56258416 0.5936177 0.59126985 0.53478056 0.52525914 0.619239 0.62316275 0.55238944 0.6207264 0.6072521 0.5563466 0.5620712 0.49122846 0.39734846 0.35697156 0.4764281 0.5577762 0.55231005 0.49601698 0.46389943 0.43641916 0.4272775 0.29306734 0.5169693 0.4719451 0.47114065 0.46446905 0.4763703 0.36260292 0.36016753 0.37038028 0.37700585 0.3074484 0.30374125 0.32047275 0.3420232 0.35231954 0.3372559 0.33531058 0.26042223 0.2501361 0.25840545 0.35997778 0.397578 0.11926226 0.41259527 0.44534984 0.4730309 0.20443201 0.2571449 0.5129187 0.22366713 0.5252036 0.18794894 0.40225482 0.44768494 0.060072504 0.2985373 0.3249181 0.28594875 0.14713325 0.01660465 -0.2033103 0.38951117 0.3261392 0.3382235 0.13001442 0.38847333 0.40118998 0.31848502 0.13774829 0.36481297 0.13421802 0.22740525 0.69891334 0.6201767 0.79082346 0.77092427 -0.25962472 0.80873585 0.81983894 -0.057854116 0.27482426 0.784227 0.77156794 0.012244305 -0.012388527 0.022192612 0.39978367 0.7254399 0.6994761 -0.0041483063 0.3047683 0.51059735 -0.14291036 0.5750562 0.42886856 -0.027432233 0.1895302 0.26299167 0.32445055 0.60020244 0.5948323 0.53526103 0.14220573 0.05706821 0.25647843 0.26908386 0.26916072 0.26164544 0.4545693 0.5369073 0.29372686 0.42168218 0.44441408 0.58109057 0.5352973 0.26560736 0.075603016 0.06312553 0.2511194 0.2494121 0.29680833 0.48678303 0.6180567 0.74284935 0.45767406 0.50417805 0.548845 0.50029165 0.1674537 0.09626906 0.33041558 0.317985 0.35875985 0.35252407 0.31926093 0.23775825 0.7543815 0.412562 0.4209246 0.28158325 0.42352188 0.49013084 0.5038104 0.37012058 0.29230827 0.35058653 0.38821852 0.31095207 0.48342696 0.4942056 0.5562893 0.5724569 0.5670994 0.49295646 0.34548247 0.39974862 0.42901593 0.48638692 0.54703116 0.62589574 0.58113456 0.57889915 0.5513754 0.57803726 0.1800424 0.30586308 0.51027477 0.5054009 0.65399015 0.66612685 0.6347058 0.6169917 0.5171628 0.53586096 0.18224001 0.5399895 0.51593006 0.4930104 0.491005 0.48117432 0.37502527 0.51189005 0.53432995 0.5267451 0.4710326 0.47904304 0.48094553 0.45344105 0.44360244 0.4571863 0.472646 0.4610429 0.45763826 0.3939985 0.4515112 0.4095233 0.39207405 0.3791703 0.39153957 0.37751782 0.3422684 0.3993134 0.36352274 0.2990166 0.20505723 0.2980214 0.365666 0.14615124 0.4229796 0.45278746 0.08648994 0.5400108 0.022393197 0.04156268 0.5095583 0.40417302 -0.04403574 0.24013968 0.3446169 0.51211333 0.2796405 0.19695365 0.08656868 -0.15573548 -0.08800247 0.5600668 0.5060406 0.37151468 0.12459422 0.48381376 0.30269906 0.16953893 0.45756215 0.34136206 0.32945317 0.43998027 0.6607624 0.4051556 0.33166572 0.18257724 0.33832556 0.45750487 0.7808807 0.7216622 -0.050670993 -0.0036708117 0.13596192 0.3561268 0.7682415 0.7290762 0.08509386 0.75625527 0.7067913 -0.024970826 -0.04643415 -0.12408679 0.30583024 0.5952517 0.5362886 -0.036303006 -0.06496639 0.4508323 0.39194864 0.47406265 0.30253655 0.22482008 0.2572376 0.27855963 0.40763593 0.5019464 0.5284622 0.05026472 0.020130586 0.15386114 0.21223792 0.2324506 0.2701087 0.2930529 0.43722475 0.5381112 0.66386664 0.78342056 0.030131185 0.56145144 0.0098124305 -0.17915502 -0.086361185 0.11028597 0.44837937 0.6484395 0.90589833 0.99865353 0.28835565 0.48448545 0.5259105 0.51634705 0.064909175 -0.09315005 0.099271104 0.47112918 0.5654379 0.7516665 0.95330036 1.0 0.39997864 0.464657 0.44811943 -0.24199058 -0.34215182 0.35991657 0.47834775 0.66142166 0.81602955 0.9166287 0.44448823 0.37980092 0.39403713 -0.1262632 0.49851525 0.54773116 0.5599271 0.5240849 -0.082124606 0.4884895 0.59313333 0.6391065 0.71063757 0.6723751 0.6305019 0.4554319 0.48204875 0.5125233 0.50743574 0.45806336 0.43719554 0.51787406 0.5186589 0.4096565 0.50728923 0.50221205 0.44665527 0.47796643 0.48452634 0.47891283 0.49951637 0.48940998 0.5420604 0.5228723 0.4769981 0.40805784 0.38390258 0.758649 0.51478297 0.35077953 0.2926018 0.7889558 0.7568848 0.58893627 0.37723777 0.18977135 0.117390454 0.19933411 0.7256619 0.65787935 0.481931 0.1703465 0.0067093372 0.01793325 0.0095100105 0.2971758 0.274044 0.12558462 0.020780265 0.39361772 -0.05129483 -0.15559384 0.5286711 -0.15269405 0.51112396 -0.22935072 0.19663861 0.5933609 0.57454324 0.48087907 0.25143257 0.16885476 0.08155126 -0.018474529 -0.17400032 -0.36000508 0.5782325 0.5986246 0.28585446 0.045701344 0.32152933 0.48966384 0.51285946 0.57197213 0.6097815 0.55376506 0.6381291 0.4152935 0.5407748 0.5924784 0.4428094 -0.037861973 0.18489026 0.29912844 0.43921822 0.68323195 -0.028433701 -0.050208077 0.07237682 0.60408604 0.4856929 -0.06387796 -0.1317064 0.23190656 0.43059707 -0.23556204 0.31545848 0.30170715 0.29840225 0.18771914 0.28077647 0.34189963 0.4012149 0.0010482073 -0.24082816 0.47468644 0.452277 -0.070481494 0.20572704 0.3502311 0.45329556 0.5515269 0.6369573 -0.06962624 -0.052158996 0.5771149 -0.09278693 0.64760077 0.741365 0.8487971 0.05019796 0.5597115 1.0 0.26604697 1.0 0.4634542 0.63149166 0.7957826 0.9254898 0.99229455 0.43219948 0.19348912 0.32153675 0.40093696 0.45414293 0.4513579 0.5772705 0.39955854 0.46140647 0.5380931 0.6123394 0.701069 0.67092997 0.38861436 0.38285232 0.4919007 0.33034658 0.5009621 0.50173926 0.32602328 0.36120632 0.32801187 0.46460602 0.38622037 0.46417996 0.5092854 0.5338343 0.5389987 0.56771636 0.5670068 0.57798374 0.5728407 0.57952064 0.58602977 0.8060543 0.79624367 0.70383906 0.52971625 0.5127206 0.4551272 0.3636132 0.30766737 0.7850257 0.81481427 0.7902744 0.68521345 0.4738493 0.22754948 0.2725585 0.26934814 0.21574593 0.120251335 0.11663735 0.75011206 0.7903874 0.60433084 0.39185447 0.35553613 0.38508803 0.09657974 0.18854252 0.18763207 0.66678137 -0.00399144 0.20956075 0.20739046 0.5726539 0.40794206 0.32837665 0.17896375 0.15841597 0.021030031 -0.3536449 -0.39914984 0.57283545 0.5435468 0.4818401 0.30681294 -0.15312745 -0.25814775 0.251091 0.5618553 0.58745784 0.06836965 0.5335499 0.6241377 0.46686137 0.67384034 0.25873247 0.6682627 0.23564523 0.5213534 0.61760664 0.42438108 0.49944413 0.4037101 0.09461635 0.13907388 0.17344323 -0.20787576 0.031276852 0.10873592 0.31790996 0.22722967 -0.09044789 0.035749063 0.179522 0.29974616 0.33910125 -0.2576921 -0.19067204 -0.110234484 0.025895191 0.12094331 0.4193332 0.54144603 0.62153137 -0.0071592703 -0.07643166 0.73118734 0.8478159 0.98299193 0.20815518 0.08973272 0.35085082 0.98587567 0.29894772 0.2212767 0.12854855 0.06491277 0.30674037 0.33835852 0.53982615 0.7562317 0.84923697 0.8923041 0.3270421 0.049213946 0.0963034 0.17813316 0.11279251 0.39830425 0.40942103 0.42572322 0.37785417 0.18393508 0.30072135 0.59798956 0.19746421 0.46564606 0.22067425 0.43529952 0.47745374 0.4554184 0.22847694 0.3314554 0.47364137 0.54963195 0.59976304 0.5871338 0.6388525 0.6301358 0.62954414 0.7781844 0.7292197 0.67423236 0.56282055 0.44928718 0.431189 0.40090972 0.29913175 0.7564111 0.7922068 0.49581856 0.29168147 0.41904363 0.4064468 0.27839854 0.14802307 0.063221954 0.10238157 0.025181802 0.07667501 0.13410196 0.16452488 0.6708919 0.25087434 0.30672187 0.5752236 0.30970952 0.23733076 0.2644511 -9.8094344e-05 -0.35245124 -0.19687404 -0.36109003 -0.3829965 -0.16219085 -0.2659182 -0.3791907 -0.4014256 0.54274565 0.4889825 0.36681888 0.19634022 0.05620926 -0.15005392 -0.15416795 -0.21135649 -0.28427765 0.5166695 0.5100488 0.42972475 0.51519555 0.65386385 0.44144827 0.66828346 0.23520625 0.639921 0.15928888 0.58457726 0.14363538 -0.10024521 0.2631986 -0.08799222 -0.4415452 0.26310456 0.24833171 0.008995444 -0.2969809 -0.18063521 0.46435165 0.6618829 0.11661945 0.7944178 0.8478788 0.2926895 0.90611404 0.3891868 0.37217978 0.8667605 0.4422056 0.41130573 0.013777077 -0.06329554 -0.11684033 0.12878823 0.26380694 0.61881065 0.7772746 0.84500766 0.3751411 0.24423414 0.13282076 -0.09396385 0.0026597977 0.09308386 0.05990625 0.03780535 -0.027962744 -0.059780434 0.08625191 0.05777605 0.27915496 0.10982049 0.1698587 0.21555117 0.2006988 0.34143832 0.23752682 0.27083638 0.31875873 0.29680127 0.2839018 0.41801447 0.18455094 0.6042123 0.57746845 0.67972916 0.6654393 0.686231 0.67114365 0.64449054 0.73085135 0.71306384 0.68397605 0.6216086 0.5300195 0.35516024 0.73234415 0.18270947 0.16857632 0.24672705 -0.084265746 0.07131067 0.1687436 0.29360995 0.39761928 0.44730335 0.584833 -0.071923085 0.090944834 -0.11826337 -0.11345598 0.3900749 0.4346761 0.32016706 0.39559996 0.40920645 0.20021154 0.2140235 0.03222778 -0.05953957 -0.26807293 -0.3573805 0.15251012 0.5627596 0.66974115 -0.22468133 0.36478662 0.3156186 -0.21285525 -0.26129815 -0.20948656 0.35183805 0.37475893 0.16253158 0.4536695 0.35972655 0.40115413 0.23061818 0.5324136 0.16384037 0.33893502 0.41150737 0.31262395 0.049397074 -0.27231216 -0.03840577 0.062045053 -0.053664587 0.5658642 0.72206175 0.8052795 0.35524657 0.81183887 0.8546337 0.4532141 0.5653542 0.75203055 0.81711894 0.48444653 0.4819976 -0.00015033782 0.03925043 0.23852333 0.3440224 0.6200071 0.71913415 0.4706332 0.34349597 0.35570157 0.2792979 0.04633213 -0.14949115 0.02730171 0.033967026 -0.013741165 0.13309495 0.39070857 0.35566324 0.13371043 0.059381418 0.18168277 0.18031815 0.12205844 0.22774726 0.07143411 0.27494478 0.15771236 0.29944986 0.32117456 0.2933855 0.44129997 0.26515132 0.62051886 0.57663405 0.69412 0.72602975 0.6464046 0.6501791 0.6222452 0.52376866 0.4363591 0.25313333 0.0671929 0.08957482 0.121701054 0.002455309 0.069724336 0.11426309 0.11785583 0.21055925 0.29596063 0.436893 0.46904486 0.3353744 -0.085182555 -0.22934507 -0.21546611 0.47602338 0.46047446 0.4312222 0.12911443 0.086408064 0.20051494 0.16711172 0.25792003 0.49861258 0.68480885 0.75239617 0.2051822 0.20889884 0.66056496 0.75836295 0.79536 0.10783763 0.15037966 0.6418168 0.72226083 0.79719716 0.16715592 0.13086039 0.4002577 0.56385934 0.6724416 -0.06557159 0.013121925 0.39039278 -0.013164438 -0.07370031 0.26792094 0.07003699 0.13476464 0.120667875 -0.068248525 0.13932428 -0.13186507 0.07319222 -0.014002121 -0.24157783 -0.04464955 0.15015206 -0.08730569 0.022937443 0.2639035 0.11840299 0.400289 0.3023563 0.2386508 0.25430423 0.37619627 0.7185358 0.47235632 0.48911166 -0.013990245 0.020515617 0.045039557 0.22062427 0.5181691 0.5018271 -0.0073581007 0.24859346 0.31030273 0.49131578 0.48359564 0.43198526 0.41351983 0.33780926 -0.0416809 0.15863946 0.15142356 0.4019432 0.38647825 -0.08483134 -0.103098035 -0.17380992 -0.07034181 0.18314451 0.1833976 -0.14519188 0.2832808 -0.05907084 0.31594995 0.31662774 0.27445054 0.22213057 0.2134175 0.13868485 0.17044346 0.18373501 0.24434504 -0.0058835708 -0.13809188 -0.028411787 0.10649146 0.13778818 0.058242805 -0.048753574 0.0971097 0.16740656 0.3705324 0.4580797 0.47920847 -0.197056 -0.23998204 0.47010678 0.45189697 0.12805843 0.08345328 0.008430637 0.3046684 0.168596 0.14670235 0.6330213 0.7137226 0.7808107 0.8178535 0.1847771 0.84004426 0.30766085 0.2673867 0.82496595 0.28944328 0.73010063 0.8004812 0.2131612 0.55967987 0.6694566 0.28943193 -0.0857333 -0.003541043 0.021406725 -0.023965985 -0.043709 -0.06837383 0.3956462 0.4369874 -0.09685169 0.45276117 0.503356 0.37760177 0.47904712 0.37995553 0.23945215 0.46883893 0.348205 0.1102194 0.43293554 0.04265283 0.4958625 -0.24598661 -0.10179596 -0.036076754 0.038954787 0.5005609 0.47529322 0.35280144 0.21151832 -0.12201842 -0.014943793 -0.25086266 0.47927344 0.44710097 0.3958031 0.35388047 0.24048641 -0.11321009 0.075533085 0.014312146 0.101330265 0.03563776 -0.18730552 -0.27031302 -0.079926275 -0.021323666 -0.07344359 0.15282466 0.3054005 0.29357034 0.21105607 0.14718734 0.9010826 0.91449714 0.85838884 0.908808 0.91082156 0.7583585 0.6032688 0.799026 0.87241685 0.8438127 0.68693566 0.7171257 0.7542758 0.7654896 0.67534053 0.56732404 0.7158303 0.7191131 0.69330883 0.34759384 0.4641832 0.17087384 0.06802714 0.029084275 0.09098321 0.047592845 0.044065475 0.10987504 0.1392556 0.15319383 0.19187722 0.5132744 0.3510009 0.36074197 0.022521399 -0.036012616 0.11159015 -0.049125876 0.19879833 0.30779067 0.4387715 0.5066873 0.27969712 0.40943998 0.37981838 0.114114456 0.28061232 0.2525323 0.24224779 0.6272775 0.681977 0.085020594 0.73881155 0.78855026 0.32211784 0.22868739 0.8367612 0.32931745 0.8638569 0.31137344 0.759596 0.16704611 0.599093 0.69528997 -0.105091244 -0.012376469 -0.034654833 0.121360004 0.0491487 0.068007976 0.2934566 0.43783385 0.48718205 0.5227743 0.48801425 0.29746836 0.53028554 0.53130305 0.5045321 0.5129864 0.5993862 0.45481855 0.62736094 0.60031545 0.120164864 -0.16983142 -0.10480411 -0.06296478 -0.023250543 0.2968717 -0.16535337 -0.15124315 0.16050288 -0.18223543 -0.06522254 0.07071737 0.14752965 0.12484705 0.09461736 -0.08320676 -0.05675931 0.20559132 0.1981197 0.1014431 0.04880792 -0.20414175 -0.23522182 -0.15746504 0.16001974 0.09379193 -0.2055518 0.4763073 0.5443165 0.0070111603 0.64035845 0.7098144 0.14896248 0.14536305 0.244738 0.41518638 0.7331907 0.7744101 0.76892483 0.8168488 0.83262765 0.8168577 0.8046478 0.18106288 0.17001306 0.6310668 0.78630364 0.80368555 0.803979 0.7793757 0.45840046 0.116224065 0.7323437 0.7709749 0.79660225 0.72748893 0.43785045 0.31000042 0.6908073 0.4853333 0.680915 0.69544095 0.69721687 0.64502287 0.5947836 0.6797689 0.67391646 0.6397892 0.6198937 0.507609 0.38107163 0.2996182 0.13237366 0.09312256 0.081543945 0.2220076 0.63571 0.6022264 0.10463676 0.08392696 0.063962474 0.02582391 -0.048666343 0.045172296 0.08481419 0.1552787 0.1669206 0.58888644 0.5621418 -0.117276 -0.054455265 0.020764291 0.13436049 0.4155891 0.4445631 0.5146831 0.4414533 0.44686627 0.385596 0.44377697 0.34854427 0.2754983 0.5113666 0.670269 0.01877553 0.6093322 0.7106097 0.77119595 0.31808546 0.30168957 0.7516283 0.8230498 0.32123682 0.81552744 0.85207826 0.26471582 0.7156045 0.75393844 0.21947381 0.1133209 0.20536584 0.48506176 0.29207438 0.18592405 0.48577607 -0.02971226 0.5058648 -0.085105434 0.3208651 -0.06559992 0.30745405 0.08657762 0.33364147 0.44101512 0.5141227 0.5018492 0.4556112 0.52168703 0.5124704 0.60703045 0.5253285 0.50921226 0.68523455 0.44397736 0.7087488 0.012622006 0.089865364 0.7025064 0.66057926 0.44596976 0.31661004 -0.2246271 -0.084248796 -0.023221605 -0.008311182 -0.18801065 -0.16078728 0.0009078346 -0.030977106 0.14012803 -0.027111024 -0.030397654 0.23363975 -0.03519699 -0.016443536 0.23847423 0.18835935 0.12894012 0.05200737 0.16282777 0.03649137 0.63613105 0.116610706 0.13397837 0.76334685 0.7269323 0.7481138 0.73094714 0.67002535 0.17273183 0.16878866 0.16746418 0.18109491 0.10808869 0.40897602 0.7976092 0.7099281 0.16676408 0.1916439 0.45740718 0.6329464 0.68170345 0.7485161 0.7813835 0.79769015 0.71871346 0.713327 0.084772445 0.079062805 0.73242366 0.75291747 0.76480496 0.6830274 0.116209604 0.7738376 0.69082433 0.360633 0.65525067 0.5398674 0.54666215 0.61917716 0.73923635 0.6613863 0.55597925 0.40025386 0.21959639 0.1683795 0.111262575 0.110356405 0.104728065 0.08793911 0.2533965 0.27949932 0.32513595 0.33271825 0.6628903 0.65438426 0.05800134 0.07351155 0.031739138 -0.016448602 -0.02419193 -0.088304356 0.11433993 0.20882455 0.27143082 0.6000919 0.6084866