# vtk DataFile Version 2.0
Really cool data
ASCII
DATASET POLYDATA
POINTS 5149 float
65.468094 61.93679 7.4536157
65.41467 62.354977 7.056181
65.43971 62.44508 7.560669
65.43056 62.592037 7.8998847
66.28849 60.75146 6.8343205
65.95075 61.243153 7.609675
66.21845 61.122486 8.2591915
66.08317 61.66838 5.9081144
65.75791 61.658836 6.389889
65.59084 61.70431 7.6043873
65.78821 61.84481 8.2727
66.047165 62.028625 8.6808605
66.33312 62.39628 5.2227225
66.006905 62.65365 5.7430387
65.58786 62.582657 6.663091
65.5081 62.798477 7.515886
65.72237 62.46153 8.3566265
66.01688 62.560673 8.727636
66.13308 63.0524 5.795118
65.86619 63.259296 6.57313
65.6318 63.10824 7.5632157
65.881744 63.16311 8.274746
66.131485 63.021275 8.723657
66.11274 63.689682 7.601947
67.08161 55.100243 2.9775503
67.07297 55.03464 3.4391377
67.04019 55.25779 4.0086813
67.34822 55.16241 4.8324585
67.096245 55.808437 2.3232563
66.95407 55.63975 2.6289341
66.700806 55.61439 3.3760235
66.9434 55.50608 4.249271
67.35627 56.1509 5.740442
67.0946 56.409748 2.312224
66.78928 56.49156 2.6877766
66.596146 56.44243 3.47759
66.78626 56.462738 4.417236
67.09117 56.45278 5.111768
67.27171 57.068073 6.755679
67.167595 57.015144 2.3457587
66.917885 57.181675 2.7625287
66.773506 57.273026 3.2449765
67.06365 57.13943 5.513363
67.06995 57.395985 6.2396073
67.26957 57.61889 7.1999345
67.173134 57.748055 2.7537546
67.10173 57.814575 3.474786
67.129486 58.57595 5.5167017
67.1566 58.319073 6.2234364
67.25386 58.509857 7.2904224
67.15834 59.48792 5.6998954
66.85636 59.6784 7.2872257
67.04517 60.123966 8.336078
66.59204 60.78603 5.9207873
66.58231 60.560635 6.627175
66.554634 60.313377 7.4930177
66.83803 61.067425 8.668148
66.7515 61.78792 5.141519
66.37287 61.337772 5.580437
66.5089 61.264122 8.561537
66.68423 61.717987 8.820956
66.69245 62.7294 5.0727534
66.6233 62.630196 9.004401
67.19614 63.434258 4.9326577
66.57279 63.500877 5.568226
66.37124 63.419704 8.5765295
66.58547 63.232384 8.793252
67.17181 64.050156 5.1372466
66.988144 64.01325 5.593376
66.83204 64.20093 6.7861547
66.72183 64.010635 7.5485015
66.577385 63.80807 8.20545
68.485535 49.90831 29.226442
68.05619 54.47609 3.9073718
67.74063 55.1961 2.346117
67.58588 55.02147 2.6851702
67.47883 54.77368 3.5418239
67.697784 54.786938 4.514877
67.97555 54.805126 5.2987285
68.167 54.986454 5.807544
67.61429 55.65865 2.1990314
67.29509 55.374813 2.4188461
68.076645 55.852295 6.716212
67.75864 56.301537 6.8813353
67.53379 56.468086 2.114143
67.73499 56.89137 7.4827347
68.01648 56.95865 7.7986383
67.637375 57.149014 2.2158504
67.46578 57.60292 2.5042791
67.50572 57.21992 7.403754
67.861465 57.440353 7.933186
67.82553 57.83483 2.533787
67.42393 58.425076 4.2765293
67.69527 58.63765 8.163418
68.034096 59.410618 4.293284
67.68804 59.614304 8.742334
67.72379 60.65226 9.068632
67.388916 61.86112 4.853605
67.58316 61.453762 9.065207
67.47861 62.542862 4.6815658
67.45841 62.440052 9.04131
67.80794 63.71654 4.6343064
67.138245 63.472904 8.743553
67.798546 64.228485 4.895224
67.47126 64.483536 5.493165
67.57763 64.50675 7.64616
67.99429 64.11305 8.261329
67.84886 64.81534 5.757037
67.73232 64.83189 6.3647213
68.02837 64.67323 7.717738
69.123535 49.065052 28.092096
68.971115 48.844025 28.72518
68.95366 48.88007 29.481293
69.00864 49.046135 29.947628
69.00627 49.338436 28.115105
68.68112 49.607754 28.699482
68.618935 49.54982 29.551102
68.882576 49.564987 30.097712
68.93597 50.67549 27.950178
68.62312 50.4728 28.860655
68.61992 50.46473 29.47782
68.88838 50.442177 30.172663
69.28144 50.76416 30.633688
69.104416 51.339565 27.932968
68.912025 51.349327 28.701036
68.844154 51.45525 29.56683
69.06286 51.422684 30.297974
69.34394 51.4118 30.673431
69.223595 51.978233 28.425465
69.177666 52.14041 29.571724
69.28112 52.09766 30.249876
68.668236 54.400185 4.09243
68.74891 54.34145 4.469924
68.56589 54.37386 5.108169
68.30139 54.989204 2.771205
68.44712 54.58776 3.5215096
68.64899 54.510094 5.373907
68.60521 55.002094 6.0504584
68.22156 55.712982 2.2275727
68.41486 55.45068 6.492838
68.49708 56.050713 7.2812
69.02446 56.1781 7.680035
68.283875 56.564754 2.1190786
68.345146 56.36589 7.501615
68.74347 56.65712 7.992815
68.35586 57.21801 2.2791376
68.50132 57.65841 8.431237
68.98211 57.901424 8.766291
68.37629 58.05848 2.843243
68.81662 58.650482 9.024034
68.95226 59.01228 3.763144
68.43067 59.74827 9.172244
68.41776 60.422787 9.350349
68.49539 61.910934 4.659345
68.42686 61.35579 9.226085
68.32676 62.7419 4.5294056
68.57824 61.869843 9.024469
68.556076 63.24153 4.461671
68.2298 63.559364 4.5023184
68.39607 64.354935 4.8337226
68.789085 64.440155 8.256434
68.19631 64.65068 5.0641813
68.592606 64.99747 5.66267
68.593094 65.18319 6.5195737
68.585075 65.00721 7.596223
68.70512 64.870575 7.870759
70.18397 47.138535 23.521368
70.0543 46.96611 24.529455
70.16632 47.01665 25.41025
70.35007 48.034843 22.086706
70.16137 47.800114 22.747152
69.9289 47.601295 23.808043
69.8375 47.51172 24.559004
69.92091 47.506424 25.155281
70.26929 47.692623 26.028418
69.64853 48.32383 28.626198
69.4793 48.424805 29.22221
70.30849 48.417923 22.093536
70.12485 48.487034 22.492823
69.94583 48.21274 23.667677
69.85001 48.344604 24.343956
69.9781 48.367794 25.07636
70.29684 48.73059 26.4593
69.55796 48.88605 27.603388
69.31477 48.56936 28.756664
69.39402 48.563755 29.513615
69.4245 48.94385 30.123085
70.31827 49.135986 22.20715
70.25537 49.127697 22.488588
70.12742 49.329723 23.54879
70.25803 49.018826 24.081923
69.95534 49.901623 25.593857
70.23855 49.374252 26.224863
69.434944 49.440044 30.43218
69.61729 49.725464 30.591242
70.217445 50.63383 23.742527
70.022156 50.536247 24.664988
69.89562 50.294117 25.522541
69.67503 50.42265 26.901283
69.621086 50.670937 30.793362
70.403145 51.405666 22.894854
70.18958 51.21787 23.558554
69.99287 51.14318 24.612427
70.002365 51.415 25.471684
69.82433 51.61989 26.304224
69.46454 51.685703 27.553827
69.71873 51.68779 30.888348
70.30583 52.31459 23.0767
70.19202 52.276062 23.55458
70.317894 52.529285 24.69131
69.82992 52.10629 27.000458
69.54646 52.228306 27.673073
69.52173 52.524403 28.737488
69.46457 52.546585 29.657644
69.70224 52.38603 30.423046
69.83826 52.101624 30.803043
69.23159 54.37876 4.507891
69.18163 54.3379 5.129002
70.46275 53.729725 22.800745
70.18876 53.51787 23.634842
70.11757 53.51053 24.377756
70.13461 52.75111 26.962107
70.2577 53.103477 27.854815
69.96254 52.7907 28.867298
69.70117 52.701294 29.437225
69.914925 52.65172 30.223785
68.87169 54.984795 3.0514388
69.35164 54.908318 3.6915743
69.61289 54.445457 4.7014685
69.48497 54.5979 5.6511374
69.2135 54.687943 5.909096
70.47766 54.89877 22.25819
70.22729 54.07209 23.663635
70.180725 54.193256 24.219053
68.98624 55.449463 2.7906942
69.72893 55.44171 6.532438
69.466736 55.835827 7.23953
69.2355 56.21571 7.710712
70.37507 56.020493 16.967466
70.25709 56.057724 17.72546
70.3217 55.831715 18.338709
70.47526 55.516884 22.575436
70.401505 55.119297 23.242823
68.94928 56.282246 2.4347208
69.50521 56.673763 8.132685
70.32449 56.648422 17.046034
70.070465 56.73217 17.894495
70.06559 56.5399 18.407803
70.31101 56.5639 19.34604
69.249306 57.469646 2.788302
70.37447 57.292725 16.94766
70.192085 57.199883 17.583055
70.08389 57.264004 18.511429
70.21915 57.246735 19.28214
70.43938 57.695328 20.258162
69.53859 58.53498 3.4385133
69.50506 58.704224 9.200899
70.38732 58.05562 17.811422
69.48643 59.090546 3.8935843
69.11072 59.89836 9.336831
69.25517 60.59759 9.247275
69.68306 61.63492 8.795812
69.40608 62.42568 4.6502166
69.57069 61.93324 8.562276
69.27938 63.45269 4.5950494
69.43469 63.482075 8.428485
69.20714 64.14025 4.8438973
69.415504 64.43738 8.276559
69.48159 64.821396 5.689963
69.291534 65.384415 6.6927075
69.36715 65.33221 7.2860093
69.48569 64.93589 7.9023814
70.9033 46.2214 24.55842
70.76381 46.350433 25.219847
70.87613 47.274628 22.169584
70.819405 46.985424 22.853374
70.60373 46.626987 23.756498
70.39916 46.566326 24.428291
70.454 46.757633 25.491667
70.83343 46.713764 25.993574
70.86274 47.769245 21.73806
70.46056 47.49142 22.44257
70.70476 48.1724 26.836355
70.635025 48.24049 27.487822
70.91743 47.921474 27.98893
70.079895 48.41847 29.604206
70.71456 48.492683 21.68109
70.1993 48.56077 29.698557
70.18618 48.877407 30.185606
71.04078 49.267323 21.67818
70.300804 49.809395 30.645548
71.27313 51.267105 15.934943
71.283264 51.278595 16.145971
70.7288 50.23234 22.385372
70.473335 50.49663 23.172562
70.25942 50.511047 30.844938
71.15231 51.775597 15.164464
71.006355 51.803013 15.657431
70.920334 51.790543 16.329643
71.07271 51.79956 16.99117
71.11449 51.17322 22.101147
70.7776 51.73863 22.332418
70.333755 51.452595 31.041788
71.11014 52.32911 15.1239395
70.83901 52.382305 15.669279
70.78063 52.416687 16.51042
70.97682 52.420998 17.253376
71.05936 52.12474 22.087345
70.54218 52.20627 22.552795
70.519 52.509216 30.550781
70.3363 52.183002 30.833029
71.005745 53.219658 15.654299
70.90158 53.290913 16.377707
70.9491 53.013718 17.22936
71.32899 54.1184 20.952698
70.93795 53.28428 22.046017
70.58326 53.723263 22.430141
70.68349 53.094093 26.591516
70.78412 53.32046 27.571573
70.54082 53.148262 28.519924
70.343445 52.933167 29.554876
70.33319 52.777122 30.129461
70.115204 54.9844 5.307468
69.916756 55.050896 5.770218
71.188225 55.11248 15.701503
71.230934 54.582066 16.507391
71.01915 54.6206 17.634779
70.718056 55.138016 18.897642
71.09268 54.95773 19.308895
71.14204 54.90344 20.787956
70.45817 54.515694 24.74972
70.686134 54.552746 25.110594
69.90012 55.29888 3.8135483
70.47806 55.505383 5.477906
71.065735 55.7101 15.584027
70.87414 55.614536 16.513216
70.53091 55.716274 17.156658
70.562126 55.49961 18.68732
70.68676 55.627125 19.513908
70.60095 55.989746 20.897087
70.525085 55.58791 21.577305
70.54886 55.354843 23.486391
70.658394 55.15714 24.262642
70.96865 54.807495 25.046192
69.8963 56.835606 3.1677644
70.32629 56.530003 3.5187895
70.368286 57.20658 8.727401
71.09949 56.647575 15.093285
70.73696 56.61017 15.685419
70.52595 56.475296 16.318542
70.54579 56.360455 20.556122
[...]
POINT_DATA 5149
SCALARS features_00 float 1
LOOKUP_TABLE default
0.7215131 0.7405891 0.75770295 0.7647911 0.54433644 0.65031993 0.6247322 0.6483113 0.6686975 0.7036092 0.71548754 0.7149267 0.65268874 0.6778942 0.7374779 0.7685189 0.75456804 0.7465459 0.67821074 0.75426733 0.770625 0.76783514 0.7581097 0.75260854 0.8947512 0.8647355 0.8053162 0.68111455 0.9018674 0.9053105 0.88349473 0.7649636 0.49499083 0.8669493 0.8529473 0.8692602 0.6962534 0.5337939 0.39972433 0.82063097 0.78814757 0.7574688 0.42140388 0.38077223 0.37695137 0.73915875 0.67080337 0.30808416 0.3125561 0.32582575 0.21087396 0.32505208 0.43709663 0.48891664 0.46664888 0.48407018 0.5610041 0.63469636 0.61057055 0.61484146 0.6390585 0.6383399 0.70630753 0.6482618 0.6588844 0.7427808 0.72754765 0.6739636 0.6745928 0.71837974 0.6941336 0.7064472 0.7916771 0.7905654 0.9003918 0.8973055 0.8425664 0.7320893 0.6397449 0.5723888 0.8997158 0.9137006 0.43531483 0.41857034 0.8534432 0.3954993 0.38550484 0.80003583 0.7640239 0.3942089 0.3859136 0.7259871 0.57247186 0.34212708 0.52058566 0.36716023 0.44954205 0.5980246 0.5204747 0.624869 0.6038904 0.6764461 0.6514904 0.70038104 0.7005563 0.6524739 0.60214424 0.7392289 0.7416941 0.6700915 0.53702134 0.65713793 0.7490053 0.78900254 0.5714543 0.7115512 0.8085791 0.83540624 0.5074568 0.7182594 0.8133179 0.8596436 0.86321926 0.46540695 0.61672056 0.7685972 0.8462729 0.8624157 0.54381263 0.7265278 0.8033418 0.76637316 0.7389988 0.68763506 0.8674784 0.81379944 0.6633259 0.5616666 0.8841891 0.47692603 0.38969034 0.35480338 0.83757925 0.3806628 0.34890306 0.76621103 0.33344936 0.25823352 0.65269494 0.25277436 0.43387875 0.35492104 0.40655088 0.57094157 0.45157236 0.6507575 0.4486355 0.68787545 0.6908989 0.74509996 0.6818644 0.7479478 0.8314419 0.8590679 0.74136454 0.73074096 0.5233593 0.4692681 0.38342193 0.5435976 0.53053486 0.5065878 0.46063122 0.40115392 0.2788714 0.5465403 0.6588386 0.5233793 0.4928495 0.45673442 0.38413015 0.31699002 0.1762604 0.36557186 0.61687136 0.706041 0.76614326 0.43415976 0.41505465 0.2942368 0.29142803 0.13230215 0.1486056 0.80907476 0.8118967 0.17032298 0.13680542 0.13164899 0.2520979 0.8412628 0.2069866 0.18106832 0.14216842 0.119380444 0.20016153 0.40003845 0.84500563 0.21491449 0.21542248 0.18543556 0.34606066 0.44221777 0.5836779 0.71684843 0.79521334 0.82048523 0.7257235 0.6940914 0.24001876 0.2738939 0.28641328 0.36537462 0.45978406 0.5938731 0.67987365 0.76101565 0.8254116 0.7632683 0.7038214 0.6675786 0.63251334 0.24646227 0.30177808 0.31311184 0.84790885 0.54220873 0.37957847 0.34208137 0.33041883 0.3371942 0.31209058 0.26924977 0.29963422 0.8298904 0.28898335 0.34746823 0.36020464 0.3554288 0.3148909 0.5839915 0.33670902 0.35194755 0.35450864 0.32564086 0.25711212 0.40516174 0.17507106 0.30842286 0.34097078 0.31811148 0.37039006 0.37809062 0.54384786 0.40052032 0.680218 0.57860434 0.7528896 0.7409137 0.83410376 0.9526998 0.9008005 0.8177688 0.39041615 0.3678301 0.51830184 0.50326574 0.4818588 0.45150062 0.3671298 0.28793618 0.54441035 0.53903735 0.16616742 0.20171958 0.22622617 0.6281642 0.5342625 0.63419545 0.70032656 0.4399793 0.7525016 0.626384 0.63439584 0.28592557 0.21498483 0.76228297 0.5975766 0.63556933 0.6565956 0.6445086 0.23357484 0.2078449 0.7848985 0.5808033 0.62868834 0.635447 0.58486086 0.17658225 0.20337664 0.746662 0.7807058 0.49324456 0.48857942 0.48986286 0.03678726 0.13841577 0.20736289 0.29725486 0.4046044 0.52577835 0.66252136 0.7252311 0.7017731 0.6739116 0.2064631 0.21902984 0.19327112 0.16482973 0.07511548 0.09982742 0.28111055 0.2314395 0.7392961 0.7180737 0.2598651 0.29260856 0.31219238 0.2506173 0.21720137 0.20190874 0.22738042 0.29550156 0.28554466 0.22784054 0.5211355 0.5087887 0.13398659 0.23587021 0.29616538 0.32634383 0.21460912 0.24628626 0.2702689 0.2492769 0.4700951 0.35385394 0.094704084 0.21215235 0.28825325 0.30470487 0.23629661 0.2081342 0.18229012 0.22935274 0.2737827 0.0774197 0.20013942 0.28161567 0.24030992 0.25804487 0.2831803 0.25790316 0.19611119 0.13533047 0.021846488 0.15245844 0.22157991 0.24796474 0.23817948 0.017535914 0.18638083 0.22804382 0.20936707 0.109252065 0.16611435 0.19021155 0.15470977 0.039461266 0.22470726 0.23203692 0.22401637 0.14564544 0.12274548 0.3909815 0.44303197 0.217409 0.21399358 0.2016856 0.58198464 0.5520493 0.6930206 0.6602605 0.6996719 0.75326073 0.8527764 0.8438872 0.9280046 1.0 0.6170145 0.6708369 0.5453028 0.65929466 0.7126258 0.7029731 0.5853467 0.68072236 0.7384643 0.7156588 0.460539 0.4472633 0.6420977 0.6874943 0.7020527 0.48665679 0.4906745 0.6501163 0.6730728 0.67968714 0.34526294 0.28070942 0.28670782 0.24122703 0.45412934 0.4105442 0.032409403 0.4837185 0.51508665 0.28520343 0.4846993 0.40343553 0.59164995 0.6269243 0.5552077 0.5914749 0.6221006 0.620514 0.2511261 0.46661538 0.57548666 0.56539464 0.5991746 0.609514 0.57211155 0.15393494 0.46027625 0.6061537 0.5019561 0.44552243 0.6720973 0.6056439 0.3131211 0.04545915 -0.090848915 0.008159153 0.47920102 0.5250126 0.63831365 -0.0021033026 0.15573062 0.60626626 0.5560308 0.03856629 0.16058958 0.23570482 0.39542085 0.4445812 -0.06212713 -0.015717387 -0.0055571273 0.19656196 0.23757115 0.1960719 0.31706738 -0.04633516 -0.0047316775 0.15764797 0.18855825 0.18702093 0.13810939 -0.11818272 -0.20456997 0.088437155 0.0973535 0.038287904 0.057252035 0.20048739 0.072088085 -0.0016853269 0.06533185 0.17448932 0.13195454 -0.10192086 0.028183274 0.16370028 0.09214331 0.11591138 0.14408444 0.2004381 0.10809503 0.051044766 0.038330257 0.2003335 0.29029313 0.43631822 0.43453246 0.40686208 0.35605595 0.3069312 0.23072372 0.1872313 0.21377738 0.18879035 0.1605645 0.09535457 0.037150554 0.018805452 0.1976321 0.3915975 0.5131346 0.5086974 0.4157916 0.37184042 0.5907565 0.67058575 0.3042722 0.2094064 0.14243905 0.11002529 0.14010501 0.09348883 0.06428385 0.025282223 0.36825442 0.45205486 0.5376035 0.51119196 0.4327119 0.9776775 0.24459282 0.041417513 0.050516497 0.084795505 0.08022098 0.48377466 0.46969706 0.4432062 0.4005732 0.083945796 0.08406259 0.38080624 0.37893218 0.0739192 0.12516837 0.5991256 0.5483584 0.29365444 0.33279395 0.35112995 0.48151276 0.64360946 0.29529202 0.35554126 0.4101631 0.35437042 0.09031403 0.31549895 0.46196312 0.6538282 0.29124016 0.41293377 0.4432109 0.4168685 0.411699 0.5619124 0.68227077 0.63704824 0.49291164 0.5047726 0.48211804 0.62718517 0.6599736 0.65809715 0.6297008 0.50540787 0.51838136 0.51072747 0.61441857 0.637649 0.63296455 0.585659 0.5792407 0.52655816 0.5771362 0.56687325 0.53757435 0.43606496 0.26864982 0.53213066 0.45881927 0.17311141 0.13608599 0.27696568 0.09277204 0.07930216 0.12969095 0.26629204 0.19631481 0.12575299 0.0750346 0.3651262 0.33045638 0.1316024 0.20074636 0.24704826 0.38640672 0.18108293 0.455488 0.5257783 0.53865933 0.35237023 0.5033973 0.5461947 0.5796515 0.5434708 0.51002014 0.1921871 0.29361477 0.42850256 0.48645827 0.49133727 -0.043826386 0.27112794 0.32409495 0.29714918 0.17867756 0.37537485 -0.058227785 -0.16177654 0.409903 0.26599008 0.2033387 0.214768 0.073676795 -0.12896085 0.10355381 -0.11855106 -0.089082375 0.22365347 0.4058732 0.46018147 0.11698775 0.10355006 0.05044294 0.10039598 0.13382249 0.028410278 -0.057083666 -0.16355856 0.0762417 -0.068780154 0.012662232 -0.03443452 -0.0927188 -0.06128168 0.06444743 -0.08343008 -0.04836791 -0.06303742 -0.113319345 -0.050408825 0.101413876 0.11401279 -0.17173411 0.06704052 0.11764385 -0.187263 -0.120493844 0.0093732495 0.097121686 0.12532474 -0.104817994 0.11320753 0.028981365 0.3309306 0.2210483 0.08282137 0.16366942 0.33686805 0.24511175 0.28341955 0.42079914 0.29419985 0.19678457 -0.048212588 0.06684157 0.27511874 0.3796479 0.32195655 0.3178718 0.14035879 0.021432905 -0.048637167 0.06688768 0.36198792 0.37190837 0.30928776 0.2011395 0.11325599 -0.04548935 0.0724445 0.37484258 0.28307575 0.305286 0.3090583 0.31250936 0.14632033 0.17989087 0.021296881 -0.042270664 0.01897883 0.048184447 0.001540482 0.05345024 0.20306149 -0.019477472 0.16444501 0.2527441 0.2411865 0.114140406 -0.09262186 0.46761024 0.50422674 0.25717962 0.2760589 0.57360065 0.54880077 0.54252243 0.6492001 0.5804718 0.56266373 0.43980455 0.6041845 0.5711305 0.63370556 0.5892291 0.54625124 0.50087416 0.38287506 0.4962412 0.45819885 0.5643649 0.5783223 0.5756862 0.53070176 0.43537164 0.48054463 0.4943244 0.42302632 0.6156809 0.61608493 0.58806723 0.5980054 0.6118946 0.5734854 0.5747194 0.5893109 0.37270206 0.5689795 0.16758543 0.50622225 0.15108329 0.13936217 0.15317342 0.13365512 0.16270165 0.16214687 0.111352764 0.17950423 0.27280745 0.32586277 0.24247095 0.3069203 0.31357834 0.28444028 0.32259965 0.23166293 0.43191412 0.47074288 0.4359948 0.18646756 0.030760214 0.45341 -0.15338959 0.21340774 0.28500748 0.3160213 0.27433315 0.27086794 0.3771038 0.4076224 -0.23856094 0.10146381 0.023088902 0.142606 0.21138024 0.30353218 -0.26782617 0.18524644 0.15537517 0.08206369 0.11240171 0.16186556 -0.042559683 0.16006519 0.10824759 -0.43716332 0.37173146 0.10707593 -0.15559639 0.38696498 -0.012496001 0.015768982 0.02484614 -0.03511586 0.075013205 -0.25924468 -0.05554217 -0.024909552 -0.007177581 0.08284094 0.00938581 0.02614928 0.12917869 0.23841186 0.113051325 0.24627118 0.18053114 0.17183368 0.07605885 0.10381219 0.25803977 0.21979682 0.114280194 0.084469944 0.21542692 0.23048747 0.25633407 0.084162965 0.10685609 -0.052599747 -0.061633363 0.110689044 0.06578696 0.07576083 -0.0057695806 0.031217188 -0.01703354 -0.11782444 -0.12819183 -0.021962667 0.29125467 0.088915884 0.16341805 0.6993792 0.6509881 0.48002043 0.38961393 0.72859204 0.6744423 0.41684043 0.7060065 0.6688155 0.12892817 0.24505293 0.45746583 0.45467713 0.621261 0.59277016 0.5590416 0.40776402 0.23344983 0.3506605 0.38412935 0.26205084 0.55842555 0.52700436 0.4961133 0.42168897 0.3234087 0.47689474 0.6138649 0.6204661 0.5863561 0.49259496 0.5665475 0.6060866 0.53334624 0.2137033 0.54388124 0.05781802 0.50406516 0.5075388 0.10957028 0.13369651 0.1297658 0.45577246 0.05323867 0.20520064 0.29213876 -0.0048692822 0.33842793 0.14540742 0.3367298 0.48335093 0.15077995 0.23686014 0.4010851 0.41120756 0.17158243 0.114899725 0.3507411 0.268443 0.33973658 0.155213 0.15699235 0.16262093 0.14756231 0.19658041 0.14049254 0.19007179 0.23023461 0.27346772 0.13418601 0.037454005 0.2516764 -0.3860938 -0.35288355 0.15143752 0.20864567 0.1076997 0.12719636 0.17118467 -0.15821019 0.43374175 0.19157243 0.103034675 0.008967339 0.74869657 0.7754091 0.5739235 -0.099183485 0.69617045 0.7718717 0.7992039 0.7923229 0.5691004 0.5284964 -0.39463884 -0.41116625 0.7143881 0.7645785 0.8718213 0.8151125 0.38866907 -0.06520279 -0.16136259 0.71387684 0.8348239 0.87462246 0.83551806 0.24027693 0.018450122 0.77044356 0.8251164 0.8649391 0.85145175 0.029626235 0.035885893 0.046403974 0.027692923 0.04761546 0.07868852 0.049248375 0.081011474 0.12620206 0.010013074 0.047899425 0.12456007 0.16140261 0.122121066 0.17401749 0.09342829 -0.0023243753 0.19054295 0.26189896 -0.0005297642 0.20552784 0.23897676 0.28906286 0.010751758 0.13701287 0.10439152 0.20315339 0.009873413 0.040441826 -0.013241358 0.025401069 0.03621232 -0.055153325 -0.04812471 0.023126122 0.033975154 0.03501779 -0.03623893 -0.044883445 -0.038403913 0.070728794 0.52823806 0.29075658 -0.16422209 0.20016898 0.64552 0.65694726 0.6920016 0.3318079 0.24789223 0.63695455 0.65114427 0.05895994 0.2927074 0.24098592 0.6016964 0.13796926 0.21424861 0.5261422 0.5326411 0.528168 0.35194632 0.3121181 0.5111058 0.498703 0.4723452 0.37341538 0.30529773 0.6217111 0.61907196 0.6068401 0.57086766 0.61388946 0.61021346 0.59056747 0.502015 0.56584346 0.5921191 0.5607206 0.57893234 0.6047027 0.58062303 0.42885786 0.4452967 0.45363146 0.5028514 0.46735203 0.534915 0.036500722 0.47372496 0.47702587 -0.032285005 -0.044211086 0.18887337 0.24028492 0.112622805 0.29699105 0.3262055 0.4660735 0.49142516 0.5014004 0.3139987 0.32761326 0.37215218 0.41895783 0.46404186 0.49870342 0.47605985 0.086271256 0.04345724 0.31252947 0.34390414 0.3827184 0.4777949 0.40965268 0.0041649155 0.13110647 0.14431532 0.31661278 0.28156275 -0.14603259 0.1871073 0.20979446 0.19802734 0.16020396 0.15580998 0.092673175 0.2343655 0.26998413 0.13941933 -0.2238749 0.19754028 0.181505 0.34632742 0.16900337 -0.4000472 0.21662807 0.19804597 0.21053429 0.4002192 0.3065552 0.15818033 0.19528869 0.21253896 0.19324034 0.7169999 0.6738515 0.60512936 0.49821118 0.35921916 0.0318871 0.1924572 0.6173541 0.681139 0.7321439 0.74133253 0.74663514 0.70395994 0.62183464 -0.011521418 0.036620602 0.5884102 0.6504468 0.7601718 0.7545054 0.6725137 0.62031525 -0.039285462 0.6291096 0.79183704 0.76455915 0.6035525 0.5312813 -0.06534166 -0.18499306 0.62373185 0.66550106 0.814857 0.78502667 0.44380254 0.32484725 -0.043596894 0.7672825 0.80840206 0.8601024 0.8340751 0.79747784 -1.5292317e-06 0.8259551 0.85337615 0.83649874 -0.12540975 0.10109462 0.06107149 0.12521748 0.1024298 0.28164452 0.25754398 0.2780886 0.14427117 0.32132825 0.30014232 0.23947181 0.22113411 -0.16530941 0.29973876 0.27384853 -0.06795051 0.3235308 0.35512817 -0.054591388 0.252011 0.3659981 0.39308184 0.028575264 0.026746508 -0.07255946 0.17818207 0.2722488 0.3627116 0.05622396 -0.047286473 0.0643374 0.0014097989 -0.0011090785 0.019596763 0.23422664 0.49768814 0.23532313 0.34375545 0.545775 0.638462 0.5479951 0.5233386 -0.001940541 0.53077716 0.6338421 0.65713966 0.56168586 0.504158 0.0021224767 0.55459726 0.58776987 0.087677434 0.06218656 0.03511575 0.529998 0.028753072 0.47898114 0.4824491 -0.047755986 0.25810546 0.2763329 0.4755342 0.4749341 0.44960368 0.27259535 0.01410196 0.0731311 0.3554926 0.42586216 0.45940518 0.44458488 0.52504945 0.5108324 0.46699268 0.50928736 0.64207244 0.6344255 0.66755235 0.7013286 0.7209929 0.7271863 0.7336562 0.64544535 0.6600385 0.6191168 0.64130414 0.62267107 0.59220207 0.56978214 0.53521943 0.48891562 0.46959955 0.5104726 0.49471495 0.14190368 0.13047433 0.26284158 0.44907486 0.40411356 0.36332455 0.4073354 0.46981323 0.06109509 0.009263456 0.31078786 0.30940175 0.30068353 0.38833383 0.40596524 0.006248452 0.11925725 0.19930467 0.2241904 0.32287177 0.029516555 0.015912082 -0.023134049 0.22137934 0.4249576 0.45314926 0.25629506 0.3803806 0.43835557 0.4444731 0.47140044 0.50362366 -0.14480801 -0.14560135 0.15619835 0.3178773 0.36739242 0.24483372 0.14294422 0.22651222 0.31870866 0.32728714 -0.4184965 -0.0667415 0.13956292 0.47480458 0.57127094 0.6528549 0.1720347 0.13488622 0.08191396 -0.048418373 0.051389657 0.2792342 0.19041732 -0.28507245 0.3779788 0.45104486 0.5235202 0.6127118 0.18932071 0.036542945 0.27349338 -0.4608472 -0.38955584 0.45454475 0.567852 0.19062997 0.04681751 0.16952503 -0.38133454 0.32370704 0.38603002 0.60035074 0.53192973 0.17256583 0.1857111 0.63138723 0.6697538 0.6915765 0.7248499 0.6275013 0.16963702 0.15781987 0.58733535 0.71260345 0.71776164 0.7574895 0.7325182 0.10441905 0.49651206 0.7370633 0.7299944 0.70927465 -0.072389886 0.39160746 0.71905386 0.6620215 -0.28166887 0.53780615 0.7390075 0.47919294 0.27722237 -0.07840806 -0.08533184 0.011974417 0.12277694 0.69550073 0.77434254 0.7699562 -0.19762038 -0.008394904 0.05003784 0.7377513 0.7880517 0.8018395 0.79875886 -0.12257202 0.049148053 0.05556357 0.20343876 0.0661678 0.05065185 0.060812388 0.06165868 0.29215735 0.28493255 0.11661416 0.2797197 0.3160963 0.17232232 0.284198 0.3401492 0.3255535 0.28364813 -0.01312542 -0.11571751 0.3824538 0.29851568 -0.060288288 0.42413446 0.41475233 0.09347926 -0.061802443 0.25352028 0.41489214 0.45903856 0.098994836 0.3616025 0.13957192 0.27497214 0.16294342 0.55362356 0.62300795 0.28635916 0.6428221 0.70098066 0.27356616 0.4770392 0.6250594 0.708514 0.72679365 0.40159398 0.1958725 0.61750376 0.70606166 0.5044618 0.4312737 0.027502783 0.033625927 0.44205827 -0.10954307 0.053417303 0.051813725 0.40430576 0.17018983 0.16945723 0.40785444 0.4468351 0.35383248 0.25312385 0.42832947 0.42490655 0.4133365 0.42240885 0.5318546 0.645547 0.6518853 0.6841837 0.6871078 0.6907257 0.70930874 0.74924576 0.78781164 0.7969151 0.7851006 0.7450281 0.7945768 0.84459805 0.8370466 0.5580808 0.608744 0.6495703 0.65892947 0.6480271 0.5811802 0.5982791 0.5376319 0.49742818 0.10629964 0.21939732 0.42532486 0.37830108 0.2877963 0.07093644 0.3254934 0.36654803 0.34570158 0.35463953 0.25571346 0.24655968 0.17313188 0.30018702 0.31642658 0.28559604 0.16887432 0.21305785 0.18167408 0.20611526 0.23592475 0.26729402 0.2367449 0.10748915 -0.24427897 0.22253416 0.31496286 0.35341033 -0.07971037 -0.059088856 -0.17000118 0.35088474 0.43721426 0.45017606 -0.23897228 0.0068477765 0.325266 0.3653003 0.3751846 0.47888264 0.15002665 0.21639617 0.25833642 -0.28401628 0.07347567 0.5202764 0.7178463 0.16385435 0.16153327 0.14722367 0.25023022 -0.2793851 -0.5205474 -0.43615666 0.029381627 0.04877604 0.20234202 0.31631446 0.548173 0.7024534 0.7384155 0.16457759 0.1500628 0.103867605 -0.3349842 -0.35735646 0.74077994 0.69135094 0.0921055 0.73333013 0.69844055 0.37377006 0.19971152 0.26281133 0.4891262 0.6314352 0.6480113 0.65800273 0.7863555 0.7783619 0.122484446 0.068131074 0.3993082 0.6862764 0.79227066 0.089634694 0.11904697 0.35305354 0.6627697 0.633813 0.7817669 0.10225744 0.016146459 0.2605524 0.6763679 0.6987498 0.08895272 0.13471524 0.13933837 0.19562572 0.3521255 0.64554566 0.6569104 0.6318972 0.70711553 0.6958724 0.12164885 0.16040182 0.6150285 0.6110106 0.7187046 0.7353373 0.71023995 0.15416054 0.2593952 0.67825806 0.38172466 0.16341156 0.4113629 0.5340132 0.5975918 0.5960852 0.59959614 0.5484973 0.23172599 0.42984754 0.5032331 0.5897801 0.540159 0.5131141 0.19745746 0.22886966 0.17150111 0.3896671 0.56198007 0.362067 0.2513372 0.20067343 0.23584086 0.15974668 0.31097993 0.19732985 0.033700332 0.26481864 -0.102977246 0.3863801 0.09620913 0.45398965 0.42530102 0.15969358 -0.3750204 0.33491212 0.38913846 0.43859294 0.46218824 0.23871619 0.1723633 0.3005253 0.23211247 0.6452197 0.4393658 0.7316756 0.35880816 0.72822845 0.74672043 0.024378762 0.36074582 0.5971073 0.70476604 -0.0029753745 -0.026602045 0.36742616 0.30075917 0.11264703 0.0855587 0.35828203 0.13118245 0.39762735 0.40404552 0.14640412 0.41365546 0.40638545 0.3943617 0.3320853 0.5709098 0.7288808 0.67582786 0.7076695 0.78937507 0.725399 0.81263196 0.869377 0.84025043 0.8094866 0.63986623 0.6346599 0.51755834 0.5825492 0.6215729 0.6446529 0.6366322 0.5198999 0.5530266 0.3452323 0.455984 0.44473395 0.09603948 0.36560422 0.06021015 0.30723312 0.5298463 0.1572396 0.27079126 0.38393718 0.5049444 0.049850978 0.323839 0.43090093 0.11832856 0.31966326 0.14874575 0.28592685 0.23920307 0.07381445 0.13750042 0.18058705 0.2723713 0.2988758 0.20030862 0.24752997 0.25890467 0.33834708 0.34310615 0.26724067 0.298492 0.26017737 0.3136124 -0.20491464 0.23842685 0.250936 0.2633456 -0.025303155 0.08620704 0.3206265 0.57924926 0.7073098 0.72896063 0.34597164 0.2749493 0.21993238 0.21573788 -0.14074594 -0.0136181 0.72860944 0.7090478 0.4379054 0.34954512 -0.37947184 0.712241 0.6917197 0.41717362 0.1248206 0.16366248 0.5184816 0.6065942 0.53484386 0.44605142 0.25267014 0.60966814 0.6265761 0.7531815 0.63429606 0.5602757 -0.05645309 0.26242405 0.61589074 0.80172426 -0.28556353 0.82065237 0.8268517 0.032174263 -0.074789904 -0.096731305 -0.14298566 0.53108394 0.5602434 0.8413059 0.5568898 0.72991204 0.20151919 0.24626388 0.27144185 0.4460796 0.60209394 0.6778356 0.6538987 0.13864751 0.33977363 0.60212225 0.70793366 0.71825397 0.40842742 0.5204682 0.67259896 0.62919503 0.58870256 0.61682004 0.52080095 0.4791515 0.41189945 0.53722763 0.56038296 0.46594688 0.43356586 0.38534278 0.261142 0.42758307 0.37862542 0.3072425 0.23480621 0.064201534 -0.022961468 0.33387578 0.30759072 0.3790486 0.33205724 0.40733337 0.40533128 0.10362393 0.43951023 0.4184451 0.20949696 0.18524328 0.29590255 0.47641215 0.47587606 0.33109426 0.4751168 0.49066722 0.47777307 0.4188965 0.46894056 0.6293707 0.47474784 0.6503 0.73112524 0.43619293 0.05127971 0.22855626 0.40136462 0.12436564 0.1658419 0.30200058 0.30324048 0.38361576 0.3937774 0.3882739 0.58517545 0.37749135 0.3290352 0.42071265 0.65608823 0.67130756