# vtk DataFile Version 2.0
Really cool data
ASCII
DATASET POLYDATA
POINTS 995 float
1.3123921 2.216729 -20.358679
1.3480088 2.1401818 -19.498356
1.2324703 2.9447243 -20.905064
1.1206079 2.6406953 -20.41489
1.0656686 2.676968 -19.499105
1.2073547 2.6048117 -19.180252
1.1152935 3.725072 -21.19042
0.8804282 3.4700792 -20.36777
0.8768593 3.4109523 -19.704168
1.2308028 3.556745 -18.884563
1.046792 4.3146186 -21.181435
0.89963484 4.420991 -20.664555
1.0580664 4.4837284 -19.659803
1.2807342 5.140654 -20.943716
1.1283228 5.0070305 -20.317827
1.1545994 4.9776587 -19.855951
1.9637736 2.206538 -20.856066
1.6383541 1.9654983 -20.27015
1.780215 1.7957969 -19.66531
1.812121 1.9641675 -18.998238
1.6568055 2.6312265 -21.011398
1.4060562 2.3312838 -20.659935
1.5226862 2.5117052 -18.795694
1.9237747 3.0180705 -18.098915
1.6987677 4.014024 -21.696566
1.4409833 3.5655823 -21.423674
1.8177772 3.6322567 -18.057785
1.6281583 4.5504675 -21.687597
1.3648473 4.4117055 -21.571173
1.6057153 4.7539535 -18.38847
1.8537754 4.3517594 -17.998236
1.9282572 4.8937006 -21.66773
1.6090473 5.024525 -21.410242
1.47522 5.3712296 -20.795456
1.651174 5.3737464 -19.665272
1.7621429 5.034334 -18.510473
2.1393282 5.1500635 -17.86833
2.349324 2.161829 -20.82259
2.2590237 1.8409376 -20.441889
2.2311819 1.6435082 -19.555218
2.5336778 1.7812693 -18.789743
2.3020828 2.8287547 -21.310732
2.3736835 3.784281 -21.711252
2.3095295 4.4628787 -21.777359
2.8769526 4.2466135 -17.028883
2.1769612 5.4405036 -21.185139
2.5719168 5.611598 -17.874033
2.2159815 5.6133485 -20.933435
2.9104373 5.801828 -20.243036
3.028991 6.0834603 -18.139767
3.42654 10.288098 -20.340578
3.2601378 10.64785 -19.655193
3.3111496 10.754392 -18.908197
3.4045925 11.393812 -20.188202
3.288658 11.416647 -19.471745
3.3307378 11.869972 -19.686565
4.3661366 -0.21721956 -15.111745
4.0450816 -0.2350164 -14.397827
4.1928744 -0.25606215 -13.512146
4.042597 0.99956024 -15.50141
3.8408875 0.6842872 -13.616993
4.0171943 0.6588352 -13.088161
2.9345496 2.2708738 -20.842644
3.0300324 1.8534304 -20.312262
3.200873 1.5592207 -19.486359
3.5903153 1.654816 -17.628155
3.8899467 2.001922 -15.471309
3.7697659 1.6680669 -14.603702
3.8649204 1.3678172 -13.60961
4.0739837 1.2462825 -13.048465
3.0347676 2.6929436 -21.097925
3.7991254 2.468746 -15.621137
3.260871 3.5661988 -21.351374
4.263471 2.9323683 -14.58369
2.9323015 4.1785283 -21.675089
4.1212883 4.824733 -15.85409
3.376103 5.4693894 -16.884157
3.1820283 5.940148 -20.177038
3.6721075 6.229555 -19.82907
4.116038 6.1188445 -16.371288
4.1445456 8.046474 -20.266088
4.385967 7.4508796 -17.580435
4.1909823 6.957384 -16.958818
3.8596754 9.151081 -19.483112
3.8723853 9.618247 -21.183405
3.7309804 9.924882 -20.83537
4.3898263 10.226512 -23.276846
4.2152987 10.666973 -22.17499
3.7999034 10.654241 -21.141558
3.4313521 10.674236 -18.832714
4.262724 11.083497 -17.653418
3.9717617 11.075134 -21.279583
3.585506 11.251796 -18.574677
3.5567918 12.922338 -19.673122
3.5408647 12.478748 -18.854483
4.1375704 12.479737 -17.695436
3.7888644 13.404432 -20.357534
3.6585615 13.617148 -19.51657
3.7482903 13.131385 -18.680832
4.371664 13.439354 -17.722553
4.0509415 14.231757 -20.409487
3.866363 14.30314 -19.492683
4.1805916 14.475124 -18.4226
4.277528 13.958178 -18.167221
4.0976524 14.954673 -19.152853
4.25403 15.06783 -18.776543
5.1619678 -1.6460563 -14.393979
5.1812363 -1.6204922 -13.852457
4.8993144 -1.14111 -14.996066
4.7825828 -1.2923572 -14.366243
4.8750124 -1.2782899 -13.712166
4.9042025 -0.051928103 -15.963907
4.792154 -0.3072301 -12.888098
4.49655 1.3470836 -18.36761
4.8021703 0.6812507 -16.67682
4.5284257 0.7167722 -12.654107
5.077519 0.41601887 -12.4533
4.0147467 1.9350839 -19.997566
4.5776663 1.7327831 -19.648258
4.53187 1.5181873 -12.808426
4.9101033 1.2979807 -12.458166
4.5687275 2.3683212 -20.369501
4.3830056 2.275756 -13.635085
4.7720523 1.8131948 -12.871106
4.4169474 4.320058 -15.534473
4.644164 3.9234557 -15.103484
4.3724833 5.046453 -20.770218
4.372682 5.601353 -16.04269
4.699167 6.65799 -16.140255
4.6571026 7.1218925 -16.397951
5.180025 7.2149634 -16.185911
4.9869385 9.171986 -23.58384
4.7572684 8.061142 -17.363325
5.225728 8.168179 -16.919947
4.843928 9.829762 -23.999537
4.6180334 9.552876 -23.487516
4.787728 10.476081 -24.087862
4.5379643 10.384973 -23.734312
4.967749 10.900717 -24.126484
4.7700524 11.24385 -23.497694
4.543561 11.338968 -22.732582
4.6792665 11.835982 -17.013693
4.755507 12.760859 -17.118355
4.7973685 13.780765 -21.228691
4.477692 13.426671 -17.60545
4.642938 14.270944 -20.986982
4.7436647 14.836041 -17.732647
5.1589184 14.111905 -17.278463
5.108099 15.173287 -20.858791
4.845755 15.282856 -20.513035
4.545037 15.50372 -18.513208
5.0297894 15.437394 -17.82929
4.9836264 16.016973 -20.050316
4.8963766 16.196182 -19.311584
4.9033046 16.134623 -18.854939
5.187695 15.837085 -17.963415
5.93656 -1.6385443 -14.898147
5.775817 -1.8227382 -14.261311
5.7784786 -1.7204833 -13.700951
5.5687933 -0.7975974 -15.904129
5.699843 -1.37051 -15.284575
5.3244567 -1.5611402 -13.628159
5.5867715 -1.3256767 -13.180874
5.7030864 -0.64567566 -15.880572
5.449604 -0.4620714 -12.69059
5.593332 1.3404353 -18.54378
5.7034736 0.7863587 -17.363708
5.0876875 0.44361818 -12.503466
5.4150624 0.53990877 -12.41083
5.45706 1.7068983 -19.183455
5.5834503 1.1926544 -12.396797
5.497474 2.6276755 -20.058079
5.8500094 2.3879442 -12.976024
5.4870467 4.051287 -20.465273
5.62866 5.699415 -15.854747
5.3966675 6.57308 -15.882517
5.825812 7.8657894 -23.16878
5.349144 7.3151093 -16.026455
5.7494884 8.617258 -23.876549
5.9487185 9.957092 -24.768734
5.6799135 10.479761 -24.717974
5.9586396 10.905449 -24.754711
5.313115 10.952933 -24.371893
5.86131 11.732036 -24.170702
5.744746 12.319124 -22.899437
6.021556 12.664585 -16.37748
5.5666785 15.7046795 -20.809704
5.5069337 15.689043 -17.57188
5.9874816 15.232667 -17.190327
5.5837812 16.388805 -20.10461
5.467356 16.345842 -18.38448
5.793789 16.107943 -17.918755
5.6467686 16.66318 -19.393463
5.882532 16.61509 -18.662012
6.1919956 -1.7756803 -14.464839
6.455604 -1.6518637 -13.485923
6.5542235 -0.21954772 -12.347384
6.7200193 1.217615 -18.330555
6.6746798 2.1107423 -18.854784
6.282157 3.1433542 -19.629526
6.7313557 3.0712056 -19.302685
6.788244 2.6330886 -12.819638
6.776986 1.9092873 -12.404714
5.9614916 3.6219337 -20.0014
6.9244313 2.9990985 -13.123022
6.84595 4.0623546 -15.029021
6.4691296 7.776098 -23.546654
6.4510803 7.6874037 -15.843314
6.401577 8.976711 -24.299496
6.8768673 10.030555 -24.850164
7.208205 9.181723 -15.677784
6.527265 10.561742 -24.886093
6.3039594 10.816313 -15.822854
6.6353664 11.117332 -24.712921
6.5060787 11.574672 -24.460302
6.956936 11.821303 -15.152804
6.483983 11.8312235 -24.121206
6.274411 15.123514 -17.019482
6.7585173 16.276506 -20.994122
6.2884307 16.200436 -17.943584
6.7766614 16.76774 -20.299217
6.6245155 16.859146 -19.56658
6.5330486 16.711718 -18.78138
7.5297146 -0.70152926 -16.035406
6.940754 0.29468015 -17.051453
8.0729885 -0.33529252 -11.507711
7.925432 0.5120135 -11.549375
7.099371 2.1560194 -18.851923
7.681571 2.1442509 -18.550282
7.6898813 1.6970882 -12.054466
7.960313 5.711417 -15.259669
7.0738554 7.025629 -22.17813
7.308682 6.5774693 -15.547872
7.3561335 6.513183 -15.292211
6.980719 8.251844 -23.829252
7.031274 7.5824485 -23.21676
7.211132 7.790282 -15.311267
6.938067 8.560341 -24.075607
7.274317 9.885348 -24.59324
7.255171 10.734978 -24.729414
7.11449 11.364328 -24.407772
8.084719 11.750099 -14.028053
8.1441965 12.357747 -14.049763
7.9508142 13.043156 -22.825264
7.9619427 13.192698 -14.597371
7.4646435 15.577568 -21.532017
7.1661177 15.810703 -21.351934
6.966474 15.352209 -17.293818
7.5542054 16.47667 -21.132608
7.6162395 16.535213 -18.750479
7.1578765 16.385454 -18.130983
7.5970793 16.817701 -20.393642
7.4083705 16.966805 -19.83588
7.1540413 16.838017 -18.974792
9.124053 -2.1757503 -14.534351
8.844011 -2.1472487 -13.471834
8.865649 -1.9071717 -12.613898
8.774943 -1.1371775 -11.685791
8.222372 -0.6334627 -11.5962925
9.068226 -0.47454262 -11.2420845
9.008311 0.30868527 -11.206338
8.537397 1.2266773 -11.701585
8.642533 6.8662243 -14.984125
8.948256 7.9010863 -22.961763
8.613503 9.445141 -23.72273
8.586443 9.663597 -13.862883
9.084841 9.818239 -13.2972975
8.430857 10.861371 -23.69203
8.3928175 10.391315 -13.981327
8.047091 11.162573 -23.919382
8.521195 12.678196 -13.930972
8.773111 12.893 -13.835328
8.85044 13.854602 -14.654718
8.354109 14.8848 -21.430006
8.6056595 15.571947 -17.726864
8.2043915 16.30932 -21.088015
8.59228 16.50373 -19.44025
7.8996396 16.367641 -18.495583
8.239888 16.751589 -20.39378
8.2890415 16.722326 -19.694296
8.20522 16.681236 -19.163847
9.904478 -2.3080854 -15.08306
9.7272625 -0.9569707 -11.140183
9.938499 -0.28279594 -10.880958
9.90828 0.43398535 -10.974695
10.338063 2.0134835 -18.28309
9.905532 1.1185396 -11.501157
9.04823 3.0124626 -15.980551
9.549137 2.636588 -13.353421
10.226923 6.1971107 -22.167501
10.192534 6.5164814 -25.274536
10.158518 6.4656157 -24.8059
9.8187895 6.568026 -15.023327
9.8932705 7.64622 -13.437147
9.783218 8.687567 -12.898906
9.970819 10.355061 -12.638697
9.908967 11.287838 -23.56971
9.881462 13.331037 -23.446012
9.857294 13.468293 -13.596643
10.146859 14.207766 -22.979952
9.514696 14.428455 -16.537785
9.815982 14.331093 -14.766718
9.406694 14.979865 -21.239649
9.510559 15.426108 -18.784199
9.0943575 15.499374 -18.18591
8.999202 16.141966 -20.483807
8.728079 16.4708 -19.516674
8.93269 15.857959 -18.63924
10.633592 -2.721652 -15.027677
10.851295 -2.9734015 -14.506423
10.842789 -2.2474415 -15.613016
11.181233 -2.1593146 -11.50955
10.718801 -1.4130037 -11.121159
10.433889 -0.21281974 -10.811297
10.569829 0.2686765 -10.886109
11.08693 1.9317696 -20.742237
11.032361 1.6452247 -17.46549
10.498806 1.048008 -11.437278
10.657926 0.8144566 -11.105016
10.742916 2.5859876 -20.971405
10.687935 3.9893787 -21.319197
11.325807 5.141223 -26.519342
11.165472 5.1923246 -25.20989
11.077732 4.908695 -21.779879
10.414145 4.9695883 -21.370941
11.348396 5.6011686 -26.788008
11.019593 5.7695656 -26.327602
[...]
POINT_DATA 995
SCALARS features_00 float 1
LOOKUP_TABLE default
0.83013225 0.81429416 0.85560334 0.84829956 0.8143905 0.7884375 0.8902447 0.89665914 0.8541652 0.7041413 0.8894551 0.8925352 0.7961693 0.8451248 0.8356229 0.7877341 0.7767426 0.8083148 0.7978126 0.7674172 0.813133 0.82731307 0.75249696 0.6265354 0.8605263 0.8659649 0.5629927 0.86952984 0.87729096 0.551645 0.49768388 0.847888 0.85574293 0.81535745 0.7014767 0.5329974 0.42489237 0.7347956 0.7497647 0.76326585 0.6911359 0.7682588 0.8135372 0.82966954 0.29634658 0.78410226 0.38044345 0.7580439 0.66765606 0.3814388 0.32728234 0.3584928 0.37468472 0.3344106 0.3591436 0.35274538 0.62794155 0.78024596 0.78030455 0.5767716 0.6756994 0.6440455 0.65164614 0.64636374 0.60969734 0.3862388 0.489673 0.57106423 0.6054299 0.6088859 0.65357476 0.3966921 0.6916758 0.4167666 0.7733935 0.08935984 0.20730138 0.65690583 0.5405917 0.18650487 0.19043732 0.23387352 0.22698599 0.3168964 0.25528562 0.2902328 0.51008075 0.35091716 0.27974385 0.37375757 0.35719728 0.26589856 0.36720905 0.40128297 0.37528688 0.35326537 0.45960498 0.45696723 0.3950598 0.3776225 0.565585 0.51743853 0.4579996 0.4207633 0.5477684 0.52514637 0.624874 0.64277697 0.62950456 0.66907156 0.6974144 0.4806391 0.6877693 0.29727757 0.32782838 0.61137545 0.5845782 0.45463878 0.35036457 0.5732417 0.5548055 0.37397033 0.52126014 0.5288317 0.09238303 0.18871781 0.6604151 0.15093209 0.21531716 0.23182797 0.22354917 0.62645864 0.2431537 0.24651948 0.6274146 0.5648961 0.6221048 0.57832646 0.63041973 0.5715484 0.45474905 0.2989243 0.30864674 0.444355 0.3698931 0.53320885 0.47802773 0.39768428 0.56075644 0.60707223 0.5559466 0.5342511 0.6858216 0.6798892 0.6325981 0.56638277 0.5888382 0.60506535 0.6076641 0.49132562 0.5865024 0.6442952 0.6457991 0.46442014 0.6301478 0.22120805 0.19418018 0.5857857 0.5388881 0.26580825 0.48284113 0.28548378 0.36968446 0.34163392 0.1361298 0.18031491 0.40339917 0.21487188 0.56191736 0.66744405 0.6582237 0.641662 0.64968777 0.6188759 0.52654874 0.22540781 0.589613 0.54839987 0.52237666 0.6880398 0.6073917 0.574615 0.6733093 0.6215879 0.57252306 0.5492614 0.43193105 0.20007192 0.22989693 0.25375092 0.21374778 0.27987534 0.31249714 0.26894593 0.22567433 0.06456326 0.37474972 0.13377583 0.5867026 0.6063803 -0.035512574 0.61745715 0.072166495 0.5994779 0.5899757 0.14837065 0.5593369 0.515667 0.68562543 0.56729937 0.69062734 0.63737535 0.60354716 0.2831731 0.22375211 0.3754365 0.36724055 0.22280611 0.20086282 0.32572505 0.026633907 0.14808053 0.09161116 0.08648406 0.38851303 0.26109433 0.08850959 0.45478648 0.5607883 0.54678845 0.5396167 0.20362519 0.24519831 0.14666468 0.27188298 0.60735863 0.6381264 0.52193904 0.7018838 0.5288328 0.5345874 0.67825836 0.62690926 0.5797298 0.43113905 0.3814112 0.4809792 0.42276222 0.3829463 0.43918216 0.4285869 0.3869068 0.11575151 0.17037871 0.3281289 0.16912672 0.30321223 0.29193664 0.16246538 0.39948416 0.28641707 0.30839047 0.33276948 0.5031127 0.35040468 0.67107487 0.50727797 0.48796576 0.6428175 0.56654644 0.5239768 0.39485702 0.46776435 0.47149283 0.45532733 0.022460734 0.4270376 0.026197305 0.36710146 -0.26485392 0.6022742 0.543331 0.1458404 0.35651207 0.39790207 0.3630392 0.01278995 0.47676837 0.3924971 0.50606 0.22212976 0.46207345 0.40031868 0.30096832 0.31510532 0.55964446 0.49827588 0.3915648 0.37697443 0.37522042 0.3405224 0.6687147 0.6197247 0.49785668 0.48855135 0.05280866 -0.009013262 0.43759692 0.4683122 0.04369524 0.057608914 0.60021275 0.5476334 0.026283368 -0.036797523 0.59611464 0.59884286 0.5527696 0.40906173 0.55588025 0.6051338 0.5481345 0.58173966 0.48112726 0.40850347 0.46734563 0.5129466 0.45108154 -0.11467563 0.11165553 0.3063662 0.45171335 0.37437442 0.53675437 0.4201511 0.55334556 0.5227599 0.39972517 0.12367368 0.48256344 0.19403774 0.5366745 0.36906224 0.4243038 0.50078833 0.59999615 0.67689866 0.69390595 0.724028 0.080881834 0.10753594 0.73496974 0.6460334 0.5074655 0.047280107 0.38532186 0.48528305 0.31451622 0.5717682 0.109306276 0.6024436 0.5997342 0.569157 0.59016454 0.5529717 0.72177255 0.51525533 0.52127355 0.6530163 0.42689574 -0.4830163 0.60016906 0.24218199 0.5359982 0.39806378 0.3828262 0.39651024 0.41686618 0.40627843 0.5751703 0.5782193 0.40185937 0.49221897 0.5791833 0.5527777 0.48129573 0.25238326 -0.008196764 0.5791563 0.52113307 0.53028405 0.570225 0.5677649 0.37315956 0.45240623 0.6104634 0.6608826 0.69878864 0.11156495 0.722335 0.741059 0.08018994 0.76324475 0.041696582 0.74842465 0.077241704 0.04931552 0.61845255 0.5878624 0.58560073 -0.04963101 0.5626992 0.08595669 0.54040825 0.7825343 0.43659753 -0.19035324 0.41672453 0.70562077 0.34627458 0.6562183 0.6284332 0.20283213 0.5495009 0.33917004 0.24487773 0.46702296 0.4896409 0.48946702 0.4703853 0.5892334 0.5491461 0.5798621 0.5731143 0.49656928 0.4122836 0.52278644 0.5776228 0.61246604 0.61233294 0.60580516 0.57361585 0.59246755 0.7357881 0.74355114 0.69104624 0.69580865 0.6897895 0.6093128 0.37403685 0.38327044 0.67211235 0.7010257 0.43087012 0.5956441 0.68333447 0.7189075 0.7459377 0.32157868 0.7318325 0.756654 0.053159628 0.72966206 0.75431037 0.25791392 0.08690424 0.5323869 -0.17137662 0.5316429 0.5239774 0.45081455 0.7241099 0.7409189 0.75933576 0.7299695 0.28600746 0.6945949 0.26896626 0.153142 0.6345002 0.21425632 0.558104 0.14765215 0.55466807 0.5123415 0.5499476 0.51361114 0.31155854 0.29671654 0.53607774 0.5618868 0.5161389 0.54637647 0.50614107 0.32104874 0.5990309 0.64005727 0.6067813 0.59823906 0.6312623 0.6384338 0.6153517 0.7671495 0.7498392 0.7508517 0.7601273 0.7299083 0.6858065 0.6739198 0.7070515 0.5888576 0.52556306 0.23799895 0.28642452 0.5617911 0.65801907 0.70515466 0.3924401 0.3353313 0.64560556 0.09616175 0.37125933 0.08983856 0.3532071 0.08779472 0.19739878 0.3119866 0.42174327 0.10460596 0.12029007 0.50965065 0.4888659 0.4492668 0.34760028 -0.053408887 0.7424419 0.74055475 0.33006358 0.3286647 0.00072582066 0.7266849 0.72739244 0.7115382 0.310684 0.31538618 0.13670418 0.62391263 0.71718514 0.72524273 0.6701334 0.2294353 0.3245517 0.3081177 0.5848937 0.63513404 0.66596025 0.6308726 0.30232763 0.34075886 0.588173 0.65417707 0.6769541 0.630359 0.5904887 0.63285685 0.66037244 0.6209674 0.59870094 0.63017577 0.6470599 0.6375874 0.63071305 0.64602226 0.7694024 0.7626084 0.7366815 0.6670814 0.7515694 0.6673529 0.6226478 0.68655616 0.5566802 0.5712912 0.19798791 0.34082228 0.37536103 0.062163554 0.42539507 0.42844588 0.057442084 0.39023593 0.3973261 0.082895756 0.07369311 0.25840643 0.34257543 0.027389027 0.19623801 0.48238555 0.119648054 0.5181595 0.5196185 0.040518988 0.5437739 0.4902516 0.48050228 0.4039308 0.07460701 0.40608132 0.41181278 0.71636885 0.7029687 0.69555026 0.67299306 0.67955965 0.6616512 0.5872742 0.69309926 0.6829793 0.55022943 0.57259285 0.57480955 0.45384145 0.4814734 0.42197853 -7.9870224e-05 0.12312299 0.19003816 0.1392456 0.49021813 0.53375804 0.5467384 0.5358989 0.123122245 0.4812081 0.28695884 0.50319946 0.4891043 0.4825145 0.45712793 0.50606835 0.50004464 0.5313141 0.4996441 0.4812187 0.4982468 0.45881522 0.5456279 0.45774403 0.37743574 0.05017495 0.23085183 0.036958866 0.002322778 0.0073272884 0.5171676 0.53297824 0.17935336 0.5359369 0.19000109 0.15754592 0.5534595 0.33543462 0.538185 0.53368247 0.53764915 0.4151485 0.5290759 0.49907178 0.43775278 0.4364761 0.43768206 0.43405896 0.4379303 0.43654513 0.42229593 0.344309 0.3576246 0.2915008 0.15383923 0.13066866 0.087219924 0.50844705 0.4788409 0.5282501 0.517537 0.38472748 0.54059756 0.48137772 0.24789003 0.5731216 0.56186604 0.5266579 0.54859036 0.54201037 0.4265098 0.43210214 0.37187207 0.2607521 0.083007246 0.5013868 0.037516683 0.498352 0.38249493 0.47466367 0.3246379 0.33096862 0.34160176 0.40775615 0.1538423 0.09762125 0.13521504 -0.045734048 0.5508996 0.67270803 0.0505206 0.16708815 0.08821112 -0.103805974 0.017417073 0.5851043 0.3348187 0.62856674 0.50239015 0.81759894 0.73158884 0.81778467 0.51694244 0.3955829 0.31150177 0.22733915 0.03362703 0.52596164 0.08668687 0.6237091 0.62466586 0.50904816 0.19234358 0.21577299 0.4003954 0.36675423 0.48157597 0.6316148 0.4104564 0.4738958 0.7059858 0.79786104 0.8553704 0.77182275 0.5024278 0.5832646 0.5702143 0.5398565 0.2327903 0.5860139 0.23947854 0.16201918 0.68240297 0.07076271 0.7137701 0.680503 0.6586568 0.1135868 0.6600499 0.24126568 0.50132835 0.2760022 0.2839502 0.63291556 0.62751627 0.42533928 0.4634742 0.6846583 0.54712474 0.6784126 0.7702849 0.7513534 0.7563101 0.85414934 0.82684684 0.5775462 0.55795515 0.50451314 0.43354076 0.63257486 0.6131923 0.58898044 0.644847 0.61994976 0.24605034 0.69819546 0.7686652 0.0859429 0.72687936 0.69259197 0.1340039 0.6934182 0.6468911 0.1448225 0.2514518 0.4136872 0.18905535 0.5529138 0.6550764 0.38537908 0.7334217 0.60942817 0.6940968 0.7999164 0.7584715 0.7886373 0.6107516 0.6041069 0.48694575 0.6262016 0.61812097 0.14556229 0.66895854 0.70963174 0.73896646 0.073364854 0.75261974 0.70865047 0.60744154 0.51275545 0.23654532 0.57577443 0.29405215 0.6629666 0.7583437 0.56118023 0.67264616 0.7428069 0.8120699 0.8067008 0.7550149 0.808825 0.59059584 0.6196357 0.6002828 0.5051308 0.39911038 0.3359967 0.21195567 0.1531257 0.64410794 0.700336 0.689795 0.5113956 0.6709758 0.64264464 0.62659967 0.54943883 0.20438746 0.26731652 0.6339349 0.3974173 0.7461221 0.6456479 0.7909753 0.7935641 0.7069249 0.74513894 0.8014613 0.5913048 0.55226517 0.26173297 0.2233612 0.6035594 0.50085944 0.36262408 0.62524146 0.6248018 0.68011004 0.65105486 0.54245484 0.6030754 0.6809658 0.62227345 0.54958653 0.6224563 0.6674161 0.6125875 0.61721385 0.5978957 0.5667091 0.30078316 0.29564285 0.2814972 0.37845135 0.5859475 0.27076954 0.55975145 0.6394626 0.69107676 0.6795428 0.7309873 0.7456042 0.35370415 0.35815656 0.3227417 0.36528057 0.45092702 0.6317947 0.6545934 0.6449724 0.65521586 0.5738104 0.65303767 0.6496223 0.588169 0.38165885 0.45695323 0.34308845 0.16780469 0.54976135 0.55731595 0.448435 0.40811065 0.42040163 0.44962195 0.5594661 0.63540983 0.65686107 0.6607897 0.6594023 0.66466796 0.66654146 0.6019279 0.6458118 0.6470833 0.5647913 0.5327772 0.45191127 0.58381236 0.5452583 0.5539429 0.5278082 0.5177399 0.43538347 0.49843302 0.52725726 0.53105706 0.5635668 0.6174359 0.60526603 0.573769 0.6435645 0.64906067 0.6826547 0.60450816 0.64422786 0.6353171 0.6447519 0.54823565 0.61306596 0.61601686 0.62020606 0.5124291 0.5035828 0.57617235 0.5945775 0.59961265 0.6167456 0.57013035 0.6173037 0.58453524 0.5074073 0.5000475 0.6997559 0.5808037 0.51127464 0.4706919 0.67221946 0.7195101 0.679561 0.6046414 0.4984542 0.4739794 0.65132374 0.65826297 0.6571793 0.60925144 0.5387444 0.6387801
SCALARS features_01 float 1
LOOKUP_TABLE default