# vtk DataFile Version 2.0
Really cool data
ASCII
DATASET POLYDATA
POINTS 8432 float
-4.733283 4.7253375 -15.1602745
-4.969235 4.990731 -14.5854845
-4.76263 4.912964 -13.682848
-4.921792 5.5190606 -15.115318
-5.0789576 5.6149263 -14.564013
-4.924538 5.502059 -13.689734
-4.7736473 5.5412354 -13.24329
-4.827895 6.176363 -15.130632
-4.93306 6.2675877 -14.436581
-4.8894835 6.1520042 -13.795522
-4.6424932 5.9356055 -13.262514
-4.7154264 6.7279954 -14.597492
-3.9022703 3.2000957 -14.969272
-3.8214314 3.1002166 -14.810876
-3.8521497 3.2001867 -14.073622
-3.865667 3.9052122 -15.823523
-4.212309 3.7548265 -15.223979
-4.3635774 3.8443508 -14.46209
-4.1203756 3.8215597 -13.884952
-3.8108177 4.493631 -16.050623
-4.4017053 4.5782623 -15.542963
-4.502644 4.761906 -13.378729
-4.042894 4.731244 -12.873358
-4.3537364 5.671525 -15.808872
-4.614916 5.7080207 -15.546926
-4.312811 5.5343 -12.84541
-4.2729783 6.2296767 -12.980403
-4.184243 7.1132693 -15.087625
-4.271868 7.1376634 -14.615883
-4.395933 6.8773456 -13.746881
-3.1983564 3.3046901 -15.837884
-3.2853358 2.9785695 -15.259417
-3.4278255 2.8664246 -14.608036
-3.305277 3.0961285 -13.804322
-3.1665075 3.7714756 -16.176157
-3.475903 3.858919 -13.050851
-3.184539 4.5357466 -16.557297
-3.1682308 4.3763566 -16.474785
-3.3722553 4.7480392 -12.557539
-2.9119234 4.726028 -12.350206
-3.1725423 5.4194727 -16.420252
-3.6844661 5.197563 -12.523281
-3.366862 5.1111217 -12.390903
-3.7307413 6.0254817 -12.555855
-2.7875254 7.4884534 -15.860441
-3.3604465 7.53204 -13.616331
-2.6067314 8.452886 -16.950623
-3.2899675 8.009841 -15.344769
-3.1577644 8.50598 -13.869939
-2.657152 8.999872 -16.924091
-2.6497903 9.496893 -16.30821
-3.175697 9.18013 -15.110407
-2.9985776 9.308863 -14.3672085
-2.8309247 9.446866 -14.123784
-2.598469 9.751992 -15.536224
-2.7434435 9.865596 -14.891182
-1.5771422 -4.7975373 12.491096
-1.6923193 -3.8449101 10.779777
-1.6630437 -4.223608 11.685184
-1.6996443 -4.3767123 12.617272
-1.5815487 -4.370927 13.034704
-1.6040789 -3.3673904 10.15287
-1.6959121 -3.3523328 10.443537
-1.77309 -3.267311 11.182457
-1.7015865 -3.7144005 12.518496
-1.5981807 -3.7774842 13.002402
-1.6991339 -2.8531423 10.494242
-1.6605618 -2.7053127 11.097026
-1.6002959 -2.961241 11.897318
-2.5601642 3.1821444 -15.803828
-2.696346 2.9224935 -15.466965
-2.4720705 2.6127028 -14.426122
-2.6404822 2.911996 -13.704948
-2.222661 3.1892219 -12.90996
-2.680235 4.1692953 -16.596899
-2.5847533 3.6391983 -16.241884
-2.5628333 4.5550365 -16.638872
-2.5441449 4.3447595 -12.452644
-2.228435 4.587602 -12.20527
-2.223306 5.285471 -16.652687
-2.686166 5.5161886 -12.325467
-2.9218922 6.093864 -12.485785
-2.3782024 7.34685 -16.355818
-1.9649942 8.700676 -17.741879
-2.2959487 8.648221 -17.407974
-2.500444 8.868885 -13.5659485
-1.9976174 9.169297 -17.681847
-2.2015042 9.397391 -17.341827
-2.486163 9.094467 -13.518754
-1.9984037 9.828971 -17.258184
-2.3146474 10.1158285 -16.162252
-2.2324429 10.349584 -15.450713
-2.376761 10.183299 -14.287266
-1.8984802 10.760577 -15.42429
-1.8137726 10.950947 -14.654477
-1.5347328 15.839948 -11.450449
-1.5710069 16.138983 -11.793716
-0.9792203 -4.9310584 10.752163
-1.1397831 -5.139998 11.717855
-1.1886917 -5.143402 12.5424795
-1.0280486 -5.064896 13.197193
-0.80544007 -4.788492 13.674327
-1.1373463 -4.073986 9.901123
-1.4168361 -4.127635 10.482158
-1.4930565 -4.4009347 11.321645
-1.4085405 -4.45693 13.235663
-1.0900308 -4.2461863 13.707808
-0.90992606 -3.2822716 9.376729
-1.3365004 -3.394656 9.827324
-1.549278 -3.6689954 10.225614
-1.4646772 -3.2508745 12.842346
-1.3175503 -3.6372066 13.317515
-0.98939425 -3.7205455 13.74331
-1.2269104 -2.7307794 9.753332
-1.4921057 -2.404562 10.590824
-1.3673166 -2.3755565 11.158127
-1.332684 -2.9059765 12.484391
-1.0086467 -2.8481164 13.115746
-1.1311901 -2.1478362 10.145467
-1.2970682 -2.1525831 10.676552
-1.2942876 -2.1956477 11.302804
-0.5305233 0.7090706 10.747976
-1.5118726 2.477498 -14.244014
-1.7029859 3.256337 -15.825641
-1.512019 2.831204 -15.228532
-1.3590617 2.5357285 -14.424753
-1.6694667 2.6426704 -13.634959
-1.6767229 3.0113587 -13.033425
-1.670867 4.110071 -16.33587
-1.2361001 3.3456655 -12.503373
-1.4925795 3.778544 -12.290858
-1.6343731 4.6142483 -16.483183
-1.5230877 4.3674994 -12.068069
-1.1004293 5.9024606 -16.295969
-1.0855013 5.462834 -12.191114
-0.8061619 7.0903893 8.61618
-0.8602989 7.0297546 9.512993
-0.6853981 7.0180817 10.478797
-1.3475021 8.07174 -17.634602
-1.7168952 8.119469 -17.593401
-0.8712646 7.7229977 8.1402235
-1.0930884 7.6107593 8.667737
-1.0982085 7.605028 9.432231
-0.81942534 7.510227 10.482963
-0.6794356 7.63056 10.902852
-1.4749552 8.642187 -17.861357
-1.3521656 8.752208 -12.79565
-0.77055764 8.422395 8.174311
-1.0158299 8.302802 8.646045
-0.98319924 8.419037 9.375824
-0.80662537 8.249016 10.276831
-1.3227062 9.342077 -17.852707
-1.3364471 9.368009 -12.699846
-0.7527405 8.780076 8.627009
-0.7174568 8.860238 9.406793
-1.2515407 9.930473 -17.678202
-1.2044349 10.195244 -17.358662
-1.7245283 10.480028 -16.725492
-1.0524464 10.192978 -12.662873
-1.209783 10.69135 -16.723284
-1.2443184 11.031142 -15.733414
-1.3593795 11.419747 -14.357955
-1.3156949 11.246556 -13.769568
-1.3004307 15.073947 -12.033057
-1.0846397 14.830148 -11.667508
-1.0283388 15.024352 -10.736635
-1.2490009 15.7314415 -12.849868
-1.3869087 15.646019 -12.336454
-1.4193552 15.401545 -11.559613
-1.2913508 15.733663 -10.755408
-0.8708153 15.676438 -10.144338
-0.61346793 16.512144 -14.383684
-1.0905747 16.24402 -13.184552
-1.3772674 16.39565 -12.310649
-1.3030977 16.770853 -11.38718
-1.28837 16.37658 -10.630541
-0.8542994 16.450237 -9.958362
-0.65594804 17.028917 -14.169344
-0.8156058 17.198578 -13.355434
-1.0351285 17.24408 -12.418403
-1.3460226 16.874016 -11.147325
-0.9253342 17.444344 -10.418249
-0.8385888 17.328447 -10.047406
-0.82369924 17.989145 -11.234018
-0.690867 18.08996 -10.409989
-0.6744267 17.932238 -9.959342
-0.12557939 -5.729311 10.87967
-0.043939292 -5.886855 11.699059
-0.2625486 -5.699931 12.335733
-0.14915976 -4.989639 9.818982
-0.40222895 -5.35305 10.488845
-0.40479085 -5.517814 11.713619
-0.5377439 -5.239797 13.426282
-0.39406765 -4.976576 13.826972
-0.16480294 -4.0868807 9.2790785
-0.15223187 -4.7548857 9.572554
-0.36602634 -4.350089 14.032227
-0.6539675 -3.5882113 9.363329
-0.33688474 -3.7445621 14.12244
-0.5200591 -2.8548555 9.274127
-0.5608466 -2.7636805 13.584183
-0.28305298 -2.9597387 13.8631115
-0.42335212 -1.9852556 9.659909
-0.5570563 -2.314428 12.628391
-0.3450506 -0.0055397153 10.432614
0.29724455 -0.46602112 11.841731
-0.13574821 0.55744267 9.898943
-0.44210684 0.6690764 10.310384
-0.38138875 0.7186593 11.343178
-0.13807568 0.81294996 11.740189
-0.078386396 1.2339244 9.96808
-0.22697428 1.4796007 10.480994
-0.20896143 1.4236549 11.299109
0.06965262 1.2991432 11.9236
-0.8644318 2.6445038 -14.863432
-0.53764147 2.6452942 -14.561002
-0.6333247 2.699411 -13.701716
-0.36107334 3.0846994 -13.156906
0.13634336 1.6988896 10.113226
0.23298939 1.9664266 10.466045
-0.24337547 3.684165 -15.733571
-0.60373706 3.4811792 -15.489691
-0.17169794 3.5922682 -12.513489
-0.52958727 4.536163 -16.261246
-0.45544055 5.8401866 -16.460468
-0.09772852 5.2325664 -11.724873
-0.103537545 6.377272 9.997285
0.103017494 6.3049564 10.48262
-0.40726256 6.468955 -12.071144
-0.14259154 7.044154 8.030066
-0.46970344 6.831678 8.563003
-0.58628464 6.7177486 9.156496
-0.50583416 6.7740593 10.570237
-0.2985442 6.900082 11.110701
-0.768457 7.680337 -16.974625
-0.59919155 7.9596996 -12.52508
-0.10168037 7.723859 -11.951816
0.40456 8.229555 -0.45832786
-0.4851067 7.647235 7.8674417
-0.3617116 7.472754 11.252761
0.06993445 7.6001153 11.645214
-0.78617644 8.713046 -17.824484
-0.15703332 8.434941 -12.146056
0.4129809 8.717773 -0.7950023
0.31727925 8.687309 -0.3638006
0.41449416 8.515791 0.2558526
-0.4741838 8.347339 7.919049
-0.4829737 8.530692 10.650156
-0.16903529 8.211495 11.25499
0.1516485 8.003523 11.597279
-0.4779187 9.391834 -17.803349
-0.6553315 9.443663 -12.341898
0.33143288 9.277012 -0.4554233
0.364162 9.398788 0.24977943
-0.27615148 8.837776 8.089762
-0.25991207 9.179798 8.6332035
-0.3595375 9.189185 9.473249
-0.23242912 9.064821 10.25223
-0.022809818 8.875294 10.8523445
-0.48186672 9.90717 -17.704685
-0.68785435 10.375431 -17.323374
0.38856375 9.801449 -0.05719778
0.217543 9.714597 9.16578
-0.25090262 10.988088 -16.525476
-0.7980305 11.3621235 -15.606824
-0.294681 11.219647 -12.650617
-0.082057126 11.681782 -15.300171
0.106829464 12.600699 -10.4199095
0.23167469 12.800017 -9.780451
-0.46868247 14.129106 -10.944149
0.1757355 13.387284 -9.681538
0.26581147 13.904751 -9.158971
-0.53743976 15.079104 -13.597017
-0.54266757 14.786434 -10.458141
0.12434849 14.485973 -9.6168165
-0.68024015 15.353012 -10.145189
-0.28336775 16.554514 -14.953002
-0.48507506 16.472244 -14.641338
-0.6331283 16.430607 -9.754931
-0.1322976 16.38763 -9.199679
0.023313344 17.209688 -15.074876
-0.38284394 17.245268 -14.453149
-0.39793617 17.588175 -13.739431
-0.5396465 17.40438 -9.549421
-0.15720722 17.520065 -9.195757
0.011014998 18.395721 -13.146906
-0.07662484 18.532515 -12.5533
-0.4815396 18.452978 -11.265416
-0.46332538 18.486137 -10.539176
-0.21159947 18.319828 -9.721718
0.09902078 18.141932 -9.25317
0.0638686 18.714298 -12.272088
-0.022249818 18.893982 -11.375155
-0.03410527 18.893356 -10.495859
0.12385018 18.909246 -10.023978
0.75116426 -5.7482777 10.067435
0.7458249 -6.050057 11.049568
0.3378318 -5.8659277 12.816375
0.40643454 -5.730663 13.232521
0.23744057 -5.0741763 9.571399
0.47284153 -5.28547 13.8792925
0.6623164 -4.5097494 9.133763
0.73173195 -4.71244 14.170775
0.6139574 -3.4557092 8.851066
0.36708033 -3.787647 14.2077465
0.670948 -2.8156013 8.855145
0.2685498 -3.0342183 14.124237
1.154162 -1.6805694 13.395026
0.8192361 -0.097331226 9.427201
1.0608633 -0.84732866 12.687076
0.9824697 0.7524283 9.099574
0.6689861 0.35488778 12.5040245
1.1739581 0.4468868 12.844787
0.95660543 1.1113051 9.134351
0.49005955 1.4377023 9.559644
0.51076734 1.6619152 12.085766
0.27234256 3.2560232 -15.053255
[...]
POINT_DATA 8432
SCALARS features_00 float 1
LOOKUP_TABLE default
0.76537067 0.7826249 0.7465002 0.74737185 0.7597993 0.7422426 0.7036103 0.70179635 0.72659624 0.7277047 0.69680625 0.6766846 0.7430713 0.7431613 0.733419 0.6879958 0.74449486 0.77464503 0.7536082 0.6585014 0.7300354 0.7053999 0.6153748 0.6592271 0.69634426 0.6372891 0.64831305 0.56746864 0.59086096 0.6432383 0.6701596 0.7144147 0.7293732 0.7099309 0.6332037 0.62901056 0.58322173 0.5949241 0.51545477 0.45683354 0.5112133 0.5510804 0.5055369 0.56107426 0.52220213 0.44327575 0.6139051 0.48573726 0.37984717 0.6404062 0.5933925 0.44715163 0.42279005 0.4105744 0.49015558 0.44830215 0.7036944 0.64915466 0.6748953 0.6979188 0.69767046 0.646692 0.65016687 0.63911676 0.6667526 0.6724969 0.63867784 0.62052226 0.62223756 0.6399277 0.67936695 0.697972 0.686048 0.6083204 0.5668558 0.5960876 0.5316458 0.45997542 0.41348106 0.4257527 0.39425775 0.42486578 0.50017625 0.68493783 0.6617243 0.32136518 0.6997163 0.6967908 0.3363914 0.6990754 0.5706842 0.47777006 0.41833222 0.47796822 0.4322436 0.51136863 0.5143485 0.5905057 0.65590143 0.69450164 0.69175076 0.67948604 0.5857669 0.62558216 0.6581038 0.6960412 0.67471373 0.57426286 0.62728924 0.6419432 0.6361842 0.6592598 0.65076673 0.6277274 0.6140543 0.581398 0.6042185 0.5874766 0.5922221 0.58045757 0.5458073 0.6211409 0.63109034 0.57366866 0.6043885 0.6166302 0.62299097 0.5927913 0.5023178 0.54040045 0.50029874 0.454118 0.41602105 0.25425294 0.22402123 0.8738414 0.84543264 0.79607284 0.62049735 0.63549125 0.8952304 0.915058 0.91739786 0.82282376 0.7757591 0.67783517 0.17195398 0.8378499 0.8754109 0.87843615 0.82455814 0.6860516 0.1732432 0.79898226 0.7993963 0.6805557 0.6666687 0.63056326 0.20433576 0.6048877 0.5044474 0.44386193 0.4629478 0.4890349 0.465663 0.4215153 0.47068053 0.49821997 0.50167936 0.48370263 0.41847926 0.4718616 0.45379108 0.49398363 0.5264138 0.50552404 0.4656469 0.49205184 0.47563803 0.5017713 0.52840006 0.53431857 0.51776725 0.5603944 0.5668514 0.546953 0.49337423 0.51130354 0.5965055 0.41680452 0.50797653 0.5860748 0.6709112 0.66297513 0.4130975 0.40056634 0.64715475 0.52561104 0.6156478 0.53729224 0.53908825 0.525657 0.5003381 0.45222625 0.5572002 0.2687892 0.5568212 0.6112867 0.56930286 0.46481603 0.5630984 0.6003259 0.57547283 0.40794235 0.5500751 0.525492 0.5476364 0.5211131 0.5412576 0.542719 0.45070896 0.48576832 0.5000828 0.3961071 0.22090971 0.18113963 0.7095787 0.7030167 0.052681804 0.76296836 0.80068314 0.7890425 0.7711325 0.733571 0.4253549 0.065753594 0.004854937 0.7004609 0.84883535 0.7269178 0.64609736 0.62718546 0.016232127 0.7202939 0.71651495 0.70636505 0.8099528 0.73251784 0.67608464 0.63091844 0.6072793 0.07276927 0.74078655 0.7348724 0.75106895 0.7336954 0.7425612 0.7099474 0.64858073 0.6077305 0.6127372 0.75066674 0.688262 0.5215577 0.48393852 0.13626657 0.40990806 0.20157808 0.21604148 0.2761997 0.20284517 0.18769538 0.41986763 0.32563114 0.18093558 0.37046462 0.5428314 0.49603677 0.4389519 0.3510832 0.5894389 0.5335504 0.51718706 0.49529767 0.47174764 0.5049785 0.5055027 0.5760906 0.58796895 0.5595294 0.52519906 0.5151292 0.5798335 0.60670376 0.6035477 0.30387402 0.37272245 0.5125301 0.5383476 0.32639727 0.579648 0.2552097 0.55789965 0.2896653 0.5349273 0.26467913 0.42461395 -0.051591426 0.33686814 -0.0062347874 0.3562377 0.18539652 0.10494901 0.3804134 0.47576123 0.32561675 0.41759744 0.42007452 0.4961146 0.44168526 0.44602588 0.47704595 0.32656282 0.15436038 0.4251161 0.39209816 0.48120016 0.26825565 0.16589394 0.34403735 0.22242928 0.24143507 0.08116719 0.4206046 0.45065632 0.66900396 0.12705159 0.007232204 0.67471075 0.6539937 -0.014198052 0.68807375 0.6864196 0.689048 0.70047534 0.5806839 0.5065398 0.40785784 0.7193324 0.7056139 0.7024807 0.7186942 0.5561392 0.67631733 0.6004168 0.6041338 0.5274719 0.4274438 0.7786442 0.7305886 0.7103318 0.661591 0.66289294 0.63283473 0.56898063 0.55230904 0.48915154 -0.078492425 0.010723203 0.8323959 0.7566152 0.70089126 0.6563105 0.65932894 0.65608937 0.6160881 0.43403792 -0.037514426 0.13524392 0.11957628 0.13371667 0.5845842 0.6399424 0.64731383 0.67849255 0.09707822 0.17165725 0.12351392 0.53567076 0.6414539 0.64424014 0.5914043 0.20626564 0.20952615 0.6157063 0.62583053 0.6005597 0.53479546 0.21011806 0.5210137 0.50834244 0.44628918 0.46219575 0.51306045 0.14892456 0.18345208 0.20798717 0.53681487 0.5731319 0.18143481 0.23184882 0.2606474 0.57709926 0.60096824 0.33366108 0.20197074 0.2561169 0.28048444 0.5842631 0.5556966 0.57069516 0.55613446 0.52050805 0.48524517 0.48763353 0.5810096 0.6287668 0.6205478 0.4579484 0.4240356 0.34015802 0.2050423 0.11391855 0.17799969 0.09017238 0.16761085 0.17755921 0.14760482 0.33176574 0.1792391 -0.054852925 0.60617924 0.6142468 0.3185021 0.26151302 -0.05300737 0.5867062 0.5755771 0.5545667 0.30266178 0.24096742 -0.08084118 -0.05637783 -0.011350937 0.53530174 0.58106816 0.5261089 0.513544 0.041536417 -0.008233694 0.60110563 0.559014 0.49354893 0.20014057 0.051847503 0.57551825 0.49037188 0.45753545 0.2934217 0.12444706 0.10491803 0.17286538 0.29233986 0.31759655 0.4122883 0.3147465 0.31627712 0.37076885 0.12091483 0.1317561 0.29271775 0.23611951 0.16458665 0.19995153 0.2869466 0.4095204 -0.03890565 -0.011917889 0.07714856 0.18162529 0.25102326 0.38487625 0.10553841 0.08633105 0.03322628 0.2150384 0.347849 0.08858052 -0.067161955 0.6060163 0.630787 0.6212659 0.6478468 0.5677498 0.35614794 0.39117298 -0.058633644 0.63501656 0.66299707 0.6089755 0.4110509 0.4724978 0.17163137 -0.10574955 0.58640826 0.60420376 0.43175977 0.4994115 0.2487609 0.6284193 0.5298138 0.5229687 0.5122346 0.35978943 -0.23726402 0.33330142 0.4443252 0.57946527 0.5717773 0.5886363 0.5703995 0.53413415 0.3116553 0.29510543 -0.0002634446 -0.03780207 0.28320897 0.36012393 0.5356533 0.4794777 0.4688816 0.14366063 0.043850034 0.10835415 0.4526487 0.28586763 0.29407084 0.35513848 0.3259544 0.27669528 0.39384472 0.2921611 0.28894737 0.27217582 0.46878287 0.3049953 0.30978772 0.5188143 0.2694828 0.29259676 0.31598198 0.3034412 0.34737334 0.50528216 0.5471497 0.5276457 0.5662024 0.41925386 0.3454175 0.36527443 0.37936503 0.5147997 0.46676522 0.48380598 0.583091 0.63759077 0.62855273 0.56706834 0.58121276 0.60519785 0.45557332 0.5006736 0.5289768 0.54707 0.4931702 0.32819602 0.39004523 0.26996017 0.13385244 0.18108955 0.14228569 0.03199867 0.07302273 0.20428935 0.025308121 0.26306146 0.20056516 0.07970131 0.53709245 0.6349357 0.6933849 0.73272586 0.35084355 0.34431785 0.06427091 0.42843848 0.5659401 0.62660325 0.63626456 0.66074365 0.6833851 0.35794193 0.3537094 0.37765247 0.48364165 0.57812166 0.57736814 0.5803815 0.6539986 0.2969969 0.2502365 0.0011586174 0.40975893 0.5228045 0.5179105 0.4867198 0.48342305 0.18745099 0.14810246 0.012880709 0.0024951026 0.43117714 0.45177886 0.43729597 0.4445331 0.014336448 0.32940653 0.2335248 0.2800971 0.41204756 0.39541152 0.13941681 0.32818833 0.15055926 0.16872466 0.17931032 0.20612171 0.36871406 0.36716354 0.36342221 0.1725044 0.40339494 0.54645336 0.27383694 0.37389395 0.2734803 0.3154561 -0.097159274 0.51098686 0.5807544 0.16464767 0.06259346 -0.043980747 0.5557491 0.6306578 0.12376937 -0.16049862 0.4681469 0.49989903 0.080240965 0.34070203 0.4535738 0.614756 0.6345828 0.08632873 -0.07874043 0.5190573 0.53193676 0.54123336 0.48812157 0.28419688 0.22426148 0.28302157 0.41231054 0.50506115 0.56138086 0.098314926 -0.029744731 0.49315667 0.51376605 0.4666061 0.2888485 0.13068075 0.07821034 -0.083233446 0.38967422 0.3721458 0.3022385 0.080411464 -0.15041502 -0.1613206 0.18230139 0.2869562 0.24458905 0.34591177 0.43300748 0.36535627 -0.2606379 -0.24166016 0.22978452 0.19897452 0.36598188 0.2993787 0.45899114 0.4559806 0.523169 0.49985367 0.45717496 -0.064022474 -0.24552603 -0.28731215 0.11051072 0.012489151 0.022517797 -0.15403736 -0.26809037 -0.09758719 -0.12584037 0.29728356 -0.013138168 0.28923494 0.22249413 0.36987728 0.25336406 0.44294262 0.32248974 0.288922 0.46376774 0.38575226 0.3845569 0.36061728 0.4607552 0.4896322 0.44769156 0.5599338 0.32807675 0.4154526 0.43694323 0.44437608 0.4175248 0.3858556 0.49965024 0.48165417 0.62185353 0.46025258 0.4641506 0.592066 0.6275951 0.64291024 0.511361 0.54517674 0.61174774 0.6258702 0.5783972 0.41447765 0.4445395 0.44662037 0.3493935 0.34160244 0.32312316 0.29954767 0.2548492 0.24522051 0.65207857 0.65925896 0.69614816 0.76161915 0.30480182 0.30883846 0.186368 0.5044151 0.68824667 0.7511612 0.42499992 0.53461015 0.6118225 0.722364 0.76957035 0.8158583 0.32832235 0.18424113 0.66489345 0.73076046 0.37357038 0.7740816 0.337432 0.15492904 0.46334866 0.6286363 0.30931413 0.5560323 0.6317081 0.3250345 0.28800875 0.27313805 0.54001117 0.5663078 0.23462605 0.20638596 0.41373074 0.13500276 0.0047661215 0.25667408 0.1806781 0.1867784 0.3869229 0.35975957 -0.17640689 0.57008916 0.2977484 0.20496292 0.32950467 0.3223577 -0.09453429 0.5889798 0.29855108 0.3208873 0.2580509 0.24563308 0.29276627 0.6299398 0.6424166 0.26735184 0.1568559 -0.102419026 0.65427375 0.65995455 0.16319637 -0.00061419606 0.36473727 0.37778217 0.35267964 0.29450846 0.049293116 -0.11425329 -0.09474161 0.63537097 0.6624204 0.090744495 0.054044753 -0.024226226 0.42825055 0.40994048 0.3619069 0.51398265 0.60095 0.6460602 0.06569496 0.021519765 -0.022046708 -0.012399525 0.34585625 0.275346 0.24061413 0.108835295 0.5109133 0.55360496 0.014751524 -0.072457746 -0.0012644269 -0.046364777 0.3142646 0.28533903 0.24947895 0.006067327 -0.15074179 -0.22328314 0.21209164 0.26171067 0.2912393 0.34213743 0.32541046 0.088856876 -0.24153079 0.051704776 -0.0001058355 -0.26955318 0.11490657 0.36008888 0.41810042 0.47863913 0.19129416 -0.23604321 -0.27983353 0.117628 0.08589959 0.39801088 0.42839277 -0.047218647 0.061642725 0.19826947 0.2644387 0.060039952 0.18656306 0.26646203 0.3419671 0.2966931 0.09678498 0.19665754 0.2798615 0.31705248 0.201329 0.14612584 0.29203853 0.2931003 0.33129442 0.3535229 0.31629443 0.37989324 0.45587942 0.4261282 0.31324607 0.4000206 0.4204256 0.36877108 0.46696573 0.47890586 0.46977586 0.42507175 0.7970824 0.84631854 0.9020178 0.87226 0.8458396 0.91452 0.92293423 0.89556843 0.89574325 0.900543 0.5561377 0.62770396 0.6391765 0.359902 0.46577173 0.56034136 0.37158173 0.32923362 0.33520153 0.298929 0.20811845 0.12252091 0.24135718 0.10375477 -0.0053007854 -0.029628506 -0.05825761 0.40379184 0.58522815 0.2013082 0.17539763 -0.059425816 0.19615015 0.6626808 0.72965944 0.6026275 0.716295 0.78361136 0.8152715 0.26268446 0.7851138 0.34633663 0.47101307 0.847077 0.24666333 0.7490505 0.20302385 0.3321862 0.83243346 0.786603 0.28029078 0.6659413 0.6804391 0.2526455 0.23089802 0.6711147 0.7051288 0.21597573 0.4032973 0.25155985 0.581064 0.21535367 0.23202483 0.3405267 0.43221456 0.13480994 0.17169859 0.2812854 0.26866698 -0.08485539 0.49058574 0.2586274 0.25251314 0.12708485 -0.076822385 0.5791487 0.30087703 0.22421952 0.2666515 0.27504626 0.2274002 -0.19080561 0.6383703 0.6419122 0.26087907 0.10922917 0.1941632 0.16423227 0.19719139 -0.051973674 0.6752329 0.66752684 0.18043552 -0.14808983 -0.10014957 0.27723858 0.27334365 0.25235 0.23584586 0.1209338 0.061045386 -0.024773173 0.6814498 -0.11889404 0.18110913 -0.06301315 -0.07683118 0.58933634 0.6423975 0.6581007 -0.036112975 0.13495643 -0.06614746 -0.21775568 0.049335778 0.3842112 0.4772661 0.57076705 -0.06479381 -0.03555163 -0.15731461 -0.2057422 0.066658266 0.05480221 0.15187499 0.11163139 0.019014407 -0.22669014 -0.30967823 0.06889007 0.33356667 0.079491735 -0.21696408 -0.22063346 -0.31229693 0.28861776 0.30212182 0.3544137 0.3829536 0.2546676 0.24625427 0.2667706 0.36073563 0.43013635 0.29166996 0.33091426 0.34439057 0.3019676 0.3143485 0.4109928 0.42784 0.3061461 0.24366158 0.34403938 0.46807256 0.5568778 0.3246302 -0.104395285 0.04180961 0.22504543 0.4046117 0.49214625 0.27540022 0.11234726 0.26585436 0.23204231 0.23367587 0.21189557 0.18635988 -0.03935878 0.38343984 0.42023057 0.31016347 0.29825222 0.279109 0.4326995 0.42249614 0.3449407 0.77330935 0.7778888 0.6824223 0.7287792 0.8089566 0.7956038 0.7870634 0.71566945 0.7584954 0.83151877 0.7869216 0.7173623 0.7789206 0.84235495 0.79972374 0.72396183 0.7460098 0.8477516 0.8489653 0.8586496 0.76403177 0.8045529 0.81581306 0.5026024 0.56266963 0.56379926 0.2924068 0.33131647 0.47171143 0.26718184 0.27103183 0.20364965 0.20966226 0.03911022 0.025941603 -0.0143892225 -0.019835535 -0.06653703 0.0049414337 0.4154833 0.5781145 0.63522714 0.6977737 0.6478367 0.7018612 0.09322176 0.7459549 0.70945483 0.48073652 0.796721 0.13477558 0.696066 0.68933994 0.18185405 0.7265352 0.7558605 0.1056492 0.65285826 0.21577457 0.60441256 0.6972853 0.05573975 0.4568803 0.49310198 0.2911496 0.5682483 0.036543697 0.047785766 0.35478616 0.19834346 0.25309855 0.40404135 0.06964464 0.105142355 0.13032696 0.21016505 0.03132315 0.36294815 0.2116721 0.08074989 0.11752705 0.20941071 0.21638608 0.561823 0.28185323 0.27858 0.029488921 0.22871855 0.6304844 0.2619074 -1.1622906e-05 0.20033854 0.69841677 0.26389372 0.23559463 0.17069292 0.1475115 0.11841736 0.71143854 0.24548927 0.27866027 -0.14614587 -0.13366207 0.18968365 0.20832928 0.15014516 0.00031047314 0.066759005 0.529393 0.63501203 0.20603147 0.12940097 0.13391858 0.1753361 0.101084694 -0.11832787 0.14136218 0.33569524 0.43973508 0.5166389 -0.17712596 -0.0003567487 0.04214088 -0.014096722 -0.007890768 -0.2867385 0.04396537 0.18037322 -0.21711801 0.043545965 0.13619097 0.25469282 0.3063684 0.26124272 0.17153665 0.23767255 0.31010622 0.33538926 0.36448377 0.3067742 0.51219934 0.46509713 0.30465066 0.5423496 0.5235731 0.35226595 -0.14296062 0.19244707 0.38056916 0.49299347 0.5887886 0.29323262 -0.03975093 -0.12214863 0.42788285 0.6190363 0.65024924 0.6185564 0.2977966 0.28027934 0.054878596 0.62479436 0.66495353 0.63955307 0.6089523 0.1234322 0.19389749 0.30249786 0.22365509 0.21349996 0.17653072 0.6540202 0.63180554 0.22137383 0.25734 0.26731429 0.38963062 0.37987822 0.33661437 0.22255605 0.6356863 0.75897497 0.77330816 0.7721107 0.51924986 0.63184893 0.7861965 0.77568686 0.5757197 0.761871 0.6457244 0.8058205 0.77427393 0.69083023 0.77443206 0.7146573 0.7326052 0.7486366 0.7665712 0.7233678 0.7240585 0.70741343 0.7125342 0.7275374 0.70110923 0.6318818 0.64197993 0.6782297 0.6244862 0.56872547 0.5915392 0.45976815 0.47239012 0.40205985 0.50595045 0.48174077 0.5006001 0.5155667 0.56696343 0.583 0.4857161 0.537886 0.60038465 0.5934068 0.5122476 0.5952542 0.5641447 0.12639293 0.16351537 -0.19368652 0.13676807 0.4486283 0.1661074 0.09065367 -0.032872602 0.09873397 0.10941249 0.019026157 0.06967798 0.1278439 0.47639084 0.5031118 0.51503694 0.123457626 0.08125446 -0.005857274 0.035537396 0.51397634 0.5163144 0.12515348 0.326419 0.55067414 0.6076344 0.112113096 0.093600065 0.6353595 0.6892471 0.08725305 0.081316926 0.62469226 0.64791477 0.03506817 0.365267 0.37541723 0.62953794 0.7055343 0.061039805 0.036879294 0.56504405 0.60726976 0.28504956 0.2035409 0.11791766 0.6140002 0.039009713 -0.017821208 0.5462063 0.31323642 0.30660558 0.2603933 0.5529331 -0.034567628 -0.0279553 0.42585766 0.46635753 0.29505086 4.068017e-05 0.30308974 0.24958992 0.10592178 0.023694389 -0.13637307 -0.11596411 0.061703574 0.036627654 0.08807447 0.016291693 0.18213868 0.068559274 0.0052218437 0.011536656 0.15453695 0.1279677 0.21489243 0.5766921 0.26044357 -0.033156812 0.10967117 0.3791166 0.4872585 0.6022742 0.2712571 -0.458852 -0.29376704 -0.08984864 -0.038461626 0.5649247 0.66270566 0.29170328 0.2904164 -0.36834908 0.09517476 0.115896106 0.14091025 0.06798454 -0.00040528923 0.6466846 0.69588447 0.32984692 0.32248512 0.0037209094 -0.057048 -0.18711554 0.4075336 0.5079644 0.5906155 0.31394494 -0.11754247 0.05664108 0.24101245 0.21211018 -0.14338815 -0.003919333 -0.30109072 0.12168695 -0.13834535 -0.19528407 0.210876 0.18151367 -0.20535266 -0.029908517 0.2785357 0.14250866 0.22653623 -0.016067887 0.25555828 0.42730922 0.31848884 0.55172986 0.4642518 0.49163854 0.38392425 -0.12138825 0.4794112 0.58378947 0.434173 0.4809103 0.54240274 0.5689206 0.507622 0.3561261 -0.07560005 -0.12921497 0.31822804 0.3389949 0.38959223 0.46655092 0.5529754 0.5999919 0.6015285 0.5571985 0.34894288 0.30736044 0.23889458 -0.05265552 0.5015813 0.5781792 0.61526906 0.55890673 0.079882786 0.18786326 0.24286602 0.21619794 0.14384134 0.48322362 0.6243306 0.6273489 0.5896391 0.5303949 0.269156 0.16503483 0.26841027 0.24957025 0.5666739 0.5411035 0.44512525 0.56409675 0.6070832 0.5389342 0.6053126 0.6689657 0.60560274 0.6676456 0.34111106 0.52204466 0.7285321 0.76707166 0.75994396 0.37401462 0.73311555 0.49526006 0.72623515 0.60935956 0.74886763 0.71655834 0.71356434 0.6855272 0.6807892 0.67816615 0.676788 0.6999868 0.71497554 0.72179794 0.66475415 0.6880286 0.68463355 0.6829722 0.6484595 0.600862 0.5863502 0.5567119 0.56551933 0.48935956 0.5227132 0.4866892 0.49933273 0.48440063 0.35481387 0.34227693 0.23623413 0.16171409 0.2048957 0.4037702 0.31316563 0.23308529 0.3811686 0.47223824 0.42721385 0.39121515 0.32726032 0.4560327 0.4958408 0.42332542 0.37206072 0.43948933 0.46518046 0.5175996 0.45072788 0.36530256 0.3280178 0.3787935 0.44695744 0.43775785 0.5063084 0.56616414 0.52989227 0.46511656 0.3979502 0.15443258 0.2152958 0.24959077 0.34933725 0.31406558 0.43135205 0.49788332 -0.01755006 -0.0057502314 0.038537346 -0.066131204 0.4756281 0.38116357 -0.09018315 -0.19653043 -0.059412822 -0.027030243 0.034379125 0.2974679 0.28915244 0.25464416 0.32076278 0.43510947 0.4900561 0.46530122 0.1291916 0.026922138 0.1396266 0.2721715 0.24125537 0.33752882 0.46374062 0.51251435 0.48660362 0.16750294 0.1479416 0.1270213 0.38638902 0.30290136 0.2753681 0.31866354 0.45360127 0.52664757 0.51683676 0.49651152 0.16085792 0.2469908 0.4178561 0.31025106 0.1828162 0.38201085 0.45419896 0.5261545 0.14799714 0.5230683 0.44775426 0.2847124 -0.1557979 -0.15564874 0.1493808 0.13681768 0.50549924 -0.20450123 0.034218963 0.07098617 0.030042872 0.13579309 0.110996015 0.50006837 0.24826436 0.26385468 0.040381957 0.47777432 0.3101111 0.32300222 -0.004948894 0.41080168 0.45595968 0.2626629 0.2562165 -0.207865 -0.016865417 -0.00813964 0.13320965 0.2616974 0.1599716 -0.20135948 0.010911986 -0.05886884 -0.06679794 -0.28595886 0.12512657 -0.11907227 -0.09746942 0.20431687 -0.12245524 0.04371 0.17986757 0.21939693 0.3646812 0.2853572 -0.3085487 -0.20753594 -0.044998787 0.083629206 0.3037254 0.3886988 0.32707652 -0.17116815 -0.04118157 -0.15069613 -0.19863214 -0.19280258 -0.12786774 0.3675331 0.48110706 0.311543 -0.04292335 -0.071769334 -0.05355078 0.21168849 0.36510473 0.23247346 0.16446626 -0.0018196255 0.20195681 -0.041818354 0.14650267 -0.1548625 0.41611463 0.4236858 0.030604806 -0.029840428 -0.43367788 -0.030686304 0.03741081 0.3138253 0.40738073 -0.061778933 -0.19376631 -0.03279922 0.25498483 0.38662085 0.4267915 0.14736623 -0.019952454 0.2021364 -0.25260052 -0.08746325 0.040666226 0.13265286 -0.35355482 -0.22594701 -0.08302341 0.2734209 0.14133675 0.38858205 0.36494964 0.3995925 0.38462442 0.5675787 0.31740135 0.47275668 0.39337164 0.37219787 -0.013631482 0.046834588 0.27840388 0.5172556 0.35616407 0.18760772 -0.21870369 -0.03013694 0.01642531 0.29059055 0.32821575 0.46951157 0.42591083 0.2210212 0.014321558 0.019508652 -0.16092819 0.04305382 0.2122377 0.123403855 0.21143068 0.42109156 0.48434573 0.3519198 0.027157739 0.1755768 0.22561608 0.07376685 0.27107134 0.27772054 0.2573884 0.39566338 0.76484233 0.67806613 0.5455172 0.6479109 0.6119841 0.5893377 0.822669 0.8116838 0.7663401 0.30234113 0.40186167 0.64984834 0.8887005 0.8963915 0.87957144 0.33686578 0.51133066 0.6179482 0.6876147 0.66331446 0.91923106 0.60448563 0.65883255 0.5605233 0.3228156 0.38958204 0.5051627 0.7703637 0.7448646 0.26255742 0.30543822 0.64310014 0.6922354 0.2937414 0.6039919 0.5781234 0.5997368 0.5291858 0.66202927 0.57975394 0.5360161 0.73842335 0.75736856 0.5333153 0.68773115 0.75052714 0.75402164 0.45924324 0.7305317 0.7115661 0.53281116 0.6290066 0.4678201 0.50091434 0.1272442 0.13899454 0.24545494 0.21704192 0.31819254 0.21752022 0.21670039 0.40765265 0.35197905 0.39448148 0.28180