# vtk DataFile Version 2.0
Really cool data
ASCII
DATASET POLYDATA
POINTS 7412 float
52.281963 53.275185 75.04823
52.28203 53.14645 75.54496
52.277355 53.256405 76.09708
52.190117 53.93588 74.04746
52.033268 53.879543 74.54514
51.969963 53.755272 75.509735
52.165585 53.728916 76.332924
52.278797 53.996685 76.747925
52.242107 54.94619 73.017914
51.903862 54.75046 73.731026
51.58338 55.07782 74.42134
51.822247 54.470898 75.59295
52.04118 54.36495 76.24788
52.29129 54.079414 76.68915
52.127167 55.455956 73.101845
51.731472 55.40015 73.698364
51.56579 55.46532 74.51661
51.792583 55.458027 75.21246
52.132458 54.963646 76.04542
52.239853 56.117073 73.08858
51.94761 56.214096 73.716995
51.887005 56.238884 74.40123
51.962982 56.08074 74.96556
52.204967 56.632217 74.17132
52.85953 52.925278 74.95442
52.702465 52.8936 75.46179
52.74698 53.009773 76.367966
52.970592 53.137764 76.70717
53.21385 54.236645 73.08192
52.633324 53.90226 73.675064
52.35846 53.51495 74.398796
52.394688 53.510143 76.52763
52.60483 53.683796 76.788734
52.55253 54.697865 72.927895
52.41325 54.299007 73.30645
52.435574 54.722908 76.60965
52.697292 54.3206 76.857864
53.134666 55.602898 72.2635
52.685333 55.572525 72.570206
52.705814 55.186806 76.35042
52.819263 54.848057 76.66452
52.738052 56.25075 72.74135
52.27838 56.512184 74.70103
52.4337 56.271362 75.17008
52.865345 55.904705 75.73243
52.648468 56.755733 73.538994
52.552265 56.739956 74.44957
52.83724 56.648342 74.80334
53.771393 52.426025 75.629395
54.078712 53.170994 73.455605
53.50142 52.75986 74.60252
53.479706 52.53307 75.5468
53.467445 52.71116 76.44092
53.488277 53.058258 76.82776
54.019314 54.23622 72.15848
53.22662 53.580532 73.55455
53.466217 53.525593 77.00729
53.956398 54.589527 72.04302
53.476933 54.36539 72.49953
53.50017 54.326557 77.03851
53.416374 55.581245 72.16225
53.20115 54.810196 76.82731
53.508392 56.039455 72.23444
53.44436 56.466427 72.50166
53.893753 56.30694 75.5097
53.66092 56.776794 72.834274
53.55436 56.984135 73.694534
53.3463 56.894608 74.29182
53.424557 56.6734 74.89498
54.168167 52.362473 75.44307
54.56923 52.896317 73.52418
54.776398 52.595974 74.55062
54.63842 52.49258 75.33714
54.38083 52.754494 76.48054
54.691048 53.00173 76.72441
54.78269 53.851357 71.9359
54.172596 53.419395 77.01154
55.03583 54.56804 71.34353
54.55283 54.5341 71.6119
54.625904 54.6393 76.53323
54.088715 54.587105 76.902084
55.00554 55.332474 71.33226
54.641735 55.617107 71.59298
54.034077 54.963337 76.6531
54.688625 56.107487 71.81256
54.55017 56.214016 75.27714
54.523773 55.967583 75.73918
54.928913 56.681396 72.10745
54.640213 57.037415 72.948105
54.20879 56.97746 73.89418
54.214916 56.942295 74.107704
55.770016 53.08624 72.74531
55.80743 52.83201 73.42673
55.88592 52.67148 74.55816
55.750683 52.77531 75.19412
54.909264 52.82256 76.376015
55.2073 54.131256 71.369286
55.47809 53.895714 71.55696
54.835335 53.62132 76.76078
55.77341 54.623547 71.142395
54.83751 53.990826 76.70745
55.417152 55.368324 71.22096
55.06764 55.158234 76.25185
55.488815 56.395287 71.72878
55.226234 56.185566 75.09577
55.656395 56.01955 75.67335
55.435925 56.9795 72.49171
55.421383 57.085552 73.48654
55.563843 56.87741 74.109116
56.951847 52.81333 72.538895
56.96418 52.54089 73.56843
56.33973 52.61557 74.21873
56.564526 52.916763 75.365204
56.311817 53.54322 71.75552
57.080753 53.382538 76.02585
56.419407 54.5331 71.21005
57.19381 54.115265 76.397644
56.903164 55.561394 71.19484
56.406384 56.23823 71.476006
56.759724 56.526848 75.47373
56.695415 55.999557 75.88117
56.288387 56.737854 72.09215
56.74634 56.982372 72.41038
56.813805 57.211723 73.709236
56.95342 56.82072 75.1699
57.961777 52.315945 72.81895
58.125 52.153145 73.90185
58.087383 52.13557 74.05771
57.75539 52.871883 71.981636
57.473114 52.558987 75.36752
57.92851 52.705208 76.016884
57.58636 53.934483 71.354004
57.93801 53.644737 76.67403
57.23618 54.76253 70.99065
58.26208 54.859886 77.37345
58.239197 55.771545 70.625984
58.178032 55.319233 77.0698
57.2899 56.07368 71.22159
57.62151 56.386776 75.91526
57.302063 56.96254 72.47951
57.40754 57.18082 73.29473
57.514336 57.22654 74.134476
58.44408 52.34433 72.19506
59.008675 52.10277 72.33091
58.626865 51.975224 73.31548
58.21527 52.162422 74.878456
58.80392 52.07971 75.49006
58.997974 52.203815 76.05859
58.523827 52.99283 71.59929
58.220295 52.435646 72.330666
58.66433 52.65992 76.466354
58.95595 53.548286 71.041885
58.619247 53.8796 77.22528
59.251568 54.86962 69.93847
58.612072 54.47449 71.03564
58.676445 54.569828 77.467606
59.337063 54.634895 78.388016
58.97083 55.220623 69.91985
58.618076 55.715816 70.55863
58.613487 55.669632 77.20467
58.960285 54.958794 77.82214
59.34301 56.63374 70.00161
58.735355 56.40153 76.301994
58.814922 55.903244 77.17168
59.032993 57.003384 71.07517
59.00577 56.98257 72.14347
58.474434 57.22143 73.6864
58.19444 57.21781 74.366104
58.359356 56.98702 74.98371
58.554035 56.59087 76.038635
60.22334 40.292206 78.42308
60.12149 40.723305 77.85523
59.94513 40.70603 78.58368
59.95709 40.87137 79.14795
60.298244 41.05087 79.733925
60.184628 41.514328 77.203476
59.87151 41.52514 77.74661
59.686672 41.46774 78.46012
59.89524 41.491364 79.30189
60.203262 41.86343 79.70292
60.152946 42.11747 77.26839
59.931812 42.277218 77.779915
59.861988 42.361546 78.51678
60.100826 42.21226 79.295364
60.24585 42.925587 77.829094
60.150784 42.87092 78.51274
59.356014 52.273052 71.92783
59.680893 51.907333 72.791985
59.3532 51.856182 73.44141
59.591484 51.90533 74.37863
59.566868 52.036392 75.497925
59.8191 51.90307 76.4164
60.229103 51.8665 78.57154
60.3366 51.93134 79.55892
59.4421 52.57712 71.671745
59.75522 52.391315 77.379585
59.752884 52.787003 78.12438
60.20866 52.37848 79.506355
60.37077 52.412697 79.964294
59.355453 54.287796 70.26449
59.547695 53.826004 70.39326
59.93148 53.518837 79.23914
59.902973 54.94582 69.39582
59.733597 54.84465 69.52808
59.997875 54.188377 79.25515
59.90351 55.616333 69.28165
59.508247 55.549397 69.55827
59.69286 55.33039 78.40594
60.130806 55.119366 78.893
59.85585 56.073185 69.34509
59.595444 56.345688 69.591225
60.129337 55.680668 77.97844
60.006084 57.09665 69.79539
59.99548 57.47696 70.519936
59.682503 57.431877 71.38803
60.248787 57.49258 72.50266
58.94647 56.929665 74.93181
61.120556 40.24889 77.24554
60.7401 40.172585 77.78395
60.559433 40.098137 78.58496
60.83618 40.08244 79.33919
61.223804 39.993572 79.998764
60.667484 40.78273 77.12027
60.591206 40.422493 77.415474
60.391804 40.762505 79.71602
60.62108 41.600826 76.90357
60.584152 41.537716 80.032104
61.36775 42.917988 67.89979
61.389763 42.84357 68.41602
60.59011 42.33148 77.02946
60.53699 42.715958 79.56382
60.752213 42.2776 80.00422
61.302197 43.676426 66.878876
61.148357 43.655293 67.43452
61.174553 43.523037 68.300186
61.393436 43.51313 69.07658
60.758022 42.887985 77.26676
60.616154 43.07272 77.61743
60.673775 43.273518 78.377235
60.449326 42.820618 79.26534
61.22374 44.367462 66.849495
61.06069 44.501633 67.45951
61.078907 44.28773 68.32482
61.38876 44.48997 69.07805
61.321762 44.916992 66.84367
61.202713 45.003983 67.36172
61.22461 45.062862 68.17466
61.05756 51.022945 77.75562
60.975613 50.86775 78.470245
61.141525 50.878265 79.58662
61.106796 51.046658 80.07845
61.33902 52.221592 70.81982
60.935825 52.202847 72.33258
60.596447 51.78302 74.7896
60.604782 51.573307 75.743256
60.44255 51.672184 76.68521
60.822357 51.48247 77.53196
60.45891 51.574047 78.79492
60.56396 51.57061 79.618385
60.76738 51.691498 80.1861
61.12789 51.922527 80.705734
60.668797 52.918983 70.85323
60.5253 52.6482 80.208595
61.106743 52.226353 80.79616
60.58174 53.96754 69.87468
60.49733 53.241936 79.968544
60.408127 54.84667 69.30917
60.25938 54.39598 69.52992
60.418354 54.440468 79.487724
61.08616 54.290764 79.795784
60.535378 55.655396 69.182945
60.46487 55.568428 78.60183
60.62182 55.374817 78.912834
60.617447 56.272415 69.2572
60.824272 56.393375 76.87074
60.557552 55.78316 78.38313
60.594933 57.08563 69.71921
60.183254 57.50123 70.37589
60.697094 57.54499 73.029465
60.20587 57.12775 73.86362
60.5024 57.68254 70.820724
61.05205 58.109577 71.65986
61.107025 58.13862 72.51414
60.885826 57.919476 72.94977
61.440445 58.777813 77.0267
61.410892 58.11566 77.52005
62.20967 39.13213 79.79905
62.12876 39.1835 80.17631
61.38894 39.96653 77.66841
61.587036 39.724476 78.42186
61.703167 39.44424 79.32732
61.793663 39.74987 80.470566
62.022648 39.80301 80.91298
61.70883 40.658447 80.82145
62.075855 42.035652 67.79423
61.98137 41.935646 68.5001
61.998222 42.03244 69.11389
61.334805 41.559555 76.68197
62.05116 41.28679 80.89501
61.9394 42.894688 66.952965
61.685883 42.638382 67.54351
61.5422 42.618843 68.5737
61.743202 42.600594 69.19426
62.12087 42.79433 70.13583
61.54582 42.109383 76.80366
61.4201 42.511383 80.53883
61.902393 43.793022 66.32949
61.61431 43.60506 66.592476
61.541443 43.380047 69.59756
61.931244 43.511627 70.444244
62.211044 43.837944 71.068985
61.42232 43.4468 78.43161
61.584923 43.363003 79.54404
61.53658 42.962513 80.25124
61.78375 44.311783 66.303154
61.475662 44.49166 66.53105
61.534557 44.244934 69.51364
61.928146 44.341858 70.39096
62.247143 44.15655 71.10042
62.014576 43.54161 77.90989
61.657356 45.159595 66.78413
61.541958 45.534573 67.495186
61.523655 45.535847 68.2013
61.73441 45.15219 69.21882
62.032272 44.990135 70.18089
62.300674 44.86331 70.76264
61.85421 45.81785 67.61985
62.05268 45.940784 68.25892
62.276333 49.296898 77.44174
62.205963 49.099346 78.39122
62.263264 49.71629 76.927475
61.793694 49.796413 77.68936
61.847363 49.574833 78.3745
62.08977 49.62437 79.590744
62.145645 49.8603 80.535
62.30322 50.74927 65.51456
62.344833 51.018364 66.32576
62.114864 51.28256 70.65983
62.027275 50.429615 76.69777
61.47072 50.314407 79.20908
61.55272 50.69238 80.41455
62.426044 50.562645 82.13719
62.302757 51.380806 65.14547
62.23938 51.38265 65.629005
62.312584 51.337177 66.23037
62.144875 51.797886 70.106255
61.65161 51.855114 70.62352
61.31134 51.87324 71.74616
61.79601 52.179966 73.83665
62.300205 51.808964 65.76904
[...]
POINT_DATA 7412
SCALARS features_00 float 1
LOOKUP_TABLE default
0.7779948 0.8288063 0.85363185 0.655802 0.7331735 0.8333924 0.84378874 0.8339722 0.6762357 0.74606 0.9144213 0.84768736 0.81191 0.8311932 0.7844068 0.8879605 0.9367452 0.8648658 0.79850805 0.8704841 0.9224405 0.86168253 0.81778616 0.80789477 0.7328489 0.8165942 0.8770919 0.88767457 0.5347749 0.5861902 0.67284554 0.8587028 0.850662 0.6145351 0.60641694 0.7905257 0.8124502 0.63079005 0.6887109 0.7508682 0.7726381 0.79088116 0.7656578 0.72585154 0.68203634 0.8328516 0.7345283 0.6751957 0.7818923 0.49471956 0.637987 0.80084026 0.90780914 0.91427064 0.49554265 0.53951585 0.8810794 0.5180022 0.5217918 0.82064354 0.60304046 0.7731209 0.63905287 0.70325977 0.5019239 0.7243234 0.68829453 0.64511585 0.59385 0.67861533 0.43563622 0.4345625 0.5764802 0.8710493 0.878832 0.4589433 0.89907837 0.49009395 0.5035664 0.71868926 0.78482133 0.5113526 0.53729945 0.71167195 0.5617979 0.3973245 0.40607104 0.57020307 0.5880528 0.5629289 0.5377303 0.34058803 0.28662688 0.26683134 0.31477773 0.7685491 0.4718942 0.44759756 0.83765686 0.46670774 0.800407 0.49884692 0.4776306 0.53415537 0.2987664 0.2435022 0.5225739 0.45597172 0.3714453 0.27308232 0.22103575 0.2212799 0.21557872 0.3767572 0.25948238 0.42874262 0.27923378 0.40204442 0.49775547 0.22543594 0.18060234 0.48874903 0.4133084 0.3304674 0.2602229 0.2735582 0.22758253 0.21767393 0.26673555 0.20535854 0.24431679 0.24494769 0.2763971 0.31531528 0.30860832 0.33673728 0.3178209 0.36906856 0.22303483 0.3143436 0.2744228 0.28960592 0.27681893 0.271083 0.2681393 0.19523999 0.18808971 0.16585451 0.2372015 0.27940416 0.21024452 0.21791522 0.28496233 0.42207295 0.26107264 0.3023276 0.25826713 0.4290825 0.39626765 0.28934777 0.2884161 0.59819293 0.24063094 0.25261605 0.5016865 0.14311808 0.14733511 0.24445009 0.26129514 0.24861461 0.7320204 0.82005423 0.82258415 0.80349135 0.7226497 0.87224126 0.9116989 0.9237641 0.81239045 0.73665774 0.8686435 0.90596604 0.8944168 0.78646827 0.8702117 0.85778344 0.24612229 0.2392732 0.25175884 0.20330732 0.15419474 0.10341474 0.28444585 0.41170415 0.2251478 0.12292978 0.2972297 0.4435667 0.4734699 0.3458181 0.2794645 0.43533057 0.49168798 0.4678204 0.34745055 0.5454479 0.50654346 0.22891378 0.25158393 0.5818278 0.5893489 0.18043557 0.67688113 0.5488875 0.32958215 0.14204256 0.21525033 0.64823693 0.6715011 0.66009295 0.6157011 0.5356451 0.8021727 0.75097466 0.70481557 0.8228601 0.66452944 0.78047764 0.7149905 0.79862255 0.7131169 0.6553376 0.8826955 0.86348 0.7421207 0.6296071 0.7875211 0.8239603 0.7983458 0.74956083 0.9076487 0.8830215 0.7719336 0.6395943 0.9225092 0.9035323 0.8297744 0.16342953 0.2394759 0.31871969 0.35562044 0.16751674 0.105566114 0.09471978 0.038113594 0.061781988 0.11414167 0.30108687 0.38801423 0.43521708 0.46407905 0.1231464 0.492911 0.49035233 0.40381962 0.48426056 0.5123282 0.46008617 0.3544801 0.36553094 0.5636816 0.20264956 0.23940381 0.6128154 0.021552596 0.17105901 0.6768558 0.58460593 0.036238164 -0.09092721 0.49211088 0.28610373 0.076742455 0.02420108 0.5058336 0.52945024 0.40238386 0.40384924 0.55074847 0.49176383 0.45966673 0.4470762 0.41037446 0.52959716 0.75982034 0.71890724 0.67614764 0.7152431 0.5267 0.8407218 0.80479854 0.70085514 0.642971 0.54136217 0.6256229 0.5670596 0.88280797 0.8782798 0.5755988 0.46943474 0.36187464 0.6919692 0.61296445 0.57716095 0.90563184 0.9173721 0.5634595 0.43953848 0.34344864 0.62893003 0.92844003 0.90485394 0.83742046 0.652635 0.42134666 0.32582182 0.8914453 0.8192648 0.27244568 0.28010276 0.21279415 0.27723563 0.27899468 0.21261771 0.17731915 0.7493349 0.70404905 0.1986119 0.196145 0.2594623 0.26966792 0.24516055 0.7743309 0.74948746 0.72062564 0.21280985 0.19772029 0.13406219 -0.017626362 0.73164284 0.7166341 0.20112701 0.48884177 0.73902667 0.7663433 0.42976496 0.44391906 0.4836053 0.31146324 0.519629 0.48386884 0.24657522 0.5358105 0.48382103 0.1840656 0.57492816 0.104257114 0.2782657 0.38540587 0.5042871 0.5280347 0.06496186 -0.09416277 0.015460551 0.30005562 0.35670048 0.6639177 0.6661584 0.026011512 0.066769496 0.2049995 0.47651225 0.65762806 0.71102405 0.055032715 0.17376338 0.7236078 0.57001805 0.5695649 0.3438336 0.3501163 0.37147862 0.37573504 0.34510115 0.4783759 0.48417842 0.35626024 0.36948758 0.6571727 0.78126144 0.73442394 0.6963965 0.66701174 0.5636255 0.33094373 0.3530032 0.8110901 0.36243057 0.4202245 0.37163046 0.8614801 0.8460522 0.29879305 0.24014749 0.036275223 0.45691097 0.88013816 0.26509175 0.20716132 0.21945873 0.5252036 0.5192305 0.91030914 0.9422221 0.24258815 0.3061492 0.42486677 0.8340385 0.7403195 0.54820406 0.32894817 0.37359178 0.36431965 0.34050313 0.14562973 0.276198 0.20815541 0.16146499 0.13920769 0.14679334 0.19482477 0.81859636 0.77780104 0.7364637 0.64365304 0.108428374 0.15887249 0.15474407 0.25492877 0.32595357 0.8289813 0.835678 0.8117666 0.7500941 0.68412995 0.56781775 0.19028972 0.17481557 0.16944633 0.11706539 0.0776884 0.30335587 0.3843645 0.49887824 0.8240606 0.8019627 0.697142 0.67162764 0.19878599 0.13052249 -0.021391656 -0.18724465 0.03487207 0.2641838 0.5250459 0.6836751 0.78552175 0.77121186 0.72834635 0.68184364 0.62262547 0.29630786 0.72890025 0.8286754 0.8774137 0.3113745 0.31092787 0.18153614 0.8099463 0.86151356 0.88316417 0.34100872 0.23377499 0.1679112 0.2796681 0.34197986 0.2967404 0.57755315 0.65136254 0.06780711 0.68755805 0.67240536 0.05326909 0.092065774 0.06503142 0.498398 0.71694875 0.095814236 0.12258817 0.13282683 0.18936351 0.2975271 0.12016705 0.16066821 0.23454453 0.3838015 0.1951509 0.19832021 0.36199003 0.46532112 0.54572403 0.5842381 0.31094453 0.4628463 0.5639005 0.6120696 0.6193211 0.464924 0.57831883 0.66125464 0.6712656 0.58794093 0.5849874 0.5250182 0.5660769 0.5887834 0.59521735 0.53147966 0.4917043 0.4469668 0.388161 0.21705586 0.1811432 0.3055919 0.3027083 0.3128152 0.33313352 0.5571915 0.59419507 0.54013896 0.509635 0.46511257 0.44048598 0.3414232 0.6168945 0.576815 0.5440941 0.5654793 0.5300511 0.4136013 0.36152357 0.36971888 0.29668212 0.6091231 0.5477007 0.4172043 0.31074342 -0.118634745 0.17998362 0.7306388 0.08129664 -0.04990246 0.23807156 0.53687876 0.69954455 0.838597 0.85203063 0.86067855 0.82260054 0.77149415 0.14473942 0.045238137 0.016047504 -0.031771958 0.40994132 0.3240588 0.5806428 0.7122878 0.8943353 0.90772045 0.885875 0.8208264 0.019675404 0.18474233 0.40252668 0.40664324 0.59640366 0.7170993 0.83702964 0.89547706 0.78650355 0.6486969 0.03908235 0.11265212 -0.13214198 0.14583379 0.694064 0.63717306 0.025832132 0.12228176 0.0551139 0.14144686 0.34690335 0.11934467 -0.09336841 -0.07928659 0.08973503 0.2639356 0.09718843 -0.110450275 0.024197116 0.049691334 0.060160562 0.6801615 0.5896167 -0.07446143 -0.08141786 -0.03292086 -0.0560054 -0.13297671 0.11111016 0.10281505 0.15189576 0.2569792 0.8047763 0.79812574 0.7215845 0.58162236 -0.014475554 -0.045529783 0.059291042 0.2860314 0.33879176 0.81695485 0.48210013 -0.118530184 0.011305628 0.084844805 0.54423773 0.6539713 0.79433 0.7966776 0.8667271 0.70686567 0.59468746 0.6863873 0.9255187 0.5306127 0.5759691 0.016183864 0.5588912 0.8027934 0.85291743 0.8896891 0.071995996 0.106074855 0.042909347 0.7427528 0.81127644 0.106548205 0.12294721 -0.10919932 0.1645957 0.3282594 0.22196627 0.5634328 0.043226346 0.57083344 0.67588484 0.64989567 0.5547265 0.4454226 0.2844347 -0.047121145 0.58615994 0.57634854 0.6886471 0.68941206 0.5887689 0.42694202 0.21098483 0.6145936 0.61816305 0.6086041 0.60753703 0.45694163 0.42811638 0.3696875 0.20597723 0.4501475 0.40788186 0.38849175 0.355976 0.29713458 0.17621927 0.49940297 0.31767422 0.2936505 0.2309926 0.22545262 0.56199646 0.29814002 0.2755894 0.2580989 0.22420017 0.2335591 0.6426239 0.23007177 0.22414325 0.24734083 0.40159228 0.69740427 0.56756395 0.65637 0.6846802 0.5737512 0.6251161 0.56559384 0.5546807 0.50537586 0.43163884 0.38845956 0.20352283 0.26058027 0.29829377 0.33716914 0.5381224 0.56594986 0.37936777 -0.110077254 0.043266475 0.3112709 0.3492829 0.36574706 0.48985505 0.3118596 0.35409498 -0.1304134 0.23082662 0.25651813 0.12192802 0.304343 0.5758395 0.7226468 0.76595557 0.15919569 0.054169774 -0.042774975 0.27679297 0.4133207 0.5822746 0.8190472 0.82176495 0.6170924 0.12589416 0.17482592 0.08927616 0.11712851 0.25683266 0.8753016 0.6227386 0.1226855 0.17428817 0.28415403 0.14329791 0.1176905 0.12804599 0.15657414 0.20254011 0.36241946 0.62689 0.7879924 0.8255556 0.8808827 0.51574934 0.26581532 0.026041403 0.22046718 0.12464447 0.14296392 0.15861017 0.23890494 0.63934684 0.6864169 0.7219802 0.2134279 -0.23009127 0.26320338 -0.009681776 0.07260306 0.18872978 0.17558862 0.16624074 -0.21644016 -0.15383999 -0.1386975 -0.01888755 0.08436927 0.14575139 0.61567223 0.41283873 0.17854558 -0.22797391 -0.1794907 0.7645594 0.7472368 0.3036264 -0.057356775 -0.3291831 -0.12309272 -0.14530961 0.47217485 0.7750962 0.68104714 0.7711015 0.8319653 0.71211207 0.6334758 0.8648524 0.4198066 0.28581175 0.1899792 0.041800227 -0.12645285 0.029562093 0.4908898 0.7764334 0.8496759 -0.010708209 -0.058553927 -0.26156777 0.66184366 0.7556124 -0.007293622 -0.20010102 0.30179375 -0.12957314 0.40910128 0.5932904 0.5870993 0.45110732 0.4246108 0.4677124 0.5734384 0.6427998 0.6039386 0.4297034 0.4633171 0.5001779 0.6416483 0.49964136 0.46988368 0.5728831 0.4493838 0.39706755 0.32722533 0.20605281 0.30109057 0.2911032 0.30256376 0.2668701 0.28239405 0.272233 0.4922756 0.24203503 0.21564543 0.18962818 0.14152715 0.6772643 0.28959683 0.6750035 0.68130565 0.28630817 0.50795305 0.60815084 0.6406126 0.4958658 0.39439338 0.7414726 0.75413585 0.52343875 0.5335003 0.5241282 0.45912075 0.36724144 0.06329318 -0.16128413 0.09823971 0.1648771 0.2584976 0.3287257 0.33584478 0.6674868 0.7190542 0.481367 -0.111723825 0.37282044 -0.24314907 0.118287876 0.19684595 0.32805112 0.38815993 -0.14098066 0.027897589 0.15189615 0.17401756 0.2868262 0.6803194 0.73910534 0.33749923 0.090364076 -0.0059159175 0.10860023 0.76946485 0.27893957 0.05925098 0.7887174 0.38934755 0.13126004 0.11446491 0.6880574 0.7449817 0.35308403 0.06314823 -0.24638563 -0.0020950735 0.15600939 0.33399025 0.37029874 0.378761 0.49732274 0.6089133 -0.059583753 0.19418766 0.32374883 0.3796362 0.3467906 -0.17808688 -0.19876055 -0.038187787 0.099206574 0.5432611 -0.13903639 -0.24150196 -0.028589115 0.59949756 -0.30037755 0.378998 0.6397547 0.56035364 0.6649353 0.63440466 0.489562 0.7173986 0.36010224 0.20585552 0.09335304 -0.17258464 0.32945576 0.560285 0.6687211 0.7311766 0.045645557 -0.2150444 -0.34875724 -0.2285782 -0.018895939 -0.29984766 -0.19159077 0.1812201 -0.12168849 -0.101032555 0.215668 0.32473913 0.49271357 0.50753593 0.43311736 0.36284125 0.27562112 -0.11038321 0.3637645 0.5228097 0.16402484 0.50507474 0.5629868 0.011591842 0.51572627 0.50949997 0.42151064 0.34995705 0.297693 0.25529435 0.24287882 0.26287612 0.2486198 0.26592538 0.24115233 0.2397944 0.50010496 0.12271854 0.15005627 0.54947567 0.82337546 0.21181622 0.3017633 0.4988371 0.58325684 0.8200488 0.84348774 0.15101157 0.74582744 0.7584624 0.7693712 0.7677865 0.485332 0.020870686 -0.056313917 0.0781781 -0.038103823 0.054961756 0.13894343 0.28563336 0.1940953 0.70638144 0.741403 0.76696646 0.7564656 0.5015354 0.50733006 0.36757344 -0.15662833 0.2951346 0.57326657 0.61805844 0.6851289 0.73439515 0.30884767 0.3556397 0.50810575 0.68903023 -0.18587196 0.22305632 0.37055534 -0.27405506 -0.15509552 0.18306303 0.2028088 0.42946297 0.21506035 0.034451976 0.6239308 0.66150665 0.12905815 0.02087842 0.64588934 0.55868006 0.5775452 0.30648392 0.3636536 0.47949696 0.1423104 0.13672191 0.30995703 0.12969345 0.020888638 -0.01873532 0.39877716 0.37620082 0.3345781 -0.09213863 -0.13517988 0.4955388 0.52800786 0.24842486 0.5328394 0.4708491 0.4311499 0.54485285 0.38029516 0.64231056 0.18749219 -0.16416195 0.4379568 0.56717026 0.14047104 0.08020452 -0.3121524 -0.21872684 -0.12314847 -0.11439418 -0.0772263 0.19805874 -0.10206655 -0.10887572 0.16256219 0.05077327 0.33393323 0.36802688 0.24671268 0.079580545 0.15081622 0.40047652 0.42273182 0.46373582 -0.24335909 0.5204105 -0.18719798 0.5330837 0.47947788 -0.037590403 -0.132891 0.50622797 0.35388944 0.21402776 0.22381419 0.24411054 0.29464227 0.36314332 0.2317715 0.20818636 0.17599265 0.3931898 0.7868045 0.19955271 0.149999 0.40747616 0.45583138 0.79060185 0.80810654 0.8294678 0.8194772 0.18657008 0.21801284 0.2977988 0.35485396 0.34624502 0.7915287 0.8193856 0.8515654 0.8489008 0.33070308 0.3440567 0.80400157 0.8202784 0.84182906 0.84555566 0.708734 0.7335396 0.7679896 0.6627352 0.7354417 0.7617506 0.6499593 0.39701492 0.34555638 0.2921559 0.14086328 0.39183557 0.35544246 0.26425868 0.16395462 0.16675559 0.14357567 0.12132147 0.33085424 0.12764296 0.1525966 0.0689198 0.08238643 0.14182489 0.14459081 0.5672777 0.7026274 0.74160314 0.72875834 0.27765432 0.21613911 -0.1911509 0.09291669 0.7387129 0.5054452 0.4231782 0.6812615 0.47169724 0.42149413 0.30187985 0.5732169 0.54434955 0.4741208 0.34976235 0.15748736 -0.22122473 0.1285937 0.3507281 0.611333 0.50602245 0.48536265 -0.16974264 -0.15334706 -0.008861341 0.48630095 0.55025494 0.4567531 0.35732624 0.0093096495 0.09629896 0.568688 0.43226033 0.61481786 0.5852386 0.108115226 0.45970887 0.4944238 0.16201666 0.10376947 0.35562086 0.40088314 0.23742115 0.1777319 0.28805515 0.22623426 0.27511528 0.22855976 0.22714947 0.3462096 0.32146737 -0.15610096 0.13881569 0.37793627 0.41450074 0.30469674 0.16538632 0.30526903 0.31572723 0.29016894 0.20605731 0.16662666 0.43506888 0.4292549 0.3719293 0.35873276 0.2161149 0.18241316 0.061728507 -0.33786598 -0.71593225 0.050088495 0.13482359 0.2564776 0.44490194 0.4613348 0.46970403 0.2685818 -0.25000662 -0.18005505 -0.17001826 -0.2930845 -0.28800645 0.15515614 0.43235132 0.4324333 0.44358367 0.41968587 0.014367588 -0.14596495 -0.14764166 0.3809216 0.3518889 0.27678186 -0.36056244 0.13458803 -0.041195497 -0.15637183 -0.6983199 -0.10116932 0.344838 -0.07823886 0.42938244 -0.023141555 0.5128286 0.5212394 -0.03959451 0.083775744 0.5736747 -0.097773805 0.58186835 0.536253 0.3739919 0.0108437985 -0.09276643 0.18327366 0.2102809 0.29022956 0.7227099 0.7475617 0.7531833 0.73570395 0.20038602 0.19142482 0.1412813 0.327294 0.77889276 0.7807894 0.12586209 0.20945144 0.2942533 0.30972126 0.56079626 0.818961 0.8080976 0.2522107 0.27502894 0.28773063 0.669943 0.80500567 0.8166354 0.6518433 0.75988084 0.7766924 0.7540198 0.6807649 0.7519332 0.5939627 0.6808481 0.7499306 0.79985857 0.56302035 0.64652836 0.7675538 0.72856474 0.40693927 0.37377805 0.64170414 0.5857959 0.6084611 0.377594 0.41065377 0.37003127 0.30260634 0.18888861 0.16297072 0.11567046 0.55039227 0.35176525 0.38708264 0.44117334 0.498936 0.4521404 0.27644503 0.30554432 0.12236951 0.13105904 0.14190057 0.43792433 0.545932 0.54547 0.59445846 0.40601936 0.38474175 0.38745195 0.19327264 0.61801904 0.58790946 0.35214964 0.2043455 0.2809136 0.33070174 0.6273273 0.508433 0.40044937 0.15595573 0.087233946 -0.06922627 -0.0845121 0.25637898 0.6540407 0.60107267 0.2820592 0.6660384 0.4420149 0.65388954 0.5979065 0.39016277 -0.013033301 -0.05476866 0.5132565 0.09536351 0.44560444 0.25184703 0.1571343 0.10963706 0.23600349 0.40913892 0.3566461 0.2520775 0.18860325 0.403667 0.32212985 0.09044064 0.24696377 0.29195145 0.277519 0.15068251 -0.116635084 -0.06287809 -0.21595657 0.26021287 0.083966255 0.22995073 0.20543803 0.17956376 0.2700944 0.43042165 0.28843364 0.2771775 0.31754857 0.31379074 0.43044394 0.4225957 -0.45613983 -0.6672525 0.29284626 0.32704353 0.44163877 0.44278866 -0.26347616 -0.34260178 -0.3659047 -0.081870794 0.20430663 0.26507783 0.44868916 0.44348747 -0.31443113 -0.6317691 -0.25530154 -0.4109468 -0.32602215 0.3474141 0.25485477 0.15165567 -0.5668597 -0.1947107 -0.63993746 -0.5550909 0.7323638 0.78217393 0.71262187 0.48539656 0.3898731 0.26295012 -0.29587513 -0.019973233 0.05142743 0.5684152 0.46666703 0.39198178 0.38401434 0.08274139 0.18977132 0.49599767 0.5060879 0.20158702 0.56579196 0.1627206 0.20002429 0.57483745 0.49810869 0.2207165 0.10682451 -0.11971949 0.20659676 0.12936571 0.15028647 0.18013364 0.3837676 0.7007373 0.12318878 0.14547352 0.7454539 0.78291833 0.10014893 0.20535779 0.24196967 0.1257854 0.83012116 0.16161118 0.14844279 0.12626484 0.29547474 0.79365396 0.83799994 0.5495807 0.57284474 0.6557281 0.72037464 0.5557736 0.62078947 0.69211614 0.7345424 0.43206647 0.5207654 0.7416959 0.67470366 0.2843745 0.6292118 0.35938472 0.35160622 0.08915529 0.48706222 0.3335638 0.17211625 0.43762794 0.56006485 0.48853287 0.41470438 0.33909917 0.18534508 0.30147368 0.0898014 0.3956924 0.39388674 0.59330076 0.5668074 0.49080512 0.34401032 0.23855 0.12939021 0.14822471 0.21679854 0.30606613 0.37570804 0.38936222 0.4123965 0.5518159 0.5008619 0.31523907 -0.08195364 0.12776878 0.16491112 -0.0012312531 -0.12287627 0.21822844 0.6341827 0.54111826 -0.21207021 -0.2799198 -0.08828732 0.6662935 0.6633451 -0.12296793 0.6668837 0.6602961 0.3628102 0.6201216 0.35129434 0.30992186 0.065474436 0.23867059 0.4395092 0.36557895 0.30336866 0.074837506 0.48096055 0.4428408 0.38771614 0.14665066 0.47702932 0.4601124 0.17341687 0.19128546 0.46916986 0.35980272 -0.03148647 0.27205396 -0.08522304 -0.1106803 -0.12157555 0.058605403 0.44807416 0.35200238 0.24148794 0.20801285 0.44535393 0.28126007 0.47529694 0.4548158 0.3367831 0.42544043 -0.3178302 0.025465716 0.21541564 0.41031253 0.7897903 0.7057297 0.55828726 0.28056315 -0.092946835 0.9166155 0.849832 0.73065615 0.2517302 0.1758895 0.06375693 0.09755724 -0.255138 0.093783855 0.18460272 0.8982116 0.8434824 0.7280201 0.26616442 0.17859963 0.11695287 0.18817672 0.86736345 0.82021743 0.70994186 0.59988475 0.4224427 0.3272112 0.14870818 0.24905455 0.77014756 0.70996726 0.5769944 0.4656148 0.42708874 0.23439442 0.29344726 0.5222375 -0.066630185 0.27368 0.3070321 -0.05546987 -0.13827434 -0.5169854 0.25233975 0.30558035 0.6514063 0.7428639 -0.051574506 -0.04025866 0.8181762 0.026664421 0.059916615 0.8617362 0.044610795 0.079934105 0.09294421 0.064688556 -0.04668229 0.14084613 0.86411 0.084793225 0.12367881 0.13473675 0.16007236 0.24370714 0.3406009 0.44971737 0.6013886 0.74524975 0.445758 0.41350657 0.52028495 0.5627214 0.5921249 0.4343909 0.43158376 0.55931604 0.49354663 0.41130024 0.36487547 0.3063413 0.15736648 0.47862893 0.29306036 0.4517338 0.20555884 0.23998816 0.6013268 0.58539236 0.50474995 0.3855721 0.32791525 0.09022109 0.18424845 0.24811903 0.15824512 0.22550592 0.60998416 0.21532589 0.22194073 0.3121088 0.33662042 0.50679487 0.13579232 0.11606538 0.32360116 0.30891833 0.07729806 0.5977398 0.52927995 -0.0769698 0.6566636 0.6384575 0.6548146 0.6526518 0.6353023 0.5993612 0.5730959 0.14305109 -0.23697501 0.26397806 0.052709963 0.46547723 0.42317188 0.09617076 0.08172685 0.5109814 0.48117134 0.1469013 0.5239029 0.09793125 0.44773287 -0.023532078 0.2833753 -0.079014905 -0.046472277 0.12037648 0.38310647 0.23303606 0.15153207 0.055559322 -0.0542178 0.4448228 0.47951603 0.47196424 0.22426485 0.40626556 0.45903736 0.29788488 0.2571937 0.39645824 0.085753694 0.52704996 0.2864964 0.17679891 0.8809782 0.8119279 0.9554329 0.25863406 0.953573 -0.014183 0.28008586 0.86993885 0.82033825 0.29012167 0.21859163 0.7903073 0.6869851 0.6010943 0.5103428 -0.046267375 0.30871463 0.07865667 -0.102407366 0.32974306 0.09880796 -0.2812376 -0.43202677 0.36232442 -0.31751105 0.3520967 -0.13950747 -0.14333487 0.6210991 0.73392737 -0.08844339 0.7491532 0.79135257 0.020258604 0.8179824 0.25618732 0.24204417 0.23638082 -0.025318697 -0.010178126 0.027916666 0.7230524 0.81465304 0.38913354 0.4429685 0.38871157 0.032680638 0.07553169 0.15396412 0.1862948 0.18254969 0.33966368 0.4070047 0.52829546 0.6901004 0.5518992 0.5857997 0.6031575 0.19070959 0.21481965 0.2584018 0.6580596 0.67118084 0.63605285 0.67250305 0.6719113 0.6369444 0.27849376 0.35620174 0.49038672 0.482067 0.44212046 0.41123578 0.3835101 0.47557083 0.46939647 0.46867752 0.14466742 0.41711313 0.34995213 0.40909272 0.42409265 0.3722529 0.2854288 0.35368365 0.41302946 0.062384937 0.303918 0.5247979 0.5377607 0.4747272 0.26291865 0.2889833 0.26