# vtk DataFile Version 2.0
Really cool data
ASCII
DATASET POLYDATA
POINTS 7105 float
53.250336 18.25353 62.696285
53.20913 18.27974 63.045616
53.161976 18.805851 61.955727
52.93661 18.710325 62.515198
52.986713 18.730705 63.34035
53.195705 19.037909 63.884655
52.927456 19.500551 62.125328
52.75297 19.456312 62.656693
52.761055 19.443298 63.397312
53.13627 19.645695 64.04893
52.895317 20.333569 62.703014
52.874786 20.407267 63.433666
53.111526 20.325089 63.971535
53.226017 20.966503 62.829582
53.153114 20.935919 63.405796
54.054638 18.202013 61.360287
53.55898 18.08127 62.48714
53.4832 18.150097 63.201855
54.12372 18.587294 61.050648
53.731125 18.64659 61.453655
53.323914 18.50766 63.591255
53.629513 18.743017 63.90181
53.439278 19.831444 61.50565
53.550533 19.638002 64.26063
53.49002 20.325384 61.817413
53.632095 20.339275 64.30038
53.967964 21.08472 61.840366
53.553894 21.279526 62.661335
53.591167 21.282848 63.34599
53.748547 20.983727 64.02708
55.287758 17.073202 60.868305
54.994816 17.281294 61.794327
55.36893 17.456703 59.942867
54.91931 17.482443 60.679268
54.466328 17.622614 61.354183
55.043022 18.533539 60.031406
54.479904 18.690466 63.959232
54.99723 19.196802 60.12158
54.44178 19.335575 60.619686
54.438305 19.636387 64.384186
54.383125 20.210146 60.870033
54.302696 20.584644 64.36489
55.027782 21.036205 60.91665
54.58726 21.29065 64.05398
54.814995 21.988005 62.008144
54.786144 22.220957 62.63774
54.73318 22.051884 63.42835
55.035416 21.819828 63.815548
56.31083 16.263529 59.708233
56.22343 16.84863 58.77352
55.773403 16.763115 59.83259
55.26655 17.074137 61.52761
55.80424 17.694252 59.03727
55.597427 17.312208 59.534992
55.776466 18.198631 58.990463
56.290916 19.12902 58.9039
55.6328 19.372646 59.558968
55.32621 19.617191 64.15635
56.092484 20.347652 59.749912
55.333595 20.442915 60.405502
55.506737 20.432215 64.23339
55.415234 21.441824 64.060394
55.92898 21.768978 61.23754
55.76745 22.162 61.80959
55.37834 22.502207 62.61264
55.632504 22.400341 63.331005
55.634445 21.96136 63.803825
55.32529 22.518732 62.733246
57.403748 13.226422 61.635067
57.118267 14.023922 59.688347
57.168556 13.782185 60.226578
57.183086 13.646914 61.520126
57.166615 14.553689 59.087624
56.82774 14.677783 59.5964
56.75613 14.40954 60.24297
57.310524 14.253469 62.67876
56.770107 15.676706 59.02586
56.63989 15.748214 59.828144
56.572502 15.951281 60.902245
57.101288 15.704711 62.095543
57.245678 16.768147 57.89078
56.42299 16.33577 59.102966
56.860172 18.489746 57.995014
56.214996 19.094841 63.549385
55.85868 18.907848 63.601364
57.04445 19.204355 58.232494
56.878967 19.419737 58.730145
56.278553 20.766068 63.953312
56.82104 21.177217 60.44523
56.69647 21.749119 63.461483
56.137318 21.498106 63.944088
56.46449 22.2075 61.760593
56.263737 22.48447 62.604977
56.183556 22.146702 63.517483
56.11713 21.870222 63.782238
58.350517 11.240437 62.71025
58.11278 11.927043 61.95091
58.229984 11.563997 62.552853
58.15184 11.831332 62.906105
57.850773 13.078045 60.74963
57.67368 12.7490225 61.780075
57.77379 12.493484 62.445545
58.061348 12.499276 63.200497
57.78561 13.955155 59.031143
57.726448 13.625637 59.630795
57.503872 13.314379 62.492184
57.694992 13.606593 63.004635
58.031593 14.884424 58.38315
57.58261 14.533794 58.672596
57.811047 14.742037 63.129738
57.708195 15.71127 57.981773
57.50122 15.505882 62.495865
57.925327 15.297981 63.125175
58.094254 16.613697 57.28042
57.5204 16.50133 57.931618
57.94907 16.070251 62.82947
57.977367 17.511341 57.163086
57.572567 17.579647 57.578278
56.966366 17.87351 62.69228
57.966652 18.401083 57.09568
57.47427 18.321905 57.50532
57.81691 18.32903 62.760704
58.2768 19.60491 57.329655
57.186794 19.708456 63.277424
58.22446 19.849478 57.762817
57.34511 20.1243 58.95127
57.087128 20.519577 63.391064
56.78936 20.428267 63.737476
57.737064 20.834255 60.58086
56.889427 21.149414 63.52305
56.817287 22.30933 62.134605
56.892437 21.973324 63.011982
58.41624 26.698965 57.30163
58.394493 27.706055 56.162605
58.22365 27.591366 56.801777
58.21992 27.578218 57.66894
58.357826 27.739376 58.16516
58.3052 28.388405 56.57626
58.25082 28.323015 57.438545
58.378723 28.420609 58.21767
58.406628 28.91152 57.499317
59.100933 10.866678 61.95441
58.748398 11.046415 62.44594
58.87732 11.055822 63.41692
59.084774 11.195931 64.054794
58.800888 11.849653 61.310246
58.534306 11.419631 61.867992
58.399654 11.328201 62.32131
58.532078 11.87209 63.649784
59.214016 11.694891 64.46022
58.69808 13.181192 59.891132
58.762188 12.697543 60.68748
59.03015 12.471196 64.23316
58.298313 13.857544 58.962494
58.356983 13.568502 59.391487
59.06312 13.201348 64.17029
58.52278 14.984661 57.90422
58.48681 14.411158 58.517975
58.31884 14.34161 63.552357
59.147427 14.575361 63.928925
58.775837 15.931735 57.151905
58.268677 15.343331 57.72601
58.81606 16.664927 56.81132
58.669292 16.04766 63.092113
59.165695 17.339277 56.179356
58.804474 16.892275 62.329235
59.08221 18.870636 55.627377
59.07791 19.84869 54.925945
58.841732 19.703922 55.788864
58.864872 19.534203 56.1335
58.37978 19.434694 62.35107
58.096893 19.13442 62.73995
58.987495 20.414652 54.799026
58.772594 20.75226 55.563507
58.665092 20.351254 56.26409
58.82382 20.184055 59.009956
58.77944 20.309378 59.29171
58.30825 20.644354 61.798164
57.84098 20.453947 62.72976
59.165436 21.288382 54.93962
58.936134 21.186968 55.642933
58.963715 21.278221 56.120827
58.011703 20.6941 60.617615
58.006508 20.717411 61.184315
59.32585 21.946842 55.20778
59.3155 23.54661 60.23684
59.304165 24.36908 57.381844
59.13187 24.58777 60.627148
59.05479 24.438875 61.466747
59.19247 24.717913 62.355278
58.988815 26.143705 56.149086
59.14156 25.394361 56.783485
58.687855 26.012543 57.530594
58.76819 25.761406 58.00121
59.200237 25.213972 59.754765
59.012276 25.170553 61.615284
59.23542 25.35283 62.276047
59.11626 26.917269 55.181942
59.073734 26.52176 55.561317
58.707886 26.492683 56.446114
58.61956 26.337622 58.145164
59.27403 25.767616 61.847424
58.57697 27.737452 55.925392
58.97226 27.860516 59.083797
58.667408 28.33011 55.86364
58.60923 28.713955 58.588943
58.807667 28.636515 59.133778
58.92936 28.915884 55.85703
58.591515 29.07261 56.84498
58.57609 29.18328 57.459953
58.778355 29.3966 58.606884
58.94958 29.27736 59.297234
59.303505 29.269012 59.736217
59.151123 29.846298 57.884693
59.041862 29.905596 58.4014
59.145367 29.911041 59.041653
59.860573 10.366328 62.79849
60.04613 10.348492 63.53282
60.11498 10.380679 64.04668
59.58043 10.946155 61.788757
59.536896 10.579919 62.429314
59.474155 10.584988 63.526035
59.630642 10.791838 64.595276
60.237034 11.032562 65.97701
59.63151 11.5250225 65.288605
59.973083 11.829155 66.44663
60.199398 11.93453 67.21584
59.9838 12.479834 66.717575
60.181267 12.349157 67.42125
59.40649 13.913507 59.06514
59.77649 13.459006 59.980286
60.20236 13.61569 65.582825
60.157734 13.224135 66.6031
60.27052 12.99354 67.46907
59.91362 15.092381 57.69739
59.30241 14.424671 63.963234
60.26333 13.867312 65.32533
59.351727 15.465303 57.264954
59.933548 14.912451 64.053856
59.48608 16.280392 56.931103
59.87902 15.8376045 63.32241
59.423267 17.403868 56.133877
59.45966 17.32246 61.944614
59.343426 19.142118 55.214672
59.641373 18.454844 61.06895
59.676926 20.002728 54.20643
59.472363 19.624638 54.531715
59.31957 19.09983 61.4098
58.77411 19.321196 61.953995
59.854137 20.47351 53.985615
59.809235 19.874325 59.78423
59.86622 21.226849 54.109917
59.478817 21.37348 54.46845
59.960224 21.89443 54.35208
59.856934 22.102282 54.753426
59.910442 22.465826 55.919876
59.504326 23.00938 60.620815
59.804276 23.110924 61.908104
60.11161 23.454096 57.00381
59.492836 23.907177 57.73888
59.869164 23.767094 62.567654
59.42059 24.941978 56.548313
59.82204 24.648403 62.93206
59.93377 25.91101 54.91604
59.603695 25.293993 56.176384
59.671513 25.304663 62.758884
60.25723 26.912323 54.32357
59.626556 26.319801 54.967056
59.76056 26.045567 61.837536
59.809444 25.908894 62.302925
60.16221 27.34339 54.208656
59.552647 27.341036 54.777252
59.988422 27.435831 59.608704
60.352165 28.819231 54.326473
59.750587 28.57607 54.896152
59.555885 28.662174 59.882862
59.76953 29.105341 54.969307
59.611042 29.373045 55.46832
59.392048 29.715927 59.64919
59.50982 29.502882 59.832703
60.116856 30.062307 55.501114
59.645786 29.844 56.61769
59.99646 30.31593 57.930195
59.45938 30.266356 58.544502
59.551403 30.119421 59.255993
60.563194 10.183972 62.401142
60.738525 10.030628 64.14584
60.954704 10.196542 65.1998
61.080563 10.888672 61.147713
60.42426 10.611092 61.71261
60.76166 10.86354 66.36911
60.967495 11.159426 67.30926
60.395874 12.172104 60.64495
60.36891 11.381653 66.661674
60.502335 11.7955475 67.61765
60.47482 11.9321375 67.79228
60.638596 12.442256 67.99296
60.37209 14.041729 59.510403
60.392323 13.176422 67.48139
60.760918 13.184443 67.87247
60.112583 14.845317 58.028126
60.4449 14.468245 59.169926
60.4752 13.903787 65.290504
60.9219 14.106747 66.217384
60.947456 13.671035 67.372375
61.300842 16.081518 55.386505
60.612316 15.692993 56.81874
60.650314 15.455975 63.61776
60.76509 15.246176 63.93831
60.689507 14.672445 64.78858
61.217316 17.149908 54.78104
60.584236 16.938622 55.660954
60.22787 16.445278 62.395367
60.46022 17.940962 55.024696
60.30646 17.276993 55.565964
60.0844 17.542894 61.454906
60.639637 18.34451 54.729897
60.69296 19.86506 53.83383
60.211536 19.502993 60.194355
60.27184 18.822062 60.66116
60.370358 20.496637 53.742844
60.61579 21.591452 54.030014
60.922062 22.39943 61.507706
60.555958 22.400053 54.598286
60.50343 22.839287 62.032658
60.26475 22.623009 54.890385
61.173782 23.746614 55.86674
60.528484 23.770811 63.09629
61.374878 24.52192 50.746128
60.58666 24.824657 55.502274
60.53758 24.536194 63.232822
61.461624 25.089815 50.4005
61.414616 25.384386 51.128685
60.352425 25.876934 54.699856
60.58782 25.269217 63.0547
60.88565 26.715725 53.879627
60.40792 26.291967 61.409073
60.317802 25.930294 62.496887
61.451233 28.13857 51.97572
61.250443 28.192928 52.554188
60.51945 28.376402 53.953583
60.75309 29.325527 54.02133
[...]
POINT_DATA 7105
SCALARS features_00 float 1
LOOKUP_TABLE default
0.7320876 0.78795624 0.68284166 0.75377935 0.842015 0.8778004 0.7960401 0.87152797 0.9010279 0.92219585 0.9162597 0.949445 0.9462415 0.8819374 0.91854084 0.48944044 0.65035105 0.75567365 0.4705358 0.5630549 0.83431894 0.8297042 0.657258 0.8957639 0.74146193 0.9051087 0.7215613 0.8371819 0.8757255 0.8838443 0.26208895 0.3382088 0.29000193 0.31939733 0.4035238 0.35917002 0.79811835 0.37085474 0.43730173 0.82509255 0.4821669 0.82381964 0.5288381 0.7956166 0.75379086 0.81048906 0.8111813 0.77500814 0.25086242 0.2890999 0.23639987 0.27963158 0.32642952 0.27998835 0.34735227 0.32048848 0.33335876 0.64257866 0.35554504 0.39550847 0.64607704 0.71586674 0.66117775 0.73894703 0.8077264 0.79632175 0.7524998 0.8110536 0.44684145 0.40034992 0.40046528 0.43731958 0.38225836 0.3686037 0.3625331 0.45567238 0.3106697 0.29227638 0.25786403 0.45547825 0.31910378 0.27122936 0.31004727 0.40185633 0.45822787 0.2588747 0.28230944 0.58982754 0.60190284 0.690824 0.6754774 0.73249424 0.8190664 0.76064885 0.72191155 0.45513403 0.43883276 0.4493035 0.44293886 0.41233486 0.44448897 0.4461087 0.44259283 0.39075422 0.40307182 0.4707471 0.46933144 0.3376786 0.3757147 0.4075583 0.3092746 0.41521585 0.3865602 0.25369972 0.31001896 0.37789398 0.24095964 0.2865783 0.27342597 0.1857568 0.23480617 0.2215749 0.1768622 0.3875441 0.22255765 0.2894321 0.49142593 0.5123444 0.50785613 0.58963734 0.7816755 0.75381166 0.45857722 0.50050324 0.5192942 0.51366097 0.50950015 0.5320523 0.5309124 0.52562904 0.5275762 0.4394877 0.4575343 0.46781945 0.45000073 0.38885224 0.43287978 0.45192543 0.46024263 0.41337097 0.32654044 0.34691605 0.42902097 0.35801074 0.36182615 0.34916425 0.2871198 0.3248096 0.40540552 0.255626 0.22614753 0.28156146 0.20128006 0.29922393 0.14051734 0.11159873 0.30078945 0.536471 0.4095679 0.33368894 0.2990785 0.2974547 0.5885757 0.51707757 0.36672783 0.32039237 0.32669938 0.5055984 0.4314652 0.5985282 0.5291434 0.4514823 0.45356107 0.54671836 0.55027026 0.49079305 0.1958612 0.503711 0.6864277 0.82377446 0.35859358 0.29768836 0.3738021 0.31361282 0.3349075 0.73441947 0.80960804 0.37138456 0.36411572 0.41004762 0.39644957 0.76945364 0.47908333 0.51602274 0.4787961 0.5378345 0.54350454 0.45537552 0.51711047 0.52066684 0.5470899 0.56400704 0.5684023 0.50081563 0.5275913 0.5479819 0.44898996 0.45106328 0.44141597 0.42604235 0.44910717 0.45981717 0.4109825 0.41745383 0.37891075 0.5053277 0.5879398 0.59628224 0.64296 0.23937228 0.1338154 0.32211983 0.6002735 0.6733316 0.16667977 0.22344556 0.21364018 0.20337123 0.10516713 0.16766876 0.15062425 0.13264467 -0.008222267 0.39961863 -0.093458876 0.63178784 0.5418745 0.005885422 0.21156527 0.6961449 0.27100247 0.68122745 0.63594186 0.61945033 0.5751275 0.36563155 0.60978866 0.72226 0.061717555 0.14406407 0.8476491 0.24832292 0.8760218 0.2831093 0.27211398 0.8317854 0.27553484 0.3102607 0.73353106 0.7672526 0.26594242 0.3466481 0.5026389 0.2161495 0.32542047 0.5374759 0.30086523 0.34320277 0.5660502 0.56549805 0.24908474 0.40259767 0.39747083 0.49855313 0.53639364 0.43623537 0.44803292 0.40411037 0.30797648 0.41398817 0.4304697 0.50636756 0.126233 0.4883487 0.6023922 0.62880415 0.6985831 0.08685329 0.67030907 0.70957386 0.15967971 0.13266118 0.20909594 0.3609665 0.60604346 0.21217811 0.07679814 0.09213038 0.07532535 0.08733455 0.21669975 0.14163691 0.04001638 0.23055735 0.14129439 -0.048829794 0.3154821 0.55074596 0.10061933 -0.010683045 0.68698025 0.6905366 0.41605014 0.5273497 0.59851354 0.46701127 -0.059790388 0.82937896 0.7168232 0.18115118 0.8595499 0.6078968 0.58366215 0.24887843 0.8227638 0.18648674 0.55649525 0.7304537 0.20301723 0.14689426 0.17983346 0.15704606 0.4432956 0.18025546 0.30333057 0.39561898 0.1617075 0.23924507 0.3831478 0.33978844 0.32371047 0.8123482 0.8277846 0.8326826 0.80690956 0.84020257 0.8335915 0.8536177 0.37866652 0.4265082 0.4413869 0.35950398 0.37772927 0.32431966 0.3890462 0.5246222 0.5509699 0.044061873 0.6576685 0.7077653 -0.03380582 -0.12347576 0.7684355 0.7286687 0.29291633 0.15492025 0.14841244 0.3357157 0.55546707 0.34551668 0.07996575 0.063791044 0.07775727 0.2741273 -0.035626158 0.011198652 0.078829855 0.2409943 -0.13271075 0.28920522 0.28891447 0.42184716 0.5482888 0.6394461 0.116623 0.18250701 0.7262632 0.6355987 0.7103467 0.60784227 0.6633612 0.7396994 0.80999327 -0.054513156 -0.07242666 0.7652818 0.57935786 0.6328365 0.7771798 0.7889939 0.7888938 0.53927386 0.5678709 0.55278444 0.49421445 0.6478617 0.74929655 0.41249073 0.16562375 0.42907828 0.5871141 0.26448765 0.247415 0.23834185 0.082471624 0.0075621903 0.23455894 0.19191737 0.2761153 0.22537827 0.23489714 0.24653867 0.20951363 0.19655612 0.23309034 0.26211447 0.2397915 0.26123983 0.24690159 0.23578542 0.3165422 0.364625 0.34482557 0.33821267 0.30206335 0.3704208 0.3938564 0.3859282 0.7475877 0.78819394 0.8150978 0.81510204 0.7334038 0.8018055 0.8252557 0.825549 0.817598 0.70941657 0.77446973 0.81946146 0.77086926 0.6861092 0.83354557 0.7711552 0.88373685 0.71968836 0.9062407 0.9023198 0.8521262 0.45046753 0.41135615 0.36702383 0.8137211 0.8772037 0.8676825 0.80746245 0.21903074 0.51088166 0.782204 0.78046733 0.80758166 0.74906945 -0.021704085 -0.02673925 0.64629376 0.7313522 0.7071234 -0.013683868 0.76817846 0.32349017 0.25622404 0.0009754617 0.6180762 0.36914513 0.2666299 0.22539726 0.48256856 0.39921486 0.065103486 0.0340325 0.029109415 0.35052294 -0.07942158 -0.022543808 0.024295226 0.2664141 -0.4546454 0.21849015 0.22160807 0.2496548 0.18824254 -0.038553677 0.3931561 0.090861596 0.38892943 0.38697782 0.10273596 0.71849597 0.5376652 0.6612848 0.5671496 0.62732804 0.7709681 0.7290391 0.5516552 0.7163429 0.45002562 0.56097966 0.6566788 0.41029453 0.39434355 0.17700605 -0.12516999 0.27063522 0.32622585 0.3206608 0.07891911 0.32035965 0.29512525 0.1292751 0.60998005 0.2920682 0.2888012 0.2249532 0.15268998 0.57237226 0.6245455 0.6615882 0.25690398 0.24274242 0.23222396 0.35070595 0.32107753 0.4061771 0.50988007 0.62637943 0.6651608 0.696167 0.23020011 0.27705258 0.38070816 0.37534073 0.4518394 0.6028316 0.6783177 0.7207494 0.25753468 0.33751678 0.37041065 0.5592931 0.66956055 0.66572666 0.7431097 0.7747836 0.7666635 0.7582561 0.6391144 0.7671615 0.62691844 0.75821275 0.55645454 0.54137874 0.82403636 0.83224773 0.8198594 0.50110745 0.8649299 0.7993778 0.68861413 0.39249545 0.27370235 0.72512114 0.6694825 0.28705108 0.4324888 0.55993104 0.6755541 0.6502515 0.5916694 -0.029505072 -0.012341797 0.50757784 0.55730796 0.627133 -0.040452745 0.75346994 0.8346703 0.8355559 0.8197637 0.3019629 0.21961504 0.13755256 0.4737245 0.65335083 0.801281 0.8143704 0.81175244 0.39832646 0.451993 0.745504 0.73033726 0.7363523 0.7115448 0.4091078 0.00759973 -0.03819704 0.62737906 0.6253179 0.35039616 -0.097882725 -0.043328293 0.1687274 0.072578266 -0.2272356 0.051396355 0.010025274 0.11786899 0.24277869 -0.39123398 0.25595355 0.546757 0.60775095 0.4850492 0.27841783 0.21596816 0.45260397 0.16705173 -0.2730541 0.47982544 0.6440266 0.22015183 0.40029413 -0.29691523 0.5935465 0.38302517 0.4035263 0.44371232 0.48338997 0.5811517 0.5489075 0.4405657 0.52772593 0.31656158 -0.055150382 -0.1211402 0.24688664 0.27497432 -0.0054676235 0.19263387 0.55200654 0.5901022 0.6272805 0.29872185 0.24805835 0.061751414 0.34457994 0.65012735 0.67513037 0.20874079 0.22752315 0.19111937 0.14407845 0.6945573 0.73211336 0.18877138 0.33664536 0.16959164 0.33699426 0.7645663 0.7916485 0.19323385 0.21595606 0.2616387 0.25325486 0.31375703 0.28680444 0.3533405 0.4537984 0.50756216 0.6960992 0.7755882 0.8005469 0.13470784 0.36952573 0.3609156 0.4352687 0.45163682 0.5393154 0.69648385 0.7696408 0.41660768 0.45415115 0.4774741 0.518839 0.62318325 0.6263076 0.57866573 0.6180572 0.6392306 0.62950754 0.89217216 0.83702236 0.5259774 0.58498347 0.87033284 0.8620509 0.801713 0.49193776 0.52767265 0.71255195 0.7323685 0.73080707 0.7726934 0.7170714 0.6695844 0.52892065 0.4194086 0.6589151 0.7422234 0.76002425 0.65957785 0.575098 0.52681017 0.495246 0.38627538 0.22794397 0.15803288 0.7287884 0.6833948 0.44127077 0.39435458 0.29516935 0.14456743 -0.0066962093 0.57172436 -0.057987116 0.60099304 0.53229594 -0.12757784 -0.06757144 0.49740747 0.8155029 0.7956761 0.76407945 0.06701842 -0.024115447 0.20381045 0.22088617 0.24363855 0.42581344 0.4799242 0.8040921 0.8246572 0.8268584 0.79312503 0.7606362 0.24737793 0.2303992 0.55799884 0.77754664 0.7821935 0.69093144 0.32995695 -0.10768741 0.03341396 0.71459496 0.7063003 0.65560913 0.6128564 0.35347852 -0.06071273 -0.05557919 0.5631877 0.57847667 0.55019855 0.4871357 -0.097255886 -0.033622794 -0.06820163 0.41981548 -0.21233477 -0.049934633 -0.2499026 -0.051266976 -0.105485536 -0.11281546 0.15754585 0.21335287 0.22321418 -0.22396 -0.23170462 0.13733019 0.063497886 0.17093536 0.27705663 -0.13873638 -0.16788301 0.08164537 0.1134381 0.40905613 0.088549405 0.5102945 0.51624775 0.5958863 0.029718801 0.15389031 0.23899996 0.28011835 0.5522268 0.53457105 0.069056235 0.17913103 0.18002227 0.20094204 0.18934512 0.1511901 -0.33877224 -0.22647208 0.45283645 0.5389552 0.22269647 -0.33836734 -0.10877794 0.66003025 0.020293854 -0.018947575 -0.14043248 0.70077765 0.76001215 -0.13619071 0.03721316 0.79456437 0.12913577 -0.028884001 0.07798219 0.2160985 0.80338585 0.8136527 0.09174748 0.086891845 0.25082743 0.7069334 0.78378594 0.81361234 0.56810117 0.5256876 0.45899767 0.12127339 0.12428689 0.30023828 0.3609232 0.40589437 0.461087 0.47988766 0.51816845 0.66235214 0.6275916 0.6159389 0.5483751 0.31142244 0.35414946 0.40413246 0.4589572 0.4683847 0.62343854 0.64493096 0.6359683 0.58592093 0.63890237 0.63050705 0.5885335 0.49504423 0.46664086 0.9084573 0.8818865 0.84108514 0.46419278 0.5374877 0.4754156 0.4396646 0.9062501 0.91481894 0.8994783 0.8251158 0.73550916 0.46721017 0.48703158 0.865844 0.8668955 0.67238724 0.6778654 0.6839293 0.71288466 0.74823785 0.71830183 0.5966883 0.5011724 0.15503632 0.5498589 0.6691736 0.66183263 0.7006791 0.66523385 0.68819463 0.61432445 0.41502783 0.42233223 0.098216966 0.030028947 0.1343058 0.64740413 0.6309537 0.4282351 0.3957954 0.38141727 0.31517574 0.18511239 0.04545096 0.040968753 -0.18584204 0.13425788 0.59511733 0.60829616 0.36014637 0.31804433 0.28368393 -0.04585269 -0.38627657 0.55421984 0.5965289 0.14642084 -0.33566898 -0.3079718 -0.15624546 0.063912034 0.5428548 0.5731213 0.7743551 0.7880226 0.7350836 -0.1999725 -0.037181146 0.24815589 0.49833858 0.7795782 0.7944782 0.6540488 0.024931751 0.002881609 0.21033058 0.31356856 0.3293219 0.3993348 0.7596245 0.76812696 0.09157942 0.51784813 0.54176474 0.7214372 0.7122943 0.59292305 -0.07942307 0.619977 0.62856185 0.643368 0.5947804 0.4875044 0.46764266 0.33177954 0.0035440475 0.6675356 0.6823719 0.33636034 0.2934472 0.24792919 0.36772627 -0.036052756 -0.3934978 -0.03695064 0.26527828 0.2165612 -0.23109478 -0.47411835 0.16251135 0.35786682 0.40008327 -0.33869305 -0.12858415 0.23037973 0.5350519 0.5355642 -0.4407857 0.51057625 0.48573622 -0.28330302 0.15921861 0.46882677 0.056935973 0.060619652 0.09588924 -0.00793119 -0.18445972 -0.20032136 0.09228226 0.060274825 0.07450388 0.08270349 -0.066829845 -0.0044021066 0.04929932 0.30665728 -0.29430243 -0.22353086 0.37526906 -0.24156332 0.51021385 0.06845577 0.20925099 0.62058747 0.28434438 0.29670972 0.45584604 0.27136892 -0.43391654 0.30185014 0.35244298 0.41323718 0.33258748 0.13494043 0.056739688 0.25124702 0.013038091 0.48409587 -0.23268975 0.62108606 -0.1204139 -0.13730586 0.708097 0.7382238 -0.11100969 -0.13371359 0.7325394 0.77689004 0.19486058 0.013520099 -0.038386792 0.7759474 0.8022913 0.30082953 0.28207675 0.31520605 0.20818429 0.7986437 0.3419038 0.46301824 0.38091558 0.36324492 0.21388206 0.07958319 0.60416234 0.6584183 0.7628287 0.46275276 0.55600154 0.46594626 0.015505731 0.07526087 0.08909899 0.100717425 0.19188675 0.3295969 0.36582586 0.41894308 0.47693145 0.50551724 0.60326713 0.6291731 0.53615594 0.5010009 0.58026695 0.61799103 0.60058904 0.53572834 0.5726663 0.5953328 0.576672 0.40342265 0.4036571 0.33988002 0.90099394 0.86551344 0.7970714 0.54959786 0.5277309 0.38093063 0.35283506 0.32161307 0.90439594 0.91086197 0.73530483 0.7163244 0.46059167 0.36775613 0.86242163 0.6169944 0.5824673 0.10958423 0.18280874 0.7216195 0.7455448 0.4897153 0.009518642 0.09027478 0.57728857 0.61628914 0.62341666 0.6921121 0.67623776 0.15265916 0.04650633 0.10281468 -0.022001192 -0.15822153 0.08321619 0.558501 0.6147847 0.65493965 0.63161904 -0.26591766 0.082951434 0.6430594 0.65195656 0.31073222 -0.11289619 0.6612271 0.13566971 -0.09068748 -0.2379837 0.58904797 0.7179605 0.66529024 0.6285933 -0.40860102 0.087940015 0.5088376 0.52609956 0.743904 0.73021233 0.40298754 0.46846634 -0.23912136 -0.16649999 0.31278563 0.40633383 0.73849255 -0.028741527 0.4983425 0.69146234 -0.037619308 -0.025080927 0.5862512 0.6469953 0.6805339 0.6482866 0.5906061 -0.50192183 0.022391267 0.10287029 0.6233748 0.6667063 0.68475044 0.68946373 0.6727871 0.35257977 0.15233913 -0.03657992 -0.476299 -0.26046544 0.36061442 0.17064384 0.17911278 0.12779836 0.12095377 0.080770545 -0.452211 -0.5231104 0.050823152 0.092533275 0.41918528 0.39748648 0.53686863 0.5539456 0.39944166 0.010769285 -0.2585879 0.022597205 0.4750395 0.45433354 0.53190976 0.53764945 0.31696516 -0.09242254 -0.039532766 0.20356584 0.2776025 0.47390375 0.5286166 0.49706012 0.50671285 0.5171283 0.31844372 -0.035856918 0.013183892 -0.008955002 -0.027311798 -0.2896343 -0.1736113 0.4779042 0.5588313 0.45342958 0.45610332 0.3640477 -0.0074350806 -0.19821388 -0.20714565 -0.12770835 0.035223328 -0.01014593 0.84662205 0.7572005 0.6116712 0.44845593 -0.26819858 0.8645859 0.8395488 0.74608886 0.59349 0.4952012 0.33867934 -0.16877562 0.35065424 0.26519784 -0.19164404 0.0049736835 0.07946726 0.8307984 0.77647936 0.72162277 0.5488132 0.4732548 0.33551648 0.17887934 0.060843613 0.19428222 0.65417284 0.51880443 0.4552518 0.52051157 0.27317163 0.30902648 0.36428124 0.3481179 0.36086264 0.11224784 0.035340697 -0.06690688 -0.2095098 0.37710446 -0.07530899 -0.13106859 0.33272874 -0.25716668 0.44338518 -0.1597853 0.48242503 0.0029443428 0.068849385 -0.09307102 0.40793717 0.6116898 0.11192101 0.091364264 0.091886014 0.48271167 0.67021656 0.14785247 0.23306966 0.58557 0.712989 0.28182122 -0.038809028 0.48164704 0.5668311 0.38941664 0.48314816 0.03661016 0.056381095 0.08302869 0.27107114 0.37664992 0.4061457 0.42418963 0.45909923 0.34780455 -0.014784135 -0.03553611 0.058366142 0.062401474 0.16508499 0.29746938 0.22394988 0.48949397 0.49331862 0.35665542 0.012932554 0.52580935 0.40344208 0.11544347 0.8836182 0.8511309 0.84609836 0.81464756 0.78347766 0.70262885 0.60522795 0.6375084 0.5685437 0.27535138 0.2879187 0.2547534 0.8656045 0.835057 0.75039005 0.5672499 0.554034 0.5465141 0.48181707 0.2704838 0.26789045 0.23169038 0.8873527 0.8750909 0.6940596 0.61834824 0.46638048 0.20537773 0.19629858 0.8114625 0.4710856 0.40339124 -0.14611262 0.11508805 0.7060938 0.7009009 -0.13883594 -0.025887005 0.05803276 0.05747772 0.5124357 0.5386901 0.67999256 0.66791093 -0.11665145 -0.07771134 0.057343714 0.30893734 0.34842396 0.4486439 0.51028883 0.528888 0.6002186 0.6570936 0.21472698 0.61013424 0.6855074 0.60267663 0.7093675 -0.1483644 0.59543794 0.63732344 0.54606843 0.35656077 0.15305288 -0.19654867 -0.5916881 0.4542634 0.52541256 0.6578823 0.625701 0.4832672 -0.1840688 0.15276122 0.32504043 0.6451462 -0.0144398995 0.3646981 0.5076357 0.53612626 0.45604724 0.5935367 0.10574727 -0.012668818 0.57187444 0.6417674 0.65699387 0.65943253 0.6524625 0.2638534 0.5849265 0.60708064 0.61332256 0.3387784 0.34829956 0.1958307 -0.34795588 -0.43140507 0.39294082 0.3849108 0.46827626 0.41851932 -0.21235953 -0.15457648 -0.3162898 -0.35969263 -0.36884046 0.44088513 0.50420624 0.5169608 -0.17095247 -0.10206948 -0.35913444 0.48575634 0.47603494 0.47612017 -0.0470418 -0.08319336 -0.38278648 -0.46060374 0.26706514 0.53994083 -0.027204832 0.4441453 0.51170415 0.774814 0.7227366 0.64997494 0.43523905 0.32798636 -0.023837231 0.08880342 0.86315763 0.8113572 0.024535019 -0.29457888 -0.2470786 0.017733086 0.10105959 0.17684966 0.89868593 0.12849033 0.17361507 0.16836801 0.8422922 0.7909131 0.034900054 0.20894949 0.7749835 0.7300755 0.5813971 0.5077729 0.4343675 0.29962432 0.32481006 0.5395806 0.44707227 0.36682147 0.3773925 -0.1088542 -0.0391554 0.41690183 -0.058963764 -0.110713914 0.44191086 -0.07441814 -0.37379205 0.42064497 -0.06678778 -0.012392692 0.44813007 0.012764871 0.0638002 0.3764071 0.4718117 0.056113824 0.044015437 0.08970394 0.37344348 0.43143526 0.053318366 0.20575675 0.33565047 0.4204712 0.57811826 0.1409846 0.16118938 0.68843 0.24492316 -0.034299105 0.0005423948 0.0443439 0.028990751 0.16411963 0.14651746 0.26917422 0.035102285 0.040958665 0.0113452235 0.03007897 0.015507234 0.25849387 0.13736677 0.0024586841 0.03240999 0.27660573 0.37881368 0.34896123 0.4979199 0.4853412 0.44001973 0.3590203 0.532382 0.4897323 0.8156357 0.8322587 0.870168 0.8773521 0.8677914 0.885595 0.9012977 0.88002753 0.8945558 0.913395 0.8458719 0.7508875 0.8178831 0.79438174 0.70633256 0.6879585 0.23220389 0.25473773 0.22081691 0.20185629 0.18511225 0.2098993 0.18644293 0.6887877 0.2981009 0.1940732 0.62952983 0.6970831 0.42515504 0.32890582 -0.05161141 -0.077816166 0.118453145 0.6078974 -0.14663309 0.6480715 0.0064224303 0.38315833 0.41412818 0.46766806 0.5728581 0.03411358 0.3137926 0.42996395 0.52001 0.5424677 0.6419869 0.05043468 0.04030786 -0.03046301 -0.05280204 0.425915 0.55545545 0.4074616 -0.012048855 0.5540585 0.5931264 0.0026459098 0.4008969 0.350553 0.41742694 0.24610883 0.546574 0.3544078 -0.10736593 0.4522397 0.57279766 0.62168336 -0.1745126 0.20595127 0.18974951 0.51082534 0.54827976 0.55517644 0.2991548 0.23370028 0.06347671 0.4490944 0.41970885 0.32336375 0.40331525 0.38973498 0.47662583 0.4243161 0.4604646 -0.1306516 -0.4875034 0.460246 0.41689754 0.38250738 -0.28265396 0.4363991 0.7516443 0.7019577 0.64222836 0.4121139 0.15287547 0.8375881 0.18621829 0.93366385 0.20399114 0.8665129 0.7634213 0.7181717 0.6197425 0.30888087 0.33138013 0.48382756 0.3331938 -0.08646205 -0.100570634 0.4320413 0.302128 -0.12595582 0.4896278 0.42807373 0.44452867 0.358181 0.3143137 0.086536765 -0.11000426 0.504378 0.4244395 0.38967282 0.2843493 0.11656241 -0.16595042 0.45323342 0.30913037 -0.24601921 -0.29343045 0.29062566 0.33856443 -0.009839442 0.28754857 0.20625679 0.03602095 0.1404003 0.45868194 0.40216222 0.2851757 0.15401073 0.23043177 0.5910568 0.5740188 0.397213 0.69053626 0.6632949 0.51686496 0.4295023 0.33882648 -0.11963538 0.13316853 0.82275814 0.81539476 0.7246027 0.61112726 0.0050282013 0.06012715 0.8581698 0.8307265 0.77929586 0.70689094 0.093543865 0.0326036 0.13989502 0.2912045 0.8215065 0.8042977 0.7566463 0.20363404 0.012324259 -0.010033034 -0.03173229 0.004196968 0.08450096 0.0530753 0.04176079 0.26396537 0.30540895 0.22960341 0.0005136281 0.08681492 0.0690184 0.30489093 0.35753 0.44639987 0.35777286 0.4016077 0.5087331 0.554559 0.5341645 0.43708375 0.65564 0.5401473 0.728409 0.74807584 0.7527762 0.7477489 0.6701158 0.7912934 0.81390584 0.72055113 0.8214004 0.862587 0.8913324 0.81280476 0.744191 0.84661835 0.8578162 0.7850605 0.8296378 0.899083 0.81703365 0.7425457 0.67687106 0.7081055 0.61646295 0.48876822 0.2933544 0.04375687 0.19606803 0.1737495 0.16642529 0.13276628 0.45085543 0.14062041 0.044909507 0.40313578 -0.0023129582 -0.027553782 -0.18939403 -0.20354164 0.40087092 0.0003914535 0.02775471 0.322657 0.36804393 -0.0823728 0.26096714 0.30214226 0.13069023 0.20803492 0.4931469 0.096067175 0.09043321 0.2969972 0.3659986 0.28903884 0.47793052 0.3190539 0.32520145 0.21519348 0.35776567 0.47307464 0.046660498 -0.014919549 0.011467189 0.34696496 0.45161015 0.2984229 0.20342907 0.42027056 0.3909598 0.3419516 0.294527 0.43774155 0.4322738 0.18794015 0.35613173 0.3658483 0.7379123 0.7070821 0.60301757 -0.07655999 0.074096315 0.7915157 0.17238596 0.1792168 0.8721247 0.240928 0.82183003 0.18581909 0.7521995 0.65313053 0.50934434 0.4311362 0.012658402 0.32828873 0.35611096 0.3471741 0.481