# vtk DataFile Version 2.0
Really cool data
ASCII
DATASET POLYDATA
POINTS 4025 float
27.327644 45.900307 -37.345715
27.341238 45.80527 -36.64286
27.342516 46.455833 -37.30019
27.328604 46.391453 -36.63576
27.932882 45.319744 -37.862522
27.797897 45.187366 -37.2467
27.799547 45.193096 -36.732178
28.0281 45.242245 -36.152332
28.179745 45.862026 -38.760277
27.933874 45.71693 -38.285645
27.552162 45.495655 -37.42152
27.564116 45.486473 -36.53633
27.749016 45.62707 -36.08364
28.17975 46.57447 -38.926273
27.801844 46.468987 -38.411808
27.443892 46.385906 -36.33628
27.732788 46.446033 -35.902706
28.25555 46.433712 -35.34253
28.226162 46.94989 -38.84795
28.055096 47.196083 -38.354515
27.622423 47.14946 -37.384792
27.72288 47.307198 -36.558872
27.758652 46.98489 -36.096027
28.28713 47.775818 -38.150295
28.09004 47.7783 -37.574505
28.287802 48.11516 -36.610283
28.246246 47.9895 -36.015972
28.037395 51.10551 -31.516237
28.106213 51.081383 -30.692066
27.987038 51.781586 -32.304436
27.805357 51.721245 -31.504074
28.016132 51.537457 -30.65455
28.257292 51.87325 -29.87732
28.205238 52.308456 -32.67855
27.792387 52.22076 -32.090385
27.699844 52.28779 -31.629272
27.771893 52.609554 -30.56709
28.034374 52.63821 -29.868523
28.24783 53.350838 -32.740326
28.326458 53.920162 -32.656857
27.60185 53.446083 -31.274118
27.695707 53.402946 -30.381516
27.935438 53.52408 -29.798271
28.21389 54.430824 -32.3818
27.862413 54.43104 -31.366863
27.795296 54.39232 -30.4967
27.990646 54.47081 -29.966253
28.384493 55.069355 -32.43155
28.070742 54.92838 -31.314163
28.112106 54.94593 -30.644905
28.810307 45.380703 -38.76683
28.61893 45.21715 -38.297474
28.53686 44.941715 -37.448994
28.567493 44.922047 -36.684937
28.967306 45.18064 -35.667492
28.662165 45.821487 -39.11718
28.367975 45.52974 -38.669025
28.986433 45.817383 -34.77354
29.037642 46.350834 -39.51257
28.657236 46.555233 -39.30262
28.71531 47.10786 -39.1249
28.477737 47.479507 -38.66173
28.529411 47.59463 -35.033092
28.98003 47.68756 -38.77047
28.69846 47.951984 -38.20748
28.791096 48.455517 -37.55961
28.483042 48.52112 -36.417152
28.771114 48.180138 -34.683094
29.062439 48.372864 -33.265965
28.80477 49.009098 -31.822718
29.23149 48.626987 -30.694805
29.015003 48.73548 -37.24017
28.970854 49.050903 -36.42557
29.16095 49.40771 -35.146297
29.195545 49.328217 -34.370483
28.618948 49.471798 -32.146503
28.593597 50.028976 -31.056696
29.37131 49.874794 -35.284077
29.181038 49.855133 -34.398094
28.496746 50.216278 -31.932938
28.961971 50.5602 -29.720396
28.827223 51.954903 -33.04601
28.474976 51.16452 -32.640793
28.613617 51.82569 -29.61349
28.739796 52.320423 -33.086372
28.524206 52.134106 -29.648481
28.844482 52.72987 -29.248215
28.635727 53.47553 -33.065968
28.808018 53.537918 -29.164074
28.798065 54.538994 -33.211857
28.547009 54.58336 -29.551622
28.747599 54.238216 -29.272152
28.946787 55.15852 -33.05168
28.816635 55.449623 -32.446865
28.515886 55.43945 -31.577734
28.60647 55.379093 -30.783672
28.680174 54.96875 -29.84164
29.007393 55.782997 -31.48337
28.987747 55.624268 -30.774103
29.331842 45.37243 -38.857185
29.460196 45.15484 -38.25486
29.255741 44.88456 -37.494465
29.572872 44.808582 -36.377045
29.881577 44.924263 -35.432793
30.005594 45.02768 -34.798244
29.364075 45.760956 -39.207718
29.572294 45.62797 -34.30411
29.7994 45.73292 -33.90121
29.287169 46.427868 -39.514633
29.425093 46.543682 -39.43654
29.71294 46.535816 -33.6547
30.231485 47.373474 -30.803541
29.52309 47.24139 -39.167107
29.42396 48.054466 -32.067272
29.507607 48.133045 -31.287397
29.77755 48.004353 -30.312893
29.970963 47.97871 -29.939371
29.453388 47.81978 -38.800217
29.534683 48.310795 -38.214878
29.67135 48.672405 -29.616596
29.8361 48.687557 -37.852085
29.691261 48.93836 -37.386127
29.878988 49.46983 -36.360725
29.474539 49.516117 -29.513601
29.98559 49.802864 -29.021196
29.676998 49.787453 -35.78546
29.74058 50.045116 -35.452633
29.727968 52.402496 -33.63143
29.361525 52.59831 -29.078217
29.541014 53.83946 -33.69661
29.3362 53.51065 -33.389526
29.785536 53.63532 -28.868925
29.610674 54.54331 -33.677513
29.27486 54.623703 -33.50233
29.283566 54.32964 -29.042747
29.800276 54.905075 -33.602505
29.487839 55.191444 -33.341152
29.612827 55.195045 -29.749548
29.25944 54.748764 -29.342642
29.568653 55.6829 -32.895596
29.579353 56.006462 -32.306034
29.816263 56.183445 -31.691141
29.643919 55.908478 -30.753654
31.41893 42.85985 -20.546358
31.32792 44.154182 -31.427254
31.387323 43.087337 -20.949793
31.428726 43.29278 -20.502998
30.02626 45.332405 -38.22675
30.31603 45.27599 -37.72289
30.584623 44.928158 -36.76463
30.577002 44.762184 -35.512154
30.459068 44.85576 -34.678535
30.626404 45.20353 -33.89704
31.060753 44.756657 -31.552698
31.319708 44.33154 -30.518404
31.453447 44.478363 -29.995287
29.93638 45.8892 -39.073284
30.317537 45.71206 -38.44389
30.615107 45.419964 -37.587505
30.915794 45.62357 -31.505728
31.413841 45.565666 -30.008413
30.14255 46.48638 -39.190357
30.494162 46.989906 -31.751694
29.970135 47.299473 -39.047783
30.317924 47.88218 -29.684519
30.500807 48.017597 -29.333189
30.022614 47.79226 -38.76143
30.55531 48.15513 -38.321915
30.09789 48.657116 -37.899475
30.41421 49.062435 -37.17876
30.396181 49.82202 -28.744312
31.388084 49.05049 -27.129816
31.060339 50.5212 -28.851715
31.059715 51.758366 -28.911238
30.50576 52.58154 -28.917555
30.592793 53.660564 -34.019035
30.721395 53.178177 -28.782957
30.644028 54.385273 -33.94281
30.08351 54.624744 -29.05066
30.5481 55.333626 -33.358116
30.558811 55.307472 -29.882301
30.399178 55.670185 -33.099064
30.426819 56.169342 -32.23468
30.371758 56.276333 -31.41135
30.108906 55.703274 -30.225449
32.20046 39.239174 -23.495188
32.312943 39.98243 -25.198195
32.076 39.730927 -24.230415
31.9412 39.618225 -23.488558
31.948187 39.752926 -22.874521
32.368565 40.824165 -25.987457
32.192104 41.049828 -25.712116
31.893692 40.252167 -24.390564
31.711267 40.356 -23.326118
31.838623 40.567333 -22.600773
32.0274 40.709003 -21.841877
32.160816 40.85854 -20.772814
32.342655 41.71276 -26.222733
32.08105 41.10078 -24.951036
31.922533 41.360268 -24.418533
31.83704 41.174034 -23.193228
31.930138 41.52733 -22.24699
31.693855 41.999165 -21.437435
31.705124 41.940918 -20.678501
32.208 41.8968 -19.566923
32.07042 43.344845 -32.199783
32.016506 43.216232 -31.356752
32.097004 43.050022 -30.821196
32.18077 43.051228 -29.637325
32.342346 42.754833 -27.105556
32.458088 42.20025 -26.79223
32.250423 42.418255 -25.472513
31.823162 42.350163 -22.036331
31.547346 42.93358 -21.64272
31.568802 42.548595 -20.243847
31.823654 42.75897 -19.579113
32.20473 42.86046 -19.077583
31.831947 43.966564 -32.978058
31.620083 43.827847 -32.399857
31.448084 43.903416 -31.626194
31.706413 43.623573 -30.555061
31.869099 43.57773 -29.666702
32.424866 43.21734 -27.21723
32.39926 43.234306 -26.093538
32.38142 43.08779 -24.282043
31.919968 43.558094 -22.325308
31.618652 43.515907 -21.477728
31.536184 43.743473 -20.563564
31.629038 43.431522 -19.868252
32.12139 43.581688 -19.150427
30.982727 44.966103 -36.772118
31.263094 44.824642 -36.210503
31.537031 44.758144 -35.30608
31.235977 44.78369 -34.49996
31.572023 44.62523 -29.721937
31.849924 44.771442 -28.87747
32.182236 44.362118 -22.661926
31.872152 44.439213 -21.318064
31.744982 44.291832 -20.68569
31.96465 44.23992 -19.77969
32.119434 43.93154 -19.165379
31.185621 45.398335 -37.17317
31.621025 45.057667 -29.843763
32.259823 45.123768 -21.37908
32.339054 45.105064 -20.395937
30.983892 46.525623 -38.332367
31.80526 46.855114 -28.897938
32.133297 46.868916 -27.665907
32.270798 46.663925 -26.490229
31.377317 47.65955 -38.115837
31.623129 47.502712 -28.149427
31.82919 47.695354 -27.34594
31.748486 47.81521 -26.373915
32.021786 47.740974 -25.702353
31.055138 48.04776 -38.195488
31.601477 48.304073 -37.633533
31.516687 48.495686 -27.147114
31.601677 48.821354 -26.395002
31.863752 48.60881 -25.918997
32.241882 48.40099 -25.184366
31.435303 48.81952 -37.01864
31.502169 49.044235 -27.272089
31.731962 49.307987 -26.41695
32.022327 49.219563 -25.920555
32.145027 49.77722 -26.322739
31.518078 50.908028 -28.511381
32.359512 52.037407 -27.516668
31.262451 52.09814 -34.31736
31.370443 52.639484 -28.838282
31.377108 53.65435 -34.16624
31.36764 53.44186 -28.784967
32.13469 53.482117 -27.866854
31.594849 54.344513 -33.963776
31.585056 54.230343 -28.8339
31.432182 55.164543 -33.19061
31.722017 55.55557 -30.357676
31.428015 54.830273 -29.53947
32.196537 54.850136 -29.003807
31.095062 55.91356 -32.622925
31.225712 56.17008 -31.474863
31.484709 55.705044 -30.746933
32.981987 39.16629 -25.258997
32.699455 39.10677 -24.309761
32.69473 38.906384 -23.419304
32.777042 38.948498 -22.742722
32.934113 39.164562 -21.434095
33.160576 39.220196 -20.640503
32.960537 39.793713 -26.290054
32.596012 39.67962 -25.474998
32.37541 39.420666 -22.272366
32.836754 39.411644 -21.18616
32.89379 39.561066 -20.513958
32.932518 39.86144 -20.104473
33.14262 40.39879 -26.802647
32.607338 40.593033 -26.22923
32.97059 40.324795 -19.672346
32.988773 41.055492 -19.120775
33.074936 42.320927 -30.993029
33.033295 42.25454 -30.76256
32.776527 41.727486 -27.202997
32.48041 41.35839 -26.620821
32.985466 41.633102 -18.858332
32.360096 43.259354 -32.418144
32.51503 42.97374 -31.50299
32.46265 42.764046 -30.329506
32.472477 42.94444 -29.283371
32.974472 42.501003 -28.195335
32.696014 42.722633 -18.802462
33.206875 42.400867 -18.427963
32.70838 43.77433 -33.21714
32.556812 43.32342 -27.070976
32.503017 43.473045 -25.222715
32.730904 43.602924 -18.727877
32.835667 44.37676 -27.578745
32.92672 44.429897 -23.609283
32.55888 44.632133 -19.36198
32.658443 44.276104 -18.973305
32.013073 45.787155 -36.783794
32.802536 45.279335 -27.719137
33.151337 46.01532 -26.26725
32.890476 46.10126 -25.927763
32.75922 45.256847 -22.388035
32.57888 45.49317 -20.645155
32.718094 45.10851 -19.779005
32.84384 44.800076 -19.296682
32.49312 46.63767 -36.711437
32.574543 46.78392 -25.35602
32.920826 46.045364 -21.295647
32.95164 45.814266 -20.6424
[...]
POINT_DATA 4025
SCALARS features_00 float 1
LOOKUP_TABLE default
0.8829968 0.81870586 0.8754496 0.785614 0.89458376 0.85414803 0.8116741 0.74018 0.95871365 0.94109035 0.8838507 0.8116889 0.7597258 0.9378015 0.95177007 0.761968 0.70495814 0.6144108 0.8799978 0.81705475 0.79343575 0.6670256 0.6659455 0.68299377 0.6596574 0.5365764 0.49272937 0.4456602 0.44342074 0.46774286 0.49849206 0.4884982 0.4857204 0.46731368 0.5053724 0.5414682 0.57840514 0.5588486 0.49970204 0.5578415 0.68195236 0.67598546 0.6546713 0.63760513 0.69971347 0.7155725 0.69607866 0.66850734 0.6880619 0.6861301 0.908983 0.87356627 0.80505633 0.7283388 0.56873226 0.9639622 0.93483317 0.47188988 0.96484053 0.94570714 0.8527286 0.7621819 0.4350229 0.71651256 0.647151 0.55594915 0.45430037 0.2835788 0.17618075 0.20771335 0.28810403 0.50238323 0.3942359 0.2564609 0.2137945 0.21162897 0.32499918 0.2506441 0.21129163 0.34236422 0.35555965 0.41153073 0.4039016 0.4393896 0.43394464 0.4819693 0.49047303 0.48457482 0.54868925 0.56755924 0.63962257 0.5966414 0.61623144 0.6744311 0.6832851 0.6642112 0.6371982 0.6770706 0.6483742 0.875738 0.7664267 0.70060205 0.5581529 0.44014573 0.3787123 0.93841183 0.36006686 0.3093409 0.9576949 0.94377583 0.23858804 0.13859287 0.8077123 0.17121097 0.2221304 0.24347088 0.23680183 0.68042004 0.5928729 0.32409936 0.5489944 0.5013089 0.36869824 0.36089987 0.28233635 0.2757873 0.22922164 0.37878227 0.3977305 0.4715801 0.46319345 0.39867455 0.52010167 0.5470573 0.51520234 0.5358452 0.58070594 0.52513844 0.547854 0.63181895 0.67062926 0.65278554 0.5991386 0.50966865 0.3517214 0.47917974 0.54251444 0.70227295 0.60175824 0.5027224 0.41527438 0.34940156 0.2680579 0.29470807 0.3192854 0.2890249 0.8969394 0.7331917 0.56753314 0.10334595 0.11653478 0.90980935 -0.012466016 0.7695546 0.18522371 0.15806465 0.65966666 0.5961581 0.5535709 0.4994105 0.1578079 0.36190057 0.044129945 0.029925099 0.17765468 0.38474 0.19638704 0.44071424 0.41849208 0.52928907 0.37885708 0.5776449 0.6126432 0.5656347 0.48706228 0.5562743 0.46009463 0.5129296 0.5282978 0.5144401 0.35893765 0.34300047 0.4642238 0.44574398 0.40315092 0.38098043 0.4597063 0.2696864 0.3629808 0.34653378 0.33365947 0.30769086 0.3647496 0.43486655 0.56152433 0.34589833 0.3417256 0.3227405 0.28544983 0.18529113 0.22627093 0.2287997 0.3319481 0.4069581 0.53236735 0.6149175 0.5956056 0.28366625 0.34910542 0.36373758 0.34888327 0.318298 0.14992702 0.15992364 0.16320737 0.37419748 0.45845196 0.56602836 0.6219378 0.6305729 0.49187183 0.44851512 0.35130477 0.27053136 0.25268635 0.10838387 0.39536852 0.5440324 0.5929196 0.6454196 0.6364578 0.48761177 0.19829187 0.58446234 0.6199434 0.71750516 -0.14875692 0.0997337 0.23921193 0.6063821 0.06321749 0.2775471 0.3970523 0.47321543 0.60102594 0.5609832 0.36531544 0.431702 0.4588564 0.48831663 0.52441806 0.3478944 0.4138205 0.43135023 0.37895894 -0.06494712 -0.102886476 0.14500439 0.03357967 0.2739598 0.1350403 0.045387447 0.3137129 0.16668032 0.43483424 0.24460532 0.22801353 0.04159683 0.5388757 0.41751918 0.31052396 0.5059426 0.5504705 0.5700555 0.5605817 0.5239597 0.5086294 0.43906346 0.47134382 0.5393152 0.5133028 0.5022439 0.49648988 0.38701934 0.37652507 0.48814598 0.4777912 0.22865868 0.21206482 0.2391335 0.29418164 0.48257625 0.3259708 0.31530467 0.27456167 0.22083634 0.0958049 0.54019904 0.48505616 0.25418687 0.14217238 0.13822779 0.5696176 -0.0692697 0.23205096 0.6175312 0.59964585 0.4304541 -0.1358226 0.120645925 0.20145535 0.53397954 0.60996675 0.60788375 0.59618795 0.33539456 0.45308825 0.605599 0.59786284 0.5424588 0.42991388 0.49539852 0.4705068 0.4365589 0.39694855 0.45949644 -0.26535627 0.21282484 -0.010136329 0.029994862 -0.00078318175 0.09361337 0.10611255 0.08228995 0.42837527 0.46787232 0.21377097 0.11258178 0.055085316 0.36472818 0.5409428 0.5276929 0.5084949 0.20649889 0.16532858 0.14827974 0.43868208 0.4859619 0.615664 0.6219189 0.62718225 0.4326313 0.48599803 0.55251205 0.5645215 0.5451902 0.52106243 0.50342244 0.49034798 0.4103523 0.43477026 0.47996873 0.45610696 0.24281956 0.44592756 0.16763267 0.07327576 0.041022778 0.450585 0.44606882 0.25674063 0.25334433 0.47335047 0.45719957 0.114922464 0.24912609 0.50040776 0.48098436 0.15002926 0.53389096 0.0987581 0.5570765 0.54036224 0.11173632 0.32930255 0.52266127 0.58842564 0.56829256 0.5478574 0.34170994 0.42534268 0.3858484 0.4638216 0.29900315 0.08889295 -0.13671893 -0.32163936 -0.062357254 -0.06552506 -0.18793067 0.033541255 0.09530641 0.0028559119 0.35975957 0.50734323 0.36375287 0.033726506 -0.080678016 0.097979106 0.62279934 0.5529573 0.50188255 0.5970377 0.6367816 0.45583302 0.5059158 0.446238 0.49030596 0.48394963 0.47453701 0.45850527 0.4411946 -0.013479147 0.008570507 0.025471404 0.19546783 0.4383107 0.45787275 -0.016243566 0.021446139 0.43779173 0.14691015 0.4187176 0.1305412 0.38363072 0.4310487 0.4262153 -0.05718416 0.45408767 -0.09275853 -0.061893243 0.48819664 0.46473938 0.5054709 -0.120213576 0.24728137 0.26066047 0.5487951 0.41832662 0.55757487 0.5534669 0.44867486 0.36875868 0.22106251 0.17728908 -0.07095117 -0.22734395 -0.050506867 -0.04015305 0.09058748 0.1903096 0.23810935 0.25678086 0.43411303 0.30348212 0.24888737 0.35675216 0.030367069 -0.014693718 0.11374633 0.48984453 0.30082798 0.15057975 0.03427884 -0.008188989 0.05340359 0.26191914 0.41166624 0.49902397 0.559028 0.5662993 0.37285644 0.3979423 0.44155818 0.26479816 0.30935 0.37526128 0.42133892 0.44444126 0.42752236 0.25693744 0.23337758 0.1758365 0.042282082 0.44377327 0.4831028 0.45578375 0.41248202 0.31223932 0.2606205 0.03548912 0.03280613 0.03400793 0.003680855 0.5059178 0.49789625 0.43841448 0.4276769 0.41239 0.1661937 0.10943634 0.48021755 0.4693671 0.39775163 0.36067876 0.2511479 0.43663618 0.6051034 0.5612173 0.47573048 -0.23562376 0.34259245 0.3698729 0.68237936 0.694088 0.65896183 0.65385246 -0.032259017 0.29342884 0.30936754 0.72378504 0.7300802 0.7160944 0.6238769 0.32477054 0.7249435 0.7425168 0.7344755 0.6584282 -0.075970404 0.42212433 0.7415791 -0.17015655 -0.15771717 -0.20089132 0.44965962 0.13562407 -0.24762347 0.58591384 0.52538264 0.5994323 0.017034441 0.558926 0.49284604 -0.27858078 -0.14043112 -0.054872088 0.37958384 0.09856397 0.07540328 -0.30991593 -0.18786627 -0.13022742 0.04344237 -0.14794487 -0.032406338 0.15358923 0.06117127 0.12100001 0.20702666 0.21862856 0.24264726 0.19683138 0.27366742 0.3152933 0.3123353 0.24546781 0.28707772 0.40615565 0.30836973 0.14156847 0.09361832 0.027235666 0.32908076 0.40972537 0.17504537 0.3014633 0.33000857 0.67319703 0.7047205 0.6523807 0.70460165 0.54563427 0.2958366 0.34513766 0.3769346 0.28905907 0.39129657 0.39216447 0.45148802 0.44022995 0.38197303 0.2514626 0.26585126 0.19685267 0.025010437 -0.12776163 -0.2469149 0.0033383146 0.14775941 0.48469403 0.54249996 0.37680233 0.39555195 0.4536491 0.46361116 0.5633444 0.39684373 0.3800605 0.40242326 0.55582315 0.49005562 0.47516757 0.34400594 0.47652757 0.559951 0.532261 -0.35080644 -0.33139482 0.38404387 0.41848475 0.621715 -0.1963603 0.34448358 0.6774342 0.33489236 -0.31102908 0.70342064 -0.09935796 -0.01972156 -0.023601998 0.67008716 0.6995066 0.6894725 0.08686764 0.26984912 0.10726962 0.57307994 0.09610166 0.62485707 0.04059115 0.07688 0.5662813 0.12885718 0.31774446 0.49466127 0.2139132 0.11600165 -0.034271635 0.16863687 0.27650046 0.36585006 0.034740828 0.3318082 0.3629634 0.016423602 0.24267307 0.32475024 0.35495222 0.05390129 0.074006036 0.28885648 0.3297312 0.34738097 0.2970822 0.3274036 0.20833968 0.01237146 0.020732494 0.30614418 0.24639682 0.5896056 0.55668414 0.23290351 0.08575587 0.0777154 0.008624282 0.15430984 0.21070537 0.6408562 0.7354405 0.7659855 0.77776814 0.67056936 0.67814416 0.7381681 0.74907106 0.5550662 0.71345264 0.3302317 0.38019323 0.45705205 0.40287337 0.45086294 0.63501686 0.3077066 0.22046047 0.30143246 0.38398805 0.38528135 0.2533576 0.32297534 0.48365113 0.39340773 0.39244777 0.4030885 0.39654225 0.34052676 -0.016997442 0.3534599 0.5146674 0.55663043 0.3492799 0.38062376 0.56982964 0.5927416 0.37501347 0.35412568 0.6056896 0.42240745 0.5937387 0.43645084 0.46451852 0.4598686 0.5610248 0.49545002 0.42481247 0.60356605 -0.39460528 -0.3875486 0.3371876 0.6098912 0.0863122 0.037296124 0.6083597 0.52261007 0.0033762231 -0.5131283 0.56224394 0.05632407 -0.02715978 0.044552304 0.4452343 0.12814271 0.5170563 0.37315834 0.26652884 0.3034202 0.37025803 0.35310194 -0.024024457 0.3713354 0.36195743 0.36120406 0.35619253 0.0027273009 0.35779136 0.22586766 0.33471835 0.34521824 0.50231135 0.51498103 0.42213345 0.022177145 0.14695643 0.2721519 0.5681834 0.56678814 0.57333285 0.015866678 -0.010715359 0.011665785 -0.0008445922 -0.015807956 0.10872789 0.64613664 0.65778685 0.64762044 0.5572931 0.66360784 0.6582273 0.6135418 0.54752547 0.8723109 0.8209219 0.8285005 0.8520469 0.8587041 0.7022159 0.7480341 0.7782815 0.55010676 0.6411593 0.32935506 0.35135907 0.4830513 0.22619867 0.33613494 0.35057545 0.037143484 0.40339392 0.4846578 0.29686266 0.39838463 0.5007153 0.57595617 0.28952175 0.24158895 0.6146436 0.6297983 0.32250026 0.6598264 0.6559284 0.33377266 0.6314733 0.34493166 0.43140388 0.5459238 0.44635665 0.30874914 0.4779406 0.24385372 0.4278484 0.4625376 0.10388891 0.20657155 0.40355694 0.3227499 -0.13900805 -0.08713058 -0.0443412 0.23533988 0.13017023 0.14585485 0.2780566 -0.027608912 0.2871755 0.5504066 0.54078543 0.003062889 -0.008241236 0.30414647 0.5292163 0.4977796 -0.03253272 -0.034253247 0.33406645 0.52861106 0.4847996 0.47636902 -0.05030297 0.34118715 0.5280796 0.36277986 0.32431608 0.32915777 0.33261043 0.5017235 0.26047644 0.27664375 0.586349 0.18440345 -0.06301607 -0.12879625 -0.047476664 -0.040287405 0.6438838 0.6580337 0.4782338 0.008194208 0.05695285 0.6540977 0.6277633 0.58574176 0.53098106 0.45999637 0.56900775 0.5520657 0.5297602 0.89384097 0.89828306 0.89351773 0.8658797 0.8860802 0.87489223 0.8330449 0.80729204 0.6941242 0.6345116 0.5817678 0.47107726 0.2910615 0.30328926 0.50678223 0.42962506 0.4467976 0.2016092 0.07582832 0.22753951 0.28438455 0.27954605 0.28792155 0.15810087 0.18523662 0.2942981 0.2828421 0.39685982 0.5142793 0.5673901 0.12685807 0.44530237 0.52798176 0.5951397 0.15971202 0.56747484 0.6437149 0.2596538 0.22548245 0.50718737 0.6201185 0.24735495 0.4570616 0.54419744 0.30309883 0.3257886 0.3494015 0.3776432 0.31105343 0.3372725 0.32784832 0.28199667 0.21408552 0.1070828 0.11151431 -0.15774961 0.065435514 -0.23921606 -0.21865024 0.08119309 0.10098815 -0.080127664 0.14158453 0.6935091 0.66161776 0.60527235 0.54414165 -0.029978268 0.21465626 0.68113774 0.66979074 0.63078356 0.56804925 0.48792338 0.40205014 -0.00042404234 0.15791047 0.6690298 0.6204524 0.5623026 0.3806706 0.31502232 -0.007043466 0.2672703 0.2211763 0.7189861 0.6949905 0.60985696 0.5455968 0.4750421 0.41148007 0.34147844 0.2799016 0.24809675 0.73894405 0.7130586 0.65685195 0.5421969 0.5029186 0.49035102 0.41810295 0.43549824 0.25307584 0.7214397 0.66257906 0.5891243 0.5029554 0.5739447 0.58976156 0.61826015 -0.1787902 0.068421505 -0.0058702687 0.6369579 0.09113617 0.08479124 0.10048391 0.1183172 0.11171688 0.5892966 0.5639907 0.4077968 0.30301023 0.1815534 0.108756244 0.11785419 0.11865871 0.116898164 0.5270573 0.5251502 0.50838536 0.48976484 0.45822608 0.37884498 0.9127306 0.91300607 0.90027344 0.893649 0.9285867 0.91761416 0.8892089 0.84053415 0.8175422 0.7811767 0.45860696 0.46612734 0.59942937 0.56516623 0.2605878 0.19694512 0.26186994 0.3690374 0.37372553 0.34058094 0.243613 0.04286146 -0.105254315 -0.122526966 -0.16408707 0.24513471 0.15172413 -0.31196135 0.21027286 0.13886344 0.07302348 0.120675735 0.02218131 0.28576317 0.50028527 0.06355055 0.12814836 0.38579768 0.4918644 0.031704713 0.1523488 0.2549443 0.45856035 0.012612898 0.10795149 0.23917982 0.16911538 0.28695545 0.25227642 0.38322005 0.21813527 0.319358 0.22874483 0.22449988 0.123814076 0.088574275 0.117163435 0.1525397 -0.020048426 0.11317383 0.66192544 0.63807356 -0.22029144 -0.20355496 0.06259834 0.6973146 0.6855264 0.649153 0.5955308 -0.22702986 0.009581491 -0.075484686 0.68624073 0.6883869 0.28526008 0.17494765 -0.052812457 0.061360795 0.69653106 0.6817483 0.24305415 0.118058756 -0.047770903 0.7500188 0.28789723 -0.09046365 0.19314751 0.7866029 0.76616466 0.31016055 0.22903362 0.7866666 0.7521608 0.66805387 0.5829418 0.5128372 0.46707016 0.57447785 0.24766245 0.26810658 0.72432995 0.6836722 0.6010878 0.3290161 0.35100234 0.5313451 -0.32295084 0.10479688 0.06300541 0.1622146 0.32782817 0.363703 0.50459564 0.47180432 0.40328205 0.31791455 0.45036295 0.1909146 0.12102691 0.122028396 0.101305574 0.06318304 0.44107425 0.47647583 0.47575182 0.45529348 0.5176168 0.48371303 0.40192467 0.3246169 0.5046012 0.54316187 0.5357784 0.46822393 0.9368782 0.92027074 0.88920075 0.5283016 0.588722 0.6442584 0.6612704 0.8610569 0.89051175 0.8444301 0.81188166 0.20863122 0.42324105 0.44733092 0.5613282 0.65349424 0.75448257 0.6849106 0.643142 0.21394981 0.26047778 0.36897773 0.35440361 0.11134418 0.098875985 0.217529 0.2587165 0.26198998 0.26909244 0.27079892 -0.02994866 0.19980036 0.2609721 0.13455924 0.13288364 0.059150048 0.117380835 -0.01978866 0.06630718 -0.09421381 -0.07903272 -0.1208788 0.02050862 -0.16276476 -0.36088803 -0.23502465 0.01793834 0.0115585625 -0.44396794 0.12339615 0.06759817 0.05007443 0.27690423 0.11870909 -0.113487326 0.26146254 0.059014447 -0.24720976 0.15945897 0.01124052 0.15556285 0.008005649 0.0012332499 0.61855537 0.58043426 0.3892576 0.09937139 0.028923497 0.012955859 0.67218447 0.6421912 -0.08786689 -0.2245683 -0.0061311573 0.12662487 0.6849266 0.08052715 0.72150826 0.0108882785 0.8272519 0.15193221 0.8627032 0.2729556 0.069433436 0.8218343 0.7778648 0.37951732 0.49133974 0.3257954 0.7469901 0.66112846 0.6004548 0.5149581 0.3242665 0.36168844 0.34986922 0.4026088 0.37243944 0.36640942 0.3764258 0.39253154 0.35419756 0.31596524 0.0624128 0.039875314 0.14813119 0.30000806 0.3580444 0.40765154 0.3253919 0.37527734 0.2413174 0.15417701 0.08306533 0.09521912 0.4571098 0.50907457 0.53238213 0.43832824 0.33017272 0.21513766 0.47167006 0.5106132 0.46125513 0.58802843 0.6066567 0.63013244 0.54287225 0.57887554 0.6481246 0.67810327 0.6880191 0.7653352 0.32669675 0.22442195 0.6863117 0.72916305 0.48740384 0.34001327 0.23750779 0.25397477 0.061998207 0.19714502 -0.17106909 -0.12904698 -0.0092033 0.054737817 0.067317545 0.04008215 -0.021135211 -0.026110858 -0.110946134 -0.047465988 -0.11577852 -0.21029392 -0.2649174 -0.23891285 -0.34786558 -0.09481387 -0.039029993 -0.054326575 0.11399109 -0.0023468658 0.32817367 0.003840804 0.27589983 0.40567005 0.49861777 0.11013971 -0.0375437 0.20860267 0.35885412 0.42959115 0.6149368 0.56799996 0.22021893 0.3000303 0.38159132 0.6448035 0.16817193 0.29184288 0.37214273 0.72961116 0.6520115 0.80061746 0.23133987 0.809313 0.79821527 0.7628327 0.39198363 0.2563479 0.27533832 0.27012557 0.31768793 0.76348615 0.70811355 0.6815975 0.57951605 0.30481794 0.36872786 0.28768468 0.3749361 0.3153164 0.29600397 0.22929397 0.30570444 0.3475499 0.21162651 0.008140311 0.3177628 0.32350442 0.3818392 0.41756487 0.2719077 0.2837025 0.39096957 0.45062482 0.442425 0.45708188 0.38530558 0.33409476 0.37079683 0.47230825 0.4800319 0.5462724 0.5680673 0.62128365 0.6404778 0.46724772 0.4609595 0.44652987 0.49540728 0.5917459 0.6427522 0.665573 0.41463473 0.4210929 0.40552348 0.63600063 0.34000963 0.31043494 0.2966518 0.2733946 0.22032781 -0.17752545 -0.105062574 -0.041569352 0.04575371 -0.04314401 0.1794181 -0.054945864 0.33442008 0.07250996 -0.08632628 0.021209758 -0.10836586 -0.275747 -0.12772173 -0.20501357 -0.30115086 -0.27634734 -0.26366746 -0.23839302 -0.1637598 -0.19792089 -0.054379616 -0.030258406 -0.03565065 -0.04920065 0.23775554 0.35109544 0.4976375 -0.032659747 0.44373763 0.564268 0.60184157 -0.0003182888 0.5039502 0.57546663 0.3805563 0.19974512 0.42135495 0.4804084 0.45679647 0.39580023 0.45219532 0.58545613 0.3802771 0.72893727 0.6272475 0.2338177 0.36912394 0.42164063 0.7636379 0.69379413 -0.6063489 0.7661091 0.7418587 0.7148536 0.2344291 -0.02335781 -0.4910677 0.31080633 0.72164583 0.7212749 0.7028419 0.59838426 0.21276024 0.34845173 0.27493492 0.2076005 0.34130046 0.34368503 0.28287232 0.27103388 0.20141006 0.17019476 0.32524347 0.32379758 0.11005542 0.2578464 0.267793 0.33597046 0.20939632 0.17786244 0.48753762 0.3495512 0.3599921 0.33552998 0.28684995 0.19683628 0.28880513 0.419038 0.5047978 0.53765744 0.5339626 0.47756803 0.48669565 0.2809583 0.47306004 0.5608399 0.6021521 0.3719637 0.42027158 0.45520523 0.5846554 0.56955826 0.33889782 0.3728214 0.406954 0.2790911 0.21430314 0.14145564 -0.12983346 -0.122566454 -0.13111444 0.05845788 0.13757268 -0.01206211 0.06381828 0.20820934 0.30643025 0.16824126 0.093999624 0.37701213 0.17953518 0.09456451 0.14331962 0.25237474 0.22208834 0.0010871217 -0.080808684 -0.0358811 0.003151346 -0.25936967 -0.06948837 -0.17076612 -0.34419173 -0.30248332 -0.23678991 -0.22274424 -0.18169002 -0.13868606 -0.08733785 -0.07280202 0.24867387 0.39800787 0.44927824 0.50366783 0.13064572 0.53873247 0.60990393 0.1939649 0.6195749 0.61560214 0.075423196 0.5982286 0.60460114 0.15302059 0.5755638 0.58505523 0.29249758 0.17974891 0.50040877 0.41386935 0.23381399 0.11534837 0.44705832 0.46564174 0.4484976 0.28667903 0.06217175 -0.015862972 0.43725923 0.45181537 0.5429455 0.52583617 0.39637905 -0.5547546 0.28183055 0.39203233 0.41249913 0.66710395 0.67590845 0.6474721 0.2529801 -0.3718564 -0.6369777 0.7232978 0.38462135 0.29490444 0.7138531 0.20502314 0.14535692 0.28796807 0.32117504 0.78892636 0.78026795 0.2169533 0.24607317 0.81010026 0.24390526 0.26250678 0.16886222 0.13430464 0.47541523 0.30088347 0.26782542 0.26003385 0.15313081 0.32777143 0.44435436 0.535759 0.550162 0.4475375 0.45638967 0.4460299 0.30875877 0.17426991 0.51154345 0.3668922 0.3745454 0.48041594 0.52008545 0.49660698 0.29883522 0.3309836 0.24692035 0.25841022 0.09193268 0.21787007 -0.05105635 0.38245308 0.34906256 0.22236642 -0.090977214 0.16111967 0.3726242 0.32105973 0.24249886 0.40022063 0.2851833 0.30938813 0.32491484 0.025125157 0.15673444 -0.18165213 -0.08452008 -0.17985767 0.04035057 0.13719729 -0.04896409 -0.06450127 0.2983192 0.24125046 0.15142758 -0.15075362 0.18198979 0.3455089 0.43916905 0.4950167 0.22061686 0.5586952 0.58896166 0.23479617 0.61166906 0.6061616 0.21170494 0.5872908 0.5577624 -0.07134916 0.519546 0.014871269 -0.0019907728 -0.21565737 0.47255206 -0.09995952 -0.2341902 0.43193784 0.44411352 0.35403103 0.41003722 0.3863691 -0.20064662 -0.50141597 0.5405521 0.56096274 0.14230494 -0.36770394 0.19191357 0.6557267 0.60442567 0.40092057 -0.31621772 0.13001579 0.19778365 0.73476416 0.78546834 0.72137666 -0.09745237 0.14872646 0.7789804 0.80298615 0.795025 0.76078683 0.24111603 0.24447921 0.7781081 0.767246 0.28225195 0.2840976 0.10476736 -0.0067658573 0.3440855 0.21432534 0.16003218 0.41336405 0.5130013 0.5109719 0.34023798 0.36009502 0.15323104 0.3009853 0.28438187 0.33921522 0.21785599 0.098664984 0.23937389 0.30819222 0.23830302 0.16779554 0.16513765 0.42276004 0.38540828 0.2930551 0.050667025 0.4418448 0.3857386 -0.23422284 -0.2765903 0.4267911 0.4886018 0.4251785 0.486744 0.44723684 0.34832034 -0.038601574 0.4977165 0.44388592 0.27239963 0.2238895 -0.044204522 0.42678002 0.10573424 -0.059842452 0.10993982 0.14442477 -0.20226961 0.14946598 0.014208509 0.35432047 0.060901657 0.47469696 0.5104515 0.33656192 0.5468588 0.5822793 0.313744 0.5761369 0.5362965 0.5687518 0.04264756 0.4935153 0.5236608 -0.27925843 0.4493782 -0.23343626 0.4573276 0.40931252 0.43538994 0.22331484 0.3022176 0.36694342 0.31407818 0.13580966 0.20918445 0.24663904 0.06875858 0.5419285 -0.25390232 0.6611146 0.706824 0.4930495 0.056806207 0.035376355 0.7485986 0.7765677 0.7327319 0.6695736 0.18021773 0.09748313 0.77558184 0.7635066 0.7324192 0.35604778 0.35626966 0.309062 0.14082003 -0.08602751 -0.09117193 0.12222379 0.194941 0.12895055 0.25871322 0.19877967 0.1763024 0.3121754 0.18865122 0.18871304 0.07456638 0.15158056 0.162809 0.15698114 -0.008986816 0.08688146 0.16963802 0.19200306 0.39534998 0.2781454 0.1