# vtk DataFile Version 2.0
Really cool data
ASCII
DATASET POLYDATA
POINTS 9588 float
-16.816761 82.37212 210.13216
-16.668606 82.739136 208.93608
-16.934729 82.76737 209.58954
-17.087934 82.80215 210.26039
-16.900583 82.91775 211.08513
-17.051981 83.816345 209.01576
-17.141043 83.52765 209.47475
-17.286259 83.51332 210.41653
-17.023947 83.44678 211.09973
-16.948 84.099464 208.88591
-17.173634 84.44796 209.63367
-17.189941 84.47478 210.21425
-16.781544 84.006485 211.67378
-16.564554 84.29412 212.0818
-16.956398 85.06514 209.70615
-16.974922 85.135704 210.0998
-16.368322 82.24664 209.4745
-16.463295 82.29919 210.4136
-15.980417 82.8267 207.81468
-16.465796 82.86917 208.4525
-16.628506 82.49011 209.40665
-16.633493 82.45038 210.47078
-16.393452 82.701775 211.263
-16.053164 83.186844 212.21844
-16.105627 83.16192 207.69235
-16.146278 83.6177 212.39252
-15.944411 83.79383 212.67976
-16.278107 84.583336 212.3197
-15.919388 84.36849 212.73412
-16.352951 85.22423 208.80937
-16.498093 85.49354 209.58296
-16.423424 85.47933 210.64186
-16.45579 85.20313 211.22975
-16.078768 84.99826 212.22403
-15.815969 84.835846 212.66698
-16.297224 85.65492 209.7561
-16.390615 85.71759 210.05003
-16.01751 85.65744 210.97626
-14.540103 78.991844 200.16612
-14.535464 79.31637 199.95372
-14.612183 79.28819 200.44672
-14.528993 79.374535 201.38483
-15.237261 82.42461 211.67267
-15.681704 82.60041 211.6225
-15.544325 82.89303 212.14919
-15.018273 83.23998 212.6394
-15.388806 83.878555 207.16902
-15.531021 83.38129 212.60297
-15.524673 83.7383 212.79216
-15.397304 84.41666 212.86047
-15.617496 85.168724 208.09592
-15.368663 85.212364 212.47026
-15.479727 84.957565 212.69685
-15.175548 85.982895 208.81693
-15.427827 85.94349 209.41595
-15.340844 85.87783 211.4706
-13.673829 75.04758 199.08366
-13.594123 74.88143 199.70349
-13.725996 75.70542 198.59317
-14.006456 75.76672 199.44424
-14.142446 76.124176 200.39644
-13.842102 75.94972 201.3183
-13.732755 76.50456 197.9786
-14.05222 76.72346 198.66368
-14.137798 76.515625 199.59422
-14.1945915 76.50543 200.42667
-13.875521 76.72607 202.25536
-13.792487 77.64079 198.05365
-14.145084 77.35474 198.57907
-14.388926 77.1768 199.52231
-14.333907 77.37301 200.72873
-13.832809 77.82956 203.38808
-13.560617 78.13531 207.22556
-13.652705 77.99841 208.35
-13.742931 78.315475 198.1643
-14.225323 78.62916 199.16277
-14.379995 78.29377 199.58713
-13.947747 78.76289 204.44981
-13.681917 78.78883 205.07831
-13.817987 78.252205 207.74469
-13.925417 78.72682 208.40479
-13.790495 78.987045 208.85089
-14.013164 79.356 198.74168
-14.409199 79.62653 199.65346
-14.491552 79.23126 201.6148
-14.243773 79.76519 202.44034
-14.024536 79.332 204.1345
-13.697991 79.35776 209.10077
-13.92647 80.17155 199.07576
-14.344755 79.88061 199.7507
-14.390904 80.156525 200.51848
-14.304389 80.462395 201.53905
-14.195731 80.431366 202.20609
-14.074862 79.90956 203.79875
-13.750109 80.322205 204.41801
-13.982768 80.75348 208.10686
-13.777137 80.74741 199.77866
-14.083319 80.99589 201.31598
-14.676649 82.95625 212.49031
-14.141176 83.563156 206.3065
-14.68735 83.63937 212.77011
-13.710849 85.19579 199.43652
-14.554302 84.4351 206.79706
-14.825019 84.431625 212.84492
-13.908139 85.83717 198.54643
-13.919017 85.6835 199.3347
-13.96574 85.77719 199.87816
-14.045037 85.64279 206.87816
-14.492401 85.567856 212.09647
-14.721575 84.96734 212.6389
-13.785704 86.09656 198.22783
-14.001573 86.359276 198.73477
-14.027665 86.41365 199.56976
-13.607163 86.623924 200.42441
-13.863326 86.00297 207.02237
-14.614778 86.2216 207.95297
-14.497668 86.36884 208.94281
-14.72108 85.97402 209.6988
-14.25506 85.649796 211.87074
-13.823173 87.07169 198.44917
-13.844525 87.65815 199.54134
-13.631096 87.52367 200.1915
-13.634544 88.14493 198.49022
-13.680827 88.32234 199.2785
-13.62519 88.01657 200.2128
-13.5339 89.39333 203.88141
-12.954743 74.35514 198.89052
-12.945623 74.16212 199.62325
-12.926848 74.14404 200.67662
-12.818109 74.200874 201.48778
-12.941896 75.01608 198.07993
-13.109435 74.67862 198.58958
-13.405021 74.63007 199.69008
-13.446462 74.804855 200.59569
-13.206759 74.62794 201.29454
-13.112528 74.94339 202.01079
-13.252261 75.66227 197.98473
-12.747685 76.30583 207.68576
-12.929267 76.6614 197.33978
-13.452255 76.72851 197.68646
-12.759306 76.32251 204.02942
-12.928902 76.61896 207.87791
-13.135642 77.07705 208.44711
-13.023987 77.25933 208.84308
-13.009856 77.396095 197.38675
-13.427399 77.44932 197.59656
-12.929604 77.162605 205.20934
-13.39832 77.464355 207.41835
-13.118923 77.66151 209.15538
-13.073217 78.18969 197.65732
-13.507004 78.53319 204.99811
-13.559245 78.57086 209.14023
-12.809856 78.43957 209.9345
-13.382493 79.667885 198.36482
-13.540429 79.713844 198.4681
-13.308371 80.34655 205.30792
-13.255312 80.780754 206.49435
-13.569813 81.49409 201.64456
-13.127149 81.08816 204.7955
-14.010852 82.64322 211.71062
-14.064024 83.02321 212.31891
-12.8067665 83.91715 205.28497
-13.853423 83.54811 212.37775
-14.117509 83.67398 212.6489
-13.170726 85.160194 198.24098
-13.646873 85.22496 198.61655
-13.36352 84.83901 199.24844
-13.060716 84.66954 200.46548
-13.000092 84.94029 205.36218
-14.12088 84.2858 212.72351
-13.4115505 85.788086 198.0386
-13.3298235 85.051254 205.89626
-13.826103 85.52497 211.71887
-13.801822 84.858635 212.23235
-13.292558 86.46577 197.85266
-14.015413 85.91247 211.26283
-13.306285 87.35115 197.99638
-13.426084 87.77579 200.66795
-12.679837 87.85905 204.53333
-13.043322 88.5615 198.05978
-13.443333 88.714325 198.64696
-13.12752 88.64563 203.37137
-13.272941 88.92862 204.78912
-12.823075 88.954796 205.6661
-12.933158 89.05313 198.21114
-13.198942 89.08397 198.6038
-13.187506 89.190834 199.46799
-13.356204 88.875046 199.89743
-13.2387495 89.50332 203.04208
-13.444314 89.156006 203.76556
-12.862798 89.25909 205.68813
-13.240009 90.179436 203.69662
-13.302368 90.23529 204.32129
-12.747701 90.25096 208.45938
-12.550319 90.66294 209.2609
-12.608917 91.0146 206.48033
-12.637429 90.906975 207.48734
-12.359007 74.29497 198.55742
-12.356893 74.008606 199.36403
-12.382273 73.80588 200.54071
-12.295439 73.903786 201.28609
-12.479307 74.74206 198.03752
-12.414242 74.514275 198.32896
-12.054545 74.976585 205.92441
-11.966477 74.79571 206.53967
-11.84635 74.66113 206.97746
-12.277744 75.45521 197.67386
-12.513826 76.016846 204.9435
-12.562455 76.34607 197.43948
-12.263635 76.8212 209.13194
-12.5909815 77.3444 197.3516
-12.637545 77.32005 209.33014
-12.031944 77.866295 210.15106
-12.811643 78.05976 197.52478
-11.907852 78.73151 210.66682
-12.599981 79.51665 198.324
-12.692162 80.35501 198.78017
-11.864175 80.456764 210.22853
-12.679249 83.39339 210.83592
-12.501799 85.030136 198.50804
-12.606727 84.74306 205.05016
-11.970245 84.783356 210.96718
-12.557772 85.906944 197.85814
-12.54091 86.4421 197.74742
-12.519457 87.57425 197.76445
-12.444837 87.662315 203.7635
-12.674865 88.51223 197.87453
-11.851877 88.64817 208.96945
-12.506223 88.99179 198.08891
-12.537854 89.3915 198.46878
-12.340198 89.45651 208.41376
-12.175863 89.70075 198.73582
-12.011335 89.88705 199.3523
-11.95404 89.773575 200.25642
-12.003857 90.50742 210.38261
-11.779452 90.82159 211.36772
-12.603648 90.962845 203.51044
-12.480977 91.399765 204.81915
-12.250715 91.543655 206.4401
-12.428141 91.09457 207.53735
-12.452356 91.19264 208.85962
-12.188124 91.17077 210.4691
-11.809762 91.75241 211.59644
-11.828797 91.99555 211.85626
-12.099091 91.636375 206.4802
-12.221253 91.658394 208.3257
-12.067951 91.91987 209.76114
-12.096583 92.30666 210.6298
-12.045205 92.52792 211.24382
-11.756887 92.13794 211.90527
-11.983245 92.99099 210.8665
-11.710841 93.5204 211.40399
-11.672459 93.229126 211.85846
-11.830154 74.27741 198.70023
-11.8294115 73.92976 199.57454
-11.685442 73.77257 200.49927
-11.610275 73.76808 201.24939
-11.260795 73.89929 206.60255
-11.233837 73.9586 207.30902
-11.772128 74.75508 198.12845
-11.532504 74.42203 198.7232
-11.587636 74.369606 207.21683
-12.058029 75.69207 197.60434
-11.848854 77.4581 197.64294
-11.653721 77.75091 210.39558
-11.066302 78.108086 210.82036
-11.623186 77.98041 197.92784
-11.066165 78.44083 210.86829
-11.245637 79.37418 210.91751
-11.195412 80.04645 210.74423
-10.831108 83.21531 202.14172
-11.65805 83.33514 210.30373
-11.570816 84.592766 199.32259
-11.740908 85.66847 198.30226
-11.441544 85.62967 198.50247
-12.000557 86.462585 197.84856
-11.660257 87.72784 197.93552
-11.771958 88.470314 197.9895
-11.833548 89.06418 198.17618
-11.527314 89.33063 198.61807
-11.59419 89.88746 210.44032
-10.978805 89.8928 211.82957
-11.722422 89.645615 198.93385
-11.263197 89.77202 199.40083
-11.318428 89.731735 201.45459
-11.250509 91.04161 202.74664
-11.170467 91.62334 212.4027
-11.188301 92.04998 204.00769
-11.515536 92.07591 204.7069
-11.246471 92.091324 205.35205
-11.494792 91.879295 207.90193
-11.292435 92.56142 212.35207
-10.936352 92.64932 212.64859
-11.456248 93.30549 210.10248
-11.57398 93.659195 211.68884
-11.233751 93.51153 212.23994
-11.305424 93.867615 210.73297
-11.134654 94.18925 211.37709
-11.15386 93.960014 211.97722
-9.608204 67.92449 212.10461
-9.612977 67.7183 212.59833
-9.61401 67.863075 213.05392
-9.541895 68.08622 211.97948
-9.658129 68.56529 212.50069
-9.591212 69.877235 212.83897
-9.548217 69.80012 213.52779
-9.582137 70.28913 213.08813
-11.030038 74.20374 200.05728
-10.993856 74.071266 200.5562
-11.129096 73.97033 201.20137
-10.67739 73.757706 205.721
-10.544433 73.54056 206.48067
-10.675636 73.83525 207.47772
-11.201071 74.79924 198.6628
-10.779253 74.8042 199.49542
-10.670704 74.54165 200.39604
-10.977205 74.655334 202.0646
-10.630792 74.50069 207.93785
-11.0512905 75.56265 198.30551
-10.700418 75.260506 199.13078
-10.777455 76.932976 209.3364
-11.267662 77.8151 198.44682
-10.863998 77.57786 210.4845
-10.800348 77.766716 210.59901
-10.534457 78.28549 210.81303
-11.173201 78.96691 199.31834
-10.21948 79.61831 210.69695
-11.172097 81.294754 201.22772
-10.034634 81.17048 201.68163
-10.158983 83.06967 212.33597
-10.67064 84.05625 200.27065
[...]
POINT_DATA 9588
SCALARS features_00 float 1
LOOKUP_TABLE default
0.6402426 0.5891417 0.6239742 0.647118 0.7027507 0.6552953 0.6645173 0.72063565 0.7482413 0.66568154 0.7226372 0.7582747 0.7989834 0.78806007 0.63609695 0.6382971 0.53598315 0.6198075 0.47436935 0.5663902 0.595772 0.6505246 0.7089983 0.7318815 0.528976 0.7526095 0.76096725 0.7879997 0.7785239 0.5293345 0.5561224 0.62169063 0.76341033 0.7943607 0.787312 0.5399187 0.5556028 0.6550863 0.3791349 0.39906675 0.3667702 0.32677922 0.6460457 0.6807703 0.7003976 0.71634954 0.44475722 0.73567575 0.7531496 0.7719977 0.43321317 0.7822192 0.78443587 0.41878128 0.4597419 0.7480942 0.6381331 0.59478337 0.65296835 0.54158676 0.43710113 0.39843908 0.6549685 0.57866704 0.4812817 0.40745288 0.2670217 0.58111453 0.5528486 0.45158148 0.3432177 0.1754233 0.29068103 0.3981219 0.548745 0.46784228 0.4313933 0.19189574 0.16193242 0.3575869 0.3800494 0.40809333 0.50004077 0.42274553 0.3097418 0.27423102 0.21435022 0.41659236 0.49522573 0.4160869 0.36326176 0.33165568 0.29185542 0.2232879 0.18049599 0.10384539 0.4543241 0.3526023 0.6870067 0.1569377 0.73107827 0.6827545 0.27125227 0.76675034 0.75152016 0.6894319 0.644485 0.29556692 0.74618876 0.7734027 0.7873913 0.7396399 0.66860557 0.5574969 0.28981194 0.40117368 0.36603886 0.43927744 0.7300346 0.79841876 0.66800725 0.61071765 0.807313 0.7339722 0.6180477 0.45402792 0.70752925 0.68483514 0.6476002 0.61839134 0.7268367 0.7083646 0.6276641 0.54747283 0.5508827 0.46235758 0.7122376 0.29609156 0.67965305 0.6599432 0.072151184 0.34454674 0.39554578 0.41342932 0.64003897 0.6193961 0.0628655 0.32838145 0.42494434 0.5876581 0.14925458 0.41872388 0.4678076 0.5372378 0.5331316 0.12283374 0.056869563 0.3550769 0.088666104 0.5585662 0.6456608 0.055371493 0.6638999 0.7091807 0.7902533 0.7474082 0.7083775 0.61664087 0.091267034 0.7452098 0.805949 0.1508011 0.6686389 0.7007521 0.83024365 0.6772517 0.83678234 0.5208936 0.35942858 0.8190666 0.80511665 0.40117526 0.4247753 0.39851254 0.81531185 0.8089242 0.7919885 0.69840384 0.4287511 0.4432959 0.4343746 0.4829573 0.5045352 0.2988699 0.32529765 0.24787214 0.2285428 0.7302033 0.718495 0.70646715 0.6882224 0.7378677 0.7354906 0.27369493 0.3060519 0.34607863 0.7329191 0.085474774 0.6945306 0.43884248 0.64366126 0.4445686 0.49565998 0.5987146 0.50525886 0.5286869 0.54974794 0.5190191 0.34591463 0.78997564 0.06800942 0.2774838 0.79621065 0.8028109 0.8048135 0.35192508 0.80019295 0.2884734 0.7947127 0.7856056 0.3212762 0.7318044 0.66984713 0.5854526 0.39320236 0.47816628 0.548047 0.43344015 0.24904712 0.23318288 0.29798692 0.42487317 0.550232 0.59244925 0.24256991 0.26298815 0.3899757 0.53162134 0.60883355 0.61367357 0.6726961 0.7774869 0.73742926 0.71421874 0.71039224 0.70572215 0.6947498 0.48382056 0.49283883 0.7208499 0.6936432 0.42022115 0.72148013 0.61324805 0.49886286 0.5041071 0.51809543 0.5027859 0.5051507 0.5052007 -0.058180466 0.1837222 0.5772271 0.7151097 0.6698265 0.7451706 0.7324828 0.74177146 0.7415592 0.70471513 0.36570656 0.4463867 0.6944592 0.6334542 0.35150328 0.43360442 0.6214296 0.47283214 0.45178878 0.4221984 0.24308187 0.68933105 0.71244407 0.7539124 0.7976997 0.7903984 0.8599455 0.88583857 0.84860057 0.6732509 0.6947507 0.6937473 0.661274 0.6572889 0.59364486 0.61267626 0.5863952 0.6147808 0.615795 0.63972086 0.47968632 0.5062279 0.5050957 0.65875447 0.56081486 0.51603913 0.52295756 0.4367033 0.6420008 0.52773416 0.41958523 0.38226438 0.488176 0.49221727 0.4758495 0.22352603 0.47339356 -0.19528842 -0.37333336 0.47761565 0.3056335 0.45799905 0.42722875 0.60438615 0.42231834 0.18498342 0.5809711 0.69556844 0.65866446 0.19864592 0.659402 0.5883912 0.54955363 0.58395815 0.5295752 0.6149958 0.6676247 0.46064007 0.71759474 0.73486435 0.8299313 0.7833582 0.8153856 0.9024183 0.9056257 0.87659633 0.6882833 0.73400414 0.7444856 0.632025 0.6819912 0.7070652 0.7158461 0.68865806 0.561218 0.6025387 0.6619098 0.64446604 0.56283534 0.61292166 0.6102381 0.47378713 0.5429313 0.53240156 0.5969708 0.5941198 0.41137767 0.53527725 0.5586172 0.57441926 0.29361743 0.35359475 0.19109547 0.4016423 0.38045493 0.005161478 0.13926634 0.15581965 0.40609235 0.40209776 0.2623246 0.47962785 0.54281145 0.3936895 0.532398 0.60508126 0.74600184 0.75476927 0.5825304 0.72955143 0.8026887 0.79755306 0.7636107 0.46894616 0.7028161 0.7761363 0.75949097 0.7478218 -0.40802628 0.5451306 0.5188098 0.72457194 0.7180854 0.24287502 0.50949526 0.47144222 0.4363297 0.3816607 0.34037083 0.26173437 0.13252605 0.27724957 0.4804185 0.63799316 0.6702615 0.49533245 0.7198448 0.7226644 0.43953806 0.3503513 0.21450055 0.15956602 0.7328094 0.29255366 0.8141049 0.79473126 0.7943599 0.8406379 0.8303674 0.7915623 0.61796004 0.66994673 0.708171 0.7023196 0.5233942 0.5799158 0.4538902 0.5096983 0.61460716 0.4499723 0.5880475 0.40903902 0.5668215 0.5500679 0.51415217 0.5153924 0.19339871 0.403602 0.47432172 0.08927417 0.19480117 0.3872865 0.39801705 0.025504585 0.5477807 0.40119946 0.17967032 0.46692786 0.22275367 0.34503615 0.426229 0.48948896 0.52124745 0.31625253 0.41770497 0.46121848 0.54512554 0.5872663 0.5991625 0.35218015 0.43689102 0.4481772 0.6737362 0.6781187 0.43715608 0.09429474 0.49194446 0.7163387 0.122764856 0.38699925 0.503512 0.50499415 0.5704087 0.707024 0.69281447 0.5446079 0.52667445 0.64480436 0.6770297 0.6836554 0.66412157 0.18360157 0.5256196 0.49866414 0.4848316 0.31229523 0.44954103 0.4733883 0.33883697 0.46319562 0.7455536 0.43936497 0.76272285 0.43990505 0.35568488 0.27661407 0.19773035 0.28692067 0.7645891 0.7504543 0.43190253 0.5725075 0.6347196 0.7338219 0.7782682 0.73472047 0.5923337 0.67159855 0.57875836 0.5611023 0.7104701 0.6113516 0.54723316 0.6060442 0.07605672 0.44316176 0.025730606 0.06783733 0.4651956 -0.026463844 0.39202163 -0.04512906 0.5277253 0.5093758 0.37817404 0.5549696 0.5570081 0.5061948 0.33156484 0.36497647 0.31894004 0.5675938 0.5613112 0.49817368 0.33534563 0.42549416 0.54647493 0.53811705 0.44660157 0.22136939 0.14102204 0.38022193 0.48639548 0.48175424 0.4440123 0.33193004 0.21983859 0.48566335 0.53193545 0.28779405 0.39548135 0.48894683 0.48555723 0.54656994 0.17037313 0.3083791 0.3164071 0.33402753 0.5871442 0.5529202 0.43824732 0.00073262304 0.3944963 0.59416324 0.43920857 0.32190815 0.01775369 0.2850917 0.43692952 0.48406786 0.40320218 0.60342014 0.46958575 0.54650575 0.42181054 0.4575976 0.5331613 0.5771251 0.560269 0.6210457 0.5679577 0.5326817 0.49306116 0.21320541 0.4679252 -0.07280351 0.4005342 0.34355104 0.23126253 0.6071824 0.42072678 0.6823096 0.7517564 0.41033038 0.34870803 0.3632379 0.7338536 0.7575849 0.35496628 0.20096622 0.1800731 0.3520503 0.51632 0.7639111 0.8006686 0.5759248 0.65220726 0.7522551 0.5449345 0.47445232 0.40596598 0.4674965 0.183861 0.26748407 0.10932207 0.26382402 -0.02547782 0.0023365915 -0.013784253 0.24749579 0.34063205 0.47781163 0.5208943 0.36807558 0.46885505 0.4802187 0.45742288 0.38012695 0.353901 0.091039516 0.35037068 0.50882953 0.51886743 0.29722893 0.35108435 0.5301511 0.54773355 0.19617587 0.44724888 0.43449652 0.14902148 0.45729512 0.34856993 0.5199504 0.39376754 0.4355477 0.29653376 0.6083275 0.3797507 0.3931688 0.2155552 0.62122816 0.36328027 0.44254088 0.6044116 0.57735896 0.30347383 0.29246703 0.2894827 0.5304354 0.225873 0.25639707 0.5168422 0.53153485 0.3921543 0.2698483 0.3308047 0.42617413 0.48557767 0.54067165 0.20930174 0.4717523 -0.044110354 0.1258391 0.36208495 0.3936944 0.4548557 -0.068653226 0.2960129 0.36293676 0.43191272 0.19432004 0.28881633 0.19642398 0.19956239 0.27526048 0.15548639 0.2841708 0.1802704 0.57369435 0.6928351 0.3210448 0.2925368 0.2616136 0.20071387 0.5026946 0.63729537 0.7089882 0.5521111 0.6652814 0.7509054 0.6637624 0.66933095 0.6708479 0.66864467 0.6636015 0.6593716 0.6674561 0.6375209 0.6392615 0.43932512 0.39434236 0.41225457 0.2863598 0.44082147 0.2701091 0.23945722 0.17253499 0.28587338 -0.01583387 0.29748964 0.47848886 0.49293822 0.45680934 0.5073916 0.52302897 0.19092654 0.29591736 0.50195247 0.4523157 0.2762794 0.34511915 0.36718762 0.20830245 0.38783026 0.3280126 0.34405863 0.44503236 0.3107974 0.43369287 0.036780022 0.43500176 0.37070435 0.121886924 0.21243584 0.28461358 0.33803988 0.5609499 0.47548246 -0.0681081 0.23886406 0.2640724 0.30368334 -0.056845702 0.6098528 0.59780633 -0.08683562 0.33372754 -0.020513274 0.6182463 0.6116221 0.35207224 0.24347071 0.59955966 0.25468132 0.28721654 0.3730361 0.44701347 0.5360533 0.07812875 0.20901102 0.4976123 0.5496365 0.22654608 0.3831887 0.560602 0.56909585 -0.06353031 0.07252193 0.44239596 0.48302934 0.54712737 0.57624334 0.23542184 0.071571685 0.24142751 0.20061603 0.15703028 0.16991742 0.45262903 0.16396557 0.4699939 0.25481355 0.18093975 0.44096416 0.49542123 0.33978787 0.36019498 0.42292434 0.3185622 0.36200136 0.29684842 0.6597055 0.6733608 0.6724964 0.6663202 0.65350056 0.32657075 0.6188955 0.100071 0.56223285 0.3620282 0.26618028 0.30906373 0.2346394 0.1934605 0.30990085 0.5237948 0.3016561 0.523908 0.47614637 0.341711 0.38382468 0.3344671 0.3658092 0.4290255 0.44786456 0.56428504 0.68213165 0.7485595 0.46268028 0.051710814 0.2760898 0.21538618 0.34002012 0.43835992 0.6410346 0.75376123 0.7979175 0.80317664 0.4396237 0.0508153 -0.029033676 0.08051525 0.122829124 0.31872624 0.72110975 0.79284525 0.7986243 0.8004892 0.19367921 0.1675221 0.71290433 0.733803 0.744823 0.4077743 0.27780852 0.29609832 0.2980552 0.24586579 0.04072945 0.22985215 0.2717998 0.18979737 -0.008046191 0.048633166 0.20780316 0.22799672 0.23274179 0.21073869 0.53677076 0.4409951 -0.19940235 -0.013298877 0.5784475 0.49344528 0.42493182 0.15156913 0.16145624 0.1203533 -0.1181866 0.6055255 0.58926636 0.28297603 0.049478374 0.2700945 0.6050343 0.581237 0.28109288 0.21996276 0.53446203 0.59751153 0.1817031 0.1771144 0.12967294 0.5672677 0.5447511 0.32119703 0.1631755 0.13292924 0.07879326 0.06794228 0.58514816 0.35439956 0.49625283 0.5402045 0.5857829 0.5968323 0.50833136 0.30881265 0.532944 0.4531901 0.38110408 0.26149786 0.52128667 0.56355476 0.51235485 0.38995162 0.304738 0.24228892 0.515514 0.5555273 0.5362803 0.3564363 0.27893287 0.53577554 0.46850118 0.46834856 0.47253102 0.42379975 0.3950044 0.39655405 0.6330582 0.4938684 0.60424185 0.6566481 0.6686306 0.42072228 0.64727986 0.34024435 0.4028824 0.19893731 0.31331265 0.31867984 0.3091665 0.60713375 0.56133044 0.5038617 0.67183095 0.3395698 0.44501084 0.49908984 0.54557097 0.6101332 0.60091865 0.5748943 0.42906594 0.3934283 0.21405011 0.29189348 0.31356803 0.36390123 0.45218408 0.5477624 0.6325438 0.6913795 0.7349576 0.57487035 0.1819352 0.30686343 0.43499997 0.47368383 0.06760055 0.10033339 0.42014194 0.12014949 0.34896094 0.78654814 0.56822205 0.0053307116 -0.04690421 0.04278429 0.21214546 0.7741871 0.44310838 0.08585144 -0.025405321 -0.027464462 0.0446935 -0.026716791 0.6627463 0.6656742 0.6031545 0.4656393 0.058014967 0.042723283 0.048611056 0.5182471 0.48005348 0.49877867 0.20900196 0.22177356 0.09390178 0.0629696 0.20718831 0.20716459 0.091208056 0.044913463 0.053830814 0.026837248 0.076303065 0.3423127 -0.044539075 0.031193495 0.41324806 0.26291186 0.12889028 0.08929455 -0.09630598 0.07944134 0.43438175 0.45409536 0.38822925 0.39096892 0.025575638 0.54289526 0.51044613 0.71605134 0.38950503 0.0943354 0.08218568 0.050526224 0.5745762 0.7401062 0.4508857 0.4078303 0.3621185 0.4325307 0.52295005 0.5965531 0.59928477 0.4058022 0.483703 0.6177573 0.522674 0.49995112 0.459196 0.38837644 0.3545981 0.51039183 0.6112166 0.6679685 0.53578615 0.5422257 0.49766544 0.4460229 0.3943535 0.36157387 0.57739246 0.6194211 0.5257477 0.5007806 0.4044868 0.3927588 0.38886774 0.48203954 0.4933355 0.45079064 0.38908833 0.36677116 0.3587321 0.36956793 0.37883165 0.39845312 0.38205868 0.32929394 0.4011169 0.3451963 0.5369793 0.47209692 0.45829073 0.5328309 0.53282404 0.50170875 0.5805994 0.5751106 0.40024415 0.49070752 0.5842838 0.34985727 0.36813885 0.6018263 0.26370302 0.18392181 0.3095252 0.5464999 0.28101948 0.2961634 0.32969502 0.40181673 0.6581361 0.66737485 0.7491655 0.7608346 0.40163743 0.1713138 0.23347436 0.3845299 0.40644765 0.46135572 0.47420233 0.5408495 0.6568712 0.80884063 0.7071774 0.47036046 0.16496517 0.54584086 0.64271367 0.6698053 0.62742627 0.49364957 0.47759998 0.49828845 0.5077829 -0.025092043 0.043570425 0.7333366 0.59666795 0.3828687 -0.027382769 -0.04981372 0.6961801 0.62923634 0.26404983 0.24337412 0.01089374 0.38706267 0.57715154 0.59193367 0.2713513 0.2436701 0.061469033 -0.06954151 0.45255142 0.49860054 0.25786802 0.23740207 0.20238298 -0.040922657 0.11817217 0.066017784 0.29698345 0.23143053 0.11172813 0.20212042 0.33078864 0.2896765 0.33218798 0.47724113 0.5932225 0.54780674 0.35258082 0.3205391 0.30605593 0.15440626 0.3592073 0.69200265 0.6259053 0.62229425 0.3457037 0.30565414 0.23053254 0.056374915 -0.13071805 0.38417822 0.40355828 0.79544103 0.60042703 0.47293255 0.24675693 0.062301967 -0.09815732 -0.076709524 0.47726667 0.46430162 0.78763276 0.537036 0.46066076 0.35741958 0.20376289 -0.0039244443 0.058748003 0.0070514698 0.52207816 0.80238223 0.7975019 0.6900499 0.50215316 0.45392466 0.34926575 0.4056858 0.34849554 0.21581925 0.27279833 0.42978263 0.506045 0.534274 0.55952835 0.3983461 0.42195362 0.34226236 0.31400412 0.3646631 0.38841227 0.36796126 0.29774272 0.2890086 0.2887851 0.29876876 0.29101524 0.23899063 0.26271313 0.25659198 0.2512017 0.28937307 0.45085847 0.52963257 0.28966147 0.23631674 0.2525192 0.2868688 0.28388795 0.3058073 0.447706 0.5506797 0.37730443 0.36989117 0.33002633 0.34956872 0.4874357 0.46299043 0.47531825 0.45939898 0.41866982 0.49154264 0.62485874 0.68137586 0.50683427 0.50947416 0.4755451 0.41778964 0.39512402 0.27325028 0.38951752 0.5783309 0.63991404 0.69471925 0.71583605 0.49434978 0.4789551 0.44905412 0.42876285 0.34683678 0.70599085 0.7280164 0.49017626 0.5149735 0.5325054 0.6382302 0.69284385 0.48514882 0.33998975 0.4610117 0.5674198 0.6523471 0.43252906 0.29890752 0.40827325 0.2956011 0.269115 0.4329769 0.3462785 0.33691156 0.27950272 0.52934796 0.56906414 0.45032263 0.61777365 0.6323606 0.5504133 0.51961166 0.62417877 0.6449065 0.63876784 0.6192844 0.59253865 0.6647539 0.35830316 0.365688 0.34034064 0.29166117 0.31365186 0.3055337 0.33073032 0.3539359 0.51343405 0.21533215 0.25855803 0.3032033 0.34722346 0.34263492 0.70789945 0.7141329 0.7298717 0.76303935 0.792099 0.34426975 0.13974753 0.11182029 0.06361384 0.017156305 -0.02415347 0.18863505 0.270074 0.38879436 0.39430046 0.7061719 0.7256291 0.5332097 0.5416605 0.11948219 0.1146804 0.4140238 0.5379807 0.7239218 0.49039626 0.5252458 0.04802436 0.6527623 0.6990221 0.45443058 0.5239619 0.1746127 0.16032575 -0.035905957 0.68648505 0.41323635 0.35414374 0.2707101 0.2166172 0.46255752 0.6497736 0.48594606 0.35781395 0.29369947 -0.039028257 0.03070153 0.6628533 0.5899169 0.23303875 0.20504498 0.23657715 0.073441766 0.27975586 0.3184529 0.33407563 0.34204322 0.34609365 0.35678977 0.724597 0.7379179 0.32213923 0.38015217 0.8321248 0.8249835 0.75488496 0.64252055 0.23855397 -0.08253905 0.454442 0.43201333 0.82776916 0.8234496 0.7516986 0.6654499 0.12654996 0.054245234 -0.07659602 0.034857683 0.007401429 -0.045233388 0.06912929 0.47955412 0.48640782 0.81873775 0.7408011 0.18849571 0.28156936 0.15044226 0.020643324 0.16193551 0.351117 0.45061517 0.47323045 0.21418202 0.29734734 0.17833307 0.2618504 0.28509456 0.24845216 0.35781658 0.49944443 0.14861941 0.21463697 0.5809051 0.59204817 0.2987185 0.25138324 0.24598588 0.5289897 0.60902977 0.37153462 0.36816254 0.30412 0.16397166 0.088184856 0.13443822 0.2986433 0.44351333 0.5981252 0.34295553 0.37235942 0.39581472 0.25186867 0.25462553 0.23981321 0.32958198 0.43495274 0.49810535 0.6179431 0.63521194 0.2751194 0.36978137 0.45673501 0.33953512 0.34582436 0.2881399 0.6768466 0.3924752 0.46490085 0.47274324 0.4700967 0.4078545 0.387635 0.3210222 0.3428014 0.71420896 0.7028507 0.4422965 0.43692732 0.42531338 0.40184987 0.70189625 0.7091834 0.3899052 0.3611371 0.35422802 0.3985851 0.5336162 0.6346588 0.43710583 0.3795797 0.3506489 0.45632815 0.23432977 0.22830169 0.38587105 0.3340591 0.24006237 0.47956872 0.345473 0.25763437 0.5484445 0.4269916 0.55722153 0.5798727 0.62813836 0.5966607 0.528577 0.5752027 0.6142158 0.66554815 0.6595593 0.625278 0.35052252 0.26825854 0.20374924 0.6881313 0.7448866 0.18942326 0.2090511 0.7274855 0.21756707 0.4021757 0.16304056 0.34445208 0.058791317 0.42034152 0.40228015 0.4730201 0.41490006 0.33982003 0.44865364 0.17003265 0.2685993 0.60483813 0.58534193 0.56269264 0.09775623 0.06804309 0.025413252 -0.0078065023 -0.015719231 0.07085721 0.21270254 0.28663844 0.29970783 0.74210614 0.7457336 0.65423626 0.64348733 0.5429932 0.5431227 0.24820527 0.10320215 0.1257835 0.285266 0.72898984 0.7279686 0.7338624 0.76240957 0.7241559 0.6117864 0.5275898 0.53513443 0.27155644 0.15185753 0.73169315 0.7479833 0.76775974 0.72673833 0.6928829 0.6714606 0.59666574 0.5217705 0.24481821 0.18295372 0.10245001 0.59424245 0.73419595 0.7263584 0.7378627 0.67119753 0.6512927 0.52110237 0.49893034 0.46745127 0.4571633 0.58388996 0.6584426 0.6938362 0.6751827 0.65246564 0.5889228 0.5279101 0.48765293 0.42072287 0.17186786 0.6511934 0.58843017 0.5060216 0.46189415 0.28386778 0.06659961 0.0859451 0.23724113 0.10836826 0.11939383 0.23366296 0.23433727 0.24062635 0.25981045 0.27029434 0.2637815 0.21285903 0.35604593 0.41197348 0.015293986 0.026060736 -0.005599305 -0.05757481 -0.06180661 0.12154205 0.36414355 0.35806733 0.12507825 -0.033450127 0.172112 0.38550875 0.05479851 0.063341975 0.10973128 0.24777013 0.0483488 0.41815236 0.52031887 0.07104252 0.5541346 0.55547667 0.3890071 0.38264662 0.2740455 0.103550136 0.10065557 0.58779764 0.31917265 0.3485137 0.09836159 0.1890361 0.5030366 -0.0081067085 0.17769992 0.11305441 0.1899564 0.25561497 0.32130912 0.017721903 0.025441062 -0.0033572763 0.004546374 -0.18327524 0.1375056 0.06765598 0.18131311 0.27421454 0.42371663 0.48536414 0.59633917 0.21729673 0.17593005 0.11938908 0.17959659 0.18635203 0.26805505 0.11061364 -0.06390698 -0.19271174 0.619272 0.6511113 0.19798246 0.188799 0.13682482 0.15705636 0.12755638 0.38527 0.24891856 0.0902896 0.033673756 0.117995106 0.6706625 0.22350466 0.28057274 0.27126357 0.3247211 0.3452003 0.37498105 0.36303264 0.36151358 0.2721371 0.32316738 0.68198204 0.37214017 0.3694782 0.35516363 0.39123356 0.6583917 0.38280034 0.41790366 0.45719936 0.47573996 0.44109806 0.47853464 0.4359365 0.48763764 0.51580155 0.4929354 0.17473543 0.34286734 0.49026006 0.51468 0.32143825 0.22301799 0.34002322 0.3173775 0.2747399 0.48386973 0.37177974 0.53442913 0.554443 0.53786397 0.4846254 0.5473483 0.5635532 0.5989245 0.6051038 0.58447874 0.6063918 0.4473984 0.62013996 0.68674994 0.7244867 0.046533436 0.12393359 0.13176733 0.059608653 0.08280606 0.7338602 0.769171 0.75060505 0.7843025 0.15369561 0.6274909 0.73923504 0.7821286 0.118431434 0.081893556 0.4533447 0.40629566 0.49685007 0.47498876 -0.027068697 -0.03015133 -0.031556666 -0.029559217 0.1046125 0.13967708 0.5419805 0.52141076 0.33019677 0.2949102 0.22845194 0.077421784 0.043782312 0.03923533 -0.015508108 0.34153494 0.30339834 0.22761843 0.10688307 0.040159523 0.3774953 0.5460211 0.68141824 0.7279705 0.33056724 0.31164867 0.5134241 0.7756655 0.77204835 0.6672082 0.6534808 0.25741506 0.2718597 0.75474656 0.74569434 0.62965274 0.61116177 0.57307476 0.1591225 0.5021254 0.63325024 0.6710068 0.6932881 0.62455344 0.59184265 0.5569345 0.036429033 0.053637713 0.03954489 0.39328137 0.5582016 0.61373353 0.16511264 0.1318953 0.1370012 0.13799733 0.1431304 0.22658819 0.15041251 0.2500884 0.20524366 0.23000456 0.15786296 0.14874089 0.1352763 0.1844909 0.24528278 0.22556618 0.31384987 0.30280727 -0.0056600943 -0.0064840466 -0.017512165 -0.13195446 -0.10801904 0.19497705 0.1727936 0.33869922 0.3228836 -0.100414924 -0.13262948 -0.074329495 0.31459838 -0.02868854 -0.0680734 0.19774917 -0.041454405 0.31542528 0.0029801428 -0.040750116 0.3377594 0.2832093 0.39960063 0.30945045 0.21996883 0.33487144 0.24861401 0.19186047 0.22493793 0.03175263 0.22853045 0.369444 0.32291237 0.24770842 -0.13135211 -0.11497