# vtk DataFile Version 2.0
Really cool data
ASCII
DATASET POLYDATA
POINTS 5370 float
-27.66059 73.1771 227.06982
-27.594086 73.12164 227.50499
-27.814196 73.89841 226.67076
-27.880602 73.66307 227.57831
-27.8615 73.70609 228.26836
-27.741325 74.02828 229.10612
-27.880825 74.952576 225.79016
-28.052534 74.34251 226.98573
-28.162746 74.69954 227.90118
-28.088188 74.60452 228.51625
-27.862118 74.5578 229.22528
-27.718855 75.835396 225.47525
-28.07178 75.63476 226.58194
-28.20748 75.42317 227.47717
-28.10019 75.50637 228.32149
-27.86602 75.34879 229.1895
-27.89251 76.25048 226.01367
-28.04628 76.340256 226.73074
-28.063055 76.444855 227.53918
-27.906637 76.19077 228.38222
-27.638483 76.8506 226.11845
-27.841927 76.92159 226.80515
-27.80736 77.00668 227.34314
-27.8515 76.82054 227.88324
-26.5976 70.99635 222.75114
-26.738346 70.970406 223.54477
-26.650007 70.93855 224.24632
-26.637373 71.820656 222.04367
-26.800566 71.618614 222.63739
-26.914043 71.49105 223.85599
-26.724493 71.262054 224.39496
-26.943953 72.40131 227.49664
-26.713148 72.6348 221.94728
-26.971933 72.48489 222.5704
-27.047976 72.76639 223.55376
-26.988512 72.71176 224.36282
-27.361332 72.835945 227.64339
-27.174717 72.82884 228.33359
-27.111212 72.93863 228.79028
-26.754093 73.23196 221.97151
-27.01004 73.284485 222.60771
-26.994339 73.70546 223.75212
-26.92537 73.18589 223.95177
-27.340952 73.810616 225.60541
-27.608334 73.50869 228.72423
-27.270235 73.78693 229.47235
-27.222061 74.04324 229.77953
-26.645792 73.87634 222.26927
-26.929014 74.403404 223.85402
-27.49484 74.473495 224.86731
-27.546717 74.49005 225.33264
-27.232883 74.64719 230.05045
-26.66184 74.849 223.69278
-27.282202 75.31325 224.63176
-27.525503 75.73782 229.50185
-27.292215 75.35943 230.02087
-27.196247 76.4824 224.95677
-27.588903 76.558754 228.60033
-27.25649 76.01095 229.53398
-26.948397 75.972244 229.94704
-26.922201 76.88692 225.0788
-27.381615 77.063896 226.03458
-27.33296 77.24605 226.41211
-27.375942 77.33529 227.68599
-27.431543 77.00641 228.18619
-27.099083 77.58731 226.7743
-25.627947 69.94834 221.88275
-26.02447 70.10159 222.71883
-25.899784 70.01163 223.50842
-25.971457 70.21162 224.2205
-25.772707 70.50902 221.58464
-26.303215 70.60227 222.6138
-26.41288 70.7279 224.47548
-25.954842 70.64381 225.01282
-25.935446 71.487656 221.28427
-26.318903 71.593025 221.77713
-26.330975 71.22752 225.13345
-25.844313 71.98991 226.7229
-26.709612 72.37536 228.18932
-26.048208 72.67321 221.22897
-26.387545 72.593445 221.54782
-25.915754 72.7578 229.46011
-26.00363 73.11752 221.21837
-26.442707 73.45925 221.69456
-26.495983 73.86052 229.97093
-26.25403 73.90735 221.82256
-26.495436 74.15925 222.3473
-26.660774 74.54164 230.32893
-25.875412 74.66913 222.60533
-26.505669 75.59134 224.09645
-26.660488 75.180725 230.31314
-26.173136 76.6717 224.27277
-26.427874 76.228195 229.86838
-26.559917 76.9731 224.81006
-26.402822 77.32425 225.36629
-26.462973 77.629074 228.64088
-25.974684 77.7445 230.5246
-25.72824 77.56249 230.93214
-26.081726 77.99434 226.96524
-25.876707 78.11302 228.03357
-25.67347 78.71026 229.08134
-25.79889 78.38618 230.48027
-25.688307 78.09872 230.86308
-25.66195 78.85008 229.63582
-25.73134 78.72102 230.3905
-24.846375 69.203026 221.74911
-25.148952 69.30297 222.40903
-24.91215 69.36722 223.47192
-25.185736 69.85629 221.2751
-25.407448 69.74746 221.67183
-25.43019 69.50847 222.32944
-25.218702 69.52324 223.33981
-25.200699 70.672356 220.92796
-25.538382 70.23601 221.44827
-25.427036 70.83459 225.26219
-24.870924 70.78976 228.0778
-24.927515 71.247505 229.3672
-25.582869 71.51951 221.14871
-25.557348 71.79281 227.24313
-25.622398 71.91341 228.55812
-25.346405 71.64945 229.25618
-25.013659 71.85034 230.03476
-25.603767 72.42103 221.00658
-24.99067 72.30623 230.38963
-25.277983 73.362495 220.96823
-25.825186 73.57038 229.99477
-25.39994 73.82298 221.2171
-25.340197 74.20975 221.6265
-25.393156 74.370705 230.15709
-25.484837 76.59913 224.11636
-25.060152 77.07375 231.27385
-25.141222 77.68177 231.32777
-25.208883 77.6421 225.44176
-25.33347 78.345535 227.04912
-25.702108 77.92874 227.33966
-25.560287 78.6254 230.6669
-25.39875 78.34982 230.99265
-25.082363 79.12811 227.69508
-25.185064 79.343864 228.36761
-25.256227 79.302216 229.5216
-25.2935 78.935555 230.47899
-25.094769 78.76707 230.92531
-24.79584 79.80468 228.56561
-24.84298 79.735146 229.14523
-23.69941 61.024216 226.71857
-23.750511 60.974358 227.41452
-23.705437 61.1206 227.87085
-23.6388 61.334312 226.1943
-23.9271 61.612564 226.80702
-23.95769 61.4898 227.26591
-23.73298 61.65255 228.13461
-23.656593 62.548195 226.08795
-23.909796 62.570633 226.66547
-24.031807 62.556076 227.4201
-23.854025 62.67731 228.19777
-23.852875 63.42685 226.64561
-23.995684 63.515747 227.5462
-23.741026 63.526947 228.48618
-23.775522 64.080666 227.67459
-23.740566 63.963844 228.32185
-24.218075 69.21149 221.09517
-24.438444 69.12896 221.63135
-24.30704 68.94615 222.58304
-24.151714 68.899315 223.25554
-24.3645 69.67749 220.9028
-24.24373 70.24476 225.77621
-24.144629 69.85781 226.31667
-23.961054 70.31779 228.5061
-24.542656 70.56414 220.6127
-24.585999 70.3641 227.06882
-24.373201 70.64422 228.64037
-24.38617 70.91877 229.61278
-24.44687 71.1212 229.96602
-24.10424 71.573654 220.38815
-24.411385 71.77008 220.52397
-24.538689 71.76097 230.41408
-24.50386 72.040184 230.67453
-24.823423 72.85602 220.74423
-24.117737 72.649216 230.98563
-24.882727 73.12884 220.87575
-24.212513 73.18855 230.91396
-24.916737 73.82404 221.09134
-24.258892 74.31361 230.89253
-24.20945 75.20265 222.0353
-24.445868 75.18529 222.61345
-24.467413 75.54567 230.45192
-24.796791 76.57187 223.78381
-24.388147 76.57885 231.36188
-24.151987 77.1177 224.02324
-24.516914 77.430084 224.63387
-24.769352 77.585625 231.47943
-24.45238 77.563805 231.58618
-24.387463 78.01032 225.76985
-24.295238 78.39049 226.23523
-24.490965 78.36064 231.34862
-24.579473 79.58828 227.68275
-24.476995 79.34362 230.41655
-24.386923 78.89485 231.03363
-24.259996 79.88308 227.93498
-24.265224 80.01873 228.48602
-24.346956 79.88717 229.34088
-24.061558 79.69212 229.9739
-23.011005 60.38051 227.32693
-23.080103 60.7378 226.11575
-23.372894 60.633858 226.69751
-23.3951 60.673557 227.57559
-23.197737 60.855602 228.24582
-22.815851 61.052967 228.74113
-23.348774 61.62702 225.9294
-23.54601 61.771584 228.49059
-23.032804 61.64961 228.8898
-23.528076 62.120415 228.61378
-23.236048 62.67851 228.9345
-23.248404 63.62615 225.64297
-23.486208 63.55327 228.75584
-23.144712 64.21956 225.91331
-23.40101 64.35135 226.32112
-23.553255 64.57233 227.754
-23.409212 64.34602 228.4939
-23.004423 64.124435 229.08835
-22.891863 65.30685 226.56729
-23.40689 64.75444 227.51027
-22.678034 65.70023 228.39911
-22.809023 64.88996 228.91512
-22.774384 65.81456 227.65213
-22.6645 65.910065 228.26373
-23.120907 68.34539 221.89008
-22.927958 68.290215 222.53876
-22.948093 69.05757 220.35266
-23.38822 68.80252 220.90619
-23.537802 68.48254 221.9303
-23.1862 68.535866 223.32999
-23.451233 69.04333 225.37856
-23.06705 68.79452 226.46082
-23.00237 69.341644 220.27098
-23.617144 69.392914 220.6116
-23.66461 69.874855 227.70232
-23.042528 69.473526 228.09036
-23.526394 70.59143 220.30797
-23.463367 70.94713 230.27849
-23.062838 71.073296 220.42625
-23.480356 71.60789 230.77504
-23.294712 72.10764 220.38675
-23.144178 72.69147 220.70592
-23.39011 72.470764 231.25534
-22.822165 72.953354 220.4204
-23.297813 73.54339 220.86974
-23.56797 73.71736 231.54108
-23.0271 73.22797 231.68602
-22.705912 74.70515 220.23277
-23.195972 74.42547 220.76422
-23.423342 74.27407 231.49156
-22.995028 74.380264 231.6271
-22.686724 75.81704 220.20927
-23.015266 75.48988 220.78755
-22.813848 76.13263 220.59866
-23.10631 76.320114 221.7023
-23.48294 76.395546 222.39648
-23.923904 76.72998 231.46776
-22.658546 76.804955 220.80742
-22.730522 76.91709 221.35135
-23.584764 77.59218 224.20609
-23.478851 77.51602 231.4668
-23.806385 77.42367 231.59425
-23.210535 77.765884 224.21419
-23.08523 77.974464 224.72304
-23.525272 78.526215 226.23914
-23.584517 78.219894 231.35219
-23.185959 78.60061 226.02946
-23.59849 79.404205 227.1712
-23.49964 79.401054 230.27943
-23.685783 78.97173 230.85359
-23.696968 79.90049 227.80864
-23.610725 80.08809 228.56882
-23.522463 79.97307 229.25682
-23.615993 79.71326 229.93001
-22.056253 59.98051 225.89621
-22.26091 59.95212 226.30629
-22.425867 60.121826 227.51727
-22.353678 60.37676 228.19083
-22.461824 60.455162 225.69446
-22.546263 60.57714 228.45314
-22.484407 60.965565 228.85847
-21.708094 62.05811 220.98589
-21.845861 61.875477 221.71121
-21.924068 61.928608 222.21638
-22.262539 61.433014 229.13231
-21.882229 62.629154 220.95468
-22.121983 62.63914 221.48035
-22.113983 62.4318 222.13837
-21.72696 62.281654 223.13928
-21.662704 62.93817 224.11809
-22.477833 62.664577 229.29683
-21.909916 63.06392 220.99042
-22.045616 63.23357 221.53746
-22.013163 63.389236 222.32492
-21.790583 63.64462 223.2883
-22.381956 63.42567 225.303
-22.408028 63.516624 229.3604
-21.828537 63.9445 221.74477
-21.796474 64.10904 222.52467
-21.871935 64.57125 225.21793
-22.193691 64.656876 229.2666
-22.151447 65.06126 225.81454
-22.15045 65.54196 229.2242
-21.676495 67.23687 221.88208
-21.628815 67.01123 225.29135
-22.413471 66.48907 228.10818
-22.033632 66.21436 229.19366
-22.43702 68.21359 220.7594
-22.238548 67.542816 222.01372
-21.954657 67.61294 222.11801
-22.536242 68.39307 224.28395
-22.129112 67.68434 226.77281
-21.595686 67.295975 228.69572
-22.604586 68.82071 220.28694
-22.361103 68.47871 225.69995
-22.444878 69.448044 220.07344
-22.479492 69.38461 228.3928
-21.624199 69.991325 236.57903
-21.696175 70.185234 237.2521
-21.612417 70.224625 238.49944
-22.304625 70.25138 220.11517
-22.549114 70.78125 229.97656
-21.908253 70.6898 236.68152
-21.904427 70.64151 237.78087
-21.934772 70.81998 238.11305
-21.731354 70.92556 239.23854
-22.343527 71.22339 220.20338
-22.780182 71.387764 230.54378
-22.880243 72.065315 231.08345
-21.667873 71.28105 236.16386
[...]
POINT_DATA 5370
SCALARS features_00 float 1
LOOKUP_TABLE default
0.41586137 0.43586934 0.4292764 0.48452482 0.5132972 0.57684463 0.41615477 0.48322016 0.5689498 0.59909016 0.62417144 0.45750666 0.5134451 0.55908346 0.58582234 0.6112754 0.49297735 0.51844335 0.5255509 0.53972995 0.4823636 0.49894208 0.4915884 0.49698997 0.5023665 0.48608738 0.4395616 0.5104966 0.5151596 0.48355734 0.4319213 0.31244403 0.52057445 0.5165741 0.45442873 0.36031342 0.40270782 0.4041903 0.41868365 0.5137663 0.4952916 0.35689074 0.36932272 0.25855494 0.5043347 0.53183293 0.5557563 0.47966337 0.31585324 0.28273568 0.315692 0.5938147 0.31480202 0.35632655 0.56189257 0.5770972 0.434748 0.4859963 0.50145596 0.46554863 0.4226875 0.45698363 0.4478832 0.44408545 0.4512294 0.4190771 0.47035393 0.4761492 0.4495836 0.39028755 0.4797737 0.4912501 0.39942124 0.27456805 0.4887532 0.5005326 0.27890632 0.06742719 0.317025 0.49526647 0.5130522 0.32470948 0.48869663 0.50340277 0.44868746 0.47683403 0.45008302 0.5075253 0.32353997 0.32962412 0.5024106 0.33579576 0.39995733 0.38535762 0.36683202 0.37183896 0.4943183 0.5205053 0.30947116 0.3331151 0.45726323 0.5608647 0.5731467 0.52735436 0.5832621 0.44138342 0.43163055 0.3554799 0.45820722 0.4632253 0.4494921 0.40438896 0.46438098 0.47136366 0.15570161 0.1820617 0.30155864 0.4778314 0.117811665 0.2458554 0.28603438 0.3253997 0.46003526 0.30609125 0.39657396 0.32186794 0.41403443 0.38898084 0.24554813 0.2698116 0.5256977 0.5943216 0.2499193 0.2700471 0.29751053 0.60930073 0.6136105 0.3879031 0.47466692 0.58493435 0.6262797 0.6382897 0.5650631 0.606943 0.6827345 0.70106816 0.69890153 0.6510111 0.6727685 0.68794346 0.6841487 0.59711504 0.6511817 0.66858417 0.64958656 0.6100809 0.60642385 0.57882 0.54413766 0.5374494 0.45006973 0.43804902 0.36446422 0.2763229 0.4437793 0.022829793 0.03195643 0.2055404 0.4390094 0.072330475 0.23360154 0.33986938 0.36131346 0.2709865 0.3062632 0.35962456 0.34848833 0.30672818 0.31738466 0.31742948 0.26786068 0.31875393 0.15724528 0.15241542 0.085243866 0.1268941 0.17623219 0.4394695 0.18230882 0.21906635 0.6034893 0.5984579 0.2181354 0.24400946 0.642081 0.45558077 0.6505338 0.656744 0.5278972 0.5941689 0.6328206 0.6307044 0.7149892 0.6610237 0.688122 0.7062912 0.6948353 0.67723536 0.60496306 0.67237604 0.65596956 0.6586808 0.6179948 0.38201046 0.5619405 0.35058087 0.4692483 0.4934484 0.48851472 0.48137096 0.39271984 0.49000895 0.37662178 0.42507687 0.3833785 0.36075103 0.32266393 0.18551144 0.37649706 0.426275 0.3539891 0.13222131 -0.038844552 -0.03881864 0.36915663 0.42252108 0.12145288 0.13749054 0.32963973 0.36663294 0.2171896 0.37210578 0.13211231 0.095285706 0.33035117 0.07603791 0.07690939 0.23101026 0.24056682 0.29049188 0.17663398 0.17270689 0.13659309 0.4842409 0.3994861 0.49036145 0.37954217 0.17249689 0.45271283 0.52650756 0.48619252 0.17599742 0.51909363 0.54432434 0.15605183 0.16206475 0.2473911 0.57357013 0.23213501 0.38556188 0.5803988 0.6094828 0.5114528 0.58573955 0.5924404 0.5941098 0.6529264 0.6997822 0.73237705 0.70317113 0.60649014 0.6931672 0.67143774 0.5538276 0.588876 0.58500737 0.6341192 0.5564776 0.59151685 0.5874492 0.5205701 0.15577738 0.55592287 0.5448196 0.5624205 0.48631403 0.2648487 0.1521489 0.46211082 0.47279042 0.31353563 -0.026909823 0.38316846 0.041063808 0.34099704 0.11799899 -0.34819013 0.27892497 0.29330814 0.38733917 0.13737524 0.097277686 -0.105668075 -0.13869356 0.13272542 0.35423756 -0.22041596 0.30520442 0.062212724 0.34286448 0.38088363 0.46928 0.23435758 0.2171422 0.3946363 0.44185364 0.47831213 0.5904476 0.14900172 0.31549132 0.3211868 0.3903182 0.43875593 0.48831725 0.5839843 0.6939527 0.73985374 0.072597235 0.24887474 0.50716466 0.56854093 0.7327322 0.76731384 0.79738235 0.15942158 0.74341536 0.80459386 0.8247291 0.28889585 0.14849232 0.80212474 0.48003972 0.5420355 0.29647857 0.5755249 0.561774 0.49389058 0.15445776 0.30648628 0.1235781 0.47540003 0.22315615 0.29554576 0.3489566 0.49748567 0.47739857 0.52332103 0.522702 0.6335435 0.730191 0.6923264 0.69012576 0.50811434 0.43474197 0.39655286 0.64478314 0.64421225 0.52402747 0.5634116 0.5294913 0.59413433 0.4467364 0.48542124 0.44990957 0.34413323 0.43195343 0.38301355 0.35770556 -0.18580486 0.31019646 0.27703914 -0.036874264 -0.32374817 0.25647518 0.30970365 0.3005768 -0.16299394 -0.34871295 0.23468433 0.3072521 0.2908234 0.2725273 0.26458907 0.24548429 -0.28570095 -0.2974064 0.09964412 0.3003709 0.24198301 0.19070636 0.21968703 -0.17656696 -0.19819081 0.25525814 0.2073063 0.227052 0.28501973 0.22864933 -0.24533916 0.15052132 0.22885318 0.2637414 0.24401684 0.2759071 0.3370315 0.43496132 0.55368423 0.59768504 -0.041298848 0.1378787 0.29371265 0.50130355 0.60313374 0.646106 0.06539407 0.22950624 0.3563368 0.7057122 0.7550315 0.036064316 -0.021159306 0.32594204 0.83408076 0.82215405 0.20848852 0.09897386 0.4505539 0.644019 0.84379447 0.84634006 0.39041874 0.072312735 0.6865938 0.7969268 0.829175 0.54228723 0.10897961 0.57729685 0.18506978 0.19056769 0.58077276 0.5761635 0.5381185 0.120407365 0.076085806 0.23508258 0.5472317 0.1716891 0.36966679 0.36815643 0.20965338 0.26953828 0.3211927 0.38170686 0.4425264 0.42193478 0.43815926 0.4744147 0.81324995 0.758538 0.81262136 0.87769485 0.81952953 0.8905878 0.81411225 0.5975983 0.594203 0.4891907 0.5033432 0.45088518 0.39229795 0.3397469 0.24803296 0.55436116 0.39069426 0.28244737 0.47573155 0.4712786 0.29261643 0.26017714 0.29500872 0.22338513 0.23398218 0.6297803 0.2855171 0.22146115 0.16086161 0.09965095 0.23080295 0.22857553 0.20562327 0.2893478 0.59867465 0.22642928 0.20174737 0.23878466 0.2872261 0.2846318 0.26098594 0.14995374 0.28395462 0.30079737 0.29544097 0.30677623 0.16286464 0.1349492 0.20312493 0.246123 0.2502722 0.15288576 -0.06309639 -0.36959055 0.19108316 0.13987575 0.2457779 0.16785786 -0.2531985 -0.025137536 0.17820157 0.28284183 0.4511645 0.094730645 0.5654126 0.61276007 0.030574318 -0.42871934 0.084148996 0.6298577 0.65231645 -0.008352296 -0.23968764 0.05064871 0.6917028 0.7086964 -0.05291754 0.31811076 0.80227876 0.041693427 0.036206994 0.3732429 0.3454632 0.83423686 0.120085716 0.41624117 0.5745144 0.7164772 0.81232256 0.4798371 0.2436701 0.52841187 0.24712908 0.24512944 0.55390733 0.5522813 0.42805886 0.36115807 0.19874421 0.24237972 0.23857936 0.26118675 0.17885894 0.25562873 0.26699618 0.31988835 0.3394065 0.62386596 0.6267448 0.51064694 0.5146897 0.53391236 0.5843637 0.5758139 0.6074073 0.619437 0.6294514 0.56192714 0.5828118 0.5998769 0.6569109 0.7012547 0.5407896 0.5955721 0.6145878 0.63304377 0.5603708 0.61064184 0.72245944 0.7868922 0.79906917 0.7846545 0.5223717 0.54804444 0.5851878 0.5665294 0.5851015 0.7218044 0.80049586 0.8270178 0.7939215 0.6304403 0.74634635 0.8003656 0.7143228 0.7920482 0.8655672 0.90051436 0.55364513 0.7217048 0.79835176 0.8953471 0.9269103 0.45819885 0.68781376 0.918545 0.93047774 0.5205647 0.6234041 0.7483568 0.8718809 0.9002862 0.4667852 0.5336294 0.66473603 0.7788512 0.254936 0.23878986 0.5974822 0.5682378 0.45914122 0.48522478 0.540118 0.5227885 0.27751204 0.26295075 0.225889 0.5417409 0.5436729 0.258942 0.20875047 0.44078386 0.4741012 0.25742432 0.2536251 0.23475984 0.21229526 0.46410307 0.4389534 0.23051909 0.23807795 0.24720362 0.25933173 0.55722094 0.66466653 0.6900605 0.37551343 0.32420778 0.17685878 0.16573401 0.24538915 0.64052904 0.70554894 0.7085347 0.3441816 0.3092643 0.102021396 0.1890277 0.27541733 0.59083843 0.67071104 0.6872059 0.2515586 0.18530318 -0.117704235 0.040650718 0.252142 0.45722157 0.5385227 -0.078095384 0.030820962 0.23452283 -0.32869375 0.14773911 0.19247007 0.036524918 -0.0052593085 0.15601194 0.06895952 0.5138085 0.040312093 0.04099932 0.56587964 0.56922156 0.021196507 0.58745754 -0.020557977 0.58443356 0.59679055 0.74476695 0.21117303 0.093583256 0.7396242 0.79714644 0.35029054 0.32522655 0.36529577 0.46560755 0.6215275 0.74306726 0.41537267 0.24669847 0.39926103 0.44861773 0.43281025 0.22039697 0.48224866 0.45973358 0.4408107 0.2954498 0.14540932 0.23425102 0.21099372 0.16234317 0.14492154 0.23534004 0.23586135 0.387484 0.43047264 0.46866977 0.6081611 0.6174345 0.6228195 0.63574207 0.43467572 0.45240766 0.47711292 0.5192785 0.5503839 0.48346555 0.54142934 0.61104417 0.6386113 0.6269641 0.472319 0.48482537 0.6634524 0.6642649 0.49447274 0.53101665 0.45077977 0.30939952 0.48243976 0.5071224 0.6766288 0.60574234 0.48919052 0.49974132 0.32307744 0.45030916 0.49896353 0.59137416 0.7246822 0.74587035 0.45272484 0.45284396 0.43826538 0.39876515 0.39748996 0.25442082 0.49188018 0.5549516 0.6717755 0.7169922 0.72122747 0.3830483 0.4563743 0.57843703 0.7340252 0.84633154 0.89484227 0.26699492 0.38313273 0.41789895 0.32002303 0.3442277 0.6436454 0.36128727 0.42804444 0.9051437 0.8947803 0.4425345 0.456188 0.4449752 0.39013278 0.2605909 0.3539305 0.89674914 0.8739402 0.42825508 0.46069422 0.43675643 0.4060046 0.046611056 0.16008757 0.28105372 0.8633429 0.4436021 0.4067332 0.34093547 0.29806983 0.20110935 0.17239231 0.2638928 0.3818313 0.60722685 0.8007885 0.78273404 0.39056367 0.3489493 0.33576676 0.26416075 0.22329676 0.17547248 0.46849933 0.60302424 0.46309364 0.34966874 0.15528622 0.3185097 0.29340082 0.1647836 0.5315912 0.5731691 0.16204382 0.010469144 -0.16865003 0.37066466 0.25186008 0.51995957 0.54344386 0.46633923 0.008111831 -0.1016135 0.14782657 0.66070515 0.38216364 -0.16768794 0.025420249 0.014890201 -0.018318057 0.6855982 0.33429742 -0.15771933 -0.269008 0.0780831 -0.013873915 0.036742914 0.62109935 0.18186328 -0.21703133 -0.03774797 0.30465928 0.43690902 -0.07810664 -0.11821879 0.029872304 -0.14645071 -0.051007792 0.16246244 0.2467945 0.17731827 0.035400845 0.23597787 0.059007816 0.408498 0.4737515 0.03353437 0.025226677 0.4621719 0.51096874 0.108737 0.46927744 0.5333495 0.14909254 0.2725575 0.36148635 0.20179635 0.37985224 0.4574873 0.367435 0.21389113 0.38114497 0.35352144 0.19472912 0.011410356 0.209761 0.2012451 0.15080327 0.03704892 0.060599454 0.35050642 0.40528572 0.43096823 0.55515194 0.22511734 0.35299736 0.40166044 0.44955128 0.46594647 0.56422687 0.58178234 0.58346605 0.60767865 0.19385007 0.50269353 0.48504233 0.41279802 0.44134662 0.33463898 0.52524745 0.47172782 0.376999 0.46481428 0.16026986 0.14859433 0.25740063 0.5606538 0.5606072 0.4045831 0.45714438 0.14043242 -0.12499781 0.24955475 0.55670923 0.5465678 0.62502944 0.37745085 0.14009166 0.087880045 -0.07692881 -0.07010585 0.4183331 0.5063605 0.49747366 0.610331 0.2798331 0.31955373 0.367961 0.5016924 0.66817564 0.8235884 0.8643749 0.3268884 0.19180784 0.41230205 0.509529 0.1802442 0.19989847 0.27686477 0.84868735 0.18225892 0.33445066 0.17943439 0.15441407 0.1886577 0.22025767 0.8158616 0.8450445 0.27967995 0.3720057 0.33023006 0.20851867 0.1083965 0.79735804 0.28709123 0.4109335 0.37250182 0.36783618 0.35160792 0.032891974 0.110072926 0.6801665 0.78292954 0.097876504 -0.09560405 -0.18909413 0.33124787 0.35589018 0.17568617 0.2962549 0.36688933 0.49767926 -0.058061514 -0.21602415 0.26965594 0.096576795 0.42871204 -0.07589274 0.058321707 0.48870325 0.4095461 0.003972551 -0.026900152 0.0456122 -0.023295358 -0.027050182 0.60535157 0.3280486 -0.0665635 -0.007977948 0.049098432 0.06349693 0.5838759 0.24014932 -0.22811687 0.45322654 0.16887096 0.23985593 -0.06261987 -0.09488968 0.17093156 0.15449667 0.17706995 -0.058928028 -0.15011501 -0.058938015 0.2667931 0.22543865 -0.30883148 0.28308427 -0.21453044 0.27876663 0.14744067 0.24759127 0.16515173 0.21682115 0.35938865 0.21021718 0.3083398 0.36821818 0.46870065 0.44307297 0.22492915 0.5504485 0.2624242 0.28365782 0.13659644 0.35280865 0.37308478 0.45421958 0.54181087 0.6098476 0.25221947 0.2402052 0.07485407 0.18993938 0.092448585 -0.038394466 -0.11894104 -0.16785832 -0.074020565 -0.0058746487 0.19435391 0.2562667 -0.12891749 0.02937068 0.30066043 0.41608292 0.34634522 0.39207298 0.44298902 0.4414631 0.4955132 0.21164125 0.1543619 0.16856834 0.2747223 0.41754362 0.39310336 0.4213266 0.4234578 0.5042205 0.54345375 0.11303267 0.3237175 0.34267578 0.3770128 0.14299425 0.07601439 0.3490224 0.29972246 0.3513222 0.15101135 0.43647233 0.4612093 0.43832424 0.2427065 0.17441972 0.0821167 0.15215138 0.32637367 0.25056395 0.21539295 0.22312653 0.16925141 0.44637004 0.7352872 0.09540798 0.11406836 0.14833587 0.19014761 0.24359259 0.20414954 0.7972315 -0.1651581 0.117313266 -0.1454044 -0.07138771 0.074411996 0.19851917 0.15475334 0.17188457 0.7584598 -0.123675495 -0.13106559 0.06438548 0.28946552 0.72511697 -0.11694053 -0.13280214 -0.2515681 0.044551827 0.24888365 0.31972313 0.0046273656 -0.2263462 -0.103068896 -0.16701727 -0.14723954 -0.10596313 -0.14636557 0.30808643 0.29128712 -0.089410834 -0.03725278 -0.037709434 0.18187907 0.20148814 0.38375401 0.41185975 0.039425503 0.05114738 0.036966734 0.3141999 0.44668713 0.45073748 0.24790005 0.003305545 -0.03494127 0.38476598 0.44391805 0.24450213 -0.062195517 -0.27577657 0.0023376346 0.1760098 0.2310454 0.21175435 0.20088132 0.16855831 0.20004098 0.09812451 0.20171314 0.25656995 0.16699797 0.033939168 0.22613123 0.27611148 -0.3529895 0.13225813 0.31086558 0.2588746 -0.29627174 0.18267463 -0.07554695 0.24932194 0.25452548 0.018963307 0.13362181 0.37567377 0.37077606 0.38479534 0.4437533 0.4671008 0.5529153 0.5097505 0.6372793 0.6078248 0.40731877 0.20695317 0.16965343 0.33731228 0.43158597 0.47020334 0.64123243 0.6549064 0.2094169 0.19245227 0.24036661 -0.017305844 0.25614095 0.27857906 0.27127773 0.13033098 0.2748714 0.33872935 0.37886316 0.3563847 0.38605455 0.4234484 0.22623266 0.19165358 0.17134142 0.40133843 0.1459615 0.22988813 0.35408285 0.34710592 0.3615591 0.40578184 0.3391515 0.373222 0.22178714 0.8286861 0.8224039 0.7763382 0.6933644 0.2744428 0.29202327 0.31272015 0.19184867 0.18482764 0.86522907 0.87353545 0.86313057 0.7959762 0.7062062 0.2632956 0.8927232 0.8920369 0.85832596 0.75485206 0.54519755 0.23914263 0.28897244 0.2530919 0.06764652 0.306007 0.4001392 0.84258175 0.7957327 0.7368444 0.22742328 0.021738198 0.1878259 0.29953402 0.28456438 0.24696374 -0.03070858 0.18171078 0.28335732 0.22998962 0.635984 0.2044526 -0.06793204 0.20498207 0.63652897 0.3198437 0.26325837 0.17386656 -0.024362449 -0.08184096 -0.02394373 0.16407365 0.1985484 0.3609553 0.29901648 0.20928922 -0.1116521 0.019689754 0.10983855 0.16294307 0.13253959 0.35652727 -0.17467816 -0.030353054 0.11037878 0.113869816 0.34102643 0.3544044 0.21458963 -0.122978464 0.38508633 0.3648734 -0.11723646 0.0053588822 0.41582447 -0.11226082 0.36542425 0.39083958 0.21731794 0.1775505 -0.1115067 -0.17136227 0.14446655 0.19675735 0.12383736 0.18381742 0.15536161 0.21507883 0.023180977 0.31040096 0.3856994 0.26265994 0.3330654 0.36250937 0.14802076 -0.16323592 0.12070806 0.19117671 0.29836455 0.2752002 0.22267123 -0.13843875 0.29954556 0.40215415 0.39686805 0.5082829 0.6003778 0.5655721 0.5236861 0.46565908 0.64885676 0.1410037 0.093453914 0.25993195 0.4296199 0.55800414 0.63875276 0.6558632 0.053439282 0.2959048 0.12408935 0.15634146 0.37407905 0.2516058 0.3048643 0.22454765 0.40922698 0.41255757 0.38466632 0.35226798 0.33146137 0.25353467 0.9050716 0.96770346 0.9448755 0.8687793 0.9457153 0.868427 0.72355866 0.84157246 0.87187165 0.7442918 0.6558347 0.5781696 0.59551334 0.5726712 0.5051288 0.5164399 0.53669596 0.0864726 0.27507007 0.46997714 0.1462773 0.07723754 0.17139746 0.20633037 0.21669176 0.32384634 0.32356027 0.2181571 0.22113574 0.7172121 0.64412373 0.5936868 0.28277496 0.2859408 0.26876104 0.2824695 0.3127041 0.24898197 0.30445558 0.1694445 0.779379 0.7846518 0.77053547 0.5779422 0.32636994 0.2771392 0.2809262 0.121006444 0.34644946 0.42473876 0.4440318 0.85140884 0.83702874 0.28622776 0.17630324 0.36931646 0.3372465 0.8834369 0.49829304 0.24602358 0.1795888 0.11262517 0.122704566 0.23322806 0.25225526 0.21165633 0.039884534 0.15697175 0.31438938 0.8679117 0.83215404 0.7307669 0.5531031 0.1900121 0.091095954 0.25531396 0.2915968 0.22916758 0.21112779 0.23469727 0.23393382 0.23847142 0.18509662 0.15256596 0.18326396 -0.17319527 0.20676166 0.2727461 0.17474791 0.19373867 0.058891945 0.31810254 0.32270646 0.20169385 0.010652356 0.3476985 -0.002666518 0.035942018 0.34453425 0.36569285 -0.009261303 -0.0011825189 0.046002116 0.36328936 0.286291 0.296871 -0.106387734 -0.037943233 0.001180321 -0.19071317 -0.18566264 -0.40858674 -0.59699386 -0.35272795 0.28439075 0.29192084 0.1567109 0.15035501 -0.043387145 0.14497605 0.35055146 0.11172308 0.102326915 0.42032564 0.121984795 0.13136914 0.3330029 0.45855612 0.1381958 0.14557295 0.11643238 0.23041692 0.30442992 0.11836186 -0.26717827 0.0841786 -0.30133992 0.024966165 0.30994797 0.1370285 0.08818604 0.11589429 0.44838408 0.5099202 0.45966226 0.1802176 0.050891533 0.582763 0.41082078 0.361496 -0.012605712 0.47449875 0.59783065 0.6371721 0.112135276 0.34314302 0.5709054 0.08794651 0.12623289 0.253469 0.15809014 0.36698994 0.24130073 0.32904693 0.28229505 0.34948134 0.40807092 0.41972148 0.3414306 0.3449272 0.29915532 0.2359771 0.8760152 0.9690486 0.94158113 0.83938146 0.75309634 0.82377625 0.8450202 0.74204654 0.6880872 0.6282839 0.42027676 0.57134837 0.56719375 0.5320914 0.54381114 0.102857485 0.5088974 0.15460944 0.11504214 0.2010348 0.16462143 0.780295 0.18567094 0.08511889 0.71957016 0.7555815 0.76952183 0.64966387 0.62305135 0.5440346 0.46386522 0.29172713 0.25741577 0.22134742 0.21786508 0.16382036 0.017261427 0.6422001 0.6735842 0.6522249 0.36636728 0.39641175 0.36931664 0.35291448 0.7245201 0.6821785 0.1671542 0.10437854 0.1111861 0.1356416 0.4118799 0.31102264 0.11700285 0.27745718 0.41883764 0.41326404 0.3548154 0.8132719 0.13116154 0.002888199 0.09620002 0.14381418 0.055995904 0.23540534 0.49831492 0.84918964 0.077753626 0.1737583 -0.076949336 0.17701335 0.8301592 0.70231116 0.5473769 0.15313576 0.11411237 0.4870928 0.35306647 0.20282206 0.021432057 -0.06511114 0.020965189 0.12880658 0.13629124 -0.14028639 0.16909146 -0.2435338 0.14864996 0.28163317 -0.055549264 -0.05326784 0.27150014 0.30920607 0.27124053 -0.057114653 -0.11689691 -0.02405313 0.3317682 0.2399691 0.33483857 -0.026250005 0.091339245 0.2067834 -0.09795442 0.054602325 0.027007967 0.11852139 0.5855559 0.66395646 0.62220097 0.122097716 0.5397396 0.6268594 0.65370476 0.6146426 0.13781446 0.34875393 0.63726705 0.14125906 0.37519383 0.16326308 0.19251858 0.012464989 0.19012447 0.3697234 0.16777347 -0.3683651 -0.32286632 0.3596028 0.11582943 -0.36056536 0.4432856 0.58716357 0.12222564 0.1053308 -0.31444553 0.5533669 0.6640724 0.04041174 -0.24475025 -0.3605834 0.68087506 -0.28402838 -0.24927327 -0.09382734 -0.07701841 -0.093810424 0.38335037 0.035403892 -0.32385257 -0.19794004 0.109272294 0.20938379 0.26408172 0.16525654 0.24040923 0.3944196 0.35983688 0.27083054 0.23216163 0.8660928 0.9818343 0.97672904 0.8822216 0.6884651 0.78237605 0.74795616 0.6761582 0.63807976 0.62157595 0.057504635 0.5605112 0.08994812 0.5228189 0.05398962 0.4481902 0.15242377 0.13074815 0.118437156 -0.03614158 0.63029534 0.7471856 0.78265923 0.7862848 0.12962316 0.14781871 -0.11392537 0.5868495 0.69992673 0.77136505 0.7117007 0.55292344 0.5269496 0.47064322 0.32474822 0.15798216 0.069154754 0.15425085 0.18217385 0.12128335 0.06734332 -0.050597146 -0.0956471 0.46737254 0.28568918 0.3395675 0.34686688 0.32119653 0.30562788 0.20931722 0.39303094 0.49642834 0.5769109 0.584784 0.10797283 0.08198142 0.07536455 -0.039706133 -0.27124128 -0.013142042 -0.05289489 0.08583075 0.2189289 0.20301956 0.4397843 0.5056682 0.58419096 0.7412199 -0.1577184 -0.0140336715 0.08547044 0.29898396 0.44530994 0.54490525 0.62197876 0.7900958 -0.046633977 0.1769982 0.22122957 0.48817307 0.5668316 0.725494 0.68249166 -0.15384315 -0.20030302 0.032075275 0.09802985 0.4341721 0.26237184 0.07650899 0.06560403 -0.1570065 0.059262846 0.06470616 0.02662871 -0.28533974 -0.19727162 -0.15981941 -0.3287108 -0.32920176 -0.1339022 -0.114331685 -0.06253702 0.11591035 0.11559871 0.19385847 0.10907878 0.38427588 0.46586037 -0.2256506 0.031206638 0.10269946 0.4889093 0.5599788 0.5586097 0.28953892 0.5777463 0.5609789 0.10562138 0.52416813 0.56420743 0.48556006 0.12221205 0.18251038 0.52805483 0.51298