# vtk DataFile Version 2.0
Really cool data
ASCII
DATASET POLYDATA
POINTS 5270 float
-13.601511 69.971504 198.90987
-13.882965 70.1066 199.53665
-13.734223 69.884926 200.42314
-13.868186 70.9718 197.84169
-14.018339 70.81153 198.35509
-13.992919 70.57158 199.49506
-13.939753 70.58113 200.59283
-13.804237 70.50895 201.02621
-13.717584 71.64056 197.30495
-13.93105 71.49931 197.69453
-14.198399 71.506195 198.36511
-14.174031 71.721436 200.45714
-13.848363 71.55507 201.23608
-13.876325 72.24948 197.77855
-14.173137 72.052124 198.33894
-14.060116 72.48028 199.55057
-14.050242 72.446495 200.48207
-13.874908 72.22412 201.11127
-13.650612 72.867905 198.13716
-13.76891 72.9141 198.50125
-13.843416 72.86507 199.34122
-13.7824 73.054276 200.32729
-13.666224 73.09138 200.86858
-12.707279 67.20673 198.63356
-12.652029 67.70417 197.97203
-12.807302 67.59361 198.55191
-12.689716 67.46353 199.2508
-12.605573 68.13547 206.73228
-12.875963 68.09862 198.07814
-12.951241 68.29996 198.38246
-12.809239 68.53502 199.546
-12.645754 69.01242 204.91614
-12.712169 68.805214 205.58415
-12.688569 68.609344 206.71211
-12.627296 68.549286 206.98015
-13.444658 69.374855 200.30154
-13.421041 69.76712 201.09628
-12.665659 69.95404 203.57433
-12.917796 69.96489 204.38972
-12.769797 69.72769 205.88153
-12.673371 69.58779 206.52773
-12.617264 68.985176 207.25305
-13.109708 70.76328 197.31961
-13.446999 70.69094 197.61163
-13.502353 70.183304 201.42242
-13.324461 70.88072 202.07884
-12.892941 70.54451 204.43735
-12.786093 70.32553 205.47902
-12.635409 70.20767 206.36554
-13.330372 71.598694 197.17647
-12.617541 71.45905 204.29843
-13.241527 72.36264 197.2398
-13.504691 72.54387 197.54463
-13.264748 72.456635 202.49892
-12.841671 72.37768 203.41476
-12.854972 72.96869 197.32545
-13.203322 73.17867 197.87732
-13.212877 73.341736 198.3913
-13.195772 73.41946 199.6183
-13.424422 73.366356 200.47528
-13.201966 73.19048 201.34174
-12.909865 73.1749 202.38995
-12.6924715 72.93423 203.33861
-12.824981 73.71813 199.31013
-13.00433 73.63163 200.14328
-12.122058 67.0503 197.71404
-12.231697 66.85701 198.53488
-12.272953 67.006714 199.25246
-11.797971 66.9944 206.10323
-11.9250345 67.68905 196.95567
-12.402903 67.64272 197.64583
-12.087945 67.709145 200.21915
-11.764847 67.43412 201.28432
-11.860474 67.905334 202.08365
-11.697079 67.74375 203.84813
-12.321594 67.59762 205.77388
-12.438111 67.72725 206.46858
-12.165841 67.77659 207.32106
-11.858429 67.99904 207.93777
-12.061147 68.51089 197.11554
-12.367666 68.43724 197.48923
-12.457597 68.53677 200.59201
-12.283724 68.34148 201.29884
-12.419455 68.6472 204.57855
-12.351851 68.54023 207.58978
-12.08202 68.73976 207.95738
-12.13968 69.93146 197.19978
-12.301896 69.07785 197.5191
-12.339665 69.39648 207.4445
-12.136921 69.12692 207.81812
-12.199438 70.75268 197.00116
-12.103812 70.331635 207.3215
-11.883775 70.20242 207.70213
-12.671764 71.66495 196.94684
-12.545239 71.35684 204.84955
-12.286192 71.59504 205.02809
-11.961472 71.31912 206.4807
-11.829381 70.947845 207.22795
-12.46093 72.5078 197.07372
-12.241261 72.42426 204.15147
-12.46121 72.973946 197.31181
-12.486663 73.31288 197.6028
-12.389363 73.30105 203.33904
-12.141283 73.085335 203.85022
-12.306488 73.62948 197.9954
-12.567702 73.746025 198.64618
-12.311107 73.87196 199.13565
-12.210816 73.91805 200.5825
-12.220684 73.91628 201.37608
-12.23514 73.79919 202.4127
-12.031586 73.73795 203.05827
-10.605474 59.016785 197.81702
-10.641876 59.05419 198.24368
-10.631931 59.83104 196.1036
-10.747345 59.826664 196.59396
-10.833953 59.66914 197.48131
-10.792619 59.538006 198.31862
-10.630189 59.765526 198.94786
-10.678322 60.4955 195.96332
-10.792096 60.50603 196.45981
-10.936143 60.18854 197.51343
-10.824841 60.307243 198.3646
-10.617899 60.295853 199.05618
-10.590363 61.411484 196.09874
-10.724716 61.201553 196.33304
-10.729193 61.302925 197.4924
-10.684919 61.02565 198.41219
-10.642275 64.79891 205.97879
-10.825627 64.8555 206.61687
-10.766087 64.83906 207.31093
-10.642896 65.49753 200.84174
-10.803049 65.59038 201.75217
-10.919545 65.504974 202.38622
-10.843007 65.84549 203.74205
-11.08341 65.61762 206.00021
-11.077255 65.38835 206.3721
-11.074676 65.4546 207.48242
-10.916664 65.63622 208.0478
-10.9147835 66.97889 196.05812
-11.153974 66.691986 196.60707
-11.326055 66.533325 197.64302
-11.320427 66.46807 198.08347
-11.344188 66.64383 200.13416
-11.432482 66.66753 201.7559
-11.270744 66.32949 202.24754
-11.321447 66.91128 203.20297
-11.292787 66.67389 205.57016
-11.299936 66.23012 206.35924
-11.478424 67.01637 207.61256
-11.015129 67.67052 195.99445
-11.38896 67.63689 196.37616
-11.689343 67.96391 208.08537
-10.982658 68.58562 196.19751
-11.242065 68.795074 196.49997
-11.517786 68.53781 208.31157
-10.954553 68.91821 196.23346
-10.946822 69.53153 196.68993
-11.384894 69.42553 208.19676
-11.029838 70.68227 196.99301
-11.326913 70.43559 207.90457
-11.921422 71.80043 196.9755
-11.259359 71.3649 207.3901
-11.103531 71.12861 207.67775
-11.779261 72.19866 197.065
-11.055816 72.150925 206.29976
-11.1156 71.79281 206.97119
-11.897579 72.91862 197.28342
-11.779215 73.35815 197.71368
-11.208594 73.559326 198.28372
-11.3454895 73.23772 204.17075
-11.038394 72.94175 204.86758
-11.907355 73.63757 198.07487
-11.454075 73.7644 198.63326
-11.420207 74.11158 199.8131
-11.429276 74.16806 200.49965
-11.426884 74.086494 201.72969
-11.729038 73.932335 202.48885
-11.519385 73.70851 203.3221
-9.991367 58.366875 197.74257
-9.868735 58.29791 198.24121
-10.047004 59.306236 195.88928
-10.273087 59.164135 196.43274
-10.32793 58.724495 197.61243
-10.335492 58.707058 198.35197
-10.028767 58.818317 199.12889
-9.86114 60.00936 195.22826
-10.290567 59.781868 195.69246
-10.504637 59.397957 196.50758
-10.395448 59.535744 199.25516
-9.964906 59.48227 199.77167
-10.101301 60.458824 195.27237
-10.432561 60.372417 195.59296
-10.45509 60.579636 199.36786
-9.884194 60.4648 200.27258
-9.80106 61.37277 195.09
-10.444156 61.325462 195.90825
-10.462533 61.739227 196.22795
-10.493546 61.420986 198.43123
-10.418013 61.4006 199.20476
-10.101425 60.986713 199.97523
-10.061655 62.304073 195.69624
-10.232246 62.33832 196.19458
-10.33298 62.261536 197.71855
-10.144308 62.396343 198.46002
-9.871589 62.581646 198.97536
-9.816483 63.32621 196.68356
-10.108097 63.067146 197.77858
-9.830784 63.38019 198.35962
-10.249948 64.33407 206.00926
-9.96332 64.1382 206.291
-10.117752 64.27968 207.43349
-9.942636 64.31304 207.80037
-9.614842 64.46322 197.58803
-9.673414 64.41299 200.11812
-10.144713 64.69951 201.58408
-10.192853 64.67607 202.41841
-10.193292 64.96439 204.48717
-10.431719 64.56518 205.84593
-10.564405 64.50625 206.6305
-10.472624 64.60185 207.47581
-10.272834 64.71478 208.048
-9.880831 65.24344 199.57178
-10.539898 65.503975 204.05563
-10.458792 65.4991 208.39569
-10.0982685 65.611565 208.7189
-10.344323 66.92333 195.75677
-10.611592 66.04403 208.4362
-10.335102 66.50432 208.65363
-10.471409 67.53664 195.63223
-9.919939 68.20597 195.49283
-10.282563 69.365875 196.0848
-10.722012 69.36262 196.42024
-10.72838 69.31628 208.30171
-9.815796 69.9072 196.19173
-10.416293 70.49562 196.88094
-10.2489195 70.42457 207.99658
-10.538141 70.90862 197.14131
-10.711448 71.47904 207.53644
-10.480481 71.10203 207.78741
-10.786125 72.408676 197.41437
-10.381245 72.224144 206.36632
-10.532274 71.7783 207.1798
-11.200444 73.09239 197.66026
-10.626462 73.14503 204.50171
-10.62012 72.848495 205.25426
-10.652088 74.04879 199.70203
-10.600767 74.19061 200.5534
-10.50862 74.16959 201.19148
-10.663872 73.979256 202.01328
-10.623089 73.63496 203.42072
-8.676139 45.85752 197.86009
-8.793985 45.796333 198.42021
-8.715627 45.880432 199.1908
-8.774266 46.33838 197.86024
-8.914155 46.400078 198.45192
-8.742222 46.57129 199.31201
-8.6793995 47.001163 197.96362
-8.76619 47.00266 198.61137
-8.63875 47.131413 199.13911
-9.146629 57.90612 197.57922
-8.9763775 57.819435 198.21492
-9.394265 58.28471 198.80634
-9.751706 59.180393 195.75264
-9.008451 58.69451 196.42708
-9.497462 58.525673 199.26921
-9.387317 59.86694 195.21701
-9.649041 59.45969 195.4331
-9.63082 59.64972 200.22319
-9.077117 60.066734 200.79309
-9.705769 60.977528 195.02615
-9.604933 60.7242 200.58961
-9.428349 60.424957 200.75208
-9.556658 61.162296 200.60901
-8.879043 61.925903 200.863
-9.277994 62.282234 194.96289
-9.290032 63.313988 195.5624
-9.511726 64.30749 201.10045
-9.204921 63.826046 203.51265
-8.978703 63.743134 204.42279
-9.502556 63.98763 206.45807
-9.4692955 64.05034 207.56665
-9.31514 64.17438 207.9119
-8.992055 64.628334 195.93173
-9.481564 64.3216 197.86661
-9.541615 64.6405 208.33907
-9.502228 65.04072 208.68034
-9.067047 65.792564 195.91287
-9.500465 65.4915 208.89276
-8.803987 66.63454 195.22937
-8.948155 66.55185 195.4978
-9.091948 66.61529 209.3672
-9.298652 67.38578 195.26222
-9.072241 67.457664 209.3587
-9.379649 68.34193 195.27654
-9.546875 68.67333 208.49274
-9.245967 68.12646 209.0554
-9.585918 69.395706 195.66045
-9.194809 70.13982 195.97859
-9.931325 70.4749 207.88824
-9.997589 71.55188 197.24692
-9.775419 71.402596 207.30154
-9.956735 71.09824 207.65324
-9.246909 72.39748 205.57474
-9.777879 72.21399 206.17458
-9.813209 71.74536 207.07834
-9.984078 72.90283 198.22876
-9.107759 73.35375 198.87555
-9.072009 73.34267 202.91595
-9.595065 73.127266 204.44725
-9.468594 72.84635 205.11456
-10.118568 73.88447 199.80191
-9.432561 73.97743 201.4245
-9.926225 73.56972 203.2306
-8.091235 45.20758 197.79442
-8.237744 45.107937 198.47525
-8.139513 45.174904 199.33308
-8.087147 45.78704 197.29974
-8.3300295 45.64619 197.6162
-8.545233 45.41876 198.54828
-8.447182 45.572514 199.38383
-8.022318 45.842533 200.12073
-8.287322 46.4826 197.28409
-8.507364 46.40015 197.48038
-8.513001 46.53121 199.72365
-8.158522 46.448483 200.13496
-8.020653 47.16361 197.27069
-8.38882 47.242275 197.71854
-8.452247 47.52321 198.57224
-8.405216 47.16669 199.53174
-8.131474 47.064396 199.99162
-8.22698 47.783016 198.0546
-8.005593 48.09679 198.45937
-7.8623457 48.10933 199.24358
[...]
POINT_DATA 5270
SCALARS features_00 float 1
LOOKUP_TABLE default
0.38529375 0.3756919 0.3231581 0.61022437 0.5818305 0.47398964 0.4049628 0.376063 0.6736306 0.6751196 0.681497 0.54404885 0.45783287 0.71580255 0.7091143 0.6196998 0.5435389 0.5042549 0.7047601 0.6867922 0.61590147 0.53683555 0.5030909 0.40853935 0.42562377 0.41230392 0.34180725 0.45443538 0.41086578 0.40233523 0.27733153 0.35563797 0.40814936 0.46848387 0.47760308 0.26940155 0.2646528 0.23135564 0.34929556 0.4380098 0.48637748 0.50038683 0.52891093 0.54513204 0.2905658 0.29331303 0.3545466 0.4069109 0.48765722 0.6490549 0.32175723 0.6929711 0.71180654 0.41446143 0.33041984 0.67269826 0.68637294 0.664029 0.5610031 0.5085966 0.46660548 0.43542218 0.38758504 0.5639355 0.50420874 0.4446469 0.4116372 0.33775952 0.31200933 0.40495014 0.4237151 0.16899869 0.047817394 -0.0012632385 0.035073247 0.3356641 0.42297012 0.4631746 0.4813423 0.33472425 0.35793024 0.1502724 0.07404924 0.27725258 0.49526182 0.5083369 0.25439695 0.293535 0.5238342 0.5193956 0.38130575 0.5633238 0.56752837 0.58975214 0.3593492 0.3699356 0.53309166 0.56257564 0.62363774 0.36439836 0.6374179 0.63867253 0.41661352 0.40357304 0.6111277 0.6010831 0.5395116 0.43754232 0.42440826 0.4361626 0.42827076 0.568685 0.5612829 0.57620203 0.58606595 0.5885459 0.5651423 0.5337623 0.5699763 0.57239985 0.57801014 0.5342115 0.5042112 0.5341952 0.542312 0.4828577 0.46598244 0.36303145 0.46224892 0.5498974 0.05524884 0.093638785 0.11120518 0.08687088 0.2793299 0.37499794 0.5267538 0.552798 0.34247234 0.3999741 0.4423312 0.40527377 0.12432848 0.05043809 0.070895284 0.036284678 0.16279925 0.32204196 0.4468226 0.3401168 0.37559682 0.4780971 0.28827935 0.2786354 0.50270635 0.2518206 0.18200102 0.5330144 0.18488121 0.5584167 0.48715416 0.53442824 0.5370547 0.5041932 0.4217084 0.49549696 0.56727386 0.5613743 0.4571787 0.3761679 0.32752818 0.56667936 0.47669968 0.4180569 0.39176303 0.38383186 0.41639242 0.40206444 0.51377213 0.4918341 0.53231436 0.55871224 0.5511776 0.53718376 0.5116295 0.5299002 0.5582301 0.5782721 0.520649 0.47362047 0.5453082 0.56190217 0.47181594 0.3936593 0.50165486 0.5392635 0.50297534 0.41680065 0.41510117 0.40729547 0.46197623 0.4489774 0.3350471 0.2918796 0.24063385 0.29253766 0.22410452 0.124516234 0.419743 0.479793 0.58600855 0.6020551 0.07909398 -0.018143509 0.10800125 0.15202734 0.16399416 0.36723465 0.49436492 0.57955134 0.6041124 -0.04412837 0.10098434 0.5774493 0.56264424 0.26656935 0.5255525 0.47901815 0.29652706 0.26217666 0.18264723 0.18916357 0.47849894 0.118732244 0.10625343 0.48586786 0.14449452 0.501094 0.50437975 0.3596006 0.36248058 0.46126866 0.47473446 0.30610716 0.28678572 0.33505875 0.32914418 0.31616646 0.32934195 0.32985088 0.8886147 0.90990174 0.9176319 0.865707 0.87542236 0.86824095 0.8193828 0.83001775 0.81243193 0.4724603 0.42817232 0.4362477 0.49300325 0.41318437 0.44647583 0.4821067 0.49395442 0.40412343 0.25928876 0.51008 0.3260513 0.29455817 0.30293274 0.18006109 0.37024724 0.2854498 0.08345861 0.20721668 0.228556 0.509053 0.5857799 0.5893878 0.02827534 0.039134264 0.59488684 0.57602 -0.00505134 0.55574703 0.066243105 0.075746365 0.53103083 0.18472938 0.50644934 0.2304601 0.35777798 0.44524908 0.19028728 0.11426601 0.44860542 0.12966885 0.42446524 0.45769536 0.2314201 0.31378216 0.4097154 0.21614319 0.23004812 0.19085151 0.24425897 0.23390424 0.2874081 0.23056543 0.26499984 0.9142229 0.95775723 0.9499228 0.8564595 0.88486934 0.9390138 0.9343388 0.8732872 0.8231303 0.8437677 0.86598945 0.84949434 0.7696867 0.78407884 0.77139306 0.7954835 0.7892746 0.7429117 0.70880544 0.6856685 0.5269987 0.56215084 0.4894256 0.2998644 0.38081348 0.38121572 0.34388146 0.22205482 0.25831705 0.35258338 0.3564701 0.08607206 0.0747565 0.32702988 0.15212251 0.24231261 0.07136308 0.03808789 0.1640926 0.2967883 0.49198288 0.5436356 0.5666564 0.5614754 0.55350316 -0.1585526 -0.13997287 0.5497209 -0.019703165 -0.0064411983 0.54574513 0.5430015 0.066243716 0.5302842 0.16892555 0.47722352 0.16902721 0.21282288 0.06734751 0.32126442 0.08084487 0.21338694 0.19584277 0.2335 0.2736906 0.29890847 0.3337545 0.2579998 0.21101306 0.18645653 0.9168825 0.9324243 0.89352524 0.8772588 0.84741473 0.8203086 0.7958391 0.79839855 0.71670765 0.69216084 0.6833177 0.6788751 0.5633576 0.57637817 0.644169 0.593819 0.51289606 0.61185217 0.6505641 0.6606126 0.6290453 0.568947 0.60821617 0.63667905 0.5820086 0.5364376 0.56979764 0.53546464 0.42708117 0.44502264 0.45079547 0.35058704 0.35492218 0.5757505 0.49716058 0.39267075 0.50376374 0.4880042 0.38034672 0.283608 0.6172018 0.63096976 0.5592129 0.2766378 0.3558627 0.210741 0.14186867 0.30481586 0.57903063 0.60617393 0.5698241 0.48276305 0.20928247 0.289334 0.33844244 0.4678604 0.50890833 0.47405955 0.2935354 0.05125504 0.22283337 0.30365568 0.3088811 0.24841203 0.019824535 0.12564082 0.21075554 -0.09404068 0.054658704 -0.22184059 0.032116115 -0.17614387 0.3460279 0.4521001 0.48445714 0.3243992 0.2611673 0.01749944 -0.24916923 -0.1737923 0.36179173 0.43686634 0.35812575 0.3576439 0.32663834 0.2078373 0.030615568 0.53633845 0.369942 0.3399046 0.23972614 -0.023934051 -0.11592183 0.5483148 0.5298779 0.46830022 0.5044178 0.1071877 0.4086483 0.21050704 0.3033988 0.2508577 0.43255347 0.43357217 0.16042459 0.17093983 0.24023454 0.45849437 0.39995372 0.29884994 0.21676964 0.7891996 0.77147675 0.73556685 0.73424923 0.7776729 0.67608505 0.6363075 0.7076773 0.5644601 0.70969737 0.54241675 0.6464466 0.50401247 0.5869125 0.39354765 0.39823928 0.6068076 0.6773391 0.6854751 0.63607806 0.31623352 0.28810275 0.5272736 0.5855885 0.61333877 0.53345066 0.42732894 0.4605298 0.49196577 0.5251141 0.46105653 0.3950264 0.449903 0.3968055 0.33251554 0.3889151 0.42958188 0.37374416 0.25673676 0.27805018 0.3019496 0.32551023 0.36455446 0.3452707 0.55485845 0.2169598 0.26269278 0.29805312 0.5714197 0.5396254 0.45797324 0.5084871 0.49132833 0.37108612 0.24804875 0.44977295 0.60400265 0.4790396 0.36807358 0.2371273 0.17629743 0.25737655 0.37612653 0.4055313 0.41683048 0.434906 0.420875 0.35458478 0.39110398 0.34847093 0.34526706 0.34625384 0.25410503 0.12802544 0.25179622 -0.05983389 0.0057145897 -0.043036897 0.12385827 -0.22976106 -0.23030734 -0.27969107 0.055333465 0.17808247 0.21778773 0.23557755 0.14685224 -0.10907709 0.20212147 0.1634084 0.2416556 0.31679398 0.29017368 0.22669703 0.053362522 -0.0073858984 0.17410785 0.27259314 0.7159544 0.67249405 0.6296198 0.31845194 0.36274338 0.47322446 0.7429451 0.74742866 0.7240772 0.66663706 0.33853573 0.36770052 0.321469 0.5152752 0.5369862 0.7188694 0.7331033 0.70155215 0.5538747 0.44782108 0.28089365 0.29364118 0.2105932 0.08544422 0.4790035 0.67984533 0.6539059 0.6186595 0.54322195 0.16791733 0.18359779 -0.11091949 0.3159024 0.42905658 0.32252395 0.34216985 0.3312502 0.318456 0.25141263 0.42008933 0.4346823 0.4107839 0.36327267 0.33497778 0.19327694 0.45448017 0.45795286 0.45735854 0.42621362 -0.03305848 0.16487597 0.26314905 0.30084294 0.37665975 0.3361429 0.32315844 0.45994794 0.53157425 0.40172857 0.27012044 0.17933762 0.27846214 0.32729572 0.34422967 0.50629073 0.507197 0.38176876 0.53338367 0.6141826 0.59584486 0.5434749 0.6292081 0.5311464 0.5389085 0.5237336 0.61393356 0.4979014 0.4764232 0.6059055 0.46225274 0.6254008 0.6468277 0.6530104 0.28053144 0.32681444 0.59258026 0.6233914 0.65701145 0.6097363 0.18690702 0.21563369 0.23124745 0.46994308 0.5298493 0.49939877 0.41954333 0.40114582 0.23007798 0.36228988 0.28923237 0.31240338 0.2952159 0.2757746 0.23485175 0.29849523 -0.024096034 0.22231059 0.15062681 0.15575674 0.14903218 0.13043913 0.2868452 0.25539258 0.08282929 0.031281367 0.40395626 0.32955053 0.35292926 0.34694582 0.24125944 0.25362787 0.30866706 0.5147808 0.53424 0.53442985 0.04608302 0.053009443 -0.0066627935 0.2678225 0.008043598 0.49349475 0.5192695 0.020390026 0.008565061 0.2920277 0.5280109 0.01773978 -0.05395311 -0.09958038 -0.036165174 0.011469598 0.21434258 0.22660157 0.058067538 -0.15742913 -0.112406604 0.14796945 0.06231226 0.09657281 0.11735773 0.03908124 -0.15300457 -0.24762431 -0.010300659 0.08955913 0.12686574 0.12926234 0.14749105 -0.2574565 0.595193 0.19851154 0.17120583 0.09410663 0.16020018 0.67255944 0.67546004 0.61424387 0.5411752 0.2054759 0.160077 0.23354462 0.27708608 0.7134879 0.26211792 0.08518095 0.10661179 0.37511146 0.38855302 0.6838747 0.41988903 0.31192088 0.00059366133 0.1798099 0.118269816 0.45964143 0.6289217 0.5917641 0.51215184 0.44285756 0.2750434 0.38550898 0.537644 0.52191854 0.3731068 0.37834412 0.3376282 0.10136013 0.39522105 0.4214089 0.00061796606 0.3925644 0.42288712 0.44040436 0.46768627 0.36179397 0.18882805 3.874302e-06 0.27181992 0.45311892 0.46984512 0.4598018 0.4213065 0.5171738 0.4654858 0.36346662 0.35099673 0.32156694 0.52116567 0.5666882 0.56196094 0.50257593 0.31487834 0.35777962 0.5244776 0.51388514 0.5254607 0.4471866 0.4278519 0.43634313 0.47485617 0.46295708 0.44533664 0.44239685 0.42722586 0.43210137 0.38829342 0.6071568 0.61477864 0.6223388 0.32584894 0.29242605 0.24699683 0.3590027 0.5684272 0.5830474 0.5808227 0.5555147 0.25258845 0.291322 0.273715 -0.007852927 0.0864384 0.100578554 0.18520023 0.49875766 0.41151595 0.18448083 0.24372792 0.27608126 0.27732223 -0.05927606 0.3244085 0.2621142 0.27280766 0.16038659 0.19966875 0.25033253 0.17282966 0.039657224 0.018588156 0.25199965 0.28385514 0.2164532 0.037506558 0.15565667 0.22375055 0.19681762 0.1320002 0.04986275 0.23763643 -0.055592664 -0.011098385 -0.0052164644 0.2445162 0.10003972 0.0021405593 -0.059927147 -0.17935853 0.39556557 0.47629213 0.5427342 0.24429806 -0.0685532 -0.34375343 -0.4745132 0.025891013 0.15615131 0.3197263 0.56100595 0.5797475 0.1999778 0.11182962 0.05584423 0.0075129867 0.5838793 -0.0064167567 -0.020946398 0.013988696 0.4740598 0.024503425 0.0505258 -0.20482641 0.32103628 0.022198573 0.06498266 0.0018750876 -0.30894503 0.037923753 0.011248067 -0.096733786 -0.10901984 0.121043265 0.16267604 0.04384984 0.033890396 0.04015681 0.06401585 0.487332 0.5304693 0.48921624 0.28850982 -0.15648922 -0.022072602 0.59946746 0.13839239 0.5674371 0.29214165 0.5959859 0.6154256 -0.0016195541 -0.093447275 -0.023054669 -0.02469175 0.41472474 0.52589726 0.14166562 0.023469292 -0.09597495 0.32717055 0.46886504 0.4089985 0.35685116 0.196545 0.11381565 0.08919616 0.12699884 0.25301138 0.31379488 0.25422236 0.16383062 0.13403119 0.17692746 0.31867027 -0.047150306 -0.056780726 0.1417866 0.113141604 0.3721317 0.39184183 0.22486614 0.50959855 0.5580311 0.49055722 0.3342981 0.2397371 0.33454147 0.3113712 0.27715456 0.3630531 0.40873265 0.44969434 0.44138658 0.335504 0.27013096 0.54998237 0.6122275 0.6176252 0.54535484 0.35082197 0.3636048 0.3477313 0.6079639 0.35987258 0.3035988 0.43297648 0.39472207 0.3827564 0.34182942 0.13365489 0.34138903 0.31658268 0.5746332 0.5522995 0.56532633 0.30240947 0.28247747 0.44055393 0.5074538 0.56272715 0.4735094 0.14307867 0.20812091 0.13639869 0.2101906 0.18197648 0.18588984 -0.0029490888 -0.06871392 0.019279212 0.062101655 0.07590374 0.2196215 -0.057857536 0.009906784 0.20900697 0.043074112 0.07272447 0.10141269 -0.0025564209 0.02509547 0.10653771 0.16034028 -0.1468003 0.016589202 0.06331888 0.013786212 0.5280711 0.37608147 0.2648117 0.28528035 0.5416649 0.5620805 0.5670174 0.36379498 0.23115084 0.6483109 0.5507653 0.62899745 0.65659785 0.09746176 -0.021984704 0.52731526 0.64683986 -0.075437866 0.41199702 0.28367707 0.0035898834 0.034639403 0.16695707 0.004580468 -0.019172154 -0.21615142 0.42569375 -0.4497878 -0.2455948 0.48457348 0.49435937 0.019541997 0.12209796 0.51543075 0.15669349 0.32831523 0.5065147 0.4702893 0.30544108 0.36418745 0.44612494 -0.0049473643 0.18506408 0.1367287 0.3151127 0.2565158 0.20896953 0.151425 0.14409699 0.17877276 0.24638805 0.22336762 -0.00783553 0.13049513 0.08609311 0.24249882 0.20423615 0.17866361 0.1485259 0.21437189 0.2497872 0.2421084 0.21495074 0.31779295 0.2572634 0.20445785 0.32621443 0.33268896 0.39149755 0.21418768 0.18393107 0.32160437 0.3463484 0.36381933 0.2354865 0.32320467 0.38540795 0.07408192 0.37827772 0.50475556 0.41761112 0.28475985 0.20453632 0.077604674 0.033952497 0.34836546 0.32840952 0.4654226 0.46873403 0.13415082 0.26267603 0.20364726 0.23096015 0.363327 0.41054314 0.49314183 0.48714012 0.0151117 -0.079003304 0.052190483 0.4424827 0.4472299 0.28679457 0.22529846 0.22759975 0.07535212 -0.03702627 -0.015619457 0.0037903711 0.34119165 0.13200027 0.114432275 0.08778261 0.024922745 0.037513845 0.094070606 0.10816507 0.074899934 0.29802144 0.23835194 0.15293287 0.42869902 0.47211337 0.46795458 0.5145101 0.5408586 0.394593 0.34597516 0.4718098 0.4816748 0.46517992 0.47515023 0.54758936 0.53210276 0.57726085 0.6371002 0.44657427 0.4280432 0.5425141 0.5312233 0.53357 0.54744524 0.617785 0.68866765 0.7155965 0.4242783 0.40611786 0.3086354 0.5621331 0.39374715 0.43767697 0.48172835 0.582827 0.60398453 0.7137281 0.7224889 0.1948936 0.05980873 -0.014947481 0.36257473 0.42844486 0.6910186 0.7096807 -0.09931738 0.034907103 0.20296699 0.0025666207 0.38299462 0.35286972 -0.19834396 0.4507999 -0.04758894 0.44227505 0.47789544 0.18777445 0.4001732 0.6259284 0.4057623 0.14721727 0.53735524 0.61784744 0.34847337 0.2688325 -0.27787614 0.23475477 0.29381365 0.290052 0.102330044 0.3136201 0.59635186 0.2602492 0.25024664 0.20461687 0.17776436 0.14006363 0.18741208 0.20015422 0.16719973 0.11918028 0.18192631 0.0060498863 -0.17663589 0.09130386 0.46849543 0.24987522 0.22511996 0.1960496 0.15639767 -0.056615718 0.13594495 0.24449718 -0.10506588 0.07729589 0.26105252 0.37514344 0.44577563 0.23251452 0.15772568 -0.08537525 0.26917097 0.3777431 0.6042206 0.6581726 0.6789832 0.28846365 0.34615058 0.48682305 0.33451855 0.25589672 0.09103153 0.013523415 0.35979298 0.5563369 0.55891913 0.5451092 0.4790539 0.35982597 0.20747237 0.2840164 0.52680814 0.50332654 0.19939773 0.38861722 0.5160872 0.50485444 0.32938424 0.2827118 0.11835307 -0.029192887 -0.0036522374 0.61184406 0.5787192 0.43886527 0.48318654 0.4900657 0.11137504 0.063088864 -0.17527711 3.886223e-05 -0.06479784 0.51727307 0.51351345 0.37794518 0.14469631 -0.05349334 0.5025115 0.5027786 0.1622766 0.0038658334 -0.053314522 0.082319334 -0.03195214 0.38116387 0.43656886 0.26446363 -0.05904321 0.37456337 0.4205264 0.41220158 0.45890802 0.497382 0.5601446 0.40658784 0.37434974 0.40620703 0.46774137 0.6067432 0.67091435 0.43841904 0.41220027 0.54029465 0.38285005 0.69564795 0.39179474 0.5121361 0.37322986 0.3719258 0.6729256 0.29260486 0.37759656 0.30163515 0.29514426 0.57893944 0.61390567 0.57080203 0.32648176 0.28543004 0.10875051 0.2517935 0.23542926 0.36610967 0.4613756 0.46711326 0.43661475 0.28115144 0.21069476 0.0436749 0.4844944 0.4359562 0.346836 0.23204175 -0.11735192 0.48541546 0.45527977 0.25762817 0.13858193 -0.05587057 0.2790996 -0.06838854 0.36832762 -0.15038933 0.4002071 -0.2174077 -0.35676655 0.29401273 0.49353862 0.5846505 0.6641007 0.10186304 0.63214403 0.67409396 0.59203064 0.64725804 0.20791483 0.08479452 0.055539027 -0.13279635 0.33905244 0.059260584 0.09668323 0.45474124 0.53080976 0.24370681 0.24966113 0.25608736 0.24196996 0.18143354 0.064232826 -0.019808702 -0.19136983 -0.010060471 -0.036297016 0.10038769 0.41918033 0.32114822 0.24751113 0.22745071 -0.02333121 -0.052169323 -0.08045184 0.05657887 0.19761278 0.3412065 0.43884152 0.32843316 0.33471447 0.3072602 0.5684272 0.35659674 0.36916268 0.3648485 0.34706557 0.413784 0.5180825 0.626154 0.7634188 0.84994256 0.37284163 0.40126085 0.400489 0.3642095 0.47353494 0.5751898 0.6626656 0.7831863 0.85314196 0.43955025 0.53491825 0.6110405 0.6945275 0.821782 0.82447207 0.8152577 0.5440754 0.60137475 0.66470385 0.7067803 0.77548516 0.76935613 0.6382428 0.6918551 0.72199106 0.72855794 0.015300073 0.25423443 0.5370095 0.47513723 0.3860443 0.27045175 -0.0026386622 -0.012670815 0.25307456 0.582271 0.57718194 0.5684916 0.2642901 0.56138337 0.2090202 0.9387733 0.90682197 0.8723315 0.08065061 0.86404145 0.908693 0.8204461 0.7839163 0.75354433 0.5342588 0.45752138 0.4045165 0.2368949 -0.04346161 -0.054061607 0.73549426 0.6435654 0.609321 0.655384 0.44148326 0.4899634 0.047746405 -0.06321598 -0.06855426 0.57133955 0.5180903 0.5198653 0.5369669 0.3277896 -0.1242626 -0.09249737 -0.07635482 -0.06955644 0.4841789 0.4890641 0.50164753 0.51186687 0.24174738 -0.08728996 -0.08705432 0.48962298 0.07008874 -0.05294964 -0.112071484 -0.08220631 0.31910402 0.34598774 0.3269333 0.27415285 0.41446823 0.25634626 -0.12146424 -0.09174585 0.2967884 0.33911598 0.321799 0.31214473 0.32524237 0.3506111 0.39556846 0.20550378 0.60619575 0.33726037 0.27783746 0.48451886 0.1414926 0.124255836 0.22715202 0.24411584 0.41054854 0.38049185 0.42857113 0.12509005 0.21660177 0.27185416 0.2194674 0.13696702 0.28587437 0.37974036 0.49033833 0.48110566 0.37403798 0.34843287 0.49631798 0.49189693 -0.23281163 0.49408466 0.4729357 0.44051844 -0.021771844 0.38075724 0.13507764 -0.3549348 0.0652543 0.24356368 0.3242599 -0.59246886 0.1250294 0.47450313 0.5030353 0.5334393 0.6278491 0.11500557 0.13398904 0.06767735 0.68880546 0.6817943 0.1962643 0.12714934 0.017621674 0.63482845 0.2056762 0.27661327 0.049989305 0.028283335 0.060112488 0.30327109 0.50585276 0.2619189 0.25842115 -0.032387782 -0.116106465 -0.088930756 -0.20702872 -0.26913747 -0.38338333 -0.31381783 0.28102025 0.27292174 0.27469733 0.1989146 -0.14631404 -0.108182356 0.096030325 0.35425484 0.18750381 0.022407599 -0.013646934 -0.038836405 -0.1707469 0.014837235 -0.15537688 -0.044147566 0.2657532 0.14768861 0.16718619 -0.11354878 -0.12904842 -0.10740252 -0.10730417 0.21402584 0.14270128 0.2112554 0.1035866 -0.026309345 0.23826376 0.24995714 0.28496158 0.28788882 0.24625005 0.06956233 0.12239821 0.2299197 0.21962784 0.2610336 0.47277892 0.5638169 0.6552261 0.3269548 0.2697197 0.14684299 0.26490322 0.34612638 0.7589818 0.8062468 0.40621585 0.37302166 0.39857376 0.41916913 0.25376204 0.25343984 0.30740133 0.8409433 0.8088193 0.56681395 0.53983533 0.43283772 0.414892 0.4099406 0.41905713 0.3889721 0.32338348 0.36134893 0.7789115 0.7784542 0.68088424 0.6458218 0.54870564 0.517661 0.51018083 0.7136142 0.7220341 0.71092343 0.7069713 0.6858635 0.51017654 0.59817463 0.68049073 0.69266534 0.6629598 0.63385016 0.64884305 0.6666205 -0.038797423 0.5088069 0.43720338 0.41462368 0.30241293 0.07200751 -0.03233038 0.10106541 0.11590605 0.17270865 0.27098784 0.5449365 0.4858138 0.42667365 0.24476576 0.82032055 0.5534594 0.20279121 0.06841373 0.8505374 0.8598467 0.84738857 0.82638144 0.4627894 0.0613906 0.87056285 0.7363925 0.7065592 0.39658397 0.31713486 0.23812209 0.23144698 -0.047367856 -0.0063596815 0.72131056 0.62804925 0.43630517 0.462775 0.18107928 -0.17852122 -0.029592693 -0.055489484 0.531758 0.5488846 0.22617657 0.26762366 -0.1126486 -0.05785031 -0.07218328 0.44345996 0.15904509 -0.06906752 0.113123566 0.09682357 -0.170825 0.47105226 0.41226074 0.023303673 -0.25986722 0.26333183 0.23549815 0.36449724 -0.07598329 -0.05675766 0.22993758 -0.09056496 0.21326803 0.41935983 0.057803158 0.3076264 0.2968115 0.25305453 0.291644 0.31338248 0.44497567 0.03994833 0.18953109 0.07503087 0.08978987 0.26021898 0.3157409 0.3230793 0.46327513 -0.4647776 0.41660357 0.38269693 0.26824093 0.48783702 -0.053926155 0.45653722 0.42138433 0.33627522 0.4851346 -0.004422644 0.44436088 0.39213789 -0.017820332 0.114494495 0.04004818 0.20022175 0.39825648 -0.14421263 -0.22071186 0.52836365 -0.07361751 0.61919546 0.13296214 0.10405698 0.6037006 0.26859245 0.16062222 0.091647424 0.45019603 0.2968686 0.11614315 -0.06368902 0.08689815 0.06463775 0.031077288 0.006854579 0.061490886 0.4166354 0.53880346 0.51886946 0.44310737 -0.022586334 -0.13400681 -0.17350708 -0.010384992 0.05787219 0.09201869 0.08573984 0.0632103 0.57815695 0.5935608 0.54666054 0.24641939 0.19713676 0.030183345 0.04324932 -0.020635948 -0.33796915 -0.36179054 -0.08173502 0.050683104 0.09940678 0.11523995 0.6219007 0.62441087 0.57103825 0.27484646 0.3352657 0.35455373 0.3121705 0.1343954 0.17944504 0.048429787 0.087377794 -0.1710192 0.2924209 0.23231694 0.08353155 -0.009015441 -0.11652827 -0.012790054 0.4493273 