# vtk DataFile Version 2.0
Really cool data
ASCII
DATASET POLYDATA
POINTS 9476 float
-44.668026 67.90948 207.04959
-44.668488 67.900734 207.53972
-44.59532 67.91561 208.0608
-44.648544 68.3834 206.9391
-44.7106 68.46159 207.58492
-44.64947 68.39985 208.01994
-44.579834 68.9874 207.65202
-43.887493 67.15952 206.5213
-44.12509 67.1739 207.6525
-43.991703 67.21496 208.0477
-43.805435 67.56589 205.97285
-44.40855 67.75922 206.79008
-44.474678 67.52438 207.46155
-44.303547 67.72618 208.29356
-43.90478 67.934784 208.80206
-43.885094 68.37294 205.67064
-44.405766 68.45483 206.5915
-44.36371 68.46618 208.44597
-43.959305 68.396614 208.85455
-43.928158 69.0704 205.96227
-44.150116 69.53655 207.07991
-44.402927 69.31787 207.49611
-44.120575 69.29642 208.3547
-43.97082 69.09177 208.72949
-44.088978 69.67933 207.74799
-43.931118 69.734375 208.09973
-42.8748 67.22461 205.16554
-43.10532 66.85436 205.78836
-43.26711 66.70168 206.36575
-43.50415 66.79225 207.38773
-43.45246 67.06845 208.27957
-43.170254 67.23415 208.713
-43.070248 67.75224 205.01643
-43.455627 67.46375 205.45953
-43.367306 67.65186 208.95605
-43.061867 68.507286 204.82706
-43.28143 68.51333 209.11635
-42.909145 69.2311 204.90283
-43.58392 69.24395 205.63007
-43.363144 69.21119 208.94179
-43.153248 69.75141 205.90372
-43.15597 70.01953 206.36864
-43.336864 70.16968 207.83922
-43.44303 69.9374 208.29205
-43.35327 69.733406 208.65497
-42.36134 66.38001 206.00015
-42.50941 66.36733 206.30298
-42.616875 67.151726 205.00897
-42.549294 66.66144 205.46608
-42.208706 66.52155 207.20195
-42.60701 66.96592 208.34868
-42.323708 67.24771 208.70425
-42.43239 67.762985 204.7
-42.63124 67.61269 209.03876
-42.65443 68.43291 209.22017
-42.411514 69.12164 204.5205
-42.786125 69.5102 208.86253
-42.308544 70.11808 205.36954
-42.37729 70.42747 206.5767
-42.60239 70.35932 207.54164
-42.507305 69.943886 208.41307
-42.784443 69.738 208.67638
-41.696175 71.94417 202.98654
-41.83021 71.80769 203.57472
-41.66911 72.49166 202.91751
-41.828434 72.52699 203.5623
-41.789097 72.57168 203.99341
-41.672302 73.10123 203.66158
-41.669357 66.3367 206.49608
-41.016403 67.05445 204.46507
-41.25101 66.53507 205.5261
-41.143646 66.53233 206.71259
-41.299232 66.71357 207.41803
-41.677338 67.038956 208.14453
-41.165974 67.7077 204.05598
-41.579742 67.60826 208.51653
-41.78461 67.84422 208.8752
-40.73142 69.022316 203.09346
-41.07261 68.6192 203.5326
-40.780827 69.162994 203.25171
-41.034317 69.9007 203.83994
-41.41697 69.69957 208.35382
-40.61342 70.60747 202.10735
-41.056725 71.00123 202.75125
-41.30267 69.93157 204.43283
-41.10564 70.67433 205.02719
-41.520725 70.32079 207.45201
-40.936466 71.80861 201.96625
-41.46651 71.68674 202.7177
-41.04545 70.74831 206.96933
-40.903023 72.386024 201.95146
-41.42926 72.33713 202.59727
-40.73453 73.18143 201.94012
-41.28226 73.22542 202.70973
-41.419144 73.459564 203.46024
-41.46376 73.4357 204.35379
-41.214706 73.626236 205.32361
-40.797142 73.644104 205.96426
-40.92698 73.78653 202.73239
-41.049 74.0446 203.60736
-41.052925 74.12899 204.56683
-40.896065 74.25362 205.33514
-40.774326 73.96803 205.87646
-40.49063 66.47483 205.41402
-40.67972 67.2136 204.20587
-40.19813 66.61386 204.72435
-40.60351 66.56133 205.1512
-40.187702 68.16721 202.93797
-40.30073 67.51407 203.62357
-40.804337 67.685684 208.37457
-40.020016 68.79446 202.08685
-40.236732 68.47249 202.83858
-40.074463 70.01265 201.65224
-40.33457 69.49912 202.68617
-40.12982 69.08935 208.24695
-40.18679 70.74978 201.43141
-40.7064 70.24787 207.68906
-40.358658 71.294624 201.5051
-40.23484 70.65049 206.83514
-39.89172 72.44776 200.76437
-39.998417 73.287926 201.06386
-40.38936 73.477646 201.65155
-40.341198 73.50725 206.20944
-39.94441 74.102974 201.68965
-40.27192 74.19786 202.35632
-40.594257 74.320694 203.26947
-40.614056 74.54427 204.40648
-40.489082 74.47473 205.53847
-40.345055 74.25477 205.88794
-39.931995 74.618774 202.8735
-40.122345 74.7478 203.85147
-40.236233 74.81842 204.6082
-40.198006 74.72241 205.33623
-39.7784 67.18337 203.60988
-39.49708 66.55904 205.43878
-39.356495 66.68724 206.67365
-39.816372 66.93203 207.22906
-39.477463 68.17116 202.1205
-39.35449 67.74184 202.6422
-39.575512 67.42592 207.83467
-39.6324 68.928696 201.54193
-39.73461 68.34199 208.31195
-38.58946 69.58777 210.43127
-38.53934 69.11292 211.052
-38.655685 70.9344 195.12251
-38.715244 70.85378 195.40411
-38.703815 70.78416 196.24236
-39.19379 70.39492 200.60869
-38.940556 70.56708 207.12779
-38.672176 71.14402 195.00949
-38.785805 71.449715 195.50063
-38.812317 71.46855 196.15254
-38.622696 71.29727 197.06125
-38.808167 71.52682 199.059
-39.009647 71.748566 199.41917
-39.3422 71.707954 200.30365
-38.656116 72.181984 195.71606
-38.638885 72.13623 196.3632
-38.565853 72.11714 197.41888
-39.66968 72.81964 206.14343
-39.36009 73.12019 200.44139
-39.867393 73.67649 206.28238
-39.19445 74.0319 200.96747
-39.52572 74.31567 201.59705
-39.532516 74.29257 205.99564
-39.164795 74.66148 202.05081
-39.260593 74.69389 202.41129
-39.305325 74.90955 203.7773
-39.566303 75.00675 204.53098
-39.517437 74.85162 205.36656
-39.504982 74.63773 205.73811
-37.514896 60.835533 209.85574
-37.62781 61.723644 209.79277
-37.574604 62.43589 209.53001
-37.565617 62.693573 210.25859
-37.553772 63.445107 209.70242
-37.581203 63.739964 214.62685
-37.529736 63.495342 215.21526
-37.665733 64.77108 214.58003
-37.630608 64.50818 215.30765
-37.65461 65.38967 214.61815
-37.60713 65.43955 215.12581
-37.512756 65.765945 219.59668
-38.425533 67.23343 203.01927
-38.351284 67.10762 203.29567
-38.90663 66.70742 204.58759
-38.21458 66.70322 205.74422
-38.530647 66.84696 206.13412
-38.649586 67.14959 207.76549
-37.59017 67.23822 210.8692
-37.502563 66.05696 219.8083
-38.740314 67.95974 201.9971
-38.349655 67.53019 202.77538
-38.010525 67.82484 210.37036
-37.8642 68.123436 211.52556
-37.80211 69.16743 195.85419
-37.627003 68.59134 196.29225
-38.218906 68.83707 201.1385
-38.237118 68.34454 201.46051
-38.25341 69.06289 211.58966
-37.815884 69.83031 194.8078
-38.351486 70.07361 195.65857
-38.209217 69.58181 196.31004
-38.029316 69.61759 197.33128
-38.74528 69.749916 200.80688
-38.40952 69.638245 211.31853
-37.946854 69.73385 212.01706
-37.916042 70.688644 194.33965
-38.229385 70.68274 194.70879
-38.55444 70.374825 195.62163
-38.205433 70.71205 197.38911
-38.24719 70.69456 198.45824
-38.65625 70.78176 199.80734
-38.50786 70.18909 208.35487
-38.41552 70.46487 210.4509
-38.24512 70.37364 211.33055
-37.910774 70.191505 211.88452
-37.955482 71.539955 194.24571
-38.36497 71.39351 194.68294
-37.665943 71.22879 208.87413
-38.138527 70.80956 210.00671
-38.034164 71.066536 210.62914
-37.97553 70.92295 211.20082
-37.86202 71.97081 194.29398
-38.256477 72.201385 194.83519
-38.453865 72.41276 195.38004
-38.530674 72.62634 196.33748
-37.817444 73.01779 194.89157
-37.9049 73.43567 195.54256
-38.192562 73.16651 196.50822
-38.156734 73.12516 197.66168
-38.250824 73.185455 198.64084
-38.617638 73.815544 205.8637
-37.791206 73.73403 195.88136
-37.688797 73.770096 196.04881
-37.89104 73.716125 199.63708
-38.93762 74.19192 201.09776
-38.37779 74.4305 201.63733
-38.66381 74.59986 205.43626
-38.828163 74.27615 205.83205
-38.787933 74.62976 201.9361
-38.775097 74.74088 202.74992
-38.827976 74.891396 203.629
-38.682335 74.90033 204.60587
-38.78149 74.78311 205.22365
-36.92449 60.01492 209.07657
-37.015507 59.94578 209.55473
-37.014633 59.969032 210.07153
-36.826767 60.7349 208.2563
-37.096333 60.510303 208.82442
-37.376957 60.609592 209.53903
-37.2792 60.66951 210.27362
-36.9895 60.395905 210.75294
-37.26254 61.51707 208.80469
-37.463707 61.237137 209.50443
-37.342 61.437344 210.43481
-37.10049 61.43775 210.97397
-36.956623 62.201996 214.65077
-36.89073 62.217304 215.56657
-36.765266 62.29989 216.1385
-36.67716 63.184475 187.18558
-36.604485 63.16631 188.10289
-37.17458 62.670704 208.82486
-37.485954 62.132156 210.68797
-37.006706 62.146366 211.34792
-37.270973 63.002655 214.07446
-37.195847 62.62593 214.6351
-37.2526 62.643524 215.3754
-37.060158 62.80126 216.25677
-36.754044 63.77805 186.87508
-36.855835 63.649834 187.50839
-36.7865 63.754917 188.17514
-36.779255 64.034874 208.26031
-37.060173 63.66909 208.63976
-37.41152 63.73547 209.44324
-37.470516 63.316128 210.3865
-37.252262 63.079727 211.07343
-36.655243 63.813225 213.241
-37.430332 63.332176 214.50717
-37.342262 63.716732 216.38506
-36.914246 63.39033 217.2617
-36.775536 64.412766 186.93272
-36.937126 64.37659 187.52942
-36.82414 64.44277 188.2401
-37.021698 64.831055 208.45494
-36.780403 64.50546 211.4224
-36.682293 64.982895 212.23114
-37.48293 64.95345 213.71045
-37.331295 64.72155 216.33887
-37.222828 64.79561 217.93364
-37.211758 64.87115 218.70322
-37.01345 64.891785 219.45227
-37.04647 65.12298 220.54068
-36.7627 65.27061 221.45457
-36.675385 64.88514 187.06749
-36.77885 64.930786 187.62083
-36.715134 64.97891 188.12881
-37.020733 65.1173 208.11842
-37.28755 66.145645 208.47392
-37.02983 65.42491 211.14632
-36.9514 65.75304 212.59706
-37.398087 65.25756 213.53598
-37.280178 65.51258 217.88333
-37.385757 65.57836 218.57426
-37.399544 65.50744 219.37474
-37.316315 65.697205 220.60014
-37.09878 65.727806 221.38434
-36.88765 65.80421 221.74585
-37.25145 66.93824 203.72725
-37.759605 66.714874 204.55823
-37.06629 66.49666 206.61986
-37.28639 66.3448 209.2371
-37.03754 66.61925 211.38684
-37.412964 66.072014 213.94144
-37.4212 66.02644 214.19171
-37.286907 66.053024 215.51811
-36.862656 66.2082 216.02605
-36.90653 66.25589 217.58293
-37.278683 66.53713 218.817
-37.327057 66.362335 219.40562
-37.306877 66.56542 220.5729
-37.231537 66.371826 221.24396
-36.893 66.36764 221.80081
-36.736378 67.8459 194.8081
-37.01488 67.900345 195.68126
-36.927418 67.80722 196.41444
-36.810123 67.938835 197.15526
-37.807213 68.251114 201.49062
-37.698196 67.76837 202.3661
-37.517487 67.49357 211.30576
-37.262894 67.93491 212.08273
-36.970016 66.88949 213.95316
-36.846542 66.7835 214.35184
-36.689648 67.152565 218.59082
-37.078526 67.01027 219.65225
[...]
POINT_DATA 9476
SCALARS features_00 float 1
LOOKUP_TABLE default
0.8233535 0.8469274 0.86485803 0.825516 0.8536971 0.8671913 0.85585654 0.7553706 0.83226204 0.8556876 0.7196803 0.80368626 0.8318459 0.87486446 0.90262854 0.7318256 0.8121418 0.8835536 0.90031976 0.76859736 0.82933444 0.84630823 0.85424805 0.8627609 0.825583 0.8177308 0.5665736 0.6328702 0.69595224 0.8115682 0.8555324 0.85710096 0.58412373 0.6474729 0.8934854 0.58176136 0.90102947 0.53940415 0.68904245 0.836396 0.63291734 0.7001925 0.73325723 0.7679074 0.78761363 0.5811669 0.6188875 0.52837443 0.5545415 0.6573126 0.74437684 0.7239607 0.48212242 0.8073418 0.88005453 0.41432685 0.75614333 0.43224925 0.608935 0.6349348 0.65315527 0.7228748 0.37668532 0.3492186 0.45093155 0.4600106 0.46235666 0.51736784 0.5392567 0.37665424 0.47230384 0.4610207 0.49005488 0.57434654 0.306562 0.5859619 0.6387383 0.19663496 0.23731247 0.18259498 0.123546675 0.5304543 0.16055208 0.19284073 0.1623914 0.22665364 0.48391896 0.33700714 0.3254933 0.3342734 0.42175975 0.42949447 0.49676073 0.5027754 0.5374378 0.58815956 0.670139 0.6931275 0.5357188 0.58365625 0.66538477 0.7080121 0.71194077 0.3894391 0.3444429 0.36050576 0.39724833 0.27749816 0.30344063 0.49500826 0.2455203 0.25802112 0.17731184 0.1682573 0.5664311 0.1909278 0.3511872 0.24285631 0.09069285 0.3967624 0.49749792 0.5120543 0.6821349 0.5174099 0.53885674 0.57442796 0.6752928 0.7184408 0.7158048 0.5436617 0.62216413 0.696421 0.7185526 0.31747738 0.32119372 0.28937468 0.3193856 0.32081485 0.32377294 0.34773254 0.28168505 0.5037932 0.51245636 0.49071813 0.5743501 0.5574766 0.49380308 0.22205722 -0.13409978 0.5891365 0.5844548 0.54352415 0.43679336 0.048170164 0.10669398 0.23212832 0.5981034 0.5492716 0.43087155 0.6073065 0.4591344 0.6823484 0.4769607 0.5003956 0.70258045 0.48562843 0.49811074 0.5797016 0.6812022 0.7160617 0.71424043 0.61218417 0.5323466 0.48102242 0.4414248 0.3899079 0.39783782 0.4568181 0.33566952 0.3712066 0.31840128 0.32501876 0.54541695 0.27720916 0.26826602 0.28056645 0.15846685 0.20402254 0.11296062 0.11287234 0.5782151 0.3187598 0.27654365 0.22446898 0.35150167 0.36676127 0.3014674 0.2253989 0.27709076 0.4808412 0.47955427 0.47588944 0.37631103 0.2938868 0.22123684 0.5284481 0.49692333 0.5663945 0.5647299 0.5071478 0.3362172 0.080308825 0.10382248 0.0705678 0.51983935 0.54238033 0.51521194 0.61431074 0.6070874 0.19916199 0.4284407 0.48506677 0.519807 0.637498 0.6379402 0.62511885 0.55565727 0.67164814 0.6617993 0.5513928 0.4689297 0.34803706 0.6375177 0.65478265 0.6476803 0.17250235 0.45685676 0.41066498 0.68052226 0.6816288 0.4570458 0.47427297 0.53133595 0.64074796 0.68947685 0.6725633 0.6719555 0.65514076 0.63603574 0.6578577 0.6428838 0.60545033 0.59263563 0.5903296 0.5931145 0.5297469 0.50018454 0.52199537 0.51760006 0.49316067 0.72189057 0.67440736 0.4476437 0.4591619 0.4094651 0.41632155 0.5031184 0.5116154 0.48331964 0.7912153 0.7770522 0.76141 0.19070914 0.2987971 0.34096783 0.37128192 0.33146143 0.16535291 0.43170422 0.4358379 0.38420025 0.8277633 0.82975173 0.8040985 0.1225481 -0.04990331 -0.060315058 0.26871464 0.31164226 0.34383643 0.40870234 0.4620136 0.5899384 0.59991634 0.81501126 0.8149322 0.79321516 0.0690715 0.00024832785 -0.15195742 -0.0049992204 0.24456713 0.3637859 0.44263014 0.51022696 0.64446974 0.6758652 0.666753 0.1662606 0.18237461 -0.20139927 0.038101584 -0.05859632 0.27314782 0.2831817 0.262995 0.18215325 0.3213558 0.48241472 0.5409282 0.65635264 0.7031348 0.6991097 0.33724815 0.2889214 0.22449577 0.13726577 0.2292805 0.22664142 0.18600138 0.28645363 0.17459771 0.20228967 0.43744412 0.5590843 0.62674123 0.6830516 0.34527 0.31744915 -0.2969759 0.09140416 0.36426026 0.5016155 0.45168254 -0.16931152 0.45979577 0.5546688 0.48561558 0.6096884 0.3965995 0.45785564 0.6556361 0.66524935 0.12363576 -0.06833273 0.091510035 0.14552218 0.22972783 0.6688937 0.6898198 0.70558786 0.71319646 0.6164241 0.4916473 0.35277453 0.12547019 0.27297112 0.35901588 0.4734304 0.40898427 0.43815595 0.67634034 0.6463543 0.3911382 0.41958618 0.43828773 0.64451754 0.66811615 0.67664224 0.63643694 0.5729861 0.31526121 0.33769658 0.38879955 0.42924505 0.40547884 0.3590367 0.5901065 0.528344 0.66287875 0.65122616 0.59035134 0.52862376 0.297705 0.29460183 0.27863035 0.3128178 0.37450355 0.31021416 0.5223035 0.48020947 0.3991558 0.52214634 0.5054896 0.47875664 0.43765146 0.6872139 0.6935538 0.6570823 0.5816859 0.5441091 0.29942942 0.25618434 0.23485455 0.28983226 0.2935189 0.23078878 0.4268024 0.19572458 0.4563188 0.41223043 0.36915484 0.7095678 0.75652534 0.6801874 0.67405045 0.23690057 0.2847768 0.27529564 0.19164692 0.19587386 0.31855652 0.26737314 0.31743544 0.7434561 0.79731107 0.7596742 0.68849474 0.6007036 0.2298238 0.2733778 0.2219994 0.44633174 0.47258547 0.7778202 0.77920866 0.7365477 0.69133204 0.02118428 0.11707276 0.2443782 0.12112503 -0.13898063 0.6151335 0.7002249 0.68589103 0.28144822 0.2043766 0.07773368 0.022603832 0.10913064 0.0946703 0.02143165 0.6418058 0.33167434 0.33821785 0.17713746 0.06664645 -0.18229482 -0.2635857 0.09812004 0.012841176 0.5115392 0.5734308 0.6221229 0.59247637 0.3478808 -0.25081578 -0.055672564 0.012454373 0.07721477 0.38361228 0.53676033 0.5735853 0.45807737 0.09236064 -0.008682601 0.11511637 0.5052602 0.34781975 0.2095558 0.33369872 0.31219015 0.63192844 0.022212714 0.10438228 0.1374807 0.25019002 0.6369124 0.6591362 0.11764496 0.19437362 0.2529264 0.68006 0.6856602 0.6216092 0.45513344 0.3017376 0.16483791 0.008913647 0.10336529 0.29643762 0.27950355 0.29735047 0.3701771 0.42500913 0.4096291 0.6559645 0.6637558 0.60740364 0.5318212 0.34938008 0.32840544 0.3391449 0.39376172 0.4333045 0.3683928 0.28497413 0.64238703 0.559849 0.46149468 0.42136398 0.5825489 0.5221019 0.42017063 0.38887513 0.3522413 0.3259167 0.23324263 0.42865562 0.4371627 0.63540554 0.6473023 0.62744105 0.51065373 0.47007662 0.47853667 0.411878 0.36810404 0.31054232 0.13105434 0.15742452 0.41557807 0.4010285 0.46345222 0.43102768 0.42218208 0.38396472 0.6370694 0.65781343 0.52251464 0.4692371 0.39926177 0.33066434 0.13636038 0.11212018 0.22108589 0.29367742 0.13712364 0.62641793 0.6363376 0.5261824 0.3037801 0.18282983 0.14143893 0.050635505 0.03206525 0.60639215 0.50804955 -0.035150602 0.13972229 0.14716065 0.045436148 -0.011646241 0.3895341 0.4109924 0.5540401 0.6636902 0.60074717 0.14250447 0.08424288 0.09646471 -0.010775909 -0.06874253 0.49556985 0.63606095 0.6186408 0.60095364 0.53167975 0.23352545 0.24338716 -0.046440147 -0.067992575 0.051731072 0.520302 0.2566497 0.29882574 -0.15363272 -0.109221116 -0.2787039 -0.04766685 -0.030698158 0.45581472 0.3137408 0.15270455 0.1853055 0.2923561 0.37809747 0.46019983 0.42084533 0.2796244 0.11385638 0.13225499 0.22648674 0.31982148 0.2534563 0.42139095 0.4518752 0.46995085 0.0005097608 0.052604154 0.056443848 0.46685705 0.47834176 0.5411343 0.01925411 -0.14529298 0.107327215 0.05831648 0.58605605 0.5930166 -0.03422557 0.05419177 -0.050150312 -0.011326987 0.11048092 0.09310651 0.63031197 0.60732317 0.5164302 0.38302612 0.26134494 0.09441885 0.049218222 -0.0249011 0.41556856 0.41256985 0.38979208 0.24013525 0.24974586 0.22946545 0.23298869 0.3301577 0.4203561 0.39906168 0.36519837 0.28918034 0.6623502 0.63278407 0.55925894 0.45191795 0.3449218 0.35122532 0.18816681 0.14843442 0.09619771 0.5702173 0.40878117 0.3682878 0.5903791 0.49443057 0.3527372 0.32496485 0.29099986 0.38807613 0.40763712 0.13425264 0.10467562 0.086189024 0.2836569 0.2388424 0.5782031 0.6331466 0.3669107 0.35886133 0.34429485 0.41719466 0.03343571 0.079584025 0.028627828 0.05861903 0.04539726 0.06581591 0.41786614 0.3514713 0.2694587 0.29979587 0.60252285 0.39182454 0.45429733 0.0042918734 0.0492256 0.013065249 0.028197272 0.20603298 0.33566916 0.4916389 0.5187385 0.3509852 0.42584133 -0.18409184 -0.06666514 -0.021882888 -0.014081836 -0.05128151 -0.24231744 0.41092253 0.48529416 0.513598 0.51521003 0.4211775 0.40668842 -0.107723735 -0.09335601 -0.07328491 0.44109625 0.53169054 0.3740397 0.51220745 0.37432486 0.16968471 -0.26139468 0.52023005 0.4235158 0.41377306 0.40749553 0.04948795 0.18061852 -0.18898709 -0.3210228 -0.1430088 0.43933287 0.49691927 0.11697884 -0.16444059 0.40649122 0.46915886 0.21116047 0.24013603 0.35736576 0.35801336 0.17412113 0.2089369 0.5009352 0.32306325 0.29487842 -0.04423742 0.042216692 0.34313694 0.4842864 0.5235688 0.52198666 0.4615823 0.44379944 -0.08528648 0.49327055 0.5291622 0.5070013 0.4437467 -0.1258794 -0.13669096 0.097732715 0.058332346 0.5491556 0.51221895 0.4395593 0.30921498 0.1817667 0.016914356 0.036463574 0.019224942 0.3879374 0.40868628 0.40948984 0.33237973 0.3947098 0.41155958 0.39731467 0.27889484 0.20184575 0.1847309 0.16746852 0.23645571 0.20287955 0.113828056 0.122932576 0.1397494 0.5544225 0.4979146 0.53231114 0.3709757 0.23585509 0.27249786 0.24095106 0.10796317 0.12534444 0.1439771 0.28456473 0.2100777 0.17796767 0.2965777 0.05320726 -0.13134722 -0.054683313 0.11186233 -0.0010294728 0.29209253 -0.35795844 -0.019187916 -0.05269088 0.26812664 0.29406694 0.3500333 0.38368976 0.36387637 0.38695347 0.4248386 0.5122522 0.38399968 -0.21341792 0.36417472 0.51421654 0.5406369 0.3568363 0.18164177 -0.22126305 0.24127239 0.54788613 0.5433498 0.3539718 0.17536408 -0.045300514 -0.35620904 0.5285882 0.2662252 0.28143936 0.10145417 0.52741987 0.5272866 0.08573109 0.25922555 0.15085448 0.14977947 0.12332488 0.52310586 0.1504244 0.06729161 0.05180867 0.4002145 0.44009525 0.48777413 -0.09791139 -0.0041568726 0.034127597 0.015129661 0.4360129 0.17676574 0.08010704 -0.10862261 0.5246431 0.23772854 -0.0027086511 -0.07198169 -0.16269416 0.29201353 0.4898315 0.5074463 0.25095153 0.09199532 -0.09840766 0.2789893 0.30274597 -0.03689 0.0071804784 -0.025522053 0.16335355 0.11383796 -0.019498497 -0.04308531 -0.049950704 0.045589656 0.21339631 0.19103351 0.15617548 0.25501025 0.28485918 0.3069339 0.31538668 0.3501433 0.38863087 0.39786375 0.17115423 0.29848063 0.36951178 0.29957527 0.09691324 0.14006187 0.13423651 0.0749162 0.04856301 0.07402243 0.074576534 0.13060176 0.13905591 -0.08781785 0.4048826 0.540823 0.57896507 0.35659134 0.276232 0.1642017 0.18674661 0.13973644 0.0768245 0.10739443 -0.01637616 -0.09690897 -0.07009654 -0.04143642 0.47624347 0.44843006 0.18643492 -0.038463898 0.0052714646 0.033925183 0.40081084 0.28960174 0.002729049 0.37460804 0.39992303 0.44053856 0.27292687 0.50590056 0.53363717 0.17969498 -0.26692408 0.54583776 0.5501605 0.046093732 -0.16711394 0.54254866 0.52174413 0.33970538 0.36777154 0.4938182 0.3772976 -0.042171992 0.07255167 0.12223424 0.5290209 0.13399115 0.059180815 -0.021843553 -0.060130246 0.19963875 0.28292835 0.40019816 0.46464694 0.4979218 0.014849985 -0.19226645 -0.03876075 -0.2505045 -0.10752052 -0.20562801 -0.0517523 -0.29344028 0.4120556 0.45048663 0.11748814 -0.19412002 -0.13794824 -0.1206193 -0.08132866 -0.1869845 -0.19753867 0.32799894 0.29743978 0.18048999 0.19447982 0.109490395 -0.1572847 -0.043885246 0.30752984 0.28872693 0.17285787 0.14662558 0.00054721534 0.26690388 0.2968623 0.29324502 0.31905317 0.32076746 0.30400893 0.3885594 0.42501634 0.42423755 0.32601288 0.37709814 0.44441152 0.46690273 0.4538598 0.47400886 0.62290597 0.5950415 0.5550586 0.57651395 0.5127821 0.4389844 0.23983845 0.25484726 0.2963646 0.3830465 0.24577352 0.22281551 0.1655115 0.13294327 0.1489925 0.13435239 0.14531247 0.12891518 0.02341874 -0.005254015 0.4575235 0.57880974 0.6028407 0.601148 0.4462614 0.35403425 0.24700734 0.13347737 0.031779226 0.023513915 0.062421855 -0.04664742 0.016912732 -0.013908881 -0.0009383531 0.3919453 0.5277064 0.56279194 0.28542903 0.22961828 -0.051102757 0.14362413 0.09533355 0.04729393 -0.18188886 -0.08004873 0.08355607 0.36144745 0.46856326 0.063402764 0.020402346 -0.003253188 0.41182587 -0.009342544 0.38189554 0.39282322 0.3490317 0.26981512 -0.10057324 0.30485374 0.44056696 0.05736708 0.50542927 0.5228269 0.11538657 0.46363086 0.28347307 0.3434507 0.4772814 0.4799853 0.37703964 0.37011805 0.29519787 -0.019677192 0.48891157 0.47101003 0.08470928 -0.3145087 -0.053743474 0.16659343 0.42225647 0.457596 0.48044628 0.05845878 -0.14237067 -0.20059158 0.32934353 0.39527285 0.42864162 -0.23216534 -0.16906105 -0.22883219 0.18067026 -0.1992963 0.17876303 0.067130215 0.1589953 -0.12569559 0.22980514 0.18234791 0.013324674 0.26858798 -0.029558148 0.0687305 0.12195511 0.11335081 -0.044694483 -0.16210157 0.26680875 0.05487311 0.011164956 0.3073901 0.28568545 0.27162755 0.27911353 0.21341172 0.31418982 0.24621685 0.34396362 0.33658051 0.30133417 0.4242316 0.38894522 0.42633954 0.45257843 0.4500326 0.39352626 0.46755943 0.47549793 0.47015145 0.47242922 0.4768787 0.4553281 0.5005878 0.48934442 0.47747833 0.6191683 0.65654516 0.6404574 0.57806456 0.4349737 0.5617913 0.4633334 0.33859432 0.5916223 0.20951569 0.23575039 0.20687962 0.056837015 0.027087182 0.07912728 0.563923 0.62153953 0.62932116 0.18913493 0.2122106 0.20148593 0.13853996 0.1557182 0.051604107 0.02057141 0.089667216 0.31466243 0.5431465 0.6560217 0.60953313 0.5614751 0.59888816 0.58607423 0.4251482 0.30530408 0.20603946 0.22193132 0.1662212 0.10029181 -0.0134548955 0.10813229 -0.14140251 0.5997089 0.5299431 0.5106931 0.1802361 0.009525588 -0.19472699 -0.08138492 0.42881924 0.45853224 -0.023192387 0.40929753 0.4175894 0.24371284 0.32321185 0.35290444 -0.05596311 0.26307428 0.33486015 0.34898555 0.36773932 -0.009232886 0.20929787 0.1968286 0.40109727 0.43408126 0.25486016 0.45022547 0.2828828 0.35150203 0.33961868 -0.005929224 -0.09975513 0.4728186 0.47176608 0.2624318 0.22246552 -0.0214962 -0.15249355 0.42210394 0.44148716 0.47533536 -0.09261201 0.13034573 0.3303819 0.4055702 -0.04688066 -0.13412406 0.2574338 -0.13532718 -0.1641625 -0.17217728 -0.18216316 0.13137227 0.1823971 -0.036064547 0.12966853 0.18757996 0.258997 0.22682378 0.22786485 0.26752424 0.22137736 0.09468321 -0.05302521 -0.08220564 -0.021071516 0.2639664 0.2839569 -0.028183505 0.0061776936 0.049458846 0.26560223 0.29582578 0.30911553 0.2739444 0.26895893 0.25681335 0.41215384 0.38913286 0.35629556 0.3367343 0.2627525 0.5044388 0.5149797 0.5006311 0.4681555 0.42417985 0.3428387 0.55350673 0.5272293 0.51252735 0.48931593 0.473175 0.5803585 0.63676906 0.6508383 0.59707403 0.36512935 0.43336442 0.54070795 0.37011614 0.22289339 0.1889464 0.4983837 0.5640059 0.565863 0.3542114 0.3450051 0.25790375 0.2883216 0.10341541 0.04475203 0.13392594 0.17947671 0.16814205 0.49471623 0.5885856 0.5723561 0.30931094 0.3012258 0.21933328 0.071458794 0.023578435 0.542636 0.5110427 0.5732459 0.54751116 0.40252557 0.26875776 0.23058456 0.2296367 0.17408174 0.14770602 0.50290424 0.42673564 0.46959728 0.11601434 0.40852523 0.43605116 0.31450617 0.36084592 0.19566247 0.21299084 0.33622995 -0.04652321 0.1894478 0.15853915 0.18158579 0.14966671 0.18083948 0.33566704 0.4331575 0.42910427 0.5456948 0.52157307 0.37656245 0.446539 0.5358097 0.51780045 0.43774888 0.2250584 -0.19801784 0.4758094 0.51012266 0.45982635 0.32104853 0.23455097 0.11051497 0.1266282 -0.28998408 -0.116436414 -0.027119912 0.16669185 0.41597092 0.45954722 0.47099018 -0.13280642 0.15770416 0.1100841 -0.024366867 0.32733595 0.25123873 0.22592941 -0.12621154 -0.17636618 0.32312104 0.318671 0.2892966 0.38999984 0.32354575 -0.18122336 -0.17233115 0.2866335 0.3307277 0.40345556 0.4242469 0.40107837 0.27106157 0.13259128 0.40198112 0.36663362 0.22886884 0.20804815 0.28715986 0.30071875 0.25111303 0.050747536 -0.09078669 0.33924103 0.27031523 0.17319849 0.040279716 -0.049269494 -0.12884536 0.3430619 0.33258647 0.35430148 0.06560689 0.17556912 0.23272505 0.26245674 0.46402115 0.42686415 0.21757635 0.561214 0.34505257 0.26539826 0.60194767 0.6075883 0.5996202 0.50568104 0.4733682 0.4270639 0.37322134 0.5847926 0.52264917 0.4916571 0.72767514 0.7676182 0.83420676 0.7762075 0.70782566 0.7507583 0.79637283 0.88232374 0.8131486 0.734562 0.7954773 0.8311229 0.7778959 0.7315355 0.49345827 0.5186871 0.55573833 0.51059103 0.43634173 0.48990273 0.45154715 0.4548181 0.20836332 0.22374617 0.22315595 0.22505814 0.17607301 0.15288055 0.28369585 0.46510017 0.47906035 0.3723403 0.39570317 0.38144177 0.26522887 0.33332247 0.31963995 0.47267044 0.45501083 0.32349792 0.35727414 0.15394951 0.18763933 0.45146984 0.5312475 0.43853307 0.2903488 0.20630865 0.19225119 0.17232245 0.2622725 -0.16479047 0.38206723 0.41190737 0.14683974 -0.010255318 -0.13412745 0.069768235 0.3277547 0.3673906 0.34559065 0.07356773 0.2862675 0.13554344 0.14950126 -0.07882565 0.11248233 0.109506086 0.35693556 0.24132806 0.17089377 0.4750709 0.46387875 0.5312677 0.5280277 0.46506602 0.53782165 0.53437763 -0.15807986 -0.24143194 -0.5432323 0.5051316 0.4914379 0.47278568 0.33035058 0.18370155 0.0024117604 -0.0002508685 -0.36345935 -0.0073684603 0.16262451 0.43488994 0.5157386 0.53168225 0.51270324 0.16396949 -0.020028166 0.25281218 0.10208866 0.32941937 0.18883426 0.3213756 0.23159678 -0.17864676 0.28864598 0.20950136 -0.053060874 0.2390902 0.26944005 0.3527122 0.33083114 0.26380312 0.17136124 0.23717812 0.2737028 0.32967648 0.35282975 0.2962178 0.23919505 0.24361545 0.2532469 0.338512 0.39033452 0.3005442 0.30810618 0.3044687 0.23279929 0.118666396 0.0130999945 0.48523682 0.5502564 0.53857154 0.5014912 -0.20198214 0.49042517 0.4983464 0.53899175 0.5335629 0.51221704 0.47522074 0.44714344 0.47086513 0.1619013 0.30975762 0.4142147 0.4729722 0.508545 0.5041262 0.4821407 0.45811898 0.51414365 0.51279455 0.535648 0.5287714 0.18559864 0.45230395 0.49405688 0.5144619 0.5345448 0.5638173 0.56954265 0.49604306 0.550012 0.2634085 0.21182872 0.49240482 0.5131899 0.5552307 0.5678495 0.38887358 0.29457006 0.58485425 0.5439948 0.4910878 0.60546166 0.6590532 0.6902766 0.6262298 0.60243225 0.6807418 0.6786751 0.72494733 0.6409054 0.60943663 0.7138395 0.6898887 0.66769505 0.55585194 0.61690646 0.6267604 0.7181381 0.7400707 0.6611453 0.5268387 0.58475626 0.63629985 0.63473344 0.57264245 0.6559098 0.63147885 0.63120854 0.5478674 0.58662236 0.59307086 0.55682313 0.4607636 0.4723443 0.49501595 0.42051402 0.1842325 0.18073347 0.36354625 0.3298344 0.38105768 0.37814236 0.23909038 0.2556469 0.2163502 0.16608037 0.0637789 0.17424503 0.35699704 0.34682614 0.36454624 0.38897574 0.34258822 0.23064241 0.3579961 0.29262304 0.30361736 0.28107423 0.36156523 0.091703124 0.15930942 0.29239663 0.183912 0.095012516 0.2295893 -0.33592358 -0.26752764 0.3066705 0.32845163 0.0772932 -0.023394253 0.024732836 -0.0045568533 0.30214497 0.23870297 -0.093003824 -0.10978936 0.23810865 0.21745063 0.107498966 0.27119055 0.22101566 -0.024710182 0.28719494 0.3405647 0.4341973 0.44114906 0.38049138 0.4558218 0.49875313 0.5231593 0.49340266 0.49367964 0.5574673 0.53714454 0.46657157 0.40155244 -0.40772775 -0.5251555 -0.4631417 0.08270942 -0.09156379 0.15434642 0.43482664 0.582564 0.55962527 0.37883404 0.22762752 -0.1913946 -0.33664745 -0.42757547 0.17518197 0.23916987 0.3089047 0.2783112 0.21064545 0.06898439 0.16942087 0.25413153 0.2978835 0.3359866 0.3256406 0.22348893 0.124482565 0.15696841 0.11016901 0.21369612 0.29734105 0.3278455 0.33398667 0.27312654 0.1533302 0.042265102 0.179048 0.1345076 0.1179957 0.19237167 0.23444107 0.07045205 -0.25158066 -0.09333294 0.32848698 0.17042571 0.21547797 0.17350607 -0.0057734996 0.06358286 0.46778852 0.55926037 0.55192876 0.51812816 0.46559542 0.13689047 0.13307507 0.18580727 0.2269119 0.257831 0.28376663 0.22108194 0.13774638 0.50936735 0.54069024 0.5497078 0.5552971 0.5291786 0.49175277 0.41236055 0.12177539 0.16570887 0.18287662 0.28251806 -0.18790044 -0.028950073 -0.04200022 0.560475 0.5564499 0.4946544 0.51247424 0.53039825 0.4318023 0.095782265 0.10640996 0.105312094 0.4409502 0.45857453 0.4279467 0.27689266 -0.0043584704 -0.002467215 0.45208633 0.54869723 0.43517244 0.4803691 0.44080305 0.42717698 0.08991714 0.25484115 0.41768363 0.4809432 0.4928485 0.4641862 0.541126 0.114437416 0.38711876 0.12072846 0.18972863 0.34707686 0.32428682 0.33561698 0.4080035 0.35752082 0.16953738 0.28252056 0.38587636 0.45765036 0.56814796 0.5419874 0.43724757 0.21806377 0.15247996 0.22389029 0.18911073 0.25106582 0.34629965 0.4236524