# vtk DataFile Version 2.0
Really cool data
ASCII
DATASET POLYDATA
POINTS 7438 float
4.4187145 23.948877 51.98173
4.3589597 23.81055 52.568474
4.401169 23.873219 53.145718
4.422816 24.28291 52.023632
4.3560123 24.418558 52.70402
4.3851194 24.364717 53.17063
5.0716324 22.927984 51.746166
4.817107 23.036005 52.54827
4.918675 23.122866 53.20288
4.990777 23.62212 51.107243
4.6359067 23.600029 51.644623
4.5178976 23.440596 52.376984
4.635719 23.688581 53.427032
4.8632975 23.851866 53.81696
5.0393014 24.187773 51.007137
4.6140404 24.360449 51.66792
4.504308 24.687277 52.178448
4.581009 24.427465 53.516644
4.848874 24.429012 53.85557
4.832992 24.774984 51.55326
4.78658 25.09266 52.642765
4.818712 25.006248 53.30213
4.9822993 24.853748 53.771877
6.4833174 3.2391367 48.831974
6.455569 3.6264887 49.311787
6.409012 4.1258636 48.091812
6.4033184 4.408255 48.536644
6.3317385 4.7723203 49.042374
6.3518896 5.3954186 48.648758
6.42756 5.166363 49.45083
6.2904024 8.110546 39.4973
6.3435564 8.093183 40.45134
6.2057796 8.889071 38.16302
6.020267 8.74756 38.65896
5.9402833 8.636991 39.522335
6.0368257 8.643501 40.33083
6.255188 8.507965 41.01335
6.0891857 9.637474 38.142235
5.8237567 9.461535 38.665157
5.734967 9.458643 39.31414
6.0140495 9.638824 40.35792
6.279419 9.537282 41.145836
6.2107854 9.950344 38.058895
5.9498873 10.127187 38.714573
5.9179196 10.141368 39.315937
6.229245 10.292985 40.542416
6.3939543 10.597747 41.695522
6.3830304 10.8818035 42.38971
6.349639 11.24961 41.901367
6.381131 11.361191 42.50331
6.468884 11.969978 41.747944
6.4276986 14.695205 51.659744
6.4205317 14.713213 52.055355
6.415358 15.161255 51.67102
6.433692 15.165538 52.13612
6.4275393 18.762287 39.004387
6.4169397 18.660078 39.441986
6.4352636 19.245407 39.257957
5.7959394 22.409187 52.344215
6.3139253 23.255493 42.02062
5.460353 22.688263 51.631046
5.5977626 22.693693 53.275322
5.8865647 23.089832 53.948494
6.22449 24.028221 41.116997
6.1235414 23.715467 41.63003
5.9142475 23.828026 42.4142
6.1623588 23.486542 42.99218
5.4954915 23.459913 50.8257
5.521769 23.678362 54.13939
6.1604586 24.49229 41.132816
5.8259835 24.605465 41.71703
5.7382755 24.430117 42.407887
5.920316 24.41091 43.12285
5.6487985 24.438793 54.235947
6.2072816 25.344885 40.937107
5.9529734 25.488094 41.552944
5.763377 25.2631 42.33805
5.911607 25.206018 43.079487
6.1510277 26.010862 46.72705
6.1738715 25.683357 47.431225
6.146484 25.269981 49.79753
5.937647 25.804497 50.60259
5.6002183 25.44607 52.637333
5.433754 25.307564 53.418015
5.567192 24.970932 53.92985
6.2572527 26.192213 40.864685
5.967108 26.495668 41.660713
5.995909 26.750755 42.331223
6.230547 26.58476 43.213993
6.2592545 26.62833 46.14882
6.0837364 26.711412 46.697517
5.889519 26.44542 47.44299
5.8305817 26.489744 48.381504
5.7153077 26.673592 49.65648
5.81027 26.574245 50.163673
5.658152 25.534958 52.67369
6.3381667 27.305855 41.072273
6.0752406 27.37953 41.703426
6.1127195 27.62304 42.36179
6.332135 27.510468 43.077705
6.1198187 27.373137 46.621418
5.963797 27.391033 47.41468
5.7776427 27.076963 48.72834
5.866304 27.32162 49.45793
6.07934 27.291817 50.113422
6.3013206 27.939396 41.592392
6.2595415 28.035442 42.394054
6.2223015 28.02246 47.029633
6.196488 28.066225 47.32777
6.1811275 27.929247 48.58747
6.19296 27.82946 49.518986
7.3043895 1.3138125 47.130226
7.3287125 2.016958 45.09158
7.2025213 1.8779919 45.593864
7.0934596 1.6324947 46.638958
7.0614033 1.6618795 47.531605
7.1328096 1.7475479 48.240322
7.013418 2.2083728 49.419487
7.205242 2.7470965 44.74354
6.971213 2.665479 45.5231
6.842622 2.589685 46.37135
6.7186003 2.5136468 47.613556
6.677971 2.452674 48.31444
6.7332363 2.7225008 49.533966
6.9452624 2.8100395 50.149067
7.0827284 3.1342883 50.848408
7.2195225 3.4057555 44.705975
6.93818 3.0783565 45.23407
6.7737308 3.3204968 46.517975
6.5520835 3.2571907 48.30495
6.560061 3.2780883 49.07812
6.7316527 3.4673796 50.254837
7.084524 3.6248686 51.19888
7.3901772 4.020232 52.0873
7.3104296 3.9313595 44.94391
7.092071 4.043151 45.705837
7.029754 4.4697165 46.868504
6.6130714 4.8435216 47.550873
6.503364 4.6857724 49.803936
6.850463 4.4079995 50.472942
7.030134 4.641737 51.267582
7.2995424 4.8038645 52.01935
7.365869 5.8271556 46.193527
7.212493 5.617272 46.50946
6.6513977 5.442691 47.59745
6.479349 5.6781745 48.41334
6.571462 5.536333 49.455902
6.7452464 5.3683505 50.180096
7.1739497 5.172761 51.22134
7.4097257 5.090846 51.948967
7.2472396 7.2993217 38.95333
7.11388 7.392555 40.779625
7.3065925 6.2599716 46.605957
7.104595 6.3689713 47.524952
6.8172965 6.2775745 48.24169
6.9379873 6.099227 49.485947
7.143076 6.081649 50.200466
6.9070992 8.088973 37.98237
6.950489 7.7170115 38.644108
6.636017 7.7154675 39.451324
6.6615677 7.624709 40.34111
6.710137 7.9282923 41.13475
7.1028967 7.9990993 41.68179
7.34202 6.7558284 46.86992
7.210389 6.6305485 48.791405
6.7025642 8.73169 37.675575
6.9400196 9.062233 42.15094
7.0686183 9.6265 37.129475
6.5333304 9.362983 37.700344
6.6013956 9.591666 41.974957
6.4642806 9.967214 37.825886
6.455636 10.495771 38.404217
6.5218415 10.530445 40.217003
6.5588837 10.620726 42.621403
6.794636 10.808812 43.10353
6.5780973 10.713875 38.765675
6.923957 11.283502 39.46196
6.6312017 11.471902 40.56347
6.5198393 11.691315 41.5138
6.5099106 11.813107 42.637783
6.753375 11.342789 43.15141
6.9751053 12.60853 39.988426
6.7495 12.769124 40.962357
6.6559167 12.415964 41.50634
6.604245 12.093403 42.47514
6.8252816 12.132486 42.952156
7.199169 13.270388 40.004883
7.00001 13.22275 40.55352
6.913592 13.139491 41.27508
7.046506 13.106397 42.103138
7.0822377 14.09119 50.998306
6.7886324 14.030383 51.7009
6.790259 14.119808 52.21674
7.1195636 14.190944 52.82506
7.283717 14.034314 40.914
6.7161174 14.648954 51.018406
6.5405846 14.459036 51.582726
6.637288 14.531396 52.428062
6.9864545 14.74565 53.017254
6.7229786 15.187534 51.046722
6.5516677 15.48268 51.64898
6.60337 15.393124 52.33824
7.195067 15.429208 53.276237
7.29075 17.208618 39.558296
7.2824006 17.017544 45.522545
7.25162 17.137926 45.903397
7.2146807 15.819031 50.869442
6.9653835 15.917042 51.523697
6.974091 15.92151 52.460262
7.1668863 15.893646 52.96683
6.9938045 17.841843 38.57597
6.8558803 17.688244 39.470734
7.0371017 17.650385 40.30154
7.1869717 18.054197 43.705956
7.049526 17.82814 44.72153
7.1274033 17.652008 45.54171
7.210438 17.645868 45.96054
7.1589813 18.51896 38.132736
6.656095 18.68435 38.675983
6.478566 18.613806 39.151485
6.594746 18.606264 40.216927
7.3726897 18.505869 41.422413
7.267198 18.97752 42.624622
7.039194 18.75237 43.634342
6.8555384 18.69991 44.555515
7.1440516 18.64231 45.442154
7.337877 18.39676 46.19277
7.468835 19.062328 47.51082
7.411107 18.928614 49.044556
7.1419764 19.253159 38.192436
6.722464 19.320833 38.748062
6.5626745 19.50962 39.498737
6.7815914 19.393776 40.45781
7.1642056 19.936657 41.26055
7.3678064 19.671673 42.69884
6.984266 19.836323 43.988026
6.8425775 19.524506 44.599567
7.335037 19.46827 46.209164
7.2770157 19.716513 48.030792
7.194763 19.776318 48.328423
7.073404 20.009521 49.50299
7.1327553 20.002718 38.660618
6.86447 20.211464 39.490532
6.881989 19.950056 40.296562
7.20787 20.466667 41.260742
7.20228 20.496153 43.328823
7.0492125 20.176422 44.620293
7.259572 20.039555 45.368767
7.2099586 20.318884 48.499203
7.0997367 20.27221 49.120693
7.241494 20.527027 50.527077
7.213609 21.214983 51.00495
7.3662224 21.300903 39.82939
7.1747565 21.581604 40.852093
7.0560913 21.748194 41.065365
7.2960615 21.33555 42.773518
7.2920403 21.463064 43.424957
7.3674345 20.86183 45.24086
7.169724 21.308634 49.537056
6.5810475 22.000439 51.58292
6.959739 21.618261 52.356274
6.681249 22.91663 41.62622
6.69369 22.685757 42.460133
6.9306526 22.91737 43.499798
6.481933 22.4424 53.50276
6.662671 23.02348 54.318207
7.2789006 23.381746 40.278812
6.462474 23.53717 41.216747
6.7904835 23.696793 43.9158
6.290738 23.482409 54.428043
6.697644 23.565823 54.611237
7.04575 24.810122 39.929077
6.575386 24.646183 40.56065
6.6066666 24.284101 44.070507
6.9181776 24.81047 47.351852
6.707936 24.885185 48.858334
6.732321 24.43814 49.734535
6.4740458 24.582937 54.44637
6.6959147 24.126781 54.668514
6.862261 25.576923 40.034172
6.4751697 25.313637 40.552803
6.489163 25.617865 43.55471
6.7276893 25.859983 45.656578
6.4709897 25.35829 47.388935
6.575387 25.356598 53.66393
6.4553847 25.07662 54.110027
6.831669 26.149712 40.204712
6.677818 26.363665 40.368565
6.8438272 26.606943 44.258694
6.581131 26.388643 45.539894
6.8381186 25.602858 52.977776
6.65786 27.322435 40.79576
6.4432106 27.10437 43.178947
6.742357 27.755125 43.998962
6.3404527 27.569769 50.168087
6.760906 28.097563 41.175404
6.724696 28.344593 41.523853
6.533981 28.460598 42.346867
6.7452297 28.254414 43.4035
6.983881 28.483633 44.341827
6.622089 28.194191 46.022873
6.5590444 28.395002 46.85089
6.5853376 28.437523 47.45801
6.826253 28.357414 48.64176
6.606942 28.018702 49.501877
6.5557084 27.747482 50.095432
6.987555 28.764576 41.80317
7.104608 29.171038 42.512894
7.1864486 29.313366 43.498528
7.331645 29.539085 44.1285
7.2050734 28.748863 45.741814
6.9375114 28.699808 47.45837
6.955958 28.617102 48.118828
8.091099 1.070853 44.88853
7.9810596 0.89512336 45.574738
7.785258 0.9808802 46.33304
7.6092234 1.1289763 47.37258
7.756205 1.1506382 48.016663
8.0696535 1.8939813 44.12028
7.818172 1.5862873 44.693222
7.4051857 1.5102875 45.5559
7.4786863 1.5910919 48.652706
7.613892 1.7870398 49.405983
7.626515 2.081593 50.15789
7.706462 2.7289548 44.148212
7.484687 2.520184 44.453663
7.39741 2.5073829 50.583073
7.769172 2.8990178 51.613834
7.809532 2.9778845 51.94984
8.349436 3.109713 53.43578
7.7398734 3.3605287 44.183952
7.5739126 3.8764544 52.528736
8.146184 3.6912315 53.606125
8.319608 3.7100875 54.08165
7.6765676 4.094657 44.698723
7.537756 4.699137 52.693596
7.8829894 4.349057 53.262505
8.220921 4.426762 53.92692
7.847801 5.425535 45.7195
7.7715464 5.3938713 52.30637
8.188419 5.4447746 53.48714
8.386736 5.448499 54.030785
8.087131 7.088581 38.573193
8.011326 6.907586 39.153164
[...]
POINT_DATA 7438
SCALARS features_00 float 1
LOOKUP_TABLE default
0.7366978 0.784631 0.83091486 0.74299014 0.81080055 0.8445219 0.68893063 0.7573954 0.810042 0.62537473 0.6989644 0.7576819 0.8458649 0.86478156 0.5661139 0.6894966 0.7563336 0.8679874 0.87626725 0.64162576 0.80593777 0.8533118 0.86654216 0.40888798 0.41786546 0.41438353 0.43747416 0.44656575 0.47184873 0.44623575 0.60896397 0.5752429 0.60442066 0.6421552 0.64620596 0.5915204 0.5595814 0.5865207 0.6142621 0.62146693 0.51237595 0.47184625 0.56790864 0.5504682 0.5301231 0.398827 0.40041095 0.4635179 0.39376628 0.46334115 0.35883796 0.8022319 0.80260825 0.7930355 0.7904383 0.5590189 0.5324951 0.5316187 0.58868396 0.36516947 0.63492846 0.72586155 0.7440282 0.37431133 0.40057766 0.43365732 0.36433113 0.52336514 0.82680875 0.3908081 0.44901985 0.47218686 0.43262103 0.84420824 0.39402717 0.45022538 0.4834722 0.43210238 0.35464174 0.32999825 0.2957096 0.4029461 0.75421673 0.8191205 0.8363522 0.42799544 0.49088776 0.46282345 0.33168864 0.3497789 0.40514132 0.4448189 0.4984632 0.47204578 0.48485172 0.7424271 0.5135094 0.5242783 0.48090637 0.39132443 0.4110722 0.4850424 0.5212562 0.50729084 0.5115662 0.53119123 0.48710376 0.44243643 0.46660975 0.50943935 0.5150064 0.49989623 0.5685389 0.55677605 0.5237235 0.47043502 0.43966925 0.40491262 0.538231 0.51452863 0.4906691 0.43713492 0.4205886 0.41184765 0.40760642 0.39385453 0.49465543 0.49648988 0.41566345 0.40265852 0.41193306 0.41229835 0.39158085 0.40164217 0.4232546 0.36858833 0.33572578 0.4084705 0.4232892 0.39930683 0.37843505 0.39383784 0.41108838 0.39565516 0.4453237 0.48397005 0.45438117 0.41244304 0.37345374 0.39060867 0.45983016 0.53672564 0.48330516 0.505227 0.50488555 0.4562747 0.3997085 0.5246583 0.5166249 0.5580518 0.55257225 0.55589545 0.551442 0.52522427 0.4895609 0.5477759 0.52703476 0.4897532 0.56228685 0.48557168 0.5533755 0.5020112 0.37506938 0.51748073 0.5953199 0.45368356 0.29036877 0.26901853 0.3370497 0.4820705 0.5924087 0.19449912 0.27338275 0.3286866 0.46179047 0.55242205 0.17058808 0.23227194 0.30206826 0.39975232 0.7637573 0.79615533 0.79626346 0.77706075 0.24628863 0.7765144 0.80092096 0.7970425 0.77095664 0.77400863 0.7788697 0.7748089 0.70864046 0.41811496 0.48658147 0.45372677 0.75263333 0.74831915 0.7113383 0.6760508 0.5616736 0.5136231 0.34183848 0.34595352 0.45585063 0.43745095 0.3979472 0.5362377 0.56407154 0.55572987 0.44165 0.1569354 0.14343815 0.3038735 0.3853714 0.3539101 0.28541556 0.12128124 0.17236058 0.5239264 0.5388986 0.50375307 0.37470567 0.14199945 0.112694874 0.20987076 0.2758422 0.17962392 0.14553934 0.1674461 0.26418015 0.47945428 0.4536177 0.36842495 0.1049635 0.08868676 0.17046925 0.17533408 0.17378967 0.24164453 0.1932896 0.06951468 0.28713322 0.13809821 0.08795912 -0.02965387 -0.026030026 0.047336303 0.23527564 0.2741007 0.2686785 0.2731123 0.22782552 0.12930936 0.60525644 0.6339099 0.16548 0.34056252 0.172454 0.71361375 0.6677659 0.28142294 0.33521855 0.2197347 0.0627314 0.09679062 0.061416075 0.7681218 0.71243167 0.3345757 0.36124122 0.28915286 0.17146188 0.23269986 0.66861326 0.7439338 0.37753403 0.40313125 0.09675928 0.20535688 0.51671404 0.48780176 0.35285163 0.26661763 0.50836176 0.4959728 0.508107 0.49606076 0.3808388 0.2442744 0.30407524 0.39696935 0.43607256 0.4658497 0.49803334 0.5005286 0.48998782 0.47613055 0.40217313 0.3478724 0.25960135 0.39675856 0.4315067 0.6338166 0.58262813 0.5373757 0.4859066 0.45546976 0.6417414 0.6216123 0.5758078 0.42538607 0.3931508 0.38080183 0.58199716 0.5677755 0.38324302 0.3725176 0.38772154 0.53098506 0.551116 0.426216 0.5303798 0.58522415 0.42293912 0.4391855 0.49050465 0.56545424 0.34832776 0.4165792 0.5488593 0.6268561 0.35274 0.3802783 0.47279012 0.51944834 0.49283662 0.37455016 0.35596284 0.39769578 0.532107 0.42866924 0.5178225 0.5358415 0.5206741 0.47489655 0.434534 0.41615725 0.44654045 0.50433207 0.3606124 0.5432999 0.4850697 0.46803653 0.3423751 0.60016525 0.5771229 0.49149072 0.4670611 0.43659276 0.3959217 0.6259398 0.49509084 0.4661025 0.38120008 0.071079105 0.5924049 0.6830117 0.40721917 0.32571167 0.2367356 0.006336283 0.12991352 0.39950117 0.54535353 0.61788803 0.74182385 0.7513383 0.7221364 0.1731992 0.03159435 0.27014783 0.27249056 0.56489974 0.7491307 0.70460165 -0.010287486 0.029548407 0.113934495 -0.074627176 0.4985534 0.48600543 0.7047652 0.6865926 0.6297205 0.06580463 -0.09807603 0.336918 0.46222848 0.50147325 0.46777844 0.6082392 0.5810888 0.54036486 0.45885444 0.49983084 0.08539863 0.12604934 0.36624467 0.41552478 0.13668427 0.11659947 0.5233504 0.48227012 0.28109202 0.13601667 0.11636361 0.2060714 0.4832563 0.10000768 0.41112497 0.39461917 0.090506755 0.0025802255 0.042145625 0.27869466 0.28297204 0.0045340285 -0.110528216 -0.057026103 0.028335597 0.44000292 0.15527765 0.04446502 -0.14328045 -0.23535655 -0.08404171 0.5464697 0.55314916 0.15202914 -0.056408197 -0.078065224 -0.30232316 -0.17876047 0.5945051 0.2626748 -0.027022315 -0.012920484 0.63950044 0.26398414 0.27329177 0.5163474 0.6577246 0.34277427 0.14194877 0.24950361 0.3794753 0.32074106 0.324915 0.3293693 0.3693467 0.4166862 0.41857657 0.4093829 0.40713498 0.32205617 0.288167 0.3427542 0.32642338 0.3686139 0.39408433 0.40547788 0.41539803 0.3821655 0.38159555 0.5508091 0.52198416 0.68787104 0.6424893 0.567178 0.5013397 0.4667611 0.41500968 0.6819916 0.36278185 0.47144866 0.57522935 0.43970683 0.5715697 0.64989483 0.6886635 0.6135046 0.6525226 0.70628667 0.63027847 0.72021496 0.6865061 0.74342394 0.27728102 0.28754568 0.31595427 0.33667022 0.48256075 0.4740986 0.33339226 0.4649272 0.58824563 0.71841466 0.281586 0.33848616 0.5101349 0.47462285 0.40305746 0.34617388 0.2991676 0.47518918 0.4836383 0.42801547 0.49518895 0.42156965 0.20418188 0.49705994 0.49967214 0.53025866 0.49991044 0.44688377 0.5473033 0.5093916 0.3808872 0.45554167 0.5318126 0.50323 0.32163012 0.27553415 0.51166236 0.49850014 0.52471787 0.44695884 0.41775203 0.399477 0.33339077 0.060315415 0.3094145 0.47710797 0.52376765 0.55086744 0.31762367 0.31320813 0.2741201 0.28431848 0.40358138 0.6798526 0.23498075 0.19190352 0.048373062 0.05231291 0.19996302 0.45470315 0.48354423 0.44979513 0.46335387 0.5256902 0.18900226 0.37263936 0.41197085 0.4360507 0.3247444 -0.061693344 0.510557 0.2607612 0.20368803 0.41045266 0.35730964 -0.17323928 -0.24036838 0.40054825 -0.062424045 -0.1507728 0.060280085 0.20417914 0.32903585 0.33312201 0.38914597 0.6769353 0.66013587 0.30468932 0.20909806 0.44753152 0.63461024 0.62425387 0.03408464 0.495363 0.3966462 -0.016236378 0.5602307 0.106341906 0.5878677 0.5977458 0.20183416 0.40100795 0.57663894 0.23928969 0.041718304 0.21119343 0.24992716 0.19046 0.2820369 0.23017666 0.34385663 0.25250646 0.36561698 0.42571998 0.4552114 0.4227144 0.4028651 0.6067128 0.5551845 0.51045537 0.67911583 0.63382757 0.4710551 0.40514618 0.3411598 0.63541806 0.6573025 0.19000739 0.23177746 0.47516108 0.5768297 0.6385539 0.6521752 0.7244569 0.45911682 0.7832556 0.5103209 0.8090582 0.24351801 0.2996108 0.26877174 0.80789346 0.1984717 0.23531793 0.27294323 0.45803195 0.48161834 0.28656486 0.23904061 0.46189815 0.62435925 0.7551416 0.80801076 0.2015563 0.48462537 0.38875645 0.4365434 0.08792375 0.1114737 0.46612835 0.47381902 0.44267565 0.3750677 0.39100552 0.22398788 0.52267337 0.500239 0.3245428 0.46937677 0.57030267 0.5451853 0.5069607 0.36745554 0.43104875 0.5768787 0.56787705 0.3145001 0.5343176 0.4842441 0.21912038 0.26968646 0.40425107 0.41478193 0.46976304 0.4100717 0.31445953 0.43603668 0.23908472 0.30008966 0.3423593 0.30459464 0.76654416 0.74775565 0.28268963 0.24855796 0.20693293 0.3481992 0.39301696 0.5866009 0.7491585 0.8164861 0.807866 0.8173045 0.80022836 0.72026515 0.21525222 0.19735435 0.18193182 0.39197612 0.4369423 0.7012037 0.8291019 0.85291183 0.8066485 0.80150056 0.75723845 0.6931402 0.04375361 0.40544283 0.3914253 0.79628265 0.8414879 0.86056507 0.074668534 -0.021035157 0.7358179 0.8031112 0.15347514 -0.06968202 0.29807243 0.63807356 0.22989742 0.3606406 0.44651306 0.67995536 0.68628776 0.68599284 0.6539941 0.17811237 0.42754567 0.48930728 0.49387753 0.6460465 0.67702985 0.6269678 0.1680786 0.5284184 0.6091038 0.61332774 0.5842209 0.54552555 -0.035047643 0.37497294 0.5456356 0.55905724 0.5540563 0.53474045 0.5128554 0.4567563 0.021008894 0.01936429 0.47918832 0.49404228 0.5021031 0.5454446 0.49908015 0.4464363 0.05004684 0.05766259 0.22780687 0.5452496 0.50978374 0.4397173 0.35903704 0.30456492 0.14139804 0.055214792 0.26824424 0.5053148 0.47854608 0.44571066 0.39435482 0.2913747 0.15868829 -0.047787584 0.44008878 0.3980896 0.31854576 0.14377542 0.053223774 -0.048538156 0.08707061 0.50744724 0.17636847 0.27883124 0.045972552 0.42220497 0.42367503 0.40189138 0.3494777 0.28197578 0.29038697 0.25707632 0.21501374 0.018960506 0.4274087 0.4249993 0.28247255 0.27478397 0.26127216 0.19424674 0.25753337 0.5305048 0.6494695 0.6127559 0.55223274 0.46386904 0.26920134 0.57317144 0.5872102 0.5020149 0.61458397 0.106377676 0.2870996 0.430171 0.54629445 0.6423447 0.520619 0.5696444 0.59566504 0.5335907 0.47259015 0.56184137 0.5836327 0.69110954 0.7338333 0.53921247 0.58179045 0.55521625 0.49775136 0.8006716 0.44122273 0.44357717 0.49709255 0.3904403 0.8458835 0.27855116 0.29109752 0.20571737 0.81945425 -0.10840829 0.4108268 0.4246472 0.47142828 0.72687566 -0.04064149 0.010765776 0.037940253 -0.17111808 -0.026660252 0.063326344 0.537333 0.52241606 0.3401122 0.41576356 0.57373166 0.31469348 0.58769965 0.21404946 0.33429295 0.4122671 0.45906296 0.5420955 0.4610164 0.14541055 0.27872068 0.36562932 0.19551376 0.57183033 0.5847307 0.6177154 0.31453523 0.12520826 0.11140034 0.18039459 0.031139296 0.21173367 0.27268192 0.4107406 0.6918042 0.6721804 0.6505921 0.6580818 0.6269409 0.13313079 0.19708411 0.16145128 0.28247064 0.4159644 0.48417258 0.67808455 0.7917776 0.77298784 0.56854683 0.14003845 0.12621148 0.029631056 -0.072748646 0.85475296 0.8553759 0.7776238 0.77179396 0.6853572 0.59016097 0.51977575 0.058430325 0.0012611076 0.8553786 0.84974706 0.7212045 0.70620406 0.63752997 0.49465066 -0.10317436 -0.040590193 0.22440489 0.6297346 0.7646438 0.81751645 0.560946 -0.09167165 -0.03569746 0.3787334 0.5913758 0.5828521 0.59907687 0.5904918 -0.0068600364 0.434909 0.6342868 0.60087526 0.57636565 0.48495606 0.5672239 0.5371985 -0.15836492 0.510234 0.48149014 0.52343607 0.5316298 0.49850243 0.4013461 -0.09792865 0.47835773 0.44250366 0.4829887 0.5179918 0.55568993 0.5474497 0.49015197 0.41449165 0.30221128 -0.02391192 -0.05040449 0.419117 0.59261155 0.55975664 0.34590483 0.15137288 0.029612653 0.117505014 0.5950221 0.55960184 -0.014522061 0.04738614 0.07913092 0.6451373 0.65626466 0.5638569 0.4785082 0.5665529 0.5077704 0.13035937 -0.08840978 -0.20237738 0.6388093 0.6928981 0.7172818 0.50352633 0.4694466 0.10057319 -0.073671974 0.06322385 -0.08161631 0.23935866 0.57450366 0.6959826 0.75048643 0.7583542 0.32421237 0.262907 0.17358473 0.12969792 -0.031343855 -0.028593212 0.5387489 0.6184306 0.79533565 0.80325055 0.6588205 0.4563074 0.052253213 0.12280595 0.17238015 0.17476109 0.20770162 0.03389392 0.2842696 0.27345943 0.50345397 0.5591659 0.5695853 0.70428526 0.65719706 0.53672576 0.43187654 0.121832855 0.2222752 0.2395061 0.25629583 0.26935485 0.010106191 0.36682254 0.49311244 0.5448097 0.68582857 0.6536857 0.5893117 0.4075752 0.11849028 0.2206485 0.27282616 0.1553631 0.07319413 0.0071257055 -0.0245215 0.3759679 0.5584286 0.6633144 0.6136638 0.52873313 0.2361105 0.27581668 0.20682421 0.16107452 0.102515064 0.18910623 0.22363366 0.26646534 0.2469013 0.19361293 0.0009034462 0.17905962 0.38368368 0.46506745 0.46840012 0.13142565 0.14778039 0.20151103 0.21387604 0.30995074 0.39560196 0.46806395 0.13680936 0.13257019 0.14390238 0.2581004 0.27391684 0.31683046 0.08033179 0.09685656 0.17243934 0.25869805 0.29220593 0.2857285 0.33360553 0.2239607 0.29192436 0.4462192 0.39754862 0.30403763 0.321912 0.42051026 0.38446796 0.35865766 0.6402702 0.6297096 0.60267466 0.58071285 0.54248303 0.5334944 0.514367 0.45391908 0.4306336 0.2959789 0.49644595 0.52216697 0.40600255 0.31135622 0.44531918 0.2742954 0.10765591 0.071010955 0.16413036 0.2780985 0.39180225 0.5314114 0.5927243 0.4835251 0.29881972 0.12756032 0.45554978 0.6600667 0.7253736 0.436083 0.43724322 0.32799208 -0.026872206 0.19994998 0.21041572 0.73490494 0.32134345 0.31790805 0.15610117 -0.027452767 0.78577614 0.20259893 0.27790767 0.042977795 0.7082919 0.107326195 0.2829562 0.49680835 0.6483619 0.04096888 0.09064108 -0.17602503 -0.22866653 -0.11741904 -0.12187494 -0.022882655 -0.022417057 -0.016478792 -0.000849545 0.32461083 0.35374254 0.4317466 0.47366917 0.11488983 0.21841925 0.51777136 0.51601195 0.5293771 0.5538508 0.081993565 0.028855048 0.26143697 0.40372685 0.5150769 0.583969 0.5835204 0.007898226 0.38825345 0.6279171 0.6976783 0.80960363 0.6437527 0.7056406 0.13145724 -0.47844577 -0.14297983 0.04112748 0.82987523 0.635417 0.68663037 -0.12954886 -0.33789724 0.80924356 0.6193949 0.6086438 0.43502277 0.26577425 -0.0056438874 0.03330271 0.073988825 0.080033556 0.03949332 0.69367707 0.7304493 0.5289705 0.55253184 0.5526892 0.06744393 0.033959314 0.06795108 0.08897121 0.63670945 0.5090227 0.5729679 0.56437576 0.5579043 0.044437885 0.064169094 -0.0024974183 0.5260209 -0.07685872 -0.41124597 0.4284134 0.4654867 -0.24002993 0.4347498 0.4282073 0.5083016 0.49677348 0.377281 -0.0026325695 -0.25012052 0.42780071 0.2726243 0.43693763 0.56273353 0.18645208 -0.23702788 -0.19698519 -0.013842937 0.200348 0.60084164 -0.17154151 -0.15937436 0.51922023 0.3780219 0.37900016 0.39742562 0.38716286 0.57617056 0.6062004 -0.2911773 -0.1865015 0.65843666 0.48149446 0.4871014 0.43485767 0.6267897 0.5614953 0.5740191 -0.21077915 -0.007388249 0.6476829 0.59539706 0.54658234 0.6436922 0.6940465 0.7216381 0.51516616 -0.1810329 0.14824368 0.6445812 0.5793868 0.5111812 0.75264597 0.7741976 -0.49982685 -0.29193527 -0.06964874 0.51988226 0.50043154 0.5896189 0.6150791 0.72760606 0.8637072 0.85280824 0.6435249 0.09698778 -0.06210717 -0.0868682 0.15089145 -0.062399253 0.21643555 0.56166846 0.53495675 0.6299697 0.7027286 0.80898166 0.8869549 0.64749956 0.688383 0.32916844 0.34323853 0.46137193 0.54197896 0.5606764 0.6503129 0.6726761 0.37184098 0.65526164 0.6116304 0.51928777 0.365309 0.021782903 0.4262309 0.42717516 0.47784096 0.21696581 0.22731131 0.41433257 0.44787785 0.35061812 0.07970509 0.28422517 0.28819734 0.4290542 0.41143674 0.29782262 0.28145668 0.48431045 0.4790237 0.26717967 0.509004 0.45329812 0.4027153 0.38767356 0.48383504 0.4742723 0.5186218 0.4640481 0.44102806 0.44610363 0.5385817 0.52814615 0.493826 0.5513989 0.5819516 0.5769125 0.822406 0.6687551 0.7150649 0.76704574 0.7648506 0.62343025 0.66301227 0.6627134 0.66082054 0.6084683 0.6077558 0.54584455 0.49822938 0.43248305 0.47418052 0.51576567 0.4358902 0.3675297 0.50538653 0.44412023 0.42188072 0.3776343 0.05361843 0.35845274 0.40931666 0.33335298 0.34401423 0.061281543 0.17752475 0.25423735 0.22438659 0.2900994 0.06443188 0.12533426 0.22665304 0.3504315 0.42108855 0.07193337 0.101427376 0.20294224 0.18657167 0.13136414 0.23624632 0.15956722 0.21213728 0.3295949 0.4334857 0.62253714 0.31369835 0.5914605 0.6808029 0.27190354 0.580548 0.64167494 0.18827999 0.4017654 0.5565415 -0.038223386 -0.0063025206 0.12813517 0.10751756 0.13760228 0.23385262 -0.087724715 -0.22322477 -0.09169522 -0.07087441 0.33497325 0.18633863 -0.1188449 -0.25505686 -0.2544675 -0.23426789 0.09635502 -0.045502342 -0.11041637 -0.24979028 0.33543634 -0.04859508 -0.10490541 -0.16052252 0.11819664 0.4062721 0.38189617 0.3663137 0.43690708 -0.15246087 0.03523892 0.0624917 0.2635451 0.18043904 0.51872516 0.4758429 0.46181744 -0.2083151 -0.009333566 0.028248593 0.13978662 -0.055131838 0.26435095 0.39371377 0.54956186 0.53875136 -0.67751896 0.61601675 0.56556123 -0.34760183 -0.040991645 0.77668893 0.55204695 0.7059525 0.53708255 0.54691684 0.50176424 0.61208165 0.528059 0.46887589 0.46251974 0.1846289 -0.083362855 -0.0790562 -0.020752471 0.58149683 0.5418798 0.5379342 -0.11151599 -0.034829624 0.021347238 -0.082172036 -0.13642505 0.4837339 -0.11657923 -0.07096303 -0.16631606 -0.13047317 -0.3179875 0.28268588 -0.07830206 -0.109858245 -0.05178359 -0.29476643 -0.4765345 0.086843185 0.25438446 0.3857214 0.35842288 0.08528888 0.1304073 0.5170052 0.5712823 0.5206528 -0.16690226 -0.036559634 0.5608916 0.6516615 0.6155728 0.6077369 0.3516755 0.36810717 0.36668903 0.34807277 0.52140534 -0.522291 0.6858192 0.69843185 0.20438065 0.21294183 0.36753124 0.40808865 0.38938078 0.34959215 0.2959916 0.5404327 0.44148263 0.62422705 0.37017506 0.53073215 0.436194 -0.0151472315 0.74757504 0.44317824 0.2292179 0.23403417 0.3918637 0.43918958 0.6446702 0.6899234 0.6811245 0.6113372 0.55368936 0.48788962 0.82608175 0.48598844 0.43800914 -0.21962592 0.43893272 0.50491655 0.9185048 0.57955706 0.53284955 0.061854668 0.5385634 0.5106291 0.60084236 0.65527517 0.769034 0.8501813 0.9160129 0.5797759 0.23009886 0.20248675 0.42994493 0.5042013 0.55096644 0.5616821 0.49446976 0.30347025 0.59148705 0.41501543 0.1532455 0.063227125 -0.017593257 0.43590185 -0.04710356 0.41954073 0.491839 0.42684314 0.33429372 0.34058207 0.35472313 0.3843193 0.5417173 0.49512705 0.36372688 0.20843792 0.27393565 0.4865796 0.19556205 0.42593306 0.16560243 0.20296662 0.47994 0.35085583 0.42956626 0.46742317 0.5200329 0.5124077 0.4998845 0.52885973 0.574075 0.6042446 0.58546257 0.5585288 0.5780214 0.6135889 0.6053285 0.8906651 0.9020921 0.8809371 0.70623636 0.7923966 0.8042548 0.733611 0.6339704 0.69932914 0.6559444 0.6358645 0.5304985 0.4606601 0.3058179 0.47054985 0.5661789 0.54824555 0.61759937 0.59955525 0.52743757 0.44512096 0.18299598 0.4823543 0.5748199 0.55373466 0.17541765 0.3822476 0.5413213 -0.064934984 0.50122106 0.4362527 -0.002174005 0.042787865 0.09710124 0.17355104 0.1981466 0.3629416 0.34211046 -0.060283937 0.10961237 -0.01939755 -0.15078256 -0.13424522 -0.16898376 -0.005520135 0.1586854 -0.14344156 -0.22475022 0.16851155 0.33012506 -0.07798791 0.042866156 0.32803094 0.33605668 0.26659012 0.10961799 -0.1946031 0.10607903 0.42076206 0.22705561 -0.0450816 0.13821912 0.11746796 -0.04263264 0.332421 0.2203164 -0.008827006 0.38503218 -0.018923748 0.3642984 -0.22394678 -0.3592568 -0.163899 0.28520337 -0.31091782 -0.36511755 -0.03320557 -0.14856304 0.1510258 0.5991745 0.7600117 0.47713673 0.39932257 0.34612924 0.28201768 -0.36878926 -0.1377941 -0.034697864 0.18850857 0.56761247 0.72046226 0.49280265 0.49971583 0.6243385 0.4724305 0.5041721 0.6788991 0.6294713 0.6211244 0.442265 0.3867262 0.67449343 0.63018507 0.60549015 0.5278952 0.45994312 0.27234605 0.43782005 0.09061647 0.25559777 0.7480282 0.65789974 0.5484711 0.51263326 0.18352109 0.5061648 0.27877194 -0.072605826 0.63226676 0.48774472 0.46275958 0.33593106 0.43405324 0.29366058 0.26120117 0.0979103 -0.22900775 0.44743893 0.32850063 0.29756972 0.19493887 -0.22582385 0.11274607 0.19385336 0.0062143803 -0.056002326 0.5250224 0.56053925 0.011304036 0.16477509 0.27324283 0.60063016 0.6180067 0.32785618 0.21673702 0.31781062 0.32287115 0.31342793 0.29563746 0.3436818 -0.44307715 0.44204006 0.4455827 0.6890851 0.26144302 0.32116205 -0.48113424 -0.4098735 0.4896647 0.61331296 0.6340699 0.5987716 0.17689487 -0.21178752 0.63465655 0.18810202 0.72627854 0.008314177 -0.023974016 0.5969748 0.47466606 0.40638614 0.18534364 0.3288854 0.11272827 -0.46696746 -0.46645597 0.35721087 0.40992278 0.4483527 0.92725176 0.39632154 -0.40703106 -0.06667252 0.034278385 0.4586181 0.48203534 0.4591728 0.6105988 0.713053 0.8263536 0.88644564 0.47569746 0.06806663 0.074499875 0.1436055 0.14040785 0.49603075 0.38340622 0.32376567 0.033164114 0.03468872 0.34985286 0.41358444 0.10807703 0.41544077 0.4251269 0.4094988 0.39472193 0.4044538 0.48789975 0.49615228 0.32852337 0.36658585 0.54400957 0.55730987 0.19328886 0.55536216 0.56155586 0.53639644 0.5059846 0.14690906 0.412839 0.4085611 0.39660415 0.41793942 0.44423902 0.41626227 0.4835186 0.5635079 0.5284716 0.4985815 0.5392641 0.58962095 0.60915637 0.5676609 0.9284546 0.83685243 0.91962785 0.9338087 0.88705