# vtk DataFile Version 2.0
Really cool data
ASCII
DATASET POLYDATA
POINTS 5677 float
18.221241 4.932953 54.82738
18.131664 4.8799276 55.53122
18.273743 4.869051 56.220642
18.174334 5.4687805 54.74121
18.024279 5.467652 55.427937
18.159319 5.4956136 56.267254
18.373869 5.5061636 56.88399
18.265652 6.002886 54.824913
18.251955 6.1474934 55.51966
18.297977 6.0265856 56.397106
18.420666 5.942475 56.909763
18.916218 4.08075 54.88956
18.808083 4.0490503 55.436123
18.86885 4.1454372 56.191944
19.107431 4.1945662 56.930584
18.945215 4.736985 54.214653
18.579874 4.56906 54.657158
18.427174 4.433077 55.76761
18.556927 4.4985833 56.443733
18.864246 4.8027744 57.274666
19.083 5.1814647 57.75444
18.731165 5.330735 54.189014
18.356844 5.450494 54.449223
18.644657 5.554167 57.407658
18.91002 5.485816 57.709316
19.06973 6.0796885 54.28649
18.627888 6.185403 54.69027
18.448887 6.377241 55.381794
18.591284 6.4332805 56.40128
18.82466 6.3100843 57.270832
19.074158 6.0645084 57.77985
19.007727 6.668517 55.115395
18.819696 6.687475 55.587986
18.983675 6.754385 56.43273
19.187572 6.7461314 57.064915
19.991858 3.3351576 54.950485
19.854841 3.2249331 55.7509
19.855253 3.3688335 56.2629
19.511305 4.2016635 54.188198
19.54055 3.8091702 54.64621
19.541334 3.5199792 55.56118
19.576305 3.647765 56.360428
19.756268 3.9775345 57.12097
19.43711 4.699849 54.030712
19.506588 4.440974 57.53225
19.599073 4.865565 57.809967
19.34948 5.4331174 53.985992
19.452888 5.5384665 57.99662
19.431374 5.993209 54.23461
19.52318 6.3732605 54.52318
19.458746 6.084698 57.926815
19.44841 6.6579394 54.903126
19.46579 6.9235787 55.74258
19.498724 6.9352555 56.72566
19.458946 6.7887783 57.28649
20.97358 3.272939 54.147602
20.588058 3.1142406 54.87226
20.591366 2.9208617 55.608295
20.405506 3.1226752 56.33383
20.840176 3.2068205 56.89164
20.533417 3.5761857 57.040585
20.764324 4.6687417 53.627094
20.260536 4.764439 57.83375
20.80707 5.3016253 53.744698
19.982347 5.481483 58.07376
20.926224 6.6533823 54.497787
20.315527 6.034324 57.945026
21.030094 6.964338 54.79068
20.592972 7.126342 55.23414
20.580738 7.154703 57.407524
21.474318 9.944391 58.037727
21.541422 3.1651082 53.99327
21.438099 2.7314165 55.650208
21.509943 3.117268 56.86301
21.61357 3.6826646 53.63355
21.67168 3.6924155 57.331738
21.53548 4.59734 53.274036
21.261183 4.9108524 53.589016
21.62236 4.385213 57.609093
21.96782 5.608904 53.631958
21.52461 6.462028 53.970455
21.583225 6.778192 58.24869
21.502003 7.6494226 57.742023
21.822763 7.437301 58.49389
22.029669 7.9644017 59.03828
22.31342 8.331965 55.366333
21.84633 8.874217 56.634434
21.605293 8.549655 58.482735
21.817577 8.423043 58.898727
21.910322 9.399592 56.387238
21.66364 9.746886 58.768967
21.922157 9.637709 59.150436
22.008774 10.4851 56.70233
21.607828 10.321589 57.885647
21.747957 10.489456 58.635258
21.988976 10.418147 59.14539
22.261044 11.222814 57.039547
22.073948 11.123163 57.7719
22.061287 11.039093 58.506084
22.083954 10.880432 58.949184
22.982056 2.5680273 52.973606
22.492722 2.70316 53.583084
22.79704 2.5556648 55.430126
22.12035 2.6528244 56.059944
22.477015 3.1698158 56.977535
22.787924 3.97978 52.007984
22.759722 3.7979476 52.436337
23.07715 4.30343 51.512936
23.383842 5.7235403 50.95629
23.05372 5.7371526 51.987938
22.674019 5.023138 52.56682
23.350622 5.987143 51.09518
23.29442 6.368081 51.53666
22.601791 6.2389565 58.245804
22.534859 6.9710407 58.934036
22.618374 7.391801 54.18938
22.265554 7.29352 54.465485
22.404842 8.338084 59.386307
23.026361 9.315593 54.562447
22.321741 9.447179 59.51026
22.765461 9.819926 59.638134
23.025156 10.419029 54.930523
22.50059 10.606518 55.866924
22.347473 10.421775 59.51203
22.508537 10.137328 59.65184
22.943748 11.346447 55.849224
22.543154 11.454957 56.572216
22.537977 11.527562 57.597294
22.397596 11.286746 58.622482
22.38899 10.848642 59.281437
22.86746 11.842402 56.58824
22.94919 11.94405 57.36667
22.904745 11.641689 58.385616
24.31292 -0.79429173 54.867683
24.270882 -0.81694716 55.334354
24.223028 0.10062759 54.237392
24.175896 -0.48046234 54.731754
24.11358 -0.524971 55.53518
24.198025 -0.3394877 56.111797
24.173185 0.4992649 56.679455
23.378454 2.275957 53.036243
23.796076 1.8257024 53.34722
23.928165 1.7972277 56.10065
24.145954 1.6224353 56.760494
23.885921 3.2910917 51.246017
23.705246 2.9695916 51.940193
23.473772 2.845131 52.363483
23.315573 2.5381014 56.46272
23.582993 3.2156036 57.162865
23.898912 3.789866 50.828175
23.422861 3.6796763 51.304817
23.646425 4.520566 50.756752
24.141752 5.671805 50.135864
23.666847 5.679901 50.649555
24.069845 6.303433 50.245586
23.752068 6.504226 50.65789
24.020292 7.1756706 50.83026
23.73385 7.215019 51.39759
24.213411 7.595849 51.41486
23.913301 8.938168 53.404434
23.76866 8.740965 59.442165
23.483656 9.191034 53.990326
23.6899 9.760114 59.458622
23.447432 9.433511 59.58979
23.666906 10.179462 53.930717
23.63453 10.7385845 54.329647
23.454218 10.48483 59.475655
23.746244 11.173664 54.66186
23.391016 11.505635 55.611797
23.170675 11.126987 59.090084
24.493183 12.998281 24.706167
23.515938 12.174065 56.49317
23.622375 12.273242 57.301426
23.334177 11.889724 58.037918
24.4905 13.110576 24.907993
24.494024 13.1987705 25.240627
24.997696 -0.79114914 54.081173
24.771603 -1.0805511 54.83145
24.664942 -1.1195033 55.42575
25.17709 -1.1706833 56.673378
25.170258 -0.8872391 57.169586
24.62047 -0.41335633 54.01799
24.605173 -0.580587 56.585278
24.930098 -0.43848506 57.167355
25.052435 0.6246688 53.028973
24.88029 0.4664708 53.46348
24.802376 0.37523264 57.227875
25.173092 2.2643685 50.917667
24.99582 1.9571099 51.57511
25.189163 0.90547645 57.60826
24.8545 2.7662334 50.853024
24.998638 3.6725736 50.24084
24.49964 3.629549 50.602623
24.595118 3.6402748 57.55842
24.491707 4.707741 50.082455
24.864412 4.8624964 58.741013
24.753155 5.588939 49.79733
25.244766 5.7214227 59.575306
24.558302 6.430473 49.98402
24.451843 6.3909636 58.999477
24.827326 6.934487 50.1637
24.373524 7.3135204 50.660984
24.74811 7.8354936 51.434532
24.302666 8.922373 53.208626
24.55585 9.521032 53.04348
24.449207 9.767946 58.898975
25.282625 9.792428 66.58804
25.282852 9.921207 67.40172
24.800707 10.053095 53.083046
23.945408 9.953951 59.25429
25.291182 10.594501 65.86596
25.14196 10.915768 66.42326
25.060167 10.667798 67.40469
25.19785 10.831862 67.95461
25.053219 12.077098 23.938595
24.977627 11.985057 24.436867
25.134111 12.114625 25.391747
25.174664 12.263912 25.866941
24.697065 11.241421 53.880543
24.3228 11.339093 54.285248
24.39852 11.461961 58.1944
23.92501 11.280267 58.800472
25.356653 11.402586 65.786446
25.135326 11.461169 66.61079
25.077383 11.401592 67.48897
25.192884 11.300221 67.92804
25.26237 12.621721 23.338285
24.923481 12.442604 23.85362
24.663544 12.585023 24.40434
24.758348 12.590217 25.248014
25.028072 13.044642 26.320082
24.76572 11.55741 54.322433
24.395113 11.87586 55.72543
24.808538 11.979535 56.11839
24.508408 12.032452 57.243782
25.245653 11.877953 66.92482
25.258543 11.764832 67.75963
25.315145 11.741469 67.88626
24.806679 13.379964 24.077797
24.645164 13.411173 24.433569
24.551777 13.616817 25.483353
24.668003 13.715323 26.285637
25.086727 13.553047 26.790806
25.200148 13.992434 24.022234
24.819458 14.265946 24.840212
24.612583 14.397941 25.696712
24.713688 14.382611 26.314127
24.992168 14.433152 26.874159
25.288418 15.051899 24.91869
24.960318 15.024072 25.704891
25.02755 15.018297 26.348837
25.314047 15.155298 26.825125
26.08706 -1.6953354 55.762356
25.645752 -0.8097619 53.781498
25.408237 -1.2190425 54.531048
25.609308 -1.3688791 55.631668
25.485506 -1.4752216 56.414284
25.732132 -1.1369221 57.350117
26.077637 -0.8545952 57.9279
25.67472 -0.287683 53.20029
25.582426 -0.5215358 57.85007
25.72799 1.2851772 52.09524
25.301947 1.0081098 52.604195
25.589596 0.2665889 57.99418
25.70192 2.0267048 50.894707
25.734749 1.4714421 51.58334
25.449123 1.5058206 57.32787
25.759018 2.863799 50.244034
25.617653 2.4399118 50.534416
25.687014 3.5232584 50.112965
25.85763 3.9094102 58.400322
25.758055 4.1918364 59.071724
25.357979 4.6042843 49.88203
25.642239 4.618951 59.32289
26.083212 5.1220703 59.972923
25.128733 5.773251 49.660435
25.957405 5.53681 60.08208
25.313301 6.26401 49.67215
26.019527 6.3339896 60.307705
25.377966 7.583667 50.685406
26.008253 7.0559063 60.246956
26.100895 8.417625 51.709976
25.935081 8.909667 66.646576
25.807402 9.067752 67.14209
24.987604 9.821571 58.428234
25.722145 9.29185 66.11662
25.922585 9.831805 68.286934
25.999989 11.298997 24.335554
26.198486 9.873957 52.178677
25.741257 10.250428 52.72535
25.863062 10.678911 64.75105
25.515522 10.537847 68.24218
26.016018 10.709677 68.67704
25.84975 12.029325 23.231241
25.61704 11.786919 23.665257
25.662552 11.501216 24.360752
25.653809 11.705244 25.19194
26.018147 12.1440325 26.166164
25.771635 10.887394 52.962376
25.5154 11.365347 53.746143
24.986057 10.829372 58.11654
25.78186 11.393248 64.821144
25.599487 11.675535 65.20147
25.666954 11.335733 68.384636
25.936909 11.268631 68.59254
25.671543 12.3501005 23.23122
25.82938 12.512783 26.55955
26.02496 12.57669 26.722433
25.530392 11.589694 54.241158
24.988838 11.781288 56.155796
25.972805 11.99251 64.79732
26.094408 12.56079 65.813736
25.629194 12.238414 66.87998
25.76972 12.192717 67.64975
25.624043 11.933358 67.98262
25.695293 14.652562 24.30394
25.536228 14.340133 27.359388
26.194782 14.3670025 27.95363
25.757133 15.24197 24.47503
25.534033 15.37109 25.45919
25.541319 15.469073 26.552258
25.621183 15.287622 27.190199
26.088322 15.488593 27.865627
26.38274 16.597456 21.7217
26.206553 16.561756 22.564919
25.798439 15.64896 25.56919
26.251707 16.178455 26.953064
26.135015 16.062576 27.327856
26.354612 16.083101 28.042011
26.324911 17.094496 22.35532
26.408768 17.896784 48.855507
26.43151 17.64622 49.198982
26.43817 18.29394 48.851288
26.419477 18.236256 49.322773
26.39075 -1.588074 55.084396
26.458143 -1.774996 55.73822
26.564184 -1.7340472 56.69113
26.751734 -1.6246715 56.989494
26.546432 -0.84452975 53.67802
26.564754 -1.244664 54.44691
[...]
POINT_DATA 5677
SCALARS features_00 float 1
LOOKUP_TABLE default
0.9461388 0.957651 0.90300536 0.95072865 0.989694 0.9428242 0.8850973 0.90094113 0.9093894 0.89545405 0.8685856 0.77108747 0.75491476 0.7294608 0.7052151 0.82889885 0.87865674 0.8445426 0.80832183 0.786808 0.76586634 0.86441755 0.91674745 0.8329489 0.7912547 0.7647084 0.84051895 0.86265445 0.8444576 0.8082127 0.7702806 0.7486012 0.7981669 0.79509306 0.76435363 0.5669365 0.5776276 0.5797287 0.69002473 0.6532862 0.62338793 0.61754966 0.6219903 0.73353255 0.68635267 0.69631886 0.74272346 0.71990275 0.6885616 0.6474816 0.71970725 0.6633867 0.6991458 0.7262819 0.72782034 0.49305832 0.5264535 0.51354057 0.5194252 0.47624832 0.5224772 0.46389052 0.5989448 0.42575717 0.6346771 0.34110913 0.56651956 0.28433037 0.4044783 0.46113998 0.63507617 0.3877215 0.44914722 0.38877952 0.3227438 0.36807942 0.2595305 0.34302908 0.38448036 0.17862158 0.24917501 0.17880821 0.25817895 0.25437468 0.35522646 0.046466768 0.45436275 0.45141882 0.45318997 0.40920222 0.6472864 0.666031 0.5223657 0.634318 0.68197465 0.7141961 0.59303117 0.6447673 0.6940801 0.71838266 0.124933034 0.152305 0.2022381 0.30543366 0.21607047 0.26685435 0.22407098 0.3318662 0.45010522 0.3431673 0.18020801 0.45279875 0.42398965 0.12408205 0.18816268 -0.02209427 0.036096297 0.49368522 0.21691132 0.69110405 0.73077893 0.36001247 0.4219774 0.74083793 0.74094474 0.49187315 0.56266874 0.6525763 0.7172869 0.74105835 0.58915645 0.65604424 0.72999275 0.54578817 0.57122433 0.4066624 0.51629484 0.559365 0.54831517 0.41151768 0.11285758 0.09613535 0.030124113 0.14358705 0.30366784 0.24549092 0.20471638 -0.02712155 -0.0566463 0.35475528 0.3204842 0.41210264 0.49746507 0.47256818 0.49784225 0.48520303 0.45194027 0.40920973 0.32389987 0.18587789 0.58857316 0.2248356 0.6740254 0.6771035 0.34113178 0.38042876 0.730809 0.40808252 0.4970662 0.7705254 0.67203057 0.6260528 0.69696796 0.73615295 0.66578346 0.6599122 0.47008345 0.5427009 0.5773427 0.5749209 0.5516959 0.44513464 0.56163156 0.53201467 0.23114716 0.28306353 0.4576192 0.28552973 0.21560207 0.40914202 0.3106379 0.36966136 0.35832906 -0.07347118 0.455414 0.20581286 0.49259722 0.2966028 0.49058786 0.19268851 0.45140937 0.43101543 0.21147034 0.1524204 0.20799793 0.5919112 0.69101584 0.6987132 0.25483117 0.65754527 0.67795086 0.69972974 0.7107531 0.6963354 0.695326 0.69191384 0.6464918 0.60597837 0.33322012 0.37435257 0.70898116 0.7567589 0.67961997 0.70449054 0.71261746 0.70537007 0.6592133 0.69281673 0.690052 0.66440725 0.6113645 0.345828 0.5177537 0.54119444 0.69810057 0.7086829 0.71127975 0.70777714 0.642946 0.6462691 0.6518028 0.64324963 0.5928516 0.5859275 0.6046411 0.6174623 0.60199606 0.5402956 0.54189503 0.55335695 0.5275609 0.47902644 0.5379804 0.43204486 0.5138752 0.56751454 0.57543826 0.5397272 0.48152158 0.34162587 0.49891412 0.20020194 0.18533461 0.4513448 0.27831867 0.22044203 0.30378368 0.33373237 0.31413245 0.3488769 0.1566048 0.2567401 0.41407412 0.29067612 0.3850816 0.47305965 0.39296943 0.45623863 0.4616301 0.29804048 0.5186012 0.00756713 0.5663959 0.6051513 0.4660818 0.6223239 0.6115825 0.6619992 0.04071641 0.14488277 0.7023447 0.6720798 0.6268228 0.6337745 0.6661478 0.6771647 0.64273375 0.5172992 0.19613084 0.27337775 0.5206267 0.6685064 0.6756178 0.67778003 0.6540829 0.6379255 0.49794805 0.46564355 0.29423383 0.50516903 0.68508565 0.6647394 0.69622654 0.68975306 0.6926148 0.50790364 0.46262497 0.3632905 0.44870996 0.4922012 0.45978555 0.44055447 0.39886382 0.5593334 0.5136724 0.43482357 0.38972718 0.40169936 0.38284063 0.56875 0.7714511 0.7446577 0.8039235 0.7894026 0.48362482 0.49879175 0.5101868 0.49324632 0.3926365 0.44416672 0.49356753 0.4725793 0.27566007 0.3879488 0.18836859 0.23913765 0.2577693 0.27797198 0.24973816 0.3023436 -0.053098544 0.27276894 0.28189734 0.3532269 0.37405813 0.24438873 0.5081532 0.24766439 0.550991 0.24676219 0.24949515 0.26915708 0.15788023 0.07846241 0.318488 0.6428002 0.514045 0.4155563 0.29193336 0.33880022 0.37692323 0.3903405 0.14157759 0.11475362 0.06138309 0.23544465 0.4757582 0.5461509 0.57679427 0.6051961 0.623682 0.33522052 0.37791806 0.41129684 0.43608677 0.05918858 0.50806504 0.57434773 0.46746325 0.23718253 0.35508054 0.41680557 0.4742369 0.04380957 0.08609509 0.24386118 0.2948354 0.2342366 0.59953004 0.5268431 0.3057926 0.2727333 0.35355198 0.4672444 -0.023548156 0.1827124 0.25099915 0.6678908 0.6833548 0.6581528 0.64971155 0.14694934 0.34520596 0.41576058 0.66311646 0.61700773 0.33486366 0.49071985 0.45257056 0.48930013 0.3550181 0.31165332 0.5481747 0.43605807 0.5149958 0.49134216 0.4224932 0.3425638 0.348513 0.34604216 0.49914205 0.54584026 0.37620825 0.3811546 0.36432612 0.68191665 0.6565222 0.5668646 0.46054745 0.51551014 0.52442586 0.5131521 0.42074153 0.36731154 0.3617984 0.3685733 0.49197614 0.5798196 0.5712601 0.3627701 0.32784215 0.35216868 0.35906926 0.76129645 0.7480114 0.72280943 0.6998477 0.53209466 0.54704356 0.55965626 0.49492985 0.41367567 0.38593543 0.52331614 0.48843622 0.82256734 0.8265343 0.81194055 0.78269047 0.5502098 0.57415295 0.58148575 0.5453783 0.4547997 0.8596326 0.84591043 0.81229246 0.58223957 0.30775785 0.41286898 0.28012353 0.3954074 0.48543707 0.2590245 0.271666 0.27646062 0.16070743 0.22407764 0.15519297 0.19829674 0.23606163 0.3255069 0.4659534 0.47245136 0.45235232 0.3982639 0.44414145 0.47479272 0.3834592 0.46347392 0.46701896 0.40080234 0.2185801 0.31870282 0.3861385 0.41955394 0.44756898 0.46456128 0.54056543 0.41400325 0.4180691 0.35673743 0.1790969 0.3297205 0.362557 0.35132742 0.3911996 0.082143255 0.45575148 0.55885875 0.60229445 0.36121327 0.35843372 0.32697484 0.09398346 0.20246129 0.32089245 0.33018035 0.3303638 0.08311837 0.39352533 0.45554054 0.34058273 0.3366283 0.30505008 0.15747046 0.3022933 0.46457613 0.19206223 0.41714287 0.38842997 0.1420693 0.42169207 0.42274135 0.55315 0.5746031 0.5883064 0.5665603 0.3819344 0.11242169 0.051507182 0.50584894 0.48001093 0.4558642 0.4919035 0.5371631 0.4587484 0.42169014 0.363395 0.02408038 -0.0023993924 0.08668494 0.6905334 0.5214845 0.46237445 0.40563506 0.46779603 0.51452917 0.42751694 -0.013283886 -0.050127853 0.60141814 0.56076455 0.55272555 0.5332852 0.4183792 0.43752125 0.44065228 0.51916695 0.5431633 0.5034393 -0.01971016 0.009272851 0.0056033954 0.37773514 0.618201 0.5934861 0.4014426 0.30353534 0.3725856 0.39625865 0.5065684 0.53907305 0.40692058 0.39284977 0.3536344 0.3920679 0.46609464 0.42406332 0.46992934 0.42140302 0.17012148 0.27963752 0.359871 0.37932697 0.47207338 0.35169947 0.28532788 0.48800683 0.50404066 0.37097716 0.37947994 0.4321677 0.45673326 0.57416415 0.66667795 0.5087271 0.5159326 0.375687 0.47587687 0.24654818 0.12510389 0.27584124 0.35309622 0.2992057 0.7029923 0.5265846 0.52017194 0.5294644 0.37639755 0.3390015 0.4492818 0.5875156 0.45500484 0.35560477 0.22960767 0.82834774 0.7129766 0.6444475 0.5409227 0.5603421 0.45696917 0.39709547 0.3458606 0.8589327 0.8486703 0.81383944 0.7792774 0.5450363 0.5699769 0.5745896 0.5679691 0.5054798 0.4221009 0.78878593 0.8011061 0.5543458 0.559664 0.7951342 0.8209436 0.8260189 0.17784168 0.20608534 0.7587464 0.7998347 0.5545123 0.6759104 0.5901159 0.58989 0.5002618 0.545114 0.5886596 0.5825665 0.5665781 0.05357795 0.07806644 0.30911118 0.38090467 0.5769098 0.5647459 0.5366797 0.51846695 0.49484545 0.15435848 0.24302879 0.40262967 0.41781652 0.40891796 0.37927103 0.4810943 0.18695061 0.45038763 0.39485797 0.36583674 0.10954304 0.29463786 0.50364816 0.4965045 0.407781 0.44748133 0.38314033 0.42988056 0.25084603 0.43213335 0.46454057 0.493922 0.48568863 0.11382387 0.45806998 0.6363859 0.6594058 0.6793283 0.6795315 0.3312878 0.36265704 0.36723673 0.36627197 0.60856235 0.6504186 0.6004113 0.53581834 0.54702646 0.63731813 0.6302147 0.2487021 0.30850363 0.27551258 0.6421261 0.6809085 0.62852037 0.55974996 -0.06879856 0.76790065 0.53829753 0.22075911 0.22706932 0.18549153 0.090824 0.5538628 0.60158694 0.56754476 0.55121744 0.28518617 0.4561804 0.4609945 0.09822449 0.16906285 0.41447437 0.39095587 0.37158716 0.07199454 0.32860926 0.26966122 0.421394 0.50873363 0.34308162 0.47161347 0.46315432 0.42440256 0.3460412 0.14419203 -0.090629645 0.04983797 0.42045805 0.45834616 0.36003023 0.33210534 0.49038184 0.45719948 0.35128462 0.35016227 0.3380861 0.13996226 0.16745391 0.3191762 0.334844 -0.13823642 -0.065753855 -0.19760725 0.45987147 0.45761836 0.40379298 0.3976889 0.38666213 0.36769986 0.18003328 0.28611842 0.09811491 -0.29819745 -0.12554364 -0.045820914 0.49791473 0.44346124 0.4126056 0.35716704 0.41301996 0.41633105 0.1897853 -0.15880041 -0.030059598 -0.014848225 0.007991314 -0.022251517 0.29563716 0.19972886 0.18725985 0.07169684 0.022069983 -0.007774666 0.5163908 0.49131536 0.40489167 0.36874938 0.38567543 0.16031648 -0.034461487 0.21647663 0.07193599 0.5157222 0.50088125 0.3659047 0.21635531 0.21579684 0.49384013 0.44681853 0.21987732 0.31772974 0.48989818 0.2870727 0.25008702 0.40024194 -0.07013069 -0.024803387 0.29989016 0.5066446 0.3182671 0.087552726 -0.19150342 0.77361333 0.46215802 0.5216882 0.3196119 0.25085744 0.3239534 0.2722723 0.719092 0.6145332 0.51236224 0.5396222 0.46606943 0.4364825 0.31763807 0.32777455 0.32110453 0.7517666 0.7210458 0.6829027 0.5317147 0.5324017 0.5474009 0.525 0.47430408 0.81007403 0.85780215 0.8494787 0.19136494 0.222931 0.4531591 0.81854194 0.08902328 0.12106702 0.734323 0.7683674 0.529253 0.57496285 0.5906042 0.56438607 0.08837965 0.6258702 0.34012884 0.5221539 0.555107 0.49406916 0.42443496 0.29349035 0.47726226 0.23208146 0.45737484 0.1531495 0.41230997 0.23282787 0.2217376 0.24363327 0.25193828 0.111415915 0.28664812 0.27504802 0.3064335 0.37660855 0.41425866 0.48253405 0.47292268 0.17927003 0.3264886 0.38432345 0.49377358 0.4920523 0.46868145 0.2551938 0.18773142 0.3488562 0.39564478 0.6907979 0.6908288 0.70417625 0.29160774 0.4763443 0.48286927 0.45284778 0.36025918 0.39212975 0.44821674 0.41899806 0.16970973 0.63887095 0.67381865 0.6826657 0.7040806 0.6964503 0.25802112 0.44328156 0.65885055 0.65224576 0.6075674 0.1711016 0.08915806 0.055298693 0.47494385 -0.09583601 0.54269195 0.55975646 0.085612625 0.060053892 0.024112359 0.19293089 0.19379689 0.119267315 0.32027555 0.33659786 0.25304806 0.47840616 0.07448546 -0.15663712 0.17169471 0.23796354 0.18628982 0.23467067 0.1750839 0.41911507 0.3507061 0.049709648 0.17055461 0.4047243 0.2496998 0.23346709 0.29064897 0.26813763 0.05344507 0.024464339 0.122127034 0.081876 0.36355728 0.40860826 0.22644559 0.1970977 0.23009726 0.097167715 0.4488914 0.47082132 0.32319435 0.30582052 -0.0013816804 0.029189259 0.01705224 0.0055525303 0.40931028 0.42191365 0.22501086 0.4399726 0.41997203 0.3727687 0.29888308 -0.4463122 -0.24061084 -0.1403534 -0.15053654 -0.11591043 -0.26872927 0.3409679 0.34549904 0.15709528 0.26031247 0.37841663 0.410358 0.41431782 0.3858894 0.3001405 -0.116384305 0.12642412 -0.35184196 -0.097261265 0.0414157 0.010175869 0.501204 0.47801363 0.43825322 0.31479344 0.36438462 0.3813768 0.23772585 0.5195209 0.30290362 0.2955348 0.26659206 0.091538206 0.16157112 0.022444382 0.31413686 0.49675784 0.24954948 0.36470976 0.38032198 0.2842689 0.2025446 -0.099914685 0.12255203 0.2999578 0.43186715 0.4743058 -0.13885754 0.40131444 0.36270845 0.3030319 0.23442835 0.21117973 0.19416717 0.42489442 0.47349852 0.5555517 0.5060806 0.22282407 0.14549462 0.21350646 0.13659413 0.086451136 0.35348028 0.4927032 0.27847627 0.46632284 0.44536602 0.18769354 0.46000278 0.49685904 0.61543334 0.5894271 0.2376232 0.1911644 0.1904007 0.648774 0.48463556 0.28685546 0.45459715 0.47079855 0.6394801 0.605726 0.5760617 0.19611633 0.20948479 0.2730823 0.3054167 0.32767665 0.3085903 0.25435588 0.524238 0.46802568 0.49391598 0.2721977 0.30109757 0.31923014 0.3215356 0.61116827 0.6121397 0.5974177 0.58152676 0.36332434 0.50912535 0.8052341 0.8556981 0.84478825 0.53683233 0.54439366 0.4625123 0.32714555 0.18138365 0.34122738 0.7996323 0.49703926 0.56793785 0.57131237 0.43194002 0.34578845 0.35006374 0.33483008 0.0819215 0.72148514 0.33048582 0.46844965 0.5650339 0.52859086 0.39224485 0.39914787 0.36949468 0.514521 0.52418184 0.4685379 0.3279329 0.54260826 0.2740089 0.24768363 0.35825193 0.44790453 0.4876591 0.5067384 0.17007358 0.35227388 0.15666883 0.3156342 0.37167224 0.26784277 0.25314513 0.4358852 0.20801045 0.18933026 0.08223918 -0.1724565 0.28461117 0.30623767 0.40546703 0.39458677 0.27439153 0.258023 0.09077688 0.3825446 0.53204525 0.37815726 0.22205742 0.4801963 0.4605595 0.38582045 0.2092556 0.13451985 0.042691827 0.5922941 0.4930837 0.31435096 0.2357189 0.24342851 0.14416891 0.123349324 0.04989255 0.68722373 0.69513834 0.69950616 0.70822024 0.5622455 0.44772464 0.09443046 0.3101347 0.44732827 0.44038427 0.4128615 0.15465213 0.1964686 0.40409753 0.68390393 0.7014276 0.66315544 0.24513377 -0.08494701 0.21488956 0.41432577 0.60173184 0.5923046 -0.046932675 -0.16068089 0.30832815 0.5422071 0.5140986 0.054905664 0.034948643 0.24154726 0.617398 -0.26556313 0.22603375 0.07174335 0.2967813 0.38593793 0.23102342 -0.14396693 0.13512 0.13450247 0.34221762 0.11410515 0.06342829 -0.030725937 -0.17664695 -0.2574766 -0.063524306 -0.21034521 -0.23521012 0.12307075 0.048496135 0.32069126 -0.32451445 -0.06777553 0.2850244 0.17780547 0.12705879 0.04636068 0.35155222 0.42704535 0.42277026 0.13437764 0.3568071 0.25700277 0.11577648 0.47731483 0.120376796 0.21992975 0.21436118 -0.024935588 0.20250532 0.4620421 0.49650604 0.49589023 0.02449686 0.02547589 0.19609989 0.27765614 0.3096677 0.3188885 0.2559828 -0.11390646 0.49586195 0.5239863 0.5069001 0.50427425 0.12671858 0.22304001 0.3352989 0.3280151 0.3245476 0.28433263 0.14964584 0.5215651 0.542735 0.5933276 0.59856164 -0.07816332 0.16253377 0.2982866 0.3917737 0.40761527 0.44860604 0.3391133 0.4087676 0.3420578 0.28183943 0.16770577 0.28978154 0.19619673 0.19157948 0.15494895 0.42657948 0.49803877 0.5375045 0.54600894 0.65491426 0.6578317 0.10707754 0.09604825 0.29730436 0.39288187 0.50623095 0.519871 0.33152175 0.24979247 0.2387642 0.28282654 0.0565601 0.15606415 0.069805466 0.23037876 0.4019814 0.076296344 -0.003941044 0.54784644 0.66432726 0.6300136 0.49322987 0.41799372 0.097156554 0.20617107 0.21659866 0.15896654 0.08510556 0.1289509 0.32062238 0.45194155 0.50044143 0.51084226 0.49417055 0.30628267 0.28337258 0.53989637 0.55390924 0.32354584 0.6367462 0.5808474 0.25968468 0.2515086 0.23151895 0.22911885 0.23299003 0.31707063 0.33103487 0.3049684 0.26550967 0.17790674 0.4113807 0.4454506 0.45951957 0.5471443 0.59994864 0.6624894 0.63160455 0.48859775 0.30449575 0.34213537 0.3247901 0.35734934 0.339454 0.65853035 0.6866003 0.66974354 0.38190073 0.39241463 0.59346783 0.60869455 0.59313494 0.54677457 0.59015316 0.60839903 0.58632654 0.48691112 0.40232193 0.5889056 0.7199268 0.76917076 0.79349685 0.5631219 0.31952903 0.3045457 0.28029335 0.41996014 0.5056579 0.7184992 0.74190545 0.15538232 0.4155458 0.31995907 0.2837081 0.17952208 0.41629094 0.2713436 0.13623509 -0.01949475 0.17591028 0.28098935 0.6619227 0.27183962 0.320652 0.2712067 0.30706584 0.22673585 0.54011244 0.4997599 0.4210173 0.20641729 0.5797739 0.22291103 0.12594211 0.1801698 0.206064 0.49359697 0.16121304 0.15189233 0.022018 0.36934945 0.46724612 0.6048944 0.48560372 0.30394775 0.013222452 -0.07565613 0.13281721 0.103370324 0.67401165 0.591027 0.17507309 0.16532576 0.05425111 0.038221814 0.69219244 -0.008062452 0.012017362 -0.0864934 -0.049793005 -0.10003607 0.005481111 0.66589326 0.6304432 -0.29500443 0.65688205 0.63405585 0.671134 0.653453 0.6085012 0.49955893 -0.2643273 -0.28007066 -0.14808242 0.57043815 0.54000884 0.6555991 0.5243348 0.56024617 0.5522881 0.38547915 0.2816144 -0.22768578 0.0073331594 -0.18344377 0.43854117 0.55636734 0.5064744 0.50908846 0.49706864 0.0704611 0.45108402 -0.056367625 0.11748146 -0.13645744 0.41589266 -0.113124505 0.019787714 0.34851348 0.38032842 -0.04498998 0.10252866 -0.0011518924 -0.049501263 0.090274215 0.20191932 0.251443 0.20335507 0.37758934 0.23459713 0.19504225 0.23100749 0.4427157 0.34258085 -0.025079548 0.16874078 0.116043314 0.012910046 0.100156546 0.10073315 0.45003957 0.50196564 0.471721 -0.1102412 -0.34137797 0.26737425 0.08469597 0.24232526 -0.37578395 0.5547299 0.53724766 -0.22335017 -0.20733035 0.2597096 0.11612545 0.21653934 0.103631765 -0.03474695 0.010438211 0.5681436 0.6410253 0.044781882 0.39935032 0.23220232 0.19925953 0.22347903 0.08799705 0.5682255 0.5671368 0.6779171 0.68335617 0.33422643 -0.04983157 -0.036340524 0.3754467 0.087402076 0.55457103 0.6922 0.6558933 0.4700582 0.43766284 0.3122969 0.293813 0.29861465 0.43089253 0.42442355 0.23888901 0.2609251 0.5965495 0.5076096 0.36701944 0.30872327 0.28854722 0.3116478 0.29255068 0.37297827 0.37479034 0.403217 0.28175163 0.4309556 0.5815077 0.43284988 0.4442566 0.37471256 0.3553993 0.33187234 0.23267408 0.2593667 0.18668967 0.19933972 0.29510224 0.30745175 0.56769454 0.6464567 0.68630636 0.64117575 0.5715251 0.37530237 0.40100813 0.4015211 0.392155 0.33120674 0.30347306 0.6227154 0.3999079 0.4022132 0.3951334 0.37965184 0.56654483 0.54516494 0.4868346 0.57895297 0.5898956 0.570475 0.49401057 0.4393889 0.42686313 0.505012 0.38287967 0.38176417 0.43293554 0.0754063 0.05533409 0.5322175 0.629628 0.66895974 0.32883304 0.32860744 0.24957424 0.07454375 0.36513633 0.14047202 0.029474765 0.22937305 0.3834618 0.5952971 0.59842706 0.27713874 0.029027399 0.5202532 0.4957527 0.41192722 0.29790604 0.49005872 0.5023576 0.17564318 0.06014647 0.49450475 0.46568912 0.46465617 0.12213922 -0.039245773 0.0069334954 0.051216155 0.16557021 0.21586907 0.42412162 0.61317605 0.5018846 0.36764497 0.09206657 0.047471397 0.043255307 0.05585662 0.18845922 0.713255 -0.031098908 -0.2748093 0.03748729 0.031364135 0.73168826 -0.15454295 -0.15795188 -0.21114966 0.01875412 0.042058818 0.66850626 0.5744971 0.6076369 0.55136013 0.5426613 0.56018853 0.51482457 0.4646849 0.24962051 0.44424433 0.5633546 0.5325384 0.45108828 -0.25972733 0.46519315 0.48434657 0.54903984 0.46992385 0.45267344 0.38717997 0.22506408 -0.3011285 0.42145398 0.4191841 -0.059993684 0.38853008 0.40668315 -0.07523403 0.36586767 0.2339094 0.27888918 0.009601826 -0.13605194 0.12662904 0.018748077 0.306139 0.1811628 0.35648936 0.429621 0.34491336 0.42838284 0.44723457 0.4919043 0.48167434 -0.3179481 0.52179265 0.5454425 -0.042063937 -0.35934305 0.06777422 0.55578154 0.63428444 0.13904853 0.19377688 -0.056099102 0.5328994 0.55062395 0.67700326 0.67699695 0.15020022 0.16745284 -0.025551483 0.521897 0.6931396 0.6900455 0.6877324 0.2086559 0.21867412 0.11532741 0.45450342 0.4509178 0.36920482 -0.25886175 0.35736042 0.488631 0.3242405 0.20593962 0.2948733 0.43075547 0.38499966 0.4669642 0.46986014 0.46082425 0.17756392 0.25907183 0.4273805 0.46629363 0.39007023 0.3993441 0.38131326 0.24094929 0.1512684 0.48152733 0.5811585 0.51851165 0.39914793 0.48993737 0.52860695 0.51537794 0.31806934 0.2678826 0.24079055 0.21670227 0.5544704 0.56256783 0.5669218 0.3644053 0.37899405 0.37292093 0.3733803 0.34510353 0.29131824 0.6551883 0.72886723 0.7502026 0.7534194 0.52981377 0.4887603 0.45880342 0.5550523 0.5421616 0.6262108 0.68581235 0.7184322 0.48949566 0.43649864 0.37385762 0.28263336 0.40156192 0.4317547 0.51061213 0.56566334 0.6332419 0.2639051 0.3963874 0.23104548 0.22034639 0.2852812 0.37003812 0.43866014 0.48549527 0.5623766 0.089786634 0.1556117 0.1373992 0.2921419 0.37385434 0.46405977 0.5196935 0.5135808 0.5622836 0.2529364 -0.026003242 0.15586129 0.293451 0.36500305 0.4257406 0.43480408 0.503207 0.55928695 0.2491456 -0.101813294 -0.17303608 0.3383892 0.27344525 0.20614761 0.46698698 0.48254603 0.21856233 -0.25877512 -0.043771908 0.13597494 0.14539504 0.103066094 0.28637263 0.43510443 0.32331175 0.17990461 0.3810124 0.59117764 0.4394846 0.40386018 0.18454136 0.68758833 0.5960089 0.7009361 -0.4029749 0.63249934 0.41167486 0.55758816 0.47441056 0.49568605 0.46329036 0.33938983 0.35895512 0.40433377 0.4968285 0.520411 0.35015118 0.22983985 0.25968158 0.2980721 0.4439218 0.0662573 0.37352905 -0.1115196 0.34368753 0.370418 -0.09243504 0.34930694 -0.15982883 0.24772674 -