# vtk DataFile Version 2.0
Really cool data
ASCII
DATASET POLYDATA
POINTS 4349 float
15.302502 -32.880234 3.7618403
15.3318405 -32.85381 4.3360295
15.234732 -32.230198 3.0602453
15.068241 -32.28633 3.6200523
15.170741 -32.40855 4.322018
15.301021 -32.207207 4.752521
15.175914 -31.527378 2.9800668
15.014418 -31.48502 3.5422354
15.13536 -31.543201 4.279377
15.262131 -31.047508 2.9939966
15.161912 -31.002245 3.5617464
15.268293 -31.018614 4.0828624
16.412212 -38.3413 -6.068316
16.301594 -38.19142 -5.600899
16.371084 -38.21295 -4.8932586
16.31223 -37.516106 -6.215955
16.117334 -37.31393 -5.704146
16.197836 -37.25112 -4.679782
16.264927 -36.773598 -6.1380343
16.117294 -36.718098 -5.5677743
16.236835 -36.55207 -4.7462006
16.307388 -36.212887 -5.632848
16.379313 -36.12515 -4.8619027
15.807724 -32.86428 2.9812865
15.794512 -33.24085 3.6733298
15.662931 -33.155235 4.435321
15.819465 -33.0687 4.8848667
15.699919 -32.21177 2.5877824
15.675122 -32.462406 5.028569
15.83071 -31.265137 2.3884938
15.470841 -31.527418 2.6404467
15.409104 -31.30102 4.6367736
15.782955 -31.662754 5.043246
16.297203 -30.691032 2.194821
15.7371645 -30.68297 2.7266977
15.483226 -30.591703 3.32027
15.601166 -30.781944 4.2552423
16.101818 -31.036816 4.9323664
16.204786 -30.030273 2.6803892
16.251278 -29.87295 3.3347182
17.26961 -39.65896 -6.539619
17.22299 -39.851917 -5.5541906
17.221783 -39.78733 -5.0721884
17.325714 -40.1153 1.7570183
17.262299 -40.080334 2.4033282
17.35302 -39.999866 2.9173262
17.024559 -38.98969 -6.9350467
16.83342 -39.259148 -6.2772937
16.802515 -39.337566 -5.6007805
16.892006 -39.160908 -4.855024
17.064148 -38.963585 -4.1789765
17.258095 -39.557465 1.7267557
17.183084 -39.542583 2.3910592
17.317371 -39.381596 3.08458
16.991264 -38.460835 -6.928113
16.620657 -38.591904 -6.3855205
16.48527 -38.553673 -5.7128243
16.51095 -38.23615 -4.7016034
16.999588 -38.30875 -3.816559
17.26319 -39.0318 1.9175097
17.30148 -38.899654 2.6224308
17.321234 -39.015606 3.0477006
16.889694 -37.379646 -6.811527
16.508997 -37.2797 -6.5387535
16.58701 -37.66619 -3.948617
17.226675 -37.13338 -2.615178
16.954681 -36.640858 -6.678829
16.600468 -36.635983 -6.428985
16.601463 -36.59126 -3.7676053
17.088718 -36.427032 -2.7765756
16.662104 -36.095478 -6.070059
16.6329 -35.867954 -5.372775
16.669996 -35.712593 -4.540703
16.797459 -35.664646 -3.7213855
17.163893 -35.441936 -2.6765592
17.46384 -35.159847 -1.5043182
17.134562 -35.35051 -5.4140973
17.296299 -34.62142 -3.2990556
17.369308 -34.573784 -2.2797298
16.708319 -33.632504 3.789599
16.619215 -33.61045 4.348803
17.191622 -33.156017 2.36716
16.417086 -33.43132 3.4431279
16.18403 -33.40792 4.7154517
16.345217 -33.22671 5.038623
16.445105 -32.263264 2.3458009
16.35925 -32.429993 5.382813
16.871393 -32.29338 5.5959477
16.952606 -31.631748 2.0306664
16.415718 -31.625238 5.3362026
16.636198 -30.453093 1.995924
16.410303 -30.38881 4.539237
16.78246 -30.74459 5.0031695
16.89286 -29.714283 2.101254
16.579079 -29.61621 2.6000388
16.767979 -29.573568 3.6115508
16.608004 -30.034698 4.2187786
17.16798 -29.32262 2.2230537
17.054989 -29.245749 2.640645
16.914476 -29.316156 3.1949723
17.895672 -40.720566 1.6445272
17.79376 -40.68692 2.3903368
18.068457 -40.709934 2.8478534
17.486303 -39.901554 -6.3473115
17.763313 -40.214783 -5.359774
18.009127 -40.26056 -4.8876257
17.940899 -39.849205 -3.844051
18.183985 -40.134083 0.017529353
18.029947 -40.28898 0.71018267
17.612137 -40.452503 1.6075844
17.518305 -40.446865 2.4474108
17.681732 -40.166424 3.1268137
17.984974 -39.809956 3.71687
17.429869 -39.27655 -7.0125895
17.508919 -39.40059 -4.4181175
17.660816 -39.24393 -3.7534719
18.005352 -39.12156 -3.2492206
18.28222 -39.445866 -0.3145241
17.53958 -39.71325 1.1324426
17.497171 -39.849197 1.2777994
17.514015 -39.54318 3.3559735
17.946665 -39.50532 3.7918518
17.555317 -38.50835 -7.19671
17.719648 -38.37961 -2.8378208
18.016502 -38.459656 -2.108649
17.913223 -38.900307 0.6596635
17.467733 -38.38892 2.0644274
17.643728 -38.727764 3.4369853
17.926569 -38.726368 3.8184307
17.434265 -37.655746 -7.0731616
17.53586 -37.467678 -2.4994125
18.353533 -37.680756 -0.6688915
18.194613 -37.83184 0.88447225
17.914808 -38.018826 1.9715394
17.924465 -37.755085 2.1561158
17.606247 -38.286613 3.095169
17.286812 -36.64615 -6.7840843
17.462702 -36.38128 -2.2332373
17.730066 -35.99315 -1.2199912
17.862507 -36.601345 -0.83487177
18.137596 -36.35924 0.40322512
18.234222 -36.849598 1.1195077
17.489363 -35.94741 -6.2988214
17.242422 -35.42585 -5.3491354
17.68549 -35.45682 -0.6079919
17.905525 -35.48952 0.21944375
18.282331 -35.372425 1.4235028
17.659542 -35.17583 -5.5727115
17.472816 -34.557613 -3.4414864
17.797232 -34.205074 -1.13186
17.695524 -34.788326 -0.94217056
18.089628 -34.431534 1.2998185
18.187016 -34.18337 2.2574341
17.968023 -33.703506 5.2121677
18.19082 -33.25495 -4.2800875
17.786945 -33.58897 -2.5146403
17.825676 -33.922623 -1.7213658
17.351315 -32.900417 2.3722003
17.467999 -33.366653 5.222686
17.962147 -33.116627 5.675325
18.457144 -32.781147 -5.2662563
18.0485 -32.853867 -3.2793367
17.941605 -32.634594 -2.4709904
18.11196 -32.556145 -1.9556872
17.61818 -32.391815 5.7987494
18.178377 -31.991581 -3.2229478
18.259794 -31.772184 -2.5283744
18.306376 -31.780838 -2.1157768
17.337837 -31.226465 5.4749775
18.019722 -31.472597 5.6756535
17.187084 -30.183014 1.6983031
17.799135 -30.465939 5.180949
17.305565 -29.675766 1.8801069
17.400572 -29.517897 4.019719
17.60572 -30.08385 4.8494077
17.453459 -29.318039 2.1585484
17.470455 -29.13334 2.597611
17.550337 -29.145433 3.3527784
17.870018 -29.307806 3.8856156
19.433226 -42.16436 -11.9879875
19.335884 -42.37139 -11.366764
19.233711 -42.439316 -10.994353
19.42943 -42.026367 -11.904499
19.371458 -41.698246 -10.553133
18.67082 -40.680523 -5.192931
18.850502 -40.680897 -4.64675
19.073545 -40.905422 -2.7269125e-06
18.68978 -40.867638 0.46449888
18.458563 -40.880142 1.4123338
18.472105 -40.80923 2.5092638
18.622938 -40.69617 2.8490727
18.420082 -40.327606 -6.0995445
18.322838 -40.456856 -4.733048
18.622765 -40.292576 -3.8621204
18.765364 -40.35027 -0.5981964
18.295212 -40.313488 3.348968
18.403667 -39.929516 3.7444901
18.389244 -39.38604 -6.9873595
18.666988 -39.321976 -2.2124958
18.562405 -39.836044 -0.67938685
18.322958 -39.42502 3.9739764
18.31298 -38.606228 -7.211493
18.706295 -37.580555 3.1695642
18.824545 -38.036434 3.8764267
18.894814 -36.587856 2.3821461
18.40392 -35.87697 -6.1044497
18.923225 -33.901306 -6.024144
18.558079 -34.609493 2.8584208
18.891224 -34.436882 3.4454181
18.865538 -34.23939 4.1948795
18.608032 -33.729958 5.3308015
19.065023 -33.080643 -6.7417426
18.98527 -33.384552 -6.4032097
18.61281 -33.122906 -5.468609
18.42834 -33.351124 5.698541
18.912941 -32.45668 -6.3629646
18.635817 -32.607822 -5.676513
18.65044 -32.94763 -0.07058565
18.807476 -32.390465 0.25160238
18.738087 -32.584984 5.9789777
19.384539 -32.018528 -6.928861
18.977957 -31.727869 -6.2848263
18.735062 -31.70053 -5.531077
18.806057 -31.607147 -4.5571404
18.489805 -31.511665 -3.3760028
18.529636 -31.488209 -2.4173572
18.994345 -31.5044 -1.4835887
19.235565 -31.787443 -0.7598733
18.909735 -32.004627 0.8875183
18.854685 -31.33721 5.840452
19.042265 -31.133 -5.3016515
19.1097 -30.977287 -4.480642
19.009005 -31.144499 -3.685668
18.539154 -31.34488 -2.846387
18.844654 -31.37857 -1.7982297
18.371437 -30.613993 5.393219
18.927288 -31.06236 5.6641617
18.180338 -29.543808 1.8953344
18.778131 -29.5183 4.2625027
18.397137 -29.146345 2.5493164
18.33947 -29.063358 3.2802818
18.660137 -29.341024 4.021312
20.422739 -51.348316 2.6641767
20.45554 -51.338562 3.0658257
20.457623 -50.502354 1.8465087
20.431015 -50.66426 2.417735
20.435684 -50.821526 2.9219472
20.3344 -47.161324 -12.985954
20.307577 -47.487785 -12.4325075
20.30689 -47.32062 -11.745448
20.197596 -46.555386 -13.029229
20.033817 -46.546997 -12.429007
20.079023 -46.42908 -11.683532
20.394619 -46.053898 -10.83904
20.247267 -45.79908 -13.12125
20.021584 -45.688488 -12.354928
20.108505 -45.41239 -11.510876
19.611948 -43.152122 -11.664273
19.7056 -43.311554 -10.454191
19.79377 -43.00081 -9.849861
20.157019 -42.265495 -12.63865
19.676428 -42.48592 -12.169244
19.512924 -42.765892 -11.792129
19.773268 -42.220974 -9.625586
20.199194 -42.80383 -9.225937
19.82045 -41.651337 -12.135764
19.571932 -41.51506 -11.647707
19.50633 -41.683857 -10.193986
19.665178 -41.529 -9.964912
19.289225 -40.613274 -5.81407
19.287107 -40.688507 -5.6419477
19.462917 -40.79028 -4.67032
19.586327 -40.770584 -0.8238035
19.50759 -41.022507 -0.041973725
19.450863 -41.056286 0.65618366
19.523067 -40.931564 1.5231115
19.17553 -40.767952 2.5457606
20.099003 -41.101273 -11.945672
19.765133 -40.886497 -11.13967
19.751522 -40.939743 -10.603028
19.819239 -40.99609 -10.145928
19.110336 -39.770325 -6.588747
19.344898 -39.86875 -6.401437
19.226948 -40.50333 -3.6764324
19.388613 -40.00065 -3.0698762
19.491377 -40.303772 -1.3244593
19.299782 -40.455 3.1270802
19.163446 -39.510532 3.9549308
19.324312 -38.45667 -6.7609878
19.524416 -38.59464 4.0678115
19.365587 -37.82173 3.7824945
19.775187 -37.14407 3.7657404
19.568888 -35.54546 -6.3770227
20.135689 -35.586624 3.469667
20.172762 -33.88259 -7.8381996
19.692621 -33.96823 -7.31893
19.464863 -34.30785 -6.353322
19.789524 -34.600124 4.105237
19.489943 -33.760582 5.1957994
20.155231 -33.326866 -8.183222
19.636955 -33.411373 -7.2550592
19.305233 -33.567356 5.408121
19.287132 -33.036434 5.7672887
19.46631 -32.91928 -6.984007
19.47276 -32.646725 5.9254627
20.394176 -31.603172 -8.200697
19.561451 -31.522894 -7.003138
19.952557 -31.791458 -0.08157539
19.672585 -31.768568 0.4725659
19.764668 -30.812563 -6.1784725
19.459547 -30.71141 -5.430225
19.664764 -30.670055 -4.469525
19.580692 -31.25557 -1.8523971
19.623085 -30.93092 1.4174147
19.411882 -30.52106 5.417324
19.826424 -30.922031 5.8094087
20.35495 -29.162525 -8.318859
20.304893 -29.949503 -6.603607
20.337233 -29.954292 -5.372061
20.220793 -30.218767 -3.8934534
20.164125 -30.42177 -3.0813458
19.325043 -29.78116 2.095307
19.311972 -29.519234 2.4347723
[...]
POINT_DATA 4349
SCALARS features_00 float 1
LOOKUP_TABLE default
0.9039624 0.90231097 0.8904406 0.93808323 0.929975 0.9028782 0.8520774 0.90422654 0.9181464 0.8162241 0.8603736 0.87261426 0.68073547 0.6586745 0.5903764 0.6855493 0.67609644 0.6122942 0.6584821 0.6505772 0.59114707 0.61908066 0.56954366 0.8127512 0.8350798 0.86511886 0.8452067 0.79574305 0.86113083 0.74508864 0.7996437 0.8668096 0.82728016 0.68442345 0.7478161 0.7944623 0.8231743 0.74581575 0.7014352 0.72971064 0.7333529 0.6296583 0.571825 0.75315714 0.7930846 0.7979926 0.7232479 0.6890669 0.62955225 0.54190516 0.4468989 0.7222134 0.76987505 0.7814337 0.7043996 0.6923386 0.6540412 0.55692476 0.39185485 0.68572795 0.72580963 0.7586081 0.6646608 0.6768348 0.45887512 0.2429343 0.6184294 0.64029574 0.44329986 0.26411486 0.60594326 0.5849689 0.49634656 0.36704704 0.22082663 0.14976591 0.5248931 0.19304243 0.17355502 0.68684506 0.71769404 0.5437464 0.74042153 0.8003287 0.7759332 0.7077488 0.77250457 0.7003007 0.64710987 0.72785896 0.6431055 0.69565403 0.62825537 0.66276014 0.6887923 0.7028831 0.69364357 0.6836674 0.6933594 0.6976131 0.720549 0.7823895 0.7735523 0.7373513 0.63400424 0.5902073 0.4528305 0.5090567 0.59252495 0.7320576 0.7957381 0.794556 0.775324 0.75933886 0.48122507 0.3954578 0.32863677 0.40708858 0.65514034 0.68266094 0.7875025 0.7720654 0.7214385 0.25673828 0.14283942 0.4966921 0.6011427 0.7472694 0.74650145 0.6488136 0.21136446 -0.026189439 0.22955418 0.4914646 0.46863732 0.6858212 0.58836335 0.17828588 0.094419196 0.032831974 -0.067215905 0.010482632 0.53668857 0.5204681 0.079974726 -0.027236152 -0.14312615 0.41963783 0.1848239 0.17350571 0.13962944 -0.035279565 0.06110856 0.42633048 0.23416673 0.20421024 0.1779944 0.5545635 0.5681735 0.5218652 0.32685992 0.28851342 0.29314977 0.2795405 0.6179301 0.33001125 0.3357082 0.32402882 0.58126354 0.5587139 0.5978739 0.5183517 0.64316577 0.6586071 0.55188715 0.68150795 0.69779736 0.69506085 0.6566211 0.6499176 0.6890587 0.71056825 0.6624918 0.7536092 0.6835147 0.63140404 0.4413439 0.51547384 0.647212 0.72285223 0.7185855 0.786906 0.59976935 0.51544404 0.40920362 0.76266205 0.7539022 0.8393574 0.14759372 0.3663431 0.7533026 0.78226817 0.5474672 0.62136954 0.20887345 0.36620754 0.16039863 0.118098915 0.23548236 0.2744571 0.36347795 0.23421437 0.2263959 0.28953284 0.43451303 0.3008179 0.329523 0.08971134 0.0051272726 0.5286895 0.282363 0.34039178 0.35896075 0.332699 0.3336496 0.32502273 0.21569152 0.08536338 0.02667829 0.5466979 0.3198421 0.29148644 0.3085382 0.33262777 0.26337102 0.49432468 0.51994574 0.6232139 0.5546053 0.6961265 0.7012824 0.60189784 0.8603372 0.88348216 0.7541146 0.80881006 0.852239 0.6268279 0.60746837 0.5527915 0.6188189 0.6058352 0.5585524 0.43233514 0.5848427 0.57383657 0.48348397 0.57262725 0.63281864 0.62222946 0.5302943 0.5960529 0.6126179 0.6547658 0.52696675 0.6331787 0.6938422 0.740682 0.7165766 0.7726152 0.7565229 0.64972603 0.32982925 0.38733715 0.42147434 0.4461917 0.5928724 0.632962 0.7412677 0.7597358 0.7297914 0.8350258 0.81180644 0.52430236 0.37705937 0.25915897 0.6183606 0.69627416 0.7802149 0.5424316 0.4984572 0.26440975 -0.08595534 -0.014743239 0.070875995 0.09473708 0.0923053 0.20466262 0.3267377 0.0984644 0.15891477 0.3485078 0.40953267 0.22109824 0.4992814 0.089251086 0.2741368 -0.07527369 -0.042184904 0.27954522 0.27723828 0.26527333 0.20125562 0.17160797 0.51137936 0.54749477 0.3172124 0.14743179 0.14681327 0.2038111 0.21771234 0.45976347 0.53525805 0.5004788 0.49429858 0.5219483 0.5339919 0.5246769 0.5852907 0.60375303 0.6143235 0.58077574 0.51090145 0.6255709 0.6341938 0.60490364 0.7035817 0.820981 0.8658184 0.8507781 0.6510153 0.7726266 0.8485879 0.8912054 0.8825499 0.6170839 0.7224279 0.78485024 0.8474858 0.8677211 0.49022222 0.48880965 0.46834964 0.53645796 0.66239566 0.71174884 0.7701407 0.6284808 0.6093069 0.5279856 0.36766368 0.45455796 0.460336 0.4273799 0.47997016 0.55942726 0.61974835 0.6419733 0.63480306 0.60773927 0.53238124 0.42051774 0.33961198 0.43631688 0.42041558 0.6293795 0.61842704 0.387517 0.2722428 0.58587 0.540067 0.23732907 0.48153573 0.42656356 0.42482364 0.47514743 0.35368013 0.44203568 0.5021026 0.56126976 0.6879289 0.64295316 0.19206095 0.2959044 0.26149052 0.28319943 0.19589266 0.55157125 0.61407787 0.62216085 0.5297455 0.6706082 0.58831954 0.5187748 0.11139237 0.6269947 0.71406615 0.6071515 0.65468454 0.24959768 0.4574138 0.46335286 0.4708792 0.79466474 0.47125703 0.690873 0.7593962 0.7864039 0.8000447 0.018023867 -0.008878637 0.16821133 0.69615585 0.74802935 0.78248274 0.16819674 0.10827357 0.25299484 0.29119253 0.64051944 0.6924672 0.27085257 0.23097959 0.120968565 0.05116021 0.36222214 0.39300036 0.39674845 0.2812608 0.22055282 0.4554069 0.46338364 0.4689852 0.36490357 0.053791765 -0.0060403645 -0.12208587 0.5352983 0.5241146 0.41269237 0.13166979 0.047542214 0.18071146 0.13887866 0.12769572 0.5199988 0.47548586 0.24589862 0.1825455 0.17492372 0.17209367 0.45460254 0.43483216 0.48522428 0.5204092 0.41769913 0.5235119 0.3366456 0.16661307 0.5370258 0.577456 0.42426175 0.5374012 0.6087518 0.63107264 0.59200585 0.51335186 0.5979668 0.61361974 0.5746165 0.75598806 0.74260366 0.34225214 0.6160714 0.7605558 0.8019608 0.81268525 0.25170776 0.827484 0.458361 0.42701507 0.4355948 0.37076843 0.8178983 0.46063903 0.48538148 0.49377036 0.73358494 0.75231206 0.63341844 0.62018484 0.5947188 0.46703583 0.32728744 0.25921065 0.43145868 0.4642467 0.41219693 0.35396665 0.33967525 0.4675964 0.6152617 0.6528625 0.26190266 0.40274626 0.41141716 0.3640731 0.25508612 0.25508356 0.64457995 0.651237 0.25975555 0.23239622 0.33126786 0.38154477 0.3015878 0.59991574 0.5132397 0.502859 0.24422324 0.26466662 0.20517397 0.25111872 0.21820396 0.39329812 0.2391818 0.17495893 0.1606062 0.12746489 -0.020643517 0.41190013 0.24598491 0.44442326 0.44053185 0.29263565 0.62355936 0.23944983 0.121620014 -0.07212154 0.42421296 0.4396183 0.41870284 0.45000616 0.5417869 0.45737582 -0.173755 0.44893363 0.4563819 0.4213984 0.43752378 0.448995 0.41704834 0.7748021 0.46264982 0.47670293 0.78009856 0.8066555 0.80113965 0.7968426 0.4614439 0.47866267 0.49887994 0.58537596 0.7001902 0.8120912 0.8077322 0.17431627 0.15979224 0.013725903 -0.002592709 0.45052618 0.53066385 0.7719926 0.79067594 0.19527087 0.21281451 0.18832792 0.46459484 0.56041557 0.6644306 0.71398467 0.28533235 0.25230008 0.29591945 0.39812326 0.5926815 0.3701176 0.37998322 0.39940292 0.50934625 0.44929922 0.4546455 0.3221669 0.53200084 -0.05855666 -0.1337797 0.098520085 0.518828 0.3291786 0.39037898 0.43263334 0.4594643 0.44280452 -0.01503706 0.20351684 0.39724565 0.34711877 0.3894672 0.24405184 0.14837793 0.07299293 0.39544553 0.44781196 0.4140287 0.17708829 0.39963365 0.43525293 0.45103577 0.5519316 0.37960014 0.29446274 0.24962153 0.56016314 0.57425326 0.54670346 0.3834317 0.11345843 0.17942548 0.48487374 0.66839117 0.23174492 0.72428817 0.73985946 0.250422 0.15750569 0.051444285 0.73013616 0.3641355 0.29253912 0.7078644 0.14401026 0.07930393 0.1021063 0.5940466 0.6304458 0.6118042 0.54898375 0.1646916 0.14196101 0.1434347 0.5471598 0.576141 0.6406195 0.6438901 0.1775333 0.15061562 0.16102988 0.6305529 0.15053397 0.134402 0.21449964 0.284612 0.114619754 0.5770017 0.08491399 0.093702756 0.26488367 0.3625412 0.3757755 0.3262035 0.14916745 0.46931413 -0.01815839 0.023879446 0.29089683 0.34827244 0.403791 0.40614092 0.21933365 0.31261316 0.3612063 0.1431574 0.042044923 0.09334983 0.12946731 -0.013702787 0.13256508 0.05320341 0.24550179 0.36772513 0.3762305 0.36927772 0.21652645 0.09412352 0.23302916 0.052526403 0.09212693 0.17003766 0.39213392 0.35973805 0.17449147 0.049443267 0.3869861 0.3291692 0.07492957 0.0484941 0.18763098 0.33026475 0.72468734 0.7009008 0.01643683 0.062675804 0.036215678 0.5726357 0.7523494 0.76256144 0.51134706 0.5709102 0.783901 0.160382 -0.51393247 0.3683339 0.49350086 0.2938333 0.78611934 0.31584036 0.2735701 0.18064561 -0.21581256 0.059734188 0.6676105 0.731338 0.32312226 0.01028296 0.11518584 0.19028153 0.3603715 0.38554078 0.53320915 0.27536765 0.18863939 0.16548626 0.18747234 0.20732802 0.24041456 0.5002592 0.5014409 -0.17974496 0.33812985 0.48435795 -0.18628335 -0.1880655 -0.122201025 0.29285815 0.50591135 0.45388356 0.31578717 0.21473542 0.027510889 -0.33466983 0.28889728 0.27694798 0.2596482 0.20789705 0.12902093 0.35621583 0.53364456 0.3901354 0.1511783 0.3114427 0.4786983 0.53431433 0.21393731 0.2399007 0.2195023 0.17167148 0.53672683 0.5480842 0.47339588 0.3480747 0.31042635 0.40658844 0.47623998 0.540516 0.38840967 0.27257118 0.25297076 0.51747495 0.49839103 0.4683334 0.39627606 0.31821403 0.42348197 0.44620386 0.45422903 0.39481932 0.32381982 0.30379194 0.31030884 0.45274335 0.40818995 0.114026785 0.24702507 0.2959973 0.5642007 0.6653068 0.7070298 0.71574587 0.78720224 0.7826208 0.8253971 0.8495978 0.13443163 0.156956 0.17137349 0.19029933 0.3291617 0.34566337 0.075979285 0.105178684 0.108408794 0.32948348 0.32553136 -0.011070106 0.053658318 0.5219376 0.08924417 0.5337646 0.17462614 0.138782 0.07448304 0.117927685 0.49618757 0.16294943 0.11174461 -0.024861742 0.47493115 0.59030277 0.01369068 0.3784965 0.5817744 0.5839902 -0.015630499 0.0005992949 0.54359204 0.12160137 0.01233013 0.51768816 0.043949205 -0.049685314 0.46116012 -0.038238123 0.04550972 0.23403992 0.2817641 0.28464678 -0.20867965 0.22497788 0.32811868 0.354436 0.35409367 0.022737851 0.17372137 0.26605493 -0.051322795 0.0649078 -0.015873827 0.17390917 0.2378842 0.27900186 0.10802504 -0.13299495 -0.14600576 -0.0027113035 0.17619124 0.3317866 0.3241982 0.056658823 -0.06343715 -0.2949993 0.34760398 0.33199626 -0.294889 -0.44600675 0.3081522 -0.07438406 -0.23084144 -0.31932047 -0.43761826 0.23405072 0.12163532 0.51747054 0.6102895 0.6690712 -0.08877686 0.26524362 0.69306934 0.7198057 0.27159497 0.7465737 0.28841603 0.29534358 0.23455465 0.030885046 -0.73600197 -0.40592194 -0.05251234 -0.21137758 -0.04340163 0.7746894 0.5385272 0.4594808 0.36608267 0.3130564 -0.4311731 -0.240334 -0.14783911 0.6790627 0.60190856 0.594432 0.5361784 0.40397593 0.315196 0.5499064 0.61820316 0.64619946 0.6648558 0.6485977 0.56874156 0.30455962 0.26155636 -0.38741353 -0.022529684 0.45258427 0.5070927 0.66589093 0.72733605 0.71096516 0.6067842 -0.32826734 -0.35488158 0.697067 0.733596 0.71813285 0.6497258 0.49727112 0.35127017 0.015397385 -0.27683276 -0.10017081 0.419476 0.70309085 0.68906087 0.62319 0.0830628 0.015874367 -0.029741466 0.12857904 0.11019321 0.41011918 0.47538024 0.100362755 0.42746636 0.5375289 0.5035596 0.13872254 0.19855198 0.517993 0.22387604 0.32133383 0.28349698 0.48558438 0.46569335 0.15259051 0.095498204 0.52593696 0.5012211 0.2439206 0.261592 0.21600024 0.2902774 0.32431555 0.34757322 0.3892428 0.35479867 0.41402912 0.39899492 0.1826284 -0.007271897 0.0958671 0.32168874 0.37071633 0.023083031 0.31168813 0.40830448 0.45393696 0.22078672 0.31733277 0.3353231 0.50643736 0.3959025 0.4366786 0.6626235 0.71050745 0.64646995 0.8079026 0.83285975 0.8787979 0.8931786 0.88777184 0.8723335 0.9155849 0.9489603 0.9455372 0.91475743 0.13321336 0.22628169 0.4298607 0.4759158 0.47731566 0.15231557 0.42950872 0.4591264 0.2119941 0.23617074 0.2424002 0.19201256 0.31721744 0.1310852 0.1858344 0.24986264 0.28745076 0.29223347 0.40910265 0.56294835 0.38813922 0.21268868 0.06793264 0.21085578 0.2697944 0.32362163 0.29662415 -0.025814094 0.6129458 0.034517795 -0.029059462 0.10539574 -0.16065058 0.06092144 0.043086726 0.2556188 0.059969097 -0.103918634 0.35895795 -0.22056442 0.33906308 -0.15520221 0.34513366 0.49512476 0.25455818 0.47261754 0.41856325 0.104985476 0.20680514 0.22391193 0.47661608 0.43058628 -0.11314316 0.32941544 0.3710651 -0.07948813 0.26797843 -0.06382835 0.20360672 -0.28016317 -0.042669475 -0.12060626 -0.10188038 0.04050125 0.15612459 0.20079093 -0.31085873 -0.02527031 0.012072261 -0.10269481 0.20627168 0.2371074 0.2775232 0.23653527 -0.34686834 -0.49820477 0.29861853 0.31401116 0.3170542 0.2286126 0.10916939 -0.302657 -0.32072717 -0.40749127 0.31845686 0.31058115 0.110715374 -0.01384156 0.23288052 0.2520807 0.13528351 0.358975 0.4899289 0.34675083 0.32171386 -0.19704977 0.6128399 0.7093513 0.36970353 0.34669757 0.2845361 0.7313719 0.39864781 0.35652608 0.30747122 0.29090646 -0.76885647 -0.28821993 -0.2529922 0.74900436 0.7447847 0.5196475 0.46860182 0.39868617 0.2856543 0.013957299 0.24928898 -0.7117435 -0.7064221 0.7029559 0.558181 0.5743613 0.34769216 0.2927948 0.5887672 0.6103294 0.31809154 0.61337996 0.6475032 0.47708577 0.3186255 0.16821042 0.09541313 0.0755686 0.62340605 0.6495693 0.46515167 0.091513634 -0.034738943 0.16109699 0.11883752 -0.2982033 0.3166614 0.67654854 0.67995286 0.65308917 0.61346924 0.4535895 -0.13862276 -0.5377631 0.42530328 0.62529373 0.56065065 -0.029474866 0.06429404 0.40182447 0.44830936 0.08141551 0.18158765 0.47067523 0.14069682 0.29741982 0.28296745 0.4094786 0.4390272 0.44181654 0.45251366 0.21403974 0.13345478 0.11413762 0.19827145 0.41414696 0.40334797 0.36403936 0.39354622 0.32801527 0.40122968 0.4399261 0.24957737 0.18946029 0.099525124 0.42657527 0.49168548 0.22460724 0.58138853 0.6094092 0.7677665 0.75441456 0.81559587 0.8695824 0.8741267 0.895829 0.9123734 0.9000095 0.895893 0.9065718 0.6351817 0.695364 0.7248975 0.74229634 0.57783866 0.6514298 0.69971156 0.72823286 0.15605195 0.3540636 0.35280743 0.55616874 0.09702789 0.08633907 0.12700528 0.21033356 0.24886277 0.49392152 0.49081498 0.100624405 0.052222535 0.09182826 0.095229834 0.4810798 0.26126462 0.24344261 0.22281435 0.15990132 0.45966583 0.4483533 0.70885813 0.5820903 0.34919792 0.16928853 0.21916214 0.20620413 0.11779185 0.40920794 0.3529268 0.8248276 0.67586654 0.547835 0.32779253 0.15831026 0.80044556 0.7633622 0.66935766 0.49595883 0.2404553 0.67280185 0.15720055 0.46630818 0.45878536 0.19662105 0.37216726 0.2607388 0.23367985 -0.1148687 0.10518423 0.159964 0.20149969 -0.2806679 0.18559057 -0.16791359 -0.14073667 -0.06580987 0.03347669 0.21193378 -0.06929786 0.06981853 0.15368992 0.2648414 0.31275117 0.2605027 0.19567308 0.34653848 0.301151 0.3104845 0.37086022 0.30038816 0.28658894 0.34978712 0.17283177 0.23006988 0.39119095 0.62683606 0.6726074 0.38648245 0.3473869 0.41028374 0.6895182 0.4242031 0.42342633 0.36420292 0.28534466 0.69314754 0.42990834 -0.018267244 0.6732166 0.49356246 0.3766574 0.48605382 0.56171685 0.5800358 -0.11580781 0.11195108 0.10665837 0.5939466 0.6121931 -0.11834776 0.2400727 0.2717082 0.6462193 0.63291514 0.32295853 0.04803589 -0.09503168 -0.15974654 0.03903084 0.32481375 0.3355933 0.6350608 0.5705086 0.45131695 0.08178435 -0.042191952 -0.04671411 0.37369055 0.35867098 0.43030506 0.11367226 0.13791683 0.30398446 0.03172466 0.31206918 0.22483724 0.21953005 -0.052099302 0.08328012 0.0961968 0.09255045 0.1295806 0.39965978 0.3626359 0.3561194 0.13392666 0.13996904 0.3369574 0.42574656 0.45652872 0.42757553 0.27636117 0.25795412 0.41263995 0.2777099 0.22978087 0.15939304 0.081321426 0.45634294 0.28421244 0.48751196 0.5894291 0.6523874 0.6375545 0.70521027 0.79546565 0.8134493 0.8321426 0.8132963 0.82452905 0.86446583 0.8480017 0.7046294 0.3887491 0.60820633 0.6816749 0.72793126 0.73795676 0.7078155 0.6753773 0.36223936 0.27106583 0.55648416 0.12472999 0.48211282 0.2771553 0.25252324 0.22411096 0.47444755 0.4508151 0.27592546 0.27260166 0.03767096 0.4365513 0.8399178 0.77308047 0.63838893 0.5224788 0.20968084 0.37468415 0.8740119 0.86726725 0.29230192 0.82033896 0.7022002 0.56961584 0.54128116 0.48956984 0.4787875 0.42268965 0.21342301 0.3518221 0.19476658 0.18633148 -0.1459992 0.1685909 0.1820749 0.0749976 -0.10907573 -0.022194792 -0.3768091 0.28235516 0.21065715 0.12931935 0.24279256 0.34101513 0.33259606 0.29247075 0.29121035 0.23925436 0.3458804 0.19675392 0.39985323 0.19654644 0.25700903 0.24436417 0.43297118 0.1786668 0.14030907 0.18584257 0.29445714 0.26089275 0.17546423 0.3824691 0.36423397 0.343593 0.25601718 0.26649207 0.17506626 0.4003651 0.54819286 0.63639283 0.37300438 0.18430653 0.14721268 0.35715184 0.53334934 0.6242603 0.30783236 0.3720687 0.45271623 0.6028369 0.3967541 0.22063094 0.19153655 0.52189016 0.15329342 0.51353514 0.13793947 0.57612777 0.24679545 0.5394223 0.47549576 0.33922958 0.08797209 -0.012561709 0.09354121 0.0876726 0.325944 0.14687258 0.20522434 0.23421088 0.2986094 0.21341333 0.2068086 0.107071295 0.27475008 -0.14530113 0.09594442 0.2708978 0.27903622 0.29980132 0.30160433 0.0440365 0.103051335 0.39552784 0.34334877 0.15607655 0.28980243 0.33674833 0.18828253 0.24379098 0.24801257 0.17522037 0.44502252 0.41519517 0.27214703 0.3946858 0.2879794 0.2954072 0.4648177 0.290874 0.1031848 0.48600954 0.3871901 0.52221656 0.5388948 0.6381382 0.68860716 0.74413943 0.7616998 0.74959314 0.6739873 0.70819426 0.63824046 0.62271637 0.50582147 0.55510014 0.6512191 0.6999428 0.70501053 0.5742025 0.58063126 0.5233956 0.5877483 0.40815324 0.45710897 0.3851089 0.37188628 0.24378051 0.40303272 0.29673162 0.28236797 0.25623217 0.4262031 0.3008781 0.40777716 0.3824556 0.770751 0.7357718 0.66630125 0.27542657 0.30971983 0.8303178 0.7923257 0.25669852 0.7979823 0.13719428 0.6917527 0.302368 0.5422646 0.346909 0.49194002 0.37173402 0.4692791 0.29809263 -0.033989795 0.19473118 0.024030931 -0.23649162 -0.32749677 0.118773565 0.25682974 0.3392278 0.3950534 0.14610657 -0.050395593 0.3846577 0.38579908 0.32811898 0.33507234 0.33557433 0.29133958 0.41765106 0.3579417 0.2911537 0.3505473 0.42642915 0.2931929 0.073064476 0.34092164 0.2835611 0.2550357 0.17299017 0.07767049 0.16835514 0.29120916 -0.107661925 0.18995608 0.2600001 -0.19382668 0.15607652 0.22995754 0.30457553 0.14832173 0.18309586 0.16355404 0.18737975 0.14128114 0.16958135 0.18130721 0.45852005 0.3504723 -0.0034387037 0.12831534 0.51895833 0.19199438 0.16830865 0.12939401 0.036311448 0.17216296 0.035623252 -0.26705626 -0.42136294 0.23543845 0.22463968 0.13763067 0.10511376 0.173329 0.111331604 -0.4518162 0.111354634 0.23885418 0.17392677 0.2273421 0.28484073 0.33169103 0.30925012 0.2937141 0.063753486 0.16631614 0.24137218 0.33124036 0.36643332 0.39281106 0.15066832 0.29903167 0.27988932 0.24543643 0.36101562 0.32939193 0.35737598 0.23070234 0.3302531 0.2638963 0.30548143 0.43821967 0.46651074 0.5201071 0.48649034 0.48808688 0.6833768 0.68938076 0.584178 0.7081798 0.6905782 0.6010922 0.6830429 0.6996409 0.6358429 0.5560441 0.326775 0.5962086 0.6578319 0.6599084 0.61696213 0.45113736 0.50929576 0.31391025 0.33630407 0.3131654 0.2894354 0.3064273 0.3296684 0.31450745 0.340569 0.32143176 0.3660034 0.71654123 0.6142454 0.5769727 0.3236579 0.284606 0.71277 0.6351013 0.19373788 0.7240529 0.6770009 0.682101 0.6407012 0.37093955 0.60863453 0.43231237 0.5522285 0.4468014 0.4471919 0.44263852 0.35677755 0.009854242 0.17529278 0.26051816 -0.37333268 0.037406735 0.069106944 -0.08876078 -0.45334762 0.38171625 0.4314562 0.4638811 0.16511193 0.005246776 -0.13054673 -0.26669034 0.44985038 0.05593727 0.24537212 0.15066908 0.6682629 0.16564003 0.13214423 0.6633267 0.65905666 0.6520498 0.4985424 0.39207417 0.47689492 0.59556675 0.51102865 0.48861182 0.45741993 0.2509465 0.47873157 0.48849404 0.49010384 0.46751368 0.44263428 0.08287062 -0.37679806 0.507409 0.48100892 0.32531667 0.31907016 -0.0070722178 0.049228884 0.28301167 -0.430257 0.20787908 0.27763885 0.2596616 0.04281173 0.28318116 0.29688317 0.06925533 0.32591802 0.12607707 0.1396741 0.33772415 0.010258123 -0.08012366 0.21893142 -0.0074620843 0.032453932 0.2978602 -0.42490706 0.41087985 0.37034014 0.27553588 -0.096147954 -0.50748867 -0.20866272 0.03243822 0.45208353 0.41113883 0.3320387 0.2568165 0.13178547 -0.006161928 0.094778925 0.10697618 0.37610692 0.32164437 0.15285316 0.15345591 0.29643464 0.42196232 0.4171383 0.2639776 0.30783457 0.2967404 0.1985511 0.20858985 0.14760104 0.22077486 0.26128262 0.034191098 0.24954514 0.30637234 0.35453445 0.3920105 0.3959602 0.4252286 0.01497744 -0.049248636 0.44762236 0.7154031 0.68490565 0.63653696 0.68828714 0.71171343 0.5477173 0.6113019 0.4177134 0.33355376 0.2628325 0.3739144 0.35103643 0.26427713 0.2643874 0.38632137 0.33237544 0.610505 0.4752674 0