# vtk DataFile Version 2.0
Really cool data
ASCII
DATASET POLYDATA
POINTS 4333 float
12.177265 -34.014412 -32.165897
12.158782 -34.24929 -31.612423
12.049974 -34.002087 -30.867847
12.187807 -33.49352 -32.718735
11.893083 -33.337658 -32.23958
11.75602 -33.377464 -31.591558
11.912623 -33.186764 -30.757984
12.383669 -33.514946 -30.030153
12.161119 -32.54248 -32.8518
11.871031 -32.611435 -32.231934
11.736243 -32.55609 -31.514702
11.91282 -32.736763 -30.639742
12.287562 -32.55192 -30.001987
12.15489 -31.992037 -32.404255
12.073842 -31.868677 -31.542849
12.296182 -31.95442 -30.69113
12.480284 -28.847378 -23.886778
12.193562 -21.891048 -24.057325
12.187592 -21.97931 -23.495903
12.393524 -22.019835 -22.72336
12.087339 -21.325542 -24.15769
11.908996 -21.296612 -23.51743
12.058125 -21.284853 -22.77245
12.299397 -21.1066 -22.20424
12.07689 -20.695568 -24.0763
11.911452 -20.660555 -23.457361
12.076376 -20.581968 -22.743307
12.369524 -20.502312 -22.104057
12.268829 -20.217144 -23.98031
12.237387 -20.10286 -23.592463
12.2731495 -19.912804 -22.763975
12.429735 -20.097979 -22.033133
13.422978 -35.84837 -28.775557
13.084451 -34.83286 -32.416664
12.943879 -34.94503 -31.49705
13.32456 -35.591957 -28.510006
13.279656 -34.95381 -27.987839
13.070463 -34.55452 -32.721703
12.823719 -34.517544 -32.525227
12.445448 -34.618965 -31.183235
12.438941 -34.37305 -30.477919
12.829274 -34.3147 -29.29574
13.098744 -34.45084 -28.331636
13.267703 -34.307716 -27.509104
13.14218 -33.08273 -33.897926
12.627639 -33.594044 -33.128544
12.583342 -33.289597 -29.304976
13.072096 -32.532944 -33.878788
12.732073 -32.15712 -33.48505
13.195578 -32.176537 -28.426888
13.432927 -32.544624 -27.337801
13.410855 -32.095917 -26.234287
13.132819 -31.929825 -33.809948
12.836304 -31.614868 -33.334473
12.526593 -31.429573 -32.338356
12.436457 -31.511732 -31.403996
12.695303 -31.516623 -30.802069
13.140154 -32.14041 -28.887228
13.398755 -31.686678 -26.545645
13.105692 -31.06592 -33.290165
12.850699 -30.982454 -32.46055
13.033758 -30.833805 -31.71392
13.085081 -31.280567 -30.111937
13.403682 -30.674107 -26.315674
13.28166 -30.531239 -25.800367
12.707079 -30.19121 -24.070406
13.178567 -30.35628 -23.367056
13.031209 -29.847862 -23.187527
13.26729 -29.40451 -25.722105
12.90922 -29.067825 -25.376839
12.606837 -29.290403 -24.689283
12.683616 -29.539974 -23.59975
12.9924345 -29.43299 -22.90865
12.788393 -28.538822 -25.122051
12.593972 -28.492525 -24.389072
12.610003 -28.679895 -23.80178
13.031958 -28.531807 -22.710798
13.042158 -27.90379 -25.345821
12.791814 -27.67806 -24.373482
12.793089 -27.368303 -23.341034
12.82316 -27.50069 -22.690569
13.007765 -27.684958 -22.18342
13.294256 -27.024588 -25.388683
12.913545 -26.823503 -24.292057
12.75557 -27.044518 -23.647953
13.008287 -26.696886 -22.594498
13.246699 -26.441555 -22.194778
13.245038 -25.511284 -24.37617
13.188659 -25.659021 -23.460455
12.988375 -22.966488 -24.180967
12.975983 -23.083252 -23.543678
13.219883 -22.462246 -24.802952
12.569367 -22.114832 -24.272352
12.543488 -22.60198 -23.590975
12.596463 -22.395393 -22.587698
12.806787 -22.262833 -22.253088
12.727425 -21.474863 -24.703293
12.427314 -21.325815 -24.544647
12.705842 -21.523054 -21.941175
12.7717 -20.694887 -24.635326
12.376388 -20.647484 -24.383121
12.701753 -20.384748 -21.624372
13.101637 -20.52909 -21.203548
12.729127 -20.11923 -24.200985
12.697486 -19.65604 -23.49511
12.5530815 -19.582783 -22.551142
12.851481 -19.548763 -21.72688
13.139135 -19.696156 -21.254595
13.031309 -19.187677 -23.001822
13.028574 -19.059568 -22.354073
13.160861 -19.058277 -21.793877
14.077051 -36.70497 -28.3904
14.355149 -36.98062 -24.88472
14.330983 -36.92414 -23.486837
14.225964 -36.81705 -21.598276
13.682665 -35.926476 -29.041828
13.77583 -36.33448 -28.260368
13.749805 -36.309406 -27.501308
13.815679 -36.15484 -26.785065
14.05498 -36.322216 -24.609009
13.919831 -36.41336 -23.24513
13.82824 -36.31528 -22.635458
13.879193 -36.154526 -21.436232
14.172337 -36.29087 -20.217855
14.304194 -36.128 -19.38946
14.418818 -36.4055 -18.890894
13.278706 -34.706135 -32.74689
13.680611 -34.99087 -32.440487
13.621803 -35.192326 -31.606672
13.637985 -35.20534 -30.463068
13.4265585 -35.647305 -28.957266
13.688628 -35.27439 -26.729282
13.930723 -35.045887 -25.503193
14.109771 -35.159115 -24.753492
13.698667 -35.697765 -23.481842
13.671534 -35.472656 -22.391163
13.639086 -35.48611 -21.57201
13.918064 -35.758083 -20.80968
14.3662195 -35.6711 -19.193295
13.528132 -34.272648 -33.175766
13.872516 -34.27871 -26.555386
13.890565 -34.207867 -25.079306
13.886745 -34.404243 -24.160666
13.840248 -34.54419 -22.501818
14.067055 -34.26632 -21.789228
14.115828 -34.85919 -20.742922
13.697287 -33.24158 -34.079247
13.645361 -32.931843 -25.630348
13.861119 -33.70154 -22.602606
14.101054 -33.17563 -22.12718
13.813005 -32.571915 -34.323513
13.835285 -32.105698 -25.203852
13.87988 -32.64049 -24.90484
14.135076 -32.695503 -23.343857
14.193345 -32.364826 -23.055567
13.572705 -31.854286 -34.05679
13.857271 -31.709833 -28.052925
13.536294 -31.393688 -25.131115
13.79442 -31.849846 -24.996162
14.244262 -31.911774 -23.320345
13.61388 -30.642145 -33.266075
13.565677 -30.673914 -30.638933
13.931351 -30.953283 -29.415138
14.0936985 -30.987373 -28.57705
13.807553 -30.78524 -27.216671
13.485041 -30.620773 -25.795801
13.788513 -30.579802 -23.11926
13.819755 -30.310946 -32.969795
13.980645 -29.979368 -32.405773
13.831875 -30.040785 -31.843418
13.873586 -29.397154 -21.934532
13.347342 -28.679338 -25.831942
13.870588 -27.588877 -25.94732
13.498074 -27.554264 -21.62695
13.822845 -27.111336 -21.37821
14.11206 -26.545559 -25.951254
13.613786 -26.32495 -25.453293
13.571121 -26.80683 -21.64649
14.235595 -26.283098 -21.292942
13.722414 -25.747633 -25.325602
13.444661 -26.008583 -22.514101
13.952501 -24.496483 -24.973238
13.725592 -25.073736 -23.19111
14.100955 -24.436876 -22.65405
13.846543 -23.432173 -24.861774
13.516863 -23.732513 -24.39658
13.571341 -23.338928 -22.309689
13.834734 -22.391588 -25.02589
13.37982 -21.609695 -24.946005
14.170465 -21.797064 -20.95234
13.3620205 -20.459276 -24.644396
13.312653 -20.319769 -24.535727
13.716607 -20.41123 -20.831272
13.374703 -19.852594 -24.158747
13.427578 -19.479647 -23.654966
13.639874 -19.620161 -21.0164
13.643887 -19.08239 -23.124718
13.464626 -18.867386 -22.461756
13.516482 -18.934591 -21.741539
13.84133 -19.1876 -21.186434
15.056782 -37.722004 -26.274931
14.951736 -37.814625 -25.459501
15.166571 -38.01551 -24.815872
15.249964 -37.77278 -22.33356
15.141107 -36.779743 -30.139004
14.775131 -36.880585 -29.170855
14.812881 -37.196926 -28.29666
14.547548 -37.20852 -27.536085
14.64274 -37.422512 -26.280426
14.487778 -37.18299 -25.310507
14.450297 -37.167805 -23.557098
14.400449 -37.00916 -22.306093
14.698216 -37.27432 -21.32764
14.8189745 -37.19358 -20.74842
14.748863 -36.980072 -19.259386
14.863034 -36.95317 -18.689615
15.0921 -36.864178 -18.169748
14.832679 -35.892307 -30.966297
14.883186 -36.603924 -29.756786
14.440584 -36.634132 -20.36137
14.522128 -36.676224 -19.321611
14.637458 -36.473057 -18.455555
14.900675 -36.306835 -17.986084
14.574816 -35.144108 -32.10902
14.663651 -35.381283 -18.219181
15.241084 -35.84937 -17.415987
14.1693735 -34.270016 -33.2695
14.495678 -34.857227 -19.630835
14.298085 -33.30707 -34.163025
14.43831 -33.811577 -21.101618
15.410541 -33.23199 -19.995928
15.3472395 -33.10372 -15.530222
14.481689 -32.475815 -34.367825
14.725707 -32.6353 -21.733576
14.839159 -32.73807 -21.149786
15.333331 -32.493835 -16.275541
15.202708 -32.42783 -15.474435
15.310723 -32.36704 -14.785475
14.26625 -31.806255 -34.24405
14.488171 -32.065296 -22.90138
15.288417 -31.410418 -16.078749
15.18309 -31.27 -15.4221735
15.237394 -31.427298 -14.754751
14.790295 -30.78998 -33.904278
14.456331 -30.381735 -33.41565
14.436082 -30.717701 -27.443949
15.186435 -30.136662 -19.926823
15.4054575 -30.757885 -15.960194
15.319769 -30.692062 -15.371428
15.342887 -30.889378 -14.757196
14.928944 -29.86276 -33.219616
14.46362 -29.561619 -32.447906
14.823364 -29.522406 -30.31059
14.715078 -30.105728 -29.95571
15.144204 -30.020065 -27.10672
15.220888 -29.202644 -32.86091
15.356508 -28.665815 -32.35598
15.061095 -28.752209 -31.525293
15.04708 -28.949451 -30.934362
15.120727 -28.66628 -26.522032
14.610214 -28.402618 -21.083134
14.466993 -27.408339 -26.40626
14.736724 -27.815401 -20.988829
14.582433 -26.69855 -26.420357
14.794235 -26.465864 -21.001677
15.32193 -24.84566 -36.950294
14.916064 -25.781128 -26.472965
15.361569 -25.458702 -18.737122
15.363639 -24.40649 -37.22947
15.314127 -24.528067 -36.760612
15.425713 -23.999975 -36.15707
15.187276 -24.890461 -25.7967
15.432393 -24.508804 -18.416239
15.398539 -23.730843 -14.041088
15.353965 -23.769232 -37.161945
15.338429 -23.489868 -36.67919
15.412788 -23.425852 -36.043457
14.345378 -23.406214 -25.12323
15.073846 -23.293165 -21.032326
15.349354 -23.454296 -15.073351
15.096697 -23.081877 -14.553774
15.168423 -23.096548 -13.810815
15.46227 -22.748817 -36.958347
15.41655 -22.77663 -36.50816
14.692341 -22.295734 -25.209415
14.611894 -22.338434 -20.69554
15.056469 -22.515434 -15.265335
14.938191 -22.331324 -14.472731
15.132874 -22.47549 -13.619936
15.35063 -22.360767 -13.229834
14.4430685 -21.322025 -24.939865
15.3882265 -21.98696 -16.041561
15.113433 -21.710176 -15.111129
14.998904 -21.739809 -14.490734
15.254406 -21.697239 -13.663139
14.504807 -21.04604 -24.825466
14.181338 -20.291096 -24.57215
15.2772 -21.188484 -14.510033
14.180446 -20.132027 -24.245934
14.469446 -19.702368 -20.775291
14.330583 -19.120916 -23.18359
14.521134 -18.84762 -22.427961
14.250628 -18.911217 -21.640139
15.394354 -15.885301 -29.509577
15.422558 -15.90817 -28.784369
15.461908 -15.026062 -31.901804
15.336384 -15.553176 -30.144196
15.273671 -15.428881 -29.467077
15.387177 -15.5248575 -28.63021
15.37627 -14.181125 -42.21557
15.366461 -14.209832 -41.762436
15.42929 -14.176767 -41.057674
15.355818 -13.993641 -32.515217
15.313088 -14.315519 -31.5134
15.232377 -14.497987 -30.3685
15.252007 -14.550016 -29.489418
[...]
POINT_DATA 4333
SCALARS features_00 float 1
LOOKUP_TABLE default
0.669211 0.64191383 0.5985036 0.6999444 0.7206054 0.7011402 0.61635816 0.47717398 0.68027174 0.69167197 0.6623553 0.5902355 0.4758021 0.629685 0.58358973 0.5085756 0.4514832 0.7576348 0.7484508 0.6957878 0.81276655 0.82919747 0.78051424 0.736715 0.8434217 0.865057 0.82058305 0.7594538 0.8351425 0.85258764 0.82864255 0.7699852 0.30423522 0.5397012 0.51760066 0.2914577 0.25185713 0.5700469 0.58799595 0.5630902 0.48607 0.29594937 0.22052035 0.1770151 0.659062 0.670931 0.34482658 0.6440734 0.6354779 0.17620626 0.08416332 0.11506089 0.60714775 0.5910023 0.5566823 0.5164542 0.44290924 0.24524185 0.13041678 0.5315665 0.5068282 0.44361794 0.2955659 0.1909613 0.24094933 0.3534442 0.25622356 0.3488682 0.3165313 0.35987312 0.41319543 0.4101995 0.37890872 0.38872954 0.43927503 0.45070627 0.40657896 0.3692246 0.41991967 0.41960025 0.41852295 0.40278387 0.3358481 0.4041965 0.4100138 0.3827275 0.35520387 0.36052376 0.35607746 0.5871109 0.5706646 0.5832344 0.7052424 0.6669767 0.63338584 0.59244907 0.73044825 0.77562845 0.6551831 0.7530261 0.8092668 0.7244631 0.67810285 0.78317785 0.819558 0.815423 0.77132684 0.74260795 0.81144917 0.81109905 0.7920069 0.31304738 0.1999322 0.23536587 0.3313239 0.3030397 0.3147387 0.30587274 0.26196477 0.22901097 0.28163728 0.31703678 0.3572219 0.3873129 0.42822212 0.47641033 0.53861415 0.46373338 0.4430477 0.33614257 0.29605156 0.19199386 0.06019271 0.14542627 0.28682742 0.33235747 0.34451813 0.363705 0.41948164 0.5742812 0.046905793 -0.012278283 0.11766398 0.24045403 0.2059369 0.29507864 0.65013504 0.039864138 0.12453656 0.09694759 0.6273625 0.10307205 0.056949403 0.026957892 0.011946365 0.58966494 0.06430161 0.16633931 0.10457319 -0.044655003 0.4513142 0.27301055 0.07106038 -0.028460309 0.12778269 0.22428598 0.12849732 0.38668963 0.32461828 0.3367116 0.29505536 0.3159092 0.28532508 0.349822 0.31429046 0.24938047 0.28702983 0.33861524 0.26687193 0.2573827 0.33223173 0.12841591 0.2610303 0.08386499 0.38620704 0.3624726 0.30197424 0.5182754 0.63862205 0.38762864 0.6733282 0.68782425 0.6360135 0.7071806 0.7466072 0.7280917 0.7756813 0.8052913 0.7941634 0.76340836 0.1866337 0.19352764 0.19668648 0.2070018 0.4124177 0.34202996 0.3043207 0.2687158 0.18346551 0.18307951 0.21506159 0.28159124 0.3227571 0.36425787 0.45999354 0.5162474 0.5525307 0.3574366 0.36193445 0.38126865 0.4494155 0.51766 0.5470685 0.3694766 0.5008693 0.54606354 0.533046 0.32104188 0.6239091 0.15274405 0.019968325 0.5416046 0.60687375 0.06622796 0.059259407 0.5367874 0.55516714 0.56316674 0.57882863 -0.0068425313 0.51891154 0.5360545 0.5559751 0.37494737 0.3383119 0.008231595 0.017617032 0.4766711 0.49535298 0.5221457 0.26084423 0.26734233 0.16886836 0.10659541 -0.17793354 0.2270587 0.19422242 0.21605437 0.19556919 0.03564562 0.163885 0.22732168 0.153863 0.22686908 0.15220591 0.6184834 0.19605638 0.21860178 0.62863266 0.59209234 0.48658565 0.11292441 0.1661552 0.44249153 0.58476615 0.5199735 0.42727172 0.29586434 0.01040441 0.46517932 0.52847505 0.5187943 0.48166132 0.4380146 0.38220704 0.20113891 0.56290853 0.59014976 0.558968 0.5287365 0.47520548 0.50199676 0.57609636 0.59625053 0.56760865 0.4675153 0.54544044 0.5564947 0.5635473 0.6699895 0.7322031 0.7814652 0.78405815 0.31515342 0.31454065 0.2379861 0.30165103 0.33817744 0.32504678 0.4074212 0.39362717 0.36605707 0.3476199 0.32309726 0.34899795 0.37299126 0.34613222 0.4840155 0.4696539 0.35941735 0.4201588 0.41928726 0.44371843 0.4770169 0.5185831 0.50876117 0.5110954 0.49443823 0.41456968 0.3797844 0.28997216 0.23078068 0.27597052 0.19832405 0.18077677 0.22345896 0.3053157 0.38776004 0.4992043 0.48689657 0.5440836 0.5530844 0.42229605 0.4738902 0.55863273 0.5348631 0.517068 0.42530054 0.30193225 0.5208682 0.524197 0.38324142 0.49885625 0.51882225 0.5478087 0.58493316 0.50584054 -0.032749433 -0.076142564 0.40884358 0.55438477 0.5687184 0.56079125 -0.02195397 -0.013404993 0.48241046 0.5653869 0.29972857 0.009156424 -0.009653925 0.46486497 0.4794881 0.50105107 0.2219252 0.22213691 0.06900088 -0.37405086 -0.2644305 -0.0062124413 0.36532068 0.3998896 0.4181254 0.19412738 0.19150448 0.16793923 0.16684133 0.1608603 -0.0033617858 -0.11708526 -0.0877723 -0.06807633 0.09445493 0.071003616 0.14836648 0.057032853 0.08735685 0.019672751 0.52984446 0.34863263 0.25999445 0.035408318 0.16226266 0.01825046 0.15071452 0.15984696 0.124128714 0.64730316 0.6264854 0.5717179 0.46698326 0.31692255 0.13274133 0.13018516 0.19573995 0.19903994 0.26283982 0.6632823 0.6551065 0.41688326 0.22473356 0.19490667 0.03726506 0.14186452 0.18450813 0.12884408 0.29475188 0.43503168 0.3604821 0.29434207 0.626965 0.6087254 0.3621735 0.10856551 0.0011662245 0.04012145 0.35996723 0.4271816 0.4485317 0.39852908 0.5046534 0.4110824 0.35964698 0.117307045 -0.006233521 -0.14594279 0.34323925 0.4330729 0.2888564 0.22913742 0.26453906 0.26894417 0.2615342 0.31265956 0.35980898 0.47692332 0.5465764 0.43218002 0.49744946 0.60937446 0.6205827 0.5858934 0.06374456 0.054617133 0.16241485 0.23289171 0.26504266 0.26806512 0.22768058 0.28536522 0.40333396 0.42523134 0.44676882 0.52558935 0.40750465 0.47709176 0.6068041 0.61087775 0.53205395 0.097780704 0.13291909 0.20215693 0.2439174 0.44773203 0.47650224 0.49541107 0.37191933 0.47534573 0.49898762 0.46165025 0.39468974 0.044845823 0.052850146 0.052804016 0.08805992 0.17888956 0.7413051 0.7228433 0.6647135 0.73310643 0.19067834 0.2704141 0.3629485 0.37603995 0.06585328 0.054235138 0.07967484 0.10162919 0.012077585 0.19737804 0.21001858 0.71801376 0.10221242 0.1019978 0.11034571 0.17010817 0.10655863 0.06337717 0.08260773 0.110184036 0.1416679 0.13309243 0.17066814 0.27211392 0.25380713 0.23148549 0.25661662 0.309588 0.20571077 0.2659081 0.07714625 0.06641127 0.0511949 0.001950711 0.11127723 0.18758008 0.1967969 0.21586621 0.3016291 0.2911805 0.31121564 0.37768087 0.3832032 0.3439572 0.3778017 0.113974825 0.06399134 0.03663578 0.29573995 0.29499432 0.26952437 0.32874644 0.30835748 0.38317966 0.4232929 0.45588124 0.5248271 0.48895255 0.4504668 0.370532 0.2702124 0.33331558 0.36885226 0.39881408 0.33404404 0.34251577 0.40268826 0.5732101 0.6108514 0.59400845 0.55013967 0.53475153 0.41831353 0.4169984 0.48527044 0.51221585 0.54835176 0.5159031 0.4958903 0.62732995 0.62371725 0.6107402 0.5612591 0.5588311 0.56060547 0.5436372 0.50604945 0.63150597 0.5843745 0.5921732 0.58369327 0.5346315 0.4503454 0.4267881 0.32205856 0.17502995 0.26627177 0.28945693 0.5496705 0.56163764 0.536803 0.49580896 0.49111155 0.5466882 0.46280348 0.5074031 0.45752484 0.24411575 0.24849556 0.42270282 0.5956741 0.27154565 0.23466098 0.61159074 0.597169 0.24183899 0.57561135 0.5485391 0.32401815 0.51814586 0.5098262 0.36808506 -0.1366173 0.45704168 0.45415252 0.33534306 0.29018968 -0.043465983 -0.48196572 -0.04825759 0.24146307 0.3379269 0.37114453 0.36344463 -0.24297725 -0.58130217 0.16874912 0.27199814 0.2749678 0.25614995 0.20120859 0.15854102 -0.033954218 0.08229861 0.07061948 0.44721997 0.37289584 0.3733664 0.23115131 0.015991047 -0.042135496 -0.098502584 -0.12704287 -0.22687174 0.053759813 0.12519929 0.5775309 0.5534591 0.07774666 -0.013200052 -0.054643568 -0.09427683 -0.062267944 0.1779529 0.18244117 0.6336689 0.028310925 -0.16139372 -0.03822523 0.17227799 0.60037434 0.06908873 0.20333526 0.19919857 0.5115465 0.13729376 0.23843484 -0.18329236 0.16114314 0.16255035 0.23464015 0.19510597 -0.09315323 0.11531255 0.3228538 0.23015925 0.402938 0.4754423 0.52889967 0.56761 0.47307533 0.24370909 0.20649406 -0.17934483 0.23375756 0.2919344 0.3378701 0.2102343 0.5229358 0.71746635 0.32942438 0.38566345 0.16937134 0.16190112 0.10017536 0.2741551 0.08956517 0.60300994 0.7052504 0.79268193 0.32383186 0.12039382 0.051230595 0.12725759 0.13113055 0.12381561 0.21149471 0.268657 0.14378199 0.31526613 0.56756777 0.7476908 0.8057871 0.8550877 0.15194024 0.10525816 0.13194449 -0.050022416 0.03636456 0.16535991 0.17432363 0.19688699 0.26110384 0.32400987 0.43596557 0.6296394 0.7292625 0.79561967 0.16358006 0.11236235 0.24244659 0.31494603 0.3127946 0.6525786 0.7336136 0.77316725 0.61276686 0.44768766 0.14797613 0.034566566 0.44330806 0.43938804 0.621208 0.59171396 0.37159643 0.023822747 0.48258317 0.48546124 0.62247336 0.52879643 0.46235526 0.124215916 0.04139741 0.46793896 0.49110404 0.55803907 0.27438533 0.38707268 0.39768058 0.36379665 0.27783957 0.3661474 0.41960907 0.61338806 0.63624156 0.61039686 0.58949625 0.55247736 0.4516762 0.51339626 0.54432976 0.51346636 0.46298546 0.64306426 0.64292955 0.62756264 0.6024269 0.52209973 0.52363056 0.51042163 0.6140673 0.6183393 0.5677757 0.6051964 0.610124 0.598353 0.53206265 0.44877878 0.49685642 0.4316895 0.2161271 0.14203095 0.26068512 0.5577634 0.5585736 0.35082906 0.34674767 0.5205674 0.36420837 0.37542102 0.22147267 0.53148615 0.58504623 0.17567664 0.16841356 0.5952784 0.5587604 0.19467196 0.17737384 0.54158545 0.24509476 0.47952944 0.4157756 0.44836783 0.35579315 0.4227478 0.32133532 0.353958 0.13734792 0.25698048 0.2552105 -0.108233236 0.16652761 -0.08647739 -0.12610736 -0.16314805 0.047794066 0.12194664 0.17505373 0.46450078 -0.09476748 -0.23080596 -0.21463099 -0.3598592 -0.24381247 0.17954627 0.15718406 0.043214045 -0.29718074 -0.18535051 0.14918163 0.14207876 0.23097615 0.07755807 -0.035128184 -0.3538748 0.1524699 -0.073141545 -0.20306084 -0.28620636 0.17308494 0.399243 0.41441563 0.36007392 0.4107754 0.5025257 0.27537736 -0.20607513 0.13518292 -0.123924956 -0.09307268 -0.13557415 -0.079691574 0.20228556 0.47678775 0.6297678 0.2367942 0.26633108 0.34438747 0.040043835 0.05555383 0.03035336 0.042039856 0.01665755 -0.018119438 -0.0061185434 0.8007091 0.2867083 0.25102922 0.17443958 0.11806029 0.015062727 -0.022907466 -0.00029145926 0.28943908 -0.073186904 0.8531748 0.33588782 0.26118284 -0.14655276 0.21516585 0.25648287 0.3462146 0.23883334 -0.052253608 0.28021848 0.7951646 0.8006438 0.6888514 0.47587115 0.24653989 0.15956765 0.32144326 0.33912605 0.6320764 0.7092917 0.75774616 0.7523263 0.6366042 0.22943415 0.5020913 0.53372866 0.7567646 0.6848627 0.45964175 0.45017013 0.6007968 0.69507897 0.58842266 0.52958703 0.7384027 0.7007655 0.6668775 0.4698751 0.43864435 0.5782195 0.74222964 0.80022216 0.6880645 0.67298186 0.6183796 0.4297249 0.48523733 0.4625576 0.11383716 0.12585036 0.30240577 0.39796445 0.43191126 0.6687524 0.8170294 0.8450365 0.780974 0.58862406 0.6260838 0.5451045 0.39078513 0.35049847 0.4188763 0.4183349 0.36045003 0.15139405 0.8480969 0.6482803 0.65070415 0.6429641 0.6064521 0.46853164 0.44663832 0.6110913 0.6193564 0.6074063 0.5558345 0.58861166 0.5949716 0.5586071 0.38161135 0.17337221 0.27401465 0.51917624 0.49256977 0.26640785 0.40078264 0.4398741 0.18997088 0.21612069 0.335857 0.31940478 0.1796708 0.21978343 0.21984944 0.3567009 0.44102925 0.12893674 0.14984584 0.5220797 0.07496775 0.49395508 0.22323686 0.12883553 0.45868263 0.45775446 0.37321514 0.44106257 0.44061416 0.40377748 0.31514215 0.16741762 0.24884163 0.2914262 0.11082144 0.14384036 0.25871092 0.16105999 0.20306088 0.19183028 0.21791595 -0.30485088 -0.28931847 -0.2939499 -0.43693054 0.14240651 -0.30832303 -0.387622 -0.27609152 0.20746289 0.25419125 -0.24732348 -0.25619867 -0.22805652 0.15383965 -0.122185186 0.61094373 0.62847114 0.16861051 -0.29354566 -0.121426046 -0.23815945 -0.024025917 -0.09364628 0.6643051 0.31093654 0.26912874 -0.13621783 -0.10483305 0.74177706 0.07499789 -0.19856416 -0.17703813 -0.10913378 -0.045285217 0.7112312 0.73593843 0.7189685 0.6808013 0.38314748 0.32516903 -0.1359442 -0.102058776 -0.08130339 0.016404532 0.6689117 0.70043766 0.7620586 0.7802964 0.34817487 0.0968396 0.11987162 0.42660505 0.4202175 0.4363565 0.78000766 0.7691067 0.16420749 0.19529566 0.22733565 0.5040611 0.74255353 0.7025183 0.3218541 0.39701784 0.69340026 0.61842966 0.68451464 0.67008597 0.61404604 0.32331836 0.37961024 0.42711264 0.59559 0.7165671 0.598217 0.54312867 0.41176197 0.44874635 0.25356662 0.34863138 0.29438114 0.15948097 -0.024763862 0.009185564 0.117315575 0.6721977 0.8113695 0.7871678 0.7582867 0.6013801 0.5708452 0.5178769 0.5228271 0.3313502 0.3212223 0.48399693 0.5212339 0.59442353 0.6699715 0.56832767 0.6621499 0.70999223 0.68787825 0.6072167 0.651438 0.681574 0.6747718 0.60139644 0.65153146 0.5826823 0.5529771 0.57023346 0.539364 0.51857716 0.34736097 0.45573425 0.3605395 0.18106085 0.3019949 0.2963556 0.36485505 0.36959696 0.17154074 0.30240798 -0.022076592 0.27945018 0.12154378 0.1801321 0.16086432 0.10798532 0.15563838 0.29200864 0.12294933 0.119980395 0.06124551 0.3089287 0.05159712 0.053377338 0.37841606 0.38830402 0.27040136 0.18682596 0.05533438 -0.010683842 -0.13309693 0.40014613 0.3866163 0.3172905 0.14186224 0.38053185 0.3531775 0.331469 0.30868703 0.29585057 0.31821448 0.12199016 0.34161693 0.052358083 0.31386128 0.14788663 0.11775274 0.25048658 0.23446238 0.26059985 0.18320724 0.52031755 0.046798438 0.29642293 0.6222421 0.59011126 0.4799291 0.28176248 0.16807413 -0.08921979 0.403507 0.6299908 0.53794926 0.44758177 0.24353781 0.16188511 0.12511472 0.0071450956 0.40178478 0.51231706 0.5270517 -0.004253939 0.58572173 -0.015618764 -0.38319665 0.607862 0.6390953 -0.29037163 0.580595 0.65414554 0.736481 0.6690322 0.7792359 0.076522484 0.1752837 0.2756043 0.4623938 0.77253425 0.7441191 0.05670781 0.31529304 0.29713798 0.71320397 0.67391646 0.565704 0.33886382 0.19124624 -0.20364259 0.269285 0.6555135 0.5857619 0.5399085 0.41477585 0.3054362 0.22172631 -0.067475215 0.34292963 0.6018941 0.5473368 0.42111498 0.472666 0.43499273 0.4220913 0.3970332 0.2734683 -0.058081828 -0.13937882 0.19976628 0.5899879 0.6044049 0.55948937 0.4752047 0.2951966 0.21166813 0.16225977 0.31914145 0.34910944 0.27722147 0.52368623 0.5379383 0.3922655 0.5988345 0.5985875 0.41575718 0.61508083 0.6198734 0.61204755 0.49830982 0.37741712 0.589664 0.6227267 0.6217992 0.4198181 0.46365464 0.4588018 0.33652657 0.41162822 0.39577574 0.3793774 0.25474688 0.29542583 0.35667324 0.40995067 0.40112334 0.20872946 0.37746632 0.24706194 0.049340315 0.21589355 -0.01041162 0.21084023 0.16253108 0.083521225 0.1911416 0.2854488 0.3392777 -0.1084342 0.3699513 0.19552672 0.008860711 0.3926099 0.29552945 0.29204693 0.3665603 0.36851522 0.20263329 0.25215262 0.21761847 0.37112617 0.065738976 0.12562826 0.37636262 0.17343363 0.11095434 0.038216375 0.36183956 0.18732555 0.14544895 0.32678667 0.2103709 0.31040734 0.1697212 0.23450418 0.8168323 0.6553537 0.570369 0.29666048 0.30777556 0.3188463 0.059027337 0.20310661 0.7384832 0.2210564 0.20119186 0.24756998 0.29304373 0.6737081 0.37667975 0.6428921 0.37708762 0.48973122 0.47267234 0.44573867 0.5144672 0.3835204 0.45906737 0.41538596 0.74360836 0.7138151 0.59137136 0.7050857 0.5885079 0.071035795 0.12188304 -0.18677804 0.6330309 0.59793186 0.41490573 0.31238928 0.25602934 0.2603714 -0.46055368 -0.6292161 0.1411821 0.39955646 0.47419336 0.54804575 0.35034356 0.3887414 0.3507425 0.33255985 0.33332723 0.12043399 0.12694936 -0.20434333 0.24599048 0.23798114 0.14600733 0.105461426 0.5097836 0.39389658 0.39435136 0.3684103 0.32766753 0.20791627 0.26263946 0.055443138 0.008044153 -0.069789425 0.28205848 0.32832077 0.2887381 0.31260285 0.2711666 0.17854977 0.42166406 0.04509011 0.5320337 0.5994499 0.6153584 0.6112715 0.33866915 0.59257627 0.5258181 0.50484574 0.37889576 0.4034121 0.35300523 0.23272267 0.2529518 0.3735683 0.26590005 0.2766962 0.20454952 0.17828509 0.21892136 0.41346908 0.32627004 0.3823354 0.29467207 0.3973325 0.40330637 0.33741987 0.32041085 0.25681022 0.20889461 0.27023634 0.15577026 0.2937116 0.25662202 0.20489387 0.1815359 0.15387385 0.17930421 0.24972944 0.302077 -0.06989634 0.38230315 -0.17483464 0.36619905 0.14033896 0.37051088 0.3810203 -0.13716102 0.4021193 0.11752466 0.032301776 -0.116844326 0.24004629 0.33915788 0.83427966 0.8077162 0.7021046 0.068761066 0.24619076 0.8746196 0.8584436 0.7781558 0.61293864 0.35452938 0.37656736 0.40346602 0.91174245 0.34528333 0.86093277 0.34101602 0.59785557 0.3206214 0.53709143 0.110553734 0.39061216 0.5833492 0.51472497 0.471745 0.26233268 0.07374491 0.69491774 0.46250594 0.33367527 -0.42640704 0.65182424 0.70450014 0.7134764 0.3207239 -0.0073243976 0.043035522 0.0406376 0.08933047 0.34220138 0.46756786 0.5678112 0.6308602 0.09967225 0.17816336 -0.13281202 0.13821113 0.081962414 0.10889141 0.28342515 0.31268862 0.28075224 0.16576403 0.06434387 -0.07161306 -0.08853945 0.5601332 0.29254258 0.60185397 0.43042016 0.37445945 0.54605806 0.4893785 0.31043184 0.116764426 0.43984485 0.43963873 0.18758094 0.26692164 0.36400637 0.426636 0.4438157 0.47347206 0.41707665 0.3385532 0.26047236 0.27597657 0.4355259 0.47008416 0.26159492 0.24288884 0.40865707 0.2635291 0.2198771 0.25678205 0.29685605 0.14010935 0.14269358 0.003860563 0.004245919 -0.033760928 0.37143007 0.35668573 0.36292836 0.33751428 0.07768378 -0.1362105 0.10915996 0.34290987 0.24354066 0.0848286 0.09650376 -0.26036456 -0.1298786 -0.17336792 0.25209633 -0.17549154 -0.09818609 -0.102997065 0.32842806 -0.09030103 0.2687242 0.3433633 -0.23319462 -0.25066218 0.30833873 -0.24068096 0.24882182 0.33530957 0.17175682 0.06076364 -0.21447751 -0.09609306 0.35633695 0.075545385 0.047768813 0.16850434 0.08616088 0.15157123 0.22733705 0.83447945 0.79844403 0.72716475 0.00023319945 0.088288456 0.15975319 0.08774103 0.85428214 0.83640504 0.4075425 0.35664845 0.3327337 0.15832274 0.84321356 0.3589267 0.41863945 0.76721203 0.43175516 0.6253365 0.35962823 0.5025853 0.44489923 0.25687715 0.28585038 0.5751183 0.3621574 0.20057987 0.64870214 0.32230726 0.2072348 0.16289832 0.709254 0.17369704 -0.1117525 -0.17362812 0.73419553 0.728262 0.18740767 -0.12756065 -0.11690307 -0.006117218 0.009754897 -0.014919721 0.08097523 0.3062045 0.50953823 0.6018021 0.6841903 -0.095474645 -0.08478188 -0.032362178 -0.09793644 -0.09264906 -0.0062467437 0.20177707 0.16052619 0.012910992 -0.029229969 -0.08914073 0.08928827 0.26545537 0.18542525 0.5356011 0.28975713 0.20190565 0.34191558 0.07595731 0.10037229 0.12351058 0.09788979 0.24622813 0.32091665 0.3567928 0.40476185 0.39991796 0.43033063 0.43634772 0.5014137 0.4911133 0.42063886 0.34343374 0.49140108 0.5091426 0.48350292 0.4359717 0.39388254 0.34874448 0.47931784 0.33664593 0.36625066 0.3627389 0.19127268 0.014109403 0.34413177 0.43023628 0.49077982 0.47729927 0.1182818 -0.12581666 0.47396484 0.5105702 0.4440692 0.58440167 0.46949315 -0.03942749 -0.027649682 -0.15397178 -0.15578711 -0.18211222 -0.01833488 0.39644492 0.33802217 0.5187632 0.53984445 0.5347893 0.4296438 -0.17546108 -0.15019594 -0.20504917 0.011061456 0.2222785 0.44596195 0.5127135 0.31409395 -0.14030884 -0.5199262 -0.5506389 0.21458863 -0.16444863 -0.091184855 0.2954746 0.6171274 0.55057466 -0.22945806 0.53695047 0.47942516 0.03172809 -0.27050033 -0.29755914 0.5403032 0.31480703 -0.08703392 0.8125497 0.7705823 -0.07123253 0.054633517 0.8261235 0.7899745 0.7443322 0.67875326 0.35679063 0.19483903 0.1558907 -0.18113096 0.042899746 0.12264112 0.15047704 0.21057472 0.79607093 0.75747705 0.35851932 0.74095833 0.7235031 0.62184674 0.3288301 0.4592485 0.39671034 0.34582177 0.16069369 0.44083884 0.6162026 0.64689475 0.19554451 0.68861985 0.69266534 0.32969758 0.30606422 0.048432954 0.6617979 0.7147413 0.18051189 0.18753463 0.17734602 0.1513401 -0.015022276 -0.014991156 0.14159852 0.32852423 0.50813496 0.6150178 -0.09850124 -0.08682214 -0.06582607 -0.03327913 0.34761262 0.31381693 0.12367093 -0.09421153 0.3374956 0.09837823 0.16195704 0.21209113 0.23906827 0.27988768 0.11355697 0.2288203 0.31030503 0.4076547 0.14358203 0.092078075 -0.017737135 0.11591849 0.30975088 0.45897743 0.29088056 0.10140838 -0.119715124 -0.10084996 -0.012968741 0.06549198 0.12202339 0.51322734 0.4554352 0.39497936 0.053903945 0.2021395 0.2579195 0.24167454 0.32341212 0.32741338 0.2815559 0.5024456 0.51663846 0.5445617 0.3896855 0.43230927 0.43092263 0.39695066 0.34232536 0.5615819 0.5573558 0.5601138 0.5006881 0.46631354 0.40585688 0.5728209 0.57103527 0.56688595 0.5145459 0.50069916 0.4679044 0.41612393 0.42774248 0.48943248 0.48279423 0.43754488 0.3940481 0.3455209 0.3641