# vtk DataFile Version 2.0
Really cool data
ASCII
DATASET POLYDATA
POINTS 8194 float
-23.810114 15.152019 17.98443
-23.973856 14.9237795 18.75107
-23.97222 14.871997 19.447443
-23.88834 14.976779 19.91546
-23.979488 15.601327 17.928875
-24.251926 15.540299 18.656054
-24.26403 15.531923 19.423094
-23.95801 15.464584 20.09011
-23.972685 16.256378 17.820494
-24.23816 16.252304 18.576427
-24.253979 16.358604 19.300388
-23.889439 16.360786 20.28456
-23.745209 17.381533 17.843023
-23.916998 17.438414 18.535435
-23.914051 17.359877 19.471603
-23.837608 17.231846 20.030455
-23.690006 18.229357 18.435902
-23.69268 18.257656 19.278872
-23.607954 19.809587 14.957982
-23.683077 19.655056 15.538649
-23.619337 19.504856 16.199425
-23.554379 20.58146 14.617452
-23.615314 20.552202 15.355684
-23.619862 20.17155 16.065382
-23.532 21.03882 14.92687
-23.54673 21.116632 15.142229
-23.269386 14.451666 18.8977
-23.28666 14.443339 19.364574
-23.435678 15.053607 17.796858
-23.517832 14.579947 18.732471
-23.534174 14.572644 19.491978
-23.418772 14.82024 20.062462
-23.045738 15.639476 17.255402
-23.535873 15.588076 17.48592
-23.49299 15.372262 20.473763
-23.221548 15.836304 20.778727
-23.129257 16.813723 17.241072
-23.214464 16.572638 21.01601
-22.852673 17.759432 16.407722
-23.502813 17.43784 20.573193
-23.088158 17.38302 21.061026
-23.02241 18.958311 14.798931
-23.46434 19.213612 15.316659
-23.187956 18.459612 17.11947
-23.518946 18.617317 18.304562
-23.496607 18.430607 19.556774
-23.219334 17.97911 20.443676
-23.054207 17.945234 20.820503
-23.107716 19.90437 13.80635
-23.430666 19.555576 14.763016
-23.543226 19.303728 15.432038
-23.494944 19.449596 16.49698
-23.454807 19.071224 18.559345
-22.999556 18.741982 20.04331
-22.7929 20.69414 13.131634
-23.253609 20.642105 13.748514
-23.44987 20.782804 14.339401
-23.414774 20.28221 16.444653
-23.304478 20.07554 16.863865
-22.844196 19.85603 18.379284
-23.103882 21.149439 13.650197
-23.417313 21.374289 14.547575
-23.40123 21.492807 15.131524
-22.749136 22.076817 14.1269045
-23.171604 21.925026 14.65107
-22.652084 22.258318 16.762903
-22.662085 24.012766 17.32399
-22.643555 24.479713 17.79505
-22.571686 24.585798 18.006393
-22.57387 25.199827 16.729065
-22.730976 25.508217 17.427265
-22.642618 25.820593 17.938522
-22.636969 26.150087 16.854824
-22.674238 26.465698 17.55121
-22.605124 26.491838 17.91202
-22.59234 26.877958 17.236261
-22.93083 14.464366 18.793253
-22.857122 14.444324 19.220413
-22.760328 15.014183 17.680628
-22.651785 14.616752 18.570787
-22.552032 14.549213 19.492353
-22.667505 14.87553 20.119871
-22.920452 15.469601 17.243866
-22.54289 15.877632 21.004253
-22.421682 16.583069 21.371788
-22.236998 16.916931 21.519066
-22.73077 18.223143 15.692288
-22.44291 17.386158 21.42025
-22.162888 17.21676 21.541216
-22.433979 18.750729 14.625265
-22.358929 18.173368 21.102034
-22.433764 19.927334 12.973136
-22.430708 19.599289 13.346692
-21.88678 20.995146 6.6059713
-21.814945 20.797394 7.057005
-21.623379 20.580414 8.109941
-21.770452 20.278332 12.082653
-22.41172 20.480732 12.874787
-22.441914 20.226618 18.583118
-22.380442 20.337559 18.841343
-21.814352 21.560055 5.9705286
-21.951925 21.538536 6.539266
-22.002436 21.379614 7.177046
-21.835337 21.751158 7.922839
-22.427776 21.062996 12.915592
-22.047564 21.59262 18.422415
-21.571651 22.772118 4.117851
-21.655317 22.49821 4.5995603
-21.832142 22.491905 5.5364747
-21.952898 22.169226 6.5314026
-21.989437 22.226265 7.29851
-21.636328 22.743206 8.00248
-22.354837 22.14194 13.612788
-22.48727 22.607418 14.686564
-22.468954 22.733017 15.815783
-22.294598 22.576202 17.52493
-22.138096 22.366833 18.492798
-21.823793 22.472221 19.353378
-21.736095 23.566942 4.831311
-21.774328 23.607178 5.2584763
-21.777203 23.31206 6.5922246
-21.797825 22.912542 7.1747103
-22.44598 23.602215 17.97651
-21.922482 23.665768 19.264389
-21.625837 23.95978 4.610172
-21.580593 24.174208 5.428408
-22.131498 24.391321 15.997632
-22.517172 24.986807 18.309141
-22.02222 24.769382 19.006783
-22.171843 25.301264 16.179974
-22.332958 25.636389 18.52846
-22.132221 26.393831 16.306938
-22.408165 26.189013 16.535213
-22.316462 26.462152 18.421244
-21.955889 26.322332 18.924667
-22.195847 27.00337 16.882746
-22.222244 27.087633 17.536057
-22.054665 27.001194 18.322325
-22.06976 14.758245 18.717266
-21.940388 14.790103 19.248478
-21.816126 15.23626 20.07548
-22.040026 15.449102 17.434828
-21.607168 15.619966 20.49775
-21.759314 16.050697 21.008017
-20.62785 16.581839 14.434302
-21.528124 16.60369 16.607183
-21.673128 16.686708 21.33624
-21.918083 16.83525 21.590197
-20.663015 18.336586 9.560805
-20.574272 17.256647 13.504248
-21.766705 17.81096 16.052324
-21.639326 17.4825 21.435719
-21.837559 17.242199 21.516073
-20.832788 18.862776 7.7030377
-20.99111 18.830503 8.650446
-20.811874 18.639961 9.624156
-20.953083 18.929813 10.575147
-20.671843 18.585646 11.670324
-21.247555 18.7043 12.687215
-21.462418 18.685347 13.888508
-21.44009 18.106873 21.237938
-21.148157 20.133694 6.173648
-20.866842 19.61799 6.8620563
-21.152468 19.627071 7.356315
-21.348537 19.85125 8.365413
-21.088516 19.628433 9.510314
-21.167149 19.698399 10.645369
-21.3779 19.423996 20.341862
-21.14143 18.94863 20.865416
-21.372616 20.721254 5.8671756
-21.556408 20.415821 6.5858693
-21.136673 20.341526 11.076419
-21.272459 20.079327 11.221505
-21.576096 20.031975 20.052149
-20.92812 21.828312 3.8409345
-21.29064 21.825706 4.257166
-21.445452 21.60828 5.529052
-20.876402 21.472954 10.3921385
-21.32528 21.501726 11.760381
-21.5207 21.270725 19.279085
-20.89221 22.404325 3.3987198
-21.286842 22.560856 3.808287
-21.45638 22.769196 8.387057
-21.427177 22.068378 8.804348
-20.822927 21.837233 10.96267
-20.866583 22.401384 11.782892
-21.562908 22.46397 13.228242
-21.049482 22.65958 20.316362
-21.157824 23.52528 3.6356587
-21.40348 23.664732 7.322788
-21.41831 23.125425 8.093635
-20.908422 22.641865 12.658022
-20.907358 23.222702 13.959822
-21.259064 23.391256 20.105955
-20.787718 23.094017 20.596193
-20.854044 24.188227 3.3181348
-21.067825 24.477505 3.6853828
-21.408846 24.647284 4.6541047
-21.525707 24.48809 5.6866026
-21.451738 24.205872 6.558404
-21.309296 23.82312 6.9913154
-21.06666 24.583008 20.096916
-20.778414 25.248304 3.7832952
-21.083006 25.223763 4.536419
-21.032244 25.404238 5.5011353
-21.194185 25.004086 6.461678
-21.47376 25.161142 15.846326
-21.125212 25.405542 19.808376
-20.728815 25.926939 4.9464264
-21.418524 26.277893 19.313543
-21.810953 26.82704 16.39313
-21.494337 27.110086 16.731112
-21.496649 27.44144 17.613197
-21.460924 27.359013 18.380142
-21.19873 26.998188 18.987495
-21.30192 27.518394 17.835766
-20.634192 29.729069 9.0754175
-20.604012 29.632633 9.468172
-20.553675 29.603985 9.993624
-20.586115 30.215929 9.017794
-20.576632 30.274363 9.568375
-20.54329 30.288439 9.984217
-19.73476 8.892535 8.171732
-19.885277 8.822363 8.90129
-19.963839 8.933864 9.495409
-19.883114 9.075507 10.074781
-19.821466 9.677326 8.022886
-20.13517 9.589082 8.755481
-20.20566 9.600892 9.446823
-19.984846 9.600624 10.142928
-19.821074 10.344425 8.047296
-20.106365 10.427063 8.6835785
-20.222425 10.507219 9.42357
-19.939493 10.532522 10.179673
-19.896784 11.139123 8.8615055
-20.010782 11.107099 9.399557
-19.806023 11.126861 10.065741
-19.670216 13.960592 1.0294327
-19.71663 13.940766 1.6257173
-19.711252 13.928965 2.5034556
-19.59876 14.872568 -0.49611944
-19.764914 14.626794 0.73055124
-19.86168 14.429487 1.6691905
-19.833971 14.483807 2.3923476
-19.682224 14.72636 2.9076755
-19.857811 14.858534 14.105975
-19.929195 14.919448 14.505624
-19.855228 14.771711 15.010167
-20.471619 15.495693 18.656986
-20.723362 15.374269 19.44337
-19.620583 15.292968 -0.3357531
-19.733301 15.182708 0.7363794
-19.800001 15.295784 1.6676084
-19.840977 15.005769 2.3239646
-20.128355 15.88024 13.727614
-20.18149 15.576197 15.308873
-20.391642 15.647454 16.857403
-19.905304 15.544804 17.66049
-20.816551 16.055664 20.392262
-19.588785 15.852805 0.07347876
-19.945194 16.420404 12.917042
-20.640755 16.49867 20.782797
-19.742357 17.834797 6.8534236
-19.999945 18.076433 7.626061
-20.449944 18.20302 8.594313
-20.432875 18.1428 9.253999
-20.407959 18.214685 10.346708
-20.10761 17.888132 11.5493355
-20.489302 18.026367 12.385468
-20.594528 17.74225 21.093521
-20.104048 18.807545 5.8756323
-20.414112 18.998737 6.3486476
-20.517517 18.558619 7.5260572
-20.700201 18.333029 21.033098
-19.950964 19.31263 5.219885
-20.289803 19.154045 20.767433
-19.925344 20.690517 20.631617
-20.626278 21.781672 3.7335393
-20.16313 21.988794 20.711111
-20.659346 22.777384 3.266557
-20.486597 22.2498 9.630381
-20.532488 22.444021 11.134992
-20.28445 22.524878 20.73552
-20.531645 23.307411 3.1299555
-19.67797 23.147188 10.414559
-20.247389 22.978506 11.314502
-20.189196 23.391651 20.72413
-20.359816 24.589891 3.0210817
-20.518877 24.006481 8.374351
-19.569923 24.848866 11.102746
-20.26094 24.721401 20.426968
-20.132515 24.48118 20.531738
-20.234465 25.121843 3.1570015
-20.437765 25.330952 3.4996624
-20.450802 25.5447 7.379209
-20.095856 24.957058 8.27666
-19.596094 25.983122 10.308856
-19.641195 25.780853 11.543908
-19.577785 25.056421 11.943194
-20.805925 25.69971 16.070803
-20.204111 25.129833 20.297598
-20.20807 25.74174 3.7555015
-20.381384 26.12102 4.7800183
-20.42573 26.231205 5.235102
-20.20032 26.508451 6.5455413
-20.389988 25.971296 6.9202046
-19.983032 26.797363 8.35244
-19.87414 26.408373 9.30776
-19.87119 26.581163 10.011993
-20.62915 26.561003 19.380266
-20.390783 25.841288 19.94053
-19.845514 26.68322 5.557945
-19.709232 27.013405 6.5958605
-19.946949 27.344124 7.7550645
-20.18777 27.68257 8.87497
-20.090961 27.40267 9.8171835
-20.09677 27.480865 10.489176
-19.786043 27.156126 11.226519
-20.821726 27.204937 17.058626
-20.599937 27.395266 17.680222
-20.655174 27.383871 18.68408
-20.67234 27.06191 18.980078
-20.124195 28.290552 8.790079
-20.383715 28.759039 9.66647
-20.381174 28.563816 10.047581
-20.87548 27.504725 17.95832
-20.020763 29.898977 8.050834
[...]
POINT_DATA 8194
SCALARS features_00 float 1
LOOKUP_TABLE default
0.8384417 0.88031256 0.8933022 0.9052777 0.8106594 0.8878616 0.91893244 0.92346054 0.71880597 0.79652613 0.819433 0.83874804 0.47907746 0.51109505 0.57095575 0.64181995 0.3669367 0.44746757 0.44386226 0.42849952 0.37642878 0.44346747 0.41983247 0.38424248 0.42853594 0.4105239 0.82853264 0.8339361 0.8079469 0.8456998 0.8595048 0.86891013 0.66601 0.73859954 0.9029393 0.8406943 0.51753104 0.74939704 0.30036736 0.66777194 0.6770507 0.39855415 0.41941673 0.3058687 0.30165693 0.4447342 0.6029258 0.63045913 0.4523229 0.44454265 0.42097852 0.33877638 0.27945578 0.46039054 0.43437773 0.4622221 0.45044553 0.3211606 0.24065235 0.15245555 0.46925366 0.4436303 0.39995864 0.4212681 0.42276138 0.17335275 0.36183167 0.4516306 0.45859623 0.6343076 0.6525765 0.67957556 0.74191904 0.78330547 0.78646135 0.8305074 0.793096 0.78663576 0.74252784 0.75299895 0.7399528 0.7947067 0.67743623 0.7358711 0.6622004 0.62353945 0.29182756 0.615093 0.5979289 0.319179 0.56408113 0.34986413 0.37316266 0.35992965 0.35142985 0.34405702 0.17604706 0.365764 0.12156558 0.13926932 0.38586408 0.39062828 0.3894083 0.38280708 0.38480636 0.040485114 0.47123736 0.45347324 0.42319226 0.40204582 0.38457763 0.2939224 0.3861828 0.34840852 0.32233626 0.11568698 0.13817292 0.2573606 0.4750026 0.43432263 0.35957104 0.3549354 0.26163006 0.36622444 0.49932796 0.41836917 0.46833295 0.5159976 0.49658167 0.6429492 0.63926834 0.73575926 0.73840225 0.79383945 0.7756462 0.8430832 0.8722547 0.86160713 0.64980054 0.62855375 0.62881863 0.5602585 0.5959661 0.5984585 0.25726375 0.17675018 0.5546936 0.5824861 0.18229468 0.05835529 0.15660493 0.5234788 0.5595654 0.20361772 0.22073619 0.19593228 0.17729598 0.08569876 0.05006379 0.124659 0.45740992 0.23739249 0.20894225 0.2370792 0.26351926 0.20255275 0.16769835 0.36444154 0.36224794 0.29191104 0.29904038 0.12673901 0.12804326 0.2969429 0.34893775 0.39636758 0.37382552 0.0072492957 0.13093778 0.110254124 0.37753952 0.44053748 0.22469887 0.21791977 -0.00583674 0.041749217 0.23047683 0.4189589 0.50948095 0.27354008 0.23484811 0.11509161 0.17470634 0.46205652 0.4429589 0.5271913 0.5377829 0.4906647 0.39095896 0.30499247 0.28351793 0.48981622 0.48548824 0.4746461 0.40592575 0.31243992 0.5661843 0.55585366 0.3993304 0.69569737 0.7879937 0.83058345 0.86087346 0.83096504 0.742885 0.8362444 0.54322624 0.52204126 0.5078245 0.60635674 0.5982528 0.5961148 0.41553807 0.50164986 0.5691172 0.5787121 0.5231918 0.6108706 0.662083 0.637302 0.6137802 0.698647 0.71943164 0.65760195 0.7055518 0.7022259 0.642485 0.44046932 0.46937358 0.49107996 0.40969753 0.43503797 0.47176304 0.48495606 0.45313227 0.49915302 0.50590783 0.4942065 0.27050513 0.388205 0.40327567 0.403345 0.4002649 0.4455463 0.35606593 0.4078984 0.15584 0.19412261 0.46579364 0.36086255 0.15131685 0.45932233 0.100543424 0.13815032 0.18228558 0.17353293 0.12668058 0.019388393 -0.00015401188 0.3954246 0.115470566 0.15111642 0.17770047 0.35744587 0.094896376 0.22235753 0.11820999 0.3007235 0.36578995 0.37877735 -0.15351641 -0.07826512 0.41017392 0.4155938 -0.3641411 -0.15718468 0.4396131 0.4568764 0.07968252 -0.12196181 0.46746063 0.4584961 0.432756 0.458866 0.2203502 0.00012598332 0.022585222 0.06687096 0.022964548 0.532801 0.48072284 0.41799295 0.37650973 0.34669673 0.23796599 0.2556573 0.061403617 0.03137064 0.088029996 0.5964185 0.5199093 0.2755301 0.1798219 0.15011325 0.19217083 0.16760567 0.19815132 0.18510947 0.7596349 0.7135651 0.6897374 0.66107213 0.30490407 0.37515146 0.33566308 0.7626123 0.6071341 0.5505346 0.4664448 0.52657187 0.5655017 0.6900469 0.6466281 0.6275428 0.6261818 0.666193 0.7551929 0.758094 0.7016065 0.69241846 0.36438197 0.38248605 0.39636767 0.38328916 0.35555506 0.3936675 0.45039964 0.4642031 0.43024194 0.36848453 0.39107716 0.4361868 0.45897463 0.44726306 0.35948956 0.36255705 0.434035 0.39524776 0.0017904267 0.26117548 0.04445991 0.110504 0.088909954 0.40983576 0.13347726 0.35785538 0.39585882 0.50173116 0.4578101 0.51099914 0.4335217 0.50837445 0.60583395 0.48420596 0.51155007 0.63709676 0.64005655 0.6115368 0.5058217 0.30274865 0.3788559 0.40935293 0.64960593 0.6275849 0.31460285 0.340944 0.3699846 0.40782422 0.4407245 0.44116652 0.27017754 0.3484288 0.39466906 0.40579683 0.3911355 0.31886813 0.47884452 0.52382106 0.43609023 0.30923653 0.16774222 0.21921124 0.40140584 0.39959836 0.40222305 0.31999236 0.102399245 0.31616423 0.2972608 0.35365114 0.360052 0.3426758 0.24539849 0.00862994 0.097371794 0.09061377 0.08467806 0.023192711 -0.07224861 0.33583537 0.3124913 0.28569898 0.19293952 0.023884056 -0.10179661 -0.05234895 -0.023441292 0.036170498 0.10495174 0.115923904 0.036092117 0.023224723 -0.023523435 0.31491983 -0.03476032 -0.0039956197 0.082346275 0.23877317 0.057515312 0.012924075 0.049639806 0.041530423 0.013564744 0.06565052 0.08819521 0.011134123 0.3095858 0.14841685 0.38807923 -0.26179555 -0.42946404 0.42378515 -0.34099227 -0.11029714 0.42630333 0.4424169 0.3536269 -0.16764522 0.047131225 0.4540149 0.3416559 0.29409763 0.029569358 0.04425591 0.11850765 0.13706367 0.504436 0.48541757 0.26752555 0.16635537 0.15558133 0.1492632 0.090498835 0.42307368 0.502975 0.5513079 0.16501558 0.29028356 0.4297961 0.4886605 0.5354057 0.608153 0.63689864 0.6862175 0.69127774 0.6719095 0.7122756 0.7978323 0.73313516 0.70739317 0.72307354 0.79860735 0.79784894 0.7410674 0.7093054 0.662843 0.63373506 0.53205955 0.437128 0.6253425 0.5879867 0.48395994 0.25568905 0.36242357 0.47909826 0.40298617 0.23793803 0.2254717 0.27844268 0.33475164 0.29472145 0.7060102 0.68056077 0.19161056 0.31869727 0.32263416 0.33985454 0.32218334 0.25178608 0.5362094 0.54771763 0.25737888 0.33816695 0.31201538 0.26783586 0.29824656 0.22588947 0.29996789 0.14186776 0.22220588 0.27043775 0.36929843 0.3994276 0.43077186 0.22204028 0.2326313 0.19819169 0.091840215 0.17743717 0.35856596 0.3000805 0.27996263 0.26210928 0.3543604 0.40114033 0.41601932 0.4261322 0.22430852 0.21618575 0.19647229 0.30225646 0.31151912 0.042395025 -0.016906286 0.21676062 0.36450478 0.40511486 0.40078712 0.39622784 0.23152918 0.21532345 0.19900548 0.23351116 0.20263307 0.060685504 0.061601315 0.036763966 0.01899394 0.13765544 0.09412035 0.25916278 0.30719447 0.33062285 0.28911453 0.2272064 0.19846168 0.21735866 0.19802731 0.056231476 0.087243035 0.08625061 0.049098477 0.12017567 0.1886355 0.1879732 0.23335908 0.10932308 0.22609174 0.06392576 0.08867604 0.258321 0.28150874 0.46316195 0.4251591 0.3534584 0.19852184 0.19278139 0.26222527 0.4363606 0.5194098 0.4987597 0.35791084 0.4677301 0.4423793 0.37984478 0.1982081 0.25902104 0.2762536 0.30334258 0.20355007 0.50652295 0.55482054 0.45368502 0.42053875 0.4217633 0.35057664 0.11677952 0.21876866 0.20878267 -0.021538263 0.4637521 0.3844446 0.35805282 0.3002029 -0.0115374215 0.04400964 0.12011013 0.43388313 0.38951707 0.19737133 0.13448156 0.2252184 0.25029877 0.29958245 0.032419927 0.11959962 0.06443946 -0.04222522 -0.10182412 0.22884989 0.2517632 0.27794644 0.23666725 -0.08728327 0.022009023 -0.1339005 0.23696549 0.25930452 0.2894637 0.26224577 0.17051803 0.030081825 -0.10575846 0.23687747 0.2067379 0.041718803 0.20999965 0.09950038 0.076129034 0.05373115 0.15840986 0.18113625 0.18656476 0.20496647 0.21674469 0.18981482 0.3264374 0.26640818 0.3999424 0.40101498 0.29265416 0.28008375 0.42068642 0.25723892 0.32627267 0.41558677 0.2189652 0.22493446 0.2985355 0.3842809 0.19382934 0.2493167 0.3393309 0.34674484 0.03524965 0.094071195 0.18754466 0.28338978 0.5645896 0.4677202 0.6014215 0.697283 0.6866033 0.7290934 0.71940035 0.73850834 0.73749876 0.7555902 0.7535735 0.72182137 0.7033503 0.4862114 0.5664818 0.60241896 0.5957093 0.56923646 0.70907044 0.64942324 0.54910755 0.4557327 0.4942515 0.5813308 0.6146809 0.60322344 0.5491396 0.6864876 0.69332236 0.65663457 0.5542897 0.445059 0.27849156 0.26643518 0.42553383 0.5580443 0.5911386 0.55716354 0.5254079 0.6201831 0.6179214 0.36348936 0.1008515 0.15033779 0.22333266 0.5118449 0.45587498 0.83524996 0.8495482 0.41382146 0.44654438 -0.019118791 0.7769257 0.80406225 0.82315737 0.8323329 0.14695525 0.20930374 0.018958282 0.7255671 0.7317512 0.7252303 0.6987922 0.07830758 0.16823776 -0.017218783 0.62666005 0.56364936 0.5570002 0.43137652 0.53952146 0.3951233 0.100548334 0.14280073 -0.01142445 0.1893272 0.115978 0.35084224 0.4054839 0.43240625 0.35565418 0.231019 0.16832988 0.29368445 0.36923385 0.3924484 0.3841009 0.10506034 0.33900428 0.35168684 0.42947668 0.44295877 0.43227577 0.23503336 0.23820058 0.23864001 0.12032127 0.25489962 0.36306846 0.38638029 0.37082747 -0.05383157 0.028293014 0.15356424 0.4282079 0.4315471 0.4241791 0.27580398 0.22493798 0.21238133 0.19320554 0.15533039 0.27509904 0.05659217 0.0355915 0.031103365 0.3747985 0.3638052 0.3773069 0.2857941 0.196666 0.15785411 0.12791245 0.0709682 0.27608553 0.2683713 0.38660747 0.33011773 0.26335204 0.23576054 0.19730604 0.15185499 0.16448724 0.18895537 0.16558814 -0.04840725 0.18639195 0.18444878 0.1658627 0.18542425 0.2695103 0.2589271 0.14080147 0.11329746 0.07269661 0.16493307 0.08748847 0.004821673 0.105553314 0.12373791 0.24221045 0.01507359 -0.08217371 0.45307282 0.45922148 0.42802513 0.28328124 -0.016767018 -0.14169881 -0.1087282 0.075592026 0.10190247 0.0779265 -0.026194096 -0.08076854 0.09334315 0.28077143 0.48621732 0.48802334 0.23045312 -0.0029296726 0.101056196 -0.24835396 0.40010422 0.3948189 0.49324256 0.4690795 0.4279849 -0.029006332 -0.05304345 0.1697198 0.010916084 0.44153512 0.4018348 -0.086613156 0.018619206 0.15199326 0.10123336 0.40861455 0.18897457 0.09852241 0.1314909 0.3940748 0.37144077 0.19755861 0.087194875 -0.2623493 -0.13853182 0.2021581 0.22397949 0.08109341 0.1633106 0.2033141 0.19650643 0.19479915 0.05410687 0.13424549 0.010808393 0.08314539 0.077545345 0.12309401 0.020209305 0.11663814 0.1636062 0.18475814 0.21655849 0.2926983 0.31027645 0.3336608 0.34427837 0.3176912 0.21709023 0.136471 -0.03644891 0.21334349 -7.934868e-05 0.338301 0.39443907 0.40832806 0.0855501 0.15672067 0.6623589 0.59308434 0.6592052 0.61368036 0.6110668 0.67022544 0.73601747 0.7048131 0.6832795 0.66498625 0.68595576 0.4133469 0.5046346 0.5700526 0.59121615 0.5679894 0.5274074 0.45638114 0.37103897 0.44140208 0.51008576 0.58470654 0.5839358 0.5519486 0.50636643 0.71257126 0.601048 0.5307499 0.4289896 0.3489331 0.3618664 0.48791832 0.47687134 0.69269073 0.15542045 0.1324198 0.4433458 0.36024433 0.58648795 -0.0110207945 0.40800488 0.36102507 0.78407323 0.82752305 0.8683724 0.8779557 0.4315521 0.34044868 -0.10439658 0.25226697 0.29769343 0.2704504 0.76959044 0.80412674 0.8438637 0.1648215 0.18594348 -0.20266034 -0.17411537 0.7092845 0.6296167 0.06364091 -0.12756282 -0.10380359 -0.02515816 0.1366861 0.42504868 0.2666214 0.36993867 0.3856786 0.07641403 0.25608426 0.3387732 0.40690917 0.3899465 0.32014513 0.37575936 0.1631045 0.023458093 0.39505106 0.32807767 0.39674348 0.35910398 0.2820479 0.29528245 0.3173907 0.40785652 0.39989606 0.20034125 0.20741151 0.23008677 0.40863085 0.39853048 0.13648304 0.14680985 0.16711144 0.36442477 0.35589388 -0.088716716 0.08696823 0.20521255 0.29051018 -0.13864645 -0.07507213 -0.03742515 0.38480458 -0.092528775 0.09917955 -0.251709 0.47658247 -0.27841267 0.5167308 -0.51770055 -0.6620109 0.10899912 0.018426344 0.5110145 0.47891754 -0.35148886 -0.054127753 0.067262396 0.033469245 0.077085614 0.5247873 0.47983623 0.41155842 0.48393255 0.38971293 -0.07518287 0.1900857 0.24633417 0.13922574 0.24541312 0.31939834 0.15273768 0.3017226 0.096155964 0.081559554 0.036798805 -0.035168156 0.069076 0.096222624 0.021144457 0.15248527 0.09725797 0.22019602 0.31618536 0.04638492 0.36356932 0.36728776 0.16524005 0.39641201 0.25687957 -0.01707752 0.25247458 -0.025130793 0.397106 0.4306594 0.12006971 0.330423 0.37915075 0.3667658 0.42267427 0.3209625 0.45606738 0.41591704 0.5430503 0.69182634 0.5303453 0.47978875 0.6066263 0.36464098 0.40059757 0.5078298 0.5698552 0.5627389 0.5459957 0.34026676 0.09192224 0.31057993 0.33659285 0.5176563 0.6472691 0.60661006 0.4407635 0.6183841 0.31102803 0.23880237 0.17181274 0.7663993 0.8202937 0.8673593 0.82913816 0.42853093 0.71851945 0.6875379 0.1279413 -0.15140186 -0.25873753 0.58740646 0.5771909 -0.0015959144 0.2414735 0.52910143 0.31382257 0.3696453 0.0701271 0.043317005 0.26454237 0.36319545 0.3575969 0.15856364 0.015250891 0.32689625 0.24081238 0.40155607 0.3933468 0.26217404 0.42157903 0.40247893 0.24868792 0.47056472 0.1688159 0.19066276 0.47424504 0.4271486 0.099744886 0.13430083 0.509346 0.59154457 0.3659723 0.28858802 0.045824073 0.18428382 -0.14265463 -0.1371257 -0.06860901 -0.10447028 -0.09392748 -0.07878932 -0.042277798 -0.07633657 0.44991952 -0.13642171 -0.08296962 -0.022086332 -0.0445847 -0.10359266 0.15810703 0.31828988 0.54496 -0.04621965 -0.35092047 -0.046450853 0.1690963 0.2522505 0.3573512 0.56676626 -0.7049657 -0.0033196285 -0.016754694 -0.1716148 -0.12545818 0.18399245 0.3606237 0.3619663 0.3454622 0.5683414 0.3361195 0.532276 0.46881145 0.2614431 0.29547614 0.3143746 0.16369495 0.2907636 0.31302565 0.19286367 0.13664636 0.17052549 0.18858138 0.1524854 0.042568352 0.12194164 0.028389245 0.08674902 0.10468704 0.15890738 0.24079525 0.33361655 0.40514413 0.17945722 0.13278234 0.4431286 0.35748565 0.28344437 0.14759196 -0.05100552 0.18585166 0.37531814 0.3323936 -0.23349412 -0.17458467 0.17088817 0.38978857 0.42122284 0.14689502 0.4438613 0.44015566 0.38048565 0.21254289 0.36343133 0.39214337 0.43378472 0.39315498 0.37379903 0.23679455 -0.06786421 0.1343621 0.27238098 0.40856022 0.4503021 0.4875089 0.5108412 0.2977051 0.36018384 -0.06882742 0.1764915 0.41408557 0.33154854 0.20303988 0.25288215 0.19511566 0.26112705 0.07473659 -0.05561628 0.19441292 -0.093496434 -0.049937833 0.66254735 0.6904401 0.5877173 0.49581572 0.44453728 0.03313171 -0.27710894 -0.09894976 -0.04365465 0.1551032 0.18454243 0.19827074 0.5279499 0.12716943 0.04540221 -0.04448533 -0.1111476 0.17205599 0.19314696 0.19428879 0.43844783 0.4161389 0.3125452 0.037412353 0.14325163 0.11478094 -0.07776481 0.11782627 -0.032082006 0.03492637 0.17235728 0.44578063 0.4078043 0.3172534 0.16664231 0.43723285 0.11551702 0.0332134 0.5167104 0.5363271 0.42973012 0.14474359 0.40531623 0.5225257 0.57000166 0.6017462 0.46672788 0.07327668 0.049166203 0.40052933 0.5424849 0.61775553 0.62115395 0.5034187 -0.1708887 0.19318724 0.41962028 0.5507468 0.6306084 0.63497436 0.48901784 0.40850735 -0.07604618 -0.18999937 -0.1883335 0.3777487 0.55801976 0.60930485 0.6000615 0.2896096 -0.1260327 -0.18364304 -0.083948955 0.27652723 0.51928544 0.56030643 -0.12090118 -0.15917496 0.42848125 -0.13521293 -0.016879492 0.232699 0.3129447 0.49071282 -0.031164033 -0.14254451 0.34205276 0.32920605 0.5256622 0.33742362 0.5654602 0.26384607 0.50984544 0.42397642 0.25100413 0.3760502 0.10235131 0.26923412 0.15422803 0.1845917 0.22943482 0.2249347 0.15424535 0.26151615 0.21097787 0.11266159 0.13185175 0.17980349 0.16013329 0.1820508 0.39048594 -0.0003172718 0.11484613 0.49926376 -0.010969534 0.56194395 0.5525397 0.28867882 0.43207175 0.24940413 0.31787577 -0.22160691 0.4038244 0.41316092 -0.18790002 -0.2053855 0.4291693 0.4203379 0.39090005 0.26546344 0.5586 0.5550283 0.315174 0.34960797 0.26447716 0.5063251 0.4699583 0.3477226 0.38352877 0.30474398 0.051805776 0.110646576 0.05766803 0.23340586 0.28239852 0.3201875 0.4279821 0.4088683 0.40983063 0.22195421 0.4007066 0.16540027 0.06312688 0.4781708 0.07167716 0.45612878 0.5280825 0.5596996 0.555931 -0.04700442 -0.05107534 0.46414423 0.5276153 0.54480076 0.54662883 0.06638536 0.10292857 0.008245919 0.082960226 0.10449764 0.30865258 0.40717375 0.4904492 0.48880094 0.48813435 0.43417016 0.39994097 0.30748996 -0.0056638233 -0.06561146 0.041775584 0.11192074 0.18586421 0.16909051 0.12667587 0.46391064 0.46272236 0.43271875 0.38871017 0.27312055 0.29655233 0.15676518 -0.013746947 -0.00081121264 0.058084473 -0.20346576 0.1933216 0.11948933 0.44918364 0.44128126 0.40977484 0.009753931 0.078027055 -0.070742324 -0.1788 0.1521895 0.4657901 0.0017912537 0.45966733 0.38366234 0.42358488 -0.0614256 0.36089766 0.44634104 0.5261957 0.55787545 0.3970171 0.4003844 -0.14550425 0.10597279 0.60147536 0.58182955 0.44813907 0.44762927 0.5857437 0.56537235 0.4811691 -0.10820833 0.5724143 0.5245862 0.44916916 0.30801755 0.5489665 0.27772886 -0.17969905 0.21988237 0.42933375 0.5057758 -0.045748822 0.07591674 0.12634435 0.2809831 0.13287458 0.06615895 0.09545985 0.23765102 0.46902278 0.26151353 0.25558597 0.4708971 0.24908987 0.19537531 0.3368902 0.20362528 0.18786487 0.17594247 0.1259051 0.29917565 0.08700149 0.35686952 0.3036059 0.11374606 0.30271524 0.27819976 0.14292078 0.04829517 0.14944533 0.14221561 0.096055165 0.37506962 0.03365107 0.023435406 0.55342036 0.604897 0.61034095 0.4127575 0.5851419 0.52655745 0.47453383 0.091579236 0.3415618 -0.16501082 -0.06313143 0.056895066 0.36992925 0.39726058 0.24812484 -0.16212414 -0.045644075 0.0040818825 0.41844386 0.4165859 0.3418573 0.5940838 0.58566225 0.54344356 0.61738026 0.62155044 0.5885452 0.4861065 0.21264061 0.61358464 0.6288906 0.600057 0.39328504 0.26160175 0.29573867 0.21365023 0.59288955 0.5297461 0.27186614 0.08638899 -0.17142889 -0.20779026 0.16864568 0.24808212 0.28108552 0.3019841 0.20715323 0.53007394 0.45571995 -0.018167034 0.3254997 0.38183278 0.40406024 -0.043815255 -0.09629741 0.244521 0.33339947 0.39859545 0.46087527 0.49166867 0.48626277 -0.04896644 -0.112521805 0.11641704 0.34799752 0.54508835 0.5172074 -0.17840713 0.14327061 0.5268084 -0.04903616 0.3541008 0.3938573 0.47503096 0.51656663 0.5229673 0.499735 -0.09302118 0.13174835 0.34378558 0.2962591 0.47504312 0.51815844 0.00052234903 -0.07823489 -0.004880892 -0.36304593 0.033772923 0.45787096 0.45876795 -0.09276396 -0.035987347 0.0416916 0.025699008 -0.25113764 -0.2519607 -0.039837435 0.44853163 0.25415072 0.37954766 0.3798412 0.57277304 0.35074374 0.3107838 0.55248106 0.34598386 0.5180022 0.41952443 0.47439906 0.4545064 0.36336935 0.32199436 0.38753754 0.4159434 0.15770201 0.07774398 -0.274909 0.39759907 -0.2753355 0.22488683 0.13812736 0.25782862 0.11550541 0.2110271 0.06325637 0.14568585 0.0814105 0.15993121 0.03871269 0.13740915 0.24165364 0.2970136 0.12916538 0.3839937 0.029752456 0.39468122 0.3810625 -0.020963028 0.33443344 0.2857396 0.091195814 0.061806936 0.167093 0.008574605 0.40873846 0.054934844 0.5460347 0.12600829 0.13129403 0.18179105 0.5997713 0.6114343 0.56312525 0.50477016 0.1853882 0.18052138 0.20359021 0.5530088 0.46488872 0.22636051 0.12254921 0.2973397 0.10548096 0.11788231 0.37437907 0.41579714 0.3737855 0.008324008 0.0703831 0.3704686 0.5717934 0.5488047 0.51278615 0.58454245 0.58707345 0.5713407 0.50820994 0.18121096 0.3224485 0.5806403 0.6117065 0.01821167 0.030118294 0.11928836 0.07688429 0.22226778 0.41708395 0.56054246 0.14093545 -0.0041236877 -0.027612597 -0.031360514 -0.015106611 0.014942065 0.33738136 0.5585027 -0.12632653 -0.17497624 -0.08370733 -0.016183287 -0.052969545 0.0019017775 0.081339315 0.14504953 0.11905658 0.14746603 0.21349686 0.11317853 0.2671983 0.30930147 0.32112154 0.45571548 0.47060543 0.020492978 -0.12523635 -0.2884196 -0.0017948858 0.03724269 -0.06204052 -0.06988318 0.21893029 0.35391834 0.35883534 0.3723904 -0.07287189 0.41181672 0.39489344 -0.06621489 -0.09384124 -0.049236484 0.45896792 0.41891372 0.41687608 -0.047712512 -0.10206336 0.53911847 0.5435505 0.51018435 -0.47527364 0.10883319 0.22986092 0.4710196 0.52012813 0.40965283 -0.18201493 -0.15064396 -0.04914318 0.01760799 -0.0077142254 0.42926604 0.45710754 -0.06586839 -0.009626608 -0.04972743 -0.18969226 -0.377891 -0.04033485 0.40955558 0.3318996 0.26811367 0.4631846 0.40264094 0.25573227 0.36542273 0.030685827 0.30473655 -0.050006524 0.19016498 -0.14656156 0.28603044 0.2546205 0.2941265 -0.14234853 0.06654401 -0.10990238 -0.022600994 0.018306546 0.06273322 -0.038074177 0.1834804 -0.030472536 0.18449277 0.25832987 0.10714948 0.14688396 0.19331719 0.27140647 0.3788426 0.037234627 0.13765301 0.18562032 0.38052544 0.27710432 -0.30247724 0.29704988 0.114047796 -0.16730168 0.088955455 0.1