# vtk DataFile Version 2.0
Really cool data
ASCII
DATASET POLYDATA
POINTS 7953 float
-29.858852 31.181803 39.004314
-29.91637 30.976366 39.67259
-29.888277 30.992548 40.26199
-29.771267 31.18106 40.943527
-30.105095 31.715662 38.948677
-30.2638 31.624638 39.544994
-30.192705 31.473618 40.326233
-29.903683 31.681892 41.06766
-30.016102 32.335815 38.870598
-30.290945 32.40244 39.559353
-30.251886 32.425995 40.44272
-29.911127 32.39347 41.235058
-29.81359 32.99452 38.918427
-29.973507 33.11109 39.602993
-29.94247 33.21144 40.41501
-29.77552 33.035934 41.2234
-28.669561 28.88351 29.967321
-28.911362 28.903227 30.678112
-28.863743 28.908936 31.304804
-28.854038 29.512035 29.904774
-29.143505 29.496593 30.713749
-29.13136 29.466383 31.266489
-28.829844 29.71072 31.931374
-29.13013 30.377373 39.684277
-28.989334 30.358633 40.49203
-28.744196 30.357676 29.754467
-29.165373 30.376595 30.76693
-29.079693 30.340212 31.377798
-28.693808 30.271866 32.292988
-29.072397 30.588701 38.794415
-29.571129 30.710596 39.559032
-29.457827 30.613234 40.47189
-29.328712 30.886684 41.085808
-28.783573 30.998238 30.207764
-28.835411 31.208107 30.57051
-28.825476 31.122232 31.359936
-28.69594 30.99387 31.764036
-29.298811 31.674206 38.191864
-29.443096 31.493807 41.4415
-28.921217 31.935703 41.800518
-29.070555 32.286987 38.05529
-29.599361 32.27856 41.516857
-29.20965 32.47287 41.745304
-28.865995 33.345947 38.260357
-29.258823 33.3505 38.583717
-29.425465 33.46383 39.242424
-29.565693 33.536285 40.740383
-29.409447 33.432186 41.15882
-28.89577 32.914257 41.746704
-28.95918 33.957615 38.948795
-29.204409 33.88446 40.323288
-29.230186 33.63847 41.051727
-27.869106 28.241013 29.43106
-28.056025 28.264591 30.737055
-28.071165 28.318882 31.214516
-27.907196 28.908766 28.154978
-27.950739 28.623158 28.643627
-28.311192 28.715548 29.560766
-28.5262 28.504856 30.548565
-28.577631 28.59248 31.238775
-28.251377 28.825659 31.926771
-27.901999 29.764593 27.951046
-28.174368 29.493889 28.592121
-28.509396 29.43384 32.250984
-28.284721 29.818827 32.624672
-27.963692 30.097195 37.55968
-28.329052 30.142609 38.67219
-28.24551 30.103619 39.55583
-28.473984 30.241638 40.24921
-28.749598 30.308214 40.851326
-27.804276 30.122272 27.946674
-28.369942 30.124437 29.086653
-28.161098 30.48226 29.31431
-28.125986 30.699455 32.594852
-28.163239 30.493416 32.718956
-28.059948 30.947472 36.813324
-28.159119 30.44978 37.57324
-28.50521 30.595531 41.19186
-27.878462 31.192682 29.074183
-28.332012 31.207644 29.788553
-28.610905 31.374317 30.343447
-28.52507 31.545076 31.340342
-28.346693 31.18036 32.099888
-28.553959 31.76588 41.815998
-28.242155 31.808556 30.902433
-28.014008 31.88855 31.394188
-27.564661 32.205036 35.633297
-28.039421 32.332355 37.025696
-28.70628 32.59466 41.82276
-28.28979 33.441555 37.87088
-28.4827 33.209045 41.817207
-28.176691 34.033634 37.99441
-28.376682 34.53457 39.709084
-28.289968 34.316353 40.609356
-28.39009 33.776287 41.368523
-27.571444 35.852016 36.74177
-28.126968 36.034927 37.94105
-28.244572 35.90295 38.461384
-28.165705 35.9408 39.30399
-27.68118 36.49572 36.73897
-28.1246 36.56625 37.668587
-28.250814 36.283077 38.45739
-28.148632 36.463707 39.27722
-27.585852 36.681133 40.396065
-27.651318 37.401657 36.783348
-28.000092 37.234177 37.647854
-28.102005 37.33577 38.536774
-27.891659 37.361217 39.432617
-27.685114 37.253223 40.04007
-27.607697 37.904114 36.850445
-27.738508 38.05659 37.704544
-27.748465 38.01059 38.4797
-27.332796 28.02972 28.664745
-27.321579 28.032307 29.676388
-27.276762 27.981226 30.582937
-27.432861 28.26016 31.315496
-26.74279 28.749523 25.637617
-27.020098 29.20247 26.743298
-27.715147 28.45682 31.605335
-27.317919 28.823605 32.37506
-27.38667 29.216505 32.7101
-26.788605 29.266941 36.378113
-26.769388 29.121084 37.608517
-26.930035 29.816181 24.646984
-27.294407 29.89868 25.523493
-27.45789 29.707956 27.203253
-27.0004 29.85063 35.68868
-27.364544 29.787743 36.569416
-27.429588 29.62932 37.668385
-27.10541 29.849504 39.336872
-27.420511 30.15915 40.341377
-26.776083 30.319748 41.208294
-26.675465 30.761002 24.339664
-27.071901 30.49858 24.737408
-27.346373 30.464151 25.50607
-27.460205 30.532995 26.434692
-27.545406 30.437656 33.063087
-27.19075 30.535732 35.48504
-27.636608 31.02857 41.61321
-26.897903 31.070398 24.7694
-27.03348 31.227438 25.42927
-27.183516 31.046227 26.188356
-26.987165 31.05147 27.21328
-27.511473 31.040506 28.50759
-27.522264 31.644445 29.42305
-27.633272 31.244623 32.547775
-27.471668 31.095718 36.07504
-27.183197 31.243723 41.918587
-26.773314 31.717587 29.069748
-26.900114 32.271305 29.779287
-27.419401 32.026688 30.541002
-27.10337 32.46429 31.216442
-27.361717 32.49365 34.363754
-26.783 32.73293 42.599316
-26.718288 32.657513 29.927116
-26.830034 33.0324 33.559055
-27.115995 33.141037 34.468105
-27.236788 33.011253 35.22812
-27.568829 33.25258 36.685715
-27.191254 33.18119 42.204754
-27.011404 34.45587 36.496616
-27.508276 33.80633 41.684807
-26.722305 35.812878 35.11094
-27.015675 35.431595 35.772263
-27.378275 35.71237 36.68968
-27.575693 35.60302 40.331867
-26.806053 35.323124 41.24166
-26.806486 36.57231 34.99138
-27.284779 36.894875 35.71659
-27.461006 36.715492 36.241337
-27.344078 36.14955 40.475296
-27.26728 36.315968 40.731876
-26.777052 37.433044 35.26477
-27.207575 37.423985 35.776924
-27.376234 37.248646 40.375885
-27.011276 37.500187 40.839806
-26.899965 38.302956 36.111946
-27.317425 38.364483 36.647423
-27.350697 38.618248 37.464085
-27.42528 38.186016 39.473537
-27.049837 38.347614 40.274895
-26.697718 38.266846 40.940525
-26.827385 38.78359 36.196526
-26.921003 39.025024 36.8205
-27.10844 39.007523 37.329823
-27.192465 38.847294 38.16847
-26.99578 38.753204 39.19345
-26.798725 38.746555 40.10618
-26.57776 44.098076 30.867617
-26.559727 44.027164 31.424381
-26.61702 44.524033 30.758636
-26.756025 44.759544 31.594036
-26.756433 44.942337 32.29512
-26.706007 45.103165 32.92684
-26.74909 45.13268 30.932573
-26.883152 45.582275 31.661907
-26.9334 45.520115 32.45966
-26.794456 45.749607 33.086884
-26.778898 46.172897 31.710728
-26.849804 46.367275 32.491226
-26.750303 46.31075 33.028034
-26.662283 46.660866 32.54231
-25.587954 20.012087 18.013525
-25.707132 20.027943 18.436743
-25.684496 20.529825 17.893818
-25.81387 20.571308 18.405191
-25.779865 20.426033 19.12022
-25.620747 20.791986 19.998255
-25.75497 21.830517 17.829792
-25.878157 21.439428 18.414436
-25.775494 21.38319 19.357523
-25.721037 21.64646 20.025566
-25.70067 22.439064 17.712248
-25.892864 22.490433 18.512074
-25.771547 22.704756 19.403059
-25.539118 22.938576 20.474648
-25.58531 23.091574 23.203127
-25.657223 23.058645 17.860159
-25.677322 23.340876 18.483473
-25.642864 23.569437 19.055918
-25.54167 23.71399 20.329346
-25.655062 23.669046 22.595198
-25.777987 23.63392 23.383793
-25.81514 23.673822 23.890717
-25.53669 24.689661 21.695232
-25.721588 24.643408 22.567455
-25.846718 24.553864 23.338345
-25.63426 24.733524 24.814943
-25.619638 24.995825 26.491844
-25.68504 25.111223 27.349035
-25.612284 25.170578 28.299923
-25.568838 25.110182 21.782799
-25.782873 25.29973 22.675274
-25.773611 25.603037 23.548866
-25.70153 25.447098 24.4536
-25.655706 25.74811 25.872078
-25.769533 25.766468 26.797121
-25.938711 25.70718 27.437737
-25.900959 25.843872 28.39666
-25.808107 26.334835 22.85696
-25.82274 26.60353 23.486874
-25.858715 26.694853 25.549232
-25.883316 26.449553 26.683971
-26.033506 26.479885 27.471004
-26.158619 26.62321 28.382866
-25.958424 26.360971 28.81822
-25.856462 27.181778 29.774258
-25.760054 27.213814 23.00439
-25.982887 27.575994 23.689602
-26.09978 27.42431 25.23756
-26.339802 28.189634 26.181618
-26.578232 27.671162 28.58823
-26.16383 27.798586 30.222862
-26.148682 28.08648 31.255863
-25.788172 28.279144 36.668533
-25.835537 28.211517 37.514862
-25.94189 28.320475 38.055706
-25.692831 28.516619 22.841066
-26.274012 29.04434 23.749508
-26.211908 28.443188 24.580528
-26.43375 28.79952 25.417131
-26.511475 28.333263 27.355392
-26.388979 28.863829 32.70209
-25.815573 28.885124 35.483364
-26.359795 28.771452 36.712406
-26.313082 28.603495 37.678688
-26.234053 28.700218 38.003872
-26.077501 29.070782 38.908035
-25.855047 29.802505 22.95659
-26.193062 29.533602 23.653828
-26.158203 29.64 34.92369
-26.562754 29.774044 35.377224
-26.059273 29.73232 40.57543
-26.067493 29.553442 41.871323
-26.06138 29.877937 42.134254
-25.803692 29.987404 43.171757
-25.89589 30.321497 23.20603
-26.277344 30.509953 23.78011
-26.330877 30.627043 42.52306
-26.01837 30.677492 43.058434
-26.177443 31.243805 24.217093
-26.511415 31.337368 24.601107
-26.632523 31.568117 25.233732
-26.557886 31.456778 26.700897
-26.613026 31.533098 28.340712
-26.64713 31.798912 42.563263
-26.256464 31.887762 43.092163
-26.170998 31.6777 24.927397
-26.500118 31.734722 25.482903
-26.177156 31.740932 27.23708
-26.325869 32.055336 28.569515
-25.865047 32.139866 43.51391
-25.987886 33.312805 30.654226
-26.161188 33.296066 31.577616
-26.18184 33.71046 32.471264
-26.715353 33.140038 42.637936
-25.738733 33.716156 31.04823
-25.850092 33.869762 31.425083
-25.890701 34.294342 32.623516
-26.169827 34.461803 33.63269
-26.452263 34.146976 34.886745
-26.449718 34.27699 42.093697
-25.824799 34.980976 33.565563
-26.335348 35.381 34.91931
-26.66394 35.52511 41.529514
-26.207298 36.259254 34.37713
-26.580729 36.39811 34.805836
-26.013489 36.41751 41.81368
-26.26856 37.248898 34.730045
-26.437967 37.82475 41.281982
-25.649567 37.735035 41.96697
-26.426943 37.82501 35.046413
-26.452642 38.2228 35.490414
-26.364822 38.446472 41.15168
-25.593534 38.357758 42.126137
-26.282274 38.92838 36.060135
-26.337265 39.26457 36.59472
-26.267456 39.458954 37.398815
-26.504297 39.14838 38.69416
-26.632338 39.083363 39.60407
-26.109089 39.18884 40.25869
-25.948875 38.777504 41.033646
-26.096241 39.556057 37.39498
-25.81407 43.219604 30.65646
-25.921833 43.24828 31.119982
-26.052362 43.890892 30.115442
-26.268614 43.822495 30.487202
-26.367579 43.815914 31.355389
[...]
POINT_DATA 7953
SCALARS features_00 float 1
LOOKUP_TABLE default
0.6928689 0.6930411 0.7123895 0.736865 0.77353984 0.81695044 0.8038384 0.78399146 0.71073693 0.8391287 0.8734258 0.7569993 0.60974 0.71106875 0.73256266 0.679382 0.60492086 0.67663026 0.72047544 0.662934 0.76978385 0.79485774 0.7744349 0.5346258 0.5520092 0.5879475 0.7578831 0.7671231 0.7073803 0.5025867 0.6149124 0.6358525 0.6663071 0.58859897 0.61369824 0.6795924 0.6814479 0.5906346 0.7068409 0.5916608 0.44467872 0.7063805 0.6173994 0.36566344 0.46321434 0.56619346 0.63069844 0.6028328 0.53973204 0.407337 0.5619582 0.56387794 0.44332302 0.52511287 0.5466742 0.38723928 0.4244022 0.54105073 0.5923418 0.6508324 0.6748756 0.3546087 0.45331237 0.749422 0.70766085 0.2506773 0.34290335 0.37264273 0.44802904 0.5223475 0.32620537 0.47927576 0.4556258 0.6464392 0.65744925 0.29125953 0.29340976 0.528759 0.34308556 0.46570998 0.544449 0.6240866 0.6436551 0.5362674 0.5210024 0.5329782 0.08285028 0.1534813 0.51116884 0.20348287 0.44381958 0.08014506 0.2827747 0.31561553 0.39728624 0.28830934 0.3457603 0.32875615 0.2934123 0.3709894 0.4087899 0.40725058 0.38300252 0.28838307 0.45958245 0.4578008 0.4752827 0.41834557 0.3501994 0.49912095 0.5086001 0.490685 0.27417603 0.35862038 0.38099587 0.42801464 0.20222926 0.2736387 0.5084147 0.5127834 0.6049926 0.23743273 0.25237167 0.4799087 0.4709714 0.32822958 0.24185267 0.23404907 0.2223161 0.12891668 0.23609963 0.19460037 0.44017246 0.48857778 0.50183207 0.4233526 0.5890484 0.2499484 0.39661294 0.45231438 0.46024275 0.43356103 0.24387084 0.25557807 0.2931873 0.5469725 0.258546 0.27464002 0.15832597 0.17367586 0.3168079 0.20589727 -0.004823091 0.16314149 0.11478007 0.009616956 -0.035098575 -0.052646223 -0.095698565 0.16448812 -0.041352022 0.17435269 0.23124263 0.20481128 0.26399475 0.16044691 0.060780063 0.3286366 0.39228496 0.3834913 0.23002797 0.2157712 0.42170328 0.44508934 0.3074498 0.26153383 0.5122167 0.52656066 0.5379953 0.4142393 0.33211744 0.2696267 0.5338857 0.5519229 0.54959285 0.5106361 0.41487545 0.32685715 0.55676675 0.58579576 0.5589343 0.6451568 0.7138074 0.7477833 0.61336493 0.73631394 0.7877561 0.7960806 0.7403686 0.79087067 0.7945552 0.7608352 0.8582084 0.8195249 0.8221532 0.7676344 0.697679 0.50389093 0.6973309 0.67724687 0.556613 0.4013587 0.6536825 0.5616299 0.4215865 0.22493796 0.18343982 0.6080426 0.5350373 0.44960898 0.22592951 0.19037047 0.21195237 0.21387157 0.16758183 0.19163433 0.21200074 0.13741562 0.13670667 0.1670882 0.16590273 0.17602679 0.18789962 0.16875604 0.12050493 0.06750692 0.12489319 0.15148535 0.14693867 0.16470645 0.13477707 0.005561959 0.07446675 0.11000757 0.10395625 0.10801771 0.03686726 0.15742591 0.14625485 0.012255215 0.042681333 0.10543884 0.2039544 0.24527133 0.28939018 0.3194422 0.30406857 0.217953 0.3218673 0.19364928 0.21171643 0.114159346 0.26406434 0.19545737 0.26441273 0.29248366 0.28460103 0.17519666 0.31198534 0.3687809 0.1454525 0.21877766 0.009737745 0.2135269 0.23561163 0.29292127 0.35219827 0.40293896 0.22072835 0.24816363 0.37427348 0.4049282 0.40974355 0.27799246 0.09557665 0.19317472 0.18007755 0.359538 0.38326883 0.09771146 0.031339295 0.15031321 0.0008315556 -0.0016180947 0.007441364 0.118661 -0.011171028 -0.0097125545 0.014260337 -0.004656069 -0.06042406 0.05759927 -0.001709111 0.11448939 0.061808538 0.19703822 0.2857604 0.076687455 0.3454389 0.21049309 0.1378174 0.4225179 0.47031268 0.24737582 0.19457445 0.52240026 0.5390745 0.50935495 0.42974943 0.34134454 0.27244803 0.24356928 0.49185002 0.533721 0.5510638 0.50445235 0.5284115 0.5740668 0.58235186 0.4892432 0.5246113 0.6169832 0.6560705 0.68525934 0.4933001 0.74543095 0.6598284 0.6431676 0.6173831 0.58090365 0.43943724 0.34125528 0.48521334 0.61911273 0.6454072 0.7644551 0.71546793 0.7240486 0.71611977 0.6935318 0.65370643 0.6233144 0.7200381 0.7060626 0.7497417 0.7383399 0.9006994 0.8776245 0.8213382 0.9127757 0.89938486 0.86030555 0.7071275 0.609868 0.9004661 0.8656421 0.5312551 0.33320728 0.846598 0.7837835 0.33727324 0.076082945 0.7107711 0.6632554 0.14383496 0.1262626 0.10042196 0.17665362 0.081601426 0.11629497 0.13351035 0.66629344 0.6236957 0.54107666 0.14768617 0.177123 0.13309112 0.14755537 0.1548944 0.58778363 0.5255121 0.34493893 0.21531324 0.16554523 0.14489354 0.16861975 0.16397722 0.5382281 0.48190328 0.35376233 0.1937848 0.1796778 0.09029313 0.15495342 0.109855704 0.1652375 0.1794269 0.12008077 0.122351006 0.16170946 0.12162989 0.20576066 0.15792301 0.24347535 0.29183036 0.32408565 0.30115753 0.16739406 -0.091727085 0.099123865 0.15019187 0.17112942 0.2547805 0.33582786 0.19020812 0.044534944 0.03352727 0.2922037 0.32187238 0.28979248 0.23577756 0.30029082 0.27620262 0.28884566 0.29522985 0.33556327 0.2065087 0.2570551 0.29108214 0.19589603 0.09485151 0.097135514 0.054339807 -0.09349347 -0.03505844 0.07954493 0.0070715584 -0.021188043 -0.0153626315 -0.030070294 0.0014929101 0.0028288849 0.0236409 0.085992634 0.2989753 0.16122434 0.2728797 0.51307404 0.52380437 0.5330268 0.25220266 0.40300164 0.5511793 0.5732167 0.546821 0.48425323 0.45960817 0.2959865 0.22241461 0.28078014 0.45346665 0.56058335 0.57498217 0.3902437 0.18491668 0.2041968 0.20370701 0.46517724 0.5206778 0.4856332 0.5330645 0.5495372 0.48664677 0.46223277 0.5398968 0.4459955 0.25201994 0.23965298 0.30936724 0.5534596 0.48070455 0.37416255 0.38557768 0.42775375 0.17309892 0.546982 0.5496205 0.50706416 0.39000678 0.24765679 0.4523468 0.58781964 0.7105298 0.6001779 0.40153956 0.53206503 0.5905144 0.62768763 0.73829985 0.7506086 0.7365923 0.7055887 0.63385284 0.71466845 0.7266922 0.71478415 0.672379 0.88712406 0.8592482 0.7980949 0.6333836 0.9052603 0.8960334 0.5868995 0.38737392 0.18001792 0.89779806 0.2769462 0.0007635467 0.08041056 0.16695161 0.13970608 0.85115933 0.03832357 0.10954703 0.09164226 0.07977415 0.776255 0.11538681 0.11280196 0.093385264 0.70151377 0.114268154 -0.010867782 0.6507176 0.61052346 0.07232119 0.5470309 0.5138928 0.32165012 -0.10085312 0.040254347 0.065864846 0.44782183 0.14242953 -0.16755186 -0.22306064 0.039151967 0.13685234 0.08703108 0.19975285 0.22845756 0.2687058 0.15571578 0.1900093 0.2282304 0.15524428 -0.0069674253 0.22626618 0.27693695 0.1806792 0.28235346 0.1982632 0.16798489 0.20103736 0.23584387 0.19733956 0.18864948 0.1708019 0.036751613 0.0031515993 0.062739715 0.1332543 0.25535083 0.30723017 0.036232423 0.14522707 0.10309042 -0.052475512 0.27787703 0.30110303 0.12885158 0.046531394 -0.04214434 0.14115956 0.2152678 -0.08736982 -0.02632314 0.28427336 0.42422706 0.3948989 0.056269884 0.4855282 -0.1726374 0.57546806 0.54177123 0.18044586 0.556854 0.56824595 0.5662159 0.31163737 -0.05444401 0.085604355 0.15833151 0.15791038 0.2704627 0.45295304 0.5274364 0.54376304 0.3099877 0.31667364 0.2762973 0.23481637 0.39902002 0.2903036 0.27614978 0.25572607 0.15484892 0.36619103 0.47320443 0.38022512 0.3156798 0.26147047 0.20451236 0.038692184 0.34623903 0.2908376 0.28243643 0.28371346 0.22108102 0.11221743 0.093317136 0.37540224 0.35575044 0.32358313 0.5502831 0.38789377 0.23972774 0.620196 0.25288206 0.35750782 0.27857155 0.65996414 0.2796532 0.28918272 0.6720752 0.6612352 0.6537529 0.5935897 0.58129555 0.8468805 0.8006582 0.7237663 0.16397032 0.20412251 0.23716697 0.8549776 0.83370614 0.7857155 0.68670654 0.17718527 0.22562873 0.18725266 0.117445715 0.8094151 0.7580144 0.163984 0.08183098 0.7266383 0.06936029 0.050063696 0.020563927 0.68483335 -0.008779488 0.043853674 0.035410356 -0.013110066 0.690712 0.64064527 0.022321967 0.030223629 0.019065205 0.005991265 0.61470765 -0.061448976 0.00810561 0.03391369 0.053099718 0.051308658 0.54791963 0.47263873 -0.08957088 0.022737164 0.068907 0.03780549 0.6081171 0.639261 0.6437438 0.48043805 0.012801468 0.16631874 0.16007188 0.24923675 0.53991073 0.6130266 0.61703664 0.10334555 0.20241347 0.21377641 0.15755612 0.16940127 0.38840893 0.4933539 0.5682788 0.15097767 0.10135496 -0.24520512 0.30950546 0.28854257 0.06404482 0.034589417 0.04528129 0.17074816 0.14137694 0.024427254 0.12748474 0.0062469617 0.003230691 0.2709432 0.024078665 0.0026903953 0.33990943 0.0069428645 0.3122449 0.34468067 0.09362688 0.080011904 0.22492471 6.0120597e-05 -0.023352813 -0.051909823 -0.12002499 0.20126157 -0.0031433962 -0.049464166 -0.08727255 -0.15155716 -0.11960298 -0.038365114 0.3367846 -0.097561166 0.023330495 0.0376462 -0.0052043274 -0.25320467 0.4972694 0.025718074 -0.034803703 0.022418886 0.04209733 0.06715284 0.06313324 0.025105387 -0.18662277 -0.019317754 0.5335371 0.5122363 0.2535057 0.2942914 0.23773041 0.07510787 -0.06424012 0.024478208 0.05848524 0.06295838 0.054323778 -0.026877314 0.16118185 0.49145705 0.49524966 0.63703203 0.62331736 0.26756555 -0.035090413 -0.029820047 -0.022910409 -0.11473037 -0.071554236 0.0618005 0.054009907 0.11945235 0.39378572 0.45882106 0.660586 0.63516414 0.5905741 0.25286758 0.27863884 0.24304017 0.65261006 0.23752168 0.19944997 0.3253361 0.2274833 0.1780659 0.3665596 0.40408716 0.25394884 0.092534855 0.45017052 0.4898635 0.26568145 0.163502 0.45514095 0.5082427 0.5223091 0.2676811 0.20880729 0.49124414 0.5231459 0.5309186 0.22238997 0.080500774 0.16657227 0.26548463 0.2830904 0.24884298 0.5730864 0.506552 0.55222154 0.2112452 0.20719257 0.23541448 0.24011971 0.51285523 0.4974625 0.46863204 0.45337814 0.5151168 0.5151784 0.4838549 0.44867152 0.3813153 0.42627698 0.47546685 0.48670626 0.47914732 0.32431924 0.3509878 0.3971812 0.3754013 0.32611614 0.14742312 0.28958505 0.34570378 0.36590934 0.35323048 0.18286979 0.16279685 0.1542351 -0.014050186 0.0086465925 0.15080205 0.2524598 0.3291493 0.3398721 0.32315183 0.14789303 -0.19842109 -0.108928494 -0.07984057 -0.0033850046 0.053240146 0.22178426 0.27674943 0.2732309 0.22052518 0.7269605 0.66837114 0.5748405 0.4448924 0.15281633 0.13010047 -0.08207533 -0.009355324 0.021171866 0.025718816 0.13131917 0.09538003 0.68765736 -0.15908207 -0.15533403 -0.03769215 -0.0071634967 0.007311985 -0.05226117 0.022113733 0.057691712 0.58889747 0.5181103 0.40604997 0.0020812433 -0.063250646 -0.034228764 -0.024202771 0.59604263 0.4359705 -0.06464358 -0.13699049 0.5217849 -0.06867018 -0.02757778 0.008211583 0.023372235 0.5247846 0.033589624 0.056714866 0.06452821 0.6085292 0.64554906 0.66066504 0.5112116 0.026932469 0.43064803 0.5748937 0.6541723 0.6553737 0.6385534 0.12898228 -0.055280797 0.08941362 0.1233264 0.17151687 0.63189393 0.61539936 0.2533278 0.19740164 0.072583966 0.05472809 -0.18816847 -0.12785757 0.096004635 0.5716233 0.580281 0.25481096 0.16498435 0.42250386 0.40181628 0.093962066 0.09348233 0.22467697 0.05755368 0.051844317 0.026835028 0.008705618 -0.005020666 0.010643594 0.36869118 -0.024129022 0.3827905 -0.016207421 0.012295549 -0.07880856 0.37180203 0.013707227 0.018900216 -0.0045321938 0.2824031 0.3276521 0.02480825 0.06048633 0.05936472 0.19281825 0.09884472 0.07962582 -0.010965854 -0.056531027 0.06472324 0.05743417 -0.009459317 -0.10048483 -0.12288632 0.3461635 0.10367185 -0.04865016 -0.03093864 -0.1744114 -0.3068441 0.5490278 0.56596327 0.54856706 0.51884204 0.12649044 0.1451519 -0.1456263 -0.25522432 0.40730885 0.610384 0.63126266 0.5923505 0.5396985 0.1998834 -0.17200835 -0.12853506 -0.11538306 -0.13448466 -0.053213652 0.15036596 0.4100126 0.6736419 0.6790029 0.673228 0.5484223 0.47785157 0.1464006 0.21784055 -0.24475037 -0.4055891 -0.16588415 -0.14187883 0.11711103 0.18347633 0.2002992 0.70241636 0.7056693 0.6600261 0.6205706 0.38741523 0.13581689 -0.107420154 -0.21108146 -0.10701078 0.27035502 0.33524966 0.38583696 0.35771933 0.6857861 0.6737536 0.13967545 -0.15338895 0.2480695 0.5105163 0.004601104 0.0922262 -0.13330147 0.17272735 0.5305594 0.536137 0.06984201 0.44386363 0.54233956 0.5451336 0.14642827 0.2808366 0.47007746 0.5334752 0.5451277 0.5450369 0.2338424 -0.09825843 -0.08987905 0.22104523 0.50172484 0.5410434 0.5625418 0.25511605 0.09234618 -0.025073439 -0.025721226 0.15781942 0.17267323 0.19099419 0.5240949 0.36483765 0.58320177 0.57423455 0.5083227 0.45918393 0.49679974 0.47304612 0.43410313 0.3708787 0.44673958 0.46873093 0.43204406 0.43248168 0.3894251 0.28963053 0.1261046 0.23695326 0.3233986 0.34691727 0.3216543 0.39211142 0.34604868 0.3613503 0.16629313 0.3424273 0.30712283 0.24580505 0.2709972 0.18915284 0.17045 0.16283482 0.09662806 0.09270931 0.078458846 0.040377866 0.3148923 0.06826085 0.07984456 0.23755245 -0.1167576 -0.066285424 0.030022856 0.056490544 0.06665889 0.2366364 0.10641258 -0.11803037 -0.06457515 -0.038482644 0.23383805 -0.057783816 0.020500395 0.050128657 0.20862219 0.07085546 0.04147423 0.053512264 0.0754133 0.39900088 0.5948814 0.653147 0.6448592 0.3228177 0.08172614 0.046914082 0.434274 0.62895197 0.6048666 0.28374025 -0.13987926 -0.14738905 0.5711484 0.31224287 0.5402467 0.2950427 0.3551404 0.14420803 0.0239382 0.077840716 0.003258463 -0.04136277 0.18507706 -0.11416558 0.19943105 0.3304298 0.18634158 0.11823385 0.06019304 -0.0434308 -0.06740274 0.34530815 0.16309193 0.14114667 0.04340794 0.013502892 -0.06796241 0.36017907 0.15055408 0.18385485 0.15862466 0.10939026 -0.046179857 0.24640532 0.3219465 0.14885908 0.19307065 0.20279709 0.18200688 -0.008066925 0.20146516 0.20702183 -0.016610965 0.022554517 0.22572087 0.3788579 0.3488184 -0.08799437 0.31822395 0.26152807 0.4287207 0.37748152 0.4649728 0.34749454 0.38729507 0.05769418 -0.25758243 0.26692197 0.29038912 0.48143864 0.51860636 0.382659 0.27179128 -0.39669502 0.099079534 0.26833913 0.24753168 0.6400279 -0.32455656 0.29941085 0.262023 0.6663833 0.6727741 0.33605716 0.63232934 0.6165227 0.19090405 -0.002149107 0.42898244 -0.039452724 0.50292873 -0.067196295 -0.109789446 0.5373056 0.52397835 0.014224948 0.555368 0.5421626 -0.19062704 0.08616778 0.57011855 0.5871427 0.36627018 0.28183922 0.06790522 -0.16655323 0.30907297 0.027767815 0.079333134 0.30374926 0.23836151 0.029151618 0.33152357 0.31627333 0.5249246 0.5937798 0.5891935 0.5187167 0.42888945 0.6122645 0.620173 0.5856099 0.824602 0.84444726 0.8386378 0.79999804 0.81837577 0.81993884 0.81048 0.32728523 0.33183226 0.29377875 0.74048114 0.77100205 0.7703933 0.42815107 0.41138715 0.42177242 0.3776902 0.29961693 0.26999456 0.20604065 0.52814686 0.48369455 0.45577997 0.1996798 0.08128392 0.1634024 0.24192616 0.4969619 0.45531917 0.24112599 0.4593838 0.030491464 0.13021913 0.34179676 0.11227639 0.11840759 -0.03309704 -0.010404069 0.052612305 -0.01764762 0.036671553 0.028682414 0.046719536 0.02747349 0.05583093 -0.024451084 0.0057914443 0.029332846 0.5306231 0.52958995 -0.08693683 -0.13922966 -0.04653219 -0.05036354 0.40296295 0.51198953 -0.032597255 0.009550221 -0.045723453 0.061705828 -0.07476977 0.48500854 0.56242734 0.55347735 -0.18149284 0.07371256 -0.19292521 -0.12324454 0.5051122 0.5433177 0.3010442 0.14870057 -0.16224982 -0.20229118 -0.24240923 0.44682407 0.44242477 0.33692443 0.27881846 0.33521494 0.20457016 0.04140063 0.18343642 0.23906434 0.1592174 -0.14344634 -0.36379245 -0.2884623 0.28376126 0.17977497 0.13919711 -0.024625463 0.005012635 0.41432416 0.3690399 0.2951263 0.21355593 0.09948586 0.0131943375 0.4108867 0.3679381 0.2343455 0.21297018 0.25134033 0.36951607 0.2643621 0.17821299 0.32234767 0.18618877 0.10227373 0.12110325 0.07828763 0.11281916 0.102703944 0.12186243 0.12203647 -0.082143284 0.21181634 0.014311343 -0.13102417 -0.34688804 0.2738656 0.20951201 0.23740658 -0.17325176 0.28583688 0.3117365 0.35386252 0.37276232 0.2466023 0.2851586 0.364335 0.44087386 0.008856818 0.5002248 0.2512685 0.5247073 0.30935448 0.51678634 0.4984766 0.449476 0.30006555 0.36906484 0.4480534 0.50467956 0.4681099 0.42438787 0.54153574 0.55440545 0.42791778 0.5363368 0.58912754 0.5866846 0.56496096 0.5767001 0.0776344 -0.008919906 0.57908833 0.5254209 0.4008466 0.31584305 0.25693706 0.025490277 0.28809685 0.22680429 0.40967512 0.44515333 0.45013517 0.27529752 0.5510721 0.5974377 0.6307365 0.58489263 0.604228 0.8256117 0.85009664 0.84963775 0.8186277 0.85368073 0.8397459 0.81952596 0.7445889 0.80357903 0.24642554 0.2552693 0.25373644 0.25325614 0.70663434 0.7735716 0.32134265 0.34297612 0.2430782 0.5909449 0.5689122 0.5514351 0.51382715 0.4302542 0.17225195 0.33046976 0.53837794 0.6032126 0.5343126 0.56058824 0.1144491 0.21158889 0.40340716 0.5781579 0.5834075 0.5031317 0.20743185 0.3139362 0.44516605 0.4991023 0.34071058 0.061272956 0.1850099 0.2712531 0.23667969 0.06871718 0.11994798 0.020140711 0.057001594 0.060249902 0.43677822 0.4774925 -0.023481276 0.06360652 0.040074192 0.47797585 0.52880913 0.5189288 0.029162928 0.3111533 0.45645213 0.52451813 0.5038183 0.48040938 -0.12295632 0.11233169 0.30290356 0.3517966 0.42245293 -0.32671982 -0.28173727 0.045036033 0.028338846 0.18560159 0.30618963 -0.3681133 -0.20092387 -0.11703072 -0.2085203 -0.23205656 -0.25051332 0.37204066 0.4136356 0.082253724 0.25883067 0.2645311 0.30306447 0.25667375 0.22121105 0.37667978 0.37622333 0.18832722 0.33962387 0.34801272 0.3683579 0.31751955 -0.1766437 0.4365817 0.4091325 -0.027359791 0.44333708 0.4325296 -0.0990991 0.3986398 0.3755468 0.08633429 0.3635353 0.27935335 0.13732815 0.49366888 0.55343723 0.21361555 0.15427226 0.08546958 0.54122823 0.5700284 0.14068693 0.0728223 0.2712552 0.1456962 0.1020182 0.33653998 0.2366884 0.23058727 0.3626759 0.2701013 0.20998228 0.30715328 0.34761864 0.32724112 0.36820957 0.3364513 0.3906793 0.36279452 0.3082356 0.27636713 0.36132777 0.29914993 0.21518265 0.11286007 0.33858436 0.0069725662 0.40763074 0.45982248 0.4295876 0.51293075 0.49603462 0.596215 0.49147293 0.5674941 0.553615 0.59489155 0.59590673 0.07722929 0.55956066 0.5653528 0.57074726 0.4761793 0.1217139 0.11393306 0.18959157 0.09552595 0.07237974 0.06077898 0.03617546 0.27771476 0.38479912 0.48466125 0.5247954 0.5453277 0.4216345 0.5409651 0.5773499 0.7716778 0.8211668 0.82553214 0.66308844 0.7479731 0.8243927 0.8013081 0.70281434 0.7524134 0.7145394 0.14533299 0.16633418 0.22732168 0.23031735 0.24262753 0.467145 0.21715932 0.35172352 0.536587 0.5629134 0.45515063 0.32620692 0.60235167 0.6148046 0.52499676 0.6023387 0.46636483 0.5458025 0.35754377 0.2621264 0.38805032 -0.010390394 -0.020269115 0.37692463 -0.085407004 0.025296029 -0.011300288 0.27608165 0.33230865 0.3917132 0.43963867 0.0061400384 0.003664244 0.3350174 0.41983497 -0.04664262 0.2558846 0.33942586 0.21689531 -0.23123068 -0.11563176 -0.125535 -0.018668905 0.07759523 0.34901857 -0.007841492 0.14238092 -0.09248209 -0.24569894 -0.2901494 -0.42117566 -0.1635575 -0.069254145 -0.22631088 -0.3024151 -0.33758464 0.01967083 0.13845333 0.37444568 -0.019289844 0.12551555 0.3873456 0.034184784 0.3518147 -0.24040364 0.5221859 0.34380835 0.5739331 0.50389624 -0.15435134 -0.06296067 0.53594035 0.4734335 0.20527229 0.46150193 0.41642505 0.27190292 0.4873845 0.40024918 0.34819943 0.58089256 0.595404 0.29113355 0.23221564 0.5949318 0.23104258 0.20116097 0.17763539 0.54316735 0.5801921 0.219695 0.33234715 0.31874576 0.3010147 0.29838562 0.2508263 0.34754515 0.29696852 0.28193247 -0.10062103 0.07900159 0.26635483 0.2867792 0.28202823 0.27332228 0.00040462613 0.25268236 0.20867988 0.1827729 0.150999 0.25246936 0.1258331 0.10727237 0.0624049 0.32824552 0.01056309 -0.029183373 0.3691073 0.2741841 0.40840572 0.41948903 0.47752148 0.4657454 0.5433981 0.52681553 0.53072417 0.5121213 0.5597728 0.33312038 0.5653808 0.54334426 0.467748 0.17892745 0.29599386 0.14541936 0.044132445 -0.025015004 0.046900555 0.00035169348 0.24777344 0.047574453 0.31385323 0.44632608 0.48122293 0.4729918 0.50178623 0.5273682 0.70353425 0.73013943 0.7557686 0.6183523 0.6426207 0.7366419 0.71491575 0.2250534 0.58468103 0.5780219 0.04102405 0.0988674 0.17486987 0.2113386 0.2272411 0.5429028 0.46090317 0.2599964 -0.01161328 0.5267414 0.5609114 0.26271257 0.58189887 0.59303164 0.2168651 0.61508393 0.71292067 0.75467825 0.7532941 0.5353271 0.6256033 0.68878746 0.7231599 0.6856495 0.08600952 0.30320042 0.038716882 0.38006637 0.5757321 0.57746726 0.63401663 0.64282095 -0.008997165 -0.04526664 0.004239965 -0.069537684 0.48005062 0.58501935 0.6292758 -0.1478064 -0.00043822825 -0.067359805 0.11741419 0.54389715 0.116486855 -0.035289507 0.3767901 0.21970466 0.12396833 0.08949