# vtk DataFile Version 2.0
Really cool data
ASCII
DATASET POLYDATA
POINTS 8027 float
-0.564203 55.149326 63.193928
-0.61692905 55.711643 62.75014
-0.6414629 55.39761 63.425312
-0.60115147 55.944157 63.951572
-0.626457 56.32708 62.885098
-0.6637131 56.436234 63.385067
-0.5738801 56.144245 63.832127
0.33760044 53.269215 63.127422
0.042593867 53.913174 62.584915
0.09976748 53.66776 63.610703
0.15793535 53.745388 64.1408
0.03816536 54.608883 62.0697
-0.27831525 54.634342 62.609795
-0.42000407 54.56197 63.40516
-0.2278237 54.82919 64.05324
-0.005166918 55.53142 61.957962
-0.46999136 55.566784 62.390568
-0.06635192 55.598606 64.55732
0.023295015 55.794533 64.74563
-0.103643924 56.300133 62.16314
-0.46714118 56.476536 62.567207
-0.51313967 56.69013 63.5661
-0.2736294 56.508015 64.18857
-0.021066993 56.17262 64.659294
0.033729807 56.811203 62.289024
-0.14191094 57.01965 62.82712
-0.18145296 57.147778 63.475098
-0.022100419 57.147358 64.02509
1.1762822 49.693882 64.620384
1.1828495 49.692226 65.51241
1.3056968 49.783947 66.4745
1.3948225 49.986176 66.875206
1.0055625 50.60335 63.971645
0.92195773 50.490967 64.37684
0.9497689 50.400967 65.40832
1.1061807 50.44117 66.411156
1.364207 50.46158 66.94859
1.2242357 51.223495 63.17345
0.96914226 51.913292 63.450314
0.91092396 51.03226 64.150856
0.854928 51.414185 65.21657
1.3660907 51.301308 66.73759
0.5254484 53.085705 62.916893
0.5356479 52.566315 63.731773
0.59245735 52.544765 64.063545
0.6757628 53.696625 62.103794
0.8941411 54.13444 65.31282
0.7345608 54.620167 61.60838
0.93794644 54.620506 65.528175
0.60314447 55.522373 61.61157
0.8876281 55.540195 65.558525
1.1568556 55.411613 65.79027
0.55396676 56.173893 61.82546
0.59999484 56.488617 64.93859
1.0576402 55.868076 65.63397
0.6695468 56.898 62.273556
0.6159327 57.310894 62.757557
0.28887162 57.458652 63.480602
0.6229127 57.26398 64.258995
1.135646 59.044502 46.58277
1.1548445 59.066055 47.24845
0.76470864 57.53308 63.569008
1.1390225 59.883713 45.9162
1.044631 59.525692 46.605732
1.0641946 59.449265 47.225883
1.283111 59.55277 47.881416
1.2119493 60.331623 45.880737
0.9971746 60.196766 46.671696
1.0859656 60.284126 47.224575
1.3938339 60.151447 48.11633
1.2926848 61.011463 46.43976
1.3252412 61.044456 46.914864
2.4116971 45.688873 58.994923
2.3773687 45.599087 59.642227
2.4269466 45.479214 60.054928
2.4486153 45.989323 58.912704
2.3512383 46.26546 59.554043
2.4446511 46.505337 60.130524
2.058762 49.260338 63.652905
1.8717694 49.077137 64.9494
1.8076584 49.13259 65.3825
1.9204615 49.290718 66.54439
1.8458623 50.074314 62.84043
1.4088818 49.57554 64.01367
1.3717653 49.486153 65.41335
1.4893034 49.552082 66.46409
1.7015152 49.930153 67.182465
2.3599942 50.44978 61.54133
1.6214509 50.511047 62.811718
1.7555598 50.43507 67.330185
2.0730546 50.416225 67.51253
2.3673794 51.290215 61.049545
1.7222009 51.151665 67.10644
2.0706503 52.456303 61.90638
1.1865907 53.582783 61.773083
1.6911167 53.75877 65.83681
1.3971808 54.92185 61.332184
1.618895 54.584126 65.96504
2.49698 55.41195 44.970886
1.5238584 55.17786 61.356007
1.5501369 55.739513 61.49274
1.5960333 55.514034 65.91869
1.3653567 56.330364 61.819057
1.6878167 56.471237 65.42828
1.784362 55.994415 65.79397
2.038175 58.290802 46.453995
1.6990496 58.35537 47.079445
2.295546 57.9597 48.456688
1.0302765 56.896694 62.201134
1.3848097 57.16574 62.622658
1.5695975 57.45905 63.542927
1.4167647 57.284122 64.437416
1.6622121 56.876743 65.04061
1.7249095 58.87364 45.863842
1.6360549 58.610207 47.69216
1.7914425 58.736916 48.222244
2.3191123 58.36567 49.164413
1.2706052 57.534225 63.590073
1.9158227 59.839443 45.063328
1.6026044 59.870872 45.44418
1.69508 59.464634 48.341
1.9366827 59.35865 48.76087
1.6282362 60.358875 48.229004
2.1600819 60.373158 48.947727
2.2912402 61.70611 45.20063
1.4956708 61.35366 46.380257
1.646788 61.232933 47.282223
2.042404 61.280823 48.29106
2.0218992 61.744522 45.977615
2.0559351 61.76325 46.32116
3.3599873 43.997154 59.73591
3.3645003 44.184517 60.28901
3.149975 45.08608 58.10906
2.9131057 44.96358 58.662445
2.737082 44.85286 59.530914
2.7882707 44.955 60.305454
3.1878011 44.795586 60.826897
3.0659502 45.538303 58.02795
2.628687 45.482407 58.728355
2.5084832 45.257793 59.316177
2.4965715 45.56288 60.222763
2.8298016 45.6598 60.871502
2.9942565 46.115665 58.075447
2.6022954 46.396133 58.72303
2.6148536 46.384827 60.623367
3.0549054 46.668865 61.308968
3.2117155 46.947845 58.1102
2.983142 47.527103 58.80475
3.0770411 47.390068 60.999516
3.282656 48.071957 61.93159
3.1252615 48.44255 64.18079
3.093623 47.985878 58.866013
3.1606393 48.799442 60.154324
3.3056793 48.52999 62.422543
2.436681 49.209435 63.236683
2.2455673 48.754154 64.7236
2.702791 48.880096 65.60017
2.6163902 49.054134 66.28692
2.8792188 49.879066 61.161457
2.4613848 49.81801 62.32906
2.3604178 49.87893 67.3239
3.2638547 50.52196 59.794327
2.7006617 50.572475 60.88205
2.4512482 50.641426 67.46784
2.2970052 50.59834 67.54209
2.8977323 51.373203 60.349335
2.4814014 51.24975 67.339935
2.779818 52.215176 61.113964
2.4272282 52.33238 61.40945
2.6772296 52.462486 66.35742
3.141078 54.105476 44.83255
3.1654074 54.09439 45.349472
3.0915837 54.252426 45.913902
2.5328164 53.02622 61.4232
2.7962875 53.084927 66.05045
3.234805 54.798344 43.883644
2.8039546 54.64321 44.720615
2.7746441 54.660717 45.411713
3.0399115 54.71968 46.17587
2.0397825 54.91212 61.394814
2.3423812 54.65612 61.50574
3.384676 56.07364 42.94111
2.991768 55.52218 43.788033
2.6639245 55.287315 44.672596
2.574975 55.410862 45.20023
2.995699 55.377533 46.311466
2.0421882 55.23603 61.407215
2.3455536 55.490395 61.55639
2.446415 55.453625 66.00936
3.2620044 56.581364 42.89003
2.9890523 56.433422 43.691452
2.862222 56.06954 44.26616
3.3835416 56.1245 46.72548
2.7091606 57.31406 47.307034
3.1327813 56.900734 48.37577
3.2469294 57.01395 49.869278
3.3751745 57.10189 50.323936
2.469921 56.09427 62.017654
2.6218743 56.637657 62.596684
2.5715 56.595173 65.45325
2.3603404 56.153423 65.73212
3.1848087 57.094852 43.196964
3.2281191 57.5863 44.559994
2.6527896 57.558353 46.595646
2.5929406 57.79679 47.320946
2.5677207 57.463745 48.497055
2.762813 57.68111 49.393974
3.144278 57.61026 50.012596
3.417137 57.453983 50.929375
2.3650272 57.069916 62.99429
2.4308138 57.41338 63.675735
2.416566 57.36422 64.432976
2.616677 57.012733 65.06039
2.6276178 59.03799 44.92822
2.4714437 58.625183 49.515705
3.055743 58.420406 50.43796
2.4028404 59.5754 44.89048
2.3967018 59.62549 49.35924
3.005066 61.04128 42.86088
3.02029 61.051517 43.483253
2.5907087 60.38246 49.387337
3.1502254 61.716457 42.159172
2.8583157 61.663326 42.577732
2.6210492 61.526993 43.313267
2.5715177 61.62169 44.492317
2.6541846 61.258656 49.049587
3.1417904 62.301952 42.240772
2.9071918 62.423943 42.61087
2.7054155 62.56809 43.628986
2.4646125 61.90581 47.299053
2.9070592 62.01567 48.41726
3.0472305 62.996414 42.935482
2.9654722 63.163395 43.651703
3.1964412 63.39458 44.129097
4.2588506 43.248436 60.242153
3.5144105 44.153305 58.986317
3.485968 44.03012 59.3069
3.4571786 44.09915 60.364067
4.2994213 43.441334 60.98142
3.519949 44.980476 57.929657
3.4437523 44.5963 58.456398
3.775986 44.373604 61.415924
4.130642 44.57257 62.18818
3.6164973 45.47157 57.683228
3.619769 45.24733 61.549362
3.791039 45.581875 62.240406
3.9301953 46.0039 57.44115
3.5310507 46.23155 57.66064
3.633945 47.37958 58.013824
3.9409509 48.3693 63.920547
3.4772305 48.83607 65.51383
3.0333917 49.165714 66.30234
4.1660705 50.064022 57.95938
3.8323588 48.91174 58.658817
3.4473364 49.64554 66.5466
3.1539536 49.89537 67.10413
4.1592774 50.702927 57.97953
3.627587 50.44829 58.87194
3.1632938 50.453728 67.2154
4.2263713 51.193275 57.8843
3.7922485 51.481937 58.664555
3.5198584 51.47776 59.385353
3.0638885 51.389362 67.15509
4.0477266 51.981915 58.67499
3.7909164 52.16974 60.3073
3.9733324 53.9794 44.04822
3.8011224 53.727757 44.753235
3.7708142 53.692127 45.434486
3.7240672 54.064014 46.365307
3.7802489 53.341858 62.07882
3.8408012 53.725586 65.99318
3.9278536 55.133247 43.010735
3.6201663 54.613724 43.701572
3.5879147 54.615845 46.78923
3.4660423 54.561398 66.01588
4.081982 56.057865 42.365295
3.782597 55.75566 42.677803
4.1832457 55.824944 48.348957
4.370616 55.61777 49.710747
2.7355003 55.732075 61.889763
3.5105069 54.999104 62.508694
3.21025 55.2993 65.88219
3.9006681 56.52657 42.257774
3.6310096 56.527493 42.499718
3.8499308 56.49349 49.502575
3.644077 56.62533 50.47931
3.954953 56.621372 51.56067
4.2971616 56.406025 52.504993
4.2979984 56.576584 52.838295
3.2392797 56.31549 62.77608
3.3964953 56.50103 65.214386
3.174567 56.01651 65.62751
3.9760897 57.163307 42.26399
3.5276594 57.123596 42.604355
3.9821315 57.495834 52.172577
3.1417048 56.92591 63.208305
3.220921 57.183132 63.74241
3.3109403 57.158237 64.47305
3.2012172 57.01837 64.891556
3.8426697 57.97752 43.128628
3.531681 57.835056 43.89551
3.7416656 58.6903 51.532917
4.1162963 58.49819 52.100246
4.0390134 59.30293 51.48765
3.7249513 61.132454 42.109615
3.729305 60.685368 42.70628
3.761593 59.7442 50.55437
3.6706069 61.602062 41.926342
3.4869814 61.431744 49.246296
3.638431 62.359413 41.982845
3.4171216 62.5456 46.049397
3.305563 62.35814 47.79137
3.4479518 62.275547 48.295334
3.374848 61.884533 48.888103
3.6380215 62.888836 42.257435
3.5172527 63.24146 42.796726
3.3667173 63.516903 43.660957
3.3944893 63.484264 44.241524
3.901978 63.37575 45.298355
4.0729136 63.108665 46.19504
4.056055 62.838715 47.439064
3.9594772 62.68658 47.893665
3.9441745 63.55938 43.073746
3.6851816 63.694286 43.664024
5.480466 39.165813 53.46539
5.468128 39.338432 53.880867
4.837123 43.042683 59.589012
4.568869 43.17302 60.46679
5.0578365 43.01297 61.191174
4.7602854 43.908546 58.645866
4.458975 43.60734 61.327587
4.4215474 44.817944 57.784378
4.989501 44.602684 63.190514
4.5659294 45.33245 63.122982
4.1585226 46.2385 57.465054
4.862003 46.888706 57.716164
4.6643953 46.716473 63.434258
5.1636744 47.990273 53.341446
4.381364 47.316334 57.766808
5.000173 47.425335 63.85032
5.318188 48.936928 51.62588
[...]
POINT_DATA 8027
SCALARS features_00 float 1
LOOKUP_TABLE default
0.7601818 0.84596384 0.78154695 0.80794436 0.8955358 0.8797153 0.8317444 0.42441505 0.5913474 0.47801754 0.48424488 0.7405353 0.7128792 0.6621301 0.68258584 0.8374774 0.8448319 0.70284134 0.6990695 0.90008986 0.9174565 0.8944947 0.8359206 0.749313 0.9257635 0.95205367 0.9445901 0.9087 0.51798046 0.63719916 0.7623843 0.8003502 0.3345314 0.40365222 0.58911294 0.7336011 0.7916584 0.22003841 0.1958482 0.29426077 0.4293034 0.73940814 0.3809894 0.26424882 0.23390785 0.54805684 0.5533649 0.6712947 0.54016924 0.76971734 0.58200586 0.56967735 0.82859296 0.7236351 0.6032616 0.88594764 0.9259429 0.95563257 0.88816136 0.6008357 0.56000876 0.9237722 0.6433661 0.6375481 0.5971159 0.5382567 0.63123 0.6532377 0.6292246 0.54942775 0.6052872 0.6105644 0.60057783 0.5690272 0.53907454 0.60242313 0.56909335 0.5091304 0.40416667 0.58737123 0.6460932 0.8006809 0.29151177 0.4491496 0.63665855 0.771464 0.82361674 0.18644091 0.2695068 0.82014644 0.8221338 0.15888406 0.75809926 0.17599817 0.44713312 0.5088487 0.6073842 0.52708465 0.57436895 0.62465954 0.6623277 0.57321876 0.72937965 0.6535739 0.61057293 0.466367 0.45818222 0.302621 0.83386844 0.8252748 0.8463292 0.8249978 0.7174245 0.5590596 0.45133343 0.42027587 0.3128835 0.8738322 0.4212898 0.55678594 0.47188127 0.424816 0.54532325 0.4828053 0.4838564 0.5656959 0.5918021 0.5825294 0.49701422 0.4952092 0.49613726 0.45465988 0.6129293 0.6046939 0.56685805 0.5090804 0.44224918 0.6093769 0.60747415 0.58436805 0.5225299 0.44843632 0.59662485 0.59992087 0.4514801 0.32306042 0.537629 0.48291788 0.285928 0.07220416 0.4492147 0.3547792 0.17812504 0.08899273 0.30713105 0.55234337 0.6525998 0.78421915 0.111140214 0.2054002 0.8545656 0.14472465 0.14923699 0.8058815 0.8111568 0.16546115 0.739367 0.14014739 0.16397686 0.46498847 0.640783 0.61151063 0.55840886 0.23268099 0.38266313 0.60379016 0.6297296 0.58971214 0.4997281 0.54610336 0.47821262 0.5526763 0.566762 0.60124016 0.5539417 0.40166572 0.58333933 0.57033795 0.5749568 0.5490458 0.5113552 0.5242759 0.10947602 0.1803026 0.1375693 0.18507507 0.21260437 0.6156467 0.6733665 0.6699419 0.62893105 0.5248374 0.3262853 0.23386747 0.28797328 0.23352157 0.23736683 0.23029652 0.32221934 0.74606854 0.7968517 0.7970166 0.72594976 0.21487758 0.31016907 0.32337686 0.26216647 0.38394302 0.67981637 0.5869791 0.44111326 0.79315805 0.7669761 0.6748755 0.5214313 0.52596426 0.81067437 0.7906598 0.6749436 0.48470592 0.44898176 0.7296475 0.6468319 0.57653975 0.32156858 0.5622089 0.531685 0.43686914 0.27010378 0.6008829 0.60104966 0.34822991 0.28732547 0.5734266 0.37317127 0.3094048 0.4910525 0.5453089 0.450274 0.3301895 0.61216575 0.7906152 0.13395971 0.13730429 0.78959984 0.8500359 0.2217908 0.18186021 0.7948616 0.2799257 0.301709 0.27551553 0.6815443 0.3703661 0.30100736 0.6371186 0.65149343 0.60161793 0.4862289 0.18781821 0.42676353 0.5611696 0.5979622 0.3752591 0.4521376 0.58879364 0.56521535 0.043046504 0.075290464 0.556463 0.43268013 0.5453466 0.59466815 0.5787054 0.12730178 0.19694315 0.37531486 0.48352557 0.51576227 0.62716544 0.6622382 0.6145123 0.61117697 0.5787382 0.51609653 0.7072332 0.7453544 0.7466381 0.72612333 0.5750856 0.44682765 0.4804138 0.50092745 0.4720772 0.7589422 0.657622 0.40328974 0.7903155 0.41466552 0.80422384 0.35746887 0.38170218 0.38620222 0.41076452 0.7634847 0.708054 0.63508636 0.5590004 0.41284132 0.3458432 0.3450935 0.3508285 0.65228015 0.61962813 0.74567115 0.75153303 0.30010208 0.25589353 0.11767696 0.5023494 0.23329154 0.5025704 0.17610309 0.14564931 0.4377504 0.2799257 0.0977982 0.3607833 0.35073146 0.124036364 0.28592968 0.35654017 0.37216502 0.3828309 0.37213337 0.3756127 0.27047113 0.28903973 0.32798004 0.3438903 0.34491903 0.33810955 0.22874703 0.0852713 0.26687822 0.2779075 0.28941876 0.28251708 0.2506358 0.28675252 0.49714243 0.20925513 0.2201201 0.21727633 0.2640506 0.551392 0.6109241 0.18945357 0.16857845 0.113432474 0.31294918 0.38569555 0.59797895 0.5340433 0.3064519 0.17766722 0.37580684 0.36388963 0.29154864 0.10271327 0.451903 0.59483266 0.5671457 0.070108384 0.042999137 0.32880643 0.3835109 0.518453 0.48374802 0.6049955 0.5777478 0.034609146 0.049601674 0.47063965 0.4900714 0.57403404 0.58991075 0.5365843 0.5237968 0.6175164 0.5214421 0.52485 0.63466793 0.6516396 0.63712347 0.64405775 0.6422332 0.53443444 0.6972207 0.70486146 0.68962955 0.64552385 0.5887816 0.5012616 0.5213348 0.47606415 0.47992995 0.69103944 0.43024254 0.74662805 0.297971 0.73149747 0.32131946 0.29760018 0.70388603 0.6782776 0.3481738 0.3346246 0.6173096 0.60132056 0.5605906 0.48669747 0.4272086 0.63766766 0.7232894 0.7719852 0.6257996 0.7096082 0.76093614 0.7509304 0.5100503 0.6737611 0.7354026 0.74404246 0.71804523 0.60529155 0.6556752 0.7379961 0.5749994 0.49251026 0.31947297 0.55361724 0.41078 0.50821036 0.22896245 0.13558388 0.13153598 0.31368262 0.06328607 0.07035739 0.15744756 0.38889986 0.5376489 0.19493018 0.33479348 0.56090534 0.5881163 0.24935505 0.35339046 0.4818172 0.06663026 0.054586902 0.25855964 0.29825628 0.059438057 0.25668722 0.24537577 0.29323915 0.33749503 0.3523816 -0.089937136 0.15336454 0.12905142 0.2794617 0.25483814 0.2722246 0.17314214 0.37407437 0.35906738 0.28562802 0.2782429 0.17903885 0.38847026 0.39314932 0.16173764 0.36202562 0.28683874 0.2159712 0.1860492 0.18657637 0.18423152 0.24229488 -0.059409544 0.09705316 0.21643007 0.57046497 0.52616245 0.25362188 0.19094923 -0.14852098 -0.14696863 0.24203923 0.2752474 0.19641697 0.29060733 0.26050198 0.2889757 0.481988 0.53132164 0.51774293 0.57614195 0.57310927 -0.022118993 -0.20401406 -0.082048014 0.01964666 0.34461895 0.5267472 0.54725814 0.5246916 0.64756423 0.55603683 0.5416603 0.6491778 0.52679867 0.6383952 0.46833938 0.4385565 0.4514038 0.5145731 0.45369428 0.4081064 0.6219609 0.26152807 0.38666025 0.67738914 0.21519522 0.20714693 0.6782091 0.26946586 0.24676526 0.6339545 0.61465836 0.4003189 0.37346783 0.31946272 0.6115421 0.6177572 0.6240077 0.58048046 0.4238283 0.65781265 0.7078166 0.73702836 0.627452 0.69575834 0.7605407 0.71026635 0.48550916 0.5312476 0.719674 0.6511795 0.46649015 0.6265091 0.6155486 0.56384 0.4492929 0.321663 0.39730614 0.66406655 0.4649911 0.5763472 0.33988935 0.2323941 0.19877036 0.37219313 0.45974988 0.63007873 0.45286846 0.47681016 0.17383057 0.23788965 0.3763002 0.48279965 0.52466786 0.24292152 0.38546517 0.5301974 0.5042044 0.29727185 0.39700866 0.52435225 0.5917121 0.043091245 0.60938567 -0.036119163 0.5319381 0.572183 0.2767926 0.22962397 0.2140871 -0.20977734 0.11959246 0.41199964 0.2969995 0.2944205 0.22913396 0.1628347 0.13986568 -0.20211832 -0.0241981 0.03821884 0.2933306 0.28735822 0.21358606 0.24815044 0.1773581 0.24629058 0.11755583 0.14004509 0.26799256 0.10800229 0.117230594 0.7424637 0.67368734 0.5829005 0.4179873 0.2184178 0.108775586 0.12090679 0.7932148 0.7605177 0.6634035 0.25931197 0.24511835 0.17565943 0.083304204 0.8636488 0.8438264 0.771366 0.7058215 -0.083286524 0.24701536 0.24005285 0.23262629 0.2877532 0.59348726 0.19022253 0.10331701 0.5682832 0.34135503 0.6332121 0.45422256 0.3748964 0.5147321 0.36331826 0.46897975 0.25042897 0.3329502 0.2388514 0.29183498 0.34519815 0.37864178 0.58886635 0.21963434 0.27357608 0.627687 0.18887247 0.2070395 0.6224735 0.5920942 0.33016247 0.23534134 0.5944875 0.37143177 0.60817873 0.62793076 0.6503547 0.6347364 0.5775457 0.59797794 0.62582576 0.67824084 0.42749882 0.50869113 0.5992104 0.6780542 0.3721803 0.46762478 0.56229764 0.65342814 0.3956604 0.38907638 0.38795334 0.3896062 0.38693422 0.4714287 0.57554436 0.6446941 0.6111494 0.67898375 0.70581603 0.83698523 0.7720393 0.5855378 0.66546 0.69973207 0.62827325 0.48321927 0.56453866 0.5598284 0.48405954 0.39182448 0.5653338 0.25033888 0.37064427 0.52186465 0.5018591 0.64397985 0.54540396 0.46123064 0.17394926 0.0722865 0.23486908 0.4768622 0.49158612 0.54059994 0.28950986 0.3394458 0.36421493 0.203741 0.13897765 0.065120794 0.08248395 0.5240661 0.31849888 0.40369254 0.4662766 0.48852932 0.12543546 0.043679148 0.06343372 0.6006852 0.013840944 0.017688781 0.023902792 0.032191277 0.18431954 0.03104446 0.62975854 -0.024710178 -0.012605742 -0.046745375 -0.0803906 -0.28039214 -0.23669522 0.51873994 0.20617324 0.1974064 0.047099613 -0.5096583 -0.24192956 -0.23104131 0.20615506 0.27242845 -0.011311777 -0.28465885 -0.23229101 0.13057965 0.20070007 0.237838 0.16487844 0.024151128 0.34783998 0.16004333 0.11004956 0.13030347 0.65660954 0.5679448 0.4731793 0.35218552 0.21527714 0.07557775 0.14463797 0.09703189 0.7749574 0.7352381 0.4046961 0.20466699 0.053783275 -0.014579013 0.8083446 0.8047422 -0.1825754 0.2693944 0.8608401 0.88183224 0.6385 -0.08011331 0.16790807 0.18556106 0.27536577 0.6955464 0.65250295 0.464294 0.04571101 0.27321982 0.22949699 0.32969064 0.2595026 0.35172367 0.15951455 0.34013405 0.28461352 0.31107458 0.32469666 0.2353211 0.29191956 0.5041437 0.008618757 0.13838518 0.21480624 0.57898617 0.53871775 0.5557921 0.5580515 0.3452505 0.580951 0.59790933 0.6206547 0.631888 0.5354625 0.48422778 0.6180209 0.6417352 0.64968896 0.6532315 0.6720052 0.60435283 0.6412051 0.6725757 0.69312036 0.7091156 0.75062454 0.5270536 0.6966041 0.7565943 0.7925645 0.33050516 0.7026795 0.7554977 0.80156505 0.2904182 0.30184832 0.3435333 0.6487527 0.757131 0.807716 0.35207233 0.38137856 0.33050755 0.374938 0.45561755 0.5994057 0.70049685 0.37877238 0.3946508 0.29660788 0.2620948 0.29783636 0.36949676 0.376777 0.34635147 0.28183225 0.22705391 0.26446623 0.27957553 0.296634 0.24076414 0.2214395 0.24238868 0.22483352 0.20193173 0.25727668 0.33475503 0.21291158 0.21416762 0.24409527 0.37262058 0.43405172 0.29691446 0.31221327 0.5743608 0.60717165 0.5979103 0.34975556 0.44062346 0.5712946 0.72272265 0.72431517 0.57689214 0.8023498 0.7916541 0.40041727 0.4242304 0.44564372 0.4277616 0.81735384 0.7674011 0.81548905 0.80817986 0.34670365 0.44471908 0.12388155 0.38028443 0.6108867 0.13818689 0.16016684 0.33503446 0.48019212 0.54099107 0.62126815 0.5242429 0.3790921 0.29495698 0.27309662 0.22627178 0.1449776 0.31120032 0.36173192 0.21009186 0.3069945 0.3342749 0.31142926 0.28768477 0.2360347 0.31365415 0.27833006 0.1784462 0.1939762 0.5896692 0.24576053 0.19544344 0.13425961 0.54684514 0.53758776 0.581864 -0.140825 0.23272558 0.2269395 -0.005399841 -0.15016481 -0.20727523 0.021997146 0.12400386 -0.057523668 0.4918711 0.50744414 0.48862487 0.41877252 0.09547928 -0.29568183 0.4272552 0.4194906 0.42421642 -0.2098592 -0.08395336 0.3221244 0.2630931 -0.074717835 0.025523515 0.6682365 0.528275 0.38916656 -0.0033172597 -0.039284915 0.051844727 0.037406053 0.77598786 0.7338222 -0.18479693 0.089052446 0.8155589 0.109598234 0.883868 -0.13741884 -0.047775045 0.17916365 0.81097794 0.5322355 0.44814324 0.3873647 0.009534106 -0.07796957 0.48057228 0.4273687 0.24914137 0.06970416 0.30783427 0.09707975 0.05591681 0.13056672 0.28962746 0.3343289 0.3419489 -0.04370519 -0.23548698 0.22861412 0.26765844 0.41700366 0.4589563 -0.25206774 -0.25029027 0.4593215 0.34481436 0.28461236 0.4963978 0.52919084 0.5067034 0.43813825 0.543417 0.55777895 0.5802051 0.5555758 0.47315153 0.58390844 0.6002039 0.60459256 0.57878804 0.6304339 0.6692722 0.68906766 0.58447194 0.7098869 0.7273435 0.76622653 0.4518749 0.7802084 0.8100202 0.24752271 0.8527763 0.22867769 0.8362024 0.3218016 0.6906291 0.77578306 0.25469488 0.3487933 0.5080592 0.2645536 0.14947583 0.30971533 0.25107184 0.1586771 0.24260628 0.19107485 0.19106105 0.16118076 0.16792826 0.24475203 0.30523357 0.17265701 0.25373596 0.4316847 0.39747185 0.15046123 0.24212745 0.20990947 0.60531986 0.17211036 0.32000244 0.40742806 0.20501453 0.43023098 0.76765436 0.28701127 0.29132465 0.32248563 0.26350474 0.63514924 0.6579945 0.7755355 0.26001364 0.16203782 0.12597196 0.68513095 0.059996657 0.07029899 0.5810152 0.5315114 0.1920226 0.12953448 -0.011680033 0.37087384 0.46436855 0.38629785 0.2867719 0.26572755 0.25603628 0.20405267 -0.24229693 0.3446089 0.24186088 0.29322076 0.2623113 0.31478864 0.31482133 0.32335317 0.32416236 0.53063977 0.60782105 0.6490342 0.31498182 0.29622066 0.2845639 0.60541534 0.646559 0.3271933 0.2573541 0.19784795 -0.055794477 0.52415055 0.60493654 0.16979256 0.08992695 -0.14567888 -0.14034644 0.23151863 0.40606582 0.48017412 0.5234766 0.530694 0.46170467 0.35576546 -0.103305876 -0.28340057 0.036132514 0.048919998 0.4927968 0.37009794 0.2993636 -0.26887718 -0.32519585 -0.34430322 0.08678707 0.10327439 0.40687194 0.29268485 0.21841986 -0.14508863 -0.15111244 -0.29137912 -0.2841289 0.31433204 0.13627917 -0.17473525 -0.16888425 -0.15905783 -0.19199257 0.73793054 0.68282485 -0.122885555 0.77922016 0.8561865 0.02134348 0.19389272 0.61357844 0.49505997 -0.16030967 -0.11344484 0.05320534 0.088373154 0.4348002 0.25989935 0.24380134 0.17927806 0.30426878 -0.11689602 0.31250283 0.33709732 0.19157845 0.05443947 -0.050099686 0.49005628 0.5315433 0.5258888 0.55395097 0.62652373 0.66175437 0.6719198 0.4120528 0.5660509 0.6875638 0.75365084 0.78313124 0.7950585 0.23827955 0.23856547 0.82634735 0.21954018 0.21579906 0.84850645 0.6820881 0.7469287 0.14009577 0.11673675 0.43618837 0.5671686 0.15365072 0.3428384 0.15939562 0.16577242 0.10359527 0.09464778 0.13888812 0.16865212 0.1690587 0.0132074505 0.07832585 0.2460478 0.07318713 0.3117212 -0.03825981 0.05519162 0.07987581 0.11158556 0.14533216 0.06718615 0.42308646 0.55435085 0.6757335 0.10314709 0.053974804 -0.02854934 0.046250805 0.083343506 0.12514411 0.09834234 0.0639098 -0.094027035 -0.021315254 0.10392259 0.12737253 0.4193018 0.45062143 0.4829293 0.396272 0.25672087 0.17349128 -0.40656504 -0.27301708 0.12089756 0.062439587 0.16138324 0.3046645 0.5395824 0.58954823 0.6857518 0.6418415 0.62937355 0.31554878 0.1887922 0.69098157 0.7339059 0.6704335 0.6455064 0.6095501 0.3282868 0.33044082 0.7032704 0.73679507 0.6739969 0.6575497 0.62170947 0.33871123 0.3420278 0.6104835 0.66327584 0.2522188 0.32110086 0.31322744 0.2586003 0.15049393 0.12753807 -0.029189836 0.22141284 0.47377306 0.5204333 0.5770308 0.3432685 0.44644052 0.16714577 -0.036396638 0.0523015 0.14995725 0.29921004 0.39880452 0.33975756 0.24099056 -0.30918983 0.12638491 0.116025425 0.06811425 0.054521557 0.3725688 -0.21637596 0.15557118 0.12964621 0.18224776 0.44869125 0.118300945 0.30271047 0.6306343 0.26693952 0.73296565 0.7566432 0.44884366 0.30402684 -0.19897372 -0.10568985 0.07663058 0.15994348 0.2203798 -0.016455289 -0.17011808 0.24124134 -0.12577885 0.29395217 0.1406589 -0.27966195 0.2736028 0.20321609 0.12804636 -0.046324138 -0.29740518 0.6201592 0.46380556 0.48360127 0.47497404 0.65350306 0.5595417 0.53243154 0.6698915 0.6623196 0.60437196 0.59370846 0.5449406 0.65637267 0.62861663 0.6019306 0.6382222 0.65067506 0.5535288 0.6187099 0.63327056 0.690413 0.17989287 0.19525011 0.18650028 0.6866299 0.7363111 0.18208857 0.21376202 0.69112265 0.7543267 0.67183816 0.77098775 0.17066026 0.4922127 0.62570864 0.43232745 0.28202543 0.0921602 0.051652595 0.273455 0.11833689 0.015659325 -0.14360026 0.25196946 0.23008707 0.057726167 0.17716376 0.03729711 0.060883377 -0.12924728 -0.07380609 0.20394263 -0.37637955 0.3885497 0.13164072 0.12674612 0.047601305 -0.04719953 -0.20059627 -0.2526791 -0.059338138 -0.26428968 0.04161326 0.20069164 0.1556285 0.14188212 0.105134174 0.05543349 -0.11404927 -0.18452586 -0.04244139 -0.06878962 0.3717871 0.4052351 -0.00417836 0.2122387 0.18214208 0.15029763 -0.041335378 0.23694508 0.24540387 0.41342658 0.1959502 0.13571489 0.25560266 0.39347315 0.12963966 0.089341685 -0.058206007 0.20961869 0.28436 0.3181487 -0.016779587 0.669908 0.72889817 0.7367506 0.68399954 -0.3246557 -0.28846422 -0.30925688 -0.27292025 0.35958958 0.075291656 -0.047392458 0.676106 0.6990013 0.6977546 0.65604186 0.24780004 -0.03049339 0.2737894 0.5874408 0.68762237 0.7181008 0.6548611 0.6717999 0.6490487 0.62410784 0.610101 0.3001721 0.73364866 0.72478557 0.6703852 0.6870334 0.59630597 0.30367702 0.7423285 0.7317842 0.6659 0.6773416 0.65964216 0.60347354 0.54495335 0.19376104 0.19346206 0.14022204 0.28555244 0.6575426 0.6950619 0.624303 0.64424 0.20385063 0.49176094 0.59344923 0.63299304 0.27452758 0.43150508 0.20802978 0.13761084 0.13806154 0.060727995 0.05073031 0.24266727 0.17646113 -0.19444609 -0.33529115 0.073508956 0.11462292 0.056785084 0.04980717 0.15893729 0.07952669 -0.11171978 0.04579643 0.055969354 -0.17463979 0.12966792 -0.25854838 0.21539487 0.11576736 0.26724902 0.2101841 0.031727657 -0.068546765 -0.039759867 0.0131950285 0.06852069 0.18387318 0.22823232 0.23840085 0.33381438 0.23437746 -0.16412318 0.00064994395 0.34665728 0.19857757 -0.060074247 0.08819641 0.026516609 0.06358536 0.18780775 0.19832464 0.24398239 0.29569516 0.6506386 0.5167698 0.4973899 0.6631979 0.5353709 0.6544714 0.65219986 0.63456553 0.585475 0.52069294 0.6325113 0.6847193 0.704481 0.62161946 0.60476124 0.643347 0.6952821 0.54958785 0.55091196 0.6179032 0.4969588 0.4099341 0.3393392 0.49788296 0.26143217 0.52363217 0.19406298 0.1817709 0.4222472 0.5546535 0.62068945 0.1491905 0.52173424 0.6429465 0.6170983 0.12881704 0.5055688 0.48563352 0.43557155 0.432226 0.41706783 0.36656955 0.19193849 0.015957665 0.40340206 0.39879274 0.35728103 0.3193233 -0.142041 0.86967033 0.32239407 0.294945 0.8794899 0.87221855 0.84379447 0.11716846 0.11560034 0.8456778 0.8212087 0.22519311 0.18772659 0.09448154 -0.13667104 -0.011282001 0.019862343 0.12975678 0.16872549 0.1566183 0.084557146 -0.01657067 -0.2501188 0.072327256 0.08566845 0.1221841 0.14271118 0.10351711 -0.015737956 -0.28251955 0.30435166 0.19252895 0.12451685 0.11993563 -0.12622224 -0.0816953 0.053844735 0.44601187 0.23776044 0.25186414 -0.23772743 -0.095559895 0.22297563 0.2737659 0.2593864 -0.050115798 -0.14421101 0.00026143342 0.20088871 0.2784613 0.6474892 0.7043518 0.6869471 0.6719725 0.27520084 0.1648036 -0.3673226 -0.23938736 0.1726287 0.057099678 0.08981476 0.6481681 0.7024684 0.7196223 0.65079296 0.30797678 0.29061818 -0.3476501 0.025274359 0.09810306 0.6023233 0.65072894 0.636513 0.59724057 -0.02131702 0.22180858 0.5178925 0.64314055 0.69637525 0.6180212 0.5254065 0.49446455 0.19170377 0.6848841 0.70600206 0.55599743 0.60719585 0.486898 0.32740074 0.10714535 0.1884862 0.7029407 0.5938097 0.51044726 0.18788527 0.15536603 0.67301846 0.5388952 0.5032036 0.5759649 0.09341625 0.14893797 0.46911073 0.5584464 0.39331448 0.22917604 0.07464682 0.13275787 0.30658835 0.43381983 0.01873117 0.07506226 0.24937579 0.22649135 -0.40863982 -0.019256348 0.05583355 0.036741063 0.24159093 0.23351003 0.1593743 0.03275641 0.09181758 0.24661797 0.42013106 0.23591438 0.076995574 0.13067643 0.23764133 0.41256195 0.51320934 -0.31122667 -0.35043675 0.1829428 0.23601758 0.43437034 0.49903607 0.5381341 0.09343264 0.058274504 0.51628155 0.0070595145 0.17971231 0.2822857 -0.10312098 -0.05546592 -0.028563932 0.025682092 0.14268897 0.16530699 0.17916453 0.4200161 -0.41876578 0.40245035 0.31500247 0.106688574 0.040537998 0.15579775 0.11853044 0.21235844 0.2337216 0.4510631 0.36898008 0.3715903 0.45566863 0.56276965 0.50640005 0.5572082 0.5829011 0.61694765 0.51244104 0.4950765 0.58531964 0.56736636 0.6631105 0.67894024 0.7131096 0.7204173 0.6878389 0.6353571 0.64865965 0.6678251 0.59841466 0.5881671 0.5073384 0.35374048 0.3090769 0.2695542 -0.02732405 -0.038108855 -0.009573057 0.06829928 0.2056113 0.5024364 0.42348236 -0.27344126 -0.11170517 -0.06608667 0.5297054 0.49760693 0.42200023 0.36791074 0.19921464 0.4919946 0.48640552 0.80509555 0.44819164 0.1799297 0.89804864 0.864499 0.7873027 0.71019065 0.36193937 0.05662924 0.86174566 0.8838135 0.8197868 0.72954327 0.30299097 0.2716868 -0.15233071 0.83495986 0.801376 0.7723868 0.70996034 0.24071488 0.26673955 -0.008694582 0.7301108 0.7403019 0.6421344 0.23413011 0.12979245 0.121385425 0.21167234 0.24318449 0.14308028 0.08484191 -0.14065936 0.30586588 0.32687646 0.27326867 0.19331093 -0.27942872 -0.2869569 -0.17180638 0.3439199 0.24066898 -0.4321218 -0.32268554 -0.36411953 -0.09212997 0.30162114 0.23420995 0.29886052 -0.30042493 -0.23889466 0.22052088 0.6273071 0.6607222 0.66497886 0.61020803 0.31237137 -0.20571002 0.14089966 0.55