# vtk DataFile Version 2.0
Really cool data
ASCII
DATASET POLYDATA
POINTS 8376 float
-23.648006 44.10134 57.613884
-23.601952 44.116283 58.12999
-23.579124 44.61189 56.815422
-23.668736 44.461224 57.56482
-23.62944 44.566853 57.97729
-23.584272 45.308346 56.945137
-23.62813 45.183945 57.524235
-23.61159 45.06471 57.970676
-22.879633 43.037476 56.297623
-22.873613 43.05197 57.358135
-22.966057 43.265034 57.890743
-22.894743 43.62866 55.90368
-23.20473 43.6615 56.572918
-23.45292 43.81342 57.598213
-23.196278 43.795185 58.336227
-23.012417 44.057995 58.762802
-22.902546 44.65731 55.73128
-23.429646 44.476902 56.462986
-23.39798 44.556763 58.453796
-22.98278 44.536198 58.842335
-22.98523 45.387 55.99207
-23.434753 45.438747 56.66523
-23.451168 45.615406 57.5379
-23.24579 45.351086 58.314777
-22.982628 45.105904 58.71014
-23.156982 45.884632 56.67344
-23.13326 45.957203 57.46065
-22.915403 45.919 58.15391
-21.953068 42.354782 55.913147
-22.236378 42.39953 56.48317
-21.897566 42.90834 55.074814
-22.423824 42.830677 55.747326
-22.340984 42.484745 56.492485
-22.309166 42.72343 57.418495
-22.304878 43.064243 58.15601
-22.193089 43.543957 55.133465
-22.514334 43.521873 55.35359
-22.673292 43.555027 58.64441
-22.509283 43.73057 58.81449
-22.150303 44.555706 54.96856
-22.433243 44.464092 59.035206
-21.991661 45.306774 54.90975
-22.48583 45.2754 55.52227
-22.431679 45.229874 58.930004
-22.38004 46.01267 55.958733
-22.401184 46.24561 56.59028
-22.310436 46.377907 57.563023
-22.341597 46.078827 58.374386
-22.27211 45.784172 58.70633
-22.042963 46.523838 57.503784
-20.744942 42.302227 54.337784
-21.285877 42.142307 55.64615
-21.478476 42.132862 56.60615
-21.39426 42.34441 57.60561
-21.170788 42.63181 54.63293
-21.47966 43.02197 58.416733
-20.777529 43.59921 53.90886
-21.34032 43.209095 54.377384
-21.903337 43.31506 58.56642
-21.265543 43.32138 58.61473
-21.173595 44.544617 54.116016
-21.521175 44.685883 59.01769
-21.10747 45.439484 54.292465
-21.541035 45.481495 54.59512
-21.684374 45.389397 58.932438
-21.196524 45.954536 54.860847
-21.246122 46.16774 55.31908
-21.471468 46.489586 56.856823
-21.620386 46.41372 57.561974
-21.578127 46.14201 58.398045
-21.520853 45.85496 58.680622
-21.660242 46.51623 57.47575
-19.622417 18.029064 64.01836
-19.593332 17.61433 64.55843
-19.74823 17.603958 65.30674
-19.594097 17.667915 66.321335
-19.5322 17.66146 67.20978
-19.575731 18.383558 63.559677
-19.714521 18.507906 64.53906
-19.802088 18.43037 65.32021
-19.68996 18.433289 66.14324
-19.572884 18.946003 64.36923
-19.641884 18.860538 65.532616
-19.668406 18.79996 65.92412
-19.51934 27.046331 53.002365
-19.50577 27.03229 53.17209
-19.554646 27.60877 52.927258
-19.514097 27.431726 53.510437
-19.655727 32.12532 48.501133
-19.701756 32.110165 49.176067
-19.74427 32.790577 48.06661
-19.859377 32.630108 48.605297
-19.836681 32.629276 49.157322
-19.686306 33.508247 47.9891
-19.89102 33.3595 48.471436
-19.782356 33.39814 49.22335
-19.666382 33.809814 48.17922
-19.708979 33.930164 48.620426
-19.69709 33.932266 49.054234
-19.639996 40.011833 35.885742
-19.658682 39.929367 36.454727
-19.600588 40.05766 36.907814
-19.641329 40.379166 35.758102
-19.70513 40.44077 36.41608
-19.62971 40.54504 37.01816
-19.601147 40.93016 36.04314
-19.615927 40.986103 36.33849
-20.165833 42.20275 53.995415
-20.118933 41.686443 55.453915
-20.6517 41.98818 57.215225
-20.347933 42.697353 53.73484
-20.638695 42.766685 58.27674
-19.91548 43.232296 53.398006
-20.5493 43.500195 53.608673
-20.845217 43.56449 58.620567
-20.68347 44.58256 53.848797
-20.401237 44.314518 58.435326
-20.864515 44.660477 58.79174
-20.518429 45.32552 54.027054
-20.986809 45.1131 58.805717
-20.815477 45.699604 54.30398
-20.635254 46.020912 54.798836
-20.426416 46.364506 55.578747
-20.565462 46.380215 56.554096
-20.673166 46.379696 57.02286
-20.88068 46.01544 58.09317
-18.794773 16.981579 63.063484
-19.013124 16.917038 63.80788
-19.07452 16.82293 64.57759
-19.149286 16.826487 65.53237
-19.231834 16.9334 66.38568
-19.059828 16.877636 67.54634
-18.896776 17.028372 68.131584
-19.153315 17.849562 62.7645
-19.308252 17.604403 63.322536
-19.537474 17.364729 65.62853
-19.389322 17.564241 67.65752
-18.987213 17.609928 68.27951
-18.805609 18.433048 62.186993
-19.27394 18.45969 62.85411
-19.50312 18.617264 63.35363
-19.47471 18.552895 64.10599
-19.44001 18.55691 66.672844
-19.289692 18.276295 67.65035
-19.040516 18.207146 68.13851
-18.845123 18.913715 62.295086
-18.947699 19.190548 62.670856
-19.321722 19.139534 63.688885
-19.192595 19.34378 64.4872
-19.341522 19.224289 65.58395
-19.3686 18.964315 66.18406
-18.977016 18.802307 67.512634
-18.744612 19.770847 63.15444
-18.824966 19.665861 64.05213
-18.665354 25.041914 53.647705
-18.888435 26.140997 52.012497
-18.887074 25.826708 52.47537
-19.046938 25.764341 53.53752
-18.893257 25.658602 54.504387
-18.612215 25.709383 55.248196
-18.748606 26.998775 51.084743
-19.169804 26.833641 51.82211
-19.338036 26.6944 52.531586
-19.392767 26.614286 53.5024
-19.284872 26.630215 54.38035
-19.149662 26.750248 54.959293
-18.83537 27.402925 51.243073
-19.222025 27.480005 51.7932
-19.418491 27.531507 52.417595
-19.46038 27.572948 53.775085
-19.42749 27.526869 54.43147
-19.084915 27.618967 55.252686
-18.592503 28.209097 57.715286
-18.565304 28.15451 58.424965
-19.036648 28.222979 51.815876
-19.264397 28.129992 52.55797
-19.05615 28.384298 53.328964
-19.268545 28.10884 54.519966
-18.920845 28.16117 55.465267
-18.707016 28.506922 57.976177
-18.64908 28.553986 58.566517
-18.611845 28.755432 58.891216
-18.871752 28.680422 52.63566
-18.831144 28.676266 53.750484
-18.784407 28.749582 54.70986
-18.735197 29.620197 56.997192
-18.793034 29.41374 57.628754
-18.737925 29.129679 58.50753
-19.022766 31.331621 48.76856
-19.150637 31.314617 49.06713
-18.700476 30.512403 56.164555
-18.786335 30.369942 56.618244
-18.740746 30.205374 57.551197
-18.58933 29.932259 58.290012
-19.081507 31.96425 47.97893
-19.348854 31.663794 48.699013
-19.232243 31.563059 49.39187
-19.41243 32.007336 49.757492
-19.392397 32.675217 47.801846
-19.279047 32.500328 50.00401
-18.759674 33.32076 57.960976
-19.41352 33.503925 47.692654
-19.173689 33.351204 50.059223
-18.81595 33.62713 56.895653
-19.057003 33.622963 57.581837
-18.998753 33.87354 58.39225
-18.863523 34.023415 58.76053
-18.749844 34.53945 47.317017
-19.299015 34.154423 47.86291
-19.419678 34.60726 48.574463
-19.434727 34.166782 49.491146
-18.940062 34.272877 49.95531
-19.120945 34.723545 56.853035
-19.329794 34.68499 57.68932
-19.219793 34.56479 58.322823
-18.881676 34.69259 58.74404
-18.65042 35.930824 42.71424
-18.719799 35.56279 47.70357
-18.935137 35.4826 48.64524
-18.838295 35.518127 49.468758
-18.66411 35.36566 49.866673
-18.778282 35.378597 55.835922
-19.218977 35.753582 56.755527
-19.30939 35.485096 57.506847
-19.160717 35.140537 58.181614
-18.604347 36.713512 41.7698
-18.844774 36.754482 42.555107
-18.724356 36.600124 43.4871
-18.635729 36.983604 43.77543
-18.63333 35.90857 48.083496
-18.63756 36.295834 49.02673
-18.91441 36.565872 55.739365
-19.216192 36.381985 56.684853
-19.224081 36.421764 57.393784
-19.120066 36.32015 58.02265
-18.698257 37.43898 41.954533
-18.931545 37.36359 42.72716
-18.853575 37.480938 43.312748
-18.948053 36.933014 55.98638
-19.142357 37.050632 56.788834
-19.094364 37.471725 57.17727
-18.884502 37.09677 58.239754
-19.194912 39.385983 35.84818
-19.085718 39.29618 36.296963
-18.953434 39.379025 37.244484
-18.66797 37.902534 41.94997
-18.807707 37.989273 42.650536
-18.738081 37.96301 43.312897
-18.61195 38.968117 49.284264
-18.620625 39.034607 50.07287
-18.521343 38.82745 56.430798
-19.107004 39.831127 35.19911
-19.365335 39.723564 35.691452
-19.398352 39.565357 36.47705
-19.28671 39.697483 37.12892
-18.928852 39.86377 37.906384
-18.731695 39.536324 49.102325
-18.790712 39.53746 49.53711
-18.686852 39.932316 50.26344
-18.721455 39.525406 55.672806
-18.709 39.68508 56.288345
-18.518625 39.219654 57.26754
-18.64955 40.640697 34.1903
-18.992125 40.510845 34.745174
-19.517439 40.37503 35.52302
-19.379416 40.623478 37.544216
-19.00883 40.447304 37.976887
-18.65437 40.171627 49.079033
-18.71734 40.203934 49.496998
-18.589914 40.615444 50.42501
-18.71055 40.53999 54.444233
-19.23817 40.558323 55.372017
-19.235865 40.86651 56.86794
-18.791092 41.304344 34.64463
-19.23482 41.28273 35.592422
-19.382671 41.370804 36.334465
-19.206638 41.254547 37.28996
-18.771667 41.115498 37.99611
-18.768805 41.851658 35.664818
-18.877834 41.837807 36.39031
-18.769438 41.741898 37.346523
-19.22928 42.40755 53.26256
-19.935053 42.604507 58.199238
-19.96327 43.461002 58.36032
-19.31408 44.705303 53.450382
-19.560791 44.43758 58.004898
-19.54352 45.10175 53.803158
-20.084972 45.645428 57.81712
-19.983797 46.072727 54.83746
-19.746986 46.25195 55.6476
-19.679188 46.261395 56.35381
-19.785475 45.94455 57.24621
-18.377617 16.32692 64.4495
-18.370352 16.239346 65.42076
-17.887833 15.947899 66.81401
-18.281055 16.225538 67.196815
-18.29593 16.70152 62.83108
-18.682888 16.67247 63.396896
-18.308403 16.454235 64.71819
-18.330502 16.652735 68.24298
-18.21145 16.98478 68.674095
-18.047276 17.755148 61.854057
-18.654797 17.298054 62.53873
-18.697697 17.551437 68.52075
-18.325193 17.605663 68.741066
-18.05541 18.95351 61.239307
-18.18053 18.68833 61.45848
-18.463528 18.316877 68.48034
-18.361048 18.022789 68.6818
-17.816353 19.303328 61.059593
-18.292791 19.264938 61.734074
-18.386477 19.38503 66.52608
-18.310125 19.035236 67.55524
-18.402845 18.75789 68.04461
-18.212255 20.137459 63.721752
-18.194143 20.113655 64.56561
-18.725927 19.591604 65.625015
-18.017365 19.624153 66.21639
-17.872326 24.233538 53.763916
-17.922567 24.299355 54.353073
-18.109987 24.89335 52.79024
-18.19252 24.637348 53.414448
-18.358263 24.72996 54.425945
-18.057064 24.779966 55.21626
-17.584787 25.62622 49.883583
-17.986353 25.758087 50.671112
-18.37878 25.52186 51.750534
-18.455856 25.441916 52.22034
-18.355759 25.435534 55.340836
-17.9288 25.448105 55.73941
-17.603354 26.037254 49.780033
[...]
POINT_DATA 8376
SCALARS features_00 float 1
LOOKUP_TABLE default
0.81526554 0.83785975 0.8024193 0.828667 0.85084623 0.8450281 0.85682005 0.86551344 0.65574455 0.7497866 0.7824495 0.65501 0.73528254 0.80239666 0.8268468 0.8448111 0.7161975 0.77966905 0.8642967 0.8816025 0.7815968 0.84515166 0.88545024 0.9063855 0.9177794 0.87274504 0.9140509 0.9371197 0.5390904 0.6129892 0.4954328 0.5656334 0.62236696 0.70735425 0.74803144 0.5459333 0.57770973 0.8057323 0.81229043 0.60010993 0.8865485 0.60398877 0.68717253 0.9414785 0.74228203 0.814986 0.8578606 0.91476786 0.93338126 0.80410206 0.36306334 0.4600078 0.5795671 0.6536353 0.42335346 0.6894524 0.46013978 0.45972666 0.7441692 0.6838033 0.53605354 0.8314161 0.5485437 0.57106847 0.89410174 0.5761236 0.60343134 0.6782901 0.74980617 0.8228073 0.85474145 0.7455677 0.59547156 0.61285377 0.6208261 0.6641445 0.75640965 0.58186567 0.58701503 0.6044293 0.6425929 0.56652725 0.59885955 0.6206795 0.5398185 0.5332409 0.5445569 0.5221145 0.8366204 0.83891886 0.8042658 0.82791466 0.826055 0.7028774 0.7403867 0.7238455 0.6513277 0.63055885 0.6180372 0.8213272 0.83105695 0.8466233 0.8211905 0.83313525 0.8466136 0.81815505 0.82022095 0.30690607 0.26510173 0.5597036 0.36033908 0.6056285 0.3825608 0.43145177 0.6443037 0.5304291 0.61575794 0.71957964 0.5293594 0.7794919 0.5439704 0.54894584 0.5787674 0.60340494 0.6270721 0.7247278 0.55697644 0.5876756 0.59807515 0.6245498 0.6904528 0.84401965 0.889984 0.5627507 0.59468454 0.6330396 0.8201823 0.8877249 0.50757074 0.5638285 0.5761348 0.5822807 0.68449754 0.80521756 0.8625579 0.52702373 0.5593604 0.5649577 0.5400595 0.5706458 0.6254276 0.77287495 0.55701715 0.5256341 0.43151116 0.4477501 0.43760705 0.4944685 0.49384123 0.40117005 0.46124098 0.527446 0.53408575 0.51402444 0.48634225 0.44122177 0.52985823 0.5776176 0.56644297 0.5097182 0.4848161 0.4254644 0.3807128 0.48264664 0.57366335 0.55142164 0.48613998 0.466261 0.36949006 0.41721225 0.50262195 0.5396205 0.501022 0.41427493 0.33447403 0.30657572 0.3757073 0.48770374 0.7822101 0.80028206 0.12787822 0.2455325 0.3946433 0.46830156 0.7823205 0.8197055 0.80981994 0.80644345 0.7963377 0.76875293 0.59754324 0.69011325 0.5856213 0.420578 0.57547295 0.6244323 0.60298175 0.44210726 0.5666801 0.50735927 0.53323936 0.41325825 0.47560036 0.5640997 0.59587634 0.5702254 0.46138555 0.30161285 0.37509614 0.3421272 0.29229975 0.30422986 0.40042126 0.47709003 0.5506384 0.46977508 0.52538806 0.5070127 0.51629853 0.27091533 0.24746038 0.2615849 0.35170254 0.37691867 0.4121182 0.521008 0.5490899 0.54074883 0.2433743 0.290783 0.2607618 0.35972184 0.7924748 0.79640406 0.8457242 0.53120637 0.54633105 0.5210302 0.37686014 0.38922882 0.07701242 0.7994143 0.8072076 0.8212895 0.8518551 0.8540253 0.41248137 0.4376919 0.45001096 0.023706868 0.03079553 0.079061 0.8357184 0.8303173 0.8177434 0.84993005 0.82875276 0.44156796 0.46667024 0.45773798 0.015089065 0.038804017 0.037137117 0.8352254 0.7944827 0.79182255 0.7854977 0.71203434 0.69838464 0.69128364 0.66046554 0.25804055 0.5034344 0.5253482 0.41694897 0.54570603 0.46266264 0.6372459 0.52899307 0.5412001 0.53883195 0.56868935 0.5197263 0.5495177 0.6823523 0.8129053 0.5039307 0.5470369 0.5244708 0.9098387 0.9164679 0.42734548 0.52593744 0.904584 0.90976644 0.3630681 0.39956617 0.87965506 0.8964639 0.31754833 0.41718397 0.6045499 0.76088035 0.83146 0.43793607 0.42864975 0.5252248 0.5346047 0.32110995 0.37609679 0.30359358 0.34617782 0.44057888 0.4100886 0.31378388 0.30353287 0.30457184 0.33064798 0.38561487 0.2851631 0.31981573 0.365141 0.35940832 0.19183472 0.3010841 0.38087434 0.49697405 0.58711517 0.35378444 0.44144067 0.2039313 0.57737106 0.43542808 0.43450233 0.36190075 0.22053757 0.5521537 0.5538013 0.68448555 0.7378872 -0.12706724 -0.022890076 0.3817974 0.47147405 0.67091984 0.74073505 0.7569212 0.5356562 -0.11025354 -0.105149865 0.36872151 0.40115622 0.38463515 0.34708118 0.70633197 0.6619692 0.35318714 0.107217714 0.41957572 0.32556915 0.30131638 0.274487 0.2836023 0.6059797 0.21501878 0.114503205 0.1748783 0.57782525 0.26427108 0.2839969 0.33434165 0.32569006 0.29715115 0.22263144 0.14116105 0.038362764 0.5230891 0.2058664 0.19940995 0.38517582 0.3705994 0.38140023 0.3155356 0.21104194 0.1415991 0.1861349 -0.0276075 0.1651866 0.4959644 0.33845755 0.45590317 0.42672247 0.04146693 0.16574454 0.2449609 0.13880108 -0.014080107 0.14325297 0.34655708 0.35847297 0.47495264 -0.018816734 0.020775776 0.07700008 -0.006491855 -0.090144545 0.04662305 0.34760717 0.36491692 0.73383015 0.75440687 0.7777461 0.4447777 0.52079105 0.5312829 0.48608795 0.3755205 0.08728648 0.115180925 0.28194496 0.32947677 0.19958314 0.2142775 -0.049558662 0.098741025 0.43169037 0.44063833 0.78554267 0.7767205 0.7889503 0.4827754 0.43425414 0.40501314 0.16027969 0.26638663 0.35845196 0.34413102 0.013255 0.37448445 0.4341532 0.4454161 0.8093933 0.82296026 0.7975917 0.31967515 0.42089194 0.4465537 0.28716716 -0.115381524 -0.046390135 0.40834507 0.8264053 0.6328677 0.38057074 0.42994595 0.44333112 0.3076286 -0.22253749 0.030251555 0.19098535 0.3416124 0.7851138 0.7321496 0.57816696 0.60211885 0.56465256 0.4711099 -0.15517396 0.4870245 0.2702483 0.1978108 0.41863507 0.23675048 0.48847508 0.44979644 0.4290505 0.448646 0.44987845 0.45228988 0.45495492 0.50823647 0.652563 0.7705059 0.8350824 0.31637225 0.45720983 0.856689 0.89281046 0.31946576 0.3640046 0.8935232 0.2547142 0.30876905 0.85840464 0.8708404 0.21917206 0.47777653 0.66891736 0.79494417 0.25365704 0.3590763 0.37332904 0.38602108 0.39931384 0.32400036 0.33380646 0.27465698 0.23204906 0.20320997 0.27469492 0.28951788 0.35775417 0.2921503 0.3111963 0.24473035 0.17815764 0.2071904 0.26795387 0.3340656 0.32070497 0.2806529 0.2999931 0.3057297 0.15322936 0.13242464 0.43049192 0.27691674 0.550179 0.26670897 0.55877167 -0.09402644 0.18048227 0.49052334 0.6118915 -0.059738383 -0.1536518 0.30019614 0.37479421 0.40861437 0.41528532 0.35049608 0.208265 0.51234776 0.41183713 0.7368569 -0.21524718 -0.1781014 0.31320247 0.37848124 0.38857067 0.39482036 0.31559932 -0.3107561 -0.2756558 -0.22899729 -0.22212392 0.06997221 0.3731885 0.36394083 0.22681978 0.16597366 0.34627333 -0.04353165 -0.34502625 -0.06830375 0.34359175 0.38636985 0.304653 0.2871957 0.086506054 -0.04728707 0.00881831 -0.35351458 -0.100911885 0.14871463 0.42402694 0.23462903 0.013176471 -0.21337011 -0.24322088 -0.044832714 0.15721771 0.37099355 0.13122304 0.25285417 -0.07179725 -0.08489856 -0.14361674 0.20604607 0.29127753 -0.02007387 -0.10319892 -0.1800399 -0.16183093 0.41117632 0.70927596 0.70199835 0.5955243 0.2816013 0.26113075 -0.06619402 -0.1830954 0.55163795 0.7616051 0.7388436 0.66261035 0.35465604 0.15038288 -0.016752947 -0.18802045 -0.13893881 0.46107322 0.53330314 0.7862062 0.78161347 0.5805979 0.30425975 0.16547382 0.2663151 0.43339545 0.49889773 0.7773576 0.78373885 0.45995876 0.35655746 0.29304713 0.31428897 0.32887864 0.41124356 0.7391936 0.66177917 0.4957428 0.45343068 0.4188063 0.28195602 0.2573229 0.20929906 0.641788 0.5473501 0.423721 0.411416 0.091738455 0.03229717 -0.06312089 0.071969174 0.07745975 0.19443716 0.12687793 0.24625453 0.8347822 0.35259363 0.47156838 0.5383694 0.6855569 0.7627368 0.8283596 0.8343012 0.8290561 0.18545745 0.202956 0.8168467 0.8426716 0.8251405 0.8239236 0.8234248 0.20053738 0.20887451 0.8131237 0.8543823 0.23177725 0.20173937 0.6957246 0.78362477 0.84103 0.242381 0.24680677 0.23995908 0.46229142 0.6334392 0.24148953 0.252988 0.26372203 0.2635766 0.23761716 0.17488238 0.19989683 0.23345701 0.30000144 0.29643476 0.2356057 0.2705105 0.25764692 0.1857804 0.1399825 0.16417876 0.22381483 0.23006468 0.21774784 0.22491634 0.28102392 0.26816615 0.18792924 0.07099024 0.08895213 0.16472343 0.2212315 0.2754545 0.120334126 0.12133605 0.19869108 0.16983566 0.20077804 0.26439214 0.09273978 0.27564692 0.27698278 0.025219172 0.312055 0.324717 0.31482697 0.23134917 -0.004373811 0.24203652 0.33223814 -0.010165334 0.042965483 0.30375248 0.48635882 0.42519847 -0.08933519 0.46685487 0.17390218 -0.101178214 0.26993954 0.10120274 0.6903974 0.8269668 0.27759647 0.31850612 0.29432312 0.23827888 0.35264415 0.22415054 0.0854189 0.5276685 0.6997004 0.76220477 0.8150543 0.8751925 0.9279642 0.31659037 0.33368072 0.35377187 0.11411357 0.26813936 0.08543116 0.6013149 0.7270771 0.80736923 0.8757391 0.9153224 0.3357343 0.35642126 0.162425 -0.39204782 -0.0511005 0.5626489 0.6466994 0.7425233 0.82356155 0.8566178 0.35448653 0.3651732 0.10573332 -0.19904663 -0.12199602 -0.42963228 0.3930288 0.4073499 0.047285914 0.43504906 0.011825517 0.4836316 0.4238413 0.12500298 0.33817065 0.21446559 0.13216051 0.519989 0.61199933 -0.04144701 0.5902789 0.60414743 0.70456374 0.6787312 0.112800196 0.32848915 0.5759512 0.586874 0.75357294 0.73872906 0.18662725 0.20904309 0.08288336 0.10022688 -0.16662297 0.52192026 0.5562476 0.7325678 0.66756123 0.2883092 0.10152272 0.43142536 0.4726562 0.6593642 0.3139503 0.26164746 0.18863834 0.17550988 0.2597683 0.58316344 0.5404439 0.4647749 0.43219164 0.40615365 0.37485203 0.33929628 0.13418631 0.033603355 -0.011695646 0.207137 0.4618429 0.44136202 0.4298274 -0.033601925 -0.035416372 0.11474222 0.03243234 0.17189781 0.08150483 0.28263277 0.82021093 0.82251656 0.8112668 0.81772137 0.8299632 0.8362967 0.8291563 0.41329667 0.5008512 0.6068746 0.65252465 0.6876774 0.72758865 0.82284725 0.8265103 0.8361801 0.8382715 0.82999516 0.028253563 0.69855124 0.74199235 0.81726813 0.81975746 0.8121939 0.81638485 0.77584493 0.30252418 0.22170135 0.122862585 0.7662321 0.7879974 0.7780821 0.70255697 0.2886945 0.2859481 0.226176 0.6694041 0.26764268 0.25379282 0.45544428 0.24891254 0.20977202 0.19921231 0.10234574 0.0121293515 0.2491602 0.14726503 0.21753353 0.09879506 -0.15400991 -0.03212279 -0.08058847 0.09394109 0.17349957 0.12253766 0.14347307 0.19574828 0.18547107 0.16684105 0.18684131 0.20332187 0.09958399 0.14881615 0.19044633 0.24812582 0.2504567 0.15134037 0.120203346 0.17060956 0.23412865 0.2865211 -0.15625603 0.027358428 0.18114455 0.18536504 0.14980477 0.07311327 0.20427859 0.30507672 0.1474526 -0.06205152 0.2049048 0.19251405 0.13819003 0.1518468 0.10828824 0.04492157 -0.051544763 0.23048483 0.23614031 0.17971064 0.10272645 -0.2380553 0.018648863 0.07055779 0.12639779 0.13036843 0.108543985 0.01206347 -0.04450115 0.070192605 0.4553818 0.59376717 0.63295466 0.7666787 0.88142926 0.21460235 0.2264061 -0.00493561 -0.074180976 -0.122773096 -0.34131303 0.11632085 0.9453449 0.96998477 0.289986 0.27603495 -0.12619774 -0.23226467 -0.31575966 -0.27293634 0.03120751 -0.09526138 0.0003606081 0.33251217 0.9173662 0.9420872 0.30982 -0.13892305 -0.25261748 -0.33047894 -0.13742416 0.44068208 0.5064068 0.5778516 0.68897116 0.77806294 0.87088317 0.9015415 0.2872198 -0.29439098 -0.2606362 -0.13882756 0.6015743 0.7531012 0.7856569 0.3165828 0.35422197 -0.08946027 0.37500837 -0.12161905 0.45550305 0.1858113 0.38252994 0.41730252 0.41901228 0.542734 0.1757626 0.5864663 0.5959116 0.606316 0.29055887 -0.51932395 0.5822107 0.6928928 -0.037184075 0.50850403 0.54167414 0.6332019 0.15250145 -0.049534902 -0.019353636 -0.048837222 0.0072941557 -0.14247411 0.44771218 0.57556653 0.48434153 0.2419246 0.24262355 0.11872189 0.09137893 0.07549705 0.3501359 0.3721574 0.5057651 0.4781872 0.39131194 0.35231882 0.20800436 0.22505915 0.23635432 0.15456094 -0.032493092 0.34968707 0.3682709 0.45489725 0.45660836 0.47003943 0.43527576 0.40727356 0.30772302 0.32170442 0.28526682 -0.07661939 -0.08002326 -0.045212343 0.31326222 0.40894777 0.36534357 0.085518375 0.24792266 0.36401382 0.3647218 0.2641082 0.30344653 0.3324317 0.34028763 0.31497315 0.79458463 0.7693707 0.77613133 0.79406977 0.80450165 0.7889699 0.800954 0.16106838 0.18812254 0.59267545 0.6665372 0.78900355 0.7954716 0.034944415 0.06504233 0.08487198 0.6755438 0.68270266 0.7790626 0.35909295 0.34936583 0.32411677 0.10460231 0.6694999 0.7606979 0.6647747 0.66225505 0.65907997 0.6217542 0.34452057 0.18679252 0.53118896 0.5392667 0.56034017 0.32175487 0.14462572 0.046980564 -0.038534544 0.06525534 0.22616215 0.16481139 0.091553316 0.12386274 0.088319704 0.06393788 0.042631473 -0.061811473 -0.039697196 -0.103434555 -0.11536947 -0.21066964 0.1540944 0.08852525 -0.10173419 0.17876509 0.0032247957 0.10153642 0.09822698 -0.038583428 -0.28274998 0.12895091 0.08728421 0.054875735 0.051301967 0.12860234 -0.010587357 0.099137716 0.08674272 0.05888965 0.09254088 -0.1871477 -0.18440738 0.1057135 0.14381707 0.12000187 -0.040995512 0.1357358 0.16142605 0.063670546 0.04713509 -0.060206812 0.048246045 0.13245183 0.09132508 0.14153937 0.098105125 0.11356835 0.45645285 -0.07787558 -0.07083804 -0.096461415 -0.1237229 -0.36193046 0.49460775 0.6468643 0.84252965 -0.095443204 0.11261479 -0.063854456 -0.12171125 -0.4924728 0.9768493 0.19646356 -0.46051592 0.1931981 0.9516944 -0.12295024 0.21904275 0.3411678 0.39875105 0.85990226 0.89297736 0.25013146 -0.19302647 0.4631526 0.5005869 0.6049258 0.7165406 0.7884573 0.23486026 0.24736148 -0.13335602 -0.063565016 0.3801728 0.5434075 -0.4119228 0.53545624 0.4844026 0.54053044 0.45671335 0.51010674 0.48280275 0.37689087 0.37765896 0.49037445 0.40808454 0.062005088 -0.008936562 0.34330806 0.3900355 0.021651506 0.14992629 0.16921775 0.36177346 0.45351925 0.46702006 0.47851333 0.46847898 0.41636923 0.16799347 0.23702607 0.32792592 0.13837992 -0.104951344 -0.07237638 0.45231575 0.42679507 0.32781446 0.36913764 0.37659538 0.33269137 0.2889564 0.18863228 -0.039139315 0.376791 0.43094438 0.44420758 0.40011322 0.36106038 0.28561252 0.23175101 0.35590526 0.3636939 0.35305393 0.32547715 0.3743373 0.4244842 0.3609686 0.37742728 0.37018985 0.75026953 0.6983433 0.6477287 0.4066996 0.6879667 0.68808293 0.58707714 0.24482328 0.24311414 0.268013 0.54566395 0.69790095 0.33548647 0.34299293 0.14336297 0.38058203 0.512329 0.5876127 0.20160106 0.22839025 0.39900243 0.3513046 0.049714595 0.5708121 0.25839904 0.088538386 0.0660609 0.24105704 0.10059169 0.27796915 -0.18850161 -0.25341618 -0.10386195 0.09347434 0.08059923 0.066969685 -0.07819459 5.5048615e-05 -0.081153914 -0.07223094 -0.11588635 -0.004439622 0.01791317 0.15125513 0.03217858 0.105083026 0.37224603 0.3850668 0.2986614 0.24166574 -0.009782311 -0.0045826286 -0.06792919 0.27488416 0.29008064 0.26341587 0.1935548 0.14862622 -0.07821849 -0.43862292 -0.35923064 0.22555456 0.17229019 0.16656242 0.15153915 -0.24227218 -0.11331566 0.08274015 0.22095734 0.059954245 0.057303473 0.087228686 -0.099327154 -0.054727055 0.27049762 0.1975163 0.04203517 0.010654017 0.26699203 0.11463397 0.0431329 0.14799866 0.025647357 0.31905085 0.18117009 0.07105526 0.008078891 0.5519539 0.7611373 0.18748681 0.124019906 0.010049071 0.8676009 0.8904433 0.2136839 0.2062525 0.1551579 0.8789348 0.19074087 0.070691586 0.07568546 0.39268112 0.80459857 0.85925275 -0.09679106 0.08192263 -0.12199596 0.49143854 0.49099702 0.5573131 0.66014075 0.7581469 -0.10589009 -0.029288646 0.0538171 -0.08148287 0.31377742 0.25493932 0.3395844 0.36029285 0.3200984 0.35626742 -0.22005823 0.23154062 0.32594365 -0.19425882 0.31486621 0.3260487 0.36222893 0.40537995 -0.093824044 0.014344737 0.3629897 0.4445364 0.43980467 0.40879846 0.053049926 -0.21434522 0.45107377 0.41855305 0.26336902 0.37032792 0.44668382 0.47194594 0.3773947 0.39945626 0.3677517 0.29605028 0.17713183 0.33771855 0.3109719 0.32651004 0.33588085 0.38346642 0.42358 0.26719168 0.44049898 0.3170424 0.36600935 0.34111208 0.62448686 0.67282164 0.68170434 0.58342445 0.5588438 0.4281332 0.43346015 0.4286584 0.4560712 0.55858725 0.5058907 0.42211977 0.41397226 0.40675518 0.37498492 0.3293388 0.34635115 0.34253508 0.33605117 0.35147917 0.21165518 0.36268157 0.27823037 0.26406837 0.3096674 0.21169367 0.13369834 0.10659619 0.35457414 0.2253893 0.17917222 -0.08124912 -0.1329992 0.050804265 0.19362092 -0.40185112 0.05493713 0.09562105 0.003623426 0.509783 0.5143808 0.4619848 0.38783032 0.26411143 0.10108732 0.41066524 0.4190114 0.4268652 0.35026345 0.24250765 0.13032918 0.31803876 0.3499896 0.28598365 0.06974346 -0.16719997 0.39384872 0.47607493 0.40760282 0.2493426 0.46196914 0.46561724 0.35375357 0.22811976 0.22060862 0.44054174 0.35772383 0.27505127 0.33879656 -0.11066052 0.259133 0.24584106 0.20001325 0.6322793 0.21600811 0.70672125 0.79576766 0.21481441 0.7023079 0.790337 0.16905032 0.3931698 0.7274328 0.7864875 0.079416364 0.038087197 0.09402909 0.4519742 0.5158123 0.55163115 0.58192813 0.6042856 0.003067091 -0.070945 -0.10608973 0.14827356 -0.11316663 -0.120271444 0.22499287 0.28843766 0.24009424 0.1974821 0.29761338 0.32240087 0.29414517 0.3110811 0.32040012 0.10586344 0.27512252 0.29577318 0.20654704 0.24303475 0.16224332 0.23038708 0.2487738 0.10644879 0.009145208 0.19667016 0.09580892 -0.3073798 0.285222 -0.020911545 0.023979396 0.27444285 -0.4004441 -0.3327507 0.31379494 0.3177204 0.16581534 0.20017716 0.29529643 -0.1519346 0.062157217 0.37009645 0.15480421 0.05062411 0.005511984 0.39744282 0.45322895 0.16540134 0.1606811 0.28600255 0.32103136 0.26258495 0.27934235 0.32156911 0.16003728 0.32943913 0.28665456 0.1840949 0.43407816 0.39555615 0.5295257 0.43297082 0.256373 0.32450014 0.31374645 0.5452724 0.58396494 0.55674034 0.551807 0.5026556 0.6762116 0.59623796 0.7373216 0.6821512 0.8235275 0.8355316 0.8859352 0.6771472 0.72016853 0.73838097 0.7472516 0.6030483 0.49572933 0.30467978 0.62049806 0.6086528 0.44002792 0.037106946 0.37720066 0.38012335 0.30818725 0.30012402 0.4343437 0.11864938 0.22221082 0.21260184 0.25095734 0.2739197 0.042038597 0.17192924 0.17576121 0.18963218 0.29363763 0.111515 0.09105356 0.23319468 0.56070316 0.5301826 -0.020341828 -0.041268423 0.5205252 0.54822004 0.45840973 0.35915202 0.2700467 0.07790999 0.06543146 0.2051558 0.15739283 0.42936093 0.43368578 0.3985148 0.41906747 0.4692593 0.4015233 0.4617927 0.49690056 0.48966244 0.4827525 0.49770153 0.4836377 0.39674705 0.42254347 0.4903468 0.3420279 0.45064375 0.31744054 0.18796477 0.45639113 0.5231595 0.122218624 0.57006145 0.28615266 0.08368983 0.18376261 0.6095661 0.6210047 0.31421202 0.27839836 0.22167918 0.11065945 -0.14975229 0.20111258 0.6357713 0.63875145 0.21866488 0.12437682 0.08308795 0.45015514 0.5380113 0.5795952 0.61764276 0.6408419 0.1520174 0.08809404 0.043004382 0.034204252 0.2752808 0.2678437 0.1267806 0.21208665 0.27246687 0.28158703 0.13190374 0.1508997 0.08920506 0.14457048 0.10827716 0.088742875 0.11973071 0.09230803 0.09424404 0.14246017 0.1599882 0.2031672 0.09092073 0.14280191 0.22954524 0.38996196 0.41617367 0.43304774 0.08853398 0.20622669 0.20729452 0.16482294 -0.03551738 -0.3080035 0.0010346472 -0.23822178 0.2604373 0.29154533 0.5397296 0.59248114 0.6009985 0.67833483 0.22957176 0.2449839 0.14647543 0.099826284 0.18021205 0.27627674 0.36716944 0.42350528 0.65074337 0.69058794 0.70636755 0.7037382 0.16172835 0.14631784 0.059836604 0.012898013 -0.075170055 0.19713032 0.06428796 0.24216303 0.67485493 0.67958534 0.18887675 0.17202331 0.12667269 0.043348253 -0.050215106 0.16251266 0.16004473 0.3757776 0.4983314 0.33558202 0.2515004 0.0734577 0.42121756 0.53158855 0.5897844 0.54426837 0.41017562 0.59616053 0.5917945 0.37448794 0.5572165 0.58447015 0.5784184 0.7021276 0.69682705 0.5263995 0.77586067 0.76983 0.696503 0.5434992 0.46471035 0.7921399 0.7771783 0.7114177 0.56430113 0.81297505 0.8836345 0.9675499 0.96583045 0.73742616 0.73003334 0.92011595 0.8883194 0.28006643 -0.025681162 0.07478177 0.7105757 0.5088202 0.066500835 -0.07231083 0.020545026 0.19298622 0.28481743 0.2523944 0.28553146 0.31142533 0.33179277 0.595437 0.40390724 0.0034575164 0.28859648 0.2526555 0.38025326 0.019508988 0.12484015 -0.025906444 -0.14123826 0.30530858 0.06782985 0.0054679858 0.30908576 0.21117376 0.54812783 0.56583786 0.47361463 0.30116755 -0.18579718 0.4729365 0.5066971 0.15472628 -0.07020512 0.38589424 0.41778916 0.40066844 0.44250414 0.48865315 0.5027472 0.52474684 0.51041716 0.4576134 0.46023825 0.52243453 0.40188742 0.5215214 0.31626564 0.30284584 0.46046156 0.5043797 0.35946715 0.3243741 0.28928623 0.21162331 0.10241354 0.039370056 0.54073197 0.5523704 0.35428235 0.36438292 0.35002387 0.3132082 0.23058017