# vtk DataFile Version 2.0
Really cool data
ASCII
DATASET POLYDATA
POINTS 8119 float
-9.671869 35.208126 -1.55942
-9.671533 35.696503 -2.8160114
-9.867229 35.797176 -2.3694284
-9.902335 35.692245 -1.5071821
-9.756219 35.645912 -0.98687977
-9.7669325 36.497948 -2.8580725
-9.962842 36.482 -2.406002
-9.990436 36.490673 -1.5678161
-9.737751 36.357765 -0.9039463
-9.721299 36.9867 -2.8151355
-9.770195 37.0701 -2.4488282
-9.811821 37.12621 -1.6921057
-8.909804 34.793404 -3.192962
-9.210352 34.794853 -2.4049804
-9.291751 34.77255 -1.4418247
-9.271211 35.06813 -0.7326104
-8.804335 35.689255 -3.80747
-9.112043 35.567703 -3.3832994
-9.3158865 35.269505 -2.781744
-9.288889 35.32878 -0.56116533
-9.165216 35.72456 -0.2543354
-8.857004 36.01839 -3.6867962
-9.451516 36.589607 -3.160587
-9.438375 36.687916 -0.63691235
-9.098843 36.591892 -0.30040234
-9.339158 37.12561 -2.9457817
-9.367106 37.428925 -2.595152
-9.425567 37.48946 -1.4882277
-9.229015 37.181538 -0.7361988
-9.208733 37.64989 -2.2534912
-9.020258 42.17743 9.986179
-8.957044 42.054478 10.184443
-8.893377 42.177006 11.1160345
-8.915918 42.648113 9.112211
-9.208599 42.694653 9.606042
-9.363841 42.97078 10.388507
-9.023257 42.56468 11.254682
-9.053154 43.626408 9.082042
-9.306701 43.611942 9.706978
-9.40763 43.56183 10.458026
-9.184337 43.502228 11.385268
-8.900536 43.50925 11.8367195
-9.185682 44.319027 9.758962
-9.187614 44.451344 10.64413
-9.064343 44.28699 11.195001
-8.778427 44.091946 11.786583
-8.802236 45.42766 9.932552
-8.743087 45.34454 10.368619
-8.6826725 45.161827 10.953477
-8.005299 34.285553 -3.753164
-8.187815 34.179325 -3.2298696
-8.566991 34.168274 -2.8901424
-8.02633 34.082394 -1.3339916
-8.382073 34.316784 -1.0395154
-8.206588 34.762863 -3.9542837
-8.462023 34.51668 -3.552207
-8.340233 34.66735 -0.5826955
-8.570962 35.072685 -0.26316398
-8.5603695 35.324024 -3.9221547
-8.32827 35.343513 -0.104227096
-8.375772 36.272625 -3.9262364
-8.636784 36.365395 -0.054904252
-8.161442 37.084274 -3.7540627
-8.363044 37.081573 -0.2260107
-8.523627 37.885704 -2.2646422
-8.732598 37.80961 -1.1899695
-8.030257 37.708595 -0.5491622
-7.8165665 41.018166 9.437356
-8.034794 40.950935 10.414699
-8.09586 41.112362 11.286564
-7.76394 41.51844 8.6164255
-8.558061 41.963432 9.447122
-8.356087 41.74012 11.453565
-8.041203 41.726097 11.85798
-8.229362 42.44191 8.657393
-8.586686 42.303635 11.643037
-8.203265 42.44382 12.005251
-8.399182 43.53332 12.088131
-7.7354517 45.037064 3.0699234
-7.836677 44.92289 3.6181552
-7.6417956 44.39358 4.371105
-7.7203298 44.444866 5.263625
-8.689383 44.55233 11.515647
-8.327435 44.229584 11.90492
-7.877072 45.7852 2.7651188
-8.068235 45.425186 3.4782674
-7.9541335 45.411964 4.3377523
-8.38135 45.574116 9.23367
-8.56455 45.68496 9.803856
-8.507366 45.61164 10.639935
-8.501249 45.102238 11.153931
-8.320869 44.757107 11.665884
-7.9997573 46.25159 2.9292367
-8.220417 46.176163 3.5757518
-8.366929 46.57373 4.618849
-8.320102 46.98727 5.292618
-8.021297 46.98848 6.708918
-8.315082 45.923313 9.699843
-8.179978 45.995758 10.410601
-8.134084 45.79682 10.886369
-7.768332 46.979324 2.8006058
-8.113165 47.659187 3.8380716
-8.42341 47.444454 4.571249
-8.30006 47.54416 5.452178
-8.161262 47.55791 6.220669
-7.759701 47.317677 7.122213
-8.012544 48.299957 3.837869
-8.1204 48.379295 4.4674845
-7.979432 48.276196 5.550411
-7.8716908 48.158688 6.131196
-7.817847 48.796528 4.472821
-7.960166 48.68766 4.911568
-6.876738 33.351448 -2.1527348
-7.4368186 34.15426 -3.6919177
-7.4919887 34.055443 -3.4943287
-7.469286 33.736206 -2.5531137
-7.444908 33.682995 -1.5038408
-7.0218396 33.721703 -0.66665596
-7.1840878 34.170822 -0.2672022
-7.7955894 34.486675 -3.8701591
-6.862755 34.59847 0.07715261
-7.5220785 35.268646 -4.2699146
-7.6105933 36.28155 0.11769214
-7.3723836 37.157547 -4.098546
-7.396176 37.0916 -0.04610145
-7.126891 37.850204 -3.7508485
-6.8011146 38.249462 -3.7339964
-7.6361074 38.166626 -2.4866385
-7.7647543 37.751682 -0.5267689
-6.579709 39.31887 -4.0317245
-6.5577307 39.36448 -2.9891798
-6.9476624 40.201824 9.5393715
-7.334571 40.4135 10.674087
-7.172892 41.075794 8.254926
-7.1228967 40.63052 8.719274
-7.322748 40.56059 9.148728
-7.4734244 40.59504 10.260341
-7.435763 40.67404 11.283994
-7.410458 41.065826 11.878235
-7.3035936 41.470074 8.159852
-7.299157 41.48077 12.185485
-6.6906548 42.862232 -1.2528611
-6.670139 42.758766 -0.84064126
-6.5801 42.915318 -0.06855173
-7.556806 42.23909 8.351304
-6.964964 42.743584 12.43415
-7.1339173 42.584778 12.52063
-6.8040376 43.355103 -1.394873
-6.9057293 43.555077 -0.54525805
-6.747263 43.878464 0.2845129
-6.660851 43.897182 2.3765569
-7.432066 44.127277 3.9485729
-7.077426 43.498447 4.6190434
-7.352332 43.90827 5.270674
-6.882033 43.826035 6.320766
-7.426653 43.51454 12.300959
-6.7211246 44.02728 -2.0530703
-6.8924546 44.06922 -1.6847272
-6.866094 44.597557 -0.6074744
-6.755699 44.73407 1.5537387
-7.2064548 44.49672 2.4940984
-7.5514593 44.587753 3.255639
-7.406223 44.27684 6.1218476
-7.733742 44.266552 12.112304
-6.6511254 45.558365 -3.361624
-6.6803436 45.543575 -2.59095
-6.6366863 45.520756 -1.484965
-6.601859 45.11816 -0.41525158
-6.7356176 45.51755 0.38271463
-7.117975 45.158176 1.7553821
-7.6320252 45.31581 11.499002
-7.596158 45.182087 11.679989
-6.5842276 46.114597 -3.9675376
-6.7208266 46.351604 -3.5176113
-6.774192 46.21223 -2.796141
-6.5953097 46.898785 -1.4819002
-7.3083086 46.031677 7.648891
-7.194933 45.969757 8.667997
-7.4932876 46.32355 9.645232
-7.584262 46.251534 10.325022
-7.301487 45.96597 11.020948
-6.7224684 47.937225 -1.9364054
-6.7072945 48.022396 -1.5363382
-6.660396 47.601677 -0.62823325
-7.2043347 47.72189 7.4177866
-6.699055 48.170048 -2.000006
-6.755029 48.429184 -1.4811867
-6.816212 48.57433 -0.4982673
-7.4954066 48.302032 3.2957852
-7.286465 48.40666 6.5387716
-7.43694 48.098717 7.003895
-6.691201 48.98842 -1.481028
-6.6679363 49.226597 -0.5987236
-7.4348035 48.88845 3.830929
-7.4234023 49.00441 4.487708
-7.375071 48.855465 5.306231
-7.174278 48.658653 6.082409
-6.5096555 33.360813 -0.9920747
-6.8716025 33.94198 -3.266592
-6.4042554 33.565956 -0.73239183
-6.3285275 34.042603 -0.03627172
-6.6408057 34.743618 -3.987616
-6.428798 34.553894 0.13586402
-5.909752 35.105057 0.79676414
-6.265383 35.55288 0.81854826
-6.158553 37.03464 0.7712483
-5.8809986 38.547092 -5.3809547
-6.3722296 37.878307 -0.08228664
-5.878374 39.37881 -5.4119997
-6.412863 39.30498 -4.3549604
-6.294351 39.773777 -2.4020867
-6.3290205 40.15823 8.723239
-6.336034 39.85541 9.60495
-6.024469 39.653675 10.276628
-5.8540745 40.200256 -4.9431686
-5.9878488 40.335773 -4.325118
-6.331197 40.14445 -3.6073976
-6.306257 40.02663 -2.8979766
-6.0077796 40.417942 -1.293217
-5.812448 40.53149 -0.79975206
-6.326416 40.457367 8.244285
-6.5243206 41.17907 12.2136755
-5.700944 40.7797 -4.282135
-5.6672688 41.16918 -3.014487
-5.770014 41.46052 -2.4370852
-6.1950283 41.821995 -1.3826398
-6.1299148 41.594776 -0.55101955
-5.7766876 42.06476 6.71241
-6.620094 41.608753 12.35311
-5.953251 42.551575 -1.9782867
-6.3786774 42.28352 -0.39536902
-5.79974 42.48482 0.6872238
-5.75251 42.929184 1.6592993
-6.411809 43.118908 3.8004708
-6.0530562 42.531612 6.5276194
-6.5077186 42.122574 12.447001
-6.1770744 42.655304 12.577671
-6.323752 43.888126 1.9375119
-6.2227025 43.03024 12.517461
-5.6257844 44.62668 -4.8010573
-6.3583875 45.19023 -3.737381
-5.839799 45.483437 -5.176437
-6.156767 45.696953 -4.6186132
-6.544358 45.604694 11.37229
-6.6701064 44.964325 11.840228
-5.784725 46.321697 -5.262552
-6.388556 46.462875 -4.2482605
-6.444773 46.4808 -1.5661767
-6.391355 46.591984 -0.16491456
-6.1571903 46.57336 7.896118
-6.73225 46.352535 9.362949
-6.634224 45.917404 11.069218
-5.846515 47.129528 -4.8864446
-6.1150374 47.35727 -4.2458434
-6.4208007 47.22546 -3.3887062
-6.3749204 47.494846 -2.6504245
-6.380763 47.346462 0.5715071
-6.224038 47.650074 7.534413
-6.718238 47.66456 7.6012034
-5.783521 47.875393 -4.3466716
-6.2179055 48.134552 -3.0798635
-6.336232 48.764305 -2.3486342
-6.05939 48.788647 0.7854924
-6.3655286 48.54083 3.4450533
-6.4553347 48.4331 6.533264
-6.7717786 48.097992 7.1550183
-5.9879603 48.788486 -2.8162508
-6.1222563 49.390594 -2.137614
-6.325442 49.549034 -1.5579876
-6.505919 49.60685 -0.7207499
-6.315048 49.200253 0.16099942
-6.71311 48.62851 3.4140563
-6.9212227 48.883247 5.4316044
-6.498347 48.593792 6.096849
-5.8951273 49.874355 -1.9630256
-5.9553995 50.01333 -1.445195
-5.980118 49.977894 -0.67867285
-5.225324 33.959118 0.04235384
-5.4764843 34.910305 -3.9634707
-5.125231 36.09097 -5.0247707
-5.547796 36.043705 1.1682521
-5.004636 36.768276 -5.6000934
-5.067841 36.612473 -5.42214
-5.7450604 36.16337 1.1556842
-4.9128456 37.211174 -5.6691985
-5.5709934 37.657444 -5.275347
-5.309742 36.993866 1.1275716
-5.112166 38.671734 -5.8935204
-5.0951505 38.540432 0.29724905
-4.6455135 38.086727 1.2816236
-5.328463 39.3155 9.778737
-5.3396993 39.32146 10.402722
-5.4175396 39.366432 -5.769766
-4.780583 39.959843 0.30467442
-5.5030265 39.831223 8.767966
-5.4571824 39.51097 9.406654
-5.757964 39.50379 10.783779
-5.5273886 39.714947 11.151685
-4.902142 39.87298 -5.8284674
-5.259705 40.15073 -0.20472479
-4.6530113 40.8393 6.5343976
-5.5018854 40.866734 7.56003
-4.9395833 40.70238 12.345771
-4.7772746 41.3638 -5.107438
-5.4444695 41.199726 -4.467485
-4.7088757 41.804966 1.0220053
-4.8938828 42.05659 2.7399879
-5.096785 42.068382 4.310367
-5.033421 41.460484 5.7848744
-5.067466 41.39691 12.659867
-5.152447 41.792526 -4.2381053
-5.351669 42.794094 2.1240256
-5.6035104 42.347843 12.565131
-5.2269616 44.087788 -4.2945786
-5.10385 43.25935 12.310594
-5.086143 44.99158 -6.092435
-5.1612797 44.719097 -5.5831227
-5.5568075 43.854633 12.083088
-5.1989284 45.62701 -6.1734533
-5.1440463 46.29757 -6.109213
-5.4594774 46.332634 -5.643612
-5.6993856 45.99657 8.434686
-5.9406605 46.082638 9.276919
-4.9365544 46.853523 -5.9984784
-5.2852664 47.51097 -5.207585
-5.3429937 47.92569 -4.8485236
-5.221742 48.34391 -4.4446936
-5.6269073 48.42356 -3.7414298
[...]
POINT_DATA 8119
SCALARS features_00 float 1
LOOKUP_TABLE default
0.84002995 0.7239932 0.79763365 0.8791507 0.8447043 0.7278964 0.7941911 0.8946372 0.87892216 0.7254057 0.7722407 0.86173403 0.6274134 0.73365337 0.77209544 0.7436242 0.61795795 0.6485077 0.7032296 0.7621839 0.7587883 0.6185576 0.673245 0.8407916 0.769228 0.665379 0.70335174 0.8509699 0.8242247 0.7297523 0.6197715 0.62516254 0.67362905 0.5598644 0.6356771 0.7147619 0.7076286 0.6414622 0.70122564 0.7255088 0.70519125 0.67605007 0.6510296 0.6240271 0.6197367 0.6141357 0.55799603 0.5670913 0.5676811 0.5533469 0.5589323 0.5966341 0.572611 0.5806075 0.56549466 0.5842354 0.5643734 0.61917675 0.6001567 0.5900853 0.5791763 0.6893869 0.49762765 0.64478135 0.6470367 0.7909823 0.6045551 0.4560672 0.55181247 0.60834587 0.4132184 0.517366 0.6304342 0.606415 0.45739874 0.6651368 0.63110495 0.6361787 0.24101086 0.26239738 0.2662746 0.27391797 0.5838321 0.5796658 0.27798113 0.3015775 0.33684868 0.5053135 0.5468551 0.5570713 0.5638169 0.561998 0.35903972 0.4090238 0.52075404 0.5893669 0.5435226 0.5329063 0.5405838 0.5451448 0.485184 0.61911243 0.6037793 0.6188013 0.60522515 0.5199487 0.67220247 0.6521074 0.63422036 0.6196192 0.66677916 0.64894724 0.55944824 0.5232874 0.5300625 0.58767575 0.53631413 0.40166444 0.39209872 0.53908765 0.3380559 0.5154891 0.48442647 0.35453913 0.42915782 0.23466459 0.19014102 0.3528449 0.5391683 0.23646884 0.14897165 0.41000092 0.49352482 0.33810252 0.3877313 0.42083508 0.48469067 0.5692228 0.56669974 0.32294124 0.5227406 0.21191615 0.20473906 0.19827294 0.3540356 0.44693983 0.47363842 0.2264696 0.22604325 0.16686116 0.10942098 0.2354185 0.211346 0.24214187 0.19841242 0.52050936 0.1995593 0.20995674 0.17084813 0.09419062 0.1793102 0.22302581 0.23132174 0.5340158 0.29203814 0.19498286 0.1294832 0.11560418 0.046102177 0.12955247 0.5336789 0.5288 0.38219917 0.33082438 0.24765618 0.22013047 0.22485964 0.25740057 0.46769565 0.52948356 0.53607357 0.35144478 0.3687829 0.32210255 0.4816105 0.3810169 0.43073443 0.50665766 0.7176278 0.58398277 0.5563055 0.49971712 0.5820336 0.7051618 0.65292954 0.6224201 0.60221046 0.35467574 0.50463057 0.31946516 0.28244826 0.4082557 0.29223466 0.24099144 0.2709529 0.15769729 0.44132853 0.14951345 0.42495525 0.28631437 0.09399954 0.34041536 0.37422538 0.36977682 0.3481611 0.27840918 0.20877318 0.14927523 0.02627933 -0.0009892136 0.3043914 0.38737914 0.25775003 0.116657056 0.035404503 0.12683107 0.08136675 -0.08403896 0.39304549 0.13661218 0.15500706 0.09419584 0.0064014494 0.09653528 -0.10421553 0.37355584 0.31286287 0.07092264 0.30960846 0.43730795 0.33961385 0.4820739 0.45037532 0.45300823 0.43755752 0.47453415 0.41256174 0.18069437 0.1549949 0.07976424 0.2750133 0.4838997 0.4359253 0.40252334 0.34726694 0.3205046 0.33577126 0.31753752 0.3984972 0.39237648 0.37797624 0.4397176 0.6186155 0.7098326 0.4969905 0.48147908 0.4287853 0.5061633 0.551203 0.604401 0.6378574 0.7245195 0.59433997 0.53184986 0.5505774 0.5919725 0.63127863 0.16511957 0.15380162 0.32345906 0.20742838 0.37112516 0.36207032 0.2116926 0.37851018 0.37935024 0.11891645 0.4132654 -0.15567985 -0.040236965 0.3160968 0.33445466 0.42004365 -0.10360058 0.2876922 0.31256646 0.3581416 0.36815226 0.3503176 -0.0732636 -0.07090803 0.12790951 0.34292895 0.2144244 0.2518434 -0.0475758 -0.12147715 -0.06764334 -0.062458396 0.25848728 0.1663737 -0.05712324 0.24761926 0.3603577 0.15634066 0.47418943 0.4564436 0.19253008 0.49776897 0.48571384 0.48149464 -0.08660469 0.0809387 0.45568773 0.42075592 0.39647126 0.370753 0.38736278 0.63158166 0.4977692 0.33957472 0.31244126 0.38325167 0.60019505 0.54358256 0.5879256 0.61933076 0.6305084 0.5593459 0.5814699 0.6578088 0.71899045 0.5442577 0.5219864 0.51669425 0.12229555 0.106212735 -0.052809246 0.12917303 0.1759935 0.21618466 0.3109191 0.18943623 0.15284887 0.3676533 0.35883608 0.11515461 0.38825625 0.025375798 0.404306 -0.018112525 0.09638104 0.09741899 0.16902336 0.23294967 0.27918038 0.349704 0.38517976 0.30940416 -0.19714454 0.0011071265 0.047467735 0.07615487 0.12882672 0.21984905 0.38699716 0.39833894 0.4043494 0.018543292 0.03103888 0.38234177 0.3576243 0.28345478 0.2984092 0.28256872 0.07939474 0.07727145 0.43774453 0.40109056 0.07469417 0.48455262 0.16086264 0.47859162 0.48110175 0.30047715 0.433349 0.41075075 -0.09801552 -0.14442661 0.17320201 0.40991265 0.3605277 0.35167348 0.35055298 0.30731726 0.36352557 0.37354985 0.45351672 0.51275826 0.56399167 0.6547244 0.745309 0.77778107 0.7664424 0.5612727 0.59470254 0.696105 0.53824663 0.30556327 0.12130009 0.26133054 -0.09833522 0.25631934 0.23561692 0.27366203 0.12405613 0.1803723 0.171242 0.33836284 0.33089185 0.092741854 0.102561146 0.36120683 -0.047871687 0.38189372 0.07397546 0.10627687 0.10834728 -0.1833999 -0.08806195 0.105041385 0.34037158 0.39537272 0.40486172 0.040248998 -0.13479498 -0.13160188 0.3934573 0.20521422 0.045656674 0.35012892 0.19000006 0.056911346 0.2796599 0.09754982 0.06435472 0.15127896 0.12631844 0.14337191 0.080608115 0.38147283 0.32910424 0.08637806 0.43505847 0.1204416 0.44090062 0.31566605 0.42091373 0.39711884 0.047244802 0.25488436 0.44384992 0.42424992 0.29902315 0.09051887 0.031777143 0.18043524 0.21192399 0.18278089 0.33562648 0.3889696 0.46508417 0.5160827 0.5636375 0.6389874 0.62412834 0.73415947 0.7597196 0.65024567 0.7181417 0.7588826 0.7427728 0.5645529 0.6070806 0.6715479 0.580412 0.5161464 0.39426368 0.22482178 0.2918966 -0.07623598 -0.19046587 0.27591488 0.22568306 0.02851054 0.31484783 -0.072271496 0.12191166 0.137189 0.17083168 0.20418507 0.0014490597 -0.08265471 -0.11183698 0.3696814 0.27232352 0.25016907 0.3569946 0.30087414 0.27195156 0.3290846 0.33823645 0.26954415 0.282354 0.20753303 0.17610271 0.23004761 0.114183694 0.27648652 0.22092956 0.36522907 0.35988474 0.30970937 -0.08955049 0.44397816 0.4509869 0.29453287 0.11973761 0.09283258 -0.047703236 0.34503707 0.4315613 0.100629576 0.13785936 0.11931502 0.044356816 0.49171838 0.6947837 0.67475307 0.68364966 0.67925215 0.7541158 0.74333775 0.7086049 0.72380126 0.7358974 0.6235064 0.6905293 0.7236748 0.71925616 0.66924596 0.55741113 0.5710474 0.6096639 0.4351637 0.35011226 0.2299439 0.1729342 0.20470756 0.20190994 -0.019982073 0.15760429 0.44340765 -0.01254911 0.00787729 0.2641025 0.32003906 0.34569228 0.100609384 0.11169489 0.016586311 0.010551028 0.27692232 0.121443346 0.26595452 0.26717323 0.29822317 0.24259767 0.27997106 0.3889047 0.26542085 0.42604375 0.2395235 0.39707205 0.28389436 0.22104496 0.20923285 0.27407014 0.0899121 0.12617183 0.20457417 0.28328744 0.19868049 0.1574388 0.25084767 0.23698282 0.35361257 0.26293114 0.2991195 -0.03144954 0.16353871 0.4361174 0.102542475 0.07964084 0.3014611 0.062252223 0.113038 0.22475106 0.21306132 0.1185737 0.009200193 0.2152603 0.20458198 0.72113097 0.66710305 0.6479963 0.79960996 0.79164606 0.7532243 0.5868 0.64749455 0.6959256 0.6589514 0.62427706 0.45680618 0.5248687 0.561316 0.42755914 0.45342714 0.13240445 0.19369093 0.17166278 0.15434985 0.02327416 0.52391934 0.53308594 0.55067706 0.040859412 0.35601667 0.36981818 0.4591459 -0.15015483 0.2854711 0.2720006 0.36736372 0.24929678 0.1771703 0.26668862 0.2685426 0.3264455 0.28829068 0.30062455 0.35756177 0.2976305 0.40711063 0.34175083 0.43349874 0.4006434 0.37186664 0.5217062 0.19267777 0.42662424 0.50111246 0.080531225 0.09181281 0.4158115 0.4669087 0.07432297 0.24228466 0.3555128 0.4083876 0.08374412 0.12845062 0.26086754 0.20302923 -0.009717211 0.053568173 0.13407718 0.18399847 0.27224815 0.28039604 0.2607308 -0.040409267 0.20778325 0.34540966 0.33749646 0.28852803 0.41240156 0.45647663 0.65173256 0.5892848 0.5773585 0.7196504 0.8065859 0.7548854 0.65318036 0.6326194 0.6276319 0.5975003 0.4773061 0.5650816 0.5731985 0.5653541 0.30243027 0.44114906 0.19481216 0.13707586 0.20397162 0.19817051 0.06486318 0.10341534 0.090159476 0.19802243 0.048947245 0.64702666 0.6435325 0.65604055 0.12331407 0.17709768 -0.020856075 -0.06407063 0.5283054 0.56805366 0.6003002 0.6057831 0.11083532 -0.10027983 -0.08905071 0.13059068 0.38985753 0.30932847 -0.05447471 0.36474657 0.24315023 0.277507 0.2890737 0.32862264 0.26579624 0.36450744 0.36249763 0.41482604 0.4803809 0.3462526 0.30709183 0.5726526 0.28619593 0.5848887 -0.0065044314 0.45544493 0.5306035 -0.14955042 0.16401061 0.357646 0.4508602 0.15646611 -0.5364607 -0.4641987 -0.04354128 0.27010074 -0.14702366 0.31896263 0.284867 0.2130177 -0.058318894 0.37911034 0.18910925 0.46265984 0.3148638 0.71028924 0.432734 0.38077238 0.26833323 0.349541 0.45328116 0.64398605 0.56306636 0.7221528 0.8027555 0.8009939 0.5163974 0.5997537 0.6743211 0.8725573 0.8868083 0.86528313 0.8746973 0.89586824 0.49791813 0.38363492 0.37942734 0.14149731 0.1199903 0.18221961 0.09455691 0.076547734 0.15636638 -0.0052343975 0.017634463 0.680193 0.70596546 0.70369613 0.1379269 0.46033567 0.708268 0.3725016 0.31334162 0.10593735 0.570984 0.6363673 0.5980073 0.52572596 0.35609162 0.27666822 0.1595297 0.64213127 0.58421326 0.34847793 0.1896647 0.26856995 0.5278199 0.32639197 0.2964668 0.31010675 0.33647525 0.3508471 0.29235548 0.3803529 0.28335184 0.28276002 0.4763248 0.1577089 0.57614017 0.011986129 0.6096787 -0.22222331 0.5186999 0.5718827 0.033155933 0.3924989 0.48821393 -0.49639064 -0.053213567 0.3072743 -0.5321855 -0.16251783 0.3470624 0.3206619 -0.18438217 0.1488832 0.270872 0.20276865 0.11490044 0.31695694 0.37762195 0.56192666 0.33771122 0.37004328 0.084703095 0.11918647 0.3257411 0.4077162 0.58294106 0.61104333 0.683159 0.7069912 0.4310614 0.44231057 0.41089517 0.4572841 0.5624262 0.5660928 0.65954155 0.8013676 0.7835786 0.6102869 0.7764245 0.8468708 0.8739432 0.83181095 0.77132064 0.8339194 0.88087904 0.8904578 0.8614336 0.8607722 0.1464209 0.17939919 0.21730499 0.2063692 0.07624486 0.15045248 0.07968691 0.13650835 0.14139523 0.04845173 0.069915645 0.05694758 0.7253171 0.74347305 0.20345885 -0.15514953 -0.083194725 0.06970407 0.7436782 0.73935044 0.70313025 0.66257983 0.5988248 0.28493816 0.21984848 0.1420676 -0.06576446 0.59358245 0.7388138 0.67849076 0.59375095 0.10113702 0.7526293 0.7023097 0.7271082 0.0696212 0.28120902 0.5264528 0.45709252 0.27712628 0.2914711 0.30576444 0.22239503 0.3820685 0.43125135 0.12974387 0.40354818 0.49949402 0.06099745 0.54922605 -0.3801241 0.50471234 0.52489805 0.01945448 0.11164117 0.34368736 0.44322777 0.086561665 -0.018738464 0.09701456 0.34962323 -0.38708752 -0.2030823 0.062233746 0.33854657 0.33943164 -0.492628 -0.23866448 -0.2216931 -0.12643498 0.24066778 0.3180686 0.25857702 -0.10101348 0.080933586 0.09609545 0.4259026 0.3494084 0.26602098 0.08647926 -0.17332429 -0.1630708 0.44350147 0.30370563 0.6604687 0.40699446 0.39264718 0.31955993 0.67640275 0.57983506 0.6512048 0.769024 0.7235803 0.78567934 0.8715644 0.8397895 0.8049632 0.8321562 0.86459154 0.40331072 0.12738779 0.058040738 0.14542648 0.20446298 0.2417922 0.24702193 -0.03552808 -0.039921664 -0.06892092 0.12543565 0.4346963 0.19331938 0.072351895 -0.08054086 -0.11218803 0.61070216 0.6641736 0.6927049 0.6326932 0.41753078 -0.019220268 0.4224426 0.5606587 0.5576761 0.7784847 0.7228179 -0.2403703 0.36446923 0.81224215 -0.3100403 0.8063734 0.7757543 0.21649265 0.61047745 0.497949 0.38955882 0.20948693 0.34774208 0.26921868 0.11840762 -0.025372254 0.23917362 0.29048115 0.39586416 0.4308984 0.5011171 -0.16545603 0.45654958 0.47811672 0.24286997 0.2347064 0.39770934 0.38756078 0.12193267 -0.090005994 0.38938594 0.18191998 0.20762315 0.2688471 0.3008181 0.23616274 0.11488281 -0.14267829 -0.05478524 0.4095465 0.291305 0.11230425 -0.11958567 -0.14632002 0.07480775 0.021762019 0.03301638 0.48621827 0.47249204 0.45646882 0.5843369 0.5664127 0.57160246 0.6779541 0.61766136 0.6284326 0.71399003 0.8188799 0.7792188 0.75803256 0.7980814 0.8253157 0.5061052 0.4853331 0.3777964 0.16294855 0.12086555 0.12619683 0.49046552 0.46395114 0.16360423 0.19372201 0.22968706 0.29031917 0.010915628 0.0042099673 0.65423167 0.38340342 0.2589516 -0.028910475 0.09210328 -0.06019857 0.7621249 -0.11957968 0.8376601 0.12630282 0.79721737 -0.23311728 0.139384 0.74714434 0.6561203 0.058885396 0.59465635 0.43743724 0.35712904 -0.023043111 0.030489877 0.30371606 0.19127862 0.09200819 0.23279707 0.32658562 0.0625214 0.38875782 0.044942513 0.40826964 0.48108438 0.39146572 0.07666285 0.09900637 0.5158453 -0.096724615 0.5771475 0.5229557 0.09264879 0.6150857 0.56200767 0.38427445 -0.10271405 0.33359084 0.56483287 0.44898933 0.23544285 -0.13855687 -0.11723772 0.40296718 0.47125205 -0.0947843 -0.09309066 -0.11687339 -0.14563465 -0.20088324 -0.021770641 0.118160434 0.083022416 0.5190734 0.10510079 0.15448207 0.19685996 0.4616932 0.552213 0.53286445 0.68934876 0.620095 0.6734291 0.79487133 0.76862967 0.7358303 0.77660835 0.8030081 0.53769535 0.3834616 0.30818903 0.5358727 0.53672206 0.21330631 0.1285677 0.10463472 0.5164549 0.086330175 0.15755175 0.40620774 0.28480464 0.42074686 0.27256 0.068732515 0.1524549 0.051547933 0.40886813 0.26154453 0.22311525 -0.06808123 0.63461125 0.3927862 -0.1230087 0.74955946 0.636465 -0.20435247 0.09341864 0.68701196 0.62874496 -0.29087472 -0.3990748 -0.084489815 0.16644639 0.6753998 0.5828674 0.4896456 0.04009995 0.030240998 0.44855693 0.34149462 -0.018998533 0.18789443 -0.087144464 -0.46459913 -0.14582394 0.18145782 0.14376634 0.4388299 0.23874423 0.54414636 -0.10024035 0.5811652 0.55627877 -0.10561286 0.59996927 0.6090541 0.60900116 0.618922 0.43450436 0.6132207 0.5932824 0.4428767 0.35465336 0.20847479 -0.21350427 0.49119633 -0.057191953 -0.07934592 -0.038821086 -0.1797631 -0.032592326 0.04091011 0.52354175 0.5419155 -0.01581356 -0.03231792 -0.042336103 -0.03813851 -0.036613777 0.13488747 0.17703569 0.18966495 0.47562984 0.5987692 0.6091957 0.5795789 0.62619555 0.7104577 0.6162885 0.68737376 0.74345535 0.7614641 0.7564121 0.7607087 0.53914034 0.4912438 0.41998005 0.39422393 0.3110075 0.5269156 0.54316384 0.19913284 0.051682428 -0.019378353 0.43227005 0.32597783 0.4317803 0.5019603 0.45625597 0.4736455 0.40386713 0.40019053 0.40073225 0.538866 0.58879834 0.6147113 0.3302652 0.22553606 -0.105735675 0.45300305 0.60875547 0.61166656 0.17994155 0.23204285 0.56717134 0.25919664 0.18310477 0.36544117 -0.22272839 -0.3078173 0.54994994 -0.3546262 -0.041812453 0.5338292 0.4695572 0.16618139 0.18816681 0.38498992 0.23024799 -0.04825091 0.08272148 -0.06695538 0.32282898 0.48191297 0.20211317 0.5349804 0.3801537 0.5032557 0.5309633 0.437815 0.56828517 0.23958272 0.586368 0.59987354 0.6021197 0.27090043 0.3236726 0.60483116 0.5726139 0.4766667 0.40356624 0.4104708 0.19751373 0.15626527 0.04308759 -0.010649055 0.3755347 0.50363976 0.54582244 0.24527594 0.11964519 0.008935928 -0.012098936 0.0032561347 0.13147682 0.2604015 0.051626384 0.40001714 0.5757797 0.5784059 0.6035814 0.021795433 0.25443867 0.27466232 0.26805744 0.22219054 0.24394807 0.65187395 0.6686106 0.6663575 0.6918987 0.7219405 0.4995852 0.48635 0.46562 0.41250992 0.47452724 0.50596833 0.13531199 0.2089331 0.36375147 0.4643094 0.53774184 0.44652742 0.44664484 0.4900779 0.5927154 0.62496203 0.47095507 0.48202354 0.37051243 0.09653218 0.625013 0.62566155 0.30629283 0.4077419 0.22716276 -0.16326596 0.62021816 0.61210334 0.18327102 0.23860168 -0.17449358 -0.20219661 0.5957118 0.59968853 0.14674313 0.123709746 0.14414492 0.47907132 0.2588475 0.39304924 0.38496113 0.3701777 0.2844212 0.26715285 -0.024621852 0.12517552 0.16600524 0.062457442 0.44926694 0.51916957 0.09885242 0.58726805 0.3831916 0.597797 0.47918707 0.45417753 0.5431417 0.51326567 0.37219405 0.5450611 0.53860754 0.3538632 -0.0056092013 0.5532797 -0.31166878 0.2128934 0.5634658 0.54979455 0.421337 -0.14650175 0.31290588 0.38155442 0.41475958 0.045545474 0.4325625 0.47603947 0.4753431 0.40175527 0.1871241 0.12104711 0.016058333 0.0367178 0.19577134 0.47857714 0.42320144 0.35924986 0.19439965 0.06658567 0.09702119 0.24981813 0.32211298 0.3519413 0.3521249 0.3154845 0.31053016 0.35613698 0.38414675 0.37450534 0.49876553 0.51283395 0.5010483 0.43685845 0.5018697 0.5549898 0.5874758 0.4777601 0.4654538 0.29123995 0.4675967 0.54680854 0.58537596 0.6164348 0.34877285 0.4004017 0.62777406 0.6380096 0.46188664 0.37720516 0.20819142 0.63179547 0.62914586 0.35436955 0.4351492 0.22007506 0.019894093 -0.0645027 0.62262416 0.20592767 0.21793202 0.009553146 -0.033339642 -0.28146225 -0.09384106 0.5971194 0.14031906 0.18367998 0.19536242 -0.024495095 0.38983816 0.122420944 0.34997025 0.39916608 0.3917264 0.43575215 0.3313284 0.33277804 0.25925428 0.24059781 0.15979421 0.17030197 0.28781682 0.48428214 0.09218265 0.5831035 0.35971326 0.60254896 0.4557097 0.48943532 0.5314021 0.43829846 0.4553255 0.43643475 0.35364902 -0.28201914 0.26523447 0.40225267 0.41403973 0.4356445 0.32594192 0.37082517 0.26613814 0.23459406 0.07938828 -0.021394394 0.27642518 0.34887522 0.44801563 0.346816 0.46594018 0.18757872 0.10833548 0.10671505 0.12034446 0.24020366 0.3915347 0.37836075 0.43763503 0.41129178 0.3272162 0.272248 0.36069542 0.39906704 0.39591312 0.39425954 0.48460472 0.44338846 0.37284 0.3728752 0.48442805 0.5495751 0.5846691 0.43258134 0.44069734 0.38470444 0.28763947 0.10133743 0.15265207 0.29279342 0.59700435 0.6203698 0.3812409 0.6698227 0.40726173 0.18001327 0.08553229 0.6674139 0.65091425 0.3674094 0.4521862 0.4773539 0.37236986 0.3000926 0.071608305 -0.25096914 -0.08451469 0.64267427 0.28185207 -0.13588187 -0.5873785 0.6147461 0.61772406 0.21687815 -0.07395333 0.38903093 0.345572 0.23287791 -0.08978772 0.37353426 0.39569056 0.41162357 0.39793622 0.3861758 0.49366677 0.36253783 0.31711337 0.4367502 0.26574445 0.34015334 0.19635424 0.24677868 0.3734866 0.44465655 0.1678828 0.5161537 0.2065978 0.55556667 0.5067409 0.52879703 0.2534765 0.49575013 0.3026916 0.13350959 0.006769955 0.30352712 0.46335858 0.48295218 0.4744042 0.26910135 0.19580178 -0.09026276 0.2072621 0.15668982 0.30343258 0.2779001 0.3339597 0.37099987 0.4493501 0.3750534 0.38494432 0.3576446 0.14298368 0.106233 0.111534715 0.44125992 0.464841 0.41127628 0.34094837 0.23653658 0.117504105 0.097908445 0.101756796 0.104550004 0.26880518 0.35765314 0.390975 0.38699442 0.4395928 0.5292034 0.5641383 0.14427173 0.13009408 0.2831154 0.3730178 0.51324356 0.5572296 0.6051315 0.32657537 0.19449984 0.023288578 0.65709925 0.693649 0.71811026 0.6980312 0.45454288 0.4558696 0.39129466 0.29825106 0.123202756 -0.05649472 -0.4756821 0.69963384 0.29113352 -0.5682517 -0.6519135 0.57009685 0.6409299 0.2409099 0.3118437 0.1861335 -0.275842 -0.2225783 -0.18962675 0.35244244 0.4412772 0.39526293 0.2598428 0.37557375 0.3795207 0.3672338 0.49849635 0.3354481 0.45673192 0.27969298 0.3986655 0.2199308 0.34324515 0.34347415 0.21663693 0.3185181 0.2703853 0.12435679 0.3716446 -0.046902508 -0.062421046 -0.16827291 -0.21628584 0.46254903 -0.05672002 -0.09191203 -0.20450884 0.50004363 0.509259 0.0009043887 -0.08139263 0.5172683 0.5268826 -0.0045151114 0.10330428 0.31637788 0.43617257 0.11395016 0.11620014 0.22191322 0.25256458 0.30444226 0.38421947 0.33624876 0.48699814 0.3062696 0.28842402 0.082881495 0.087156236 0.22630768 0.41039073 0.5204704 0.2818107 0.25998312 0.17029408 0.092848256 0.57502145 0.6351608 0.51991963 0.5882072 0.6569136 0.65640205 0.5812587 0.63429 0.835582 0.8610378 0.8588023 0.77159107 0.82386374 0.84870756 0.85362256 0.8063363 0.8179666 0.028183922 0.114457995 0.2571828 0.4154665 0.4605723 0.5279242 0.58894426 0.007719159 0.43797383 0.57035327 0.63688993 0.70205945 -0.1220827 -0.08765234 0.5381406 0.66002584 0.709654 0.39808288 -0.03072463 -0.033162907 -0.18340613 -0.30839038 0.41918904 0.623226 0.68892473 0.3955508 0.33932167 -0.01825054 0.39755422 0.64952755 0.16875105 0.31239334 -0.21491745 0.19881177 0.17111325 0.46502367 0.4090138 -0.2056965 -0.21620391 0.21816394 0.3035093 0.37784198 0.38444427 0.3704186 0.47685188 0.3551193 0.34430066 0.4681562 0.46454298 0.32458505 0.3026377 0.44272438 0.29794464 0.3458857 0.2656948 0.042381145 0.13012642 -0.32286102 0.36901224 -0.18559948 -0.3513087 -0.40615183 0.38688904 0.42091644 -0.17926338 -0.24583378 0.5045448 -0.15168732 -0.2623918 -0.035328493 0.050253473 0.19802329 0.37513077 0.4950632 -0.082412