# vtk DataFile Version 2.0
Really cool data
ASCII
DATASET POLYDATA
POINTS 7956 float
-15.599955 24.862955 23.553411
-15.619988 25.600494 22.880896
-15.603148 25.583637 23.498789
-15.558983 25.273397 23.91483
-15.673304 27.064411 10.803086
-15.5417 25.888315 23.020172
-15.589075 25.960333 23.466942
-15.847972 27.846415 10.835701
-16.045158 27.583225 11.550703
-15.850515 27.414227 12.826316
-16.198053 28.077505 13.263308
-15.936418 28.507051 11.016092
-16.248854 28.461199 11.602341
-16.3413 28.50675 12.483142
-16.26456 28.464508 13.3898535
-15.97289 28.841537 14.274516
-15.822523 29.020536 11.128703
-16.055798 29.239073 11.767892
-16.303402 29.227997 12.564642
-16.306278 29.467527 13.501925
-16.074251 29.40423 14.244491
-15.780922 29.757326 14.704854
-15.742672 29.945015 12.173366
-15.955051 30.122475 12.866523
-15.995825 30.24984 13.469869
-15.802274 30.316122 14.293184
-15.707526 30.656424 13.69354
-14.664194 6.953622 24.051292
-14.62807 6.65504 24.552938
-14.635592 6.641947 24.95033
-14.579771 7.4229236 23.978935
-14.701074 7.4832344 24.590061
-14.671144 7.196955 25.06715
-14.60778 7.9405465 24.317726
-14.595413 12.861905 25.617117
-14.570473 12.916245 26.193502
-14.534778 13.277765 24.94107
-14.572793 13.479668 25.560925
-14.558273 13.407099 26.140636
-14.544684 13.998545 25.6559
-14.742772 22.906841 10.919384
-14.81005 22.864914 11.374426
-14.7271 22.86014 11.960937
-14.859356 23.569794 10.716667
-14.99198 23.507841 11.462874
-14.851345 23.481876 12.020521
-14.896617 24.004171 21.16338
-14.969479 23.802622 21.578857
-14.907951 23.618649 22.370008
-15.074935 23.930742 23.561972
-14.940749 24.04191 24.252542
-14.708085 24.575253 10.270678
-14.853102 24.28938 10.673993
-14.847596 24.951195 11.878671
-14.942267 24.784182 12.01957
-14.97798 24.631151 20.829342
-15.3253 24.653736 21.616413
-15.410738 24.395765 22.42886
-15.448646 24.535107 23.667604
-15.248442 24.5709 24.243984
-14.89847 24.645374 24.716473
-14.924555 25.767132 10.002311
-15.144757 25.767218 10.632308
-15.074468 25.654549 11.724121
-14.679448 25.708223 12.530155
-14.563233 25.857077 19.482367
-15.02776 25.50041 20.652788
-15.234057 25.719585 21.84712
-15.294975 25.421213 24.338026
-14.9529 25.300879 24.716362
-15.007271 26.574053 9.855879
-15.391506 26.501385 10.580958
-15.498693 26.37112 11.167029
-14.660929 26.051722 19.736143
-14.816178 26.416492 20.582752
-15.023083 26.391375 21.757915
-15.320729 26.271696 22.745495
-15.330004 26.296064 23.492298
-15.097583 26.198341 24.167246
-14.80017 25.864445 24.632494
-15.0785675 27.338816 9.984776
-15.4429455 27.530926 10.418798
-14.696611 26.933594 20.94075
-15.040969 26.674568 23.381523
-15.153547 28.250704 10.296259
-15.416958 28.496077 10.571296
-15.203466 28.768837 14.87823
-15.431071 29.080328 10.833757
-15.518322 29.572704 14.8918915
-15.371822 29.786827 11.256809
-15.205603 30.132456 11.726621
-15.307186 30.393492 12.38673
-15.426178 30.473862 14.589558
-15.368872 30.15993 14.7871065
-15.348001 30.691793 12.972637
-15.416914 30.8161 13.581968
-15.280371 30.75382 14.286972
-13.729953 5.032711 24.276121
-13.838272 4.849693 24.76178
-13.810315 4.8078036 25.317432
-13.729775 4.94387 25.822536
-14.070249 5.9748874 23.87613
-14.251609 5.708577 24.595583
-14.222729 5.761031 25.52457
-13.838587 5.4377537 26.044554
-14.006794 6.892759 23.35732
-14.306996 6.5773582 23.769556
-14.508219 6.3253894 24.37246
-14.439445 6.354302 25.283957
-13.942642 6.712387 26.243189
-13.98886 7.411131 23.33696
-14.41265 7.3213143 23.709936
-14.514328 7.6815715 25.145336
-13.891944 7.4599833 26.221346
-13.951857 7.846543 23.350105
-14.150642 8.087549 23.809925
-14.415014 8.177035 24.499733
-14.308698 7.96592 25.423876
-13.729372 8.239077 26.309738
-13.658649 8.847322 26.22792
-13.9256115 11.776331 24.522888
-14.109159 12.039124 25.686722
-14.169108 12.245285 26.425245
-13.810081 12.263853 26.832998
-13.756438 12.553416 22.99551
-14.118209 12.59877 23.664099
-14.3588915 12.65799 24.464657
-14.297608 12.290812 25.645918
-14.319045 12.731498 26.512968
-14.052305 12.802176 26.889576
-14.108402 13.439648 23.8036
-14.450945 13.527976 24.78323
-14.410921 13.611018 26.474203
-14.058006 13.406566 26.926012
-13.789561 14.341281 23.845804
-14.10592 14.364491 24.607286
-14.332836 14.421894 25.561937
-14.189 14.318052 26.303188
-13.835764 14.160939 26.827524
-14.000944 14.790587 25.053104
-14.032463 14.837653 25.590889
-14.0666685 22.341696 11.0288515
-14.21346 22.328701 11.411142
-14.184452 22.413942 11.926215
-14.137425 23.107534 10.242294
-14.404273 22.702627 10.765934
-14.516981 22.499838 11.469121
-14.373876 22.742407 12.139287
-13.881831 22.98469 12.77535
-14.251478 23.295763 21.606073
-14.383759 23.25589 22.439594
-14.322926 23.43701 10.229337
-14.527502 23.199215 10.458713
-14.5065565 23.789267 12.675056
-13.996364 23.582872 13.159494
-14.050578 24.000969 19.856716
-14.64871 23.685177 20.939537
-14.621551 23.542076 23.586887
-14.383907 23.790442 24.456285
-14.39208 24.06434 24.765076
-14.174374 24.333553 9.924193
-14.0853405 24.605604 13.420805
-13.734319 24.534983 13.7149315
-13.756657 25.150036 18.022081
-14.04581 24.898163 18.53546
-14.366563 24.396591 19.86847
-14.404122 24.614817 24.941023
-13.985303 25.926449 9.420199
-14.301745 25.735651 9.613291
-13.976911 25.703815 13.41471
-13.629805 25.27031 17.341646
-14.316218 25.255487 18.707956
-14.375544 25.46215 24.96423
-14.212574 26.432987 9.422529
-14.649398 26.499252 9.541451
-13.745588 26.12014 17.26049
-14.3011675 26.38517 18.996035
-14.423583 26.58112 19.38412
-14.337422 26.43143 24.44102
-14.56 26.03944 24.691912
-14.272367 27.178041 9.427961
-14.556708 27.19951 9.601841
-13.6881895 27.647125 15.567623
-13.655292 27.51027 17.053862
-13.774198 27.733624 18.22571
-13.981327 27.48071 19.529402
-14.452932 27.158482 20.570702
-14.359046 27.157816 22.424137
-14.7223 26.80252 23.764233
-14.414566 26.801758 23.934067
-14.459037 28.170965 10.053118
-13.970708 27.716587 19.84804
-14.285902 28.99383 10.3975
-14.614544 29.222836 10.536167
-14.734726 29.550896 14.938588
-14.491383 29.911793 11.000893
-14.737561 30.302345 11.589045
-14.176068 30.44163 12.237457
-14.914924 29.999516 15.04509
-14.780679 30.648344 12.750365
-14.685666 30.858103 13.544523
-14.780396 30.799683 14.29685
-13.197222 4.316691 24.784311
-13.195516 4.273328 25.295834
-13.23905 4.7901144 24.14447
-13.408591 4.5855255 24.530664
-13.535451 4.552285 25.535381
-13.149097 4.697623 26.127672
-13.401033 6.1852655 23.333025
-13.608617 5.6462564 23.758375
-13.413504 5.5317307 26.415955
-13.111553 5.748146 26.715555
-13.319508 6.5979133 23.177319
-13.582738 6.229032 26.495169
-12.981704 6.5660324 26.93354
-13.420837 7.4503965 23.087137
-13.2436 7.739948 26.893505
-13.416356 8.09023 23.407093
-13.137371 8.337961 27.022253
-13.081 8.99962 23.240238
-13.110918 10.356028 23.644669
-12.970215 11.782028 22.78712
-13.540327 11.845724 26.412462
-13.43905 12.2240305 26.900078
-13.000984 12.596435 21.928892
-13.226473 12.487724 22.350332
-13.577347 12.686988 27.128891
-12.646733 13.641009 21.258177
-13.059004 13.205734 21.811825
-13.445419 13.582182 22.679134
-13.463503 13.467477 27.23454
-13.118502 14.416776 22.67051
-13.392387 14.58649 23.887623
-13.325111 14.25469 27.010487
-12.987534 14.875803 23.037657
-13.469724 14.950912 24.45034
-13.527824 15.107347 25.438087
-13.493269 14.938653 26.251627
-12.543011 19.800873 16.589605
-12.539606 20.32081 16.563337
-13.699738 22.353615 10.96446
-13.666855 22.243704 11.398893
-13.660826 22.350195 11.983627
-13.60149 23.023285 10.23494
-13.552414 22.558165 10.669373
-13.237068 22.629538 12.447737
-13.299859 23.112497 13.223802
-13.272471 23.373455 20.698927
-13.253381 23.009468 21.725843
-13.585851 23.041885 22.311188
-13.61833 23.461557 10.03505
-13.103785 24.022562 18.479197
-13.420494 23.723797 19.301165
-13.064126 23.506462 20.557241
-13.984416 23.736818 24.502516
-13.917728 24.043705 24.777067
-13.763258 24.810478 9.726997
-13.252485 24.87631 16.74694
-13.794114 24.860958 25.067526
-13.780432 25.854746 9.425212
-13.602621 25.25034 9.557385
-13.306913 25.131979 13.885966
-13.557913 25.629612 16.565626
-13.772635 25.382385 25.088043
-13.605754 26.3212 9.3543825
-13.174462 26.161486 16.066355
-13.792328 26.584587 24.584717
-13.53461 26.186586 24.83457
-13.574646 27.320555 9.595034
-13.303386 27.449436 22.461662
-13.61517 28.563229 10.301158
-13.236679 28.565372 10.623934
-13.431881 28.685709 16.437794
-13.291417 28.29592 17.691803
-13.139187 28.338137 18.210484
-13.4394245 27.834518 20.459404
-13.335686 27.900425 21.498585
-13.191219 27.87426 21.907516
-13.907502 28.872192 10.402683
-13.407457 29.235258 10.900647
-13.443647 28.992605 15.063339
-13.190957 28.803005 16.407352
-13.800166 30.14135 13.430101
-12.6351185 4.1912637 24.782812
-12.637014 4.1259484 25.22697
-12.659979 4.3091187 25.85631
-12.514379 4.9059772 23.873981
-12.278728 4.4594803 24.344969
-12.607127 4.6811337 26.331142
-12.520792 5.023192 26.663986
-12.892997 5.3180423 23.683681
-12.374785 5.571523 26.89279
-12.310716 6.4923368 22.925676
-12.330702 7.5738707 22.669538
-12.367705 7.5866413 27.318882
-11.781947 8.644676 22.158047
-12.593551 8.492978 27.215496
-11.595839 9.787777 21.579838
-12.225522 9.380946 22.394484
-12.220457 8.998563 27.11299
-11.582504 10.895206 21.202738
-12.256071 12.059578 21.02724
-12.103892 11.699386 21.343975
-11.684063 12.798019 20.14622
-12.26671 12.684095 20.793625
-12.473338 12.647222 27.09984
-11.84668 13.511992 20.11855
-12.100963 13.353905 20.572151
-12.677204 13.6015625 27.324661
-11.962531 14.348515 20.65345
-12.544512 14.707272 21.833834
-12.6340275 14.40952 27.063904
-11.868545 15.040071 20.99181
-12.513755 15.31242 22.787214
-12.618874 15.458715 23.910542
-11.853359 15.613642 22.623121
-12.125978 15.81923 23.379244
-11.746757 17.882565 25.783495
-11.825887 17.883774 26.154882
-12.050562 19.1638 16.12887
-12.040941 18.976757 16.746078
-12.06969 19.066698 17.19094
-11.825806 18.382883 25.473331
-11.723596 18.562855 26.364738
-12.149997 19.676613 15.894388
-12.3651 19.504072 16.417744
[...]
POINT_DATA 7956
SCALARS features_00 float 1
LOOKUP_TABLE default
0.76363635 0.6576437 0.73359776 0.7793736 0.5367321 0.6649289 0.71507597 0.55534536 0.53962606 0.5100874 0.68098366 0.5869232 0.6135431 0.68222165 0.7426125 0.73910165 0.6131021 0.6583506 0.7312876 0.8165723 0.7801963 0.73624265 0.67443496 0.7397867 0.8050339 0.8007174 0.8097962 0.6736932 0.7003807 0.70477486 0.6563163 0.67375255 0.6783289 0.65027696 0.67308116 0.7089962 0.62745076 0.6834589 0.7214922 0.6971107 0.8296733 0.8343832 0.80682784 0.770654 0.79549515 0.7644267 0.49035686 0.52439517 0.6161463 0.7743885 0.80170274 0.58963203 0.67610943 0.5826405 0.5876312 0.47531646 0.5639926 0.67348015 0.7828829 0.81544036 0.81952226 0.5126199 0.5413842 0.5139829 0.42641577 0.35055324 0.43046585 0.5350211 0.796525 0.8137342 0.5394551 0.53663194 0.50839365 0.3467347 0.37102115 0.49146843 0.6110035 0.702132 0.7527843 0.78101325 0.55542696 0.5557083 0.38452497 0.6661179 0.5616674 0.5739658 0.533301 0.5995742 0.6854814 0.62850064 0.6388335 0.6755128 0.7738357 0.7323549 0.7271968 0.79260623 0.7982236 0.7411622 0.7918806 0.80772877 0.7776892 0.68846864 0.75893164 0.7698776 0.74443066 0.60248005 0.66596407 0.7125226 0.72805214 0.65676284 0.5711926 0.6383964 0.6671131 0.62020934 0.5359661 0.5781648 0.6318888 0.6535304 0.57409936 0.5226983 0.49365282 0.6528586 0.70379674 0.7232616 0.33689696 0.43715644 0.5626724 0.66020787 0.72107935 0.73906016 0.49455953 0.6116147 0.7483093 0.76844347 0.45435864 0.5566908 0.6825391 0.765478 0.81260806 0.5840211 0.6625823 0.83963895 0.83847904 0.80717206 0.777645 0.83396864 0.83969676 0.78940785 0.7043085 0.438667 0.5584042 0.7439206 0.7913896 0.65918195 0.6291888 0.32152832 0.44452372 0.7476313 0.7728854 0.7920829 0.57661504 0.4848264 0.4251969 0.24698935 0.30622283 0.38410997 0.79981935 0.45649594 0.48298538 0.38901424 0.15413064 0.34326524 0.7866506 0.49641448 0.5273633 0.21037139 0.31203264 0.3151643 0.7145726 0.76235557 0.52039766 0.54029083 0.12971316 0.21236455 0.21588184 0.2897538 0.35393757 0.5071599 0.68553436 0.66814303 0.53315103 0.2966475 0.5311166 0.56386024 0.56739354 0.58037186 0.60977215 0.61538696 0.63428885 0.6809312 0.7460733 0.7718377 0.7752769 0.78726923 0.7009437 0.7607406 0.7935523 0.72828686 0.5738992 0.6552564 0.6879538 0.63867044 0.52827466 0.6493715 0.57278514 0.46730024 0.5624805 0.42693722 0.5336837 0.15942723 0.0065232143 0.15815674 0.67864907 0.72609663 0.23392957 0.2511747 0.75500274 0.28789577 0.28502822 0.37742049 0.8049461 0.35711113 0.4141556 0.83685505 0.3328201 0.44166505 0.5791507 0.7566993 0.7425612 0.6854222 0.8275449 0.8200599 0.7839346 0.77055 0.8138623 0.7145134 0.60753286 0.26855913 0.3218125 0.42029512 0.69728947 0.13808027 0.1840766 0.23263875 0.7270385 0.746132 0.47510856 0.046258837 0.7467489 0.43616995 0.4251596 0.28105605 0.12330052 0.7349541 0.43695965 0.17720716 0.6302345 0.6485083 0.4693572 0.30694598 0.47119942 0.43296593 0.04227759 0.08909208 0.0843098 0.30220816 0.2994654 0.25884658 0.49891374 0.44378552 0.13628344 0.0038857833 0.6727815 0.73860896 0.7527487 0.7207944 0.581024 0.63357 0.6796776 0.6479994 0.5854393 0.59901536 0.3678341 0.23014623 0.50127214 0.008108422 0.47368723 -0.05123476 -0.035504267 0.34918636 0.039175205 0.1715882 0.12208077 0.23777218 0.22083977 0.6285261 0.2778719 0.2672052 0.7555068 0.30453822 0.31131405 0.77600217 0.28377485 0.27859974 0.28684655 0.23118198 0.19360363 0.49104106 0.5244006 0.78856945 0.7748338 0.7468219 0.42923772 0.49763662 0.7725122 0.77327216 0.706898 0.6364313 0.3499728 0.4553699 0.68904114 0.66880023 0.62806654 0.56586844 0.2573764 0.75200605 0.47551733 0.35717106 0.76190233 0.7384741 0.62513614 0.4964224 0.26348534 0.18063541 -0.047950417 0.095664516 0.17230546 0.1516854 0.59066534 0.2982109 -0.012685254 0.06408427 0.04390101 -0.007065188 0.6153468 0.43977773 -0.18290946 0.3630324 0.37819412 0.5411786 0.6118187 0.3469598 0.43209565 0.52961946 0.40949893 0.27510393 0.3684888 0.12482149 0.15857223 0.3538913 0.28140134 0.3087222 0.363646 0.20729658 0.38722748 0.33028305 0.40872186 0.6975234 0.6782334 0.69161004 0.70544386 0.70959353 0.6893635 0.7020496 0.70271444 0.6372938 0.592796 0.4877432 0.53082514 0.5686222 0.3367448 0.5223082 0.43500403 0.03245679 0.42799369 0.03014426 -0.010994451 0.33467248 0.22062376 0.18436915 0.062392384 -0.017032318 0.27819255 0.25057074 0.19472204 0.09995937 0.030646086 0.2526057 0.24902919 0.2537667 0.22660819 0.23276407 0.28283405 0.33446494 0.23162208 0.26900905 0.57767206 0.28782624 0.32413307 0.5338069 0.28562406 0.23624668 0.61418796 0.20660566 0.2360609 0.20065433 0.016879512 0.28040463 0.3073007 0.62027574 0.08200768 0.5243048 0.49030748 0.7379253 0.7423993 0.7126103 0.64468753 0.079837464 0.22959594 0.51084775 0.6707633 0.69361037 0.5263318 -0.00789952 0.043961868 0.16178516 0.253253 0.34831768 0.4117727 0.46860272 0.62692094 0.23510015 0.01970575 0.116228625 0.17685434 0.23786795 0.29485786 0.37585872 0.39476186 -0.06445186 -0.08802833 0.1394151 0.23086657 0.1719003 0.20639652 0.63726014 0.50142384 0.105469644 -0.026380554 0.14368527 0.15513115 0.44336125 0.42514843 0.042396873 0.10604267 0.35725302 0.4253489 0.35409465 0.34588742 0.32334742 0.2772146 0.28041878 0.37695116 0.33796018 -0.051081397 0.023614671 0.24421659 0.38998467 0.40661743 0.078218155 0.15024532 0.22018987 0.43174094 0.29298922 0.43944764 0.4431715 0.40007842 0.32716173 0.69886094 0.4933317 0.49086738 0.67211926 0.7111448 0.6857469 0.62859327 0.6701331 0.6625229 0.5920945 0.6324671 0.62993634 0.6122829 0.6511075 0.2900226 0.31923148 0.39889678 0.23689774 0.23987132 0.1495691 0.051514167 0.08548396 0.04799314 0.14094786 0.1120382 0.21942025 0.20710152 0.22117491 0.1977967 0.05271837 0.14122309 0.21846098 0.24377668 0.021200579 0.22804584 0.23605075 0.18754847 0.22049779 0.20306972 0.205989 0.22337072 0.22232436 0.2507027 0.33754697 0.26809525 0.16992116 -0.13195434 0.41433433 0.58336234 0.6137595 0.42983797 0.04288636 -0.025983065 0.37136364 0.6220879 0.62032676 -0.29263356 -0.10774243 0.40935847 0.5444708 0.62572145 -0.13717812 -0.2833488 0.39969015 0.45279884 -0.08801542 -0.20471555 0.33753544 -0.23470779 0.06809193 0.68224835 0.70875585 0.22604722 0.099062875 0.5098099 0.6541363 0.7378901 0.73670053 0.3614508 0.21101108 0.07748806 -0.103869885 0.44743228 0.67338073 0.7386946 0.7446315 0.23798329 0.25759137 0.64932466 0.72999406 0.72752094 0.3122827 0.32358465 0.34018815 0.39226896 0.30977902 0.29861444 0.44206727 0.10820646 0.06838605 0.43845147 0.4259022 0.19187126 0.42436898 0.43905908 0.43820292 0.60972714 0.53152263 0.23079096 0.31889096 0.42706665 0.4622516 0.664749 0.47370452 0.5284371 0.5647576 0.5150462 0.48213238 0.42331785 0.40956402 0.36140332 0.5463019 0.6590484 0.582335 0.4152402 0.40948433 0.494768 0.7046335 0.43475467 0.54364634 0.6114257 0.65180993 0.6584704 0.56736815 0.6140976 0.6390611 0.2836557 0.31578454 0.34400046 0.40684462 0.46967244 0.5251794 0.28105316 0.5300447 0.55130196 0.24718729 0.554744 -0.0039488226 0.35850024 0.12238138 0.06544592 0.14248738 0.02781893 0.18472439 0.19829157 0.304232 0.33653247 0.13379867 0.2938405 0.29115272 0.16664653 0.2639721 0.20759785 0.19088098 0.17175746 0.11327855 0.18847208 0.1767888 -0.097952105 0.1675646 0.22263491 0.3541278 0.17289393 -0.14177965 0.067312494 0.18650535 0.34975386 0.39641434 0.14106947 0.22711158 -0.0764307 0.18918465 0.41932863 0.39141423 0.22144386 0.49614134 0.45095876 0.4652149 0.06800166 0.3925399 0.6980419 0.34704965 0.7093614 0.6724807 0.11620422 -0.010452308 0.4046247 0.72903955 0.71261394 0.32509348 0.25062767 0.69713956 0.69637096 0.49705637 0.58712274 0.6282222 0.63229954 0.34952956 0.4619453 0.5624088 0.5862436 0.5918988 0.3590937 0.48840272 0.35753435 0.21169133 0.1303422 0.4769796 0.4996878 0.08253478 0.3824565 0.4482415 0.4062584 0.42209256 0.4269837 0.26807648 0.3166819 0.3865503 0.35362464 0.43220526 0.4328092 0.4134064 0.517281 0.5609403 0.5722886 0.40088153 0.41744104 0.42393512 0.6296634 0.6308842 0.6298615 0.513571 0.46129188 0.43004724 0.42447555 0.40592006 0.6400621 0.5346371 0.48253924 0.45659813 0.3800428 0.32016462 0.6344099 0.5311595 0.5119822 0.48064855 0.29217756 0.35255367 0.4319662 0.544869 0.60543776 0.63094634 0.4128188 0.46523347 0.2976771 0.33837235 0.3713739 0.41468835 0.49470425 0.5554285 0.6209314 0.53141826 0.4465205 0.21318123 0.6181176 0.5413461 0.50715756 0.40566123 0.1468451 0.5603275 0.44847316 0.42070433 0.5071581 0.28430864 0.15689996 0.27149457 0.22414471 0.25084978 0.21505547 -0.02488264 0.31677908 0.4371279 0.22734317 0.1672164 0.3682774 0.50740707 0.10859752 0.059550725 0.28693047 0.3632357 0.1860795 0.18915102 0.31587917 0.35255772 0.13693446 0.2840042 0.34676817 0.43094945 0.11231842 0.46304062 0.51255447 0.05691374 0.19303706 0.40189886 0.5580706 0.00926264 0.49568284 0.2617531 0.27581865 0.21470135 -0.07802673 -0.100847915 0.21992528 0.30435514 0.18873563 0.53700227 0.5907709 0.6308013 0.29324037 0.2678194 0.12990047 0.04695635 0.6624088 0.39278537 0.38426146 0.6328764 0.6281593 0.43270317 0.5932497 0.4580522 0.40752983 0.55548775 0.57901096 0.5823413 0.5839964 0.46737775 0.31854093 0.48791313 0.26267615 0.4618558 0.48119894 0.36802927 0.40884396 0.3765661 0.29241508 0.2950932 0.3728632 0.37674558 0.3613997 0.1624835 0.505152 0.5471803 0.46449965 0.28611922 0.51130164 0.6342452 0.6155265 0.6360599 0.581384 0.5126612 0.4222562 0.6213211 0.6567787 0.66571057 0.6481138 0.661695 0.61932683 0.5083711 0.5164357 0.6511986 0.6143011 0.57625306 0.5921976 0.5396332 0.5666142 0.5057971 0.49667263 0.37418145 0.2763324 0.27949068 0.27649218 0.3673259 0.5704699 0.59283054 0.43852985 0.50391376 0.55861413 0.5087639 0.45947093 0.31874022 0.35487774 0.3864204 0.52775747 0.61916965 0.644611 0.6319998 0.56096816 0.46733302 0.4171418 0.3267102 0.6552863 0.6431333 0.60203123 0.5887544 0.60988975 0.54294634 0.4670749 0.48094213 0.57953644 0.4377836 0.31621337 0.30257738 -0.27705523 0.08632247 0.32484987 0.41294855 0.48065758 0.52959937 0.27184856 0.53447616 0.56377375 0.2329155 0.55040133 0.16994368 0.10745348 0.48177317 0.1608553 0.13299969 0.027322073 0.3038925 0.019783169 0.024150409 0.028387818 0.45134383 0.034341417 0.5238527 0.05852802 0.5636563 -0.052693956 0.12577614 0.5096064 0.0621691 -0.014934743 0.15156597 0.019653697 -0.09147798 0.5210744 0.087001786 0.553517 -0.035720628 0.3600238 0.49964595 0.5973195 0.64835525 0.7284392 -0.088409774 -0.10658884 0.60828316 0.6725305 0.8025099 0.83102846 0.38403645 0.20442449 0.1225744 0.0055929646 0.5544305 0.7292713 0.45608786 0.45705992 0.5745617 0.54663575 0.56595755 0.4709521 0.33557782 0.5229329 0.5584027 0.57660675 0.43325323 0.41208 0.4218468 0.35969853 0.4587974 0.25204387 0.2654797 0.4351774 0.4639385 0.025852792 0.36004642 0.43221286 0.3064104 0.18688262 0.13268134 0.32152447 0.2503872 0.18277447 0.07714298 0.10235589 0.30104235 0.4379217 0.5721354 0.5413965 0.2702203 0.3457722 0.5528614 0.5891007 0.6871607 0.64787155 0.65895003 0.6106787 0.67863435 0.68699616 0.71134394 0.43127152 0.67259836 0.616758 0.41722745 0.6401533 0.5903841 0.473122 0.26537275 0.1744645 0.21104439 0.3014281 0.36354697 0.4072826 0.44905528 0.5147737 0.42074937 0.3584324 0.27838713 0.44940132 0.47544408 0.5649657 0.49751234 0.45906162 0.38186425 0.24364743 0.28691718 0.3528531 0.41414073 0.5327634 0.6235865 0.65276945 0.6537813 0.6645032 0.65678024 0.62325436 0.63158345 0.5603781 0.5519233 0.47078738 0.15809628 0.31928146 0.27911305 0.3218547 0.4026986 0.48151344 0.53007877 0.25617713 0.25696588 0.53964674 0.25654793 0.2293177 0.53407216 0.51060474 0.29088527 0.22237471 0.4676128 0.27858898 0.21730208 0.25364766 0.20074013 0.020946732 0.22244883 0.04975031 0.075743355 0.49242407 0.47838163 -0.0092307655 0.5067461 0.6832711 0.7840247 -0.14647168 0.6564749 0.7204951 0.85600066 0.8769622 -0.18836705 -0.28859875 -0.25900236 0.47672454 0.6298044 0.7021334 0.8126348 -0.26943642 -0.28515324 0.43861896 0.4815785 0.52049816 0.5507221 0.7253909 0.7281067 0.7060029 0.30358717 0.4127344 0.67220366 0.76384556 0.7565243 0.7650906 0.76692975 0.7447289 -0.22044674 -0.25815323 -0.14367282 0.2572032 0.7680967 0.83245456 0.86718476 0.74089587 0.7546011 0.75813687 0.7452972 0.22941098 0.47516719 0.8602972 0.8970683 0.7267064 0.73131216 0.7167522 -0.06188507 -0.2645342 0.4826723 0.63072014 0.66395104 0.8361393 0.88362753 0.90435493 0.50635576 0.84409666 0.8762982 0.4841216 0.5386595 0.025630597 0.1885069 0.37405252 0.4998355 0.43912524 0.35395533 -0.027634759 -0.024535209 0.33695763 0.3778373 0.37273258 -0.022805203 0.008330246 0.10667439 0.09468833 0.17767338 0.10058703 0.24459991 0.35241136 0.37266913 0.37399775 0.23788977 -0.0849194 0.051743187 -0.010912329 0.042093903 0.119436264 0.18638644 0.30879214 0.40983596 0.49170125 0.38377488 0.041123398 -0.08738428 -0.18923222 0.20039527 0.4536463 0.4784118 0.5964366 0.5439658 0.5537609 0.44187093 0.5997431 0.64133835 0.6484266 0.6365508 0.63999856 0.17120646 0.72767156 0.21549533 0.7029122 0.26953152 0.5557991 0.4859218 0.12897857 0.14912297 0.20336433 0.41015124 0.42783412 0.39225546 0.44524682 0.3716123 0.2832816 0.15476535 0.45259264 0.43255162 0.40395528 0.55609584 0.4685632 0.3832125 0.33134475 0.4520358 0.5195909 0.58528244 0.6166698 0.612919 0.5723906 0.61556065 0.5717276 0.57615423 0.51193774 0.42048845 0.44617617 0.4719045 0.49285072 0.30724788 0.33091104 0.36600173 0.44587803 0.33742273 -0.053117894 0.26871347 0.23829824 0.12838593 0.21072038 0.243112 0.09941638 0.61707205 0.66019833 0.7045636 0.03961089 -0.07392133 0.5956388 0.6531759 0.7560488 0.81644297 -0.1353851 0.4608806 0.4408592 0.57382864 0.7498355 -0.18758464 -0.25137684 0.4417443 0.53696144 0.5740221 0.60623705 0.53778905 0.7531539 -0.31671005 0.54710096 0.59486336 0.67627907 0.67470455 0.6650395 0.6652279 0.65769553 0.095466636 0.5435952 0.60673 0.72020185 0.7540925 0.7959243 0.72061694 0.73212874 0.72110635 0.113282494 0.110925525 -0.2385631 0.87518024 0.72572106 0.73102283 0.7123219 0.163282 0.20080997 0.19056153 0.12351242 -0.3280602 -0.29615012 -0.26251763 0.921781 0.70233035 0.72099316 0.6769857 0.68194795 0.6647022 0.21690586 0.14265557 0.0037622675 -0.3835385 -0.124220885 0.1128934 0.37961507 0.6239239 0.90554017 0.9295317 0.6896515 0.63454694 0.6320591 0.10205306 0.031766742 0.7695216 0.84525585 0.8891734 0.42283583 0.39655578 0.44283417 0.08786021 0.18966019 0.22556393 0.46543473 0.47795647 0.4177391 -0.19075829 -0.080980375 -0.19823417 -0.21657363 0.42369324 0.39408302 0.28019056 0.3677941 0.45455182 0.479285 -0.1960519 -0.00068502873 -0.14838234 -0.20523158 0.020636171 0.07041362 0.42224097 0.4094217 0.37378126 0.27929625 0.31742004 0.3521344 0.38348228 0.017202 -0.18334524 0.44448948 0.40694022 0.076306134 -0.23439433 0.3792632 0.542112 0.5597682 0.5285307 0.5007389 0.5137538 0.18089236 0.58240116 0.19573471 0.16005439 0.57431823 0.23236933 0.31804326 0.24462101 0.5640463 0.04989461 0.28838852 0.44194978 0.4373288 0.3972108 0.39575827 0.3489321 0.24574049 0.18047108 0.12070972 0.4386627 0.43391895 0.44532356 0.42565545 0.38840517 0.42048007 0.39732182 0.3575449 0.27304983 0.44804126 0.3752545 0.19621089 0.4430635 0.4624799 0.39633572 -0.0047295764 0.36043596 0.2790993 0.20065497 0.11811069 -0.07746734 0.028471649 -0.1080729 0.3829487 0.2607122 0.3678969 0.3228494 0.38965124 0.33470368 0.34289673 0.35152864 0.32687628 0.32824615 0.3877385 0.2991516 0.31191254 0.2881794 0.5900457 0.6214764 0.21575221 0.16181375 0.5573602 0.6251737 0.6537319 0.08258177 -0.005360432 0.46233547 0.63170606 -0.15233178 0.44114175 0.521448 0.2734874 0.5419847 0.56603444 0.4976382 0.5419978 0.5586761 0.06125963 0.14768696 0.6273754 0.5874381 -0.45819116 0.57458586 0.59270084 0.6316668 0.5990684 0.59891963 0.5934565 0.41988474 0.04732284 -0.42185935 0.67133033 0.7252078 0.70010835 0.70291245 0.63099384 0.029056251 -0.35144705 -0.4857841 0.8431629 0.6871355 0.71835864 0.62115586 0.08965376 0.019907355 0.9254657 0.6323831 0.661853 0.6219334 0.9219085 0.94125676 0.6113974 0.5220508 0.5222846 0.10617843 0.7762221 0.83729976 0.8902694 0.32421008 0.24792773 -0.100478336 0.0009226054 0.329656 0.38490316 0.35249203 0.31060785 -0.0636174 -0.023243826 0.03797427 0.021729298 0.255354 0.01598623 -0.027426668 -0.113419816 0.17129499 -0.052655593 0.43359607 0.37249297 0.2957126 -0.023638368 0.07025379 0.111672804 0.07079687 -0.06513123 0.4395744 0.09982792 0.21343741 0.4540121 0.38974482 -0.16724554 0.008727051 -0.29920715 0.41137725 0.30549848 0.44457862 0.39730394 0.27444416 0.03609921 0.44197044 0.44102234 0.19929698 0.22832915 0.43003494 0.37039924 0.32089382 0.27646267 0.16444984 0.4283179 0.44844648 0.42495656 0.37793142 0.3699678 0.35784912 0.3239618 0.24706608 0.3452755 0.00054305233 0.26548928 -0.12118056 -0.071268 0.17012423 -0.12208787 -0.057791572 -0.07729345 -0.05576197 -0.18571499 0.25324637 0.07033212 -0.21791258 0.002234444 0.26769406 0.27268937 -0.05974455 0.41109425 0.298683 0.45502234 0.5909439 0.64475477 0.2793554 0.5937066 0.6563417 0.26020962 0.42076033 0.5747061 0.6425265 0.25886792 0.02718833 0.24589065 0.5061259 0.51843596 0.50778353 0.50152254 0.15281323 -0.26091027 0.46192145 0.49881893 0.35296345 0.118911594 -0.027466133 0.17178422 -0.026106663 -0.33048296 0.22210407 0.36036757 0.08812638 0.1020375 0.240934 -0.46336484 0.49464035 0.5281692 0.4171847 0.4823561 0.45045364 0.029600278 0.045506585 -0.4529187 0.51431507 0.5456046 0.5447889 0.469432 -0.117493115 -0.33973038 -0.373298 -0.41557625 0.5174982 0.5885434 0.6203157 -0.28547025 -0.4118893 0.71138346 0.753329 0.5804479 0.82762563 0.88346064 0.5019686 0.55618846 -0.04927887 0.39165777 0.65770566 0.81640685 0.881504 0.48682392 -0.060592223 -0.07811022 0.3093381 0.4257032 0.80268466 0.4122214 -0.01702404 -0.22330648 0.110434346 0.20264868 0.31443843 0.40625358 0.46790665 0.5052444 0.06876561 -0.23207521 -0.030428283 -0.16127625 0.4531206 0.50279474 0.54515696 -0.07420501 0.1785757 0.008407585 0.030514626 0.08666965 -0.17547521 0.14632054 0.33474895 0.2474505 0.14655004 0.43323064 0.46970028 0.5108206 0.5913402 0.60055876 0.3531969 0.2622174 0.16772771 0.0127057135 0.03339258 0.09584072 0.07134174 0.45425367 0.4575668 0.40073988 0.45869958 0.47209078 0.49068755 0.5057538 0.12220331 0.6840854 0.4632997 0.46432462 0.46758294 0.47383764 0.2724075 0.34735113 0.73199207 0.72487086 0.6915517 0.41442594 0.7792016 0.77976906 0.7071345 0.029749181 0.40211114 0.39817777 0.07316223 0.27292907 0.11907339 -0.100326695 0.34257638 0.27460644 0.23615298 0.10940215 0.30380684 0.41683137 0.3536446 0.3028951 0.40827304 0.3507466 0.40741324 0.39932868 0.3588822 0.24390236 0.31799498 0.31432185 0.23244712 0.11485911 -0.02160715 -0.17013538 -0.13950405 -0.013605569 -0.09397239 0.52645975 0.58694696 0.65273464 -0.4962396 0.5535678 0.6619133 -0.38845542 0.1821122 0.08924128 0.49412954 0.66319466 0.23972507 0.70847213 0.5073938 0.68350136 0.39452714 0.5478381 0.44858828 0.45518774 -0.112572044 0.077161476 0.21805038 0.35582238 0.3898322 0.403704 -0.05899413 -0.15007232 0.052166566 0.12275511 0.23618901 -0.06300452 -0.021099396 -0.29664648 -0.54566383 0.18167657 0.4041415 0.27876082 0.21842314 -0.1706937 0.0322845 -0.46527034 0.4117492 0.48407522 0.40162444 0.27632397 -0.1379212 0.46414757 0.5554696 0.61813 0.5405386 0.7251823 0.591298 0.43199533 0.56972545 0.6641525 0.7235744 0.8052678 0.3818104 0.76627284 0.41996604 0.3729162 0.4020065 0.4987985 0.5125101 0.34298113 0.40833265 -0.0018419996 0.16154978 0.5035843 0.5293486 0.57325214 0.28173682 0.3403474 0.3610371 0.39734182 0.4754483 -0.23339835 -0.14333318 -0.04040743 0.21808386 0.31285715 0.38491857 0.47795093 0.5051744 0.5508052 0.286045 0.54303855 0.499401 0.018409621 -0.06296079 -0.026653215 -0.3119239 0.014733873 0.036031865 0.08772747 0.08093503 0.20091438 0.32460943 0.36715227 0.31437117 0.31357062 0.59927255 0.39269364 0.15671438 -0.043916225 0.37742186 0.4931949 0.51843095 0.50217885 0.41282445 0.4093879 0.5603905 0.521799 -0.018376201 0.69247425 0.67588985 0.6499984 0.56090677 0.45121205 0.47303966 0.16275959 0.20364682 0.25127417 0.7348609 0.7373271 0.70758533 0.6516794 0.5491491 0.20224679 0.3382475