# vtk DataFile Version 2.0
Really cool data
ASCII
DATASET POLYDATA
POINTS 8095 float
18.30662 15.876751 6.6403904
18.337784 15.855956 7.18193
18.346523 16.516796 5.8383512
18.226532 16.444792 6.54369
18.281006 16.484177 7.089569
18.36658 16.873766 6.0110655
18.341951 16.980904 6.5889616
18.290672 16.851913 7.0668907
18.830433 15.223991 5.7179084
19.091534 14.660413 6.376784
18.941923 15.05528 7.439507
19.306107 14.957606 8.081787
18.98324 15.858159 4.792415
18.636631 15.611243 5.603369
18.558155 15.440139 6.2366805
18.567087 15.667791 7.392156
19.216925 15.846989 8.168103
19.09244 16.945095 4.2280536
18.91583 16.549368 4.5658712
18.686672 16.748894 5.201394
18.425545 16.51567 7.4614472
18.690407 16.318209 7.7994533
18.942762 17.196035 4.631976
18.661194 17.275993 5.5487065
18.468939 17.22803 6.446051
18.749363 17.234867 7.287099
20.179646 14.218001 5.5581236
19.783255 14.19021 6.9101343
19.85954 14.113576 7.360222
20.043768 14.248707 8.159671
20.14502 15.141652 4.0666833
19.38659 14.561284 5.8702354
19.464136 14.42969 7.57916
19.93677 14.575918 8.446994
20.048101 14.898935 8.73038
19.781887 15.864016 3.9098184
19.447714 15.43102 8.472377
19.775099 15.238264 8.631951
19.523785 16.69369 3.7927036
20.120953 15.878573 8.718496
19.530933 17.554642 4.117078
19.547237 17.705494 4.172384
19.404747 17.858404 4.6348953
19.583052 18.19679 5.405493
20.034584 19.961786 5.746595
20.351053 20.928144 1.7388475
20.175797 20.549572 5.1425805
20.09984 20.089823 6.7046843
20.299526 20.62368 7.580137
20.299028 20.537832 8.149537
20.406717 21.55891 1.1309634
20.337137 21.495806 1.3789406
20.300024 21.214684 2.3328817
20.075686 21.975992 4.349182
20.446402 21.477747 7.0018406
20.319248 21.857859 2.0953767
20.47708 22.088884 3.2388244
19.822737 22.67076 4.962781
19.72379 22.566467 5.2712355
19.852322 23.619001 4.8266597
19.744755 23.345545 5.281275
19.7655 23.662027 6.1616616
20.278564 23.676054 7.098644
20.088701 24.696413 4.7076974
19.74097 24.613617 5.4539857
19.655775 24.772186 6.250332
19.934137 24.548939 7.593253
20.196482 24.768139 8.4643345
20.25173 25.051905 8.747706
20.11013 25.651228 4.974975
19.730734 25.509016 5.734931
19.676033 25.463104 6.4672327
19.714294 25.545006 7.2936997
20.110352 25.530949 8.4804945
20.357267 25.13115 8.886524
20.253006 26.199493 5.234707
20.09404 26.276876 5.621503
19.854055 26.261557 6.4670672
19.894743 26.301317 7.5025053
20.260775 26.499191 8.299387
20.248638 27.105799 6.7292905
20.245567 27.241972 7.2965984
20.266863 26.975843 8.026252
20.532036 14.325411 4.7820835
20.56299 13.976084 5.7583513
20.525017 13.787995 6.5664196
20.670353 13.889643 7.5364494
20.630184 14.116014 8.201279
21.054682 15.009236 3.4689724
20.478546 14.455141 8.576846
20.5545 14.740112 8.780011
20.521414 15.2929535 8.879163
20.467968 16.837322 3.361419
20.808504 16.02442 8.757611
21.000605 16.917181 3.132443
20.72703 18.548515 8.040972
21.231104 18.8807 9.263373
21.258165 19.899467 2.5552926
20.749369 19.69473 9.250362
21.132187 19.704426 9.599543
20.78304 21.025587 0.770705
20.474743 20.704945 8.377271
20.799957 20.38582 9.295751
21.08884 20.177103 9.605573
21.159676 21.351442 0.32321504
20.669466 21.39586 0.8327136
20.533815 20.838223 8.587186
20.879972 22.264334 0.9649126
20.535767 22.222694 1.4955859
20.703512 22.530832 2.4782236
21.265923 22.842354 7.6793976
20.823942 22.690554 2.5772877
20.851274 24.711391 9.084069
20.7819 25.22036 4.2937603
20.472486 25.5667 4.5980105
20.636755 25.538147 9.044308
20.696373 26.319221 4.9179964
20.412773 26.590372 5.514403
20.727419 26.325674 8.815344
21.048407 26.772776 5.0884037
20.725569 26.86837 5.5365224
20.737179 27.482086 6.5410986
20.497759 27.566704 7.4989777
20.591608 27.334602 8.090791
20.819708 27.703032 6.8602896
20.894707 27.809862 7.578219
21.01681 27.793703 7.9052367
21.788351 14.146127 3.666148
21.56846 14.0201 4.2891846
21.76469 13.62909 5.8379593
21.637503 13.636086 6.479177
21.616587 13.822404 7.3985066
21.25585 14.068541 8.0491085
21.43095 14.631642 8.488587
21.181486 14.846598 8.708476
21.190638 15.549067 8.7717495
22.112877 16.835358 -1.9371388
22.048738 16.88901 -1.6531615
22.08847 16.887703 -0.64375794
21.999962 17.544855 -2.1449099
21.736547 17.625061 -1.4311126
21.676945 17.752386 -0.88301444
22.118229 17.676435 -0.042687863
21.442192 17.090462 2.7143488
21.326818 17.486797 8.475157
22.113947 18.110003 -2.1576388
21.823103 18.266493 -1.2643949
21.905502 19.249454 0.7443508
21.529257 19.372236 2.6477704
21.796747 19.42766 9.8389225
21.742655 20.902428 0.15444303
21.305962 20.564926 9.54837
21.600964 20.23421 9.786512
21.722914 21.790503 -0.032617748
21.620564 21.128773 9.413927
21.792276 22.227152 0.073776364
21.63322 22.522013 0.39599568
22.042013 22.910654 0.5653032
21.271223 22.836254 1.7093297
21.676245 23.48916 2.8685167
21.376326 24.611881 9.176554
21.474098 25.667095 4.218572
21.180218 25.52901 9.259817
21.283733 26.022339 4.3059697
21.631796 26.430475 4.547028
21.388224 26.398268 8.97847
21.44009 26.886452 5.0603886
21.486425 27.344563 5.7957916
21.43899 27.395584 8.40333
21.346786 27.178637 8.669296
21.516043 27.809008 6.827431
21.446938 27.904425 7.4701424
21.235933 27.758635 8.033104
22.759289 14.092314 3.1746168
22.60526 13.925727 3.6966379
22.452017 13.908124 4.299174
22.305449 13.6835375 5.741795
22.235252 13.667875 6.4895854
22.294296 13.877457 7.212605
22.020578 14.158547 7.8080564
22.91707 14.554229 2.6527328
21.897173 14.832583 8.3646965
23.202936 16.175926 -3.1732678
22.985584 16.027248 -2.384177
22.99863 16.0506 -1.3983753
23.11384 16.16249 -0.7301612
23.107767 15.869287 1.4183364
22.404675 15.517901 8.103891
23.050514 16.699514 -3.2425182
22.757074 16.391766 -2.558185
22.385899 16.46172 -1.0629524
22.297386 16.88929 8.772122
22.700468 17.379715 -2.9802725
22.203762 18.039276 9.452779
23.008963 18.110556 9.843517
22.89655 17.902863 -2.8760881
22.560892 18.395119 -2.4140372
22.228605 18.658573 9.761334
22.876331 18.907866 -2.1132336
22.518309 19.338715 -0.6936002
22.691196 19.41293 9.990391
22.369488 20.646347 9.75443
22.409853 21.611738 -0.35326552
22.674137 22.385088 -0.25591895
22.60613 22.837574 0.107920915
22.637243 23.04494 0.49728566
22.603989 23.302696 1.0860949
22.466251 23.429653 2.7201064
22.346458 23.096693 8.152345
22.211304 23.593485 2.5904768
22.076159 24.674948 9.098562
22.231504 25.14132 9.030609
22.454235 26.444605 4.5943007
22.127449 26.395712 8.808179
22.18626 26.832825 4.973121
22.048075 27.196548 5.6021
21.92397 27.63881 6.434226
21.856407 27.636278 8.100293
23.122921 14.319896 2.9510717
23.39373 14.018994 3.8422954
23.272114 13.965152 4.6912274
23.049192 14.086863 5.2543936
23.010958 14.007735 6.6285033
23.107155 14.277393 7.175021
23.440998 14.478733 2.8537798
23.188683 14.793592 7.4201255
23.954128 16.209843 -3.6175594
23.731924 15.907525 -3.204463
23.735882 15.65996 -2.5850015
23.588284 15.71178 -1.6908051
23.317104 16.04979 -0.9849603
23.710556 16.624546 -3.6883976
23.402273 16.494947 -3.6005764
23.749195 16.686573 8.434902
23.75139 17.16534 -3.705801
23.584824 17.52205 -3.4875762
23.67088 17.53837 9.228674
23.589342 18.095888 9.741796
23.60316 18.044613 -3.208519
23.340616 18.496138 -2.6453023
23.580067 18.732391 10.023848
23.46606 19.028616 -2.178197
23.503826 19.402462 -1.5800161
23.364975 19.305384 10.056053
23.253397 20.119684 9.845355
23.141068 21.797451 -0.47904894
23.423645 21.30194 9.170545
23.32143 22.388264 -0.2061941
23.11646 22.81301 0.05712472
23.498943 22.987198 0.6422523
23.54198 23.196014 1.3647994
23.799446 24.559427 3.2816496
23.485153 24.785217 8.665364
23.815893 25.207048 3.6395879
23.548592 25.804688 4.034123
22.971773 26.684614 8.332639
23.207094 26.790575 5.327139
23.661425 26.698404 8.449205
24.170313 14.260512 4.3508883
24.166334 14.283055 5.102787
24.684147 15.476545 -2.393099
24.546633 15.395786 -1.9360422
24.435335 15.019867 1.9449297
24.165186 14.705293 2.6730719
24.684029 14.556046 4.5386677
24.111877 14.514457 5.7584925
24.346556 16.150595 -3.647304
24.382004 15.813334 -3.2883093
24.260809 15.532522 -2.5903444
24.116095 15.783768 -1.2087706
24.432037 15.743955 -0.19767044
24.369959 15.85436 7.5862637
24.400558 16.550379 -3.770108
24.673586 16.712765 8.259157
24.278994 17.241642 8.785941
24.401163 17.284117 -3.7431016
24.402765 17.860758 9.142419
23.883268 18.216269 9.679701
24.460049 18.05278 -3.313132
24.316034 18.309687 9.524435
24.066154 18.882322 9.902298
24.26901 18.636528 -2.703219
24.375423 18.846756 -2.398237
24.461117 19.644524 9.585569
23.90641 19.694616 9.84028
24.421658 19.950342 -0.99082446
24.141642 20.207655 9.445112
24.091322 21.458569 -0.1333358
23.849697 22.033297 -0.05802366
24.240374 22.15411 0.40003163
23.727583 22.733858 0.37715834
24.90587 23.364798 2.7911775
24.462624 25.057972 8.691555
24.60536 25.481396 3.7070456
24.74811 26.357866 4.5044026
24.304815 27.120209 5.944999
25.366354 27.779259 11.079087
25.179745 28.587381 10.575205
25.145096 28.802944 11.273921
25.018015 29.119972 12.608535
25.28989 29.232294 9.833572
25.279383 29.59892 10.602261
24.74277 29.989063 12.492658
25.08101 29.648853 13.390157
25.270079 29.80435 13.782305
24.9667 30.642181 11.755375
24.802895 30.542004 12.506019
25.022238 30.471281 13.384764
25.218678 30.424162 13.674069
25.17149 31.075542 11.6177025
25.096512 31.286509 12.626722
25.157953 31.220175 13.164888
25.47096 15.4447365 -2.3422768
25.346027 15.011227 3.5710404
25.316196 14.842333 4.575236
25.10868 15.031824 5.458402
25.039196 16.129738 -3.600938
25.587208 15.89019 -3.2018363
25.71076 15.570092 -2.6772287
25.639818 15.6452465 -0.6641035
25.529076 16.030666 7.1744847
25.57183 16.599705 -3.6333547
25.288908 16.691391 8.030742
25.132202 17.309141 -3.6831431
25.49513 17.637304 -3.4490666
24.693405 18.12102 8.900288
25.494547 18.118137 -3.1463103
25.339901 18.219444 8.418623
25.090036 18.62988 8.895888
25.178862 18.650223 -2.6952229
25.520035 19.212776 -1.9646195
25.548466 19.43789 -1.4874597
24.8666 19.480974 9.0542145
25.642998 20.184055 -0.04111284
25.092949 20.212358 8.361508
24.806301 19.990328 8.837049
[...]
POINT_DATA 8095
SCALARS features_00 float 1
LOOKUP_TABLE default
0.6332132 0.6503726 0.58625096 0.60629725 0.61646986 0.5730145 0.576947 0.5922284 0.6470484 0.6865109 0.7196187 0.7206483 0.5699799 0.6240767 0.65690684 0.6780875 0.6758038 0.49228784 0.5239957 0.54654217 0.6141647 0.6288574 0.49685523 0.5116842 0.5425463 0.53696823 0.55724657 0.6934831 0.71697223 0.7176591 0.5494342 0.6345828 0.7275406 0.7107152 0.6910692 0.53248674 0.69582486 0.68901205 0.4798469 0.6041575 0.45259935 0.44310936 0.44412887 0.3779211 0.12095922 0.4949911 0.1478144 0.22685122 0.2956394 0.37881905 0.5757765 0.55690914 0.4543938 0.08582662 0.20056105 0.510662 0.35062972 0.1652067 0.1693807 0.289926 0.31975704 0.3827373 0.39887217 0.48510474 0.47610596 0.50765586 0.5562896 0.6077128 0.6554984 0.51699346 0.54288864 0.5798006 0.64921415 0.6872539 0.6675957 0.52998424 0.56161845 0.64051986 0.7352296 0.7597611 0.694514 0.7452873 0.7650801 0.50583625 0.55126774 0.6381999 0.6952119 0.69870096 0.47154158 0.6917285 0.67175007 0.634479 0.45030195 0.5195285 0.4155106 0.45082587 0.4730154 0.3145787 0.4748085 0.49313325 0.5652031 0.40882495 0.49078006 0.4993164 0.61640906 0.5954102 0.42472845 0.5967692 0.5482789 0.4968552 0.35736126 0.48956007 0.609462 0.47121722 0.5009035 0.6909095 0.50206125 0.5510912 0.7419347 0.5021094 0.54697585 0.6690186 0.75254786 0.7575928 0.7050672 0.75161654 0.75613797 0.41974115 0.44986027 0.49092484 0.56490225 0.6235411 0.6628463 0.6231499 0.6255141 0.5506711 0.7475685 0.72295755 0.63567114 0.7871946 0.71667933 0.65970516 0.5345397 0.23239249 0.34442067 0.7501458 0.68315065 0.2580528 0.17680545 0.51050425 0.55237186 0.49218118 0.49746394 0.6559917 0.4612509 0.67042816 0.6611962 0.6372806 0.5466695 0.3654757 0.56481177 0.41436473 0.6739862 0.45115638 0.43676984 0.7096238 0.48127198 0.5386413 0.7277297 0.7230855 0.677689 0.72666883 0.74997175 0.36296767 0.39021313 0.4009477 0.4435804 0.51194257 0.55603397 0.59087944 0.30047074 0.5555416 0.7943911 0.73329455 0.6278342 0.5230991 0.1864325 0.38310066 0.81557727 0.77992475 0.64793175 0.29190728 0.80353546 0.4346031 0.47164282 0.7347088 0.68571556 0.50423676 0.58599925 0.5090594 0.5642311 0.5218449 0.64172435 0.64302194 0.63768786 0.61618173 0.5627616 0.30846918 0.31196788 0.3488014 0.4536608 0.5354521 0.34410834 0.62260133 0.4056345 0.45615482 0.57590353 0.70293915 0.34131613 0.35233212 0.3570274 0.36987686 0.45928314 0.46812803 0.32498097 0.4049626 0.7998887 0.7774941 0.7277373 0.62560594 0.5534282 0.80228496 0.8069346 0.23264307 0.7817487 0.7612368 0.36706552 0.4595942 0.68727756 0.6145599 0.5264485 0.5171282 0.44673592 0.56135 0.5639281 0.58898103 0.45678186 0.5883244 0.60494876 0.5477622 0.4684368 0.14378439 0.19154602 0.1417926 0.1583685 0.5472123 0.2610868 0.46010268 0.3178478 0.3174868 0.6999218 0.6356508 0.22364643 0.2867269 0.2846866 0.31458792 0.79774725 0.7768931 0.7225214 0.5461881 0.3845151 0.17840083 0.79694974 0.2536393 0.31759936 0.76572764 0.3962896 0.46510282 0.6657738 0.45723042 0.5144552 0.5421201 0.4837082 0.5082091 0.5357226 0.19292304 0.48398843 0.360514 0.49725366 0.40743035 0.5305969 0.053580735 0.0023132563 0.21954583 0.21289065 0.19023907 0.45236832 0.5595577 0.62200844 0.75658596 0.53013223 0.6083151 0.9070321 0.89774513 0.9277247 0.7848049 0.9193289 0.9720259 0.9787052 0.77730954 0.91308975 0.9536363 0.6998463 0.22412482 0.24161533 0.25761446 0.8026277 0.7930795 0.7468311 0.5202355 0.3001008 0.8055915 0.280794 0.7567643 0.71474767 0.40291324 0.63463235 0.3728168 0.43644905 0.5197605 0.38365662 0.3076257 0.48015547 0.11004788 0.38902527 0.45216638 0.32142302 0.11583885 0.18034641 -0.1450529 -0.17855321 0.33782434 -0.012884472 0.29658422 0.3102344 0.32866272 0.27401263 0.38608032 0.5436433 0.585732 0.17687777 0.22735445 0.7272887 0.81471646 0.38567922 0.88797265 0.49612227 0.5937393 0.5928702 0.96995527 0.6317642 0.6868125 0.76966393 0.9041076 0.9558023 0.9695766 0.72919774 0.8270643 0.8944922 0.9358349 0.7086897 0.6899631 0.12064929 0.8039956 0.75714546 0.65822923 0.12592027 0.06879653 0.077793494 0.22685516 0.800798 0.82075244 0.78574574 0.7430325 0.31416374 0.61590713 0.25674996 0.45460492 0.35897446 0.20941873 0.061770473 -0.14591947 -0.00016090274 0.14671373 -0.077817604 0.12505463 -0.01872296 0.35500392 0.17923892 0.3328627 0.23233658 0.3267385 0.28741372 0.26122755 0.58142924 0.2569545 0.23504387 0.20191191 0.7230536 0.7781476 0.27724478 0.8468814 0.5143449 0.9208444 0.65326214 0.91570157 0.9430454 0.69883865 0.7509655 0.8176273 0.88554096 0.9071698 0.753317 0.6388382 0.57176137 0.48073477 0.029648468 0.79496825 0.7489246 0.6633855 -0.1903574 0.75057876 0.6686718 0.6396439 0.53421116 0.07630108 0.46870086 0.26552215 0.11904572 -0.107601576 -0.06634276 0.16567153 0.16936985 -0.37511998 0.14366764 0.10148852 0.026968751 0.26576442 0.05818556 0.2734633 0.27297464 0.2624753 0.28086603 0.2635447 0.24381688 0.7055497 0.23538582 0.27944836 0.75345623 0.80983675 0.38558865 0.7627961 0.84373 0.6381304 0.7054 0.8096998 0.84600836 0.88775146 0.74727017 0.81504786 0.8374013 0.75398046 0.8029386 0.80136263 0.65167004 0.6690606 0.7615068 0.3909013 0.6097536 0.6270229 0.5282858 0.24279281 0.22828269 0.6155763 0.61665714 0.5172132 -0.04235024 0.11287098 0.5536909 0.10668385 0.37050337 -0.24441338 0.17722023 0.17402165 0.74210745 -0.39871335 0.15962389 0.70917356 0.65827787 0.057550617 0.026725484 0.15374416 0.1958952 0.21906413 0.22791766 0.20317996 0.22018683 0.30965936 0.26289034 0.2649643 0.2067568 0.19984701 0.21543239 0.46674493 0.65608585 0.29313186 0.46513698 0.54617554 0.55060047 0.67262095 0.57213545 0.6676795 0.6921011 0.69022214 0.71026456 0.78667456 0.8310209 0.8201813 0.6193291 0.78456295 0.74775994 0.56143516 0.55429155 0.60247856 0.638389 0.40203145 0.03989032 0.034885548 0.034751706 0.097254224 0.07256876 0.07795471 0.7621063 0.70089257 0.48326287 0.16042508 0.8323536 0.77786183 0.67411214 0.45052123 0.1220836 0.81520766 0.7527747 0.5804627 0.46587417 0.026793486 0.80346286 0.75351506 0.69281054 0.62762356 0.05528163 0.12880917 0.17386344 0.23293145 0.1975236 0.14158648 0.23884335 0.40719616 0.14109465 0.12786862 0.22596203 0.14799845 0.26698965 0.46992618 0.5346948 0.5452329 0.3226439 0.51928604 0.5216989 0.54545265 0.5016818 0.6209754 0.6231111 0.64893234 0.6425605 0.6066997 0.65734375 0.65539145 0.62763727 0.64888394 0.6502271 0.6757375 0.7663267 0.85438085 0.81534207 0.76733696 0.5893945 0.60939825 0.6830028 0.5461345 0.54891 0.5445299 -0.004224941 -0.045963258 -0.012007317 0.6491643 0.43095762 0.7885678 0.084366865 0.8298571 0.092014514 0.85319775 0.24570763 0.31428808 0.85333407 0.8166485 0.63431567 0.34598953 -0.2940938 0.13352089 0.35644516 0.5368532 -0.0044739037 0.3389812 0.37528437 0.13813768 0.15658477 0.10367708 0.48884502 0.4948014 0.52964926 0.5578035 0.10676831 0.0758217 0.49039087 0.51385176 0.5314467 0.5589945 0.6175568 0.5078257 0.49825397 0.5191013 0.53893864 0.5177053 0.47411603 0.45350727 0.58865535 0.6130129 0.55982196 0.41496825 0.6293645 0.6415995 0.54858005 0.49041444 0.60420537 0.62959605 0.6403618 0.5818095 0.5260552 0.5902184 0.6008916 0.6170461 0.6168417 0.5746895 0.5660638 0.55964756 0.5964893 0.66737366 0.754002 0.75748664 0.7257407 0.53266996 0.56873 0.6906843 0.6035193 0.5678531 0.31953067 0.11229826 0.0022341162 -0.009190297 0.58277965 0.73389804 0.33639592 0.07898846 0.24988806 0.82164633 0.79880893 0.118090525 0.2399977 0.3344185 0.3534678 0.69604707 0.7030877 0.7890246 0.334688 0.302175 -0.13741758 0.37080938 0.37718526 0.75969225 0.76144755 0.7421802 0.6187203 0.41290653 0.38357893 0.37978536 0.8239769 0.81519526 0.1201053 0.35999322 0.22853757 0.27044806 0.45424855 0.44491464 0.46411258 0.47035143 0.37866226 0.24266891 0.25152946 0.26236233 0.09284317 0.081718504 0.46660823 0.47441566 0.48380473 0.47631022 0.4502386 0.21523835 0.45713055 0.49716136 0.44141513 0.5311323 0.39370072 0.43311435 0.43367583 0.46329397 0.47178257 0.06021577 0.18346551 0.49376428 0.35021666 0.21547647 0.5278536 0.20783827 0.54807734 0.57214916 0.380994 0.32410115 0.5651682 0.5711303 0.47487116 0.39252236 0.26106626 0.53303635 0.53717047 0.4991601 0.44328275 0.45401856 0.30519992 0.44150767 0.6079681 0.65960765 0.70153236 0.5083374 0.5263809 0.5689564 0.6265727 0.6731794 0.6562314 0.45071393 0.5836543 0.37244183 0.42439952 0.32146263 0.46014002 0.17220937 0.11034793 -0.17141047 -0.1750946 0.3672608 -0.1040318 0.5176789 0.57692856 0.6180382 0.62559617 0.8533596 0.83182573 -0.09068714 0.2884037 0.39832053 0.3465492 0.41438776 0.4784163 0.557715 0.5578414 0.8411144 0.81990325 0.7111446 0.34015706 0.37846458 0.6253491 0.5977748 0.599288 0.629491 0.35340536 0.7404307 0.66208994 0.67557716 0.6998829 0.62753737 0.5510672 0.3461023 0.28078136 0.22077739 0.35601872 0.8298552 0.77739775 0.7632898 0.7584952 0.4706769 -0.06691408 0.36146933 0.84959304 0.8689502 0.85680526 0.8477118 0.047280777 0.33700696 0.8647315 0.8903246 0.8948297 0.89671624 0.3873267 0.3499495 0.32044163 0.17301676 0.42353785 0.43185818 0.3241362 0.32646847 0.3291949 0.3041793 0.25679165 0.17602615 0.098821685 0.08312269 0.39874652 0.3767622 0.36604476 0.1931073 0.41393277 0.34886393 0.3761696 0.42228198 0.10946243 0.11033972 0.5026375 0.13351813 0.16662002 0.19278285 0.48432994 0.16470855 0.18070057 0.49265328 0.53896254 0.23330054 0.12927228 0.13748182 0.47793895 0.47466052 0.25059205 0.25514793 0.41447747 0.19104376 0.4835812 0.46019948 0.41352716 0.5707524 0.60034734 0.60576147 0.3870085 0.56081176 0.60904706 0.5842339 -0.25551546 0.48409706 0.51493585 0.5049676 -0.15713476 0.8127966 0.7792116 0.45719582 0.06899077 0.7152015 0.7905855 0.8033807 0.79292 0.835052 0.82992476 -0.0041364133 -0.009999618 0.46346396 0.7388278 0.7057964 0.5269036 0.49624574 0.5173449 0.82534266 0.84908986 0.80426973 0.76861525 0.59030277 0.31224883 0.50386673 0.6180464 0.5297778 0.5461272 0.53930306 0.8088642 0.83924377 0.80205977 0.75247025 0.6071339 0.31770664 0.67282814 0.5612447 0.520123 0.7339964 0.7951617 0.8075197 0.5683655 0.36632723 0.36781293 0.6283788 0.64204 0.8291155 0.82704943 0.27362067 0.10998666 -0.013136759 0.32363537 0.722808 0.7842118 0.8344492 0.29834887 0.7589631 0.8423424 0.89655817 0.41286218 0.35598406 -0.09958987 0.8433336 0.87667 0.9122913 0.91467756 0.44000202 0.4177361 0.3965344 0.31519485 0.27120733 0.2547961 0.24226764 0.36762804 0.28211075 0.04497227 -0.07343798 0.25133947 0.2745298 0.2575295 0.6767064 0.7053623 0.658108 0.27857628 0.24668962 0.62941253 0.70356846 0.7655756 0.70147336 0.27319288 0.21925256 0.6123668 0.68593645 0.7812304 0.7106781 0.602302 0.101227865 0.08831821 0.07734693 0.033308994 0.5756881 0.64935344 0.67943466 0.6124642 0.10222446 0.105443805 0.20301792 0.22641058 0.20948632 0.26107645 0.30911258 0.38084137 0.10480516 0.30751446 0.3428399 0.40951374 0.1472078 0.2638012 0.51847 0.37994495 0.31811875 0.1999723 0.06644395 0.6616609 0.7042451 0.7117723 0.1897898 0.71027064 0.7854574 0.79887915 0.7285011 0.7716681 0.78413224 0.71687484 0.74383914 0.3940441 0.60100365 0.6208519 0.6253483 0.35577053 0.4889893 0.43412173 0.5312349 0.5623722 0.3115996 0.31837803 0.30284223 0.49442127 0.16794786 0.24176368 0.7738904 0.81416196 0.81304383 0.5546026 0.5484364 0.7151032 0.6957813 0.7222117 0.57899475 0.7195016 0.80410886 0.7912094 0.4884767 0.4551702 0.40327942 0.5036311 0.5054452 0.5013454 0.67544377 0.7219486 0.7656991 0.57503724 0.52000725 0.46572614 0.4669563 0.5226632 0.45707637 0.64145625 0.7455401 0.70198715 0.21838583 0.6372684 0.5428894 0.48701543 0.48073536 0.61047083 0.7055949 0.67276865 0.12627795 0.49063337 0.53345734 0.46525097 0.60287136 0.7448932 -0.04412985 0.36718425 0.5434375 0.57868576 0.6543356 0.40571958 0.40477273 0.6066313 0.66801924 0.82164633 0.83940446 0.78741276 0.2302756 0.10152799 0.08434344 -0.035867665 -0.39528647 0.27879173 0.30195868 0.61364555 0.7360896 0.44192532 0.44608623 0.8091164 0.85870135 0.2493558 0.6863088 0.7319322 0.82953054 0.42633796 0.44024208 0.4085887 0.4206304 0.37372732 -0.1708686 -0.11997764 0.27941787 0.7884197 0.8701364 0.929168 0.8551171 0.38089368 0.45038188 0.2692275 0.22369866 -0.15025663 -0.19688551 0.22690494 0.28889805 0.37427753 0.20626707 -0.0031346828 -0.07063878 -0.061278872 0.056548614 0.06444016 0.20366162 0.19161168 0.2045284 0.1279045 0.19930534 0.046127938 0.09226572 0.31876934 0.32294345 0.21803176 0.15942092 0.2090216 0.28411514 0.16879386 0.005111862 0.039222978 0.1020634 0.33794796 0.14614947 0.5156889 0.6014118 0.55386066 0.48897845 0.34946233 -0.21939845 0.29097533 0.23995817 0.15723923 0.45839486 0.59824777 0.31897327 0.30049628 -0.13880888 0.17525375 0.14900512 0.5149302 0.3975906 0.36685634 0.214307 0.06621024 0.11345533 0.4599766 0.5466505 0.5535462 0.37307623 0.28741476 0.13282886 0.1156354 0.1326793 0.11976183 0.4387318 0.47617057 0.5261963 0.51657414 0.28596 0.31684682 0.24583526 0.3209847 0.2486451 0.34790012 0.34531206 0.2761196 -0.030912548 0.39538646 0.34869635 -0.058634996 0.21513537 0.5943991 0.6550696 0.30886257 0.24817276 0.16182776 0.4568498 0.5631032 0.78004086 0.75319636 0.38160405 0.29603866 0.2456103 0.6303673 0.65522414 0.75942206 0.7657295 0.7479502 0.6436294 0.6640035 0.69150925 0.7276386 0.73785746 0.7177714 0.6983103 0.576378 0.44020322 0.5821992 0.61017156 0.6571964 0.60005546 0.56400055 0.5744649 0.59782505 0.58076316 0.28364864 0.42885447 0.4780522 0.5288413 -0.39470524 0.44222587 0.41675094 0.523605 0.5377878 0.5437466 0.54886794 0.7798832 0.78693146 0.20782432 0.44125003 0.53372604 0.56024826 0.56602544 0.5432589 0.505584 0.4370144 0.59625334 0.5338212 0.39130256 0.75530684 0.7779889 0.776407 0.50433284 0.4126338 0.35788894 0.2338642 0.27880886 0.5141814 0.5285721 0.4730057 0.34196728 0.5838164 0.5726929 0.48163548 0.47953564 0.7584374 0.54574835 0.4298163 0.44922462 0.42151433 0.4007438 0.23302662 0.51128334 0.25536305 0.6918198 0.47342014 0.28303775 0.31971264 0.30388364 0.2658085 0.13048932 0.46600878 0.59808606 0.029796176 0.5633506 0.45819572 0.36971933 0.20316905 0.21261479 0.18722585 0.2497439 0.19634224 0.48390526 0.5036026 0.728614 0.0028785542 -0.019035168 -0.03143315 0.030829422 0.4488951 0.36439207 0.33597738 0.5785646 0.8165767 0.031741627 0.01809265 0.28265485 0.29868108 0.5359946 0.5254166 0.66085744 0.3906107 0.37967896 0.72212505 0.72854817 0.28014776 0.59695774 0.6429355 0.6571289 0.65213406 0.29904965 0.34738 0.44346717 0.4719512 0.3552841 0.22993475 0.2251023 -0.035349786 -0.041925907 0.29833302 0.71867406 0.29481286 0.32993567 0.30317575 0.19020753 0.24475276 0.308344 0.3264624 0.280049 0.24484664 0.2203601 0.078718446 0.1904831 -0.07955173 0.50986433 0.408576 0.28974935 0.19103335 0.13692297 0.14284834 0.088174865 0.1279292 0.14208859 0.58810043 0.4903463 0.31619924 0.18576586 0.08666229 0.27936202 0.20160373 0.023474585 0.005762087 0.10655247 0.30526543 0.6053251 0.5751991 0.4232793 0.08874453 0.16781089 0.25061253 0.55937785 0.47002342 0.3214115 0.31509575 0.2577083 0.11001162 0.07488039 0.08873789 0.3292445 0.05676958 0.18998474 0.14243007 0.119979456 0.29488054 0.34673184 0.20424795 -0.036095515 0.055209875 0.37380713 0.41346514 0.44293112 0.36749262 0.2548476 -0.054779563 0.4165797 0.38951662 0.315083 0.17019472 0.32212824 0.21912268 0.33004633 0.20382573 0.4616288 0.53539693 0.18592723 0.26605937 0.6589246 0.2854128 0.011202335 0.4176302 0.70876926 0.38226673 0.29062623 0.2496956 0.7027323 0.7184639 0.6236805 0.6460273 0.6587075 0.68607485 0.67776 0.62940115 0.62922466 0.6483362 0.6735846 0.7383421 0.7699367 0.75798124 0.59617984 0.63681495 0.6690448 0.3915975 0.71669424 0.71663505 0.56265175 0.60730594 0.5679221 0.4232424 0.515685 0.41172782 0.23238577 0.699219 0.4370753 0.47393307 0.45806253 0.46178955 0.45211884 0.49946994 0.4518484 -0.1436874 0.63693357 0.4735595 0.50490665 0.50083077 0.47209364 0.47290084 -0.11584999 0.25443438 0.013819871 0.30861765 0.45148748 0.30768225 0.24005403 0.14344978 -0.29759 0.35483673 0.7060468 0.74858665 0.4428475 0.29720244 0.37718052 0.07278377 -0.11060899 0.7387612 0.73168564 0.485749 0.4971735 0.12940401 0.23477381 0.6261555 0.68441916 0.41974622 -0.2870687 0.10697333 0.55973756 0.615843 0.19476789 0.011938795 0.10996979 0.17096674 0.33240756 0.68184626 0.020816712 -0.09268125 0.22058684 0.39251122 0.3729512 0.382273 0.094442375 0.044854596 0.21617258 0.5275437 0.59717673 0.54953307 0.5908095 -0.18540893 0.31193623 0.39652273 0.29349008 0.20476073 0.20231612 0.5557361 0.50587595 0.6800573 0.12127217 0.1668219 -0.027720843 0.25656697 0.5094856 0.5298425 0.55354357 0.48656255 0.5409991 0.18534783 0.35889977 0.19498785 0.18729122 0.005583752 0.29118127 0.10858643 0.0034103766 0.012140714 0.24532676 0.41949856 0.034233414 0.02818282 0.0730453 0.12940334 0.5160352 0.54514176 0.040159285 0.043289706 0.043241054 0.3670223 0.36411703 0.5754374 0.6011734 0.041359685 0.015274659 0.21469009 0.102172 0.096121944 0.37937602 0.37794036 0.57189226 0.06592245 0.25678736 0.31629258 0.3590018 0.3781089 0.48334894 0.45013106 0.10152176 0.16128056 0.19068992 0.2613982 0.41930094 0.35414472 0.11256275 0.20785579 0.20546538 0.19089599 0.07205246 0.12880209 0.29681075 0.29279476 0.26751572 0.2207096 0.24564666 0.2239429 0.057012167 0.1599103 -0.024438053 0.3467695 0.30993545 0.32354662 0.2546875 0.27355018 0.33948737 0.54194003 0.13357343 0.19316226 0.5089457 0.57298553 0.1666769 0.5121284 0.5697454 0.6824554 0.30359071 0.5835223 0.5983507 0.58487606 0.5896637 0.5920403 0.58261645 0.5645325 0.6294981 0.6545196 0.6007179 0.531289 0.6620866 0.7796036 0.7703947 0.7549379 0.40539682 0.55472934 0.6037272 0.6128029 0.25321922 0.30138528 0.40442026 0.73543334 0.32546616 0.43158647 0.2272636 0.1888544 0.07124686 -0.17653227 0.20222971 0.6870997 0.37247622 0.40073127 0.3798396 0.27503732 0.14170608 0.5790977 0.20033312 0.10505089 0.15026262 0.27831095 -0.047557026 0.395086 0.1740914 0.20469072 0.06074147 0.06605841 0.2063566 0.21701637 0.1658792 0.11836839 0.04293938 -0.06376142 0.5779419 0.69215685 0.70137095 0.4155137 0.09531341 -0.0043713897 -0.00428319 0.046216846 -0.21951054 -0.08560434 0.366285 0.5093739 0.6261072 0.3344949 -0.17481548 -0.26854596 0.09773295 -0.17606507 0.3942834 0.56169736 0.33557352 0.2841908 -0.12443187 -0.25799176 -0.14267428 -0.15249257 0.24603258 0.28549552 -0.13811426 -0.099292025 0.31218114 0.29276314 0.44124866 -0.33881718 -0.092052944 -0.050134353 0.32596353 0.0599207 -0.0664939 0.06206799 -0.1229036 -0.097127184 -0.082045734 0.27602673 0.4855031 -0.32009286 0.049641274 -0.1268577 -0.103239395 0.18333924 0.071740784 0.10825956 -0.042817708 0.14347808 0.25118297 0.021642633 0.0075915977 0.038548455 0.21314675 0.29487208 0.3894549 0.023636356 0.009476751 -0.0050620437 -0.023894042 0.3535127 0.54076874 0.021243557 0.37902188 0.49733892 0.013595417 -0.020934567 0.36680958 0.38090867 0.4166003 0.42614418 0.11478639 0.10016002 0.18553007 0.26424313 0.30259204 0.37204576 0.20596534 0.074820116 -0.014940053 0.04098858 0.3757584 0.33543614 0.121628776 0.10862011 0.2976594 0.44259554 0.4387561 0.42766744 0.22986549 0.10955542 0.17619501 0.13220209 0.039601237 -0.048452333 -0.11725221 0.25769466 0.12010668 0.33465904 0.38564926 0.117783636 0.40265498 0.41202012 0.4160363 0.48867023 0.58595186 0.5580524 0.5216366 0.41782963 0.44615018 0.642467 0.7102603 0.7149631 0.5657329 0.48732328 0.3371286 0.50649387 0.5236064 0.46332556 0.4724972 0.74649423 0.7573124 0.747694 0.6354657 0.540864 0.77179545 0.5264261 0.57984984 0.5790416 0.55843353 0.45317924 0.5001589 0.45537144 0.40598333 0.55589414 0.71771574 0.7450454 0.7475998 0.26246667 0.46460617 0.40968284 0.30771944 0.36658478 0.42100173 0.7213273 0.7219329 0.17217116 0.13433126 0.07142265 0.073841035 -0.07105164 -0.14176746 0.19610155 0.66446126 0.5032953 0.43831134 0.3796512 0.19424646 0.20027895 0.24072313 0.243258 0.22947615 0.01350842 0.3279081 0.5352317 0.32124949 -0.018447347 -0.0048024952 -0.0264076 -0.077642344 -0.22689618 -0.13388395 0.2707903 0.36040312 0.52419186 0.43213856 0.023316473 0.0160195 -0.15389264 0.4844576 -0.18840538 -0.353543 -0.24044424 0.22194491 -0.38846087 -0.13516262 0.24998622 -0.18039767 -0.4385912 0.104865365 0.