# vtk DataFile Version 2.0
Really cool data
ASCII
DATASET POLYDATA
POINTS 8545 float
32.246494 13.229556 20.790375
32.305183 13.154835 21.324757
32.019485 14.006189 18.988297
31.87325 13.922241 19.610186
31.959648 13.649559 20.63627
31.943188 13.780431 21.536867
32.110954 13.872421 22.107136
31.975845 14.617295 18.82835
31.68704 14.523146 19.48605
31.649605 14.541076 20.498909
31.730062 14.512164 21.449316
32.02325 14.513918 22.27202
32.28206 14.549877 22.800282
32.041107 15.2584 18.857533
31.754759 15.278632 19.578554
31.752993 15.257904 20.335714
31.912428 15.314999 21.329435
32.128345 15.325753 22.134981
32.230206 15.698901 19.019983
32.157936 15.839367 19.577324
32.251698 16.01296 20.620209
33.398983 12.809584 18.04287
32.970695 12.9026 18.67823
32.71384 12.849289 19.862684
32.80241 12.685873 20.863806
32.897903 12.675204 21.36031
32.962692 12.912423 22.089624
33.22027 13.199629 23.012722
33.326443 13.268771 17.875597
32.58073 13.478455 18.677946
32.489708 13.747513 22.484707
32.991085 13.946366 23.476189
33.23972 13.991111 23.977371
32.864136 14.6870365 18.081919
32.750675 14.398753 23.380894
33.098373 14.525352 24.185162
32.48068 15.522209 18.648298
32.65612 15.269737 23.047886
33.172157 15.245653 24.178574
32.81749 15.912735 18.813938
32.72569 16.220644 19.590933
32.623264 16.18092 20.358534
32.51233 16.018797 21.38919
32.67578 15.915342 22.22796
33.141975 16.017244 23.224297
34.187794 11.161233 19.504593
34.275455 11.989599 15.544247
34.194923 11.513145 18.429258
33.42277 12.287548 19.184887
33.832214 11.819036 20.433594
33.78198 12.410999 21.687513
34.239307 12.693972 15.249457
34.023956 12.75094 15.636986
33.771717 12.915579 16.818222
33.26637 12.501277 21.528225
33.552616 12.573881 22.031712
33.522057 13.264501 23.465712
34.112194 13.262729 15.485971
33.84633 13.293007 16.424694
33.545773 13.308848 17.204386
33.703903 13.751001 24.280764
34.34378 13.989831 15.338102
33.960106 14.115404 16.664135
33.360767 14.385947 24.356234
33.858215 14.665491 24.908451
33.766987 15.2024555 17.823685
33.451717 15.460096 24.506304
33.86825 15.413634 24.892677
33.614388 15.783462 18.32163
33.493313 16.11628 18.6898
33.25239 16.394022 19.542425
33.366924 16.523357 21.186354
33.568283 16.262785 23.442345
34.185005 16.474953 24.484718
34.32546 15.9823475 25.120192
33.834206 16.64797 19.989058
33.655453 16.603523 20.422062
33.98867 16.97162 21.555426
33.69577 16.810575 22.269274
34.25472 16.785803 23.303015
35.414497 -0.1390699 21.580633
35.385345 0.4624554 21.045017
35.38088 0.4388466 21.369349
35.429398 0.24152012 22.073097
35.4451 0.92230296 21.48195
35.353615 8.617275 18.632252
35.394657 9.59506 14.576638
35.29332 9.949655 15.311523
35.469955 9.285219 16.417274
35.098625 9.473134 19.30053
34.934555 9.887291 19.924528
35.272488 10.017829 14.527442
35.137154 10.916314 16.494831
34.480896 11.203158 17.47667
34.8119 10.51811 18.702715
34.862156 10.205456 19.048784
34.83601 10.727221 20.36298
35.188736 10.541802 20.862963
34.923283 11.9649315 14.94426
34.60382 11.695705 15.568184
34.44957 11.536957 17.428957
34.203644 12.450855 21.886648
34.433933 12.62399 15.097566
34.766468 12.671306 23.397781
34.63376 13.559733 14.942933
35.136925 13.978612 25.224445
34.95865 14.2628565 14.963689
34.74653 14.519133 15.408645
34.358738 14.712372 25.206743
35.132698 14.851545 25.751984
34.720062 15.03982 16.581612
34.570473 15.400063 25.469921
34.856937 15.406309 25.637814
34.92036 15.738605 17.738295
34.474716 16.223726 18.753428
34.22316 16.493994 19.27274
34.439335 16.701593 24.680485
34.684406 16.468826 25.111475
34.555355 16.55217 19.802069
34.874355 17.428003 21.311384
35.006634 17.402515 22.849817
34.51723 17.2443 23.33452
34.85202 17.220991 24.378565
34.9683 16.941034 24.957932
35.326736 17.720358 21.904478
36.116547 -0.92411256 20.761866
35.910694 -0.95416856 21.576672
35.9343 -0.9206475 22.196917
36.065174 -0.30454513 20.23234
35.72427 -0.34773165 20.736792
35.602146 -0.5242431 21.497381
35.627434 -0.29758662 22.34167
35.90525 -0.2670021 22.900217
35.934677 0.46360737 20.1386
35.599735 0.4901912 20.568443
35.605087 0.3349719 22.494263
36.002163 0.457483 23.126453
36.07568 1.2042792 20.237907
35.713287 1.0714222 20.629658
35.604774 1.154018 21.450035
35.80539 1.3246007 21.997656
36.06631 1.8634819 21.029882
35.988945 1.8640807 21.542942
36.339863 2.4835868 22.584358
36.304848 2.6615956 23.262901
36.44142 3.391916 22.712944
36.480873 3.6810453 24.457005
36.43839 4.258712 23.712109
36.438313 4.119541 24.256414
36.47531 5.075897 24.310452
36.252422 7.190223 16.090996
36.11985 7.179806 16.41876
36.263794 7.271024 17.701912
36.300083 8.213044 13.899656
36.100903 8.2015 14.397125
36.06642 7.679802 15.663971
35.793934 7.7376156 16.638151
35.784172 7.7791214 17.561184
35.89708 7.8384695 18.626324
36.07153 8.107508 19.649784
36.30196 8.873481 13.200913
36.013306 8.794698 13.75336
35.66427 8.787832 14.586403
35.648983 8.485524 15.52787
35.66135 8.777899 16.498747
35.52577 8.540011 17.60725
35.61043 8.487217 19.470879
35.833076 8.748435 20.076525
36.20445 9.780619 12.896076
35.685883 9.545806 13.64966
35.47911 9.369376 14.361799
35.64039 9.383796 16.700878
35.404106 9.961842 20.72111
36.09602 9.816192 21.229925
36.10062 10.327275 13.071529
35.621006 10.188806 13.769135
36.12216 10.262405 21.757303
36.098175 11.117211 13.467907
35.87854 11.910129 22.250069
35.898083 12.290936 22.861938
35.405403 12.687128 14.397593
35.870106 12.562617 23.708288
35.611233 12.840271 24.106285
35.42183 13.581761 14.465005
35.537983 13.673518 25.246885
35.865437 14.154146 25.817211
35.505478 14.4955015 14.867996
35.639515 14.698278 25.926971
35.566315 14.704122 14.9896965
35.569897 15.021696 15.578772
35.422485 15.559586 16.642742
35.69882 15.805554 17.06713
35.655838 16.027554 17.698986
35.659428 16.557781 19.689606
35.446068 16.17948 25.78103
36.09046 17.091848 19.730005
35.429333 17.527117 24.539526
35.585995 17.202082 25.143202
35.99369 18.094465 20.213022
35.72018 18.013332 20.691666
35.562107 18.6885 22.471405
35.507164 17.908672 23.158024
36.19107 18.109175 24.14864
35.910862 19.155098 20.905062
35.85257 19.328394 21.54246
35.9738 19.436264 22.318628
36.17254 19.286186 22.841833
36.15929 19.869867 21.581951
36.11641 19.80166 22.004192
36.697323 -0.90054864 20.26665
36.650555 -1.2301068 20.719542
36.589462 -1.3856475 21.494432
36.562286 -1.229637 22.498611
36.969822 -1.2022046 23.359137
37.36218 -1.2443237 24.55419
37.27167 -0.914344 24.944721
36.46791 -0.38985792 20.04506
36.45055 -0.5831735 23.32046
36.966747 -0.4399498 24.332298
37.260662 -0.65509886 25.053535
36.690205 0.30837694 19.784477
36.92364 0.14155698 24.253733
37.371166 0.2966307 25.154741
36.360012 1.3855621 20.132753
36.5432 1.9306109 23.599607
36.776485 1.9549217 24.311611
37.38848 1.4415816 25.33032
37.24268 2.2126055 19.84348
36.50119 2.043314 20.78974
36.619064 2.4058354 21.203676
36.6157 2.5822232 23.794474
36.956562 2.826948 25.41347
37.124943 2.9545124 25.825647
37.094097 2.8433614 20.741419
37.129208 3.0404909 21.580374
36.499107 3.8889174 23.603518
36.590343 3.6115828 24.590193
36.821705 3.56754 25.33007
37.165077 3.4658039 25.986685
37.27869 4.137275 22.282845
36.687557 4.103969 22.78782
36.55012 4.3933935 23.652412
36.52227 4.646519 24.463715
36.611755 4.359311 25.285835
36.85598 4.798719 26.44087
37.085308 4.8254824 26.826975
37.01616 5.072808 22.865757
36.72262 5.5281844 23.776733
36.664574 5.568197 24.632381
36.63402 5.601155 25.930841
36.763035 5.6040225 26.441864
37.12424 5.40548 27.10406
37.231567 7.3180213 13.875447
36.917606 7.1275744 14.726865
36.61054 7.039 15.6589155
36.655067 6.8252707 16.445715
36.610733 6.8953705 17.317352
36.85151 7.009218 18.076006
37.103054 7.421643 18.845367
37.07639 6.1264057 23.62733
37.065353 6.567789 24.852081
36.8351 6.334246 25.71975
36.870083 6.22659 26.450306
37.191593 6.3414083 27.464815
37.392097 6.757418 28.232859
37.178307 8.056525 12.865971
36.806248 7.8476014 13.703016
36.691677 7.8542624 14.301062
36.435467 7.629209 18.847946
36.4815 7.8316064 19.527292
37.098427 7.14172 25.8414
37.297516 7.683259 26.55369
37.282898 7.4103117 27.466148
37.40063 7.167822 28.451147
37.257915 9.068488 12.088937
36.761066 8.847757 12.772718
36.519897 8.68278 13.335345
36.401173 8.627184 20.55599
36.78176 8.968285 21.201326
37.290714 9.18284 22.115366
37.374073 7.8446283 26.97629
37.430607 7.954954 27.577478
36.532764 9.598261 12.667321
36.793697 9.345421 21.463528
37.269806 11.21958 10.980266
36.89847 10.850858 23.015524
37.38315 10.914913 31.96952
37.38906 11.021182 32.51274
37.169838 11.887477 10.643102
36.85385 11.785183 11.568418
37.02202 11.587296 23.591152
36.23667 12.373192 23.851871
37.336723 11.69926 31.722267
37.171577 11.621182 32.64367
37.15172 11.896798 33.22638
37.2661 12.216517 33.745686
37.289623 12.590638 10.277461
37.14996 12.499656 10.662554
36.82458 12.290466 11.404682
36.528294 12.409785 13.979868
37.28468 12.991747 25.50629
37.232193 12.992072 26.271128
37.333664 12.274719 31.313171
36.852318 12.69187 32.76222
36.928223 12.652143 33.347656
37.16124 12.730718 33.80516
37.27638 12.94092 10.585728
37.076214 13.002112 11.463106
37.397587 13.371174 27.911465
37.160564 13.431036 31.631756
36.866005 13.259497 32.821293
36.93342 13.306148 33.268562
37.1787 13.238298 33.785114
36.26991 14.158722 14.62337
37.16924 14.234749 26.700684
37.393974 14.495452 31.260294
37.33874 14.427153 32.59359
36.266018 15.268663 15.955873
36.412064 15.499751 26.286423
37.467434 14.970958 28.214306
37.387077 15.346621 31.579374
36.8967 15.863179 16.32166
36.70871 16.369987 17.630121
36.79653 16.130741 26.200731
37.08507 17.186634 18.699444
36.589508 17.251741 25.366558
37.17746 16.987312 26.09191
37.047142 18.720171 19.249428
36.356773 18.698341 23.499538
37.146477 19.159456 19.444872
36.395733 19.65478 22.709179
36.7812 19.752325 20.150097
36.818462 20.165548 20.706432
36.646244 20.244127 21.49712
36.525757 19.995783 22.375343
37.187214 -1.5245191 21.767338
37.8419 -1.9007764 23.921274
37.940533 -1.9847641 24.67909
38.03945 -1.8493629 25.326662
[...]
POINT_DATA 8545
SCALARS features_00 float 1
LOOKUP_TABLE default
0.4905342 0.46845102 0.5895859 0.61804336 0.57344276 0.5436043 0.5138931 0.6602348 0.7017057 0.705492 0.6351093 0.5639804 0.5233528 0.6605917 0.6971872 0.69844687 0.6439651 0.58295023 0.6113781 0.6122951 0.5613048 0.22665489 0.3027496 0.39713544 0.37815446 0.38190818 0.39991093 0.40008706 0.28402388 0.4264168 0.4723857 0.45540762 0.45068994 0.55533576 0.48141658 0.47478807 0.5887814 0.51952374 0.49042755 0.5090819 0.50765836 0.5083209 0.5001468 0.48578382 0.45463613 0.12092481 0.33699578 0.12529504 0.23243117 0.16477391 0.26165846 0.42748737 0.4132387 0.32655442 0.3349494 0.3197652 0.38396886 0.4556194 0.41135743 0.32321545 0.42427754 0.4921625 0.43173242 0.4686034 0.46374086 0.3548942 0.48502392 0.47373268 0.3641613 0.38158745 0.4295999 0.34460437 0.4097073 0.41530928 0.44401893 0.3267419 0.33924967 0.19661017 0.26573163 0.28646287 0.7335713 0.701758 0.68748903 0.6521902 0.607756 0.3078767 0.31682694 0.20990366 0.23672807 0.2572417 0.23310044 0.27597165 0.10836349 0.12810728 0.12952667 0.18082409 0.14557305 0.15386263 0.3274436 0.28837538 0.1691804 0.20340858 0.42633575 0.17478386 0.47890997 0.3788372 0.4747479 0.46527255 0.44997507 0.4231637 0.30928314 0.44841152 0.43822443 0.10770119 0.18312162 0.25242803 0.39251342 0.40464428 0.18389261 0.09392589 0.1732389 0.23311883 0.3043146 0.34760243 0.16844901 0.8113805 0.7782967 0.6922618 0.79074866 0.79976225 0.76825094 0.6613702 0.544122 0.7309572 0.7205626 0.5787356 0.40612406 0.59079057 0.62049425 0.5678488 0.48328042 0.449754 0.42535454 0.29837787 0.28609294 0.2819686 0.28911462 0.30314994 0.30116522 0.32363117 0.4161473 0.4273216 0.41322607 0.38016862 0.3691763 0.3909707 0.41084358 0.407363 0.35771435 0.2936474 0.38793993 0.37832534 0.3531403 0.34675914 0.3193378 0.333245 0.29916126 0.2600047 0.37183106 0.37009352 0.34487635 0.21857405 0.21834958 0.19468263 0.3379204 0.32931948 0.12627625 0.21768835 -0.062936574 -0.028742174 0.3981319 0.00039647147 0.09383695 0.46720374 0.267561 0.2530211 0.41941494 0.3716874 0.38667247 0.30746695 0.16441439 0.09019611 0.024958193 -0.07984099 0.39234507 -0.08908178 0.24776445 0.27449423 0.17436154 0.18862915 0.21424268 0.16964774 0.16105795 0.3632395 0.32844448 0.28056252 0.22771303 0.3759664 0.33809808 0.7379445 0.75889754 0.7420147 0.60809636 0.43803108 0.3832491 0.37129256 0.7492844 0.45086357 0.32099396 0.3576129 0.6912247 0.25968543 0.2849006 0.5416235 0.25914705 0.23030216 0.19675483 0.36812395 0.3855058 0.30052504 0.27277887 0.24037603 0.21991758 0.22045848 0.17571738 0.2990647 0.28795415 0.28331548 0.248642 0.20244071 0.28328612 0.30510002 0.31651202 0.3158508 0.3292699 0.31249782 0.28736296 0.32995534 0.33711818 0.37296647 0.37168044 0.33894598 0.38815218 0.3789942 0.39956307 0.4208732 0.42382365 0.36818853 0.28619736 0.34393808 0.32256505 0.37167 0.39373106 0.40886527 0.41451162 0.4116249 0.39036933 0.37760317 0.33491397 0.28446898 0.30219612 0.2956468 0.41052353 0.41932538 0.37668282 0.39448607 0.39006257 0.22474828 0.19709715 0.14605725 0.3198345 0.36558634 0.3719448 0.1848675 0.4965126 -0.06327899 0.46378142 0.5325719 0.63040304 0.52664757 -0.1127433 -0.05831773 0.44549936 0.5650446 0.6021073 0.6325489 0.66669846 0.6549841 0.60129607 0.16729559 -0.15979695 -0.029400393 0.33122534 0.586125 0.6268292 0.6485257 0.65310985 0.5981618 0.10438355 0.33149368 0.58277047 0.62684107 0.65049946 0.35425082 0.030509397 0.19568238 0.4405341 0.18447664 0.33278906 0.13946332 0.2407558 0.06862589 -0.017112043 0.24455012 -0.046593368 0.17855345 0.100832395 0.30452913 0.16474108 0.3792568 0.26542252 0.40716982 0.4089654 0.40820822 0.33589655 0.6473623 0.38747633 0.42236245 0.43041778 0.62020946 0.63439095 0.5937487 0.5283381 0.39058664 0.41207504 0.39781755 0.59434164 0.35106593 0.35237163 0.32159078 0.5713475 0.28687263 0.47364682 0.2336146 0.3315667 0.3193349 0.1485332 0.19772854 0.25500524 0.20026168 0.12340681 0.24438289 0.37617862 0.3828001 0.36416322 0.11236269 0.29904413 0.31696916 0.31174988 0.38952973 0.36828125 0.36537847 0.39966625 0.33573157 0.21643043 0.15362997 0.3919587 0.32663843 0.41844395 0.4196127 0.16998243 0.3305165 0.40347198 0.33168107 0.26134127 0.39491427 0.41459936 0.17862323 -0.03650456 0.08416931 0.22048658 0.34787512 0.33824646 0.36227092 0.13686138 0.28081754 0.30902115 0.1584155 0.18483016 0.17554009 0.10513187 0.17656064 0.3506865 0.450845 0.5037482 0.46172398 -0.15420753 0.038859747 0.17880976 0.42274746 0.49220508 0.54881334 0.55078596 0.6447819 0.56616855 -0.13467361 -0.009330019 -0.023342289 -0.12292519 0.22724321 0.59599185 0.6123655 0.6800809 0.6699839 -0.17449579 0.0060052723 0.043913007 0.060797848 0.02964487 0.6417239 0.6806221 0.64985764 0.5866468 0.42138085 0.29392406 0.07054795 0.63503295 0.5960089 0.4941535 0.11219013 0.11035862 0.122158855 0.1803934 0.6158199 0.08064017 0.12572567 0.15264888 0.19637357 0.35361284 -0.07240532 -0.015584193 -0.020855177 -0.009239428 0.11654211 0.21623531 0.36597237 0.39204663 0.5840919 -0.053215798 0.024076778 -0.026150873 -0.022895806 0.24337716 0.3466506 0.5371473 0.67622316 0.6640891 0.36713475 0.3231421 0.07696193 0.06007815 0.046952114 0.5593498 0.6375817 0.70767605 0.69783103 0.6512438 0.7315681 0.45835572 0.43463477 0.39903417 0.09178355 0.42031655 0.38027632 0.371517 0.8033589 0.81119037 0.83818126 0.85625446 0.5016187 0.33046025 0.41476837 0.42689794 0.41854995 0.5069307 0.46618855 0.4026259 0.38823688 0.40356433 0.42858058 0.3524126 0.35956734 0.4604485 0.32649073 0.34112024 0.24013838 0.21424074 0.12913445 0.20040423 0.042831615 0.11474944 0.09680552 -0.00027016923 0.19187056 0.32206905 0.35190892 0.36241734 -0.33878475 0.25799286 0.24678198 0.37688997 0.35872194 0.32245988 0.18165825 0.103672005 0.057137925 0.30303347 0.23040415 0.39572963 0.3922946 0.114251524 0.09816546 0.19880217 0.13198449 0.37668952 0.17711937 0.32743135 0.33943838 -0.07534093 0.11924462 0.07197371 0.1985161 0.424489 0.46831876 0.49860722 0.36808085 -0.18459934 -0.25325793 -0.08824544 0.51218605 0.5173106 0.66582155 -0.17536308 -0.054591462 0.56720644 0.7011448 0.6031128 0.6785985 0.5685411 0.6243806 0.5742727 0.41455138 0.34168422 -0.095604494 0.27798197 0.4669968 -0.13581052 0.33013424 0.20791835 0.02239772 -0.0087616 0.060081735 0.4729475 -0.08019598 -0.043613274 -0.030494716 0.016365826 0.28310725 0.6187316 0.6249131 0.23401242 0.03155212 0.012561212 0.38126254 0.46753466 0.68204856 0.65082103 0.40837342 0.4432383 0.5764054 0.6725348 0.7289181 0.7137923 0.4557035 0.056102112 0.02540749 0.42798597 0.3565064 0.26707393 0.23487991 0.5798657 0.6114676 0.63872844 0.7079616 0.73333645 0.63978434 0.7586808 0.76832163 0.7969121 0.7629785 0.8234112 0.85369813 0.8861011 0.84517837 0.88485026 0.9182197 0.9090886 0.32932842 0.27750677 0.35789573 0.21373421 0.39319962 0.41713881 0.2184255 0.3949052 0.4285056 0.13246499 0.34140182 0.41088724 0.2403134 0.28696114 0.29779783 0.26021087 0.25989723 0.2287605 0.32817414 0.25603983 0.05239225 -0.03852679 0.06656752 0.009703537 -0.11033696 0.07754319 0.26419592 0.3056622 -0.24081036 -0.3219629 0.17139879 0.30504212 0.28290445 0.18331663 -0.12766919 -0.59042835 0.14599879 0.13723138 0.29667267 0.12003785 0.1464715 0.3217696 0.17639574 0.35976678 0.2422688 0.44674265 0.47297817 0.34664115 -0.30135077 0.47121763 0.47206378 0.5821331 0.45113793 0.6757076 0.52656484 0.62815124 0.61953664 0.4417947 0.56027615 0.3564934 -0.00948979 0.12842393 0.3378889 0.3038754 0.36998427 0.37464622 0.34770206 0.32041085 -0.067287944 0.5158675 0.37073642 0.3795124 0.35564744 0.33092442 0.2847099 -0.018089242 -0.0403369 -0.037849445 0.04275146 0.17139764 0.6543319 0.6078762 0.36013746 0.5162945 0.6192929 0.64933467 0.39377737 0.37775433 0.5766446 0.5942958 0.5973379 -0.083247185 -0.089644164 0.488529 0.4412667 0.26686537 0.5964005 0.5582332 0.5633289 0.5653984 0.7327148 0.7374342 0.673006 0.8109152 0.84620243 0.8008299 0.8518895 0.91150033 0.94566905 0.89888716 0.84774196 0.3260491 0.42370927 0.37007052 0.32431915 0.2526924 0.19310732 0.31313252 0.3912448 -0.14315817 0.038826883 0.42746717 0.4649169 0.10918052 -0.20840321 0.48975638 0.103401154 0.020137504 0.4609127 0.15189241 0.18027338 0.39133394 0.26942083 0.1397533 0.27505586 0.32715443 -0.113772124 0.2756661 -0.113089666 0.10025676 0.3147146 0.12288459 0.29958498 0.058098823 -0.043938383 0.27519247 0.27934608 0.22395156 0.15963912 0.17726952 0.377271 0.34163365 0.3831522 0.40991384 0.62143654 0.5177487 0.38268554 0.61058044 0.40168923 0.59452575 0.5529691 0.8485242 0.8399666 0.50528693 0.5071894 0.40445584 -0.041976504 0.8605855 0.23172948 0.30090338 0.3256083 0.22002356 -0.005413428 0.29358822 0.34460914 0.31472558 0.3726925 0.3358121 0.25009555 0.12225593 -0.016366199 0.23287265 -0.12928739 -0.18001236 -0.2602573 0.5681096 0.24964261 0.34142154 0.33385438 0.16463982 -0.14574088 -0.055488408 0.3908951 0.5696936 0.58596855 0.23986915 -0.06596093 -0.030564118 0.4682281 0.4607603 -0.12386719 0.3514118 0.1760287 0.5023826 0.5034549 0.6536021 0.63744307 0.7574395 0.7562854 0.78229016 0.8729546 0.8914099 0.8685237 0.83390695 0.3139672 0.4029385 0.4118085 0.43189287 0.43016386 0.38818377 0.21397536 0.39110315 0.34346318 0.32275754 0.27920938 0.14283596 0.28181207 0.37539595 0.013573237 -0.15839258 -0.04272557 0.36907876 0.4888224 0.509331 -0.009323925 0.4962779 0.4840697 0.43012762 0.40333554 0.0852415 0.42193788 0.44972962 0.46138626 0.43245956 0.33344263 0.25644124 0.23408538 0.43623015 0.4225618 0.28532994 0.23555635 0.21697265 -0.10540457 0.25055492 0.21798992 0.18245946 0.025631782 0.14093614 0.31319076 0.3632037 -0.19775757 -0.17329781 0.36627808 0.37979114 2.2053719e-05 0.3338524 0.3601123 -0.0009035617 0.31037316 0.51030016 0.51062214 0.5115155 0.5078846 0.21593994 0.5766741 0.56567585 0.540101 0.50283885 0.24363294 0.58364 0.5780997 0.5738175 0.5201598 0.22295943 0.6143653 0.645369 0.64971966 0.5797366 0.5274716 0.43141612 0.2549082 0.6513883 0.67235845 0.66259724 0.20496145 0.6985307 0.7171915 0.75846565 0.7378855 0.5231294 0.7747501 0.8335681 0.86081016 0.81063604 0.7678508 0.4404149 0.0025664717 0.8753887 0.87967604 0.85683036 0.82396996 0.22351201 0.10693636 0.18238531 0.8825628 0.86073124 0.24040253 0.22480452 0.20550315 0.19938518 0.16545999 0.21829262 -0.054930188 0.25929022 0.15106721 0.19249645 0.26596653 0.0127096325 0.28663507 0.21857217 0.18731423 0.128281 -0.038710333 -0.020233728 -0.15629601 -0.07752827 0.17441662 0.36838412 0.18902962 0.19575386 0.3301621 0.24216872 -0.19517422 -0.07655453 -0.023796953 -0.014179084 -0.023558121 0.00660339 -0.040145803 0.28591004 0.39283818 -0.16964233 -0.030777931 0.46203792 0.43608594 0.38641614 0.10682857 0.380836 0.30452213 0.5853089 0.61330336 0.63144326 0.6140751 0.7411667 0.721501 0.79391533 0.81416404 0.79507816 0.6750156 0.6924438 0.61665154 0.40707612 0.43374363 0.4545542 0.48074 0.30296788 0.3759934 0.4190156 0.45343158 0.45695168 0.44175702 -0.06833576 0.045286514 0.37201518 0.19170049 0.1787659 0.118855596 -0.047455028 0.24700955 0.18531916 0.15459567 0.12139936 0.04806727 0.29432288 0.3846627 0.49139768 0.10709028 0.10157298 0.08096245 0.025015777 -0.053951465 0.5002707 0.4292984 0.43023938 0.39382666 0.31212234 0.03543251 0.0060927467 -0.116848454 0.48713347 0.49927646 0.41435218 0.4518267 0.44048017 0.37317288 0.28017017 0.040344603 -0.038505085 -0.047251716 0.43800145 0.40826315 0.46482044 0.23236728 0.17947371 0.17929417 0.41600487 0.43938667 0.16207933 0.18465257 -0.09428111 0.40549666 0.37044227 0.31775552 0.07145048 -0.23894237 0.24971974 0.38488394 0.16147822 -0.2333928 0.40387934 0.41634703 0.31991234 0.28460604 0.27594942 -0.05558794 0.028399222 0.3874553 0.44094035 0.38308528 0.3829469 0.37465823 0.00776238 0.257462 0.48997706 0.49913383 0.45941937 0.32511476 -0.0714711 0.108222574 0.5451559 0.5523542 -0.14335337 0.02390825 0.49536437 0.4535321 0.44893995 0.42946193 -0.2694789 0.07692046 0.14882022 0.5384056 0.55374295 0.43833053 0.35867587 0.40803242 0.142441 0.5564018 0.54017687 0.14753364 0.6596835 0.67915386 0.06958665 0.26381058 0.25500512 0.2595447 0.72997546 0.09287478 -0.027818166 0.22422719 0.22205396 0.23273034 0.29550695 0.766379 0.82182056 0.83564067 0.8037828 0.18385907 0.3078823 0.50170195 0.5443461 0.8361145 0.87194866 0.8412153 0.27259296 0.26292154 0.24960268 0.50797665 0.61658144 0.6535199 0.35404044 0.2982638 0.23611061 0.5149705 0.6461929 0.68195975 0.3040571 0.24026036 0.14939784 -0.33935446 -0.47225523 -0.10885221 0.04372847 0.6170135 0.13138264 0.13664395 0.17019619 -0.32847065 -0.39582503 -0.18915482 -0.21797675 0.16384181 0.1886907 0.13609558 -0.21759635 -0.07024461 -0.08172926 0.24083877 -0.103769004 -0.19549015 -0.16957529 -0.109159395 -0.0025063064 0.019834246 0.033324096 0.10640778 0.11363681 -0.03884679 0.42946827 0.4439612 0.39510995 0.19881767 -0.039170563 0.037281312 0.051178463 0.07920045 0.4025511 0.42132208 0.43802536 0.28934968 0.18670286 0.12993714 0.47375536 0.36977565 0.56773984 0.57385635 0.5707556 0.60681444 0.6731067 0.6464163 0.7187643 0.7486875 0.71199405 0.6102763 0.6625831 0.7245582 0.69848025 0.517533 0.6112858 0.63414365 0.4968709 0.3035559 0.44383338 0.44951373 0.3966998 0.43221146 0.48970228 0.0048666894 -0.12246658 0.17821376 0.48000538 0.43006754 0.08808122 0.10071901 0.08699751 0.047588624 0.37429094 0.132049 0.18057054 0.27221012 0.21195868 0.07833443 0.1627186 0.1627445 0.20193997 0.30521333 0.0735338 0.12507361 0.2055002 0.36295563 0.2806962 0.3458008 0.36279494 0.22827852 0.014767341 0.3249545 0.4021774 0.36381498 0.37419108 0.36097097 0.26695496 0.2612977 0.18489589 0.27114132 0.31485727 0.33716625 0.39701453 -0.07821235 0.22256488 0.439017 0.2554774 0.17104928 0.15634888 0.39590824 0.39883775 0.36297655 0.265969 0.33510536 0.15691558 0.3367163 0.3008652 -0.06318936 0.42154026 0.38430956 0.037428446 0.4500817 0.47166342 0.05172337 0.28992072 0.34663993 0.0010427013 0.48991448 0.11465348 0.029572234 0.24887648 0.31896818 0.3066912 0.5114512 0.2642721 0.20651847 0.006885151 0.30213353 0.29495835 0.27444455 0.62229705 0.4389315 0.09080621 -0.013043003 0.26405334 0.350606 0.47297534 0.5491591 0.6702113 0.7292892 0.7028652 0.5682871 0.14632066 0.22368142 0.52691066 0.6308973 0.70810086 0.78327525 0.79732716 0.29509044 0.6762871 0.66635525 0.4987598 0.40559107 0.6877101 0.55148697 0.48948008 0.40847927 -0.45256597 -0.19000247 -0.0822973 0.07535376 0.2976828 0.5918323 0.6640402 0.5383918 0.43216175 0.23407277 0.041326545 -0.35945836 -0.3011046 -0.2096321 0.026735935 0.3324391 0.4518342 0.090591535 -0.11540817 -0.16308567 0.068312734 0.12272558 0.03820026 0.29808885 -0.043653443 -0.09828968 -0.02099048 0.35314265 0.36341694 -0.13020714 0.21429688 0.098652065 0.16420458 0.03228875 0.2782942 0.26872396 0.22980659 0.31123367 0.3333084 0.37377217 0.39387864 0.45897692 0.41137803 0.48214895 0.44544488 0.5168079 0.504705 0.4705475 0.64785254 0.68890214 0.6797874 0.47454876 0.613508 0.7001648 0.7200221 0.60234344 0.38939282 0.49555206 0.50300336 0.5318514 0.4399917 0.5052757 0.16346887 0.13650014 -0.13746536 -0.21322855 0.2397447 0.46878272 -0.07188432 0.49786872 0.51810366 -0.0043522716 0.0021837945 0.019373842 0.4444577 0.1590979 0.10628714 0.22126557 0.12996258 -0.04462763 0.10624574 0.35867846 0.3378797 0.29468608 0.25092778 0.2154069 0.30125087 0.32177782 0.15032513 0.24747215 0.2608682 0.07410652 0.13673393 -0.024951678 0.107901536 -0.20946062 0.04775509 0.2025246 0.25144142 0.27385604 0.23753212 0.02630905 0.13603932 0.2947917 0.37333816 0.18816182 0.21949832 0.40897533 0.07896794 0.34419465 0.18497248 0.2796309 0.2545309 0.09026542 0.17105639 0.099670246 0.19507253 0.30814904 0.25789052 0.16987431 -0.042528298 0.34335518 0.39011055 -0.1948958 -0.16371077 0.40351987 -0.25974107 -0.12694961 -0.21122912 -0.22060935 -0.2935015 -0.3674296 0.20234492 0.28846678 0.27876085 0.2655022 0.46530235 0.0011415165 0.272187 0.2653485 0.39521757 0.5770496 -0.26653796 0.037020024 0.36095977 0.51374316 0.5797548 0.6220045 0.64816636 0.62366486 0.6199932 0.63511246 0.63700366 0.5805832 0.6325543 0.50018775 0.6554479 0.6186155 0.572291 0.59992206 0.64194906 0.6088331 0.56876135 0.45904255 0.19645794 0.102575846 0.19903311 0.33269703 0.5164214 0.6202289 -0.013563145 -0.17477629 -0.22495264 -0.13433106 0.3320872 -0.04586958 0.009592559 -0.13301408 -0.15748623 -0.15070924 -0.087710366 -0.10654524 0.23927823 -0.12708905 0.15968582 0.02986911 0.100582525 0.10869144 0.3304952 0.103437416 -0.019046985 -0.085614905 -0.3228678 0.008554757 0.23106216 0.21844417 0.0839162 0.40586537 0.38676077 0.35394192 0.27944893 0.27401736 0.26320142 0.34764078 0.33704925 0.4299633 0.42470622 0.40296423 0.28847054 0.5025319 0.48413575 0.44780245 0.4195615 0.4163499 0.5039717 0.48857534 0.4529407 0.43859896 0.47867733 0.6448723 0.4533453 0.38893092 0.47083715 0.3420937 0.26618868 0.1805335 0.059332065 0.23509401 -0.055455133 -0.14521879 0.0388152 -0.2589129 -0.040690094 0.17098802 0.14506662 0.11169976 0.45916796 0.1186402 0.19098571 0.14039373 0.10221593 -0.036107242 0.10352157 0.16870266 0.35978383 0.30823806 0.19699252 -0.087612554 0.31918743 0.3609172 -0.122991875 0.29083624 0.32339895 -0.19839795 0.24855196 0.023591746 0.20876265 0.20206219 0.14409307 0.29579192 0.27924183 0.21697333 -0.31988037 0.11646822 0.2677177 0.33119923 0.30406073 0.32769725 0.22621688 0.35382542 0.3645031 0.2526072 0.30877858 0.19882707 0.23518059 0.11635918 0.077670015 0.29739574 0.24405295 -0.42375115 -0.36185485 0.34615228 0.32114995 -0.44952556 0.29586434 -0.3635942 0.32639802 -0.32811314 -0.38761735 0.05787188 0.217241 0.40479472 -0.51669186 -0.27416497 0.5351404 0.10265099 0.5139632 0.55811155 0.5782591 0.4706395 0.5875311 0.59791183 0.59492254 0.5684016 0.5174942 0.31522357 0.5798599 0.44360107 0.57140875 0.54733443 0.5849562 0.6039789 0.5790005 0.59507567 0.5556717 0.55427134 0.6049423 0.37621745 -0.09354386 -0.065792546 -0.1226446 0.17796636 0.32690746 0.5036684 -0.093404986 -0.0537217 -0.22337484 -0.17674392 0.02705966 0.032999992 0.0099490285 -0.16657135 0.01996179 0.036902983 0.1332114 0.25541526 0.3395884 -0.15335086 -0.4011807 -0.41981736 -0.20391992 0.114001974 0.17955871 0.34296837 0.41347206 0.43378967 0.4242529 -0.03252637 -0.24131578 0.17677315 0.1946654 0.35659742 0.50295967 0.5189531 0.44896543 0.44456738 0.4382896 0.19441754 0.015001001 0.0038882345 0.2582305 0.30208868 0.34696382 0.5115408 0.5495745 0.57999206 0.4480945 0.4228852 0.37378767 0.32213375 0.23211694 0.25322905 0.4844091 0.51227427 0.3991146 0.3448652 0.45559782 0.3443284 0.18260688 0.32057664 0.43497694 0.42450547 0.37864476 0.5386969 0.5019809 0.46301514 0.41714835 0.4025846 0.5240706 0.5284559 0.45020255 0.39520052 0.48133382 0.5470083 0.5036691 0.39848202 0.44311875 0.45765093 0.49726164 0.5039016 0.52417773 0.56645125 0.5720035 0.58022106 0.60328877 0.60686684 0.6178786 0.3250811 0.16353768 0.1706973 0.04114188 -0.024045836 -0.05463251 -0.010020174 0.022831187 -0.0027402788 0.4582989 -0.008913343 -0.013918426 -0.05274582 0.19416477 0.39713416 0.61060584 0.685928 0.019416511 -0.0018752217 -0.02701863 0.18988042 0.6584163 0.67055035 0.093692034 0.15370639 0.10934928 -0.044786498 0.42009038 0.51530635 0.04187937 0.02437013 0.11041695 0.123455524 0.2137507 0.20887668 -0.110295735 -0.080496356 0.31432185 -0.0673644 0.26160437 -0.09266159 -0.01986584 0.20398416 0.17003332 0.19465344 -0.31740922 0.24326745 -0.49474663 0.2907644 -0.41391447 -0.24125119 0.05865895 0.28018484 0.29813153 0.31268162 0.2978019 0.31310833 0.3065157 0.31973135 0.13077796 0.3085513 -0.24462005 0.16689909 0.11316682 -0.01257734 0.2905601 -0.3007589 -0.113909334 0.28829154 -0.5637528 0.25781882 0.26866937 0.26557386 0.30506954 0.18543752 -0.49795675 -0.41291088 0.19444704 0.23440686 0.37151664 -0.5750334 -0.4863472 -0.17209071 -0.002508305 0.38882878 0.5325346 0.5407751 0.5306282 0.48439878 0.42583662 0.023955364 0.5316721 0.546973 0.554325 0.5518222 0.14077118 0.49371254 0.5333339 0.40740368 0.47478497 0.5156448 0.4851117 0.524874 0.5343343 0.53164196 0.4677829 0.25894994 0.54635155 0.41722685 -0.01444903 0.023348734 0.30189845 0.0536