# vtk DataFile Version 2.0
Really cool data
ASCII
DATASET POLYDATA
POINTS 6209 float
116.4545 20.00448 105.01377
116.42827 20.449764 104.12395
116.38405 20.562286 104.50646
116.41134 20.583471 105.168274
116.35943 21.08293 104.576
116.43177 21.1412 105.01431
117.26505 13.635072 110.7642
117.24887 13.612505 111.4221
117.38652 13.691932 111.9297
117.16528 14.8335085 109.809395
117.01813 14.508627 110.53808
117.014465 14.489348 111.58078
117.131645 15.086249 112.36077
117.32997 15.486017 109.240425
116.988914 15.599329 109.86226
116.784775 15.588794 110.59731
116.67067 15.597377 111.63888
116.90411 15.597863 112.30154
117.159035 15.559105 112.66556
117.15407 16.361568 109.59789
116.70828 16.216438 111.0215
116.72375 16.294443 111.66604
116.89484 16.310272 112.308105
117.15351 16.96953 110.82921
117.206795 17.194672 111.55625
117.0917 16.902721 112.13258
117.12008 19.324656 104.16606
117.163864 19.197508 104.67023
116.91675 19.771706 103.97335
116.7503 19.755453 104.459785
116.675064 19.784828 105.29695
117.02632 19.899893 106.14666
117.067314 20.700766 103.31189
116.6802 20.596437 103.770294
116.48456 20.25478 104.225815
116.52579 20.448112 105.45062
116.87234 20.4676 106.25996
116.57589 21.254827 103.8586
116.546005 21.577559 104.49899
116.538734 21.164753 105.46008
117.02695 21.365803 106.256905
117.34893 21.485989 106.74688
116.91084 22.05576 103.975586
116.82696 22.078209 104.59201
117.02208 22.184525 105.40863
117.17108 22.085125 105.9778
117.3338 23.127424 104.189316
117.27875 23.110176 104.63112
117.27277 23.13333 105.167755
118.44251 7.134956 97.48223
118.38556 7.750829 96.85621
118.356125 7.470249 97.50498
118.373344 7.573509 98.12461
118.32123 8.437478 97.498146
118.40924 8.679904 97.99139
118.406845 8.970353 97.53311
118.135864 13.173041 109.96387
117.74926 13.049773 110.78853
117.72297 13.031433 111.4545
117.811714 13.111623 111.9231
117.86643 13.8838 109.63978
117.4971 13.300207 110.56419
117.43977 13.346383 111.65148
117.612495 13.528524 112.09919
118.04791 13.973152 112.619286
117.91138 14.496866 109.09334
117.57545 14.423104 109.5129
117.39354 14.258924 112.3409
117.79189 14.908492 112.664116
117.74224 15.811958 108.67726
117.51667 15.663895 112.8545
117.95591 16.650183 108.17214
117.72374 16.405865 108.436195
117.61899 16.371822 112.822395
118.03501 17.724096 107.7761
117.66724 17.491716 108.35947
117.62992 17.64568 110.05688
117.5646 17.503704 111.61263
117.38729 16.960955 112.37737
117.71975 19.17241 103.86116
117.58358 18.964048 104.588905
117.750374 18.884413 105.01078
118.00322 18.449762 108.0216
117.862755 18.52277 108.56992
117.67559 18.149937 109.181015
117.52321 19.597694 103.60342
117.43004 19.563175 106.356026
117.89268 19.474966 108.80031
117.82752 19.554737 109.58063
118.104675 19.857904 110.40768
117.65817 20.671104 103.08063
117.76394 20.496954 107.48663
117.922844 20.417599 108.808235
118.07707 20.615873 110.270515
118.40859 20.615381 111.63262
117.850555 21.26525 103.17458
117.4459 21.670475 106.53512
118.20959 21.194626 108.64525
118.43493 21.487293 110.8339
118.2756 21.84687 111.41803
118.34532 22.923512 97.77607
118.330765 23.028807 98.32371
117.968925 22.031492 103.3554
117.43445 22.387209 103.6994
117.81928 22.391382 106.63848
117.89451 21.864815 107.03103
118.39332 22.553364 111.42609
118.41742 22.3429 112.277214
118.28518 23.762318 96.88906
118.165474 23.597507 97.44645
118.14597 23.702648 98.310936
118.44342 23.562954 99.18237
117.706795 23.288496 104.0274
117.543915 23.507154 104.63904
117.69945 23.557562 105.41612
117.91839 23.190365 106.115654
118.292564 24.597393 96.9464
118.092926 24.422876 97.59674
118.132095 24.520958 98.294624
118.36478 24.150488 98.85713
118.16007 23.673042 103.99371
117.86209 23.915749 104.689384
117.875336 23.836145 105.281845
118.36099 24.970322 97.12233
118.26857 25.079607 97.72685
118.29376 25.123875 98.24319
119.27954 4.1437006 102.469826
119.380775 4.592523 100.56701
118.85362 4.7746234 101.57066
118.915115 4.8300285 102.46965
119.179245 4.8276505 103.07832
119.278 6.0604067 96.90494
119.31598 5.886578 98.81389
119.214096 5.9580746 99.8505
118.79813 5.210689 101.12295
118.644936 5.4974184 101.5269
118.70836 5.4749794 102.424416
119.08418 5.5286884 103.30342
119.1788 7.0529847 95.117836
119.04121 6.718658 95.76784
118.81254 6.872506 96.367805
118.63944 6.830552 97.40921
118.76302 6.4960866 98.01093
119.034195 6.725862 99.485596
118.94832 6.8435817 100.74369
118.71335 6.3581934 101.56391
118.75324 6.245544 102.40358
119.12104 6.206315 103.33199
119.085236 7.402658 95.14548
118.79482 7.4600782 95.719086
118.538765 7.614453 96.508766
118.47537 7.676114 98.398605
119.08236 7.8053403 99.6038
118.968216 7.4276705 101.64853
119.00964 7.088769 102.43725
119.3035 7.230938 103.0595
118.96972 8.2106285 95.59295
118.58801 8.456971 96.461586
118.52367 8.822699 98.326225
118.79418 8.689677 99.01834
119.207146 8.217671 100.36455
119.25114 8.237637 101.577225
119.20854 9.495294 96.17936
118.75224 9.261352 96.71863
118.67894 9.406008 97.60514
118.76797 9.339266 98.18044
119.210526 9.090721 99.5607
119.24835 10.3120985 96.484245
118.953995 9.763612 97.27267
119.11893 9.890103 97.97075
118.48156 13.028342 109.91578
118.50409 12.678061 110.69874
118.60136 12.683937 111.46673
118.462776 13.04044 112.15587
118.550575 13.716642 109.2645
118.24898 13.533598 109.61592
118.61629 13.375264 112.49394
118.83242 13.581062 112.66994
118.94622 14.96914 108.4129
118.53339 14.866895 108.66941
118.557236 14.243754 112.73826
118.838875 15.674908 108.13731
118.429886 15.394337 108.48675
118.94327 15.81212 112.986916
118.83963 17.03272 107.43156
118.69221 16.575813 107.72639
118.50241 16.385386 112.923225
118.46145 17.866034 107.16938
118.36257 17.33551 107.52006
118.07894 16.984453 112.69124
118.48543 19.064356 103.87909
118.165764 18.726053 104.54872
119.12528 18.801968 106.22017
118.46011 18.68032 111.615486
118.978226 18.982916 111.879745
118.68955 19.814413 103.25115
119.087326 19.41536 112.19465
119.198715 19.9839 112.93154
119.310684 21.135736 97.56238
119.24755 21.263887 99.39027
118.4891 20.064098 111.303925
118.72066 20.556402 112.61305
119.28859 21.807545 96.187325
119.20333 21.738695 96.608154
118.86082 21.777813 97.66384
118.98591 21.629606 98.0204
119.070816 21.76742 99.3987
119.424225 21.525532 101.6177
118.53237 21.615122 108.54076
118.64836 21.733269 109.6974
118.473854 21.994095 112.58391
118.97378 21.562693 113.12583
119.13945 22.745983 96.226494
118.71806 22.662756 96.75179
118.477005 22.639612 97.38484
118.54981 22.662582 98.58905
118.67519 22.41542 99.21549
119.114914 22.605581 100.78211
118.87 21.900557 102.81006
118.708725 22.330263 107.6701
118.87138 22.102657 108.406334
118.61477 22.325394 110.40742
118.515594 22.714243 111.38239
118.537155 22.6071 112.60514
118.87781 22.511879 113.09352
118.52452 23.473478 96.594025
118.49436 23.144789 98.51061
118.62878 23.362991 99.50108
118.931435 23.419333 100.24831
119.243416 23.460772 100.822975
118.90944 23.273474 103.51291
118.70019 22.858809 107.066635
118.967026 23.244537 110.81032
118.6434 23.161232 111.77477
118.80416 23.248928 112.29338
119.01895 23.030394 113.034096
118.969315 24.520746 96.16805
118.543686 24.44772 96.536
118.44087 24.768589 99.08511
119.13969 23.948483 100.469505
118.41896 23.852251 104.042656
119.018005 23.707169 111.80078
119.14258 23.63506 112.17288
118.63393 25.261484 96.92077
118.51456 25.53309 97.56947
118.53165 25.432291 98.35214
118.949104 25.162056 99.23586
119.39114 25.465532 104.58897
119.12995 25.721615 105.59369
119.27754 25.563831 106.394844
119.1448 25.755056 97.15236
119.10577 26.278414 97.56331
118.93498 25.929943 98.266914
119.26593 26.224659 104.79335
119.225365 26.47005 105.38512
119.26567 26.420013 106.32955
119.36531 26.290815 106.81045
119.49606 27.065166 91.01379
119.36597 26.946869 105.767235
119.37603 26.87101 106.31358
120.22831 1.9874598 99.93217
120.22591 1.9195938 100.46756
120.20433 2.0982606 101.14369
120.12901 2.5944126 99.50846
119.874176 2.6342194 100.4316
120.01238 2.5857058 101.468475
120.049835 2.9231691 102.25031
120.138985 3.2260344 102.8136
119.717964 3.650004 99.876945
119.60705 3.2446957 100.38337
119.7743 3.5417979 102.54884
120.00782 3.843101 103.237114
119.992966 5.283016 97.77283
119.90679 4.762593 98.67486
119.53934 4.359781 99.66064
119.527985 4.728665 103.46521
119.86869 4.7971115 103.75768
119.85205 6.097876 95.50678
119.63774 5.9351015 96.59893
119.391365 5.2076497 103.56474
119.69703 5.5976396 103.94105
119.67662 6.8033156 94.91127
119.372765 6.349197 95.55575
119.4999 6.721393 103.54006
119.952805 6.3744144 103.99844
119.50878 7.5568304 94.82688
119.619804 7.25913 103.36918
119.75376 6.8818803 103.8269
119.50442 8.072016 94.824486
119.77022 8.424727 102.60976
119.90065 8.151133 103.0255
120.28604 10.175101 90.53524
120.26573 10.122929 91.2778
119.81908 9.11159 94.95199
119.45055 9.251434 99.36847
119.70923 9.6426525 100.44488
119.880714 9.330281 101.30922
119.99177 9.053418 102.0141
120.24678 10.744808 89.844185
119.95178 10.799823 90.55338
119.90794 10.786027 91.378334
120.28531 10.845963 92.698814
120.48778 10.903911 93.24041
120.20563 10.593444 94.47283
119.65314 10.512826 95.55686
119.57904 10.810374 96.71247
119.573524 9.982501 98.37601
119.78926 9.94685 99.61113
119.95298 10.017584 100.18385
120.26396 10.075489 100.86951
120.08813 11.503275 89.81029
119.8283 11.3626 90.59153
119.7982 11.478488 91.41992
119.93387 11.561124 92.03372
120.28363 11.474593 93.722496
119.63573 11.486279 95.50607
119.676155 11.695464 96.54919
119.86413 11.258159 97.29712
120.157234 12.487913 89.767555
119.89062 12.384668 90.539215
120.1226 12.502334 91.39588
119.95976 11.9637165 91.90494
120.18517 12.156756 94.979614
119.94855 12.257866 95.62202
119.88125 12.178904 96.53429
120.02863 12.09252 97.05964
119.3992 13.058946 109.64806
119.45799 12.683719 110.40629
119.44251 12.741134 111.43482
119.42884 13.075035 112.14874
120.237854 13.200905 89.82578
120.16047 13.321471 90.29771
120.293304 12.744962 95.42703
120.24938 12.699958 96.82313
[...]
POINT_DATA 6209
SCALARS features_00 float 1
LOOKUP_TABLE default
0.6477128 0.6726117 0.6592409 0.62732804 0.64275193 0.6183136 0.7275076 0.72676957 0.710642 0.5744 0.68085366 0.690009 0.6853421 0.47707546 0.5525939 0.6543989 0.7122479 0.7078754 0.69707805 0.48829925 0.6492077 0.68487954 0.7020907 0.53493094 0.5712685 0.65907896 0.68186593 0.669459 0.68941265 0.67545426 0.6439413 0.5865501 0.72185135 0.6921104 0.67387176 0.6163579 0.545081 0.67380536 0.63095534 0.5898107 0.4698943 0.3329333 0.62199086 0.5960599 0.5257015 0.45567465 0.5257927 0.5263276 0.5055642 0.45101422 0.49745244 0.46204463 0.41823673 0.44561732 0.4007263 0.39724666 0.70672274 0.77243435 0.7682015 0.7381218 0.59806865 0.74001586 0.7408183 0.71186364 0.6569805 0.48948827 0.5490146 0.67524165 0.6448368 0.40126523 0.68019474 0.36944482 0.38184893 0.6913552 0.3941512 0.39870626 0.32315254 0.47735405 0.65192825 0.66560245 0.64867824 0.61847013 0.34339386 0.2932404 0.28904158 0.7054397 0.5560683 0.12849912 0.13777977 0.18246424 0.745554 0.18701343 0.085823074 0.1869513 0.35280138 0.68136775 0.35525602 0.057043962 0.30014616 0.41740584 0.46992606 0.4597076 0.56199956 0.57055783 0.30157393 0.21879312 0.48430994 0.54802036 0.5364416 0.5344392 0.51624554 0.44861284 0.49921674 0.49510974 0.4477747 0.38483024 0.5089774 0.5440441 0.5439403 0.51081777 0.44123155 0.4247532 0.40891004 0.4756173 0.489511 0.5004146 0.5106367 0.2562866 0.47418344 0.55138814 0.54660857 0.41509315 0.21104716 0.20176753 0.3695539 0.4580909 0.5648973 0.57234234 0.5354749 0.53614765 0.51374173 0.43723795 0.35721815 0.25971332 0.30850917 0.43722308 0.53993094 0.55945575 0.52450156 0.5312172 0.51201665 0.39863235 0.29973182 0.3952885 0.48225045 0.47554815 0.49360257 0.48073068 0.36817437 0.32950792 0.27810532 0.35107046 0.34561977 0.3769806 0.33837608 0.31783193 0.28093728 0.26218113 0.2994759 0.25331444 0.7226394 0.84938 0.82594705 0.7205291 0.55007803 0.6221796 0.67933846 0.64887685 0.3475309 0.40186357 0.6131956 0.3118231 0.36718687 0.5493117 0.29746947 0.31381246 0.6274933 0.31085712 0.35281628 0.6068711 0.55285466 0.5582996 0.1337751 0.11186119 0.22735734 0.57263213 0.29833728 0.3425103 0.34858972 0.32482937 0.26732892 0.4144005 0.32589877 0.36070383 0.38389957 0.3643766 0.3410567 0.18216315 0.053244986 0.12047104 0.5534924 0.5252134 0.3892892 0.4389115 0.45034146 0.41426313 0.37680608 0.35124293 0.39030737 0.11632845 0.059355397 0.3084222 0.49388304 0.58303046 0.6013903 0.5036497 0.4560293 0.4175241 0.3901499 0.38000578 0.43813682 0.1936621 0.47643435 0.54992205 0.5857811 0.6122037 0.40250796 0.48507744 0.5102879 0.3924882 0.38433194 0.5639596 0.581549 0.42287484 0.43286145 0.46298343 0.44107437 0.36048687 0.4916826 0.5334782 0.37072435 0.36690247 0.4066158 0.5033012 0.55521685 0.58571583 0.58673334 0.7576879 0.5839113 0.5958986 0.54468447 0.56774235 0.56720746 0.46788922 0.51927286 0.5409823 0.50003415 0.49425125 0.33272445 0.43349501 0.48591626 0.5043285 0.19764012 0.14909236 0.2129029 0.53272045 0.52144367 0.49710003 0.41846764 0.55584 0.54601616 0.52242166 0.5285234 0.5122558 0.51403785 0.4973154 0.4545231 0.48364317 0.4600168 0.34821987 0.35366127 0.52830976 0.48402673 0.34184512 0.27084404 0.27682754 0.29546443 0.30293477 0.54621255 0.56405985 0.49572217 0.29320794 0.18834083 0.12345527 0.24038488 0.24533838 0.20449188 0.2296265 0.2608871 0.27075166 0.57119954 0.57915235 0.47312015 0.34646308 0.095119916 0.2313019 0.26224232 0.23663393 0.5628502 0.5793096 0.42964712 0.33566093 0.17058834 0.2234017 0.25556764 0.25629222 0.6340822 0.7801178 0.810746 0.67876244 0.5048033 0.4713366 0.18434314 0.23708247 0.6301601 0.62955725 0.38748747 0.55872905 0.34149724 0.2520833 0.48373783 0.36720097 0.2002874 0.26727068 0.08300419 0.3242802 0.3315304 0.18199608 0.28200585 0.26588082 0.36759472 0.3418065 0.3314993 0.32267255 0.2980192 0.31025612 0.26553625 0.50320137 0.3236597 0.14896744 0.26940927 0.33529484 0.45990074 0.32776052 0.14862557 0.3594441 0.110284865 0.6062329 0.26278484 0.35013315 0.511345 0.56789315 0.67443204 0.6251817 0.43308645 0.027016837 0.33769384 0.31060126 0.37677306 0.39004332 0.7740185 0.75412136 0.68304306 0.4920366 0.29869112 0.2472679 0.32091016 0.34113425 0.26584092 0.4503141 0.50276136 0.59046614 0.78467643 0.7858442 0.7236437 0.49717724 0.4093215 0.20339678 0.27184045 0.33923027 0.3327328 0.3263037 0.5515318 0.5848988 0.6092193 0.6099529 0.7435355 0.7317753 0.71710664 0.65770245 0.34032565 0.40608373 0.39976892 0.35977992 0.58076453 0.60639036 0.67956036 0.6857126 0.5156693 0.4892807 0.64336574 0.6292257 0.6354052 0.61970377 0.5990024 0.63359255 0.62085027 0.57368207 0.5681319 0.50785744 0.55553186 0.5797173 0.5758976 0.5444429 0.40883517 0.5181302 0.49505782 0.17677064 0.26930243 0.50018126 0.4938543 0.26424414 0.11140658 0.4990245 0.4323442 0.39288175 0.3669671 0.49446487 0.47708893 0.48583424 0.42315936 0.45377624 0.4071738 0.2556484 0.19828053 0.32484818 0.29786718 0.3394804 0.5053586 0.49075627 0.41544232 0.122353554 0.25674137 0.5008503 0.5292434 0.37040657 0.24345545 0.24918208 0.21694496 0.5343658 0.537321 0.16955206 0.19710338 0.540735 0.5428097 0.09453478 0.093936935 0.23503202 0.2204577 0.58114994 0.70186543 0.7338978 0.63282704 0.52025986 0.50142753 0.07430995 0.07238298 0.12502939 0.14351976 0.18487836 0.4312613 0.3835374 0.51933455 0.5493404 0.4592498 0.3494852 0.28412217 0.2817291 0.18938673 0.010878541 0.00635615 0.08496014 0.25536874 0.26762742 0.44688648 0.32215285 0.35487956 0.30511636 0.29291147 0.13468991 0.017230704 0.16711798 0.62056124 0.6446786 0.39815438 0.38869637 0.36513907 0.28202966 0.16748461 0.16093412 -0.12521517 0.57602596 0.6090338 0.3950324 0.34854898 0.26559973 0.03185302 0.21762764 0.091717765 0.074842565 0.24091408 0.191145 0.25171927 0.20613019 0.19735055 0.1983113 0.5806807 0.6784066 0.7103132 0.10739148 0.10111527 0.2304877 -0.112667635 0.1734229 0.617718 0.7011885 0.7243393 0.11953579 0.11588583 0.1067049 0.22157131 0.44611275 0.5685733 0.6689721 0.6937542 0.11811029 0.103741966 0.49904865 0.42551845 0.50384414 0.5586468 0.6564101 0.08490656 -0.036929958 -0.039004765 -0.07136822 -0.08445141 -0.18236327 0.40027434 0.4128182 0.039083824 -0.11418632 0.18145187 0.19488227 0.46905464 0.5722578 0.48560154 0.05906745 -0.09144941 -0.019581571 0.19032389 0.16783684 0.502308 0.68861127 0.25616094 0.24418679 0.41411912 0.580475 0.73291934 0.16078348 -0.026605442 0.20148955 0.326534 0.36180976 0.45084667 0.48994076 0.59710634 0.583323 0.66913855 0.6737282 0.6597452 0.49842036 0.42722908 0.4188214 0.42432517 0.43248925 0.49651444 0.54472864 0.5797763 0.59208715 0.60028434 0.6334599 0.6443716 0.65414697 0.59132993 0.55881476 0.5752634 0.48025626 0.49081427 0.5300808 0.60562813 0.631634 0.63562477 0.63567144 0.644124 0.6585481 0.6510335 0.6148028 0.64091253 0.6785782 0.66872704 0.6317972 0.6374183 0.6693131 0.63398695 0.6025338 0.6346511 0.640839 0.57221365 0.60961765 0.63151336 0.60177445 0.41677547 0.59556246 0.60476786 0.62408674 0.55014896 0.5587555 0.48532468 0.5358488 0.55230784 0.52803993 0.4810643 0.48182458 0.45635432 0.28537405 0.06446385 0.42836535 0.32387406 0.33644962 0.40319687 0.32260412 0.45051745 0.45695567 0.4230709 0.2182777 0.2086047 0.22109053 0.16729313 0.33280826 0.37344143 0.4152826 0.4556445 0.15097606 0.2429748 0.44515973 0.10394825 0.4856689 0.13494766 0.45082498 0.1649807 0.124395646 0.48743677 0.1917843 0.08090778 0.24165183 0.44631502 0.0007548928 0.082614206 -0.22763188 0.543592 0.6482826 0.6987039 0.7223413 0.028276451 0.0580011 0.06799699 0.30283502 0.5508816 0.61927176 0.67247105 0.69128287 0.42729557 0.11150907 0.05282557 0.056684174 -0.11240549 0.44087505 0.64515436 0.63086647 0.38404238 0.13363166 0.057368107 0.0061193556 0.008376181 -0.018381283 0.017975613 0.48825654 0.37317038 0.34193063 0.35463485 0.1719397 0.003855005 -0.118523896 -0.028457694 -0.0139473975 0.14999513 -0.031054005 0.26543468 0.45026907 0.28278598 0.19190355 0.18625593 0.047423214 0.05997441 0.16469064 0.14951271 0.15319249 -0.02395559 -0.023071982 0.47533843 0.53919834 0.59291124 0.1573422 0.122366175 0.03286262 -0.17520607 0.35562816 0.42489898 0.6407086 0.12986006 0.12617001 -0.029111698 0.30538213 0.41622406 0.6353351 0.11501095 0.13277191 0.07017711 0.3512199 0.39955035 0.62264276 0.6144687 -0.2974244 0.30434155 0.34928954 0.43357146 0.48634395 0.06136982 -0.3593457 0.25946987 0.42571473 0.35992077 0.3098592 0.34384507 0.36985305 0.2954148 0.28509188 0.16010267 0.24511069 -0.20921193 0.39036602 0.4586907 0.4426483 0.3686046 0.52574426 0.4580211 0.35002553 0.040791057 0.53956604 0.636336 0.6309968 0.59976053 0.3230618 0.5741081 0.67738676 0.67994493 0.66110706 0.6188088 0.47195372 0.5650836 0.40210435 0.4440654 0.564208 0.57696915 0.57640857 0.6620937 0.62211573 0.527849 0.57337385 0.5698111 0.560091 0.5840155 0.5844237 0.41225418 0.45497417 0.49180526 0.5412947 0.55322665 0.57341224 0.60204154 0.6171803 0.6266776 0.64286935 0.6286652 0.6232641 0.58872795 0.56979185 0.6172147 0.62883687 0.6013229 0.55025846 0.5684649 0.5985544 0.45152116 0.5575242 0.59210706 0.48857394 0.5796999 0.6051936 0.507629 0.5822034 0.44389367 0.57846886 0.59354734 0.5610034 0.51654005 0.5522938 0.12265274 0.2426537 0.4596195 0.5214956 0.50306153 0.51216006 0.5784286 0.40852794 0.44655573 0.36292014 0.5004922 0.084771276 0.3694288 0.049455974 0.36405975 0.17829879 0.31612852 0.3878726 0.26070696 0.33582166 0.6811953 0.6666825 0.63675106 0.257138 0.41903874 0.6692643 0.65232617 0.58880174 0.36896813 0.15365393 0.08594082 0.41223115 0.5790734 0.60025454 0.5862242 0.26964968 0.17448491 0.15362197 0.32189214 0.46347716 0.36482656 0.18557483 0.3818543 0.008521482 0.05174321 0.043202452 0.023492116 0.013149679 0.11427428 0.010523662 0.043058697 0.141311 0.105760835 0.23498103 0.13100493 -0.081039816 0.07450441 0.016117085 0.6997769 0.010228053 -0.14011216 -0.14953089 -0.16418113 0.44675565 0.6868337 0.74092007 0.72271425 0.32281536 0.043508857 -0.15849166 0.6809164 0.29264328 0.027555965 0.56166553 0.35276622 0.42522517 0.01008901 -0.032422416 -0.04966282 0.28218216 0.2651932 0.33288264 0.33158448 0.062630914 -0.09386775 0.31312737 0.26656377 0.079580575 0.045620263 -0.091619745 -0.08733489 -0.16149418 0.46474892 0.16097829 0.5550635 0.5143341 0.53686786 0.12521055 0.5665509 0.42760956 0.48151377 0.5521954 0.22181214 0.06735068 0.05581496 -0.04763464 0.061445177 -0.09911679 0.27302963 0.30839616 0.39143038 0.45080516 0.20284295 0.16163723 0.12330173 -0.06242261 0.44249454 0.4228403 0.35648283 0.4527248 0.47773707 0.41480762 0.4067487 0.43435305 0.6351137 0.33999023 0.53919935 0.66577613 0.6709055 0.50638366 0.3850513 0.55116665 0.5506385 0.64941835 0.623034 0.5834733 0.39847794 0.42772973 0.39951482 0.42995572 0.39160323 0.5960385 0.39412808 0.4013223 0.39119235 0.45509428 0.50662154 0.5155352 0.55194914 0.49821317 0.46410188 0.56933427 0.57125294 0.60418785 0.605492 0.6540551 0.6016155 0.52798855 0.44822466 0.4372501 0.53805625 0.5854832 0.48226994 0.36702502 0.5146965 0.2972083 0.49311322 0.5542035 0.4942088 0.16656165 0.42954248 0.53273886 0.5767753 0.60240895 0.43719277 0.11187188 0.56638026 0.5535042 0.3906281 0.14175536 0.485083 0.48690644 0.36318582 0.45052463 -0.019417401 0.1659381 0.10525858 -0.24115509 -0.18769193 -0.21922418 0.18801343 0.22845905 0.031463154 0.09886087 0.694208 0.6860145 0.66067725 0.09726891 0.030264076 0.13010345 0.6955197 0.696174 0.6822019 0.61253774 0.06716004 0.6828352 0.68046343 0.39526543 0.1875517 0.49441254 0.6094314 -0.02820617 -0.12160265 0.44989038 0.4925266 0.45077097 0.5749946 0.5800173 0.46698081 0.4053627 0.40980947 0.5064763 0.55149615 0.5685996 0.54031545 0.3724026 0.35983336 -0.06922974 0.05592889 0.25240532 0.18280603 0.36534798 0.5165679 0.51139903 0.24513993 0.21682423 -0.10390451 -0.0056609213 -0.0043426454 -0.008940555 -0.02902231 0.035770036 -0.1602555 -0.14920275 -0.05242245 0.43139344 0.211045 0.17193249 -0.03818556 -0.05369302 -0.14014265 -0.05240906 -0.035001643 0.11382669 -0.11576274 0.14948806 0.042412557 -0.048517734 -0.13656773 -0.10223482 -0.020322878 0.6981069 0.7368444 0.11072967 0.1854046 0.19803585 0.08975108 -0.09380211 -0.099420875 0.68170774 0.10277574 -0.03030855 0.16852391 0.11745313 -0.11469297 0.5704074 0.53926176 0.26137775 -0.0396968 0.14283936 0.13716865 0.057693508 -0.06427758 -0.10772754 0.30217195 -0.008124806 -0.18320075 -0.1288605 0.26354685 0.2890747 -0.0069821924 -0.4153834 0.36712873 0.5245241 0.28987065 0.24919061 -0.002279207 -0.042447746 0.36762524 0.49504647 0.5297481 0.55911267 0.5266017 0.21278286 0.45959234 0.44133514 0.5097548 0.5505742 0.49062532 0.050606817 0.45787722 0.35377035 0.40875068 0.16403684 0.2273967 0.21526335 -0.32066345 0.731081 0.66750413 0.5876819 0.05402597 -0.2285122 0.11982274 0.5189384 0.5694839 0.76423395 0.7264339 0.66778326 0.18808085 0.096172705 0.039319817 -0.1850808 0.3296867 0.29638946 0.3662692 0.44570637 0.5592328 0.6297302 0.7866074 0.7464069 0.6588756 0.35256246 0.36372823 0.4476735 0.51000166 0.53590035 0.5914928 0.73297703 0.57815737 0.34408748 0.4586165 0.60840654 0.43516767 0.6064285 0.606722 0.20931637 0.12914298 0.24167755 0.09807189 0.37596753 0.39963302 0.41312572 0.46392396 0.38061666 0.36931795 0.36608723 0.4595062 0.60175824 0.6026181 0.57468355 0.52007496 0.49865842 0.54930604 0.7167579 0.7525865 0.6914661 0.7089783 0.39447957 0.31821352 0.3433791 0.5138239 0.2504409 0.15801352 0.4262238 0.33140862 0.5355305 0.21036439 0.52028143 0.22353311 0.43070614 0.25152004 0.2955301 0.24523385 0.24115878 0.18477888 -0.015774839 -0.03410922 -0.03206402 -0.18393104 -0.1716026 0.70020163 0.6893819 0.6578829 -0.19506842 -0.12645942 -0.12899147 0.711514 0.7084446 0.62154555 -0.14970984 -0.08468411 0.70850706 0.70851636 0.34214017 0.18222025 0.47431418 0.4847023 0.49105316 0.6512285 0.65374076 -0.13902189 -0.25019315 -0.48043627 -0.50710917 0.48989215 0.5276555 0.56810176 0.5685886 0.54048204 0.52524173 0.42816275 0.38767174 0.33040997 0.48728192 0.56778455 0.5194865 0.4911055 0.36317334 -0.37100103 0.22592428 0.10766852 0.24029717 0.47442514 0.2630821 0.25902835 -0.3477374 -0.45010176 -0.19843717 -0.12178226 0.37795413 0.22441201 -0.31431526 -0.33291087 -0.23381841 -0.11613654 0.11549805 0.30880302 0.22718543 0.21371739 -0.2659603 -0.33739024 -0.26579964 0.048753932 -0.2899747 -0.064746976 0.04957056 0.6351633 0.553725 -0.022294454 -0.09430197 -0.09396523 0.023473278 0.14420211 0.4914566 -0.07463401 -0.079430334 0.033921205 0.10607526 0.07059607 0.12638414 0.15418597 -0.0886214 -0.05960892 0.15902449 0.24319798 0.14742163 -0.003786832 -0.095137686 -0.15609086 0.3124697 0.44492763 0.50724995 0.48902303 -0.02493333 -0.084571816 -0.06584204 0.35674798 0.39907706 0.4321658 0.48917532 0.34935486 0.35342246 0.32262883 0.3278127 0.6346792 0.612765 0.4452365 0.204333 -0.3842377 -0.42431277 0.44872403 0.71773994 0.6752279 0.6349871 0.78706306 0.7906368 0.14515853 0.15355045 -0.066832356 0.6685165 0.8066138 0.17942275 0.2533668 0.26352566 0.40517902 0.47479588 0.5322891 0.59160936 0.6586741 0.67382544 0.77719414 0.71998847 0.65098846 0.022541478 -0.16096449 0.25037163 0.110849895 0.48965007 0.52854824 0.6823619 0.52758086 0.2096052 0.3685066 0.2168542 0.5718663 0.30082387 0.017725732 0.05402337 -0.08270272 0.340958 0.33252308 0.32516026 0.29054517 0.58882385 0.59793293 0.5904416 0.5372418 0.37616387 0.33551294 0.3264666 0.27985522 0.6979953 0.7501085 0.8020433 0.80999404 0.6409856 0.719502 0.78792775 0.78608954 0.74152493 0.6244581 0.7534541 0.74085385 0.7267678 0.53961974 0.260903 0.18058798 0.12575412 0.1443418 -0.047376752 0.061922178 0.1974523 0.33872467 0.13031521 0.08567239 0.4046595 -0.01880689 -0.025457468 0.30705455 0.021690603 0.1068248 0.5480414 0.17123786 0.2071711 -0.26248813 0.5076353 0.63153124 0.59384096 0.23468372 0.24292836 -0.25595212 0.29370725 0.43350685 0.6233586 0.68460405 0.6270401 0.23817152 0.20680693 -0.59450245 -0.4480104 0.35869145 0.38166976 0.5394412 0.66795707 0.6525514 -0.20778584 -0.428251 -0.3453369 0.42598176 0.5353646 0.54161584 0.66484535 -0.2724957 -0.20824775 0.725345 0.71370256 0.6268662 0.44237143 -0.32172036 -0.1440871 -0.07269153 0.08255246 0.720777 0.72861797 0.26860896 0.07568334 -0.35537946 0.18341182 0.36739188 0.40007037 0.45378405 0.6780189 -0.16387445 -0.3389327 -0.4397322 -0.42736027 0.52642125 0.5388534 0.49935848 0.47978762 0.6025461 0.23055325 0.4225592 0.5000871 0.45415628 0.4251833 0.37389237 -0.57828015 0.4129521 0.28772122 0.25505134 -0.40431505 -0.29671288 0.18553595 0.23771451 -0.3436236 0.1585174 0.22791371 0.20647691 0.14272529 -0.3143486 0.26036096 -0.020991461 -0.16722216 0.053232487 -0.0018102378 -0.028676003 -0.17803009 0.0069433413 0.41635138 -0.026538089 -0.14292555 0.26566434 0.36455134 0.3990229 0.45035645 -0.03575255 -0.10349401 0.34518203 0.27613756 0.32110178 0.34325916 0.2342527 0.34893543 0.24691632 0.18156359 0.355915 0.49506706 0.4802395 0.73218095 0.69235337 0.623281 0.7849231 -0.3933227 -0.3606148 -0.20016228 0.063265696 -0.02010841 -0.103046805 0.67102456 0.8184893 0.8127238 -0.1560665 -0.09367812 0.06955297 0.4053206 0.60214305 0.6447902 0.67391765 0.7537906 0.69571674 -0.04019852 0.4990769 0.5452377 0.5694591 0.65314054 0.13936505 0.4042272 -0.029320806 -0.013437014 0.22173281 0.27455172 0.18388131 0.5164509 0.22997515 -0.022429584 0.0044797733 0.25642663 0.28173652 0.29102898 0.3069355 0.34284514 0.57295835 0.5683961 0.4670633 0.31123167 0.315633 0.30417508 0.25177318 0.26880434 0.31900376 0.33393344 0.33022246 0.74836016 0.5691438 0.7327315 0.80755943 0.80578274 0.76135176 0.76895577 0.71739984 0.2902086 0.2821549 0.6678866 0.27314964 0.24050552 0.13244098 0.0036150515 0.62891006 0.6199249 0.29259336 0.26118067 0.05010446 -0.06912981 0.5589626 0.2682615 0.2781955 0.27407894 -0.12097924 -0.21164688 0.2442542 0.23741332 0.07684886 0.22449227 0.17414835 0.04824824 -0.029270478 0.22765172 0.2984649 -0.07929308 0.46507037 0.46419537 0.039842084 -0.008819759 0.28403428 0.41379428 0.51072204 0.54151773 0.51461685 0.19150095 0.55957264 0.5343867 0.2358085 0.20563862 0.59028244 0.5612842 0.18780342 0.12211171 0.3426053 0.6124487 0.56287 -0.21009105 -0.40650702 0.29764327 0.42561716 0.5325776 -0.36921358 -0.09522344 0.4026129 0.34923795 0.69635975 0.6205 0.44870752 -0.3397163 0.7025814 0.6977942 0.27465045 0.1618774 -0.10617983 -0.101471275 -0.21973546 0.02727434 0.19442406 0.2142709 0.6752529 -0.09556632 0.33620977 0.4341789 0.35613436 0.5985886 0.38716775 0.46930808 0.30667183 0.06293169 0.24441361 0.039106403 0.23322427 0.21937358 -0.013149772 0.30515113 0.18606147 -0.044742584 -0.1597659 0.027759653 0.0040522674 0.13555746 0.32409728 0.37118298 -0.042903677 -0.13562371 -0.5235864 0.31893796 0.33320117 0.31191447 0.3304659 0.28367853 0.33191594 0.18447432 0.3473002 0.18622398 0.36646897 0.5089184 0.45522 0.39238036 0.7050136 0.6498902 0.52808464 0.7557951 -0.12767467 0.5406848 0.6005013 0.80117834 0.7780919 -0.32900488 0.014624238 0.20548251 0.4101831 0.5647809 0.61029434 0.6397375 0.7001432 0.0016251132 0.19404876 0.17052482 0.51661277 0.5382434 0.55814445 0.59905326 0.51744634 0.32828155 0.19731937 -0.08181384 -0.29430646 0.33437195 0.3195595 0.41554195 0.050909456 0.25404215 -0.11488339 -0.1705779 0.23278244 0.25616157 0.31081972 0.34003454 0.38945866 0.38193047 0.51899457 0.26684946 0.30849397 0.068374574 0.14252347 0.32589036 0.37750423 0.3191895 0.3310638 0.34631836 0.32008547 0.3693964 0.26261312 0.34286943 0.41424358 0.48592937 0.44001877 0.4625011 0.5110291 0.5809348 0.40693998 0.53403425 0.6936544 0.3533256 0.4119411 0.78453875 0.37287673 0.38812456 0.68320334 0.292204 0.32438308 0.6035614 0.29461622 0.28612712 0.24790096 0.55535156 0.30015486 0.30932245 0.19368055 0.27876073 -0.21923104 0.34554917 0.27801427 -0.082578465 0.35293835 0.29332218 0.43609107 0.40536886 0.3257912 0.3260825 0.20965508 0.10978116 0.417407 0.428933 0.048823617 0.45025316 0.15099289 0.46761757 0.20557383 0.51449823 0.19615278 0.19027238 0.16703673 0.5143713 -0.143571 0.42303127 -0.36565426 -0.4335677 0.33459443 0.54810905 0.43750003 -0.075501725 -0.107676916 0.63733345 0.5103275 0.368