# vtk DataFile Version 2.0
Really cool data
ASCII
DATASET POLYDATA
POINTS 4672 float
107.299835 -11.086081 110.00442
107.11415 -11.251678 110.77012
107.10376 -11.248379 111.35157
107.20054 -11.085695 111.88085
107.3078 -10.56486 109.96154
107.00287 -10.664852 110.67028
106.94994 -10.611168 111.411835
107.15737 -10.552094 111.935905
107.35716 -10.165043 110.04449
107.18703 -10.020345 110.60096
107.173386 -9.961491 111.4528
107.237755 -10.071378 111.84294
107.901794 -11.801154 109.99803
107.73049 -11.88715 110.5592
107.78492 -11.91895 111.40184
107.96809 -11.79839 111.98227
108.06168 -11.038436 109.17893
107.70453 -11.309492 109.66957
107.444275 -11.635065 110.44531
107.39335 -11.57495 111.651405
107.587585 -11.281699 112.16205
108.14132 -11.282088 112.666306
107.92358 -10.759415 109.31002
107.54216 -10.63364 109.6005
107.573875 -10.605354 112.361595
107.870735 -9.85811 109.81992
107.47471 -9.712121 110.5755
107.530525 -9.544618 111.41055
107.74302 -9.868026 112.19462
108.111885 -5.8300247 111.058075
108.116905 -6.228664 111.718475
108.19588 -6.162472 112.4357
108.120766 -5.3267875 110.945656
107.82505 -5.4245415 111.63596
107.85384 -5.341248 112.38407
108.03761 -4.6011558 111.05116
107.84599 -4.5167356 111.6241
107.90198 -4.558051 112.281975
108.24444 -4.3982015 112.960106
108.06539 -4.081571 111.48595
108.1592 -4.0745783 112.457794
108.38759 -4.1236362 113.0456
108.73452 -11.711816 109.32657
108.57937 -12.059175 109.83917
108.478935 -12.2590685 110.509056
108.64021 -12.327287 111.5185
108.678856 -12.14403 112.07672
108.91705 -11.835666 112.80462
108.45837 -11.316963 109.173294
108.40532 -11.5938225 112.60873
108.77407 -11.283859 113.072945
108.75377 -10.579527 108.98545
108.60919 -10.614123 113.02569
108.568954 -9.96925 109.21842
109.265915 -8.379523 109.54903
108.897934 -8.235437 110.6534
109.1957 -8.450157 112.30712
109.03358 -7.6014385 110.7645
108.56134 -7.505809 111.9021
108.79126 -7.457193 112.57895
108.86729 -7.1614466 113.10678
108.7447 -6.5592084 110.773705
108.484245 -6.5737257 112.59912
108.61833 -6.100509 113.28213
109.242615 -6.003025 114.06464
108.325485 -5.6021624 110.81795
108.62765 -5.273555 113.488434
108.56144 -4.478548 110.69428
109.039604 -4.4923916 114.77327
109.07776 -4.1319566 115.48835
109.30043 -4.1099033 116.18358
108.80563 -3.8243854 111.080734
108.47701 -3.7732315 111.4047
108.52364 -3.7012627 112.47749
108.69646 -3.7936475 113.17105
108.98773 -3.5667398 114.72666
109.09502 -3.4987905 115.54276
109.27956 -3.6623235 116.307755
109.04905 -3.3822289 111.864914
109.17839 -3.0571487 112.50819
109.39558 -2.5132778 114.79416
109.347084 -2.6543808 115.507065
109.34188 -2.9745345 116.114265
110.06744 -12.705294 109.68284
109.75771 -12.778547 110.54122
109.805046 -12.745503 111.427086
109.79648 -11.938656 108.96201
109.557205 -12.334642 109.540985
109.18345 -12.477978 111.62298
109.4835 -12.243813 112.46187
109.67697 -11.987258 112.976524
109.76593 -11.369907 108.68363
109.6251 -11.387892 113.381676
109.9874 -11.284762 113.562996
110.03158 -10.574004 108.45051
109.733574 -10.683914 108.600464
109.76681 -10.379667 113.549805
109.73689 -9.367172 108.75629
110.104324 -9.968559 113.4155
109.74865 -8.288117 109.02823
109.84962 -7.7956705 109.0972
109.40919 -7.8169146 109.60485
109.58784 -7.1468096 113.84026
109.59395 -6.6728325 110.01182
109.81033 -6.6377354 114.36819
109.84546 -5.7554727 110.10615
109.75571 -5.3154435 115.56089
109.889015 -4.9679413 116.43567
109.53735 -4.3634825 116.54075
109.87283 -4.1788487 116.95767
109.377655 -3.6643922 111.028336
109.47364 -3.3708336 116.620575
109.7627 -3.50796 116.9769
109.850815 -2.5551744 112.533585
109.86694 -2.4122746 113.27049
109.51676 -2.4304273 114.49783
109.70544 -2.5981898 116.474045
110.27249 -2.7619305 117.13163
110.11257 -0.8478738 105.98588
110.08582 -0.96593225 106.45871
110.14857 -0.90384376 107.45899
110.264854 -1.2497675 108.7227
110.334274 -1.3905034 109.63977
110.025566 -2.124144 114.13547
110.002014 -1.4852867 114.62663
109.76035 -1.7999451 115.18006
109.95444 -1.9623395 116.32847
110.27937 -1.9940243 116.776344
110.26599 -0.14949131 105.263596
110.098045 -0.4054216 105.69215
109.84348 -0.41100866 106.56164
109.85672 -0.20261866 107.1999
110.0498 -0.3791968 108.47187
110.22472 -0.69164026 109.521225
110.18547 -1.1962733 114.94666
110.19762 -1.1658983 115.40195
110.26693 -1.1642573 116.021194
110.25138 0.3752268 105.24079
109.924675 0.40804976 105.797646
109.722885 0.5861511 106.46097
109.88229 0.594718 107.38455
109.9614 0.37613046 108.16365
110.30011 0.26781607 109.64962
110.41061 -0.043081425 110.2094
110.13653 1.1899115 105.87424
109.94743 1.2353187 106.54395
110.02399 1.2031507 107.25148
110.267914 1.0765496 108.24088
110.36253 0.9292257 109.10734
110.28431 1.7467568 106.38739
110.50727 -12.765223 109.769806
110.521645 -12.98349 110.492165
110.558784 -12.830434 111.290794
110.537735 -12.608688 111.8233
110.56825 -12.321298 109.106125
110.54427 -12.50293 109.37625
110.19149 -12.301406 112.64943
110.41858 -12.025611 113.00803
110.61414 -11.164369 108.44926
110.39505 -11.402711 108.556656
110.444214 -11.658966 113.31583
110.726814 -11.079503 113.70643
110.458305 -10.72632 108.43544
110.76696 -10.096121 108.530914
110.60144 -10.646787 113.685585
110.894295 -9.401133 108.44452
110.51035 -9.281373 108.54585
110.87617 -8.975819 108.41826
110.43245 -8.383544 108.588036
110.54405 -7.63445 108.837906
110.68477 -7.5196996 114.18069
110.90478 -6.981746 109.21087
110.761154 -6.197513 115.62909
110.79602 -6.033302 115.964226
110.451065 -5.4295216 110.10069
110.36467 -5.3145323 116.335556
110.50573 -4.8490653 116.927826
110.56952 -4.3437557 117.22547
110.385155 -3.7135878 117.435234
111.069855 -1.622151 106.55779
111.01823 -1.7403313 107.93788
110.62124 -1.667409 108.73182
110.9406 -2.144019 110.28482
111.02195 -2.3461924 117.77634
110.66567 -1.0664994 105.63158
110.54242 -1.4179157 107.36309
110.410545 -1.4131007 108.21253
110.47862 -1.7538713 112.97659
110.50174 -1.4148953 116.5373
110.66123 -1.6730584 117.025475
111.107834 -1.9695674 117.82671
110.67813 -0.18107396 104.98729
110.73559 -0.6582867 111.74859
110.71044 -1.0202388 112.45785
110.83716 -0.67843163 114.39928
110.589165 -0.8305343 115.50762
110.863045 -0.9505005 116.30099
111.0846 -1.1193984 116.869316
111.09738 0.13670987 104.66122
110.49778 0.05541022 110.390175
110.93387 0.6688206 110.95495
111.15496 0.028144151 112.67757
111.097946 -0.22277457 114.47491
111.10376 1.1791964 104.7908
110.494896 1.3916732 105.59101
110.33798 1.5845202 107.331726
110.4413 1.4331074 107.93668
110.864136 1.534682 109.25582
110.84675 0.8533502 110.29802
110.77829 1.7878454 105.92594
110.55121 1.8210151 106.62409
110.76895 1.8529813 107.300415
111.058655 1.5660808 108.54786
111.40168 10.027591 118.812584
110.844864 10.167508 120.048325
111.0993 9.668062 120.538475
111.06918 9.776913 121.1975
110.974884 10.859574 118.72533
110.720985 10.77425 119.90721
110.71746 10.396298 120.34289
110.86005 10.558097 121.38239
111.204796 10.615369 122.01917
111.21853 11.518808 118.086334
110.77392 11.51525 118.92216
110.64212 11.651536 119.49409
110.62197 11.471416 120.25817
110.83899 11.37468 121.27425
111.14791 11.328876 122.03512
111.12852 12.894146 112.90804
111.01093 12.969188 113.463486
111.04658 13.0843525 113.90983
111.05052 12.379345 118.65159
110.76073 12.303986 119.608055
110.90235 12.471382 120.21184
110.9893 11.853057 121.44841
111.1772 11.877404 121.8241
111.24122 13.880532 112.171875
110.94643 13.688033 112.601006
110.75823 13.628144 113.39752
111.055214 13.579874 114.143
111.26437 13.0452385 119.646515
111.15014 12.775099 120.39554
111.14304 14.479066 112.25095
110.865524 14.438566 112.64474
110.744514 14.525081 113.34007
111.19517 14.351556 114.28283
111.18844 14.880713 112.30061
111.03838 15.043739 112.68025
111.032295 15.152424 113.386734
111.14559 15.097315 113.8247
111.25665 -12.889172 109.96393
111.34021 -12.953522 110.42471
111.33379 -12.590581 111.6876
111.51946 -12.058718 109.09626
111.37635 -12.487945 109.43391
111.46005 -12.280973 112.30855
111.219124 -10.989066 108.4581
111.44497 -11.527834 108.73865
112.03282 -10.970785 114.10403
111.43634 -10.430983 108.439926
111.58223 -10.636655 108.582504
112.32911 -9.8444395 114.59895
111.00788 -8.345834 108.38715
111.459335 -8.696305 108.50685
112.0748 -8.168716 114.95793
111.46179 -7.599195 108.820496
111.97742 -7.615308 114.963715
111.35167 -6.4504795 109.29837
111.18096 -6.204419 116.00383
111.67455 -5.286539 116.81624
111.71281 -4.4696865 110.12805
111.6632 -4.721018 117.029305
111.26385 -3.0137515 117.91526
111.60225 -2.4153461 118.2874
111.98587 -2.1581788 118.57092
112.30741 -0.7845272 103.91346
111.89348 -0.8430482 104.97149
111.691216 -1.5486219 118.08916
112.40427 -0.68431467 102.72408
111.39472 -0.13903944 104.55766
111.5488 -0.7009101 116.460724
111.679306 -0.9202373 117.22193
112.059555 -1.262044 118.15779
112.30941 0.5648578 102.93164
111.50636 0.56972206 112.30928
111.614784 0.21480584 113.67291
111.69346 0.17532343 114.3549
111.63838 -0.04511267 115.136375
112.059044 1.2394705 103.748604
111.413246 1.403785 110.041916
111.688866 1.0858697 111.255974
112.04259 0.71601903 113.31609
112.35208 1.8561705 103.62981
111.97238 1.9221134 104.76921
111.61827 1.9840724 105.67871
111.35274 2.0236223 106.639465
111.32697 1.7234375 108.32857
111.580765 1.6892343 109.387634
111.98049 9.210692 119.1043
111.64198 9.120311 120.381325
111.62612 9.325653 121.39755
112.232315 9.485952 117.84938
111.71642 9.560337 118.64971
111.39836 9.446453 119.993286
111.40861 9.433678 121.225624
111.663704 9.971923 122.06541
112.14397 10.855896 116.88072
111.703575 10.754684 117.53449
111.47837 10.241962 118.35789
111.549576 10.606492 122.27569
111.93219 10.840067 122.57543
112.071846 12.062072 112.705345
111.91579 12.118891 113.4163
112.00063 11.723349 117.0994
111.67696 11.471477 122.42519
111.88462 11.208098 122.57943
111.72116 13.0422125 112.21003
111.60958 12.620376 112.60125
111.43092 12.458026 113.606926
112.408516 12.042628 116.72793
[...]
POINT_DATA 4672
SCALARS features_00 float 1
LOOKUP_TABLE default
0.8088839 0.864118 0.8523637 0.806839 0.79416686 0.85674787 0.8545414 0.8137792 0.76578224 0.8107226 0.8232261 0.80491936 0.7659772 0.8114023 0.76609194 0.69181794 0.6944059 0.76459116 0.8301395 0.7936247 0.741531 0.63981986 0.705312 0.7548483 0.73848933 0.6420368 0.7360245 0.7302927 0.6878249 0.5952128 0.5527839 0.50516164 0.6526949 0.6734748 0.6359534 0.6988801 0.6802076 0.63549185 0.50876296 0.6424216 0.5541017 0.450729 0.6560263 0.6975345 0.7339955 0.63952625 0.5938636 0.5546987 0.66208935 0.60896504 0.54717904 0.55365384 0.5602564 0.52312636 0.33386865 0.25006956 0.22939755 0.29400647 0.38792464 0.30979478 0.29761928 0.41213617 0.40567842 0.39419645 0.27917957 0.5848918 0.42363164 0.6551291 0.38687575 0.47682685 0.52464736 0.59163415 0.5921587 0.47371194 0.35512787 0.3505808 0.46177208 0.52168405 0.45460927 0.3076153 0.3402021 0.4347021 0.48727018 0.6245366 0.6259158 0.5304832 0.5917982 0.6325982 0.5670192 0.5199896 0.5083067 0.5378894 0.4902073 0.45419824 0.41552627 0.44875056 0.43200296 0.38283497 0.35538304 0.38510984 0.36808917 0.3123282 0.20551984 0.29866284 0.13545987 0.31274664 0.38067478 0.46867824 0.5316887 0.5367894 0.50422597 0.52544767 0.536453 0.09745979 0.08605391 0.2880221 0.48149204 0.4904704 0.58684814 0.5725199 0.5132113 0.41537797 0.37384006 0.2107068 0.2782815 0.3670209 0.43856776 0.44464746 0.60214794 0.6215148 0.6482048 0.6274463 0.5048814 0.44332942 0.30616406 0.34838134 0.3857181 0.6447774 0.6991925 0.7041161 0.6213912 0.55328953 0.45806798 0.4127844 0.6680909 0.6397728 0.58475107 0.50268036 0.4549985 0.5956506 0.612002 0.58944154 0.4959337 0.4415257 0.594779 0.6037967 0.46732664 0.4421555 0.46972722 0.5120635 0.42374516 0.3148414 0.41806108 0.3671267 0.30687645 0.35512766 0.3693906 0.36318064 0.3896569 0.36865193 -0.047080725 0.28360933 0.14165917 0.20845187 0.22617823 0.37415326 0.42667463 0.47436336 0.52131385 0.39044905 0.33121687 0.35505474 0.23877412 0.46448553 0.4845729 0.4467216 0.42766953 0.024330858 0.41323903 0.43394494 0.4557979 0.534397 0.14001365 0.04014847 0.22119088 0.33254305 0.3763694 0.4075528 0.47961667 0.39088815 0.34363806 0.15159217 0.21268517 0.5613731 0.62880284 0.54768884 0.50759494 0.42523307 0.39747888 0.5649795 0.560487 0.5011048 0.43745315 0.4084024 0.55676055 0.59179735 0.69243634 0.49629104 0.5995494 0.62378705 0.72584605 0.67002 0.4857146 0.5873926 0.6425041 0.6857723 0.71152437 0.6647948 0.6894292 0.7580117 0.8026315 0.62855506 0.64875543 0.6287658 0.66762286 0.65613794 0.7764863 0.83024263 0.90449095 0.8934283 0.5775626 0.5838144 0.84264326 0.8942363 0.9409009 0.9183633 0.8588309 0.8857981 0.8870211 0.8824599 0.58912677 0.57385546 0.38079533 0.5601152 0.5818086 0.28833356 0.43683136 0.5129541 0.023261987 0.37349224 0.39490512 0.044950478 0.3665072 0.33815467 0.004380663 0.30356005 -0.06751178 0.1742348 0.119198635 0.17952096 0.014714226 0.23339826 0.45601428 0.4434812 0.41964936 0.20410697 0.2431911 0.4280849 0.33167168 0.38888353 0.35388118 0.3990749 0.3946192 0.4200208 0.21800032 0.14130889 0.1827037 0.25651693 0.4148867 0.3887707 0.31654385 0.14451306 0.44006836 0.42269632 0.45457065 0.46041062 0.42509288 0.3896585 0.2906732 0.48031545 0.65777755 0.2849447 0.3339425 0.46684206 0.6728662 0.6274061 0.34732285 0.37833163 0.39558083 0.6220459 0.5733468 0.41700903 0.4384208 0.35591352 0.6191219 0.58730596 0.58625 0.5575259 0.58193946 0.30319977 0.60147583 0.6146648 0.65121794 0.8353173 0.49500817 0.53080076 0.5685091 0.55270684 0.52117234 0.79329145 0.88346666 0.8040976 0.8552685 0.85452414 0.8305094 0.82547295 0.8342732 0.78749406 0.5676738 0.35383406 0.16060296 0.5331806 0.53888845 0.14857954 0.15487328 0.14418171 0.08282173 0.080327734 0.34334415 0.0630261 0.7761901 0.797039 0.33347267 0.055770673 0.0412234 0.7901355 0.81566596 0.8141204 0.3051766 0.033709034 0.033088695 0.7689215 0.81099784 0.8013338 0.00086984923 -0.11460522 0.6753384 0.7260702 0.05657158 -0.082218125 -0.19550705 -0.01062661 0.012481563 -0.11950037 0.09333889 0.051087894 -0.32149795 0.3284732 0.23918413 0.19634953 0.006915871 0.39235508 0.33920765 0.2920801 0.20809263 0.11400037 0.115392804 0.4010433 0.37846178 0.42000252 0.39119643 0.3270493 0.45195946 0.25063163 0.4604344 0.4708004 0.2895436 0.26913542 0.15537474 0.16580155 0.49057937 0.47833684 0.46741107 0.3998357 0.22568387 0.37976283 0.49712977 0.22020462 0.25974348 0.24158245 0.17587933 0.20635104 0.21877067 0.29015416 0.20723574 0.19911349 0.20140395 0.5386636 0.4231048 0.19534084 0.19869566 0.21386297 0.21428525 0.5446092 0.50445557 0.4502506 0.13057363 0.46615934 0.46278015 0.3770494 0.06318681 0.22436884 0.132069 0.27890867 0.44592375 0.44804972 0.13419813 0.31086075 0.5357888 0.4863999 0.2715962 0.3487007 0.24087828 0.57383883 0.5201306 0.35825577 0.18350612 0.5309868 0.39138186 0.32627082 0.42917687 0.3961146 0.4459375 0.5961889 0.43821096 0.45972306 0.7270196 0.7593205 0.70312476 0.73440576 0.7410886 0.37604803 0.35286453 0.30624008 0.27206746 0.22225587 0.42949948 0.20475882 0.11089049 0.07789294 0.015680386 0.71459556 0.33385754 0.057127994 0.028082052 0.71488714 0.7316008 0.76625586 0.76529837 0.2906469 0.69634557 0.74922776 0.79383284 0.77080214 -0.11568187 0.5626657 0.7772591 0.75708854 -0.05063626 -0.19056782 -0.16699229 0.37589654 0.6554735 0.6270876 0.68577063 -0.07417998 0.4544989 0.52768695 -0.11693628 -0.208012 -0.18208036 0.13841933 -0.12083045 0.17368759 0.15909345 0.1338384 0.0017516874 -0.03829324 -0.012544651 0.18307233 0.5630591 0.53505856 0.48498994 0.23846003 0.22532883 0.16080193 0.050081424 -0.026615545 0.331286 0.5828451 0.52176493 0.3730566 0.42710802 0.11953608 0.208614 0.43694395 0.5525705 0.42206103 0.19247887 0.10612271 0.375184 0.516737 0.581581 0.6055623 0.4172057 0.12132452 0.200493 0.22734779 0.2235147 0.28901264 0.051053382 0.07648428 0.25270307 0.4515194 0.59162325 0.6171018 0.4383943 0.48764947 0.42527843 0.33504838 0.16278575 0.058358893 0.19373082 0.22699654 0.2447825 0.2779203 0.15355161 0.123779394 0.107002795 0.13341466 0.44908398 0.529323 0.49383086 0.49896604 0.45840877 0.02737083 0.103103414 0.16367115 0.15282954 0.16202965 0.3801019 0.3009016 0.18032262 0.06303521 0.15398702 0.18285213 0.17367487 0.13373968 0.3916554 0.35350907 0.09530373 0.12744941 0.19797033 0.240898 0.21142755 0.1852363 0.4693672 0.34801918 0.23846708 0.27389464 0.3853194 0.4258696 0.3650933 0.18401787 -0.056744047 0.2926761 0.22608985 0.15372878 0.32013154 0.25280812 0.03877431 0.2103871 0.094466254 -0.022299811 -0.09797697 -0.13510424 0.34671128 0.39022958 0.1601388 0.13081455 0.40322953 0.25261575 0.24636799 0.4315573 0.30933577 0.30101967 0.34392196 0.34837946 0.31618208 0.38247782 0.579189 0.6274266 0.58951247 0.39423817 0.649364 0.67130196 0.6655656 0.33421844 0.33825034 0.35782808 0.34296107 0.31048545 0.27776554 0.25322425 0.15612197 0.0850345 0.14271232 -0.062900536 0.66002643 0.6760776 0.6177319 0.25167266 0.07143239 -0.09644988 -0.1506093 0.6399815 0.70523155 0.68718386 -0.08893785 0.4210783 0.59969604 0.73652047 0.7153247 0.69293654 0.54872227 0.5872003 -0.095618114 0.34501672 0.43209654 0.39910793 -0.08250713 -0.17997669 -0.1529503 0.5251106 0.4760809 0.3580793 0.245013 0.15973084 0.084681466 0.13250113 0.056849957 -0.08031547 -0.07386254 -0.00817734 0.023914412 -0.15168184 0.7149324 0.58372545 0.51290643 0.4161352 0.28865263 0.13877796 0.82745075 0.74822426 0.6342445 0.41984907 0.28663978 -0.02075132 0.85474 0.7832083 0.6665504 0.51695365 0.4432013 0.04111287 0.29432684 0.439227 0.8770117 0.8303064 0.6846626 0.5360879 0.4674852 0.30375537 0.0098116845 0.14904015 0.31053528 0.43685424 0.53697443 0.5592703 0.29461253 -0.060671404 0.024547456 0.6133651 0.60890347 0.33406258 -0.0019636117 -0.053170253 -0.069996625 0.066006824 0.6344862 0.6331125 0.39306983 0.30550998 0.05380936 -0.40297887 0.050691843 0.528163 0.61179817 0.4753683 0.45610645 -0.0816203 0.39885792 0.4758977 0.07555578 0.19401318 0.2878139 0.33994636 -0.013318848 0.2732413 0.26353994 -0.025065688 -0.34539938 0.21670133 0.08404561 0.17074718 -0.14763649 0.22227505 0.10309774 0.28530955 0.20183389 0.31685424 0.25735188 0.2273266 0.33789355 0.3401831 0.29775155 0.32164073 0.33437908 0.38615602 0.39318115 0.42287683 0.43417898 0.4507084 0.5763593 0.58697623 0.46790987 0.4594208 0.62911797 0.6383424 0.6397108 0.62145084 0.28225386 0.31002757 0.23706523 0.24746461 0.28690535 0.2529784 0.1635711 0.15611473 0.12086335 0.12536313 -0.0076157786 -0.07895041 -0.12601016 0.5488335 0.5414456 0.5816846 -0.07425599 0.46001583 0.53553724 0.60585296 -0.2418068 0.5571185 0.35874307 0.37328056 0.32960677 0.56236994 0.31995386 0.30376655 0.23219356 0.18988472 -0.28936428 0.47935164 0.03554608 0.2122076 0.19340123 -0.043116216 0.3616781 0.261482 0.18973091 0.08743951 0.03796343 0.00168816 0.08027805 -0.06930143 -0.11554463 -0.11212996 -0.064866364 0.21723798 0.18291491 0.55919635 0.4266066 0.3070537 0.09931776 0.06378526 -0.0062748007 0.010450924 0.8215296 0.716338 -0.14270218 -0.19753958 0.23218125 0.85009634 -0.2838335 0.23802939 0.88979334 0.8893057 0.056423046 0.2744782 0.89570713 0.870409 0.5133078 0.53705335 0.8806604 0.85598683 0.8130392 0.20682053 0.2519328 -0.11395924 0.58419144 0.2711966 0.26941943 -0.009423919 0.61384165 0.36584905 0.20548987 0.025623433 -0.47799438 0.6149763 0.59931135 0.4230889 0.043212548 0.0005770549 -0.07987183 0.48767146 0.5601831 0.114574395 -0.020281415 -0.05261247 0.39277625 0.31055135 0.20380737 0.0018134243 -0.057549067 0.3417698 0.22574037 0.107308924 0.27581686 0.40031272 0.31554168 0.19657262 0.26191688 0.31228924 0.15022327 0.066374585 0.23250361 0.11809662 0.27516088 0.29108763 0.28652868 0.25990474 0.32596824 0.4703285 0.44228023 0.517365 0.55519474 0.52110994 0.5245458 0.47081077 0.51503205 0.5698012 0.55983365 0.53165543 0.5104352 0.6035373 0.56311154 0.59243214 0.61219054 0.1926313 0.19934027 0.15827067 0.11876108 0.15071122 0.18499199 0.15521528 0.074482575 0.031591184 0.13021435 0.009482723 -0.0346845 0.10206241 0.28548822 -0.015173253 0.0049458146 -0.10157913 0.42505443 -0.06348608 -0.10016551 0.4784038 0.51350224 0.42132658 0.4327969 0.39232966 -0.08014841 -0.07734493 0.5010051 0.32014775 0.3992491 0.40161473 0.38040322 0.29252282 -0.12589662 0.5111979 0.14206189 0.25223255 0.24833083 0.50389105 0.5043182 0.08851813 0.067852065 0.15342677 0.16829038 0.27269018 0.0407335 0.17023423 0.44632244 0.18684308 0.27965444 0.79151106 0.7006525 0.2809517 0.3217519 0.8847128 0.8610166 0.25565064 0.30222958 0.9015684 0.9041301 0.26079717 0.21891047 0.8919039 0.34256315 0.87207866 0.839726 0.6518757 0.57373846 0.20799604 0.5115463 0.3134737 0.11422756 0.06458891 0.5650709 0.40544075 0.35940757 0.2743117 0.5625831 0.46515775 0.44649887 0.43010134 0.39036316 0.37585163 0.14546114 0.052783065 0.55730313 0.23623039 0.4467919 0.49703962 0.5246576 0.52082074 0.48030555 0.33789045 0.5733731 0.4366309 0.2899392 0.54806805 0.4694763 0.36651334 0.36460578 0.43635917 0.36336213 0.30099994 0.45845214 0.26571614 0.33374324 0.26958418 0.2880828 0.30853224 0.33457905 0.40651888 0.3192997 0.5000485 0.32177418 0.09409046 0.5489645 0.28503302 0.46494865 0.61027265 0.498169 0.580205 0.6303339 0.65212333 0.35957903 0.40093425 0.37024808 0.28676343 0.2726692 0.30882984 0.2576383 0.062160403 0.054729342 0.17253497 0.09407737 0.024579134 -0.032806702 0.17483346 0.23721334 0.20373711 0.18693233 0.043348953 0.069436975 0.03927887 0.15511316 0.23273668 0.31553978 0.12220776 -0.00069812685 0.18419114 0.2678591 0.3294868 0.34990048 0.2977575 -0.052113425 -0.03308362 0.23573782 0.19797301 0.41738278 0.35059914 -0.10565867 -0.063076936 0.38650015 0.27184847 0.3304791 0.40863976 0.42542863 -0.13636985 0.45239836 0.21837929 0.30347416 0.13625318 0.1851299 0.40854836 0.026260167 0.08494123 0.22162029 0.20278512 0.10180586 0.288724 0.5563633 0.38421893 0.31290743 0.33621466 0.35474873 0.7811041 0.70124716 0.34456792 0.3722878 0.8340942 0.36159417 0.87400764 0.86475015 0.28745428 0.86084867 0.81099296 0.33675924 0.33444217 0.84805006 0.82068765 0.6832559 0.6153022 -0.11804402 0.20084338 0.4203874 0.4712655 0.41249013 0.05635082 0.45459574 0.48605794 0.51622784 0.074114256 0.50179565 0.49378836 0.48920622 0.47092116 0.5194037 0.5289953 0.43852958 0.5036564 0.5089035 -0.14953305 0.6044008 0.6091482 0.35154852 0.6007038 0.5888144 0.4074666 0.3974758 0.5684494 0.40753254 0.5853251 0.49490345 0.3845681 0.52587295 0.4276876 0.32634214 0.2666943 0.2903096 0.32414877 0.22838113 0.06001445 0.3988667 -0.083134815 0.4617435 0.024758276 -0.073292054 -0.04739272 0.58096755 0.56206906 0.44626737 0.61952984 0.6081412 0.48441833 0.58207667 0.66128397 0.63434994 0.39891434 0.43417352 0.38940686 0.2886653 0.51250243 0.38879144 0.3635966 0.22668049 0.25868142 0.29781598 0.25747138 0.571542 0.5430934 0.45015252 0.365232 0.26517928 0.20155214 0.19927263 0.12793095 0.068886995 0.16701582 0.21066898 0.31927425 0.5382607 0.49308288 0.44722074 0.28826454 0.22130904 0.046082027 0.027745957 0.15047768 0.22542748 0.30857244 0.3830166 0.3874284 0.32446143 0.41924962 0.43747213 0.20342086 0.25045374 0.3906272 0.38050622 -0.048119985 0.3094597 0.30465552 -0.059394985 0.21633908 0.2995087 0.32811457 0.33157942 0.30361146 -0.13252503 -0.033215757 0.24322768 0.28995234 0.3557619 0.40242988 0.18731424 0.21478245 0.4016281 0.149781 0.15053582 0.18106025 0.31553513 0.2195671 0.026286252 0.2780914 0.17599815 0.34555396 0.34461787 0.66633785 0.37339675 0.37068093 0.7725847 0.7045895 0.36133122 0.36909044 0.8121085 0.7014169 0.3086207 0.79798365 0.75479496 0.6768279 0.3551244 0.38406533 0.3582537 0.4395082 0.39992598 0.4868167 0.39993054 0.54227954 0.5654734 0.514913 0.24661137 0.47488683 0.049289346 0.2946026 0.5889035 -0.14220749 -0.30322528 -0.05269541 0.591766 0.5895158 0.34462172 0.41325355 0.60554564 0.6101774 0.39733005 0.40214247 0.6286751 0.38194823 0.38174996 0.61198676 0.54514974 0.4641571 0.28124046 0.3134318 0.31648302 0.37522018 0.22105636 0.20244195 0.29594946 0.20871374 0.07946883 -0.074689284 -0.13601553 0.32264185 0.3452565 0.39392865 -0.12527882 0.47369462 -0.112406924 0.54771394 0.5555308 0.3547694 0.603354 0.61613846 0.6005136 0.5950134 0.5485059 0.6370599 0.61644876 0.44673812 0.37769225 0.5161374 0.49013847 0.4058137 0.35162544 0.25360206 0.38904026 0.24703218 0.21867055 0.046536073 0.5673032 0.49890274 0.33665627 0.23617032 0.17752063 0.19541639 0.09297617 0.065507516 0.1879874 0.25819913 0.2927741 0.5844952 0.07131283 0.2639099 0.33086118 0.40453568 0.5318116 0.4129291 0.43570793 0.48879236 0.37030807 0.42330202 0.28644365 0.19519009 0.351022 0.22024566 -0.109504834 0.16583166 0.21429813 0.23914886 0.17996532 0.14542404 0.16007358 0.06898629 0.07063053 0.18607463 -0.12270781 0.21958455 0.23076609 0.26903057 0.04138784 -0.07838315 0.3493989 0.37107828 0.53718597 0.35234725 0.35128847 0.32389373 0.28014702 0.22039336 0.35673666 0.38368064 0.4253397 0.200928 0.4873758 0.43969128 -0.10881433 0.47596157 0.024401665 0.24048674 0.3856985 0.555016 -0.19748642 0.5802633 0.5847373 0.60577583 0.62444097 0.6356169 0.36119524 0.65105724 0.15880626 0.27704194 0.5759118 0.49306637 0.056118816 0.21034932 0.3610689 0.12216909 -0.011439927 0.42057276 0.47303146 0.366933 0.05407975 0.3381489 0.5512946 0.56872773 0.4307955 0.48410922 0.59660494 0.5821421 0.40982252 0.34541968 0.36260316 0.37556872 0.367005 0.359752 0.35347134 0.30540568 0.2688383 0.32251424 0.32458133 0.29003632 0.2737721 0.3472733 0.3153873 0.24080473 0.22608374 0.23198994 0.26595822 0.23743924 0.438473 0.4369685 0.36891338 0.30238885 0.21649218 0.15266606 0.10486002 0.49162292 0.48765868 0.24910872 -0.13737036 -0.17948538 0.034938626 0.18794124 0.27265924 0.52125776 0.5404642 -0.0961569 0.22101901 0.28677356 0.3515399 0.38089347 0.5647559 0.40516582 0.4078056 0.56047523 0.48290455 0.41566873 0.32926467 0.2623441 0.34861088 0.04167001 0.24030373 0.07099208 -0.13933419 0.14387941 -0.017383004 0.12328853 0.11264056 0.010056671 0.05351569 0.01977997 0.08754601 0.14401358 0.16118109 -0.09359205 -0.21993381 -0.06644569 0.36797917 0.36365485 0.373049 0.09596698 0.012458056 0.32458788 0.36064082 0.05359929 0.24764085 0.29672974 -0.03874878 0.24694672 0.25315946 0.3316704 0.3982389 0.38928536 0.3892627 0.34531426 0.3606382 0.2697299 0.34657872 0.35717016 0.23378187 0.20075208 0.32384002 0.3998178 0.1468176 0.32889637 0.20348057 0.09256202 -0.009848103 0.3909453 0.25923648 0.34888205 0.5395687 0.44837713 0.5636463 0.615869 0.63076186 0.6373409 -0.0900348 0.6579837 -0.04555781 0.6494322 0.60374653 0.5581454 0.49306267 0.23656175 -0.15562254 0.26523533 0.07412592 0.3372488 0.44715136 0.52140915 0.5549066 0.59388566 0.525424 0.30464327 0.3422261 0.36692822 0.33538297 0.27245697 0.31791174 0.37136436 0.40216908 0.38059986 0.34936643 0.31859452 0.34829074 0.3421311 0.28334403 0.2822532 0.37570503 0.30636275 0.24903947 0.30051768 0.3459148 0.26821643 0.20137906 0.2665032 0.1780012 0.08986939 0.26707104 0.14461066 0.009423763 0.39041504 0.33746374 -0.21992062 0.067719586 0.38362238 0.40370303 -0.13619481 0.16930349 0.24651404 0.31110996 0.44340622 0.356134 0.3566408 0.50033313 0.35057196 0.3078838 0.15830219 -0.034750603 -0.18533339 0.31094998 0.09651844 0.0743169 -0.2214098 0.11634547 0.11034412 0.2981425 0.29946968 0.13294491 0.07451417 0.11444074 0.1516689 0.14035106 0.36280358 0.009417627 0.37898195 0.36973253 0.04410504 0.35722595 0.09162068 0.27645823 0.3279724 0.22815473 0.53210795 0.33830494 0.6040935 0.3589938 0.4645357 0.31640422 0.384595 0.37974006 0.23808141 0.27102375 0.37842464 0.36409533 0.30421153 0.20206305 0.20709233 0.2060687 0.04498829 0.18325849 0.22569387 0.2576205 0.14904422 0.2926628 0.32295805 0.19588727 0.39954627 0.28422487 0.3650134 0.48449767 0.4954998 0.4834686 0.4823382 0.44815525 0.57145435 0.28036293 0.061760694 0.07179469 0.6366111 0.58760136 0.5306995 0.023749962 0.64984554 0.62196755 0.54885817 0.39207196 0.12445697 0.6433395 0.5859437 0.46615773 0.020685084 0.086562745 0.45074058 0.11618619 0.5337919 -0.00012455508 0.48990434 0.3943899 0.30943534 0.3698396 0.3808384 0.45005316 0.5775354 0.54550976 0.5855868 0.6586837 0.6121278 0.24608314 0.28838918 0.32041305 0.32176897 0.18894581 0.26724553 0.24933809 0.21557477 0.23859966 0.2839654 0.2232831 0.28797972 0.3136215 0.21949644 0.19211495 0.26957735 0.114281625 0.22067949 0.19662431 -0.13237129 0.21008885 0.22391167 -0.21461532 0.045189254 0.3181864 0.28116336 0.27771157 0.28826553 0.36731103 0.4122612 0.23201497 0.27563575 0.18097153 0.21983108 -0.12914304 0.09649583 0.308723 0.25607386 0.16895321 0.093438804 0.04551156 0.07122458 0.34132352 0.29914853 0.24647129 0.100083545 0.2423666 0.29681695 0.11691349 0.11929909 0.13294871 0.018167038 0.068542734 0.33333874 -0.033047363 0.34392548 0.3522396 0.1065505 0.31977957 0.32563612 0.37745923 0.27661586 0.22204158 0.5094164 0.46262786 0.20981126 0.58708024 0.18626988 0.59354556 0.31011057 0.29438177 0.50858283 0.45802733 0.17633998 0.25943574 0.41573203 0.38597462 0.31474423 -0.09067297 0.19527033 0.33825958 0.32791966 0.14555454 -0.09481197 0.22616884 0.19966497 0.21030863 0.22863558 0.18560189 0.32155442 0.38193202 0.3137225 0.35316125 0.277881 0.38388127 0.4654704 0.5091606 0.41139907 0.43593207 0.50781953 0.39437735 -0.24530399 0.1295981 0.17804661 0.34141207 0.18625501 0.4853066 0.16634893 0.564055 0.15565868 0.57898897 0.15813002 0.5395811 0.4618902 0.44018757 0.37708765 0.25422773 0.46036458 0.41374046 0.59335315 0.5562624 0.5434786 0.62315655 0.667173 0.62873834 0.13291788 0.14265572 0.06925289 0.033247318 0.008177357 0.1580256 0.17915502 0.1314271 0.11757965 0.074631736 0.5125484 0.26278 0.21548538 0.18955103 0.103092454 0.022440942 0.37924254 0.54661125 0.6019484 0.15531617 0.24793425 -0.008519515 0.05701971 0.55968595 0.67557985 0.7352458 0.72419786 0.08170175 0.010269556 0.15496391 0.4320432 0.65616155 0.75346804 0.72937024 0.35855877 0.32294366 0.19200653 -0.053961888 0.45895904 0.58098704 0.361519 0.36533114 -0.27385914 0.3597261 0.35440385 0.10689473 0.17910853 0.3340461 0.21953571 0.194315 0.0035697073 0.058117308 -0.07309