# vtk DataFile Version 2.0
Really cool data
ASCII
DATASET POLYDATA
POINTS 4165 float
5.19478 15.012901 42.076424
5.1071973 14.867006 42.54528
5.0849247 14.8626 43.169643
5.1867185 15.101955 44.248367
5.032184 15.535029 42.002567
4.849557 15.58014 42.395966
4.7767134 15.574191 43.410492
4.9261007 15.713181 44.471096
5.1793714 15.776246 45.22935
5.1110463 16.21982 42.015324
4.882606 16.219034 42.64941
4.8653736 16.2475 43.490067
4.918484 16.323952 44.533802
5.1509104 16.335127 45.289703
5.215642 16.884892 43.600246
5.166988 16.906897 44.558807
5.1631207 16.816216 45.04235
5.736186 14.359396 42.693756
5.7108917 14.406123 43.290817
6.186087 15.17397 41.192253
5.5681915 14.781849 41.91424
5.5071588 14.543311 42.412018
5.541212 14.55452 43.426006
5.7997856 14.670363 44.26464
5.6972275 15.1462145 45.211853
5.757494 15.6542845 41.268757
5.544213 15.494478 41.49536
5.4837303 15.634779 45.493557
5.677845 15.736669 45.694935
6.3483458 16.229504 40.7084
5.6533494 16.711287 41.40337
5.3698225 16.539644 45.534653
5.662938 16.289541 45.76296
5.8171782 17.11705 41.783195
5.6463566 17.3499 42.717052
6.20598 17.506273 43.299572
5.6437883 17.358532 44.501614
5.7470717 17.010632 45.41999
5.904852 16.851723 45.739017
6.72683 14.303526 41.988586
6.3296223 14.268316 42.346367
6.641626 14.112034 43.0334
6.4892306 14.381281 43.98583
7.2282395 15.181952 40.076565
6.862604 15.07489 40.84494
6.5147147 14.715665 41.49987
6.4454565 14.502836 44.248936
6.503167 15.02767 45.28094
7.3014803 16.161861 39.131268
7.157404 15.825335 39.677567
6.3546944 15.9744005 40.750572
6.106379 15.353439 45.595135
6.3234305 15.636883 45.8188
7.1459155 16.915617 38.67765
6.8806815 16.516174 39.582108
6.4535427 16.247896 45.966187
7.120609 17.649084 38.08825
6.812026 17.822239 38.579437
6.652863 17.359118 39.947693
6.4895806 17.606329 40.49582
6.406534 17.395897 45.372486
7.0284214 18.364092 38.065224
6.7721615 18.349304 38.783638
6.5777273 17.894466 42.417233
6.398062 17.66835 44.49161
7.291275 19.850424 33.65752
7.259257 19.747347 34.477135
6.9783506 20.001696 35.901596
7.1021824 19.62906 36.487286
7.363669 19.567175 37.602802
7.0921516 19.314806 38.673073
7.0718794 19.075605 39.481018
7.1254635 20.523958 33.842793
6.953768 20.7477 34.387173
6.818829 20.667383 35.552517
6.8679757 20.377056 36.45891
7.4132 20.16119 37.66767
7.4185843 20.021898 38.393078
7.0554056 21.38938 33.851562
6.8121033 21.50541 34.506866
6.7306337 21.14441 35.543568
6.9792356 21.356867 36.58634
7.1348042 21.215904 37.198254
7.442568 21.89734 42.03736
7.1410365 22.205725 33.92596
7.001939 22.360268 34.527683
7.028507 22.358604 35.3243
7.1012635 22.103111 36.0756
7.2558846 22.90913 42.14496
7.2416687 22.649023 43.544254
7.3623023 23.000927 44.523106
7.303917 22.740364 34.354492
7.2577586 22.70862 35.24753
7.3683233 23.597536 41.594524
7.1239767 23.499706 42.78768
7.1154 23.552511 43.507713
7.2368393 23.483616 44.181732
7.4065604 23.919388 41.873425
7.2923765 24.108824 42.70831
7.29243 24.237076 43.47701
7.272633 24.155361 43.998043
7.0817084 33.18918 35.078133
7.2738476 32.921192 35.481483
7.2936783 33.00076 36.15593
7.105169 33.58828 34.766613
7.0115623 33.602123 35.414745
7.211211 33.535538 36.19994
7.396974 35.141346 31.2918
7.2592845 34.030922 34.320343
7.195919 34.436356 34.810253
7.109304 34.36959 35.432335
7.226405 34.237305 35.974106
7.3955235 35.95181 29.988426
7.265891 35.830353 30.637663
7.3705177 35.541294 31.456406
7.3827906 36.28204 30.13441
7.3085485 36.324493 30.582674
7.340964 36.37248 31.287352
7.423556 36.30163 31.843206
7.422608 36.85517 30.785662
7.4235373 36.95796 31.101528
7.3947654 14.2551985 41.668167
7.8104873 13.986034 42.505352
7.6732817 14.247309 43.51436
7.8926177 14.377217 43.924168
7.816556 15.293341 39.251827
7.813407 15.185717 39.39971
7.623757 14.678431 40.62044
7.4029064 14.708194 44.41825
7.534609 15.070988 45.029015
7.8160152 15.703644 38.918934
7.392362 15.500965 39.58128
7.1955276 15.3343725 45.540928
7.3468614 15.888033 45.814587
7.76654 16.786505 38.151096
7.496811 16.751936 38.407536
7.381497 16.377687 45.862823
7.989343 17.507652 37.50117
7.1670136 17.546328 45.329124
6.9811215 17.107195 45.752544
7.9111996 19.104279 33.55402
7.863167 19.003222 34.458958
7.1534543 17.665092 45.099922
7.8492155 19.72259 32.982193
7.58772 19.53666 33.43058
7.4197016 19.399826 34.219734
7.527544 19.44012 35.48789
7.4927177 19.542694 40.60794
8.033244 19.90522 43.307087
7.7961197 20.429384 32.820587
7.576972 19.833517 39.198536
7.7021875 21.014898 42.763313
7.598034 20.757616 43.046173
7.71469 21.209045 32.985493
8.088695 21.8455 39.144352
7.6819706 21.47916 41.57517
7.7416334 21.623095 43.840122
8.273335 22.058378 45.13734
8.3918085 22.065199 46.551342
7.907819 22.075052 47.825207
8.072153 22.122124 48.329426
7.61998 22.005144 33.343826
7.5466275 22.30233 33.62054
7.511278 22.401775 36.4512
7.7525005 22.316854 37.125008
7.922649 21.936468 38.07463
7.659062 22.395922 40.96091
7.5046573 22.371677 41.607395
7.902743 22.281006 44.535072
8.237565 22.65523 45.76521
7.912022 22.586098 47.045937
7.711676 22.645931 47.743008
7.840355 22.703852 48.44307
8.152955 22.628613 48.878994
7.63976 22.843699 34.077873
7.766181 23.09526 34.657658
7.470827 22.85413 35.223656
7.7726045 22.79539 36.040565
8.379437 22.861345 39.069134
7.8420534 23.381903 40.511345
7.553686 23.66368 41.246708
7.5124016 23.26925 44.6848
7.747529 23.301495 45.09702
7.7364902 23.171188 47.130894
7.723521 23.304173 47.72251
7.8401823 23.339441 48.371185
8.137761 23.35412 48.908745
7.8808074 24.17107 40.850075
7.663687 24.2921 41.52818
7.54563 24.427755 42.519817
7.4668117 24.503906 43.573303
7.6245794 24.406424 44.240158
7.966938 23.854113 47.673653
8.0744095 23.88706 48.402153
8.031036 24.809725 41.56908
7.90768 24.842253 42.679817
7.7563663 24.766853 43.448483
7.891894 24.741304 44.107338
7.9106126 32.214367 35.868813
7.9675446 32.121323 36.478626
8.195853 32.044003 36.92012
7.9583626 33.042236 34.28922
7.619375 32.815895 34.78929
7.597136 32.53371 35.631546
7.635354 32.519115 36.519344
7.8901124 32.653484 37.235996
8.127683 32.96727 37.656036
8.107437 34.27005 30.767626
8.201871 34.330452 31.86709
7.461746 33.44674 34.29005
7.3429193 33.46535 34.438805
7.86082 33.419212 37.309837
8.062442 33.33447 37.628082
7.944178 34.879898 29.86176
7.6475177 34.8189 30.691816
7.658492 34.783318 31.505184
7.76706 34.782906 32.120384
7.550009 34.721405 34.238266
7.4042196 34.666126 34.375217
7.528137 34.354664 36.44344
7.9184475 34.101845 37.05813
8.090446 35.727074 29.26017
7.539151 35.682747 29.95463
7.4501605 35.3754 30.363894
7.5918794 35.601715 32.151306
7.8939357 35.050278 34.394344
7.540813 35.00087 35.517887
7.9558206 35.147686 36.223133
8.140004 34.99598 36.741516
8.133829 36.548706 29.361876
7.6755075 36.45405 29.82569
7.4856076 36.595383 31.466913
7.779144 36.57164 32.24679
8.102587 35.99878 32.865932
8.322204 35.9533 35.476185
7.8878136 37.01304 29.877237
7.5833426 37.04344 30.563837
7.6560225 37.353294 31.559635
7.9624734 37.51536 32.266365
8.170937 37.213734 32.702198
8.250957 38.331985 30.868292
8.095112 38.3074 31.636328
8.173109 38.284275 32.226925
8.31856 37.997738 32.71949
8.31398 38.779766 31.36405
8.640407 14.151156 41.598892
8.424223 13.99987 42.476475
8.190016 14.287667 43.475132
8.682804 14.502696 39.93072
7.8441877 15.059995 44.922024
9.203993 15.444865 38.145435
8.525344 15.640682 38.49803
8.175374 15.91791 45.270134
8.681736 16.846413 37.75262
7.8230114 16.154396 45.73714
8.911834 18.444685 34.09158
9.09933 18.256546 34.479454
9.1496315 18.202734 35.414635
8.707396 17.83261 36.804775
7.9071436 16.837427 45.611076
8.681701 19.032633 33.012615
8.583896 18.744503 33.595207
8.581433 18.44403 35.879894
8.4049 18.603582 36.324223
8.682133 20.09664 32.29495
8.655046 19.520864 32.574825
8.850374 19.04497 44.595615
8.715433 20.625837 32.18585
8.353929 20.166176 32.452534
8.500924 20.814156 44.508446
9.043442 21.17115 46.84543
8.60383 21.478968 45.769703
8.430803 21.697783 46.433353
8.69288 21.569225 47.657124
8.469517 21.934185 48.524624
8.708897 22.11138 48.96289
8.780523 22.333265 32.98838
8.678547 22.634287 49.32576
9.107313 22.88529 49.642193
8.392029 23.04362 33.739517
8.776748 23.371729 34.73218
8.242487 23.323725 35.16517
8.486564 23.060184 36.174133
8.473615 22.775696 37.196198
8.566329 23.33857 49.35392
9.218921 23.47006 49.90707
8.721746 24.414001 40.05186
8.621386 24.622068 40.38552
8.517521 24.129948 45.72874
8.59317 24.124395 46.689423
8.778886 24.427263 47.4217
8.688562 24.319683 48.607937
8.896965 24.084393 49.378345
9.209413 24.177654 49.851803
8.973881 24.72414 40.0962
8.744088 24.904762 40.67139
8.681361 25.131191 41.28545
8.339639 25.04873 42.57619
8.840106 24.998192 44.918472
9.114766 25.383835 45.491535
9.220379 25.510044 46.610233
8.844664 24.965483 47.48233
9.201365 26.120687 46.65944
9.264109 26.5798 47.156284
9.358397 27.145119 45.871723
9.299324 27.294281 46.590134
8.405043 32.227375 35.059437
8.418921 31.944183 35.714485
8.508554 31.883417 36.456337
8.607602 32.003258 37.13303
8.450547 32.419262 37.51758
8.449482 32.68606 37.65097
8.9593525 33.72467 29.798012
8.884374 33.665264 30.684048
8.965906 33.741096 31.53904
8.483649 34.19325 32.63987
9.0543585 33.869827 33.463623
8.29513 33.773144 37.48884
8.534255 33.575954 37.699448
9.35601 34.744415 28.010305
8.738586 34.676315 28.95366
8.553602 34.575466 29.328648
8.681221 34.45257 32.825066
8.607453 34.3437 37.387318
9.154209 34.711014 37.63378
9.0363035 35.945305 28.338646
8.517373 35.572723 28.880388
9.012102 35.438553 37.292244
9.301517 36.44169 28.133486
8.690422 36.368362 28.856276
8.556247 36.758972 33.057056
8.913348 36.41751 34.602703
8.524427 36.12467 35.726078
8.939425 36.43732 36.37188
9.093649 36.057106 36.988293
9.094161 37.260284 28.91292
8.659626 37.43828 29.49176
9.23786 36.775898 36.198154
8.516114 38.353962 30.69266
8.4676695 38.507885 32.499584
8.454515 38.024464 32.76389
9.165729 39.307957 30.870941
8.787771 39.196796 31.56902
8.606402 38.91019 32.28175
9.307549 39.72192 31.661419
9.958243 14.112883 39.515305
[...]
POINT_DATA 4165
SCALARS features_00 float 1
LOOKUP_TABLE default
0.6340418 0.69287825 0.7599862 0.8630514 0.63385034 0.70079553 0.8430238 0.8908498 0.8901795 0.62037444 0.7237861 0.8282676 0.8673961 0.88726205 0.7528531 0.82757664 0.85903 0.6436208 0.6870229 0.43463033 0.58774036 0.6408729 0.72306764 0.7753284 0.8663226 0.4762984 0.53113616 0.8947353 0.89837027 0.31446797 0.48761654 0.89036775 0.9011481 0.5306164 0.63403857 0.6292622 0.78553796 0.8696413 0.8918036 0.5211265 0.57761204 0.58695936 0.6389733 0.22788326 0.3283524 0.46243557 0.6721515 0.797683 0.21671823 0.21152969 0.32568282 0.8690374 0.8803625 0.26141447 0.22287437 0.90655553 0.31026956 0.2999522 0.25427502 0.2717555 0.8577517 0.28369558 0.2807688 0.46308297 0.7628727 0.56196535 0.5152481 0.4366869 0.3555405 0.21611218 0.1878505 0.2019474 0.5914771 0.5833704 0.51538146 0.3983093 0.21618174 0.1408666 0.6403295 0.63513076 0.5668419 0.45508853 0.34078318 0.36676276 0.63042057 0.62298024 0.58606136 0.5282904 0.41472906 0.41464323 0.33189484 0.60489106 0.57273674 0.43378967 0.4504094 0.4515814 0.41070807 0.4531399 0.46001184 0.4493772 0.42691916 0.7506868 0.77549887 0.84711266 0.7217119 0.77202547 0.8519722 0.53789884 0.6474019 0.69181496 0.7271088 0.7725133 0.5552593 0.5589007 0.5417624 0.5547329 0.5534804 0.5248488 0.49026832 0.5251593 0.5057653 0.4445175 0.43489808 0.45317352 0.42692924 0.21288422 0.21072695 0.2645921 0.5487402 0.6155563 0.21666746 0.20689298 0.7615881 0.8111885 0.23904261 0.25450242 0.85524035 0.17665635 0.84253854 0.894573 0.50620407 0.44192785 0.8008792 0.5334606 0.5441861 0.50927913 0.42662168 0.009447172 0.15978342 0.5521971 0.12128266 0.28593758 0.25136125 0.60256994 0.008180186 0.2831109 0.25413 0.12295068 0.34911817 0.600248 0.6379214 0.5969756 0.59992886 0.4774438 0.3938161 0.16238287 0.31034154 0.36855677 0.20820642 0.21422629 0.48467857 0.615595 0.67115486 0.64547634 0.585572 0.562861 0.5599375 0.49547213 0.210868 0.38500285 0.43161583 0.33929825 0.28742653 0.48867345 0.5855351 0.65174633 0.63763404 0.4609621 0.467692 0.4626432 0.4359172 0.38776135 0.48157835 0.5738176 0.4778687 0.4551239 0.42145783 0.36651993 0.77939516 0.8405863 0.8512692 0.5528407 0.680088 0.77154684 0.858783 0.84291595 0.74576485 0.45298105 0.34516993 0.61573565 0.6595619 0.7340982 0.6875224 0.5286403 0.52723897 0.48810035 0.4307516 0.54345393 0.604764 0.7201649 0.63601804 0.5116141 0.5518112 0.55509794 0.4893896 0.4747822 0.6183511 0.5532409 0.5276086 0.49403095 0.53644776 0.4998564 0.4328753 0.3496312 0.3994358 0.5113649 0.5209702 0.46197498 0.4193946 0.3722906 0.46403354 0.448551 0.43186533 0.38163763 0.44358057 0.25203156 0.3009758 0.3563867 0.2516416 0.5379461 0.24865597 0.2331969 0.5909463 0.13216808 0.754083 0.3364679 0.27680486 0.20113079 0.015972435 0.7667728 0.45476255 0.4322257 0.1853804 0.16460116 0.43328935 0.45895085 0.074381925 0.40539438 0.4774958 0.09125802 0.35080954 0.13148482 0.30830988 0.5135796 0.607847 0.5896177 0.43559742 0.57900643 0.52530056 0.52852666 0.47948614 0.5062094 0.44868493 0.33870304 0.5757044 0.48212147 0.35517302 0.39701352 0.15605268 0.19688192 0.2407299 0.4513323 0.4836528 0.4178803 0.3051052 0.4001793 0.4428785 0.4607608 0.13779339 0.04146605 0.05915089 0.15629183 0.12383251 0.16063127 0.30124384 0.26219264 0.6517666 0.72325283 0.79750323 0.82012 0.80367845 0.76265347 0.37030917 0.3683308 0.2967724 0.20500705 0.18074024 0.602613 0.59738994 0.3772003 0.43551034 0.4662395 0.21483222 0.5090688 0.42743444 0.42165208 0.47284693 0.4154874 0.4065982 0.44920033 0.29289883 0.19155622 0.38260674 0.38049826 0.39723718 0.41909006 0.44302377 0.3514399 0.45414692 0.4095255 0.36715966 0.404363 0.43176657 0.42366287 0.4256541 0.3138584 0.20843807 0.27964622 0.121390246 0.28033575 0.2859832 0.057725385 0.14923356 0.24800034 0.21972805 0.15660205 0.1823826 0.16404083 0.23850635 0.19249877 0.01745005 0.3964817 0.28930095 0.07361344 0.36527398 0.008913755 0.07371466 0.2392209 0.22914113 0.45650193 0.5188489 0.5016722 0.07551406 0.12849975 0.5046344 0.46076447 0.13512966 0.120214805 0.20221576 0.37546965 0.39530104 0.39962873 0.3228315 0.41765362 0.17659971 0.28589258 0.15633829 0.35089067 0.16275938 0.31757388 0.25055295 0.33184624 0.07920791 0.14147082 0.10456799 0.33963874 0.07905073 0.07949494 0.105106205 0.45149466 0.3473543 0.32490504 0.30269197 0.19267444 0.060609523 0.3428073 0.51751745 0.5787235 0.37255442 0.3522046 0.29415613 0.22517942 0.010834163 0.23210382 0.3992371 0.52087307 0.5787517 0.36023793 0.31557426 0.36180195 0.3441523 0.5621353 0.6107232 0.72710496 0.3967843 0.42541572 0.37525037 0.3708343 0.61120415 0.55634797 0.119484566 0.2878435 0.438487 0.6773524 0.6533447 0.4676165 0.43043 0.6253998 0.5866245 0.13942616 0.249896 0.49406028 0.5696124 0.6049305 0.541169 0.2805484 0.40007558 0.7300452 0.71727204 0.40753412 0.34931803 0.40633667 0.36006224 0.34220204 0.41687995 0.42356056 0.21505636 0.29594272 0.337223 0.33583635 0.38905436 0.25404555 0.3535223 0.30506456 0.44365388 0.44805 0.4067911 0.36332294 0.45342273 0.46930856 0.45879674 0.35303456 0.20103188 0.38012528 0.4283058 0.15742305 0.08451837 0.29618594 0.006076917 -0.045388624 0.23966178 -0.042818636 0.12359634 -0.009380795 0.21224593 0.22640274 0.18272379 0.11621045 0.06444053 0.12236825 0.15184173 0.076626115 0.08459164 0.09435208 0.018318422 0.13072401 0.50382453 0.45248955 0.39635074 0.16666785 0.09640646 0.3993498 0.49129403 0.4826296 0.42995697 0.13784842 0.2715252 0.008311696 0.32234836 0.42205194 0.35950866 0.32657796 0.12494381 0.18349911 0.22588828 0.30635688 0.20297568 0.23819137 0.16282323 0.22198808 0.24371722 0.09507757 0.21884495 0.348698 0.38093644 0.31518987 0.29241857 0.21219307 0.265022 0.43487647 0.5541385 0.5680974 0.34555086 0.14843869 0.6028174 0.6044688 0.3543756 0.33176562 0.41683954 0.007463591 0.5344387 0.6060647 0.60582924 0.317753 0.35662478 0.35620618 0.3497569 0.41804746 0.40508476 0.4582439 0.5677306 0.32024154 0.3421839 0.35402125 0.43982565 0.38413012 0.27412793 0.18681802 0.5676207 0.4351209 0.31232408 -0.035544463 0.24634853 0.33635473 0.2530712 0.3321067 0.50152916 0.42998406 0.41285667 0.4124643 0.30798352 0.6473441 0.59485525 0.50029665 0.28660482 0.18702966 0.016870756 0.025189333 0.44846478 0.45260426 0.43258333 0.43447474 0.6601795 0.6327485 0.36392343 0.49753648 0.57515097 0.57223284 0.6004255 0.56922364 0.6557121 0.6150742 0.5873336 0.30386156 0.6871339 0.76550055 0.79580724 0.77888477 0.31459147 0.31488582 0.7647858 0.83541036 0.8877609 0.90159774 0.34358326 0.40148354 0.32500076 0.31336433 0.8771376 0.8952472 0.40917516 0.2346704 0.26170728 0.38030452 0.13851133 0.18990819 0.12572537 0.58312786 0.32967955 0.26020822 0.64628893 0.5812647 0.47757986 0.4009393 0.6176984 0.5809065 0.5359202 0.5466288 0.50455403 0.5175301 0.43310267 0.381392 0.4156464 0.45284975 0.09677078 0.35875523 -0.010215655 0.21984972 0.0410441 -0.09382547 -0.0011213273 0.15823352 0.21363783 0.018799208 0.10661503 0.12119609 0.08683374 0.057835862 0.06934039 0.49526522 0.4602503 0.40964836 0.307899 0.10984074 0.061055716 0.27490228 0.5111841 0.49912006 0.43336514 0.35998192 0.0910582 0.50438136 0.5018039 -0.25227058 0.45938167 0.4482575 0.35809594 0.31674558 0.20235771 -0.08406742 -0.062201947 0.14738342 0.3211606 0.35488436 0.20942271 0.13609387 0.114290304 0.003835097 0.35104936 0.016653493 0.09305896 0.23424795 0.19603436 0.18599097 0.20875053 0.1655408 -0.029156744 0.04172565 0.08696264 0.0398214 0.5052773 0.5061785 0.030212782 0.10452566 0.1663944 0.5569181 0.26110354 0.29996842 0.32478493 0.23720373 0.4084756 0.5822123 0.3053107 0.42302033 0.44240037 0.5062732 0.5319626 0.32175526 0.2678066 -0.1433264 0.20197314 0.27108777 0.43363255 0.07747459 0.33053672 0.5071111 0.513816 0.37711382 0.27337033 0.2080209 -0.06983222 0.41003758 0.40959936 0.30760738 0.5817276 0.07432614 0.1612791 0.1315448 0.412206 0.38170618 0.69459325 0.15549847 0.5230181 0.5596419 0.2392205 0.11617864 0.6150351 0.6205258 0.80209446 0.7925099 0.48422647 0.35732377 0.25266397 0.69053787 0.74503344 0.8522106 0.89949596 0.30441335 0.3387923 0.1935623 0.80239093 0.841323 0.8729627 0.8664324 0.3624078 0.3193513 0.1753033 0.16105145 0.30095512 0.13865504 0.12836757 0.18524155 0.28884742 0.11886304 0.64768815 0.2998056 0.7498065 0.750246 0.5050703 0.40867692 0.79274297 0.75851786 0.6427983 0.5374681 0.53214216 0.49456394 0.45511192 0.49386248 0.700094 0.71699655 0.52011824 0.53279054 0.25765902 0.43136045 0.3785302 0.7032752 0.4900169 0.10828295 0.31272683 0.3840051 0.34174156 0.41914415 0.28844756 0.2823747 -0.20366906 0.27222764 0.12580474 0.16768853 0.16454485 0.16553235 -0.0686706 0.09644793 0.122638434 0.062360667 0.07552609 -0.17231579 0.2824387 0.33155653 0.31293845 0.34759876 0.33790916 0.351525 0.07616425 0.270595 0.25489083 0.48864052 0.40176907 0.39375848 0.032984663 0.4912286 0.41408145 0.487845 0.05722004 0.3690021 0.18141197 -0.2882722 0.010648746 0.14029786 0.4349113 0.38305166 0.09629799 0.18226019 0.18968824 0.19437379 0.07393171 0.2299394 0.42569882 0.3756289 0.15614796 0.2658581 0.15164064 0.07631132 -0.07505873 0.43525213 0.10813254 0.20702866 0.19613114 0.14938967 0.01603362 0.076499686 0.07449272 0.06574294 0.4582689 -0.16120073 0.1839077 0.17138213 0.1756843 0.12814274 0.25541884 0.2151951 0.463902 -0.17055309 0.34379917 0.3353445 0.29542023 0.09341396 0.3078535 0.27771097 0.21189767 0.1596228 -0.2819099 0.07511441 0.3240086 0.46625656 0.4337298 0.13960724 -0.07689335 0.12797374 0.35731912 0.090996236 0.25884783 0.48957855 0.44211027 0.16737787 0.33687302 0.3958592 0.4153189 0.556868 0.5470768 0.17388958 0.44438264 0.44102392 0.44981405 0.15541269 0.60473144 0.66165125 0.22959615 0.2008979 0.6954181 0.7649207 0.74360514 0.81565404 0.18008831 0.1360259 0.1458641 0.77911663 0.7842803 0.79127944 0.31303465 0.17555682 0.1369641 0.13979425 0.113501646 0.119470276 0.4382022 0.100123264 0.56732225 0.11388855 0.6616148 0.6792005 0.28077835 0.7845719 0.77376115 0.65843695 0.48537695 0.51329195 0.65943825 0.69411296 0.7264489 0.52293515 0.50639707 0.44119307 0.377767 0.31878078 0.49628586 0.48615032 0.4255572 0.2802767 0.38437384 0.57256377 0.65154684 0.7246695 0.73247135 0.51804423 0.51556593 0.49756354 0.3987101 0.35899654 0.6958667 0.7190254 0.72114074 0.45693642 0.3252178 0.26897725 0.6437588 0.65200734 0.67950904 0.701968 0.35549045 0.37169 0.27390736 0.22509468 0.56294525 0.6168207 0.51081544 0.31757492 0.19977412 0.20072538 0.28185433 0.38290015 0.24237263 -0.163373 0.1363912 0.1675247 -0.32999623 0.3863204 0.044177666 0.38680375 0.3460095 0.20882237 0.022872947 0.29191622 0.26743737 0.18395978 0.15742308 0.2995018 0.017184814 0.36356944 -0.06443124 0.2953291 -0.0031706458 -0.0263431 0.3954708 0.12009203 -0.076838344 0.01238615 -0.043775044 0.48575866 0.4432335 0.1208714 -0.44000363 -0.10477064 0.15572713 0.4806677 0.015250348 -0.039623506 0.007518403 0.012867875 -0.3180406 0.21836303 0.42692852 0.41920143 -0.18068871 -0.08509211 -0.028093666 0.07299078 0.051757544 0.06845103 0.29451084 0.25450015 0.23827502 -0.14172871 -0.25743577 0.052605465 -0.055807777 0.11295126 0.14863516 0.07343722 -0.29269704 -0.051731214 0.2640357 0.02007398 0.37578928 0.21666628 0.11973703 0.12039591 -0.23130885 -0.43823647 0.058792576 0.020547308 0.25325766 0.011471894 0.48312944 0.45166254 0.10864641 0.20214102 0.15523222 0.36016694 0.57058936 0.49236417 0.15721382 0.1555186 0.22864938 0.47594565 0.49121755 0.6193776 0.609037 0.58778477 0.32662642 0.5242173 0.5691991 0.60711867 0.6461526 0.65097606 0.5644253 0.35175768 0.20189461 0.5240139 0.56494415 0.6402127 0.6412569 0.5838877 0.11623654 0.16461018 0.13282612 0.06954053 -0.020852499 0.249438 0.2949121 0.65277565 0.69618416 0.6930802 0.67773557 0.7144507 0.63430834 0.2460907 0.7312405 0.08711354 0.14569587 0.206166 0.25006637 0.07054526 0.38350922 0.63277614 0.32797906 0.7066223 0.6957247 0.56038195 0.41019648 0.5229314 0.37294787 0.44325826 0.39580125 0.41183907 0.21662249 0.31749064 0.43952876 0.699314 0.7385441 0.47396258 0.40497053 0.35092318 0.25661442 0.31800583 0.26311573 0.74183834 0.7752534 0.4667672 0.45183277 0.7229768 0.44022194 0.44789004 0.66411906 0.6542281 0.61176986 0.62960464 0.32911342 0.16786626 0.31260732 0.540007 0.6100742 0.6344515 0.5765668 0.40398076 0.25137094 0.18629014 0.3399576 0.46726316 0.4082138 0.303747 0.08496346 0.09713347 0.2830526 0.16405019 -0.17834333 -0.3684977 -0.44287857 0.307459 0.30808887 0.29987833 0.29181564 0.24235886 -0.12631454 -0.047497235 0.31789672 0.2325696 0.23350848 0.1873768 -0.0026892181 -0.14699513 0.22940208 0.13795951 0.20444798 0.19065782 0.07706967 0.18798855 0.1847617 0.09731041 0.104725 0.33826658 0.23462337 0.21417539 0.0024963864 0.382456 0.38522643 0.41771036 0.15869072 0.39677775 0.45293576 -0.611893 -0.044898428 0.37645012 -0.17238188 -0.24431111 -0.06204085 -0.25077686 -0.30471507 0.27715823 -0.1669003 -0.2641707 -0.23238699 -0.08887544 0.044316843 0.24367319 -0.61130154 -0.07212359 0.1319089 0.024451673 0.4231745 0.38508788 -0.08580013 0.07780582 0.042509448 0.45655084 0.057386763 0.14665249 0.6158924 0.5455877 0.061195545 0.14626554 0.43888468 0.64335084 0.64889705 0.16184995 0.11996539 0.60153973 0.6016087 0.6634027 0.6579218 0.17795813 0.66181964 0.65852594 0.65745366 0.6561652 0.59122956 0.43014514 0.12821971 0.14355175 0.12349688 0.042111676 0.29337794 0.56978464 0.54421765 0.58006114 0.6429446 0.65731144 0.30050713 0.11826871 0.21331784 0.054609127 0.13039783 0.112785324 -0.03001147 0.23024453 0.49442008 0.35339 0.5439073 0.363622 0.39798027 0.39234227 0.20775482 0.30235946 0.3735389 0.44491223 0.5964192 0.2834233 0.29955798 0.33126053 0.1837334 0.81116366 0.23160905 0.24146317 0.22710419 0.82089233 0.413704 0.29227823 0.19455294 0.6968801 0.76498985 0.38635838 0.52829814 0.6619853 0.6975945 0.6001475 0.6180781 0.56324136 0.34985512 0.26505634 0.16387229 0.38357258 0.42485598 0.55354846 0.5982528 0.4853276 0.26345062 0.11152082 0.099402174 0.48116636 0.21369237 0.107257865 0.33159444 0.35591072 0.35984403 0.26823255 -0.08464721 -0.14971082 -0.23551422 -0.42706347 -0.39724845 -0.007065177 0.31571865 0.33608806 0.26882806 0.14377281 0.2360892 0.21500409 0.22597203 0.18506107 0.12598847 0.17839502 0.24625078 0.07190018 0.23412083 0.2216141 0.2036328 0.12393511 0.18651864 0.25720423 0.36202013 0.18399955 0.3040476 0.35573813 0.2913972 0.29491195 0.35096353 -0.22575961 -0.36917084 0.27040648 0.26017702 0.32401854 -0.11386596 -0.090221204 -0.21086255 -0.46186268 0.080702074 -0.065833785 0.04783988 0.27424073 -0.04681487 0.047456466 0.34791964 0.31468788 -0.056566916 -0.058757264 -0.066808596 -0.121766575 -0.09585428 0.68094385 -0.16366148 0.4019663 0.705042 -0.047001794 0.023862094 0.5573114 0.70375204 0.6758512 0.17991644 -0.0598751 0.110012755 0.65792763 0.7182466 0.6863022 0.6504438 0.54184645 0.41206163 0.1576806 0.11451569 0.13755389 0.09835778 -0.035619967 -0.1561002 0.3065377 0.066023104 0.3001487 0.4471836 0.57785225 0.6483375 0.28446415 0.057057887 0.107545726 0.24015968 0.26247656 0.08972079 0.087715596 -0.055579733 0.108173735 0.2083244 0.14596245 0.28002664 0.47681698 0.41108894 0.48013642 0.48419195 0.28532663 0.34075037 0.21837634 0.2411365 0.28421035 0.41880733 0.5505794 0.7007092 0.75394785 0.10494587 0.80031127 0.19250976 0.82857317 0.14948724 0.76697624 0.17419977 0.059072383 0.6476736 0.70554346 0.5426746 0.56317425 0.5467315 0.34404537 0.4194038 0.5476651 0.43912137 0.49008572 0.38503528 0.23007762 0.019740999 0.33194378 0.42133918 0.03070058 -0.23842189 -0.05410081 0.32510644 0.36054537 0.34600157 0.26668996 -0.02976133 -0.116144255 0.2955517 0.14269902 0.012212098 0.2226064 0.21219285 0.29300308 0.274303 0.26475987 0.18721549 0.25542825 0.29707426 0.032242276 0.1812481 0.14560536 0.24749964 0.26164466 0.27272096 0.28084093 0.29337776 0.30854258 0.28903714 0.28981704 0.31886682 0.32946885 0.32373604 0.31931975 0.17058861 0.18968178 0.27786955 0.07570514 0.21240745 0.3108775 0.29785457 0.28326002 -0.09542775 -0.109190285 -0.0797567 0.25606117 0.21502672 0.2418013 0.27281922 -0.41293257 0.12948593 0.48253763 -0.17302144 -0.14326155 -0.20796466 0.011634349 0.14870492 0.7539203 -0.38680235 -0.16638847 0.41690353 0.3376601 0.31534296 0.17094405 0.8025374 0.7667197 -0.3630811 -0.25836217 0.38680965 0.4654873 0.4670175 0.43157032 0.36787772 0.8023732 0.7860596 0.14882688 -0.02811347 -0.05792612 -0.070686266 0.6140156 0.4971971 0.55539083 0.55333006 0.55904216 0.7634438 0.7614357 0.7144048 0.5746106 0.40177575 0.30812237 -0.07125074 0.20112014 0.07170099 0.10090807 0.22479618 0.35976335 0.3756004 0.5279557 0.570493 0.62482804 0.65235794 0.625124 0.37973273 0.40648943 0.34217694 0.113238096 0.10634118 0.1610844 0.3067839 0.64882946 0.6733279 0.09901497 0.24462846 0.1956621 0.42958593 0.41884542 0.15554637 0.28369308 0.28036082 0.154273 0.16621292 0.32792222 0.3606823 0.35726112 0.3236954 0.20554093 0.39399552 0.5159515 0.5641366 0.5975966 0.59156364 0.58661246 0.31549332 0.31465486 0.3367755 0.26591498 0.27491152 0.56994104 0.7029562 0.6914413 0.7586383 0.09011065 0.041048497 0.7867634 0.08369752 0.75122577 -0.0017333925 0.5309104 0.6604576 0.47630748 0.42074382 0.4636581 0.4561317 0.3748048 0.42373657 0.3998611 0.4054901 -0.21747947 -0.053698853 0.33942825 0.09712648 0.06436376 -0.02486175 0.1788791 0.1902792 0.043462113 0.1296242 0.0100067705 0.24002215 -0.012304641 0.24451514 0.1488439 0.27793658 0.27792484 0.29330623 0.28265145 0.36566067 0.33064318 0.23731375 0.17179923 0.4290342 0.17022805 0.2212451 0.25282356 0.45435873 0.25122458 0.27195162 0.3120706 0.26227745 0.21872187 0.32984623 0.2776622 0.33156842 0.33302045 0.33774605 0.35562423 0.3679495 0.30375436 0.045057774 0.32234973 0.31420174 0.33564794 0.3460092 0.36480108 0.2581358 0.29928157 0.33289886 0.33196414 0.22246136 0.20554575 0.48025817 0.19586867 -0.3535498 -0.6206368 -0.0035321116 -0.030895658 0.13915075 0.4649598 0.5412723 0.5513264 0.37070054 -0.25808972 -0.31864864 -0.54124415 -0.18238173 0.1968705 0.08440846 0.5786852 0.5868795 0.8106892 0.71966255 -0.36774158 -0.40407473 -0.3152805 -0.18763405 0.18883544 0.0720612 0.23047405 0.17095105 0.5673563 0.5990392 0.8282914 0.83976173 -0.10466078 -0.15591507 -0.172627 0.32378036 0.2335075 0.081974596 0.3497177 0.8234383 0.8321644 0.8535681 0.471659 0.33426064 -0.003744021 -0.030701675 -0.039216988 0.28652084 0.5598363 0.8175309 0.8268852 0.7662724 0.60609233 0.54749584 0.21814892 0.07545808 0.12827192 0.25624213 0.21589983 0.4256329 0.5011091 0.6351615 0.61812735 -0.03379322 0.01539611 -0.08702934 0.3544406 0.20801221 0.13237005 0.15068948 0.15520658 0.23457229 0.62290853 0.6686133 0.67525804 0.6417104 0.095064856 0.22487739 0.36062753 0.4269868 0.41757482 0.3634176 0.26388395 0.6671047 0.6678114 0.29459023 0.2647324 0.4034869 0.40277904 0.35856438 0.33526137 0.3937777 0.348246 0.35797077 0.37559584 0.41285348 0.41036254 0.49447536 0.5457417 0.52767956 0.6360947 0.66604567 0.65982413 0.6145367 0.6584319 0.6601648 0.37633884 0.44526285 0.4617644 0.42326623 0.6327177 0.23138385 0.5597015 0.6958792 0.18799135 0.17456393 0.6701788 0.73425895 0.26699525 0.6677019 0.7208155 0.33204332 0.445508 0.62508476 0.44394237 0.44690853 0.3921978 0.43965074 0.46708846 -0.10401186 -0.053233992 0.3465392 0.42168257 0.25089264 0.31319082 0.44022167 0.36791098 -0.2528421 -0.23398349 0.035133608 0.2961022 0.25648168 0.008847814 -0.022674322 -0.2551072 0.023545738 0.21747085 0.18638629 0.1058203 0.12873857 0.20610812 0.29114804 0.27840036 0.28901076 0.36457837 0.2629909 0.4773795 0.20995016 0.25771162 0.4562219 0.25990552 0.2360775 0.3855952 0.22015612 0.2754751 -0.014209792 0.07969575 0.30875543 0.30244708 0.31446028 0.31678632 0.19843093 0.12958841 0.33119678 0.33219704 0.34130192 0.2936588 0.18680853 0.21140459 0.18001513 0.3288024 0.14803952 0.4789869 0.4934603 0.14853501 0.13926946 0.54986066 0.57957834 0.4906664 0.25933123 -0.49945885 0.6093241 0.68492365 0.8045643 0.8239856 0.7316138 0.5860987 0.48172033 0.4168529 0.2084838 0.61995983 0.6470626 0.7192414 0.84574753 0.78950024 0.68776524 0.25317058 0.018840462 0.12049028 0.5964334 0.666956 0.852108