# vtk DataFile Version 2.0
Really cool data
ASCII
DATASET POLYDATA
POINTS 4063 float
4.265155 15.820143 78.01219
4.2165685 15.676675 78.54543
4.2962413 15.725535 79.06515
4.3001413 16.323803 77.99128
4.1766677 16.257664 78.53791
4.2709904 16.300322 79.03343
4.394197 16.779127 78.64923
4.746068 15.214612 77.81143
4.6017895 15.106383 78.56644
4.833542 15.0850115 79.17414
4.5516553 15.533344 77.73618
4.6047993 15.40227 79.273735
5.0722075 15.768824 80.043915
5.1868243 16.367266 76.96064
4.5306015 16.389746 77.611374
4.4784517 16.381603 79.36922
5.1391363 16.360235 80.12542
4.6239963 16.959581 77.92193
4.8861113 17.351477 78.538
4.952057 17.278214 79.233116
4.981107 16.830507 79.74101
5.1995096 17.753353 78.71506
5.2541695 17.762737 79.24713
6.095017 14.437448 78.88581
5.8644724 14.438724 79.050385
6.283046 15.038523 74.97418
6.2442966 14.992399 75.482765
5.2172995 14.798506 77.9766
5.558478 14.669451 78.56003
5.409996 14.779589 79.264275
5.770561 15.017121 80.243546
6.1152906 15.700976 74.72388
5.9231105 15.468449 75.38784
5.505655 15.689182 80.49028
5.9085245 15.583719 80.78348
6.141845 16.73219 74.02467
5.828187 16.656422 74.58257
5.7143817 16.470858 75.33527
5.431905 16.329834 80.46243
5.8805223 16.509014 80.825294
6.1422505 17.39962 74.03048
5.879533 17.414686 74.53674
5.783867 17.374537 75.172646
5.6705127 17.606163 80.03835
5.9592843 17.203691 80.65752
6.2474375 17.887552 74.158264
6.1235576 17.960476 74.57695
6.1174164 18.040598 75.31282
5.4936337 17.699673 77.45152
5.5620384 18.049097 78.44591
5.771989 18.26098 79.54602
6.0104446 18.21945 80.123695
6.083603 18.78674 79.00943
6.212723 18.782576 79.18738
6.919991 14.447214 75.21143
6.588289 14.384389 78.50201
6.686668 14.333501 79.488655
6.645826 14.904379 74.72956
6.621739 14.674271 75.312996
6.659095 14.570556 75.951294
6.5615005 14.7189865 80.33423
6.931847 15.816785 73.8259
6.405091 15.517294 81.05523
7.2402315 16.068335 81.68927
6.520606 16.500223 73.76157
6.6651106 17.502462 73.67676
7.162749 17.809792 81.414276
6.6376295 17.957062 73.91462
6.5747323 18.322123 74.517265
6.4664435 18.39002 75.16025
6.5893855 18.397562 80.56312
6.9858117 18.320642 81.01214
7.042327 18.597328 74.63899
6.9696045 18.708752 75.194405
6.917339 19.242208 77.56596
6.8425417 19.273365 78.633736
6.7208834 19.115276 79.2866
6.744765 18.810974 80.24255
8.3215475 11.675652 59.608833
8.252997 11.854901 60.340733
8.346923 12.598104 58.942524
8.197156 12.454872 59.56329
8.186872 12.502806 60.599392
8.327833 12.517079 60.895267
8.30237 13.561611 59.022945
8.322043 13.424042 59.629494
8.297661 13.22943 60.308666
8.277548 12.883342 60.909355
7.4724092 14.407669 75.74366
7.4585414 14.429693 76.1208
7.121965 14.300608 79.130424
7.249216 14.854805 74.389694
7.366767 14.523334 77.9683
7.175913 14.4754925 79.82076
7.510307 14.792407 80.50646
7.4330673 15.130507 80.80418
8.393524 15.726763 54.345352
8.438956 15.657816 55.411312
7.370392 15.700611 73.67416
7.868146 15.453863 81.63798
7.6256485 15.777944 81.74459
8.46179 16.144554 54.071217
8.404451 16.37322 54.462093
8.352555 16.093164 55.335533
7.7162285 16.625736 73.3827
7.249974 16.180784 73.4716
7.7242136 16.47317 81.97912
8.30664 18.139793 51.120647
8.460924 16.934425 54.76556
7.431091 17.299433 73.478294
7.7782335 17.563295 73.563126
7.7746067 17.275288 81.9003
8.207489 18.862633 50.661224
8.082345 18.861124 51.488434
8.281191 18.591253 52.033386
7.2470045 18.186745 73.85742
8.088176 19.489508 50.720943
7.9858766 19.275127 51.495037
8.447504 19.83953 55.437702
7.614559 18.908567 74.83103
7.9222565 19.258709 75.30798
7.309845 19.396196 77.430214
7.227671 19.433071 78.527695
7.177294 19.256428 79.79723
7.2016873 19.022343 80.355095
8.092604 20.747835 50.84324
7.8782196 20.791447 51.51543
7.9209347 21.032516 52.516308
8.346075 20.728924 54.973385
7.8476906 19.622942 77.48139
7.7037034 19.548178 78.38333
8.00314 21.461374 51.045753
7.923669 21.676899 51.525517
7.880807 21.851753 52.13783
7.828451 21.814331 53.374317
8.098709 21.702925 54.578823
8.230221 22.075304 50.945118
7.9961567 22.142433 51.724873
8.01605 22.353207 52.539158
7.9115386 22.44512 53.457954
8.029882 22.380938 54.335224
8.2527075 22.250656 54.887398
8.243983 22.983255 53.051353
8.087592 22.907421 53.58399
8.159341 22.820162 54.258076
9.112122 10.556701 59.074276
8.699482 10.97313 59.65068
8.692893 10.837519 60.37008
8.92428 10.834907 60.95082
9.05878 11.804324 58.237526
8.740423 11.860907 58.528786
8.510591 11.389021 60.77238
8.648988 11.707936 61.14795
9.052889 12.518216 57.957504
8.59743 12.348463 58.61957
8.675356 12.543947 61.335674
9.176429 12.56532 61.751335
8.8938465 13.471667 57.59276
8.456878 13.394848 60.416626
8.615125 13.150134 61.050907
7.956089 14.470724 79.320244
8.935067 15.0990305 53.85063
8.757174 15.020514 54.4573
8.801971 14.937697 55.094482
8.921479 14.481077 56.737465
8.798495 14.347608 57.400322
8.756836 14.495792 58.615498
8.707151 14.321838 59.47356
8.826286 14.067137 60.355812
9.050992 13.933506 60.79885
7.9944625 14.927631 74.30883
8.358726 14.564667 75.69615
8.261325 14.667442 77.9167
8.155068 14.525886 78.37224
8.505445 15.004546 81.38503
8.999779 15.786147 53.22285
8.721395 15.413968 53.842987
8.507689 15.288854 54.88446
8.525321 15.454924 55.545994
8.70609 15.349049 56.70778
8.910903 14.730539 58.73179
9.191071 15.045796 59.34073
9.21559 14.6987915 60.049
8.295558 15.929628 73.3961
8.735726 15.47042 73.81963
8.790406 15.685395 82.11285
9.212805 16.799084 49.715725
8.949046 17.14101 50.012737
9.265535 16.940844 51.956024
8.618851 16.163504 53.584618
8.740411 16.063086 56.57623
9.280137 16.416393 57.35564
8.50474 16.97922 73.19522
8.706077 16.54645 82.4212
9.033886 16.80865 82.62657
9.201482 17.249016 48.739185
8.642191 17.772614 50.787235
8.875011 17.348053 51.64447
8.58755 17.327543 54.63115
8.540275 17.525341 55.233456
8.650478 17.367075 73.17714
8.8393545 17.226744 82.40296
9.193401 18.920788 48.15026
8.881139 18.049295 49.08342
8.792105 18.08153 55.152126
8.931334 18.832458 56.166912
8.53392 18.241432 73.63589
8.2855425 18.30532 81.9289
9.202372 19.141558 48.049725
9.126003 19.580225 48.594868
8.538817 19.679176 50.102165
8.605642 19.242882 54.858166
8.546497 19.418676 55.116905
8.861555 19.565176 56.278183
9.016279 19.345196 74.525345
8.551108 19.617086 75.30254
8.439177 19.435678 79.17597
8.643001 19.254478 81.07513
8.783336 20.023022 49.663017
8.645866 20.859268 55.743904
8.951289 20.497665 56.349106
9.359088 20.8282 56.865288
8.968604 19.88516 74.84244
8.735536 19.960358 75.783615
8.914699 19.999609 76.33525
8.597681 19.639183 77.561844
8.637385 19.715645 79.770935
8.720215 19.610798 79.97208
8.88647 21.343645 50.06484
8.433136 21.821873 50.53784
8.580816 21.631016 55.26261
9.084108 21.446367 56.299862
9.122825 22.13972 50.125725
8.585989 22.398066 50.724834
8.432835 22.677433 51.40756
8.478596 22.488056 55.078033
9.3004465 22.397476 55.97187
8.958016 22.921656 50.937145
8.935864 23.143974 51.508564
8.626742 23.197144 52.663074
8.664577 23.392124 53.74059
8.839057 23.229195 54.440876
8.664743 22.986816 54.9164
10.345174 6.67915 56.5961
10.152389 6.8357224 57.387608
10.185789 7.1362534 58.413113
10.106516 7.6363997 56.68502
9.943389 7.578141 57.57484
10.043872 7.464545 58.390186
10.1120825 7.917442 59.249096
10.256987 7.6111712 60.328712
10.29772 8.199133 61.24607
10.306055 8.441255 56.655907
10.001292 8.476082 57.82555
9.968759 8.160074 59.919388
10.000686 8.31245 60.5925
10.10149 8.611779 61.269848
9.4909725 9.485548 60.471573
9.564132 9.657181 61.43931
9.977458 9.620378 62.308033
9.521967 10.472287 61.526875
10.389769 12.002358 69.230675
10.0589075 11.585756 75.48732
10.211079 11.514928 76.37847
9.945945 12.57219 57.20402
9.898574 12.336195 62.160763
10.255029 12.642723 68.72041
10.225915 12.483724 69.3999
10.327298 12.64272 70.35126
9.909109 12.13055 75.426605
9.816575 12.552753 76.29458
10.358575 13.173754 78.512665
9.636905 14.347094 54.57183
9.795674 13.764677 55.791798
9.875581 13.660449 56.672737
9.413071 13.333399 61.528168
9.326745 13.093155 61.63537
10.011904 13.824344 67.63568
9.874155 13.666535 68.5597
9.980242 13.463146 68.988335
10.359314 13.637099 74.09536
10.232856 13.365554 74.77826
9.541092 13.825785 76.309875
10.327582 13.4739895 78.92101
9.550607 14.255525 79.282005
10.203115 13.893125 80.23884
10.201534 15.212286 52.63711
9.795045 14.508242 53.95848
9.482437 14.332981 60.80979
10.28162 14.545429 67.06685
9.9908695 14.605531 67.66143
9.866496 14.528757 68.45784
10.065689 14.226583 69.4019
9.553976 14.539069 80.591675
9.932645 16.309454 48.77437
9.829559 16.16347 49.974552
9.867697 16.158895 51.65646
9.551787 15.705278 52.97688
9.64348 15.269904 59.62279
9.682337 15.015566 60.2064
10.012991 15.360635 67.7056
10.088466 15.357495 68.25458
10.427382 15.391729 69.413284
9.536923 15.539599 73.74398
9.468612 15.8722515 81.9779
10.148831 16.90771 47.858868
9.744136 16.678986 48.538643
9.518259 16.515594 49.404457
9.404124 16.557663 50.120884
9.494203 16.645742 57.401936
9.774666 16.21401 57.968647
10.234561 16.652964 66.85629
10.055809 16.682482 67.29799
10.176071 16.46184 68.24016
10.316926 16.381495 68.81949
9.179489 16.767878 73.05639
9.422957 16.885681 82.7713
10.002706 17.905304 47.149673
9.885672 17.503191 47.603134
10.036012 16.87514 57.558178
10.203849 17.029089 57.836796
10.211326 17.357548 66.96352
10.140473 17.496689 67.4984
10.312503 17.430458 68.3675
9.560624 17.559118 82.973946
9.95623 18.51197 47.02517
9.622155 18.388107 47.30181
9.340963 18.890457 56.787327
10.310182 17.908752 67.46084
10.381137 17.851686 68.01453
9.108059 18.422028 73.58571
9.70577 18.253445 82.90056
10.05451 19.275002 47.053383
9.546122 19.53337 47.717804
9.875619 19.794464 57.26483
9.410067 19.398664 81.453255
9.651681 18.989143 82.31746
9.500452 20.139622 48.371307
9.634149 20.612858 57.148373
10.049941 20.067797 73.85188
9.869821 20.672358 74.56911
9.2079935 19.765692 80.74541
10.07196 19.868282 81.63094
10.131983 20.577744 48.267864
9.296484 21.034817 49.5456
9.784669 21.233446 57.062294
9.935006 20.84662 74.85819
[...]
POINT_DATA 4063
SCALARS features_00 float 1
LOOKUP_TABLE default
0.79091954 0.8060714 0.7990588 0.74865496 0.7643329 0.75055695 0.6939 0.7601928 0.80338514 0.7920027 0.7729594 0.8008466 0.71938163 0.585543 0.7113359 0.72186637 0.65596384 0.65331805 0.5868753 0.5851917 0.6266007 0.51321507 0.51304007 0.5504207 0.6041992 0.6163054 0.5452744 0.67454505 0.652707 0.7162112 0.68262374 0.6825925 0.5636517 0.66635 0.62005985 0.7201543 0.7028488 0.60216504 0.6252867 0.5630282 0.67280483 0.6594641 0.61394733 0.51065826 0.52509046 0.62324005 0.6048492 0.5254649 0.46534285 0.4490717 0.45438242 0.4587134 0.40072772 0.39997375 0.5454586 0.42354006 0.49217942 0.6168373 0.56172496 0.44018924 0.56831133 0.67218447 0.5692449 0.45336303 0.7108915 0.656944 0.4635768 0.60990006 0.5448092 0.47248137 0.44344532 0.4401663 0.46822518 0.37382132 0.24176493 0.30692983 0.35367304 0.4091035 0.56255007 0.56743336 0.5528356 0.58992565 0.5742558 0.56868327 0.53357494 0.5519188 0.5534266 0.5578789 0.40391523 0.30867514 0.41483116 0.6196357 0.28376716 0.45175007 0.42717695 0.45521775 0.39404392 0.3614673 0.6096036 0.39983794 0.426073 0.38208067 0.36688387 0.3404197 0.56800586 0.61707497 0.4238769 0.26316565 0.32840252 0.60590357 0.56245136 0.4392621 0.33202696 0.31503958 0.26655585 0.5506021 0.33980972 0.33029744 0.29620942 0.35810792 0.22601457 0.1879394 0.26224342 0.33586848 0.37351438 0.4094094 0.40805453 0.4201765 0.3043123 0.16102418 0.21782956 0.46264908 0.47962144 0.48633736 0.45564428 0.36624074 0.5053282 0.5052004 0.5021918 0.48024604 0.42505038 0.36613142 0.5053892 0.4866503 0.44315413 0.40280643 0.48782673 0.45109645 0.41872138 0.37854743 0.47150433 0.52383804 0.5395695 0.37493667 0.50227034 0.54961187 0.5072021 0.3608989 0.53784955 0.5318014 0.2979187 0.42628998 0.4251379 0.411577 0.33176666 0.34277037 0.4294386 0.46831995 0.48449615 0.4773407 0.58128786 0.2921425 0.19176833 0.22266719 0.3077909 0.3718239 0.41207397 0.40095377 0.3689928 0.35087562 0.3987158 0.37708408 0.42884773 0.500446 0.45981658 0.35325006 0.3524416 0.29581466 0.13597436 0.36813974 0.3728289 0.2077556 0.49611187 0.3893599 0.39317268 0.4942143 0.24279353 0.16250633 0.29450798 0.24536017 0.47798133 0.40457076 0.5885809 0.44520336 0.22155571 0.28290677 0.4337364 0.4376198 0.6009857 0.47129887 0.34165472 0.20986204 0.2540704 0.32630467 0.24619287 0.20984358 0.2012898 0.3025464 0.34219587 0.30383325 0.31923014 0.31334516 0.2333342 0.17940892 0.14605771 0.13010766 0.20712355 0.21425045 0.44519714 0.48759636 0.31162292 0.28561717 0.5118654 0.53102964 0.54152477 0.3501529 0.26915705 0.5699284 0.5784659 0.51756567 0.46569538 0.41852477 0.37574735 0.5561286 0.4958918 0.39495474 0.5127825 0.47274715 0.39254808 0.2822562 0.24438938 0.23320986 0.45676082 0.43798068 0.21989577 0.2140427 0.23391077 0.23752618 0.26915014 0.31245434 0.33414477 0.3215708 0.39523733 0.2968163 0.18084762 0.38150796 0.37136543 0.3433421 0.31476444 0.39633477 0.257406 0.115955584 0.43660215 0.28122735 0.20313571 0.46316805 0.47610018 0.45292005 0.43211865 0.39921635 0.016147632 0.22328825 -0.01955802 0.12796462 -0.0366016 0.12143579 0.3587603 0.4482664 0.42899308 0.405407 0.46485025 0.42982382 0.34223902 0.076121755 0.52518404 0.34935486 0.23971099 0.3537596 0.31512535 0.36307162 0.45928884 0.41107452 0.24329591 0.28773043 0.32846588 0.6334027 0.54620564 0.41356438 0.30960405 0.1696673 0.13639256 0.48687583 0.49291596 0.40370998 0.31748536 0.41347915 0.38840026 0.70766807 0.6481925 0.079182655 0.019996107 0.493292 0.47709414 0.38809413 0.42795122 0.7559402 0.71181524 0.29958746 0.45453772 0.4058602 0.31501314 0.43275362 0.7881127 0.6798564 0.3269661 0.2875794 0.37282848 0.52872944 0.31783587 0.19553852 0.2363412 0.22065802 0.25718787 0.6020149 0.3987656 0.28959078 0.23777196 0.23789984 0.52483475 0.24962872 0.23806745 0.55546016 0.6029975 0.55005354 0.3184563 0.23591545 0.74781334 0.6881126 0.66019964 0.76473737 0.690032 0.6513845 0.5890137 0.5015677 0.7948688 0.66239786 0.5894207 0.3741636 0.3117305 0.26959926 0.2708956 0.2383582 0.73576844 0.602582 0.23709328 0.2309173 0.52592665 0.2551765 0.24687016 0.39296997 0.34805375 0.27088273 0.23410684 0.22951517 0.1911698 0.15295805 0.3564652 0.23543851 0.19648874 0.30963454 0.3687175 0.29091233 0.2055144 0.17047325 0.2063901 0.29833257 0.24570674 0.13926537 0.3370781 0.16128924 0.112907276 0.21396858 0.12278284 0.21511416 0.2666741 0.34466085 0.3520577 0.15664956 0.11404295 0.23132052 0.2571481 0.27736393 0.36916065 0.3278383 0.25483257 0.28807446 0.056332573 0.20326772 0.2647456 0.30186456 0.38667068 0.35070503 0.34509715 0.24240975 0.114002556 -0.25616768 -0.16100842 0.6929779 0.63386333 0.36735588 0.29207218 0.26385763 0.3672083 0.06693389 -0.04668379 0.69207245 0.6876267 0.38569188 0.46066543 0.23479101 0.38169444 0.72097087 0.44328085 0.4835347 0.24952596 0.08925661 0.42903006 0.7902918 0.42336398 0.44442558 0.39525643 0.33380157 0.017326515 -0.009043373 -0.086716115 0.43882775 0.82483685 0.2728419 0.27224904 -0.0040623546 0.12616242 0.3331576 0.400717 0.7935537 0.7318393 0.2808144 0.17604354 0.12540412 -0.05628274 0.07093728 0.13235757 0.28313407 0.53580654 0.39688087 0.22327942 0.2019414 0.2143746 0.21429801 0.18389001 0.47570658 0.4687141 0.19271465 0.19211939 0.4704153 0.54197586 0.51873684 0.5304153 0.13107799 0.12446273 0.32303032 0.183453 0.18359235 0.13133 0.43643257 0.3113242 0.4340367 0.4379555 0.68653816 0.5372543 0.4977721 0.7797823 0.7996513 0.68810195 0.6183268 0.8716574 0.8763838 0.7987107 0.91230416 0.87693274 0.795429 0.73222876 0.64951473 0.54030704 0.9147194 0.86298025 0.5165172 0.28414717 0.29458684 0.3176417 0.48810974 0.49983656 0.9049561 0.840772 0.2816085 0.25956428 0.14999497 0.24082947 0.36272845 0.38068986 0.44027358 0.8866762 0.8022329 0.27901348 0.27344704 0.21181704 0.8649093 0.7574835 0.04432176 0.17764537 0.17656437 0.20852426 0.23474383 0.21858822 0.42459297 0.07792194 0.14893302 0.16144538 0.23416337 0.18662205 0.12333926 0.17117503 0.24146165 0.28602248 0.029407576 0.016437765 0.081902504 0.13622153 0.16822207 0.20119515 -0.050348915 0.09014496 0.099961326 -0.005038403 0.24496979 -0.0028229207 0.37818366 0.26784763 0.18557945 0.18085587 0.3274032 0.3657232 0.26230997 0.26525566 0.046929695 0.17756468 0.23592108 0.23532204 0.7182579 0.73300195 0.35017425 0.00946448 0.22195354 0.20354807 0.7165828 0.71211475 -0.14637864 0.28764072 0.7306656 0.34818804 0.32991987 0.7785511 -0.116483584 0.40873757 0.3918854 0.06515554 0.78851104 0.079511635 0.29673243 0.18248254 0.0058983597 0.006406039 0.0045361426 -0.05377438 0.4014225 0.78137565 0.71920466 0.18301116 0.54746866 0.47480193 -0.035541978 0.631134 0.64736104 0.6295504 0.61684424 0.5893265 -0.0103521645 0.09919441 0.15279408 0.057299405 0.57447684 0.6270069 0.18166624 0.68849254 0.69437325 0.65780413 0.6075508 0.17528911 0.12242647 0.15079923 0.16801012 0.1424818 0.4419275 0.5731142 0.6193675 0.64725614 0.46147975 0.54718095 0.27306062 0.688743 0.6413708 0.5847481 0.4920817 0.5796962 0.10905796 0.1720016 0.2730271 0.3102736 0.13353905 0.15741879 0.2277966 0.47553414 0.44658867 0.36097896 0.21085921 0.26363003 0.53977764 0.5356752 0.38321695 0.41303462 0.7029936 0.48588943 0.50162244 0.7952248 0.8236778 0.6064936 0.6299311 0.8822619 0.88821 0.820557 0.7673088 0.9425258 0.958598 0.9341059 0.8886721 0.8278239 0.8433968 0.80645216 0.7370126 0.6475026 0.47357187 0.50295407 0.5404609 0.5752723 0.57866085 0.9289602 0.8905539 0.39302948 0.21548373 0.23868571 0.3250013 0.27733403 0.3654238 0.545608 0.55037594 0.49482474 0.9871647 0.21245009 0.4124714 0.97341883 0.1912796 0.22174957 0.4092607 0.43324256 0.86966515 0.18573445 0.18345791 0.16946907 0.27187675 0.3062964 0.80022573 0.5807576 0.048735023 0.2873092 -0.058607593 -0.10983747 0.10861276 0.13230105 0.19951437 0.20245859 0.013495855 -0.22650984 -0.008171849 0.22856897 0.26523888 0.4067282 -0.13777104 -0.14184207 -0.43540943 0.43845308 0.5060059 0.2573291 -0.3864952 -0.21633312 -0.22786584 -0.08456302 0.3553964 0.7188341 0.7187996 0.6673966 0.34564367 0.21127594 0.21452357 -0.16773604 0.2056893 0.7114099 0.70978177 -0.1496164 -0.3597136 3.6753714e-05 0.23792401 0.7015039 0.65958464 -0.2802502 -0.054242995 -0.09972518 0.06418225 0.25065273 0.69687736 0.6217642 -0.33551902 0.7208531 0.6591035 0.09583629 -0.034290954 0.5216229 0.67739236 0.62901264 0.46270764 0.24703172 0.18760319 -0.020446949 0.6292492 0.12531579 0.0116349235 -0.09431829 0.49587032 -0.07790343 -0.07160363 -0.12185659 0.66186506 0.0835971 0.2896996 0.6735703 0.48705345 0.37525696 0.0675426 0.087206885 0.06561895 0.07082917 0.092242375 0.6437923 0.67076886 0.17473955 0.32682788 0.66670096 0.64769614 0.59302783 0.53466666 0.37463236 0.06530468 0.04788255 0.058404155 0.2377507 0.4661269 0.5809183 0.6248826 0.28099394 0.30356395 0.5882348 0.593455 0.5052393 0.2497541 0.29120624 0.59546125 0.39112413 0.6810799 0.511912 0.8194692 0.6238488 0.8876065 0.7708982 0.714393 0.9473773 0.98826075 0.9724146 0.9028264 0.84061193 0.9489044 0.93852293 0.58810955 0.59789705 0.8269647 0.79027116 0.7002739 0.5889041 0.47905946 0.41090026 0.51888263 0.5639133 0.60421515 0.5828624 0.54368407 0.91831243 0.85698557 0.79580593 0.46248594 0.21295339 0.119602464 0.22024404 0.46588045 0.9780051 0.18528436 0.43534186 0.49974483 0.4973192 0.9768772 0.90090704 0.22382751 0.19693914 0.3588965 0.44451088 0.47458616 0.480241 0.8959279 0.8405286 0.1612089 0.3848055 0.3459891 0.79068995 0.16100532 -0.09087859 0.06886322 0.107833154 0.18479079 0.29457954 0.020501038 0.33339703 0.52034265 -0.09327422 0.5439747 0.51541024 0.55687976 0.17957258 0.49999553 0.68471986 0.41786414 0.16289389 0.21266796 0.6756083 0.6462477 0.17408237 -0.16916285 0.22503221 0.5898543 0.57960427 0.40298724 0.31685978 -0.021300873 -0.16080686 0.23952115 0.5618337 0.507599 0.4148248 0.27518716 -0.1898765 -0.37523186 0.11789471 0.08933181 -0.04080897 0.37833008 0.6093533 0.55719954 0.40018624 -0.023836963 0.16636139 0.19141226 0.19777004 0.5429059 0.11774737 0.09577805 -0.3550169 -0.53393584 0.074964315 0.10729389 0.20608342 0.19447732 -0.040271755 0.63139856 0.00915266 -0.1069276 0.21027726 -0.12521476 0.67264855 -0.08132384 0.2869208 0.16598561 -0.22253425 0.6702712 0.6807246 -0.0718151 0.33062664 0.32758504 0.5676597 0.21850905 0.031781733 0.02041474 0.009750456 0.022870436 0.09195388 0.11458483 0.04174243 0.05492279 0.24041305 0.39189267 0.56192744 0.6361481 0.18219964 0.3325838 0.33884525 0.50661707 0.46494573 0.43645006 0.2259928 0.21022044 0.23933908 0.12694858 0.19267543 0.17776677 0.1264421 0.27768767 0.3566733 0.27723533 0.20735595 0.5775575 0.46102148 0.6925184 0.49931514 0.7464142 0.65666455 0.8565865 0.87460554 0.77683973 0.914259 0.9525999 0.9501054 0.9053227 0.85289943 0.9602457 0.55212677 0.61136544 0.6506665 0.4393154 0.50625473 0.60813314 0.5337423 0.8310112 0.7431787 0.07112633 -0.011851542 0.43482774 0.8319384 0.7615653 0.13241538 0.17893487 0.14429393 0.21916693 0.40313926 0.48680484 0.5044533 0.49095693 0.91711867 0.72878456 0.5359644 0.4744999 0.44588998 0.34259194 -0.042688586 0.207908 -0.03812715 0.15560159 0.09422098 0.41385078 0.5042864 0.541386 0.5513495 -0.26149175 0.5277289 0.5583659 0.51643604 -0.025846697 0.067754686 -0.048590362 0.09713667 -0.2699474 0.07237676 0.39403826 0.41026345 0.50784093 -0.08088073 0.5553725 -0.15463834 0.14427811 0.5956666 0.6274289 -0.10717103 0.52528334 0.49477202 0.57842255 0.64092726 -0.039133504 0.44563657 0.00066266954 0.09503644 0.34477592 0.3239155 0.18749532 0.15617639 0.2084903 0.21352606 0.22616436 0.36376402 0.27825806 0.31488398 0.30883864 0.26699904 0.21463431 0.21734866 0.22295067 0.22742856 0.25073984 0.39326614 0.259464 0.3804364 0.32282475 0.29838228 0.21947072 0.5053404 0.34393984 0.5558294 0.7432065 0.7020891 0.6047756 0.64546084 0.7887666 0.7997751 0.77243114 0.7632459 0.75036246 0.8934017 0.8734765 0.84925234 0.57812274 0.6226734 0.647117 0.65194166 0.3009094 0.43308017 0.52316713 0.6454531 0.6294708 -0.06735404 -0.008028649 0.17348012 0.50348437 -0.021539787 0.11889648 0.0669956 0.07579252 0.3782565 0.44393694 0.44883794 0.44345564 -0.11625212 0.33553696 -0.16435003 0.11502163 0.29741514 0.30863822 0.16221076 0.26916462 0.20832825 0.14539348 0.39823884 -0.01242253 0.5057679 0.27855945 0.4911902 0.41281444 0.23420584 0.12452959 0.2774836 0.42142054 -0.117686525 0.12441162 -0.11191618 -0.21533777 0.2507567 -0.037753418 0.012266092 0.4163433 0.4417597 0.46968228 0.4863394 0.06469951 0.49362484 0.5104522 -0.16522047 0.41439486 0.4561746 0.51143414 -0.12388908 -0.10953163 0.40041047 0.032237068 0.012513369 0.30927578 0.19318743 0.15974142 0.2210226 0.13392828 0.14901839 0.3702599 0.2236356 0.20111002 0.2791614 0.20714448 0.24961479 0.26932347 0.32311118 0.37725627 0.3105662 0.22448726 0.3620791 0.30978382 0.23856285 0.26069695 0.29325512 0.26545876 0.19449146 0.20684549 0.17473969 0.19975245 0.27268514 0.3885334 0.36777908 0.293469 0.22256604 0.44355434 0.421279 0.38932168 0.45094138 0.65451634 0.5525516 0.5149424 0.68766963 0.7040733 0.6112807 0.6268764 0.44079697 0.53301805 0.58938944 0.6212071 0.6297165 0.08328251 0.3309183 0.59878343 0.23307267 0.19672908 0.018168187 -0.021564879 0.4185955 0.015927836 0.10257228 0.15368406 0.11299153 0.14079213 0.35911667 0.35307705 0.34712487 0.053958282 0.17803988 0.21193616 0.30374056 0.31904328 0.3445952 0.38143635 0.20307326 0.35197952 0.36728087 0.38651747 0.040002897 0.3859693 0.14473648 0.30874267 -0.113614574 0.19500342 0.22542869 0.43574518 0.37296358 0.13635536 0.47765034 -0.06341432 0.41350755 -0.2098112 0.21402255 -0.12532748 0.045431927 -0.0072417147 0.28422657 0.38518697 0.019593772 0.41300797 0.44957837 0.08406635 0.12026638 0.26996687 0.41783226 0.46177027 0.091812566 0.42899087 0.09276063 -0.17747128 0.31431943 0.3558843 0.34235305 0.14747971 0.1953182 0.18068537 0.140638 0.1524246 0.198082 0.41014022 0.13449597 0.0885057 0.321432 0.28102988 0.25773904 0.21260196 0.24733913 0.17420396 0.16087414 0.17086892 0.32575464 0.3901226 0.3125436 0.2752279 0.082339294 0.100170664 0.136191 0.19494653 0.57673067 0.5870488 0.27881357 0.17648125 0.32946616 0.44058597 0.52074015 0.48699158 0.23261544 0.2568979 0.29367572 0.24689296 0.09756492 0.2033351 0.16991566 0.21564081 0.20977244 0.34606606 0.35099083 0.46734035 0.20201814 0.19241858 0.16196977 0.14239198 0.1838556 0.07806787 -0.014812648 0.23656693 0.13196202 0.07084296 0.08571599 0.11668056 0.29447177 0.40042192 0.029996984 0.096844494 -0.033335373 0.008642837 0.4314982 0.4435988 0.22668326 0.4109302 0.16619323 0.32700175 -0.12998626 0.30230418 0.36180967 0.33891684 0.45031762 0.43284255 0.14852205 0.4620647 0.4200528 0.1675494 -0.046854105 0.022681847 0.20129406 0.02132659 0.07971922 0.1437607 0.10238544 0.058016464 0.13856582 0.1421578 -0.05453091 0.116456956 0.0951595 0.06863929 0.27995154 0.05001352 0.16119264 0.09113329 0.3380987 0.31247234 0.07990431 0.09369296 0.21317665 0.21310586 0.3587865 0.15201746 0.21175665 0.3275654 0.311432 0.25897917 0.22525248 0.16271566 0.20424339 0.13652173 0.12086351 0.2883896 0.04099298 0.03442156 0.0810359 0.19366601 0.24506326 0.24263465 0.22347848 0.26898623 0.43181986 0.3855327 0.3399604 0.32885566 0.36520177 0.3410263 0.346969 0.27995074 0.2580616 0.23451672 0.21548218 0.308992 0.21153238 0.11670165 0.2672448 0.012166426 0.03352056 0.2699502 0.45461726 0.5633054 0.06640603 0.12619197 -0.058124375 -0.061846673 0.45709437 0.5552003 0.4877928 -0.15467405 -0.10517516 0.37488312 0.45946962 0.33746618 0.34771726 0.30485523 0.37042344 0.28441963 0.3454013 0.24088751 0.39236104 -0.044138085 -0.1241324 0.09182553 0.07386224 -0.0119140595 0.18153486 0.19909808 0.020046324 -0.06883336 0.12144921 -0.15086266 0.06559038 0.09292827 0.047390632 0.05614532 0.069024086 0.08230504 0.28027207 0.1386469 0.18883923 0.28639188 0.29285908 0.20193914 0.12971742 0.31272304 0.2851831 0.30586702 0.28690076 0.24356696 0.2723108 0.15032893 0.10057118 0.09576008 0.05949494 0.030742273 -0.0063146725 0.64197373 0.045976423 0.03721462 -0.011515738 0.11174882 0.26735002 0.3968724 0.52260363 0.65600276 0.37382913 0.48856336 0.5868633 0.6624294 0.41751647 0.3985744 0.3791569 0.4141277 0.4099263 0.3917074 0.3944472 0.4415503 0.32294917 0.26717994 0.2739303 0.18324408 0.6686387 0.6506041 0.5598379 0.39467672 0.23018466 0.14607209 0.23378888 0.014884055 0.66080725 0.6316774 0.03311367 -0.08991582 -0.06964658 -0.09768351 -0.048105426 0.07113385 -0.009097673 0.58315873 0.110997334 0.50343716 0.18905711 0.111925855 0.064036086 0.2752033 0.29874554 0.12743762 0.25954986 0.26634318 0.17999217 0.22958311 0.31748313 -0.1904068 -0.16786851 0.21707425 0.19415513 -0.15339497 -0.054531105 0.25899792 -0.17194685 -0.019993914 0.26742253 0.22460946 0.07285501 0.27835026 0.25165161 0.062495634 0.18365675 -0.018256186 -0.08541946 -0.07625807 0.029481292 0.009941418 0.116518356 0.09042001 0.14867783 0.1963259 0.18906991 0.20946836 -0.0147338025 0.090258844 0.24264124 0.2926449 -0.028597075 0.27187222 0.2664622 0.29121706 0.4983561 0.6240865 0.0537435 0.7282005 0.097512096 0.046717063 -0.0056518065 0.24221945 0.31723464 0.74180716 0.3237057 0.4613836 0.4935875 0.5379791 0.60851884 0.6826006 0.723066 0.5221411 0.5514012 0.5927361 0.42311078 0.42059666 0.38860047 0.40546358 0.42104495 0.43159613 0.45419922 0.47108027 0.24579854 0.23678271 0.26185003 0.2630297 0.6661851 0.6396195 0.5657287 0.30227682 0.19499612 0.021355584 -0.08592901 0.116275206 0.4003392 0.39505628 0.65763324 0.17938688 -0.015289009 0.15980975 -0.017722458 0.5958885 0.60310876 -0.099641785 0.0099375695 0.109846026 0.11490095 0.113456935 0.5310651 0.23658316 0.43486005 0.3358925 0.20738041 0.20836419 0.17543522 0.19410442 -0.04470249 -0.14483437 -0.04787518 0.09308472 0.14513153 -0.24140109 0.15619308 -0.34154963 0.24022248 -0.14036013 -0.11759206 0.2978604 0.009205215 0.28810698 0.06668663 -0.04224232 0.03625055 -0.109561875 -0.109454796 -0.10279821 -0.13192277 -0.06887636 -0.020508215 -0.052149475 0.030136466 0.013529189 0.13163665 0.20818815 0.16572747 0.08461388 0.032005634 0.011417441 0.05270286 0.59005046 0.21732119 0.34393275 0.7131487 0.48396903 0.6016122 0.66226435 0.7032895 0.5020091 0.5207683 0.54209876 0.5886104 0.36628422 0.39463577 0.44194835 0.21909778 0.22297826 0.45448485 0.6043302 0.46983546 0.13380432 0.3298475 0.34784785 0.3998257 0.46817464 0.4209308 0.21824482 -0.0060084164 -0.13532759 -0.008639321 0.41560623 0.45835596 0.54959935 0.602064 0.5760894 0.4226911 0.34380907 0.30268514 -0.25379896 -0.1371472 -0.122544274 0.5030513 0.55606854 0.50572777 0.5372888 0.035660394 0.07226755 0.0861158 0.1141787 0.08945143 -0.029749878 -0.06602924 0.39258698 0.4686588 0.16081525 0.41832525 0.16694975 0.20509811 -0.12591624 0.025477583 0.17366526 -0.039967287 -0.18519391 0.02143128 0.115416646 0.11379014 -0.20670903 0.12580095 -0.15852925 -0.17177635 0.17756858 0.17300606 -0.018487252 0.24285801 0.08498406 0.030285746 0.0017491728 0.38461345 0.34427124 -0.15996751 -0.11568458 0.42864752 0.35364455 0.3427518 -0.04674511 -0.20962334 0.42674923 -0.19069052 -0.05373028 -0.06010647 -0.11484702 -0.066538975 0.0020526052 -0.004425995 -0.07591462 0.024035156 0.080053315 -0.10760248 0.2037473 0.20211262 0.5269688 0.3379596 0.41178834 0.20914203 0.35597357 0.62056386 0.51194054 0.5797869 0.64547366 0.5626404 0.4496094 0.5635488 0.62586 0.61232305 0.6293695 0.6972853 0.6803209 0.49109256 0.50276196 0.5333768 0.6269587 0.61553764 0.6054366 0.5081226 0.40628535 0.49013713 0.5987433 0.22943115 0.22080392 0.20697775 0.51748747 0.33564067 0.020955898 0.38276368 0.46722448 0.5585616 0.61755455 0.66840947 0.14211848 0.20920883 0.23808046 0.0036664605 0.7828281 0.83710504 0.5204778 0.27883914 0.10070613 0.20642266 0.13699052 -0.08681499 0.78475314 0.84823775 0.484901 0.46503907 0.35171777 0.24508598 0.040314868 0.05598496 0.10043262 0.09996672 -0.007944884 -0.019344635 0.597768 0.79105806 0.40049806 0.38420987 -0.018818855 0.042577468 0.07700827 0.58829427 0.24913761 0.14766502 0.16638765 0.1173952 0.120252326 -0.0026747398 0.10790274 -0.041452453 -0.19420582 -0.029596059 -0.21355149 0.045714483 0.070405506 -0.16891669 0