# vtk DataFile Version 2.0
Really cool data
ASCII
DATASET POLYDATA
POINTS 3393 float
-31.75354 -3.8347697 -3.5119205
-31.77115 -3.7955296 -2.9487867
-31.77331 -3.4267697 -4.0123367
-31.932373 -3.4109542 -3.5180323
-31.959415 -3.204179 -2.5142968
-31.731533 -3.2652383 -1.61029
-31.728537 -2.853579 -4.151979
-31.976488 -2.5868065 -3.3831084
-31.987572 -2.5631475 -2.628026
-31.803415 -2.531805 -1.6906277
-31.673681 -2.0208797 -3.8857806
-31.703016 -1.8819579 -3.4271328
-31.637995 -1.8807462 -1.8178779
-31.266579 -3.84573 -4.2158012
-31.265951 -4.1300397 -3.4063187
-31.362745 -4.007935 -2.578309
-31.277157 -3.7933898 -1.655098
-30.949986 -3.7479608 -1.2341297
-31.363113 -3.4393876 -4.353253
-31.442486 -3.6302495 -1.5714505
-31.22653 -3.228106 -0.9860829
-31.109402 -2.961226 -4.5885677
-31.417095 -2.6443489 -4.3769355
-31.34587 -2.6047978 -0.9731364
-30.823896 -1.9746904 -4.611646
-31.0497 -1.6298046 -4.2218575
-31.44445 -1.4502757 -3.5814328
-31.317457 -1.5315937 -1.7147487
-31.288689 -2.0346231 -1.1539274
-31.056805 -0.8835643 -3.523098
-31.06875 -0.8409842 -2.5585313
-30.897127 -0.7720283 -1.9371808
-30.692198 -3.9826975 -4.113813
-30.608706 -4.216321 -3.4866698
-30.49809 -4.1651893 -2.3960752
-30.60271 -4.003608 -1.6930289
-30.52602 -3.7406383 -1.2011687
-30.589342 -3.1384213 -4.6661043
-30.438353 -3.4943109 -4.4800177
-30.671116 -3.230112 -0.79062617
-30.45528 -2.6532962 -4.7460623
-30.487106 -2.5148659 -0.6802471
-30.109447 -1.5579315 -4.8020363
-30.565727 -1.1972576 -4.430581
-29.921816 -0.93903315 -4.686257
-30.40098 -0.7430514 -4.1965203
-30.589691 -0.47174725 -2.0039737
-30.451464 -0.10555133 -3.1281538
-29.834518 0.19011757 -2.484405
-29.592485 3.5570111 -3.8198507
-29.707901 4.0144897 -2.8486133
-29.80955 4.687975 -4.1773252
-29.929457 4.5461383 -3.6349893
-29.835127 4.5829463 -2.8966212
-29.77756 5.223649 -4.144654
-29.839102 5.361882 -3.5491452
-29.716204 5.5233083 -3.113004
-29.9929 -3.7682092 -4.143591
-29.507309 -3.846396 -1.5429343
-30.079035 -3.1573505 -4.6304507
-29.585157 -3.3988788 -4.2564654
-29.605825 -2.254827 -4.8095355
-29.616488 -1.4854833 -4.887471
-28.846846 -1.7086737 -0.53382957
-29.562841 -0.98033327 -4.7930617
-29.04142 -0.32643726 -1.2926067
-29.69576 -0.340697 -4.2955303
-29.55356 0.30886126 -3.3542244
-29.48741 3.282733 -3.549768
-29.377146 3.5931954 -4.205204
-29.50399 3.6670964 -2.808806
-28.93769 3.2702239 -2.1633635
-29.284422 4.731023 -4.733681
-29.548985 4.562125 -4.4825206
-29.160486 4.1684203 -1.914216
-29.242924 5.245135 -4.7187967
-29.416174 5.516149 -4.482364
-29.49359 5.2175236 -2.4131923
-29.194054 5.21285 -2.0625286
-29.175045 5.9886317 -4.278463
-29.267647 6.298655 -3.5635386
-29.176338 6.18047 -2.6489844
-28.904722 6.2607923 -2.1609888
-28.75879 6.784719 -3.9281483
-28.788675 6.951973 -3.4185271
-28.74336 6.9457703 -2.8135042
-29.05741 -3.6438508 -3.726692
-28.673454 -3.9142325 -2.5344722
-28.034992 -3.7319508 -1.3332156
-28.584438 -3.2029781 -3.9537296
-28.29624 -2.1767256 0.04467526
-28.700317 -1.5876429 -4.732249
-28.438587 -0.7835388 -4.452281
-27.596699 -0.8912791 1.0039874
-28.110846 0.37327003 -1.1604909
-28.836777 3.5692358 -4.5763397
-28.692623 3.5691378 -4.5049524
-28.22731 3.904375 -1.1733804
-28.560694 4.553427 -4.85102
-28.444376 4.2586436 -1.3920765
-27.865023 4.8871017 -0.7484476
-28.633617 5.2902784 -4.841194
-28.54402 5.508829 -1.567287
-28.201378 5.250043 -1.2476544
-28.322803 6.062103 -4.579051
-28.411654 6.291329 -4.4848766
-28.326588 6.383339 -1.7395118
-27.887552 6.3358364 -1.3132752
-28.199265 7.076148 -4.00565
-28.339857 7.3731146 -3.3579767
-28.42766 7.249034 -2.7478895
-28.184309 6.987259 -2.0639577
-27.983416 7.5978127 -2.905855
-27.76724 -3.8588824 -2.4250867
-27.032759 -3.9098125 -0.99792296
-26.910297 -3.9366915 -0.57173294
-27.018646 -3.8599536 0.038911253
-27.128199 -3.5941222 0.32475337
-26.84254 -3.428094 0.88448685
-27.521595 -2.2923844 1.0659823
-28.031311 -1.3772267 -4.5448313
-27.475466 -1.2260224 1.2507792
-27.24538 -0.60134876 1.4695673
-26.929905 -0.61930555 1.8198893
-27.211332 0.34261504 -4.033274
-26.887693 0.59063816 0.4984163
-27.478943 2.8064263 -1.0418398
-27.8558 3.7349813 -4.5850205
-27.651327 4.010089 -4.508427
-27.746904 4.612127 -4.707698
-27.205294 4.2400727 -0.43302947
-27.122662 4.718934 -0.068661034
-27.872057 5.371691 -4.7582197
-27.256702 5.50647 -4.431905
-26.945473 5.3522415 -0.15007569
-27.524553 6.0950203 -4.5576143
-27.651796 6.5052104 -4.4328504
-26.93923 6.6207557 -1.0409462
-27.559216 7.320071 -3.9305925
-27.539026 7.2577915 -1.8837996
-27.600327 7.661742 -3.2528064
-27.395021 7.6492076 -2.6204777
-26.235916 -3.9103262 -1.3141665
-26.674616 -4.017645 -0.49527952
-26.51622 -3.830309 0.27001953
-26.875244 -3.0955822 -3.4134703
-26.22576 -3.0811894 1.4210646
-25.97435 -2.677171 1.893384
-26.308897 -2.2068186 2.0538232
-26.136742 -1.5708687 -3.9465444
-26.241516 -1.5113484 2.297717
-26.265106 -0.7344184 2.1544569
-26.929068 0.036473453 -4.0401144
-26.727436 0.14369884 1.454968
-26.515732 1.1595764 0.42855528
-26.281597 2.5473225 0.071888715
-26.432592 3.5974152 -3.8600204
-25.885647 3.9726253 0.6174247
-26.480883 4.383138 -4.2021794
-26.399014 4.5201015 0.38968363
-26.20898 4.7334948 0.5414596
-26.868456 5.6426373 -4.4616795
-26.35781 5.311898 0.17047876
-26.759901 6.5833054 -4.1339855
-26.281666 6.2303357 -0.6572969
-26.03837 6.00436 -0.21870354
-27.139664 6.952453 -4.2205725
-26.699936 7.5460997 -3.1466942
-26.389597 7.424988 -2.1712756
-26.502708 7.428268 -1.9241055
-26.802597 7.623467 -2.7291121
-26.93115 7.5395823 -2.1734476
-25.71417 -3.9333534 -1.2430912
-25.433636 -4.0316224 -0.6360794
-25.613413 -3.9271913 0.31879213
-25.797058 -3.648206 0.72542965
-25.583126 -2.9828465 -3.1719007
-25.69496 -3.4330914 0.98448896
-25.615614 -2.1351888 -3.747706
-25.557415 -2.2267988 2.1701777
-25.45953 -1.5379952 2.400523
-25.653116 -0.99505913 2.3417244
-25.442467 0.73020375 -4.1723857
-25.636608 0.066132665 1.8559836
-25.250631 1.6027747 -4.1544094
-24.947023 2.3313854 -4.125558
-25.714506 2.3611882 0.5562928
-25.462643 3.751691 0.76799333
-25.43788 4.5153923 0.586483
-25.516651 5.277084 0.32187456
-25.456232 6.202545 -0.60758185
-25.306211 5.80945 -0.13481602
-25.748343 7.1729593 -2.3550773
-25.007349 -3.749967 -1.2902167
-25.022968 -3.8984537 -0.43140072
-24.935589 -3.7762759 0.11187847
-24.660791 -3.0186896 -2.3497872
-24.778284 -3.4638646 -1.6888466
-24.511538 -3.5058987 -0.4001221
-24.727839 -3.5933962 0.37999272
-24.840681 -3.0945692 1.0801862
-24.427069 -2.673703 1.1711795
-24.88089 -2.1525664 1.9899108
-24.748219 -1.2836353 -4.0255213
-24.82436 -1.5635543 2.1798303
-24.346577 -0.34092572 -4.5039215
-24.917936 -0.44828022 2.1268222
-24.33027 0.2243329 -4.600187
-24.765162 0.14856988 1.8066854
-24.450712 1.6448385 -4.0846334
-24.927153 1.0349828 1.4467235
-24.286205 2.690101 -4.1779933
-24.618895 2.5849137 0.764549
-24.162872 3.8632782 -3.7013845
-24.35843 4.5534163 0.46356812
-24.73133 4.2567534 0.63987404
-24.651718 5.103345 -2.9775062
-24.697086 5.2912846 0.04232815
-24.881079 6.12054 -2.4515066
-24.996965 5.9659634 -0.5554496
-24.346418 -2.8791938 -2.250018
-24.012604 -2.4339478 -2.4921339
-24.306244 -2.1975138 1.3562238
-23.866592 -0.9101844 -4.157469
-24.042166 -1.5900617 -3.4615934
-23.454504 -1.4533393 -2.5272582
-23.629902 -1.402699 1.2778622
-23.760723 -0.4512478 -4.432973
-23.685562 0.44050378 -4.578747
-23.890448 0.56720406 1.3792844
-23.550169 1.7436862 -4.2992516
-23.635857 1.4950386 0.84684956
-23.782816 2.1602697 -4.27352
-23.832386 4.2566457 0.32671985
-23.864262 3.8796828 0.5808701
-23.350895 4.6395454 -2.3994846
-24.210491 5.750786 -1.364453
-22.940727 -1.3483617 -2.1784143
-22.980103 -1.2243867 -1.3410921
-23.04962 -0.08561024 -4.2266755
-23.095268 -0.7072095 1.0080731
-22.371618 0.5292734 -4.587621
-22.716057 1.4902269 -4.6392026
-22.753563 1.8407496 0.41247565
-22.797377 2.3268132 0.10735598
-21.652494 3.4888742 -4.9696035
-22.339293 3.1197968 -0.6044748
-23.121277 3.5988994 0.0827747
-21.709442 3.999352 -4.3528867
-23.177525 4.263912 -0.29620633
-23.085854 4.1656756 -0.16772673
-23.261246 4.674903 -2.3447452
-21.582909 6.801529 -6.5284834
-21.665825 7.4856334 -6.4080114
-21.832415 7.8283296 -5.4042196
-21.671247 7.971623 -3.653655
-21.628199 8.355323 -6.259277
-21.97072 8.42601 -5.044224
-22.012125 8.148843 -4.476997
-21.676596 8.508785 -3.32841
-21.870415 9.126612 -5.357284
-22.00303 9.535263 -4.412187
-21.902662 9.418701 -3.8674808
-21.87146 9.86354 -4.370693
-21.868603 9.77022 -4.063981
-21.389212 0.055768758 -4.401692
-21.571411 -0.41085273 -3.3649507
-21.723364 0.33521742 -4.539846
-21.111208 0.6481147 0.190709
-21.086937 2.0187519 -5.3680964
-21.529879 1.4597003 0.33230487
-21.015814 2.9010308 -5.7759795
-21.263344 2.787853 -5.4812126
-20.905035 4.1444063 -6.245351
-21.605692 2.86345 -0.25191516
-20.913652 4.697489 -6.862824
-21.163576 4.505342 -6.2380867
-21.250765 4.036237 -5.1009064
-21.138288 4.965331 -4.4240365
-21.34202 4.1279345 -3.9952314
-20.919275 5.624772 -7.3516645
-21.195265 5.215404 -6.742396
-21.392458 6.081939 -4.4568424
-20.722868 6.496777 -7.6359477
-21.241993 6.625391 -7.1631546
-20.825504 6.719211 -3.0418508
-21.21991 7.5612416 -7.1592216
-21.569702 8.026277 -3.359448
-21.16615 8.181326 -6.9981303
-21.358662 8.590307 -6.4197803
-21.247437 8.360612 -2.9803333
-21.468704 9.146013 -5.9007707
-21.459087 9.701674 -5.481333
-21.560171 9.67866 -3.4127257
-21.277998 9.992556 -5.3634186
-21.421455 10.359891 -4.289481
-21.598118 9.9155445 -3.620002
-20.986645 10.088439 -3.136416
-20.787529 13.010986 0.030004099
-20.939142 13.152923 0.49228436
-20.917402 13.781406 -1.3762072
-21.198904 13.817305 -0.42761365
-21.362492 13.830237 0.3980906
-21.116505 13.782619 1.2535275
-20.772005 13.766325 1.6408894
-20.647842 14.325288 -2.1234655
-20.93606 14.330421 -1.3742138
-21.227072 14.370416 -0.44220102
-21.338879 14.51816 0.5298392
-21.159985 14.349722 1.2531261
-20.767256 14.40992 1.679719
-21.048067 15.006586 -0.31900913
-21.070866 15.134224 0.5673734
[...]
POINT_DATA 3393
SCALARS features_00 float 1
LOOKUP_TABLE default
0.9761145 0.9626009 0.9356992 0.962136 0.94049287 0.8623507 0.86816716 0.8881908 0.92049026 0.87873113 0.7722517 0.7827742 0.80936974 0.9011692 0.95893157 0.8998798 0.8193747 0.78311044 0.88629377 0.8330159 0.8082313 0.81163764 0.81153154 0.8269501 0.70328164 0.6940248 0.71775246 0.7449739 0.79531425 0.67523926 0.6885635 0.6486131 0.8441657 0.89379156 0.7688006 0.72689843 0.7350074 0.77811176 0.7869543 0.75826573 0.73011863 0.7141931 0.6307032 0.6446138 0.6018404 0.6247034 0.6140569 0.6588714 0.62414634 0.8768806 0.77665275 0.8701244 0.8641778 0.7853666 0.8659178 0.8574727 0.81621826 0.73169965 0.550153 0.7259278 0.67670727 0.62722903 0.5886402 0.31843585 0.57915497 0.4006716 0.60131925 0.65155154 0.84843695 0.87005126 0.7595482 0.53534305 0.81985027 0.85432875 0.5502311 0.8149668 0.8402592 0.6759661 0.5929224 0.83551383 0.84411347 0.73565304 0.66678137 0.8475381 0.8418002 0.78606945 0.6239569 0.4736456 0.33915585 0.53828615 0.39307624 0.5229937 0.45855558 0.45029235 0.0836834 0.8060988 0.788463 0.38297278 0.73226875 0.4286356 0.4115097 0.7393142 0.51217234 0.45473486 0.7446255 0.7712721 0.6241178 0.56988037 0.8439776 0.84911627 0.7955215 0.71986735 0.813906 0.332928 0.41559857 0.46013138 0.4903235 0.5109893 0.56933206 0.5923171 0.40895784 0.5294511 0.51640695 0.57053006 0.14806785 0.2469854 0.2958322 0.6054753 0.5682574 0.6024458 0.36735204 0.42927742 0.6484115 0.58901423 0.48849893 0.67457664 0.7287823 0.575595 0.85541 0.70285535 0.8327253 0.7675356 0.46466923 0.48483545 0.5326716 0.38989675 0.615095 0.65953434 0.6960294 0.3143681 0.6824503 0.62639093 0.19735907 0.48104256 0.18199319 0.22044653 0.26097807 0.43508434 0.40226716 0.45717144 0.4852366 0.56060314 0.5091753 0.6973049 0.5289957 0.5217545 0.775314 0.7503924 0.65526366 0.6507547 0.72414184 0.70193905 0.5054357 0.5366442 0.55618405 0.56657934 0.3701348 0.5811546 0.34166235 0.6766552 0.6758516 0.6488706 0.19398725 0.5235687 0.14473367 0.09162957 0.27954626 0.43334776 0.48676157 0.5106242 0.52390367 0.51958025 0.5839858 0.50246745 0.5449022 0.56618047 0.3685844 0.45189965 0.51164836 0.5745326 0.5981697 0.59180796 0.64996535 0.34320462 0.6523449 0.2702745 0.56452835 0.2365828 0.45158407 0.17334643 0.29089397 0.12859638 0.31678826 0.20654659 0.45804322 0.460279 0.43473142 0.49141246 0.5628866 0.5194609 0.35603133 0.33355242 0.59341 0.2864512 0.35167325 0.2994088 0.57372636 0.24203734 0.19955231 0.31014502 0.16814566 0.13781594 0.15852512 0.39810067 0.35129553 0.4431627 0.5177498 0.23818702 0.22616932 0.18238655 0.47787124 0.14525262 0.11862922 0.09268767 0.1349656 0.31695044 0.17567192 0.2706839 0.18685174 0.34125262 0.33149442 0.44238847 0.50953865 0.52832043 0.5677468 0.6517346 0.5381828 0.64856315 0.6894054 0.68184245 0.6287593 0.7052921 0.7052506 0.7005615 0.7064601 0.15466744 0.18838876 0.122392714 0.18882328 0.21311387 0.13829659 0.30585393 0.29611737 0.35019892 0.10883311 0.38439798 0.34764877 0.32865977 0.16764799 0.14547646 0.4802543 0.39758906 0.34723574 0.5336187 0.52306956 0.37865916 0.5292351 0.6365897 0.51587373 0.52347434 0.621392 0.54980356 0.60234445 0.69281745 0.612597 0.6876397 0.6971747 0.6934661 0.8235974 0.8736422 0.5456153 0.7709307 0.8817096 0.8954967 0.8669642 0.3582924 0.54001665 0.76973546 0.86483395 0.869223 0.83760023 0.7644814 0.7991973 0.7982509 0.60553336 0.62768316 0.59570867 0.617432 0.63580525 0.39491472 0.20194604 0.40687126 0.27815908 0.23380089 0.18710658 0.18131176 0.25413832 0.3314122 0.30725858 0.4533862 0.43980128 0.5038592 0.47495353 0.53168356 0.5295986 0.26176417 0.5008827 0.2182845 0.46010953 0.47026622 0.48765382 0.47454345 0.4701764 0.65439945 0.42722255 0.55238163 0.68569416 0.64855474 0.6475722 0.40311205 0.5473206 0.79199255 0.83585507 0.8557654 0.33240354 0.8318455 0.3168031 0.81899476 0.15677617 0.7469235 0.76934195 0.2716955 0.3241623 0.2199443 0.48648858 0.5538834 0.6287236 0.65431553 0.4582263 0.5120094 0.5379378 0.5404557 0.24109437 0.12313995 0.3758257 0.422221 0.4050941 0.49336824 0.55036527 0.5850716 0.4036303 0.40290672 0.41331047 0.3754855 0.5339126 0.58188254 0.61226755 0.63458544 0.60025746 0.3368839 0.34912324 0.32527453 0.5835345 0.60865843 0.5965977 0.4245565 0.43934003 0.40146106 0.4173848 0.4375162 0.49895638 0.46997583 0.19232568 0.26838866 0.42531818 0.3896124 0.22448838 0.19119015 0.3609648 0.2864688 -0.099930346 0.44348025 0.40176922 -0.24402794 0.50263476 -0.19089103 0.51006234 -0.0050898716 0.4522838 0.4490801 0.37329933 0.26362813 0.34065533 0.36268184 0.62142134 0.106912956 0.78501916 0.8009446 0.7974727 -0.049082134 0.7823372 0.0041239485 0.016095389 0.70040286 0.7376151 0.32824114 0.2839509 0.26857316 0.018982057 0.023030765 0.45270586 0.53761894 0.31615257 0.37171993 0.45368567 0.18601048 0.35146612 0.40999278 0.15183514 0.35693914 0.43625325 0.24956301 0.22855437 0.23409136 0.45168972 0.5228611 0.41657183 0.19188598 0.03746926 0.19697851 0.1533243 0.49554 0.39618286 0.29526514 0.4610868 0.5031903 0.54665023 0.3668927 0.41368234 0.50748086 0.51599526 0.32399923 0.50422263 0.4722847 0.19039223 0.46176645 0.1865614 0.40125588 0.18338054 0.25179774 0.29350325 -0.0309157 0.41342384 0.37830666 0.47893125 0.44711205 -0.116123974 0.36377317 0.031040115 0.28216094 0.1017494 -0.013347346 -0.06201277 -0.012489233 0.16256441 0.38998717 0.34266818 0.014459744 0.08555752 0.35045722 0.7282605 0.3291159 0.23926783 0.17134954 -0.03587681 -0.10017549 0.73924637 0.31334966 0.2731887 0.19122839 0.040228937 0.7629549 0.19538367 0.09114075 0.0021801805 -0.15892358 0.71873343 0.24551153 -0.08549452 0.42001134 0.4102674 0.24076436 -0.03030102 -0.012696393 0.28524438 0.17835514 0.32923564 0.095064804 0.2319817 0.32373574 0.35042313 0.42640322 -0.038141213 -0.013378402 -0.067807674 0.12052052 0.32134664 0.2958187 0.2934827 0.22231594 0.106576316 -0.053887725 0.067914456 -0.051258728 0.42688933 0.547752 0.615561 0.6166026 0.5493913 0.62506866 0.65869105 0.6691255 0.60050356 0.6547146 0.6774678 0.6890085 0.4909134 0.5955504 0.58803606 0.5870992 0.40693521 0.55424464 0.2831323 0.51387215 0.15870851 0.5062759 0.12671977 0.49691376 0.17450264 0.1561155 0.35426813 0.21745062 0.18224524 -0.014514466 0.09709271 0.28016508 -0.081030026 0.30304965 -0.13838315 0.32850137 -0.24149083 -0.25362164 0.0011256915 -0.21343604 -0.1159029 -0.11274763 -0.10745622 -0.18828215 0.19454163 -0.085681446 0.27810395 0.28874853 0.18835387 -0.0007067546 0.06280255 0.31977224 0.32603124 0.3165831 0.31752458 0.33466563 0.26263225 0.24844499 0.63888085 0.1364337 0.12969318 0.12585834 0.15175754 0.0822306 0.26259786 0.28651136 0.4852915 0.35225046 0.27975878 0.30686563 0.51665664 0.45098084 0.34926143 0.32967454 -0.058635563 0.31575498 0.07781296 0.07626642 0.08790407 0.039532304 0.37277555 0.19886145 0.22954059 0.56320834 0.2878595 0.6841371 0.6666704 0.4684232 0.5546236 0.6548561 0.6906899 0.703174 0.58291477 0.6389867 0.6856546 0.65363795 0.6660843 0.6508259 0.3978555 0.60377103 0.61395466 0.60682756 0.603498 0.1300921 0.57455385 0.11964327 0.11609608 0.523578 0.13542135 0.43285778 0.15897639 0.107426584 0.08315689 0.15967628 -0.031240333 0.042540442 -0.024203822 0.08602348 -0.007573195 -0.18695627 -0.24078295 -0.16549207 0.04885461 -0.12080404 -0.10109527 0.029569136 0.055117458 0.03808395 0.22054562 0.26309535 0.33435214 0.22230813 0.14828901 0.32975984 0.323972 0.34079492 0.04915294 0.31973642 0.21041894 0.27117854 0.16304944 0.13601749 0.24052197 0.068666354 0.2427381 0.28351063 0.43990558 0.27208042 0.57508856 0.5332165 0.28345197 0.27559447 0.5900372 0.55646193 0.6049037 0.58201224 0.54142207 0.45418054 0.35448542 0.26366848 0.13563523 0.040061846 0.23605128 0.54202867 0.26519734 0.64817524 0.2605332 0.3842786 0.7064421 0.51024437 0.5945041 0.6694953 0.6960624 0.6513158 0.6916914 0.7044966 0.6798527 0.5701063 0.70659137 0.67893255 0.43944424 0.69746697 0.09022498 0.65385437 0.12449902 0.12237839 0.1320695 0.5890448 -0.05824285 -0.091659635 0.31095538 -0.08753419 0.046587627 0.06884177 0.04865009 -0.03985159 0.07778567 0.052468404 0.044495225 0.2786142 0.21644765 0.13086616 0.16259879 0.23854315 0.3276796 0.29805857 0.3491556 0.34555537 0.35673577 0.36987484 0.33840737 0.35217845 0.29820156 0.27010548 0.08569041 0.24377444 0.24350555 0.3287655 0.27154744 0.23514077 0.23438612 0.5290451 0.4719289 0.36412853 0.21904504 0.61616385 0.5792873 0.23766898 0.63366604 0.62328976 0.15222979 0.6311637 0.60935104 0.5477972 0.4559632 0.4054516 0.16720723 0.568506 0.5427473 0.48277342 0.28890646 0.0541929 0.1750159 0.63040745 0.15351087 0.23452355 0.62710416 0.3702041 0.50515336 0.58655703 0.65555847 0.70494115 0.7050295 0.42175677 0.49468893 0.66553617 0.7036775 0.7043277 0.11688653 0.19208586 0.29452598 0.6722802 0.12499966 0.14034106 0.12171954 0.12865321 0.40150174 0.5349905 -0.020965308 0.29179257 0.73033214 0.7146324 -0.10905795 0.323799 0.71050715 0.69735175 0.60657215 0.47475633 -0.13900724 0.69140834 0.67241955 0.6553908 0.5329615 0.15197766 0.5591015 0.4937559 -0.18343309 -0.10179321 -0.060552217 0.049336195 -0.14924608 0.16678236 -0.06714891 0.16403206 -0.12146379 -0.12655039 -0.07215584 0.09018647 0.14618158 0.25475794 0.20600966 0.10995431 0.054845717 0.11217548 0.24360657 0.3027517 0.29238427 0.3032382 0.30777183 0.2740062 0.25012204 0.25448504 0.28215766 0.099112526 0.15197328 0.42527676 0.24553394 0.18259564 0.53471136 0.18515864 0.6325245 0.097028315 0.6523136 0.65168965 0.0011350438 0.6491935 0.6026955 0.46911132 0.11786527 -0.3687181 -0.040274534 -0.06088096 0.55910295 0.5356048 0.4843046 -0.0031834524 -0.024122817 0.53729916 0.2781394 0.15599822 0.17278326 0.29334238 0.37217978 0.25029832 0.48247573 0.1415404 0.101419315 0.15580335 0.3473175 0.5883588 0.12771596 0.0546892 0.30716836 0.33573842 0.09781402 0.2789767 0.15158413 0.16656582 0.7472789 0.74934745 0.72543454 0.6697743 -0.07764266 0.715017 0.7266141 0.63398385 0.48205554 0.17596535 0.64508617 0.23801365 0.27954814 0.26071942 0.6084119 0.56378293 0.02819791 0.13362224 0.25676328 0.2708721 0.26007456 0.4157244 0.34090245 0.19652358 0.25133044 0.015600887 -0.1341859 -0.04586475 0.21786557 0.31069407 0.29680958 0.20765248 0.18717241 0.297676 0.23439904 0.177498 0.2283912 0.25307217 0.26054788 0.18663995 0.24524987 0.23827684 0.11353412 0.24151489 0.061684817 0.043336634 0.6430323 0.038919926 0.65959066 0.6498842 0.51950175 0.6447316 0.5667664 0.5037162 0.4289124 -0.37852043 0.22474656 0.57041633 0.58405566 0.5144359 0.48307344 -0.024022024 0.6160766 0.6215956 0.0012784563 0.09498008 0.0845362 0.5222461 0.59277797 0.6419317 0.6420636 0.16609281 0.3150758 0.2234082 0.21307603 0.46212506 0.54711366 0.56842864 0.3876323 0.29287255 0.1481096 0.16187607 0.24107385 0.4570933 0.4724688 0.3664387 0.21192475 0.54024255 0.5605888 0.60988617 0.5987378 0.58583397 0.62022775 0.6176933 0.51518804 0.5790826 0.57786584 0.569873 0.24635404 0.2796752 0.1700555 0.10323623 0.17396319 0.18970206 0.07790398 0.1419418 0.14355539 0.09596821 0.0058763865 0.14614049 0.74001557 0.77056074 0.73287594 0.65005857 0.05363816 0.10799025 0.5996668 0.68534565 0.22758049 0.15629315 0.52266437 0.57137305 0.23212543 0.5086318 0.23179121 0.30622712 0.32840508 0.058136277 0.41943252 0.43752676 -0.22964825 0.4283102 0.46253312 0.4023087 0.45450753 0.25072113 0.3661861 0.21039149 0.14319436 0.2234716 0.0295403 0.2898902 -0.096984595 0.26098135 0.14050268 0.48465294 0.5949254 0.549003 0.5793201 0.5869694 -0.10240281 0.6247084 0.612791 0.6354359 0.642796 0.34299728 0.1892793 0.53354925 0.5687122 0.5963973 0.39645678 0.16998203 0.5380698 0.5546812 0.4809923 0.49359697 0.3857348 0.24477217 0.20287785 0.50091594 0.44203764 0.36136988 0.3169027 0.29879123 0.3173386 0.3324411 0.22839725 0.29465753 0.21635997 0.19276544 0.1382042 0.12889709 0.19171567 0.14487268 0.12902784 0.38932317 0.4643669 0.34574854 0.487059 0.34298396 0.45538825 0.5302382 0.2598347 0.26500618 0.4698308 0.22650194 0.27655175 0.26037568 0.26209167 0.4058485 0.49006027 0.36124933 0.13969752 -0.16659021 0.07294763 -0.20992656 -0.163567 0.09162933 0.15373208 0.76558703 0.73219204 0.10047062 0.04330856 0.49098432 0.10397602 0.07161434 0.44323775 0.07040956 0.3970237 0.21189614 0.56170213 0.5188636 0.3248679 0.41392338 0.5846245 0.5697535 0.49642718 0.48080462 0.59659296 0.58460844 0.5029173 0.35978842 -0.6455117 -0.32739836 0.4868811 0.76592255 0.79514825 0.798079 0.5885199 0.43204063 -0.24963456 -0.22132836 -0.30967194 0.4329212 0.4592852 0.73226774 0.7820103 0.80859476 0.7992696 -0.22407793 0.36881566 0.6636266 0.73258126 0.783792 0.7141845 0.12064796 0.59344625 0.6419408 0.692389 0.62246996 0.04646196 0.16977078 0.6044344 0.6371267 0.033760667 0.19734994 0.08027828 0.03433637 0.20996663 0.17409125 0.19135492 0.26427174 0.23095939 0.20518519 0.17706878 -0.23022722 0.5555216 0.07263133 0.59877086 0.5927935 0.62376595 0.62235653 0.28674453 0.10833113 0.4136762 0.5340152 0.5538683 0.5960683 0.38497233 0.5304179 0.44254512 0.45117128 0.27289054 0.47968408 0.47309998 0.4219161 0.5041886 0.4670062 0.4536271 0.5844234 0.5655718 0.4674393 0.3960883 0.35335332 0.37593144 0.4109239 0.5696919 0.51534057 0.4362479 0.37864777 0.32554543 0.3404831 0.37445664 0.44808108 0.35039797 0.34508026 0.36508054 0.28472692 0.28460786 0.23916541 0.25828773 0.3479535 0.24377815 0.21849562 0.21992727 0.2566971 0.27451268 0.28491548 0.19771494 0.15470873 0.10946259 0.14531161 0.28207165 0.2579174 0.19945826 0.29320472 0.1989785 -0.0123110935 0.23484915 0.1658004 0.1876185 -0.08311861 0.07765759 0.24439475 0.38361156 0.25986275 0.36088097 0.32686985 0.15496677 0.105360955 0.20250583 0.13615769 0.08062577 0.28625238 0.1843144 -0.088066705 0.10005438 0.06214447 0.29896092 0.5983473 0.71274966 0.054746974 0.18167491 0.4052464 0.48825777 0.25896436 0.3382593 0.4893222 0.5457121 0.120511584 0.4263047 0.49518338 -0.2557326 0.07738012 0.57404876 0.52494806 0.45218986 0.35492834 0.39497954 0.5783103 0.5864043 0.33042824 0.4869138 0.73974156 0.7463417 0.5795677 0.58869827 0.48831165 0.74198663 0.7819211 0.7834291 0.7299266 0.5882154 0.408701 0.45541573 0.66083354 0.726451 0.55032456 0.30548617 0.33938706 0.44030902 0.56907105 0.66801906 0.3979317 0.5080775 0.53503567 0.12291817 0.45629448 0.5256269 0.5922932 0.57508445 0.020052843 0.16186005 0.034343675 0.23488277 0.32373568 0.22808228 0.30467018 0.31069937 0.29319268 0.34107867 0.29135522 0.14140102 0.21995763 -0.079931885 0.25527897 0.08757502 0.44161266 0.13760895 0.1107155 0.5502662 0.5103038 0.5570356 0.5966697 0.22646505 -0.1583753 0.51101816 0.5431909 -0.2566067 -0.07182334 0.40533793 0.36171514 0.38368797 0.21435079 0.30452392 0.34239626 0.36504608 0.2789294 0.72802943 0.6736499 0.62352157 0.6518522 0.57589364 0.5422315 0.68336886 0.6360098 0.5374955 0.49123782 0.6362463 0.59500307 0.40877315 0.6417351 0.6019068 0.21724103 0.55575526 0.66859406 0.57405895 0.37738943 0.18638311 0.22318304 0.3130156 0.40261847 0.6330279 0.729758 0.7725036 0.24486667 0.30930516 0.11769375 0.11331 0.218894 0.44871628 0.75727373 0.7983979 0.05839634 0.15982199 0.19090039 0.19640912 0.19964658 0.25257292 0.37944663 0.54898053 0.67518324 0.34161046 0.32350546 0.21378538 0.15845288 0.13469079 0.1424024 0.17975432 0.38659552 0.5103705 0.60146284 0.32876894 0.16532996 0.12974602 0.12198944 0.29065835 0.29419294 0.26582983 0.20323291 0.092421845 0.23148097 0.16814338 0.18643132 0.04253349 -0.09618345 0.21188298 0.3844719 0.2950925 0.23247945 0.036993444 0.1983256 0.121831834 0.5025158 0.6241299 0.45705858 0.35343257 0.22636679 -0.09743412 0.3629444 0.28372705 0.64803076 0.4886697 0.11736031 0.039262615 -0.2746164 -0.05276514 0.27183068 0.3462157 0.4477321 0.15536876 -0.25666675 0.43992835 0.5504446 0.57619274 0.18958722 0.07325783 -0.3426531 0.5729569 -0.1736572 0.5434642 0.19250232 -0.10714302 0.5685624 0.49102706 0.3302655 0.55755305 0.55362165 0.45331532 0.49549857 0.5797395 0.5411192 0.44538403 0.33995897 0.41497582 0.50272644 0.5268452 0.25733057 0.45597363 0.34690118 0.08635944 0.2997461 0.31156194 0.29178175 0.15102208 0.35315034 0.37978625 0.23023325 0.19532722 0.3197091 0.39153752 0.29392445 0.32573467 0.42410463 0.46944565 0.27146345 0.44933277 0.32109466 0.29319328 0.39544904 0.43676552 0.26721582 0.11368745 0.06276223 0.29427433 0.31722617 0.31660452 0.14140823 0.19650137 0.13503236 0.13108903 -0.008925691 0.17742467 0.39067382 0.49640167 0.19862527 0.20914158 -0.0030294508 0.22800678 0.23388985 0.24926129 0.28331652 0.16487679 0.34633037 0.25399435 0.41490763 0.2791201 0.33964103 0.44047594 0.4741801 0.51658976 0.6051227 0.78203154 0.79035974 0.7390342 0.68908536 0.6362268 0.78817725 0.7933169 0.62247694 0.5598577 0.5238351 0.75616264 0.5058083 0.25618228 0.2539425 0.2523784 0.26210558 0.6610412 0.6997951 0.44278765 0.22039694 0.20874377 0.22798638 0.2374979 0.25673488 0.20521466 0.32928917 0.5004095 0.584712 0.6411863 0.12833005 0.15321362 0.14172657 0.15048493 0.20354852 0.2584166 0.25275898 0.63543415 0.7118857 0.5701589 0.025950763 0.774349 0.1214159 0.02077755 0.7568816 0.40044832 0.7080368 0.4329678 0.3997323 0.6343384 0.42087227 0.39553505 0.2170065 0.26196912 0.5236316 0.56012464 0.34749085 0.1349649 0.31369144 0.52456295 0.5033547 0.36725906 0.59476703 0.49305028 0.1768355 0.14821523 0.65067744 0.39652064 0.4790074 0.41493404 0.22840823 0.2635844 0.7122878 0.14967397 -0.12977517 0.047810774 0.029216591 0.15215166 0.2243678 0.3545599 0.51577234 0.52135026 0.7271961 -0.08541128 0.56689316 -0.43927908 0.5873251 0.58749217 0.047619842 0.53162694 0.57966125 0.39864808 0.3870886 0.35550302 0.2757022 0.16908611 0.22828285 -0.25404868 0.48661953 0.5751649 0.43641502 0.4145823 0.35942662 0.24463308 0.1573487 0.19507778 0.24568765 0.4760427 0.39596415 0.50686544 0.42001328 0.37738955 0.13752533 0.03433223 0.39237615 -0.011215489 0.3765732 0.17574695 0.14985494 0.3591984 0.2032347 0.32868785 0.24341223 0.28949493 0.23958245 0.2761338 0.2786481 0.2999065 0.23955631 0.30015546 -0.33884275 0.47897503 0.20272088 -0.06618554 0.5342287 0.23502347 0.22467323 0.55104506 0.26187325 0.2756258 0.519812 0.5205138 0.14067206 0.41356432 0.2947116 0.1752367 0.06568845 0.28388363 -0.07212502 0.2274183 0.16795057 0.15629207 0.09434164 0.21494636 0.21830562 0.2302234 0.1727312 0.23478287 0.20955086 0.28727108 0.34792677 0.31166485 0.3930807 0.42569995 0.28829366 0.29340023 0.5287918 0.55696213 0.3088227 0.40006992 0.55320215 0.63680017 0.6563035 0.6441422 0.6268194 0.632754 0.67107487 0.726918 0.8040023 0.7619629 0.7293042 0.665486 0.63401157 0.5054272 0.8098291 0.81106365 0.42187697 0.37022376 0.44350803 0.266906 0.23965521 0.78640294 0.28077078 0.24829791 0.7013078 0.20033902 0.32273233 0.5239529 0.63507533 0.64834136 0.61604035 0.70036066 0.59035075 0.73342884 0.6872623 0.44556445 0.4244245 0.5768186 0.45116812 0.57290024 0.5120756 0.4269372 0.5498092 0.518155 0.35462865 0.23966685 0.4714082 0.5154456 0.5821605 0.45023143 0.62214345 0.55469793 0.07270806 0.662989 0.4608953 0.43559933 0.12174709 0.22406724 0.2578395 0.2902026 0.68571675 0.7093849 0.36269858 0.32550523 0.47752836 0.7257086 0.6521344 -0.10125685 -0.2744846 -0.23168622 0.2972475 0.5112802 0.18968943 -0.5693945 0.5631668 0.5750882 0.35597974 0.30485392 0.28458807 0.2430342 0.22326814 0.28884885 0.5957029 0.41575783 0.37899965 0.31092432 0.1927415 0.20399822 0.28172064 0.32262772 0.3200289 0.22155844 0.6045693 0.49863195 0.45339346 0.2989444 0.5688176 0.54482985 0.49362785 0.14174914 0.28503102 0.24220602 0.40653765 0.52924937 0.36078396 -0.22839123 0.16073395 0.20442472 0.25063556 0.21519598 0.22057033 0.25774917 -0.076659724 0.31246826 0.26381546 0.47491288 -0.008959591 0.5612249 0.26310486 0.022363275 0.020340495 0.115049444 0.64547396 0.25505587 0.26610997 0.24288741 0.05356653 0.06845107 0.084665924 0.37543598 0.60287356 0.6654627 0.30954295 0.065893605 0.061746076 -0.08813175 0.5860367 0.5354428 0.37556127 0.3287093 -0.0061018877 0.5719377 0.5060157 0.23917305 0.22922067 0.2395441 0.038613062 0.33872223 0.2307662 0.186938 0.32358602 0.40072477 0.3588863 0.44639942 0.42505503 0.47382224 0.41922045 0.3734331 0.30245537 0.5524603 0.52