# vtk DataFile Version 2.0
Really cool data
ASCII
DATASET POLYDATA
POINTS 1046 float
-11.868039 -1.0021825 -5.8092985
-12.027531 -1.2167003 -5.262283
-12.08852 -1.1874622 -4.6478376
-11.870979 -1.1930909 -4.126873
-11.872936 -0.4176545 -5.963666
-12.161962 -0.5851458 -5.493281
-12.29813 -0.7476993 -4.6497936
-12.090733 -0.49040425 -4.1264567
-11.751673 0.19843116 -5.93534
-12.054883 0.17895325 -5.2813077
-11.9582 0.40202373 -4.384487
-11.809671 0.2374268 -3.9022048
-11.722273 0.73603094 -5.43902
-11.306991 -1.6603117 -5.2479215
-11.372389 -1.6556388 -4.6710343
-11.438951 -1.1407044 -6.0976663
-11.495451 -1.4613994 -5.6552777
-11.317318 -1.4653714 -4.077714
-11.04578 -0.48392949 -6.804482
-11.400768 -0.61070156 -6.467034
-11.627507 -0.5941576 -3.5909798
-10.932686 0.049099356 -6.9081726
-11.214204 0.42108214 -6.4787846
-11.545481 0.56362826 -3.8317246
-11.124703 0.24384539 -3.1270857
-11.02016 0.94369817 -6.173803
-11.272743 1.1350226 -5.5040226
-11.295312 1.5067483 -4.368545
-11.2471485 1.3864146 -3.770672
-10.682955 1.7470183 0.5851032
-10.93751 1.8989546 -4.123667
-10.63136 2.0884066 0.21149449
-10.549975 1.985933 1.0010161
-10.60151 -1.7361711 -5.3210397
-10.4685755 -1.7348777 -4.76886
-10.948887 -1.5702728 -4.1860533
-10.340013 -0.94665706 -6.898402
-10.482733 -1.2795677 -6.4591274
-10.332453 -0.3294154 -7.1658545
-10.645253 -0.09359226 -2.6656117
-9.729049 -0.0051356554 -1.2827599
-10.200215 0.13611926 -0.36944705
-10.011175 -0.45510614 1.503217
-9.831655 -0.23768795 2.3347647
-10.335586 0.26605207 -7.104189
-10.471169 1.0880637 -0.85506743
-10.295738 0.6448008 1.4995936
-9.881266 0.30208725 2.2119641
-9.591889 0.16830327 2.7870834
-10.221492 0.7904813 -6.839455
-10.644263 0.8992201 -6.598127
-10.446432 1.1026925 1.2481995
-10.139039 1.2080606 1.7824178
-10.632966 1.9888481 -4.996312
-10.307495 2.3471036 -4.649767
-9.94624 2.7188122 -1.6863613
-10.423689 2.5230253 0.43840736
-10.170639 2.3333194 1.3496994
-9.779631 2.1478753 1.9299703
-9.784342 3.1615083 -3.0674217
-9.970197 3.1167593 -0.3389038
-9.976988 3.0344048 0.6636934
-9.7160845 -0.8540165 -6.93011
-9.673874 -1.2822244 -6.4485383
-9.317987 -1.4688157 -4.914266
-9.214382 -1.3173153 -3.8738198
-9.46475 -1.1448845 0.91633767
-8.958164 -1.5345823 2.4111838
-8.989488 -1.1462727 3.0956268
-9.838025 -0.39704108 -7.169173
-9.536196 -0.4625932 2.2336655
-8.930757 -0.6298832 3.5134218
-8.734827 -0.6143266 3.6323597
-9.78911 0.18953978 -7.150469
-9.573586 0.7926253 2.5942113
-9.239086 0.24706018 3.1991925
-9.6676655 0.8137952 -6.8164635
-9.704552 1.48974 -6.1286488
-9.245336 1.4893279 2.4298985
-9.050335 2.331432 2.3141549
-9.332485 3.3582385 -3.914256
-9.145942 2.8373024 1.880955
-9.034532 3.9962451 -3.066494
-9.381992 3.9048395 -2.3569229
-9.082588 3.703421 -0.45980552
-7.8191605 -2.425342 1.8112144
-7.975022 -2.465846 2.4086843
-8.090912 -2.1243033 3.1661756
-8.880189 -1.3703287 -4.512965
-7.777121 -1.629538 3.9769204
-8.585809 -0.45604333 -6.5253077
-8.429127 -0.49508002 -2.571316
-8.673779 -0.13249028 -1.8890342
-8.587169 -0.37030047 3.8881397
-8.735494 0.46121255 3.540358
-8.261373 0.42618757 3.78691
-8.418621 1.5697423 -6.2874646
-8.687098 1.0340813 3.2248838
-8.164425 1.8078585 -6.1217537
-7.9581733 3.0461304 -5.408041
-7.984489 2.9663923 2.29741
-7.9800715 3.9421487 -3.6399875
-8.405846 4.326159 -2.6828878
-7.7079906 4.428056 0.38578847
-7.3109484 -2.8716266 2.4957216
-7.285711 -2.7103095 3.1456282
-7.327166 -1.7257093 0.21774979
-7.1371827 -1.9429152 0.35852295
-7.5261774 -2.4129062 3.4151387
-7.171963 -2.0639508 4.028773
-7.8142414 -0.7888049 -5.5305805
-7.6361156 -1.248007 -4.081093
-7.512674 -1.1378561 -4.0032434
-7.4596515 -0.5943382 -1.260554
-7.3028893 -1.399351 4.2636323
-7.5992236 -0.3419923 -6.0122237
-7.3085113 0.62526774 -6.312426
-7.665499 0.17554075 3.8989024
-7.6903276 1.6290698 -6.167624
-7.3152604 1.737535 3.3462431
-7.4283795 2.695073 -5.7957487
-7.372896 2.8606453 -5.6293554
-7.4214997 3.2814305 -5.309145
-7.317471 3.7186918 -4.903609
-7.1492662 4.03576 -4.1749105
-7.2148056 4.5343165 1.4002498
-6.8278885 4.646965 2.0336497
-6.998303 5.5873475 -1.8648133
-7.1009307 5.633593 -1.5122283
-7.4297156 5.5464215 -0.7373864
-7.158582 5.3302765 0.7040231
-6.7454033 5.06032 1.6022803
-6.8620977 4.8831496 1.8340895
-6.8463006 5.950185 -1.3988719
-6.845022 6.2380013 -0.50322306
-6.752077 6.0636997 0.20813057
-6.776009 5.7099032 0.8533815
-5.882353 -2.8888168 0.42463222
-6.567298 -3.163106 2.0302625
-6.507415 -3.120169 2.4248486
-6.63037 -2.738331 3.388121
-6.0968075 -2.541395 3.6170542
-6.5488467 -2.065601 4.1318917
-5.99818 -0.85051954 -3.0712297
-6.720622 -1.370338 4.427527
-6.4827633 -1.1273979 4.5195174
-6.5114217 -0.45971617 -5.3928914
-6.53641 -0.8144336 4.452835
-6.0676837 0.95740044 -6.04463
-6.8378963 0.16493066 4.0957355
-6.5120144 1.420372 3.4673393
-6.947957 1.257792 3.5853367
-6.847668 3.3794284 -5.2240424
-6.359 3.3407345 2.8073955
-6.276756 4.421126 -4.0796127
-5.9972653 4.733629 2.2892246
-5.983392 5.3539977 1.9251416
-5.914349 6.182455 -2.339573
-6.632253 6.331472 -1.1934388
-6.6614523 6.4505825 -0.84894294
-6.4750466 6.3315315 0.036435425
-6.1067247 6.028824 1.041405
-6.0128117 6.691517 -1.2970408
-5.360686 -3.7221828 0.90445274
-5.093041 -3.6538408 2.3238945
-4.852816 -3.5748243 0.2675541
-5.8556423 -3.2676437 2.7236483
-5.836024 -2.700385 3.5187693
-4.7320385 -1.8240914 -6.472554
-5.3981495 -2.1203 -1.1671655
-5.937296 -1.9454783 4.110299
-5.8603034 -0.7926819 -3.7418306
-5.370015 -1.750273 -1.1469767
-5.730609 -1.2849647 4.289764
-4.852151 -0.62890255 -6.9952574
-5.737091 -0.52161413 4.2305684
-5.592283 0.58593136 3.723984
-4.939109 0.9026148 -6.4806423
-5.486717 2.5340755 -5.756376
-5.884105 2.3713357 3.126855
-5.4209623 3.861711 -5.0218787
-5.188967 4.493623 -4.4086313
-5.7164235 4.6056457 2.5031047
-4.9941607 4.432744 2.7085881
-5.35577 5.7351403 -3.1411345
-5.4671364 5.212579 2.1912868
-5.421824 6.043191 -2.8377135
-5.331979 6.465616 -2.5566602
-5.498722 5.9506097 1.4097795
-5.0417233 6.8054647 -2.2703128
-5.0746336 6.979442 -1.5736959
-5.4483294 6.849322 -0.4874596
-5.4332347 6.7264605 0.051241815
-3.6998472 -4.850771 -2.6366282
-3.8566504 -4.158437 -3.5216093
-4.495945 -3.8616018 -1.3364506
-3.7949903 -4.4667597 0.02702839
-4.3066916 -4.0533533 2.1086872
-3.9634163 -2.6364121 -6.961829
-3.9698021 -2.709506 -6.7809515
-4.173074 -1.8376234 -8.082234
-4.277706 -2.1017675 -7.5524487
-4.2407475 -2.059643 -5.2498164
-4.8515897 -2.046123 3.4526644
-4.094724 -1.395098 -8.26416
-4.039077 -0.90680385 -8.250086
-4.9560304 -0.7163709 3.8174427
-4.1256304 -0.048929274 -7.7607803
-4.3689685 0.47805256 -7.031833
-4.772248 0.06789124 3.560572
-4.3855543 1.4219471 -6.5211296
-4.489874 2.4056742 -5.774987
-4.5641365 2.7928915 2.7905672
-4.438655 3.277906 -5.3551984
-4.9543405 3.4794476 2.8127954
-4.3026156 4.129303 -4.7490964
-4.1803856 5.241049 2.3007433
-4.2353406 4.8552246 2.5954123
-4.912731 5.9106126 1.6532879
-4.9301224 5.7004166 1.7728648
-4.673839 6.893465 -2.3376052
-4.4585366 7.1279206 -1.6165248
-4.706486 7.0775166 -0.62162024
-2.8885071 -5.8218355 -2.6353602
-2.7397256 -6.463101 3.7362564
-2.778384 -6.360586 4.261455
-2.602518 -6.3063025 4.8612967
-3.4283304 -4.906255 -3.4398804
-3.1495478 -5.463103 -2.2974505
-3.2711663 -4.801787 -0.80391085
-2.8748157 -5.191762 2.5335162
-2.929794 -5.8859315 4.203587
-2.6564653 -5.3739166 4.785499
-2.770185 -3.7503152 -5.189078
-3.5474343 -4.498529 -3.6228526
-3.2579696 -4.541216 2.7944372
-3.0559564 -4.901166 3.404769
-2.8990488 -3.2414913 -7.9384236
-2.8094838 -3.4046943 -7.6943893
-3.562276 -3.0858133 -5.49465
-3.4120893 -2.1983092 -8.410665
-3.2958043 -1.5253521 -8.564131
-3.2067099 -0.9116452 -8.525357
-3.5158668 -0.75157166 -8.4149
-3.5035734 0.6139418 2.1826644
-3.6783693 1.2899802 1.5143855
-3.8832572 3.3799536 -5.4801483
-3.5773766 3.663779 2.6883197
-3.473084 3.9424553 -4.873068
-3.7471902 4.3645844 -4.5936656
-3.6095703 4.0473127 2.7157433
-2.9960563 4.8169556 -4.2725587
-3.714426 5.122203 2.2431064
-3.9277377 4.889322 2.5651655
-3.7423327 6.501613 -3.0601683
-3.706953 6.189116 1.1483848
-3.743223 6.758123 -2.8339477
-3.3228934 7.0405774 -2.549837
-3.10834 7.255891 -0.8277885
-1.9242232 -6.7758284 -2.5762565
-2.1303098 -7.0224595 3.7316544
-2.2333417 -6.980768 4.332929
-2.0929873 -6.891033 4.8677206
-2.3393376 -5.7683992 -3.7429702
-2.2290847 -6.33322 -3.2690847
-1.6387005 -6.4392815 -0.6400981
-2.085155 -5.9717855 1.8493462
-2.0814707 -6.4739676 2.520682
-2.5705829 -6.653856 3.7337594
-2.5611663 -6.6193323 4.6926136
-2.2624993 -6.382946 5.070862
-2.6580296 -4.8227673 -4.2524557
-2.6474342 -5.6696053 -3.383817
-2.2797472 -5.603842 5.0440884
-2.1478045 -3.7696447 -8.142314
-2.2243476 -3.9741685 -7.6766896
-2.1305678 -3.1338296 -8.720157
-2.3281677 -3.4465945 -8.352761
-2.3667135 -2.3467712 -8.748605
-2.7281623 -2.760101 -8.531282
-2.7741067 -1.5134977 -8.685054
-2.1062605 -1.5196452 3.5423417
-2.4918103 -0.70651454 -8.500389
-2.072924 0.12919933 -7.9377756
-3.2673106 0.5038792 1.5377547
-1.9398314 -0.3492697 2.6440156
-3.0980744 1.360831 0.17781815
-2.9824922 2.797894 -5.773015
-3.1895354 3.8742423 2.5392013
-2.2707136 4.169569 -4.9358172
-2.2821872 4.672725 2.0192423
-2.6811981 5.57067 1.563595
-2.5501661 5.19966 1.8644086
-2.8551657 6.323614 -3.4825315
-2.3637416 6.4837575 0.34199664
-2.4589508 6.0733232 0.8735
-3.0977674 5.6976004 1.7090914
-2.4022717 6.8104777 -3.17899
-2.3389912 7.2832093 -2.3591683
-2.1531558 7.4231796 -1.5111405
-2.2558692 6.8566093 0.08949649
-1.444823 -6.9421635 -3.0958228
-1.2241414 -7.1307683 -2.489051
-1.2218723 -7.106224 -1.6016049
-1.2601753 -6.9013333 -0.7871435
-1.4443866 -7.089087 2.9886057
-1.3140842 -7.310914 3.6539772
-1.4517158 -7.2847414 4.3300805
-1.297002 -7.0382605 4.883286
-1.5814085 -6.410007 5.314071
-1.0443012 -5.51527 -4.514613
-1.3529282 -5.604901 5.338473
-1.5787333 -3.8847198 -8.327739
-1.5149137 -4.202741 -7.611371
-1.6950772 -4.142412 -6.9859033
-1.4746147 -3.3888597 -8.740315
-1.2782793 -3.6893053 -8.568576
[...]
POINT_DATA 1046
SCALARS features_00 float 1
LOOKUP_TABLE default
0.9417447 0.9635671 0.9574815 0.9201124 0.8975252 0.9492682 0.9595593 0.8774903 0.83420444 0.87692434 0.77637726 0.73350644 0.7514415 0.90951526 0.90410185 0.91179794 0.9294446 0.8730136 0.8409091 0.87135494 0.78647506 0.7990098 0.78196806 0.6750955 0.6115567 0.70297045 0.6642672 0.6046504 0.56201524 0.44865155 0.48550332 0.46148026 0.44651765 0.8339205 0.7608936 0.82004875 0.82837784 0.85638666 0.8082464 0.5332772 0.28200263 0.41175434 0.41900182 0.42571083 0.7598461 0.4734252 0.40005395 0.41214004 0.42922014 0.68648756 0.70282924 0.41391844 0.40855774 0.51363736 0.41204742 0.33789232 0.45519125 0.43621197 0.4137264 0.26180506 0.38064528 0.4379605 0.7772025 0.7733724 0.5387776 0.33010674 0.4501677 0.5227176 0.52664137 0.78719616 0.4394262 0.5127156 0.5319212 0.72836494 0.40225887 0.4427408 0.6252359 0.5184325 0.38543576 0.37038207 0.285235 0.3789377 0.27448177 0.2731369 0.2886928 0.49204344 0.5295006 0.579602 0.39722574 0.6234871 0.67201126 0.06429894 0.059871085 0.5315199 0.44938058 0.46347582 0.36654854 0.40780127 0.30810195 0.2145656 0.26117533 0.26838344 0.22196472 0.3312744 0.48556685 0.5258706 0.020569855 0.10139104 0.55857825 0.59088033 0.46435758 0.25151148 0.22058581 -0.1515134 0.6232513 0.5311112 0.43071473 0.49727422 0.25999844 0.30298832 0.17929333 0.18075682 0.1990681 0.21109095 0.21558386 0.35732815 0.3725635 0.31586742 0.34834093 0.38544846 0.39833766 0.40043402 0.38843566 0.38590437 0.4336096 0.44217858 0.42425078 0.16338691 0.4000606 0.43400207 0.5293094 0.5496875 0.5860424 -0.10047166 0.60524 0.5941139 0.35832915 0.5827493 0.12646243 0.4805441 0.27302885 0.33360657 0.178618 0.27820504 0.14434448 0.3878383 0.40865695 0.361551 0.41146126 0.42685908 0.45074213 0.44366112 0.4186727 0.23324971 0.28966492 0.14170244 0.4251973 0.5294113 0.4594038 0.07040778 0.58299947 -0.004879236 0.023607127 0.571097 0.52612126 0.5204611 0.36927924 0.01921948 0.10597151 0.21170071 0.12850276 0.10700023 0.3812514 0.37571347 0.26118276 0.39964083 0.31666693 0.35915947 0.43360144 0.379183 0.41291192 0.4501338 0.46684057 0.21798743 0.13973148 0.16254076 0.10465589 0.0048667192 0.44214505 0.3975014 0.54486406 0.5634167 0.22532687 0.5255307 0.50674903 0.4701435 0.49693295 0.39137757 0.25377423 0.4087935 0.019373529 0.06755526 0.30058956 0.0967619 0.3380007 0.09370358 0.38116655 0.38012856 0.40747803 0.40220535 0.37480575 0.40477037 0.43688267 0.30218956 0.642797 0.6928542 0.75575006 0.21290278 0.26704377 0.20320767 0.38153985 0.638372 0.69218695 0.12414202 0.1725235 0.25660768 0.46150726 0.53245723 0.5121421 0.18395817 0.52220464 0.46107328 0.3955956 0.40419325 -0.10075477 -0.08721684 0.08254334 0.35357064 0.07103799 0.08205578 0.36339307 0.0758767 0.36921573 0.37532067 0.31444934 0.3457272 0.3548653 0.39009503 0.46650422 0.43224844 0.7446183 0.7861166 0.823284 0.36287737 0.4179566 0.32026148 0.4577934 0.59555817 0.6740829 0.7636766 0.80524385 0.21515147 0.30541295 0.78044176 0.56106794 0.5396215 0.5403483 0.5585457 0.484618 0.53335094 0.42033 0.25184116 0.3161942 0.20710245 -0.1474445 0.124939844 -0.13424611 0.05017911 0.34877038 0.05309235 0.31102407 0.3139972 0.32093245 0.25836074 0.313216 0.29087242 0.33149597 0.36342365 0.42429736 0.44268614 0.3513088 0.4830705 0.44127464 0.38053116 0.344724 0.714045 0.81532663 0.86543113 0.8885385 0.8748248 0.34571064 0.82939696 0.5537063 0.5476248 0.5082357 0.535249 0.537272 0.3575586 0.44731975 0.4903124 0.25351155 0.27863333 0.29191804 0.27714 0.1980963 0.23101497 0.23649055 0.27865514 0.20769694 -0.0138059845 0.28933966 0.28012124 0.3169537 0.40279108 0.42427 0.3923861 0.3504739 0.41361368 0.4418331 0.4255056 0.31746626 0.15077272 0.5635506 0.7895497 0.8256773 0.79911613 0.43395656 0.2533469 0.75475705 0.2333318 0.24179846 0.70272356 0.51036084 0.49104095 0.058675997 0.49162406 0.4561692 0.4420827 0.4143656 0.40176702 0.18688886 0.31735757 0.1369983 0.17793463 0.37872332 0.3307018 0.22789004 -0.0832295 0.20594627 -0.05417217 0.24438265 0.25689602 0.27518594 0.29215267 0.36729324 0.3698848 0.69760084 0.7342991 0.72875667 0.6920948 0.26660728 0.0692137 0.6564297 0.6651552 0.58289135 0.39274353 0.42775655 0.4137969 0.32365584 0.6908016 0.64658433 0.49971133 0.17118692 0.62288696 0.51231635 0.14521097 0.4591739 0.3751257 0.31861258 0.04678075 0.36138198 0.1174284 0.45046616 0.24430737 0.39660853 0.32014206 0.31445092 0.30470788 0.30521876 0.27249274 0.2842822 0.24356312 0.68680644 0.07770006 0.64140326 0.6348975 0.6074778 -0.023329012 0.5060426 0.46844858 -0.038057808 0.25952005 0.72508204 0.5849947 0.4041464 0.830165 0.7944495 0.7171979 0.6381392 0.1351826 0.5158743 0.095521115 0.38022196 0.28726712 -0.021019846 0.017106682 0.53904355 0.5043895 0.50310564 0.53026015 0.4945107 0.43489003 0.24008006 0.3746535 0.3323227 0.30324432 0.33512717 0.2904443 -0.32862747 0.3447761 0.25818372 0.6997266 0.5152153 0.814373 0.47865558 0.79522085 0.26657736 0.3877015 0.7429379 0.65156496 0.31516656 0.3789931 0.60134256 0.50929606 0.030069929 -0.1717796 0.4994142 0.1004949 0.5776402 0.2030335 0.61385256 0.58166945 0.23818624 0.24288276 0.5873902 0.538002 0.486534 0.34333104 0.24097905 0.50227916 0.3593952 0.3340548 0.3345291 0.3233661 0.31169033 0.29861692 0.20387544 0.24663608 0.23933163 0.4189728 0.47532508 0.58003414 0.5027232 0.48916414 0.760571 0.69009024 0.509282 0.75494504 0.675008 0.4757598 0.7235669 0.6559564 0.5392011 0.3683974 0.47799218 0.33353224 0.015983706 0.17898704 0.07855584 -0.09044263 -0.0005974658 0.6423044 0.1379911 0.64845777 0.23857117 0.65289927 0.2633242 0.6559868 0.6236675 0.58745706 0.50340694 0.3284428 0.7788311 0.794206 0.76889265 0.7245437 0.7390023 0.67085993 0.6738899 0.5616847 0.4518535 0.33802378 0.27460915 0.12043877 0.060591094 0.4081759 0.5614998 0.519452 0.505456 0.62268275 0.59731966 0.51739126 0.6256571 0.552274 0.5213439 0.50439847 0.41809458 0.3708216 -0.058702588 0.09281963 -0.113680996 -0.22476953 -0.053043615 0.05574199 0.6234428 0.15979186 0.6703476 0.24656115 0.2063204 0.6723006 0.67402077 0.23996133 0.2699332 0.26237637 0.65209955 0.60884845 0.26993132 0.8098426 0.8403867 0.8372291 0.7901769 0.6019259 0.6945857 0.70496786 0.45920593 0.55848724 0.5407106 0.31365454 0.28761408 0.29653263 0.28550208 0.23710588 0.06929669 0.16876958 0.49029255 0.50395584 0.492533 0.31142303 0.45756876 -0.027045563 -0.0017683338 -0.24790631 0.04211464 0.59814095 0.11554849 0.20711029 0.6560299 0.1511977 0.24510379 0.26219666 0.8550335 0.89353454 0.91004837 0.8421807 0.6881788 0.7824856 0.7621366 0.5240038 0.6912004 0.6474751 0.59608877 0.42021275 0.5403235 0.26477364 0.25549763 0.043225065 -0.035961613 0.22461312 0.038468033 0.06490202 -0.11795597 0.07143249 0.075739875 0.034140497 0.061775956 0.08302748 0.22782281 0.3959999 0.89719677 0.9137926 0.8935407 0.8473064 0.8579837 0.8279012 0.76144266 0.5302108 0.67511594 0.47155046 0.26205337 0.44128764 0.36408824 0.2690862 0.24430618 0.22832549 0.15972064 0.26192823 0.0012128949 0.023949075 0.06443371 0.12318972 -0.054609995 0.6265215 0.6112707 0.7526525 0.7145819 0.69961584 0.6648053 0.7983031 0.88531625 0.87558466 0.85716677 0.86605936 0.86354434 0.82605207 0.828541 0.84952223 0.82885265 0.81629264 0.8052311 0.7390095 0.31258497 0.24668182 0.24175623 0.19843987 0.34779632 0.19944087 0.12543309 0.09202739 0.3579358 -0.0053782053 0.30702862 0.16153608 0.009467088 0.017493628 0.1353447 0.20199743 -0.02514147 0.2761808 0.12076297 0.4559551 0.626954 0.62064064 0.71191716 0.7255861 0.7766372 0.6946695 0.7325508 0.78010297 0.81456065 0.80653095 0.8612071 0.85057586 0.81700045 0.3247284 0.23491997 0.06609536 0.2367049 0.4856838 0.3831974 -0.0068076253 0.4319588 0.1381624 0.14162378 0.026989445 -0.014399536 0.34806415 0.2212837 0.4641406 0.45558167 0.62930334 0.6310468 0.6989914 0.7347264 0.77499855 0.7143047 0.7319517 0.7647875 0.832962 0.80871296 0.5677358 0.5476265 0.5324142 0.56159353 0.52574664 0.5289469 0.256151 0.45415252 0.42538083 0.42647052 0.21086082 0.41582114 0.21337414 0.18410306 0.24880001 0.18218423 0.12259822 0.18103686 0.19733372 0.107089736 0.3885131 0.49592704 0.54022855 0.5524209 0.6039612 0.6338181 0.70646834 0.73303306 0.7750419 0.759706 0.708542 0.82403135 0.8111818 0.5136707 0.5420226 0.5467533 0.57609534 0.5554957 0.26396134 0.39474726 0.5958786 0.5620462 0.56837153 -0.031022668 0.66452706 0.5094245 0.45965034 0.23371261 0.2655512 0.2205217 0.20400015 0.17485821 0.18342073 0.20644042 0.115019955 0.40760958 0.46442187 0.46664143 0.49989676 0.5488719 0.61361444 0.6155529 0.6219692 0.6785139 0.70967996 0.648062 0.702031 0.7285929 0.7209967 0.57485086 0.5941754 0.5430316 0.5512247 0.5592103 0.58635986 0.5999323 0.640158 0.6657677 0.5692532 0.5560182 0.6034502 0.6526546 0.65946776 0.6447758 0.54117405 0.5748681 0.6104834 0.6295972 0.5051818 0.49159047 0.40246898 0.5464735 0.41872448 0.35379416 0.41086838 0.34183016 0.3730814 0.32704017 0.26385868 0.21495587 0.22956127 0.164613 0.20265563 0.3305183 0.2590525 0.17553115 0.21523236 0.483119 0.16272058 0.62047446 0.62790173 0.62462604 0.59781766 0.65524393 0.7124069 0.66265005 0.68608344 0.7156631 0.4114331 0.52909446 0.5886103 0.57556313 0.32079652 0.6499667 0.66144246 0.56354034 0.5663769 0.5823122 0.61699665 0.65574753 0.5512066 0.589697 0.4656692 0.4408352 0.5421603 0.43375942 0.43185544 0.31591946 0.39112103 0.4126066 0.19587663 0.2525906 0.39311945 0.3873821 0.40983558 0.35437012 0.2621015 0.16953108 0.2598481 0.19611415 0.25764823 0.21375456 0.19824925 0.41985163 0.5131514 0.5681935 0.62379503 0.20300058 0.2836478 0.64472514 0.53165555 0.5073368 0.55324554 0.5973439 0.44978115 0.41993934 0.44158384 0.45413163 0.42624962 0.30861115 0.41599977 0.39880076 0.20953882 0.22044265 0.4130189 0.43372732 0.29424945 0.31132323 0.18280405 0.30878532 0.37796956 0.3354991 0.2279323 0.2727263 0.3269115 0.40868133 0.16031948 0.47481978 0.50347805 0.46952552 0.37190813 0.33586833 0.20550348 0.38988858 0.37192538 0.22256374 0.3176845 0.37413016 0.40275484 0.2548427 0.0850012 0.37013656 0.25031605 0.3832919 0.49452096 0.33301044 0.55887777 0.25692803 0.19294897 0.46093684 0.44309103 0.4319685 0.4196782 0.39710987 0.41907495 0.4863942 0.49728566 0.47966272 0.47442138 0.39662206 0.37119794 0.1448535 0.182082 0.09688873 0.4408369 0.40271658 0.5499299 0.5613893 0.5508294 0.5435368 0.5059117 0.45794123 0.4695856 0.45987818 0.44743413 0.5157661 0.52193993 0.4948673 0.34469843 0.11150927 0.10247865 0.38526422 0.28857502 0.5694883 0.49486575 0.4392883 0.53993183 0.5324245 0.4255001 0.4344118 0.3015949 0.45592377 0.24671865 0.3859441 0.58389306 0.54425424 0.6279905 0.6380654 0.62835085 0.63151944 0.41613436 0.6067705 0.42079115 0.32028627 0.5185431 0.525757 0.41694978 0.47248632 0.57642084 0.6511057 0.66077363 0.6015643 0.6024171 0.71416736 0.7036809 0.5519398 0.61070627 0.68582606 0.53435487 0.5952204 0.45461708 0.47699565 0.56643224 0.5586561 0.53697 0.47825247 0.6366841 0.6222101 0.5581353 0.7064978 0.7825402 0.78371966 0.6459583 0.7346457 0.5855737 0.6412287 0.565703 0.6189177 0.5161751 0.58943075 0.5188525 0.514723 0.57925093 0.50379723 0.80203414 0.75946987 0.814796 0.79057443 0.7582964 0.7265467 0.8319452 0.7979281 0.6921991 0.67195624 0.5926678 0.6861623 0.657396
SCALARS features_01 float 1
LOOKUP_TABLE default