# vtk DataFile Version 2.0
Really cool data
ASCII
DATASET POLYDATA
POINTS 7158 float
25.400364 20.254873 -24.460297
25.256908 20.955534 -25.50783
25.19027 20.64689 -24.366615
25.26912 20.718733 -23.63243
25.216805 21.658525 -26.311
24.972353 21.696924 -25.595928
24.968319 21.604973 -24.760393
25.224829 21.3537 -23.594027
25.397623 21.181204 -23.246431
25.179535 22.214327 -26.35663
24.967684 22.417376 -25.595018
25.049408 22.626719 -24.652103
25.230423 22.258245 -23.94977
25.243345 23.037933 -26.10538
25.13983 22.904789 -25.80479
25.26572 23.221647 -24.602554
25.434868 23.868586 -25.362867
25.98498 19.884876 -25.149635
25.771759 19.889109 -24.523075
25.723055 20.154583 -23.459633
26.13027 20.10462 -23.035711
25.681309 21.010942 -26.357128
25.493538 20.423845 -23.459454
25.739172 20.742912 -22.981117
25.714428 21.744333 -26.849392
25.484669 21.446497 -26.580671
25.778215 21.373041 -22.893717
25.668953 22.347248 -26.883825
25.404001 22.64665 -26.520115
25.735777 22.7522 -23.392673
26.11591 22.391603 -22.910343
26.12535 23.421577 -27.02583
25.788269 23.418459 -26.493916
25.434818 23.511461 -24.35628
25.607033 22.947613 -23.736761
26.191221 22.897408 -22.980211
25.892273 24.600565 -26.291864
25.979881 24.645685 -24.64877
26.204243 25.582983 -27.38574
25.840906 25.640509 -26.544615
25.886196 25.450783 -25.515554
26.33552 26.355114 -27.756021
26.136927 26.502632 -27.209448
25.956459 26.600973 -26.454895
25.99399 26.45175 -25.75693
26.193165 26.469236 -25.224566
26.276287 27.071714 -27.088694
26.166199 27.2012 -26.392328
26.199877 27.099321 -25.710356
26.690495 19.37748 -24.166353
26.880339 19.759106 -25.74577
26.592484 19.609911 -25.31919
26.465172 19.59953 -23.670874
26.453423 20.075022 -22.949284
26.62608 20.857264 -26.776697
26.58522 20.522495 -22.57561
26.930525 20.47318 -22.336508
26.427639 21.5666 -27.122324
26.43605 21.534863 -22.437733
26.9989 21.694052 -22.009384
26.895096 22.848671 -27.639791
26.315502 22.408678 -27.279118
26.948643 22.405481 -22.116762
26.990223 23.55784 -27.906466
26.503767 23.759743 -27.400131
27.056818 22.857487 -22.304495
26.989079 24.694519 -28.096985
26.47161 24.358849 -27.621271
26.550467 24.109486 -23.749395
27.180311 23.687452 -22.846167
26.686836 25.493351 -28.04424
26.917923 25.224888 -24.018133
26.748917 26.355423 -28.065063
26.46443 26.748383 -27.697393
26.930643 26.430387 -24.576132
26.91646 26.966244 -27.89468
26.666388 27.269703 -27.392477
26.465567 27.556835 -26.492582
26.508709 27.383097 -25.587408
26.679731 27.11202 -25.108091
26.954195 27.767452 -27.056484
26.804249 27.800838 -26.475159
26.831112 27.82523 -25.763336
27.57572 19.27611 -24.472525
27.45463 19.357962 -23.895477
27.086102 19.617256 -25.664484
28.18561 19.732126 -22.306108
28.065218 19.887981 -22.187916
27.427794 21.090034 -26.825104
27.864983 20.535818 -26.310223
27.242514 20.42256 -22.450632
27.712132 20.543566 -22.018888
27.801075 21.968996 -27.665861
27.708586 21.510406 -27.385065
27.853539 21.515427 -21.60786
27.689981 22.74036 -28.124073
27.432175 22.390852 -21.83273
27.74288 23.547888 -28.357988
27.291237 23.194475 -22.365845
27.552923 24.653757 -28.411371
27.979906 25.929235 -28.606436
27.715647 25.834839 -28.459446
27.5857 26.452915 -28.520468
27.586794 26.0612 -28.473698
27.79324 26.571703 -23.887558
28.434 26.262123 -22.722197
27.84177 27.31645 -28.099787
27.998137 27.535057 -24.542166
28.08463 27.329952 -23.687922
28.423126 27.715832 -22.628227
27.629805 28.02731 -27.378695
27.793613 28.334988 -26.300547
27.295696 28.040594 -26.013018
27.728981 27.934654 -25.135834
28.40328 30.170794 -12.032148
28.294067 30.809772 -12.312252
28.378874 30.640318 -11.514279
28.422173 30.892092 -11.102918
28.3981 31.03874 -12.86793
28.343609 31.222511 -12.320528
28.379038 31.16555 -11.6071415
28.437008 31.10146 -11.044216
29.28852 10.278936 -22.072918
29.196898 10.227496 -21.77232
29.233355 10.821392 -22.864359
29.012596 10.78063 -22.354664
28.980034 10.774073 -21.589472
29.165573 10.829776 -21.003542
29.21902 11.424062 -22.93856
28.85598 11.405981 -22.315012
28.853325 11.3581295 -21.60465
29.140211 11.463874 -20.92813
29.029406 12.022034 -22.449963
29.050411 12.145457 -21.617828
29.309557 12.044804 -20.88995
29.486876 13.929898 -26.83197
29.446983 14.615999 -27.06266
29.47799 14.242196 -26.584911
29.38244 15.434943 -26.958086
29.35892 15.598852 -26.507345
29.350489 16.090647 -27.018686
29.330362 16.28429 -26.363817
29.389366 16.274641 -25.625439
29.400366 17.040169 -26.339123
29.295372 17.849947 -24.24567
29.181755 18.199738 -23.856333
29.334555 18.26654 -25.670998
28.722351 18.624527 -24.580645
28.962017 19.174187 -22.271118
29.029375 19.108166 -21.974968
28.92968 19.197884 -25.54932
28.997177 19.536913 -21.444407
29.27637 19.419893 -20.99698
28.552881 21.229633 -27.126629
28.123135 20.59506 -26.350693
28.905222 20.6933 -20.981892
28.780905 22.060553 -27.68475
28.618105 21.629507 -27.401953
28.630272 21.298098 -21.247679
28.460287 22.7749 -28.127354
28.46993 22.625996 -21.641298
29.16974 22.458424 -21.201042
28.471777 23.820019 -28.636835
28.357521 23.32412 -28.434422
29.152485 23.378094 -21.54863
28.657177 24.501408 -28.725412
28.419958 23.942354 -22.386753
28.572104 25.618792 -28.380157
28.976099 25.937363 -21.961405
28.213812 26.525202 -28.554052
28.862267 26.816628 -21.671932
28.717665 27.35456 -28.455482
28.498526 27.419146 -22.37002
28.727512 27.306595 -21.845797
29.206844 27.509844 -21.294634
28.68271 28.132576 -28.04164
28.583782 28.39253 -27.584404
28.664328 28.344955 -24.90896
28.69946 28.261974 -23.863522
28.755793 28.245766 -22.638435
29.160526 28.22279 -21.620707
28.798977 28.748827 -26.480793
28.890451 28.843145 -25.491468
29.02219 28.727028 -24.589783
29.2011 28.867762 -22.552328
29.415087 29.89474 -14.775486
28.90116 30.045225 -13.294456
28.716238 29.952978 -12.18696
28.82065 29.89675 -11.662734
29.005363 30.06024 -10.862696
29.363031 30.787407 -15.367155
29.123209 30.450409 -14.253889
28.600653 30.479298 -13.237892
28.467684 30.454884 -12.767008
28.503876 30.429932 -11.26484
28.700836 30.631218 -10.792589
29.092201 30.703804 -10.312139
29.290218 31.371698 -15.260973
28.980955 31.33863 -14.436915
28.739075 31.39578 -13.478992
28.524837 31.58715 -12.603966
28.512564 31.44981 -11.529277
28.787605 31.260666 -10.731978
29.070932 31.080223 -10.332121
29.221052 31.959013 -14.480362
28.933104 31.840868 -13.592527
28.797178 31.957415 -12.387547
28.77541 31.884914 -11.656942
28.945335 31.884941 -11.098634
30.475248 -2.1968608 -24.236414
29.936054 10.214677 -23.253407
29.687834 10.017055 -22.242523
29.691452 9.983867 -21.540276
29.89961 10.084044 -20.829876
29.65208 10.653067 -23.231419
29.45838 10.374853 -22.691319
29.65336 10.592613 -20.59116
29.89727 10.969704 -20.280617
30.123411 11.768498 -23.91338
29.522203 11.191508 -23.298285
29.476181 11.566256 -20.549032
29.873888 11.473038 -20.24729
30.073408 13.092152 -27.252762
30.003942 12.936246 -26.560709
30.28017 12.416594 -23.90615
29.721313 12.251507 -23.19269
29.3861 12.424756 -22.493395
29.586124 12.168815 -20.633083
30.076523 12.1292515 -20.283588
30.035711 13.727265 -27.71999
29.768126 13.649087 -27.305225
29.644176 13.731642 -26.648598
30.08163 13.168824 -22.320892
29.611712 12.7820215 -21.606417
29.841274 12.77966 -20.87055
30.040234 14.49791 -27.812847
29.60297 14.526748 -27.258415
29.509752 14.351504 -26.73971
30.064276 15.511535 -27.91754
29.511246 15.302015 -27.286312
29.542065 15.922501 -25.20289
30.032892 15.555981 -24.704638
29.980633 16.397213 -27.798744
29.704336 16.581516 -27.499508
29.808113 16.805527 -24.403831
29.67572 17.182013 -26.947577
29.62301 17.29435 -26.252573
29.591679 17.591911 -23.788853
29.566957 17.94008 -22.931211
30.21424 17.77926 -21.775162
30.263187 18.088797 -14.011666
30.252312 18.085585 -13.54744
29.994173 18.629435 -26.97225
29.963678 18.632847 -26.619171
30.021072 18.913378 -20.637287
30.140383 18.5158 -14.269668
30.04533 18.610022 -13.499463
30.213276 18.640417 -13.02977
30.186985 19.579485 -26.634003
29.732098 19.570738 -20.543701
29.874079 20.000208 -20.311039
30.335653 19.621561 -15.427619
29.980629 19.296736 -14.378756
29.971844 19.346958 -13.5882845
30.258924 19.185907 -12.919113
30.287659 20.259079 -15.333199
29.969948 20.546331 -14.371431
30.022171 20.413857 -13.782838
30.2979 20.174084 -13.140827
29.544954 21.774662 -27.303102
30.259327 21.218164 -14.845548
30.082853 21.107836 -14.404109
30.17074 21.07121 -13.799833
29.47084 23.027956 -27.944746
29.690428 23.049583 -27.655394
29.651495 23.33355 -21.038784
29.032827 24.09285 -28.735575
29.890448 24.919836 -21.363804
30.136902 24.277246 -20.889326
30.462502 25.747509 -29.622728
29.490412 26.636112 -21.130907
30.477047 26.795185 -13.767471
30.392544 27.135939 -13.065597
30.18281 27.887589 -13.38172
30.40521 27.331009 -12.937925
29.77492 28.089031 -28.251509
29.94721 28.662777 -21.374798
30.06747 28.323063 -21.133642
30.195948 28.904797 -15.001884
30.103838 28.7473 -14.709524
29.852962 28.972351 -12.593743
30.059097 29.17991 -11.818562
29.580671 28.875147 -26.671518
30.01086 29.289843 -25.663101
30.037262 29.357042 -24.482145
29.612078 29.165283 -23.363037
29.525135 29.124271 -22.496782
29.652105 29.097672 -21.997908
29.940819 28.758137 -21.322334
29.576576 29.953869 -15.119442
29.626368 29.541502 -14.553466
29.643057 29.470324 -13.334315
29.36968 29.454187 -12.926505
29.620426 29.47279 -11.302242
29.486086 29.840944 -10.705911
29.953709 30.213263 -10.102631
30.331396 30.926485 -17.025839
29.533895 30.63316 -10.125646
29.917286 31.60503 -19.372862
30.00417 31.547007 -18.883167
30.182158 31.441658 -17.582136
29.792618 31.411644 -16.281416
29.50457 31.57064 -15.4861965
29.366686 31.606667 -10.430525
29.594463 31.229622 -10.1085415
30.407309 32.618862 -20.978287
29.985 32.662697 -20.221397
29.77491 32.755737 -19.330997
29.80767 32.49057 -18.792824
30.134296 32.526 -17.628174
30.342989 32.54148 -16.871992
29.583523 32.153683 -15.26455
29.56993 32.379604 -14.588777
29.59128 32.39131 -13.572327
29.451 32.20415 -11.303764
29.62322 31.981855 -10.686328
[...]
POINT_DATA 7158
SCALARS features_00 float 1
LOOKUP_TABLE default
0.6847515 0.6786676 0.68460524 0.6334561 0.56161916 0.61499333 0.67195195 0.6127593 0.58627725 0.5260772 0.5680711 0.5813785 0.5698158 0.4915579 0.5211527 0.5033003 0.46313715 0.67631876 0.6696358 0.5963741 0.5336198 0.6020394 0.6121632 0.55843854 0.51012176 0.5533278 0.5358692 0.4771796 0.48821735 0.4461794 0.4453711 0.40382266 0.4310686 0.44332582 0.446171 0.38532883 0.41848332 0.35638884 0.5240225 0.5337189 0.46648294 0.5760301 0.5943705 0.5874247 0.5403024 0.45686483 0.6051326 0.5865464 0.5330871 0.5716692 0.5133829 0.5939941 0.5478826 0.49461788 0.51073134 0.4646578 0.40840638 0.4842465 0.4738124 0.40866798 0.40573192 0.44130692 0.3627142 0.38279098 0.37903285 0.3207289 0.41955462 0.39505386 0.26539648 0.24664 0.49540758 0.17738368 0.55367416 0.59352744 0.28755566 0.5804783 0.601501 0.5808602 0.4978585 0.42075378 0.5845428 0.55875397 0.48653027 0.39029115 0.38026476 0.45895118 0.19985582 0.2270005 0.4048618 0.3559988 0.37569252 0.2977619 0.36126238 0.36396122 0.31952965 0.38827696 0.3102767 0.38912153 0.27762145 0.4030881 0.44402486 0.45867807 0.50089943 0.48050463 0.1897148 0.24881881 0.5372989 0.28365684 0.25820488 0.37509394 0.56602955 0.42725146 0.4618199 0.33982933 0.6559255 0.66579676 0.7123787 0.73701453 0.6188376 0.66413724 0.713141 0.73936415 0.75388634 0.7884064 0.69257283 0.7608148 0.8458997 0.8370588 0.6732091 0.7901716 0.86890197 0.7931054 0.7214314 0.78198445 0.69093406 0.47657225 0.46483654 0.43191952 0.4415849 0.41866857 0.42881685 0.40588608 0.34059125 0.3630406 0.004433647 0.002142176 0.17909148 0.07047189 0.059537064 0.065956965 0.021022176 0.13112023 0.12942654 0.29052255 0.31157923 0.18144844 0.28000644 0.29047817 0.21946624 0.3353187 0.18860188 0.08801125 0.37140203 0.36780822 0.017486535 0.33898073 0.09572811 0.36787704 0.19126523 0.46087328 0.33929607 0.45871735 0.37698904 0.39592308 0.4163908 0.50064456 0.50421345 0.24840267 0.2799071 0.4113335 0.45632458 0.341198 0.22765496 0.22035255 0.4112187 0.32937577 0.49934983 0.6170596 0.65138924 0.7138302 0.3805346 0.44492742 0.5582421 0.61008495 0.7177661 0.7439711 0.74029654 0.40794006 0.47350878 0.5495963 0.62633675 0.7147291 0.74810994 0.7428267 0.42724204 0.5143075 0.6334604 0.7021424 0.72571194 0.6472312 0.5883674 0.6917859 0.7797847 0.78340983 0.6184209 0.68216574 0.7752423 0.70122784 0.47632363 0.61532223 0.7106887 0.6565081 0.5346484 0.49954206 0.38284612 0.517106 0.6161181 0.6234976 0.55567217 0.5173488 0.51236683 0.47397834 0.39617452 0.594566 0.5255205 0.4838792 0.47435302 0.44809735 0.46183532 0.45299745 0.2630177 0.08334937 0.43925533 0.4288745 0.03511621 0.37987846 0.33881038 -0.052113526 -0.01838482 0.0025133155 0.8057605 0.8345146 0.25957447 0.22823733 0.08807632 0.7802145 0.82281005 0.81782866 0.17832619 0.13650833 0.13861623 0.53865504 0.7564542 0.7863388 0.7801673 0.51221305 0.6511317 0.71153057 0.7353163 0.1532655 0.5031028 0.5865669 0.65135854 0.24481481 0.19351247 -0.08727724 0.29428345 -0.13935718 -0.1927957 0.46382177 0.25652236 0.25577766 0.24095662 0.15115836 0.21961649 0.40693462 0.4235289 0.4035341 0.1524226 0.1557264 0.2997942 0.39000595 0.29821625 0.116026476 0.14168616 0.26858175 0.38955036 0.4173078 0.4163913 0.29574406 0.29586548 0.35479963 0.42288637 0.57078207 0.6829361 0.66673076 0.16656008 0.70935655 0.34318292 0.28692642 0.23211941 0.30947345 0.3755915 0.7233381 0.7035228 0.39089197 0.4275447 0.42896158 0.39020386 0.2963531 0.2281996 0.34848797 0.36649105 0.4328047 0.69820786 0.7023295 0.6939837 0.425959 0.41601723 0.3590684 0.28197047 0.32873788 0.35557738 0.5874104 0.41291696 0.39141688 0.34715703 0.8787674 0.8895683 0.86380494 0.79173446 0.8677343 0.8908802 0.82442033 0.6960187 0.8330131 0.878731 0.7360097 0.58256316 0.6023432 0.51019144 0.8020463 0.7697487 0.6535493 0.5078943 0.47658938 0.48030627 0.7702381 0.7049909 0.58435863 0.5141337 0.46286154 0.4480399 0.44391185 0.5525249 0.52234775 0.48302954 0.45604122 0.44288218 0.43761608 0.47389346 0.45065928 0.43206534 0.42786995 0.42271 0.4217385 0.4619558 0.47842342 0.5589967 0.6683723 0.7337922 0.56401443 0.44005412 0.6412896 0.32346708 0.54193103 0.520789 0.51754117 0.40690002 0.29570952 0.3315006 0.5292556 0.5129973 0.15918167 0.07198638 0.333318 0.31722715 0.40344077 0.2928246 0.47325885 -0.13244253 -0.0093574375 0.12151237 0.14595762 0.12200628 0.4265668 0.03712359 0.08351767 0.36049995 -0.042297464 -0.055380963 0.053861395 0.8208313 0.3366499 -0.018403022 0.0035987692 0.03679721 0.64762926 0.7730459 0.8390236 0.82927155 0.23717326 0.064301275 0.09849569 0.44330245 0.5477543 0.79398775 0.75493634 0.19050948 0.13185754 0.5015317 0.74758106 0.098808095 0.39347082 0.6905387 0.713387 -0.0347929 0.20929624 0.43505928 0.45759943 0.60753995 0.65201163 0.34271815 -0.11342721 -0.1563889 0.118054755 0.19893897 0.2740952 0.49543953 0.38829294 0.33343112 -0.19880024 -0.09719963 0.46812963 0.43561417 0.36396018 -0.18122455 -0.12175174 0.49812126 0.5004535 -0.09669021 -0.035598464 -0.036563426 0.2432804 0.38136953 0.3516603 0.51313806 0.16198148 0.0054712594 -0.042292222 0.089932606 0.1988272 0.314779 0.26971495 0.4968409 -0.023162976 -0.07594329 -0.06924883 0.20174947 0.14982745 0.39320135 0.17250925 -0.18332559 -0.040566146 0.050731417 0.3022502 0.12182214 0.2148012 0.26721105 0.2931529 0.0029778443 0.09179831 0.6141528 0.75005436 0.72911 0.57925713 0.3556034 0.021605767 0.043042786 0.11620662 0.15569189 -0.05579765 0.046369106 0.16240957 0.104461424 0.5875164 0.5451964 0.7032542 0.61916906 0.3155949 0.5863956 0.56264406 0.39847732 0.58874714 0.6186867 0.5814153 0.41701317 0.20273598 0.20739818 0.19207865 0.23100969 0.22505875 0.53635967 0.4352789 0.40405476 0.37396565 0.28472668 0.43515924 0.40110824 0.34378278 0.28946057 0.5346106 0.39916748 0.4366573 0.47230643 0.42926693 0.52182525 0.79248124 0.874287 0.87977266 0.82696295 0.80088377 0.7870289 0.7337426 0.8374446 0.8515041 0.70516026 0.6576757 0.8270448 0.8251128 0.59398973 0.5278421 0.8175482 0.8037934 0.46170852 0.7507039 0.42709678 0.4211349 0.5579024 0.48997712 0.4338618 0.46756032 0.4018046 0.4341322 0.40038732 0.39511046 0.4028412 0.3600803 0.37112024 0.3731396 0.3097395 0.36281365 0.3114186 0.24900004 0.24901491 0.311688 0.27122685 0.501197 0.34907722 0.11905288 0.19419104 0.05084468 0.37483364 0.06241745 0.28313404 0.111052506 0.29372248 0.11680165 0.29391384 0.5688883 0.7463665 0.86407614 0.8514613 0.18329784 0.060184203 0.012543589 0.36537898 0.5393046 0.82211363 0.17513473 0.1327479 0.34358764 0.74980795 0.74596024 0.13863422 0.32350618 0.66645914 0.70032 -0.18309467 0.63442177 -0.16855356 -0.09571101 -0.1791673 0.5940625 0.34831393 0.3138713 0.25031152 0.08775726 -0.5709978 0.10171847 0.14140175 0.4442904 0.46572694 0.38349128 0.37062407 0.01902327 0.036951482 0.31904113 0.45028132 -0.060611337 -0.03857707 -0.07712786 0.16971952 0.40157568 0.36279848 0.33226606 0.4602616 0.48647505 -0.015543081 0.2903638 0.4761371 0.17558753 0.50045526 0.5043402 -0.117551714 0.17454648 -0.209405 0.7958257 0.7135631 0.63273597 0.4092822 0.23075084 -0.41012877 0.44910216 0.8167095 0.7890818 0.5022966 0.45798612 0.3569926 0.25624165 -0.0008396283 0.06939218 0.4894846 0.48727497 0.80113184 0.76392376 0.72313905 0.41376776 0.3133862 0.23708417 0.52168363 0.50651306 0.72614825 0.6961283 0.6876447 0.52939403 0.35143805 0.51342386 0.6822345 0.68190944 0.67429936 0.36841664 0.40769804 0.24250263 0.45493174 0.48397774 0.15082176 0.38495377 0.5321685 0.45629674 0.3884114 0.22228414 0.064925775 0.2377767 0.36746275 0.682057 0.48326313 0.38799238 0.32402498 0.36362252 0.7393049 0.80123353 0.37669346 0.43328837 0.5663833 0.7921487 0.8579134 0.35653505 0.4548682 0.6159055 0.7654441 0.8373118 0.7795576 0.79381573 0.7998228 0.8540184 0.85042167 0.79295653 0.79872036 0.7713022 0.8260842 0.8363104 0.71426433 0.8034093 0.7971658 0.5615674 0.78621 0.7763456 0.4434781 0.67724204 0.38488114 0.58410156 0.32160684 0.28959692 0.4665023 0.4581246 0.3628975 0.34681106 0.47109216 0.23293091 0.32748577 0.24889015 0.2250232 -0.08710622 0.2299414 0.21940756 0.21631354 0.12598135 0.13257506 0.11852026 0.11555578 0.13179234 -0.022876464 -0.09668532 -0.00014247 0.1782626 0.10698359 -0.17312655 -0.19096507 0.0053225905 -0.04379745 -0.051649485 0.05652014 0.06792563 0.09430993 0.19433376 -0.081452444 0.079638146 -0.10121663 0.010270432 -0.019402385 0.5956658 0.7852154 0.8149645 0.041880522 0.08182889 0.19325873 0.76118124 0.13628937 0.70258474 -0.014393114 0.63810784 -0.22806169 -0.2099574 0.36435896 0.2828503 -0.051861495 0.35044828 0.02829215 0.3986341 0.24575688 0.4001882 0.22711432 0.42418757 0.1737718 0.12033879 0.32567078 0.23910707 0.75038904 0.73331535 0.57112265 0.8181759 0.80800176 0.20259571 0.8353883 0.041738406 -0.13267857 0.42201453 0.45444918 0.8138405 0.762917 0.3121144 0.09805649 0.446391 0.4597681 0.7376987 0.6971722 0.45375797 0.39545813 0.28321153 0.36705065 0.4775968 0.69045115 0.6827469 0.68025374 0.6654161 0.5915581 0.41956374 -0.25171366 0.47752172 -0.020380665 -0.23288119 0.23367596 0.5217049 0.5371946 0.07354264 0.55911887 0.5365097 0.4985025 0.36298263 0.2413517 0.13787813 -0.050478205 0.14485846 0.25009036 0.73569447 0.32246298 0.07852936 0.16925408 0.2467117 0.28723934 0.8578148 0.8044775 0.22081089 0.3170135 0.43485564 0.614341 0.78417706 0.86953294 0.62205446 0.7392355 0.7792741 0.78455836 0.798885 0.79577595 0.7508527 0.7651721 0.7961864 0.79121673 0.8157518 0.801734 0.7509997 0.6324812 0.76002073 0.71820575 0.4949973 0.7299874 0.5919805 0.39899865 0.65157413 0.31236786 0.39995205 0.24144343 0.4826709 0.22236894 0.19785078 0.2029549 0.17751293 0.2143034 0.26161483 0.2403005 0.051951025 -0.17278473 0.18818179 0.13741392 0.33616316 0.22104302 0.17054036 0.011834293 -0.1567762 -0.23595172 0.2017435 0.29529285 0.2995079 0.1510287 -0.0012183553 -0.15080473 -0.21165529 -0.031206757 0.12138894 0.093829855 0.14208142 0.19843408 0.3196751 0.3751076 0.27242368 0.16957161 0.11541857 -0.061153203 -0.17162576 -0.16961673 0.124019325 0.23482552 0.32966742 0.40193933 -0.20450334 -0.17283589 0.09298562 0.08718097 0.14881659 0.2605906 -0.12414442 -0.09714086 -0.05823008 -0.056780107 -0.08241162 -0.10832473 -0.10084731 0.03275798 0.13904613 -0.0014728908 0.037405677 0.068388715 0.268602 0.16620664 0.17273942 0.19587007 0.3725487 0.26251656 0.20079276 0.22643614 0.3890869 0.011926204 0.36958307 0.33212355 0.2261122 -0.10704481 0.27832678 0.11078036 0.021942735 0.2063475 0.48829007 0.6195845 0.7052925 0.06968283 0.6585884 0.6123363 -0.21439007 0.11904888 -0.017724536 0.24469861 -0.11988208 -0.00044223666 0.3203261 0.17566541 0.30746815 0.27648795 0.40160498 0.42243868 0.504985 0.13755986 0.4391611 0.52395487 0.7170974 0.3528552 0.7746134 0.7582942 0.114882454 0.8243551 -0.45689997 0.8267278 0.1798804 -0.32551518 0.2537608 0.7914374 0.73410225 0.4051313 0.29853964 0.3822354 0.694787 0.6836405 0.68451786 0.65554035 0.57995594 0.39833403 -0.07106574 -0.13659316 0.45671147 0.5090338 0.42533228 0.52548224 0.50555086 0.55771995 0.6306175 0.2890795 0.13358009 0.09573842 0.08965947 0.74765337 0.079394534 0.09143587 0.12785564 0.19029723 0.23707874 0.8214495 0.21089596 0.24622421 0.51806605 0.6553449 0.7484534 0.77605486 0.7905749 0.72239965 0.7350233 0.76019 0.75548947 0.5857125 0.5062463 0.7092501 0.41851133 0.29917336 0.52075815 0.40876123 0.38485274 0.255036 0.27682072 0.12563543 0.08554875 0.26645815 0.13955496 0.21286854 0.13056856 0.121263035 0.49572337 0.4350872 0.42296094 0.120403945 0.5800301 0.5666208 0.53418577 0.3236871 0.20569035 0.34564954 0.5847837 0.5764133 0.45342994 0.35924193 0.30103272 0.4020083 0.4434114 0.56903505 0.5241236 0.43799937 0.3525435 0.25252604 -0.22270039 0.51169646 0.4432414 0.3619101 0.28945702 0.11313933 0.30420643 0.40451217 0.49953043 0.54453665 -0.22441468 -0.042347454 0.2214751 0.35226312 0.46990752 0.5411078 -0.052585497 0.063872635 0.18646337 0.33779475 0.48011437 0.52683973 0.41169712 0.34093264 0.19472988 0.4110577 0.3608359 0.28559187 0.44598275 0.41526133 0.29898444 0.34643346 0.4408515 0.40889406 0.20755494 0.30469376 0.40918905 0.3698346 0.28165874 -0.12860627 -0.10388684 0.45648617 0.53824514 0.2750929 0.10633615 0.24525666 0.43233597 0.54539114 -0.19348982 0.29666895 0.45550343 0.27136594 0.16497932 -0.0728101 -0.28441435 0.42533848 0.30885783 0.14545116 -0.11876034 -0.17460616 0.33487457 0.33738568 0.17525938 -0.09315036 0.03432823 0.09762937 0.21279508 0.39450085 0.48882335 0.52985364 0.55627084 0.5516322 0.56045306 0.423046 0.48540404 0.4993083 0.7090366 0.604608 0.24486957 0.31070495 0.42985103 0.74849737 0.65481234 -0.48430455 0.22368506 0.32641464 0.78077495 0.6730645 0.0036916062 -0.45295691 0.69213897 0.6181611 0.33655623 -0.27062353 -0.19105731 0.6479707 0.6622125 0.66595596 0.56058055 0.45929 0.23540996 0.34776473 0.2068878 0.24445453 0.47742027 0.3060781 0.38199198 0.45962048 0.29993802 0.15210287 0.11902817 0.08583834 0.6195341 0.06635265 0.059120122 0.06726612 0.65968615 0.051488906 0.17657249 0.21316275 0.21878654 0.28016168 0.54190314 0.20102233 0.14841765 0.07237254 0.10500694 0.14711109 0.337222 -0.21048221 0.033258624 0.33320698 0.114141084 -0.08209936 0.25390744 0.3454074 0.33447778 0.25520056 0.12920442 0.53603995 0.5092141 0.41849017 0.3617555 0.14443514 0.5659007 0.55427325 0.29452795 0.370269 0.57598937 0.58319664 0.48387867 0.543407 0.5084765 0.54808986 0.4852194 0.4827902 0.4411764 0.35093373 0.5621397 0.5677956 0.24448998 0.56397206 0.57611525 0.2726484 0.034780335 0.5441908 0.44509238 0.40933645 0.32558614 0.4090805 0.45726758 0.31417453 0.44323415 0.34825796 0.4442792 0.17662497 0.28485274 0.44809508 0.44538003 -0.17995387 -0.0037011355 -0.14560303 -0.17570068 -0.08099972 0.024293028 0.35787702 0.25931028 0.20719424 -0.10424632 0.07946293 0.27894008 0.33173096 0.4987856 0.40329295 0.310686 0.30046776 0.33479232 0.5183164 0.44462964 0.29633263 0.2605037 0.49449912 0.4447526 0.1692731 0.087698266 0.44149342 0.40429068 -0.029043809 0.06526173 0.29800785 0.068766594 -0.22272465 -0.14620438 -0.1432592 -0.07411595 0.33149526 0.49563694 0.055421814 -0.06590199 0.56260794 0.025733218 -0.15723467 0.5644428 -0.43951362 0.50132763 0.28508452 0.41375893 0.6291839 0.47627616 0.3205768 0.46389204 -0.30991644 0.21269117 0.57979864 0.5196687 0.52927476 0.30762333 -0.33559117 -0.1927842 -0.0010197116 0.61194766 0.60770226 0.5120785 0.45628232 -0.26993072 0.15036152 0.23882045 0.14163435 0.19852209 0.1488736 0.13254555 0.074539125 0.48707733 0.021504276 0.04960629 0.19284986 0.3872553 0.056684196 0.059292153 0.15893218 0.12886152 0.11831848 0.17354429 0.31326288 0.21324514 0.2394967 0.29038048 0.38289335 0.46032974 0.49189806 0.47346812 0.06198746 0.36396188 0.42578882 0.3703332 0.30736512 0.25137967 0.15530303 0.5032081 0.43426803 0.40040565 0.05707228 0.1327204 0.5174995 0.547902 0.06277989 0.5576841 0.3690864 0.42780215 0.5219363 0.5195106 0.51126325 0.477093 0.4902565 0.48657936 0.39952958 0.5477284 0.3999384 0.2943141 0.546942 0.47139215 0.49659696 0.43541813 0.38343787 0.259875 0.35236758 0.39532286 0.4225562 0.20442507 0.12269405 0.39129752 0.3642503 0.267147 0.20298357 0.34583306 0.09048545 0.37540174 -0.24894522 0.24250954 -0.23482703 0.3871809 -0.2814544 -0.24054405 -0.22259095 0.048952393 0.16374983 0.29266328 0.3252286 0.539913 0.5258539 0.4423089 0.3200124 0.31399268 0.5404117 0.54016465 0.2455473 0.49865532 0.50025034 0.19292969 0.37157845 0.34843445 0.00031289458 0.2983948 -0.2118877 -0.16215082 0.25596073 0.18628281 0.4678482 0.4076122 0.2654613 0.5225469 0.41918957 0.27005735 0.13071382 0.5049455 0.15570623 0.45493633 -0.08260932 0.40739912 -0.06464094 0.3179403 0.3602463 0.104168996 -0.109386906 -0.3091644 -0.3099931 -0.33226717 0.43965334 0.5279597 0.37943184 -0.348555 -0.27760404 -0.07536508 -0.14437626 0.08290002 0.026771352 0.09208973 0.105947584 0.1365962 0.15422606 0.08185007 -0.023617625 0.038423836 0.17104316 0.08670519 0.099175334 0.08678688 0.08424279 0.32116294 0.32478586 0.20119515 0.13211884 0.100481026 0.10920218 0.45763034 0.39326212 0.3711833 0.30202943 0.57520354 0.534117 0.44689554 0.40648168 0.35444742 0.3927371 0.4720154 0.31644705 0.41167527 0.51694363 0.55300975 0.5335558 -0.18098603 0.53170365 0.54747534 -0.010220602 0.44919005 0.42252314 0.4092257 0.3557368 0.24847227 0.10585845 0.02708906 0.31960812 0.44800755 0.4576166 0.15100768 0.5084849 0.11026885 0.50214326 0.25924024 0.31984514 0.5026601 0.372511 0.4302371 0.49375543 0.43516406 0.38789135 0.42324853 0.31212604 0.16084719 0.50347716 -0.6285456 0.40924567 0.41642475 0.3316536 0.36492276 0.39864367 0.06674689 0.18503395 0.10166895 0.3225022 0.1611624 -0.010620199 0.051646184 0.24431713 -0.014513321 0.12237341 -0.3407003 0.23657665 0.040101886 -0.29862323 -0.34250847 0.46385092 0.36744744 -0.104604945 0.033078715 0.13358074 0.21319968 0.5170466 0.49556047 -0.43482375 -0.29363543 -0.19324969 0.24584615 0.5280292 0.15016077 0.044926196 0.49675536 -0.06483019 0.38328803 0.41497195 -0.07677078 0.08399773 0.05869647 0.17697476 0.2635697 0.30770165 0.41821223 0.41420949 0.21882522 0.53767186 0.51679707 0.56295455 0.5178776 0.526971 0.33302024 0.40944007 0.32403955 0.17384362 -0.039912984 0.25433797 0.32229844 0.22846887 -0.31534475 0.041166343 -0.23396803 -0.29928267 -0.37011272 -0.32719803 0.00027388707 -0.20910531 0.008536838 0.03837068 0.07055513 0.0329244 0.03454479 0.11448338 0.02150461 0.06994368 0.13349345 0.20056984 0.08817197 0.0833848 0.043077633 0.26678115 0.25044987 -0.09987207 0.16942652 0.22839905 0.17918868 0.08131336 0.3705367 0.037130937 0.06107147 0.05859617 0.5877728 0.5751322 0.21650511 0.14896436 0.6197956 0.60829115 0.5694091 0.49781722 0.4289858 0.3721482 0.62689936 0.61582017 0.5875175 0.524873 0.46112508 0.3714419 0.3746619 0.4155661 0.47491938 0.55996984 0.30461296 0.2714842 0.31076372 0.24818626 0.5995042 0.25818503 0.6130033 0.61135375 0.59843236 0.42814532 0.4192515 0.39308855 0.15233548 -0.034608245 0.23657538 0.4499131 0.43323982 -0.051054485 -0.012374327 0.4543057 0.45843524 0.11550237 0.20292474 0.46139202 0.46609002 0.22638032 0.4683914 0.3066229 0.25546682 0.45480567 0.27708676 -0.08905236 0.14752522 -0.35074124 -0.41691178 0.30976805 -0.30945462 0.28179497 0.3101517 0.16312337 -0.14284635 0.101840824 0.208965 0.475855 0.2433416 0.0746416 -0.036616325 0.5461861 0.5159076 -0.00068989396 0.5421326 0.4953622 0.35273415 -0.12946013 -0.034248903 0.50268954 -0.07215771 -0.3373771 0.40600523 0.5328037 0.30305442 -0.37565824 0.16203889 0.4307286 0.40409696 0.3957751 -0.42491168 -0.3225923 -0.21446496 -0.10230853 0.26217943 0.43510693 -0.027019847 0.39800125 -0.061325278 0.0139413485 0.18517968 0.11591758 0.20741397 0.25973275 0.16169864 0.19643778 0.24359955 0.3235764 0.21543089 0.35147452 0.33398283 0.40217113 0.2536974 0.52200806 0.5115769 0.099388175 0.094941095 0.56703067 0.56780744 0.09073023 0.33623666 0.51588106 0.4431128 0.2531686 0.09390464 0.112412184 0.15920632 0.120568 0.2592891 0.25160643 0.08066237 0.3142281 0.2820079 0.036987178 0.03698261 -0.29531533 -0.4519195 -0.3752109 0.13346083 -0.3667515 0.05406364 0.063262664 0.31443095 0.2674861 -0.17428455 0.055272117 0.39878565 0.33381286 0.1233498 0.08892572 0.4647847 0.41949552 0.2734853 0.47951737 0.43539023 0.31563365 0.25970712 0.4271777 -0.045392603 0.017987732 0.022802934 -0.021931723 0.24476476 0.25936213 0.25436503 0.039273426 0.055439103 0.13606313 0.58829594 0.46348625 0.53098017 -0.016359136 0.6965983 0.70156264 0.6833129 0.62880945 0.20408912 0.70953524 0.7108077 0.69843715 0.6386333 0.38481992 0.2991381 0.6368699 0.62152255 0.60530794 0.54098326 0.4807574 0.60666 0.5915836 0.57708013 0.40597188 0.4149726 0.42624176 0.43115616 0.36975467 0.35644048 0.37813896 0.40844184 0.42864764 0.4749057 0.5776137 0.37473997 0.3619132 0.6488874 0.30951825 0.6502552 0.1946503 0.1753727 0.20610197 0.6188216 0.46655792 0.45610005 0.44102702 0.39973217 0.14408097 -0.13079426 0.24549435 0.47945 -0.26968658 -0.5815513 -0.3032524 0.4819302 -0.4022127 0.45665532 0.461075 -0.1114394 0.44824666 0.44055003 0.05115889 0.3122689 0.44273406 0.44526306 0.39564