# vtk DataFile Version 2.0
Really cool data
ASCII
DATASET POLYDATA
POINTS 6827 float
6.4048953 24.05499 -46.222134
6.3393483 23.530224 -45.300194
6.399789 23.588861 -44.762997
6.384145 25.042923 -47.09481
6.230886 24.83017 -46.37535
6.274994 24.552956 -45.55447
6.3691716 24.243849 -44.936367
6.315011 25.520607 -47.036266
6.1770825 25.482481 -46.53663
6.2465935 25.52058 -45.821598
6.389808 26.182232 -47.03244
6.323433 26.201323 -46.53353
6.3189325 25.99962 -45.931957
7.456699 19.910913 -52.40142
7.473298 20.142996 -52.608467
7.2770743 20.943153 -49.122303
7.2661815 20.83393 -48.39207
7.390152 20.8435 -47.878464
7.3413453 21.74548 -49.9917
7.022169 21.715956 -49.336872
7.0724106 21.630495 -48.5169
7.1811337 21.407524 -47.986065
7.1530833 22.315166 -44.866093
7.1674037 22.385717 -49.931812
6.906595 22.445503 -49.283783
6.9038787 22.502699 -48.788147
6.7750244 23.208483 -46.092144
6.570105 22.972878 -45.302822
6.702759 22.828999 -44.704
7.306913 22.772888 -43.776176
7.229075 22.889793 -49.844204
7.1317153 22.939762 -49.559902
7.154937 23.48559 -48.009926
6.513848 23.783398 -46.098602
6.4866056 23.222973 -45.556774
6.5404425 23.420727 -44.474895
6.8851976 23.438278 -43.980778
6.5499034 24.443464 -44.524467
6.937083 24.258884 -43.96515
6.851378 25.56299 -47.721558
6.547709 25.498472 -47.39441
6.439074 25.757248 -45.421734
6.68938 25.303883 -44.867626
7.123172 25.115152 -44.171112
7.057136 26.180927 -47.71531
6.7543526 26.45278 -47.317257
6.511603 26.523874 -46.590446
6.6747255 26.329676 -45.716022
6.910238 26.025902 -45.03191
6.992348 26.83406 -47.132607
6.8469315 26.837994 -46.583317
6.9123254 26.738026 -45.979233
8.323524 13.198308 -34.992847
8.208536 13.784852 -36.0676
8.0372925 13.833233 -35.345245
8.208605 13.64201 -34.663815
8.297901 13.943524 -34.25693
8.259094 15.054354 -50.993988
8.228788 14.95025 -50.455063
8.285504 15.008511 -49.724434
8.303752 15.1241 -48.402744
8.339786 15.037631 -47.839787
8.161807 14.540645 -36.09197
7.9694223 14.539842 -35.5049
8.000888 14.448029 -34.858524
8.180838 15.577518 -51.263527
7.9868727 15.6100025 -50.492447
8.029183 15.714912 -49.59571
8.166336 15.559448 -48.267033
8.322481 15.417244 -47.465584
8.323762 15.913674 -47.183002
8.1866 15.087369 -35.963882
8.142708 15.250296 -35.52338
8.164318 15.129665 -34.74472
8.112765 16.199097 -51.299934
8.020701 16.465033 -50.33213
8.0421715 16.228529 -49.66397
8.1285925 16.247911 -48.394283
8.27688 16.267038 -47.50079
8.218354 17.969545 -52.321907
8.316847 17.651077 -50.514465
8.160826 16.905054 -49.94946
8.3285 17.094526 -48.35673
7.9968786 18.812803 -53.46674
7.9277816 18.765642 -52.388634
8.208734 18.37093 -51.235443
8.069319 19.582203 -54.00977
7.7042255 19.563828 -53.375286
7.550101 19.442398 -52.621788
7.7259293 19.4206 -51.708942
8.235698 19.552174 -50.485146
7.8590026 20.006721 -47.96554
8.180195 20.326687 -53.948025
7.7124915 20.407866 -53.167892
7.5988317 20.555239 -52.63761
7.557941 20.385288 -51.934998
7.7764864 20.568624 -50.610004
7.6883855 20.380453 -49.56538
7.5827074 20.352638 -48.544685
7.5424523 20.705755 -47.752075
8.119548 20.720867 -46.81667
8.037255 20.974258 -53.176655
7.9071836 21.150436 -52.45794
7.9467797 21.408628 -51.198685
7.746815 21.489359 -50.485924
7.4725494 21.351015 -47.53288
7.4657044 22.230474 -44.452145
8.025445 21.996237 -43.702724
7.9328585 21.949308 -50.89067
7.476123 22.615757 -50.15414
7.5570874 22.57438 -43.662712
8.050336 22.808054 -43.007404
7.715212 23.139332 -50.046524
7.549953 23.554232 -49.32518
7.5151057 23.590446 -48.69512
7.87313 23.499716 -43.052895
7.852003 23.761534 -49.143715
7.8799896 24.59756 -48.147358
7.722915 24.704214 -43.494015
7.8790665 24.152138 -43.126823
7.299288 25.88219 -47.864574
7.6342077 25.192951 -43.79052
8.209863 25.02032 -43.381863
7.3983936 26.21379 -47.795372
7.2020497 26.671616 -47.516922
7.264864 26.630884 -45.363434
7.7418585 26.565636 -44.86776
7.672921 25.848053 -44.28896
7.472999 26.93714 -47.256813
7.4639 27.131912 -46.513382
7.609891 27.02049 -45.735725
7.615559 26.686691 -45.043793
9.066194 12.020595 -35.20527
9.126288 12.007561 -34.668983
9.248819 12.262643 -34.026882
8.868238 12.971547 -36.210884
8.808227 12.456431 -35.441845
8.670029 12.703324 -34.588627
9.051588 12.80108 -33.76671
9.121348 14.328129 -51.25692
8.844859 14.359557 -50.70233
9.000522 14.244664 -49.331528
9.116697 14.143329 -48.475147
8.9773035 14.23296 -47.97227
8.940771 13.817641 -36.911526
8.692066 13.449132 -36.478367
8.450136 13.345037 -34.662228
8.880824 13.467695 -33.79752
9.240198 13.768404 -33.366283
8.94891 14.909748 -51.92506
8.688752 14.738037 -51.31091
8.581867 14.641251 -50.689533
8.660641 14.565223 -49.50405
8.707568 14.5520115 -48.436554
8.617184 14.765043 -47.64266
9.009165 14.754657 -46.60737
8.903281 14.288635 -36.932133
8.767448 14.303404 -33.792664
9.27707 15.819192 -52.898396
8.878833 15.519728 -52.20745
8.748674 15.600042 -46.64592
8.979848 16.03958 -45.167545
9.245077 15.817575 -44.789375
8.915995 15.212686 -36.783436
8.580889 15.405015 -36.266792
8.469197 15.623313 -34.444202
8.808194 15.434734 -33.96442
9.25773 16.76182 -54.137833
9.047492 16.539366 -53.257004
8.747012 16.666348 -52.364033
8.661473 16.620827 -46.54703
8.820294 16.655354 -45.492905
9.024226 16.78114 -44.65316
9.2323885 16.02191 -36.678654
8.942786 16.097872 -36.28053
8.643052 16.23359 -35.5548
8.882365 16.413755 -34.50724
9.055826 16.309837 -34.046192
9.229662 17.713938 -54.80881
9.10906 17.64011 -54.532387
8.644377 17.920523 -53.41066
8.525792 17.572119 -52.516727
8.5278845 17.352938 -49.40305
8.847921 17.404186 -47.26597
8.719175 17.113306 -46.209988
8.852126 17.46498 -45.328953
9.010013 17.382357 -44.802788
9.399036 17.899807 -44.04812
9.321415 17.030783 -35.932255
9.088203 16.949594 -35.213978
9.089819 16.831842 -34.61849
9.203552 18.587862 -54.623226
8.762663 18.779266 -54.495373
8.536986 18.418322 -50.541817
9.205063 18.703894 -49.565773
8.9491205 17.957018 -48.686264
9.044937 18.125591 -46.07184
8.870631 18.623466 -45.67909
9.0058155 18.587801 -44.60557
9.304755 18.76582 -44.074642
8.829665 19.469463 -54.53387
8.474475 19.607393 -54.37583
8.765194 19.328487 -47.298725
8.8191395 19.290552 -46.36434
8.86491 19.19668 -44.9434
9.268019 19.813726 -43.95646
8.457681 20.438988 -54.10596
8.481974 20.321953 -46.44063
8.5979805 21.22032 -45.88671
8.999827 20.131805 -44.80026
9.079158 20.279198 -44.07106
8.860657 21.037418 -53.92773
8.541199 21.297686 -53.358467
8.369303 21.847658 -43.46131
8.705478 21.999058 -42.916546
9.031869 21.61003 -53.17997
8.620152 22.59599 -42.69215
8.889125 22.95224 -50.71555
8.904528 23.434372 -50.53137
8.5777855 23.4981 -42.71151
8.956138 23.620924 -42.41848
8.409903 23.947395 -49.528637
8.307338 24.431236 -48.402565
8.525543 24.251163 -42.796944
8.633939 24.988815 -43.11142
8.836103 26.246794 -43.90428
8.1936865 27.0087 -47.149097
8.553664 27.370829 -46.35566
8.470959 27.275774 -45.61163
8.755605 26.95008 -44.706425
9.964651 11.384235 -35.402054
9.715338 11.5771675 -35.446236
9.583886 11.649599 -34.62523
9.55341 12.032213 -33.970074
10.16495 13.271257 -47.735767
9.589635 12.573035 -36.427635
9.472409 12.508867 -33.598988
9.754767 12.833368 -33.21932
9.640306 14.0856695 -51.410446
9.375497 14.020085 -50.596077
9.555221 13.925522 -49.5847
9.410254 13.899303 -48.632187
9.520231 13.875979 -47.32011
9.59276 14.005494 -46.557648
10.081922 14.05988 -44.975075
9.256125 13.8031845 -37.080135
9.770381 13.430182 -33.112236
10.099869 15.134463 -53.042778
9.654849 14.679235 -52.27287
9.502481 14.914954 -45.597332
10.167295 14.909996 -44.499393
10.1525545 15.140163 -44.01505
9.775838 14.870348 -37.418655
9.717501 14.489463 -33.190544
9.891018 16.202967 -54.40244
9.542963 15.788075 -53.386044
9.679145 15.3327 -44.779755
10.155431 15.716086 -43.5929
9.649934 15.814839 -37.041885
9.314724 15.793558 -33.462498
9.605182 15.35752 -33.280666
9.793354 16.925673 -54.89427
9.574943 16.652962 -54.545963
9.787733 16.358923 -43.792194
10.442664 16.84877 -42.592796
9.733682 16.2947 -36.86729
9.620601 16.518728 -33.58573
9.8339615 16.309994 -33.30667
9.666985 17.38148 -55.05919
9.983499 17.95889 -43.624912
10.267249 17.56228 -42.84378
9.699607 17.121548 -36.299324
9.596017 17.414553 -35.62208
9.698275 17.21812 -34.445236
9.693136 16.784267 -33.802853
9.60122 18.426792 -54.97216
9.563783 18.785995 -43.69024
10.228959 17.749813 -35.972424
10.211082 17.793682 -34.67416
9.530324 19.557753 -54.577877
9.596073 19.056583 -43.653194
9.584472 20.435652 -43.50203
9.988706 20.584864 -43.02801
9.556006 21.17106 -53.932247
9.864404 21.4926 -53.580215
9.81238 21.710424 -42.496887
10.068446 21.49527 -42.36258
9.46942 21.708103 -53.44251
9.641358 22.555918 -42.213993
9.718854 23.64755 -50.664032
9.539844 23.831867 -42.19849
9.715681 24.18588 -50.339764
9.508128 24.441622 -42.489456
9.961964 24.21639 -42.05134
10.055288 24.861422 -49.83579
10.012445 24.90131 -49.62791
9.561413 25.18114 -42.783844
10.124677 27.172565 -57.014713
10.068551 27.009077 -56.417328
9.8090515 26.318232 -43.497295
10.333416 27.882334 -57.897636
9.8804455 27.775229 -57.21791
9.735495 27.628548 -56.54196
9.884427 27.658789 -55.73964
10.344681 27.394997 -55.265568
9.583737 27.25017 -46.779537
9.267366 27.456297 -46.38928
9.28406 27.494339 -45.760757
9.417614 27.23341 -44.808834
9.798273 26.761572 -44.074215
10.226385 28.55506 -57.897785
9.876983 28.36198 -57.231697
9.683275 28.226295 -56.39591
9.927654 28.481298 -55.720306
10.238391 28.263962 -55.247063
9.574771 27.519932 -45.507538
10.334606 29.050827 -57.972424
10.15366 29.293886 -57.31178
10.048616 29.20072 -56.541897
10.032403 28.937498 -55.92369
11.489182 9.9075575 -54.598995
11.335609 9.636194 -36.412457
11.462027 10.29107 -55.023243
11.453122 10.443922 -54.596874
11.48585 10.440782 -53.844997
11.010926 10.342692 -36.54895
10.848086 10.88727 -35.673508
11.238752 10.596434 -34.938976
11.458553 11.262279 -54.218876
11.043703 11.997918 -46.33925
10.938252 11.935297 -45.41433
10.919508 12.042053 -44.78513
11.109379 11.940134 -43.6647
10.250971 11.803149 -35.996716
[...]
POINT_DATA 6827
SCALARS features_00 float 1
LOOKUP_TABLE default
0.505577 0.53716475 0.5536524 0.58352816 0.60874504 0.5834847 0.567677 0.6677307 0.68911815 0.6638664 0.7193412 0.7323674 0.69527984 0.42862332 0.47154123 0.37550592 0.3193883 0.25762147 0.39563167 0.42749014 0.40977317 0.33522937 0.4346614 0.41665718 0.44650808 0.46943444 0.41484421 0.4976869 0.52543235 0.50422704 0.4091386 0.4153463 0.32054523 0.4861123 0.49820828 0.55634165 0.5577398 0.5699136 0.5466068 0.5522625 0.6088256 0.63779646 0.57800883 0.5129396 0.6290958 0.7100365 0.7400795 0.6761991 0.58397937 0.73406076 0.7391757 0.698434 0.66283023 0.71044606 0.71328104 0.671316 0.6581342 0.41514534 0.42014128 0.4082108 0.36238894 0.34456682 0.70071656 0.7260878 0.7130245 0.41252768 0.43545753 0.41275814 0.3656282 0.33747455 0.31023005 0.68496454 0.7025851 0.7037784 0.3835724 0.33835256 0.36223587 0.33754396 0.30300176 0.3201794 0.108256646 0.23091123 0.23866785 0.516953 0.3883489 0.16418722 0.59799606 0.5687196 0.45951757 0.27858675 0.046995346 0.16975766 0.63070697 0.56984484 0.4769774 0.34752238 0.23616773 0.28312877 0.2666642 0.22275129 0.07824391 0.5817287 0.44166732 0.27536416 0.33904016 0.24355012 0.41862205 0.33061606 0.31239083 0.39909363 0.4684193 0.42667833 0.3710575 0.3541897 0.3374336 0.45055696 0.307728 0.23754705 0.43410403 0.421983 0.5352859 0.44407794 0.36980385 0.58229065 0.6943908 0.6098914 0.51310086 0.4625473 0.714522 0.7043705 0.62376535 0.545362 0.5745976 0.58706206 0.61099577 0.6398923 0.61698604 0.6272233 0.6230839 0.32629097 0.35713 0.31603715 0.2769988 0.28449064 0.61431754 0.6627629 0.65365624 0.6220838 0.60278744 0.32899192 0.3754846 0.3904056 0.36338997 0.3248882 0.32494465 0.28595132 0.6087066 0.6313728 0.26124248 0.31133753 0.28597057 0.22342409 0.20903951 0.5791924 0.6296147 0.6531741 0.61245 0.36211202 0.288982 0.26649964 0.22137493 0.20200123 0.20167284 0.5413366 0.5866346 0.6391165 0.58632004 0.5607411 0.4481481 0.43487227 0.3978294 0.29800248 0.14715466 0.14464861 0.1633774 0.16159464 0.17420106 0.108350314 0.5437722 0.5658213 0.55330354 0.47831953 0.50159556 0.030147329 -0.06506026 0.06746498 0.07904324 0.07676833 0.11507397 0.08236021 0.5520226 0.58373487 -0.035368964 -0.017247602 0.08851968 0.06858517 0.6253215 0.007942043 -0.018749584 0.05627171 0.058690146 0.5970111 0.59539825 0.26225767 0.27661765 0.5288671 0.3576411 0.29058045 0.2808408 0.36869878 0.32298905 0.26092947 0.17120677 0.34505188 0.32429472 0.36327007 0.6281655 0.5215007 0.50249594 0.42103678 0.434708 0.47718495 0.53163576 0.5923183 0.1327257 0.5427896 0.61384034 0.59398913 0.25053802 0.2876277 0.25362417 0.2427903 0.22684792 0.22338025 0.13824184 0.5661436 0.5780427 0.17028874 0.22346456 0.20814943 0.12653688 0.11608152 0.4636714 0.56380844 0.36950558 0.26399955 0.17832041 0.13256247 0.47656044 0.55262 0.55232996 0.43371487 0.39368385 0.16767804 0.08465707 0.47967452 0.5156264 0.5048562 0.44813308 0.061806895 0.06111344 0.5010158 0.49623695 0.4857424 0.5015514 0.44701844 0.047595363 0.40139225 0.40451345 0.50493556 0.038861953 0.04565858 0.04913911 0.5142551 0.4258829 0.17995279 0.15736946 0.47734436 0.27149343 0.24398303 0.270304 0.23194385 0.25957635 0.22523813 0.16809571 0.15681075 0.25253332 0.5251835 0.5678999 0.28723148 0.40846753 0.5741743 0.6642723 0.6288278 0.53134054 0.31776297 0.38681334 0.38554254 0.35560173 0.29835272 0.4511283 0.57246315 0.6622725 0.5751204 0.49587438 0.344527 0.44060552 0.50577265 0.5597984 0.5486529 0.351116 0.44912654 0.35310397 0.31589454 0.26251245 0.34172234 0.32578188 0.39247283 0.24637423 0.15431271 0.25646013 0.3230391 0.37056834 0.41237065 -0.07670364 0.05265182 0.100287616 0.039778285 0.10063895 0.18651447 0.2198788 0.3050223 0.3260222 0.3274649 0.35393146 0.53186196 -0.008689716 -0.031863287 0.08195718 0.11610781 0.18763322 0.43529058 0.5092081 0.07581552 0.3328937 0.51038355 0.41337246 0.3590779 0.1038039 0.054501772 0.4202044 0.47016782 0.44180813 0.11695045 0.12863353 0.28932068 0.43124908 0.45413086 0.0685208 0.09021218 0.12406902 0.13453013 0.43098658 0.44808862 0.05571452 0.035382476 0.23143911 0.32004535 0.26155198 -0.052239046 0.5114332 0.08065811 0.15040912 0.23134227 0.15546656 0.19918558 0.17043039 0.19562683 0.17800707 0.12864253 0.6109174 0.4732407 0.36663178 0.31197453 0.29883218 0.023965808 0.09132586 0.6073393 0.5009463 0.341643 0.3975715 0.3790629 0.29748705 -0.053093627 -0.08005518 0.1343802 0.59030604 0.44092768 0.33726704 0.44807816 0.30762175 0.07455002 0.16218305 0.19361925 0.22903505 0.22665256 0.3385346 0.3934307 0.27001378 0.2595541 0.3791958 0.38318458 0.29044116 0.35423934 0.4084096 0.4623616 0.29072255 0.22347984 0.34521788 0.2761353 0.45931143 0.4876451 0.48097244 0.45782697 0.44845766 0.46731436 0.49279022 0.46650463 0.45034173 0.4262712 0.4242339 0.42846084 0.39189082 0.40321 0.49461353 0.52046674 0.5361842 0.52046645 0.41561645 0.4095486 0.37869143 0.3542783 0.35417533 0.33841795 0.290605 0.37242892 0.46438774 0.48141056 0.46897322 0.4887181 0.5229893 0.41032085 0.37887904 0.32832116 0.22640009 0.26007038 0.2760573 0.06503455 0.10822819 0.23254749 0.29341394 0.3148356 0.30731875 0.36199027 0.33614615 0.4490686 0.38491666 0.32796156 0.25979474 0.18473545 0.046807766 0.07448028 0.16349664 0.34780997 0.33835423 0.2614532 0.19944692 0.44436443 0.3121882 0.2816778 0.20072562 0.1042518 -0.05683656 -0.008780935 -0.000103157014 0.19313148 0.17057885 0.33576602 0.42925662 0.21132338 0.12410498 0.012056014 -0.20351905 0.15367903 0.42426413 0.3509968 0.010559738 -0.13910145 0.39321542 0.42387158 0.38839254 0.107853465 0.37819797 0.06466042 0.06376037 -0.15657783 0.23220608 0.0055072885 -0.04278716 -0.0003557913 0.15041953 0.2615419 0.20160516 0.1922406 0.32048786 0.48550832 0.42410952 0.11500857 0.4515754 0.5171203 0.47722596 0.19434385 0.11530773 0.49792495 0.3880705 0.3720823 0.13810319 0.18057376 0.6082679 0.55830693 0.46968293 0.30790856 0.2552495 0.12499522 0.1045871 0.67450535 0.6463505 0.4624786 0.32104227 0.18584798 0.13578457 0.2194705 0.18106213 0.11741291 0.06199884 -0.014501497 -0.058210086 0.7008084 0.2734219 0.19644998 -0.10341338 -0.11858287 -0.034812696 0.6895267 0.5843328 0.25088078 0.17228669 0.13402015 0.020777585 -0.05005039 -0.12592839 -0.038454637 0.13749133 0.18711275 0.4408593 0.13227066 0.11447316 0.14565781 0.062213793 -0.00053463876 -0.027930226 0.014346242 0.065875806 0.2673207 0.29662606 0.14901666 0.16120207 0.08713604 0.16811623 0.08004357 0.2781914 0.0791641 0.3637704 0.32868242 0.21257937 0.14258465 0.41542125 0.43475938 0.37413937 0.28485182 0.14649963 0.45391238 0.45942336 0.41209084 0.2732811 0.2235631 0.23170255 0.28914854 0.26907486 0.2756286 0.26127356 0.62298995 0.6224008 0.6308327 0.6485507 0.6470016 0.4732506 0.48949954 0.4720701 0.44151312 0.4499811 0.45992526 0.43697783 0.64509314 0.6207783 0.44558206 0.4753902 0.46062362 0.40787297 0.18978669 0.5313277 0.53551847 0.37740406 0.42852658 0.30279487 0.2990684 0.076795265 0.050789088 -0.03309965 0.37720478 0.48936152 0.54057056 0.5427142 0.52792287 0.5312611 0.3278172 0.25046453 0.20364854 0.09520925 0.3269443 0.37623897 0.54401565 0.30778205 0.3556424 0.20026913 0.17993423 -0.020291332 -0.013039704 0.05604472 0.21648735 0.20675065 0.19968444 0.19103755 0.25459072 0.5292754 0.3153417 0.024108168 0.21360956 0.37405202 0.30210152 0.28825074 -0.13651437 0.10910182 -0.07143475 0.009870786 0.3146176 0.35324317 0.31098092 0.25282437 0.3336828 0.24425928 -0.20732942 0.049917012 0.4329636 0.28652412 0.34612358 0.44675142 0.37014782 0.352915 -0.106629625 0.25525022 0.3598439 0.27141258 -0.33455896 -0.18824248 -0.1564642 -0.14326397 0.14344253 0.36664706 0.2421312 0.011316404 -0.087246776 0.24518728 0.45346364 0.4173166 0.3860824 0.08783437 -0.08049235 -0.29365793 -0.2108966 0.53926337 0.5092511 0.46661657 0.43739495 0.45799023 0.43289846 0.31852338 0.24274138 -0.21607718 -0.1717645 -0.1615803 0.5551939 0.111862175 -0.07811473 -0.03365606 -0.1181592 -0.30793917 0.03625697 0.12980059 0.5655037 0.586467 -0.31579268 0.096219435 0.094565034 0.59187585 0.64384425 0.08805591 -0.11080296 -0.09468891 0.17430826 0.23271024 0.61117065 0.038857877 0.053645533 0.25577736 0.25486797 0.32231557 0.43641835 0.17328429 0.33388066 0.3862245 0.39846838 0.09337744 0.04543009 0.085055724 0.20681438 0.22014906 0.20087336 0.08250481 0.07003049 0.09557639 0.13432664 0.22484767 0.3052455 0.39428842 0.4007389 0.24018282 0.0016826242 -0.10051057 0.17737995 0.31996307 0.30860436 0.10618608 0.009664471 0.40620643 0.17516908 0.1903365 0.44465876 0.4548325 0.24221048 0.22709328 0.43633235 0.41306055 0.32952428 0.29132235 0.2741338 0.28362837 0.26692963 0.7000954 0.6955864 0.36275882 0.39705732 0.32284257 0.70855975 0.69910187 0.67308825 0.5075856 0.4957233 0.43412867 0.63675785 0.6786835 0.6691778 0.64435744 0.53109825 0.5985086 0.61664265 0.60487556 0.50986606 0.5161511 0.5218004 0.51674944 0.531257 0.5728977 0.5936851 0.5964803 0.47862804 0.45958364 0.41020346 0.37945455 0.35833588 0.30421427 0.5317658 0.576795 0.640762 0.60302997 0.4661575 0.48607042 0.47939938 0.42270827 0.41007704 0.41010982 0.35526344 0.1776013 0.45252368 0.56536156 0.56941223 0.5492743 0.37056684 0.42772904 0.24139906 0.14642903 0.0042966604 0.4007751 0.49059767 0.47622642 0.48847717 0.34140453 0.1199228 0.0084103625 0.17114818 0.45336032 0.47477442 0.52655977 0.15525216 0.23942839 0.06807984 -0.094915375 -0.11231944 0.037249506 0.08887187 0.22004817 0.56061196 0.2375009 0.2181946 0.10429452 0.041170128 0.028089166 0.13858011 0.5365791 0.3803957 0.3152187 0.04156108 0.10490839 0.43789762 0.3835765 0.37227196 0.3702064 0.38935834 0.3885128 0.37238654 0.36628205 0.36486283 0.36999258 0.27667168 -0.10323624 0.39644408 0.49276277 0.3335934 0.22232552 0.12821582 0.46899983 0.49264106 0.50373805 0.4645517 0.50696427 0.12020598 0.48035848 0.516233 0.30291703 0.4808773 0.506408 0.35661963 0.3605917 0.19162177 0.3885336 0.45105624 0.3444206 -0.1568179 0.3020323 0.1624555 -0.28664696 0.046432354 0.39152044 0.42883116 0.40583098 0.30265775 0.19202022 -0.16973852 -0.21910211 -0.19279492 0.31859803 0.4324553 0.4243289 0.46217403 0.44635344 -0.24781543 -0.25107384 0.3813547 0.41272992 0.4195561 0.46339864 0.12337974 0.17593789 0.26048127 0.5271133 0.4987941 0.20991302 0.25170827 0.2960377 0.5214585 0.34226415 0.49462768 0.47685826 0.4350434 0.41282576 0.4244413 0.46566612 0.48066688 -0.118463084 0.18476067 0.06431125 0.27505788 0.4231797 0.47256392 0.49115568 0.19876254 0.20830831 0.1048857 0.19207713 0.10939771 0.066264495 0.059431102 0.15360804 0.19312292 0.24840702 0.3410407 0.40720052 0.4459323 0.2072894 0.2756719 0.3398611 -0.061504092 0.4114194 0.42885506 0.18984555 0.17277981 0.41516683 0.3816228 0.5639876 0.60919404 0.6618866 0.6391742 0.3375774 0.3502773 0.38916418 0.436179 0.31831712 0.26516837 0.5924338 0.6581099 0.63045615 0.43890327 0.51908696 0.43875468 0.45993483 0.504643 0.61512816 0.5965358 0.5010736 0.5495338 0.5712924 0.4672074 0.5153088 0.5340922 0.5821667 0.5741719 0.58062685 0.38883072 0.46174037 0.5179893 0.5577569 0.41453782 0.44301754 0.469347 0.41279024 0.37622738 0.64283854 0.7125584 0.756318 0.37578645 0.4550682 0.47323382 0.49008888 0.6693814 0.73686755 0.7774324 0.7692491 0.46151692 0.42686427 0.40736562 0.27236867 0.29845458 0.25603443 0.2498503 0.18383971 0.32644188 0.53251326 0.6630373 0.7501806 0.7536002 0.4324283 0.46447432 0.24456921 0.423659 0.35683838 0.3950855 0.38419664 0.030955553 0.43188035 0.24927992 0.20656008 0.23181257 0.2659392 0.11955355 -0.37442917 -0.001975149 -0.15838045 0.08463571 0.111113414 0.4970163 0.3359367 0.28387547 0.2052443 -0.37490478 0.4856074 0.39168593 0.36703223 0.4383505 0.4047035 0.39626426 0.28353262 0.28838405 0.36672375 0.40274554 0.20894131 0.46185473 0.31898683 0.35971618 0.11503199 0.49086785 0.5167733 0.30704558 0.31100646 0.100531496 0.122727074 0.0070709437 -0.19214234 0.5122785 0.16948809 0.04784391 0.5208698 0.17978702 0.14034347 0.53964525 0.31588548 0.2846891 0.5011929 0.52263194 0.3405312 0.39276093 0.4964916 0.27156827 0.29979336 0.19216272 0.3205911 0.42278653 0.38623622 0.37574923 0.3977583 0.39079207 0.346503 0.37350205 0.3909405 0.18376027 0.44368327 0.42980123 0.37836075 0.42302 0.3121341 0.4274897 0.33714253 0.44928938 0.4670542 0.080841154 0.49219108 0.48730454 0.040424433 0.4761889 0.48795393 0.07601576 0.03873609 -0.032298557 0.012942921 0.11649206 0.18678465 0.30156112 0.388886 0.440468 0.15701789 -0.13299751 -0.12719102 -0.016455159 0.14413694 0.18112874 0.26349282 -0.11846527 -0.09494378 0.3755771 0.0017579496 0.2846135 0.2844846 0.28220257 0.15032265 0.17838149 0.57515866 0.3783174 0.23473209 0.034939244 0.59793663 0.62781024 0.46020132 0.5379349 0.49441946 0.26705205 0.6036416 0.6362684 0.5574839 0.5856894 0.33716834 0.39247438 0.5591927 0.6053296 0.39828545 0.4335642 0.49981278 0.55171126 0.9083891 0.83478713 0.66327333 0.64659834 0.9191914 0.9080076 0.86199313 0.7636879 0.71424127 0.6941405 0.88837975 0.87991333 0.8657767 0.8275509 0.795019 0.8748125 0.8701982 0.8514054 0.83338785 0.32914573 0.35847053 0.3956175 0.3977759 0.6151577 0.6283752 0.34953266 0.3051972 0.38489932 0.35856476 0.37289375 0.37957436 0.31719786 0.4890933 0.5721477 0.6566106 0.71620816 0.71016395 0.17892912 0.24495038 0.33550987 0.34676248 0.30966267 0.44004834 0.7163255 0.36715508 0.33926687 0.30899924 0.22295417 0.22658093 0.2381893 0.06704186 0.25052878 0.3536255 0.66110015 0.6732875 0.35423434 0.39456403 0.21809587 0.35398203 0.44069237 0.5642843 0.44360828 0.5293198 0.307634 0.28647733 -0.21674278 -0.20446345 0.06977514 0.28935412 0.18829401 -0.108880304 -0.5706658 -0.15062056 -0.06093041 0.06452818 -0.4980604 0.33835453 0.36990482 0.34431988 0.30509186 0.18848407 0.33048144 0.39043888 0.36761606 0.35619938 0.28646305 0.3495689 0.25487465 0.32173592 0.4987599 0.43993652 0.38427672 0.2198756 0.5214186 0.5022068 0.47972834 0.4669631 -0.061086133 -0.09817775 0.4612711 0.53959227 0.522999 0.46642128 0.28415343 0.22858724 0.08760685 -0.37697768 0.46437484 0.50458235 0.4540313 0.379745 -0.3043875 -0.03988491 0.5437876 0.46837765 0.4378903 0.39881498 0.24819997 0.30497563 0.44436675 0.5121212 0.3220545 0.3694231 0.45573646 0.192143 0.28627807 0.237498 0.33690912 0.29465586 0.3512348 0.30795586 0.33856398 0.28161958 0.3254559 0.22562657 0.23918477 0.43282658 0.38465706 0.10191086 0.46440282 0.00028596446 0.47421888 0.46458718 -0.08260249 0.46016115 0.46633336 0.1982204 0.33329964 0.42841285 -0.11157143 0.13846046 0.1422279 0.10544856 0.13301863 0.30298764 0.25736922 -0.09958288 0.2216183 0.19462529 0.25042847 0.18960793 -0.04539424 0.2332823 0.29077524 0.21692531 0.17068684 0.6129529 0.16174665 0.27713686 0.6406085 0.6452202 0.4056179 0.60328263 0.6176748 0.3317248 0.3379426 0.53161204 0.5546515 0.44872898 0.45166653 0.45501405 0.87039816 0.7431209 0.561323 0.9729148 0.9173607 0.5870106 0.58328074 0.46574694 0.9427775 0.6850383 0.63805115 0.8946575 0.8661988 0.7723336 0.7813448 0.8325347 0.8351891 0.85119224 0.84138274 0.82786524 0.81595105 0.8281947 0.36445078 0.40175438 0.39380834 0.27484524 0.35502136 0.39068842 0.39650398 0.30205616 0.4696802 0.48682553 0.5092232 0.43473732 0.19930859 0.12103622 0.29680115 0.1881356 0.34936303 0.53070474 0.51983744 0.2875473 0.26331067 0.20863497 0.081292115 0.16324528 0.23644502 0.21640675 0.3570548 0.51646805 0.23567101 0.16011012 0.17175356 0.24469012 0.274856 0.27642006 0.15660134 0.14237669 0.52454495 0.473532 0.27830735 0.40391737 0.21857163 -0.26076663 0.13555962 0.09987313 -0.32072696 -0.15148352 0.07543963 -0.04787642 0.25597733 0.230986 0.07786447 -0.04684697 0.29318637 0.36156413 0.32441714 -0.15143058 0.26425332 0.30480784 -0.29337823 -0.11113425 0.23552962 0.22163585 -0.008378634 0.19120082 0.44564953 0.3744375 0.44238186 0.5057841 0.50245476 0.35413572 0.5452876 0.54386455 0.40752256 0.5392414 0.5015839 0.4607405 0.48090854 0.4427305 0.1251865 0.376566 0.4521631 0.45964456 0.44243893 0.09958486 0.2603147 0.34139687 0.018218175 0.13725585 0.19398725 0.09424404 0.23990202 0.23840483 0.22172427 0.25029576 0.23265378 0.16288045 0.07265131 0.2938298 0.085736305 0.33815166 0.32833192 0.034390513 0.39469138 -0.02667424 0.3847804 0.43843925 0.32210293 0.30527413 0.39704716 0.45745257 0.41074502 0.4781045 0.45361745 0.4622538 0.38233286 0.2961461 -0.14433475 0.21826826 0.16940084 0.3394279 0.26926222 -0.08203502 -0.0009521693 -0.16050261 0.031071521 0.29521656 0.34202963 0.086313054 0.035467356 0.094702 0.08533792 -0.03528509 0.18328458 0.62179923 0.29127693 0.11065585 0.5481131 0.58441365 0.47988272 0.49995285 0.6576508 0.5764717 0.30987602 0.42020562 0.424674 0.41723144 0.4010942 0.8931272 0.8073596 0.22951357 0.40216807 0.4095449 0.9575967 0.92863053 0.6100277 0.8625183 0.8290323 0.73119575 0.8448833 0.79027075 0.77976906 0.7999486 0.79379666 0.75380945 0.7696727 0.7921763 0.31597176 0.324848 0.3550763 0.3421082 0.25047332 0.31766316 0.30351698 0.26739237 0.1712986 0.05862365 0.030156463 0.30861992 0.31383252 0.35157168 0.32693803 -0.05046889 0.006170094 -0.09203108 -0.055651635 0.03663966 0.30722645 0.29501018 0.2586944 -0.088090815 -0.19888364 -0.07097627 0.39579606 0.14399503 0.2177411 0.24205315 0.2876616 0.27825338 0.09744894 0.343286 0.19786713 0.15720727 0.11650251 0.08814618 0.24271062 0.25789866 0.2511134 0.25248122 0.22306867 0.2367069 0.18615612 -0.017867144 0.14501595 -0.06915128 -0.020468999 0.25674042 0.23397908 0.006598294 -0.10607871 -0.08159416 0.20625055 -0.012862179 0.12066381 0.14212264 0.4105075 0.47144747 0.43596718 0.25211614 0.28438532 0.49797046 0.27821648 0.52465236 0.19971527 0.51892465 0.5198041 0.31664306 0.4318846 0.45145518 0.23417455 0.25696775 0.4273035 0.4263572 -0.13230345 0.19908513 -0.20551352 0.12309712 -0.30696657 0.17325273 0.16492322 -0.012151824 0.19379409 0.10405749 0.06541632 -0.14872518 0.08875969 -0.067686714 0.07898739 0.06699005 0.013308294 0.22165579 0.043870762 0.31072438 0.45902842 0.5056592 0.5033781 0.43649048 0.50064254 0.4734536 0.12789243 0.4852456 0.4753612 0.062685266 0.15661693 0.45886394 0.4167168 0.35557067 0.27596432 0.19633248 0.0024424046 -0.32031354 -0.061262403 -0.2925122 0.13302104 0.20339862 0.26100808 0.20581149 0.19212157 0.28235766 0.27478883 0.23445357 -0.13277265 0.5852101 -0.14531644 0.5108447 0.562672 0.5291088 0.4184677 0.48173153 0.5750122 0.35707465 0.110234804 0.0273768 0.36271304 0.8452753 0.77231646 0.15586574 0.32360882 0.34660923 0.35792863 0.8893374 0.25343204 0.8704153 0.4839453 0.8295865 0.75656235 0.77133465 0.61107606 0.6422262 0.6755327 0.6900511 0.71430737 0.55863106 0.20657596 0.16172716 0.22238792 0.2917697 0.17979795 0.14416887 0.14902082 0.13859771 -0.120419815 -0.041125648 0.15527406 0.2778051 0.25494868 -0.040152356 0.13350601 0.090437524 0.24004894 -0.086563535 0.2167598 0.21626677 -0.33577952 -0.3723755 -0.19949782 0.2373785 0.23454455 0.16003026 0.24270758 0.26558667 0.24516043 0.1488979 0.262658 0.21873589 0.24713449 0.19162884 0.09814639 0.057708964 0.10893323 0.20170844 0.12990344 0.30053222 0.28388694 0.26527247 -0.021451965 0.3065937 0.1214455 0.010416582 0.010175124 -0.30651486 -0.1146584 -0.049057037 0.17843156 0.17916875 -0.21938151 0.21588737 0.34082896 0.3898934 0.50617903 0.3916449 0.004256472 0.43666238 0.5137168 0.6093339 0.6541681 0.41852385 0.4821637 0.544446 0.6118384 0.4664638 0.4734577 0.36327946 0.4690172 0.50757927 0.57758296 0.424457 0.47070873 0.36380476 0.41442433 0.44319528 0.20710042 0.23378184 0.38728827 0.37551093 0.38090673 0.027565494 0.19188319 0.21718304 0.34777683 0.29472917 -0.3769329 -0.23791018 -0.10962368 0.040916488 -0.46703258 -0.034287304 -0.17566948 -0.36011356 -0.17891385 -0.02003847 0.00053048134 -0.12764731 -0.08819294 -0.018530935 -0.02445352 -0.09202179 -0.023794591 -0.28404316 0.53806084 0.56390226 0.5297171 0.12732857 0.5527272 0.24401404 0.5103664 0.21452028 0.26543438 0.45785475 0.4526153 0.056914207 0.439485 -0.0074612964 0.06874668 0.45068014 0.3883893 0.33297408 -0.2335848 0.21799201 0.27087277 0.25682932 0.21314076 0.23850527 -0.2376639 0.24762906 0.13310096 0.075161874 -0.047664054 0.06190705 -0.046947755 0.387761