# vtk DataFile Version 2.0
Really cool data
ASCII
DATASET POLYDATA
POINTS 11791 float
-30.629694 -14.002316 82.87878
-30.605679 -13.972811 83.29438
-30.584473 -13.646977 82.84502
-30.625801 -13.53789 83.34066
-30.573334 -13.025467 85.99147
-30.593204 -12.577576 85.70543
-30.53328 -12.802905 86.41257
-30.532698 -11.742129 86.132195
-30.723448 -11.7956705 86.83839
-30.77216 -11.334358 87.64266
-30.70156 -10.600166 87.673225
-30.743858 -10.18056 88.372734
-30.642092 -10.222253 89.04067
-30.699905 -9.398332 87.896835
-30.788834 -9.387494 88.47145
-30.681305 -9.143659 89.18922
-30.635899 -8.594959 88.1082
-30.721851 -8.619413 88.58128
-30.6891 -8.775689 89.03894
-29.550465 -19.049435 88.56611
-29.595839 -18.543968 88.070724
-29.629078 -18.581896 88.50678
-29.567675 -18.394514 88.99758
-29.56595 -18.013102 88.57367
-29.836672 -14.917844 81.894775
-29.976133 -15.01297 82.32779
-30.037024 -15.047517 83.39423
-29.929417 -14.868863 84.57416
-30.040586 -14.300874 81.857
-30.394226 -14.304776 82.469574
-30.414234 -14.487402 83.1989
-30.467674 -13.97765 84.49524
-30.131954 -14.297077 85.418434
-30.02061 -14.214079 86.30815
-29.931118 -13.825198 87.180305
-30.068316 -13.714241 81.88427
-30.449175 -13.520709 82.54486
-30.51216 -13.715948 84.146065
-30.408146 -13.714421 85.48706
-30.39548 -13.227434 86.59064
-29.930689 -12.976934 88.49495
-29.794844 -13.120677 81.95625
-30.225285 -12.934841 82.65492
-30.422716 -12.755963 83.64678
-30.529518 -12.658974 87.42158
-30.098877 -12.64334 88.80285
-30.02061 -12.372824 89.11566
-29.63819 -11.9706955 90.15
-29.822742 -12.344669 83.02288
-29.94604 -12.033481 83.94219
-30.178066 -11.4164715 85.6664
-30.526499 -11.468321 88.60593
-30.164623 -11.4003725 89.32957
-29.682009 -11.701352 90.05375
-30.08025 -10.952452 85.79762
-30.451899 -10.2484665 87.116005
-30.43029 -10.395013 89.40613
-30.063927 -10.44672 89.92402
-29.950308 -10.031908 86.56354
-30.290258 -9.540839 87.38636
-30.458548 -9.490777 89.61389
-30.147224 -9.558983 89.9065
-30.12887 -8.777331 87.32852
-30.356329 -8.434986 87.76991
-30.429588 -8.53925 89.37884
-30.073797 -8.742489 89.79839
-30.16536 -7.9622483 87.992546
-30.292486 -7.893312 88.59052
-30.135975 -7.95401 89.1782
-29.898296 -8.200111 89.61756
-28.897392 -19.890936 87.91046
-28.9989 -19.895716 88.539024
-28.803488 -19.944181 89.37058
-28.917213 -18.970186 87.00624
-29.235712 -19.204 87.742546
-29.397758 -19.332806 88.552795
-29.205603 -19.352583 89.37686
-28.805933 -19.433346 89.89168
-28.654013 -18.204165 85.42959
-28.868761 -18.783672 86.98624
-29.40072 -18.494751 87.57002
-29.341267 -18.574877 89.351585
-28.854063 -18.439392 89.96537
-28.725061 -17.15548 83.96415
-28.737667 -17.582016 84.404
-28.955267 -17.132626 85.14627
-29.189493 -17.680595 87.594
-29.33828 -17.589165 88.51277
-29.240747 -17.9063 89.42212
-28.95478 -15.675733 81.94812
-29.191097 -15.701203 82.47194
-29.023645 -16.096071 83.64834
-28.853918 -16.295837 85.30897
-29.04877 -16.645042 87.70028
-29.365658 -14.9764385 81.63437
-28.867817 -15.96739 88.38483
-29.33924 -14.392042 81.380684
-29.578602 -14.614909 81.50134
-29.311096 -14.467532 86.99428
-29.320637 -13.83001 81.39698
-29.442919 -13.519673 81.56947
-29.430601 -12.986866 81.98206
-29.265846 -12.556167 82.42488
-29.092133 -12.692044 90.627525
-28.905499 -12.477537 91.0573
-29.328613 -12.326254 82.74462
-29.67363 -12.036938 83.58502
-28.710941 -11.206183 91.48869
-29.247036 -11.126353 84.86853
-29.260935 -10.082307 85.97114
-29.357553 -9.529146 90.373535
-29.154064 -8.542522 87.01276
-29.454132 -8.816769 90.07279
-29.666346 -7.818071 87.84025
-29.541456 -7.583701 88.48657
-29.602066 -7.8294597 89.255455
-29.526735 -8.142186 89.772804
-27.61015 -21.379799 71.8437
-27.670923 -21.290703 72.34622
-27.578053 -21.121298 72.88348
-27.942636 -20.584831 88.98786
-27.64693 -19.995901 67.894135
-27.668161 -19.904589 68.33338
-27.691513 -20.824808 71.9553
-27.721127 -20.45285 72.42031
-27.607813 -20.580889 72.911026
-28.169748 -19.960815 87.22788
-28.334146 -20.109709 87.52643
-28.246792 -20.416193 88.315186
-28.460918 -20.177717 89.36531
-28.183857 -19.978106 90.06466
-27.77351 -19.33015 67.75275
-27.769493 -19.5052 68.26445
-27.62799 -19.628494 68.881805
-27.738148 -20.035574 72.30484
-27.766037 -18.932798 84.56244
-28.242826 -18.788067 85.66443
-28.624666 -19.370375 86.99822
-28.262543 -19.482792 90.30432
-27.92308 -19.385748 90.67059
-27.642628 -18.768715 67.608925
-27.736708 -18.900187 68.361206
-28.118355 -18.14117 83.815056
-28.347204 -18.292833 84.492584
-28.184122 -18.607822 85.53922
-27.93893 -17.18749 82.713066
-27.930544 -16.257652 81.85233
-28.25475 -16.709862 89.876785
-28.483704 -15.139676 81.420685
-28.47201 -15.278015 81.5084
-28.592716 -14.533383 81.349724
-27.776495 -13.934163 90.59425
-28.844433 -13.922679 81.35018
-28.843716 -13.558824 81.50012
-27.804514 -12.855905 92.21536
-28.573404 -12.978604 82.05466
-28.806065 -12.500282 82.41398
-27.95296 -12.441073 92.471596
-27.76809 -12.307508 92.946625
-28.686571 -12.225777 82.828514
-28.231136 -11.702724 92.286026
-27.84362 -11.316176 93.05512
-28.71252 -10.988941 84.85346
-28.493462 -11.060508 91.337494
-27.942041 -10.81791 92.72163
-27.734098 -10.58132 93.08264
-27.668177 -9.912825 84.19238
-27.714888 -9.185316 84.594185
-28.121038 -9.3904295 90.63001
-28.142832 -9.897963 91.03895
-27.65799 -10.061578 92.620224
-27.751442 -8.830421 84.677605
-28.062538 -9.066139 85.48619
-28.315802 -8.831635 86.42373
-28.590986 -8.704922 89.97587
-28.475079 -7.9585156 88.04575
-28.439829 -7.9700017 88.335785
-29.117056 -7.6713624 88.932625
-26.691149 -23.964201 63.868954
-26.759083 -24.0979 64.7503
-26.800034 -23.976938 64.99221
-26.864384 -23.592316 63.99119
-27.149351 -23.32459 64.62932
-27.11839 -23.300844 65.330345
-26.861498 -23.36691 65.883865
-26.788408 -22.58825 72.43424
-26.972994 -22.714396 64.10487
-27.20064 -22.459108 64.63406
-27.194971 -22.602009 65.43419
-27.034142 -22.599077 65.77349
-27.152275 -22.174337 71.86431
-27.2569 -22.155901 72.5569
-27.009064 -22.22503 73.05079
-26.746252 -22.060684 64.145294
-26.996178 -22.015936 64.71132
-27.110435 -22.0226 65.27892
-26.784874 -22.066286 65.811935
-26.766138 -21.015251 68.75226
-27.437359 -21.503876 71.478874
-27.503942 -21.678905 72.707214
-27.318537 -21.438114 73.2262
-27.147255 -20.51456 67.584496
-27.387886 -20.351013 68.59641
-27.281515 -20.278303 69.18658
-27.295656 -20.75784 70.74852
-27.489983 -20.194736 71.266914
-27.289242 -20.499205 73.292816
-26.922838 -20.457968 73.77426
-26.7852 -19.754025 83.87262
-26.810274 -19.792192 84.69187
-26.954552 -19.6129 84.9891
-27.387478 -19.653864 86.403145
-27.460056 -20.41513 87.84039
-27.296526 -20.438421 88.90226
-27.652985 -20.468258 89.595856
-27.262585 -20.290186 90.372116
-27.103193 -19.91468 90.894485
-26.820604 -19.030144 66.029076
-27.481562 -19.359314 67.090775
-27.521666 -19.19051 68.976814
-27.11918 -19.4165 70.38227
-27.412605 -19.611094 71.61283
-27.474773 -19.73753 72.50686
-27.310501 -19.884233 73.04829
-26.792627 -20.0298 73.760796
-26.924833 -19.017845 83.10901
-27.1654 -19.2249 83.57178
-27.44501 -19.273567 84.61496
-26.879026 -18.390026 65.93428
-27.185017 -18.610737 66.747345
-27.407543 -18.416225 67.347336
-27.408089 -18.360628 68.67854
-26.811699 -18.885164 71.7923
-26.886099 -19.033794 72.14734
-27.178493 -18.402054 82.90021
-27.002798 -18.449814 91.2101
-26.712072 -17.90735 65.62912
-26.942947 -17.809378 66.54429
-27.053778 -17.772285 67.48166
-27.015184 -17.732613 68.51076
-26.727337 -17.49645 68.93705
-27.14112 -17.237543 82.509026
-26.64491 -17.222448 67.06486
-26.649712 -17.211853 68.33775
-27.123543 -16.041227 81.44394
-27.46636 -16.243673 81.66773
-27.564686 -16.482782 90.39745
-27.025282 -16.817085 90.68899
-27.547533 -15.359588 81.39455
-27.259579 -14.959539 81.38636
-28.030872 -13.55271 81.753
-27.677063 -13.369582 90.881195
-27.480154 -12.950467 92.53527
-27.081617 -12.734234 93.52013
-27.944828 -13.14151 82.1102
-27.255075 -12.415707 93.46517
-26.948986 -12.276803 93.79024
-27.445946 -11.673393 93.50474
-27.194586 -11.589086 93.79726
-26.825262 -10.536539 83.72393
-27.398058 -10.559823 93.3921
-26.940804 -10.676701 93.85912
-26.741817 -9.432608 83.244514
-26.967432 -9.526431 83.63446
-27.124784 -10.010659 93.200516
-26.865488 -8.544573 83.37281
-27.327908 -8.53087 86.92207
-27.196838 -8.496423 89.18358
-26.770716 -7.8339486 83.97723
-26.81345 -7.779136 84.61241
-27.218761 -8.115349 85.480286
-27.31755 -8.390845 86.22093
-27.85489 -8.3307 87.42803
-27.762146 -8.23079 88.370285
-28.04115 -8.13732 89.08476
-25.962683 -24.786938 63.502728
-26.030848 -24.92599 64.49964
-25.96019 -24.864872 65.12902
-26.15299 -24.236467 63.13208
-26.355528 -24.325863 63.582767
-26.456894 -24.543756 64.40108
-26.393791 -24.32732 65.299225
-26.065899 -24.153818 65.8673
-26.22305 -23.579473 63.011494
-26.205564 -23.47667 66.11138
-26.16955 -22.85367 71.76912
-26.435902 -22.743013 72.587685
-26.405931 -22.658352 73.06903
-26.67036 -22.36465 63.819954
-26.271158 -22.72451 66.33357
-25.87506 -22.069078 70.05955
-26.179085 -22.34878 70.60874
-26.689018 -22.585487 71.81045
-26.552488 -22.418806 73.275215
-26.244408 -21.870523 73.930405
-26.337162 -21.846823 64.00162
-26.34739 -21.463392 65.97358
-26.311712 -21.5081 68.26442
-26.287151 -21.390665 74.02878
-25.982649 -20.827244 89.96267
-26.503136 -20.58987 90.38485
-26.407887 -20.715843 74.09179
-26.352573 -19.931274 83.74921
-26.294958 -20.080502 84.325806
-26.331505 -20.019703 87.70655
-26.532343 -20.505585 90.67569
-26.353495 -20.185715 91.10493
-26.027523 -19.91587 91.60076
-26.571377 -18.976849 65.61362
-26.53286 -19.435848 73.597046
-26.214365 -19.3537 82.92954
-26.355965 -19.656652 91.52504
-26.273338 -19.400127 91.69723
-26.184557 -18.37757 65.140915
-26.56104 -18.304798 65.4515
-26.420633 -18.780376 70.914345
-26.38484 -18.805025 71.2841
-26.59691 -18.890987 72.79846
-26.724388 -17.939474 82.44948
-26.268063 -18.65686 91.78097
-25.974445 -17.559128 65.251144
-26.400316 -17.600277 65.569336
-25.997036 -17.831953 70.62126
[...]
POINT_DATA 11791
SCALARS features_00 float 1
LOOKUP_TABLE default
0.70698726 0.6323137 0.7365639 0.6607903 0.3109616 0.34134904 0.32331765 0.38381755 0.37536997 0.391643 0.4572237 0.5359964 0.52715814 0.61263686 0.65233326 0.7085017 0.75845253 0.78812796 0.7694578 0.62039864 0.576293 0.5944105 0.59305656 0.5471959 0.73583627 0.7082169 0.5287008 0.30111048 0.79693484 0.7539068 0.6073028 0.39814168 0.27639955 0.25346416 0.25533706 0.8179974 0.7808446 0.48594195 0.29653257 0.29359266 0.2979707 0.7733005 0.758627 0.65371966 0.3197956 0.298992 0.27866167 0.24194711 0.65090287 0.47731066 0.34536472 0.37028894 0.32164186 0.2486977 0.30912983 0.43877697 0.47981653 0.41558743 0.3522932 0.52743953 0.63870496 0.5955243 0.60231936 0.744087 0.7900491 0.713048 0.86377764 0.9141319 0.8770254 0.7873318 0.5933408 0.6528168 0.65161735 0.42255574 0.5642799 0.6339317 0.65435934 0.63150024 0.16719322 0.40927097 0.5331185 0.61533606 0.5994363 0.2579836 0.23792887 0.2054555 0.47410417 0.50055707 0.543755 0.5629024 0.55643165 0.32463562 0.16792338 0.34768558 0.6960951 0.30833 0.74282247 0.74734277 0.17730185 0.7641472 0.7709298 0.7294273 0.673019 0.24779122 0.27498463 0.6397468 0.5217062 0.2996515 0.12490508 0.17562819 0.5074787 0.50661916 0.635211 0.82317054 0.8767163 0.8531781 0.7478969 0.59592295 0.62382823 0.6370238 0.5942436 0.41563362 0.41082865 0.580888 0.58714265 0.61203635 0.44447973 0.5206952 0.626021 0.6256541 0.5543958 0.47709486 0.44407305 0.39196774 0.5528831 0.26900378 0.1733101 0.40644407 0.55242705 0.49483156 0.51967454 0.47287905 0.3040587 0.23275271 0.17177133 0.32115984 0.42174792 0.45010257 0.5982716 0.5836582 0.6538298 0.13314798 0.709787 0.7081896 0.36791152 0.640671 0.6289379 0.40934888 0.4532574 0.54034585 0.38895905 0.4523093 0.035484925 0.2977178 0.41042903 0.44156408 0.270212 0.34528142 0.34200275 0.284896 0.35589287 0.37365896 0.23283455 0.23666297 0.59269655 0.4344527 0.4524033 0.7785201 0.6231554 0.6365025 0.64378154 0.66903067 0.73129785 0.7123593 0.6397635 0.539606 0.7096405 0.74039966 0.7318208 0.703372 0.5657942 0.6197055 0.6155462 0.6417327 0.7025913 0.71128297 0.67548263 0.21091913 0.5589734 0.644117 0.6513365 0.33924305 0.3535908 0.32538366 0.40388706 0.47049832 0.60968775 0.58477825 0.41794193 0.36665168 0.3209558 0.24151988 0.5218861 0.52518404 0.5260411 0.47686297 0.46699196 0.48182178 0.47373328 0.3971745 0.30919346 0.44983286 0.52795064 0.556217 0.5416056 0.40493858 0.39752114 0.30122763 0.5516406 0.5330099 0.5405694 0.4692769 0.31190923 0.36382157 0.36968476 0.45035124 0.57947373 0.57264096 0.5555169 0.48255104 0.39421344 0.2927401 0.5806012 0.47188243 0.4144162 0.41185793 0.2527966 0.2906615 0.49765658 0.4918807 0.6080787 0.20130354 0.39953858 0.4881165 0.57398045 0.49231604 0.51546574 0.49243593 0.5124828 0.28764427 0.48346627 0.5212421 0.44266123 0.40773892 0.45869374 0.5276347 0.10407306 0.21079308 0.51635104 0.44227594 0.29208726 0.1520873 0.20901889 0.24861363 0.45865613 0.5460424 0.5682596 0.54381776 0.5162978 0.57065237 0.595273 0.57826287 0.51376873 0.49425018 0.52416 0.38147032 0.48241842 0.5044651 0.616856 0.53067434 0.07999779 0.23000121 0.47813272 0.5563961 0.53223664 0.53418803 0.5705162 0.05327944 0.53714436 0.37441692 0.4345792 0.5342605 0.43646055 0.4161991 0.22174016 0.44445056 0.45213276 0.45383096 0.4800337 0.45441952 0.40398824 0.46400782 0.46320724 0.5418946 0.5591783 0.22877869 0.24454212 0.3589542 0.28529873 0.43168098 0.60396636 0.60255945 0.16964196 0.1651984 0.19226798 0.35939187 0.61721575 0.5876462 0.50409496 0.41945258 0.31748182 0.42293307 0.46393907 -0.0958101 0.46303737 0.47968686 0.3672756 0.53355664 0.1516409 0.5360867 0.5148432 0.50355124 0.50490963 0.4719832 0.5435401 0.5368547 0.05814306 0.29175073 0.38238758 0.5672311 0.5746108 0.54500043 0.44148323 0.2580505 0.07874608 -0.044624165 0.07331772 0.5677226 0.54320186 0.47300917 0.50266075 0.4722848 0.4484169 0.5009207 0.47479817 0.41515017 0.5212067 0.5232476 0.49601427 0.47935033 0.47860336 0.3613344 0.13701677 0.3755165 0.44727483 0.3079107 0.39132547 0.3571695 0.18932876 0.20826165 0.44885778 0.20549089 0.19322905 0.22231731 0.26586056 0.39759177 0.045420818 0.0874891 -0.11076037 0.054378096 0.3392878 0.18480462 0.10463683 0.19407994 0.42009187 0.1869298 0.26140168 0.40039837 0.38909978 0.43134388 0.39889774 0.43235624 0.3561464 0.2101517 0.06780611 0.42472935 0.4557178 0.44365475 0.3378721 0.36800045 0.38115585 0.44849616 0.4942689 0.51248443 0.21543436 0.20363441 0.22790775 0.31809485 0.5901083 0.17843318 0.15668154 0.15082574 0.18800895 0.19097507 0.26355073 0.15051642 0.23625174 0.26950568 0.5950933 0.5793201 0.50924575 0.4799417 0.3120517 0.20367768 0.15975444 0.1495125 0.5206958 0.54470986 0.21095404 0.09071018 0.47970253 0.4183569 0.3919862 0.5441851 0.62092185 0.17360434 0.2936026 0.22186755 0.4219755 0.50156784 0.094512686 0.47597864 0.36395666 0.37903082 0.44935554 0.43488473 0.46054357 0.4305213 0.53954023 0.017872417 0.24430531 0.30618888 0.57029384 0.5770529 -0.039781723 -0.17270353 0.1652914 0.16917095 0.57001525 0.525627 0.46828768 0.25949922 0.2551879 0.5508275 0.58892757 0.64235747 0.6042906 0.6107552 0.63385487 0.6468412 0.65594566 0.66568553 0.6530633 0.6091145 0.65522027 0.6656545 0.65340203 0.46552563 0.40221936 0.57316685 0.57241046 0.525257 0.4746982 0.4142323 0.26565033 0.4333231 0.55611825 0.55017906 0.5240936 0.42308986 0.30443668 0.39609373 0.43105593 0.37874466 0.49522066 0.49375027 0.4331699 0.35901892 0.35263383 0.30450165 0.2863146 0.103478424 0.43859708 0.41513884 0.3073045 0.24705839 0.03209628 0.16662015 0.082878605 0.056297883 0.024282675 0.021572951 -0.13409871 -0.021183223 0.11015534 0.027533334 0.2051608 0.08318411 0.06752168 0.16122618 0.2873736 0.15516937 0.28765264 0.07526288 0.3074879 0.32506755 0.20323639 -0.097068466 -0.13615267 0.40508366 0.4240427 0.47955936 0.3210685 0.11257729 0.042916402 0.16878615 0.1951085 0.4237588 0.4823439 0.52021956 0.4671629 0.18274432 0.05431264 0.04244092 0.06788188 -0.061555453 0.4884411 0.5122783 0.4967271 0.28586897 0.17847645 0.077361435 0.23663068 0.5066658 0.5022181 0.3571537 0.3334028 0.2280919 0.18460248 0.06759024 0.11130075 0.3659458 0.54416066 0.47303522 0.5676798 0.013433062 -0.22726576 0.39292848 0.4107599 0.3970846 0.30948615 0.24401814 0.21974467 0.16384001 0.47362897 0.6144854 0.67668223 0.6735518 0.64629215 -0.14630175 -0.26638904 -0.08325203 0.6476861 0.762866 0.7658471 -0.26392958 0.10243371 -0.061174132 0.4018992 0.22962311 0.1581366 0.37546223 0.35363877 0.3054756 0.3928151 0.47166982 0.22265151 0.24472399 0.5126651 0.14401716 0.5521938 0.50850093 0.40136355 -0.17407033 -0.0858929 0.05939751 0.24343792 0.23163041 0.43417755 0.31949186 0.27539217 0.59555095 0.60732734 0.70443213 0.71396554 0.6332245 0.7449633 0.79309833 0.80978775 0.83608526 0.87394726 0.85956526 0.83464503 0.8089812 0.84289527 0.8482131 0.42642218 0.495289 0.5448855 0.5870709 0.44165134 0.5243206 0.57834417 0.6306776 0.6181898 0.4781806 0.47928733 0.54759324 0.5530242 0.55485815 0.62999517 0.6025429 0.5163564 0.5088374 0.50504047 0.6195786 0.57621646 0.52483964 0.5118842 0.52539754 0.5357866 0.50066304 0.46794942 0.6360092 0.6452354 0.6453738 0.60566556 0.5345605 0.49450597 0.6299299 0.6185117 0.52879053 0.4782896 0.41339433 0.32900864 0.13749936 0.5593995 0.5575242 0.12613523 0.49213737 0.53268886 0.07129368 0.43148267 0.387095 0.20644218 0.43123558 0.4725306 0.16054174 0.04885802 0.21010484 0.3948062 0.46616447 0.35246706 0.36881155 0.33541244 0.078893155 0.34034613 0.4265274 0.46578434 0.19818848 0.011245069 0.24458224 0.31030235 0.3463536 0.26776713 0.07902663 0.085548505 0.2441361 0.29424942 -0.08384783 -0.024260161 0.122855596 0.3493889 0.45765838 0.38225126 0.24309292 0.09237652 0.25209528 0.22407423 0.09836708 0.334857 0.29756457 0.24364707 0.16080427 0.17112365 0.057533883 0.049937382 0.10178174 0.1232312 0.2599276 0.31638306 0.2118842 0.16686636 0.2507843 0.38545316 0.03861631 0.049290963 -0.021777973 0.024943799 0.16819596 0.4995836 0.5720263 0.3949256 0.43792936 0.42361248 0.39344484 0.36738497 0.21676753 -0.045533612 0.1031095 0.38222855 0.6295605 0.64594394 0.3996911 0.30383697 0.29024512 0.0435476 0.0839019 0.4940199 0.045664087 -0.017701555 0.52317154 0.6476691 0.2460255 0.18494207 0.20305327 0.18612644 0.15129533 0.3152099 0.46124747 0.73910147 -0.029133767 -0.14269419 0.5492097 0.6089385 0.71102977 0.80317557 0.8442901 -0.1733788 -0.32405898 -0.13689156 0.25939173 0.041703418 0.2845316 0.219043 0.22646911 0.1647858 0.09490435 -0.2413019 -0.2519632 0.1883683 0.44255286 -0.019090276 0.27274558 0.2267308 0.51565623 0.6681843 0.30241668 0.28902352 0.2815787 0.5517024 0.61305904 0.76269126 0.6464238 0.75698155 0.68455195 0.75275934 0.8067595 0.82161796 0.7616172 0.7590698 0.77790785 0.7944641 0.47718966 0.47352397 0.42707044 0.40791494 0.35709232 0.3048725 0.3103752 0.42696595 0.5093379 0.5245457 0.49898794 0.4718042 0.43611813 0.40653476 0.24960195 0.17384654 0.15559393 0.5451555 0.51167154 0.4928116 0.45762992 0.41969833 0.40539387 0.5116631 0.47687423 0.47883254 0.506631 0.5113288 0.43787378 0.47583285 0.39601147 0.46914446 0.4860565 0.5523828 0.43644607 0.3980482 0.39301217 0.4695242 0.5012585 0.3713594 0.59568924 0.553049 0.5785632 0.35706982 0.21449351 0.1959724 0.14597593 0.50811994 0.49532366 0.47603315 0.2908944 0.1742266 0.1286015 0.122634254 0.49304634 0.52464736 -0.004770782 0.44683337 -0.12835328 0.27565485 0.31750837 0.22040892 0.3322218 0.0978902 0.035398547 0.21178207 0.44076946 0.5116967 0.51826763 0.26328442 0.48625603 0.4530249 0.66693664 0.3414975 0.2673811 0.3658287 0.33502108 0.27538607 0.2740147 0.051994722 0.054231074 0.35314992 0.5069188 0.6352895 0.6156248 0.37537128 0.34543023 0.34057558 0.30757374 0.16714332 0.09606348 0.010898581 0.02167056 0.48134273 0.42176172 0.37871444 0.34905958 0.24802154 -0.13403107 0.31098592 0.3332159 0.38070405 0.3246744 0.2919766 0.44842565 0.3532656 0.2554879 0.20484783 -0.2926281 0.54710186 0.5542813 0.35164118 0.27215344 0.06052658 0.31338263 0.26974204 0.27909994 -0.015359633 -0.22769788 0.57696676 0.336953 0.2811292 0.21244875 0.09594929 0.115984 0.031086624 0.105634175 0.017539904 0.65317523 -0.08309128 -0.010374837 0.5909486 0.5475652 0.10199802 0.17367731 0.43524283 0.7013456 -0.052137665 0.5144735 0.54777676 0.7162609 0.81943977 0.8130127 0.75785774 -0.17301178 -0.2509376 0.26746047 0.7558068 -0.15095693 -0.24385826 0.12365476 -0.06449327 0.27945015 -0.048456427 0.2971723 -0.010809056 -0.030242011 0.33394814 0.01692018 0.021893308 0.235014 0.086081 0.08754365 0.096560925 0.03150183 -0.03684147 -0.023083866 0.15327477 0.28944263 0.24967568 0.21671197 0.38938993 -0.0431875 0.1814033 0.21683443 0.4968698 0.3733344 0.5269075 0.5733473 0.59313154 0.62169003 0.6849688 0.73950446 0.6657412 0.7031071 0.74481887 0.7594056 0.43413034 0.4418558 0.43559012 0.3404979 0.30909935 0.2732315 0.32659924 0.42492294 0.44673067 0.43310803 0.41218382 0.39255577 0.37820086 0.34813404 0.25943723 0.16376916 0.06458921 0.4415599 0.41838622 0.40345144 0.4602045 0.4519086 0.46532845 0.4137712 0.45948726 0.46221328 0.4391063 0.42057344 0.2645663 0.39996052 0.2725984 0.23311606 0.19366693 0.18414673 0.24900058 0.28254372 0.3074137 0.2569117 0.22493185 0.23690502 0.18946321 0.2234981 0.2350764 0.19703564 0.26555908 0.21266116 0.09776159 0.1863254 0.20342094 0.4575418 0.44943184 0.39985076 0.42169148 -0.13365448 -0.19475652 0.3060814 0.36349866 -0.43175098 -0.11240619 0.16586655 0.15978704 0.50640386 0.27764168 0.4889949 0.44638014 0.2811903 0.2856505 0.4058897 0.372709 0.36899152 0.32553896 0.6765574 0.7177094 0.6996116 0.3439928 0.34132284 0.27814525 0.25968266 0.34839374 0.3284321 0.29044026 0.09023239 0.2654174 0.6486658 0.59246874 0.3664086 0.38391772 0.29046693 0.25980493 0.49073297 0.3972919 0.118113056 0.3346839 0.39537084 0.29443264 0.37295666 0.39028203 0.46010965 0.4902832 0.40562797 -0.20567149 -0.1660446 0.503697 0.4462766 0.39826208 -0.11255121 -0.07086456 -0.116784744 -0.030753694 -0.005889781 0.017804325 0.4929214 0.48669797 0.45021856 0.3971058 0.18301864 0.0934757 0.12987407 0.017705582 -0.061813675 -0.07942947 0.02308959 0.54702616 -0.07341974 0.38778573 0.4459108 0.38907975 0.23578645 0.22903715 0.27246934 0.6522197 0.6707106 0.6328993 -0.08835775 0.08916326 0.42232007 0.42912 0.33657575 0.37818193 -0.09619823 0.23608446 0.5461426 0.5187824 0.5289624 0.50985277 0.41090813 0.29272783 0.68617624 0.6824869 0.6707498 0.61864024 0.50189483 0.36814052 0.37684608 0.7607004 0.7598504 0.7583044 0.6841231 0.60987806 -0.05233849 0.46633983 0.4951591 0.81824017 0.80928695 0.7398473 0.00076180696 0.46681124 0.057831503 0.20757139 0.357875 0.060613852 0.08732814 0.07380649 0.24226013 -0.009791419 0.39234793 0.056371994 0.097785056 0.38501915 0.4426934 0.43406636 0.45023254 0.49643153 0.56519014 0.69794524 0.6028211 0.65110755 0.7227843 0.2058354 0.3035148 0.41536602 0.42889202 0.4161489 0.32914612 0.26269427 0.24160887 0.18813339 0.4083261 0.36859286 0.3362779 0.35730588 0.35993704 0.37949175 0.37870705 0.33067107 0.39366293 0.39339417 0.31283417 0.31618527 0.0957382 0.16216274 0.29249054 0.465011 0.25506905 0.22700787 0.15370187 0.35553828 0.4708954 0.2823568 0.2486051 -0.013756871 0.124145724 0.22854406 0.36371914 0.43243957 0.5259391 0.26039606 -0.29978406 0.14496975 0.15527898 0.16096476 0.07277264 0.046349972 0.30400348 0.3578325 0.41809797 0.36118144 -0.11684162 0.09010503 -0.13471965 -0.12084484 0.058523774 0.2739257 0.28087544 0.31896996 -0.1581426 -0.23518082 -0.40201908 -0.19249399 0.03508222 0.061595142 0.045422345 0.27418724 -0.47068453 -0.4612334 -0.23472992 0.06578025 0.26601014 0.09186199 0.21604516 0.35874125 0.36320662 0.29198986 0.2898273 0.23199259 0.21747571 0.4017975 0.3908403 0.34806412 0.59232885 0.6807833 0.7138524 0.6952952 0.3283695 0.31374776 0.14197606 0.19608173 0.38777637 0.38834274 0.28560302 0.118594185 0.16695832 0.6622796 0.6254215 0.3332151 0.14748146 0.16445732 0.11977172 0.34678218 0.5477392 0.3837054 0.065892234 0.29017594 0.3607077 0.37702006 0.30363062 0.37110358 0.3845526 0.38892227 0.41461283 0.37362695 0.4246145 0.46583593 -0.23979451 0.28197592 0.15895416 0.3969815 0.42306197 0.4927965 0.00050457567 -0.022000205 -0.093368284 -0.07143284 -0.079285175 -0.17086564 0.20347664 0.29600173 0.019824058 0.11191245 0.30745724 0.33252084 0.28437096 -0.11764948 -0.1372882 0.3209285 0.4742713 0.4557261 0.18442562 0.12550147 0.07009449 0.21252194 0.25411737 0.35491675 0.5187403 0.3880554 0.3335254 0.22160885 -0.018336698 0.25951 0.402222 0.31352764 -0.03546559 -0.031327702 0.3106097 0.7123638 0.46318388 0.37740412 0.11522519 -0.08522335 0.41499075 0.77118015 0.8045902 0.65721905 0.55152845 0.4602229 0.15115118 -0.062741846 0.5037507 0.8160867 0.83487207 0.83570635 0.73918504 0.6407923 0.2777181 0.16155542 -0.0008697435 0.5135641 0.5210312 0.29468787 0.18831062 0.046285927 0.49400204 -0.027518168 0.04418686 0.010395892 0.20727831 0.14205578 0.3683499 0.47906074 0.16950077 0.032854382 -0.1393121 0.57720745 0.22638333 -0.13059431 -0.08728922 -0.011955067 0.56941557 0.59175265 0.26352063 0.2329796 -0.29324865 0.30009723 0.38001078 0.5330737 0.45732337 0.46204853 0.37190354 0.19654745 0.20582744 0.19123377 0.19950044 0.28629082 0.3819438 0.4023289 0.37108207 0.23906134 0.21403511 0.36368436 0.33147258 0.23729026 0.3271019 0.31043175 0.37081176 0.39378154 0.23541069 0.40003255 0.2031155 0.3985737 0.1493868 0.13963068 0.4780883 0.23218375 0.18746024 0.5413191 0.5670125 0.5818732 0.58705735 0.57007724 -0.2541764 -0.13675673 -0.10001538 0.46024227 0.25957543 0.26533625 -0.3828866 0.184102 0.24679866 -0.025255963 0.24199262 -0.06674542 0.27911976 0.2575029 0.040783096 0.10551554 0.45382947 0.47590023 0.4811519 0.41375 0.61836374 0.65307677 0.67811257 0.66166395 0.28687292 0.2523851 0.025316212 0.038688835 0.10138349 0.40009278 0.61593306 0.6279851 0.5602477 0.2671692 0.32020006 0.40360987 0.26224202 0.2119667 0.29177168 0.22464958 0.3290606 0.31235135 0.38040146 -0.066813774 -0.16503435 -0.3203498 0.31053 0.3373288 0.4444855 -0.14038178 0.07001086 0.25512412 0.47666788 -0.12500149 0.35747895 0.46459758 0.42766523 0.024979357 -0.104609475 -0.2472229 -0.18305266 -0.22756812 0.117416605 0.29143748 0.39579344 0.40748692 0.16537079 0.10688218 0.14353728 0.2836948 0.36783773 0.41244727 -0.06077171 0.27060664 0.18885502 0.26740748 0.3817919 0.07912057 0.38855273 0.73230743 0.31936008 0.2336921 0.4433202 0.41650188 0.42422736 0.7792976 0.51030093 0.41846105 0.43287155 0.340571 0.22530672 0.46979922 0.5090544 0.82749736 0.8728619 0.8624958 0.77524495 0.6095881 0.38301635 0.35870895 0.5065403 0.51896024 0.8517566 0.817935 0.3959846 0.35396832 0.46969885 0.4969581 0.38399825 0.33617187 0.27528402 0.08552251 0.15660143 0.25895378 0.07145122 0.3838769 0.5111759 -0.0017451867 0.5077606 0.5447908 0.1216546 0.0933979 0.314858 0.39338082 0.63707083 0.6490523 0.12016189 -0.2442587 0.44666135 0.55922925 0.666625 0.6904723 0.19714603 0.07484769 -0.1787204 0.5759114 0.66048455 0.24124464 0.29051057 0.059716474 0.39984745 0.47284895 0.39806134 0.43901372 0.43427894 0.39192197 0.7156807 0.76017797 0.76272476 0.79711705 0.81855667 0.79288733 0.8283677 0.21944544 0.2688561 0.35611394 0.37586796 0.14416154 0.17141783 0.18059945 0.2161294 0.3618376 0.33512634 0.14017846 0.15024307 0.28618443 0.2827405 0.22659129 0.36471123 0.39832115 -0.063625336 0.41679823 -0.15690553 -0.13680077 0.43809035 0.043789975 0.12504923 0.07476896 0.49091268 0.5286865 0.16960298 0.16589364 0.5601149 0.16133109 0.58192706 0.19021928 0.5794157 0.56821555 0.25465304 0.19866093 0.027433746 0.53867894 0.25010777 0.2365367 0.22779061 -0.048345163 -0.023133406 0.5820674 0.571528 0.21836767 -0.19800347 0.4797788 0.5691657 0.55060863 0.5367001 0.21736473 -0.062367193 -0.14372891 -0.034061067 0.38133505 0.36825788 0.57270306 0.52282095 0.5397797 0.092450835 -0.08516683 -0.027856588 -0.011197526 0.27438864 0.31769708 0.2917571 0.4121831 0.17509082 -0.0639266 -0.08274758 0.14504641 0.34579006 0.2556504 0.24856466 0.34774324 -0.52334917 -0.5026435 -0.27449012 0.20419641 0.41978943 0.14355765 0.044930756 0.13009024 0.44630742 0.33457235 0.099758185 0.041852072 0.0071531087 0.060030527 0.44158232 0.36542562 -0.17839673 -0.21262345 0.3847149 0.09191801 0.025717594 0.051413275 0.2093786 -0.13600071 -0.019128524 0.015607327 0.018854046 0.08899647 0.16036652 0.3825699 0.4043798 0.46584037 0.17577377 0.17547423 0.053653006 0.078297675 0.17863013 0.29195288 0.24799915 0.2276081 0.20570934 0.16268961 0.22451039 0.2973735 0.34972754 0.54155475 0.506987 0.29778892 0.5075677 0.28467497 0.22861499 0.33362556 0.3773834 0.39279896 0.3641821 0.32171363 0.22281176 0.53477997 0.3960287 0.7567895 0.46995792 0.35987374 0.41918713 0.4150978 0.3685945 0.5051433 0.2916756 0.46380398 0.83359313 0.86492443 0.7388494 0.42998058 0.33862132 0.463404 0.40211156 0.23061594 0.37994945 0.3543459 0.24624956 0.23497495 0.4926744 0.51006365 0.076049514 -0.02176509 0.59106857 0.5586882 -0.030861132 -0.12884456 -0.033591494 0.63704085 0.6042131 0.083749175 0.09688716 0.28519455 0.6550204 -0.27134016 0.40651292 0.63398254 0.6878333 0.6791532 -0.06411667 -0.009262405 -0.17595927 0.17077865 0.2846492 0.26353264 0.09043213 0.3918267 0.45563224 0.54968053 0.62297714 0.35565808 0.38997734 0.3801528 0.32829112 0.31531656 0.34274632 0.6826334 0.7162603 0.7285221 0.36463392 0.35318276 0.26456237 0.51073164 0.6998571 0.819788 0.8267663 0.77235836 0.82921004 0.84700525 0.83998305 0.7858037 0.8112541 0.8291491 0.2967443 0.22641811 0.2144666 0.16829498 0.36080918 0.33852732 0.18940061 0.23315312 0.18371701 0.1764423 0.11825516 0.113380134 0.37856415 0.40669757 0.0012041358 0.42034328 -0.15485759 0.42463642 -0.0061286464 -0.1711693 0.44843075 0.5127521 0.5344468 0.5116739 -0.09078662 0.5239857 0.54450566 0.575587 0.49676943 0.33469152 0.52969515 0.4349131 0.49835604 0.30988157 0.29096365 0.26506525 -0.102302864 0.23389634 -0.08225712 0.59101856 0.14303541 -0.13493451 0.5238458 0.6056689 0.585032 0.54067814 0.47797188 0.09501596 0.011195496 0.059170723 0.31690598 0.43889993 -0.05588869