# vtk DataFile Version 2.0
Really cool data
ASCII
DATASET POLYDATA
POINTS 1087 float
-30.737053 26.128853 19.639383
-30.774118 26.081726 19.988539
-30.610424 26.82311 18.685867
-30.874155 26.687809 19.646587
-30.766382 26.595623 20.325003
-30.6454 27.38056 18.809412
-30.836826 27.28288 19.730698
-30.744123 27.205261 20.317522
-30.552639 27.897676 18.907917
-29.750685 25.079334 19.683691
-29.792507 25.178253 20.142246
-29.999249 25.891588 17.918509
-30.156342 25.699673 18.67246
-30.554186 25.919336 19.547012
-30.434277 25.825651 20.239264
-29.772131 26.69252 17.195297
-30.204796 26.570389 17.894367
-30.51035 26.604507 18.367044
-30.532984 26.301939 20.606138
-30.16518 26.574316 21.041105
-30.140404 27.457943 17.590727
-30.452328 27.638578 18.335762
-30.555412 27.193737 20.593988
-30.294329 27.146988 20.895456
-29.933115 28.319386 17.281977
-30.271254 28.40077 18.484346
-30.097452 28.443233 19.348331
-30.213163 27.865099 20.45045
-29.806723 29.012884 17.667648
-29.736767 29.28823 18.285656
-29.837843 28.951466 19.043022
-28.998663 24.828676 19.80704
-29.521902 25.149923 20.434647
-29.473204 26.168015 17.058329
-29.633625 25.597178 17.869062
-29.467539 25.771992 21.035728
-29.374035 26.89648 16.822493
-28.810026 27.157911 28.854576
-29.099503 27.348562 16.486794
-28.838575 27.402584 27.889952
-28.802599 27.486683 28.504768
-28.750906 27.476898 29.442202
-29.40987 28.347666 20.675055
-28.81533 28.496843 29.428993
-28.602226 28.236645 30.01368
-28.749214 29.380825 16.554499
-29.42617 29.365786 17.571955
-29.437141 29.514626 18.447144
-29.490015 29.336094 19.03442
-29.369717 28.711605 19.996403
-28.741428 29.06063 25.842754
-28.652557 29.727798 28.77031
-28.645163 29.700964 28.959764
-29.139574 29.692926 17.65341
-29.103462 29.746353 18.358154
-27.86117 24.186834 12.911298
-27.570322 23.513378 13.261099
-27.905472 24.41997 12.727159
-28.020605 24.593586 13.492267
-27.920538 24.625414 14.00561
-27.898533 25.07193 12.4818735
-28.152472 25.115011 13.247189
-27.725285 25.299147 14.320754
-28.502129 25.891516 21.229332
-27.819508 26.452631 15.298729
-28.154505 27.006187 25.941532
-28.162224 26.85282 26.851265
-28.433416 26.68192 28.637375
-28.412766 26.817434 29.22203
-27.954004 26.86737 30.034767
-27.660988 27.7627 10.010506
-27.759434 27.30333 25.096224
-28.486723 27.913528 25.470213
-28.139801 27.587555 30.455025
-27.772633 28.73176 8.942779
-27.970352 28.47531 9.673757
-27.96229 28.552588 10.38724
-27.607403 28.255575 11.921078
-27.748833 28.702944 14.05282
-28.29352 28.446215 30.344286
-27.908432 28.043049 30.704433
-27.862774 29.662691 9.106746
-28.044504 29.257624 9.682652
-28.006977 29.337446 10.248216
-27.766083 29.207571 13.829537
-28.023449 29.281322 14.878544
-28.087654 29.729553 16.351383
-28.687283 29.406143 19.573263
-28.034124 29.276615 25.089125
-28.358822 29.150145 29.955738
-27.941397 30.012842 9.847211
-27.85207 30.344809 10.343928
-27.763409 30.647713 11.333229
-27.759954 30.237886 12.76478
-27.835905 30.438993 13.483397
-28.037733 30.456406 14.480197
-28.415457 29.880592 17.560968
-28.523829 29.911697 18.494457
-28.187275 29.90493 19.045605
-28.445477 29.797625 26.735308
-28.179989 30.354675 27.441317
-28.26443 30.439125 28.581947
-28.071726 30.478514 28.848076
-27.6276 32.033245 5.474115
-27.731663 31.982853 6.3903475
-27.804874 31.076603 14.619721
-27.976856 30.834976 15.627968
-27.873476 30.666183 27.283934
-27.9799 30.684357 28.437414
-27.63524 33.082653 4.8498583
-27.844938 32.44216 5.622089
-27.922686 32.61015 6.4773574
-27.714813 33.303448 4.637512
-28.123951 33.635696 5.835229
-28.289568 33.67147 6.7506485
-28.228813 33.778023 7.765687
-28.096546 33.796944 8.089533
-27.691883 34.343113 4.7296834
-28.001146 34.223076 5.558923
-28.336407 34.597294 7.045569
-28.282202 34.500774 7.458473
-28.064835 34.76838 8.074557
-27.734419 34.571644 8.813598
-27.767817 35.047188 5.759422
-27.954033 35.159477 6.782375
-27.942223 35.295433 7.4557285
-27.926636 35.048912 8.133004
-26.769651 22.207397 13.521252
-26.785282 22.308577 13.98895
-26.782452 23.169868 11.951935
-26.963459 22.98602 12.550561
-27.094435 22.69932 13.64341
-26.85954 22.326038 13.97371
-27.082344 23.667475 11.871669
-27.251041 23.405012 12.443345
-27.501757 23.512407 13.508525
-27.53307 24.015654 14.288213
-26.776972 23.902275 14.862815
-26.57021 23.370882 19.592596
-26.74331 24.859066 11.014524
-27.429565 24.294899 11.956265
-27.563025 24.98168 17.197037
-27.334427 24.753157 18.141338
-28.04911 25.070969 20.328579
-27.077715 25.898958 11.690821
-27.502218 26.404366 26.245
-27.590149 26.340553 27.809614
-27.241013 26.306156 29.281847
-27.089928 27.077267 9.603182
-27.645618 26.567387 29.709402
-27.623564 26.88073 30.215487
-27.220625 27.674145 8.9931345
-27.144726 27.931892 13.019363
-27.021559 27.743284 30.8011
-27.073566 28.223495 8.44172
-26.9027 29.213734 21.256603
-26.883574 29.063532 24.345556
-27.710352 28.90813 30.565037
-26.801968 31.008724 5.926172
-27.054667 30.148947 7.79107
-27.369913 30.157978 25.689436
-26.845549 31.740335 4.8976912
-27.224714 31.123308 8.14516
-27.47775 31.77676 9.222963
-27.377111 31.706366 10.766868
-27.446465 31.4711 15.344976
-27.002583 31.145386 16.461514
-26.940207 30.96844 16.841082
-27.252424 30.698307 26.854048
-27.318977 30.951414 27.59039
-27.107918 31.027979 28.241648
-27.612053 30.682024 29.08588
-27.019484 32.743816 4.0137277
-27.587378 32.49401 4.9524026
-27.199598 32.40597 9.83292
-27.180355 31.708036 14.688589
-26.974043 31.69518 15.712616
-26.831312 33.844357 3.3994064
-27.082767 33.56989 3.7220368
-27.54754 33.294247 4.357494
-27.023401 34.51349 3.7722137
-26.920898 35.016083 3.9732485
-27.004297 35.369556 4.421442
-27.356537 35.337566 5.279794
-27.54983 35.519398 6.4943395
-27.668695 35.52598 7.6792383
-27.461699 35.4049 8.153575
-26.97901 34.861996 9.480079
-26.808762 35.6216 4.6504836
-27.238176 35.79366 6.8501434
-27.335604 35.78322 7.41464
-27.4364 35.626564 7.9874845
-26.399529 22.123743 12.844283
-26.287735 21.933369 13.470442
-26.675352 22.233946 14.243871
-25.84316 22.347807 20.037577
-26.067963 23.279922 11.283325
-26.289103 22.991106 11.680493
-25.743734 23.105293 17.911081
-25.75004 22.511795 18.833075
-26.16611 22.746191 19.653423
-25.981733 22.700533 20.432087
-25.902855 22.997501 20.867783
-26.216852 23.581728 11.041275
-26.50854 23.422411 11.392989
-25.860535 24.129845 17.18451
-26.035381 23.39643 20.879995
-26.124535 24.460266 10.59143
-26.31461 26.328548 27.23094
-26.670149 26.15035 28.441872
-26.665392 26.340933 29.501785
-26.279518 26.808876 9.027862
-25.851019 26.819904 22.64508
-25.883272 26.703981 23.351822
-25.936401 27.436983 8.394162
-25.540133 28.814896 33.945766
-25.52572 28.038715 34.500477
-25.804464 29.365276 7.300715
-26.584665 31.2504 5.1722555
-26.579777 29.705168 21.245575
-25.862072 30.263376 25.043455
-26.617027 30.439548 29.921448
-26.76113 31.304268 16.525465
-26.083134 30.87953 17.055136
-25.977053 30.790298 25.873066
-26.78153 30.95943 26.915571
-26.425163 31.091515 27.680285
-26.50763 30.685339 29.64885
-25.557304 31.693075 35.07299
-25.77596 31.716875 35.50258
-25.812916 31.73634 36.066135
-25.648031 31.938938 36.978035
-26.015959 32.75328 3.411336
-26.10406 32.494865 3.7544923
-26.522984 32.573517 10.8299465
-26.291632 32.01326 12.478194
-26.064798 32.257946 13.507373
-26.012495 32.0229 14.741829
-26.22784 32.065742 15.112164
-25.713268 32.209465 35.891346
-25.655 32.08674 36.82227
-25.583681 32.07435 36.903328
-26.578632 33.63416 3.3245695
-26.276228 34.173195 3.288269
-26.11949 34.732113 3.5271788
-26.475418 35.050186 3.8402784
-26.684011 35.018463 9.533097
-26.046122 34.908398 10.226991
-26.355164 35.794415 4.7538404
-26.598162 35.916504 5.542279
-26.659048 36.042725 6.45609
-25.274626 21.873495 12.799086
-25.464828 21.711601 13.675782
-25.528772 22.307549 15.11095
-24.841238 21.782154 18.120584
-25.124226 21.842829 18.446083
-25.252165 21.949926 19.596586
-25.306793 22.07754 19.970228
-25.590523 23.190952 11.194036
-25.455965 22.417206 12.037637
-25.655956 22.63531 15.105054
-25.232506 22.899178 17.442837
-25.500147 22.364603 18.542215
-25.587385 22.41398 20.696672
-25.100597 22.508938 20.910769
-25.57098 23.584305 10.889335
-24.997053 24.907015 9.73801
-24.801727 24.645714 23.892296
-25.04172 25.189167 24.221096
-25.246042 26.14217 9.028827
-24.807652 26.001083 33.860825
-24.9291 26.194529 34.54079
-24.722795 26.228596 35.446495
-25.247404 26.641262 29.313951
-25.993767 26.660822 29.907866
-25.011185 26.635975 33.02977
-24.955614 26.576649 35.49175
-24.86566 26.765207 36.041462
-24.867685 27.446035 31.817564
-25.439459 27.53849 34.462524
-24.938942 27.32421 36.13235
-25.484955 29.054413 7.1044292
-24.883749 29.618662 5.100737
-25.320122 29.155798 34.423786
-25.050102 29.306932 35.49328
-24.985638 30.881784 3.6452887
-25.201794 30.34296 4.7413983
-25.473114 30.450256 21.848291
-25.053808 30.400824 32.883938
-25.032137 31.069616 37.508076
-25.080435 31.835505 3.1651564
-25.093615 31.0846 18.29165
-25.091576 31.023731 20.614384
-25.90599 30.814966 25.977377
-25.324268 31.140776 26.596535
-25.353327 31.56278 37.291363
-25.667252 32.9208 3.2939374
-25.699095 32.52018 13.775583
-25.547867 32.76122 36.09347
-25.28874 32.51538 37.31556
-25.853168 33.421867 3.2365458
-25.321814 32.52321 12.599856
-25.257788 32.566906 13.464211
-25.1774 33.173035 35.946697
-25.172665 33.236076 36.594406
-25.090105 33.135513 37.11757
-25.89681 34.114494 3.2655692
-25.575426 34.54683 3.4766598
-24.808115 33.59137 36.54349
-25.912071 35.04794 3.7586267
-25.38533 35.57071 10.260763
-25.76604 35.778122 4.815421
-25.630995 35.812828 5.2496843
-25.570547 36.05119 6.5735703
-25.878115 36.07444 7.8226843
-25.531237 35.667355 9.037338
-24.178988 21.396461 19.132374
-24.487873 21.977627 12.809843
-24.607428 21.775684 13.672225
-24.663237 21.763462 13.964739
-25.003325 22.256601 14.872045
-24.37806 21.702282 17.832851
-24.46016 21.50823 19.382074
-24.169882 21.55305 19.983356
-24.640059 22.58556 11.997068
-24.447586 22.857761 15.6010065
-24.534075 22.614271 16.991156
[...]
POINT_DATA 1087
SCALARS features_00 float 1
LOOKUP_TABLE default
0.65957224 0.669358 0.60862035 0.6570476 0.6710318 0.62553847 0.65580976 0.6611229 0.6210552 0.6392348 0.65624714 0.5181351 0.59352005 0.6550547 0.6685034 0.48787016 0.53547955 0.579303 0.66962576 0.66825116 0.5398941 0.59381723 0.66406286 0.6603012 0.52945924 0.56769794 0.5739896 0.6316117 0.45358363 0.4551793 0.50727606 0.5966612 0.64890397 0.42908204 0.48338044 0.6683378 0.4460964 0.64569813 0.39718354 0.5584901 0.6149478 0.6739435 0.5061015 0.6618272 0.67354524 0.29034716 0.3991583 0.43204498 0.45822465 0.48335123 0.612862 0.5134255 0.5316992 0.3758567 0.3994099 0.4730909 0.49419844 0.46863532 0.43882427 0.4223224 0.45463434 0.40410453 0.33466172 0.64616406 -0.072909065 0.46951663 0.51038146 0.6072733 0.6553892 0.68376327 0.41912156 0.43708032 0.56748015 0.6920408 0.38899377 0.39304247 0.35168028 0.15871185 0.1149808 0.6650678 0.6796561 0.32076293 0.33517554 0.29941356 0.15103763 0.23101977 0.25247705 0.39337778 0.5516616 0.6063814 0.26687965 0.21500045 0.16496566 0.15442951 0.2398701 0.3056448 0.30458835 0.35224348 0.33716422 0.43831867 0.41590488 0.46993402 0.48065123 0.43304455 0.36933598 0.38744032 0.3197828 0.40202403 0.45336044 0.54089016 0.460048 0.4362997 0.575058 0.5435891 0.5374755 0.48798072 0.46075347 0.69142145 0.6090825 0.53053284 0.5137653 0.48914695 0.4372955 0.60057384 0.53259885 0.5054941 0.48676693 0.5746037 0.5763538 0.49286246 0.5172398 0.53178406 0.56677514 0.47219986 0.4978786 0.49152455 0.4496613 0.4577694 0.37527525 0.42383856 0.4688811 0.03909155 0.040741507 0.56363904 0.3971368 0.43825448 0.54907644 0.57943577 0.3772584 0.6464737 0.6732746 0.41316694 0.019717563 0.65809286 0.38930878 0.2439229 0.43174654 0.6237749 0.22443354 0.2801032 0.4056856 0.4091688 0.266285 0.26913753 0.23529914 0.41634214 0.32264635 0.261547 0.37165684 0.39175734 0.40991622 0.47185478 0.550019 0.4853176 0.24751586 0.45605847 0.4116055 0.6233442 0.6364044 0.59952104 0.6812291 0.6908518 0.6859253 0.6256465 0.53882253 0.4920357 0.46712536 0.34295213 0.65936184 0.5067125 0.48269433 0.46700892 0.60198057 0.64597833 0.5969169 0.47573483 0.46119183 0.49276295 0.3431049 0.47054026 0.44116354 0.443347 0.41027787 0.4382746 0.46156585 0.039863363 0.37872106 0.38896054 0.43638653 0.49239224 0.52192706 0.28814635 0.07382651 0.056003675 0.2614408 0.24796389 0.39831033 0.14415218 0.30031788 0.2556795 0.24200992 0.49226886 0.325316 0.26425314 0.26420838 0.3484521 0.340628 0.45712596 0.51016396 0.5395366 0.56833667 0.6220837 0.48755822 0.46551204 0.16267207 0.35172963 0.43273988 0.42257833 0.3974854 0.60101366 0.6267897 0.62841904 0.59574676 0.61844 0.6485251 0.67708445 0.3412427 0.22994357 0.63187575 0.56810486 0.508855 0.67926455 0.6889541 0.57822245 0.54306626 0.5398837 0.5432504 0.5210404 0.44639677 0.5868268 0.5737518 0.35643345 0.4837317 0.45438814 0.4396798 0.41801006 0.3164332 0.35577828 0.32764482 0.2424289 0.5381607 0.567523 0.5638268 0.26469535 0.44955948 0.4712929 0.5579426 0.52688617 0.34729844 0.50889677 0.50784075 0.08671634 0.21828899 0.23861088 0.2513877 0.4037693 0.24409392 0.20620255 0.11793738 0.5764217 0.42381328 0.25091252 0.39339405 0.25954092 0.21433444 0.604637 0.4720856 0.48981768 0.6093794 0.63702357 0.5281158 0.5248053 0.5331814 0.6050586 0.63168323 0.6304283 0.58496726 0.57204854 0.6288078 0.64678824 0.28928673 0.59717286 0.5458019 0.48137715 0.40776715 0.31323653 0.5674359 0.608264 0.61903286 0.6124239 0.54906106 0.5530493 0.5790951 0.5596777 0.5593668 0.25455925 0.32830864 0.40927017 0.35949343 0.4075448 0.3942418 0.38569194 0.3590341 0.57344633 0.5854846 0.57542 0.51350164 0.5049139 0.54927456 0.57511896 0.5183586 0.517011 0.49753737 0.32991797 0.48927706 0.5041338 0.3838458 0.49744734 0.5064454 0.52645874 0.23407823 0.344034 0.4338602 0.065325215 0.13485406 0.13805963 0.21200489 0.62482226 0.5462003 0.56487733 0.5305629 0.4460502 0.54285365 0.6625084 0.63194656 0.6477462 0.59564227 0.60951304 0.6265118 0.21274821 0.17579806 0.25567392 0.17830658 0.5397435 0.519135 0.5731734 0.55055726 0.5536242 0.5292922 0.5056426 0.51942265 0.49489397 0.41897482 0.41176152 0.40281883 0.39756936 0.41009715 0.3920715 0.3979494 0.3873523 0.42657495 0.59101045 0.61020577 0.5926328 0.40045315 0.5704659 0.5196207 -0.02903904 0.2743864 0.509571 0.4902013 0.44278577 0.42276514 0.5148479 0.4900576 0.50819916 0.48678678 0.37227154 0.542888 0.58908737 0.55840915 0.0779642 0.12774315 0.6004743 0.5737564 0.3031589 0.22390589 0.3222288 0.41917542 0.5066033 0.4955061 0.4542447 0.15099314 0.14892939 0.14223953 0.6057259 0.40199 0.46885797 0.40268785 0.4701474 0.49894315 0.63242555 0.584661 0.5537689 0.60882735 0.669009 0.6454921 0.25229305 0.23327678 0.22642767 0.49800706 0.5022655 0.41894054 0.4662564 0.47115275 0.359403 0.3762806 0.43455687 0.3936438 0.39948243 0.2823762 0.39768726 0.3819757 0.41563725 0.30496576 0.55556285 0.6087866 0.35858858 0.45090508 0.52614874 0.28184214 0.5086622 0.51483035 0.46310934 0.29925153 0.5840858 -0.08065845 -0.048007272 0.58935773 -0.07106322 0.16648056 0.59040934 0.05613207 0.498941 0.2610686 0.5663442 0.6026839 0.4203331 0.48953506 0.5088711 0.50806993 0.24026191 0.22037506 0.59185255 0.60150886 0.2830596 0.6433443 0.5872 0.556381 0.69502795 0.68787324 0.37442768 0.69537246 0.7121576 0.73282886 0.21763715 0.2649293 0.16098545 0.6798353 0.64282936 0.22734907 0.19301227 0.67157096 0.68478924 0.67652106 0.62057376 0.44480738 0.6752887 0.67619944 0.6330688 0.438146 0.44303763 0.4236131 0.4087597 0.42862177 0.42620847 0.41682056 0.45983523 0.286434 0.2829001 0.32576936 0.365524 0.496055 0.41130033 0.30647513 0.33973205 0.4732637 0.27940202 0.35414279 0.37312403 0.4082092 0.616713 0.5777148 0.38036132 0.23354447 0.14611083 0.19678935 0.56678 0.62848496 0.5110674 0.30979306 0.29561335 0.240905 0.26206192 0.52340007 0.61428404 0.124433346 0.023469925 0.28434184 0.2720429 0.16045195 -0.027461201 0.581929 0.56275153 -0.045200817 0.3657717 0.36951435 0.31314152 0.57714593 0.5763627 0.55502176 0.52598405 0.48243347 0.4880293 0.4698034 0.5904791 0.5782179 0.50257766 0.6018766 0.58041495 0.5188741 0.32775003 0.3583467 0.39166886 0.3311903 0.6555228 0.5514804 0.45925277 0.64998245 0.7116567 0.6194348 0.72221744 0.28384864 0.19447598 0.1272584 0.5211765 0.6120359 0.63681465 0.4932254 0.6447275 0.6572771 0.6516181 0.6564505 0.6491153 0.4675284 0.50765693 0.57011336 0.53402334 0.6276578 0.6210846 0.6477945 0.67897034 0.4230063 0.64963603 0.6394659 0.4121334 0.4086938 0.60911256 0.6312915 0.5653894 0.36592633 0.3872268 0.38447714 0.36915338 0.34664214 0.62010115 0.40539622 0.40880334 0.3871703 0.33362255 0.33347484 0.50234526 0.33996856 0.39310774 0.35593385 0.334255 0.32683268 0.3187569 0.18896319 0.12706204 0.31227523 0.5452343 0.6111016 0.59043133 0.569595 0.49024436 0.33596978 0.32291085 0.13660619 0.34614033 0.4506324 0.6135458 0.61095554 0.3072071 0.55782735 0.051808294 0.5871269 0.5703684 0.5254005 0.5210978 0.58522904 0.5933286 0.48897207 0.45182294 0.29980028 0.540471 0.54498196 0.6051233 0.61029255 0.49676687 0.50365776 0.4882813 0.58144987 0.6735263 0.6596912 0.62433434 0.582862 0.62370956 0.68203664 0.73168135 0.6296857 0.7008579 0.23472656 0.25937188 0.23929632 0.26896173 0.13830662 0.5622122 0.20351158 0.18389025 0.61113006 0.6066612 0.6357318 0.5765177 0.6284114 0.627522 0.63868093 0.36634326 0.32744133 0.32179248 0.41078746 0.3446509 0.3280248 0.53717977 0.44017783 0.38315362 0.41815114 0.5631669 0.4515261 0.6196451 0.5533184 0.6676934 0.6142822 0.6271579 0.592644 0.70521855 0.65711355 0.6541149 0.69585943 0.677614 0.636139 0.71871954 0.7061566 0.7095502 0.71642137 0.69814444 0.7354752 0.7369677 0.7460594 0.6575117 0.6794894 0.7293245 0.75123394 0.3392717 0.6307616 0.77619493 0.53788877 0.47595897 0.7902945 0.23881543 0.5591953 0.5182959 0.49456996 0.37606615 0.2609437 0.58730745 0.53561175 0.48098266 0.4532069 0.4448495 0.43378693 0.5613072 0.5216268 0.45598298 0.43716443 0.42707163 0.5362245 0.24723922 -0.008299284 0.16016644 0.47871608 0.53182846 0.5222206 0.45448917 0.40518224 0.38557383 0.5694261 -0.005369842 0.23288701 0.34048098 0.5788488 0.4762233 0.46314046 0.4013201 0.6438483 0.58018184 0.59844404 0.3265055 0.63302124 0.5642243 0.60042477 0.5710666 0.56333506 0.5711845 0.5933649 0.6889988 0.6962836 0.59766066 0.64576685 0.19444679 0.19467872 0.4983937 0.17983752 0.5520855 0.20784277 0.30716163 0.30250025 0.31303075 0.3185264 0.34104002 0.36344737 0.376389 0.39766467 0.43730593 0.6051651 0.52395594 0.5580879 0.68175 0.5926559 0.57468426 0.6992067 0.729258 0.6114321 0.5921054 0.7439897 0.7156072 0.7148698 0.71782774 0.7111305 0.7142124 0.8164797 0.8048275 0.7786594 0.7297025 0.8273506 0.8545246 0.81246614 0.6851227 0.78787374 0.8530384 0.84705764 0.72370195 0.79373485 0.8402033 0.40757906 0.38807338 0.4092657 0.54705787 0.6062647 0.5509249 0.5874231 0.42907608 0.5816074 0.6398399 0.543016 0.5914693 0.6219939 0.63694596 0.6199933 0.528962 0.63495386 0.6124959 0.6055089 0.6133526 0.73782134 0.7104362 0.5908195 0.7342602 0.14039788 0.18621717 0.6911883 0.13534951 0.14068006 0.10000071 0.6365385 0.14446624 0.13005556 0.33507133 0.17715566 0.34245875 0.37825647 0.43611604 0.4808297 0.5616953 0.74590814 0.5813862 0.5721123 0.76833487 0.7083345 0.705202 0.72364223 0.67532086 0.6219025 0.66987765 0.6678341 0.6473378 0.6560588 0.64779115 0.72920483 0.7393838 0.63368475 0.70669603 0.74861413 0.76835954 0.75934666 0.6279336 0.74290955 0.72989863 0.7023752 0.120473646 0.13891664 0.283833 0.22192174 0.10063019 0.22917032 0.037884913 -0.0061035976 0.459903 0.5634693 0.6788358 0.7295637 0.639284 0.60519296 0.5118302 0.7385218 0.7529981 0.7636241 0.7360496 0.75129735 0.7619474 0.77048075 0.7432428 0.75656515 0.3142675 0.34817335 0.25257257 0.060837578 0.22557543 0.46480042 0.3102272 0.511887 0.43910563 0.18277162 0.22904235 0.6012838 0.6326355 0.6191867 0.17716359 0.23919106 0.58232623 0.5610293 0.3026942 0.3021186 0.5466323 0.48853037 0.3198648 0.29313856 -0.007982925 0.4764905 0.58437353 0.6616839 0.5531802 0.59611 0.6537431 0.5832133 0.20197392 0.6758938 0.6496682 0.6808423 0.6659155 0.6607302 0.59735537 0.5825882 0.55884 0.4836818 -0.09655927 0.6163576 0.668772 0.6776344 0.6712183 0.67401075 0.6794219 0.67754096 0.7090411 0.66185266 0.64957726 0.68984926 0.46944606 0.4567111 0.69221413 0.6999879 0.38378015 0.3828382 0.68974745 0.69004226 0.34628195 0.621945 0.59593326 0.5982275 0.56234336 0.29736018 0.5456649 0.3884138 0.52645373 0.5897851 0.50263864 0.6208174 0.62752235 0.6479417 0.69945407 0.74565184 0.64802206 0.6683929 0.71926576 0.6601851 0.69403076 0.66290045 0.5616541 0.5281073 0.4764678 0.45140943 0.7173785 0.67193955 0.5128968 0.43394732 0.7196345 0.63582623 0.42879343 0.4107613 0.3872748 0.52137715 0.38878646 0.472104 0.5135063 0.5465706 0.5276381 0.5585642 0.5714539 0.68039477 0.6632726 0.57643026 0.5764514 0.56272984 0.5783086 0.5110097 0.5925305 0.38785237 0.492962 0.4663019 0.4995873 0.34708637 0.44485855 0.45261377 0.4604085 0.41546413 0.457039 0.42103446 0.45949456 0.4403791 0.4842392 0.49288204 0.48047394 0.4910047 0.5002483 0.5227171 0.5096544 0.5153483 0.5970129 0.5663829 0.5748488 0.5921956 0.6086838 0.5097686 0.55485725 0.59593165 0.51774645 0.52179945 0.49133858 0.49187297 0.46992147 0.48881114 0.48893252 0.42514908 0.42317444 0.488294 0.43569833 0.45434678 0.4927979 0.49720684 0.44091225 0.4784694 0.49203724 0.50153023 0.50075525 0.5821328 0.58213794 0.56673753 0.500615 0.5060164 0.5357409 0.50270987 0.441293 0.42264125 0.4218768 0.46167704 0.45256823 0.45446908
SCALARS features_01 float 1
LOOKUP_TABLE default