# vtk DataFile Version 2.0
Really cool data
ASCII
DATASET POLYDATA
POINTS 7766 float
-41.511032 45.731686 25.642843
-41.508606 46.02283 25.378546
-40.531578 36.644848 21.622896
-40.530956 36.78804 21.975012
-40.83071 43.146095 23.887297
-40.92106 43.102192 24.456968
-40.902958 43.246643 24.86862
-40.968933 43.621784 23.720592
-41.16864 43.570347 24.432602
-41.09373 43.716434 25.064644
-40.760014 44.134315 25.892286
-41.036064 44.62346 23.658234
-41.291897 44.38279 24.31588
-41.264393 44.624775 25.432583
-40.96118 44.95641 26.352375
-40.726944 44.92518 23.272654
-41.129166 45.060658 23.973894
-41.391346 45.522743 24.74858
-41.446125 45.51405 25.395405
-41.21752 45.536453 26.258963
-40.91899 45.57732 26.688541
-41.002277 46.451584 23.932178
-41.305714 46.310028 24.66929
-41.363644 46.219936 25.430548
-41.05727 46.305862 26.308054
-40.90346 46.133183 26.67389
-41.139507 47.04185 24.67511
-41.04245 47.086403 25.30831
-41.05197 46.81456 26.030102
-40.628742 48.84457 22.24202
-40.719276 48.80588 22.529837
-40.8234 48.719803 23.207493
-40.729584 48.40748 24.156942
-40.742275 49.46751 22.534359
-40.85377 49.625343 23.237581
-40.666607 49.571396 24.00505
-40.66689 50.22342 22.67401
-40.684708 50.360737 23.435638
-40.603485 50.18817 24.001955
-40.56008 50.886806 23.109339
-39.850266 35.113827 21.726877
-39.920948 35.22398 22.463785
-40.027493 35.831615 20.859087
-40.278164 35.731007 21.648756
-40.236183 35.780914 22.50444
-39.89835 35.67181 23.051424
-39.719437 36.65146 20.09252
-40.1757 36.60456 20.768187
-40.45292 36.63939 21.458773
-40.425335 36.491783 22.31702
-40.02272 36.33267 23.052164
-40.185955 37.29128 20.85421
-40.37533 37.333492 21.561811
-40.30249 37.228382 22.199467
-39.896645 37.197697 22.990196
-39.629967 38.255577 20.869545
-40.048405 37.91572 21.511444
-39.675644 38.001465 22.61616
-39.657772 37.78721 22.763197
-40.216953 43.23005 23.231535
-40.317486 42.988007 23.649286
-40.40364 42.83487 24.623749
-40.254093 43.058434 25.157028
-40.404217 43.73915 23.101854
-40.61797 43.327152 23.470098
-40.648758 43.32949 25.32411
-39.96377 43.866432 26.24605
-40.117466 44.32931 22.755568
-40.229748 44.884617 26.794088
-40.63472 45.82481 23.60677
-40.368248 45.56675 26.933514
-39.998524 47.02664 23.200693
-40.370384 46.3182 26.81337
-40.336235 47.761612 22.695583
-40.625267 47.21568 25.707148
-40.314274 48.833744 22.04862
-40.510918 48.500072 22.354588
-40.446217 48.52075 24.464811
-40.075848 48.81675 24.986673
-40.382027 49.36163 22.017048
-40.279003 49.45511 24.613083
-40.057632 50.49519 21.902569
-40.397884 50.729187 22.505901
-39.789402 50.625202 25.205847
-39.950222 51.232216 22.016596
-40.18648 51.38245 22.546621
-40.248795 51.484722 23.252909
-39.98882 51.321514 24.389174
-39.81016 51.40939 24.915174
-39.91437 51.913136 22.755272
-39.8261 51.99151 23.340097
-39.8548 51.769093 24.086779
-38.973644 35.140438 20.23054
-39.202934 34.97069 21.062374
-39.300125 34.901985 21.501654
-39.416893 34.882923 22.34839
-39.28024 35.158073 23.104492
-38.53696 36.029713 18.07373
-39.234955 35.90987 20.018862
-39.45943 35.57861 20.426231
-39.58062 35.646458 23.281904
-39.144646 35.77775 23.592194
-38.537003 36.225636 17.862019
-38.811306 36.56014 18.784464
-39.012558 36.74265 19.223839
-38.937527 36.640404 23.91765
-38.64667 37.670692 17.683193
-38.85257 37.770195 18.625544
-39.327545 37.4786 19.685915
-39.4491 37.366997 23.411854
-38.679287 38.562065 18.106806
-38.883507 38.39907 18.478586
-39.07646 38.412212 19.482494
-39.443928 38.511936 21.787714
-39.403496 38.303135 22.438839
-38.96905 38.286247 23.254288
-38.788567 37.89853 23.808136
-38.797543 39.00438 18.582792
-39.16711 38.826916 20.710032
-38.82588 39.161346 21.484789
-39.78964 42.981018 25.277847
-39.5652 43.29009 25.767694
-39.572376 43.941257 22.678852
-38.931637 44.835 22.149054
-39.64042 44.185898 22.652988
-39.292156 44.783028 26.886286
-39.126247 45.559082 22.352549
-39.34199 45.798405 22.455872
-38.94812 46.04434 22.188408
-39.551292 46.35127 27.110212
-39.669422 47.161522 22.62306
-39.495193 46.95194 26.878225
-39.40138 48.63517 21.805738
-39.614132 48.17874 25.520773
-39.477993 48.22833 25.93257
-39.82507 49.361755 21.68597
-39.35162 48.977818 25.453547
-39.06671 50.48183 21.432497
-39.609985 50.457394 21.640018
-38.81837 50.78914 26.291943
-39.43556 51.46514 21.736765
-39.438053 51.655933 25.336231
-39.003757 51.408092 26.054327
-39.385334 51.912884 22.016745
-39.40504 52.225338 22.669086
-39.395588 52.29641 23.404123
-39.11748 52.26655 24.642057
-39.363678 51.979687 25.022882
-38.908085 51.890034 25.844475
-38.963715 52.540054 22.995005
-38.9073 52.571552 23.545042
-37.68241 27.097527 25.638659
-37.676674 27.536415 25.058134
-37.790016 27.52413 25.590347
-37.71836 27.551441 26.163754
-37.793385 28.074791 25.58254
-37.656548 28.282711 26.184797
-37.66781 33.962917 19.071442
-37.752216 35.21077 17.1398
-37.775528 35.11649 17.410372
-37.881554 34.696342 18.415249
-38.540596 34.65519 21.60519
-38.575726 34.71987 22.509188
-38.51605 34.995277 23.278713
-38.078075 35.993637 16.888447
-38.172077 35.760376 17.376862
-38.38908 35.82353 18.29789
-38.45028 35.57966 19.703682
-37.924587 35.412136 23.927614
-38.092293 36.672684 16.751934
-38.430958 36.38301 17.387154
-38.12987 36.73924 24.193233
-38.16521 37.270805 16.875372
-38.433846 37.67262 17.611927
-37.972355 37.220497 24.607918
-37.510025 37.93928 26.16063
-37.800518 39.08545 9.915407
-37.788635 38.935986 10.544431
-37.732323 38.99678 11.087315
-37.942875 38.06602 16.836891
-38.446728 38.353508 17.595146
-38.59931 38.635983 23.653225
-38.453167 38.058018 24.14141
-37.587555 38.134598 25.980272
-37.674168 39.662266 9.172197
-37.99806 39.634594 9.748685
-38.079155 39.68948 10.494068
-37.902225 39.58904 11.19348
-37.674664 40.010395 11.770439
-38.127163 39.5276 18.049244
-38.54825 39.54788 19.376652
-38.43678 39.64027 20.887152
-38.52499 39.535305 21.37524
-38.577705 39.469368 22.092428
-38.446682 38.850544 23.429247
-37.676517 40.518528 9.225721
-38.03515 40.480198 9.740219
-38.16143 40.40629 10.340934
-37.889164 40.50891 11.382093
-37.658516 40.23307 11.821497
-37.962265 39.915 18.550858
-37.956726 40.108303 21.465187
-37.913567 41.187363 9.856998
-37.982807 41.14864 10.439625
-37.964188 40.8999 11.123461
-37.605812 41.95096 21.847267
-37.64443 42.069717 22.259834
-37.89849 42.404797 24.46839
-38.220127 42.39173 25.013058
-37.674892 42.342094 22.249603
-38.61483 42.861755 23.469606
-38.501133 42.58974 24.672102
-38.26788 42.456867 25.458574
-37.852398 42.254303 26.174738
-37.54759 43.765488 9.427103
-37.96855 43.857315 21.87647
-37.83115 43.768322 27.105839
-38.694256 44.827824 22.245272
-38.07008 45.749004 21.750343
-38.394123 46.472015 27.20495
-38.466354 47.92023 21.924337
-38.852505 48.856125 21.759151
-38.19241 49.672176 21.625505
-38.287003 49.423027 26.283533
-37.866688 49.33235 26.60529
-38.926094 50.372875 21.452234
-38.60973 50.488342 21.5342
-38.66164 50.7919 26.365242
-38.533577 51.423008 21.644913
-37.909904 51.508835 26.750961
-38.695866 52.13384 21.996523
-38.681736 52.416775 22.52445
-38.403534 52.493214 25.516638
-38.248646 52.118652 26.127748
-38.452034 52.57813 22.848064
-38.255653 52.768147 23.912254
-38.169685 52.733273 24.716265
-37.96765 52.84156 25.08936
-37.265526 26.982384 24.911785
-37.321693 26.708252 25.607111
-37.27781 26.907612 26.338419
-36.874046 27.096348 26.926882
-36.846027 27.551878 24.09363
-37.355537 27.4029 24.695488
-37.49228 27.557228 26.525074
-37.070274 27.405024 26.932295
-36.850674 28.481945 24.213861
-37.534557 28.33822 25.011608
-37.537247 28.670296 25.571968
-37.455368 28.379734 26.509502
-37.082714 28.349947 26.953156
-36.84822 28.870731 24.666075
-37.06548 29.298428 25.636799
-37.07304 29.307589 26.210289
-36.9176 29.028688 26.7793
-36.63601 32.949543 17.688555
-37.046646 33.1818 18.317505
-37.278473 33.771145 17.93247
-37.35369 33.67055 18.240839
-37.516705 33.94127 19.204203
-37.509804 34.375214 21.507
-37.164814 34.351242 22.911762
-37.59793 35.24194 17.041706
-37.499477 34.341835 19.541674
-37.136467 34.753197 23.690468
-37.278763 34.83621 23.82467
-37.35577 36.143505 16.302227
-37.344406 35.387115 16.653114
-37.567844 36.49432 16.280365
-37.41069 36.866913 25.124813
-37.027077 37.057064 26.51185
-37.09659 38.289497 10.527518
-36.97525 38.22761 11.1474285
-37.447674 37.53365 16.113117
-37.465908 37.618958 25.053099
-37.309494 37.568077 26.537241
-37.032215 37.55741 27.103857
-37.063404 38.569153 9.108153
-37.174942 38.48113 9.746591
-37.464535 38.547707 10.641096
-37.42505 38.68965 11.254743
-36.916767 38.300304 16.152872
-37.503983 38.268997 16.626514
-37.333492 38.409046 25.018532
-37.350914 38.16296 26.714828
-37.1985 38.288605 27.02199
-36.604004 40.12252 5.5406375
-37.44835 39.367027 8.91574
-37.384888 39.8484 11.986226
-36.67284 39.7699 13.084841
-37.648335 39.594795 17.751488
-36.955715 39.584682 25.440823
-36.79954 39.034996 27.039404
-36.614952 40.917877 5.1592436
-36.681183 40.623997 5.4957733
-36.82992 40.633793 6.207166
-36.94478 40.410656 8.50933
-37.23668 40.59748 12.283808
-37.30198 40.485886 23.987
-37.079044 40.80788 25.5881
-37.109493 40.503757 26.417936
-36.983395 40.835228 27.136765
-36.71514 41.222908 5.4959393
-37.058407 41.144707 8.901538
-37.54435 41.34712 9.465675
-37.591644 41.529396 11.232185
-37.09418 41.51069 12.206945
-36.698586 41.7169 12.981138
-36.596577 41.730713 17.82988
-37.497128 41.22058 21.873306
-37.362694 42.071465 22.71473
-37.44954 41.366905 26.66862
-37.215633 41.651413 27.388435
-36.868706 41.64744 27.86028
-36.991444 42.17356 8.783362
-37.389503 41.811188 9.718215
-37.483604 41.816605 10.256789
-37.28458 41.852245 11.258536
-36.913517 42.0071 12.321253
-36.693756 42.24299 18.730711
-36.85272 42.867382 19.773602
-37.218506 42.43527 20.484121
-37.3646 42.23208 21.33154
-37.34668 42.196457 27.264364
-36.802917 42.68299 28.03784
-36.75052 44.153015 7.0249157
-37.14578 43.84864 7.7856884
-37.43484 43.678944 8.751255
-37.434532 43.60438 9.399414
-36.98931 43.55184 10.6375065
-36.85155 43.888752 10.717285
[...]
POINT_DATA 7766
SCALARS features_00 float 1
LOOKUP_TABLE default
0.59419674 0.5631943 0.69068384 0.68778545 0.6989943 0.6886449 0.6626721 0.69011617 0.715379 0.68149066 0.62971795 0.619427 0.6985984 0.6755431 0.6412297 0.4933238 0.5989092 0.581277 0.6041228 0.6229611 0.61949515 0.4324713 0.5063517 0.5503029 0.5728191 0.58847296 0.4347418 0.4572425 0.5192875 0.54334486 0.546161 0.5325831 0.4095083 0.6031003 0.5855187 0.50107306 0.6382886 0.5908258 0.51917803 0.6306274 0.70495915 0.73272514 0.6096575 0.7308868 0.7531798 0.71096253 0.41961184 0.58960533 0.67955804 0.7160001 0.68543106 0.5706748 0.6151093 0.6275741 0.5735637 0.42420793 0.52758396 0.46285158 0.48195308 0.5909757 0.6434717 0.6027286 0.5440072 0.5758561 0.6610614 0.5986169 0.51154613 0.41881335 0.58650845 0.41183054 0.58819366 0.23128942 0.54348636 0.39266458 0.44176722 0.5155322 0.5008709 0.3653762 0.31313777 0.5808282 0.39998955 0.64483625 0.6667917 0.42447174 0.6916337 0.67966807 0.6200942 0.517523 0.4862699 0.64159083 0.58836496 0.53938484 0.32429624 0.5474515 0.6216794 0.67179114 0.634987 0.27457863 0.34148937 0.45827615 0.66165376 0.57787377 0.29941005 0.24850859 0.2543002 0.44679767 0.33021683 0.30240712 0.34142402 0.47017643 0.33228433 0.32427293 0.34750542 0.3999148 0.4110424 0.37008786 0.3342504 0.3416152 0.313044 0.288099 0.4648039 0.40227526 0.33994228 0.094040185 0.32682744 0.44330207 0.1261079 0.1466138 0.060716663 0.43649584 0.20043486 0.34108436 0.41454765 0.24802871 0.20692408 0.5300616 0.21850115 0.5105827 0.59386086 0.34623826 0.65957725 0.47800854 0.43483245 0.64131224 0.59292763 0.5403978 0.47626275 0.48407856 0.46087846 0.5018543 0.47017792 0.9671801 0.9115506 0.9389764 0.94474554 0.89629656 0.8846369 0.19107056 0.28637904 0.27391618 0.20237279 0.5264702 0.5511667 0.52483547 0.33099622 0.30869693 0.24311888 0.17093788 0.41211754 0.35259444 0.3294931 0.28064325 0.35473114 0.3353695 0.16636327 0.20023894 0.5479548 0.54852974 0.5451044 0.3408423 0.33658108 0.28953812 0.24273081 0.15799513 0.5264938 0.5828787 0.6069267 0.5699962 0.4892239 0.34641755 0.33857852 0.19368348 0.22254609 0.24684495 0.27372676 0.47270042 0.5407381 0.5834196 0.5204651 0.47074068 0.31919807 0.019345205 0.46563315 0.50896657 0.5167948 -0.065654755 -0.07477368 0.16037235 0.19603473 -0.04412 0.29423296 0.289665 0.15739743 0.064566836 0.3712266 -0.03187199 0.08096472 0.07107608 -0.06261696 0.11618418 0.13124615 0.38283116 0.28533632 0.13974196 0.080671415 0.47864068 0.44067156 0.33383685 0.5201235 0.38464686 0.5273246 0.48930728 0.43663967 0.43915567 0.43309283 0.38965076 0.39421427 0.38299918 0.9179099 0.99964666 1.0 0.98674804 0.74938226 0.87924945 0.948861 0.96797925 0.7042551 0.84642965 0.83616203 0.8747211 0.8793573 0.7204854 0.7353348 0.7447637 0.7904877 0.23999691 0.20965615 0.22040756 0.21710397 0.18302658 0.3480986 0.3620734 0.2834672 0.15781482 0.3386101 0.3508812 0.2968458 0.2675322 0.32923844 0.1252691 0.32635874 0.42050928 0.38857317 0.3200117 0.11252496 0.28781468 0.40067863 0.405011 0.4407854 0.4845087 0.4948122 0.23590797 0.3142345 0.03878654 0.28156716 0.33175582 0.30892688 0.48040146 0.45027304 0.25674918 0.30933306 0.05563181 0.29204446 0.35123724 0.32387275 0.25629157 0.3206144 0.36146483 -0.15861209 -0.014228359 0.1276854 0.21648695 0.3173089 0.30688083 0.38824373 0.41499093 0.30372348 0.190108 -0.07663677 -0.1538116 -0.10901755 0.11486082 0.22655629 0.2742418 0.12860616 0.32902515 0.37385225 0.3292461 0.21204427 -0.061676927 0.021066092 0.01921617 -0.014226468 0.20772713 0.28024846 0.4656583 0.41345122 0.35771185 0.34353042 0.25636172 0.28478435 -0.0361112 0.0065349657 0.008416861 -0.014180351 0.3531828 0.5309584 0.5297916 0.49111572 0.48318917 0.4073921 0.32669488 -0.043625124 0.330235 0.4828465 0.5634427 0.5609251 0.5397985 0.5057765 0.39200002 0.4102484 0.554752 0.5162628 -0.21178642 -0.18962824 0.27545035 0.35886097 0.3977555 0.30851388 0.22806281 0.21392298 0.4336326 0.22884756 0.014515623 -0.12698665 0.0083924085 0.3427047 0.22505358 0.023141444 0.25386027 0.11165585 0.30671865 0.2665139 0.3902128 0.30965966 0.32900256 0.41630322 0.41557434 0.28235462 0.29519975 0.30098593 0.34620798 0.39618683 0.40461254 0.7260138 0.8516313 0.8914256 0.6842531 0.7875776 0.9021111 0.94373596 0.61843145 0.9302807 0.4900001 0.8771986 0.60157055 0.7024992 0.7160492 0.11227601 0.19941375 0.42136115 0.58041835 0.30545318 0.22648054 0.0101585 0.21779664 0.32678545 0.29876155 0.27598926 0.22035795 0.09761788 -0.08414337 0.02214554 0.29160467 0.2688304 0.23026173 -0.02825427 0.21615419 0.11139807 0.044588104 0.25523758 0.33365723 0.46377707 0.47424442 0.23538646 0.2317883 0.25030628 0.30470157 0.3053021 0.3110811 -0.017134659 0.031038288 0.4616791 0.25189942 0.21498872 0.1917058 0.29447854 0.39967304 0.028334007 0.44758856 0.30688375 0.16142662 -0.16564152 0.34276566 0.41967988 0.36915034 -0.049073614 -0.22974043 0.26786536 0.4388268 0.120137125 -0.10569587 -0.06940789 0.28398317 0.4379099 0.3954403 -0.036460917 0.124785505 -0.017304694 -0.04538311 -0.046537917 0.4379844 0.3780738 0.10993145 0.15930307 0.14757231 0.038225774 -0.031947657 0.40856165 0.4843331 0.2424896 0.2134555 0.19429839 0.1496547 0.06258459 -0.08814886 0.5070452 0.5434378 0.40479887 0.20643455 0.18027708 0.12878345 0.043313418 0.0537359 -0.23977347 0.4453035 0.569009 0.55390215 0.51007503 0.46244907 0.40579116 0.29992285 0.2916341 0.04744352 0.34207454 0.39926767 0.50658506 0.47056675 0.44578177 0.41380292 0.3186461 0.36175376 0.47943324 0.46241874 -0.05635976 0.18232861 0.27615836 0.44762415 0.44830364 0.37898165 0.09504511 0.3594295 0.31307265 0.22282036 0.28321183 0.21634021 0.30750796 0.3154957 0.2521032 0.25628936 0.3875921 0.36822492 0.24526414 0.24512596 0.26752412 0.2688763 0.28661156 0.34981513 0.38383502 0.24804182 0.25807384 0.7154691 0.7165861 0.76239544 0.627812 0.6404108 0.8162968 0.8548491 0.49495864 0.5710329 0.8211103 0.7946832 0.08897902 0.18150908 0.29608423 0.5715479 0.33438033 0.2671533 0.07016779 0.38623244 0.35778266 0.29401022 0.22627527 -0.0049227476 -0.058126286 -0.028637286 0.23777005 0.38615334 0.36128032 0.008426309 -0.087685525 0.027338266 0.35770747 0.32814863 -0.07497058 -0.0036515892 0.24858655 0.26286942 -0.04222697 0.10955487 0.06522592 0.27519974 0.33202565 0.2812358 0.27125007 0.23882455 0.22625245 0.21095775 0.17488721 -0.09243056 -0.10337244 0.4146356 0.38287824 0.27356362 0.26946625 0.23461413 -0.0045475177 -0.037192278 0.41602266 0.37838155 0.37162456 0.34226167 0.22398144 0.39865166 0.1542995 0.44419938 0.20869248 0.4552305 0.44891936 0.24431299 0.47049183 0.012286819 0.2365956 0.32654738 0.44941497 0.32249433 0.18365863 0.46584815 0.40831068 0.23568127 0.2063836 0.19223346 0.47539216 0.51715726 0.39213437 0.31161034 0.14983663 0.41949695 0.54544044 0.5597068 0.49666196 0.48132265 0.4224975 0.34262013 0.36680657 0.5418544 0.4523882 0.18119848 0.29642564 0.3457319 0.37521195 0.37417954 0.08569605 0.5176371 0.3264288 0.30125678 0.20672278 0.523378 0.5315475 0.2786353 0.26970783 0.29398715 0.5859156 0.58950996 0.5122122 0.44252935 0.2215433 0.34447455 0.6584405 0.7162755 0.7047581 0.5981749 0.57355905 0.22436541 0.202657 0.22198841 0.38058466 0.7887035 0.7776902 0.72193885 0.6197046 0.2542517 0.32054186 0.35231993 0.83556986 0.8300621 0.63076675 0.51253474 0.5537021 0.6260383 0.610216 0.70089406 0.7326541 0.43532103 0.73117095 0.17849906 0.27290708 0.570374 0.15747237 0.4647532 0.37770337 0.34837443 0.29447258 0.22812065 0.31329978 0.40648812 0.39487708 0.38322425 0.2644073 0.41628867 0.40255463 0.37052196 0.38321367 0.17288584 0.24207005 0.3214295 0.30281574 0.1263841 0.19979666 0.31763327 0.31385285 0.2972839 0.24718438 0.17229258 0.17050895 0.20907484 0.3108413 0.30619678 0.3104949 0.28668922 0.25727996 0.1045549 0.09509733 -0.18397674 0.2739452 0.29129538 0.25721717 0.26131225 0.28898233 0.40403914 0.37338978 -0.054300018 0.43946183 0.06762586 0.47235185 0.062485028 0.08381904 0.5142182 0.17600065 0.2519681 0.52671075 0.520664 0.09633856 0.4879993 0.16582534 0.19471052 0.45658588 0.24173568 0.17454302 -0.19153994 0.1743258 0.4014082 0.42189944 0.34576303 0.38737375 0.49926466 0.3050502 0.26468605 0.34420073 0.4089185 0.4238901 0.33687997 0.25095627 -0.15266848 0.115156256 0.491096 0.4728149 0.33290082 0.25238994 0.2377887 0.18495294 -0.0015524551 0.5145829 0.32296693 0.2510771 0.24809463 0.16601211 0.16775858 0.5415721 0.37817204 0.19486175 0.161339 0.27644408 0.6677192 0.49298388 0.16994032 0.068032146 0.36222222 0.79068863 0.62849724 0.024125082 0.23848575 0.27070525 0.31431305 0.838828 0.85617864 0.85791934 0.81542826 0.7267793 0.23066919 0.2758969 0.8675986 0.8774512 0.88815403 0.88177335 0.50131994 0.5467932 0.530769 0.5699023 0.25234872 0.6159215 0.37655813 0.3464089 0.31422782 0.5334681 0.30080658 0.39306486 0.34174782 0.31432086 0.2622475 0.4015211 0.36821896 0.37538424 0.1811178 0.22231792 0.38872954 0.41415393 0.3805194 0.24675025 0.31168544 0.34708032 0.43875587 0.33131635 0.2351833 0.2440852 0.4333713 0.31228745 0.3264386 0.28686178 0.26907733 0.17031428 0.083966345 0.14434466 0.3002621 0.020062737 -0.14579648 0.21617934 0.50688946 0.32427362 0.5573863 0.4721159 -0.012363559 0.550228 0.5185949 -0.18850985 0.47501665 -0.12231216 0.4623797 0.02040622 0.45763272 0.46905196 0.070072055 0.503707 0.5060445 0.16470726 0.27902108 0.4869499 0.38632545 0.20635226 0.3640087 0.32043767 0.30172503 -0.1987217 -0.082399875 0.16432339 0.30029672 0.34926397 0.26269197 -0.03258133 0.0064064935 0.09703649 0.16772294 0.35102132 0.011243157 0.07739006 0.40679526 0.17356282 0.07974384 0.14044474 0.09785349 0.46763852 0.50117266 0.2379339 0.12826523 0.06434271 0.036687538 0.14850765 0.48552212 0.4926768 0.3225767 -0.14731495 0.23087423 0.51257 0.5868889 0.4513822 -0.12890543 0.32120615 0.72565174 0.5901288 0.5394532 -0.042971462 0.24768174 0.82702094 0.7099158 -0.040277895 0.10757512 0.22915447 0.22955902 0.8567282 0.8791368 0.9019963 0.89746004 0.8183662 0.407358 0.51080775 0.53542954 0.5093218 0.578975 0.5643054 0.5161401 0.50804603 0.52149296 0.55211157 0.4580922 0.4704086 0.4978209 0.5358654 0.56651616 0.4157461 0.53325844 0.5358171 0.3218066 0.29667836 0.104609594 0.38245243 0.38654885 0.35690182 0.3097093 0.49995044 0.5494073 0.083594136 0.52931154 0.55958694 0.33561936 0.35617542 0.33648163 0.2515779 0.068253145 0.48848712 0.50662005 0.3213458 -0.031499125 -0.2681545 -0.18633571 0.41274625 0.12511338 0.49156445 0.37640864 0.056147434 0.578602 0.53773916 -0.021674775 0.5995177 -0.08000039 0.5899776 -0.042537883 0.044736236 0.50824857 -0.16783684 0.46804368 0.45342356 0.43768418 0.45239392 0.43792492 0.34328386 0.26278305 0.4378912 -0.08727912 -0.04136975 0.05678808 0.013019979 -0.034149177 -0.21576786 -0.13076937 0.21904746 0.20264903 -0.17072412 -0.008542478 0.17363058 -0.28882295 -0.40959272 -0.2154309 -0.055191673 0.16365446 0.42439198 0.1072609 -0.17791325 -0.18626545 0.4641118 0.42700213 0.15926671 0.08224029 -0.044599984 -0.010958534 -0.04752098 0.039417654 0.6444975 0.49801803 0.266568 0.019389046 -0.054711428 0.631492 0.6715565 0.6986032 0.6632247 0.54885435 0.5246086 -0.19774133 -0.12869258 0.15614413 0.6196772 0.6833075 0.7036723 0.80041337 0.65926564 -0.069801405 0.20316997 0.669464 0.8422204 0.8461399 0.88240796 0.8799851 0.14822969 0.36472386 0.3856675 0.48696256 0.52976805 0.48816162 0.5499384 0.5903351 0.56425273 0.5840205 0.46780902 0.49724454 0.50075245 0.39559 0.36131743 0.42850462 0.5219408 0.41448492 0.4400447 0.2795921 0.44631398 0.5081146 0.26437205 0.16716725 0.20641522 0.25066513 0.32045957 0.29663217 0.09306619 0.124331295 0.4608873 0.42584237 0.2874243 0.47658592 0.5517151 0.56075346 0.18264215 0.14070977 0.56298727 0.34437326 0.36524037 0.3726104 0.5090905 0.33940065 0.17787802 0.19870484 0.18834293 0.3599272 0.08157574 0.5888286 0.5561797 0.07354544 0.6123427 0.15022738 0.5870406 0.13779144 0.5084035 0.027861658 0.46421072 0.4401073 0.07690023 0.39652234 0.35299045 0.360035 0.28455597 0.29619065 0.44365755 -0.2517922 0.45197773 0.34961623 0.3651337 0.19320123 0.27821025 0.2466085 0.08515492 0.05881099 0.20334831 -0.402282 0.08629198 0.1324557 0.19539656 0.46523723 0.54660106 0.57168436 0.5910556 0.61084753 -0.3773408 -0.26367974 0.08635068 0.28181928 0.52774364 0.5821192 0.61446106 0.6225015 0.40304053 -0.05039572 0.42077094 0.59413034 0.6795724 0.7259721 0.54588616 0.40842792 -0.13025698 -0.013834517 0.08323956 0.062010653 -0.08547116 -0.13530287 0.4162914 0.57376456 0.7306905 0.67362 0.49087116 0.51579463 0.07935198 0.09225561 0.030846795 -0.14060429 0.18797697 0.56450343 0.6941917 0.7317694 0.7373879 0.7572931 0.79135644 0.7403667 0.080260664 0.07123908 -0.106857635 0.17749466 0.556218 0.69564116 0.7303324 0.82297397 0.83450246 0.058377955 -0.052366838 0.09249632 0.49520898 0.5358379 0.3372181 0.43032944 0.36699343 0.5410444 0.5916129 0.6227051 0.37244406 0.50524914 0.56937563 0.51431847 0.58886325 0.6258158 0.52713466 0.5568601 0.5555865 0.46188617 0.46780896 0.45307508 0.3791514 0.44120514 0.38375896 0.3293998 0.011796057 0.25906882 0.0035112202 0.1910196 -0.1963942 0.5886358 0.5691219 0.54613614 0.3562708 0.19123207 0.3281463 0.5088903 0.061328858 0.49191827 0.4122225 0.46438965 0.5198481 0.33238298 0.3650158 0.3748173 0.35643137 0.47018462 0.30440432 0.40737355 0.30477962 0.15384215 0.17082602 0.15358613 0.47903502 0.10889426 0.56085736 0.13209948 0.15234703 0.60982335 0.16606806 0.17418504 0.5698723 0.14741701 0.16881657 0.50235164 0.14018054 0.42026293 0.34197152 0.07867015 0.2128995 -0.060742475 -0.1842755 0.31088072 0.3430893 -0.08606917 0.37786597 0.41754633 0.45954168 0.45002133 -0.20119937 0.43006447 0.4082935 0.23089895 0.33989415 0.3846479 0.30294102 0.26212764 0.5569475 0.39203316 0.36382788 0.33064783 0.23958378 0.40856218 0.5403027 0.57004106 0.5846536 0.5983734 0.26831532 0.21717149 0.10619394 0.24975443 0.59534335 0.60444015 0.28926027 -0.31930465 -0.25881582 0.03738843 -0.055326052 -0.056516152 0.18506221 0.6146057 0.3349586 -0.31092522 -0.34884188 -0.13838486 -0.10998595 0.061315976 0.121678844 0.12321254 0.6849714 0.39867213 -0.16486867 -0.115158826 -0.163167 0.07069938 0.15274976 0.25041226 0.68704814 0.45188633 0.34037387 0.2768917 0.16523784 -0.036579847 -0.049770758 0.044557925 0.704434 0.68213713 0.37000167 0.19933335 0.1394643 0.022482324 0.054407276 -0.038706623 0.22626391 0.36707044 0.7010802 0.07707225 0.06869019 0.020497635 -0.12758094 0.048267365 0.055646554 0.36713043 0.42740077 0.43112034 0.49681252 0.6518384 0.20064259 0.47157618 0.59052867 0.6428984 0.6618523 0.46433464 0.6259855 0.64861023 0.5532863 0.6490388 0.72719026 0.72562236 0.748796 0.35657063 0.3988066 0.4142375 0.29586434 0.10760506 0.27595297 0.34201846 0.36481145 0.6451992 0.6357451 0.299891 0.31608635 0.3005724 0.29739147 0.63475925 0.6241758 0.60840154 0.5935271 0.23534207 0.1500361 0.6030045 -0.067662865 -0.13363132 0.19793992 0.38186175 0.27310708 0.38877648 0.35699284 0.3836659 0.38694543 0.3137138 0.16942228 0.36127186 0.31580967 0.20129803 0.26688427 0.27081934 0.45099127 0.37114677 0.087906666 0.5495313 0.5141288 0.1346126 0.11870286 0.5683091 0.5318343 0.17442383 0.5405031 0.5191783 0.16113698 0.448861 0.37051016 -0.009423634 0.13631245 0.19423684 -0.22401412 0.21737868 0.27083746 0.33503154 0.036312632 0.37844086 0.39073062 0.41000736 0.08598625 0.37528938 0.307047 0.4334096 0.3818444 0.48690134 0.5461878 0.5888613 0.61551565 0.41437703 0.62359405 0.6242143 0.4147725 0.30808082 0.6064995 0.21151789 -0.33566466 0.5848074 -0.19329627 -0.29719812 -0.10491497 0.5901326 0.014577789 0.5055883 0.5989678 0.27339986 -0.09938815 0.011169378 0.61500514 0.60314643 0.39886433 0.19089939 0.58363885 0.415215 0.31057778 0.16915615 0.10799672 0.068717085 0.037522085 0.06113199 -0.107214615 -0.025016524 0.21871397 0.39845923 0.5585963 0.18771964 0.18340872 0.06138452 0.05248355 -0.079762496 0.017944142 0.26033866 0.24231306 0.21083537 0.19600558 0.12756711 0.07528448 0.06024071 0.16717494 0.100410216 0.10361549 0.14960304 0.6229198 0.16110499 0.1553061 0.19916366 0.19636518 0.19733167 0.22295542 0.25422817 0.26754546 0.2916488 0.41517192 0.5237673 0.65791035 0.6406437 0.3310545 0.41078162 0.38971138 0.5923978 0.63987756 0.7326633 0.7340106 0.7376209 0.7307873 0.7537509 0.7527178 0.74703187 0.7492411 0.75279415 0.3113371 0.38819444 0.38733673 0.35308784 0.19319353 0.09578499 0.2931151 0.39005798 0.4019236 0.37607867 0.66427207 0.6790553 0.6653037 0.64222634 0.26865515 0.119045086 0.34721172 0.2721301 0.65773237 0.6653143 0.61498356 0.44695514 0.16185135 0.17156054 0.58939695 0.021274827 0.3787123 0.33319315 0.1222083 0.04054533 0.34402138 0.3561561 -0.12972403 0.42151105 0.36398268 0.27539793 0.018868074 0.45818925 0.40945125 0.06801116 0.4866928 0.063986555 0.4458291 0.3954172 0.09448015 0.4050056 0.36090064 0.27745402 -0.04592496 0.1121311 0.18545225 0.14248216 0.17171147 0.2871237 0.21603893 0.25625083 0.16894022 0.29555482 0.3763355 0.27704725 0.4350922 0.3841222 0.53977036 0.5745648 0.60844076 0.4731142 0.4410639 0.6093464 0.6091851 0.44966286 0.39423114 0.595949 0.27904427 0.17259002 0.520189 -0.10478076 0.44097996 0.14174387 0.44442904 0.270338 0.41964108 0.3157766 0.33205718 0.33791536 0.38406414 0.39635366 0.2879724 0.30470994 0.21741131 0.2203204 0.24593164 0.30421764 0.2857098 0.18362813 0.47966704 0.31783423 0.26269305 0.21407473 0.15677509 0.19818142 0.32431537 -0.07188311 0.18747249 0.37631094 0.29976946 0.34970796 0.44232273 0.40490735 0.60294974 0.4410006 0.49061012 0.5287562 0.5155864 0.64672065 0.72054183 0.73973465 0.7397099 0.73590416 0.7382132 0.741668 0.40747708 0.40179384 0.35215643 0.2303751 0.22578442 0.23192781 0.40263048 0.36435258 0.68422866 0.68136126 -0.01602606 0.17131832 0.32198352 0.2840176 0.633916 0.65669805 0.6102594 0.49314818 -0.1089615 0.20895666 0.4686519 0.51676774 -0.05005534 0.10925406 0.28739506 0.37548727 0.038911756 -0.017801225 0.054564767 -0.08301464 0.34602842 0.3677074 0.2573588 0.24226165 -0.067787915 0.6247849 0.65933204 0.31055713 0.33339924 0.6416069 0.6644352 0.31147006 0.5770327 0.6190145 0.34092742 0.31024683 -0.10758624 0.3930919 0.46293104 0.36545548 0.31434187 -0.1411236 0.33900672 0.2966169 -0.20244102 0.22075732 0.18265228 -0.41136917 -0.428853 -0.49882752 -0.014538728 0.26237547 -0.07927217 0.01690001 0.15690242 0.27197862 0.08008143 0.28857478 0.031634036 0.017319389 0.027622117 0.37120247 0.12379874 0.4809224 0.49501735 0.5829897 0.49198523 0.5182431 0.55849457 0.46228462 0.42868716 0.49533212 0.346322 0.2706283 -0.069839925 0.4387809 0.43944502 -0.0069711916 0.33093357 0.15973529 0.33148825 0.20560458 0.28787726 0.23048352 0.3228802 0.33326748 0.19146177 0.35400513 0.17072451 0.27493128 0.30887908 0.32938313 0.35690856 0.33819535 0.34973237 0.33629394 0.2989696 0.21381792 0.3354159 0.4166019 0.41080236 0.29539242 0.14194866 0.29345566 0.4104351 0.49930686 0.26203096 0.43093824 0.4413725 0.50175107 0.5535188 0.5717416 0.54908663 0.5187506 0.5831876 0.6248491 0.6735176 0.69187975 0.64377177 0.6980679 0.7189789 0.7133603 0.3893248 0.35760927 0.28574765 0.029114064 0.08197425 0.27469358 0.37901163 0.39122424 0.3595638 -0.01573072 0.012883883 0.30375323 0.22575909 0.53242666 0.5810832 0.6383697 0.09590006 0.053445354 0.18273929 0.44747725 0.4254312 0.361009 0.123420134 0.22879156 0.28023207 0.025410254 0.042925626 -0.0082879085 -0.027070496 0.38040948 0.38990974 0.30269426 0.003454551 -0.019303076 0.42292866 0.5933268 0.64228964 0.6547899 0.35566145 0.39193887 -0.036550365 0.40087324 0.6717198 0.6509819 0.3402415 -0.20439366 0.33141893 0.59485245 0.53902054 0.300069 0.3202843 0.4647246 0.45151186 0.41986614 0.31692138 0.29311463 0.2652795 -0.23473437 0.15644069 0.26549894 0.31510085 0.2710842 0.14805561 -0.052182376 0.1079517 0.24531619 0.29294825 0.16248502 -0.28854996 0.122442305 0.29729888 0.38482827 0.001422815 0.26705155 0.34623888 0.25691414 0.20585765 0.26577663 0.24820597 0.17545533 0.21553071 0.24273969 0.01456058 0.17703414 0.3235172 0.19387071 0.4621343 0.47774795 0.44111094 0.4817922 0.44880927 0.41337323 0.371186 0.39281163 0.34078526 0.30075538 0.18419331 0.367748