# vtk DataFile Version 2.0
Really cool data
ASCII
DATASET POLYDATA
POINTS 3054 float
-33.723217 45.175488 26.404863
-33.85751 45.77369 25.814562
-33.881516 45.51277 26.509037
-33.77077 45.62374 27.197624
-33.77502 46.256943 25.215475
-33.964424 46.24106 25.656363
-34.050694 46.39705 26.38341
-33.6916 47.139343 25.221928
-33.851624 47.213726 25.652563
-33.781937 47.557602 26.338247
-33.65952 47.787346 26.037928
-33.131336 44.961636 25.818188
-33.120712 44.771408 26.626747
-33.319122 45.053406 27.297308
-32.850105 45.103035 27.993055
-33.073406 45.747524 24.885515
-33.545803 45.478844 25.441107
-33.603058 45.2889 27.280542
-33.543304 45.94296 27.70389
-33.266262 46.61499 24.73126
-33.37873 46.128017 28.100567
-33.434147 47.30275 25.047537
-33.481373 47.41583 27.535715
-33.1629 47.692875 28.044344
-33.109856 47.768093 25.061275
-33.02952 48.192085 25.655819
-33.202507 48.283775 26.861223
-32.912655 48.520683 27.576338
-33.129097 47.96039 28.00258
-32.82533 48.70868 26.851908
-32.78634 48.84787 27.354206
-32.571484 45.200233 24.971745
-32.51821 44.597095 26.457714
-32.853508 44.68635 27.190033
-32.388794 44.999588 28.408672
-32.028324 45.094456 29.117853
-32.71225 45.431755 24.876444
-32.60308 45.58774 28.517452
-32.241028 45.62943 29.289762
-31.908684 45.800808 29.69507
-32.46942 46.699707 24.558975
-31.984715 46.82906 29.519331
-32.283535 47.151997 24.499609
-32.443985 47.145412 29.019512
-31.77629 46.935925 29.69373
-32.27823 48.711773 24.885292
-32.43231 48.402714 28.457949
-32.34518 48.233776 28.733213
-32.233105 49.3043 25.89262
-32.160976 49.330505 26.462702
-32.671227 48.90272 27.0484
-32.47853 48.71555 28.057676
-31.79211 49.657284 26.408295
-31.696114 44.992332 25.18527
-31.625345 44.67204 28.725641
-31.284536 44.818638 29.207752
-31.218943 45.216125 29.686832
-31.421688 45.559128 29.803288
-31.283749 46.303017 30.00084
-31.402763 47.922874 24.25699
-31.175735 47.60906 29.981565
-30.745354 48.29386 23.408655
-31.150717 48.46988 29.863924
-31.128628 49.154835 28.703947
-30.80179 48.857765 29.870518
-31.397985 49.732975 25.582214
-30.98119 44.672516 28.360884
-30.601894 45.055927 29.39109
-30.613165 45.797916 29.924364
-29.87838 47.392612 22.463696
-29.78983 47.40187 23.467289
-30.70436 46.71807 30.171589
-29.971075 47.96031 21.845879
-30.303337 47.843613 22.28523
-30.34316 47.728863 30.316366
-30.084618 48.367863 21.803953
-30.463816 48.34946 22.280226
-30.275366 48.502617 30.311224
-29.964437 49.116894 21.676819
-30.036842 49.53133 22.211315
-30.287876 48.885258 30.163544
-29.640747 50.279827 21.970587
-29.717388 50.241833 22.404844
-29.684616 50.125587 23.277052
-30.716152 49.945972 26.30415
-28.590334 42.08397 22.949362
-28.824963 42.12036 23.723234
-28.836098 41.76476 24.521162
-28.773233 41.619267 25.092304
-28.725494 42.509613 22.897026
-29.02481 42.396275 23.820206
-29.152618 42.34252 24.608675
-28.854977 42.76634 25.688204
-28.905313 43.774837 23.51865
-29.302258 43.4518 24.683393
-29.108826 43.13349 25.274841
-29.098625 45.18782 24.992908
-29.604824 45.51207 29.101295
-29.478638 45.72275 29.659388
-29.429651 47.000305 23.412836
-29.613943 46.938473 30.308588
-29.294771 48.135548 21.234474
-29.607069 47.78723 21.672018
-29.316065 47.226196 30.42062
-29.402727 48.557922 21.204773
-29.627748 48.473198 30.423948
-29.435707 49.051823 30.28451
-28.811762 50.61625 21.147741
-29.367773 50.37618 21.52571
-29.139233 50.608723 23.240622
-29.190548 50.745106 21.70916
-27.884918 40.692635 24.740204
-28.190132 41.17862 25.48865
-28.068295 41.173195 25.97333
-27.862068 42.1833 22.084635
-28.311022 41.306343 25.745018
-27.942327 42.566513 22.071995
-28.429127 42.556046 22.42036
-28.50844 42.2454 26.166674
-28.328518 43.044823 22.309206
-28.217215 43.48105 22.590017
-28.626352 43.774197 23.291752
-28.421955 43.824417 23.052807
-28.675278 45.045704 27.988688
-28.191174 46.913063 30.27922
-28.278496 47.909874 21.17598
-28.250633 47.67935 30.617893
-28.509333 48.579723 20.82236
-28.703861 48.202118 30.63177
-28.474674 49.537537 20.63115
-28.483389 50.1788 20.838434
-28.603529 50.912292 21.254541
-27.96462 51.41999 21.682125
-28.57372 51.363117 22.210554
-28.253054 51.09073 24.18317
-27.834126 51.508747 28.945938
-28.013933 52.66154 26.704212
-27.82895 52.20435 28.920107
-28.086636 52.96475 27.1807
-27.745005 53.07076 28.736216
-28.10379 54.80491 27.430489
-27.707853 54.780094 28.218872
-27.887236 55.45585 26.59188
-27.990389 55.4584 27.446915
-27.832994 55.38039 28.013456
-27.701742 56.174664 26.765118
-27.7582 56.167908 27.318752
-27.771845 55.91947 27.803787
-26.622843 31.252205 24.540525
-26.627153 31.430449 24.092411
-26.745262 31.6586 24.644594
-26.68166 31.647284 25.157467
-26.611565 32.423965 23.611029
-26.795801 32.280994 24.50388
-26.666523 32.384014 25.234737
-26.695215 32.920006 24.973116
-27.011541 37.790405 24.483007
-26.886658 37.64399 25.183983
-26.766855 37.67109 26.321915
-26.576122 37.691727 27.6048
-26.62542 38.059406 28.429274
-27.231865 38.320934 25.764458
-27.456367 39.04575 26.044294
-27.143612 39.3696 27.351501
-26.96687 39.274517 28.201218
-27.081572 41.33865 22.7754
-27.285769 41.55971 27.513973
-27.653688 42.60936 21.939352
-27.630579 42.92273 21.97305
-27.587072 43.903107 27.308834
-27.441565 43.78923 22.4835
-27.018133 44.98612 23.345524
-27.611294 45.63591 23.94621
-27.529572 45.607594 28.690323
-27.732033 45.89399 29.221329
-27.449583 47.897 21.205557
-27.630827 47.341312 30.424866
-27.523346 47.824257 30.654993
-27.518017 48.702206 20.657297
-27.530746 48.452427 30.685812
-27.803516 49.63003 20.503222
-27.444313 49.703014 30.284536
-27.262812 49.280426 30.570942
-27.292326 50.52962 20.648438
-27.05679 50.68583 29.903612
-26.913479 51.521473 20.794003
-27.34989 52.04268 22.855183
-27.60281 52.787838 29.005913
-26.915133 53.801414 22.867355
-26.966352 53.05815 23.116789
-27.135986 53.00964 29.503002
-26.807716 54.565147 21.694202
-27.049316 54.532192 22.56317
-27.013338 54.151337 23.253548
-27.009703 54.60952 29.212626
-26.782051 55.27087 21.931528
-26.915588 55.25639 22.461128
-27.454535 55.48833 28.53226
-27.221039 54.976345 28.958866
-26.622059 56.13044 22.76051
-27.393578 56.483074 26.750965
-27.5663 56.349213 27.479567
-27.334978 56.08637 28.231089
-27.285706 56.629005 26.894812
-27.18534 56.61108 27.562815
-26.394815 31.191128 23.9135
-26.289156 30.95427 24.472786
-26.227144 31.173445 25.333221
-26.233952 31.788273 23.073685
-26.484064 31.787294 23.757242
-26.580902 31.316593 24.336159
-26.422499 31.478144 25.369694
-26.208336 31.869675 25.759342
-25.689325 32.266045 22.311817
-26.111134 32.357227 22.748365
-26.514786 32.519875 23.577276
-26.446165 32.51466 25.523228
-26.271156 32.3674 25.786999
-26.099827 33.269554 22.912205
-26.51672 33.265995 23.748953
-25.982836 33.390076 25.585255
-26.250208 34.741093 23.657806
-26.107399 34.32265 24.404865
-25.71601 33.958008 25.38231
-26.151524 36.020653 22.488659
-26.22184 35.448868 24.158503
-25.784393 36.657124 20.529139
-26.399492 36.63719 23.307297
-26.152876 36.296597 24.959236
-25.878878 36.90979 26.553856
-26.016087 37.213463 27.597527
-25.743963 36.664696 28.636425
-26.041243 37.120342 29.748247
-25.798307 36.86805 30.03582
-25.648237 37.88522 19.783072
-25.992393 37.208992 20.606884
-26.239252 37.496937 21.846733
-26.363844 37.556164 27.695421
-26.237463 37.657646 29.2676
-25.835733 37.650917 30.368992
-25.593384 38.42589 19.768503
-26.350197 38.54996 29.336067
-26.053415 37.988842 30.040634
-25.782576 38.929413 21.303322
-26.23312 39.322617 29.182417
-26.585642 40.73869 28.351006
-26.310827 40.133686 28.776663
-26.808529 41.621483 22.536062
-26.717493 42.762455 22.017645
-26.675982 43.526043 22.350529
-26.854305 44.478542 27.730486
-26.483854 46.60199 29.341589
-26.375248 47.40159 30.175568
-27.116224 49.005077 20.625889
-26.727377 48.56694 30.625519
-26.54689 49.857864 20.663279
-26.373995 49.229324 30.426292
-26.868313 48.929066 30.644953
-26.435522 50.375183 30.113686
-26.314726 51.552414 20.670391
-26.071482 51.213722 30.022255
-26.175388 52.438877 21.043638
-26.089012 53.07857 20.9192
-26.779352 53.45947 29.620255
-26.235722 54.763004 21.09739
-26.432325 54.800568 29.525082
-26.168901 54.62345 29.623627
-26.42667 55.04862 21.268679
-26.348959 55.46807 21.622921
-26.442327 55.448097 29.352535
-26.073835 55.022224 29.615423
-26.422575 55.85358 21.949543
-26.438982 56.318676 22.781502
-26.493988 56.46789 23.262571
-26.351887 56.626366 24.46007
-26.114758 56.357338 28.681763
-26.322342 55.968338 29.061028
-25.975367 56.91766 22.819393
-26.074028 57.11601 23.752844
-26.125446 57.179855 24.17143
-26.775404 56.609947 26.487465
-26.511236 56.772026 27.42902
-26.367123 56.586037 28.157583
-24.970438 29.978952 23.19637
-25.146082 29.872463 23.622828
-25.036135 29.905785 24.32222
-25.287779 30.636982 22.950232
-25.316486 30.35231 23.233486
-25.52965 30.791904 25.322353
-25.29911 31.7315 25.9716
-25.272882 32.28708 21.96337
-25.703617 32.103935 26.02184
-25.359009 34.6511 22.078075
-25.05548 34.581676 25.497217
-25.366007 35.390057 21.678839
-25.414145 36.364643 26.882582
-25.205008 36.134026 29.178953
-24.993687 36.147778 30.341175
-25.412506 36.74206 19.965559
-25.43718 36.323536 20.311344
-25.416092 36.719776 30.475706
-25.201084 37.011333 30.903988
-24.888577 37.513187 18.978848
-25.386318 37.231422 19.560242
-25.294907 37.55185 30.893515
-25.068127 38.441067 18.962515
-25.46059 38.646404 19.670177
-25.494114 38.154755 30.587994
-25.192766 38.006172 30.852524
-24.850317 39.463623 19.076841
-25.23734 39.38661 19.514786
-25.244127 39.407112 20.978395
-25.220728 39.424393 21.461754
-25.0892 39.72157 19.841097
-24.965536 39.99967 21.589844
-25.047926 39.96118 22.59984
-25.329803 40.385845 29.14507
-25.541468 44.606945 23.148233
-26.050808 47.706345 30.096283
-25.731215 48.65545 30.168491
-25.687641 49.412617 21.093405
-25.705748 50.547443 20.62074
-25.614832 50.506615 30.140722
-25.278986 51.32994 20.481224
-25.722807 52.30814 29.880426
-25.434252 53.710632 20.675306
-25.192444 54.32578 20.776505
-25.46527 54.497475 29.719032
[...]
POINT_DATA 3054
SCALARS features_00 float 1
LOOKUP_TABLE default
0.69028634 0.7444034 0.6958798 0.6359409 0.73883784 0.7530023 0.761536 0.6991042 0.70187235 0.6295493 0.603439 0.7012237 0.63877845 0.59648263 0.5468757 0.7087405 0.73361933 0.61141455 0.6145072 0.6831275 0.60798883 0.6672295 0.5743611 0.4793071 0.6089307 0.54244685 0.48151633 0.436328 0.4482916 0.4563166 0.42808205 0.6966764 0.6273392 0.5621519 0.54152197 0.57023835 0.6974118 0.55934036 0.5788568 0.58306336 0.59785014 0.53230536 0.53607017 0.5369775 0.5111321 0.5106677 0.41911924 0.43367988 0.4466836 0.43571502 0.43596932 0.39921692 0.4043256 0.64328647 0.5467973 0.56780064 0.5777185 0.58081126 0.54156125 0.28105712 0.45308214 0.31935436 0.43492478 0.38551778 0.4094193 0.38547307 0.5129434 0.54398406 0.54125893 0.47031048 0.4313135 0.48305637 0.5407839 0.49678135 0.4175188 0.54955226 0.48124537 0.41711146 0.61592674 0.6168027 0.40817392 0.5841084 0.56383896 0.45440227 0.3339761 0.59787416 0.5643188 0.46364462 0.41385847 0.5873801 0.5644933 0.484172 0.4292872 0.53085375 0.5128102 0.4665308 0.2277345 0.3932475 0.40735966 0.4106642 0.41091162 0.57942945 0.52510273 0.39140916 0.60949004 0.40125743 0.3781498 0.5435243 0.57426393 0.41430938 0.5318973 0.315263 0.34517395 0.2941782 0.62178236 0.34429893 0.6056148 0.5920916 0.3594135 0.57710147 0.5507883 0.5259477 0.5183871 0.08374031 0.36053696 0.5525248 0.38635504 0.5977532 0.37941104 0.6094252 0.55953264 0.51814944 0.44987744 0.43326283 0.23815271 0.2938061 0.37982303 0.31482306 0.45594332 0.35423633 0.53723377 0.55185366 0.53496385 0.6002878 0.6230318 0.5776271 0.62567234 0.6383786 0.6703202 0.62188566 0.674216 0.7131454 0.54356825 0.6443087 0.7045287 0.6675768 0.04080485 0.04994987 0.115942046 0.23660219 0.36291692 0.10710205 0.1138589 0.26871783 0.38989654 0.6654799 0.20861977 0.6061106 0.5808986 -0.15895572 0.5014421 0.3471959 0.21613304 0.07027239 0.23302475 0.49221528 0.37992907 0.3833086 0.52013505 0.36254966 0.5169622 0.24526715 0.2860932 0.41836065 0.20953614 0.31580713 0.16041641 0.33089665 0.32002777 0.1947 0.31193805 0.49092013 0.45468682 0.2996167 0.5146742 0.5089295 0.49415293 0.65742576 0.5768003 0.49319994 0.5792278 0.6385 0.6815312 0.59442425 0.6481569 0.5981479 0.65744996 0.7302115 0.5121505 0.57561994 0.6494484 0.7285713 0.7327924 0.42480868 0.46104127 0.53391045 0.71279174 0.71699226 0.39938286 0.5153756 0.6409026 0.27384657 0.43663928 0.55839276 0.21697849 0.09393066 0.33133006 0.101578005 -0.037340015 0.14847 0.23309025 0.36858857 0.55061114 0.61095 0.48707467 0.37445533 0.38601515 0.2477849 0.47396284 0.64544255 0.5490306 0.47886413 0.5837024 0.48392633 0.5132599 0.41347787 0.4901821 0.6527698 0.5851369 0.4804103 -0.17570391 0.310081 0.37678388 0.45984012 0.3395477 0.3621546 0.26336607 0.31384075 0.20880377 0.25853246 0.18172194 0.23383102 0.23542932 0.3711232 0.45026794 0.5425393 0.51837516 0.48337492 0.49807984 0.63309765 0.56762683 0.50209403 0.49398172 0.4739771 0.39821404 0.6901039 0.689196 0.49906254 0.47658452 0.44996306 0.50205433 0.6025064 0.6776647 0.605323 0.6380235 0.68752337 0.5721296 0.60956055 0.7672478 0.7201097 0.37168792 0.7065134 0.19093074 0.4101906 0.19383985 0.23239622 0.5276899 0.71030843 0.39189687 0.32710713 0.69698983 0.7433516 0.5269572 0.4514886 0.73361117 0.60478425 0.5803659 0.6793988 0.7237043 0.67107445 0.6380992 0.5134095 0.44172156 0.62774837 0.37521452 0.2964118 0.54357725 0.23483 0.362831 0.28131202 0.22629735 0.2709012 0.19024 0.23680547 0.23651877 0.21896583 0.29263863 0.46384716 0.4539295 0.5840468 0.55450475 0.49686077 0.6086515 0.64491117 0.49858928 0.49801996 0.49515307 0.30867964 0.6052333 0.6126237 0.48573053 0.46295947 0.6484344 0.6103525 0.650118 0.6754255 0.64902925 0.6446793 0.6098089 0.29946643 0.5185617 0.17370215 0.58989507 0.6955591 0.37901464 0.28405115 0.7307825 0.7576945 0.7949015 0.6860552 0.6304321 0.77642024 0.703239 0.654441 0.69184697 0.71324944 0.6960844 0.47067717 0.6949768 0.6879635 0.44219294 0.47298348 0.1752029 0.06424659 0.10089501 0.081476435 0.28294444 0.10392646 0.111405686 0.1409589 0.21964718 0.22313866 0.1944968 0.459266 0.39468914 0.5348486 0.5264317 0.48280534 0.32570648 0.58807516 0.46632582 0.47507584 0.2505975 0.46825507 0.4700035 0.4419296 0.5973522 0.6495373 0.61910105 0.5459817 0.5187185 0.48114613 0.7292782 0.7525104 0.78905666 0.81022 0.7580682 0.78357315 0.77468985 0.81136775 0.8109509 0.77761745 0.7842896 0.5597122 0.6894485 0.76296365 0.731738 0.41005436 0.54991525 0.72271806 0.7088043 0.61379987 0.3146778 0.3973469 0.13702065 0.13178615 0.48879084 0.46734017 0.43322685 0.081382245 0.4402806 0.301453 0.3363315 0.28314626 0.32590675 0.26744854 0.27739897 0.24449 0.18444712 0.2072367 0.41051298 0.4044723 0.23788962 0.42734143 0.42668968 0.3645481 0.3161655 0.41805497 0.39688584 0.5794709 0.5541707 0.44482386 0.46791223 0.5077472 0.4576851 0.4860462 0.4676205 0.4110165 0.41586787 0.45702758 0.45637137 0.46596915 0.27763376 0.011220343 0.13490655 0.10622937 0.7805373 0.79947615 -0.025613911 0.7748418 0.82006776 0.817332 0.9232639 0.8169667 0.8877007 0.7390314 0.7997271 0.83797735 0.394813 0.59534794 0.7973242 0.7504393 0.7022741 0.4409722 0.174286 0.27874076 0.3832384 0.72017086 0.6185955 0.13512693 0.08132811 0.091128744 0.25824133 0.32039678 0.11540503 0.056366578 0.062656894 0.14159572 0.50183624 0.24385542 0.5144489 0.15297961 0.08551474 0.15479095 0.2699028 0.42553723 0.2846254 0.34984276 0.24387161 0.26700333 0.30432373 0.33034265 0.32259405 0.36316875 0.36375165 0.35535058 0.41827315 0.36032003 0.3666904 0.30849016 0.40469843 0.39096636 0.0040318742 0.40767455 0.43288243 0.42251486 0.4330916 0.4461695 0.4471565 0.45806533 0.49453467 0.4934641 0.45767504 0.034891836 0.82684314 0.9089926 0.8412122 0.8369752 0.82739174 0.8294754 0.7469413 0.8020021 0.8092842 0.88177705 0.8230239 0.29923373 0.35061246 0.64601314 0.737364 0.82208395 0.78692806 0.65453374 0.48511016 0.34780243 0.085109785 0.10441677 0.19366255 0.51148975 0.76999515 0.64890045 0.36798662 0.46250987 0.3319111 0.5259849 0.5580596 0.18482658 -0.0121411905 0.5242624 -0.18467855 0.50691414 0.47442642 0.19225408 0.5059048 0.45531633 0.25341305 0.3683609 0.3420315 0.34054023 0.31852835 0.388892 0.3002503 0.39672711 0.3677717 0.43274707 0.4567131 0.40359586 0.4224903 0.3857829 0.3090728 0.21348009 0.035201795 -0.022010315 0.3081915 -0.04198087 -0.047724646 0.38611734 0.48013824 0.5353407 0.13769227 0.5849497 -0.13006277 0.778555 0.7081918 -0.1387843 0.52496874 0.43367207 0.54737616 0.51834583 0.46909738 0.38459668 0.23711187 0.352188 0.40836704 0.4829055 0.4897611 0.51676315 0.5082072 0.75336576 0.7093334 0.60817015 0.74562544 0.6632384 0.60601604 0.68330586 0.4591917 0.3928426 0.3196681 0.4154673 0.27589497 0.32257318 0.22804368 0.14160469 0.23146969 0.210548 0.3956293 0.25355196 0.22826135 0.463165 0.5881474 0.508012 0.301622 0.40415588 0.68702203 0.42867923 0.33231702 0.14814384 0.71265143 0.6668847 0.54249555 0.53288156 0.4865964 0.5737623 0.5649648 0.59666604 0.5619731 0.5607634 0.51404476 0.55927706 0.65646493 0.6310959 0.44400334 0.6326959 0.59175444 0.4672683 0.55292 0.58951414 0.78331685 0.7194344 0.6769498 0.78052485 0.7835451 0.6989392 0.6097442 0.55671775 0.7310132 0.45997882 0.6037226 0.36839768 0.37820613 0.3532329 0.16819829 0.42778784 0.44527802 -0.027931241 0.43830675 0.3450715 0.4564616 0.09943863 0.22291173 0.65719426 0.5648926 0.6076988 0.8209208 0.81604886 0.7975235 0.46402925 0.7556273 0.7377052 0.32396418 0.7124464 0.48538464 0.44335836 0.6875113 0.54486895 0.5090337 0.40174913 0.56541634 0.6036649 0.5767159 0.6530357 0.14191745 0.7022084 0.6146612 0.60596967 0.75306463 0.7648338 0.7262691 0.7186655 0.6917263 0.55384576 0.6539973 0.6689904 0.560125 0.6184479 0.86371875 0.86403894 0.79809976 0.67436016 0.7894498 0.6182658 0.5332893 0.6961499 0.4515069 0.58566725 0.40893918 0.36866164 0.19119996 0.042079963 0.29452872 0.4950434 0.51654255 0.51839143 0.19939151 0.50353795 0.3521555 0.29694748 0.34062245 0.40129656 0.31581348 0.18606596 0.6285499 0.69188076 0.7059928 0.37866536 0.44973135 0.64592755 0.69248474 0.8856083 0.8605207 0.8133873 0.5897492 0.7982782 0.7629907 0.5465809 0.7530185 0.71832883 0.52810454 0.63620234 0.6748947 0.7072683 0.57654214 0.55975163 0.48926204 0.46717077 0.45499814 0.6996058 0.6266257 0.62664217 0.4195072 0.7431918 0.7988223 0.67162293 0.718187 0.7172824 0.8065455 0.8013754 0.74453586 0.6832527 0.6749563 0.69905627 0.72369003 0.6480781 0.68198466 0.6978127 0.8657764 0.9292648 0.8655336 0.69771206 0.77882004 0.8077255 0.54114413 0.729619 0.6464671 0.4603969 0.530082 0.3371358 0.38042232 0.43668568 0.48133945 0.51038384 0.53724486 0.33352292 0.55809784 0.36056054 0.35738257 0.54761255 0.353494 0.34893042 0.3391056 0.40652907 0.4499612 0.44736812 0.3862064 0.6399826 0.32549304 0.40805197 0.449019 0.4213088 0.79907703 0.85152894 0.86249495 0.8357761 0.8008938 0.81527233 0.8222508 0.7863902 0.7847589 0.7608672 0.76295537 0.7435354 0.69929665 0.6936649 0.71309423 0.6519321 0.6583305 0.77213216 0.7807677 0.7664734 0.7317725 0.8055724 0.8150486 0.77186096 0.7201488 0.8019323 0.7664745 0.8950715 0.9139496 0.8052622 0.8101518 0.8580233 0.7181815 0.56688213 0.7485055 0.7869036 0.45924187 0.6771622 0.39373145 0.29527682 0.35111663 -0.09136833 0.38563907 0.4365345 -0.034583688 0.50686294 0.54271036 0.3484714 0.31322053 0.56255007 0.5736704 0.3510751 0.3253665 0.47250706 0.3478129 0.031273313 0.41175458 0.4277624 0.45244074 0.4721455 0.34804547 0.19964403 0.48425654 0.46773422 0.44939715 0.41201425 0.44182336 0.4404929 0.85253835 0.8345916 0.8325113 0.82945764 0.7832295 0.8811364 0.7953365 0.8836702 0.86029005 0.8063978 0.65657693 0.819777 0.8314984 0.6560931 -0.048540372 0.0035590716 0.07297076 0.3270779 0.3817265 0.43282866 0.4494099 0.36914712 0.3022642 0.5185682 0.53121054 0.5659131 0.37283194 0.23063514 0.36619425 0.39706397 -0.10961739 0.46137705 0.19583122 0.48478538 0.4927637 0.47550333 0.38262045 0.38061607 0.49074042 0.46261203 0.10056912 0.025956731 0.26705852 0.2770003 0.27487248 0.40703914 0.33682382 0.4305482 0.40543962 0.3767698 0.44100225 0.4218493 0.4224127 0.4434936 0.47969705 0.4767787 0.12844926 0.5113539 0.5017696 0.31635502 0.5037899 0.4673581 0.42217323 0.44415835 0.17852028 0.100676686 0.12789269 -0.019108959 0.25022125 0.4028951 0.46821982 0.4846192 0.5108274 0.5195226 0.5322221 0.1992484 0.30201864 0.4484151 0.5317257 0.55668616 0.39339146 0.41525984 0.47091162 0.44878417 0.49596977 0.47246355 0.48745042 0.3845139 0.24968378 0.5930208 0.13924065 0.6364048 0.11276441 0.4529453 0.5082065 0.4886703 0.06571121 0.5375061 0.331816 0.56191885 0.51448137 0.56482244 0.56711423 0.55315983 0.24635178 0.58802927 0.5930127 0.5521457 0.5375202 0.29484844 0.37972212 0.47698745 0.45358682 0.5109897 0.5319754 0.49647456 0.58623374 0.5655992 0.55420136 0.5526536 0.5063098 0.41165107 0.7189119 0.6800668 0.12702833 0.5388298 0.55564296 0.35868374 0.5942826 0.46544924 0.55215234 0.53581727 0.5301643 0.52031505 0.55389625 0.5711415 0.5314486 0.5092179 0.45001817 0.14416245 0.38706696 0.48792928 0.5201429 0.38324156 0.49602205 0.5577314 0.5942652 0.58972096 0.562968 0.60098135 0.56421757 0.5695758 0.4689879 0.6872941 0.7248759 0.27836227 0.6320609 0.47926563 0.6078537 0.4575826 0.32815927 0.51885164 0.3155486 0.58177143 0.47423798 0.5307785 0.517144 0.4454834 0.4919508 0.49674773 0.4337979 0.46474016 0.53725904 0.48861596 0.46352786 0.17488316 0.3481581 0.41228938 0.49651754 0.44809058 0.5408988 0.5690487 0.572072 0.55450207 0.61390436 0.58092856 0.7224181 0.63250446 0.60464394 0.7098827 0.6248417 0.47325295 0.6517099 0.5416127 0.4401297 0.4996992 0.44961807 0.49670133 0.4497497 -0.04625553 0.4354474 0.45122492 0.4821813 0.32979634 0.30287683 0.38975406 0.45104688 0.36945158 0.4020961 0.15315394 0.14676824 0.25172877 0.34225938 0.37454748 0.46310678 0.45991826 0.49291748 0.4445063 0.51085126 0.529817 0.5356248 0.33439714 0.4853135 0.5043155 0.508626 0.5123171 -0.17058411 0.4997837 -0.03331372 0.46687317 0.15818514 0.46174765 0.1996316 0.138622 0.46608534 0.47162923 0.022222862 0.22568464 0.28841764 0.38441473 0.44220594 0.37861174 0.39991564 0.39927074 0.4303379 0.4263088 0.40888846 0.17384152 0.5368701 0.4885866 0.13397838 0.45857129 0.140607 0.34542936 0.09634532 0.083443865 0.2553394 0.41511393 -0.021041589 0.16016978 0.1887077 0.2506351 0.14716204 0.49009246 0.15359266 0.33015507 0.31685254 0.33313388 0.05360204 0.098078996 0.35805857 -0.022158548 0.34002388 0.25035593 0.010759626 0.17903388 0.42857635 0.023822065 0.15587796 0.33579624 0.644016 0.096369386 0.48706147 0.09824127 0.39854738 0.3737745 0.05272597 0.06918929 0.36146736 0.356013 0.20968929 0.052767243 0.3014213 0.3475513 0.49794668 0.5615015 0.21301448 0.21824715 0.654478 0.6694965 0.058745734 0.5011102 0.3865672 0.4563989 0.64143735 0.11768133 0.16267246 0.44601545 0.085537046 0.11400527 0.09944384 0.4038093 0.40475404 0.32371917 0.25613293 0.3373096 0.4528317 0.5480476 0.58324593 0.54837143 0.2519623 0.32814413 0.5361036 0.5992972 0.63306546 0.20164587 0.66608274 0.05441156 0.6875617 0.024725966 0.6016964 0.609409 0.4563526 0.4749329 0.6371254 0.233345 0.6844726 0.09592564 0.16922417 0.62606335 0.09208146 0.44418845 0.38965315 0.36687803 0.2939687 0.24897067 0.16351372 0.50642073 0.59166956 0.6002151 0.57938313 0.3633466 0.5762092 0.60378224 0.10954184 0.6722213 0.67865276 0.049828216 0.66303736 -0.03208335 0.5210909 0.56765544 0.6269861 0.5405946 0.27960244 0.4422765 0.5180206 0.6843445 0.6806326 0.15780863 0.587088 0.52304125 0.47495398 0.4218928 0.359901 0.298778 0.26842692 0.21921216 0.30555227 0.58950365 0.55731493 0.36287057 0.13254012 0.61615485 0.65820765 0.018432505 0.5513517 0.5159321 0.58010817 0.3310079 0.6853173 0.10565685 0.19689788 0.5964445 0.050175577 0.54627997 0.487315 0.19195324 0.43504027 0.38427204 0.29357514 0.2777911 0.54307055 0.42794225 0.23145618 0.261778 0.130087 0.5496557 0.49118882 0.45542255 0.4015488 0.17656246 0.42275986 0.3535251 0.27173838 0.08145359 0.26915172 -0.027405072 0.2306846 0.11881257 0.4360695 0.12875888 0.5752738 0.50796145 0.46283442 0.42615327 0.5078015 0.4778751 0.61787426 0.61218715 0.5857312 0.5310645 0.52303886 0.3810271 0.37089258 0.38126543 0.42107168 0.44353598 0.08483523 0.48179352 0.16401988 0.59068704 0.61379296 0.26833656 0.68660295 0.6377056 0.6052933 0.5026228 0.6118495 0.6067631 0.71148896 0.6564826 0.5887703 0.50054544 0.71686065 0.69573843 0.3728685 0.39043888 0.39621872 0.40958032 0.4830175 0.5841488 0.26421785 0.60539854 0.6902142 0.52786624 0.3505763 0.7324798 0.7440253 0.6779574 0.5879202 0.4120469 0.37831792 0.431079 0.4360711 0.38625768 0.40136603 0.45041698 0.42160636 0.45037895 0.4451098 0.2716301 0.3135457 0.4248836 0.43262333 0.43327266 0.37296456 0.4180294 0.40719867 0.6635125 0.61870825 0.5741266 0.72081125 0.7425879 0.6890623 0.50787854 0.6970198 0.42435026 0.43576485 0.6661529 0.43786588 0.4525759 0.53102046 0.6407356 0.46561807 0.56827784 0.5601463 0.40213114 0.5067628 0.66210896 0.7325978 0.7602663 0.76851547 0.73356736 0.36888814 0.327039 0.34307957 0.44609383 0.4201981 0.3960577 0.12484412 0.3619743 0.45907736 0.37510997 0.27676207 0.18126884 0.18278326 0.30254704 0.30812788 0.4794677 0.34529614 0.31959337 0.27643788 0.49110395 0.4598745 0.6443647 0.6075715 0.70506996 0.717782 0.69506216 0.56477356 0.5374609 0.46708506 0.6877297 0.4820406 0.5784515 0.63496506 0.60538036 0.5950087 0.6187576 0.59648675 0.6181121 0.16656813 0.58402234 0.42865944 0.5504539 0.44198692 0.50679946 0.42618948 0.28642198 0.30504745 0.35447 0.49805546 0.4844345 0.29776403 0.29030788 0.51504785 0.47268867 0.3998654 0.319071 0.3311388 0.51914334 0.50508916 0.4481343 0.32874948 0.33947846 0.49599433 0.32215053 0.33385193 0.5025051 0.2757284 0.2716021 0.5056619 0.5096427 0.4195624 0.2780496 0.31556898 0.29812783 0.47115684 0.32769832 0.31344783 0.32068062 0.6911316 0.6439576 0.5140643 0.3914312 0.49279243 0.66670644 0.6335373 0.50675625 0.56977814 0.6351819 0.6489403 0.6578417 0.6338782 0.61777675 0.31472072 0.59302664 0.5990633 0.55876756 0.5745293 0.106497616 0.24740016 0.55305296 0.6094404 0.5959921 0.4237072 0.4882506 0.5923227 0.5534667 0.3694777 0.57368183 0.17095254 0.45616436 0.5433264 0.5630408 0.44472194 0.23061708 0.1256598 0.31063348 0.4933998 0.5209219 0.47039026 0.27990282 0.31451562 0.5332841 0.32012984 0.31729436 0.53600144 0.3225494 0.48938337 0.46717557 0.31132832 0.31052068 0.4357214 0.29553646 0.3951968 0.44584024 0.31101304 0.44610777 0.44770443 0.44760075 0.41767198 0.32273263 0.3269742 0.32826838 0.40778136 0.3656609 0.44876182 0.39356357 0.562461 0.6774882 0.17184554 0.6468218 0.6124209 0.5927321 0.47884429 0.5651352 0.1994467 0.16529152 0.23667637 0.5998 0.5923487 0.57933795 0.568619 0.58470243 0.56751335 0.40161735 0.5869676 0.6048752 0.6104858 0.3029859 0.51154304 0.58249277 0.59385455 0.58845896 0.21074145 0.562206 0.5639092 0.4706543 0.5629264 0.37180522 0.57905895 0.31182784 0.561725 0.3133871 0.5053442 0.49403566 0.35802692 0.39949733 0.37116736 0.2230262 0.55259645 0.36762765 0.35748363 0.2644114 0.3822018 0.4168557 0.2814927 0.30701363 0.40290213 0.29730555 0.24311852 0.27929908 0.21500126 0.37888184 0.213745 0.44818276 0.52543825 0.6674538 0.66579795 0.29904255 0.603521 0.48894942 0.49046922 0.31638834 0.2076888 0.22518879 0.58699673 0.59431183 0.5831934 0.54672956 0.55687225 0.5465997 0.58760715 0.60771406 0.6173067 0.3787884 0.51342773 0.59472424 0.6205816 0.61287403 0.24357468 0.33742037 0.6011738 0.58674145 0.5532894 0.552791 0.46093214 0.551314 0.37531173 0.56930035 0.34393966 0.5463331 0.43503046 0.50862855 0.4584612 0.61543953 0.41651392 0.6781373 0.7379266 0.36451674 0.31937212 0.15336403 0.65215874 0.72065365 0.75826186 0.37327138 0.24285081 0.35305232 0.23551379 0.22770372 0.2653592 0.2388667 0.24031174 0.18359192 0.378875 0.19508046 0.5077138 0.66040117 0.5330915 0.5455477 0.43514264 0.17460726 0.29642388 0.6549847 0.56452346 0.36530837 0.30373755 0.23965362 0.59884644 0.55767024 0.55848116 0.53114164 0.482302 0.49608362 0.5620295 0.59922993 0.60994184 0.61186856 0.389583 0.56961334 0.6151094 0.6062881 0.26181316 0.5840632 0.52934694 0.20619999 0.52952945 0.12232664 0.43786636 0.5524827 0.38622546 0.57054406 0.35817415 0.5512688 0.39666092 0.5281618 0.48559445 0.6014646 0.6285804 0.4800492 0.76223797 0.7619535 0.7526622 0.76927507 0.7737627 0.7398302 0.76437306 0.26549414 0.26187134 0.26056862 0.21980514 0.17286474 0.18431419 0.4416988 0.4615718 0.5859213 0.58376205 0.6789912 0.6784881 0.6685908 0.32167256 0.22097135 0.6751801 0.6571574 0.57211614 0.45089865 0.29770914 0.5070114 0.46368206 0.4355799 0.46446455 0.4520389 0.4439637 0.5708983 0.5953026 0.41867363 0.031306203 0.59599733 0.49286133 0.1452805 0.41675973 0.41549826 0.36525068 0.31983823 0.34520042 0.56089115 0.52885026 0.38414353 0.51451063 0.45740148 0.60878456 0.6177136 0.43922496 0.31875682 0.75691247 0.7567618 0.35033512 0.7370573 0.7712194 0.7731918 0.06480697 0.12948418 0.66279376 0.74596035 0.7671564 0.27338752 0.25980034 0.21827178 0.25986633 0.30022737 0.16335422 0.16634752 0.21517922 0.40249485 0.3059153 0.47091046 0.45606405 0.5506496 0.27578634 0.6624963 0.6897862 0.20080821 0.6895951 0.66264355 0.5940209 0.46082574 0.34683645 0.43751717 0.357843 0.28298903 0.401838 0.49280643 0.5332252 0.5713887 0.38987994 0.4350446 0.30673414 0.27415445 0.2602718 0.012264296 0.3076427 0.31569242 0.3473564 0.29879713 0.54853725 0.308982 0.67243874 0.7325398 0.2779061 0.71810174 0.75581586 -0.010466628 0.15245208 0.27305123 0.31584662 0.3282856 0.3358694 0.38772124 0.41232812 0.44641978 0.27191594 0.3788803 0.20383193 0.47463423 0.41924495 0.1733668 0.5208256 0.25903034 0.6684073 0.23422727 0.2593203 0.68925774 0.6713491 0.65156347 0.54059654 0.63595605 0.2946098 0.2543679 0.13852312 0.30798522 0.6322855 0.57950675 0.50260454 -0.07781656 -0.0026363283 0.6684352 0.63332 0.58296597 0.24440083 0.66205156 0.64084005 0.5475789 0.5212101 0.43390173 0.26225838 0.27628002 0.3021427 0.30558217 0.20936374 0.1852409 0.3188241 0.2750687 0.20071185 0.3094195 0.14294793 0.35160065 0.33687744 0.34111822