# vtk DataFile Version 2.0
Really cool data
ASCII
DATASET POLYDATA
POINTS 4984 float
-8.660575 35.04021 19.982191
-8.682846 35.107117 20.342045
-8.855606 35.90179 19.166449
-8.952477 35.651 19.724754
-8.901741 35.64184 20.35684
-8.787698 35.84167 20.84125
-8.658454 36.15312 18.815254
-9.032561 36.291683 19.637865
-8.937809 36.453156 20.382168
-8.722745 36.40944 20.821823
-8.705955 37.57589 18.962147
-8.917181 37.24754 19.285477
-8.852482 37.25944 20.148495
-8.689453 38.08251 19.069216
-8.672284 38.18168 19.51332
-8.610713 38.084007 20.15764
-7.7855806 34.34546 20.679075
-7.9849563 35.056538 19.076757
-8.485357 34.962044 19.696
-8.3051815 34.7975 20.502422
-7.968717 34.829315 21.116259
-8.505739 35.509487 19.084547
-8.427995 35.61886 21.076105
-7.812667 35.97723 21.728903
-8.218997 36.644558 21.245827
-7.8772726 36.65849 21.612904
-8.517873 37.664227 20.513733
-8.206711 37.35514 21.067513
-8.3586035 38.243572 18.673687
-8.474185 38.48633 19.413172
-8.455557 38.170464 20.23352
-8.125691 38.019753 20.856472
-8.075884 38.804825 18.951004
-8.170329 38.857403 19.520405
-7.9948883 38.898342 19.951765
-7.6762824 43.95444 2.6911123
-7.782578 45.15977 0.55717576
-7.9651666 44.845284 1.5238132
-7.7466645 44.402752 2.4211245
-7.7504354 45.77253 0.123172164
-8.015908 45.72931 0.64112353
-8.227497 45.632145 1.4995465
-8.170783 45.654785 2.2049677
-7.7652264 46.18707 0.14883873
-7.9670453 46.428753 0.7200414
-8.120555 46.586876 1.4579076
-8.103204 46.30155 2.1777303
-7.7511544 47.0748 0.9202525
-7.8100395 47.07087 1.4338133
-7.8573155 46.883316 2.145225
-7.2459073 34.163788 19.979794
-7.0726085 33.89523 20.438803
-7.042317 34.05623 21.328753
-7.6283197 34.52428 19.781439
-7.429335 34.46292 21.489246
-7.293161 34.700996 21.7323
-6.739043 36.066673 14.947257
-6.8562884 35.86201 15.587774
-6.9033995 35.77608 16.327457
-7.302195 35.531403 18.414837
-7.148152 35.497677 21.979776
-6.8511853 36.567772 14.954172
-7.0347443 36.546604 15.624121
-7.1164017 36.88243 16.62966
-7.2074723 36.348473 21.99241
-6.74624 38.124207 2.884567
-6.7994895 38.03864 3.4573622
-6.7922378 37.156704 15.003339
-6.9418483 37.2554 15.513834
-7.0066676 37.034683 16.762285
-7.3287606 37.259583 21.714806
-6.873981 38.672794 2.5678384
-7.1285043 38.65734 3.4748397
-6.998345 38.775978 4.1933665
-6.6971126 38.83878 4.863352
-6.6393085 37.894783 15.98959
-7.66118 38.15278 18.08553
-7.4152627 38.43324 20.98109
-6.7457676 40.046066 1.4922278
-7.1648083 39.52292 2.6944795
-7.321399 39.461056 3.557411
-7.1472344 39.481968 4.289409
-6.8820577 39.43864 4.901246
-7.663465 38.993618 18.848253
-7.395221 39.28881 19.427046
-7.3899035 39.203835 20.11478
-7.032785 38.84163 20.969799
-6.8660374 40.65145 1.4966762
-7.304989 40.19729 3.5339332
-7.0853076 40.32323 4.294968
-7.2885194 41.419056 2.3788161
-6.810251 40.98609 3.7799904
-6.698888 41.400616 3.965306
-7.106761 42.71694 2.0384614
-7.2318606 42.538757 2.3447058
-6.8627863 43.365303 3.9442616
-6.9458046 44.911236 0.10409552
-7.456931 44.83632 0.46603787
-6.9261136 44.426376 4.043988
-7.232321 45.626003 -0.1517809
-7.2908735 45.53968 3.3668194
-6.9176545 45.163162 3.8922012
-7.226003 46.421803 -0.12584984
-7.334203 46.17628 3.1024008
-7.2206774 46.985092 0.1719833
-7.2832227 47.267788 0.6238692
-7.4478626 47.401867 1.4498267
-7.3087935 47.208878 2.3319097
-7.311249 46.882355 2.7588859
-7.1090794 47.595905 0.9856022
-7.05643 47.64265 1.4884799
-6.2703986 34.09565 19.80061
-6.537483 33.74612 20.710371
-6.5991464 33.832058 21.25906
-5.876068 35.256035 14.815233
-6.528428 34.57365 19.240757
-6.3875775 34.65478 22.006323
-6.0248723 36.056225 14.254137
-6.3166823 35.68423 14.846348
-6.5991783 35.52883 15.509966
-6.60132 35.489006 16.469671
-6.3830433 35.588814 22.250109
-6.182503 36.56126 14.1654
-6.5093393 36.701576 14.428303
-6.4890785 36.506847 22.16721
-5.9483995 38.18195 2.1265178
-6.376859 37.933464 2.8213935
-6.29427 37.680428 3.4208534
-6.2357135 37.798477 4.248009
-6.2605524 37.185833 14.222828
-6.487708 37.50076 14.696703
-6.4276443 38.84047 2.0107675
-6.5987706 38.304085 4.5428495
-6.205657 38.55181 5.2249675
-5.9426064 37.741444 14.281812
-6.3239884 37.912113 14.908908
-6.4096036 38.051483 17.266592
-6.6545053 38.432716 21.402931
-6.100588 39.73987 1.1021829
-6.3653617 39.479385 1.5404309
-6.4311023 39.655888 5.343393
-5.72182 39.951805 5.799465
-6.795572 39.41599 18.924316
-6.250634 39.563286 20.595476
-6.2991285 39.248615 20.964928
-6.25306 40.442055 1.0520142
-6.605237 40.270393 1.3686584
-6.402446 39.706966 19.744045
-6.251942 39.711666 20.151957
-5.7177415 41.910915 5.1862164
-5.9425716 42.88246 1.010596
-6.554827 42.96296 1.4176347
-5.6289697 42.294334 5.335848
-5.913805 43.04809 7.6203666
-5.9119673 42.85055 8.613179
-5.8033724 43.0242 9.142948
-6.5053716 43.433098 4.2258306
-5.933841 43.179317 7.7098384
-6.0549226 43.678352 8.696755
-5.845828 43.624092 9.297336
-6.126523 44.52521 4.6963735
-5.939731 44.235607 7.732173
-5.956141 44.25499 8.6086855
-5.8054056 44.313217 8.960691
-6.6666985 45.723957 -0.34367913
-6.278131 45.41213 4.2171474
-5.6490283 44.85075 7.7931542
-5.7066946 44.775436 8.603021
-6.5967064 46.426666 -0.23930192
-6.364399 45.962864 3.8685868
-6.5130734 47.02476 0.09886712
-6.5194325 47.4348 0.57986665
-6.5555625 47.376263 2.4849575
-6.598633 47.135033 2.7717917
-6.5768466 47.676514 0.9751028
-6.562554 47.72549 1.5476469
-6.4775343 47.706783 2.0514388
-4.9861565 34.343292 15.594129
-5.7982035 34.03853 19.853811
-5.2145414 33.97219 20.157818
-5.8455806 34.113796 21.634354
-5.4613047 34.959812 14.787716
-5.2388163 34.56528 15.339771
-5.374505 34.65344 16.23931
-4.8485007 34.935696 17.31258
-5.4460583 34.415653 19.578335
-5.5320344 35.099308 22.28467
-5.453324 35.768387 14.220205
-5.823067 35.605198 22.378923
-5.03643 35.66755 22.57873
-5.4623 37.38881 3.664047
-5.428875 37.35034 4.395856
-4.8992586 37.21262 5.1039147
-5.8195024 36.743732 13.946695
-5.438562 36.61212 22.35591
-4.9791727 36.355263 22.529724
-5.655169 38.21284 2.0443208
-5.274654 37.599396 2.8574078
-5.7518864 37.51749 3.2467058
-5.6634912 37.546825 4.3707333
-5.237306 37.517586 5.1836753
-5.2263184 38.023712 5.7644444
-5.525852 37.308502 13.949721
-5.706297 37.525272 22.238575
-5.365675 39.199482 0.99044347
-5.0033083 38.688454 1.3991963
-5.4541483 38.742657 5.9223228
-5.4115095 37.876694 14.244136
-5.7675138 38.322937 15.066063
-5.4079337 38.361828 21.864428
-5.4765015 39.797386 0.79605216
-5.139282 39.546524 6.317692
-5.7354226 38.64441 15.536561
-5.0032887 38.9604 16.750412
-5.1495495 39.21712 18.187511
-5.1679106 39.20689 21.354101
-5.6947803 40.56704 0.80520785
-5.258859 40.383804 6.3028145
-5.376864 39.710037 18.997389
-5.5830708 39.904087 19.521101
-5.6107206 39.827072 20.292898
-5.4202385 41.09617 0.76342773
-5.360917 41.972645 7.339167
-4.954608 41.987976 9.436611
-4.9635024 42.540413 0.76324666
-5.6020293 42.52904 8.826597
-5.309152 42.308205 9.269158
-5.0426655 42.755688 10.059456
-5.7135644 44.071762 0.13928235
-5.6189203 43.35377 9.568248
-5.5980587 44.696674 -0.09933463
-5.2077317 44.4314 5.383803
-5.4529934 44.051037 6.859095
-5.456516 44.512135 9.2950945
-5.1889243 44.28263 9.940982
-5.5730953 45.25203 -0.2540487
-4.967521 45.483543 7.691867
-5.237802 45.41323 8.153871
-5.1135073 45.065536 9.118011
-5.863748 46.2543 -0.18896496
-4.8731217 45.55039 7.9812703
-5.868955 46.901196 0.1278072
-5.7993965 47.36524 0.75211596
-5.465694 47.447933 1.5920198
-5.5259094 47.390144 2.0861597
-5.444262 46.94263 2.7246366
-5.9439335 47.66 1.4040793
-6.0664654 47.716908 1.9304128
-4.312136 34.239048 14.983884
-4.538213 34.212704 15.507614
-4.944158 34.05548 20.88921
-4.7424393 34.154152 21.48567
-4.497258 35.156506 14.21449
-4.41871 34.516342 14.613664
-4.2671223 36.06142 13.720629
-4.752736 35.605507 22.485336
-4.601781 37.185463 3.785386
-4.178853 37.022903 4.3276896
-4.7172465 37.328037 5.319218
-4.7472653 36.475136 13.777667
-4.5270433 37.538673 2.8978481
-3.684196 37.8836 6.643326
-4.452189 37.740124 22.477924
-4.0259905 38.808975 7.4412584
-4.588051 38.20263 22.265923
-3.5428262 39.185043 -1.8818108
-3.988414 39.1567 7.2595615
-3.9705944 39.427902 15.192813
-4.239379 39.474136 16.982094
-3.9671755 39.48402 18.15311
-4.367749 39.32034 21.53716
-3.5246456 39.89326 -1.9452204
-4.5288706 41.038357 7.2481318
-4.3661404 40.639328 8.757843
-4.261302 40.72765 9.771387
-3.8419476 40.675938 10.479685
-3.5858965 40.926197 11.315176
-4.952027 39.878803 19.912865
-4.5189676 39.818302 20.524652
-4.216878 39.694046 21.15403
-4.7380466 42.935696 0.6514255
-4.079534 42.33482 10.937078
-4.524492 43.945858 0.28569537
-4.115654 43.43753 11.028963
-4.612276 44.672886 0.069665015
-4.614118 44.53289 10.172247
-4.0551863 44.563118 11.049155
-4.8481345 45.275314 -0.02205953
-4.228799 45.369946 7.1126595
-4.2105827 45.372467 10.186116
-4.07204 44.98089 10.756348
-4.7341604 46.07466 0.23016958
-4.9744506 46.283455 3.5927305
-4.2992425 45.596855 7.358234
-4.2298384 45.828724 8.467194
-4.176321 45.61072 9.311273
-3.8968358 45.757015 10.10906
-4.9620047 46.96346 0.9156375
-5.0389915 47.164143 1.3674966
-4.743957 46.942078 2.3473432
-3.015261 34.340263 14.215566
-3.4027312 34.243313 14.520239
-3.498761 33.99636 15.50322
-3.3952193 34.170567 16.424677
-3.726545 34.437054 18.381586
-3.410019 34.16989 19.17779
-2.972778 33.548378 20.432196
-3.3721218 34.008198 21.496761
-2.8484404 33.63126 22.567486
-3.131677 34.57175 14.042996
-2.712499 34.540447 23.510096
-2.5960248 34.256268 23.890188
-2.8867598 35.989273 7.719042
-2.8490384 35.85842 8.45622
-2.8563843 35.97778 9.479952
-3.3499389 35.27042 13.752837
-2.7714422 35.688965 23.564526
-2.613297 35.04434 24.03332
-3.844489 37.406677 3.1806645
-2.929381 37.23758 6.2799425
-3.2168431 36.564793 7.781142
-3.2505348 36.591297 8.796258
-3.231852 36.5587 8.9401865
-3.0018284 36.806587 10.23584
-3.484109 36.651802 13.263152
-2.9536533 38.13003 -2.111934
-2.8776937 37.827225 -1.4314356
-2.745931 37.667862 -0.9179751
-3.4250124 37.2914 8.741641
-3.3780217 37.357536 8.947581
-3.281925 37.977837 10.004149
[...]
POINT_DATA 4984
SCALARS features_00 float 1
LOOKUP_TABLE default
0.7271788 0.73285836 0.7322529 0.74199975 0.73829687 0.71686983 0.6865647 0.7426775 0.7161808 0.690605 0.6035936 0.6585937 0.6640625 0.5963094 0.6136818 0.6191908 0.7275001 0.64738584 0.70877564 0.7260498 0.7225057 0.69318545 0.70325905 0.6193097 0.62912285 0.5864616 0.62651134 0.6052226 0.5538825 0.6021124 0.6124979 0.5911931 0.56983304 0.59207946 0.59026986 0.4817993 0.79050666 0.6945278 0.5754988 0.86359155 0.85666215 0.8299502 0.80447656 0.89564306 0.90539676 0.89212483 0.85187745 0.8994311 0.8811376 0.85076356 0.6787803 0.7022646 0.7430212 0.67741895 0.7313075 0.70670325 0.6107222 0.60029733 0.567074 0.49115017 0.59561753 0.62193066 0.6199329 0.576364 0.52121127 0.6389482 0.65517366 0.6182986 0.6099527 0.55973506 0.5122042 0.6272717 0.67761695 0.6322926 0.55334884 0.54340756 0.45322603 0.55999017 0.40344664 0.63642 0.6377482 0.5808835 0.51204777 0.5464071 0.55840445 0.568689 0.5394844 0.37775078 0.5693485 0.482293 0.4473336 0.40991572 0.2778162 0.44865185 0.42954972 0.2763699 0.72969687 0.7254752 0.36516607 0.84024966 0.5594642 0.4135158 0.90610576 0.6755737 0.9099554 0.8939032 0.86146784 0.8190111 0.77521515 0.8634467 0.84055746 0.5802766 0.6868895 0.7305689 0.5504792 0.5428165 0.658571 0.591484 0.58542895 0.5733053 0.51604176 0.4950233 0.6098269 0.61950034 0.43454167 0.5369551 0.60646814 0.60633326 0.59405845 0.61366993 0.6082944 0.52298415 0.6028461 0.50920755 0.58395463 0.5823839 0.36665156 0.48939282 0.3913901 0.43267804 0.41429585 0.26449227 0.4792996 0.4778642 0.47790462 0.35032648 0.3816498 0.48231208 0.4784166 0.08372781 0.3283172 0.42317787 0.002746947 0.5161687 0.4909488 0.509306 0.19939625 0.5374982 0.5761179 0.5650691 0.22285432 0.6095753 0.6078449 0.6059796 0.829265 0.3594389 0.61844313 0.6232851 0.88449895 0.5074509 0.88070244 0.8490399 0.75719714 0.7334019 0.8316704 0.8101672 0.7810254 0.4612971 0.52523476 0.44701612 0.720439 0.516641 0.4893175 0.47282785 0.25974068 0.36425698 0.5055392 0.5486049 0.44450676 0.36935595 0.5316832 0.5214079 0.4507494 0.59782374 0.364819 0.33891702 0.5144565 0.51535976 0.5582793 0.5436977 0.48466247 0.40483958 0.5772781 0.38563806 0.39717358 0.4457211 0.34621602 0.5244859 0.49438643 0.42557505 0.3527134 0.13619193 0.41501153 0.13425389 0.21522772 0.43523288 0.31191382 0.048663612 0.3437363 0.39821345 0.4297971 0.24681461 0.21896052 0.28692123 0.1904985 0.4232118 0.36704513 0.4133774 0.40677586 0.5333004 0.5287993 0.033766583 0.50753 0.6022968 0.5729599 0.63209593 0.57165265 0.6094412 0.60991293 0.80147606 0.5819965 0.8286225 0.7793505 0.7035185 0.6847899 0.6203625 0.7627654 0.75365937 0.446998 0.4404558 0.5040642 0.5362263 0.45700878 0.44870764 0.44100213 0.34418833 0.46198356 0.3982398 0.4104384 0.5103619 0.4496272 0.13944827 0.36185256 -0.021173202 0.40583926 0.8673383 -0.0606206 0.06526911 -0.01821725 0.15307482 0.4406304 0.8341079 -0.07946647 0.038884275 0.10338475 0.08784871 0.045533016 0.37633455 0.39603323 0.42676398 0.17474005 0.1932668 0.30109692 0.38794523 0.4369605 0.54755974 0.4997005 0.5418145 0.44684786 0.5660198 0.5294548 0.63140523 0.5266018 0.4834958 0.57674104 0.6075105 0.582551 0.6816816 0.6631686 0.5807694 0.4085291 0.42353836 0.42397714 0.34543946 -0.10006264 -0.052648164 0.110285975 0.026190042 0.21932745 0.4022023 0.3109411 0.3170514 0.45488417 0.49615645 0.49854347 0.3901798 0.27488828 0.31148836 0.36615866 0.1746741 0.39471734 0.41657102 0.42396992 0.36958614 0.30741426 0.79465306 0.6990348 0.65414953 0.25993493 0.25142443 0.14419201 -0.02461408 0.9290948 0.9061576 0.77027965 0.5980207 0.38525388 0.044311985 0.03087195 0.109571725 0.009539552 0.1571728 0.40032142 0.37096134 0.9066411 0.9008317 0.03114735 0.012705557 0.04182948 0.46182707 0.86758846 0.8238349 0.0456089 0.019079879 0.022554055 0.058579907 0.10629746 0.35312665 0.40501153 0.4429822 0.60687387 0.042866737 -0.00048682094 -0.071161374 0.0064233523 0.1278005 0.035167873 -0.053744413 0.09757283 0.2076025 0.30205065 0.47929403 0.5078687 0.46718562 0.1450079 0.4674883 0.5689149 0.5486021 0.5416726 0.5103023 0.35442138 0.5170092 0.60298973 0.6135644 0.59210885 0.577757 0.57042974 0.45581138 0.5137653 0.20845708 0.3100919 0.43663982 0.4982326 0.509426 0.18984248 0.19476575 0.22992817 0.34844884 0.43130577 0.41953367 0.40231806 0.4139201 0.42728233 0.38666695 0.22222787 0.061823227 0.13585271 0.30668637 0.33892664 0.35770088 0.37397367 0.516765 0.5422727 0.38491356 0.32568467 0.32403472 0.3312737 0.46177524 0.507234 0.5213168 0.51393414 0.44938922 0.35544193 0.30607066 0.3198423 0.68935966 0.65734017 0.04328854 0.82912004 0.7389755 0.6913712 0.63300145 0.18078005 0.89415044 0.2774231 0.3796559 0.8491799 0.87686425 0.825225 0.27605376 0.3977774 0.6967602 0.24974138 -0.02608788 0.07632614 0.12023989 0.1487822 0.15146203 0.17601576 0.06932067 -0.016151778 0.11277193 0.10692279 -0.07363593 -0.053022362 -0.038222462 0.117605306 0.13713375 0.101500586 0.12253999 -0.023971517 0.23096651 0.48448148 0.57600176 0.31829882 0.599606 0.6499967 0.620276 0.6029158 0.86465037 0.86422706 0.89647716 0.89376915 0.82604116 0.89828515 0.974867 0.9476286 0.79463685 0.91696167 0.95363665 0.95398474 0.8369583 0.92697656 0.91828215 0.8827386 0.5790546 0.47783688 0.57512456 0.5915161 0.569246 0.2234241 0.55481726 0.5386245 0.23143496 0.48313963 0.4886229 0.39712024 0.40262014 0.39569077 0.3220783 0.1889272 0.18232667 0.38211083 0.41007638 0.46533817 0.52299374 0.5272598 0.51826596 0.46012998 0.33878908 0.3828776 0.33218756 0.43306577 0.12869741 0.44963613 0.3464989 0.3126903 0.6854343 0.6706389 0.6103295 0.19936621 0.10351303 0.27872813 0.76369596 0.6979346 0.4309125 0.1050878 0.6400125 0.64108574 0.80947244 0.31289613 0.30756998 0.6225067 0.63442683 0.634269 0.8388541 0.7989131 0.068176 0.23792723 0.4030333 0.59119785 0.6147784 0.63136154 0.74142176 0.6971284 0.48228297 -0.1683453 0.25082114 0.13106781 0.30723387 0.3858757 0.17218862 0.09996006 0.1567015 0.3356154 0.38036805 0.006187476 0.024929687 0.07207304 0.2907164 0.1580784 0.087834306 0.47461876 0.5012181 0.56542856 -0.006964147 0.5888223 0.5938167 0.7016078 0.72925067 0.6284668 0.70334303 0.7401347 0.73926663 0.6504274 0.68948615 0.68006384 0.60040593 0.6022574 0.7839776 0.8351826 0.79165447 0.80684507 0.8167373 0.75716543 0.6246495 0.81525886 0.6737741 0.5847221 0.8202548 0.7079052 0.63040596 0.853061 0.8877349 0.898278 0.822458 0.8760155 0.88432634 0.5595415 0.42412904 0.5326243 0.5124284 0.575008 0.5606428 0.32529074 0.3067827 0.58291036 0.5645237 0.24189045 0.53000563 0.23052374 0.22908339 0.46757144 0.31338638 0.1482694 0.39922875 0.47908896 0.47084844 0.4627618 0.27588475 0.31798598 0.36626345 0.492055 0.4447353 0.23249972 0.41236815 0.6247349 0.4972398 0.123669356 0.580594 0.6770899 0.62385696 0.56107897 0.49075487 0.039752476 0.63315946 0.6142134 0.61147296 0.5910932 0.7312912 0.6802703 0.07131917 0.48794258 0.63235414 0.6282388 0.6870332 -0.3274812 0.43866384 0.5364295 0.5803773 0.6150507 0.6305435 -0.2813853 0.36044043 0.48893964 0.5074636 0.57869995 0.4662677 0.14818391 0.36276668 0.5278587 0.20332886 0.12460907 0.09792663 0.41550493 0.48114872 0.06345898 -0.0008176081 -0.05881849 0.37395552 0.37616694 0.32693577 0.036713302 0.17520246 0.22577977 0.36478147 0.39556175 -0.0068520457 0.05000195 0.47107857 -0.05475016 -0.01873666 -0.067525074 0.052395742 0.19418076 0.21699993 0.22880664 0.25263098 -0.08640978 0.08554527 0.17242637 0.19408002 0.19010995 0.6102756 0.14785095 0.158401 0.23231429 0.19283089 0.269887 0.50897026 0.6490426 0.6811703 0.67908394 0.6487982 0.34346172 0.3598966 0.3893734 0.55565715 0.719885 0.39815056 0.39119703 0.58739847 0.6384797 0.6783155 0.683602 0.49969387 0.5502176 0.57152617 0.568092 0.47518295 0.4992353 0.5139823 0.68861437 0.72529185 0.73960745 0.68899566 0.48691478 0.5612041 0.62622386 0.4033007 0.653535 0.40261883 0.68254054 0.7973174 0.7988192 0.7875364 0.60333014 0.60502523 0.63762766 0.5902379 0.5613718 0.55559283 0.51474833 0.5094856 0.5630923 0.54897356 0.5475882 0.3168599 0.38421118 0.53946126 0.2137253 0.18313359 0.5269316 0.25276744 0.4658193 0.11128631 0.22446263 0.39855498 0.3853887 0.35590976 0.09793151 0.1241351 0.28671575 0.3050995 0.46925834 0.48012245 0.4613733 0.37477142 0.3320581 0.13415712 -0.021518223 0.19830547 -0.049556375 0.11113216 0.38368255 0.41971576 0.4476781 -0.11357719 -0.13762471 0.5249469 0.55653965 -0.2794259 -0.08872604 0.033545744 0.17119189 0.5746436 0.55180943 -0.27231935 -0.24848425 0.62247133 0.238824 0.38666844 0.5287324 0.59000385 0.6065046 0.5332276 0.39788312 0.45548022 0.2534464 0.29480112 0.40016004 0.48819023 0.22758502 0.50285226 0.12566285 0.05226977 0.48556304 -0.012128448 0.11692825 0.17132443 0.0959066 0.38422275 0.44663805 0.44944417 0.33082235 0.20651042 -0.011846438 -0.07446551 0.1604538 0.391612 0.4118809 0.4098136 -0.08416614 -0.068363465 0.15685216 0.09390985 0.08383447 0.13231853 0.5061089 0.5456542 0.33404607 0.15144658 0.04463146 -0.09758387 -0.06906471 0.055531688 0.116361044 0.133375 0.25659174 0.16817354 0.23676828 0.27251124 0.58988017 0.54032195 0.28860423 0.32201177 0.27416405 0.20090243 0.16807528 0.21462888 0.03596718 0.21353447 0.29712874 0.5960846 0.27812305 0.35849494 0.40837356 0.41916808 0.7562617 0.17031625 0.18975182 0.216868 0.26663008 0.27873668 0.32664448 0.3715427 0.38854218 0.373917 0.26495996 0.42914099 0.530374 0.55216354 0.19030395 0.19671464 0.23936088 0.29726636 0.37328166 0.37203717 0.31569332 0.42266932 0.49893993 0.2964869 0.4828986 0.56894475 0.566661 0.32063723 0.27621263 0.23012942 0.19494739 0.47107756 0.491423 0.5057738 0.5001008 0.4873376 0.53602254 0.3045489 0.26432335 0.49882773 0.5219551 0.52397203 0.32730436 0.4198895 0.44534627 0.48483205 0.43896517 0.5006859 0.5150705 0.4982187 0.6021505 0.6376195 0.5866478 0.6414887 0.5355166 0.45728618 0.4894637 0.51657283 0.5086123 0.51863647 0.48248017 0.5070149 0.50391054 0.47233695 0.5239113 0.27186304 0.5092573 0.5112978 0.23379876 0.49397263 0.33778992 0.49920306 0.80839336 0.81372166 0.80334985 0.7290951 0.7415136 0.72258765 0.7424133 0.59554195 0.56294614 0.6206714 0.5448607 0.541064 0.39849418 0.53282416 0.23374505 0.2663266 0.26748636 0.13592348 0.1443406 0.24485764 0.3994202 0.09893832 0.13769801 0.20287547 0.41604626 0.42257223 0.43899888 0.4194703 0.35383832 0.31019223 0.15785658 0.1398193 0.037024375 -0.096859075 -0.055488326 0.3435948 -0.03983397 0.4373362 0.025297798 0.0075906664 -0.056729373 0.53590465 0.5522549 0.1000676 -0.27413338 -0.1851668 -0.072728835 0.6108879 0.6317005 -0.531877 -0.46274358 -0.24248087 -0.28209606 0.020354562 0.09037103 0.63607615 0.6469486 0.20128231 0.16514724 0.16641434 0.20000553 0.6310475 0.6455121 0.34157977 0.25348797 0.11879954 0.1386325 0.17416742 0.23950174 0.3933125 0.50827324 0.6341544 0.08550567 -0.042246357 -0.3733096 0.19226968 0.28646967 0.45888543 0.4600106 0.4167878 0.19039485 0.17872325 0.44342893 0.4531181 0.43461925 0.37199652 0.3710223 0.38522685 0.23154993 0.09095344 -0.009172056 0.06333059 0.21660247 0.3484686 0.33405924 0.3503158 -0.014346525 -0.0696384 -0.03213376 0.23581249 0.30937594 0.1983364 0.2751899 0.31347644 0.3047167 0.3151952 0.38644165 0.5089637 0.51578397 0.12729459 0.4363935 0.08442566 0.24893393 0.2651908 0.2562956 0.70097053 0.6476524 0.66425204 0.6332984 0.14006293 0.1814886 0.2157223 0.1346057 0.07572144 0.16513288 0.73926115 0.78107965 0.7731893 0.7377955 0.25129 0.25046417 0.19766556 0.17061082 0.29547656 0.25919497 0.1625359 0.26808286 0.5220378 0.83156985 0.8346553 0.7720231 0.2923891 0.29949594 0.2244417 0.19558965 0.30897552 0.33818364 0.2613461 0.18558744 0.28602922 0.3504715 0.35557133 0.35032436 0.24248812 -0.20693198 0.049894303 0.5429574 0.47772443 0.26468393 0.32253274 0.21907468 0.1877967 0.1891332 0.27201557 0.333421 0.4560884 0.40730762 0.12029518 0.0332531 0.1715878 0.3893339 0.4970625 0.48521903 0.2341793 0.32999605 0.21951072 0.49909693 0.5275916 0.24412993 0.17159048 0.21432526 0.25852874 0.23049791 0.26326644 0.28708524 0.19595397 0.2053066 0.13813268 0.15936375 0.38533974 0.22986144 0.18510395 0.41139814 0.14557998 0.42516577 0.46838713 0.4599666 0.45130533 0.15549554 0.3979435 0.4569871 0.49002358 0.48770562 0.41935116 0.41197655 0.13228771 0.07331495 0.45295575 0.49203414 0.4659512 0.43093795 0.44047368 0.4348777 0.44623387 0.1741898 0.44768748 0.33816934 0.29912207 0.59751713 0.6672547 0.5268925 0.6169697 0.68257177 0.725084 0.56343544 0.61714005 0.8566768 0.8717946 0.8874811 0.8518371 0.8324357 0.8662951 0.6891999 0.5796758 0.7792352 0.5291545 0.48191237 0.4919157 0.42051065 0.22067174 0.07041851 0.07071649 0.29855973 0.30866137 0.030603878 0.19624701 0.16195084 0.19323641 0.12501623 0.354676 0.4264611 0.42787337 0.35933167 0.06986539 -0.038162477 -0.00025504827 0.14870332 0.23340382 0.14312266 -0.1297971 -0.19223419 0.106595345 -0.07572706 -0.16408181 -0.074550346 -0.076888464 0.46461898 0.56407166 0.5933921 0.6373235 0.6590514 0.21118629 0.21544266 -0.25639522 -0.26962215 -0.25674942 0.026753113 0.67823625 0.16010675 -0.2062477 -0.2529167 0.04554074 0.09050949 0.620127 0.122075774 0.41510898 0.41962448 0.3403455 0.17544416 0.47457582 0.49709558 0.49064654 -0.16316426 -0.14514953 0.057784155 0.25504246 0.32624018 0.40263698 0.31953752 0.25727648 0.34549373 0.44157982 -0.07083257 0.14623699 -0.13730332 0.051889814 0.003283767 0.08419205 0.14484154 0.11608674 0.2808121 0.3501172 -0.32856166 -0.3214539 0.06925053 -0.18846285 -0.10139932 0.022798315 0.2347804 0.35116684 0.3926397 0.40550345 0.3569607 -0.24832228 -0.17280711 -0.24760614 -0.15109512 -0.24930382 -0.07512291 0.36968362 0.45358664 0.41579932 -0.07357155 -0.11838163 -0.0012318892 0.051755298 0.5733044 0.06956688 -0.23032613 -0.095426366 0.24613556 0.68004787 0.5937679 0.21159336 0.21765986 0.15259856 0.22806323 0.7097266 0.7426034 0.72064114 0.6245292 0.21448529 0.24792552 0.10795139 0.17692447 0.21497956 0.24872836 0.23869278 0.83807105 0.842769 0.75628173 0.22159854 0.21546885 0.28497958 0.28667825 0.37643546 0.36863273 0.23518088 0.22155927 0.22507638 0.4489382 0.46343136 0.4286822 0.23873937 0.18116221 0.2415069 0.21318185 0.17490734 0.046436526 0.118433945 0.18367039 0.14158466 0.07634218 0.13382338 0.19298665 0.22038803 0.022519074 0.06838739 0.09262392 0.20530882 0.2520669 0.71080494 0.56495583 0.2507718 0.3687041 0.26055354 0.2115627 0.30882072 0.2999914 -0.039903656 0.7440048 0.66509527 0.5750228 0.31110746 0.39268878 0.44829082 0.4186855 0.30671823 0.3757642 0.3741334 0.3393432 0.028454017 0.68757075 0.6467219 0.4228803 0.35342497 0.4291813 0.59937274 0.70830697 0.49360478 0.54332626 0.64963126 0.7073307 0.7500161 0.5648408 0.62001395 0.6692797 0.8870791 0.8854455 0.8510972 0.85978365 0.87149566 0.8685708 0.8123996 0.7261045 0.8264276 0.83396745 0.6787921 0.6391505 0.5567764 0.77057016 0.7504827 0.5892196 0.43984842 0.45113537 0.21972288 0.35078818 -0.06120001 0.18292099 0.06783073 0.19126245 -0.15142976 -0.22446334 -0.14301434 -0.15198824 0.024387931 0.33562708 0.36283845 0.3622532 0.21097952 0.2454248 0.2190513 0.13643733 -0.06602806 0.16543266 0.05163261 -0.0007839948 0.04404486 -0.024351895 0.21092293 0.47165272 0.44432017 0.057307366 0.37344223 0.35530064 0.62281895 0.32908732 0.62942386 0.2577979 0.66263866 0.5479687 0.5684726 0.20882331 -0.067175746 0.45421857 0.5277298 0.55417025 0.55782914 0.52905715 -0.27288187 -0.063256435 -0.16003081 -0.13194788 -0.004036069 0.42203254 0.25869727 0.44661346 0.5240921 0.5145296 0.49785382 0.22781743 0.22729778 -0.019034281 -0.12981932 -0.079674006 -0.33541256 -0.635634 -0.08295001 -0.007405609 0.0010902435 0.042653337 0.20194384 0.41190323 0.4208247 0.19100913 -0.05521013 0.22245921 -0.25015408 -0.14083752 -0.064338185 0.021502355 0.001949273 -0.025766365 0.3355844 -0.026798785 -0.23247802 -0.284563 -0.2574582 0.29648855 0.36515218 0.37210363 0.25584665 -0.36058804 -0.13921458 0.45667422 0.4879542 -0.41964954 0.50263447 0.52384216 0.1891681 0.08871717 0.44327104 0.5565978 0.27036732 0.22686222 0.34999865 0.49312645 0.61868215 0.5787341 0.28747046 0.23288971 0.028993338 0.05602081 0.09966275 0.09234406 0.107557885 0.024222273 0.6635473 0.6748482 0.26853016 0.04522059 0.14352871 0.28694034 0.22597419 0.19224009 0.29465154 0.26793543 0.08698095 0.21963894 -0.17427063 0.15180616 0.23132491 0.2964508 0.27311468 0.13117285 -0.10111517 0.22830722 0.23913376 0.124064066 -0.022681955 0.25149524 0.27653053 0.08651338 0.11763469 0.65945727 0.5906695 0.35327995 0.31867063 0.41155785 0.14213316 0.7337177 0.6977378 0.30108568 0.38192827 0.4903611 0.03170694 0.11550679 0.7791059 0.76827437 0.49272934 0.50579774 0.36630633 0.25434804 0.488429 0.5132317 0.11304222 -0.049844693 0.014352486 0.82240784 0.781223 0.687885 0.6432671 0.58152705 0.12949143 0.24471954 0.3099975 0.46910828 0.47638333 0.5463307 0.5439142 0.1503696 0.4088699 0.8245126 0.7732333 0.75947237 0.57317674 0.18892013 0.57248986 0.2486355 0.31293473 0.67301416 0.33474377 0.42640582 0.7250012 0.6879992 0.58492035 0.6635504 0.7296058 0.74166536 0.8540817 0.85203785 0.79302484 0.8277787 0.8083239 0.7508313 -0.0012661591 0.24417597 0.32781994 -0.13239837 -0.027739972 0.296042 0.22356275 0.6220082 0.15619166 0.31391597 0.29981232 0.29305592 0.24784698 0.38101855 -0.23015082 -0.3004169 -0.30265754 0.045845874 0.5321015 0.50330746 0.39814764 0.17908153 0.2284993 0.21569881 0.5054769 0.31732163 0.036983974 -0.08417122 -0.013507284 0.039303347 0.1756897 0.28266668 0.42372394 0.44656682 0.44771063 0.5488713 0.35042593 0.51342016 0.5942565 0.32935685 0.52572256 0.55143654 0.5660781 0.25659925 -0.21007504 0.6194049 0.49541938 0.5716207 0.5227052 0.2195551 -0.2827085 -0.216074 -0.45433366 0.45396554 0.2730859 0.27205628 -0.4532848 -0.22392216 0.3360816 0.37048513 0.2958066 0.20660232 0.2149413 0.35787773 0.37333447 0.3476805 0.30468762 0.2100749 0.43114048 -0.080136284 -0.2443637 0.47368205 -0.012475222 -0.1379202 -0.15617633 -0.25835764 0.53488433 0.19446814 0.5467635 0.54771453 0.27346796 -0.3306554 0.2613513 0.54501456 0.43323886 0.3299355 0.063782886 0.0039236173 0.014258962 -0.20576294 0.02294375 -0.2501946 0.46717182 0.42157972 0.3536917 -0.11193577 -0.07035023 -0.24938965 0.40443748 0.36262974 -0.13347878 0.28362304 0.39627963 0.34550002 0.15639448 0.028377417 0.31413203 0.2339943 0.15391664 0.3679424 0.09819022 0.40480372 0.09052501 0.20932022 0.6289629 0.4399816 0.5470479 -0.07965839 0.30054164 0.7010939 0.5681849 0.56859165 0.18995816 0.30437326 0.76524734 0.5637673 0.6369502 0.06609112 0.7965375 0.79502153 0.52563167 0.3398519 0.25152293 0.5840844 0.64340544 0.6575452 0.7822198 0.78900987 0.80491686 0.7543402 0.53809327 0.63112825 0.6389185 0.6571625 0.6708368 0.25985163 0.5642164 0.69743073 0.7158794 0.28149086 0.6001338 0.6165376 0.3478676 0.6519331 0.43239954 0.52146006 0.6989136 0.59816575 0.6609155 0.71888006 0.7003617 0.5944601 0.64808863 0.6738523 0.17280322 0.27761286 0.47601938 0.4244386 0.54176426 0.6360502 0.6682364 0.6562036 0.11823939 0.25684446 0.6578368 0.08520713 0.14531669 0.33279428 0.2869228 0.2612117 0.22283307 -0.24674892 -0.3429851 0.08610206 0.071386546 0.5599747 0.53837276 0.46286267 0.26639247 0.23971808 0.26904443 0.19722451 -0.038433537 0.55034155 0.55618185 -0.036215022 0.21779503 0.06148228 0.13317487 -0.20059097 0.09356259 -0.13718992 0.12682872 0.38898647 0.36470246 0.30886883 0.29627377 -0.18345815 0.46123862 0.45548165 0.49542552 0.5157742 0.2765084 -0.1701679 0.3805616 0.46453512 -0.25887087 0.0020073652 0.37146527 0.28459722 0.37165916 0.39158475 0.40284687 0.42255664 0.4804935 0.5017288 0.4700184 0.43709844 0.34866703 0.18293114 -0.0739804 0.45861924 0.59663785 0.59631187 0.55878055 -0.030192584 0.5035897 0.6498897 0.17123286 0.5316204 0.26273942 0.52205145 0.42629874 0.12899187 0.52357864 0.50785494 -0.03901518 -0.09054629 0.36535555 0.512467 0.5426594 -0.10115151 -0.14836796 -0.05905931 -0.10442777 -0.24381982 -0.11049016 0.22371165 0.5121156 -0.03963283 0.007247269 -0.014705941 0.4544099 0.0795644 0.03281118 0.24063163 0.3458255 0.15525736 0.29719412 0.14197674 0.2548676 0.5303877 0.10714267 0.40602875 0.670015