# vtk DataFile Version 2.0
Really cool data
ASCII
DATASET POLYDATA
POINTS 4768 float
34.42664 4.968129 22.518835
34.412144 5.649134 21.793518
34.333347 5.4343157 22.594057
34.319984 6.6363134 21.558825
34.08656 6.9100914 22.42097
34.042736 7.1103373 23.168428
34.33372 7.664306 21.621126
33.95833 7.5535784 22.520027
33.98718 7.4902186 23.265724
34.19859 7.8360853 23.879784
34.23685 8.249615 21.979036
33.998775 8.2647 22.580612
34.09875 8.606615 23.384287
34.288937 8.476771 24.081175
34.28731 9.285025 22.65985
34.22352 9.289745 23.27154
34.435753 9.778114 24.163408
34.44441 10.025658 22.971485
35.364025 3.1513824 20.873707
35.299904 3.262294 21.57612
35.339108 3.1960065 22.090466
35.39202 4.0061684 20.100302
35.295143 3.654043 20.524055
35.066097 3.5879467 21.523602
35.035007 3.87264 22.449638
35.079105 3.949718 22.886818
35.39488 4.01151 30.545126
35.410122 4.07375 30.965086
35.193867 4.7548256 20.154905
34.973953 4.5628214 20.738503
34.789623 4.497217 21.417292
34.70367 4.455276 22.576248
34.871655 4.7403817 23.349741
35.2645 4.438464 29.872473
35.262295 4.4318943 30.528597
35.341793 4.54255 31.04204
35.194347 5.0040607 20.21546
34.84152 5.4569693 20.724825
34.54088 5.673087 21.481337
34.647068 5.503532 23.552313
35.14606 5.8169255 24.180433
35.407913 5.5717607 28.662506
35.384007 5.126011 29.42881
35.267475 5.3415174 30.435427
35.394966 5.430185 30.981592
35.174175 6.466623 20.143343
34.74674 6.5263667 20.793627
34.539577 6.957078 21.42075
34.495808 6.185184 23.644096
34.681763 6.7364078 24.019215
35.421764 6.2680655 27.21983
35.39335 6.2964654 28.711977
35.33591 6.0308647 29.449764
34.783085 7.2946467 20.862389
34.49565 7.1480675 21.323112
34.514008 7.4815173 24.379295
35.234604 7.557299 27.041307
34.98005 8.145271 21.0411
34.582268 8.400688 21.56077
34.67058 8.381456 24.706957
34.794598 8.823585 25.526218
34.992947 8.643838 26.436956
35.188427 8.477095 27.594452
34.798965 9.263278 21.855719
34.579628 9.738516 22.347683
34.507816 9.528143 24.541275
34.936333 9.755585 25.809078
34.94387 9.724313 26.50641
35.107285 9.352769 26.989426
35.36097 9.992201 33.823204
35.44135 9.756752 34.12817
35.07 10.524254 22.167658
34.735607 10.52271 22.638552
34.596287 10.652597 23.531775
34.621 10.271847 24.371614
34.73231 10.34523 25.50551
34.97178 10.543162 26.221983
35.44323 10.372457 27.821613
35.299828 11.045262 32.875698
35.235878 10.640668 33.513405
35.344276 10.261903 34.260468
34.980705 10.919785 22.720104
35.02253 11.169747 23.4318
34.938362 11.079227 24.350613
35.153667 11.325746 25.421108
35.246887 11.7462225 32.97116
35.156048 11.549917 33.631195
35.2781 11.555251 34.315544
35.464016 12.512235 28.62708
35.483696 12.84764 29.30339
35.374886 12.15977 33.024254
35.311935 12.29074 33.62737
35.326794 11.956764 34.286194
36.21827 2.2301428 21.74416
36.14928 2.2786162 22.344744
35.860744 3.213668 20.166656
35.746273 3.0140674 20.623003
35.704086 2.818245 21.276035
35.64353 2.9149756 22.3589
35.984646 2.9580948 23.035334
36.135265 3.3696434 30.070627
35.98123 3.3319578 30.643703
36.098946 3.342653 31.056728
35.773796 3.6555386 19.878426
35.507057 3.4872508 20.259527
35.45765 3.7327323 23.30231
36.25708 3.8736398 28.838766
35.676228 3.7809887 29.811123
35.653942 3.6659198 30.523897
35.828365 3.7859907 31.378448
36.11616 3.8373063 31.798529
35.801277 4.3601956 19.655193
35.303616 4.6727653 23.756042
36.317764 4.840627 27.54396
35.876423 4.534625 28.61549
35.531857 4.2700324 31.340546
35.989754 4.448635 31.935438
36.163174 5.555874 19.46869
35.436615 5.3364725 24.19248
35.761673 5.899432 25.667673
35.820763 5.6493855 26.72366
35.507866 5.930164 28.614738
35.54536 5.032345 31.505045
36.1747 4.9573293 32.057102
36.279648 6.775021 19.127201
35.680576 6.528048 19.682379
35.535213 5.9611173 30.595314
35.691635 5.8804765 31.360672
36.185318 7.52842 19.130796
35.538677 7.116537 19.793713
35.76845 7.5189037 29.079926
36.084904 8.109556 19.733067
35.624752 8.751913 20.593014
35.561436 8.457487 28.426329
36.11415 8.168846 29.688726
36.25504 8.630502 29.737785
35.98725 8.925156 33.47048
35.72384 9.157957 34.2287
36.086647 9.096983 34.844643
35.870193 9.211528 20.973116
35.903664 9.400417 29.69391
36.144753 9.894304 30.47459
35.780426 9.832456 32.856216
35.53027 9.665704 33.575714
35.61021 9.489118 34.346443
35.91779 9.612566 34.99851
36.279606 10.012114 35.663296
35.97251 10.137528 21.32983
35.65125 10.332307 21.725533
35.495926 10.740383 27.40428
35.62888 10.660402 28.878626
35.99994 10.779587 31.672853
35.72846 10.145161 32.83066
35.583435 10.226274 34.72662
35.716232 10.512143 35.036274
35.57705 10.9701395 22.138212
35.614914 11.372448 22.667452
35.477436 11.489868 24.619925
35.329536 11.567229 25.138014
35.53626 11.297832 27.819439
35.56047 11.612638 28.185904
35.569862 11.306229 29.347416
35.78835 11.935474 30.511694
35.873566 11.194751 31.380615
35.8912 11.587881 35.190323
35.675884 11.635396 23.725086
35.992638 11.872307 24.95941
36.00411 11.801256 25.259441
36.241604 12.199778 26.844595
35.859108 12.492897 27.712326
35.550896 12.691362 28.84362
35.59976 12.788876 29.244848
35.795727 12.40022 30.280224
35.503742 12.568118 33.52621
35.609398 12.390437 34.390125
36.047855 12.280521 35.17198
35.93711 13.171981 27.952457
35.73491 13.28003 28.70712
35.59822 13.264627 29.392748
35.907917 13.185884 30.248444
35.969803 13.195301 33.704212
35.962666 13.113102 34.16334
36.199677 13.013082 34.93013
35.963608 13.745046 28.631289
36.050358 13.893224 29.474417
36.65878 2.2693925 21.041714
36.66756 1.9753089 21.805407
36.716373 1.9104748 22.358788
36.90129 2.1608467 23.111013
36.422966 2.9284906 20.180565
36.38003 2.6557102 20.593729
36.556644 2.6381137 23.405107
36.748833 2.9339547 23.7596
36.70669 3.276812 29.551905
36.401375 3.1836731 30.637564
36.543167 3.234152 31.280148
36.784203 3.326469 31.73782
36.330322 3.9514246 19.404202
36.809006 4.016588 27.697727
37.015606 3.5312848 28.510324
36.293633 3.4315526 31.55299
36.495655 3.7209196 31.927366
36.45462 4.513609 19.270351
36.943256 4.931277 25.675436
37.001667 4.490704 26.98471
36.57065 4.5594954 27.404959
36.586014 4.393334 32.172325
37.154842 5.7860184 18.800665
36.708633 5.13024 32.183666
36.48295 6.596251 19.0013
37.218227 7.4945693 18.156527
36.484383 7.5828166 18.848759
36.927494 7.9698777 30.381466
37.01672 7.3958373 30.788582
37.07253 8.262773 34.627342
37.100956 8.320484 35.00695
37.209076 8.016137 18.368343
36.859806 8.222179 18.757633
36.70674 8.505211 19.257011
36.728725 8.13272 30.313906
36.75451 8.760337 31.026712
36.37636 8.524379 33.414963
36.402714 8.645327 34.62403
36.706615 8.788005 35.27329
37.012894 8.71041 19.104628
36.798637 8.754254 19.401356
36.54666 9.768806 35.752384
36.614483 10.198429 21.22695
36.58698 10.50709 21.545195
36.80925 10.3776045 36.04272
36.581665 10.8945465 21.854034
36.325047 11.765105 35.55372
36.784264 11.417609 36.065224
36.458923 11.620361 22.530573
36.460022 11.8580265 23.453932
37.046402 12.29378 25.110418
36.46267 12.500193 35.45093
36.915874 12.293013 35.91719
37.00155 13.005823 26.816996
36.69006 13.327749 27.513067
36.50707 13.476583 32.885235
36.497604 13.563864 34.70821
36.89986 13.365085 35.305798
36.785984 14.255473 28.753649
36.880615 14.385511 29.571028
37.03762 14.172749 30.599829
36.99444 13.716554 31.538332
37.015636 14.052115 33.88846
36.82001 13.886214 34.59652
37.10812 13.711401 35.313854
37.442818 23.982359 34.62095
37.454494 23.960524 35.124588
37.457226 24.563274 34.764786
37.416798 24.381985 35.127155
37.313404 36.050896 30.91248
37.1974 36.128143 31.591259
37.316055 36.83645 30.27404
37.175385 36.616745 30.718435
37.02225 36.612236 31.50569
37.18374 36.662598 32.030323
37.394886 37.278557 30.13474
37.178192 37.316345 30.708637
37.076702 37.24848 31.526196
37.22354 37.24076 31.988794
37.37012 37.878986 30.70809
37.324963 37.861282 31.317564
37.234085 2.12029 21.080324
37.445362 1.7346389 21.737566
37.55398 1.7396481 22.475441
37.398865 2.0549908 23.115162
37.44002 2.5777316 23.709845
37.186073 3.2497492 28.898985
37.65029 3.057174 29.72466
37.47766 3.0282786 30.340069
37.32335 3.180259 31.280003
38.436005 3.9112093 14.524096
37.88212 3.969936 26.950476
37.84122 3.6135743 27.513178
37.565952 3.3851535 31.553675
37.270824 3.651691 31.853321
38.449505 4.4414015 14.472924
38.38226 4.942871 17.458624
37.73755 4.885856 18.576624
37.73716 4.7055545 24.63197
37.464375 4.544247 32.121593
38.20849 5.612097 17.108902
38.16234 5.874601 17.743505
38.324833 6.7876897 17.359612
37.338326 6.1420927 18.510168
38.14631 7.421303 31.47649
37.380367 8.413266 33.158485
37.757687 8.070391 34.527817
37.721066 8.223042 35.32913
37.565388 8.151463 18.285357
37.37372 8.424522 18.547289
37.296486 8.566707 35.590057
37.767517 8.713409 36.020924
37.530388 8.94585 18.977228
37.591213 9.1714115 19.436962
37.399235 9.734849 36.34365
37.236526 10.004583 21.15179
38.107304 10.317088 36.779995
37.18292 11.04243 22.051178
37.452557 11.00906 36.536057
38.02245 11.826206 23.985928
37.253956 12.142842 24.563618
37.647778 12.182476 36.407303
37.950127 12.956069 25.154211
37.757874 13.273877 25.96617
37.47813 13.409512 26.735985
37.44087 13.602087 35.503395
37.700344 13.118447 35.973015
38.26232 13.748484 25.798164
38.027054 13.877792 26.769258
37.582844 14.103389 27.804457
37.44065 14.284319 30.575054
38.217953 14.453167 31.28811
37.653816 14.262284 33.878513
37.76 14.120098 34.796085
37.675255 13.8793745 35.32082
38.043385 16.553814 29.073593
37.903103 16.560825 29.621407
37.913296 16.10857 30.222944
38.1717 17.126116 29.482523
38.17584 16.847963 30.561687
38.12829 20.870203 30.629112
38.11082 20.851309 31.387484
38.17432 20.84823 32.331802
38.282692 20.650648 32.964317
38.18026 21.946005 28.913916
38.005646 21.727625 29.652086
37.875908 21.533403 30.351122
37.811825 21.675732 31.611137
37.99137 21.68619 32.540424
38.21393 21.469051 33.269394
38.23773 22.097504 34.33299
38.22717 22.0097 35.546696
38.081203 22.478231 28.878614
37.766132 22.617226 29.556526
37.698353 22.387478 30.269945
37.84412 22.406826 31.348354
38.15093 22.47418 32.525383
[...]
POINT_DATA 4768
SCALARS features_00 float 1
LOOKUP_TABLE default
0.45689586 0.41915643 0.44930184 0.36122417 0.42216402 0.4377069 0.38163906 0.43731105 0.43656716 0.38473073 0.41790938 0.4484157 0.42646596 0.35211265 0.4594974 0.44197646 0.38669586 0.4816088 0.5202566 0.51612496 0.5115801 0.4678859 0.4998826 0.5049399 0.47437054 0.45394933 0.6786789 0.69672877 0.40848625 0.45949495 0.48125646 0.45772654 0.40348747 0.6126503 0.6553294 0.6845865 0.38374949 0.36886162 0.39851427 0.374323 0.2643998 0.3870141 0.51524556 0.56352323 0.6037286 0.28970042 0.31173503 0.35023957 0.3753559 0.33647272 0.18212825 0.26285696 0.37070167 0.3144883 0.34742516 0.3111895 0.13845633 0.33122498 0.38340443 0.25753844 0.17788014 0.11260902 0.12119539 0.42318982 0.46767503 0.32193977 0.21057715 0.13217425 0.09596514 0.51071227 0.5256896 0.48334765 0.5045524 0.49516627 0.41830212 0.3160555 0.22563462 0.10282817 0.42327222 0.4907643 0.52753675 0.51568806 0.50394523 0.46375075 0.3684138 0.45490378 0.52227104 0.55550605 0.33212975 0.345757 0.4745645 0.53886247 0.55347836 0.5944431 0.61392134 0.5035018 0.524228 0.536891 0.5353791 0.55751204 0.6618836 0.69306004 0.70926344 0.4728778 0.49944472 0.44325137 0.5180364 0.6448438 0.68762 0.7174362 0.7268733 0.3997473 0.35936168 0.30444658 0.479465 0.7082341 0.7325 0.2486375 0.25613335 0.03159011 0.17163214 0.32542434 0.694518 0.73568964 0.29466462 0.28330708 0.44839317 0.5575941 0.3321668 0.3027594 0.10278256 0.31011826 0.28085774 0.09135223 0.026329137 -0.0022161156 0.5154734 0.52775836 0.5450658 0.28914762 0.0077745095 -0.043218806 0.42382059 0.49871498 0.533643 0.5448695 0.52545786 0.3586905 0.42237747 0.13422647 0.15023468 0.15690923 0.41553342 0.53759944 0.54141784 0.4694357 0.4974321 0.3919877 0.35857022 0.21612321 0.26262677 0.20515835 0.21988033 0.12983137 0.54032075 0.42288673 0.25219467 0.21562186 0.1701263 0.33353686 0.34082413 0.34392667 0.3076446 0.5310934 0.5525284 0.5382432 0.35305223 0.3756089 0.38028008 0.39558345 0.5275179 0.5463957 0.5501528 0.39160848 0.42047608 0.5812175 0.6518316 0.6873491 0.7010117 0.4999768 0.5319571 0.6490098 0.61453223 0.60201246 0.68604296 0.70865756 0.7125137 0.39502588 0.33387312 0.41524136 0.72231615 0.7262724 0.29830492 0.018550262 0.22131732 0.289086 0.7351874 0.1446796 0.72624195 0.27305862 0.34380442 0.3355922 0.020335637 0.091998816 0.49621588 0.49537057 0.3553349 0.3436754 0.32505962 0.008582681 -0.07030107 0.5279844 0.53191 0.52672577 0.3269333 0.3071664 0.5223876 0.2852866 0.32758656 0.47783458 0.35557374 0.51060843 0.46654212 0.41159704 0.34589297 0.058415554 0.5263882 0.49275002 0.1033194 0.2506299 0.43847162 0.56488687 0.55491006 0.39321935 0.3757543 0.2699079 0.22459783 0.5751071 0.5818815 0.5692067 0.63137716 0.69479823 0.74490356 0.754995 0.9137225 0.9648857 0.89454746 0.9533184 1.0 0.9754864 0.88236374 0.9642912 1.0 0.9654968 0.94347095 0.9678811 0.6227058 0.7135638 0.72007513 0.7038436 0.6551099 0.46459 0.54861635 0.6259333 0.66947186 0.80754036 0.16059676 0.22454493 0.6583315 0.689258 0.8187533 0.14351381 0.039823383 -0.017065272 0.6710731 0.16350913 0.14532408 0.3178631 0.18266816 0.1514246 0.45836508 0.4370038 0.44847548 0.3617496 0.35367757 0.48268312 0.45222777 0.32801855 0.28826034 0.4669059 0.19735788 0.41409156 0.28275535 0.41881186 0.054369368 0.099372 0.45814586 0.002062954 0.02445243 0.08337667 0.5625002 0.52792346 0.01400429 0.058039904 0.18147379 0.20668237 0.120044276 0.5099373 0.5528623 0.56871593 0.27634186 0.33957574 0.29793945 0.31209087 0.374385 0.37642527 0.29432088 0.29058486 0.3441071 0.4186965 0.4578188 0.43894285 0.3169776 0.28291392 0.32314056 0.43556336 0.5952219 0.46665537 0.5305346 0.5134374 0.3809929 0.2721796 0.3477443 0.4536338 0.625533 0.687088 0.5040432 0.5416526 0.5330739 0.48437893 0.30301306 0.5731542 0.6199411 0.67803025 0.75433946 0.5255029 0.5109456 0.6171895 0.74663156 0.8056365 0.83002126 0.78745544 0.8316303 0.85761 0.87944174 0.74940753 0.7618131 0.7542668 0.79583544 0.78188944 0.87791216 0.8776404 0.81280226 0.91358745 0.89249134 0.8318207 0.9036565 0.9568508 0.915768 0.8644225 0.84386724 0.88637257 0.93168694 0.893039 0.6465317 0.7027341 0.67019475 0.661156 0.8450602 0.789855 0.46129343 0.5579558 0.5444433 0.14872831 0.4879489 0.5234522 0.5541374 0.9605367 0.9112394 0.80771947 0.68930054 0.4042826 0.27007967 0.28733662 -0.15321222 0.0389423 0.5273266 0.6092216 0.95761245 0.9136071 0.84414226 0.5989121 0.87712765 0.8085442 0.6194418 0.37727493 0.7753426 0.37314653 0.38172925 0.38816416 0.38264298 0.3562945 0.42698464 0.420981 0.35363716 0.3391431 0.41330558 0.28687596 0.13227457 0.08859681 0.38868302 0.18229738 0.37499678 0.12246117 -0.020107191 0.41471705 -0.007445003 0.51503974 -0.0064917626 -0.0047707744 0.028507235 0.25856405 0.3890115 0.47106388 0.48260954 0.059166476 0.11775364 0.16041395 0.35443896 0.14509186 0.20637451 0.1793204 0.2929212 0.033680625 0.1972042 0.40763375 0.43387145 0.26196238 0.24114646 0.40804747 0.44821402 0.51976395 0.22829232 0.3055814 0.56239533 0.6311234 0.3620535 0.40698355 0.6858629 0.71339613 0.39892426 0.49171907 0.75317246 0.7507679 0.44566655 0.43910128 0.3848946 0.8265347 0.78850603 0.41860127 0.36441466 0.62864614 0.83703136 0.85826254 0.805559 0.81049466 0.6146282 0.6169407 0.65997916 0.66770244 0.644817 0.6199818 0.53986055 0.6325901 0.70979947 0.68755007 0.57818687 0.79195184 0.6336523 0.72765625 0.83372796 0.82422936 0.64453626 0.7463514 0.7947682 0.81073916 0.8259144 0.7578311 0.8009167 0.7741904 0.69993025 0.6437782 0.6503047 0.60144925 0.92019844 0.8600652 0.75038743 0.46291745 0.429995 0.09966481 0.075937435 0.3189906 0.41599005 0.97997534 0.42320058 0.23950972 -0.08796228 -0.037673533 -0.017849192 0.009865418 0.42128503 0.9664805 0.912397 0.8775027 0.27083328 0.7978519 0.7596786 0.5298364 0.37180778 0.16026154 0.27258262 0.30530086 0.34333202 0.71624744 0.7229105 0.38125098 0.37362915 0.376893 0.39051348 0.69697976 0.36454338 0.35606295 0.3268163 0.38921052 0.32534054 0.33193982 0.27449748 0.06797902 0.35217732 0.3298936 0.34140202 0.31683794 0.027310178 0.37324646 -0.004948303 -0.09504057 0.4787833 0.4299284 -0.064045936 -0.0670699 0.06459148 0.21897405 0.3712762 0.45831993 0.50473017 -0.0713087 0.015307274 0.092316486 0.21928787 0.079281494 0.09828688 0.2661034 0.2344599 0.024275169 -0.19986513 0.21922207 0.12672329 -0.024412729 0.076475136 0.31195268 0.42935166 0.12870423 0.45024228 0.6026872 0.61124325 0.6887622 0.09166417 0.26462814 0.7555356 0.34224135 0.7528329 0.516589 0.4656006 0.29658386 0.189953 0.17473896 0.09966936 0.5512029 0.6754974 0.63018155 0.707711 0.54006785 0.5118711 0.3841363 0.64212793 0.60920733 0.60501826 0.5647986 0.50618863 0.36891383 0.50168407 0.5638521 0.5575006 0.5487187 0.37971494 0.3918954 0.565162 0.40074754 0.4336578 0.6828735 0.4119831 0.47212335 0.68783915 0.5533318 0.5937028 0.5681302 0.6678158 0.6732166 0.6157426 0.74334836 0.73114824 0.7277572 0.77494025 0.7481865 0.69626045 0.7397905 0.6333801 0.9398682 0.8836279 -0.09629914 -0.07546426 -0.028098509 -0.011067912 0.96923715 -0.2557863 -0.18840405 -0.06840253 0.17896478 0.31838655 0.9179354 0.8887733 0.7965592 0.6872739 -0.024482481 0.7347018 0.74775594 0.7418002 0.6679146 0.48114774 0.7513535 0.7531619 0.74269533 0.740787 0.7196108 0.30004492 -0.08666535 0.12105486 0.16112629 0.7221546 0.71819925 0.7194213 0.73297286 0.7200439 0.36716962 0.3464461 0.5954454 0.65575814 0.67283916 0.7112156 0.67398095 0.3657419 0.35109335 0.31872454 0.6742914 0.6487486 0.2533363 0.18987903 0.2960309 -0.07244195 0.2687929 0.28160807 0.029462721 0.27833283 0.42436498 -0.06322215 -0.34860754 0.24459869 0.41992646 0.41487432 0.53301597 0.39782107 0.15082803 -0.09866651 -0.3822414 0.53445077 0.4555304 0.2927714 -0.10589377 -0.21206936 0.10045478 0.50237966 0.44591486 0.20078863 0.15701067 0.030926948 -0.15437147 0.19452775 0.34594795 0.14502269 0.08731105 0.00084318593 0.21092477 0.18743905 0.17847326 -0.1566983 -0.05193448 0.2317349 0.23270516 -0.10887967 -0.21545528 0.364034 -0.073196635 0.30225676 0.39128655 0.024009457 0.43490368 -0.023741866 0.6422045 -0.03243732 0.70847875 0.38757056 0.29800415 0.64781195 0.500599 0.5004011 0.09172947 0.009160377 -0.023128442 -0.0080968365 0.45816886 0.53328025 0.5476311 0.55637467 0.5605123 0.4003271 0.11581098 -0.050930396 0.13054547 0.57744914 0.5770961 0.47101304 0.37094012 0.52365756 0.57973015 0.53670913 0.58387244 0.31926322 0.4248488 0.40449318 0.40576357 0.3564482 0.40522933 0.2837575 0.33810762 0.4518566 0.33576655 0.5291062 0.36890146 0.42470697 0.386472 0.45542318 0.50076157 0.39803773 0.4310115 0.4596174 0.47338998 0.6426692 0.62570727 0.5988432 0.6378561 0.6466758 0.6393073 0.5489354 0.47111136 0.62718165 0.6369965 0.45057133 0.589376 0.5327817 0.52516377 0.43779594 0.779327 0.7856257 0.7752789 0.8100277 0.7932892 0.14127265 0.25874943 0.33053002 0.8552997 0.5665596 0.4759346 0.10998282 -0.1548508 -0.06559369 0.8919867 0.81668544 0.13059042 -0.12278527 -0.048955172 0.8676856 0.8044458 0.67425036 -0.130626 -0.04862988 -0.048537042 0.63735867 0.653136 0.7274332 0.630648 0.4450431 -0.054201726 0.6794775 0.68378055 0.7159326 0.6784643 0.6650357 0.37383085 0.28887084 -0.09534135 0.7468041 0.69420195 0.67369366 0.3410997 0.33701417 0.03961468 0.17921808 0.7225121 0.6953075 0.6660734 0.34232798 0.28462607 0.16657439 0.1370801 0.53108734 0.6232525 0.33249122 0.24843112 0.2033602 0.26328284 0.3627614 0.4509098 0.5175691 0.53559446 0.061640136 -0.07523075 0.2344887 0.24836928 0.47496027 0.4757226 0.31155875 -0.12362808 -0.10339311 0.5241331 0.48435476 -0.12836936 0.565287 0.5452918 -0.18088096 0.5630876 0.5572521 0.1350924 0.50667065 0.5192532 0.17664298 0.19945903 0.44782615 0.3250463 0.19877888 0.16859409 0.21536069 0.21431696 0.031319156 0.21983293 0.23858301 0.17906256 0.030469943 -0.15046217 0.11571616 0.20699194 0.22670612 0.18479201 0.059277184 0.12524953 0.27568597 0.32989514 0.18512619 0.083945185 0.03894807 0.3533603 0.016805843 0.45401406 -0.04047578 0.606377 0.3490655 0.0712544 0.5109179 0.4846266 0.35059398 0.43329096 0.5257246 -0.15897726 -0.018480938 0.0029053688 0.030112911 0.5192686 0.0804171 -0.068470836 0.46573418 0.4985414 0.40614244 0.29043284 0.11201122 0.39532363 0.23409191 0.5466038 0.48233858 0.37619746 0.32861292 0.60826063 0.5872665 0.4955489 0.59256804 0.612799 0.59017146 0.5463099 0.43961 0.588172 0.58871293 0.55624855 0.075229436 0.08866557 0.15039547 0.092008635 0.20316285 0.08617481 0.1551612 0.11979319 0.13631986 0.26207182 0.22463758 0.28890234 0.28521535 0.33042583 0.26286831 0.3451211 0.24977355 0.61178887 0.59190536 0.62672246 0.63084424 0.62007415 0.545372 0.4324787 0.35837537 0.6318097 0.64335215 0.42255688 0.34235662 0.25735378 0.5901847 0.3254254 0.28737426 0.6015154 0.3322353 0.35516363 0.79133034 0.37860727 0.21969263 0.23324852 0.12007016 0.34002662 0.3781163 0.38240337 0.8067727 0.82087797 0.8251548 0.6739795 0.06515749 0.08863233 0.037027195 0.32421035 0.8030523 0.7956412 0.79009616 0.68699837 0.55618244 0.5280112 0.10379762 -0.09207342 0.07175334 0.72688645 0.7217413 0.6768355 0.6105194 0.5435298 0.32222766 0.13284756 -0.11033465 -0.42047143 -0.040962253 0.6269326 0.576517 0.5717546 0.5893426 0.58262765 0.31950742 -0.06916246 0.6103305 0.6010027 0.5951761 0.6065341 0.2562988 0.24200442 -0.094417326 0.67146325 0.614082 0.6267408 0.29800177 -0.19224817 -0.00028640032 0.10727464 0.15161234 0.1346087 0.07995653 0.114831194 0.5358855 -0.3459694 0.18637256 0.4940427 0.47391087 -0.37285388 0.19287583 -0.0027302727 0.078138925 0.43855852 0.46340322 0.03490051 0.17481656 0.1596283 0.32650796 0.42822802 0.18659502 -0.25350198 -0.1623244 0.214089 0.21762235 0.1698085 0.41305202 -0.2989258 -0.12551923 0.06856906 0.19426736 0.23521179 0.2319479 0.51755637 -0.10503927 0.5271163 0.06630042 0.4633157 0.15393633 0.35761708 0.4278793 0.15522012 0.23954007 0.15089573 0.12606251 0.18025106 -0.16446999 -0.13854402 0.15424941 -0.059657305 0.2070984 0.06281592 0.07924138 0.23912002 0.011345759 0.29441985 -0.028658673 0.20165838 0.34012866 0.31288937 0.3525717 -0.07880515 0.38967273 0.38217393 -0.06711474 -0.13482724 0.0077321045 0.02377748 0.28797764 0.34097987 -0.19173735 -0.15005219 0.21404101 -0.051697083 0.26690724 0.44857913 0.05325097 0.3290786 0.3835112 0.3466722 0.55349666 0.28492954 0.4098442 0.333843 0.5177389 0.57769704 0.35189345 0.282766 0.27035353 0.5367938 0.04017377 -0.014214419 0.41124603 0.074909605 0.14661607 0.14927989 0.44006264 0.18021092 0.18260425 0.38351402 0.49200314 0.19725741 0.20240563 0.34235433 0.4024421 0.50386953 0.0955003 0.16896738 0.36234513 0.46679246 0.51249075 0.08548246 0.12938304 0.13517505 0.59267384 0.5605215 0.51954955 0.58693796 0.35250095 0.2629867 0.17741908 0.5394228 0.5907808 0.114792734 0.5273963 0.57511955 0.20919327 0.2795675 0.45808655 0.18741168 0.17059186 0.2743998 0.33873105 0.36570185 0.201506 0.37153012 0.3433458 0.022358388 0.27681735 0.09315843 0.062403657 0.6357808 0.0398881 -0.08288599 -0.1290128 -0.47605532 -0.131726 0.52933717 0.55333114 0.51112896 0.45943207 0.5035678 0.5397805 0.21986759 0.14275065 0.5226979 0.025030717 0.0723144 0.08590365 0.13383462 0.07698588 0.5447924 -0.083557785 -0.44549665 0.5903053 -0.54706204 0.47485983 -0.574531 -0.37144125 0.42892653 0.45224875 -0.1609779 0.1401364 0.030862888 0.25971046 0.29601872 0.3680337 0.25215268 -0.53371483 -0.35558215 -0.1896216 0.17277521 0.124148585 0.3335393 0.3318259 -0.45788637 0.1571148 0.25008667 0.26399943 0.2323315 0.38241714 0.36604518 0.42672247 -0.103492714 0.35899624 0.10005805 0.25462684 0.20280868 0.070390455 0.06609215 0.04088928 -0.119454525 0.04738532 -0.22792768 0.32855508 0.17343917 0.09151325 -0.21347094 0.17886922 -0.005614683 -0.11486616 -0.028664839 0.043795064 0.06857816 0.13401714 -0.07159379 -0.01444675 -0.03212313 0.022889087 -0.06366852 0.082680404 0.15460464 0.21005082 0.15396452 0.23056132 0.22830638 0.2716892 0.39913785 0.26484284 0.19677502 0.42480433 0.24270928 0.14229429 0.40348965 0.42821097 0.37580955 -0.09278841 0.33830607 0.2723881 0.19945866 0.017642371 0.36087292 0.4412862 0.14376414 0.58665454 0.63116986 0.1835903 0.5889528 0.6370311 0.2288535 0.22860578 0.5400592 0.5674908 0.620054 0.35030463 0.3364459 0.56488997 0.58058953 0.054228667 0.16119024 0.2249378 0.33037883 0.38742644 0.5338141 0.5712919 0.55546296 0.49627447 0.44674724 0.2957138 0.28747416 0.26365864 0.18617278 0.46722364 0.4719785 0.13759954 0.4919747 0.04322859 0.0431894 0.16621932 0.24257518 0.26552835 0.28113025 0.32942626 0.08094127 0.27983925 0.066468455 0.11464955 0.34366986 0.13049386 0.0042044073 0.279594 0.050854743 0.12395251 0.12638493 0.17218527 0.27788818 0.390927 0.40245497 0.4319034 0.018983204 0.1383169 0.20165764 0.21804456 0.25370583 0.44330052 0.48494607 0.17506395 0.033152148 0.081153065 0.07181056 0.1311828 0.5034317 0.6853132 0.16316018 0.6724119 0.59226394 0.4021898 -0.079019524 -0.28431964 0.5216427 -0.47063076 0.44260857 -0.25438383 0.38076544 0.38856232 0.41404343 -0.015099654 -0.0063918447 0.0044708103 0.13317584 0.24896522 0.34167802 -0.33462885 0.24315085 0.19767678 0.17602521 -0.31006524 0.3140893 0.1273458 -0.27372307 0.18377355 -0.038058445 0.020580452 -0.06090215 0.076309055 -0.08830558 0.25379154 0.28256348 -0.17429799 -0.089605205 0.34756154 0.36554426 0.33504665 -0.09225851 -0.0352296 0.3809012 0.33743936 0.18155539 0.04667339 -0.058316536 0.058339603 -0.21284914 -0.09745823 -0.1451053 -0.15410721 -0.21236922 -0.10457788 -0.04002204 -0.072630286 0.29881862 0.3884275 0.47274756 0.16032746 0.4007424 0.48548582 0.51592606 0.27593222 0.2545278 0.38561255 0.42176995 0.4601515 0.27370125 0.23870777 -0.056432806 0.070020005 0.11930154 0.17053244 0.2541711 0.2973519 0.31625035 0.15625387 0.09283643 -0.33903247 -0.0457033 0.06312391 0.14378949 0.18272263 0.21357211 0.07719123 0.1323713 0.2854186 0.15101114 0.14722346 0.3541 0.011379458 0.37448257 -0.09792174 0.24918419 0.3063929 -0.15156668 0.16292724 0.2638858 0.35717517 0.17633182 0.16995887 0.52101696 0.5768256 0.10892551 0.6754939 0.13414949 0.15479486 0.6731261 0.21149027 0.6173119 0.65017617 0.31863323 0.3731863 0.29471177 0.5907843 0.38266805 0.35353893 0.18933025 0.0010647178 0.24311596 0.33285007 0.4637577 0.5132421 0.57328063 0.5636702 0.34393215 0.41994065 0.23476675 0.3259846 0.3725081 0.3460186 0.30262503 0.3445071 0.21359691 0.2625634 0.21782318 0.36875984 0.38408983 0.12849233 0.36614913 -0.00012914836 0.11919169 0.17049333 0.19505164 0.21073258 0.20451514 0.18210465 -0.0071689636 0.2390033 0.19406682 0.21023904 0.28916025 0.4172863 0.46021885 0.3116198 0.40576562 0.41006482 0.052245945 0.31872457 0.3214856 0.08778563 0.2493925 0.29412538 0.34128973 0.341795 0.44309652 0.2606091 0.12245224 0.16201495 0.13939571 0.36487067 0.42572498 0.5942901 -0.028619416 0.4296806 0.46780694 0.7212117 0.70977414 0.6938064 0.53415155 0.53655857 0.6558608 0.54785347 0.08083104 -0.18918175 0.44305813 -0.47030458 0.39757293 0.4134707 -0.28815824 -0.15827337 0.17956468 0.3838867 0.3836642 0.15749334 -0.20708641 -0.07300827 0.058795217 0.10575666 0.048249777 -0.038984112 0.02715753 0.07261248 0.38338065 -0.31337628 0.16881041 0.3028072 0.007233575 -0.006461911 -0.34094113 -0.46271127 -0.2733295 -0.15626988 -0.20259649 0.10883704 -0.056537427 0.26058513 -0.058583617 0.35080576 0.3653772 -0.04679063 0.38430047 0.38328528 -0.087251425 -0.13044642 0.23783353 0.0068302006 -0.12867305 -0.0066778287 0.23995414 0.36366493 -0.0663211 0.30709663 0.46392852 0.5129044 0.19274059 0.5192901 0.5103512 0.20398508 0.253768 0.43308145 0.4762239 0.49450263 0.23278366 0.4161288 0.45597833 0.16776079 0.18193671 0.35868326 0.43727946 -0.027687415 0.10445816 0.13188975 0.08632163 0.06965154 0.26679927 0.10425173 0.05846531 -0.33881378 -0.070863776 0.043862067 0.3427388 -0.24487966 -0.093284376 0.31123626 0.15680012 0.27839994 0.2503819 0.28659967 0.40222067 0.12696174 0.10041741 0.09308732 0.6840723 0.102554694 0.14396937 0.6766759 0.23176378 0.6410799 0.3234076 0.1760987 0.50749475 0.5774016 0.39504364 0.2562651 0.44789076 0.47009814 0.5045771 0.2897535 0.42320406 0.43966603 0.46528202 0.39184797 0.43552378 0.44738126 0.46061206 0.30876398 0.36293897 0.29458284 0.1356834 0.23438224 0.18657574 0.054494753 0.09508313 0.15781432 0.14558533 0.17847268 0.13324207 0.2148529 0.444552 0.48369718 0.5202041 0.55224276 0.33738333 0.5117819 0.50289816 0.23730789 0.41867673 0.39793485 0.37223232 0.2600729 0.26850066 0.21501628 0.3767736 0.002770856 -0.55449206 0.15319723 0.15041938 0.09305805 0.1484102 0.29090106 0.6489117 0.5518987 0.39847344 0.6826347 0.42940414 0.46736938 0.6755526 0.5176227 0.6194942 0.5510032 0.4467364 0.11025748 -0.17382737 0.39297205 0.19138832 0.0165436 0.41609928 0.3974964 0.19683468 -0.19850805 -0.071545705 -0.024682112 0.027916372 0.041631676 0.107672565 0.13063116 0.32695502 0.40458637 0.41623586 -0.36834157 0.15171814 0.12870854 0.043810066 0.10178881 0.04108176 -0.013962707 -0.0041542985 -0.75115204 -0.1032488 -0.17753536 -0.1352439 0.3458405 0.46028417 0.059071373 -0.068265624 0.34501565 0.5003221 0.19250809 -0.0858378 -0.07912436 0.09046267 0.30237472 0.4763173 0.2880332 -0.11016101 0.18834263 0.38127992 0.33243865 -0.11134128 -0.08809327 0.24400038 0.2655605 -0.1139381 0.23615299 -0.10073115 0.33756602 0.00017749518 0.4924758 0.49841046 0.51382536 0.5089665 0.148323 0.12977767 0.5115558 0.1506881 0.073705316 0.48788744 0.5199405 0.46622366 0.5166445 -0.1756869 -0.28976515 -0.14005531 0.0040390044 0.091615014 0.20678572 0.026506469 0.18646927 0.2368586 0.12570211 0.06687181 0.5238687 0.15178609 0.532941 0.20743227 0.25968185 0.48082513 0.537243 0.30713952 0.34690046 0.46256912 0.40087283 0.36064643 0.33436298 0.2695403 0.44878346 0.3942827 0.40842885 0.47245234 0.46931672 0.49228957 0.49847096 0.44546196 0.43253314 0.4831164 0.504517 0.502159 0.36043996 0.43130013 0.1724035 0.2293267 0.3893696 0.17616822 0.14245582 0.25057048 0.17744222 0.09970158 0.19764516 -0.035506167 0.4697468 0.5952097 0.61269397 0.59332144 0.20226738 0.51866984 0.56984466 0.5319859 0.19534582 0.47764218 0.13632412 0.47336274 0.4277085 0.11552365 0.148927