# vtk DataFile Version 2.0
Really cool data
ASCII
DATASET POLYDATA
POINTS 8211 float
8.281872 30.078476 56.05141
8.164256 30.081787 56.52975
8.198533 30.146742 57.30699
8.061879 30.726088 55.899025
7.858523 30.651278 56.627304
7.893879 30.738655 57.228893
8.188117 30.87024 57.848076
8.092676 31.569122 55.716095
7.7518134 31.42756 56.62694
7.7895017 31.525774 57.315617
8.122258 31.544704 57.92266
8.169398 32.035294 55.84038
8.04361 32.23373 56.542114
7.9800706 32.16546 57.305485
8.238152 32.194916 57.799175
8.271635 32.607803 57.06547
9.249436 10.10787 53.60623
9.356075 9.8992405 54.305706
9.375643 10.4186735 53.0036
9.253998 10.418952 53.456295
9.100589 10.65457 54.413284
9.160393 10.781623 55.407967
9.345517 10.912434 56.111416
9.393922 10.892553 53.05537
9.139056 11.09961 53.79452
8.91812 11.624587 54.67906
8.957137 11.591845 55.48957
9.302217 11.973452 56.390514
9.153285 12.053261 54.112812
9.024047 12.06377 54.485035
8.950593 12.178865 55.547348
9.34875 12.700256 56.392437
9.250164 12.917783 54.63513
9.059144 12.902416 55.297913
9.353656 14.150353 56.49079
9.155015 14.825074 54.78468
8.955397 14.560611 55.189384
8.850652 14.916927 56.22387
9.118112 14.996513 56.95347
9.118559 15.474568 54.666546
8.74009 15.470713 55.50541
8.773653 15.670985 56.234196
9.1215725 15.43454 57.021446
9.230919 16.268913 54.802006
8.911933 16.208054 55.554493
8.98439 16.474852 56.263546
9.23327 16.456482 57.237232
9.235043 17.064894 55.70098
9.237198 17.204004 56.612877
9.3456745 17.145178 57.19655
9.143199 30.26996 55.32786
8.728558 29.965029 55.880688
8.496274 29.776546 56.493404
8.651794 29.78367 57.25282
8.765782 29.965206 57.71609
8.699626 30.913588 55.246796
8.35234 30.505484 55.701267
8.687526 30.684076 58.12824
8.698153 31.574284 55.14001
8.393155 31.61814 55.412785
8.610532 31.610727 58.308277
9.023678 31.424633 58.56722
8.848344 32.098347 55.219444
8.549504 32.302254 55.613888
8.406811 32.612305 56.208378
8.383807 32.487034 57.614838
8.525301 32.27424 57.984787
8.820741 32.79637 56.02285
8.734288 32.819706 56.65089
8.61891 32.780396 57.229584
10.107377 9.20081 52.949364
9.92205 9.144374 53.60975
9.988659 9.095267 54.314945
10.02792 9.1979475 55.003136
9.830614 9.691328 52.82962
9.570565 9.557033 53.562176
9.65979 9.507618 54.44898
9.701982 9.78947 55.35912
9.906723 10.192777 56.366093
10.2102 10.129804 56.919838
10.038417 10.442781 52.409164
9.64313 10.443202 52.676136
9.51515 10.297537 55.407627
9.696346 10.411634 56.25752
10.316184 10.474308 56.993813
9.836515 11.22961 52.832325
9.452311 11.495064 53.347466
9.7103 11.161729 56.663204
9.734811 11.860644 53.247562
9.366261 12.064168 53.908264
9.791205 12.284775 56.959396
9.888701 13.484589 54.186348
9.465424 12.995163 54.34294
10.077954 13.833243 57.466824
9.821907 14.824672 53.817684
9.560133 14.867426 57.223755
9.710223 15.540164 53.905552
10.19186 15.844174 58.190056
9.905468 16.386978 54.11654
9.70352 16.378395 54.30312
9.824328 16.582546 58.042118
9.496808 17.380224 55.43526
9.509243 17.665377 56.65505
9.674615 17.41365 57.485157
9.829006 17.13842 57.94556
9.777372 17.977257 55.83369
9.824969 18.050512 56.411785
9.826836 17.832222 57.218548
10.429278 21.960264 49.697174
10.391959 22.509964 49.799706
10.428791 22.584469 50.32266
10.430648 22.951035 49.784264
10.418863 22.94028 50.165073
9.880831 29.372698 57.441864
9.23246 30.195719 55.340893
9.312383 29.779428 55.92574
9.160506 29.549553 57.409576
9.969682 29.868273 58.23639
9.605643 30.65644 55.028717
9.497608 30.616272 58.48472
9.799866 30.914516 58.797775
9.364028 31.386473 54.837337
9.298872 31.863958 58.44026
9.396391 31.741737 58.606796
9.466294 32.281555 55.1103
9.166983 32.595055 55.43907
9.721458 32.458817 58.389057
9.585924 32.723614 55.527718
9.200874 32.988842 56.70553
9.684133 33.050938 57.33106
9.510242 32.766106 58.086304
10.620928 8.999892 52.86747
10.511791 8.783579 53.5152
10.540862 8.835652 54.5137
10.762858 8.786773 55.23722
10.705923 9.213382 56.428234
10.998997 9.169231 56.96446
10.550197 9.886089 52.342518
10.523134 9.430485 52.541748
10.579952 9.439269 56.58169
10.900156 9.736005 57.658028
10.907464 10.016839 57.966362
10.544108 10.467127 52.287533
10.583984 10.24443 57.59451
10.946545 10.460152 58.213814
10.286912 10.885776 52.373558
10.467863 11.365531 52.641556
11.133419 11.365515 58.414665
10.556944 11.919391 53.153908
10.263034 11.957853 53.407513
10.955429 12.3395 58.111053
10.952929 13.576421 53.56176
10.929096 13.376957 58.299133
10.753537 14.529069 53.13154
10.390141 14.414811 53.560143
10.852785 14.118725 58.31077
10.609254 15.252066 53.01617
10.592808 15.667976 58.40345
10.818097 16.332829 53.18959
10.5661955 16.352749 53.39822
10.711677 16.752094 58.502205
10.635957 16.433662 58.629745
10.826476 17.525671 54.51088
10.584322 17.334038 58.244534
10.831787 17.022024 58.568577
10.7130575 17.852125 54.833546
10.530586 18.2564 55.578285
10.555278 18.414608 56.30924
10.432769 18.145306 57.231163
10.739624 17.84928 57.90869
11.217862 20.201239 48.927197
11.123125 20.197844 49.380104
11.283958 20.907877 48.359272
10.958944 20.765877 48.833336
10.8138895 20.692541 49.42837
11.027986 20.877293 50.245842
11.182517 21.474684 48.304775
10.876153 21.5795 48.660255
10.57141 21.622871 49.494267
10.614855 21.659084 50.27424
10.901663 21.934698 50.868885
11.267168 22.332092 48.214397
10.832824 22.463854 48.825855
10.515527 22.565332 49.326
10.518683 22.725285 50.577187
10.797792 22.69132 50.863415
11.042216 23.289026 48.95984
10.604507 23.22534 49.717
10.7635565 23.360521 50.414417
11.007963 23.309559 50.805534
11.094132 23.652939 49.210083
11.082515 23.719013 49.667114
10.974859 23.665632 50.135624
11.460746 26.985043 57.665813
11.403036 27.459837 57.475567
11.414196 27.400906 57.98498
10.645715 29.227022 56.064713
10.973251 29.209352 57.791565
10.901512 29.714224 54.95718
10.698216 29.41949 55.459534
10.581238 29.611996 58.228775
10.561884 30.217642 58.784393
10.984306 30.78483 54.313953
10.486656 30.88621 54.52548
10.405099 30.628937 58.93378
10.776658 31.726814 54.380005
10.22806 31.34566 54.586266
10.979693 31.406301 59.345448
11.104272 32.200634 54.435772
10.672229 32.237984 54.656994
10.982627 32.519485 59.50796
11.496539 32.383278 61.921474
10.930552 32.738476 54.919197
10.736585 33.00949 55.535557
10.301634 33.172626 56.59337
10.5565815 33.08124 58.4627
11.200635 33.523994 59.37583
11.45044 33.642284 60.821953
11.193405 33.99199 58.782494
11.265624 34.087288 59.19186
11.482371 8.425047 55.15286
11.418489 8.849945 52.92252
11.20658 8.591583 53.605415
11.3392105 8.564866 54.178356
11.443609 8.543649 55.610157
11.602965 8.764148 56.585846
11.761806 8.895221 57.165955
11.864582 9.325343 58.126537
11.394552 9.897048 52.366966
11.579342 9.606177 52.525703
11.585 9.709366 58.277985
11.901499 10.015926 58.65107
11.249305 10.14237 52.285225
11.366172 10.36948 58.529194
12.114404 11.041892 59.056965
11.382592 11.152456 52.72889
11.873412 11.690793 59.305195
12.173197 11.956881 59.751045
11.728091 12.253739 59.361076
12.160098 12.550038 59.887066
11.952475 13.67027 59.40505
12.0372 13.591509 59.741554
11.236472 14.298674 53.13846
11.779058 14.732945 59.24262
12.136911 14.183127 59.6993
12.107448 15.687448 51.69544
11.842852 16.020721 52.155033
11.278379 16.292658 52.84197
11.924668 16.65942 59.150566
11.977232 17.013453 53.026363
11.46158 17.091974 53.5898
11.777603 17.567122 58.489788
11.876998 17.060112 58.835705
12.346275 18.77803 49.02771
12.304779 18.633654 49.393078
12.376872 18.424444 50.109047
11.551701 18.054487 54.897156
11.630044 18.334438 55.289158
11.718167 18.246365 57.567387
11.855504 18.023403 58.088284
11.646007 19.928219 48.721733
11.6213665 19.70745 49.478897
11.635317 19.856606 50.2291
12.081211 19.71557 50.773926
12.05467 18.547352 55.25998
11.644495 18.621286 56.609455
11.5622835 20.683407 48.229477
11.592652 20.312878 48.40694
11.490178 20.609915 50.612045
11.59828 21.654835 48.016518
11.649847 21.734276 51.187145
11.585066 22.264486 48.09013
11.565616 22.425632 51.25495
11.815309 23.147654 48.12422
11.41356 23.393623 50.87883
11.881619 24.002329 48.910366
11.336611 23.83806 49.609108
11.648937 23.759665 50.482212
12.077005 26.156809 56.787758
12.054338 26.022661 57.438236
12.057964 26.24791 58.358025
12.293825 26.37918 56.280186
11.803595 26.711771 56.760406
11.74396 26.45666 57.197067
11.761306 26.588083 58.268684
11.999936 26.813604 58.98133
11.638629 27.434061 56.555256
11.518608 27.4906 58.42879
11.954432 27.557236 59.02782
11.922599 29.17097 55.01704
11.60199 29.626192 54.7966
11.725604 30.55119 54.24858
12.022165 30.343485 59.03396
11.964188 30.771978 60.34714
12.05561 31.048584 62.37762
12.159121 31.109026 63.134197
11.612538 31.337961 54.1703
11.493807 31.927021 60.62354
11.782042 31.6184 61.6313
11.777295 31.605381 62.626896
12.014252 31.566643 63.21742
12.236031 31.931059 63.655636
11.6656065 32.2639 54.320282
11.599214 32.598484 61.477196
11.602269 32.549232 62.522945
11.912975 32.5382 63.29201
12.237623 32.59944 63.661938
11.482092 32.738564 54.655552
11.829448 33.211246 55.32028
11.643843 33.465206 61.485004
11.844946 33.64198 62.428474
12.08176 33.32321 63.156963
11.993645 34.76353 57.93268
11.492049 33.98919 58.42589
11.639264 34.799038 59.547573
11.786722 34.672253 60.45856
11.933831 34.318813 60.976105
12.139609 34.158844 62.174515
11.969378 35.43113 57.88996
12.007456 35.833263 58.703136
11.685266 34.983685 59.05521
11.920455 35.337215 60.496223
12.188053 36.4587 57.77504
12.236914 36.486 58.42563
12.204043 36.528904 59.75996
12.218437 36.307632 60.475506
12.341594 36.838963 57.627506
12.366145 36.914753 58.482567
12.422331 8.399767 55.426445
11.920406 8.863697 53.231155
12.161111 8.572438 54.55686
12.513977 8.6113205 56.400574
12.561061 8.8191 57.49384
12.511387 9.172876 58.0409
12.012701 9.261353 52.93242
12.378809 9.392673 58.27765
12.608582 9.953556 58.819202
12.052561 10.580093 52.722248
12.48938 10.646619 59.16427
12.458445 11.300577 53.343704
12.622372 11.565035 59.802624
13.274767 13.236468 52.07486
12.98435 12.537082 60.245167
[...]
POINT_DATA 8211
SCALARS features_00 float 1
LOOKUP_TABLE default
0.8276042 0.87759805 0.8827184 0.8676774 0.9496336 0.95582163 0.84525484 0.8671614 0.9898087 0.9440812 0.8259106 0.83430886 0.86142683 0.85639894 0.78363913 0.8002786 0.737198 0.6618011 0.75506985 0.72108555 0.6269225 0.5128796 0.4272267 0.6864542 0.6159585 0.5402436 0.52972126 0.43760717 0.47363564 0.4779513 0.49895152 0.37135884 0.3539157 0.41123754 0.35293853 0.3693611 0.40022168 0.505636 0.46544683 0.44360527 0.540542 0.5805322 0.52601427 0.5111418 0.57441396 0.6034537 0.58836025 0.6044487 0.61928725 0.6093809 0.66040057 0.7505378 0.82664895 0.8138468 0.736634 0.75159156 0.81222177 0.72431886 0.7410578 0.80306333 0.7233802 0.64484334 0.70729846 0.76376164 0.7867985 0.7635028 0.7359936 0.73048747 0.7506411 0.74610907 0.8672538 0.7767913 0.65559274 0.5327637 0.8557311 0.7786424 0.6365595 0.48162073 0.38791084 0.3751592 0.8031149 0.77923733 0.4841628 0.39418817 0.36238426 0.66251206 0.5886544 0.37657672 0.5261643 0.46792305 0.3095492 0.19561654 0.30314118 0.18302575 0.2994455 0.39078376 0.38429546 0.41974843 0.43007416 0.45503142 0.53036875 0.60863435 0.63084555 0.5991113 0.55846107 0.6315735 0.6362855 0.61204994 0.7690972 0.7706269 0.78555506 0.75609124 0.7734861 0.5371493 0.64151055 0.6610086 0.6973325 0.47312638 0.5921032 0.5640645 0.48880732 0.6391561 0.6105612 0.5787995 0.6103652 0.6629855 0.5261959 0.60294104 0.69385266 0.6071226 0.5866643 0.87918305 0.78544664 0.61206007 0.50733286 0.416956 0.41390055 0.86538184 0.88841695 0.403449 0.3964635 0.38582712 0.80700266 0.37267947 0.360234 0.750265 0.6730473 0.30076414 0.50644827 0.47089928 0.20906419 0.115205035 0.113753475 0.24416554 0.2392228 0.117928736 0.30438316 0.3232315 0.2996741 0.33803713 0.43277478 0.4011819 0.41665518 0.48404026 0.4306482 0.46956187 0.5528964 0.5864447 0.5851368 0.50584567 0.5121945 0.53870195 0.54644334 0.58705986 0.6306894 0.6671474 0.59179485 0.6475794 0.7440047 0.77193415 0.76278126 0.5883144 0.684549 0.7376543 0.7815659 0.7725105 0.6411555 0.7366375 0.74996245 0.74165845 0.6429975 0.6819358 0.7147696 0.51666695 0.46366093 0.44970238 0.42390966 0.20818615 0.36796477 0.38680726 0.33968967 0.32979664 0.38452226 0.44883886 0.35391894 0.4162184 0.49915215 0.19178164 0.36539978 0.4281221 0.10063894 0.46691048 0.3724039 0.4006206 0.541476 0.18110898 0.071137644 0.20126988 0.061543398 0.08337627 0.4973262 0.8482332 0.74287254 0.6310344 0.4681307 0.43340462 0.42530948 0.4010799 0.8103894 0.8180392 0.38821548 0.34720606 0.8015109 0.35016364 0.25546187 0.6817614 0.22864074 0.18805623 0.1962896 0.1597158 0.12307002 0.12522905 0.18821946 0.09384668 0.11281947 0.06481248 0.0805161 0.21611321 0.22537376 0.067953244 0.2373856 0.3474229 0.29786912 0.29881018 0.28945917 0.24052276 0.39554906 0.41625044 0.41540056 0.36546612 0.444835 0.45466402 0.4557392 0.3234666 0.37585247 0.41995764 0.49246728 0.46529338 0.5581112 0.54107714 0.6184317 0.5476588 0.67462146 0.46855137 0.6966416 0.49394572 0.64642453 0.6445625 0.53770363 0.553182 0.51902515 0.4816376 0.5292631 0.5434783 0.51020277 0.42516065 0.4599313 0.4019267 0.3315372 0.20222932 0.2731642 0.30637756 -0.01411923 0.08839797 0.48793972 0.51921594 0.3212308 0.25692242 0.44647002 0.5420336 0.5562262 0.56576747 0.29451564 0.3858804 0.52722883 0.5646812 0.5637314 0.29079333 0.17700249 0.31760144 0.43258846 0.520357 0.19286636 0.07692969 0.1436023 0.16120651 0.19104439 0.34185246 0.22423902 0.20156437 0.14995219 0.19085273 0.229023 0.21955591 0.24242029 0.25097254 0.2225734 0.22326791 0.43396664 0.7716758 0.5130569 0.4059744 0.38423026 0.37370574 0.77810466 0.36943078 0.2803793 0.63029665 0.23293549 0.37925965 0.17554657 -0.0074502826 0.138564 0.031317063 0.12874784 0.15281309 0.30201554 0.27865857 0.13897291 0.16630372 0.29787704 0.23689649 0.13723227 0.2800049 0.27974066 0.25348863 0.24885574 0.18615557 0.078213625 -0.09519155 0.097063124 0.27001572 0.028479032 -0.12497534 0.25326303 0.20168109 0.26178524 0.29438403 0.31611374 0.14769107 -0.019520957 0.3161148 0.28454477 0.25558925 0.36427754 0.33073664 0.09645004 0.42825717 0.50387394 0.4880502 0.369699 0.4856832 0.5590147 0.5388922 0.42399007 0.35239455 0.43902552 0.23598692 0.4830215 0.56031984 0.54462343 0.47052252 0.3688415 0.4217872 0.5037682 0.48259813 0.37021402 0.23841122 0.5283898 0.4528936 0.39963382 0.3653033 0.22383715 0.20195621 0.07290375 0.1256373 0.08267985 0.21138847 0.19469076 -0.23626316 0.14126515 0.30546504 0.34053877 0.24463697 0.47260287 0.27043712 0.53968346 0.5262147 0.17848328 0.5550126 0.12416348 0.09616987 0.50748193 0.50204754 -0.018291991 0.090746544 0.29223043 0.42857003 0.07344377 0.19640364 0.21696827 0.1508803 0.2826277 0.32198215 0.45730639 0.20875052 0.20219806 0.22871275 0.29170877 0.31834692 0.3934878 0.52670264 0.5505834 0.28563496 0.37893438 0.4895816 0.5326886 0.5271393 0.51337516 0.43767315 0.3216488 0.27755874 0.21811098 0.095432095 0.15017721 0.11382872 -0.09594984 0.12749176 0.18831651 0.20623177 0.15465172 0.19592053 0.2315792 0.26576245 0.19289313 0.20756586 0.2699957 0.16800493 0.18434173 0.27456453 0.015512541 0.105794095 0.24510257 0.2662659 0.04220441 0.22052528 -0.05308798 -0.042749718 -0.030464217 -0.048032638 0.1613771 0.0588782 -0.018225782 0.17576961 0.021863565 0.00699705 -0.04348183 0.18856627 0.0036077201 -0.010545418 -0.038248748 0.39139056 0.35524842 0.50336623 0.20256838 0.088144645 0.49671412 0.54113 0.17020556 0.039570075 0.4325879 0.4098997 0.41453317 0.27688965 0.16263384 0.5352135 0.18670934 0.31178948 0.39071536 0.17083904 0.14216079 0.49506664 0.4877326 0.4529393 0.41207248 0.3470476 0.10956694 0.14945732 0.069375515 0.43841517 0.40411 0.007181704 0.11680416 0.03390249 -0.030487716 -0.11416488 0.09926065 0.2935151 0.2774524 0.12055692 0.14038527 0.37231362 0.42076182 0.1576041 0.1812211 0.472165 0.1485936 0.12395643 0.49705577 0.46471512 0.09133977 0.40993485 0.02016398 0.02327682 0.28741482 0.35646963 -0.006987419 0.0053822473 0.34978878 -0.019726224 0.012138702 0.52485466 0.5822296 0.59121656 0.18627322 0.1612469 0.15992458 0.12534389 0.2780068 0.4413063 0.56142294 0.6148163 0.6394745 0.20398775 0.2678626 0.34702164 0.3361333 0.42124844 0.47314593 0.47503167 0.49271634 0.7658905 0.74765503 0.7137229 0.7151302 0.7188755 0.66589034 0.5806743 0.53897905 0.6420347 0.53734887 0.5246506 0.5197984 0.0877915 0.29165748 0.39365682 0.43682057 0.5086757 0.39505726 0.3892329 0.26647153 -0.27170503 0.323553 -0.02725482 0.10682206 0.17196065 0.72855484 0.78730714 0.85180056 0.3187632 0.17645566 -0.03781362 0.20923436 0.6142316 0.71605086 0.8074981 0.8491768 0.19242054 0.21681009 0.20329633 0.4470325 0.54540396 0.61590135 0.7085864 0.749586 0.23950446 0.21694158 0.14874896 0.37710172 0.45572108 0.5090574 0.57332855 0.6641975 0.24634115 0.25652567 0.174914 0.33583727 0.4445616 0.5245703 0.5831193 0.239194 -0.08455256 -0.08422973 0.2133524 0.27787855 0.35422093 0.41884464 0.52686656 0.14016885 -0.011750117 -0.010183411 0.2541641 0.3062163 0.09077897 -0.07334276 -0.19775774 -0.120657414 -0.053965215 0.049545452 0.07784413 0.053302355 0.046795964 0.072635256 -0.038909227 -0.17436188 -0.13710605 -0.03674888 0.06399278 0.109356865 0.041598864 0.28602135 0.17071757 -0.025587723 -0.060198493 -0.12102191 0.023874775 0.12625949 0.11673921 0.3836456 0.35167542 -0.050434038 -0.00068002194 -0.045967516 -0.054185584 -0.046626672 0.07808204 0.111622855 0.09120204 0.16365436 0.17097838 0.27154365 0.27714258 0.42920047 -0.016211927 -0.15285406 -0.0110818 -0.03603445 0.012114193 0.033495672 0.07725968 0.20966393 0.2665863 0.2956049 0.29451907 0.4310125 -0.11565676 -0.16370532 0.089788534 0.271185 0.15382811 0.11584907 0.13522752 0.0353624 0.10849497 0.3078178 0.4594351 -0.15972276 0.11019097 0.08374499 0.3919793 0.17484793 -0.010210484 0.40992546 0.4165195 0.39284223 0.3412511 -0.11553005 -0.09813229 -0.02407432 -0.16606838 0.04944551 0.055006407 0.00032272935 0.20068188 0.14864014 0.07267995 0.29728287 0.12711312 0.3520203 0.36180547 0.39832076 0.028627597 0.35385692 0.33437645 -0.050902724 0.2849654 -0.035716865 0.38732976 -0.028977558 0.5512582 0.2963075 -0.002206036 0.64492726 0.38917404 0.36359262 0.27039996 0.12558906 0.66433424 0.6681249 0.40392718 0.3817351 0.3141058 0.18253729 0.47476667 0.35196435 0.48997873 0.60571593 0.64661705 0.39659965 0.36546195 0.32101452 0.17087647 0.21565506 0.49452358 0.49422902 0.33122212 0.31736666 0.3868926 0.50054085 0.504326 0.50032675 0.41737387 0.4792298 0.5102463 0.5074418 0.505523 0.7829074 0.7816285 0.74681216 0.6649561 0.7286384 0.601485 0.48547024 0.63465637 0.44342887 0.54605716 0.24780057 0.2909987 0.41027063 0.44643134 0.039892327 -0.14996056 0.44696194 0.43114847 0.46044284 0.37749523 0.660079 0.2593661 0.61095184 0.6313014 0.4330759 0.3541045 0.1748037 0.5302754 0.49785185 0.3012091 0.18269362 0.05619142 0.7189691 0.8309986 0.91027296 0.9001469 0.40875763 0.24899867 0.14416333 0.11452603 0.5468058 0.86324656 0.8362819 0.21783447 0.22739291 0.30742466 0.7819338 0.7924439 0.24084902 0.035898894 -0.047108278 0.6822423 0.7303114 0.23024985 -0.10697214 0.63401186 0.70183045 0.22069351 -0.1822759 -0.19111049 -0.10697281 0.09974736 0.43915594 0.50964427 0.6146164 0.6783159 0.15380387 -0.09160791 -0.021919852 -0.14632994 -0.08157247 0.17075348 0.2184816 0.30032 0.38146132 0.49916434 0.010023683 -0.11741855 -0.16758786 0.15770012 -0.009535894 -0.15895809 0.0044004787 0.05743318 0.0992766 0.24266785 0.13080785 -0.16328734 -0.14126211 -0.0791222 0.04880123 0.03284552 0.12881185 0.19548167 0.22668661 0.24728616 0.32319364 -0.03261286 -0.06963842 -0.16177203 -0.06705512 0.118621014 0.1899328 0.26328376 0.28060776 0.33918175 0.34696576 0.33840463 0.34183958 -0.04125324 -0.07403321 -0.27242938 -0.11488037 0.280809 0.28423372 0.32663622 0.33730924 0.29233646 -0.16806185 -0.22070631 -0.13343543 -0.16027662 -0.5040815 0.13204488 0.22094208 0.2624758 0.18595243 0.1676302 0.30395812 0.35531384 0.28724778 -0.17849457 -0.21905422 0.015223521 0.13876294 0.20378636 0.23313427 0.3548291 0.32926148 0.29107442 -0.073726 -0.081077814 -0.12652963 -0.08985102 -0.061572567 -0.04507352 -0.009051526 0.39012784 0.40739274 0.19204742 0.23688309 0.29326242 0.17953993 -0.00058189034 -0.086818255 -0.1470702 0.401003 0.43003488 -0.17009854 -0.010328488 -0.0090107545 0.08871574 0.18436573 0.22937998 0.2747211 0.1935145 0.015448801 0.24483876 0.28164893 0.11721488 -0.03874878 0.15371169 0.2084992 -0.14713226 0.2599154 0.28968418 -0.03342107 -0.11159036 0.5660243 0.37600684 0.3530211 0.17247623 0.66860986 0.3860535 0.39230606 0.45177087 0.65104413 0.6871179 0.46556535 0.45692605 0.43727005 0.39792952 0.3923794 0.4075023 0.58473295 0.6478973 0.44855678 0.44472152 0.42165768 0.39650664 0.38629344 0.39206353 0.35687745 0.45686084 0.4227071 0.39867997 0.35201424 0.29737765 0.3549906 0.36893395 0.3377382 0.25259894 0.20087998 0.4846711 0.30424204 0.25960225 0.25136742 0.29114962 0.4097718 0.4725853 0.50804466 0.49277225 0.48565412 0.27432603 0.2779348 0.44711405 0.48481113 0.50313056 0.48330656 0.31713712 0.41559088 0.75148195 0.69801104 0.63084173 0.7722352 0.771175 0.7237773 0.59361386 0.51409 0.7652291 0.45842978 0.40608013 0.67322373 0.33654168 0.19654903 0.35154504 0.41555154 0.44350433 0.49360976 0.22603741 0.44937533 0.43750677 0.4141705 0.3767616 0.6714978 0.61319715 0.524582 0.3989138 0.21322244 0.64149535 0.36333328 0.05513536 0.50908935 0.53468317 -0.064019635 0.07494721 0.7238584 0.9011382 0.92562807 0.8666991 0.4181161 0.41368777 0.4624642 0.837463 0.8265808 0.28793833 0.79251885 0.23843396 0.7748598 0.2253133 0.7364239 0.66593283 0.7033148 0.11203034 0.34199607 0.497963 -0.14709206 0.25118 -0.062419765 -0.09693104 0.059100322 0.23913883 0.43920907 0.18464944 -0.0034827664 -0.10832195 0.30284894 0.30463216 0.32038778 0.4247409 0.34855694 0.3157009 0.31559652 0.33979243 0.37408286 -0.1496915 0.2858977 0.32012808 0.36233026 0.314259 0.33238855 0.37332565 0.37135756 0.39834613 0.38135588 0.03893697 -0.06540834 0.07198252 0.10080092 0.40320328 0.40899146 0.40549126 0.3985053 0.33315784 0.021588678 -0.1991652 -0.024390139 -0.016023237 0.033928454 0.26087242 0.36975056 0.43079162 0.43648446 0.3825758 0.30441192 0.24589384 0.19921449 -0.049911156 -0.24392994 -0.15983163 0.24912024 0.36970252 0.44426495 0.4572043 0.47444755 0.47173 0.3045153 0.25290695 0.21938168 -0.12291829 -0.124512844 -0.008926712 -0.04185766 0.41667828 0.47650248 0.49163097 0.5326028 0.51007676 0.48634773 -0.035278715 0.025758527 0.06312922 0.07272342 0.5102124 0.5648643 0.55915403 0.5300668 0.027061164 0.11802614 0.113769166 0.51051533 0.5435686 0.5542748 0.33087113 0.14579228 0.17424288 0.37043875 0.3408181 0.13026647 0.18904662 0.3073721 0.0738731 0.14587912 0.21806103 0.12737995 0.01688314 -0.029980443 0.034340035 0.09642893 0.28472072 0.27126285 0.4422754 0.34278005 0.5555738 0.4682371 0.49513954 0.47446448 0.43302125 0.35063863 0.34091842 0.09139363 0.33135378 0.53988004 0.59531474 0.6371362 0.40495726 0.454961 0.4803606 0.46426868 0.43512493 0.36632067 0.3046915 0.33294404 0.36997405 0.012289256 0.38798904 0.3942933 0.42397505 0.35378584 0.29161978 0.24646549 0.3506138 0.38187075 0.3658232 0.39297515 0.2412071 0.21852665 0.30485135 0.39660808 0.3015484 0.28427273 0.28778738 0.25088003 0.21534309 0.2540612 0.24126509 0.25266534 0.26923594 0.25007665 0.24868505 0.12415859 0.4177352 0.37246156 0.030974325 0.15026271 0.19168979 0.33224607 0.35286403 0.4071321 0.46512127 0.47705573 0.43990278 0.46405226 0.4510793 0.4031657 0.34366947 0.02094553 0.14060807 0.11067201 0.253439 0.33354115 0.40334305 0.3921367 0.45620465 0.42764544 0.41477078 0.337036 0.14584461 0.30860204 0.4462824 0.45010775 0.42077127 0.68632686 0.64368033 0.59643877 0.45075393 0.3887778 0.4064737 0.3993552 0.39010355 0.3059482 0.21906708 0.34759596 0.3916731 0.42684096 0.7764151 0.7343198 0.6441384 0.6129937 0.5560654 0.40101385 0.4151882 0.41416317 0.38915572 0.74941516 0.66268796 0.60964954 0.5876271 0.49921465 0.41019374 0.41578227 0.4099375 0.571226 0.55031383 0.46589518 0.7036334 0.63549674 0.58266085 0.736179 0.7305689 0.5520723 0.5067441 0.47164732 0.67833185 0.41158536 0.37738958 0.3785522 0.42129034 0.08936294 0.19286814 0.35448807 0.4069399 0.42359954 0.5075378 0.38656828 0.31189367 0.33462578 0.57098275 0.39281377 0.3478016 0.23683298 0.21509059 0.50952345 0.56689245 0.006258361 0.45060694 -0.12999311 -0.0715588 0.81224585 0.8525068 0.8291191 0.36239746 0.29448944 0.028229948 0.75514615 0.79191893 0.7904303 0.7750511 0.10972629 0.79435813 0.14067455 0.7670532 0.11513735 0.69314903 0.72186327 -0.050106026 0.5193309 -0.3057228 -0.43725014 0.26163608 -0.41857013 0.19677445 0.24467011 0.51865065 0.42978764 0.21647835 0.171953 -0.30069056 0.259372 0.31310773 0.3348818 0.50575703 0.4961506 0.32366654 0.34802416 0.33745107 0.48621738 0.43850595 0.36329648 0.34801093 0.43433738 0.35365736 0.4049334 0.37391034 0.3665253 0.4095583 -0.19936799 -0.16414735 0.4248482 0.42572576 0.37682602 -0.06405194 -0.07751733 -0.096724354 0.44870102 0.29619682 0.2504608 0.09267863 -0.10876247 -0.1262253 -0.12743375 -0.19390102 -0.02217734 -0.00946576 -0.017601507 -0.14151213 0.33914575 0.5023442 0.4796431 0.11202796 -0.21029446 -0.038370594 0.34278774 0.49543166 0.4822064 0.18655577 0.18054414 0.0796079 -0.05163811 0.44908953 0.52647316 0.52700055 0.49445033 0.27138102 0.15925129 0.09442937 0.48131442 0.36786175 0.23671117 0.5436189 0.5505622 0.38623983 0.1352717 0.19215342 0.24385682 0.5546004 0.57229495 0.5713093 -0.22298431 -0.0071864277 0.13867393 0.006212279 -0.09058895 0.09081352 0.43177003 0.21655264 0.35502142 0.40740663 0.4382053 0.42538095 0.37962824 0.20044161 -0.3653294 -0.2044315 0.24383473 0.4001177 0.3911776 0.2769359 0.28392887 0.2965064 0.2247679 0.42809802 0.40922186 0.395297 0.28468022 0.18410328 0.16839743 0.4202627 0.3810367 0.03553006 0.18718553 0.25142905 0.3229489 0.2551409 0.0059184283 0.20246068 0.17022578 0.17139395 0.1694891 0.32491913 0.28499296 0.3050862 0.073916584 0.11253181 0.13527143 0.10689424 0.30530834 0.40414357 0.41086143 0.51473665 0.36552817 0.90277106 0.8484223 0.68605787 0.6296094 0.55600375 0.26585698 0.41916278 0.40661 0.3576864 0.8969982 0.8386115 0.17377582 0.28255314 0.36816913 0.38626912 0.378605 0.8801927 0.7969726 0.6965132 0.26992333 0.36303547 0.24952328 0.81358755 0.74076796 0.60054135 0.5244826 0.45716572 0.3812005 0.28225726 0.25015384 0.25426677 0.44268227 0.54564166 0.62967455 0.5592533 0.49283913 0.50393844 0.49353686 0.59639376 0.46966404 0.4451305 0.4628492 0.38965458 0.3112517 0.18210688 0.28794876 -0.019677803 0.29542363 -0.37157565 0.28531507 0.42867348 0.39496702 0.17562035 0.3837797 0.34391904 -0.018264432 0.007155368 0.09563428 0.17968923 0.29512915 0.27419496 0.065679014 0.62990963 0.6952765 0.53609765 0.7383628 0.061501186 0.70927155 0.75269115 0.019150885 -0.073798984 0.74648726 -0.095682904 0.6975939 0.08244312 -0.51896906 0.07313402 0.6299306 0.61860096 0.43808585 0.1813288 0.11018005 0.16418701 0.20620918 0.2572204 0.5912273 0.5896647 0.22363804 -0.1402413 0.31013343 0.55691665 0.31339934 0.30794415 0.52239656 0.3090735 0.45618767 0.32387978 0.29351512 0.41062343 0.32006168 0.4069755 0.38500398 0.35614735 0.32820994 0.35272238 0.42056173 0.37953 0.17665565 0.10855889 0.19967522 -0.266709 -0.31331092 0.45119113 0.09173277 0.20170484 0.04743942 0.093710385 0.06376052 -0.016248934 0.44869137 0.044737175 0.017228238 0.054848194 0.059045605 -0.18414623 0.02418369 0.12171497 0.41470456 0.29150164 0.15579456 0.3362379 0.40542698 0.4595135 0.4307183 0.48738104 0.45399594 0.29605335 0.10067425 0.5623429 0.5055731 0.5191019 0.52514255 0.5220685 0.51313657 0.5822631 0.55733883 0.5469698 0.5822026 0.57809305 0.5596181 -0.5127418 -0.020437866 0.07092644 0.10732715 0.15364656 0.58553004 0.5680262 0.5775013 0.5923909 0.5712272 -0.053066086 -0.42929253 0.034025103 0.1329457 0.33069882 0.3901608 0.50557876 0.08046648 -0.3275329 0.3788361 0.37472597 0.36623496 0.38061532 0.22400394 0.11752848 -0.56162894 -0.42056262 0.42672992 0.398236 -0.3530264 0.45197135 -0.05120345 0.4479835 0.4135794 0.5289682 0.38719988 0.56397223 0.5678834 0.17129745 -0.08821504 -0.07002933 0.016117796 0.09103353 0.11278699 0.028569365 0.2481063 0.362866 0.540401 0.5910634 0.2707457 -0.0062918994 0.08240517 0.16336535 0.15601811 0.22799295 0.3708306 0.48740584 0.67758226 0.27337933 0.21562442 0.20857842 0.14677055 0.3225697 0.95201755 0.87758243 0.7345587 0.24114041 0.9713775 0.09279616 0.23345706 0.3160928 0.33217335 0.30583358 0.90985775 0.24696875 0.14593358 0.08213713 0.8355017 0.7321825 0.6502238 0.64783597 0.56606334 0.38541108 0.3146025 0.3513354 0.4022233 0.44571695 0.4813906 0.5287708 0.26463053 0.05817178 0.53089136 0.16541448 0.18250205 0.14039165 0.037896663 0.47101647 0.07094054 0.015755683 0.3710581 0.38245094 0.5365231 0.47919434 -0.04724668 0.38416785 0.35380748 0.15476665 -0.23004769 0.2376309 0.23754811 0.12034385 0.13179 0.1386467 -0.13670506 0.02790559 0.14072412 0.17983833 0.21055424 0.14641786 0.1975513 0.21688783 0.17274056 -0.23986343 -0.042022526 -0.17714587 0.07321558 -0.11085924 -0.032331325 -0.23093809 0.209345 0.6493568 0.64553577 0.5063412 0.31021786 -0.109696396 0.29577604 0.6192603 0.26077276 0.55639905 0.26215893 0.2611305 0.50871027 0.24460173 0.266257 0.4032485 0.25468332 0.38816783 0.25812665 0.2737739 0.4944098 0.48149467 0.36291796 0.41171205 0.2842251 -0.15285827 -0.375997 0.3405317 0.16582112 0.006776288 -0.042968668 -0.3793493 0.37971562 0.25673753 0.19965214 -0.015977986 0.007273188 -0.09259854 -0.030273244 -0.035476454 0.08268662 0.0707622 -0.1734829 -0.15470299 0.19961959 0.25281247 0.26309597 0.14507584 0.118754655 -0.2103572 0.10619941 0.08481805 -0.091349795 -0.060207102 -0.06440003 0.23711362 0.31487012 0.35982564 0.45540696 0.35845822 0.29979768 -0.018699847 -0.17166519 0.09987075 0.34176707 0.44536948 0.5848938 0.5692681 0.13420919 -0.022067644 0.64552677 0.62339336 0.40814063 0.1151181 0.08200524 0.07957755 0.6514001 0.6379127 0.58077335 0.4923311 0.11999746 0.067192376 0.023211464 -0.4483066 -0.15925263 -0.014322937 0.08580658 0.10771