# vtk DataFile Version 2.0
Really cool data
ASCII
DATASET POLYDATA
POINTS 7207 float
-12.589325 29.102077 23.629152
-12.5888195 29.077143 24.021492
-12.583991 29.784157 23.06332
-12.670689 29.453136 23.58757
-12.680406 29.534256 24.343721
-12.575348 29.89161 24.956589
-12.608857 30.274748 23.067944
-12.651772 30.340757 23.51544
-12.684851 30.396887 24.38401
-12.577252 30.381863 25.417965
-12.566939 30.872786 23.960108
-12.545073 30.940172 24.842934
-12.703536 33.785194 36.078857
-12.679857 33.627403 36.42692
-12.627807 33.706738 37.198776
-12.60778 34.154255 35.90714
-12.7074995 34.249123 36.613464
-12.658632 34.431087 37.021454
-12.563903 34.85639 36.969448
-11.778247 28.182863 1.9112301
-11.832823 28.038015 2.474836
-11.8202095 28.11847 3.0108855
-11.918178 28.584993 1.8227304
-12.077832 28.522572 2.5252101
-11.92678 28.619707 3.2461364
-12.213088 29.005844 23.013355
-12.248855 28.776392 23.598383
-12.237352 28.811392 24.289856
-12.069783 29.135033 25.424704
-11.84254 29.154264 26.048546
-11.609437 29.614904 0.97931063
-11.859404 29.364166 1.6087371
-12.097808 29.322462 2.5261126
-11.921781 29.308987 3.222328
-11.667723 29.309523 3.765384
-12.128638 29.921715 22.239462
-12.47234 29.559381 22.91953
-12.547677 29.32362 23.22316
-12.432671 29.578716 25.273905
-12.043828 29.66862 26.319992
-11.717213 30.19265 1.9078423
-11.931099 29.898949 2.2476206
-11.9114485 30.331287 22.052023
-12.264233 30.347538 22.542053
-12.47999 30.751238 24.5009
-12.4505415 30.63708 25.710958
-12.242648 30.446201 26.336422
-11.859932 30.516695 26.85445
-11.732894 31.04158 22.116772
-12.173616 31.146404 22.783709
-12.298138 31.411451 23.553484
-12.2578535 31.553394 24.395111
-12.283207 31.349161 25.474102
-12.185312 31.115496 26.182833
-11.755306 31.302511 26.826717
-11.589576 32.54968 22.377127
-11.9236765 32.188587 23.609636
-11.880198 32.348698 24.374187
-11.98075 31.870983 25.669819
-12.0653715 32.924343 35.82203
-12.133795 32.83102 36.655148
-12.136777 33.012295 37.30761
-11.567681 32.8538 22.654255
-12.008835 33.66444 34.714184
-12.443396 33.50055 35.80259
-12.419488 33.52174 37.386417
-12.011678 33.67226 38.088852
-11.511948 34.282322 8.515812
-11.671846 34.06946 33.81803
-12.022009 34.327736 34.88433
-12.350867 34.493645 35.771286
-12.524962 34.70378 36.24701
-12.428328 34.377827 37.53015
-12.075145 34.353207 38.084545
-11.862857 34.947964 35.06394
-12.070828 35.186287 35.88181
-12.313366 35.160862 36.52469
-12.197587 35.120438 37.309948
-11.934722 34.918987 37.966354
-11.823482 35.66537 36.63107
-11.85354 35.67456 36.96464
-11.427541 28.023272 1.7776713
-11.378075 27.741173 2.483257
-11.428888 27.934805 3.164799
-10.532147 27.799873 6.8359094
-10.56758 27.728056 7.204622
-10.964977 29.1084 0.30813587
-11.270161 28.688074 1.0076827
-11.587208 28.337688 1.5177791
-11.647528 28.307592 3.5572517
-11.503562 28.769392 3.9657478
-10.54528 28.140722 6.877279
-10.566384 28.189747 7.154169
-11.227875 28.563046 22.736917
-11.703613 28.506556 24.339962
-11.52559 28.796354 25.362558
-11.503183 29.12623 26.272015
-10.967887 29.620913 0.18721965
-11.361596 29.498209 0.65743065
-11.394175 29.284346 4.1233606
-11.380654 29.653297 21.850536
-11.690838 29.408651 26.53333
-11.596141 29.69663 26.805172
-10.881419 30.313309 0.15956995
-11.261627 30.349316 0.65630364
-11.437652 30.753954 1.8286139
-11.472273 30.678862 2.5214858
-11.513829 30.342697 3.1601765
-10.9088545 29.901258 4.197888
-10.758374 30.859083 21.30327
-11.41485 30.63247 21.812033
-11.386544 30.411615 27.133177
-10.927051 31.048841 0.77361757
-11.172724 31.246552 1.5578012
-11.455723 30.800306 2.2886481
-10.975277 31.150026 3.5159376
-10.598261 32.141655 9.18605
-10.777549 31.559221 21.268991
-11.173714 31.558083 21.550676
-11.294927 31.421934 27.101637
-11.035758 31.893402 33.817898
-10.944134 31.626886 34.108593
-10.949307 32.01115 35.51162
-11.128097 31.986135 36.308384
-11.09559 32.272972 37.173958
-10.763828 32.476604 1.8092692
-10.845351 32.628662 2.4917705
-10.715463 32.50445 3.4022486
-10.935324 33.02344 8.364043
-10.8780155 32.931965 9.332269
-10.804086 32.77241 21.289104
-11.271583 32.567585 21.748127
-11.472983 32.20798 26.561256
-11.119561 32.85066 26.876219
-10.887929 32.51518 32.91508
-11.344332 32.94997 33.56557
-11.553149 32.892967 34.19504
-11.6237 32.408295 36.22546
-11.419279 32.66782 37.498917
-11.209831 32.997375 38.109894
-10.650354 33.05155 1.9838651
-10.70278 33.09842 2.563289
-10.940758 33.911213 6.885966
-11.106379 33.59391 7.7818823
-11.3276005 33.706047 8.557235
-11.221345 33.740963 9.331554
-10.7346735 33.612484 10.140903
-11.099903 33.159096 21.879171
-11.249603 33.229076 22.466177
-11.282701 33.26584 23.484077
-11.280613 33.19016 24.24276
-11.192838 33.909313 26.448792
-10.836245 33.720642 27.426325
-10.642793 33.673683 27.826817
-11.475689 33.228138 33.5811
-11.51839 33.6581 38.428204
-11.2873745 33.78144 38.60133
-10.77574 34.861385 6.112488
-11.110427 34.629276 6.7383795
-11.353654 34.58513 7.640209
-11.444349 34.375248 8.618507
-11.371187 34.57241 9.221328
-10.748768 33.760353 23.086306
-11.171851 34.61515 25.79321
-11.285739 34.787712 26.50904
-11.0006275 34.59824 27.383823
-10.647092 34.375496 27.955046
-10.6768055 34.492935 32.89891
-11.342993 34.15621 33.58905
-11.543907 34.478264 38.441303
-11.356852 34.287544 38.565083
-11.083025 35.474194 6.791556
-11.295132 35.110992 7.5805016
-11.324903 35.292343 8.51862
-11.245331 34.956238 9.304131
-10.762115 35.060047 25.271338
-11.028142 35.43846 25.803625
-11.182552 35.32615 26.513287
-10.942641 35.49404 27.196991
-10.83211 35.16794 33.94467
-11.315768 35.134274 34.60564
-11.494769 35.57844 35.778732
-11.595416 35.54414 37.56678
-11.385741 35.122555 38.098164
-10.772162 36.029964 6.202163
-10.919492 36.22542 6.818855
-10.871687 36.397873 7.626024
-10.956809 36.248333 8.081753
-10.831808 35.813065 25.845516
-10.883588 35.96331 26.41195
-10.768406 36.049244 27.01667
-11.4489355 35.71185 35.975613
-11.324123 35.933353 36.63351
-11.423726 35.757435 37.260906
-10.638969 37.04691 6.7246304
-10.708993 36.886726 7.3350534
-10.571725 37.319088 7.983486
-9.752359 25.349524 20.069057
-9.810662 25.258013 20.65779
-9.792307 25.361208 21.267912
-9.891877 26.260277 15.800449
-9.97606 26.196589 16.60946
-9.692882 25.861265 17.540272
-9.711711 25.953226 18.308361
-9.896571 25.610624 19.895308
-10.256469 25.814192 20.686981
-10.125622 25.765923 21.394333
-9.791438 25.80719 22.004469
-10.098892 27.000416 6.6546426
-10.125822 27.003067 7.4146886
-9.859564 27.040733 8.058962
-9.533346 26.997807 11.097386
-9.590912 26.984415 14.623059
-10.041802 26.572777 15.799016
-10.205834 26.655134 16.481785
-10.089207 26.68627 17.220028
-9.985625 26.92835 17.882837
-10.107212 26.604752 19.8289
-10.427292 26.366537 20.665522
-10.434131 26.569275 21.278728
-10.24092 26.352451 21.867773
-10.659586 28.23141 1.1225727
-10.454411 27.894278 1.6759629
-10.810139 27.64998 2.4567068
-10.506764 27.755812 3.318679
-10.184648 27.72277 5.9893823
-10.458987 27.680977 6.6144123
-10.45581 27.543968 7.2383747
-10.042632 27.678465 8.344871
-9.618702 27.91051 11.694545
-9.5726385 27.501568 12.215623
-9.860054 27.287535 15.233763
-10.266391 27.484287 15.827098
-10.370925 27.381432 16.385098
-10.238052 27.29063 17.254503
-9.942514 27.66745 18.573372
-9.902045 27.173805 19.543936
-10.324184 26.937424 20.405724
-10.358725 27.372555 21.523035
-9.900365 28.012526 23.89225
-10.571256 29.033379 0.18375093
-10.479462 28.654568 0.5635209
-10.450045 28.26036 6.109004
-10.454304 28.41354 7.458787
-10.071723 28.377333 8.214521
-9.622578 28.253672 9.452228
-9.681598 28.18495 11.05564
-9.629457 28.341564 11.381942
-9.607132 28.429598 12.583286
-10.177291 28.320332 15.734134
-10.091737 28.423935 17.294504
-9.781121 28.285133 17.874557
-9.665197 28.47136 19.873648
-10.640758 28.608782 25.458433
-10.3946495 29.704893 -0.13219774
-9.590299 29.098225 9.151894
-9.642591 29.594576 15.009511
-9.967627 29.284199 15.699082
-10.011318 29.359848 16.431002
-9.845532 29.715391 17.427872
-9.684811 29.458021 18.316725
-10.573204 29.883987 21.519424
-10.774754 29.433844 26.87707
-10.52046 30.296936 -0.023647904
-10.196158 30.80482 4.1095376
-9.814461 29.75964 15.997969
-9.791843 29.996231 16.617891
-9.756521 30.07445 17.242401
-10.424163 31.009977 21.01004
-10.116617 31.228735 33.166756
-10.273809 31.234493 33.51082
-10.25696 31.233255 34.24819
-10.450636 30.894318 0.14387207
-10.6430645 31.440851 0.66956115
-10.541782 31.64846 3.8050756
-10.456825 31.960793 8.628642
-10.087608 31.613344 9.432502
-9.869601 31.549814 10.01604
-9.879054 32.205223 10.745531
-9.972214 31.26273 27.721027
-10.069425 31.990105 32.117813
-10.310538 31.790247 32.69531
-10.485159 31.465597 33.197613
-10.335566 31.558842 35.393
-10.378258 31.751856 36.503677
-10.298901 31.977182 37.104523
-10.2621 32.32922 0.88037145
-9.64296 32.375607 5.0804486
-9.833958 33.075615 6.6248493
-10.545221 32.46516 9.767029
-10.457694 32.894444 10.327808
-10.381194 32.19129 20.927776
-10.188754 32.580433 28.02019
-10.226155 32.69608 31.895529
-10.571813 32.80797 38.012825
-10.042185 33.10534 1.034078
-10.192004 33.35158 1.4443146
-10.415594 33.44614 2.169378
-10.508425 33.341526 2.9933457
-9.8309555 33.234276 5.006922
-10.5642395 33.933163 10.384668
-10.118132 33.759464 11.640758
-10.007672 33.507717 12.585078
-9.967382 33.787605 13.143129
-10.398475 33.310593 21.326
-10.183981 33.592278 28.47709
-9.791757 33.23855 30.990616
-10.213516 33.454582 31.718403
-10.525971 33.397686 32.30755
-10.625617 33.607243 38.441784
-10.907019 33.97962 38.626823
-10.038295 34.10676 1.9258027
-10.049299 34.308483 2.5214603
-10.1369095 34.519516 11.43066
-10.122075 34.542725 12.650147
-9.988738 34.286583 13.248837
-9.734349 34.378986 13.701834
-10.197588 33.791138 21.74698
-10.663389 33.745922 22.275135
-10.682402 33.86619 23.383114
-10.431558 34.13209 24.794819
-10.030356 34.72613 28.499624
-9.738807 34.17477 28.762476
-10.134307 34.186897 31.90387
-10.544498 34.33112 32.649998
-10.607685 34.587803 38.461178
-10.868108 34.22663 38.623558
[...]
POINT_DATA 7207
SCALARS features_00 float 1
LOOKUP_TABLE default
0.5404537 0.55007255 0.5336816 0.5435808 0.55858725 0.5679937 0.52638716 0.5258298 0.5278613 0.55576247 0.49875274 0.4970429 0.7395153 0.78302157 0.87064075 0.7114469 0.79582447 0.8427369 0.83302444 0.83210063 0.83444107 0.8207625 0.8262116 0.81774795 0.780084 0.5097192 0.52329344 0.54505897 0.57745177 0.5717002 0.74371505 0.7767137 0.76458704 0.7080933 0.64883745 0.48184338 0.525506 0.5330329 0.58682454 0.5945641 0.6354265 0.6837548 0.45401084 0.50542223 0.5061619 0.5457963 0.5725788 0.5577831 0.43759006 0.4783963 0.45940104 0.439744 0.4669776 0.5024452 0.4534442 0.42966747 0.38350457 0.34346086 0.40140438 0.70411444 0.8090174 0.88967 0.39446905 0.5632097 0.7010182 0.90692914 0.9417974 0.41713545 0.4870646 0.5859527 0.6870989 0.7457486 0.91869664 0.9521968 0.60852 0.7038683 0.78021723 0.8848846 0.94846225 0.7936443 0.83398485 0.81305265 0.8097406 0.80188483 0.45181513 0.43696183 0.7612268 0.7895628 0.8159573 0.7664896 0.65814424 0.42530024 0.40851465 0.47333002 0.5049321 0.50710315 0.5384237 0.7388307 0.7519313 0.5665682 0.41870666 0.575444 0.5746659 0.6664453 0.6514231 0.51900095 0.49585485 0.5246341 0.43612963 0.36421606 0.40642518 0.5256561 0.5222988 0.44570172 0.48536718 0.3668378 0.2404794 0.3928371 0.40660015 0.3818968 0.549011 0.5541469 0.53938454 0.6048332 0.7095059 0.34130585 0.32994965 0.2463448 0.36579138 0.3238468 0.4282712 0.4441495 0.31569916 0.2531731 0.49594855 0.49175808 0.5244788 0.69563603 0.82716477 0.8342507 0.32200652 0.30653617 0.34889567 0.38620764 0.40349644 0.38092053 0.30120724 0.42850083 0.3920239 0.28838775 0.1927794 0.43277434 0.3372516 0.3259129 0.48193926 0.8848022 0.8606614 0.33490413 0.37759566 0.40467843 0.41797125 0.4132989 0.30234647 0.5400627 0.60315084 0.4890523 0.3990981 0.3874629 0.46104866 0.91515887 0.8937249 0.37364513 0.39696193 0.40712088 0.40760908 0.52689815 0.6381893 0.6551197 0.6294999 0.4569158 0.55025595 0.69061327 0.90169895 0.9325733 0.32154298 0.33277705 0.33180618 0.34821576 0.665261 0.68536985 0.6733806 0.71073425 0.77409995 0.8560984 0.27943805 0.29755783 0.26758507 0.3663256 0.41807318 0.43222275 0.21594706 0.247452 0.19208586 0.15368754 0.35983115 0.45904773 0.4809047 0.44637758 0.45457843 0.4237672 0.369336 0.16098222 0.12343876 0.25068012 0.2920956 0.28721353 0.24678613 0.34249163 0.45375854 0.48414755 0.49944502 0.7582699 0.761376 0.78872514 0.75933754 0.4643138 0.4593808 0.43585902 0.34398448 0.16929743 0.157112 0.24368294 0.3303522 0.35156137 0.31950983 0.17716634 0.23697665 0.38319346 0.3757758 0.06650826 0.74225044 0.7373456 0.41281122 0.36270976 0.29085657 0.09931705 0.15649037 0.15553398 0.12958473 0.3662488 0.35233676 0.27236497 0.090668455 0.30938733 0.72099215 0.006482307 0.22976318 0.3053361 0.33458102 0.31205353 0.252722 0.32735765 0.45855552 0.66919494 0.21752256 0.300126 0.3117826 0.30919504 0.32379884 0.4903596 0.50085634 0.51126283 0.55909073 0.45376486 0.20491609 0.21356483 0.10399932 0.05520824 0.10900784 0.17212358 0.49920076 0.5000081 0.5046628 0.5001758 0.55357206 0.6046902 0.3423412 -0.22619668 0.020697087 0.24575353 0.23351327 0.387502 0.22814108 0.4623527 0.74262094 0.30533397 0.3112324 0.31158066 0.26684162 -0.11017979 0.2804488 0.17770642 0.18652466 0.20644522 0.4188239 0.3183615 0.29370335 0.35873634 0.4171291 0.79037714 0.84060144 0.3068127 0.2746211 0.18495989 0.21802872 0.21887693 0.2049641 0.39447805 0.3783059 0.24623218 0.19904646 0.38566607 0.32565176 0.3128102 0.37391296 0.85859954 0.85179085 0.2535343 0.21375984 0.16033944 0.24797927 0.08280635 0.16614243 0.18296783 0.5965432 0.5430604 0.36866146 0.31688336 0.37109515 0.82498175 0.90114427 0.27059773 0.2192873 0.6833334 0.69014716 0.6669816 0.580546 0.5449339 0.58648527 0.7082789 0.8097853 0.2024574 0.23948517 0.2533289 0.25847152 0.19441536 0.6635802 0.6761355 0.20010029 0.21289551 0.18899953 0.17891888 0.24674633 0.18458644 0.09814194 0.10851944 0.11001156 0.110177934 0.06127239 -0.021563672 0.13598412 0.1478216 0.15698835 0.27314803 0.3586756 0.4002254 0.35336486 0.35647762 0.102496974 0.12199865 0.11620862 0.059098054 0.019784808 0.15033627 0.11548038 0.17765892 0.37723967 0.45077425 0.4422164 0.35833105 0.2937458 0.097961925 0.12573448 0.15227662 0.12545663 0.018150419 0.102894366 0.1745753 0.14404342 0.09380365 0.09747875 0.22528277 0.72323173 0.60449576 0.43341064 0.1842162 0.13404144 0.09894091 0.07009853 0.20020756 0.3826244 0.3914739 0.66536 0.65878034 0.08667829 0.12973377 0.05842983 0.14635728 0.3165456 0.6737164 -0.08584005 0.008662634 0.03924849 0.08574829 0.041579112 0.65279895 -0.19880232 -0.13208139 -0.008500725 -0.10108188 -0.14281468 0.2023329 0.2874707 0.2926013 0.29617313 0.2618809 0.08967669 0.42426354 0.46334726 0.45847422 0.47132486 0.34906226 -0.077075236 -0.041944187 0.2683124 -0.013378728 0.47558165 0.48856747 0.52998614 0.5495077 0.26431748 0.2731945 -0.24965508 0.32873413 0.15103176 0.5981593 0.66199255 0.27880034 0.1545054 0.0860943 0.70626795 0.24000636 0.29373363 0.14954369 0.067911886 0.08277983 0.12450893 0.15056929 -0.021155424 0.28906745 0.19513665 0.30508015 0.050965056 0.8080545 0.06802865 0.051440164 0.09197986 0.22198026 0.25851044 0.26140618 0.54435694 0.28897464 0.23459753 0.2442332 0.522595 0.7429825 0.19313654 0.16238016 0.10349236 0.13392769 0.121816695 0.0705511 0.034843832 0.14982286 0.3114698 0.35780525 0.36757952 0.34303713 0.6104437 0.56813514 0.5162882 0.22583301 0.45393717 0.6181171 0.6906345 0.15667914 0.181229 0.1599063 0.4336703 0.4788702 0.48037952 0.4693438 0.6346234 0.6492177 0.13458267 0.15548158 0.057439886 0.122814566 0.16586128 0.19684021 0.18996622 0.58420074 0.5765141 0.5369205 0.19574213 0.17994754 0.15381481 0.15354204 0.16649464 0.16750291 0.20355172 0.20841727 0.21039169 0.18229824 0.15916173 0.23087144 0.63829297 0.5874141 0.5210026 0.5425341 0.48164338 0.49974436 0.34458858 0.5212289 0.5695003 0.34166002 0.29803243 0.13298137 0.35129002 0.44873577 0.46198717 0.5175457 0.22001262 0.22807096 0.14487216 0.12503329 0.034281403 0.07829424 0.19981569 0.32781333 0.33905888 0.197 0.26325536 0.26342463 0.29058588 0.25071564 0.2822743 0.11866714 0.06920889 0.024233945 0.21048886 0.14286509 0.04283222 0.28798056 0.3095054 0.0854668 0.30060512 0.36452863 0.33281875 0.51885116 0.38832453 0.21472827 0.3655364 0.59936875 0.55915964 0.37623975 0.33357373 0.55951345 0.406906 0.20166564 0.25664845 0.24600145 0.33732632 -0.11103807 -0.15912949 0.24197039 -0.38951844 0.15809101 0.36146817 0.35552597 0.33509585 -0.1272881 -0.13740513 -0.15740748 0.2515809 -0.2781519 -0.11243049 0.450261 0.4460863 0.51621985 0.08297589 -0.063413 -0.1985564 0.5007443 0.59047484 0.11090711 0.09768028 0.08240988 0.015291534 0.03295608 0.026289202 -0.0058628423 -0.03399319 0.03581558 0.6226773 0.065490946 0.12331818 0.1711756 0.22374842 0.059764527 -0.030039754 0.4582173 0.18996024 0.1319699 0.16167966 0.20900069 -0.110868454 -0.005033709 0.13942054 0.050108183 0.043959368 0.099370375 0.41878796 0.1445409 0.50945723 0.5482938 0.3492406 -0.021510437 0.16641176 0.18458791 0.57349324 0.61576754 0.57752603 0.4488787 0.54272854 0.52082133 0.4658173 0.43084657 0.35718054 -0.004008241 0.15526895 0.21211219 0.22122689 0.61583376 0.6091812 0.59530854 0.5918708 0.58394253 0.58617836 0.5534861 0.50223637 0.49416938 0.4008171 0.19535749 0.18610641 0.21635167 0.20409308 0.16051084 0.18135728 0.29587933 0.2625501 0.26499537 0.26997983 0.6779847 0.6737443 0.65733624 0.51994187 0.4999969 0.41463935 0.15325059 0.1656671 0.22087844 0.23978437 0.21984948 0.32328007 0.34622008 0.39965385 0.43823898 0.76493704 0.72863823 0.525854 0.5105729 0.35391262 0.23944354 0.38489375 0.501562 0.7281616 0.7167017 0.67322206 0.6143358 0.64129364 0.6831416 0.61630905 0.56808245 0.4319577 0.60186505 0.545634 0.5663403 0.1665507 0.33361757 0.45128727 0.5660161 0.60391384 0.5910665 0.4091322 0.3320312 0.09181309 0.542455 0.54602027 0.46159285 0.4823349 0.44455436 0.3952514 0.2846519 0.18420507 0.391779 0.3725453 0.39285046 0.392557 0.3034464 0.35750008 0.31754863 0.3859449 0.27226275 0.011348655 0.114650644 0.16042826 0.30798745 0.27708197 0.10153248 -0.003376888 0.0625218 0.11128509 0.043272533 0.2060526 0.30894455 0.21184188 0.2887737 0.2332695 0.40098602 0.1873327 0.2820836 0.15197526 0.28251514 0.245332 0.20204921 0.273826 0.16672775 0.0424928 0.3587397 0.0021459274 0.5373237 0.00913205 0.025213957 0.030371614 0.17304575 0.031973086 -0.15063733 -0.16213678 0.031582214 -0.022811657 -0.025961444 0.30704254 0.18208063 0.40698144 0.29552057 0.3665908 0.6509792 0.6302077 0.39337474 0.5551563 0.5668352 0.58093894 0.54265654 0.5482875 0.5571224 0.7999877 0.7694897 0.45757627 0.4826163 0.13966662 0.72871196 0.7001556 0.6430702 0.4982872 0.5162264 0.2585088 0.27058393 0.36651853 0.48048425 0.50071853 0.58967304 0.8280182 0.8288807 0.83522487 0.777958 0.518922 0.40932533 0.23619296 0.28163236 0.4069075 0.5121485 0.5707061 0.629808 0.65972686 0.9078566 0.9210483 0.90884674 0.5008559 0.32600588 0.36040875 0.31987947 0.2918988 0.6280136 0.6699797 0.45923537 0.3914493 0.4170164 0.39518425 0.3634476 0.4627358 0.49290425 0.4669808 0.71432686 0.7702079 0.73855114 0.62143123 0.6882662 0.66021955 0.6391983 0.68208516 0.54008913 0.49208406 0.56748664 0.5952959 0.5896694 0.5964098 0.58263636 0.51430154 0.42580518 0.27363405 0.4980535 0.6077487 0.5967166 0.56681025 0.51504004 0.530772 0.4949062 0.54621094 0.53505313 0.51787865 0.5685952 0.55569756 0.5075782 0.23770031 0.100528575 0.52668285 0.44344884 0.4964864 0.46522337 0.3730089 0.36748785 0.49724758 0.47086728 0.45450535 0.43441042 0.407135 0.3858124 0.26007864 0.35836083 -0.014138013 -0.0020944607 0.12930065 0.28964937 0.24261348 0.12479757 0.07646451 0.15706426 0.049833726 0.074905515 0.096601635 0.10681502 0.060483377 0.05142081 0.07635094 0.21970591 0.062394515 0.06500465 0.04061479 0.32998186 -0.07372994 -0.1679137 0.34544554 -0.03626272 -0.10168334 0.06258893 0.10443503 0.17190853 -0.05369339 0.48939705 -0.074696586 0.5376968 0.34269813 0.2072888 0.09985432 0.115136474 0.22821237 0.31179187 -0.15506151 -0.037629142 0.13065566 0.26360533 0.3853851 0.37195992 0.40027788 0.56642497 0.52291346 0.39580545 0.37829274 0.35545644 0.5114043 0.41819537 0.3815394 0.33346298 0.51020974 0.73651576 0.82274127 0.7774934 0.6813063 0.42258 0.4517327 -0.098196834 0.61535275 0.6467341 0.56964415 0.81052184 0.8623693 0.82907075 0.75460213 0.47335523 0.2526348 0.2869499 0.65727544 0.65494 0.7948855 0.83298266 0.4887052 0.47404653 0.2776401 0.33889332 0.42493045 0.53919566 0.7156827 0.92078245 0.9516145 0.9265969 0.8830658 0.4781309 0.3403183 0.29956073 0.6068073 0.7069107 0.7349798 0.736562 0.94537497 0.50183165 0.42517313 0.38620764 0.61453414 0.5455171 0.5589751 0.7022953 0.67799044 0.6898541 0.83096755 0.82808155 0.78030133 0.78553677 0.7915548 0.7293228 0.7393774 0.7670342 0.73078114 0.6158278 0.71381295 0.7095865 0.714929 0.64984417 0.5509858 0.62152886 0.5978607 0.64808 0.31800896 0.45254886 0.51054347 0.55400276 0.54925597 0.5510148 0.63274276 0.5784465 0.62608445 0.6178695 0.560357 0.13543165 0.24931298 0.4011954 0.5673865 0.55976546 0.3986267 0.50015026 0.53256154 0.47630274 0.41733292 0.36784798 0.39296412 0.40264606 0.4838627 0.52048904 0.42414817 0.60358 0.5344658 0.31624907 0.40307832 0.30869886 0.21670708 0.36460957 0.3913056 0.36021912 0.32590556 0.31058645 0.4008675 0.4116516 0.3726197 0.47606695 -0.23611599 0.05921842 0.31684586 0.27024344 0.34565258 0.34789473 0.36928675 0.3581984 0.25927344 0.14050618 0.26690042 0.13879861 0.29530564 0.09781276 0.42478037 0.099623375 0.08669464 0.074245796 0.07502487 -0.04375525 -0.10646394 0.031385936 0.07196249 0.6498592 0.6823064 0.3510355 0.018626044 0.78748524 0.79732895 0.79833233 0.37805876 -0.28721055 0.86291236 0.8612747 0.85276586 0.26678595 0.20253414 -0.04873992 0.33115593 0.47512394 -0.16608095 0.5416623 -0.19466895 0.551845 0.29192752 0.44684985 0.33388987 0.061629027 0.22886348 0.29868466 0.149547 -0.19550687 -0.1589332 0.10454669 0.28431064 0.5008663 0.4434877 0.3241141 0.32091832 -0.06696691 0.40823787 0.49403584 0.6310326 0.69234246 0.59209967 0.5282384 0.39984623 0.52169967 0.59923846 0.79038346 0.85147494 0.8159512 0.70761704 0.42790347 0.4642834 -0.07525213 0.1340231 0.70858335 0.7995709 0.79010296 0.35593134 0.2810093 0.66564316 0.92702377 0.94811 0.919266 0.8740145 0.467256 0.3886824 0.45476595 0.5875418 0.6977378 0.73989296 0.7256688 0.9518486 0.9470722 0.4431098 0.75640094 0.5740331 0.5165801 0.80974317 0.8310308 0.81284356 0.75535893 0.69630885 0.85269153 0.85369956 0.7949846 0.8181702 0.8282753 0.70813465 0.5534369 0.6740816 0.6280049 0.66644794 0.5213965 0.7188519 0.5700242 0.40150183 0.6251097 0.58784056 0.5386882 0.60812974 0.27844554 0.18607038 0.17855045 0.41763833 0.5116544 0.5266547 0.3097716 0.49192572 0.4465298 0.6378418 0.6335759 -0.07619929 0.3475977 0.44561744 0.5059801 0.50012887 0.42088246 0.45038518 0.5245909 0.3298973 0.24405384 0.33470148 0.3557592 0.35930574 0.35546002 0.59295136 0.6282508 0.44825798 0.41290283 0.18501851 0.2594657 0.3633816 0.34822583 0.34296083 0.46977973 0.26205543 -0.28739437 0.116376184 0.34054053 0.3421106 0.3462429 0.043426678 0.16868691 0.26438195 0.3265621 0.34030217 0.40459603 0.4372005 0.43081766 0.1486736 -0.07862981 0.12387177 0.27985892 0.18307866 0.33490703 0.38286 0.43788695 0.42647323 0.36570135 0.002537882 0.3204977 0.24868661 0.3569899 -0.16424504 -0.33281735 0.07147129 0.4024207 0.3879522 0.43227768 0.22528386 0.08032415 0.08948333 0.56418043 0.6122517 0.12265442 0.75650835 0.7225399 0.82363343 0.87207365 0.8083546 0.2836337 -0.26718545 -0.111809745 0.04802794 0.3860375 0.4084952 0.8545517 0.873345 0.8756661 -0.09376627 0.44399208 0.48361441 0.5238543 0.22457042 0.46030417 0.35405344 0.39236656 0.39868492 0.4503172 0.09061459 0.18589912 0.2957141 0.4161348 -0.095261 -0.0891062 0.083629504 0.3505121 0.31260607 0.121250376 0.045914397 0.04518865 0.19813928 0.29698157 0.3927503 0.6031517 0.62012863 0.56386244 0.51166916 0.39974615 0.29365483 -0.39605033 -0.33955562 -0.03588372 0.20884062 0.27629113 0.3295791 0.5761062 0.69129187 0.7279328 0.7476445 0.6451472 0.37779087 0.37294197 0.10485771 -0.3512859 -0.12442528 0.066735394 0.8373212 0.7080786 0.6976357 0.33964467 0.2517025 0.24980633 0.33603486 0.5952476 0.90269965 0.86818564 0.838003 0.27777758 0.49190736 0.6328681 0.68260765 0.5024974 0.80336404 0.64134634 0.8641797 0.89508045 0.86270696 0.7756386 0.7225235 0.842958 0.8327551 0.8593203 0.87860274 0.83927727 0.76175547 0.7088535 0.795409 0.66043437 0.53538835 0.68088305 0.54311985 0.68498707 0.36487943 0.33838493 0.5900544 0.4975571 -0.05221588 0.22484237 0.24067715 0.31497043 0.63986504 0.64290404 0.3187164 -0.17427261 0.04691639 0.24861541 0.40226582 0.28069007 0.50265735 0.14386868 0.2589143 0.23106566 0.32377023 0.54780567 0.35112327 0.11852377 0.04379657 0.33586425 0.34827653 0.12437518 -0.2843502 -0.10676587 0.35477817 0.37743312 0.35651106 0.40115374 0.37113017 0.4125322 0.45360035 0.13983557 0.1490487 0.21109226 0.23068886 0.41258693 0.4081049 0.38250372 0.19727154 0.2670604 0.4220668 0.48906875 0.17808269 0.16787961 0.22552449 0.271172 -0.15952292 0.26857546 0.42348132 0.3768612 0.2617245 0.2916481 0.004306406 0.50442517 0.43316078 0.12420041 0.56162083 0.5470178 0.6508175 0.047257654 0.12514032 0.13235 0.68780696 0.11616645 0.026453163 0.7694545 0.815996 0.79061747 -0.35313746 0.2292918 0.42810437 0.8371969 0.8614875 0.86455953 0.84757304 0.46029675 0.84435153 -0.023301568 0.46548507 0.35439467 0.3135419 0.52753955 0.0767699 0.25299138 0.5090368 -0.0017239936 -0.004142791 0.45084697 0.08053747 0.11576834 0.37017536 0.19999352 0.32062876 0.25199658 0.2816158 0.20890898 0.15725845 0.024562389 0.5186079 0.50787544 0.53407013 0.5350975 0.42091656 0.27499247 -0.39237565 -0.4291327 0.3850584 0.34649748 0.43702874 0.42395744 0.4239203 0.61964846 0.63206315 0.28285652 -0.20149285 0.44407544 0.67020774 0.67640126 0.656713 0.29026186 0.14058161 0.27018324 0.17026263 0.2604428 0.3653183 0.5913207 0.7725172 0.7614767 0.42977524 0.5448784 0.60714024 0.64591396 0.6602601 0.55281425 0.7993871 0.80784523 0.6533649 0.86579657 0.8344652 0.7638267 0.7058507 0.7788042 0.78332466 0.74309355 0.84667236 0.85871685 0.7788642 0.7708056 0.7087586 0.6306752 0.6912715 0.6925863 0.5672147 0.45305264 0.56636083 0.7199155 0.60673374 0.5258998 0.18224186 0.44847283 0.3418999 0.26431492 -0.10999953 0.07482265 0.033397906 -0.08993562 -0.072574876 0.7506106 0.61044323 0.6213728 0.31750008 0.32489508 0.003215395 0.36781943 0.16499674 0.69732565 0.64607155 0.49336404 0.0851957 -0.33809796 0.23943004 0.29487354 -0.09189953 0.32981145 0.7055342 0.61752725 0.4169407 0.25963616 -0.0467133 -0.29427895 -0.32584572 -0.31283873 -0.15511888 -0.13065125 0.40673587 0.6586695 0.21058989 0.16198288 0.18263575 0.2129825 0.24906367 0.2716208 0.2935113 0.33391094 0.29571712 0.0022870228 0.4804532 0.13464089 -0.20594639 0.5143296 0.5308261 0.31474042 0.3088802 -0.123785175 0.06606801 0.37556458 0.4758224 0.55433047 0.56084913 0.5543957 0.4210198 0.58028615 0.58898604 0.003911361 0.6561095 -0.36334372 0.751994 -0.010323625 0.16877958 0.32110542 0.8062374 0.82270765 0.7882073 0.81463766 0.78532374 0.2338162 0.83038557 0.8322752 0.2511052 0.09056578 0.1884717 0.5297712 0.14985916 0.54308146 -0.0050719976 0.08652419 0.44711822 0.5146246 0.47051364 0.4854654 0.44323885 -0.031532407 0.050890036 0.09132841 0.13031963 -0.04705722 -0.2189389 -0.14601308 -0.032070167 0.37888643 0.2544403 0.054220393 -0.0014075413 -0.05782681 0.19962752 0.42751342 0.30061194 0.18651852 0.13184172 -0.028740037 -0.15974364 -0.06264086 0.2935079 0.37871265 0.3897056 0.04931558 0.038457375 0.21942697 0.2535144 0.25438812 0.28437513 0.4502069 0.57865644 0.7043896 0.68230397 0.52098 0.777277 0.7656754 0.7100449 0.80208635 0.77249587 0.70309424 0.6907774 0.66319084 0.80967665 0.79635036 0.7159567 0.73842347 0.73210883 0.7024278 0.6418786 0.774884 0.7567431 0.77230346 0.72452366 0.73496354 0.78228813 0.74993813 0.64281666 0.6640625 0.561342 0.5977509 0.6420229 0.6180806 0.6444777 0.66493785 0.50050914 0.46055767 0.5507673 0.25511378 0.31644 0.31891936 -0.066448405 0.82919806 0.768988 0.6840833 0.116419874 -0.080936685 -0.11560364 0.2501501 0.83416 0.83369756 0.5680257 0.345676 -0.0015150979 -0.013024069 -0.22451735 -0.4514686 -0.38348025 0.01849518 0.08182694 -0.38926125 0.32964975 0.82609165 0.30289266 0.28330484 0.26370266 0.24491137 0.23265506 0.20118494 -0.32327363 -0.31508756 -0.32810497 -0.36008394 -0.29929402 0.4478593 0.2065141 0.22155531 -0.13898939 0.506016 -0.15847108 0.54245746 0.5326263 0.56539786 0.56619895 0.63700116 0.3929844 0.5561547 0.63513404 0.096268505 0.6268562 0.10653893 0.6427776 0.5831533 0.41557488 -0.051812124 0.21032734 0.7553203 0.7396969 0.50316095 -0.017437361 0.29309666 0.366054 0.7686121 0.7876506 0.7119564 0.24649161 0.3120916 0.2080521 0.3342052 0.021952424 0.48249245 0.052364938 0.3505111 0.41310552 0.5290164 0.22942764 0.34144408 0.471245 0.49014798 0.5107534 0.47680098 -0.14416109 -0.05823651 0.35013902 0.44518653 0.4828071 0.5356822 0.54718626 0.4888282 0.44369835 -0.01635277 -0.03145153 -0.029642187 0.06631039 0.09558537 0.12586561 0.06326442 -0.14187859 0.050566215 0.24447864 0.099015474 0.5307118 0.5644942 0.5778686 0.12829004 -0.16354099 -0.15440507 -0.021184277 0.41292027 0.4291317 0.20661864 0.12042265 -0.08153771 0.1236712 0.04498875 0.12529463 0.23025003 0.266887 0.042888865 0.14828725 0.13745901 0.24889344 0.25158295 0.13477711 0.11139782 0.17084639 0.22913738 0.24665365 0.23303081 0.14058775 0.6448144 0.6251372 0.61124927 0.8515584 0.8455577 0.8247569 0.8014791 0.6557191 0.63540435 0.5869488 0.5709255 0.77917993 0.7487174 0.69949424 0.76486164 0.7421264 0.6562836 0.5779619 0.5242141 0.6488614 0.613021 0.58537996 0.1993862 0.18205163 0.059464335 0.14749593 0.5321124 0.3921582 0.34211442 0.07463099 -0.22027415 -0.21137924 0.3737502 0.85306317 0.8479306 0.7977336 0.7157902 0.43562153 0.38906634 0.24899039 0.21806309 0.19506487 0.16483621 -0.11114275 0.17798434 0.2607978 0.22705786 0.0072117 0.