# vtk DataFile Version 2.0
Really cool data
ASCII
DATASET POLYDATA
POINTS 7356 float
-12.697845 53.166645 4.5432477
-12.766229 53.830956 3.7962623
-12.908125 53.69189 4.4984083
-12.766817 53.73514 5.153727
-12.798397 54.31346 3.9213886
-12.950428 54.304996 4.517312
-12.7614155 54.411873 5.1338553
-12.687783 54.870132 4.0998583
-12.715404 54.827236 4.488745
-11.705603 51.819183 3.6992383
-11.725564 51.959835 4.269455
-12.21813 52.86771 3.601182
-12.339654 52.756737 4.602613
-12.207452 52.913097 5.2081785
-11.90875 53.1285 5.768124
-12.243927 53.69641 3.1367154
-12.444042 53.686615 3.3977678
-12.415536 53.469044 5.4892344
-12.232546 53.807117 5.730626
-12.315958 54.28037 3.3245747
-12.461285 54.436134 3.4953012
-12.515519 54.44011 5.468402
-12.100022 54.377968 5.8308806
-11.716618 55.3458 3.1912825
-12.360166 55.13006 3.854827
-12.465699 55.17804 4.536987
-12.258489 55.099648 5.2380486
-11.704487 55.889507 3.892939
-11.917774 55.712574 4.5838027
-11.751008 55.719143 4.945697
-11.281627 51.237835 3.0639713
-11.280822 51.159615 3.70632
-11.163343 51.07511 3.9561477
-10.5806675 52.044006 1.1801597
-10.855367 51.86896 1.638259
-11.181946 51.68982 2.650929
-11.431333 51.418114 3.5950427
-11.113825 51.890064 5.112635
-10.636495 53.11519 -6.3938293
-10.63123 53.035748 -5.7448697
-10.66256 52.935585 1.2623231
-11.307156 52.563377 2.1735082
-11.543633 52.763115 2.4348848
-11.668134 53.033672 5.7997947
-10.717542 53.74237 -7.0225706
-10.785795 53.6262 -6.500875
-10.736856 53.57022 -5.4949937
-10.583209 53.65857 -5.0987635
-11.314118 53.54955 2.1286097
-11.535511 53.832336 2.6510994
-11.168318 53.537666 6.277039
-10.751642 54.210003 -7.0007253
-10.864216 54.291218 -6.3560376
-10.720203 54.31439 -5.5569444
-11.202749 54.26659 2.2057693
-11.344426 54.39916 2.5418036
-11.266662 54.506413 6.302424
-10.643535 55.51467 -6.924464
-10.744162 55.350605 -6.3108735
-10.647937 55.79522 -5.8914237
-11.2756 55.35412 2.7602136
-11.566881 55.497257 5.5971003
-11.137385 55.351692 6.0109463
-10.595945 56.50344 -6.4378753
-10.678819 56.02129 -6.079096
-11.223207 56.09801 3.1674285
-11.260379 56.283165 3.5563793
-11.408361 56.27309 4.342963
-10.804914 56.34627 5.3454595
-10.770556 56.83894 3.840266
-11.079316 56.695988 4.5907583
-9.6023855 48.94695 7.030458
-9.539914 48.62406 7.4442654
-9.669433 50.162045 1.9457791
-9.521524 49.450123 7.0048146
-9.569037 49.164387 7.3229628
-9.819059 51.08827 0.6916722
-10.267787 50.861683 1.7656412
-10.45187 50.674927 3.5235286
-10.199032 50.661083 4.1076846
-9.85934 52.293743 -7.1765313
-9.897992 52.101326 -6.4314804
-9.8508 51.869896 -5.0497966
-10.461583 52.01268 1.0088966
-10.314602 51.548546 5.21032
-10.463027 52.133118 5.6620474
-9.861281 52.9989 -7.837178
-10.085937 52.73963 -7.309351
-10.342576 52.518497 -6.393426
-10.336553 52.649925 -5.1880383
-10.207876 52.681686 -4.6444006
-9.975631 52.883236 -3.9230294
-9.862423 52.416187 0.18418308
-10.434175 52.26901 0.80675244
-9.917975 53.675484 -7.846182
-10.305059 53.520966 -7.5044928
-9.970043 53.569874 -3.891867
-10.215452 53.47845 0.68910074
-10.316328 53.363583 6.467145
-10.113159 54.448883 -7.727599
-10.453511 54.430756 -7.3928146
-10.561909 54.25574 -5.0459375
-9.885529 54.047546 -3.9407535
-9.993248 54.18968 0.8852601
-9.960916 54.630928 1.4339287
-10.254848 54.666603 6.6692185
-9.986195 55.61043 -7.7654743
-10.306704 55.597378 -7.4508853
-10.491074 55.901375 -5.695303
-9.756263 55.83411 -4.8967834
-10.552498 55.36181 6.3189917
-9.923482 56.69417 -7.7405367
-10.199989 56.592663 -7.3503685
-10.516167 56.718147 -6.691426
-10.456593 56.6703 -5.989706
-10.137316 56.463467 -5.272859
-10.716258 56.288048 2.8762803
-10.42128 56.291924 5.942733
-9.760056 57.09055 -7.7075953
-10.218123 57.307632 -7.0208173
-10.244531 57.463974 -6.5390387
-10.035881 57.446743 -5.882878
-10.00149 57.154583 3.0346146
-10.262961 57.363693 3.6846292
-10.262627 57.23826 5.4211373
-9.872552 57.337143 5.971276
-9.685263 58.4286 -7.1167297
-9.906739 58.277092 -6.4959044
-9.848011 58.327568 -5.8599834
-9.747143 58.06709 3.9182096
-9.850093 58.109516 4.4903173
-9.7911215 57.98709 5.4507093
-9.640658 58.893776 -6.9280972
-9.620004 59.192566 -6.365433
-9.63374 58.9119 -5.6377892
-8.616231 47.184803 3.5883548
-8.765191 47.335133 7.38428
-8.668881 47.766502 1.8813292
-8.662449 47.50743 2.692493
-8.831071 47.804035 3.393097
-8.658647 47.491802 4.356175
-9.104908 47.861877 6.88991
-9.101414 47.70973 7.5704846
-8.938216 47.796623 8.172368
-8.861078 48.85602 1.1523149
-8.80824 48.398094 1.4848387
-8.769227 48.138565 3.8825653
-8.560647 48.66648 5.471004
-9.47963 48.451233 7.0140986
-9.450404 48.301594 7.636949
-9.205695 48.480934 8.422016
-8.886687 48.660145 8.846875
-9.09467 49.853653 0.8530044
-9.422609 49.759018 1.3007233
-9.256558 49.831253 2.4266233
-8.687551 50.002457 4.300669
-9.448489 49.49182 7.730126
-9.2420635 49.34128 8.480063
-8.957494 49.361305 8.828528
-8.964 51.417366 -5.8982406
-9.114568 51.31421 -5.4231014
-8.929989 50.801495 0.32289004
-9.157507 50.19123 0.62241364
-9.40932 49.877068 7.6355233
-9.196285 52.013474 -7.1444335
-9.583985 51.77203 -6.2737803
-9.441495 51.470478 -5.183561
-9.550665 51.779224 -4.537287
-9.96555 51.54805 5.0155354
-9.406923 52.758457 -7.876255
-9.685012 52.494003 -7.5773573
-9.605499 52.44801 -3.8044026
-9.106586 52.67101 -0.32767183
-9.873177 52.927708 6.231429
-9.508795 53.47536 -8.091864
-9.455169 53.305637 -0.17676127
-9.983508 53.705544 6.6568193
-9.231543 54.10635 -8.299433
-9.558866 54.1371 0.28851086
-9.118553 54.570374 6.9718137
-9.127512 54.98338 -8.138571
-9.750975 55.870586 6.7399793
-9.361772 55.999996 -8.056197
-9.22672 56.41481 -4.7402577
-9.469143 56.34293 2.4808261
-9.62449 56.47521 6.568113
-8.913099 57.616997 -8.165826
-9.062014 57.226105 2.6216812
-9.51773 57.627094 6.111041
-8.86972 58.59827 -8.098349
-9.332821 58.72513 -7.581062
-8.920403 58.98825 -1.852635
-9.165943 57.75004 2.9422383
-9.163455 58.220154 3.4897685
-9.472382 58.396458 4.5260305
-9.39733 58.4402 5.3341193
-9.269975 58.210587 5.9425735
-8.829589 59.35869 -7.850777
-9.260403 59.266376 -7.2611284
-9.408047 59.45054 -6.5190825
-9.2831135 59.424618 -5.6529336
-9.121639 59.537148 -3.3529239
-9.213657 59.413494 -2.4561265
-9.068471 59.6395 -1.8443056
-9.251182 58.606987 4.4833994
-8.842764 59.721638 -7.3969555
-8.908698 59.969204 -6.5558147
-8.939227 59.91102 -5.4892793
-8.919115 60.315056 -3.2449646
-9.0549555 60.312405 -2.3935974
-8.83633 60.35067 -1.7865176
-8.694218 60.745377 -3.2070143
-8.749251 60.79056 -2.608625
-8.664753 60.73942 -2.0526462
-7.79989 47.286137 1.1405602
-8.109214 47.067215 1.753695
-8.147392 46.880196 2.6190326
-8.2261 46.80522 3.546898
-8.172943 46.8144 4.13214
-7.9085183 46.910667 4.7886043
-8.1064825 47.20812 6.868198
-8.356487 47.192696 7.546649
-8.273623 47.346107 8.133893
-8.214293 47.867527 0.9663629
-8.468229 47.63206 1.5649674
-8.565509 47.325035 2.6872053
-8.491476 47.286884 4.394721
-8.509749 47.55718 6.33436
-8.506132 47.656506 8.427947
-8.43619 48.022934 8.814523
-7.979882 48.9719 0.1477667
-8.503295 48.248997 1.1655345
-8.483055 48.807877 5.540516
-8.324315 48.64422 9.160507
-8.168417 49.57108 0.12103599
-8.448463 49.5179 9.105651
-8.560158 51.38644 -5.975229
-8.592569 51.25757 -5.3969646
-8.490365 51.24357 -4.8229194
-8.229896 50.827732 5.5697045
-8.190024 50.604393 8.434934
-8.504077 49.99267 8.810013
-8.786464 52.349636 -7.6709304
-8.40019 52.17876 -7.4568768
-8.523057 51.590405 -6.4215765
-8.72305 51.24514 -0.035131305
-8.230706 51.229572 6.179905
-8.330519 50.77504 8.097207
-8.709557 52.879807 -8.041863
-7.8066125 51.909195 7.480863
-8.427469 53.718365 -8.419279
-8.322774 53.733566 -2.8348303
-8.622721 53.566288 -0.6894079
-8.255002 54.55395 -8.613485
-8.49244 54.585987 -8.451029
-8.637384 54.0589 -0.5141827
-8.4440775 54.53933 6.8974056
-8.370682 54.913586 -3.2774115
-8.605354 55.55429 7.135458
-8.444787 56.52664 -8.418395
-7.7752285 56.758858 -3.0046434
-8.09191 56.623066 1.9114197
-8.40159 57.56964 -8.367752
-8.316834 57.94953 -2.9691272
-8.53838 56.98031 2.323995
-8.792153 57.16876 2.457709
-8.068294 58.459373 -8.53798
-8.183637 58.69488 -8.457286
-8.524408 58.788822 -1.6618891
-8.201425 59.112644 -1.1485859
-8.309205 58.050644 3.039519
-8.587976 58.400135 3.4648602
-8.077071 58.550602 6.2120447
-8.293305 59.353573 -8.209849
-8.336647 59.537354 -1.2331889
-8.527831 58.775356 4.5454097
-7.759855 59.53705 9.007938
-7.797568 59.71794 9.636735
-7.6877174 59.697006 10.221234
-8.1648 59.856388 -7.860017
-8.25448 60.142254 -7.283051
-8.575337 60.19026 -6.7799053
-8.400396 60.53866 -5.4654856
-8.374179 60.558613 -1.5406281
-8.076486 60.559963 -1.3318074
-7.695866 60.69733 8.823704
-7.9329185 60.508636 9.67611
-7.810863 60.51236 10.302143
-7.900326 60.693924 -6.02629
-8.119556 60.99715 -4.4730334
-8.079982 61.333065 -3.2159731
-8.219169 61.215816 -2.5235553
-8.100285 61.028534 -1.8116283
-7.795836 61.09295 9.636086
-7.68808 61.200443 10.191579
-7.0254207 46.47404 2.6921628
-7.344109 46.4612 3.4882271
-7.5554156 47.183537 1.0739448
-7.6030846 46.87965 1.6395582
-7.6180964 46.662037 2.3619092
-7.6671724 46.544273 3.456952
-7.7869015 46.696075 4.310179
-7.453758 47.210087 5.3358607
-7.1727543 47.299263 6.4611077
-7.5583 47.135075 7.682758
-7.524463 47.28839 8.024412
-7.0658426 47.96871 0.10206692
-7.745959 47.51863 0.8608219
-7.723586 47.51925 6.385442
-7.6974444 47.61668 8.504113
-7.5210795 47.8129 8.75629
-6.935039 48.851055 -0.73565733
-6.7809086 48.521057 -0.6418149
-7.6240077 48.43048 9.129185
-7.645785 49.50102 9.264602
-8.034922 51.413822 -5.813528
-7.613325 50.870625 -0.1551027
-7.254138 49.878887 9.147169
-7.646078 51.702717 -6.294682
-7.3835797 51.773582 -3.9282556
-7.207679 52.054646 -3.2550588
-7.192465 51.695385 -0.7396536
-6.866591 51.150024 -0.546895
-6.9913683 51.334015 8.671675
-7.633956 52.704727 -7.5633817
-7.0346093 51.714478 8.37516
-7.6200743 53.951275 -8.457492
-6.9491405 53.0053 6.998468
-7.691183 54.80136 -8.681019
-7.519093 55.62755 -8.588348
-6.883462 54.958916 -0.33903682
-7.575645 55.76797 6.735233
[...]
POINT_DATA 7356
SCALARS features_00 float 1
LOOKUP_TABLE default
0.7818236 0.6794564 0.80190426 0.80872357 0.6783552 0.77015525 0.7836232 0.6514025 0.7026855 0.5126155 0.57972753 0.5918922 0.72102344 0.7176588 0.6697824 0.5002928 0.56921995 0.7639741 0.7367839 0.53264344 0.56847 0.75902617 0.7053819 0.46755826 0.5805192 0.6505014 0.6716477 0.49851668 0.5569863 0.550845 0.4026447 0.4566182 0.46516818 0.2978438 0.3075983 0.3856572 0.46723616 0.562539 0.6402736 0.61804223 0.28273708 0.34738237 0.37416786 0.6298337 0.605142 0.6048558 0.56006217 0.5330167 0.31613505 0.37945873 0.58183324 0.57212305 0.54578155 0.49855554 0.3182563 0.36194777 0.5874219 0.51918215 0.5039231 0.47482514 0.3981758 0.5520573 0.5127292 0.47909895 0.48021197 0.4238662 0.44313595 0.47534502 0.43815267 0.43595368 0.45054743 0.6371903 0.71165603 0.26473296 0.58125114 0.66938186 0.30680585 0.29545668 0.37651616 0.39955035 0.6612164 0.6685507 0.6644978 0.3001214 0.49254033 0.50677526 0.6273817 0.65332955 0.6701494 0.62826604 0.60955346 0.5690788 0.3338129 0.30293527 0.59126496 0.61564416 0.50320953 0.30624747 0.4937433 0.5485291 0.5607166 0.470375 0.4371391 0.2904032 0.23859638 0.4710234 0.5116861 0.5212118 0.4590693 0.37871742 0.45608765 0.50630367 0.4984078 0.47994137 0.46003705 0.41915056 0.38117656 0.40669733 0.5147666 0.4798292 0.4609386 0.42721313 0.3905965 0.43649536 0.42291695 0.38994205 0.4964682 0.44417205 0.39643204 0.46612144 0.4853884 0.43532097 0.49248362 0.4649562 0.38878986 0.5361744 0.694167 0.44062877 0.5112966 0.45995462 0.42337993 0.65337324 0.7494081 0.78897613 0.2978201 0.35086188 0.34962302 0.32090566 0.6576736 0.74342453 0.7972312 0.816468 0.2618938 0.26902646 0.23242547 0.018605128 0.6928737 0.76170886 0.7803515 0.5852089 0.59588873 0.26465446 0.2648799 0.65050876 0.62750065 0.6410219 0.6286563 0.6499133 0.42641258 0.623189 0.64769685 0.5954666 0.33717704 0.45416558 0.58455384 0.34933916 0.4623459 0.52583206 0.31778735 0.3886391 0.46751636 0.40182406 0.47678885 0.2892666 0.29043263 0.37295836 0.5011865 0.30867654 0.37161475 0.59141636 0.5733948 0.7607026 0.3545221 0.42707515 0.49617743 0.45817384 0.41012537 0.628482 0.56109047 0.4922359 0.42353526 0.60515195 0.773259 0.8162126 0.501327 0.6013345 0.5221588 0.4276983 0.6011796 0.72404623 0.7679038 0.59583354 0.67062426 0.71605694 0.47395718 0.5241013 0.58448136 0.5681202 0.51645505 0.43513626 0.53342867 0.6621388 0.7092111 0.40002203 0.45007867 0.5370364 0.44885823 0.51155245 0.76218104 0.78545785 0.28636253 0.3647434 0.327068 0.8026372 0.25562263 0.749581 0.54639554 0.5429659 0.5339485 0.27114528 0.55958456 0.6921235 0.6034717 0.564229 0.547851 0.2493509 0.38774037 0.5297727 0.5841565 0.3301027 0.52129114 0.30206937 0.32868683 0.43686205 0.44891515 0.30950215 0.25188658 0.13534401 0.3615347 0.3769014 -0.03226625 0.16131575 0.4260905 0.30300933 0.23993924 0.27727142 0.49160504 0.5346391 0.6753707 0.7530473 0.33123118 0.40852714 0.39977336 0.61385834 0.82100713 0.48021227 0.6875817 0.72773224 0.7354282 0.62729365 0.59515655 0.54747236 0.43171954 0.76628864 0.7780191 0.7362534 0.81554556 0.8501049 0.4705693 0.4394672 0.58261836 0.65689087 0.7115096 0.8284311 0.8805829 0.615238 0.6031076 0.48237908 0.54504 0.60083306 0.5988312 0.5079237 0.34068045 0.29832476 0.5728782 0.6083182 0.35928887 0.4362118 0.4064398 0.6729984 0.67205215 0.28657165 0.28822175 0.7373308 0.6645787 0.49201396 0.18527235 0.5510056 0.46089533 0.44528222 0.37071484 0.12515633 0.14250682 0.41091982 0.4645989 0.35126805 0.4615289 0.1252405 0.3758524 0.30790424 -0.5546295 0.09415964 0.31040645 0.33038467 0.026375122 0.39464927 0.38259974 0.10951139 0.27493823 0.19315009 0.25534806 0.2210783 0.3540119 0.46338743 0.47023737 0.6798606 0.29113477 0.59893274 0.57877445 0.54311484 0.5727267 0.2580794 0.25679463 0.5590899 0.66806936 0.6982753 0.7626569 0.6065358 0.5801387 0.7919134 0.43482935 0.5948026 0.6418494 0.87975734 0.86828446 0.52562666 0.48972428 0.46366268 0.48165703 0.59167945 0.66546947 0.70382136 0.75532687 0.46212724 0.5058775 0.69324803 0.8168263 0.9029458 0.91905963 0.5117426 0.57602626 0.63759434 0.79346836 0.8613498 0.49291033 0.5563654 0.59077007 0.5840773 0.51023436 0.38604662 0.2705454 0.42095476 0.33939648 0.46752134 0.23648457 0.25142664 0.41052097 0.2110715 0.32823136 0.40067047 0.33496448 0.40096745 0.42730808 0.32382888 0.0976622 0.39216304 0.1749163 0.28897953 -0.5940114 -0.46435326 -0.08884118 -0.21974044 0.27648214 0.24664338 -0.18178543 -0.45115367 -0.0035686903 -0.12498133 0.29545248 0.41396093 0.41907066 0.17660841 0.5504731 0.61580616 0.5468515 0.65252805 0.74412715 0.7937612 0.5849049 0.54938436 0.69529295 0.3884207 0.86629575 0.84789824 0.5285017 0.50144064 0.48444477 0.69189847 0.4561715 0.4832529 0.62627363 0.91109955 0.87969846 0.5368975 0.5800378 0.6339247 0.4871505 0.63238 0.7360463 0.85936195 0.8979 0.43221986 0.5279502 0.55488956 -0.03242447 0.19750915 0.2589817 0.24930647 0.26638317 0.18287742 0.004379928 -0.055370554 0.16660401 0.1828556 0.12584901 0.40325576 0.23759891 0.2598323 -0.12632442 0.054215673 0.41413373 0.4624589 0.52450424 0.56603485 0.15262036 -0.014941856 0.39281166 0.526247 0.6136363 0.6489636 -0.04640323 0.08291325 0.5680312 0.69953877 0.7264341 0.73037344 -0.024687305 0.10318182 0.5874909 0.6870692 0.7235874 -0.25643703 -0.1354951 0.17347552 0.14060129 -0.1726823 -0.07398842 0.23185009 -0.21902966 0.075287975 0.36724532 -0.025761656 0.57746947 0.50439775 -0.01740613 -0.055711403 0.7390722 0.78707135 0.5412656 0.84505284 0.5260066 0.5272445 0.55526143 0.6358566 0.67189074 0.4434564 0.42453003 0.8788699 0.8719108 0.5518958 0.6099516 0.46969455 0.6618882 0.804908 0.8741961 0.32321838 0.40542725 0.4254278 0.10826321 0.39658517 0.4056481 0.0656753 -0.048642963 0.117703274 0.044027384 -0.10321388 0.09702272 -0.018494695 0.12687308 0.066148415 0.8173959 0.7777219 0.026744591 -0.00904648 0.40213192 0.4456657 0.8715936 0.79871225 0.5506216 0.3519209 -0.41087285 0.28562737 0.33256048 0.5176395 0.51371163 0.52847743 0.9103727 0.85982656 0.69929665 0.37550598 0.62325287 0.6557074 0.87756324 0.82726413 0.7632661 0.70693827 -0.0929369 0.72096103 0.741217 0.63156545 0.65479946 0.71480083 0.71400905 0.49578094 0.12778352 0.53415805 0.6552385 0.025943488 -0.3517174 -0.031259336 0.12157452 0.057726227 -0.09366423 -0.28127736 0.6714525 0.25458845 0.3739159 -0.19127968 -0.24087498 0.76265913 0.80017054 0.51137257 0.45365667 0.46094576 -0.13760266 0.34957612 0.8316332 0.8315315 0.5137743 0.5980486 0.6466205 0.3989542 0.37194848 0.3856473 0.45575675 0.71145856 0.84963894 0.8598747 0.3975414 0.3907711 0.6337642 0.7809803 0.83660007 0.43965465 0.5267008 0.6739627 0.53775305 0.45663175 0.44451484 0.4179438 0.34941357 0.41174847 0.5847025 0.629411 0.6298418 0.7257706 0.6738219 0.51565474 0.45497262 0.3601913 0.100246415 0.1971839 0.3412684 0.38838875 0.42448154 0.6126973 0.6532203 0.6423952 0.64549 0.5760742 0.52794206 0.40982142 0.2576807 0.18793271 0.011079483 -0.18330494 0.017940111 0.086152606 0.29120877 0.6485925 0.6403029 0.47425002 0.30655956 0.092130974 -0.21374558 -0.31380343 0.0696657 0.42293856 0.15565377 0.07614022 -0.32018244 -0.11333124 0.0007463731 -0.24634834 0.32189342 0.87292695 0.8444984 0.7881874 0.66485065 0.33694965 -0.05950004 -0.0425788 0.24138168 0.25828612 0.90352213 0.87418133 0.44689557 -0.084824406 -0.21953401 -0.012080625 0.48907402 0.9153702 0.558717 0.87036556 0.80972224 0.6605841 0.66116154 0.65436494 0.6592518 0.59352326 0.52097154 0.57021874 0.08231495 0.078662984 -0.34370595 -0.0390532 -0.10325824 0.7596661 -0.07887392 -0.092941314 -0.07053368 0.6082403 0.32918793 0.3373903 0.3372515 0.49409288 0.7766457 0.81778395 0.86570776 0.73420584 0.5469866 0.5011985 0.4340272 0.41790867 0.3992856 0.5148437 0.5635934 0.9066572 0.83418274 0.71623397 0.5679852 0.45586124 0.36599606 0.4286459 0.37984163 0.5975249 0.58603555 0.8395046 0.78790134 0.3037116 0.21293339 0.03300513 0.07801398 0.100282736 0.62195826 0.5961032 0.60874444 0.5898489 0.54112154 0.4801454 -0.2954822 -0.5557004 0.17612553 0.23244736 -0.19736233 -0.04898569 0.06556385 0.1818319 -0.06858212 -0.26417273 -0.31070697 -0.11302502 -0.051473573 0.26531208 0.8621904 0.8337745 0.7900634 0.45559302 0.28566167 -0.12450776 -0.23246643 0.24321486 0.879213 0.31057975 0.27022585 0.8839977 0.43833542 0.85888827 0.5161308 0.6911011 0.326413 0.50321627 0.6028074 0.5053946 0.13920748 0.4060789 0.4052909 -0.20176354 -0.18994147 0.019990623 -0.20048872 -0.055495523 0.33281177 0.0144380005 -0.05603419 -0.061924994 0.27506825 0.077844076 0.056882195 -0.050908588 0.035543133 0.34059855 0.4368084 0.45677462 0.4486436 0.44947666 0.5201988 0.55269337 0.5026497 0.49528867 0.33603427 0.96100366 0.91177464 0.75735795 0.64865816 0.487536 0.30861738 0.32123995 0.3114305 0.4996001 0.44874743 0.9549502 0.30735984 0.11671673 0.14742178 0.03464368 0.024339303 0.18323407 0.5349111 0.50643516 0.903481 -0.015709117 -0.067408934 0.053924195 0.48876297 0.78718936 0.6111151 -0.20736758 -0.20637819 0.5289023 0.40157402 0.09257209 -0.19320728 0.7778772 0.68743676 0.54141307 0.30015558 0.027987525 -0.10846685 -0.28082037 0.18241312 0.21607098 0.8045237 0.7681454 0.7918178 0.68600273 0.16987997 0.73482037 0.7029587 0.17262374 0.56842625 0.03139889 0.49851218 0.4405552 0.32184276 0.02728143 0.2856224 0.58919936 0.5764029 -0.21042182 0.56939113 0.7073066 0.6290599 0.2657861 0.27468455 0.03210456 0.020168863 -0.044017274 0.111941874 0.19259478 -0.30764496 -0.3591699 0.7275827 0.70645195 0.66186345 0.5049912 0.29621214 0.15964894 0.023215935 0.06128405 0.254925 0.30424413 0.6103457 0.5774548 0.42940453 0.3219581 0.42977026 0.37650567 0.36416358 0.37157455 0.4034057 0.4410473 0.44371325 0.4170682 0.42020327 0.45059514 0.4506436 0.40159997 0.37450105 0.4118197 0.4271934 0.43674624 0.424834 0.44259894 0.4519118 0.44435978 0.54716015 0.5714072 0.54372174 0.4967069 0.6424918 0.611539 0.45683098 0.51807165 0.5648563 0.5140512 0.46354783 0.7711602 0.73592526 0.6222981 0.56100714 0.48888266 0.4111192 0.36143944 0.97379875 0.92063415 0.806665 0.6693357 0.4901345 0.44452223 0.09849968 0.17446847 0.9695378 0.17225291 0.21083969 0.11004801 0.18573584 0.122865066 0.4226524 0.3695349 0.9234926 0.018842682 0.79156876 -0.2489788 0.5551638 0.04437692 0.15532133 0.22408883 0.1634478 0.27623495 0.47445983 0.44182238 0.3767922 0.17524843 -0.13623847 0.2208338 0.5334618 0.41665217 0.39870942 0.15334463 0.18066421 0.5936975 0.094464 0.45684993 0.072503656 0.075389706 0.51787734 0.40166557 0.012638321 0.08383928 0.3996458 0.26231912 0.20188203 -0.09659596 -0.08149132 0.30040437 -0.32677764 0.424402 0.48548332 -0.10034593 0.5705031 -0.03432525 -0.30752304 -0.05087354 0.17590117 0.43263805 0.56969315 0.6018424 0.64815843 -0.24039578 0.5034905 0.740384 0.7161566 0.33121127 -0.22936982 -0.17193377 0.7419272 -0.4703776 0.24815542 0.71037626 0.6631208 0.18851018 0.25685683 0.56047785 0.45380843 0.41865933 0.344216 0.39207688 0.3859335 0.3172612 0.48352447 0.45862317 0.41466427 0.38977554 0.39466444 0.39039874 0.3883161 0.40667534 0.37671012 0.43521976 0.44074428 0.42624637 0.37779418 0.39227644 0.38666365 0.36881766 0.42468423 0.4233458 0.41422075 0.6418897 0.635671 0.50183773 0.55721146 0.52151895 0.46874875 0.6579608 0.64341354 0.62244284 0.57809794 0.4186061 0.4373364 0.3441736 0.7453188 0.6519984 0.2669745 0.19956179 0.1991084 0.16647333 0.3545925 0.28454468 0.8507626 0.7937653 0.7332441 0.54433113 0.25411448 0.1399341 0.8985388 0.85917246 0.30473974 -0.075769275 0.025384964 0.8259064 0.7197749 0.13890554 0.41092545 0.39303237 0.28644753 0.24746132 0.021820828 0.3217992 0.40775582 -0.19286156 0.34656316 0.4168843 0.4588884 -0.06632011 -0.13924032 0.2767971 0.38240987 0.31864187 0.26206097 0.13178228 0.32996088 0.37064373 0.31563717 0.048420344 0.08700585 0.2705974 0.075381085 0.08005297 0.08507462 0.42722034 0.3429129 0.28247625 0.38580775 -0.099710375 0.5540595 0.49775168 -0.02439022 0.02258873 0.5184343 0.58083385 0.542059 -0.18883492 0.17551242 0.41329384 0.5172703 0.72653174 -0.2634184 0.03733986 0.71929526 -0.1854148 -0.57441217 0.08509653 0.65689814 -0.4112924 0.22507825 0.17035419 0.55756336 0.4986668 0.22520459 -0.20360984 0.1470786 0.25804073 0.20596051 0.46610594 0.44342476 0.3364085 0.26150447 0.344746 0.28130928 0.4195069 0.39634782 0.37759662 0.34283507 0.34067506 0.36021984 0.34258887 0.39272088 0.64684415 0.6355072 0.4083672 0.43311048 0.39767742 0.3575997 0.65290654 0.6510627 0.61250335 0.5689803 0.31085688 0.16427785 0.2661875 0.2517759 0.2094715 0.5128026 0.28500766 0.2095268 0.1572552 0.7473215 0.7114781 0.5626184 0.2510951 0.36654487 0.113502674 0.75764316 0.67585266 0.67521054 0.53253275 0.6879924 0.607411 0.3905467 -0.1120884 0.011802465 0.36856177 0.24807957 0.043122582 0.21316274 0.15932661 0.3164993 0.40045553 0.19140732 0.4413831 0.47048062 -0.13476858 0.5031329 -0.077998325 -0.118542425 0.51273775 0.0944377 0.017429203 0.18836048 0.3083625 0.5575263 0.18944436 -0.007166758 0.19010697 0.2691752 0.4096263 0.06169262 0.078866124 0.5084731 0.106575824 0.047644205 0.5756082 0.56132597 0.23911692 0.4686448 0.3599499 0.4344273 0.43455273 0.4350412 0.49947292 0.5730505 0.05784461 0.43072262 0.53623855 0.054404393 0.5560701 -0.5251832 0.05266116 0.035293553 0.03856295 0.5407704 0.07693511 0.05341379 0.49608025 0.15286429 0.48259127 0.4585467 0.43398058 0.23423511 0.07412385 0.25275695 0.17628446 0.4185614 0.32206836 0.33506945 0.29120785 0.23873276 0.18817124 0.36408207 0.2559608 0.24547622 0.39763474 0.5084773 0.56524 0.60089433 0.64056975 0.6382245 0.54567254 0.65649605 0.6001979 0.79806167 0.7646073 0.7499585 0.8063493 0.78155273 0.76089543 0.7249224 0.7629024 0.7509645 0.7448975 0.7102771 0.65633386 0.71122885 0.7077407 0.6971607 0.6800792 0.757506 0.8118394 0.8131983 0.70372486 0.79805005 0.8342408 0.6415833 0.28518158 0.32659528 0.31361043 0.30838242 0.2701014 0.20475394 0.61699677 0.62635446 0.61286193 0.297648 0.17845406 -0.08960096 0.025204362 0.19976693 0.18795231 0.42973897 0.48666513 0.172486 -0.20886967 0.10940082 0.28367898 0.49599838 0.120522596 0.22153771 0.022619084 0.0026297495 0.012354016 0.035719395 0.10355639 0.05388443 0.08182343 0.22816116 0.39161727 0.44619572 0.49162918 -0.19242838 0.5506219 0.6200999 -0.15631084 0.5854099 0.7003994 0.046975408 -0.020815216 0.62557054 0.7120787 0.038322337 0.47627264 0.63825417 0.7296473 0.32507253 0.08624026 0.3521834 0.43458623 0.5566695 0.08997438 0.5976274 0.19096099 0.5700313 0.27384415 0.3156892 0.25741866 0.37286592 0.043320306 0.01611869 0.40249297 0.37353086 0.03665149 0.44120353 0.040828466 0.045202054 0.4620812 0.05388078 0.49848473 0.1256825 0.48840183 0.47051582 0.43751022 0.18319151 0.4372362 0.40164855 0.34935606 0.24900067 0.21372557 0.20049417 0.2260221 0.2105417 0.5400765 0.23725197 0.21571171 0.2197721 0.21681012 0.62585056 0.6712662 0.49453393 0.28368995 0.23875797 0.6838752 0.656001 0.56227165 0.780771 0.70799536 0.65912783 0.8221568 0.79629844 0.73796415 0.6648041 0.71746475 0.8159715 0.67811155 0.61771345 0.72639966 0.6805451 0.59818935 0.61054385 0.65684044 0.7260906 0.7063311 0.62361676 0.6290945 0.6205761 0.60482895 0.5703485 0.620882 0.6295422 0.44795185 0.45617816 0.55564123 0.7925419 0.77122587 0.6698148 0.60998833 0.5280367 0.7157512 0.83372796 0.77426696 0.6163882 0.5659927 0.52921104 0.65921605 0.7830436 0.8200477 0.7728442 0.19377413 0.23637997 0.29306316 0.16035162 0.12058843 0.08660516 0.18220776 0.22955406 0.2227791 0.536889 0.5455545 0.49119967 0.30281967 0.20051236 0.27688974 0.15229872 0.20305786 0.32279795 0.4222102 0.30337766 0.25700307 0.11083101 0.21035673 0.1114922 0.10172543 0.2116104 0.27439606 0.152918 0.16043326 0.12162421 0.1509399 0.07621194 0.16837901 0.17546397 0.09620373 0.39119577 0.44555506 0.0318277 0.50949234 0.5789537 -0.29281437 -0.16726618 0.7069073 -0.087134145 -0.280518 0.74554706 0.76862967 0.122605324 0.07177982 0.7751709 0.78337026 0.1774871 0.7511872 0.78595304 0.35363737 0.0107878 0.56051254 0.6791728 0.7498535 0.4745828 0.4088874 0.57430774 0.102752596 0.63152117 0.11890001 0.63052076 0.6096029 0.1828159 0.19995153 0.24546857 0.0015307516 0.36939952 0.062337518 0.3953626 0.05770772 0.43615216 0.12547389 0.49054345 0.14306025 0.48058218 0.44881302 0.16357201 0.1178449 0.43685603 0.3349691 0.2661438 0.17190644 0.13069192 0.20529333 0.20841017 0.21029726 0.6147888 0.25901875 0.21595971 0.6750187 0.6215879 0.52896464 0.37354577 0.32156315 0.26645508 0.6330503 0.6514344 0.41288027 0.45809108 0.4158226 0.35359257 0.65820765 0.66108537 0.46500158 0.50792444 0.47392887 0.36173663 0.75060594 0.78940034 0.82065046 0.7788063 0.7692294 0.6490045 0.560994 0.54533744 0.654282 0.45893744 0.5115888 0.4553079 0.3317157 0.21147346 0.73791695 0.789317 0.8300264 0.84400094 0.73960173 0.7684562 0.36944786 0.11322437 0.85341364 0.7030953 0.7258798 0.43449077 -0.018788457 0.46878242 0.60889685 0.51281315 0.39666772 0.542257 0.5522562 0.5361879 0.062491618 0.51809466 0.45797232 0.54270947 0.57187504 0.3844133 0.69272786 0.65314555 0.41635606 0.51034606 0.43494293 0.63572055 0.45405012 0.69213206 0.68197405 0.57802397 0.59068537 0.55040276 0.46590304 0.36060053 0.4454928 0.6287563 0.6572578 0.70071816 0.5311498 0.49506778 0.4467517 0.22493532 0.2443547 0.30341476 0.3734445 0.36604217 0.31552675 0.2194092 0.29123014 0.40785688 0.4491338 0.35680264 0.34806532 0.33321297 0.08321076 -0.0508787 -0.027081743 0.30528075 0.39444542 0.111352436 0.26186392 0.20001121 0.27717486 0.12905553 0.10799235 0.2281163 0.23637688 0.27670044 0.06052368 0.0055793747 0.09171913 0.14452961 0.1366782 0.15321545 0.14813384 0.15233636 0.1724712 0.13948317 0.17146216 0.18872309 0.13672031 0.12902825 0.15185085 0.19083267 0.3587271 0.060012702 0.37278968 0.45744085 -0.011568718 0.57541186 0.7050211 0.76822066 0.7877093 0.14579466 0.117415346 0.8184226 0.80085516 0.25165334 0.16037865 0.8403485 0.8387344 0.3598709 0.7131009 0.79095316 0.80587924 0.4679658 0.18437448 0.57061255 0.14042284 0.17571017 0.6289004 0.051400486 0.105580576 0.6210997 0.5930413 0.078312874 0.5563896 0.53226817 0.14769974 0.2897287 0.337344 0.14426583 0.39040273 0.18930829 0.23236355 0.44051173 0.46794498 0.247626 0.4845345 0.5067383 0.23632602 0.49523145 0.42649364 0.28873202 0.17625734 0.40746886 0.3524639 0.25153372 0.29255354 0.3328703 0.28341672 0.2999274 0.29650742 0.26178417 0.19002064 0.16421866 0.24181183 0.19550967 0.6263771 0.54802763 0.3539593 0.30884492 0.5751804 0.59393245 0.5751684 0.54676753 0.51547146 0.49665838 0.41534925 0.43093166 0.36468083 0.13871819 0.5006762 0.5754162 0.597611 0.25041252 0.33718333 0.2962801 0.14037102 0.1099158 0.52124727 0.5726434 0.60638756 0.64428854 0.64658487 0.36794353 0.11932053 0.092450574 -0.06598031 0.7027943 0.75963885 0.7789639 0.7083807 0.63183975 0.6477095 0.64198834 0.33422166 0.073332384 0.10279696 0.32481706 0.50082433 0.73435724 0.7662811 0.81787205 0.6969501 0.7067778 0.50626063 0.5218984 0.6151305 0.5693604 0.323669 0.03339369 -0.13365741 0.85975456 0.67698896 0.52009624 0.52828985 0.5512044 0.5560989 0.2666126 0.78816634 0.86046916 0.8612861 0.63899124 0.48606053 0.42216063 0.8148694 0.8198086 0.35840768 0.32156706 0.43338603 0.417651 0.32139948 0.27100474 0.43317416 0.46577847 0.47474915 0.26388904 0.2699713 0.2502146 0.49112982 0.5320263 0.31024992 0.30349106 0.16457358 0.17492618 0.40804887 0.4505729 0.43649185 0.086183906 0.13725984 0.5242213 0.5740514 0.3643713 0.16047737 0.3296529 0.14569347 0.3995796 0.3347435 0.3237446 0.296923 0.23409134 0.28763676 0.29105112 0.2991445 0.34314162 0.4765407 0.52280366 0.367301 0.36234623 0.3096915 0.16236545 0.038408235 0.48626685 0.52277 0.3337704 -0.076218374 0.46067068 0.4684408 0.2955672 0.30405092 0.40244865 0.11755511 0.16543709 0.076379254 0.074404895 -0.14223506 -0.23379886 0.1063488 0.16890737 0.15386492 0.13701127 0.18878618 0.11699943 0.13468708 0.08787073 0.07768663 0.2025827 0.3702985 0.040633384 0.21127534 0.41296834 0.5561273 0.67677915 0.04085654 0.011599829 -0.095149785 0.4613437 0.64823663 0.74991965 0.15000632 0.12053876 -0.19739835 0.8447088 0.8199308 0.2722325 0.8558084 0.87291557 0.