# vtk DataFile Version 2.0
Really cool data
ASCII
DATASET POLYDATA
POINTS 8267 float
8.25537 52.948303 22.651678
8.254252 52.888836 23.34469
8.260738 53.15275 24.044027
8.273231 53.52079 22.171757
7.997637 53.560837 22.772
7.96056 53.564453 23.421549
8.224913 53.54698 24.100605
8.301227 54.195053 21.878803
7.9693475 54.18808 22.648119
7.9663763 54.28361 23.505785
8.136576 54.28483 23.950502
8.362308 55.33053 21.382158
8.221826 54.970158 23.558943
8.41052 56.337997 20.84721
8.262154 56.895092 21.57906
8.287672 56.376198 22.077639
8.378587 57.694294 20.920935
8.291839 57.63256 21.370932
8.378574 57.692078 22.454708
8.394423 58.121895 20.890656
8.343413 58.219837 21.437922
8.406566 58.320026 22.213932
9.130495 52.30477 22.075964
9.065273 52.032024 22.78367
8.841344 52.15713 23.418362
8.811932 52.276974 23.84276
8.660273 52.96249 22.039368
8.490865 52.659275 22.729944
8.487078 52.48266 23.401852
8.785457 52.68195 24.198635
8.881116 53.122074 24.665312
9.185559 53.629406 21.019691
8.793987 53.58561 21.585821
8.495287 53.63928 24.40468
8.905975 53.47172 24.764004
8.661405 54.317898 21.325888
8.700517 54.59321 24.390533
9.031864 54.347706 24.790691
8.598142 55.565113 20.730469
9.07455 55.159367 24.270975
8.832982 56.09432 20.138308
8.539403 56.347164 20.584154
9.320366 56.47154 23.90728
9.058966 57.19053 19.964901
8.625978 57.656803 20.488739
8.481374 57.35928 22.74197
8.799155 57.62018 23.252815
8.940854 58.28155 20.211395
8.609782 58.36765 20.740488
8.509965 58.683224 21.612679
8.49441 58.433846 22.390772
8.821035 58.38408 23.095076
8.946928 58.97816 20.808964
8.788379 58.98226 21.441048
8.872293 59.05658 22.335672
9.074984 59.083294 22.921637
10.287808 43.191387 17.074125
10.290526 43.167385 17.475052
10.2806225 43.01642 18.337368
10.30206 43.005318 19.548279
10.19033 42.823284 20.898853
10.075754 42.646263 21.597105
9.867882 42.86483 22.524897
10.100054 42.82074 23.254425
10.350567 42.848583 24.00314
10.157885 43.799942 16.92948
10.01231 43.800148 17.439974
10.255104 43.237167 18.676203
10.106987 43.512367 19.505404
10.067331 43.640667 20.873518
9.740688 43.48345 21.596777
9.58735 43.569107 22.587603
9.757775 43.541348 23.238537
10.133384 43.52833 23.97421
10.103535 44.44289 17.042248
9.970943 44.516273 17.556955
10.01604 44.264114 18.33381
10.134884 44.524727 19.281424
10.104887 44.24727 20.64007
9.817167 44.325565 21.809254
9.627266 44.193447 22.54983
9.825545 44.312973 23.278412
10.31552 44.14332 24.329288
10.264251 44.899776 16.89427
10.129995 45.01919 17.58833
10.177922 45.031284 18.13717
10.257517 44.888702 18.915943
9.964027 44.817974 22.730207
10.154752 44.773956 23.277817
10.478528 48.990097 33.023342
10.476827 48.84603 33.318672
10.460568 49.30208 32.990498
10.438236 49.280243 33.296684
10.284505 51.78691 21.021635
9.930967 51.892467 21.760073
9.384974 51.883213 22.54964
9.503376 51.76954 23.202942
9.501298 51.915787 23.866606
9.88236 52.76128 20.769676
9.677477 52.3617 21.60824
9.440921 52.467644 24.42557
9.660565 52.83365 24.777025
10.355279 54.052914 17.623009
10.306875 53.995953 19.047356
9.430153 53.52151 20.620163
9.378623 53.460873 24.979559
10.269478 54.816856 16.90823
10.05753 54.759293 17.415203
10.01695 54.52843 18.299105
10.005435 54.57898 19.118868
10.134122 55.48609 16.9921
9.884237 55.404526 17.485474
9.720533 55.47894 18.46305
9.641099 55.653694 19.465944
10.040287 54.93147 24.894516
10.291415 56.240105 17.173933
10.10264 56.29997 17.524406
9.923323 56.442554 18.370872
9.8661 56.3599 19.261837
9.459606 56.07139 23.8966
10.273134 56.828682 18.374813
9.623905 57.58423 19.812355
9.645331 57.590633 23.91266
10.43011 57.522564 24.93436
9.453863 58.372856 19.99397
9.851548 58.783657 24.126446
10.48203 58.24172 26.681696
9.704818 59.336414 20.568483
9.454964 59.53636 21.376032
9.42141 59.471504 22.346508
9.509008 58.842136 23.5237
10.164509 59.1471 24.227352
10.3875 59.67207 25.639896
10.455211 59.409534 25.972416
9.76736 59.848083 21.446114
9.917299 59.848328 22.327583
10.4200535 59.972332 24.839472
10.426969 60.207047 25.475811
11.3523855 40.137264 10.634361
11.259493 40.011063 11.455527
11.052802 40.07888 12.474847
11.196632 39.9824 13.364301
11.139311 40.12712 13.918186
11.400442 40.582134 10.115055
11.191486 40.70692 10.599666
10.920153 40.791676 11.692884
10.736393 40.895863 12.315626
10.925016 40.501476 13.371712
11.224938 40.432915 14.350559
11.358404 40.80339 15.407569
11.381697 41.054966 10.112934
11.212841 41.1932 10.634562
11.16113 41.465717 11.2682
10.707224 41.248386 12.466673
10.897241 41.240402 13.872456
11.117325 41.38339 14.806299
11.2179575 41.54665 15.176416
11.054412 42.17632 17.72756
10.812452 42.011093 18.836788
10.524785 42.271694 21.067162
10.707905 42.058994 21.499565
10.752632 42.01324 22.620787
10.736357 42.150394 23.439213
11.221348 41.723557 11.15979
11.047846 41.914593 12.0355425
11.012865 42.033245 12.380017
10.963463 41.93068 13.206421
11.378259 42.194263 14.032614
10.540344 42.779716 18.184675
10.669843 42.8525 24.400719
11.104044 42.874336 25.03349
10.862399 43.755344 16.139091
10.49152 43.21257 16.533487
10.53546 43.30068 24.567148
10.913763 43.66986 25.22406
11.196012 43.677155 25.617846
10.668609 44.532974 16.2236
10.414864 44.45355 16.394445
10.597372 44.322643 24.599947
10.883978 44.2203 25.123642
11.052523 45.21919 16.141562
10.61592 45.370693 16.804924
10.424244 45.242943 18.329401
10.7155 45.126095 19.48344
10.669605 45.048138 21.363081
11.013542 45.3479 22.405142
10.730861 44.920677 23.727636
11.121543 44.84898 24.750067
11.18165 45.999786 16.703938
10.689895 45.78528 17.398315
10.823118 45.749588 18.16068
11.007074 48.13504 32.856968
10.885224 48.13778 33.55788
10.885138 48.185772 33.871048
10.982046 48.861755 32.24527
10.70874 48.700943 32.703594
10.593801 48.62639 33.438408
10.8906355 48.69239 34.101665
10.948266 49.423553 32.089848
10.604402 49.405098 32.616978
10.546947 49.433 33.53979
10.88562 49.386353 34.112312
10.933784 51.074684 21.065134
10.970373 51.06573 21.361183
10.882159 51.058914 22.53403
10.995819 50.222122 32.150253
10.812173 50.24918 32.650425
10.870586 50.285004 33.393543
10.999906 50.11587 33.86535
10.686637 51.625355 20.615164
10.300735 51.631237 22.16046
10.677847 51.513973 23.11087
11.144561 50.69847 32.546085
11.189642 50.773975 33.225235
11.13293 52.813034 18.886368
10.654002 52.530785 24.30023
10.659921 53.156067 24.98189
11.012179 53.96229 16.770937
10.697372 53.864735 17.448687
10.283196 53.713413 25.114708
11.124931 54.67516 16.23953
10.621071 54.70945 16.587029
10.453212 54.385128 25.042887
10.855769 55.31031 16.25359
10.565441 55.385586 16.459776
11.194453 55.854465 26.740416
11.257806 55.851883 27.456823
10.912215 56.284016 16.714767
10.466995 56.543518 17.309456
10.83308 56.747005 27.391191
11.159074 56.760868 28.315315
10.850767 56.712032 17.000038
10.636994 56.807327 17.465563
10.757281 57.079594 18.513742
10.653424 57.910294 26.510365
10.719196 57.916653 27.612469
11.027769 57.534058 28.286518
11.345084 57.476906 28.824839
10.620309 58.448044 26.826937
10.666438 58.36454 27.381346
11.048603 58.402752 28.271763
10.904885 59.35785 20.003277
10.633676 59.49623 26.59015
10.863708 59.410797 27.563583
11.001501 59.18321 28.183586
10.902719 60.110947 20.798265
10.453957 60.183907 21.36453
10.76872 60.417946 22.798574
10.552653 60.527557 25.595963
10.748655 60.40948 26.519993
11.037436 60.18963 27.239914
11.078895 59.94347 27.83261
10.91199 61.186764 24.875866
11.012944 61.31896 25.414827
10.970921 60.973755 26.390337
11.464777 66.247375 18.86031
11.48377 66.26172 19.30336
12.149479 39.228054 10.830502
12.032053 39.234493 11.339322
11.753547 39.33791 12.185942
12.20872 39.04033 13.610238
11.946603 39.90504 9.978611
11.827967 39.61803 10.618721
11.561159 39.572536 11.713117
11.502604 39.48217 12.7374325
11.601393 39.505367 13.398651
11.645989 39.55664 14.224202
11.792299 40.00318 15.241012
11.8338 40.6161 9.718861
12.212783 40.59049 16.853872
11.807803 41.14167 18.814997
12.035389 41.28953 21.599796
12.060875 41.166992 22.758446
11.797812 41.18616 9.782134
11.47907 41.543915 10.48889
11.632828 41.570557 23.581795
11.556038 42.06778 24.379988
11.912071 41.691124 10.043706
11.756201 41.854046 10.593587
11.50137 42.10253 11.618614
11.735803 42.449883 12.374435
11.620141 42.414864 13.883593
11.770833 42.645676 25.351288
11.825639 43.001804 25.631474
12.330036 43.633595 15.011758
11.653583 43.693172 25.737001
12.077445 44.451225 15.144699
11.349128 44.438995 25.414274
11.591583 44.19926 25.673311
12.209108 45.21504 15.133306
11.518518 45.633213 15.950516
11.233282 45.03984 24.421995
11.507553 44.914417 25.108238
11.670322 46.10844 16.11007
11.523896 46.435776 16.54589
11.392893 46.348377 17.107418
12.165693 47.17845 34.332367
11.998598 47.0353 17.799438
12.26292 47.855022 18.763102
11.881546 47.560307 19.962864
11.785985 47.752117 20.781836
11.744872 47.43531 21.297844
12.090203 47.85334 21.955736
11.638225 48.213455 32.324066
11.603862 47.871742 32.762432
11.545675 47.590267 33.52165
11.811173 47.544113 34.391994
12.1473055 47.560673 34.891384
12.3809595 48.065147 18.511202
12.197478 48.437836 19.404999
11.941332 48.328335 20.412895
12.061997 48.38056 21.254038
11.510589 48.702 32.025673
11.21761 48.351723 32.361187
11.395511 48.35548 34.48016
11.798825 48.554443 34.872543
12.056935 49.74859 22.702644
11.962672 49.871624 23.04005
12.344683 49.560947 23.8887
11.541722 49.39487 31.77389
11.417523 49.670975 34.493015
11.898405 49.21364 34.86547
11.871004 50.737938 20.07515
11.440331 50.773506 20.951015
11.433321 50.664433 21.303122
12.145555 50.55674 24.294811
11.596777 50.397324 31.871641
11.597288 50.24913 34.292755
11.931487 49.87612 34.70527
11.305534 51.465084 23.626867
11.927713 51.47098 24.155912
11.532402 50.940556 32.542606
11.521212 50.936 33.2403
11.6921625 50.777775 33.860786
11.50098 53.075195 17.159685
11.446251 52.910976 17.507452
11.620764 52.451775 24.45097
11.519599 53.54752 16.77512
11.497295 53.737053 24.662777
11.407248 54.583443 16.21571
11.399255 55.450775 16.045202
11.546071 55.680077 27.50078
[...]
POINT_DATA 8267
SCALARS features_00 float 1
LOOKUP_TABLE default
0.5859587 0.67226547 0.7031857 0.50287735 0.6291485 0.6999719 0.70408976 0.4113148 0.5921961 0.69359636 0.68368316 0.2975942 0.59098345 0.3262808 0.45316392 0.4321831 0.47028965 0.49226385 0.49424475 0.49897996 0.52471894 0.51808643 0.41746753 0.5056926 0.6157828 0.6593265 0.46294713 0.5741638 0.6517408 0.6857227 0.6823478 0.2923054 0.38525683 0.69203687 0.6750202 0.3053192 0.6189616 0.632243 0.22124133 0.5220463 0.21744642 0.2944134 0.20134903 0.30246133 0.42778778 0.45841938 0.36097658 0.44931287 0.50414026 0.54023635 0.5086605 0.4139096 0.52514565 0.54249084 0.5140286 0.44779053 0.46178687 0.45561415 0.40527958 0.3113135 0.39387742 0.4896052 0.5822241 0.5912175 0.59351015 0.50348276 0.49644107 0.39902425 0.34470573 0.40901524 0.5226542 0.62540144 0.63945085 0.6318723 0.504799 0.49973541 0.47351342 0.3937555 0.367867 0.56033325 0.62940633 0.6406184 0.6324928 0.48504633 0.4812003 0.4664139 0.423188 0.6024456 0.60813516 0.87056637 0.86287236 0.88043076 0.87077534 0.18675594 0.29170492 0.43282017 0.50166905 0.58910954 0.22344711 0.31916568 0.6367895 0.6122262 0.4694559 0.26730508 0.22069955 0.6427081 0.5582405 0.5463167 0.44650596 0.29338995 0.56271845 0.54950905 0.43764198 0.25043914 0.55170166 0.4746336 0.4523309 0.3726973 0.25978765 0.28347287 0.32449675 0.2746057 0.16502312 0.027823493 0.39735872 0.16109681 0.2760964 0.44963363 0.49605173 0.48199096 0.3147382 0.12504861 0.18438199 0.20886426 0.4398449 0.41145188 0.14477745 0.21216495 0.82359135 0.6923969 0.5651386 0.4716251 0.4511352 0.89392865 0.8246185 0.71671784 0.67005205 0.5235636 0.45035446 0.40056804 0.8716023 0.80089486 0.7361783 0.6697166 0.5630348 0.49521396 0.42044812 0.30578595 0.2665323 0.37149593 0.40388548 0.45736897 0.50818014 0.7321756 0.6696664 0.64569604 0.6226063 0.54726857 0.38474107 0.5922893 0.59121674 0.4467832 0.44166392 0.62371254 0.6313366 0.6224772 0.46186236 0.48587304 0.6269155 0.6286377 0.40989497 0.44756177 0.43944883 0.29551366 0.39617777 0.47857732 0.57105553 0.5883114 0.36156315 0.41826093 0.38829157 0.83414054 0.8491462 0.84779525 0.8472561 0.8510593 0.85644615 0.83705366 0.88693225 0.8875481 0.86231685 0.83064663 0.16087519 0.17831069 0.22616065 0.93612975 0.91248715 0.86116314 0.82164717 0.11160962 0.28996217 0.36143735 0.88945466 0.8048195 0.20191666 0.42827725 0.4317057 0.45366892 0.4502293 0.52501905 0.47699386 0.5329862 0.51327956 0.53217185 0.5543484 0.58233243 0.667683 0.44946283 0.41670555 0.5539166 0.6566541 0.37330872 0.35662693 0.24574693 0.26475912 0.42417344 0.56304514 0.64308643 0.29882365 0.36659342 0.5020348 0.20266822 0.2825284 0.36856973 0.46602947 0.2216284 0.2929201 0.1790355 0.2513016 0.30227858 0.35163748 0.41475493 0.2664374 0.29534703 0.30433303 0.6856723 0.68247724 0.68503237 0.5949203 0.49248928 0.38153648 0.89612424 0.7869297 0.58816457 0.46502352 0.42241263 0.38812432 0.37318122 0.92496955 0.21137789 0.11360196 0.2538206 0.3150066 0.90217793 0.8069441 0.40314126 0.49549687 0.85423505 0.77550024 0.6741621 0.58644426 0.51075405 0.54464155 0.56727487 0.11228629 0.6057812 0.24623919 0.6054997 0.6032307 0.25100234 0.35771066 0.5567824 0.56671953 0.32069284 0.28842402 0.29359925 0.8244322 0.09341057 0.054405443 0.17317817 0.17101535 0.13409823 0.07402557 0.8074912 0.8249063 0.84907424 0.8291253 0.8051821 0.02492921 0.085454166 0.16153416 0.17029156 0.818162 0.8271138 0.8199179 0.76932806 0.05288391 0.09352116 0.15089509 0.8599702 0.747471 0.6964223 -0.084115565 0.13918932 0.14095747 0.16160938 0.936177 0.68185484 0.63344574 0.26226062 0.14675483 0.82592523 0.73567796 0.66158134 0.32719898 0.30400127 0.18110716 0.37190908 0.27279675 0.4345168 0.4598959 0.66363335 0.6925626 0.44286302 0.7021677 0.19978896 0.27038133 0.07262393 0.6523056 0.05039623 0.60021555 -0.10671024 -0.10566157 0.04597641 0.5784659 0.101363294 0.506156 0.5493445 0.004427582 0.0013527349 0.19951773 0.30179048 0.30404958 0.40174437 0.08673831 0.20185545 0.24371889 0.23623648 0.050505042 0.18140297 0.5781306 0.5670559 0.61835635 0.61667055 0.6356009 0.66606486 0.671726 0.6124448 0.6727079 0.683448 0.67972535 0.60614413 0.48892248 0.6526971 0.6490612 0.64319587 0.6005239 0.5973139 0.4503634 0.7985436 0.71782297 0.50032353 0.43265367 0.36977148 0.34840363 0.32589537 0.30393475 0.8702493 0.30525804 0.88862 0.9096637 0.028506726 0.23237815 0.27338302 0.32226476 0.35956827 0.89106417 0.8784218 0.3893038 0.41461426 0.8491292 0.73700917 0.6122893 0.55843586 0.52984625 0.31690687 0.5334208 0.10774197 0.49447864 0.22293672 0.42237243 0.24396777 -0.04673601 0.84412014 0.81605315 0.8042244 0.16026574 0.015251547 0.04888182 0.11965736 0.6264223 0.75331414 0.77130455 -0.019065432 0.010653764 0.02501534 0.081902385 0.5917243 0.683541 -0.015776329 0.05448755 0.19158992 0.24485582 0.72818637 0.5832834 -0.07263721 0.19490097 0.7669096 0.52145237 0.5171294 0.10514054 0.04228845 0.07255487 0.6109221 0.53450495 0.48859024 0.20619592 0.4643103 0.21738434 0.07960044 0.25864354 0.4341519 0.11532374 0.63194025 0.67649984 0.25831175 0.65944684 0.33534217 0.59756863 0.41334707 0.38511527 0.18419726 0.55341345 0.541291 0.43721455 0.4149288 0.32363346 0.17917994 -0.05237601 0.55104333 0.5265695 0.31909382 0.10196603 0.5305362 -0.091039345 0.4576087 -0.010230005 -0.036206838 0.15662263 0.445094 0.44932365 -0.11401879 -0.034748945 0.068190545 0.1260881 0.10737988 0.43660614 0.5827888 0.05550292 0.06699358 0.5937203 0.5270984 0.27836645 0.027897941 0.05172044 0.6582625 0.6587044 0.34465736 0.07480474 0.6685629 0.6236176 0.6072327 0.4810018 0.38421208 0.6426513 0.60200334 0.54472256 0.5361109 0.5043144 0.53383183 0.43463302 0.38384545 0.29601368 0.28421193 0.7500565 0.6312814 0.27240562 0.24637356 0.7840393 0.20696503 0.29440853 0.32226437 0.33334607 0.8442069 0.80186397 0.13671479 0.3197587 0.8442229 0.8037585 0.7781911 0.36786208 0.32892796 0.25389993 0.05965317 0.060032636 0.037833035 -0.049244657 0.037302956 0.03980151 -0.048732035 0.63306284 0.8406733 0.8045813 0.7754091 0.25064993 0.07523953 0.15694177 0.7441055 0.6961503 0.44802904 0.13674517 -0.056206696 -0.0887425 0.20624837 0.44015872 0.62542355 0.27987802 -0.35204098 0.23687468 0.23380305 0.37513173 0.46978486 0.5237591 0.5492965 -0.32846582 -0.33153653 0.15422764 0.506889 0.44140142 0.7129122 0.6907493 0.03136798 0.432696 0.4285161 0.7087393 0.65808856 0.64144576 -0.007994708 0.43929738 0.4169312 0.41067207 0.6286464 0.59449756 0.5589998 0.0727655 -0.09854922 -0.021772392 0.028094355 0.08197038 0.4803632 0.60873014 0.2368844 0.51706314 0.36178333 0.35628092 0.48798394 0.4053206 0.41367924 0.45084924 0.4070741 0.4395615 0.47253415 0.50673807 0.42776567 0.39918748 0.06047538 0.48383906 0.0010133088 -0.0019298345 0.21503553 0.063534975 0.055481255 -0.0821869 -0.25145087 0.04112048 0.0749086 0.04647416 0.009975159 -0.013541381 -0.07632339 -0.007772032 -0.06777879 0.20738682 0.5438471 0.5469739 0.01348 0.008020455 0.100055724 0.28712934 0.43123513 0.48493662 0.67340755 0.11933924 0.1513795 0.21110648 0.16385844 0.29116118 0.46850997 0.5423611 0.6997467 0.6856805 0.23896024 0.05835616 0.16792236 0.29043806 0.3023 0.3010819 0.22284088 0.47649747 0.67611927 0.59486794 0.491746 0.4736622 0.39271662 0.29651606 0.30920368 0.37104344 0.38678795 0.5074317 0.4547854 0.41835287 0.56683373 0.552679 0.46272337 0.3261224 0.29646224 0.27651206 0.25535724 0.65060985 0.5943129 0.254297 0.22681507 0.1645369 0.74968266 0.7651947 0.6760639 0.16027959 0.26141432 0.31403726 0.3235466 0.33115703 0.3096472 0.6177598 0.707073 0.7349946 0.7437599 0.27323356 0.6647908 0.7069931 0.6282038 0.33978176 0.18353471 0.41241357 -0.026527695 0.14278485 -0.14511481 0.20472462 0.27490526 0.2225155 0.022903085 0.072382525 0.17410405 0.35775918 0.19964224 -0.055334434 0.7782317 0.76868343 0.7339778 0.43082917 0.3481301 0.33588046 0.46940684 0.6784929 0.5294442 0.21228442 0.34228197 0.5959495 0.56479764 0.4625154 0.11427496 -0.23945172 0.20524698 0.22087735 0.490669 0.7299413 0.33321568 0.1299063 -0.32064724 0.09079759 0.38594422 0.7536075 0.74176216 0.68176246 0.5583566 0.41811067 -0.08736492 -0.29107857 0.02977936 0.4479192 0.41088164 0.4068788 0.77057576 0.7090585 -0.17029567 0.36511296 0.37005183 0.39170995 0.40117648 0.69738984 0.5910622 0.5650219 0.53166056 0.43381742 -0.4247511 -0.1642972 -0.05373644 -0.28884804 -0.32954085 0.36502263 0.47631693 0.44806647 0.4105844 0.13730633 -0.24050243 -0.37381566 -0.022195406 0.042161793 0.2123615 0.20500521 0.3964695 0.29322225 0.3118888 0.34615338 0.34145582 0.3909316 0.36715686 0.29429033 0.38608387 0.13123506 -0.06317093 -0.009222448 -0.020688426 0.08982893 0.05100213 0.1502509 0.35349235 0.3060568 0.4434414 0.5359984 0.04824337 0.52418053 0.543133 0.6659715 0.16508059 0.5814303 0.570984 0.6994128 0.27912843 0.5109868 0.5987097 0.6045213 0.6921552 0.6486199 0.5426498 0.2791745 0.33835274 0.37855202 0.3915364 0.46268722 0.54384923 0.5799463 0.51931137 0.3649664 0.35984144 0.29150346 0.33472186 0.37389445 0.36028206 0.47614393 0.51540244 0.54688597 0.5287516 0.4176427 0.31273073 0.26170588 0.23240145 0.22717017 0.56617975 0.6076915 0.6943828 0.7782786 0.82529455 0.5679745 0.1601967 0.122465454 0.02360975 0.25267047 0.28929186 0.5307756 0.5602292 0.68436015 0.7759887 0.81379175 0.85574615 0.596064 0.56345236 0.26519072 0.3047204 0.27142367 0.25923443 0.49944538 0.59031624 0.7667916 0.8049266 0.5752592 0.4716279 0.46087164 0.63489866 0.66249585 0.74215966 0.42262015 0.05936683 -0.013733491 0.23045671 -0.1529701 0.1325132 -0.20152828 0.11354905 -0.027742743 0.32423052 0.231707 -0.02609969 0.18285437 0.4835878 0.45410687 -0.018023029 0.10551286 0.6061628 0.61525536 0.5941244 0.12504955 0.52064735 -0.0069629997 0.30445504 0.73804665 0.7045969 0.6819657 0.5967518 0.21211015 0.32414946 0.34834445 0.8318433 0.7787938 -0.19104692 -0.18335578 0.3473518 0.88081616 0.8379456 -0.42720574 0.25781184 0.37293392 0.8257911 0.7572666 0.040272348 -0.32694152 0.30691087 0.35533348 0.76751184 0.6833301 0.52651006 -0.257362 -0.34980643 -0.32320943 -0.048189856 -0.028893508 0.41467455 0.22616716 0.058141872 -0.069914535 0.08457574 0.08344403 0.18730065 -0.03433436 -0.1919245 0.29411632 -0.09533866 -0.0044690818 0.22293884 -0.138847 0.25225127 0.22416201 0.05527942 -0.08737709 0.04912452 -0.086247616 0.08812073 -0.06013056 -0.021565795 0.2094953 0.044828504 0.36365607 0.4224701 0.47322756 0.42197585 0.5879549 0.5039766 0.4383564 0.6305554 0.5510832 0.5774625 0.5651597 0.56605446 0.42541498 0.25937974 0.23495531 0.1734814 0.24523567 0.25650558 0.27711028 0.28627646 0.28165615 0.3172378 0.40144 0.47897464 0.5358293 0.22644427 0.5476377 0.5932772 0.6293952 0.7130302 0.72106314 0.28832588 0.17730677 0.4719563 0.54395175 0.68421125 0.7646777 0.8232077 0.87037945 0.5431212 0.43507823 0.049657755 0.022301437 0.068683565 0.37911886 0.46800438 0.8888347 0.5205308 0.2088142 0.18100598 0.026123945 0.8505551 0.4429985 0.213418 0.6387767 0.7338678 0.025656693 -0.04015246 -0.05896876 0.2867606 0.45428714 -0.10697825 0.02224826 -0.18862946 -0.045772374 0.027870096 -0.20286013 0.034019902 -0.14065282 0.12792525 0.3560678 0.2224668 -0.21414523 -0.14830753 0.15429312 0.1859009 0.20013762 0.42422757 -0.32030115 -0.31090835 0.079385296 0.03121768 0.55477196 0.48416328 -0.3226772 -0.1775827 -0.022037588 0.035611153 0.51850796 -0.12754294 0.7271706 -0.11966881 0.070149384 0.27306214 0.31194213 0.8749536 0.8520558 0.78676844 -0.15394409 -0.15268676 0.1448639 0.27712145 0.9032124 -0.3657029 0.04707183 0.2706715 0.88374984 -0.21770184 -0.1131929 -0.19198705 0.081671335 -0.00039926916 0.783733 0.65774155 -0.10281919 -0.022378586 -0.078687266 -0.062092505 0.08562991 0.19688676 0.6247746 0.46171543 -0.009951897 -0.0073023885 0.044129726 0.2777133 0.18632263 0.10643247 0.1914696 0.32258403 0.2084755 -0.15710774 0.14832011 0.22688538 0.35475522 0.39834744 0.07721023 0.12589297 0.24078763 0.25193888 0.0536843 -0.109362885 0.38695404 -0.107597135 0.47308296 0.4827742 0.59017235 0.4897223 0.07671488 -0.073432215 0.15727055 0.11136013 0.34794572 0.13760722 0.31412226 0.35738462 0.4190763 0.2625025 0.33140558 0.3957619 0.48180717 0.54276395 0.45553547 0.4811777 0.5143397 0.25399268 0.22599408 0.12640992 0.124731824 0.14584543 0.1656622 0.35810134 0.4603061 0.49065697 0.47997925 0.19319384 0.19076785 0.15357566 0.596604 0.60467136 0.58063036 0.6648202 0.59807754 0.58419085 0.58199674 0.64187354 0.38830784 0.25602916 0.21348412 0.38361633 0.47568417 0.6212084 0.71481514 0.7497779 0.46181002 0.09047244 0.028097123 0.038488254 0.2527959 0.38761365 0.81573474 -0.031912513 -0.014470845 0.053290643 0.011289537 -0.07034685 0.17081372 0.79781926 0.50191236 0.6007327 0.7198551 0.41983855 0.09810649 -0.20189287 0.08191191 0.2876923 -0.0318232 0.24082059 -0.21729842 0.01852645 -0.24378079 -0.23441696 -0.055289492 0.19877598 0.18909323 0.25552207 0.106403016 -0.22982827 0.045765843 0.110009655 0.49057284 -0.052189406 0.26807827 -0.14162198 0.22722717 0.8209872 0.76870894 0.6685188 0.39147425 -0.16479163 -0.19232637 0.20858395 0.8307599 0.72918534 -0.37543058 -0.30134726 -0.2900821 0.20767333 0.8350166 0.22832319 0.24517101 0.2261666 0.7733697 -0.09199725 0.21075046 0.69183934 0.6237315 0.5275148 0.47740868 0.379934 0.40334475 0.42793256 0.40362632 0.23618206 0.4372622 0.45405877 0.037393346 0.032123916 0.16107555 0.28699058 0.43131098 0.47584438 0.18368328 0.15386885 0.14539596 0.2618407 0.36836308 0.4220204 0.51598537 0.035325915 0.089920245 0.10978211 0.23039094 0.07217851 0.11015266 0.70016164 -0.02602186 0.65777564 0.48332098 0.047723413 0.056528527 0.022069907 0.09091613 0.17388104 0.24484882 0.22899806 0.26545694 0.30742484 0.40960792 0.38798007 0.31740952 0.31913814 0.16912477 0.08468199 0.0020049103 0.06136327 0.01998277 0.37058002 0.41478997 0.42464727 0.108327 0.011231653 0.23118377 0.340025 0.50545555 0.5344602 0.5741306 0.5344475 0.55240107 0.5845704 0.57268184 0.51565707 0.4334275 0.5986606 0.6160271 0.5524535 0.49651557 0.44436252 0.679549 0.6535932 0.58888066 0.527223 0.45457256 0.73348 0.7238367 0.6549505 0.61684597 0.761602 0.7455225 0.51251286 0.5369784 0.53153515 0.5394875 0.5540861 0.37283543 0.29649886 0.26190805 0.22159825 0.41895217 0.47273654 0.5607105 0.5911411 0.6858432 0.47264364 0.44488516 0.11980082 -0.033490013 -0.106398165 -0.05219733 0.22069326 0.31717607 0.6016743 0.6912428 0.5110018 0.5206463 -0.048601396 0.065005474 0.6180593 0.53821987 0.4341044 0.4176736 0.4820515 0.44035232 0.4062652 0.43500173 0.32970598 0.4324375 0.400378 0.44897777 0.2808077 0.45562094 0.30878717 0.2078777 0.44250187 0.17886418 0.40723622 0.13534151 0.29472756 0.31418362 0.034551606 0.21547651 0.6719985 0.54915583 0.49971682 0.10496397 0.7413404 0.65717256 0.5079122 0.29919466 0.027063502 0.07573247 0.72660583 0.66581416 0.10002535 0.7137212 0.64970607 0.03919799 0.096473694 0.61103284 0.11783764 0.5367904 0.5097918 0.3134097 0.33954096 0.46428347 0.44563234 0.4600181 0.48971406 0.5002785 0.46673506 0.4942753 0.5176155 0.22317126 0.4228503 0.6400269 0.5996493 0.13891438 0.17671989 0.7085631 0.75182676 0.005775206 0.047859967 0.7620102 0.71783537 0.54792833 0.3343696 0.006132871 0.2834209 0.16620788 -0.04237849 0.19072442 -0.07471046 0.3355478 0.045707613 -0.033438116 0.38662738 -0.021157116 0.4526257 0.449225 0.23058107 0.430705 0.35217956 0.19660823 -0.12018394 0.22002551 0.009667368 0.025896234 -0.012360131 -0.03247018 -0.056497168 -0.08288321 0.09597283 0.17390163 0.31699902 0.4564497 0.44189534 0.42043823 0.4039048 0.35438138 0.4559499 0.44142997 0.40855318 0.4771477 0.42027107 0.38977882 0.400046 0.38844758 0.6635058 0.4596408 0.43842334 0.7267357 0.5899457 0.75248593 0.75918317 0.7417779 0.7123632 0.6669257 0.7412591 0.73551327 0.50405526 0.5013778 0.5041075 0.51389444 0.32258102 0.22483492 0.17148328 0.40821552 0.4741769 0.4808262 0.46337628 0.47882247 0.5185316 0.47224927 0.4290261 0.28165874 0.22960538 0.17333147 0.13073696 0.056079455 -0.023726348 0.25659472 0.33905113 0.42147797 0.5128281 0.5308963 -0.051329374 0.18941578 0.40697512 0.5281694 0.26124305 0.3072191 0.4358158 0.3687426 0.38452566 0.39399666 0.39871326 0.47464755 0.29032907 0.3245644 0.4727289 0.46464533 0.46693274 0.4557775 0.40779394 0.14132506 -0.0037688864 0.0027911812 0.19826624 0.10829903 -0.16886424 -0.033001013 -0.09652726 0.008729316 0.52410626 0.38250834 0.28571224 -0.30185544 0.5945753 0.5087968 0.45040813 0.37732247 0.049159184 0.5852443 0.5431645 0.024608277 0.56737083 0.5559237 0.059433468 0.53000623 0.28810537 0.4886564 0.4368891 0.35494924 0.43881685 0.29148927 -0.10556888 0.50229317 0.1449117 0.48961598 0.23454222 0.39281267 0.5852074 0.5408105 0.15345496 0.70013463 0.6793498 0.10675346 0.42359346 0.24436048 -0.02013443 -0.10791536 -0.06433529 -0.03974112 0.2517231 0.13375905 -0.15136744 0.37288743 0.39122382 -0.011592314 0.029135622 0.43975452 0.44387323 0.03350646 0.41907653 0.3021751 0.17133003 0.008986831 -0.11545282 -0.02835507 0.003976062 0.06308027 0.033603854 -0.024766635 -0.10135599 -0.12315266 0.12894945 0.0581177 0.03713521 0.04014275 -0.012256831 -0.081977814 0.20253515 0.20911682 0.289093 0.2854632 0.22038442 0.32158178 0.34149632 0.17257248 0.345367 0.35798323 0.38815862 0.27622408 0.12755574 0.15355577 0.44179636 0.2270306 0.30421573 0.2915756 0.32945716 0.49845183 0.28727517 0.39926586 0.4161728 0.44222748 0.39592516 0.4020879 0.4153625 0.46283442 0.40327686 0.55620116 0.46127945 0.4429223 0.6509484 0.59448445 0.6725507 0.71919215 0.718193 0.6858276 0.72766244 0.7344497 0.72786736 0.21696016 0.447839 0.47036877 0.44662067 0.39968342 0.40333837 0.21974176 0.21969752 0.21520759 0.21304294 0.15643449 0.18842465 0.091377996 0.045885153 0.057209007 0.23505822 0.29873738 0.35022405 0.3323817 0.35736877 0.45692357 0.3838606 0.024668617 -0.02638682 0.15562896 0.18092236 0.23191857 0.33371285 0.4434244 0.17494604 0.052990727 0.34666872 0.3722092 0.37562546 0.43850556 0.40463674 0.4719752 -0.039267883 0.478424 -0.011632994 0.067114785 0.48347265 0.47257572 0.3292656 0.49602932 0.46952972 0.06701725 0.5879207 0.62649286 -0.32224032 0.19626595 0.45193106 0.54924303 0.365215 -0.21708271 -0.43710142 -0.11664629 0.1569266 -0.28947547 -0.34888783 -0.41165614 -0.35113326 -0.3584807 0.011871895 0.07406673 0.49920624 0.22700961 -0.20853913 -0.26629162 0.10881442 0.5228751 0.4905349 0.41142756 0.2636845 0.12072918 0.13756779 0.5349513 0.44780648 0.10739691 0.50025547 0.44977695 0.4067263 0.26359388 0.19571774 0.42127514 0.3464943 -0.25629178 -0.37091106 0.3910942 -0.042446055 -0.42964798 0.370871 0.3923205 0.21215078 0.27061352 0.42109108 0.37788117 -0.050416082 -0.009324066 0.30678847 0.023440287 -0.1858404 0.72952485 0.7181629 -0.21397704 -0.18816188 0.37812477 0.51893085 0.5669823 0.853933 0.78274465 0.71955067 0.65148765 -0.13804519 0.091815084 0.2862183 0.83587813 0.69088924 0.5724164 0.5789817 0.31912342 0.0019247383 0.10460641 0.24809146 0.7009785 0.5659889 0.4451416 0.33032718 0.37168527 0.42440432 0.0950665 0.12778464 0.36301598 0.27093825 0.28663588 0.4290624 0.33155146 0.1022449 0.11020528 0.267215 0.29869756 0.23629683 0.35464442 0.2038105 0.12074007 0.12998912 0.30986574 0.31687874 0.30155775 0.33754325 -0.04794058 0.028255679 0.1309167 0.14957863 0.12791073 0.272819 0.3232623 0.36356318 0.3818936 0.021208506 0.06700717 0.03841676 -0.11276673 0.24659225 0.19030161 0.22218677 0.32961133 0.28026742 0.038635563 0.074162155 0.060087427 -0.007157851 0.2731459 0.3108334 0.22322759 0.40836567 0.22027737 0.17152694 0.21830076 0.2244204 0.09834936 0.27101523 0.35714835 0.36789274 0.33521813 0.3284148 0.25554168 0.6860747 0.4684552 -0.006837629 0.19574992 0.40949208 0.41636336 0.37890464 0.34440827 0.6823413 0.34138775 0.3826829 0.4382298 0.45010746 0.6371107 0.412677 0.6486073 0.41520056 0.5870818 0.5434858 0.42277372 0.4197548 0.48600048 0.48031878 0.54074246 0.57530606 0.6054007 0.6702451 0.67499006 0.67613745 0.65500546 0.61243105 0.7048981 0.7100767 0.70780754 0.28247118 0.37521255 0.38070697 0.32577646 0.24230553 0.17579189 0.2758977 0.18885422 0.12161224 0.11193032 0.25449038 0.321167 0.34712645 0.40171054 0