# vtk DataFile Version 2.0
Really cool data
ASCII
DATASET POLYDATA
POINTS 5223 float
-13.766356 75.26511 17.868282
-13.758171 75.19556 18.172827
-13.86623 75.78843 17.783653
-13.9400215 75.728165 18.392357
-13.771656 75.776276 18.919075
-13.731381 76.24073 17.319168
-13.809245 76.40367 17.656971
-13.919246 76.3759 18.380318
-13.721403 76.300804 18.928776
-13.71252 76.84421 17.843676
-13.743317 76.808945 18.434488
-12.543615 69.86054 19.121529
-12.746881 74.25939 17.850227
-13.211175 74.67806 17.886538
-13.474218 74.82006 18.496016
-13.295189 74.81516 19.398418
-12.899369 74.95212 20.169756
-13.11951 75.57787 17.147827
-13.412151 75.714325 19.646128
-13.036826 75.49664 20.0938
-13.367349 76.43067 17.214375
-13.522407 76.683876 17.405993
-13.369435 76.31014 19.42808
-12.963538 75.88236 20.15565
-13.205289 76.78187 17.255104
-13.276887 77.03351 17.689503
-13.327356 77.1246 18.437248
-13.090287 77.01128 19.094288
-11.989887 69.12378 18.630266
-11.984572 69.20561 19.467787
-11.833167 69.278496 19.813879
-12.004273 69.67869 18.059383
-12.32074 69.60035 18.653334
-12.382335 69.71563 19.298162
-12.017042 69.72689 20.145802
-11.694786 69.99469 20.958063
-11.962294 70.183 17.898916
-12.411841 70.27671 18.739182
-12.105592 70.24144 20.361214
-11.776337 70.63165 21.208387
-11.864449 71.36651 18.506557
-12.197955 71.133934 19.282225
-11.765768 71.062775 21.273594
-11.639392 72.78029 20.362188
-12.610757 73.92444 18.073477
-12.474108 74.720634 17.259674
-12.391053 75.04336 20.613861
-12.58255 75.53339 20.491753
-12.343194 75.609566 20.632519
-12.369547 76.557976 16.894255
-12.33405 76.11614 20.311655
-12.403774 76.915726 17.154633
-12.695291 77.29694 17.66994
-12.665741 77.426994 18.536066
-12.132751 77.20722 19.254297
-12.119558 77.5379 18.545095
-11.414574 69.10696 18.095562
-11.451238 68.88998 18.67635
-11.327446 68.87668 19.385336
-11.33489 69.2046 20.201199
-11.2719 69.59426 17.641367
-11.585724 69.51731 20.490099
-11.251739 69.8504 21.195747
-11.029944 70.1542 21.637558
-11.07041 70.626205 17.418385
-11.444307 70.340614 17.581005
-11.520909 70.53837 21.47529
-11.178067 70.602264 21.757679
-11.6236515 70.88049 17.75601
-11.522572 71.03441 21.565178
-11.0773 71.2321 21.818018
-11.625409 73.17853 18.704348
-11.023835 74.73347 16.783491
-10.847622 74.58045 21.313015
-11.461621 75.616356 16.659277
-10.880208 75.410095 21.458996
-11.622814 76.50247 20.498325
-11.128477 76.470276 20.794434
-11.621902 77.44754 17.590378
-11.147271 77.45325 19.632545
-11.561856 77.15539 20.001865
-10.908725 76.81247 20.724026
-11.95539 77.57498 18.017017
-11.602247 77.55613 18.679434
-11.044838 77.62468 19.369793
-10.75106 69.16118 17.852018
-10.5389185 68.85269 18.61841
-10.660756 68.87347 19.473927
-10.632809 69.10314 20.322609
-10.622429 69.73563 17.350687
-10.354814 69.45408 17.581028
-10.669487 69.73551 21.365173
-10.435922 70.14063 21.735973
-10.672047 70.586555 17.286318
-10.50368 70.552444 21.92734
-10.557492 71.34775 17.660183
-10.46072 71.41197 22.004086
-10.676111 72.1791 18.166002
-9.76071 74.15595 13.432182
-9.89241 74.03784 15.6033125
-10.3164425 73.83414 21.830235
-9.776072 74.70243 12.497652
-9.849586 74.48061 13.255964
-10.327513 74.815575 21.99905
-9.778557 74.96532 12.707698
-9.685522 75.4401 13.129971
-10.164038 75.5571 15.506211
-10.213156 75.51653 21.864054
-10.323768 76.45543 15.938633
-10.263235 76.02228 21.539139
-9.991961 75.899506 21.77419
-9.96662 77.454666 17.044018
-10.6041355 77.23697 20.276485
-10.409064 76.832954 20.8033
-10.502828 77.65478 17.88577
-10.127861 77.75367 18.869661
-9.867766 69.2522 18.007479
-9.599433 69.167755 18.561592
-9.675797 69.03429 19.51806
-9.827222 69.16776 20.390778
-10.079718 69.96698 17.353283
-9.509563 69.94903 17.585543
-9.566462 69.76 21.235853
-9.7183075 70.15417 21.708971
-9.212835 70.65232 17.453558
-9.401071 70.83428 17.552193
-9.649382 70.714966 21.925983
-9.749284 71.43204 17.414715
-9.419374 71.613525 22.17307
-8.994381 73.38949 13.490313
-9.765173 72.772354 22.07022
-9.400804 73.80884 12.650656
-9.57531 73.8256 13.266573
-9.27484 73.68364 14.908664
-9.341315 73.530914 22.195673
-8.651321 74.8514 11.153201
-9.357793 74.60587 11.935115
-9.568182 74.29575 12.305884
-9.599299 74.53281 22.23694
-8.689665 75.44004 11.215599
-9.043807 75.376465 11.663355
-9.511808 75.49279 12.580117
-9.2801895 75.176155 22.20529
-8.765861 75.896 11.707871
-8.945596 76.07057 12.321427
-9.459548 75.82953 13.212545
-9.631624 76.17245 21.52244
-9.801153 75.875694 21.784178
-8.835191 76.6579 14.089422
-9.489805 76.77835 15.215084
-8.933665 77.35999 15.27252
-9.940902 77.344086 20.354145
-9.715121 76.90517 20.737354
-9.115591 77.925896 17.4318
-9.798837 77.69965 19.181997
-7.5090194 68.3665 9.486933
-8.909813 69.32317 18.971792
-8.762473 69.295456 19.641396
-8.533291 69.3285 20.053434
-9.056455 69.82594 18.25428
-8.566915 69.72878 18.554487
-8.558897 69.522095 20.590002
-8.38944 69.70026 20.909342
-8.406315 70.521225 17.916128
-8.597058 70.78468 21.899237
-8.521784 71.5339 22.019905
-8.37548 73.3753 12.599763
-8.514695 73.2933 13.325009
-8.163525 72.89097 15.61211
-8.353524 73.01585 16.119234
-8.406008 72.36424 22.414036
-8.279641 74.26162 11.050977
-8.471286 73.653465 12.006201
-7.973157 73.524956 12.186416
-8.813694 73.07717 22.345451
-8.340286 74.66715 10.897372
-8.05934 73.9739 22.123919
-8.179538 75.39273 10.738451
-8.753784 75.41907 21.939384
-8.047153 75.909454 10.889794
-8.402851 76.08746 11.478864
-8.626158 76.54694 13.045745
-8.472959 76.46958 20.5885
-8.416244 76.45501 20.722328
-7.930829 76.614876 11.799103
-8.076948 76.78262 12.545007
-8.170328 76.74114 13.117347
-8.45593 77.58692 14.990453
-8.189217 77.075645 20.036581
-8.273326 78.436516 16.446472
-7.8991895 78.523384 17.38229
-7.677262 79.019714 16.095722
-6.6707287 65.027176 4.659781
-6.7956448 65.75626 4.0224113
-6.7893577 65.61584 4.445185
-6.8498273 65.28162 6.454847
-7.242999 66.07867 7.748616
-6.939262 65.83621 8.272583
-6.6039515 66.19164 3.5314145
-6.8114953 66.09496 4.335097
-6.725222 66.49776 5.2107935
-7.4106283 66.60517 7.495599
-7.2413087 66.48828 8.417565
-7.035602 66.708725 9.138385
-6.756052 67.13799 9.935999
-7.263749 67.416435 6.5939655
-7.447662 67.357994 7.2695503
-7.4665666 67.48659 8.227004
-7.4111695 67.64343 9.429774
-7.1727295 67.899376 10.206236
-6.957851 68.069374 10.647876
-7.066157 68.10868 6.751937
-7.209945 68.28092 7.278844
-7.463699 68.56473 8.68184
-7.2943535 68.4619 10.170182
-6.7945523 68.174774 10.6661825
-6.8431787 69.39712 7.8967276
-7.3363314 69.12803 8.74686
-7.3338056 69.118614 9.543662
-7.2885995 68.936325 9.975176
-7.916177 69.921005 18.780796
-7.6820145 69.78067 19.650806
-7.6795945 69.84857 20.748693
-7.798004 70.013916 20.992828
-6.9982986 69.81095 9.42757
-7.4192123 70.6803 18.466888
-7.4118466 70.50998 21.533575
-7.379085 71.02729 21.94902
-7.225222 71.543335 22.433954
-7.2043605 71.97477 22.655882
-7.4928513 73.178276 13.003278
-7.5229793 73.252556 13.774372
-7.439054 72.44569 22.577103
-7.568032 74.16059 10.78772
-7.330277 73.58575 11.700164
-7.4835 73.670654 22.406399
-7.441661 74.89071 10.3985
-7.5859056 74.458046 10.585832
-7.2944713 74.41494 22.080114
-7.602295 75.29459 10.406286
-7.6622415 75.62961 10.478786
-7.3831153 75.05985 21.705385
-7.416337 76.23862 10.974623
-7.7073536 76.49873 11.417386
-7.214106 76.76147 11.829404
-7.3221035 76.89606 12.278415
-7.0892143 77.35474 13.33367
-7.1085744 78.44446 15.147315
-7.4769354 77.93149 18.773682
-7.278623 79.353065 16.547487
-7.2166157 79.2997 17.237717
-7.4880695 78.76304 17.94368
-6.6035542 82.12048 21.058903
-6.642226 82.089165 21.532204
-6.6255217 82.596466 20.961626
-6.7106256 82.60353 21.446602
-6.631698 82.60464 21.973347
-6.610071 83.01399 21.464182
-5.9805627 64.3513 5.6230984
-5.8754783 65.080376 2.755056
-6.134347 64.88717 3.548779
-6.3417435 64.66912 4.650648
-6.2913413 64.54698 5.237796
-6.5458035 64.92595 6.4649715
-6.2225814 65.30849 8.1726675
-5.8418055 65.67547 2.338679
-6.1006074 65.501465 2.7233825
-6.378423 65.531334 8.373394
-6.226844 66.0877 9.205172
-5.821859 66.23129 2.3499377
-6.024878 66.29776 2.6001544
-6.48093 66.45032 3.5373216
-6.40457 66.48244 9.547641
-6.4745684 66.74511 9.878345
-6.0190535 66.959526 2.9334877
-6.1231904 67.197845 3.4671633
-6.337964 67.36152 4.6499786
-6.6399927 67.51467 10.479731
-6.3081727 67.74115 10.737353
-6.096009 67.78449 4.778019
-6.497923 68.17128 5.8756742
-6.7001514 68.7341 10.739181
-6.3159046 69.15318 6.883891
-6.430031 69.384636 7.3358116
-6.7090993 69.19474 10.539356
-6.384492 69.23936 10.729229
-6.2125506 69.98392 7.8970394
-6.6531467 70.129875 8.9804735
-6.2216663 70.26541 9.300195
-5.966 71.418945 17.279543
-6.864317 70.48137 20.669039
-6.6143827 70.66757 21.349882
-6.839179 70.93806 21.946222
-6.010452 71.56589 17.129183
-6.869346 71.50248 22.436735
-6.6732273 71.70957 22.538342
-6.859438 73.352585 13.329282
-6.074572 72.37791 16.119724
-6.9756494 73.825226 11.420412
-5.8334365 74.04643 22.459572
-6.8752346 75.11522 10.427804
-6.4669166 75.476494 10.545516
-6.6954565 75.93359 10.687074
-6.385448 75.93634 22.04679
-6.446063 76.924095 11.866775
-5.8124924 78.067726 13.846935
-5.7308073 78.58227 14.288883
-6.391052 78.72366 19.726824
-6.6135225 77.91876 20.00251
-6.3469768 79.01815 14.934445
-6.0328364 79.5009 19.301464
-5.9676037 79.36674 20.063757
-5.6249285 79.513306 20.804441
-6.6715517 79.62949 15.997678
-6.381099 79.901054 16.294403
-6.2097197 79.94746 17.192215
-5.7170215 80.63453 20.460953
-6.091049 81.21048 21.811712
-5.61779 80.67958 22.558842
-6.5259695 81.87866 21.769531
-6.2941594 81.634995 22.38921
-5.836048 81.69671 23.314829
-5.982512 82.522095 20.023611
-6.489366 82.552086 20.67714
-6.5029106 82.68823 22.23779
-5.911103 82.36873 23.210001
-5.8490963 82.9902 20.230726
-6.1545105 83.26547 20.77502
-6.3673944 83.34774 21.465998
-6.229301 83.26985 22.151659
-6.0376697 83.59045 21.59172
-5.920859 83.562965 21.928936
-5.2692986 64.250244 4.7984576
-5.195197 64.3388 6.3366556
-5.5823483 65.20515 2.3897145
-5.4897504 64.98525 2.6796443
[...]
POINT_DATA 5223
SCALARS features_00 float 1
LOOKUP_TABLE default
0.82271224 0.82352734 0.8594458 0.859786 0.8254025 0.84817785 0.8700661 0.8765453 0.8436074 0.8594461 0.87084615 0.8490146 0.57560223 0.71220565 0.767915 0.6823335 0.5083716 0.77795243 0.6988899 0.58842206 0.82642007 0.8485166 0.7516835 0.5832966 0.8182852 0.82782084 0.8417645 0.8015876 0.91867393 0.810091 0.75918436 0.93548673 0.91506505 0.8267987 0.6945224 0.60391235 0.8866365 0.8831091 0.6313709 0.56397355 0.70148534 0.7717954 0.5316728 0.4726391 0.51264167 0.6012403 0.4200409 0.4989887 0.46563718 0.72687244 0.5159699 0.7354969 0.77172315 0.73940766 0.6081864 0.6193397 0.9413012 0.916641 0.8205187 0.7010335 0.8840132 0.6614785 0.5925618 0.56316495 0.7357879 0.81250805 0.56894386 0.5539757 0.7532245 0.5369196 0.51060796 0.354981 0.37276664 0.36120856 0.51314807 0.3672306 0.45760393 0.4019937 0.5578874 0.4507506 0.49241823 0.39570186 0.6136103 0.5110613 0.44163617 0.8631326 0.8441324 0.79260695 0.68834794 0.78425974 0.7759829 0.5870725 0.549178 0.712618 0.53014165 0.62582994 0.4637965 0.48838392 0.66468716 0.27586126 0.35627723 0.70371574 0.6750317 0.37460482 0.679541 0.58314043 0.20258391 0.3697399 0.27863735 0.36424446 0.36302477 0.21995486 0.39562136 0.36508763 0.3328407 0.36149216 0.7047397 0.66065675 0.66024524 0.6296122 0.7145236 0.6560216 0.5379763 0.5111834 0.61933523 0.62607014 0.46661946 0.5988456 0.36298394 0.5915503 0.29207104 0.73407173 0.6774402 0.34658295 0.28869605 0.7601919 0.73808885 0.7434176 0.34089625 0.7001591 0.671613 0.6174352 0.34515506 0.60458344 0.53518754 0.4932099 0.3495282 0.3597564 0.18537539 0.11095743 0.07952757 0.36440074 0.34404692 0.10627876 0.35469 0.6941314 0.56517404 0.54958975 0.52055734 0.5829137 0.5274434 0.48957008 0.45057917 0.50524306 0.3856821 0.34140366 0.6383549 0.5634962 0.2211623 0.1924406 0.31135547 0.8214633 0.75944495 0.66466486 0.28536063 0.7904557 0.2503207 0.7479296 0.32878608 0.6891097 0.6013634 0.3779977 0.311944 0.31031936 0.49730355 0.3985654 0.3186263 0.065634 0.19786009 0.20836574 0.20764892 0.267698 0.7697799 0.7646259 0.7440597 0.5946923 0.5721161 0.55393535 0.7504561 0.68435365 0.5304863 0.578431 0.5835474 0.58200324 0.60624444 0.45080993 0.5405036 0.61419463 0.6526327 0.67264354 0.6817657 0.43469965 0.5042918 0.6688936 0.703185 0.6850126 0.5343573 0.69495 0.7396258 0.726351 0.45842376 0.43974623 0.40010163 0.402242 0.7696265 0.30025047 0.37586552 0.37190482 0.36028096 0.34598553 0.54705256 0.43270296 0.3310746 0.81798434 0.69675136 0.23373553 0.79576516 0.8129239 0.14375485 0.7755307 0.74831426 0.12753263 0.638985 0.5528541 0.4516409 0.37853464 0.12120588 0.13811964 -0.060105585 0.27578413 0.25423306 0.16352253 0.7340855 0.7214289 0.8044838 0.804762 0.7937859 0.83120275 0.66695297 0.844381 0.87818843 0.7952528 0.726495 0.5907431 0.5076212 0.79765993 0.815248 0.5176178 0.5082735 0.7704071 0.76449686 0.7232265 0.53866965 0.5635618 0.7162658 0.6629321 0.51189077 0.6326736 0.63479733 0.42998976 0.32362005 0.71252966 0.33259588 0.3842994 0.74069214 0.7423792 0.40403393 0.64431894 0.6130866 0.3132586 0.32124236 0.35859162 0.37634653 0.31740648 0.3709344 0.37693745 0.4823634 0.34753573 0.739601 -0.018719792 0.7812709 0.74062866 0.68755805 -0.07996152 0.4045118 -0.078795835 -0.09039297 -0.01968418 -0.09817972 0.09867834 0.042795822 0.007564202 0.03389842 0.25414374 0.2268506 0.15216473 0.2709719 0.47327524 0.36878985 0.6725142 0.64449966 0.6926595 0.6596635 0.78739333 0.80106986 0.7609041 0.7141291 0.8057963 0.8360373 0.82780915 0.819611 0.80748534 0.6880365 0.54273224 0.81653184 0.83465254 0.82846963 0.5043955 0.4577968 0.79881346 0.44981503 0.7576591 0.7532747 0.49136132 0.5022304 0.69512224 0.59228945 0.62904054 0.51337653 0.6597488 0.74679935 0.26305157 0.2727091 0.30886167 0.354414 0.7774834 0.32416832 0.2476235 0.22448595 0.26800683 0.3379352 0.39318198 0.21334061 0.3820351 0.41194728 0.6981464 0.49303022 0.59989995 0.73012966 0.27864504 0.48129496 0.6688571 0.18397935 0.46886083 0.43720102 0.099249005 0.22228912 0.21814695 -0.07004736 -0.00079073757 -0.10758759 -0.027654551 0.23689617 0.29192674 -0.014242776 0.062371925 0.34777892 0.3288217 0.3136956 0.21483208 0.04567431 -0.03899785 0.48422128 0.61343455 0.3766132 0.37643427 0.38176212 -0.14623408 0.21486104 0.66442025 0.15719727 0.5219829 0.73174554 0.690667 0.673571 0.742605 0.72170246 0.7386776 0.6856301 0.7323077 0.753762 0.7367207 0.54472584 0.46841162 0.8020961 0.74784386 0.71797574 0.52514076 0.4584451 0.442383 0.77951163 0.77646196 0.38497227 0.76687324 0.40722886 0.71267605 0.65970016 0.3774764 0.5494265 0.20152268 0.4834584 0.12451425 0.20576862 0.2150946 0.15325102 0.62303615 0.2172851 0.16194558 0.14788546 0.10984095 0.43251526 0.386292 0.30792555 0.16796492 0.23205519 0.6104548 0.7029923 0.3455751 0.6849575 0.7047271 0.70512176 0.20042656 0.65030515 0.65117866 0.6543963 0.6689893 0.22131164 0.5351039 0.5626095 0.64918035 0.43432748 0.21449004 0.2689609 0.36694247 0.14601526 0.017466456 0.3005053 0.31908605 0.36534476 0.58687025 0.6287048 0.7025898 0.3613146 0.36079407 0.6758721 0.7466831 0.769204 0.7934808 0.83382225 0.383333 0.39556897 0.3958196 0.2870968 0.2562393 -0.06518431 -0.21973225 0.5905562 0.7043891 0.8007077 0.84114826 0.8643596 0.8774029 0.41712442 0.41759327 0.38629174 0.21556607 -0.20916164 0.14776678 0.6394858 0.61536664 0.674628 0.7240074 0.78629565 0.83663434 0.41167864 0.3790288 0.34853378 0.4960217 0.6040499 0.57749623 0.63705736 0.6399653 0.7595583 0.79333615 0.60413575 0.6290237 0.63589954 0.7353518 0.7153232 0.5546582 0.44792336 0.3885767 0.3743273 0.34493732 0.73010606 0.67179775 0.29819816 0.32505965 0.6457181 0.27925897 0.30280942 0.058457177 0.019271396 0.042134725 0.051214315 0.12632507 0.32937017 0.44764915 0.40023756 0.29868153 0.19639063 0.13587072 0.041544825 0.49191165 0.6676512 0.71460044 0.0431469 0.29861853 0.37500954 0.42891926 0.717726 0.70912707 0.07842571 0.6840161 -0.13994405 -0.1452583 0.5714202 0.41742063 0.43281472 0.36819246 0.41323274 0.3032074 0.35989103 0.037518173 0.48327726 0.5063542 0.5028688 0.5069742 0.40524322 0.21118948 0.5255894 0.5331764 0.5653137 0.62782246 0.37469923 0.46882248 0.6028388 0.82664096 0.37787032 0.61850214 0.90371054 0.43413305 0.42583308 -0.19861557 0.56063896 0.5395544 0.57922316 0.6148344 0.8165692 0.8798052 0.44458848 0.45643452 0.4280437 0.37313488 0.31997418 0.24997017 0.101269215 0.034306254 0.46780807 0.47524706 0.5071467 0.53737134 0.585103 0.5792025 0.6729228 0.72973955 0.78080297 0.45742238 0.43799955 0.38038945 0.315173 0.52932775 0.30895597 0.6018761 0.21908775 0.10342505 0.16654697 0.46529794 0.4452197 0.19423047 0.24048851 0.338493 0.15847163 0.6194786 0.51781803 0.39375466 0.3552469 0.17321159 0.4775626 0.33308887 0.13508406 0.25059283 0.3938557 0.30773485 0.072783284 0.41079545 -0.19751187 -0.087903395 0.46208227 0.10948374 0.54363036 0.6381413 0.6756741 0.41709188 0.14194137 -0.089549586 -0.008474405 0.087792814 0.2394422 0.3540771 0.43192223 0.38819796 0.15418471 -0.021817371 0.7095054 0.739125 0.4805314 0.33375004 0.086252764 0.095740154 0.23844548 0.29040986 0.73805 0.504867 0.4980457 0.44254065 0.41112697 0.32700953 0.27414823 0.25893864 -0.15564963 -0.056022167 0.2420209 0.5657526 0.4956062 0.47704315 0.4352381 0.40346512 0.37149575 0.28637242 0.14721756 -0.12528044 -0.16568983 0.42767626 0.41956273 0.32006893 0.39888507 0.3569575 0.509227 0.51106536 0.4051717 0.44893348 0.49785617 0.50519836 0.5078577 0.50476056 0.39469677 0.17460933 0.71851206 0.35121435 0.31862974 0.45952448 0.82035714 0.2891594 0.31831065 0.49008977 0.84486234 0.38954413 0.41916457 0.85400695 0.44746935 0.46281534 0.09872872 0.08049245 0.36495554 0.43240768 0.45772105 0.5692717 0.703176 0.77520347 0.4640596 0.43946177 0.37694353 0.27989978 0.09746856 0.5692823 0.56518203 0.13069205 0.09237366 0.1264182 0.14923412 0.5821917 0.13348755 0.64955807 0.11102859 0.5879533 0.17630856 0.45644453 0.13616246 0.3597899 0.043791115 0.31817722 0.5691216 0.63884103 0.38875037 0.36105415 -0.079872206 -0.09144683 0.5306891 0.4751594 0.47556245 0.30533212 0.36071083 0.23884983 0.074930266 -0.13295665 0.47288173 0.4992906 0.18934487 0.22049177 0.4987739 0.48702514 0.2528119 0.0029734373 0.08703187 0.049038395 -0.032041058 -0.2144101 -0.4534763 0.38035557 0.46334785 0.45276457 0.43246168 0.4184368 0.4109078 0.391957 0.33928388 0.23751296 -0.3446679 -0.5557054 0.45986852 0.49165595 0.5286449 0.56506497 0.384409 0.3762672 0.610227 0.34518635 0.16230838 0.28121263 0.28016952 0.1295536 0.24510942 0.6117034 0.20259511 0.69474554 0.38384998 0.20109935 0.5162678 0.26593396 0.73772657 0.41531497 0.081487834 0.08120685 0.3280749 0.67625475 0.78164136 0.43855464 0.45199865 0.4327969 0.33827716 0.25597876 0.14635016 0.07830644 0.38979483 0.3329691 0.3307445 0.20929892 0.19521032 0.77917063 0.78847635 0.5112748 0.50220704 0.36867574 0.2305415 0.17300637 0.15521993 0.15976699 0.7637472 0.5832836 0.15109394 0.58757174 0.595171 0.10104844 0.0847822 0.45221925 0.29131013 0.14620063 0.17936556 0.18648852 0.033413112 0.010614738 0.13180488 0.29129308 0.30431885 0.17879198 -0.00024062395 0.004037544 0.36018983 0.39759532 -0.03861776 0.21449131 0.41348052 0.44788527 0.4265275 0.33136964 0.46535957 0.4779309 -0.11973667 -0.39838344 0.2930214 0.44450462 0.4123017 0.3799972 -0.27539647 -0.4157228 -0.53819 -0.39565977 0.32598358 0.33560282 0.31832004 0.3226334 0.30942634 -0.42488578 -0.5195911 -0.5322037 -0.38043264 -0.24690709 0.34087527 0.4267231 0.50851583 0.5939453 0.3393638 0.58764696 0.32661372 0.2760924 0.5116783 0.099204615 0.09334097 0.53150606 -0.114008635 -0.07405465 0.14872052 0.3369098 0.33180785 0.2997825 -0.06777112 0.4318105 0.4717127 0.35160086 0.3458566 0.36687627 0.55499375 0.57823706 0.5625105 0.324761 0.46244276 0.49853206 0.51466966 0.5378263 0.5561013 0.56710386 0.7283766 0.7611579 0.755422 0.7108172 0.27313343 0.2410785 0.65464765 0.70523775 0.76904386 0.78650445 0.76293623 0.5130136 0.46528634 0.36002958 0.24494317 0.24559969 0.22468452 0.20335339 0.60277236 0.6916059 0.7197348 0.73922515 0.70352775 0.50241125 0.19834802 0.16854224 0.011799052 0.49844947 0.52484345 0.3993586 0.61729825 0.5531291 0.5504243 0.19510834 0.11713149 0.06546962 0.40279806 0.063062534 0.053781226 0.040477335 0.080371775 0.12102194 0.29563153 0.005847603 0.01329869 0.124944225 0.161271 -0.038646527 0.07874632 -0.10588883 -0.025281534 0.2177125 0.26099518 0.03133201 0.024919048 0.08749619 0.112673 0.16624308 0.23186892 0.2250853 -0.043018416 0.29749635 -0.099999666 -0.043199327 -0.116891846 0.41976392 0.4290461 0.29133752 -0.20806731 0.40491915 0.37881047 -0.30444628 -0.48093617 -0.19126184 0.37408596 0.35727888 -0.50718284 0.3057375 0.19429046 0.1665865 0.04074097 0.120882586 0.19518723 -0.42080623 -0.44617665 0.4907645 0.5329207 0.59307665 0.58263475 0.554631 0.52462995 0.48422962 0.49006617 0.1825231 -0.068310216 0.4136734 0.41255137 0.34219837 -0.081080794 0.3580349 0.37148884 0.4072138 0.047056325 0.007193085 -0.059485212 0.08528177 0.10329613 0.5742069 0.57169425 0.10559948 -0.051522702 -0.059083253 0.5864823 0.6137556 0.59187734 0.21941316 0.03182219 0.24084578 0.17017035 0.14100605 0.5411303 0.49257892 0.45495272 0.32060865 0.41022128 0.35405356 0.45357865 0.56281877 0.587546 0.5801545 0.63710093 0.6575628 0.69899654 0.6843776 0.63060635 0.69824946 0.6351451 0.5727014 0.3483487 0.36825526 0.29817256 0.2475838 0.24142988 0.22982147 0.6529397 0.6726185 0.6916175 0.6047932 0.4695234 0.3048582 0.10775766 0.49726194 0.40538985 0.2300689 0.09999177 0.05145789 0.10550891 0.12610957 0.5640367 0.48929626 0.41564444 0.120518 0.10059726 0.10014817 0.01885137 -0.038123988 0.3599674 0.14369418 0.31434372 0.122129366 0.10613639 0.038003504 -0.027215108 -0.12623446 -0.04300428 0.02900257 -0.08537235 -0.03107157 -0.12239972 0.14183073 0.29968333 -0.0097146295 0.22204122 0.24350768 0.1662555 0.43737683 0.120918274 -0.0329149 0.21648245 0.13446744 0.43434948 0.23470606 -0.09329991 -0.23344067 0.41702843 -0.39523217 -0.1935105 -0.276101 -0.3699595 -0.21650888 0.26034915 -0.01862307 -0.11160697 -0.4477197 0.4418827 0.57121694 -0.15405965 -0.14209482 0.5317769 0.5231867 0.056054458 0.49415872 0.22504605 0.24827412 0.43451726 0.34129697 0.3696288 0.4118092 0.5992197 0.3924635 0.40725675 0.32773337 -0.03137596 -0.095684685 0.077810906 0.13967991 0.1654465 0.20340881 0.61668205 0.6259073 0.13409829 0.38424376 0.15903932 0.14078966 0.2007463 0.62488407 0.629176 0.6158593 0.5354044 0.5059997 0.39711165 0.3583654 0.43940157 0.55748826 0.58053327 0.5498824 0.70357066 0.6588004 0.5963826 0.54187894 0.45774055 0.5640248 0.5579165 0.7849611 0.8093145 0.8065733 0.70262814 0.5800377 0.8997018 0.88242185 0.80990475 0.40429074 0.44112158 0.3194008 0.52405214 0.4819889 0.4951356 0.34344977 0.68946356 0.7073767 0.71368265 0.20262942 0.17657417 0.1757837 0.5063887 0.53702945 0.5522589 0.31897664 0.36669105 0.3656954 0.33322152 0.32473993 0.64173454 0.67253375 0.7114532 0.20294327 0.18491267 0.18209375 0.35092887 0.46515223 0.52135277 0.7749683 0.77967596 0.24025753 0.29665282 0.5442966 0.056877643 0.029730335 -0.15941252 0.29796958 0.37549675 0.47086114 0.77831143 0.8011409 0.7909138 0.69815147 0.26057044 0.09416967 0.012250895 0.4445633 -0.19092801 0.25400895 0.7908617 0.7945493 0.7388494 0.63866746 0.10751824 -0.107388884 -0.015439574 -0.29359046 -0.27396423 -0.19278876 0.099973805 0.22048905 0.37221867 0.38635945 0.0696049 0.42183098 0.19549222 0.10227882 0.40470868 0.36130604 0.24523461 0.26090086 0.0006734356 -0.22636548 0.30023086 0.25430486 0.24294898 0.17670947 -0.19716766 -0.17401792 0.23535961 0.027785584 -0.21634075 -0.06417713 -0.0362583 0.39675778 0.012159967 0.057470147 -0.005655892 0.026541304 -0.17774007 0.42127866 0.45889658 0.52718765 0.09246814 0.45219946 0.5350624 0.10202741 0.059502393 0.036307048 0.45922393 0.44968143 0.06256066 0.14788449 0.53518844 0.5091028 0.3262822 0.6130823 0.3751773 0.41256905 0.22185038 0.2920932 0.5658083 0.6255532 0.63394696 0.63147205 0.42342916 0.35191864 0.20848575 0.33649787 0.113009386 0.19416961 0.31299064 0.28707367 0.29434136 0.63016224 0.34434044 0.3686471 0.45835164 0.32256457 0.4518803 0.4329722 0.65813065 0.46824571 0.7764846 0.71091986 0.57838833 0.8534696 0.91923785 0.9374815 0.8577087 0.2511912 0.3105676 0.2843187 0.2069959 0.16934839 0.13881303 0.24722901 0.28531262 0.35449207 0.596542 0.6919069 0.29542783 0.19568649 0.11116487 0.56464946 0.5895261 0.6039947 0.30426577 0.3665811 0.38956386 0.38976285 0.62214845 0.6425272 0.66189396 0.6704127 0.55277896 0.5858599 0.7283157 0.7380179 0.7387472 0.6365478 0.50028646 0.24231252 0.2935438 0.38902715 0.37043843 0.54894555 0.5944252 0.52010125 0.5387558 0.7412605 0.5589448 0.19281253 0.30384982 0.4408615 0.76166177 0.59493923 0.45316646 0.43385422 0.20589638 -0.010550063 0.7454892 0.663464 0.52465165 0.38250005 -0.10576541 -0.062092587 -0.2656455 -0.032626703 -0.06536553 -0.456265 -0.31543326 0.20367426 0.3642112 0.56453836 0.18122709 0.11968491 0.30628356 0.30492532 0.637645 0.6347805 0.62338537 0.16767107 -0.1098298 0.23315012 0.6553081 0.6598483 0.6567774 0.16464895 0.1723606 0.049183954 0.6420227 0.6403675 0.6392764 0.17577747 0.041213028 -0.051510386 -0.20394197 -0.027772555 0.35455585 0.35654962 0.39859688 -0.035792463 0.03388814 0.42644817 0.4549609 0.52602446 0.5065479 0.43392855 0.06057009 0.32477355 0.4204194 0.44110534 0.53520817 0.5548881 0.53389025 0.40033704 0.07615483 0.11072612 0.094530515 0.28946766 0.43140292 0.47901568 0.54482216 0.5200078 0.3911417 0.046566755 0.09577653 0.102367416 0.07921253 0.05233763 0.29330948 0.507053 0.5710813 0.073149435 0.052793622 0.16371909 0.37218922 0.56719404 0.59744346 0.60276586 0.3560685 0.2774656 0.61317503 0.62346166 0.6273148 0.37918013 0.39368093 0.0016542748 0.3247682 0.4037878 0.43948883 0.13188352 0.19628549 0.35191566 0.40443295 0.4058612 0.5313945 0.26556948 0.12839481 0.19301926 0.66013235 0.6663163 0.7505616 0.71757257 0.7986571 0.88647866 0.9520844 0.84984875 0.38660052 0.36659616 0.18562724 0.21946862 0.2535238 0.23695262 0.19114503 0.16225278 0.22476187 0.33776748 0.421948 0.38412398 0.27563006 0.23524638 0.17015438 0.4757107 0.53351766 0.5933094 0.37166893 0.61194265 0.59205765 0.58293664 0.58353513 0.43393552 0.35574502 0.3938715 0.39872414 0.6152935 0.65775883 0.2673707 0.59471554 0.66781515 0.62830603 0.49308532 0.33655983 0.21067134 0.17017092 0.24714684 0.33828682 0.3604629 0.39614373 0.5444974 0.49975926 -0.04536559 0.54013824 0.5708232 0.646631 0.23948567 0.3650688 0.30747622 0.26207796 0.6043881 0.6598267 0.24302962 0.0738251 0.1565504 -0.21482386 -0.023344427 0.33886966 -0.10422332 -0.24119782 -0.21550897 -0.12415413 -0.30018574 -0.49761283 -0.23688866 -0.22273163 0.06626715 0.4568407 0.45456403 -0.26083744 -0.13115588 -0.5257511 -0.5077842 -0.24967094 0.26795524 0.566404 0.527367 0.5356489 0.5262968 0.50922024 -0.012776792 0.2623448 0.59422666 0.60284233 0.5972146 0.4854196 0.116290234 0.07250176 0.17578706 0.6036851 0.62936807 0.15914723 0.111318834 0.06845887 0.58948565 0.60855985 0.6266761 0.6164225 0.5887814 0.59596163 0.096996225 0.05257068 0.5675902 0.57063884 0.5469353 0.5366247 0.041108508 0.051943578 -0.14532702 0.16331291 0.25261956 0.37822545 0.0042503327 0.40151215 0.4779539 -0.23911022 0.10256101 0.4875111 0.48716795 0.4570403 -0.0050492883 0.18290152 0.38925576 0.3447731 0.18071191 0.11587282 0.077078864 0.08661692 0.101795375 0.04985717 0.12392859 0.29237914 0.34418717 0.27853507 0.32113075 0.4350055 0.41180623 0.3360242 -0.13367474 0.019454848 -0.0533743 -0.022508673 0.50451285 0.5156094 0.48129344 0.44173777 0.43640316 0.059170082 0.6625383 0.6765132 0.26837197 0.2084963 0.71417356 0.47620806 0.74924654 0.78915745 0.7998811 0.4850698 0.43393332 0.38995647 0.25113624 0.16415392 0.19046992 0.2258806 0.20346248 0.06695907 0.21952891 0.27526146 0.32239968 0.48174804 0.46870708 0.4727708 0.5120051 0.36900592 0.5599736 0.48919046 0.45766228 0.49509358 0.29796097 0.22543783 0.4483371 0.20997635 0.19646025 0.13603628 0.2079206 0.3263998 0.36381477 0.13902226 0.3741862 0.31875747 0.31738105 0.4569719 0.12815902 -0.24599597 -0.04995144 -0.36392343 0.34687525 -0.31544676 -0.12697235 -0.19217297 -0.19082889 0.42687514 -0.08762167 -0.36942786 -0.37660393 0.526846 0.53328675 0.30560756 -0.14944881 0.5554911 0.36353126 0.05796691 0.57698196 0.14710441 0.005907897 0.5690907 0.4725865 0.114034295 0.1304307 -0.0450629 0.5541107 0.5477947 0.5174557 0.47783163 0.41332775 0.10790502 0.2802708 0.22232798 0.16939557 0.0034358837 0.13600248 -0.11687733 0.29400977 0.18210456 0.21923657 0.13403296 0.14132485 0.14229533 0.14020438 -0.020653583 -0.12643778 0.037328143 0.1815086 0.14665183 0.15175731 0.11313565 0.22628911 0.22236097 0.39389247 0.256351 0.06848739 0.083645485 0.41833755 0.45099065 0.46360126 0.45484373 0.4204077 -0.10432762 0.10314746 0.65507483 0.62683797 0.38408393 0.6824149 0.679219 0.5845079 0.7047971 0.19993854 0.21991561 0.55318284 0.535998 0.48665512 0.41197115 0.3320628 0.17733763 0.15670933 0.14880188 0.17192976 0.19923413 0.26255214 0.29712307 0.3271894 0.51484925 0.53541803 0.32828057 0.38447914 0.47938138 0.2010076 0.3123787 0.2771721 0.18568122 0.31869826 0.20612037 0.22193015 0.20824964 0.1260105 0.10023673 0.12591009 0.123112194 0.13314003 0.27080312 0.15263566 0.21803595 0.2120459 0.14039612 0.12324022 0.0955131 0.08204304 0.04377276 0.16390313 -0.08462124 0.042593263 -0.17617217 0.34260723 -0.2501182 -0.12188808 0.43680483 0.16490135 0.46466553 0.51548064 -0.0781434 0.2194339 0.5277544 0.033471134 -0.19192126 0.25336757 0.4676369 0.4587896 0.459022 0.3956314 -0.11055757 0.33571085 0.08244576 0.36501756 -0.0562738 0.37524506 0.28280967 0.044574134 0.031636663 0.09195098 0.13073096 0.15957397 0.165891 0.31130636 0.20686969 0.16154666 0.05087411 0.08199281 0.03861242 -0.09046744 -0.23147702 0.69363177 0.6558802 0.1451655 0.1396025 0.11381347 0.17855364 0.23737898 0.26859808 0.31941485 0.30182683 0.3187431 0.7066928 0.6940032 0.6689966 0.59975475 0.100550145 -0.122111835 0.11547207 0.12973538 0.30557698 0.34449872 0.6976004 0.69209