# vtk DataFile Version 2.0
Really cool data
ASCII
DATASET POLYDATA
POINTS 2050 float
39.326977 52.22721 38.112484
39.242283 52.24106 38.405495
39.334187 52.19191 38.916824
39.16306 52.61738 37.949524
39.06422 52.658527 38.46147
39.21419 52.61928 39.123127
39.249893 53.58068 36.9705
39.094585 53.63787 37.488052
39.069607 53.48091 38.412663
39.197773 53.37859 39.01749
39.365765 54.379375 36.282272
39.149185 54.530045 36.82984
39.12159 54.563976 37.28312
39.20719 54.037556 38.402367
39.260838 53.97902 38.79782
39.375866 55.18871 36.768738
39.240364 54.96409 37.260876
39.39452 54.87114 37.944485
39.745663 52.042267 37.88977
39.600113 51.94882 38.504593
39.767357 51.987167 39.241016
40.112705 52.131176 39.7992
39.82793 52.803272 37.0266
39.508343 52.46092 37.54426
39.500317 52.60186 39.464443
39.89528 52.583405 39.803516
39.88743 53.844997 36.151974
39.542313 53.419273 36.80416
39.536896 53.436306 39.42077
39.672604 53.21925 39.698063
39.69087 54.526985 36.090294
39.41768 54.730522 36.34926
39.913696 54.03413 39.483597
39.798435 55.175278 36.160496
39.55459 55.19201 36.49822
39.710148 55.32838 37.784706
39.831467 55.18742 38.170223
39.996704 55.76749 37.424667
41.165302 51.046196 25.764338
41.07743 50.779476 26.454544
41.04751 50.970867 27.32265
40.79967 51.382904 38.783054
40.859745 51.37961 39.244907
41.048363 51.65563 25.72611
40.764893 51.612 26.508467
40.80084 51.616653 27.196667
41.295845 51.551964 28.092943
40.43054 52.2603 37.178185
40.160175 51.87051 37.82095
40.3624 51.577484 38.552414
40.244694 51.63596 39.197998
40.648346 51.921574 39.912457
41.062 52.372707 25.884392
40.794273 52.391808 26.578037
40.89132 52.381382 27.303013
41.274975 52.58907 27.80245
40.35526 53.168674 36.364346
40.67657 52.749954 36.75163
40.69828 52.64351 40.26858
41.13711 52.837852 26.049461
41.075077 52.991646 26.643064
41.132545 52.967857 27.283636
40.585747 53.64944 36.019627
40.359825 53.259525 40.08526
40.948456 54.30452 35.58496
40.60953 55.26501 35.78549
40.814384 55.436127 38.577576
40.363865 54.910355 38.88921
41.02317 56.466816 35.995285
40.863644 56.346893 36.807568
40.81778 56.305805 37.101734
41.090393 56.259945 37.752636
41.294243 58.026543 35.606743
41.41121 57.510612 37.00225
41.22905 58.575523 35.75608
41.087147 58.670357 36.567116
41.25497 58.719128 37.248085
41.277782 59.17253 35.790356
41.175724 59.15004 36.570076
41.288834 59.03956 37.200333
41.81575 50.211746 25.84882
41.768307 50.152996 26.424747
41.485416 50.34996 27.027782
41.9574 50.733322 25.288383
41.606186 50.6241 25.641153
41.526352 50.499184 27.53878
41.702248 50.79087 28.059063
41.081764 51.432686 38.907173
41.435574 51.40726 39.391796
41.81014 51.46444 25.180044
41.341896 51.145203 25.378119
41.515415 51.347042 28.273531
41.446293 51.774715 37.617626
41.814972 51.599728 38.502174
41.453476 51.61351 39.71474
41.49802 51.914574 40.168743
41.92764 52.26181 25.160328
41.374287 52.398624 25.52726
41.67189 52.329807 28.35235
41.405457 53.08075 36.20256
41.17522 52.458767 40.39411
41.98443 52.72291 40.761265
41.74697 52.991573 25.638674
41.452744 53.225903 27.403145
41.78039 52.8991 28.062973
41.813892 53.355335 40.70532
41.722954 53.702553 27.344069
41.498344 53.984352 40.36596
41.523758 55.402134 35.657936
42.140026 54.969307 39.75709
41.99445 57.158787 27.602228
41.923344 56.93013 28.556042
41.90518 57.068054 29.215546
42.04122 56.949802 35.698994
42.2762 57.778637 26.644667
41.83977 57.74543 27.540836
41.684887 57.62947 28.496973
41.84291 57.41 29.208654
41.489113 57.622086 35.75457
41.76348 57.52998 37.564743
41.94105 58.00101 37.806347
42.25847 58.449287 26.76672
41.996426 58.449116 27.40332
41.785988 58.306854 28.609114
41.88297 58.1551 29.24666
42.22752 58.476532 29.697052
41.58988 58.66071 35.04756
42.143757 58.86179 27.383324
42.1778 59.13975 28.35345
42.11094 58.922577 29.14464
42.177082 59.175213 34.637302
41.486366 59.41306 35.76322
41.43796 59.507202 36.64191
41.555023 59.362507 37.26543
41.87241 59.272575 37.71891
42.339195 60.46234 36.107456
41.803555 60.047398 36.619522
41.858486 59.960396 37.103947
43.404922 43.87625 32.596397
43.35872 44.441185 31.961678
43.328144 44.34376 32.54109
43.39052 44.73355 33.44049
43.355564 45.349884 32.01661
43.270756 45.618645 33.169853
43.447693 45.38658 34.184967
43.267517 47.222122 26.613192
43.335213 46.02319 32.248608
43.26308 47.60919 26.024939
43.13556 47.542336 26.648514
43.3633 47.466915 27.725758
43.133213 48.143955 25.973825
43.06202 48.50813 26.454676
43.26167 48.51145 27.912209
42.762615 50.254772 25.689505
42.45903 50.19731 27.666162
42.141056 50.739174 25.227425
42.315914 50.656433 28.217367
42.955402 51.257935 38.929573
42.492134 51.41278 39.323135
42.450867 51.719845 24.958225
43.21291 51.514782 34.131813
42.484455 51.524986 38.64662
42.709084 51.783825 40.34454
43.03054 52.036057 40.89323
42.177143 52.42159 25.065462
42.891174 52.74133 29.10339
42.88903 52.47657 34.797863
42.92496 52.584637 36.321136
42.71357 52.655537 41.065716
42.83544 52.86605 25.075592
42.863647 53.491776 28.88888
43.114147 53.53888 33.638767
43.023567 53.35924 34.37416
42.462826 53.514267 41.038597
42.936142 54.41732 26.63317
43.25626 54.481266 34.422504
42.006702 54.92925 35.792732
42.874763 54.121765 41.11975
42.77724 56.297974 27.911057
42.91532 56.245235 28.132168
42.609592 55.410473 39.331
42.99025 55.163273 40.254692
42.48768 57.03892 26.842937
42.860367 56.96228 29.8532
42.974934 57.196495 34.8629
42.76124 57.729862 26.165892
42.38429 57.556248 26.526056
42.334972 57.53539 29.85484
42.684566 57.396942 37.703182
42.785786 58.35539 26.189993
42.438164 58.561638 26.551449
43.02816 58.25843 34.32697
42.944107 58.791298 38.402225
43.05039 58.92169 26.322239
42.704205 59.1593 26.81823
42.512188 59.341293 27.458626
42.482323 59.432854 28.484379
42.630577 59.485855 29.458881
42.871803 59.77675 30.115389
42.932392 59.598835 34.38328
42.31213 59.38305 34.6527
43.15919 59.78067 27.106428
43.076523 60.310356 27.92758
43.147987 60.62357 28.546328
43.03836 60.725525 29.842737
43.01482 60.18654 30.059937
42.431747 60.594894 36.437817
42.453712 60.383945 37.70439
43.385284 61.394676 29.377766
43.343502 61.111507 30.070204
42.971348 61.286587 36.637375
43.03698 60.99256 37.60739
44.0783 43.1689 31.580982
43.96561 43.058826 32.589523
43.948143 43.299942 33.15888
44.249546 43.743652 30.841127
43.72464 43.614227 31.572994
43.490826 43.52179 32.27146
43.65386 43.943703 33.25754
43.958897 44.1076 34.41543
43.920147 44.506462 30.95309
43.506947 44.37534 33.42051
43.68842 44.62197 34.49124
44.166626 44.447308 35.306202
43.622902 45.542004 31.766973
43.54419 45.41199 34.479576
43.82619 45.45954 34.979797
43.83992 47.003635 25.901352
43.608616 46.86532 26.64522
43.49171 47.11115 27.25107
44.207 47.112965 28.549488
44.131046 46.561035 31.144472
43.96795 46.434517 31.63942
43.47973 46.58593 32.390305
43.88851 46.453094 34.268616
44.197506 46.418137 35.27594
43.944035 47.828087 25.31079
43.796013 47.3608 25.67304
43.59978 47.51152 27.925005
43.733738 46.918205 32.713177
43.974762 47.095974 33.099854
44.1907 47.00751 34.17986
44.172768 48.063496 36.04754
43.7886 48.706413 25.240734
43.455574 48.965084 28.193132
44.35244 48.47202 29.971083
44.29714 48.64624 35.494976
44.238434 48.58904 36.24393
44.422592 48.355824 36.982918
44.19426 49.366913 35.3956
44.035027 49.98546 36.17727
43.712246 50.86317 34.536003
44.047215 50.679623 36.626396
44.181896 50.167255 37.593483
43.627167 50.98332 38.88898
43.2368 51.43724 39.84597
43.451626 51.635166 24.876993
43.34382 51.38618 28.88655
43.502403 51.594547 40.439575
43.787704 51.833984 40.995007
43.445713 52.60225 24.733528
43.923756 52.474636 32.62786
43.865536 52.557766 41.80396
43.182316 52.991615 24.940756
43.474907 53.32824 29.394281
43.871635 53.237682 32.857765
43.571228 54.205456 25.925934
43.353012 54.575333 28.755621
43.764687 54.49548 33.221268
43.58136 54.32529 41.42155
43.78808 54.038773 41.65372
43.557068 55.24439 26.939598
43.752403 56.199215 29.19341
44.14464 55.50357 34.053547
43.268593 55.008606 40.491272
43.802677 55.300297 40.768898
43.33387 56.6995 26.685484
43.435448 55.736828 39.34888
44.01197 55.611496 40.587315
43.240997 57.702374 26.04188
43.366707 58.042656 34.31504
43.394363 58.459938 26.09232
43.71104 58.397934 34.283638
43.219044 58.969902 26.257011
43.48462 59.319435 26.555527
44.072865 59.67104 31.031395
43.271523 59.294624 34.407993
43.569485 59.655228 38.798096
43.682125 59.83798 26.939753
43.47173 60.159573 27.48628
43.918327 60.678173 31.17251
43.443222 60.48326 38.42181
43.75141 60.366768 38.769203
44.05074 61.127735 27.688463
43.571453 61.32074 29.633673
43.98914 61.533615 31.45367
43.691574 61.09523 34.89982
43.363094 61.00173 35.68474
43.569824 61.6493 37.53544
43.35498 60.890415 37.993137
43.986538 62.16886 29.347645
43.860844 62.183506 30.639547
44.296883 62.671566 33.308777
43.918526 61.978653 35.243587
43.46541 61.982594 37.04595
44.346718 62.809067 29.53966
44.00141 63.619625 32.241512
44.228966 63.34095 33.64416
44.213898 63.774284 34.44309
44.34802 63.200165 35.384003
44.249283 63.190098 36.287354
44.23703 64.30025 32.38071
44.39014 64.393074 33.182243
44.39749 64.94289 33.573067
44.667953 43.234726 30.842688
44.581123 42.86854 31.53689
44.95099 42.496822 32.827847
45.20843 43.075737 34.313408
44.374863 43.499416 30.959003
45.15177 43.435745 35.3267
45.398506 44.408516 38.27204
45.00254 46.173565 26.442759
44.631878 46.051975 28.868698
44.760124 46.176285 29.475746
44.585762 45.148388 36.094673
44.36873 46.69496 25.896679
44.55679 46.655155 29.918638
44.714855 47.14465 36.875645
45.20625 46.4935 37.37007
45.377617 46.948853 38.072895
44.77987 47.573242 25.15933
44.686596 47.365246 30.693552
44.5272 47.44842 32.602325
44.608295 47.43856 36.51818
44.86434 47.517456 37.360817
44.838074 48.496967 24.857689
45.03798 48.838947 38.279858
44.5454 48.827824 29.746708
44.68298 49.69168 34.480396
44.928455 49.387745 38.29638
45.005512 51.117085 40.80719
44.101524 51.667423 24.910942
45.179638 51.29931 29.529894
44.390793 51.272655 32.7753
44.89609 51.87005 42.17751
[...]
POINT_DATA 2050
SCALARS features_00 float 1
LOOKUP_TABLE default
0.7952074 0.81270415 0.8169006 0.7982856 0.8182734 0.8129807 0.75370204 0.7860255 0.7943057 0.7803959 0.7215345 0.7399212 0.7384811 0.75064015 0.7382827 0.68326664 0.69971186 0.6800567 0.7491919 0.79312503 0.7938297 0.752036 0.69212776 0.7482853 0.7962284 0.76042974 0.6902267 0.7228737 0.74799293 0.74345756 0.70259774 0.71819395 0.6601635 0.68229914 0.6874062 0.60714215 0.59869254 0.56978077 0.7607728 0.82068884 0.8266461 0.6346264 0.6237778 0.7777405 0.87647676 0.8621263 0.7602538 0.6391213 0.71219134 0.71527636 0.7421701 0.678722 0.8047935 0.85112894 0.7960652 0.7106323 0.6265074 0.580575 0.65263045 0.80468 0.8045696 0.7529073 0.6307862 0.6561918 0.63329995 0.6139627 0.40314823 0.53863513 0.44665813 0.4808126 0.45860228 0.31212536 0.5264598 0.44654253 0.54957294 0.52882934 0.50324106 0.5613069 0.5263171 0.5018084 0.63959503 0.66988194 0.7519644 0.65274656 0.7008851 0.7193184 0.6781768 0.5817502 0.5126659 0.67460877 0.7203512 0.7177997 0.54828787 0.44956744 0.52127415 0.53513294 0.65198034 0.7388015 0.62970734 0.45067546 0.59255457 0.48976976 0.6694606 0.69195354 0.5928737 0.47729892 0.6466271 0.46268168 0.4307511 0.29396307 0.7439895 0.7287762 0.700719 0.36739475 0.71984696 0.73837095 0.71186197 0.6904381 0.50097644 0.40117624 0.44762015 0.66732764 0.6779301 0.6500137 0.62297475 0.52979434 0.6061498 0.62332386 0.55521464 0.5265115 0.5625816 0.56337273 0.5125159 0.48352408 0.44641393 0.45886743 0.47680518 0.45879346 0.505467 0.5276256 0.5036275 0.4505973 0.48671594 0.4862619 0.4149648 0.49933785 0.43226504 0.5078153 0.48235756 0.37279806 0.4713335 0.4359373 0.29462394 0.4975604 0.5027728 0.62607497 0.53637767 0.28015044 0.35733002 0.5910499 0.25377738 0.3486907 0.38686275 0.38809437 0.6119758 0.35592335 0.2722422 0.0017656833 0.4267823 0.50286376 0.28288397 0.38236576 0.4071849 0.4082378 0.34151915 0.19019988 0.36796957 0.33500394 0.69806486 0.7125324 0.21364503 0.23692709 0.72894573 0.50300074 0.3515576 0.70442265 0.7250482 0.5995747 0.41447443 0.66803014 0.6534289 0.34810853 0.39932403 0.6028545 0.57780737 0.55415547 0.49955833 0.42435312 0.34866324 0.35737997 0.5348871 0.48942977 0.4471444 0.40244603 0.31855232 0.3342731 0.43194792 0.37677944 0.29933986 0.2862921 0.3561763 0.32107154 0.4992295 0.51398104 0.4720846 0.4309047 0.5253204 0.5247118 0.45667306 0.38827705 0.4689641 0.4488806 0.385203 0.33232942 0.4383559 0.39144665 0.33502936 0.5411217 0.5165919 0.44569468 0.27115405 0.20451094 0.2835585 0.38280177 0.39999795 0.20575398 0.51342434 0.52988 0.3413416 0.38317233 0.38554534 0.33332902 0.11414402 0.42562324 0.15779266 0.17078945 0.112624474 0.1769203 0.21528755 0.12985891 0.14192463 0.093727835 0.123951025 0.11090414 0.11535236 0.29278234 0.487293 0.3973003 0.30722892 0.3175 0.4610141 0.33381432 0.3540821 0.46233526 0.13311693 0.31990004 0.3359328 0.102635466 0.23461743 0.30751708 0.32075188 0.022065252 0.33077317 0.04901443 0.2434083 0.22527319 0.64965415 0.122615136 0.17467748 0.68922853 0.28889567 0.6324271 0.26928687 0.5877409 0.51263744 0.2855139 0.32140216 0.21575093 0.43052274 0.42900732 0.26811317 0.2570507 0.16485426 0.3061339 0.2944076 0.23810968 0.30160365 0.37308916 0.232986 0.2819777 0.29857773 0.25449473 0.14526325 0.1775069 0.25510567 0.2983744 0.23212421 0.22518274 0.24499382 0.16413349 0.18946148 0.29065308 0.2872001 0.31793952 0.3764562 0.4486558 0.44881266 0.37478387 0.42935258 0.2762057 0.2657946 0.4337575 0.25985116 0.17948642 0.12472679 0.5334338 0.12982361 0.15131652 0.13542953 0.18878381 0.50003874 0.069815636 0.20103063 0.13223895 0.2101244 0.46152204 0.19025756 0.118601404 -0.0019712448 0.15000871 0.14335386 0.41183984 -0.13876721 0.27364936 0.23917285 0.41017306 -0.11371287 0.25007278 0.21233925 0.34734988 0.27437124 0.23056087 0.2633215 0.21610549 -0.15747766 0.09208215 0.43381518 -0.27835003 0.0890072 0.61953783 0.0700234 0.00034948438 0.57508755 0.18410885 0.17463434 0.23342332 0.13273805 0.29033372 0.21344155 0.4661538 0.4963398 0.20791593 0.30568147 0.47092724 0.5392746 0.5754535 0.21263854 0.5519732 0.60594237 0.6339264 0.3443168 0.20276968 0.118909895 0.5727824 0.5267686 0.4583271 0.2260502 0.18556213 0.6229036 0.60262513 0.5216811 0.33512682 0.3298313 0.3139894 0.21767741 0.6199746 0.3544265 0.37136078 0.34132355 0.74860036 0.6358423 0.7059441 0.76639354 0.77492183 0.33967534 0.36036068 0.37323534 0.41588566 0.5895606 0.67522657 0.7105907 0.73033965 0.26843247 0.2388937 0.36649543 0.42895222 0.53984505 0.5582605 0.63999677 0.07443287 0.38743 0.41268083 0.36605832 0.44025365 0.25887775 0.21408764 0.18058698 0.31869084 0.2752547 0.2896858 0.26771972 0.20430568 0.3462674 0.40148622 0.13587524 0.16142638 0.3944496 -0.32268196 -0.19756213 0.2091848 0.15974317 -0.15314627 -0.13589302 -0.1341939 0.018344633 -0.3263566 -0.39515725 0.19301596 0.19570914 -0.24572666 -0.20979741 0.2090273 0.20909452 0.1926325 0.19751737 0.20359153 0.08718416 -0.2089715 -0.37768885 0.027623981 -0.21330269 0.16210784 0.060167495 0.39587486 0.24559537 0.4898181 0.5065459 0.24358927 0.5462174 0.57154834 0.24758337 0.22643541 0.34644967 0.66387594 0.63588834 0.36803105 0.55708694 0.69543546 0.6414598 0.534856 0.15312397 0.12267332 0.6427072 0.65786994 0.23902875 0.17922482 0.112946495 0.70007586 0.69414234 0.5838079 0.45668343 0.32929158 0.33074677 0.691712 0.7542658 0.793193 0.760427 0.59193116 0.7951877 0.75503457 0.1275166 0.162358 0.2909225 0.30499798 0.25478092 0.3391647 0.7308589 0.11988071 0.5860045 0.09066898 0.2089347 0.19419028 0.2695254 0.1441934 0.25947037 0.3073377 0.266093 0.2670052 0.16905057 0.17991903 0.2027682 0.20724843 0.20609918 0.077631876 0.18991502 0.14828797 0.057534616 0.12488978 0.111498885 0.15739192 -0.00014948472 -0.352945 -0.10219777 -0.110233516 0.34474295 -0.11355526 -0.09581872 0.020183062 0.33006033 0.3303203 0.22929612 0.15364486 0.3710432 0.20219123 0.24465185 0.47945848 0.26224858 0.50955963 0.25607926 0.24901643 0.5998581 0.2280756 0.24266794 0.44790596 0.57765675 0.58121616 0.5080088 0.06847153 0.60339355 0.54752517 0.66865563 0.68650925 0.6950771 0.72014344 0.7262411 0.6876795 0.5284585 0.13717544 0.34316945 0.46456364 0.5524258 0.61718094 0.6133318 0.68816054 0.7750366 0.7706535 0.71322787 0.23163462 0.50051486 0.6805136 0.66322166 0.14283332 0.21563499 0.13860247 0.23772748 0.5963043 0.19073796 0.4747674 0.18901317 0.1490727 0.32495707 0.20165527 0.24441203 0.20102347 0.21638548 0.13336097 0.2762845 0.2064055 0.17239614 0.18927899 0.22820574 0.13647269 0.11772102 0.1119672 0.13850814 0.18938588 0.1880812 0.20525688 0.16223063 0.18517762 0.043264896 0.14701587 0.020401511 0.08499423 0.028662708 0.24942541 0.2806023 0.32554793 0.4029944 -0.23697267 -0.261937 0.40251547 0.4430879 -0.22263452 -0.18596666 0.39785933 0.42473996 0.1357187 0.27255183 0.35246462 0.24988869 0.28338018 0.24476431 0.22534752 0.31153822 0.28839517 0.47591585 0.30068564 0.52474016 0.23621117 0.517793 0.5041477 0.5420163 -0.3413356 0.5322569 0.5160184 0.4997278 0.6609185 0.61560786 0.106715284 0.6638719 0.15924685 0.3763957 0.6569387 0.5723706 0.7044556 0.73446643 0.6034047 0.6416941 0.6832371 0.7380196 0.746325 0.75843656 0.6763769 0.7537974 0.8022425 0.7918097 0.6591552 0.7007115 0.7207749 0.67509854 0.25717577 0.29373384 0.55240005 0.62313557 0.5943812 0.28292173 0.44717094 0.42049652 0.33787096 0.23720238 0.19960889 0.24126455 0.22166976 0.17568226 0.24654359 0.1511432 0.26542076 0.12204817 0.1516877 0.14245369 0.02900806 0.1842162 0.1359482 0.11764011 0.10673198 0.05028443 0.10385597 0.10374765 0.033444043 0.08273079 0.079037264 0.32888192 0.42867884 0.1251059 0.43337822 0.4783671 0.48016185 0.49712393 0.39947277 0.45852107 0.2192287 0.34446472 0.40766454 0.29147106 0.22879308 0.3216046 0.028951772 0.32583553 0.3213889 0.30589285 0.3005473 0.20323534 0.05362234 0.42189842 0.46485072 0.38853475 0.46281576 0.5728663 0.5556587 0.40005797 0.23975198 0.71685076 0.5367692 0.75509286 0.63040084 0.8029033 0.7868476 0.7133573 0.8155782 0.8682227 0.83927244 0.42472002 0.6607255 0.39803132 0.5895338 0.38062677 0.47739568 0.47400895 0.5605631 0.59207845 0.3866736 0.35091153 0.17801207 0.27467978 0.37820223 -0.028452296 0.16453126 0.2690636 0.39333156 0.22090751 0.22116968 0.21083705 0.15325896 0.15281516 0.13125922 0.056181163 0.19669557 0.021034941 0.22962214 -0.017714282 0.043843325 0.29251546 0.13804361 0.43192458 0.18942913 0.5041919 0.5095607 -0.044726677 0.46578747 0.48828137 0.21286398 0.35768694 0.39740673 0.13731936 0.18871039 0.3364768 0.3417196 0.027834315 0.29238644 0.21614721 0.118588254 0.31797123 0.3639478 0.27324328 -0.112617224 0.25201744 0.30014032 -0.122904584 0.07395546 0.2126426 0.2949825 0.7517637 0.5241771 0.5403016 0.77867067 0.6010826 0.6725223 0.8702822 0.82003534 0.6792244 0.90172374 0.9368751 0.8904003 0.8144086 0.7952464 0.4522068 0.59312344 0.6704727 0.6481888 0.4359001 0.44218022 0.54898244 0.40573812 0.41731927 0.24656174 0.37709582 0.44984618 0.05134993 0.23541516 0.2639775 0.23345047 0.4165061 0.0090942085 0.011763513 0.2258988 0.36745086 0.017106172 -0.02127958 -0.09937726 0.20884609 -0.13952115 -0.18479313 -0.40111902 0.2035089 0.11802785 -0.45130908 -0.30397555 0.22152402 0.68263507 0.33949947 0.4387123 0.60489595 0.39429754 0.14622515 0.43012565 -0.0033492371 0.06342422 0.28646728 0.17917778 0.46586683 0.21096312 0.5013955 0.19954234 0.46264404 0.027046748 0.41502485 0.10780257 0.26972625 0.25340992 0.2860258 0.0635011 0.273228 0.1048807 0.34004873 0.41090328 0.41591418 -0.022859588 0.25272542 0.36066955 0.44389072 0.19301306 0.386948 0.101222865 0.27064544 0.40429515 0.5054863 0.85800767 0.60427743 0.6244935 0.8631531 0.88445187 0.84986883 0.7189032 0.8608568 0.90855473 0.91880566 0.8893512 0.90443504 0.78751683 0.88782215 0.87276673 0.8431561 0.4786935 0.49342862 0.45858723 0.7171626 0.44853395 0.19833829 0.3143374 0.4423958 0.4426229 0.19152775 0.3960873 0.36346453 0.18212736 -0.010003477 0.18902904 0.21072692 0.3844726 0.34572184 0.2924444 0.13601317 -0.095633104 0.182529 0.33825496 0.28276882 -0.13577491 -0.003308177 0.20330784 0.73508024 0.80106366 0.3572042 0.1898382 0.77149034 0.78026104 0.54339135 0.46012855 0.25827622 -0.21099734 -0.27459073 0.69429976 0.73292196 0.5251279 -0.024354778 -0.20223857 -0.09099841 0.6151931 0.66884696 0.6167065 0.4956876 0.48892727 0.60744226 0.6528454 0.25663236 0.45733142 0.62524676 0.52861154 0.3458037 0.30824217 0.15924254 0.18539366 0.44971025 0.42788363 0.24073532 0.34972733 0.39660504 0.25279832 0.26060092 0.36307478 0.4007894 0.30589855 0.3632792 0.17516866 0.21174344 0.08005562 0.13170165 0.22594094 0.19512483 0.19748582 0.17746443 0.38399544 0.060079798 0.09913431 0.4312037 0.13298602 0.1357027 -0.06759128 0.42829037 0.43103474 0.09884461 0.058657385 0.015875023 -0.09551458 0.2094325 0.20534523 0.2753119 0.38250405 0.41362584 0.50223315 0.7190442 0.5973246 0.6471606 0.73275506 0.7677368 0.7287071 0.8140806 0.842936 0.88320935 0.9275038 0.6614803 0.74509454 0.92314816 0.59997296 0.8819454 0.8609401 0.5019582 0.52903056 0.820688 0.48151433 0.46843082 0.4577636 0.4211066 0.41265947 0.48401132 0.190166 0.13211405 0.37987363 0.3622086 0.35139698 0.32150996 0.05730331 0.066820696 0.3197248 0.3063709 0.02878192 0.0627079 0.003757462 0.8064381 0.82583976 0.31176248 0.80356026 0.40076762 0.34209093 0.09976998 0.74263275 0.7372327 0.69734615 0.60581595 0.22120066 0.25073314 0.28577 0.2512989 0.6739462 0.7029439 0.71838313 0.0989385 0.58883435 0.74089503 0.40566522 0.72388524 0.31131864 0.37040734 0.5787951 0.41745913 0.44484204 0.39495486 0.24537988 0.14086021 0.3347123 0.36260208 0.28122804 0.09550058 0.097677045 0.29564214 0.06998176 0.33390313 0.12417138 0.25397205 0.12014507 0.20798478 0.04711099 0.4039379 0.41935676 0.16709094 0.16967602 0.40948427 0.41087556 0.11707704 0.068566605 0.32384795 0.37858492 0.025614448 0.30804873 0.88033926 0.9279269 0.6925709 0.78031015 0.85935557 0.91511744 0.9137864 0.6636276 0.7125659 0.8721379 0.5628205 0.652333 0.81209046 0.48271668 0.68164015 0.4674033 0.4769881 0.534971 0.56818384 0.6071062 0.41927367 0.46208155 0.62102437 0.39054236 0.33018282 0.19406465 0.07527968 0.14915147 0.6109843 0.77833766 0.8326888 0.4210117 0.804929 0.6608721 0.49765998 0.37768427 0.41886085 0.42103085 0.7347381 0.73314327 0.76063335 0.7421067 0.5691781 0.5143488 0.26332206 0.29352385 0.3254807 0.3270582 0.6566384 0.699677 0.7771158 0.77899796 0.35703853 0.20220083 0.50815105 0.82417256 0.43749684 0.7855431 0.4055814 0.71465075 0.58270854 0.054300126 0.2854666 0.25253943 0.061986685 0.06362404 0.21488433 0.12559369 0.29010144 0.23098996 0.14483167 -0.25374877 0.06241159 0.17798948 0.22289178 0.16295974 -0.020047687 0.38130504 0.04740915 0.44411957 0.10529235 0.3526646 0.17208976 0.13439253 0.32841545 0.28564638 0.07266561 0.19761004 0.2806393 0.07672011 0.3911751 0.37475228 0.33839375 0.5702678 0.44357044 0.04081439 0.07180241 0.05947061 0.046001367 0.33619362 0.59307647 0.32077822 0.15017293 0.08400741 0.08285178 0.108880244 0.2919923 0.33773997 0.3099562 0.57042193 0.5332486 0.19427808 0.4092635 0.79682547 0.834437 0.8808886 0.76379716 0.81533366 0.85685146 0.87095946 0.73179626 0.7772918 0.7877979 0.8268975 0.6410719 0.72666526 0.59353703 0.5996156 0.4761036 0.6489997 0.35110188 0.48574507 0.28292835 0.283601 0.09567949 0.23114543 0.31175098 0.7595718 0.56369543 0.75424665 0.7852844 0.3989055 0.17278078 0.73419726 0.74629045 0.70271313 0.6328411 0.31144089 0.3607874 0.33992696 0.6422111 0.7657668 0.701058 0.61716425 0.4916119 0.40613538 0.39985162 0.36998856 0.26854175 0.30324918 0.24385005 0.1927275 0.58929497 0.81224537 0.79038423 0.39641905 0.35571128 0.4091301 0.33694363 0.17378734 0.24679506 0.20296893 0.1781845 0.12143047 0.42690432 0.80097735 0.7687652 0.50121653 0.36236942 0.32133412 0.18425305 0.27205986 -0.04686507 0.061298497 -0.21091029 0.38953584 0.41487104 0.7254807 0.7023619 0.41370988 0.26323023 0.11945915 0.14174703 -0.009744778 0.009482771 0.2485432 0.25414598 0.028732883 0.06261252 0.01524549 0.019387871 -0.1614675 -0.039531253 0.03980513 0.05374655 -0.110919975 0.055111736 0.056083933 0.4424196 0.34884006 -0.046505023 -0.22078288 -0.120269276 0.49031535 0.5417464 0.4675913 0.06304902 0.15877785 0.4293782 -0.11964253 0.0807745 0.0039970987 0.15998207 0.57413167 0.5470493 0.26011017 0.6293841 0.2796564 0.6154399 0.5974376 -0.03439346 0.062132433 0.13085851 0.17848416 0.2665628 0.37748793 0.6051579 0.59148955 0.35836783 0.16352382 0.05481428 0.14826907 0.1419656 0.19331601 0.15378273 0.3054417 0.37458235 0.3937673 0.5760562 0.5092423 0.13850392 0.64475334 0.59996057 0.5304475 0.62585676 0.63634074 0.5100038 0.4227258 0.50852 0.28322807 0.41579318 0.21074165 0.33964077 0.14864111 0.26869714 0.2635363 0.5819453 0.65567744 0.537378 0.73278964 0.68762803 0.6253265 -0.13373683 0.42709497 0.7375252 0.6888094 0.6246456 0.478298 0.35425043 0.36862415 0.32962662 -0.119725145 0.27909616 0.671029 0.5398197 0.32986188 -0.19871695 -0.08833503 -0.09834728 -0.22882557 0.038510144 0.030372292 0.02125663 0.011048673 0.01853599 -0.0077878516 -0.010897653 0.00011385977 0.06676172 0.07803404 0.05307839 0.033045415 0.01909209 0.04135976 0.05265086 0.031925347 0.4837164 0.3854298 0.05805804 -0.03690864 0.55571914 0.47755837 0.09779868 0.5483023 0.02838166 -0.016118303 0.33866695 0.3653773 0.5480486 0.38176942 0.6413681 0.40768948 0.63075995 0.38838214 0.6061501 0.6025402 -0.022904001 0.20845939 0.21466225 0.28527707 0.38055757 0.38576332 0.39068592 0.5993513 0.4416281 0.30687585 0.11537495 0.012152091 0.093485445 0.27889645 0.22238517 0.21280698 0.04824262 0.111371286 0.29725343 0.3420722 0.38765013 0.36745244 0.43469027 0.43403855 0.5939951 0.6187918 0.60397243 0.45804173 0.34290314 0.542611 0.5256026 0.21863605 0.42613357 0.18794402 0.3779188 0.1602348 0.32124525 0.27482465 0.11994028 -0.02096267 -0.16295892 0.1016168 -0.06677378 0.23882703 0.06054506 0.08098526 0.06258423 0.04689565 0.04994756 0.104486056 0.05799814 0.049237132 0.021980137 -0.013896007 -0.004324347 0.008089509 0.07782708 0.059239008 0.3284676 -0.40100324 0.3964346 0.16311085 0.14861104 0.077224545 -0.37051105 -0.3840059 -0.047159817 -0.0071485415 0.31492448 0.22175732 0.42708975 0.548635 0.3984084 0.43909281 0.6184013 0.47785574 0.6202332 0.44722968 0.59805644 0.5820804 0.3443961 0.37473202 0.38036984 0.4045847 0.5743072 0.54610455 0.24333666 0.17213015 0.2734797 0.18933941 0.35471335 0.49232405 0.36087805 0.45933908 0.40896475 0.5806246 0.5574125 0.53890085 0.4503959 0.36334512 0.15918721 0.3309788 0.27426925 0.3037407 0.40386343 0.29451275 0.2789106 0.24334821 0.0074451044 0.097930424 0.17349222 0.032379158 0.034901917 -0.07905809 -0.13052689 -0.12592268 0.5652319 0.7534761 0.0767269 0.09935027 0.5487585 -0.06089731 0.37584573 -0.10641673 0.44714376 0.18525943 0.47976714 0.4459758 0.50563645 0.5601361 0.54500026 0.55406976 0.5432299 0.5746341 0.5650798 0.21689165 0.2813482 0.38996074 0.42873424 0.51435673 0.52336323 0.14903332 0.5096556 0.4846474 0.38909903 0.6445347 0.63494617 0.59515554 0.6857639 0.6791085 0.6559291 0.3363555 0.260724 0.24287185 0.13398422 0.22455986 0.14837646 0.22111182 0.24320619 0.25907457 0.29061782 0.28767413 0.51550007 0.3331889 0.44473803 0.49987185 0.14501075 0.17852607 0.21835156 0.74913937 0.03353753 0.12870131 0.788825 -0.061998196 -0.15501101 -0.07142688 0.77609944 0.72049296 0.077388994 0.6857772 0.6334866 -0.22098698 -0.047845867 0.08325433 0.5146308 0.4041602 0.33130985 0.5863223 0.5548947 0.43883717 -0.03351651 0.63459396 0.5096275 0.46833777 0.23372975 0.55608076 0.6187583 0.63007724 0.5304215 0.50666845 -0.17468554 0.0059149005 0.600492 0.41253805 0.015254088 0.46966785 0.67759216 0.5591836 0.7221923 0.71371275 0.68201196 0.6209267 0.7026338 0.47729784 0.5002474 0.37280416 0.30427498 0.3205545 0.33224732 0.36596516 0.3188578 0.3247047 0.5026591 0.3719522 0.4443937 0.46877682 0.5743577 0.5776089 0.5668688 0.5764558 0.5908814 0.21014686 0.23134124 0.7193929 0.19344747 0.748021 0.7188951 -0.27098298 0.6739166 0.6989463 0.18526565 0.6030201 0.62347233 0.6410497 0.18509528 0.48212147 0.4448921 0.59556824 0.33977655 0.27126735 0.17543647 0.636336 0.40959895 0.31982395 0.5819582 0.7147373 0.67826515 0.40927517 0.018174477 0.0012695901 0.6901094 0.6867171 0.43857294 -0.061527528 0.32927364 0.55137205 0.61499393 0.47845924 0.694046 0.5417856 0.739964 0.64191014 0.84208006 0.8794847 0.89906484 0.69036275 0.8157365 0.81711483 0.76296055 0.33233613 0.5802916 0.36530387 0.34965813 0.4184402 0.3848123 0.27773115 0.42287207 0.5053847 0.4442445 0.57728505 0.4527365 0.6280185 0.5214003 0.5967523 0.6426492 0.6218394 0.62013215 0.62975574 0.3707788 0.62645066 0.6946614 0.29525915 0.3214259 0.1958491 0.29817346 0.7340486 0.7465689 0.4903286 0.29614493 0.24375458 0.35326946 0.74074805 0.72587234 0.6761588 0.702623 0.7119743 0.5765222 0.66075695 0.66219985 0.58880424 0.1963337 0.46263865 0.5047485 -0.12031161 0.6096254 -0.073232695 0.2669019 0.7132894 0.19470009 0.0071185194 0.20077246 0.17703733 0.3342459 0.32838076 0.55998033 0.65516865 0.44429615 0.6728728 0.7083251 0.5133545 0.7132542 0.71823287 0.71546155 0.60140824 0.52439946 0.86072755 0.9046643 0.90322804 0.7296325 0.85565674 0.53746384 0.7975037 0.43979812 0.7364834 0.37946427 0.41285872 0.4132105 0.43200022 0.47732112 0.4732967 0.44191134 0.5799722 0.6137264 0.48164055 0.49287376 0.5930436 0.63933074 0.6495868 0.57126594 0.63303626 0.6534956 0.6905489 0.42741042 0.3593914 0.33314025 0.41122538 0.60405374 0.74066293 0.76485634 0.7099213 0.6010735 0.7676095 0.7073523 0.7117077 0.74540466 0.69275844 0.64267427 0.7023901 0.73401296 0.7382533 0.67435443 0.6206126 0.20427468 -0.09836242 -0.0025556982 -0.102200866 -0.088732585 0.31247723 0.4022191 0.18970576 0.053279016 0.38113824 0.3639713 0.5825033 0.5468117 0.44186303 0.6757238 0.6738545 0.52612185 0.70187783 0.703021 0.68060625 0.5935204 0.70933723 0.69189334 0.6369702 0.8403971 0.877864 0.9081758 0.75104344 0.7869934 0.9048521 0.88152164 0.5731436 0.64707875 0.84159553 0.54227734 0.7925134 0.51917744 0.72409844 0.4642412 0.3886304 0.4528401 0.4124