# vtk DataFile Version 2.0
Really cool data
ASCII
DATASET POLYDATA
POINTS 6869 float
24.376534 33.13888 14.480065
24.23858 33.711956 13.9080515
24.263725 33.601357 14.487162
24.270227 33.92626 15.064635
24.352833 34.405136 12.71881
24.152792 34.652885 13.6623955
24.07884 34.527992 14.412389
24.226542 34.58599 15.040982
24.412918 35.533005 12.724537
24.22298 35.486523 13.7953415
24.148972 35.08723 14.556579
24.289656 35.1421 14.949444
24.458609 36.31312 12.791236
25.480055 27.713686 19.891136
25.487762 27.649345 20.272354
25.26019 32.622524 12.326308
24.709866 32.869873 13.634591
24.759962 32.82542 14.508906
24.743433 33.076412 15.133385
25.190538 34.005947 11.249042
24.976368 33.722397 11.6757555
24.64483 33.59185 12.560874
24.460722 33.2476 13.455894
24.746155 33.664803 15.46281
24.925598 33.921898 15.75488
25.276457 34.340225 11.156585
24.81582 34.204517 11.808736
24.591692 34.832794 12.252405
24.47453 34.559216 15.38014
24.98997 34.638527 15.775999
24.740734 35.324753 11.96355
24.601395 35.326668 12.493927
24.381155 35.55019 14.786226
24.711315 35.293816 15.230307
25.031927 35.04691 15.686994
24.999245 36.260242 11.684291
24.60036 36.532116 12.482924
24.616112 36.52161 13.362773
24.769905 36.176662 14.36975
25.07719 35.924812 15.01508
25.057932 37.114033 11.925089
24.771246 37.16185 12.584304
24.844942 37.078724 13.247739
25.317026 37.12579 14.009969
25.333805 37.845028 13.201604
26.130814 26.333237 19.7728
26.175314 26.309456 20.267157
26.080475 26.795076 19.026577
25.837688 26.767101 19.620892
25.830547 26.777397 20.52985
25.986387 26.91444 21.136614
25.941723 27.410288 18.87869
25.623966 27.48782 19.591223
25.579699 27.42164 20.515053
25.832249 27.479418 21.231434
26.186487 27.33221 21.664577
26.272833 28.912355 17.942247
26.122196 28.462347 18.45739
25.696354 28.219557 19.634314
25.70893 28.391891 20.55055
25.954004 28.214222 21.237701
26.330929 29.844742 17.96103
26.19534 29.567661 18.551624
26.013615 29.08255 19.549896
25.975525 28.817234 20.691242
26.235748 28.981482 21.13119
26.411573 31.107525 11.374759
26.430788 30.466484 17.832855
26.422632 30.10924 18.166986
26.361975 29.839087 19.92046
26.398968 29.737917 20.40209
26.216013 31.936739 10.612147
26.061666 31.730762 11.521989
25.914612 32.332314 15.296711
26.193579 32.68873 10.291586
25.885292 32.557922 10.731997
25.433846 32.903408 11.238914
25.277647 32.90087 15.464421
25.870546 32.785744 15.831727
26.218243 33.20952 10.262132
25.72747 33.393906 10.722385
25.39554 33.40877 15.851368
25.641846 34.53517 11.015312
25.6087 34.42968 16.05977
25.779074 35.200638 11.121228
25.996025 35.741238 15.567305
25.564823 34.988083 15.906012
26.474203 35.757626 30.702803
25.698599 36.3241 11.054684
26.460318 36.723667 26.57038
26.467344 36.917183 27.218025
25.941702 37.25916 11.051198
25.641788 37.636467 11.52968
26.017992 37.87319 14.960642
26.299852 37.418873 15.823881
26.455982 37.239822 25.84835
26.424543 37.474247 26.497786
26.45599 37.591076 27.093056
26.09268 38.059464 11.157994
25.89846 38.2556 11.780132
25.864494 38.314407 13.639535
26.267864 38.329193 15.39159
26.418373 37.890152 26.417206
26.349825 38.82932 11.518449
26.148308 39.26577 13.064407
26.242199 39.387268 13.65355
26.194757 39.42727 14.344062
26.369549 39.41514 14.994457
26.37206 39.907936 14.557672
26.3516 42.761806 12.493956
26.36667 43.01587 13.178115
26.423006 43.331223 12.079677
26.372555 43.49508 12.567982
26.39547 43.432003 13.122814
26.413773 43.849632 12.801657
26.682486 26.327797 19.0778
26.46827 26.203945 19.723734
26.506006 26.297958 20.560202
26.64215 26.37041 20.89661
26.900854 27.157305 17.963123
26.507975 26.571959 18.852362
26.408085 26.75701 21.362453
26.64078 27.02793 21.659756
26.736567 27.740473 17.710447
26.521038 27.52215 21.776264
27.295164 29.262785 11.857366
27.002583 28.794294 16.864197
26.443537 28.312344 17.812693
26.704473 28.30278 21.754871
27.138987 29.972403 11.029595
27.101696 29.654673 11.559212
27.071732 29.663124 12.273243
27.288685 29.615324 12.943881
26.922037 29.645906 16.735538
26.530336 29.043604 21.319492
26.971954 30.455164 10.973284
26.584955 30.624197 11.456468
26.64429 30.512766 12.44531
26.587957 30.211996 17.065401
26.487158 30.652552 17.523243
26.81216 30.350487 19.759125
26.664284 30.071285 20.407867
26.850391 32.02405 10.082409
26.521912 31.78595 10.4313965
26.512012 31.34615 13.021805
26.669088 31.606098 16.58808
26.779224 31.268518 18.463444
27.188082 31.109835 19.620522
27.228714 30.750498 20.451319
26.556885 32.633137 10.018421
26.537004 33.235947 10.0842705
26.555202 34.074203 10.328433
26.505568 34.466473 16.319145
27.336246 33.912308 17.050459
27.290573 35.18799 25.616505
27.28718 35.290962 26.565157
27.085512 34.63585 30.131874
26.812222 34.845997 30.608885
26.943521 34.92151 31.353888
27.098633 35.06664 31.775211
27.204077 35.570633 10.395669
26.724693 35.63303 10.517348
27.2267 35.744476 25.10652
27.140717 35.52651 25.60477
26.881662 35.877277 26.350374
26.917223 35.95627 27.126793
27.33236 35.879276 28.637476
26.827724 35.44137 29.925573
26.55821 35.44319 30.561722
26.629128 35.530922 31.236052
27.053883 35.60889 31.90401
26.779404 37.053627 16.302883
27.110804 36.54299 25.022787
26.766079 36.65511 25.591452
26.577549 36.53934 26.447443
26.609055 36.633858 27.394682
26.968805 36.52104 28.052967
26.827782 36.066006 29.91441
26.626835 36.16956 30.5585
26.780783 36.318092 31.390059
27.127869 36.3583 31.96224
27.06182 37.475582 9.895939
26.466549 37.332092 10.6238365
26.652128 37.587395 16.239851
26.89248 37.622364 25.234352
26.60734 37.56181 25.67936
26.502039 37.82786 26.54143
26.523699 37.68662 27.435791
26.955908 37.481853 28.344696
27.161016 37.189587 30.847624
27.088005 36.952618 31.40404
27.332357 36.918835 31.856958
27.321188 37.905163 9.730303
26.589033 38.52083 10.891599
26.379667 38.557358 11.412577
26.668776 38.00214 16.25365
26.930435 37.878216 25.2955
26.899519 38.355522 25.728706
26.64801 38.25287 26.427172
26.803905 38.223946 27.247524
27.120743 38.227028 28.16559
26.982473 38.759518 10.630583
27.068916 39.462257 11.240951
26.582844 39.450317 12.456725
26.547602 39.256985 15.347987
27.06611 38.776085 26.005995
27.101492 38.870113 26.592255
27.255932 38.95452 27.417923
27.214378 40.979298 11.924744
26.828379 40.552998 12.905314
26.58022 40.3828 13.892937
26.703493 39.81246 15.118112
27.089571 41.56678 11.6701975
26.575163 42.086926 12.416035
26.710506 41.62128 13.399164
27.31303 42.218903 11.13408
26.593344 42.72198 11.917908
26.519567 42.32022 12.463018
26.550705 42.86728 13.46216
27.139717 43.23506 11.273731
26.759302 43.44136 11.684843
26.470882 43.666412 12.205051
26.57152 43.520233 13.381935
26.95204 43.43505 13.973675
26.865618 44.06921 11.952373
26.819214 44.28195 12.493918
26.836721 44.144463 13.260198
27.036709 43.916935 13.8378725
27.222492 44.681747 12.533209
27.195185 26.338814 18.996056
27.10513 26.14182 19.617535
27.094593 26.221727 20.54155
27.223034 26.396807 20.934963
27.620216 26.997692 17.945215
27.471268 26.672024 18.655714
27.10151 26.705576 21.416687
27.453562 27.111792 21.709904
27.548662 27.80068 17.017328
27.249292 27.407906 21.806559
27.83975 29.2479 11.167778
27.77522 29.169657 11.48613
27.674416 29.15971 12.486697
27.880941 28.971312 15.703545
27.015257 28.01971 21.851055
27.752184 29.67215 10.84212
27.447075 29.404133 11.365024
27.82138 29.752447 14.531056
27.90858 29.347305 15.433572
27.405903 29.71532 21.695652
27.987337 30.748842 10.1942625
27.66619 30.213615 10.564469
27.364246 30.530558 20.744265
27.968287 29.909657 21.749147
27.634405 31.664759 9.995448
27.395044 31.189001 19.468948
27.994326 31.050982 20.276596
27.4017 32.12113 18.11754
27.305517 31.823872 18.848665
27.525963 33.649784 9.908618
27.87023 33.600822 17.507776
28.264017 33.868626 18.193226
27.971798 33.856552 29.86397
27.749346 33.995846 30.557653
27.712542 34.179356 31.249786
27.45698 34.262177 16.686924
28.280539 33.988125 17.84035
27.700443 35.10191 24.761301
27.633785 34.96199 25.465675
27.388655 35.11881 26.03908
28.033928 34.768696 26.961523
28.18817 35.036186 28.249653
27.526844 34.879578 29.357468
27.471006 34.527935 31.55955
27.658693 34.793213 31.916903
27.845695 35.715137 9.61133
27.690243 35.338284 16.594877
27.530134 35.486874 24.701332
27.5464 35.458973 27.19645
27.675346 35.524902 27.89854
27.62062 35.698414 32.269234
27.989433 36.725044 8.983391
27.553082 36.647816 9.406028
28.014008 36.705322 17.007792
28.229147 36.91358 24.210642
27.55926 36.5592 24.582464
27.506466 36.500446 32.17887
28.032108 36.08693 32.54363
27.945805 37.270145 9.013224
27.646536 37.332573 9.346943
27.709997 37.538162 17.02286
27.7225 36.988487 24.293795
27.413042 37.4023 24.734207
27.43492 37.409473 31.393866
27.699013 37.131474 31.993582
28.298151 38.64791 9.251318
27.695099 38.259888 9.59608
27.660927 38.678978 29.368622
27.982723 38.616997 30.317577
27.867977 37.939686 31.101334
27.543297 39.106815 10.486392
27.650919 39.360283 16.218681
27.538805 38.70766 25.280933
27.587013 39.09992 25.942278
27.671227 39.421513 26.634098
27.563524 39.375774 27.4426
27.715252 39.347595 28.649881
27.840584 39.34667 29.361319
28.11016 39.27277 29.974169
28.24714 40.82694 10.604181
27.716394 40.03352 15.484944
27.94617 39.7332 26.946095
28.06234 39.853283 27.231527
28.110794 39.90046 28.64117
28.097694 39.783024 29.290775
28.274923 39.762478 29.80424
27.67893 41.540962 10.977482
27.384647 40.790356 14.448962
28.195972 42.083275 10.394265
27.826973 42.541 10.7172785
27.881472 42.783413 14.637428
27.62885 43.415146 11.046912
27.52537 43.428204 14.421361
27.879322 43.440872 14.605069
27.636593 44.019135 11.300192
27.481205 44.42114 11.747571
27.321997 44.49572 13.487931
27.756945 44.268543 14.055567
27.705719 44.74219 11.953144
27.547476 44.828247 12.546238
27.53839 44.717804 13.23124
28.120085 27.095486 17.779482
28.471302 27.032204 18.314445
28.279863 28.27816 16.515144
28.009096 27.774483 21.599483
28.54341 29.205877 11.161547
28.445578 28.953321 11.621781
28.36672 28.914738 12.268262
28.857798 29.21877 13.364244
28.959953 28.513344 15.980113
[...]
POINT_DATA 6869
SCALARS features_00 float 1
LOOKUP_TABLE default
0.59738636 0.5932778 0.60942566 0.6015662 0.4576974 0.566764 0.60112405 0.5860498 0.4505934 0.52023315 0.56730103 0.55381393 0.44633508 0.7994947 0.856009 0.37233257 0.5216702 0.56189466 0.5757 0.31556106 0.34420002 0.43179542 0.5388558 0.5728261 0.5419426 0.3036241 0.36103755 0.4043566 0.56477654 0.50170624 0.38795555 0.42808893 0.51819277 0.50514895 0.47151232 0.39216626 0.43351296 0.4276741 0.42872304 0.40889317 0.39382896 0.4049703 0.38290834 0.29103824 0.31387216 0.8357151 0.8605008 0.7439322 0.8395511 0.8968563 0.88804966 0.7099821 0.79199326 0.89791816 0.9062643 0.85731685 0.4211383 0.5243726 0.6708162 0.75670767 0.8534737 0.35841435 0.4083827 0.52239764 0.6800788 0.6651379 0.46506113 0.31265518 0.35265508 0.43066022 0.4731353 0.4223997 0.39530566 0.4009039 0.38124043 0.37016785 0.34025705 0.53233325 0.41544983 0.34279004 0.32233867 0.50267607 0.27519643 0.41145316 0.2799098 0.23412758 0.37933612 0.72881633 0.32389006 0.5203816 0.49789417 0.28706288 0.30856174 0.22208074 0.14893614 0.55631864 0.54529154 0.5264893 0.23919308 0.2519718 0.25449294 0.26148906 0.5430647 0.19427629 0.2109038 0.2307938 0.26805437 0.3058655 0.2761186 0.6222179 0.642593 0.6837554 0.701785 0.6912296 0.72557026 0.68817246 0.80348694 0.8490845 0.8425412 0.548539 0.6771817 0.84932584 0.8238667 0.55021346 0.825374 0.5838991 0.38769776 0.50060457 0.7795483 0.5720443 0.56904143 0.5302946 0.48224142 0.32898313 0.6461773 0.5409601 0.50396657 0.46759114 0.29112 0.28984052 0.34061328 0.4083975 0.4648351 0.45716047 0.37458318 0.07813106 0.30836365 0.24998347 0.28849775 0.40071923 0.3480699 0.25763214 0.1693525 -0.113640025 0.44770777 0.39479423 0.58393127 0.70441437 0.7811856 0.7652997 0.21318758 0.2141227 0.48667622 0.4757149 0.47083634 0.4108954 0.2462899 0.52655745 0.7019534 0.7889116 0.75555116 0.06945045 0.5237258 0.54378873 0.51567245 0.4621301 0.3798272 0.5108627 0.6849987 0.74010694 0.69118077 0.27435744 0.25082105 0.14761174 0.5512446 0.5590272 0.54083854 0.5119782 0.43497342 0.52814615 0.6137674 0.5993022 0.2666214 0.2038755 0.20828444 0.20517582 0.5477438 0.5324876 0.5273017 0.498114 0.44270074 0.19390032 0.1081616 0.14903824 0.31325355 0.49510187 0.4718145 0.42819893 0.262724 0.1623577 0.22874576 0.30615634 0.42795938 0.52454424 0.35781738 0.49729753 0.61548394 0.56129193 0.6140504 0.6341429 0.68834656 0.7158194 0.6965232 0.6576778 0.7389766 0.75076175 0.737109 0.6979395 0.74726367 0.57367593 0.69092536 0.7817694 0.77515465 0.44284394 0.48033834 0.7927704 0.73598266 0.38793826 0.74689615 0.6261857 0.6210413 0.57756084 0.09963878 0.73889464 0.6155062 0.6036732 0.12554355 0.06915282 0.4937707 0.5559627 0.59067595 0.3268005 0.40640932 0.5040705 0.22911522 0.1851275 0.070859924 0.17411399 0.33839092 -0.1879415 -0.15403834 0.47260547 0.60815823 0.66186935 -0.09341041 -0.1576138 0.43552825 0.41625357 0.41330034 0.24909866 0.16006649 0.3394063 0.71129227 0.69232833 0.35039833 -0.11019841 0.4554674 0.3299868 0.25320587 0.6837026 0.38340336 0.360246 -0.060301714 0.38245404 0.48447853 0.63930076 0.61496866 0.3580876 0.33458155 0.043054592 0.45331433 0.5059464 0.48125553 0.54319584 0.21977058 0.2543254 0.3312313 0.2874931 0.33664137 0.15091398 0.22756934 0.48004085 0.43205696 0.39651707 0.3929603 0.38101315 0.35986167 0.32227647 0.09712362 0.22766466 0.36001855 0.35465682 0.37894464 0.3695371 0.3440008 0.34547317 0.2397615 0.33117163 0.44384646 0.3868457 0.59040254 0.5694088 0.4868457 0.6655185 0.7239909 0.7162113 0.61199003 0.715526 0.72522426 0.7100002 0.35076657 0.28985938 0.14406359 0.5926497 0.631584 0.63073266 0.6110706 0.4326874 -0.024724009 0.46386802 0.62314105 0.33388257 0.5467539 0.16800599 0.4636441 0.014333887 0.16204211 0.39824152 -0.1424191 0.17489158 0.24921001 0.18078785 0.4322492 0.48050117 0.49230087 0.26888525 -0.13856946 0.23223607 0.18447548 0.088626005 0.23227718 0.3623954 0.53736097 0.5552597 0.55519044 -0.12510158 -0.11739714 0.16894713 0.16288681 0.21774256 0.35483864 0.3292071 0.10851087 0.5980092 0.35654134 -0.10819924 0.046967812 0.10840334 0.33906543 0.5769774 0.54206485 0.37531018 -0.14072832 -0.15153235 -0.13793546 0.55194575 0.5570999 0.34951937 -0.19939342 0.23040423 0.45600566 0.29214826 0.11636223 0.32095158 0.288554 0.36281627 0.23680925 0.042051867 0.20133707 0.25047147 0.2948701 0.30114293 0.3054769 0.2654077 0.21620598 0.2523647 -0.045859165 0.08993796 -0.058128282 0.16151237 0.23535502 0.26719284 0.3124908 0.29379645 0.31412417 0.31898582 0.3677944 0.35802862 0.33060968 0.19365534 0.11261213 0.25651947 0.27872548 0.29357135 0.33882707 0.17491403 0.44345087 0.4046294 0.53124464 0.4460773 0.66059244 0.62194073 0.5729628 0.55899584 -0.10877165 0.3376866 0.5461559 0.4621234 0.104834326 0.39257735 0.5944774 0.5416016 0.5122789 0.47728252 0.0030437857 -0.045719035 -0.13783517 0.5748937 0.20776391 0.029372182 0.47473937 0.49068373 0.054314617 0.3871017 0.08481972 0.2719963 0.11857256 0.03678588 0.07767427 0.19163038 0.34604144 0.43808845 0.46552688 0.20676902 -0.027850427 0.03425301 0.102706306 0.48228306 0.4707898 0.47653902 0.31550664 0.2331547 0.44589615 0.3219957 -0.13955858 -0.23955773 -0.02977637 -0.024969473 0.41935605 0.322317 0.3000113 -0.13944939 -0.047219172 0.4418784 0.3938113 0.15929948 0.18976934 0.003146924 0.21997273 0.5054185 0.44341975 0.29721433 0.030948423 0.1641879 0.51375914 0.4622774 0.34751722 0.19132224 -0.121155575 -0.09640105 0.04025708 0.2484384 0.26447386 0.30495453 0.2446617 0.444924 0.39049464 0.044222772 0.25950748 0.22471943 0.18590823 0.07222569 -0.19590946 -0.16878296 0.04979288 0.121662535 0.18451467 0.14884993 0.3016084 0.30409765 0.1036832 0.1267356 0.426758 0.066594586 0.0698781 0.5071529 0.28890252 0.328852 0.5977994 0.65285075 0.67198074 0.685897 0.4606887 0.5420321 0.62864023 0.63620925 0.6534692 0.6476789 0.4446795 0.5495218 0.1039368 0.48856583 0.45033854 0.15124986 -0.08754741 0.37529135 0.049395863 0.030099396 0.16216613 0.44526672 0.4511569 -0.04863305 0.45644158 0.34892225 0.19773853 0.025437362 0.4056821 0.4123078 0.33604574 0.05414744 0.04229512 0.29620656 0.021020971 -0.08547396 0.17924923 -0.046894033 -0.08421105 0.05192428 0.093171805 0.11190912 0.2338056 0.3300888 0.052417923 0.3895764 0.39162257 -0.064055756 0.4053836 0.40923205 0.38898963 0.38231927 0.42622936 0.31980893 0.480569 0.18098783 0.54473305 0.090580575 0.1088095 0.54185134 -0.0049842894 0.064625464 0.14232303 0.013291404 0.031812705 0.5058408 0.43484843 0.2573897 0.03038941 -0.019116577 0.05964669 -0.15412597 0.101229936 0.055693872 -0.09245562 0.07251338 -0.001370132 0.06180229 0.24325997 0.2655608 0.33107698 -0.07782609 0.043056205 0.016099537 0.06909346 0.0954846 -0.016518313 -0.027779788 0.08533953 0.23821962 0.37073648 -0.066506274 -0.101520725 -0.0479268 0.02361659 0.05721149 0.016207345 0.22885981 0.08218383 0.030909412 -0.036384698 -0.07280292 0.04615625 0.24768227 0.18795091 0.16578102 0.011345632 0.2879723 0.5397601 0.54933673 0.5565173 0.56282234 0.6651069 0.6834645 0.5305151 0.6099887 0.6593908 0.6868632 0.71988857 0.7235007 0.45997018 0.6996472 0.68158036 0.65316045 0.46532336 0.42279425 0.26196596 0.5746821 0.5678154 0.36201596 0.060627893 0.464974 0.4681074 0.25267234 0.22103137 0.30445102 0.1342841 0.077135056 0.03973721 -0.10599524 -0.096986294 0.15154046 -0.021313317 -0.0028120503 0.23196515 0.06558269 0.03723316 -0.022502147 0.18359077 -0.014806569 -0.059385754 0.01602269 0.035182256 0.08519971 0.12046275 0.038264267 0.053099785 0.032785513 0.3269167 0.29207808 -0.022410795 0.3296597 -0.08121036 0.30104205 -0.08586162 0.016708255 0.14296877 0.6404357 0.67153674 0.6944289 0.50186145 0.21231982 0.63824904 0.76251066 0.73531866 0.52712184 -0.10303627 0.14015307 0.18543917 0.1935612 0.5135331 0.68515134 0.7088818 0.5111017 0.3775133 -0.019409627 -0.231095 -0.10190261 -0.007639833 0.11584039 0.12270035 0.14655939 0.12343863 0.11823142 0.2840811 0.565272 0.6405852 0.21194829 0.3272952 0.23504579 0.11280014 0.15412101 -0.08248793 -0.044890516 0.13555752 0.25580466 0.37823367 0.39039147 -0.12579846 0.12473533 0.33811912 0.2753461 -0.053987548 -0.016077371 0.04291219 -0.043414257 -0.09681287 0.26529348 0.29573056 0.3151379 0.3160445 0.07764815 -0.054834977 -0.05480344 -0.025098834 -0.0054484755 0.0846968 0.31784707 0.29649216 0.30865154 0.3514673 0.3605017 0.35201436 0.32561207 0.4002962 0.4385512 0.43416372 0.37340832 0.36550418 0.3961051 0.5128324 0.5130079 0.5393863 0.47319904 0.53773624 0.5593959 0.56635594 0.4719358 0.5296356 0.5367091 0.54100424 0.6402924 0.6635099 0.682997 0.50047445 0.6114106 0.70005727 0.7402005 0.7244642 0.5461333 0.5129994 0.39575857 0.3921014 0.70240283 0.6656984 0.5134641 0.5292278 0.6147099 0.5966944 0.4367654 0.42377734 0.5073332 0.2932267 0.31743035 0.16069564 -0.22468589 -0.04229779 -0.110532805 -0.23187691 0.018678773 0.015236288 0.095366776 -0.08212207 -0.029227396 -0.06598579 0.040721215 0.091419265 0.19962068 -0.068482414 0.083970904 0.06535375 0.06913123 -0.054603092 -0.013185695 0.635972 0.5405676 -0.1387106 0.6711819 0.66711015 0.5504184 0.41385025 -0.32777673 0.6076206 0.6353383 0.087349676 -0.0740308 0.18765703 0.42161393 0.49006203 0.3551207 0.46765643 0.5845186 0.6252279 0.69629526 0.6524622 0.39476326 0.6617762 0.63264334 0.35147676 0.1481888 0.26869938 0.5657798 0.5888735 0.55983484 0.14900994 0.06620455 0.031917397 0.085914895 0.128872 0.09219458 0.095485836 0.20641063 0.26088268 0.06641689 0.17340341 0.1327452 0.13913016 0.15701804 0.18454146 0.3590379 0.31408355 0.34115767 0.18138209 0.0653125 0.020875804 0.24430159 0.2549043 -0.042359106 0.11054151 0.21910174 0.32157296 0.3049059 0.24408604 0.24913324 0.29802477 0.33001778 0.3330618 0.24031758 -0.059041213 -0.09145439 -0.083395794 0.08700591 0.38161904 0.42271447 0.26485217 0.2941925 0.32140592 0.35704857 0.37784296 0.35688865 -0.012804426 -0.1452831 -0.058055695 0.19993941 0.5099466 0.041994046 0.090021074 0.56095016 0.52053237 0.5049719 0.53763175 0.24248378 0.26439482 0.2912398 0.4585111 0.36540264 0.44818228 0.4541778 0.3942662 0.39983067 0.38741016 0.5009608 0.49567318 0.42522606 0.41651884 0.47023076 0.45895073 0.5251239 0.5496607 0.59900326 0.64135605 0.6235553 0.58489823 0.62125385 0.6518736 0.6732725 0.6322949 0.6511833 0.5707426 0.6141993 0.6934768 0.726786 0.57003325 0.5757189 0.52877504 0.36794537 0.21828982 0.63982475 0.6656125 0.55900866 0.55772114 0.591246 0.48829347 0.47654742 0.39097124 0.26038072 0.23976083 -0.23819013 0.2806033 0.27425933 0.16169117 0.16073097 0.18497148 0.22524641 -0.12001798 0.037779022 -0.06203733 -0.23740676 -0.19246234 -0.22531947 -0.101215936 0.20326854 0.24974722 0.18260594 -0.20248428 -0.036388803 0.14410459 0.22087598 0.20837039 0.20926468 0.12062683 0.09989405 0.025369506 0.014057059 0.034156512 0.10990715 0.13359943 0.55362856 -0.2059677 -0.14345336 0.10494052 0.67046106 0.64337564 0.58020306 0.34419033 -0.30319405 0.6770859 0.1372022 -0.071542636 -0.11345528 0.60778004 0.07317768 0.30313972 0.45452514 0.29245746 0.49816537 0.5325943 0.2853175 0.2374147 0.52671385 0.15855931 0.51902544 0.2876657 0.42813545 0.43454885 0.2038224 0.3591654 -0.12980177 0.20073217 0.11710547 0.0099203 0.11680488 0.0758274 0.05607961 0.16619104 0.17841452 0.19227162 0.16983733 0.41095746 0.40230143 0.41457725 0.36593974 0.2859943 0.16634046 0.15350533 0.26167583 0.23803213 0.20441702 0.4936898 0.66957307 0.6804464 0.66423416 0.40066218 0.39214963 0.3815749 0.24379507 0.27850956 0.12478861 0.5621662 0.6694938 0.71444553 0.70186555 0.38006723 0.37193328 0.35695776 0.26607814 0.60858727 0.6728841 0.7190483 0.3738491 0.384409 0.3048369 0.21202922 0.22084258 0.0033652335 -0.18420869 0.34857404 0.373177 0.37410796 0.25568444 0.27097386 0.29740053 0.36899287 0.32380015 0.07328516 -0.08458464 -0.22730836 0.46215683 0.2617861 0.028132468 -0.060186192 -0.19547299 -0.23068728 0.504176 0.14550874 0.10804932 0.019542687 0.48853067 0.46765697 0.17709507 0.4532923 0.47707784 0.12950069 0.18419667 0.3438364 0.17788386 0.2555605 0.42381355 0.40523803 0.3016914 0.43623802 0.41636163 0.42925203 0.41070223 0.3466573 0.42134705 0.5144672 0.53334177 0.5794327 0.59325194 0.5222411 0.5762061 0.61404663 0.6916672 0.7130373 0.58124 0.62008595 0.66359615 0.7180096 0.73731613 0.7398044 0.7391093 0.7673905 0.7727884 0.6247113 0.6109501 0.43450904 0.3436333 0.109465726 0.20695753 0.55400974 0.61527 0.6323535 0.63517416 0.2945637 0.5790359 0.278027 0.21461041 0.26726073 0.48427388 0.07666446 0.2718703 0.2947114 0.27972206 0.34440053 0.23473334 0.1930176 0.12421272 0.13754322 0.07423117 -0.06527253 -0.26362935 0.14278364 0.17089608 0.23734021 0.02425664 -0.22899126 -0.28142875 -0.1321814 0.02536429 0.20391732 0.24620709 0.23531696 0.19800752 0.1342735 0.09968796 0.17335325 0.14865956 0.09919652 0.08131853 0.082675524 -0.066934586 0.11182363 0.10497507 0.5389713 0.47850442 0.34048057 -0.34579915 -0.16480558 0.13768268 0.12462063 0.63672423 0.61148024 0.18981405 0.060225677 0.097849555 0.66176033 -0.06886119 -0.040136695 0.015087053 0.5584339 0.5163454 -0.1733736 0.3194015 0.40033445 0.25517133 0.42605588 0.09251074 0.16906324 0.3700543 0.42254877 0.06787713 0.12423578 0.17015599 0.029021934 0.16612814 0.30966577 0.252693 0.082588464 0.1084023 0.425607 0.511286 0.37250742 0.37968534 -0.010202549 0.22621289 0.21084973 0.17331374 0.12759337 0.21383266 0.28848505 0.16532643 0.09490129 0.6170411 0.36457372 0.3787223 0.32953683 0.3461569 0.25985068 0.23739754 0.42906952 0.7044084 0.33448237 0.35201174 0.20388468 0.052603472 0.5889027 0.67448866 0.7409283 0.7497848 0.39503974 0.4074846 0.32166785 0.6699746 0.75602615 0.79080904 0.41730738 0.42564493 0.3993775 0.30226514 0.17640458 0.2560585 0.03978996 0.41770682 0.42731142 0.4010808 0.14159775 0.20122391 0.16539562 -0.064698175 0.44326812 0.41824406 -0.022490934 0.365907 0.40270427 0.14537707 0.39683163 0.13367943 0.23313177 0.1622968 0.40830022 0.2948776 0.27698097 0.12327563 0.41818023 0.41370183 0.40180427 0.3973176 0.511522 0.49034494 0.5348384 0.64142466 0.7056612 0.5528647 0.59314066 0.7773595 0.77171564 0.60269403 0.7258523 0.8302759 0.81236494 0.80554044 0.655986 0.56067306 0.34401724 0.15971498 0.17344458 0.10253816 0.069419086 0.05403298 0.6550232 0.6634171 0.51560706 0.14735249 0.19694412 0.20210177 0.628042 0.11304259 0.16467866 0.21905813 0.2191169 0.25288308 0.24998918 0.53297114 0.43210647 0.24874902 0.22164696 0.16669874 0.06761236 0.041211355 0.13188966 0.08631551 -0.039907884 0.017099358 0.08294736 -0.1526788 0.0013869386 0.13208273 0.1520641 -0.03508176 0.15539528 0.132076 0.05228608 0.028196711 0.027632492 0.08440959 0.09121358 0.060239106 0.0061493237 0.039006926 -0.023160487 0.07315634 0.44457012 -0.11124396 0.09626314 0.021082014 0.49112046 0.35143363 0.29628766 0.4145415 0.3435833 0.5119781 0.549809 0.4012547 0.15448451 0.55792356 0.6180668 0.49091256 0.2261445 0.5225242 0.5532515 0.4632938 0.37285066 0.18177462 0.30770904 0.39472273 0.34445065 0.2057732 -0.05277336 0.11575998 0.33274803 0.3120731 0.22314924 0.1454491 0.25398335 0.27063996 0.40750366 0.319023 0.2542456 0.31490716 0.24789262 0.5408441 0.476303 0.30285197 -0.02460277 0.27419543 0.21974534 0.19954294 0.32869223 0.35775107 0.3730451 0.3380003 0.5927635 0.30516613 0.29425836 0.13575248 0.36095315 0.38341486 0.5051457 0.7920804 0.32330596 0.3761143 0.2210092 0.7452917 0.7974335 0.8241123 0.82276773 0.4265771 0.4280143 0.12937354 -0.12604979 0.30668896 0.8103864 0.8300163 0.4274907 0.40119302 0.23885189 0.1570014 0.09676762 0.03538048 0.021689666 -0.31058905 -0.20779648 0.2988044 0.31059057 0.0016376674 -0.01253493 0.036481768 0.20103325 0.309186 0.103785224 0.16149656 0.3614055 0.4246881 0.38741934 0.51851046 0.5499114 0.5679058 0.57414895 0.7376332 0.56413376 0.5503557 0.7939989 0.5969464 0.7824714 0.8653577 0.8403821 0.8169599 0.11143511 0.17994593 0.025181793 0.61950874 0.54743093 0.33022925 -0.03939516 -0.08887432 0.08211119 0.122097045 0.15273789 0.16588023 0.20953031 0.22924952 0.62855315 0.5852939 0.45376956 0.1901082 0.086411744 0.11908992 0.22288933 0.24829787 0.21586394 0.48850656 0.22221556 0.1933219 0.14843267 0.45153522 0.5117198 0.53447014 -0.008513153 0.05658427 0.36550325 0.43042922 0.46686053 0.4904032 -0.0932543 0.25816923 0.33521003 0.40192696 0.3754844 0.35519642 0.07865335 0.20372048 0.28923735 0.27917907 0.15851642 -0.06813615 -0.061168622 -0.008610066 0.115826204 0.17667009 0.19660185 0.22509047 0.27144986 -0.034221143 -0.08843744 0.115095764 0.18083566 0.24225548 0.14897414 0.16764288 0.26819664 0.29770187 0.010094341 0.06258043 0.30512786 0.1294182 0.07850133 0.19900346 -0.19121149 -0.121795006 0.0874296 0.3082845 0.5103886 0.62252724 0.649104 0.51436514 0.50701237 0.43157178 0.67744696 0.53103375 0.5042867 0.6295167 0.5179823 0.48094395 0.43329662 0.5840578 0.4500714 0.40958816 0.35775214 0.40375686 0.36924368 0.36584646 0.3088419 0.2631552 0.4238251 0.32695216 0.27497482 0.4885913 0.46443272 0.48057944 0.3482043 0.15738028 0.12734966 0.10135934 0.25642818 0.30193913 0.5471114 0.5320045 0.4905299 0.35152248 0.15646152 0.34879878 0.37301946 0.36352432 0.3397557 0.7449646 0.61461323 0.45987362 0.1849575 0.752236 0.78051907 0.82397145 0.8063731 0.37917626 0.36816847 0.19592315 0.81514597 0.8259597 0.35053766 -0.010868311 -0.1385262 -0.34355873 -0.3353444 0.2143906 0.12540968 0.093359746 0.031682707 -0.093633845 -0.048862796 -0.05115536 0.20317312 0.31220275 0.18251848 0.16500273 0.055606086 0.04659367 -0.036214076 0.3778955 0.24065413 0.46615824 0.16277319 0.53326917 0.29612997 0.609668 0.61055475 0.6036773 0.66875094 0.7430341 0.58103025 0.5537717 0.7384602 0.7684855 0.54926634 0.5804506 0.70002496 0.7907237 0.78895545 0.79911953 0.850276 0.857917 0.8291336 0.6500763 0.70297253 0.7926441 0.8090582 0.757357 0.66728425 0.72318894 0.7304569 0.70094275 0.6710843 0.6397728 0.62389463 0.5943709 0.62597275 0.5111729 0.434113 0.2702247 0.33123398 0.33347085 0.36359394 0.33985046 0.32070765 0.041397095 0.17385915 0.20105332 0.0059608296 -0.03316825 -0.09667956 0.07607271 0.04092883 -0.121951446 0.10797343 0.13158867 0.1787745 0.18858442 0.19064093 -0.09295213 0.2033874 0.1324849 -0.043107703 0.09841276 0.3157792 0.46894795 0.53011435 0.56641626 0.076545864 0.07282127 0.5162792 0.48134172 0.13009188 0.3333737 0.2770665 0.33406788 0.21489704 0.053104296 -0.14611924 0.2382693 0.22943878 0.30577546 0.3457638 0.3360443 0.0045455396 -0.07820037 0.2376123 0.23961455 0.24883516 0.27356708 0.035773203 0.3482898 0.32074213 0.22819981 -0.1740473 -0.16635776 0.36515087 0.3831663 0.24039337 0.1490308 0.18230899 0.29286444 0.5051899 0.43793142 0.61808324 0.51656246 0.49326116 0.6828568 0.52932113 0.61970305 0.5148852 0.5460379 0.4495468 0.38267964 0.34589866 0.3456391 0.3214937 0.4306518 0.427205 0.39707845 0.45536402 0.44090736 0.5601248 -0.17847663 -0.08220733 -0.04587502 0.015353031 0.02471269 0.117501765 0.26175627 0.5187666 0.66803503 0.6175732 0.047278605 0.3132478 0.26825055 0.32345217 0.66801745 0.67195976 0.7091012 0.70988965 0.6822496 0.5515347 0.13946101 0.6937671 0.7772396 0.78261554 0.7719117 0.16472755 0.29530853 0.13539661 0.14208615 -0.42836222 0.08378624 0.1372469 0.32772118 0.39191616 0.16268218 0.035973217 0.79937345 0.7414396 0.6502174 0.5810408 0.22025244 -0.031101346 0.83059216 0.810168 0.76813245 0.28281662 0.01501783 -0.015273798 0.37618124 -0.053227015 0.5294049 0.6017698 0.4503603 0.6260288 0.61077523 0.5953279 0.6437665 0.59166384 0.5599791 0.5561805 0.58362955 0.64974505 0.7020715 0.57182795 0.6217494 0.70723045 0.73492694 0.8126904 0.85480505 0.8501387 0.6296673 0.7111678 0.8439226 0.8627074 0.8361174 0.7856392 0.5583473 0.60463154 0.6594604 0.768151 0.736719 0.57217354 0.5935756 0.6185432 0.62357926 0.5315001 0.47283703 0.15407659 0.3605258 0.42636007 0.20832823 0.2980089 0.25437784 0.27664924 0.2677896 0.22313645 0.21386102 0.274389 0.24682567 0.2684997 0.29420984 0.24375647 0.23962872 0.23134568 0.29728213 0.36362073 0.3554564 -0.011838958 0.31809986 -0.073699355 -0.3171085 -0.1585809 -0.13538533 -0.014323391 -0.044242743 -0.05918388 -0.016150855 0.06135742 -0.2679602 