# vtk DataFile Version 2.0
Really cool data
ASCII
DATASET POLYDATA
POINTS 2722 float
-11.597242 -9.825857 -12.236858
-11.641957 -9.377624 -12.935792
-11.930584 -9.112242 -12.293405
-11.831542 -9.216422 -11.642657
-11.625771 -8.99269 -11.012009
-12.060207 -8.403195 -13.059258
-12.299685 -8.244616 -12.175609
-12.211423 -8.353939 -11.64519
-11.889405 -8.474154 -11.076263
-11.813633 -7.4686484 -13.752816
-12.1290245 -7.6636777 -13.041053
-12.286838 -7.515049 -12.336566
-12.286301 -7.632608 -11.596249
-12.018863 -7.539246 -11.073385
-11.805165 -7.0084267 -13.350196
-11.973803 -6.688287 -12.386935
-12.05398 -6.8816395 -11.63917
-11.982952 -7.042124 -11.146761
-11.730011 -6.2806473 -11.790427
-11.533032 -2.5806453 -15.082185
-11.568745 -2.4365158 -14.604336
-11.545302 -1.8495315 -14.700594
-10.885449 -10.622352 -12.452049
-10.782531 -10.086265 -13.823371
-11.07698 -10.139964 -13.173628
-11.271452 -10.273624 -12.450538
-11.180531 -10.282738 -11.657015
-11.078631 -9.872771 -10.789972
-10.645107 -9.000824 -16.627748
-10.763718 -9.422481 -14.0669
-11.50056 -9.486527 -13.119402
-11.423767 -9.330078 -10.868736
-10.671433 -8.208403 -17.431679
-10.735288 -8.48217 -16.63658
-10.800046 -8.427175 -15.5748
-11.25172 -8.353004 -14.348569
-10.742905 -7.7445107 -17.320854
-10.778706 -7.480761 -16.400705
-10.748028 -7.9203415 -15.963661
-11.405394 -7.7219806 -14.265405
-11.375253 -7.384364 -10.48673
-11.235362 -7.7692327 -10.313912
-10.586045 -6.7921185 -16.922321
-11.276623 -6.7878995 -14.173026
-11.35882 -6.949122 -10.710404
-10.859053 -6.6448727 -10.195026
-10.720997 -6.154956 -7.234378
-10.814576 -6.120532 -6.4090977
-10.802405 -5.8209906 -5.8868523
-11.099782 -6.0580096 -13.536284
-11.154689 -5.60536 -12.768068
-11.624141 -6.247415 -11.904693
-10.65993 -5.1386485 -7.859281
-11.13953 -5.297806 -6.9245634
-11.137902 -5.589434 -6.8111634
-11.070556 -5.1011763 -5.814021
-10.900146 -4.9545484 -5.118496
-10.667657 -4.719657 -15.300682
-11.153351 -3.7958097 -14.087014
-10.676033 -4.721288 -13.171528
-10.770405 -4.756053 -12.569923
-10.646174 -4.327904 -9.066631
-10.737363 -4.492385 -8.640613
-11.109141 -4.541453 -7.1783233
-11.205928 -4.3917885 -6.361825
-11.119213 -4.463376 -5.5929255
-10.92227 -4.2705054 -4.834402
-11.358493 -3.136041 -13.665151
-10.834189 -3.6670482 -13.040861
-10.755771 -3.6471217 -9.117463
-10.89908 -3.608969 -8.174133
-11.008324 -3.7993999 -7.1296673
-10.981835 -3.656029 -6.5687003
-11.008237 -3.4819522 -5.795388
-10.927631 -3.6326787 -4.9234786
-11.062908 -2.655243 -15.974749
-11.405202 -2.5403047 -15.445855
-11.456646 -2.894874 -14.133673
-11.359837 -2.7527206 -13.662747
-10.548894 -2.8296473 -8.787167
-10.722225 -3.1315343 -7.6569953
-10.750776 -2.9610064 -6.512975
-10.821785 -3.1463025 -5.55387
-10.646097 -3.2013457 -5.008312
-10.916864 -1.7522542 -15.85912
-11.359486 -1.6479329 -15.14835
-11.406838 -1.7921909 -14.021795
-10.68033 -1.4459008 -12.828031
-10.975476 -0.5366202 -15.207378
-11.252129 -0.4592077 -14.272452
-11.190188 -0.3644532 -13.736186
-10.855387 0.30331975 -14.984422
-11.090199 0.24172929 -14.378328
-11.092174 0.051917687 -13.301682
-10.849037 0.8882564 -12.106539
-10.813351 0.82195336 -11.57682
-10.542114 0.48765498 -10.130772
-10.553559 0.45498106 -6.777386
-10.615503 1.0851549 -14.784693
-10.943257 0.9212834 -14.057876
-10.862364 1.5740949 -13.224731
-11.035935 1.8787467 -12.437421
-11.03828 1.7810943 -11.420717
-10.682749 1.7094957 -10.32115
-10.579133 1.0333781 -7.179584
-10.614043 2.0405312 -14.201877
-10.638495 2.3747754 -13.7291155
-10.991142 2.2188492 -12.436523
-11.003524 2.5173063 -11.564823
-10.883209 2.158683 -10.855113
-10.671817 2.9153793 -13.138778
-10.759344 3.259198 -12.253877
-10.769025 3.284157 -11.55104
-9.848747 -10.880924 -13.929468
-9.9298935 -10.997705 -13.137212
-10.525691 -10.819154 -12.317313
-10.273755 -10.822642 -11.731679
-10.066782 -10.61135 -10.879191
-9.861103 -9.956427 -17.088926
-9.882364 -10.261745 -16.510172
-10.060037 -10.111503 -15.643972
-9.85451 -10.636071 -14.673391
-10.5692625 -10.517621 -13.29401
-10.279729 -10.459949 -10.741684
-10.596575 -9.945439 -10.245796
-10.035778 -9.01924 -18.12836
-10.237922 -9.202417 -17.45016
-10.399881 -9.185462 -16.83285
-10.522426 -9.559344 -10.050439
-9.814919 -8.335167 -18.673298
-10.223539 -8.383262 -18.172392
-10.115617 -8.568441 -9.848176
-9.867037 -7.8233395 -18.660622
-10.260855 -7.5507655 -18.134851
-10.560506 -7.54006 -17.709454
-10.066486 -6.740798 -18.075815
-10.334401 -6.560882 -17.384132
-10.5187025 -6.375216 -16.688227
-10.496087 -6.9290047 -15.783855
-10.030077 -6.1020966 -8.053606
-10.486645 -6.3761635 -6.9694004
-10.360689 -6.4787126 -6.789969
-10.296134 -6.189652 -5.745893
-9.701759 -6.101706 -2.97257
-9.9810295 -6.1202745 -2.254653
-9.990785 -6.091815 -1.6069198
-9.89036 -5.9358125 -1.130096
-9.777057 -6.008782 -17.923124
-10.051068 -5.8750463 -17.350136
-10.270089 -5.6853876 -16.529242
-10.430521 -5.108733 -15.741006
-10.335468 -5.0569797 -9.89453
-10.034145 -5.312001 -3.0618367
-10.218992 -5.4676075 -2.3987002
-10.269805 -5.425259 -1.5571562
-9.992981 -5.494748 -0.9357362
-9.730114 -4.5635567 -17.096024
-10.263058 -4.193146 -16.353008
-10.518263 -4.634657 -15.354847
-10.382449 -4.4561176 -11.944523
-10.1419525 -4.457036 -2.3197002
-10.292307 -4.5555344 -1.5428431
-10.0289955 -4.481865 -0.63137627
-9.804304 -4.101863 0.0054771006
-9.909298 -4.085655 -16.813902
-10.152048 -3.2752738 -16.333515
-10.47705 -3.2034123 -9.458476
-10.192158 -3.7495675 -3.8028712
-10.056782 -3.5795352 -1.1675887
-10.016842 -3.5105183 -0.49488714
-9.839664 -3.582614 0.004127294
-10.139223 -2.6981354 -16.45853
-10.065396 -2.3917375 -10.683889
-10.382688 -2.7160351 -9.516304
-10.409825 -2.710987 -8.480143
-10.027662 -2.2997336 -6.446519
-10.319975 -2.6269712 -5.496518
-10.523048 -3.0022345 -4.955812
-9.757413 -2.8034253 -1.31366
-9.765409 -2.8204663 -0.50588834
-9.716807 -3.0024548 -0.05775
-10.493239 -1.5063537 -16.0427
-10.144877 -1.6943406 -9.325987
-9.961798 -0.8136326 -7.260172
-9.968668 -1.9716679 -6.252972
-10.273183 -0.435246 -15.870267
-10.5590725 -0.8051835 -15.627742
-10.206003 -0.1225061 -10.234546
-9.94712 -0.821089 -9.532499
-10.20849 -0.509243 -8.253678
-10.214289 -0.6433243 -7.296883
-10.327118 -0.32867995 -6.728478
-10.216604 -0.045691997 -6.1489387
-10.147482 0.22460951 -15.817961
-10.613353 0.11263849 -15.425007
-10.182876 0.6905428 -8.780848
-10.422955 0.43275434 -6.3432107
-10.028239 0.6453096 -5.8005986
-10.170595 1.1419339 -15.123911
-10.528259 1.5026603 -14.577475
-10.400231 1.0856243 -9.967957
-10.397392 1.2932076 -7.3166456
-10.440362 1.1735766 -6.641385
-10.266074 1.1878908 -6.1364045
-9.914852 2.1125646 -14.925566
-10.075027 2.471041 -14.392615
-10.552299 2.6502671 -13.500528
-10.54544 2.7799535 -10.614194
-9.915069 2.3387768 -8.035357
-9.942207 2.4470663 -7.4474235
-9.762863 2.4069903 -6.577958
-9.964618 1.8799216 -6.1266427
-9.998594 2.9824858 -13.999488
-10.2167845 3.2576485 -13.350544
-10.480983 3.6255429 -12.385917
-10.488409 3.7299535 -11.243794
-10.2493105 3.5241432 -10.572216
-9.743847 3.0768344 -7.743493
-9.680057 2.9835105 -6.8401923
-10.084754 3.804686 -12.892203
-10.173222 4.0224853 -12.370344
-10.190208 4.1703677 -11.5684
-10.052981 4.0107493 -10.905975
-8.7435465 -11.740223 -8.68494
-9.087362 -10.67106 -17.02198
-9.260705 -10.865243 -16.29379
-8.985472 -11.154683 -15.641759
-9.639915 -10.806169 -14.788176
-9.464981 -11.176706 -13.690147
-9.170387 -11.161525 -12.97835
-9.709464 -10.769201 -11.500438
-9.247373 -11.088761 -9.812007
-8.9435215 -11.447168 -8.512592
-8.8886385 -11.23956 -7.951986
-9.340479 -10.2339735 -17.462523
-9.494672 -10.620011 -16.542053
-8.976857 -10.614225 -7.7128315
-9.518819 -9.193151 -18.403913
-9.414631 -9.161492 -9.203144
-8.755578 -9.51069 -7.3188343
-9.315247 -8.468116 -18.883669
-8.893967 -8.708312 -7.8193274
-9.474356 -7.636605 -18.88531
-9.303871 -6.6307936 -2.1074014
-9.124765 -6.571525 -1.5123553
-9.3808 -6.7378945 -18.772875
-9.56996 -6.370988 -18.477505
-9.4237585 -6.189266 -5.612662
-9.634815 -5.856858 -4.342584
-9.342757 -6.316665 -3.3347704
-9.536343 -6.4752584 -2.39699
-9.499031 -6.4235334 -1.5354114
-9.389083 -6.0568194 -0.9277762
-8.981609 -6.0328674 -18.733774
-9.187102 -5.7389083 -18.486664
-9.484605 -5.555564 -0.5623676
-9.310099 -4.9459677 -0.11976415
-9.174584 -4.46388 -17.52752
-9.332704 -4.274223 0.24879715
-9.091048 -4.067372 -17.345186
-9.428864 -3.5260832 0.382918
-9.027024 -3.52042 0.566697
-8.913297 -2.9276643 -16.809927
-9.028667 -2.8120618 -3.5414498
-9.287962 -2.691285 -2.5587716
-9.555212 -2.4580004 -1.1867251
-9.489934 -2.5661583 -0.27108958
-9.324128 -2.8282585 0.16571951
-9.281959 -2.2565007 -1.1148611
-9.071471 -2.1396356 -0.47521168
-9.034837 -2.283552 -0.049323335
-9.517822 0.50925016 -16.049866
-9.627371 0.5061248 -5.564644
-8.989609 1.1206338 -15.984845
-9.57964 1.1873766 -15.530454
-9.642859 1.2240356 -5.658462
-9.341684 2.5543494 -5.9358916
-9.681287 3.0184486 -14.195786
-9.594905 3.5587807 -13.423245
-9.3860035 3.625939 -10.114821
-9.415544 3.524675 -7.985766
-9.401045 3.4353995 -7.3586326
-9.302328 3.2878704 -6.6027274
-8.894627 3.097878 -5.8121195
-9.50336 3.8296144 -13.171349
-9.450662 4.394459 -12.224206
-9.663793 4.42943 -11.573496
-9.664011 4.305171 -11.03526
-9.025426 3.7618139 -7.605922
-9.157455 3.7046137 -6.9022923
-8.450096 -11.713511 -14.487666
-8.649086 -11.613564 -13.661584
-7.807429 -11.787742 -11.965428
-7.919076 -12.03659 -10.04909
-8.12617 -11.970929 -9.598297
-8.126746 -12.103775 -8.584429
-8.516698 -11.681976 -8.020361
-8.580489 -10.822201 -17.21484
-8.599965 -11.218713 -16.218904
-8.52285 -11.364151 -15.636543
-8.498769 -11.177476 -7.541188
-8.279171 -9.947523 -18.310154
-8.6722765 -10.769795 -7.4101667
-8.4122095 -10.482236 -7.18413
-8.552282 -9.163577 -18.850433
-8.601728 -9.579734 -18.401184
-8.121625 -9.619425 -6.9126453
-8.566633 -8.42819 -19.037535
-8.490582 -8.809388 -7.2204103
-8.855381 -7.3909187 -19.142103
-7.8682685 -7.6155953 -7.0087194
-9.052121 -6.609286 -6.1789465
[...]
POINT_DATA 2722
SCALARS features_00 float 1
LOOKUP_TABLE default
0.5151719 0.4906479 0.5594429 0.5606927 0.54410756 0.5322251 0.59819716 0.5964769 0.56644964 0.389308 0.5216574 0.5702957 0.5856812 0.5622308 0.42078483 0.47416684 0.5318676 0.5405718 0.425829 0.415109 0.39354435 0.40959316 0.4074517 0.31041354 0.38969016 0.4552737 0.49643916 0.4956172 0.42578578 0.31393665 0.46060705 0.5238253 0.48491728 0.4165923 0.24990852 0.28158295 0.44673938 0.32710826 0.2876442 0.26798585 0.4975633 0.48394865 0.34467143 0.21152455 0.48175922 0.33867332 0.51532996 0.5416977 0.5507617 0.23555188 0.19689302 0.40472275 0.40484738 0.4987988 0.5159961 0.53586686 0.50121176 0.18909182 0.21908028 -0.0139770955 -0.04008039 0.16694997 0.22860925 0.42163682 0.46676707 0.48292744 0.428119 0.24782151 0.0410411 0.13524806 0.22634096 0.35159272 0.3733769 0.3726902 0.37701136 0.39589465 0.4247209 0.3298365 0.28444976 0.096176416 0.22351332 0.28538278 0.3288164 0.31536508 0.39649513 0.41177428 0.37614056 0.25634265 0.34837693 0.355192 0.3332306 0.3215401 0.33440542 0.29529223 0.3036923 0.26979798 0.12310289 0.4138561 0.3071007 0.3222232 0.35854584 0.42532736 0.39969125 0.31136933 0.42504147 0.34310818 0.38462555 0.4612532 0.5154756 0.43412852 0.4590294 0.569827 0.6164477 0.18653296 0.25641108 0.3827331 0.3997705 0.37454975 0.43033698 0.3281438 0.25511867 0.17086029 0.31938362 0.40350637 0.4282256 0.55197287 0.5129978 0.45127916 0.4181556 0.5468595 0.5446021 0.36061937 0.52794385 0.4994542 0.46981794 0.44317865 0.3763034 0.27615127 0.18349946 0.42501557 0.52479976 0.5201723 0.50553 0.597417 0.67607975 0.7228695 0.75161 0.36665443 0.3096842 0.21262144 0.14265573 0.037121348 0.55706066 0.66458285 0.7405076 0.77590525 0.20531271 0.21429393 0.20870616 -0.10323492 0.60027903 0.7260003 0.808861 0.8285612 0.1896484 0.2558759 0.08012667 0.3312779 0.71792156 0.7755562 0.807963 0.27940297 -0.083646044 0.027643392 0.09415284 0.1552358 0.23807906 0.2780094 0.6661713 0.7555878 0.7885871 0.35304812 -0.07612848 0.15345636 0.10960036 0.28315583 0.3383871 0.041626643 -0.06606717 0.10631849 0.19990528 0.31658182 0.38937625 0.25821084 0.30388504 0.15576723 0.44045234 0.46496937 0.28056958 0.31290144 0.17008553 0.42954743 0.46822694 0.48488152 0.28436646 0.33660752 0.41608393 0.5307232 0.3910842 0.45953223 0.49993664 0.50124055 0.38860726 0.45812243 0.5920881 0.66532785 0.6084887 0.4552496 0.5087903 0.5451064 0.6273839 0.68245006 0.6614202 0.3459806 0.3300345 0.24294263 0.16732274 0.15698874 0.16244458 0.18609303 0.33080605 0.21570694 0.36607158 0.40588185 0.43904778 0.2922936 0.38697875 0.53628755 0.2850537 0.3328268 0.5271467 0.259373 0.5127114 0.6831106 0.7084048 0.45890552 0.42625734 0.35629052 0.31833798 0.5331842 0.6639707 0.71845865 0.73830295 0.38723758 0.36053634 0.77062124 0.81509125 0.19370663 0.8416883 0.14245783 0.8242566 0.8340584 0.089998946 0.17388271 0.43238264 0.678187 0.7723757 0.80488294 0.6861477 0.7634755 0.78994334 0.19637698 0.43775254 0.16715789 0.24312706 0.49216402 0.5235572 0.3669781 0.46447515 0.5069943 0.4430576 0.5135559 0.53950673 0.5471653 0.51185936 0.6509162 0.6733847 0.65257484 0.50871277 0.5419663 0.056035526 0.08436063 -0.012501255 0.099720955 0.20314312 0.34444073 0.40660512 0.31688932 0.19241147 0.142126 0.41968423 0.38520834 0.40561554 0.38334012 0.441728 0.44221315 0.32852447 0.47420648 0.2770557 0.47498634 0.12572445 0.30817962 0.6399532 0.67834616 0.40983725 0.26369065 0.5361289 0.66612804 0.7025926 0.34269044 0.6932957 0.7379627 0.26963082 0.8396065 0.84099805 -0.01484162 0.8381386 0.83227766 -0.06453925 -0.12589025 0.2604497 0.7237425 0.77993417 0.8254872 0.28354123 0.09493607 0.32373175 0.2686719 0.41204017 0.32799327 0.5095127 0.37051815 0.52630335 0.48634738 0.45476854 0.5991359 0.5580906 0.52286637 0.43661785 0.5334288 0.5731114 0.6137762 0.3277889 0.33763915 0.3009615 0.097002245 0.26018673 0.27755824 0.26392338 0.14685015 0.011866702 -0.02042773 0.056030296 0.28591806 0.4039428 0.15739341 0.07093515 0.3591956 0.32838678 0.29916283 0.2589094 0.27412173 0.26910505 0.40126634 0.33409548 0.41164035 0.5305538 0.55716884 0.597327 0.29438415 0.57916903 0.71217716 0.7232223 0.020338442 -0.09202408 0.8528758 -0.23849484 0.8670702 -0.3065939 0.50856674 0.7619672 0.825962 0.30317283 0.27500972 0.12075479 0.3487458 0.3366055 0.23519975 0.35270146 0.34107918 0.31069076 0.16182716 0.23896876 0.37670314 0.30624667 0.28051195 0.24665204 0.11990057 0.51599276 0.35971987 0.37110415 0.24859552 0.16960004 0.14027005 0.30240667 0.5630324 0.33657002 0.6748316 0.6522581 0.68609315 0.41949826 0.4372486 0.40896463 0.3648706 0.19242689 0.26345146 0.38776052 0.3616916 0.76045394 0.7399297 0.69680214 0.11264183 0.0762836 0.75544953 0.7239231 0.66620195 0.5694097 0.21148096 0.21414392 0.7387854 0.687425 0.562325 -0.01852803 0.68079257 0.5656565 -0.036768124 0.20566007 0.1848266 0.11462462 0.22009796 -0.22330162 0.111548595 0.29471883 0.3514446 -0.085030384 0.36423197 -0.14646864 0.48839116 0.6712539 0.07896434 -0.014990669 0.6930957 0.060887735 -0.06402692 0.61466444 0.84002614 -0.020041123 0.6437893 -0.17689942 -0.21037564 0.3448573 0.33248222 -0.1454651 0.018565468 0.29629704 0.38303754 0.41516075 0.3350007 0.0005198121 0.26262107 0.36753532 0.41389322 0.43522707 0.2984396 0.30020636 -0.0019272454 0.09886829 0.11671804 0.36357355 0.29141444 0.38651264 0.43258 0.4212922 0.21535286 0.23278725 0.23981787 0.30531776 0.21097939 0.08518723 0.34452048 0.15488425 0.31871346 0.32605273 0.38622338 0.21643135 0.27695364 0.30934185 0.2828536 0.510671 0.55699867 0.41610295 0.2569522 0.30254468 0.6491044 0.59447503 0.49211267 0.68497527 0.70388365 0.6977181 0.68211234 0.6327992 0.7335934 0.749712 0.7181278 0.66390204 0.41769427 0.4488816 0.44206715 0.31628895 0.24703008 0.31401777 0.37048694 0.4151567 0.36470503 0.7405256 0.23666002 0.25410274 0.23360652 0.23782921 0.13727668 0.0096187405 0.020492662 0.7591789 0.7480474 0.6984328 0.37642807 0.15989962 -0.022991765 -0.045920637 0.047151424 0.7541771 0.7627805 0.03950072 0.090963885 0.7237907 0.73693275 0.07804492 0.6528623 0.6198294 0.14010789 0.5797143 0.48415843 -0.09227377 0.10719455 0.32590306 0.08321958 -0.1424673 0.09051309 -0.09300025 -0.31121957 -0.046111755 0.12786572 0.2340529 0.2862283 0.013089911 0.24667767 0.3201539 0.2798932 0.23773777 0.24459445 0.31088167 0.14546695 0.13465267 0.32133776 -0.08265863 -0.17843293 0.2870754 0.33661205 0.35403836 -0.16312459 0.15553439 0.3607144 0.36037144 0.19518995 0.3824981 0.32315212 0.40099442 0.38582 -0.3877638 0.027738035 -0.051151782 0.39974302 0.21469158 0.21379523 0.031871315 -0.07913819 0.4528678 0.22621593 0.21102636 0.21095708 0.24144915 0.196585 0.24211583 0.3976411 0.44218355 0.22581983 0.29822963 0.6239723 0.6145478 0.57074636 0.4707879 0.72640216 0.73956954 0.68094313 0.60467976 0.70611763 0.67036414 0.37126774 0.28987744 0.30316442 0.32442567 0.36380917 0.3948983 0.27310574 0.35731214 0.19815227 0.032307815 0.077184536 0.11444401 0.21066281 0.40089506 0.59720504 0.71673375 0.7284708 0.70285213 0.36771375 0.3059625 0.028650083 0.07631829 0.14141434 0.3639201 0.5989804 0.73730266 0.8177395 0.7409334 0.7386588 0.6071719 0.21329212 0.37242672 0.61033845 0.7468196 0.840642 0.73311156 0.25988808 0.79854226 0.6788446 0.3083714 0.6192026 0.016223442 0.5596558 0.50191915 0.34890682 -0.12548967 -0.11622827 -0.08520697 -0.0064489394 0.15039553 0.31930423 0.2011092 0.1877091 0.22029248 0.3572464 0.14833118 0.17467135 0.35883927 0.19561395 0.41994512 0.008182008 0.40923807 0.43174025 0.41612518 0.12653829 0.30146772 0.32708684 0.33743832 0.4237046 0.4082846 0.3639413 0.24693796 0.35148695 0.35537037 0.43361944 0.39900625 0.34560555 0.3276148 0.36060792 0.37845758 0.3585748 0.3388074 0.3832009 0.40024272 0.35967237 0.34854585 0.42355564 0.31381416 -0.015578821 0.15056157 0.45342922 0.21416682 0.008419111 0.11041046 0.17442003 0.1888363 0.27374333 0.40694314 0.4330284 0.18903926 0.20491365 0.23108059 0.20523503 0.13676336 0.19776234 0.172566 0.22137359 0.19194305 0.35929772 0.4091004 0.563642 0.5317684 0.62030923 0.63130677 0.6057422 0.40458763 0.3614715 0.3171472 0.15756023 0.19499665 0.14888753 0.18957472 0.42287946 0.14757586 0.18769991 0.3547359 0.5787195 0.73397565 0.8095372 0.5981358 0.6258854 0.33818525 0.8587717 0.86633885 0.661083 0.8451065 0.8414557 0.64517504 0.74285424 0.764876 0.629293 0.27844253 0.5932165 0.5545484 0.07589092 0.54511243 0.4801415 0.019684643 0.010080442 0.40419954 0.09246442 -0.06910032 0.030494945 0.08913794 0.33667853 0.33576134 0.090877704 0.13786404 0.3452378 0.041777726 0.07548542 -0.04046175 0.01147647 0.3557515 -0.020370252 0.042806912 0.39615 0.38214353 0.21117927 0.34636545 0.42632803 0.42441684 0.38725644 0.4473635 0.44474465 0.40857872 0.42278007 0.44124645 0.41662645 0.4305861 0.431223 0.37669176 0.36035135 0.42385522 0.33421502 0.3251033 0.27871075 0.40403312 0.24436814 0.3826062 0.41240898 0.40301993 0.12129645 0.06483276 0.11552136 0.20744155 0.19854888 0.16008064 0.194324 0.25551218 0.35143983 0.45785403 0.35496098 0.39452517 0.1740539 0.26506793 0.2746052 0.3566239 0.24950641 0.5509343 0.5387836 0.47759724 0.40817243 0.3331607 0.35008007 0.45003673 0.46032274 0.5650854 0.5505395 0.5005249 0.4421581 0.51452965 0.5593086 0.5062331 0.3342262 0.26916203 0.37681368 0.37137228 0.3423922 0.27291527 0.2188261 0.053419456 0.06504734 0.07206331 0.16347781 0.18052776 0.10078387 0.11248985 0.28161722 0.37651765 0.2450402 0.5205884 0.7408726 0.7839284 0.8509495 0.8560289 0.4816125 0.34255537 0.8268368 0.43082052 0.6895968 0.7187737 0.5589935 0.24080022 0.44628954 0.63425994 0.5393237 0.3447135 0.37895802 0.17338106 -0.026149467 -0.15062356 -0.12020273 -0.07893619 0.2365677 -0.039902005 0.620674 0.2952568 -0.2273016 0.6282309 0.5653812 -0.16531125 0.56600374 0.41044307 0.033607177 0.46290815 0.40463313 0.3125062 0.32514772 0.41081265 0.41312075 0.37341067 0.39897522 0.45038754 0.40490896 0.462894 0.45217264 0.41221353 0.41362903 0.36890393 0.3413442 0.40440378 0.31530702 0.30166933 0.3883953 0.3937121 0.2614506 0.25161052 0.3664728 0.3497815 0.08495357 -0.12015428 0.11464567 0.1984418 0.4914602 0.36494258 0.027941817 0.20742813 0.16525604 0.108953424 0.51935726 0.3729884 0.2088072 0.41916388 0.61332864 0.60455376 0.5687494 0.53633195 0.4897197 0.5079007 0.501746 0.47760022 0.61396027 0.5918356 0.2822353 0.23584381 0.15278746 0.06946836 0.17587182 0.25696564 0.3068148 0.2100125 0.16550796 -0.11164295 0.037585855 0.089334495 0.032203097 -0.03034501 0.15357538 0.50239253 0.6286802 0.76916516 0.14763752 0.769575 -0.06203964 0.73168373 0.7714875 0.33157358 0.23289226 0.6314091 0.74170107 0.47818428 0.58564776 -0.06056348 0.0753618 -0.057361893 -0.18691508 0.6851402 0.73288023 0.7448852 0.6563758 -0.17022508 -0.31593663 0.6516093 0.7004915 0.7285378 0.6293498 0.06759013 -0.3390064 -0.15989408 0.63034004 0.6061803 0.5938717 0.5485792 -0.1924878 0.49194294 0.47154874 0.66226935 0.62945455 0.55705583 0.4971667 -0.18691583 0.3814401 0.40826818 0.6570984 0.6454408 -0.026332982 -0.01266019 0.03716064 0.61559755 -0.0045361817 0.5715835 0.5371107 0.10562907 0.208968 0.22968343 0.40692237 0.46312356 0.38022768 0.4291779 0.39499247 0.36583132 0.3634072 0.34012341 0.37255746 0.33563596 0.3029862 0.34314555 0.35923794 0.13919732 0.20839983 0.3018859 0.28910947 0.24265184 0.44783092 -0.04034205 -0.087505 0.1516616 0.5263439 0.56812763 0.01041767 0.2847147 0.4151969 0.6290282 0.63298553 0.52969635 0.39612812 0.25511405 0.4100242 0.45988345 0.46832708 0.45550182 0.6309409 0.6122908 0.5462521 0.16732416 0.1971878 0.15426347 -0.067422375 0.11256887 -0.0131649785 0.02220337 0.07005936 0.17660661 0.18261704 0.14724891 -0.08813082 -0.21416685 -0.08354794 -0.013139522 0.095092 -0.016532917 -0.06364206 0.54966986 0.44350094 0.2301251 0.588215 0.59519625 0.59760565 -0.01337567 0.4566947 0.06362645 0.1370414 0.40138605 0.066986114 0.13035661 0.17326725 0.21502572 0.18846719 0.61673194 0.7151805 0.74403423 0.66107273 0.21170308 0.15044373 0.17658995 0.1764877 0.5707034 0.64474267 0.5629579 0.014522783 -0.5084539 0.105972245 0.5470476 0.5596515 0.5834947 -0.27640185 0.55994016 0.581733 0.60259616 0.50248003 -0.5047386 -0.36090565 0.4757545 0.47556037 0.4833551 0.592034 0.67048675 0.6296852 0.41634148 -0.36774147 0.36927903 0.36368126 0.4003098 0.4729787 0.6787659 -0.06270365 -0.05643765 -0.096989006 -0.106820285 0.20389447 0.3170388 0.37388897 0.41124475 0.67367756 0.28529733 0.3469646 0.3813261 0.6651342 -0.08158065 0.59846795 0.3197639 0.0926463 0.43898708 0.24115562 0.20700517 0.4033823 0.34442556 0.26934668 0.32764244 0.2947914 0.32075408 0.3059133 0.3294547 0.06930742 -0.100244455 0.16197118 0.23322386 0.25129834 0.22454607 0.55118716 0.24299657 0.35598004 0.30176693 0.28029794 0.33229798 0.6526873 0.65687466 0.38428357 0.42147428 0.53614676 0.4282152 0.43060887 0.41258025 0.39097393 0.40402204 0.6058048 0.5002621 0.2845686 0.28274578 0.26975358 0.32180592 -0.05697323 0.26135406 0.30020383 -0.04909326 0.17779985 0.051133588 0.01832003 0.1265204 0.1799386 0.24922934 0.14363378 0.05744274 0.10410386 -0.08858438 0.42483354 0.6008298 0.5047556 0.30258185 0.44255194 0.64169896 0.63733506 0.6156198 0.5646348 0.5256978 0.4644536 0.1556188 0.13411885 0.51038563 0.6996218 0.6075566 0.3933602 0.319831 0.5517137 -0.001330018 -0.01988128 0.0011975467 0.5697731 0.58033085 -0.053659007 -0.2263081 -0.22614276 -0.110906824 -0.07073833 -0.014068885 0.59565437 -0.29121846 -0.21741846 -0.025909768 0.0029651 0.62649 0.6671045 0.6424803 -0.38319075 -0.11134839 -0.08812459 0.56928456 0.7041739 -0.124331005 -0.21482038 -0.2972558 0.42758575 0.48611504 0.7337702 -0.23720762 -0.17847678 -0.086709574 0.38425893 0.68611455 0.37119764 0.5694177 0.4675914 0.23156913 0.32881153 0.13973123 0.15243056 0.11297249 0.20304918 0.07401078 0.25618014 0.24053892 0.2475656 -0.082469925 0.09718176 0.11605525 0.18547906 0.060250446 0.013129681 -0.05266685 -0.007710308 0.40365562 0.16488388 0.0976748 0.5640669 0.39856142 0.23021537 0.25044897 0.62737393 0.62216634 0.5819766 0.56023145 0.61586046 0.46064866 0.454236 0.40890452 0.3177862 0.62444764 0.578889 0.54209554 0.42693627 0.5081193 0.6351668 0.6563606 0.6621547 0.67232513 0.66690445 0.59804547 0.6246606 0.6371069 0.61937153 0.5431752 0.5320903 0.5010284 0.2869666 0.23574053 0.22596595 0.23240215 0.37515473 0.37288147 0.24719904 0.035861053 0.22234792 0.267191 0.25482947 0.20104608 0.3569087 0.34996825 0.0479021 0.18269247 0.3488561 0.2098258 0.23703104 0.49843925 0.54114354 0.55781937 0.31869242 0.4202922 0.519589 0.55050606 0.47491324 0.51698816 0.17024148 -0.041043095 0.0012869984 0.593573 0.4882949 0.29224998 0.5401598 0.6357013 0.6302042 0.61102545 0.5718368 0.11591643 0.1563591 0.5327704 0.19570997 0.045742013 0.43022826 0.11359301 0.010117292 -0.002586022 0.62498355 -0.1518709 -0.16315565 -0.05496134 -0.0060946792 0.5002916 0.31707874 -0.08572656 -0.009581082 0.5171539 0.53729194 -0.09871241 -0.06622882 0.5566994 0.5650025 0.49045205 -0.06245408 -0.22409232 0.5682104 0.6728405 0.6244607 0.5759157 0.70778 -0.47922558 -0.27794203 0.49725235 0.7184012 0.39770257 0.6820313 0.6166501 0.39182955 0.57426494 0.47305426 0.36834395 0.29318926 0.023451388 -0.22637624 0.1852491 0.041518033 0.23635045 0.24026498 0.05596791 0.26259774 0.059817806 0.038722966 0.07697078 0.16815178 0.19537465 0.01992251 0.09506455 0.12815814 -0.030657016 -0.090034425 -0.042233612 0.51331663 0.49076143 0.14782856 0.52696013 0.5231355 0.3568375 0.6775514 0.6685455 0.46755284 0.46675646 0.43921655 0.35690662 0.30011022 0.5534731 0.4936192 0.6172045 0.6925769 0.72569335 0.72144336 0.6802712 0.692815 0.68677604 0.64826715 0.6538757 0.684163 0.65066355 0.5819613 0.4967788 0.58744156 0.58219755 0.5039983 0.16303737 0.190613 0.20483136 0.2285604 0.23233856 0.3246207 0.15962237 0.23399723 0.21442401 0.29048967 0.35004282 0.26463747 0.26058215 0.5494949 0.5723127 0.3673775 0.5313113 0.5604547 0.56550515 0.53907007 0.34748 0.5429771 0.52511895 0.014658511 0.07915366 0.20093928 0.23529898 0.64732146 0.7519535 0.7613443 0.7657107 0.12771958 -0.008533269 0.054122396 0.14902532 0.18687406 0.65119517 0.7506201 0.80765796 0.25967664 -0.1626156 -0.0784387 0.16282675 0.07151268 0.3217758 0.51102185 0.6682872 0.8102151 0.5824935 0.48998535 0.044289462 0.1645613 0.12788503 0.034344044 0.32131046 0.49267533 0.56275064 0.40671968 -0.033704456 -0.09334802 0.5223079 0.14603676 -0.1260967 0.4661818 -0.16263431 0.4383255 0.29708797 0.36821657 0.1773233 0.46914512 0.50223035 0.5841452 0.51844144 0.5266748 0.5294595 0.7085908 0.69553554 0.4705252 0.70664823 0.674613 0.61962473 0.5076171 0.42406738 0.36567625 0.5415753 0.48753455 0.4020418 0.27174687 0.35498932 0.3280939 0.12516978 0.20712158 0.19550762 0.3544616 0.0039542466 0.2628408 0.35106254 0.29567465 0.1793608 0.44020477 0.38711804 0.041138314 0.30492097 0.4484417 0.39966646 0.27821916 0.40410098 0.68006665 0.42950398 0.36742124 0.58240783 0.6644976 0.73243296 0.7600745 0.67442065 0.70666087 0.6962021 0.61133575 0.6987114 0.7759825 0.78645515 0.662166 0.44073948 0.6935104 0.7742349 0.5787271 0.20951816 -0.08438769 -0.07156134 -0.030108437 0.41602167 0.031264752 0.09011789 0.14927614 0.15051502 0.34684858 0.29531434 0.2770076 0.2793865 0.45816743 0.5757036 0.5945296 0.3407194 0.57842886 0.5576489 0.54765385 0.5061842 0.052146032 0.4532869 0.74403954 0.72116953 0.7200484 0.18201482 0.05766134 0.2112711 0.74153733 0.72646844 0.71797645 0.2717474 0.7857529 0.74864197 0.2831212 0.1225883 0.57905376 0.25798175 0.34402224 0.35458833 0.2757101 0.061591875 0.14443842 0.14388907 0.2922857 0.18042354 0.41502786 0.63503134 0.44866616 0.6796719 0.5786598 0.38362342 0.577458 0.47635445 0.31762478 0.0024977364 0.40310174 0.33096284 0.2133084 0.14080104 0.23916307 0.21836175 0.27619734 0.315939 0.32869327 0.38053817 0.32252765 0.39812684 0.32543132 0.11840357 0.3319686 0.4077319 0.4148144 0.31241393 -0.023197051 -0.059996963 0.25823647 0.022301495 0.0374832 0.15352973 0.19214794 0.14541101 0.28770906 0.18211432 0.24638224 0.25974542 0.31127453 0.43119496 0.16103238 0.4305718 0.2739383 0.433592 0.51041645 0.5198436 0.61289483 0.5588612 0.6484648 0.69862175 0.69100034 0.81470335 0.8625517 0.87285614 0.72548044 0.6555728 0.6194438 0.41532815 0.6892179 0.8233914 0.8578247 0.633634 0.71447754 0.18140946 0.22954084 0.67604816 0.7791141 0.84498155 0.5524446 -0.024183907 0.10331962 0.6445806 0.7857742 0.36908892 0.47602063 0.13840765 0.24583668 0.24283329 0.41828048 0.5383782 0.61892354 0.18954217 0.6298502 0.58046865 0.019122113 0.61969066 -0.1248144 0.5318413 0.63700056 0.6648067 0.67490566 0.6828015 0.66495657 0.34568194 0.34321195 -0.093853034 0.69378626 0.33570462 0.35644788 0.66693926 0.28914234 0.5385431 0.21752055 0.4954146 0.46122327 0.07925277 0.4799682 0.3428246 0.27014253 0.20564573 -0.06129012 0.2800995 0.2773093 -0.06499293 0.1836696 -0.14358409 0.15203762 0.40012795 0.41992223 0.44578797 0.43343222 0.4572013 0.47949815 -0.1242268 0.44343907 0.43795466 0.43169177 0.38518804 0.12688714 -0.01510521 -0.00420191 0.13584904 -0.030951891 0.3470558 0.31768686 0.26392254 0.18194011 0.1883865 0.18873118 0.18609715 0.022610277 0.28366238 0.40178668 0.3371363 0.2473506 0.26285714 0.22364473 0.25389925 0.304415 0.49723315 0.2749912 0.3348267 0.3410902 0.39043114 0.4969185 0.44668067 0.5964406 0.38089535 0.4063586 0.51578116 0.67562664 0.7835037 0.8249713 0.43520433 0.47082078 0.63906956 0.8775655 0.8685435 0.73511565 0.72146934 0.6681652 0.6077629 0.4072413 0.3863255 0.85691917 0.84705454 0.7182933 0.44006765 0.8509023 0.61167324 -0.02357664 0.8254862 0.5101153 -0.0011762232 0.2166519 0.29539108 -0.076930486 -0.06421454 0.076113775 0.14742154 0.43849063 0.5649539 0.611957 0.08074282 0.5592574 0.07378957 0.41479588 0.6084204 0.6336467 -0.122157514 0.63032675 -0.26335207 0.625642 0.37471664 0.34992188 0.26863736 0.34674418 0.5441257 0.24208668 0.5249102 0.688444 0.5010506 0.50841963 0.7402966 0.7220105 0.6349975 0.7462959 0.7117873 0.7277262 0.7019036 0.086663455 0.14139397 0.63940513 0.20141995 0.47901696 0.31915346 0.20053528 0.20720589 0.27122027 0.082438