# vtk DataFile Version 2.0
Really cool data
ASCII
DATASET POLYDATA
POINTS 7962 float
-22.569845 -9.028031 5.7727256
-22.5352 -8.947918 5.9950724
-22.614115 -8.478518 5.7053857
-22.59183 -8.52973 6.185285
-22.55109 -8.059987 5.6602373
-21.906584 -10.078107 5.6592083
-21.961214 -10.128435 6.2636366
-21.783072 -9.975632 7.1375594
-22.092703 -9.212267 4.9419856
-22.333582 -9.383521 5.5928016
-22.318869 -9.407598 6.4769907
-21.957567 -9.380016 7.263113
-22.273493 -8.422691 4.920138
-22.492287 -8.478878 5.322011
-22.414898 -8.457558 6.663659
-22.073755 -8.595697 7.1758547
-22.10724 -7.878337 4.968052
-22.30184 -7.7169085 5.5674534
-22.315536 -7.824517 6.3173966
-22.084581 -7.805637 6.865714
-21.819494 -7.345944 5.4431167
-21.682756 -1.2672129 13.579211
-21.742697 -1.3740216 14.377522
-21.652802 -1.1911153 15.388269
-21.732702 -0.6752318 13.651339
-21.80057 -0.4872105 14.542691
-21.733055 -0.5088494 15.464861
-21.59942 -0.53879726 15.978095
-21.666914 -0.08993949 14.481772
-21.628279 -0.0662629 15.664529
-21.202318 -10.850021 5.6683683
-21.059198 -10.946881 6.492752
-20.956123 -10.872368 7.0150113
-21.236393 -10.321471 5.0013533
-21.51966 -10.5715275 5.5774612
-21.570202 -10.541978 6.327408
-21.295008 -10.460648 7.2757087
-20.953201 -10.283925 7.800668
-21.054605 -9.354743 4.159382
-21.342205 -9.401168 7.830574
-20.78831 -8.838469 3.7334697
-21.604502 -8.436092 7.4753084
-21.036074 -8.557112 7.7816887
-21.304855 -7.964578 4.331138
-21.413342 -7.5645323 4.418605
-21.392447 -7.6670256 7.111886
-20.960457 -8.111904 7.625898
-20.611443 -7.0727158 4.247473
-21.379023 -7.1344185 5.386327
-21.780155 -7.383403 6.654721
-21.278751 -1.9427166 13.7227955
-21.275137 -2.0384939 14.520137
-21.175457 -2.028008 15.256241
-20.928024 -1.7195601 16.191463
-21.423023 -1.220902 13.124582
-21.548035 -1.5926301 13.588603
-21.492605 -1.4043378 15.556786
-21.180477 -1.3342392 16.215353
-21.436617 -0.69027936 13.129829
-21.590496 -0.49933103 13.40273
-21.36095 -0.44820163 16.363615
-21.077253 -0.49790186 16.654444
-21.187708 -0.20330137 13.210389
-21.386477 -0.030256718 13.721047
-21.391014 0.20037273 14.385218
-21.431604 0.27646273 15.431194
-21.193062 0.21350095 16.194565
-21.085392 -0.11706872 16.67008
-21.019331 0.6055818 14.630816
-20.87155 0.6511037 16.227615
-20.179844 -11.091907 5.2070274
-20.622187 -11.151054 5.794388
-20.285637 -11.231649 6.368993
-20.432867 -10.910473 7.3433785
-20.578281 -10.431259 7.883963
-20.310356 -8.913056 3.1079392
-20.429974 -9.627051 3.6943178
-20.625372 -9.848282 8.210054
-19.816635 -8.203549 1.8848057
-20.113665 -8.380626 2.6184268
-20.6674 -8.55182 7.9369535
-19.941656 -7.3723335 1.5775099
-20.501095 -7.73167 2.7201366
-20.47333 -7.6753445 7.3442597
-20.090332 -6.560113 1.7630719
-20.318495 -6.3681006 2.3589554
-20.49022 -6.8427186 3.0853257
-20.518913 -6.7387486 5.585193
-20.424173 -7.375874 7.0099936
-19.94629 -5.8669624 1.9738014
-20.106123 -5.876751 2.5402045
-19.931324 -5.6263294 3.0094404
-20.077303 -2.9898412 7.9437556
-19.930794 -3.1774833 8.284561
-19.799402 -3.000498 9.528995
-20.43145 -2.7055001 13.969125
-20.329973 -2.7853892 14.624269
-20.246439 -2.8313065 15.154235
-19.70269 -2.1772044 7.1898794
-20.012861 -2.5731168 7.670756
-20.102945 -2.5515766 8.392853
-20.074627 -2.5465274 8.929709
-19.81679 -2.6671948 10.152249
-20.189045 -2.1896586 13.109894
-20.207106 -2.400176 13.5616665
-20.26354 -2.607983 15.5658
-20.235703 -2.2586992 16.150183
-19.760096 -1.9207693 16.772816
-19.7162 -2.0393815 7.148938
-19.881088 -1.9177166 7.719225
-19.887995 -1.7570062 8.446609
-19.72098 -1.4764835 9.683545
-19.750366 -1.6704627 10.408783
-20.280863 -1.4834788 16.624163
-19.89719 -1.2259098 16.986591
-20.550383 -0.5733378 12.693377
-20.26931 -0.5751322 17.091257
-20.765556 -0.13183175 13.066772
-20.56159 0.28804433 13.507632
-20.574636 0.569144 13.878178
-20.631191 0.7615696 14.584531
-20.295204 0.93156534 15.564747
-18.928549 -10.892969 4.366763
-19.472609 -11.20619 5.4347887
-19.419611 -11.2526865 6.6507974
-19.794243 -10.85267 7.699804
-18.95837 -10.798783 8.124712
-19.604687 -10.025855 3.589581
-19.516846 -10.127023 8.318319
-19.383522 -8.811173 2.1361837
-19.634943 -9.196329 2.682557
-19.740135 -9.89059 8.348579
-19.178627 -8.077344 1.2764295
-19.346245 -8.565588 1.775928
-19.787876 -8.953275 8.252351
-19.25447 -7.3719773 1.0808926
-18.857483 -7.396358 7.883847
-19.278168 -6.447964 1.1346666
-19.702667 -6.230504 1.4564493
-18.899872 -6.4270334 6.61629
-19.577248 -7.096258 7.0379004
-18.538681 -6.044164 12.48286
-19.375444 -6.015161 1.2980189
-19.421074 -5.7028785 1.5586139
-19.716751 -5.4656134 2.7454033
-19.603056 -5.4948997 3.22577
-19.348639 -5.9241047 5.543067
-18.518812 -5.5662627 11.589352
-18.558155 -5.8675194 12.665909
-19.09775 -5.2654862 1.9036819
-19.14321 -5.221761 2.467921
-19.213081 -3.6898737 7.608344
-19.523666 -3.7794168 8.129969
-18.953014 -3.7324455 9.233762
-18.513292 -4.9644485 11.607023
-18.609175 -4.5737896 12.186227
-18.83302 -3.6319382 14.5709915
-18.933933 -3.7672734 15.286854
-19.4308 -3.4960387 9.539922
-19.091314 -3.5940742 10.641135
-18.650858 -3.9036407 12.748794
-19.259945 -3.4179294 15.365956
-19.189865 -3.0969715 16.165287
-18.712078 -3.098677 17.205952
-19.502752 -2.4401324 6.986336
-19.519104 -2.463328 11.081329
-19.701239 -2.5060487 16.565794
-19.373972 -2.3897948 16.858343
-18.821468 -1.8513094 20.620167
-18.750692 -1.7941724 21.175968
-19.311932 -1.8620862 6.9575353
-19.56822 -1.5847355 7.534894
-19.550047 -1.4273596 9.317121
-18.819807 -0.9616416 18.835897
-18.951101 -1.3900985 19.676914
-19.05437 -1.37063 20.593857
-18.919428 -1.4365101 21.272493
-18.783737 -1.3220307 21.704973
-19.234665 -1.2281904 7.7099013
-19.159359 -0.9630513 8.539639
-19.33011 -1.0231546 9.681515
-19.298197 -0.81846225 10.0882635
-19.709984 -0.40259576 17.224329
-19.041344 -0.50306153 19.512417
-19.195923 -0.41929868 20.525627
-19.150078 -0.4644213 21.444485
-18.867302 -0.43261412 22.007076
-19.39162 -0.02058062 13.016052
-19.507223 0.40744355 13.838533
-19.133347 0.38978845 17.268215
-18.661455 0.2527396 18.869755
-19.165491 0.8798773 20.668924
-19.243797 0.5297419 21.491497
-18.978456 0.52473325 22.088184
-19.489418 1.168322 14.910642
-19.391937 1.1212761 16.135084
-19.137285 1.0704325 17.152248
-18.624321 1.678746 17.923908
-18.95369 0.929255 19.915403
-18.975618 1.4171855 20.621962
-19.136646 1.2117294 21.405422
-18.870373 1.3835766 22.111437
-18.708895 2.240531 15.753975
-18.87537 2.1231863 16.405699
-18.567268 2.117485 17.464592
-18.57754 2.9096205 16.760986
-17.771114 -11.8670635 4.538479
-18.07426 -11.81904 6.6054463
-18.500698 -11.601104 7.0875955
-18.812386 -11.492622 6.9090714
-18.749496 -11.327365 7.3111653
-18.30944 -10.910201 8.237882
-18.034761 -10.501695 8.483351
-18.119675 -10.442326 8.638995
-18.577175 -8.985728 1.8832465
-17.830103 -9.674144 8.850414
-17.789387 -8.765845 11.893232
-18.410269 -8.147301 1.0953711
-18.644934 -8.61551 1.5046241
-18.20589 -8.282584 8.793327
-18.202915 -8.435926 9.88152
-17.947306 -8.654822 11.217547
-17.932245 -8.196462 12.167409
-18.430761 -7.4558034 0.80171204
-18.140284 -7.470074 9.360416
-18.136574 -7.6459417 10.406315
-18.379295 -7.256281 11.767259
-18.064005 -7.4661984 12.258816
-18.075495 -7.0496817 12.947281
-18.584843 -6.584524 0.78059983
-17.924904 -6.166709 8.376612
-18.27896 -6.4198813 10.706665
-18.442616 -6.3922434 12.50429
-18.349266 -6.491169 12.935437
-17.958668 -6.0186324 14.059084
-18.473413 -5.794013 0.89890397
-18.23857 -5.561128 5.7377763
-18.726196 -5.798547 5.9194384
-18.393805 -6.3653526 7.014736
-17.901224 -5.379976 8.910263
-18.136139 -5.956555 9.607644
-18.193829 -5.1999173 10.668136
-18.492266 -5.427849 12.105415
-17.794937 -5.4673595 14.638846
-17.615778 -5.667525 15.147998
-17.878204 -5.028191 16.553465
-17.692318 -5.3710904 17.448404
-17.679436 -4.9798093 18.190245
-17.940535 -5.1152344 1.2065933
-18.313923 -5.042219 1.6098415
-18.779991 -5.113994 2.5799332
-18.468094 -5.0932164 3.335044
-18.284916 -5.2829485 4.695745
-18.750864 -3.854601 7.7375617
-18.394249 -4.3825016 9.663657
-18.28995 -4.338018 10.64816
-18.368015 -4.56018 12.564947
-17.834093 -4.629149 15.720346
-18.112383 -4.430585 16.667204
-18.119734 -4.2438335 17.463053
-17.703577 -4.425554 18.284355
-18.410244 -3.5037918 17.374693
-18.181658 -3.143493 18.036766
-18.044273 -2.5971317 6.343631
-18.454233 -2.4523437 6.56409
-18.35418 -2.1643116 20.451717
-18.393408 -1.9398614 21.289295
-17.932467 -1.8087026 21.778076
-18.56388 -1.3671756 6.9769716
-18.60419 -1.6265441 21.551619
-18.354132 -1.4162252 21.886444
-17.877762 -0.96028066 6.8951783
-18.273924 -0.70951396 7.6514616
-18.414944 -0.49942786 8.204537
-18.582666 -0.41997296 10.918645
-18.468426 -0.59406376 11.0795555
-18.426836 -0.43283087 22.418434
-18.083813 -0.3549806 22.681156
-18.003521 -0.25173658 8.729418
-18.339378 -0.33133033 9.738982
-18.31581 -0.18123202 10.565994
-18.52937 -0.38998875 11.042365
-18.615652 0.19493914 22.402006
-18.192106 0.7999972 23.019957
-18.438793 1.3392609 14.115549
-18.440794 1.8817732 22.76794
-18.235266 1.5265565 23.089258
-17.69126 1.7181275 23.840126
-18.007982 2.579419 15.076772
-18.12727 2.3204482 18.016712
-18.183146 2.3848517 19.77814
-18.249662 2.4066923 20.74131
-18.421667 2.2802153 21.492296
-18.25991 2.6571805 22.388351
-18.02652 2.4101317 23.343529
-17.76022 2.3938127 23.83199
-17.792606 3.108089 15.025936
-18.19494 3.2270539 15.761499
-18.294146 3.4382334 16.471874
-18.291878 3.308701 17.314981
-17.945522 3.4945893 18.556541
-17.86663 3.5941885 19.110432
-17.782307 3.2589245 20.716742
-17.905367 3.0968604 21.6801
-18.010897 3.0949464 22.467062
-17.829042 3.0541246 23.108723
-17.9302 3.795506 15.971821
-17.980219 3.8505445 16.576807
-17.988789 3.8867059 17.083086
-17.863472 3.8984585 18.248049
-17.71736 3.9423084 19.040247
-16.76095 -12.29301 3.1524992
-17.034184 -12.397549 3.9086635
-17.226181 -12.360341 4.6443357
-17.196716 -12.350367 5.455541
-17.063276 -12.321594 6.0862083
-17.841473 -11.626385 7.4431868
-16.826763 -11.672252 2.918167
[...]
POINT_DATA 7962
SCALARS features_00 float 1
LOOKUP_TABLE default
0.7346822 0.7492364 0.7450137 0.7635832 0.7392059 0.68189096 0.70686483 0.740983 0.66164637 0.7076133 0.75751096 0.793002 0.6805949 0.71683264 0.78365564 0.788957 0.6818972 0.7258513 0.7697742 0.7729901 0.6900381 0.80717754 0.81128883 0.7360078 0.77935445 0.8055484 0.76775455 0.7035224 0.7680482 0.7408185 0.60505724 0.6032007 0.59536606 0.58731765 0.6366246 0.6660222 0.66235375 0.6282686 0.4822705 0.7381872 0.40422493 0.73396766 0.6657117 0.5691072 0.5695733 0.66500175 0.61348933 0.43839303 0.6425247 0.7409991 0.7447983 0.6798002 0.5862586 0.51404595 0.7800125 0.7958067 0.6726755 0.58062214 0.7499731 0.7544404 0.65308493 0.608629 0.6910595 0.7083361 0.7172291 0.72580576 0.6512162 0.6122683 0.6525334 0.59235233 0.47157758 0.5466599 0.5074341 0.52099234 0.5592523 0.34037408 0.33065164 0.6143228 0.43548968 0.39315736 0.6134249 0.59815305 0.48735264 0.47764924 0.6141646 0.577245 0.5214968 0.4929502 0.42859334 0.572598 0.55499536 0.51820666 0.70002985 0.6476353 0.46987522 0.52907175 0.44730753 0.38261026 0.6597464 0.70554614 0.6867411 0.64304537 0.46969786 0.5806042 0.54916024 0.3738101 0.37464362 0.3223412 0.64361584 0.6558167 0.6421703 0.5526245 0.52073485 0.45287043 0.41298074 0.61518204 0.5066297 0.62555337 0.58046234 0.5705087 0.58295524 0.5198657 0.21652456 0.37066066 0.4037102 0.42744008 0.2996903 0.2687747 0.38948622 0.36077332 0.31329417 0.44719633 0.43276036 0.38723654 0.49334937 0.5523691 0.025719732 0.58842546 0.59731436 0.077256754 0.18209822 0.1718653 0.57675135 0.56425774 0.5303502 0.47979474 0.18518913 0.1005411 0.16886137 0.5347227 0.51860476 0.6605989 0.55365133 0.28582212 0.05491779 0.061497606 0.11581242 0.09975794 0.32959336 0.07371284 -0.001998288 0.18624939 0.15640377 0.069429606 0.67362475 0.3161599 0.25956118 0.20042089 0.5529001 0.541571 0.59782004 0.59491956 0.55178165 0.2766636 0.51342654 0.54637474 0.5380516 0.52851486 0.5277921 0.4813595 0.44261014 0.3880833 0.4308235 0.44095215 0.53491104 0.53911006 0.51979595 0.32046014 0.39881557 0.20753211 0.14740133 0.46896124 0.5472909 0.52967536 0.34985387 0.27129793 0.15769485 0.05923737 0.32812306 0.38399246 0.4999665 0.51510215 0.2542963 0.22136524 0.17401291 0.28431106 0.35374987 0.24555615 0.28512624 0.3193911 0.3149711 0.24088126 0.18780172 0.176402 0.2803677 0.121352434 0.17882043 0.3464463 0.32993665 0.010523856 0.15118803 0.19960794 0.21277303 0.44609162 0.008414373 0.15010166 0.21222627 0.23626736 0.23682226 0.5297743 -0.17206451 0.10462025 0.19253051 0.20820937 0.169207 0.5004749 0.14930116 0.13332391 -0.08671249 -0.11644455 -0.015302297 -0.029740386 0.12645105 0.020610526 0.054987274 0.18316102 0.34745973 0.36437064 0.43494463 0.48666525 0.49298817 0.40797067 0.27441335 0.55467063 -0.021273166 -0.05565938 0.096334934 0.01968326 0.13923433 0.214116 0.3102389 0.10607113 0.07233878 0.6262764 0.6344822 0.5264623 0.5223874 0.5007129 0.49079883 0.53143495 0.51890063 0.33294043 0.36879522 0.3682743 0.22897618 0.2095001 0.4939646 0.4731169 0.2992736 0.30478925 0.23565549 0.19905855 0.50247884 0.48394138 0.12632611 0.5109839 0.51219857 0.5059366 0.23692086 0.16758518 0.12354482 0.22283782 0.34684366 0.4217147 0.5156276 0.5178705 0.25699943 0.32132864 0.31758833 0.2787856 0.19642875 0.15479189 0.14208998 0.27131456 0.39537853 0.47270083 0.32774332 0.31394956 0.29516116 0.23268625 0.17251152 0.49184754 0.49053973 0.44569534 0.35239065 0.27635095 0.25097066 0.4202774 0.39928788 0.24285835 0.083852835 -0.019497529 0.1052323 0.1510167 0.15933606 0.19829735 0.18394029 0.34993562 0.18134369 0.35314834 0.109309725 0.21059002 0.33998004 0.45053095 0.48218188 0.50866175 0.30030084 0.3655103 -0.3405227 0.45094854 0.46111992 0.30927143 0.35099882 0.1479196 0.38314486 0.3992858 0.6980687 0.2565429 0.05372809 0.4680156 0.45122376 0.47080848 0.493739 0.4640069 0.37152714 0.4787594 0.44726208 0.08881715 0.25532484 0.4410533 0.19836599 0.219398 0.20584288 0.15535848 -0.047491692 0.45241833 0.4516616 0.49806422 0.09059006 0.5050267 0.070497155 0.199228 0.182273 0.29379493 0.48844886 0.4988023 0.2974656 0.29071623 0.2622766 0.24343047 0.16366458 0.11406693 0.17536667 0.29094464 0.4339918 0.4674667 0.22160622 0.20039618 0.17061454 0.5360815 0.54549646 0.52703106 0.4135799 0.5141934 0.54740936 0.5832912 0.5101033 0.51291937 0.28180408 0.44944257 0.5341993 0.56809956 0.6098732 0.38516402 0.4285012 0.1941337 0.46514294 0.4438935 0.51758313 0.111336045 0.058611274 0.102432795 0.34112656 0.4009328 0.4489206 0.18788631 0.18290749 0.12921225 0.066058725 0.5638286 0.5072296 0.27320787 0.43876183 -0.018287271 0.5006718 0.52682173 0.3500945 0.13546887 0.502386 0.5333504 0.536427 0.23914573 0.5130215 0.23290464 -0.38903925 -0.37417817 -0.3768357 -0.022041306 0.5175589 0.4686787 0.22326458 0.19967112 0.37062234 0.39994127 0.5274668 0.49146914 0.37809193 0.24497196 0.5048164 0.448221 0.21940419 -0.03930472 0.40504867 0.11800105 0.022280656 0.01513727 0.43953395 -0.13454379 0.48374677 0.49517864 0.07676513 0.4969713 0.49246073 0.113890536 0.092042215 0.485866 0.47012997 0.14861059 0.13314864 0.19192424 0.2532558 0.107702196 0.32669574 0.44591582 0.4437158 0.20956847 0.20773935 0.1635147 0.1313599 0.13424207 0.15351938 0.49808943 0.48335373 0.6593789 0.75214046 0.763956 0.5676545 0.62324584 0.7195628 0.778399 0.76313144 0.6096914 0.64495826 0.752501 0.77604353 0.75151813 0.71272045 0.73513985 0.71093476 0.54539484 0.56704503 0.5614362 0.43495032 0.24200386 0.5013365 0.5408766 0.5859857 0.61726874 0.6252985 0.49604166 0.21052518 0.119769216 0.4740245 0.62176454 0.62422395 0.78305626 0.7817407 0.7666805 0.108642854 0.28656334 0.5249364 0.52084744 0.73721683 0.78921723 0.78718126 0.7716149 0.4106445 0.2813945 0.36902237 0.41834325 0.7094805 0.73349035 0.7506933 0.625604 0.57377124 0.1723143 0.32516634 0.684682 0.69392157 0.64706326 0.58398384 -0.017725762 -0.07474345 0.63937926 0.31010574 0.44959483 0.5411599 0.54339904 0.49550164 0.3156504 0.20102444 0.53402907 0.79199094 0.8357178 0.22842503 0.5069632 0.21284474 0.18332607 0.3974402 0.34413576 -0.0037306277 0.25279698 0.44303632 0.24571463 0.4704131 0.4999947 0.11243914 0.32481986 0.515772 0.4946738 0.43120393 0.29102778 0.37071213 -0.055766508 -0.047151055 0.3882553 0.38548335 -0.114564225 -0.1468383 -0.1488092 -0.23206842 -0.06777772 0.4634756 -0.023940463 0.4735821 0.04426136 0.105064966 0.45212656 0.12521185 0.18213266 0.12400244 0.005871162 0.43326324 0.39044297 0.044330783 0.17284986 0.16137137 0.0028934926 0.00974313 0.12717411 0.15152165 0.15544832 0.17142934 0.24322248 0.12235034 0.097417906 0.123049445 0.11406174 0.1203969 0.12737873 0.12142769 0.4280364 0.41255796 0.40846518 0.48033458 0.74423736 0.5175804 0.53172076 0.7255633 0.59014773 0.63234985 0.659976 0.6265238 0.60023 0.6114847 0.64826715 0.6704811 0.6519725 0.598524 0.56460196 0.56868577 0.5901784 0.48667297 0.5070593 0.5136801 0.5247178 0.5027055 0.5299775 0.40270394 0.1401192 0.082402885 0.34246188 0.48261088 0.5348855 0.55350006 0.5692114 0.59136677 0.6914742 0.733496 0.73824596 0.45073652 0.43103892 0.052135818 -0.03755083 -0.09777269 0.60269654 0.717692 0.76689386 0.7591766 0.7206607 0.52700365 0.6155189 0.68913054 0.73781604 0.58040553 0.51518095 0.3306181 0.43360305 0.4034053 0.55551744 0.6193431 0.71174407 0.67819273 0.61651695 0.329486 0.5644715 0.61844707 0.6618697 0.66227496 0.58351153 0.7211167 0.7907088 0.8494493 0.86194825 0.8764072 0.5834928 0.63879573 0.6198848 0.70896935 -0.08804163 -0.08862105 0.21081963 0.47728074 0.5203248 0.5087047 0.7571234 0.84913915 0.88296974 0.8711909 0.4959427 0.5086136 0.6625577 0.7537234 0.82224816 0.80662465 0.26758495 0.44004536 0.43725955 0.54226696 0.6672416 0.7233404 0.67802423 0.24151492 0.16583042 0.32659853 0.42950082 0.57438785 0.26546204 -0.22421391 0.09974091 0.39068282 -0.37926853 0.37409723 0.43306673 -0.58647764 -0.20377819 0.421903 0.33631647 0.2523421 0.31029567 0.29250625 0.34518737 0.12601301 0.17239131 -0.020994741 0.37445468 0.15791772 0.17192128 0.1159176 0.0767663 -0.19672519 -0.28737167 0.39424816 0.16018464 0.15850292 -0.2013376 0.37285668 -0.08952439 -0.025286198 -0.13444781 0.034273177 0.03891045 -0.2488174 -0.23929614 0.079357736 0.08873065 0.0826871 0.1055489 0.35811406 0.35618296 0.02654028 0.03459755 0.42444494 0.5683422 0.54910344 0.5558282 0.44856942 0.5582205 0.56201905 0.51985794 0.5218442 0.5090445 0.4921412 0.49228746 0.5374032 0.42167008 0.33110318 0.42811298 0.60175914 0.08125668 -0.0076257214 -0.09798298 0.25857213 0.39883572 0.45257455 0.48872548 0.63322705 0.64695674 0.65620464 0.64120084 0.37337238 0.31762835 -0.013599895 0.51308024 0.4812289 0.5845074 0.6519811 0.55832404 0.22877868 0.23696947 0.4484331 0.53131646 0.5073169 0.51202226 0.21623969 0.36570716 0.4853295 0.46225554 0.7027244 0.61382824 0.34330982 0.75645626 0.77465844 0.48487258 0.531791 0.2861754 0.7429354 0.6956254 0.756523 0.7827496 0.81887174 0.8413794 0.57584906 0.5806695 0.4030797 0.29378936 0.6917345 -0.21774185 0.36994207 0.44990402 0.6125958 0.65696084 0.8441044 0.79239416 0.52855957 0.5582375 0.40245736 0.2855582 0.43806267 0.4225235 0.7326691 0.7115652 0.2861356 0.3576307 0.56985986 0.56555074 0.24066177 -0.085233465 0.07052784 0.23785341 0.20161568 0.098892905 0.16904245 0.124751456 0.2138934 0.22604862 0.036932543 0.030336156 0.31259805 0.28458482 0.2884948 0.25836295 0.2779314 -0.32022497 0.21881773 0.19246477 0.19821729 0.16730215 0.05372442 0.11692475 0.12644568 0.066261515 0.12457495 0.11642639 0.005485637 0.120742984 -0.17432287 0.16965593 -0.3565454 0.42621106 0.32862508 0.28805238 -0.3480988 -0.012161188 0.043601207 0.07549352 0.25351524 0.44832125 0.47305304 0.36377653 0.022446759 0.018060885 0.2910113 0.47760612 0.51768315 0.4431764 0.41728777 0.44696754 0.28987956 0.23515622 0.47516686 0.4821795 0.3173719 0.2585333 0.15036012 0.44317523 0.426557 0.36889005 0.5174297 0.5492507 0.5578848 0.1251892 0.06919919 0.027311299 -0.042525098 -0.033880822 0.24334994 0.20894727 0.3419474 0.3012478 0.5158816 0.5584089 0.57406414 0.13039342 0.18583426 0.37931985 0.518939 0.37318447 0.3490664 0.3262698 0.32593617 0.26809323 0.10783126 0.35509282 0.31642294 0.36390617 0.41497833 0.15305413 0.27923164 0.7030021 0.72088546 0.40679643 0.31638533 0.6036755 0.25522268 0.5591399 0.6593785 0.65882295 0.72229004 0.73226094 0.45050132 0.34199214 0.36745995 0.48315576 0.5153991 -0.26144597 0.53762877 0.82138413 0.31283045 0.14797202 0.20870146 0.3394291 0.3910851 0.44033903 0.5471494 0.16623262 0.45682424 0.60953736 0.38932785 0.43177503 0.48189074 0.5811759 0.67202866 0.24010831 -0.17249613 0.052495614 0.3498764 0.30422 0.3638695 0.42974788 0.50634813 0.5233878 0.58184314 0.65832984 0.23551844 0.20482504 0.4765239 0.52569306 0.5631002 0.5893899 0.6270684 0.2126246 0.069410115 -0.022407323 0.5353026 0.54379547 0.567305 0.15391847 -0.13073438 -0.0801315 0.16043088 -0.30164215 0.19065647 -0.24617735 -0.25823334 -0.17443222 0.3068053 0.0017250329 0.08727254 0.55300665 0.5359651 0.09653785 0.14274633 0.14220354 0.64646626 0.51780534 0.24699399 0.12203541 0.71347106 0.68883073 0.56514025 0.41787893 0.03704494 -0.19931118 0.13707758 0.703555 0.67700315 0.6222148 0.47045368 0.06414505 -0.19288184 -0.115471475 0.18654916 0.6598315 0.6288909 -0.027009604 -0.113657564 0.34583837 0.26138127 0.09368517 0.49871004 0.46008736 0.31205988 0.28584647 0.07904677 0.03652434 0.43938643 0.52566284 0.5353327 0.31831214 0.29502833 -0.012319867 0.06545453 0.22324291 0.24602887 0.3029342 0.40123397 -0.053340107 -0.01303168 0.10092393 0.20282267 0.2804867 0.38630104 0.37789553 0.019417483 0.084132895 0.33533844 0.27538177 0.37797827 0.24048203 0.18393563 0.41385493 0.42800915 0.34909564 0.5496876 0.5110506 0.51770663 0.16737807 0.18258056 0.52462924 0.15238485 0.07164897 0.12933223 0.1608555 0.13190702 0.1048581 0.4660405 0.44743067 0.47781965 0.059886992 0.034950465 0.09333828 0.1362164 0.42788294 0.38558412 0.13294141 0.15307602 0.19596477 0.2850379 0.29402354 0.28475422 0.30136785 0.098087594 0.11366102 0.27747765 0.19728711 0.28223836 0.2960631 0.032475088 0.29555783 0.24732624 0.28179228 0.33305854 0.044356726 0.02058918 0.2344984 0.26297116 0.31367457 0.3901483 0.19648989 -0.1448502 0.49429542 0.5000657 0.5474467 0.5894152 0.3835887 0.52722275 0.2132262 0.09052113 -0.24792798 0.4606981 0.42471606 0.45846274 0.3011478 0.6214651 0.007991433 -0.2568642 -0.22383761 0.22370793 0.41525793 0.41678992 0.4012529 0.2950767 0.71393156 0.20940445 -0.31971318 -0.38547474 -0.017705351 0.3237586 0.3151361 0.2925167 0.3810656 0.7195229 0.16755646 0.21960789 0.2714172 0.45472643 0.63586414 0.6713717 0.10619611 -0.090411216 -0.057768352 0.08734989 0.20230633 0.24640256 0.48528454 0.5051559 0.530106 0.5462807 0.59483194 0.6270925 0.10000717 -0.35965496 -0.17912626 0.051881485 0.21400729 0.27922636 0.29467845 0.49759054 0.50336516 0.088393256 0.0945533 -0.33992332 -0.10106347 0.08516346 0.22971442 0.28407472 0.30572653 0.061065722 0.060145497 -0.18884826 -0.23468287 0.14989048 0.25653493 0.2756231 -0.16379139 -0.010000616 0.018733561 0.08631433 0.087885596 0.49654698 0.13885055 0.6857459 0.6305064 0.1420895 0.1425542 0.7190591 0.1513951 0.72226584 0.6914917 0.36633444 -0.008889539 0.1891025 0.70568633 0.6691419 0.6270056 0.543988 0.3537339 0.26416868 0.36736006 0.24124798 0.19257754 0.46583438 0.52353615 0.5502362 0.52531445 0.24821639 0.1926597 0.34902254 0.4947786 0.20561098 0.19259949 0.2976472 0.36737207 0.42078972 0.3004112 0.18364656 0.31044012 0.36937934 0.114571266 0.24356872 0.16064939 0.4617806 0.5332602 0.37479347 0.30377564 0.523806 0.62243056 0.5982958 0.5040766 0.42549676 0.67041767 0.6532416 0.55671024 0.5801967 0.5094148 0.44727778 0.35178056 0.2435167 0.6056413 0.5730152 0.4263959 0.31579325 0.21669292 0.18161733 0.18056592 0.5769119 0.15528613 0.13431711 0.35129875 0.31149822 0.34124953 0.31981307 0.43886435 0.09899496 0.10623194 0.342899 0.33569273 0.27503738 0.10818091 0.15830189 0.20688179 0.30884928 0.32263523 0.111323506 0.23950134 0.139134 0.16986126 0.33543205 0.05746212 0.09034463 0.25068521 0.094273165 0.32602185 0.014681142 0.056846663 0.16881976 0.18447432 0.24630007 0.36021888 -0.23631106 0.38779706 0.40813422 0.33391738 0.21959938 0.2898354 0.41158924 0.48203468 0.51426727 -0.01568067 -0.23245049 -0.20999539 0.26965863 0.25401774 0.120140016 0.43760824 0.45623082 0.60332304 -0.109517455 -0.22930011 -0.30543277 0.35417274 0.059776448 0.70106626 -0.0127746165 0.27712068 0.7306146 0.18617141 0.1347689 0.113223605 0.14776516 0.68474674 0.05829037 0.1799863 0.43068403 0.5121042 0.5253783 0.6212554 0.047376744 0.28030938 0.44696984 0.40285468 0.054268863 0.043810792 -0.24552487 0.16742977 0.02414544 -0.07257737 0.21927547 0.2537772 -0.12470883 -0.021977305 0.061954647 0.15683244 0.16016689 0.20284733 0.042658508 0.081431106 0.04724118 0.07211654 0.46609515 0.02743893 0.65458167 0.093323484 0.72682 0.73881733 0.1684718 0.10731759 0.73704135 0.7390076 0.15781856 0.71556836 0.66444415 0.5829749 0.38753328 0.20372006 0.2205156 0.055995017 0.26734343 0.066634074 0.4267376 0.31117505 0.04231528 0.1027859 0.27411404 0.37663743 0.47688645 0.52145743 0.14566822 0.4159528 0.37403598 0.3569197 0.401542 0.14708556 0.43286842 0.4500577 0.41209996 0.16034639 0.12698932 0.30197152 0.40859735 0.45737773 0.26271078 0.19755638 0.30737525 0.62091756 0.4875973 0.40860444 0.34477326 0.66859335 0.69328207 0.67342365 0.56042874 0.48256916 0.43565708 0.5577016 0.50782764 0.40432096 0.3283349 0.18443595 0.5678829 0.59130293 0.12180756 0.14670569 0.18099554 0.5307846 0.53816247 0.14338711 0.24463017 0.29367554 0.2957151 0.12672687 0.59421045 0.53954935 0.19541687 0.2667634 0.28339803 0.11522457 0.15159538 0.5466147 0.3133468 0.33487442 0.0864951 0.1993371 0.4079403 0.24896903 0.33802524 0.07305875 0.062335905 0.18317315 0.35600036 0.23053956 0.28545198 0.04648164 0.05282616 0.07844222 0.069722995 0.100439295 0.29881138 0.13568556 0.22916782 0.24464738 0.015939828 -0.10857808 0.01826784 -0.043306217 0.0043158084 0.2419869 0.37285566 0.42872238 0.38688958 0.17653996 0.4026336 -0.10831795 -0.03780019 -0.08370832 0.18310526 -0.20662108 0.01676578 0.39933217 0.3241354 0.51106906 0.13824305 -0.23442268 0.2879267 0.6171326 0.11279256 0.08382523 -0.03847611 -0.046499282 -0.15730405 0.18934707 0.71039724 0.14234346 0.026375428 0.08075769 0.15706238 0.6689651 0.09163236 0.23412256 0.35366812 0.39225325 0.5880853 0.06867251 0.16243541 0.18348393 0.09158665 0.2561036 0.045041025 0.10405627 -0.0036007334 0.09468421 0.13435206 0.12521051 0.03439991 0.056964558 -0.072103664 0.11008992 0.039756667 0.17482512 0.07758728 0.07007965 0.048159227 0.45379293 -0.022858612 0.043586254 0.05086594 0.64480543 0.5463588 -0.017662225 0.6941618 0.7133223 0.7095603 -0.007991839 0.6868289 0.62222266 0.40547717 0.29086897 0.15846126 0.19805588 0.07946803 0.028937604 0.01284375 -0.27318707 0.1059279 0.25178793 0.26843148 0.32099777 0.17701443 0.31804547 0.25258154 0.42284775 0.2892021 0.3126328 0.053803846 0.4246893 0.30815277 0.19655836 0.1336996 0.2693214 0.23471296 0.5253887 0.35699913 0.29925883 0.64281774 0.66415936 0.6482209 0.559169 0.41295162 0.6654279 0.5347371 0.6220504 0.6617475 0.62170047 0.3550087 0.34917694 0.26235116 0.4968772 0.62138957 0.69348264 0.6476359 0.5942248 0.48766 0.42951638 0.2447345 0.17001304 0.018204425 0.48890287 0.656481 0.6986132 0.6880687 0.61730874 0.524766 0.53053683 0.010100447 0.10932839 0.18727577 0.33081967 0.44809312 0.59889704 0.64017564 0.62013507 0.29137492 0.3061955 0.47749823 0.17213683 0.024485573 0.4745244 0.562902 0.5921573 0.4201033 0.33856001 0.21949913 0.26739478 0.31216553 0.31335577 0.29000324 0.3696739 0.008688949 0.6352085 0.6195047 0.23260349 0.14779755 0.61576545 0.2507896 -0.07164859 0.51740074 0.28865606 -0.07441821 0.14492865 0.12911832 0.07672836 0.48079377 0.21327339 -0.0470539 0.09114046 0.03893736 0.15565863 0.11619555 0.44589457 0.1957487 -0.019441336 0.18501674 0.31268954 0.06707318 -0.063759364 -0.009786963 0.06259404 -0.0004289262 0.09912777 -0.36339933 0.27338785 0.32652268 -0.04334353 -0.0041876137 -0.04597578 -0.1234256 -0.10199429 -0.51618654 0.27016923 0.22881567 -0.063162655 -0.12762904 0.39125413 0.20758523 0.0774988 -0.23300144 0.046692885 0.39101553 0.54328644 0.013718576 -0.052829735 0.06038439 -0.04618548 0.03806817 0.190734 0.6405354 -0.102849975 0.017469529 0.014539699 0.026602816 0.07647011 0.26695418 0.34736365 0.6189171 0.6633656 0.0103292465 0.033568762 -0.0066266023 0.50725985 0.6350537 0.6695427 0.04708621 0.018015992 0.01473362 0.006304007 0.55519694 0.5121021 -0.10366646 -0.023536589 0.11466287 0.11219225 0.67485195 0.6381453 -0.13692603 -0.115027755 -0.012957502 0.68724436 0.65858936 0.54920936 0.35202107 0.07462269 0.644952 0.5695748 0.4149233 0.20502397 0.11502487 0.33318663 0.31439924 0.041375846 -0.016907645 0.0068539903 0.3899574 -0.024456432 -0.097795516 0.004817575 0.20488937 0.19699839 0.25353286 0.13320485 0.28434318 0.32909575 0.2986396 0.31256926 0.34318304 0.22315852 0.3206929 0.32660952 0.29744998 0.1372033 0.22022793 0.493554 0.27174258 0.5669421 0.56815195 0.5709248 0.46765405 0.6151314 0.6147363 0.59313893 0.45767665 0.45177653 0.39936092 0.48400986 0.56532204 0.6300238 0.5890285 0.5500891 0.38676575 0.37700808 0.320785 0.24964508 0.33910483 0.43570656 0.58341575 0.5531075 0.5118253 0.027428782 0.14463937 0.25503498 0.5720625 0.51720566 -0.17462337 -0.0063842908 0.27241716 0.5568711 0.52830744 0.35773903 0.28295955 0.3184327 -0.25586367 0.3055141 0.41068435 0.48819596 0.50005615 0.5964127 0.5506332 0.4043482 0.28489184 0.24120504 0.32582515 0.3234862 0.3091007 -0.2573541 0.24277475 0.29020458 0.35995364 0.5873174 0.20221435 -0.35641325 0.5572868 0.12338882 -0.30021948 0.20534724 -0.0026812106 0.40211093 0.16725579 0.22383092 -0.08011449 0.09383103 0.13073902 0.10246637 0.049913622 -0.025697438 0.09259644 0.14851993 0.17824326 -0.17736605 -0.17464426 0.011125177 -0.0997419 0.042888977 0.15914467 0.04023178 0.17848513 0.5475865 0.4968731 0.26860178 -0.050347686 -0.2868391 -0.3291582 -0.55233645 -0.78580356 0.16028713 0.146