# vtk DataFile Version 2.0
Really cool data
ASCII
DATASET POLYDATA
POINTS 3918 float
2.3581858 10.956034 42.95847
2.2624376 10.8341255 43.508053
2.21921 10.955231 44.440285
2.289877 11.5804405 43.004456
2.0678685 11.455373 43.65525
2.109319 11.410893 44.534897
2.294817 11.432381 45.085556
2.3869455 11.997552 42.819588
2.1905336 12.225171 43.813854
2.1501067 12.244389 44.29894
2.3174317 12.239688 45.08161
2.3499677 12.860388 43.680214
2.394353 12.84519 44.130516
3.1933403 9.989914 42.982445
2.7561648 10.104382 43.701115
2.9565887 9.972609 44.4224
3.0200522 10.199121 45.18248
2.5795343 10.687196 42.961475
2.4567628 10.544482 43.408775
2.5000095 10.483385 44.355988
2.8900561 10.563763 45.22809
2.9432805 11.049886 45.735962
3.100057 11.541606 42.24011
2.4578662 11.898586 42.65163
2.504547 11.462278 45.46923
2.8956342 11.690676 45.803593
2.6704783 12.447579 42.59389
2.6283236 12.337542 45.370148
2.9757202 12.19991 45.7899
3.081685 13.330797 42.24522
2.8779585 13.44711 42.67507
2.7004776 13.433395 43.281334
2.6771474 13.258231 44.349598
2.8814607 12.934807 45.170227
3.01792 13.788071 42.926376
3.0172942 13.922925 43.331192
3.1731613 13.756173 44.322235
3.9614978 9.144262 43.57488
3.8345659 9.193949 44.44216
4.121719 9.054357 45.02366
4.224894 10.083425 40.675232
3.9362626 9.704798 42.67096
3.4803164 9.584479 43.69624
3.438286 9.451452 44.53386
3.6111894 9.803685 45.404976
4.098899 9.94705 45.8411
4.37215 10.6958885 39.898277
4.1940246 10.541397 40.706844
4.1708827 10.782826 41.29399
3.3846695 10.37963 45.563168
3.695211 10.586282 45.937233
3.6602526 11.442921 46.087055
4.0165615 12.829618 41.42193
3.6474593 12.345076 45.87842
3.3473916 13.6163645 42.13439
3.5182354 13.300945 45.252644
3.5555656 13.860173 42.125614
3.6465359 14.173392 42.51149
3.5967526 14.336574 43.458622
3.6793823 14.096024 44.50382
4.10285 14.0551605 44.889046
4.1127043 14.545714 43.947388
5.475614 6.2894006 40.24805
5.3439775 8.029098 40.488842
4.962233 8.8306675 39.5343
4.7806168 8.735005 40.411446
4.7573595 8.820904 41.20927
4.664424 8.762632 44.575306
4.898742 9.211586 45.541508
5.264918 9.728506 37.97349
5.1107683 9.661643 38.414883
4.599179 9.632601 39.631943
4.8965173 9.943556 46.04928
5.228811 10.18588 38.06909
4.957406 10.398899 38.727345
4.629206 10.689768 39.521202
4.71043 10.807671 46.354687
4.7773433 11.247303 39.79242
4.5447636 11.393819 46.252327
5.171129 11.822654 39.879078
4.3375244 12.067957 46.086857
4.810055 12.997119 41.09812
4.673107 13.451325 41.43897
4.7124 12.835572 45.630043
5.085722 14.611919 41.761154
4.1771345 14.371169 44.528816
4.321316 14.078734 44.92329
5.1409607 14.740736 42.521755
6.372551 0.73795277 46.6556
6.3642793 0.57548076 47.263233
6.38013 1.2623527 46.85957
6.3716593 1.2013582 47.26738
6.4429317 4.14582 36.471725
6.4123545 4.652316 36.424885
6.4446106 4.7072773 37.120163
6.1232295 4.710643 39.67416
6.000288 4.7692018 40.399536
6.054042 4.976977 41.00257
6.4618 4.98019 36.55642
6.431369 4.98684 37.33982
6.0248322 5.4478517 39.135563
5.73795 5.5183325 39.71267
5.6543303 5.5491285 40.558792
5.846183 5.677367 41.04112
5.7698145 6.2244244 39.488956
5.549379 6.292881 40.582172
5.6196127 6.23224 40.87584
5.8517237 8.300203 39.07757
5.8883557 7.388971 41.12013
5.474785 8.356793 42.279095
5.4133162 8.238818 43.794952
6.0867004 7.926817 44.257557
5.4590516 9.153754 38.097507
6.011838 8.581279 38.265106
5.6085567 9.674169 37.48999
5.093415 9.94741 46.052704
5.7759976 10.209119 37.2101
5.454748 10.700014 37.756104
5.425109 10.575764 46.20312
5.3509755 11.424291 46.261574
6.0915165 12.074597 38.614628
5.762588 12.336361 39.32479
5.832255 12.403683 45.793156
6.305261 14.136523 35.08458
6.2343893 14.151589 35.184345
5.620415 13.195964 40.72712
5.1369176 12.893537 45.79644
6.2521844 14.636657 34.95085
6.0842295 14.578481 35.450016
6.1731033 14.5789585 36.114483
5.804375 14.5209055 41.03869
5.120746 13.79401 45.248356
6.23025 15.304037 35.00925
6.1203947 15.219136 35.402714
6.1964717 15.291798 36.086174
6.243476 15.691953 40.83305
5.731333 15.053136 41.534332
6.3102846 15.917983 35.034863
6.405767 16.250134 35.41016
6.071127 16.439451 41.052094
5.6502104 16.27154 41.793816
5.640352 15.87399 43.065678
5.9407096 17.151144 41.58288
5.784034 17.328491 42.149483
5.8739276 17.045794 42.888268
6.4358892 17.90392 43.884117
6.020936 18.328192 42.303738
6.4366994 18.576235 44.12446
6.2683616 19.40963 41.99087
6.2980084 19.703773 42.308567
6.2908483 19.40244 43.223038
6.404729 19.625591 44.13303
6.4556727 19.938873 41.868202
6.416007 19.982304 43.73225
7.372168 -1.2395507 42.937664
7.400115 -1.3849974 43.302048
7.238442 -0.7816118 47.310497
7.3182244 -0.8382072 48.64617
7.4240246 -0.31580573 42.847397
7.2586694 -0.4400366 43.36608
7.2703943 -0.14544147 44.504353
7.127245 -0.268749 45.653797
6.7823772 -0.15053985 46.567112
6.6997013 -0.15701309 47.368687
7.0622787 -0.4060167 48.321598
7.1469293 -0.170414 49.209198
7.4043036 0.6421484 42.91836
7.171169 0.5493756 43.784103
6.896968 0.57543457 45.544228
6.5185356 0.4663982 46.439888
6.4788 0.23666382 47.215786
6.5160356 0.56957614 48.081017
7.0587544 0.5316458 49.56961
7.312654 0.590793 50.143284
7.389992 1.3634698 42.844204
7.2140965 1.0888637 43.682686
6.8963313 1.6321623 44.727955
6.729233 1.3929908 45.643364
6.518757 1.6423234 46.994633
6.6975555 1.5267454 48.296036
6.9216795 1.3326582 49.472027
7.2007747 1.5809389 50.2765
7.051236 3.3032799 36.290997
7.428419 2.4565995 43.414185
7.163699 2.403984 44.37943
6.745297 2.1777432 45.697235
6.9580693 2.3359413 46.718975
7.1700463 2.1793826 48.71709
7.180519 2.2063317 49.603703
7.2191067 2.0831366 50.109375
7.3157277 3.9015677 35.204567
6.946059 3.7387006 35.860653
6.6949625 3.8396735 36.516647
6.710119 3.9203122 37.132046
6.8513002 3.8210428 38.95725
6.7441807 3.8157775 39.444202
6.7854557 3.7046053 40.67759
6.8915997 4.0988655 41.398815
7.2510986 3.0832384 44.734818
7.1580462 3.014462 45.486683
7.2438507 4.5309634 34.966717
6.7712674 4.5167575 35.652508
6.489452 4.403561 36.19656
6.498504 4.4656587 37.10907
7.0197124 4.5784693 41.78671
7.1083345 5.312051 35.105476
6.7878637 5.161368 35.689205
6.626956 5.485026 36.529896
6.6627254 5.540038 41.67279
7.2433805 6.304006 35.623486
6.882095 6.163016 36.93684
6.632696 5.81491 37.09314
6.672462 5.9782243 38.33136
6.7614284 7.199547 41.999504
7.045704 7.251296 44.00707
7.400522 7.121366 36.677338
6.756742 7.989222 37.911167
6.76547 7.053476 38.83901
6.300659 7.680943 43.410458
6.2763014 7.951911 44.609123
7.250556 8.112451 45.49919
7.2875314 8.653775 35.44169
6.9695544 8.44416 36.306194
6.4968133 8.521825 45.175243
7.30582 9.42753 35.19145
6.7782025 9.491944 36.123375
6.6084895 9.402005 36.676487
7.0746527 10.118582 35.691387
6.453116 10.128579 36.748867
6.2493367 10.612022 45.823933
6.7141576 11.04662 36.718258
6.252917 11.408377 45.91914
7.228133 13.301522 35.24116
7.098571 12.267271 36.759655
6.7694693 12.599368 45.70094
6.674514 14.005805 34.78639
6.576185 13.650162 35.367374
6.727837 13.818784 36.56314
6.8487225 13.459014 37.5261
7.0492387 13.354633 38.246086
6.2946444 13.62568 40.58266
6.415588 13.611205 45.42752
6.532522 13.358549 45.583775
6.9126945 14.581828 34.332928
6.515574 14.551182 34.652466
6.541126 14.417443 36.96311
6.356664 14.180403 45.053352
7.024066 15.51905 34.263668
6.500084 15.36868 34.620842
6.556815 15.837273 36.465813
6.6290965 15.327301 40.707
6.5773506 15.344947 44.482265
7.065381 16.205511 34.380726
6.7701354 16.5447 34.78066
6.5802107 16.754332 35.353046
6.665496 16.30529 36.242504
7.192512 16.671556 36.708687
6.7564836 16.840197 40.77661
6.9795146 17.178629 34.86716
6.849231 17.284653 35.497852
7.1950874 17.29145 36.300907
6.9495463 17.495045 40.777706
7.2421927 17.565329 44.738884
7.18396 17.618996 35.074432
7.1755414 17.662962 35.461414
7.1419287 18.708487 40.924744
6.61412 18.678862 44.26093
7.116592 18.944492 45.452766
7.096753 20.071909 40.145775
6.7632275 19.704103 40.967113
6.5506263 19.417572 44.522144
7.0330396 19.476536 45.343544
6.7544312 20.778334 40.542
6.551678 20.064287 41.42463
6.6778946 20.533611 42.593845
6.694339 20.420595 43.563297
6.8576193 20.382938 44.558342
7.0532246 20.251005 45.08207
7.2747593 21.508623 39.83944
6.879976 21.34828 40.64412
6.839718 21.344057 41.342712
7.051673 21.440823 41.929646
6.959114 20.885098 43.844093
7.1948013 20.944277 44.484634
7.230342 20.815199 44.806355
7.293866 22.07545 40.52708
7.0510206 21.786734 41.082317
8.183376 -2.6359494 42.939342
8.186064 -2.6681013 43.49455
8.162481 -1.9535573 42.01306
7.930017 -2.2414167 42.72994
7.848598 -2.2502651 43.47849
8.05991 -2.2424958 44.31282
8.256241 -1.6343907 48.615242
7.883746 -1.5736086 42.11596
7.5905557 -1.4783076 42.63485
7.4961715 -1.5812778 43.265285
7.5209446 -1.3775728 44.166126
7.4299846 -0.75430286 47.002716
7.6599927 -1.2081025 47.888374
7.7961025 -1.2443761 48.561672
7.790708 -1.0135995 49.253277
7.9357953 -0.7606747 49.747425
8.095409 -0.6540685 41.985016
7.5306168 -0.8668173 42.460102
7.4798164 -0.57168865 46.567997
7.865799 -0.2268798 50.180286
7.565981 0.8976236 42.2951
7.5411572 0.61523366 50.45039
8.088326 0.71731025 51.03955
8.044811 2.2930596 35.676167
7.7094936 1.0927712 42.288486
7.555207 1.0950649 42.302525
7.436952 1.4341398 50.620792
7.7082453 1.455838 50.87639
8.078474 2.924824 34.939655
7.830409 2.7070417 35.6585
7.8733106 2.6423817 36.44832
7.8776193 2.9181838 37.073463
7.370674 3.3508806 39.494385
7.4152293 2.571032 49.61415
7.6304965 2.34242 50.43541
8.069343 2.2346046 50.915855
7.763448 3.616789 34.880863
7.587707 3.309238 35.316547
7.696663 3.6563103 41.93287
7.7360773 3.096103 43.683094
7.8942857 3.2049036 46.990425
7.751149 2.8113136 49.74267
7.9921064 2.8562226 50.149395
7.920735 4.65863 34.236504
7.521023 4.613853 34.663166
7.9794354 4.1606655 44.272408
7.7423415 4.3490686 45.56283
7.800771 3.860499 46.09793
7.974856 5.4343567 34.131462
7.5727506 5.473961 34.558582
7.6136475 5.741615 42.50156
7.9528594 5.85025 43.804478
7.896009 5.201131 44.48055
7.9528813 5.903973 45.273643
8.117708 5.6550803 46.234386
8.349878 4.99635 46.804127
[...]
POINT_DATA 3918
SCALARS features_00 float 1
LOOKUP_TABLE default
0.5956112 0.64298105 0.7024294 0.6254852 0.679705 0.7358857 0.7370503 0.60408485 0.6867541 0.73065007 0.75741076 0.6472981 0.6849071 0.48795196 0.58548856 0.6057805 0.643888 0.5661743 0.61179054 0.65484095 0.6687223 0.68437135 0.43698376 0.57716763 0.72318494 0.7042054 0.5652177 0.7420019 0.7061596 0.49849343 0.5549412 0.60062 0.66631305 0.70389044 0.5555377 0.57899714 0.6229925 0.41986063 0.5112245 0.52274203 0.2774737 0.358613 0.5080309 0.56040025 0.6113966 0.61019397 0.31014416 0.2734428 0.25412452 0.6439743 0.6368487 0.64602494 0.274512 0.64031506 0.44250724 0.6329309 0.3983884 0.44031554 0.54829276 0.599298 0.56578135 0.530084 0.30752137 0.109483 0.2905966 0.2390289 0.1807522 0.3930241 0.50198406 0.28765434 0.3046511 0.31634814 0.5726453 0.2905054 0.31392774 0.3204849 0.5692837 0.26565245 0.5529443 0.12822595 0.54072475 0.07630035 0.13936426 0.44702888 0.13177682 0.5506099 0.5330484 0.22860414 0.40560263 0.43528035 0.40861502 0.42883104 0.44833058 0.42248797 0.3491217 0.4009788 0.42226103 0.38191652 0.39026412 0.29913524 0.28221738 0.3686145 0.37962592 0.33740127 0.24984369 0.31187013 0.30408084 0.1976865 0.10968233 0.0412544 0.1414468 0.081269674 0.27348143 0.21771081 0.25134876 0.5537012 0.22655848 0.26050103 0.50220823 0.43307513 0.076333314 0.0018912405 0.2899374 0.6217079 0.62032914 -0.017505813 0.36040443 0.65142965 0.6268206 0.5864409 0.056899175 0.3606829 0.6888066 0.6706828 0.6425614 0.173813 0.11751865 0.73220724 0.7635168 0.25644645 0.25573006 0.2465626 0.33219525 0.34228542 0.29367158 0.4629134 0.31060797 0.52130747 0.31926146 0.35116476 0.4268516 0.57348704 0.37077242 0.5381064 0.4233287 0.43349713 0.38156512 0.410577 0.3149342 0.3105685 0.24811067 0.3080787 0.387906 0.421233 0.43302035 0.49471903 0.26482072 0.24744609 0.3237896 0.39438394 0.42670873 0.48179924 0.57337505 0.59066063 0.25455144 0.24712968 0.25217652 0.3268538 0.39654362 0.48939586 0.5886982 0.6078727 0.4858713 0.18937165 0.21018554 0.30009845 0.33230162 0.4504627 0.54589295 0.5806925 0.47554213 0.48940215 0.45981884 0.38411188 0.27760825 0.34164786 0.38235044 0.32245255 0.17754719 0.21910265 0.46008676 0.46497035 0.45099145 0.3651811 0.25035015 0.42528182 0.43064457 0.3516906 0.23792884 0.3101492 0.2138963 0.2431291 0.07254449 -0.042504057 -0.0963374 0.06061227 0.015293401 -0.06561841 -0.025659826 0.076110065 0.08501083 0.1625143 0.09501387 0.079041086 0.1848939 0.14295542 0.16025387 0.14733943 0.16501963 0.3355906 0.13570723 0.32733357 0.4829583 0.19822904 0.20691806 0.59474015 0.57415026 0.47516847 0.23353472 0.06626114 -0.02073156 0.17654395 0.18254828 0.6208693 0.63733065 0.46843332 0.15681008 0.69529015 0.6915058 0.69122714 0.11694142 0.09882714 0.7540543 0.7889637 0.80734885 0.75991815 0.75214934 0.24346161 0.83075386 0.83795965 0.8240738 0.2517407 0.4454553 0.8555335 0.858484 0.23528957 0.5508377 0.6168164 0.38392007 0.35215682 0.61151457 0.65175164 0.4622956 0.39457953 0.4186086 0.539031 0.6530236 0.6722933 0.5124445 0.5030915 0.47324133 0.43973067 0.5720932 0.63402975 0.6575893 0.5554713 0.51264507 0.49127895 0.492266 0.4721403 0.4898634 0.4880034 0.45217407 0.33129486 0.46479627 0.45695153 0.4562542 0.39178807 0.35775375 0.3502816 0.36537522 0.40839845 0.44068062 0.3737679 0.38418224 0.34039682 0.50007707 0.27026355 0.5813806 0.5244476 0.46034068 0.26614714 0.26570296 0.60884404 0.59607583 0.46930563 0.49176466 0.45032632 0.39115584 0.2462841 0.50437266 0.5748226 0.58275825 0.46636063 0.48911 0.1240544 0.13065763 0.15293248 0.46988088 0.4931593 0.4140365 0.44413942 0.047005683 0.09737724 0.13605386 0.36306447 0.39139545 -0.09978238 -0.26742536 -0.07116601 0.007990718 0.09760748 0.061126888 0.28477877 -0.23257005 0.11899269 0.25711983 0.1764995 0.16560028 0.32331163 0.25322545 0.36203694 0.2316589 0.22772731 0.37365636 0.12381114 0.17591074 0.19360702 0.1549692 0.45120588 0.605802 0.07093462 0.68223584 0.1982182 0.022482216 0.76171947 0.5736576 0.10964795 0.018491209 0.054150805 0.80306244 0.83822095 0.8291672 0.21870296 0.8570148 0.86355907 0.8471091 0.59407026 0.5664315 0.654952 0.6236927 0.39987022 0.6583973 0.63153744 0.43398643 0.48225683 0.512563 0.56517434 0.64620924 0.49600542 0.53826797 0.5578071 0.42687532 0.36210695 0.4304906 0.5801994 0.5302987 0.45976204 0.4411366 0.47940207 0.48549062 0.45351735 0.41920358 0.45535672 0.4881707 0.46650177 0.23759446 0.24189585 0.24520534 0.2813967 0.3223607 0.41969466 0.4468053 0.35742337 0.34344178 0.44561195 0.3857993 0.45693722 0.37435704 0.35209107 0.17921208 0.4708864 0.40322533 0.42135924 0.20090072 -0.11472413 0.0952405 0.52275676 0.40427983 -0.022259548 0.26390624 0.45707452 0.37546206 -0.005808875 0.3297127 0.007523954 0.2581698 0.24507633 0.32574058 0.2561589 0.35079563 0.38994566 0.21333343 0.38921386 0.40568256 0.17699915 0.39358288 0.40278238 0.079996355 0.063325346 0.32875943 0.01744198 0.15926127 0.37730214 0.07492916 0.5178022 0.03606426 0.56797874 -0.011016682 0.74747133 0.3568337 0.07991715 0.79487723 0.8234322 0.7109629 0.84791315 0.8605814 0.85997343 0.33567727 0.51116586 0.40726036 0.35787624 0.5795086 0.34881964 0.6152239 0.5998496 0.38902152 0.39707944 0.5547887 0.6093628 0.43978375 0.30929923 0.33042517 0.49017084 0.562973 0.36944905 0.33603883 0.37496668 0.41307256 0.41519904 0.46738103 0.39978182 0.27377176 0.2745958 0.268144 0.40696636 0.41624433 0.25846684 0.2652873 0.2923782 0.3631171 0.39632764 0.31408268 0.64509535 0.29930198 0.31115305 0.6158352 0.5912369 0.30326954 0.2977263 0.54074174 0.20533693 0.08102833 0.075289644 -0.30905467 0.3158914 0.3282127 0.294365 0.07542562 0.27267662 0.30057788 -0.12247653 -0.048047036 0.21979067 0.2543616 0.15546176 0.38617456 0.15326278 0.3934306 0.05946547 0.36730626 -0.06838918 0.334647 -0.07848366 0.22775972 0.17085275 0.32584006 0.02617089 0.4148128 -0.046292193 0.55857706 0.10731295 0.7583319 0.7856864 0.74514616 -0.0028891782 0.82398796 0.8353094 0.2300106 0.31671935 0.24734229 0.28912076 0.5152525 0.26287937 0.4902661 0.4988558 0.49908346 0.27308905 0.31630653 0.31098711 0.6933926 0.34478474 0.30091342 0.3185067 0.21892145 0.21755539 0.3602926 0.39834628 0.4251299 0.34535018 0.31667405 0.3563682 0.34847456 0.70320106 0.68802047 0.5393691 0.26000428 0.23005477 0.68058187 0.683387 0.57083833 0.33821303 0.14467853 0.61622447 0.6154554 0.48452908 -0.2860064 -0.23236187 0.23950756 0.29216245 0.53386676 0.40711302 -0.29097968 -0.3303909 0.3344701 0.34403017 0.34282935 0.36070856 0.34816235 0.07131953 0.15294354 0.21269648 0.26484635 0.20966415 0.08097146 0.17875731 0.1761023 0.29482308 0.34946305 0.05560945 0.34890306 0.3056414 -0.059161425 0.25287408 0.25949633 0.30619946 0.057314157 0.25493792 0.26060888 -0.064875916 0.2671485 -0.18946399 -0.14439692 0.32565892 0.41302633 0.3953567 0.27316132 0.4789768 0.26885962 0.72809225 0.37800986 0.39612192 0.47549972 0.12143469 0.37959126 0.41904873 0.6560092 0.5539087 0.2358962 0.7426348 0.66658294 0.5380969 0.26603022 0.82972 0.7810747 0.69303274 0.8520074 0.8380054 0.82416624 0.7865576 0.7085061 0.8425238 0.8323622 0.80941415 0.7696732 0.81415606 0.3956141 0.38502306 0.34813318 0.22751442 0.15819804 0.3843906 0.36809504 0.23538333 0.1608292 0.1798106 0.16707464 0.41039532 0.48642588 0.51684076 0.48956722 0.45911813 0.6196377 0.6247236 0.2537527 0.2689996 0.414387 0.673704 0.6732598 0.6562349 0.54957926 0.46214432 0.05583819 0.18728095 0.6734672 0.1385777 -0.33368352 0.118263766 0.17437898 0.6047462 0.25003994 0.31504545 0.4628017 0.35202447 0.23245704 0.3781099 0.34940556 0.22789648 0.09384046 0.10948257 0.14268452 0.13302858 -0.02417434 0.067625485 0.21178067 0.027883567 0.16628005 0.26277912 0.21379167 0.4426691 0.40813974 0.25717774 0.5189066 0.46166444 0.23903398 0.25479513 0.57146096 0.57176113 0.24454907 0.52063274 0.43452904 -0.13670827 -0.0076572895 -0.22194052 0.28381407 0.008099392 0.2175459 -0.12663566 0.3801241 0.43573916 -0.2674396 -0.25267544 0.5159317 0.5692227 0.52888644 0.55856776 0.28458613 0.50378907 0.6025372 0.45599112 0.09815755 0.121136 0.66385084 0.6523466 0.7661418 0.85201764 0.5381547 0.8551401 0.8449698 0.8370029 0.8445654 0.76953757 0.7234409 0.84089506 0.8234483 0.79901826 0.38790762 0.35069197 0.28950012 0.2283584 0.41647658 0.3905499 0.3281725 0.27206126 0.18609872 0.13524449 0.1045943 0.3716536 0.40493345 0.56730396 0.56552875 0.52563477 0.4942464 0.5566263 0.52504885 0.45606005 0.6170533 0.5882369 0.3369284 0.5789238 0.1312815 0.5005858 0.17863879 0.3495204 0.26853547 -0.023791721 0.1704166 0.020413648 0.3004471 0.419138 0.050535537 -0.15241963 0.16947974 0.36715677 0.45685095 0.022990318 -0.2517517 -0.16081789 0.30498827 0.23178983 0.17489369 0.40965012 0.51196295 0.19938022 0.5796081 0.23315485 0.40810055 0.35866132 0.1430501 0.24035196 0.25870776 -0.27411938 -0.098154545 0.2185104 0.38648486 -0.15646881 0.59665394 0.6070013 0.63201666 0.16325697 0.5896354 0.60327965 0.2046328 0.30921912 0.48351195 0.5464903 0.55742097 0.48910087 0.6362125 0.1603824 0.75050306 0.29896316 0.82867616 0.5261308 0.8274597 0.6127454 0.8172667 0.8048668 0.80456406 0.7273772 0.697515 0.6458944 0.81864554 0.8049784 0.77044487 0.40432066 0.37614158 0.3170521 0.24828562 0.18176231 0.32577556 0.110552296 0.13841951 0.086585544 0.11941592 0.417879 0.46560052 0.5856662 0.5477195 0.51737785 0.2066701 0.24181199 0.5414854 0.48680484 0.46669146 0.45566332 0.36885208 0.2568413 0.3193625 0.10450126 0.030864645 0.117229655 0.23356056 0.08720437 0.4217867 0.5131843 0.07123679 0.50944835 0.5538178 0.6002481 -0.09600603 0.25370386 0.34720942 0.49918622 0.5949947 0.61278844 -0.05324407 0.21375185 0.3518296 -0.08179645 -0.013509009 0.003408391 0.07157728 0.24452454 0.071286365 0.08763375 0.30349904 -0.04970107 0.061196085 0.43124157 0.11203983 0.54687065 0.21676719 0.16413513 0.42702273 -0.2960233 0.20871359 0.27430552 0.2869125 0.31094623 0.26688206 -0.08990081 0.063817956 -0.12920576 0.39745277 0.52970093 0.5113837 0.57139087 0.6215987 0.21788624 0.5003098 0.5869947 0.23731177 0.025573507 0.39831048 0.48315978 0.43245727 0.31269985 0.5566923 0.5128753 0.282862 0.29195958 0.6418611 0.5490696 0.42531818 0.6757492 0.6213236 0.533013 0.7520318 0.697439 0.6634151 0.62209094 0.60759586 0.753649 0.7254058 0.69769716 0.6918998 0.6558341 0.7602174 0.7313974 0.20345968 0.2805538 0.2794466 0.21268454 0.13782282 0.1719431 0.29467863 0.100247204 0.13694364 0.2342108 0.22028002 0.1006009 0.054621667 0.21248432 0.37290385 -0.48859698 0.1607359 0.4950697 0.2912452 0.51486844 0.40356195 0.4549324 0.50877714 0.52162147 0.11504026 0.4371081 0.4797603 0.33453548 0.035661306 0.31690693 0.22539526 -0.05830818 0.055580076 0.08554048 0.17038617 0.04091643 0.24631156 0.16561447 0.4778278 0.5266781 0.17698891 0.6110106 0.13520996 0.09895482 0.63480186 0.65656376 0.34727687 0.55203956 0.63200545 0.6587622 -0.1052015 0.04284497 0.080353245 0.47746143 0.13833882 0.12805158 0.24185807 0.09082181 0.1469207 0.31005034 0.06681404 0.8221196 0.75550294 0.16298033 0.2384878 0.15260796 0.8371905 0.79730916 -0.0041376874 -0.08769749 0.22172809 0.26987877 0.26354516 0.2903905 0.29477635 0.2933345 -0.05603885 0.010425468 -0.19570401 0.26845023 0.059544846 0.13757625 -0.013886803 0.22214887 0.17527883 0.2764179 -0.07890251 0.4813981 0.5180924 0.54655635 0.4554559 0.5153629 0.55568594 0.23961784 0.1735759 0.31635454 0.41232455 0.48893124 0.3335098 0.2422569 0.37038308 0.43068594 0.29146805 0.4561851 0.48301214 0.42388576 0.32039988 0.5737401 0.49713564 0.4349164 0.4439387 0.564096 0.5414554 0.5082519 0.52020854 0.62051415 0.58117366 0.5818342 0.58862 0.6291467 0.6357925 0.92276496 0.89176226 0.19489959 0.19125044 0.19133618 0.13751635 0.913526 0.8744815 0.8254397 0.18297237 0.17843814 0.075165346 0.17622495 0.28252357 0.33948356 0.88824296 0.8547199 0.7830345 0.38627225 0.35181522 0.23719713 0.20189154 0.82691574 0.43814716 0.15998712 0.41752073 -0.21560332 0.26115167 -0.043034256 0.3985205 0.4744709 0.5296737 0.5321547 0.02533219 -0.05191277 0.31151718 0.5074719 -0.108535826 0.34243786 0.20475806 -0.23716688 0.19621705 0.13326153 0.0928771 0.21150522 0.49393058 0.19623373 0.6371757 0.1583983 0.64053214 0.06518087 0.60725766 0.63891876 -0.11478865 0.115777016 0.26244852 0.5033008 0.6254733 0.5606333 0.43316287 -0.14957824 0.18592022 0.19294778 0.7489784 0.68685985 0.59131515 0.16116104 -0.10838328 0.19138496 0.26238674 0.80175346 0.7951334 0.7066231 0.37540066 0.1977894 0.24150671 0.8408469 0.8532054 0.69676435 0.47976947 0.17439242 0.85334104 0.85855764 0.8061976 0.6974076 -0.15066417 -0.1704281 0.24318177 0.2078069 0.8585634 0.82030904 -0.116878614 -0.03613741 0.24510828 0.26623893 0.10116109 -0.11445139 0.1723444 0.187989 -0.026834846 0.24926108 0.22434677 0.21248093 -0.07147507 0.23660076 0.19823614 0.25579572 0.45494634 0.27548438 0.38947558 0.25923735 0.4316384 0.4621866 0.47517866 0.49186128 0.487352 0.4306332 0.47631717 0.47433797 0.46013325 0.49639475 0.48462757 0.901097 0.8804946 0.2008839 0.9199189 0.9241504 0.8956084 0.81442225 0.19449377 0.19523835 0.20177107 0.20053136 0.14401264 0.06857891 0.3155731 0.35264274 0.92477477 0.9196709 0.73450965 0.6692995 0.1941019 0.19055903 0.11843492 0.3206045 0.37202558 0.38362074 0.8844816 0.87643206 0.7540895 0.604833 0.3585662 0.2972497 0.22363943 0.3321023 0.81839997 0.8059916 0.68135464 0.5591183 0.76469976 0.35564977 0.109696135 0.15724048 0.260266 0.27932316 0.2486177 0.35057572 0.41293305 0.48541206 0.14238371 0.10670711 0.18379012 0.05565957 0.052772816 0.18385333 0.1720118 0.034109347 0.16823877 0.15543339 0.17535216 0.18506758 0.18070991 0.57876503 0.15505597 0.5460563 0.031391263 0.5391211 0.5607153 0.2156065 0.19713748 0.44987512 0.49067563 0.6968932 0.64208746 0.52830315 0.44752786 0.08498181 -0.046904527 0.28255185 0.30860355 0.73903126 0.701952 0.366046 -0.08587385 0.31484938 0.33689994 0.7130072 0.74879384 0.1218418 0.17897221 0.2722105 0.3448311 0.7084547 0.76770866 0.28358078 0.2082878 0.079985246 0.16630562 0.8185061 0.6600734 0.51359916 0.30623522 -0.27374947 0.17870711 0.17289284 0.10519047 0.81849253 0.82967925 0.81199837 0.72448295 0.04456925 -0.0088794585 -0.25007853 0.19789672 -0.03248139 -0.1788967 0.2122859 0.24338838 0.2429302 0.16783056 -0.14334428 -0.04306197 0.89193547 0.8717314 0.82786405 0.75269765 0.20426397 0.19363791 0.20177194 0.19101806 0.8979087 0.7505691 0.6138633 0.1822524 0.20031983 0.20250785 0.1011446 0.08192259 0.31398928 0.36025703 0.90537155 0.5093454 0.2028617 0.18090206 0.37047243 0.38024747 0.858734 0.5348848 0.46700263 0.20412737 0.23882203 0.81840575 0.7226083 0.52422196 0.45177338 0.10474318 0.19849582 0.22158949 0.720546 0.5653379 0.48048836 0.40611923 0.25105533 0.25768593 0.27018115 0.07108591 0.24676475 0.2267271 0.13826254 0.18289763 0.30259728 0.15302828 0.25217858 0.27415925 -0.060930535 0.22797786 0.26540798 -0.18949345 0.21788394 0.23801792 -0.10850294 0.20474422 -0.037068978 0.20282534 0.57717824 0.5194087 0.100366354 0.13595155 0.64779645 0.54657346 0.11994809 0.32181814 0.3365784 0.3628596 -0.42484668 0.40545657 0.0997689 -0.09685367 0.25146842 0.58380747 0.4502209 0.11526627 0.34156284 0.3457699 0.68215466 0.6986175 0.38096207 0.36167514 0.6662376 0.34270442 0.37581235 0.65472686 0.6741546 0.07509076 0.14776446 0.23987655 0.71787405 -0.45601973 -0.2809657 -0.148687 -0.19462653 0.07584978 0.054092843 0.055173423 0.7565433 0.725121 0.6890118 0.590346 0.21126865 0.08260523 0.08435821 -0.0659939 -0.071569465 0.11420253 0.023900863 0.09070513 0.19640782 0.058836326 0.18827541 0.16536495 0.22042637 0.25733292 0.30156797 0.29520297 0.39767152 0.3975896 0.7708403 0.7459543 0.8571348 0.82907754 0.7831874 0.7177205 0.6515608 0.19479889 0.20411819 0.19936392 0.21907151 0.21572766 0.83482504 0.5839741 0.23191322 0.18725926 0.19537412 0.1931448 0.13815305 0.22095765 0.31750387 0.8092382 0.47126144 0.29471597 0.247854 0.28181705 0.29873168 0.30122033 0.58908796 0.44937247 -0.038637415 0.12967983 0.24314277 0.25594288 0.24954084 0.5373791 0.41692954 0.10151067 0.029353462 0.15434973 0.19095066 0.21279687 0.2282205 0.22268087 0.22095671 0.47897345 0.30318663 0.15126999 0.17025615 0.15825737 0.191996 -0.08411625 0.24471319 0.4527222 0.39837822 0.22390904 0.13701817 0.13926181 -0.040200993 -0.103629135 0.30181575 0.33887106 -0.14424556 -0.14758858 0.2697605 0.28821778 -0.014712833 -0.028869774 -0.2960495 0.24459767 0.22818592 0.511816 0.38792217 0.3235397 0.6655804 0.66400546 0.57264996 0.41389892 0.31580645 0.25941312 -0.15066819 0.21948035 0.6737217 0.6685084 0.06890351 0.08131633 0.62823796 0.66446793 0.56316936 -0.06351636 -0.020051334 0.08791682 0.119925976 0.12814668 0.13540503 -0.008107908 0.28663743 0.648698 0.36081532 0.6290773 0.63215375 0.41481027 0.38267976 0.6005361 0.54842466 0.4495738 0.43884835 0.5826919 0.54738486 0.07558561 0.35912162 0.5811554 0.5936826 -0.09440111 0.07011632 0.57364905 0.56417304 0.45927787 0.095458776 -0.004371943 -0.04202549 0.08048777 0.20407638 0.18519771 0.08794649 0.08922553 0.076182656 0.013006337 0.18540952 0.18242478 0.12906355 0.19012439 0.23788323 0.3439523 0.29297143 0.34619862 0.40936774 0.39829314 0.7909883 0.777535 0.7589594 0.2604403 0.29181957 0.8009812 0.8085299 0.73213863 0.6872507 0.23559439 0.26437545 0.27899313 0.27002317 0.7884189 0.62508535 0.5319131 0.30831686 0.30125257 0.19802082 0.15658347 0.1974878 0.39002925 0.416474 0.4700966 0.6942441 0.47412813 0.46312553 0.33648917 0.33862698 0.3750867 0.3247581 0.3374458 0.33530676 0.3123506 0.5656538 0.47585782 0.4568628 0.2610014 0.095799334 0.20456277 0.2554315 0.2786525 0.2624951 0.2829145 0.47795144 0.43834305 0.061669778 0.061593324 0.21902238 0.25499305 0.22744358 0.34216177 0.20096672 0.0873876 -0.3752311 0.23295408 0.26884568 0.33914524 -0.02624142 -0.14435712 0.075905554 0.35930008 0.32885376 -0.06305363 -0.21510331 -0.3590395 0.12811086 -0.010477006 0.43437672 0.46660098 0.06753555 0.2610923 0.3743113 0.2038731 0.22294569 0.6721701 0.6421236 0.22305605 0.6635655 0.6536796 0.2589848 0.6441711 0.6502557 0.6072935 -0.24585706 -0.18524636 -0.17957576 0.49689776 0.34423122 -0.020645784 0.26985022 0.15030898 0.35403818 0.44333243 0.41553003 0.4516511 0.46329272 0.4824624 0.35092622 0.42193428 0.49124703 0.49551594 0.11435922 0.07524257 0.43649948 0.33875433 0.037063204 0.20276737 0.17157185 0.057292394 0.03304842 0.031343237 0.14004397 0.19863221 0.31361806 0.1595708 0.1356531 0.4643029 0.5053565 0.43315884 0.22835615 0.19668049 0.6489248 0.62092805 0.52990067 0.18609273 0.19799264 0.7242964 0.72016 0.60971904 0.28704426 0.37161708 0.31558818 0.29403165 0.20436218 0.7954868 0.788023 0.77183354 0.27773947 0.3120638 0.35067284 0.34250388 0.803349 0.79679394 0.76827097 0.718184 0.33252698 0.3247273 0.4977693 0.55721927 0.6474525 0.7690549 0.60418624 0.5648953 0.35258985 0.31993526 0.227606 0.2576468 0.4529942 0.50340533 0.51505196 0.5113666 0.3736846 0.40858477 0.5121541 0.6083243 0.64728427 0.46678358 0.3301453 -0.00688817 0.38249558 0.4598751 0.45507282 0.3169464 0.48732704 0.4711904 0.24531999 0.27459028 0.1594705 0.15550485 0.23298986 0.17758076 0.3427763 -0.039629716 0.07625139 0.02232527 -0.16681564 0.18090165 -0.019845514 -0.19862685 0.26535374 0.2819701 0.3300424 0.38050526 0.48288476 0.31614277 0.53770345 0.5606531 0.26618898 0.43014038 0.55455875 0.6375726 0.57867396 0.7070197 0.26752296 0.7113321 0.30799818 0.29410022 0.6777617 0.24469233 0.3017313 0.53888726 -0.27618307 0.4273706 -0.29521218 0.30676168 -0.068495736 0.23801902 0.22586717 0.2668689 0.37853503 0.40693825 0.32755554 0.4295264 0.36628067 0.44910216 -0.053220447 -0.056065004 0.45604327 0.45117068 0.430538 0.31534982 0.13767001 -0.047782592 0.21670401 -0.038707256 0.19266559 0.102485314 0.063958794 0.086033694 0.56159604 0.5244966 0.17026672 0.13607831 0.66600287 0.68358314 0.14382595 0.1505096 0.7315924 0.77172077 0.74971974 0.69742167 0.40016526 0.26915896 0.15205704 0.1213807 0.81082773 0.8032285 0.7248048 0.36738288 0.44543862 0.4461159 0.41469163 0.3672818 0.3352831 0.5672701 0.6519917 0.6499709 0.79913425 0.7837846 0.3053171 0.4509279 0.5246437 0.6275978 0.5944645 0.