# vtk DataFile Version 2.0
Really cool data
ASCII
DATASET POLYDATA
POINTS 3943 float
2.3485103 12.037621 48.63906
2.3793492 12.1882925 49.11481
2.4024997 13.060715 46.85538
2.3269944 12.606136 47.58655
2.139278 12.648788 48.53532
2.307441 12.607436 49.31723
2.289113 13.515621 46.886246
2.1297688 13.524061 47.424152
2.129106 13.330824 48.49772
2.2612095 13.246599 49.23598
2.2889633 14.123158 46.91735
2.2337654 14.21009 47.23751
2.2284055 13.969692 48.284187
2.4135368 14.740033 47.394333
3.08128 11.281352 48.57848
2.811814 11.750782 47.689888
2.762487 11.600906 48.57962
2.6754153 11.859175 49.362644
3.2147138 12.120607 50.326824
3.1209826 13.049488 46.053
2.8369787 12.466794 46.77358
2.4984875 12.469439 47.222202
2.474482 12.562633 49.65843
3.018431 12.651493 50.34672
2.8937538 13.596626 46.133923
2.5382686 13.852138 46.460045
3.3292892 13.4797325 50.83898
2.852616 14.143918 46.220768
2.5363965 14.40163 46.66812
2.504679 14.077865 48.83926
3.2682045 14.860091 52.469578
3.4416869 15.007268 53.14255
2.9926066 14.986423 46.742443
2.8715556 15.2957 47.537273
2.9351351 15.030486 48.38284
3.4651005 15.282854 50.877914
3.2452464 15.41011 51.89977
3.2731774 15.506959 52.521328
3.4481528 15.372243 53.258797
3.3427474 15.847777 47.525776
3.368343 15.9332 51.69197
3.43205 16.207857 52.04874
4.3168583 9.030834 56.780006
4.2650113 9.016754 57.420826
4.2953706 9.088323 57.935825
4.4553223 9.435909 50.189545
4.2715755 9.402845 56.703876
4.013668 9.595681 57.607563
4.1686683 9.646052 58.168015
3.7206423 11.178404 47.611923
4.0275435 10.732856 48.381207
3.6903439 11.002786 49.411602
4.116479 10.535198 50.224586
4.258447 10.259697 56.695995
4.0772824 10.305992 57.52989
4.1531396 10.305707 58.112545
3.9918563 12.210622 46.182693
3.6255069 12.049974 46.49523
4.096364 11.240886 50.716248
4.0181117 11.864234 50.841225
4.387048 11.069912 57.501625
4.3396235 10.775106 58.25713
3.8012898 12.636332 45.95383
3.5449958 12.217408 50.618225
3.632292 13.359705 45.789936
3.4768248 13.846575 50.941853
3.449565 14.078835 52.163147
4.0370836 14.041385 53.314377
3.9316895 14.208207 53.91853
3.7648013 14.330741 45.862106
3.711154 14.604786 53.689583
3.89025 14.667378 54.37301
4.306524 15.032358 55.294178
3.8202317 15.204287 46.217213
3.4891715 15.370381 46.539425
3.4115078 15.346621 48.73937
3.5007684 15.883703 53.69205
3.7090807 15.450242 54.332996
3.998047 15.352552 55.02513
3.7470832 15.809802 46.732353
3.6983237 16.206839 47.55317
3.7502372 16.17117 48.4159
4.07566 16.29658 49.070564
3.5903668 16.431767 52.623478
3.6037724 16.090994 53.04439
3.8101928 16.123837 54.453102
4.1246653 15.979409 55.105137
4.255218 16.656797 49.020603
4.167746 16.972462 50.723305
3.7733696 16.839516 52.45574
4.24827 17.309023 53.477573
4.2007446 16.890705 54.078648
4.4625897 18.590036 52.94997
5.4136014 6.316594 49.73762
5.273563 6.8978624 50.40846
5.2778773 7.450528 49.25258
4.7961226 7.998448 49.928036
4.9352403 7.7258115 50.519608
5.18142 8.005627 55.716263
4.9217057 8.1415205 56.395725
4.9819403 8.211071 57.190388
4.8064737 8.475722 49.68249
4.7069325 8.34686 50.397923
5.0077386 8.26476 51.146496
4.8418694 8.537213 55.7878
4.6548443 8.508276 56.586597
4.668182 8.610305 57.478413
4.578671 9.096365 58.228157
4.713548 9.7166 49.512924
4.6066394 9.092981 50.09079
4.969394 9.450767 51.198677
4.496728 9.497728 58.47542
4.709553 9.736523 58.67776
4.622314 10.988152 47.7465
5.3510017 10.051631 55.140087
4.9282427 10.340021 55.871395
4.526923 10.502778 58.49329
4.774614 10.209565 58.76146
4.5379686 12.29731 46.134613
4.2329116 11.84845 46.57744
4.8297715 11.519357 51.58362
4.8685703 12.13712 51.771152
5.2316623 11.689699 56.083916
4.7850223 11.437782 57.6827
4.8629317 11.188558 58.376694
4.392678 12.662222 45.874172
4.9227486 12.717794 52.435806
5.357957 12.211259 55.741043
5.360129 12.341028 57.067043
4.3280115 13.378395 45.668278
4.358353 13.6741705 53.10719
4.8695393 13.79605 55.236126
5.338499 14.110727 56.107292
4.452518 14.441325 45.843044
4.6539326 15.109467 55.642963
5.1319814 14.915 56.30579
4.671215 15.001645 45.917545
4.9229245 15.370448 56.275696
5.3142414 15.84917 57.290073
4.851416 15.808856 46.363605
4.5234914 16.17282 46.700752
4.916212 16.304401 56.353134
5.1978736 16.05942 56.988976
4.6092067 16.684082 47.49399
4.9547176 17.072443 48.476048
4.7631097 16.963787 49.65308
4.8101225 17.98091 53.328674
4.4120545 16.855577 54.520554
5.0590925 16.753197 55.369137
5.36718 17.56654 57.455868
5.19443 18.546144 51.2924
4.9460635 18.652813 51.52965
4.6479616 18.515072 52.22088
4.578187 18.451065 53.174946
4.9449973 18.992014 56.40518
5.2439947 18.488642 57.430805
5.0286274 19.402472 51.456333
4.580744 19.620682 53.193203
4.630043 19.777704 55.520256
4.6634364 19.59052 56.12379
5.041597 19.512983 57.34537
5.2296314 19.406286 57.86912
5.079476 20.404696 51.709053
4.7414994 20.39495 52.805183
4.8598623 20.475237 53.634346
4.606634 20.227142 55.275696
4.6467056 20.535885 56.528305
4.8642025 20.483576 57.250725
5.1760125 20.419596 58.025352
5.261957 21.08903 51.93746
4.989868 20.9439 52.541656
5.1720834 21.323633 53.362465
5.0553327 21.079287 54.58616
4.9206266 21.464117 55.52729
4.8294487 21.312962 56.404507
5.1331263 21.405884 57.517296
5.248929 21.102558 58.032654
5.3121605 22.283627 56.712677
5.3739552 22.230167 57.424107
6.380873 3.2580736 52.075413
6.172617 3.8731253 51.036972
6.1334977 3.8252697 51.55051
6.294189 3.6757224 52.405415
6.3147755 4.9527745 48.489555
5.948509 5.0926666 49.51659
6.112291 4.396906 50.482033
5.820588 4.5458245 51.263374
6.0573277 4.6060205 52.311466
6.137468 5.9690514 48.10529
6.167632 5.4454727 48.329365
5.5356984 5.7680225 49.888943
5.75297 5.480267 50.872417
5.8500013 5.2741065 51.736416
6.2054925 5.462288 52.21185
6.199451 6.309719 47.961575
5.5230703 6.187522 50.550465
5.6909075 6.593218 51.339592
6.2473927 6.260778 51.804146
5.742411 7.9721627 48.780727
5.3710446 7.5719743 51.402626
5.9518757 7.140746 51.878574
5.638262 8.151006 55.122288
5.5423346 7.745881 55.63187
5.6701 7.642476 56.452763
5.929934 7.908916 57.07172
5.8612504 8.284629 57.69202
5.7563524 8.63806 52.096596
5.3572407 8.451904 55.168907
5.427076 8.760851 58.200985
5.2146826 9.216216 58.683376
5.806999 10.117443 48.311237
5.685252 9.435344 52.423454
6.160276 9.352182 53.435062
5.43014 9.588924 58.767853
5.4765935 10.950387 47.79792
5.887892 10.157327 53.646873
5.823505 10.771187 54.47225
5.574757 10.588313 58.9038
5.594108 12.058313 46.885555
6.1823196 10.973384 53.643593
5.6260915 11.535998 58.53056
5.561938 11.081475 58.784462
5.1757436 12.70924 46.115894
5.1023436 12.388507 46.347336
5.7413917 12.3725395 52.784584
5.644293 12.413154 54.85524
5.5512524 12.219395 56.89682
5.6236143 12.247332 57.59577
5.8704424 12.25498 58.157562
5.6306267 13.503253 46.075405
5.688811 13.157427 56.51131
5.3163195 14.479291 45.895893
5.3431478 15.272872 46.04786
5.4488406 15.580403 57.473106
5.871265 15.217607 57.91986
5.6168156 15.778328 46.28651
5.21818 16.384426 46.861862
5.595523 16.46004 57.81259
5.45634 18.037228 57.74514
5.8050876 17.74 58.20674
5.978411 17.93523 49.55808
5.4424124 17.862299 50.528748
5.7013044 18.451946 58.24903
6.1105366 18.966904 58.749683
5.8987513 19.831018 50.843025
5.6450195 19.524815 58.423916
5.9795 19.623234 58.785397
5.6734767 20.457035 50.93669
5.5401177 20.542568 58.489586
6.0422416 20.4933 58.89251
5.8953533 21.513996 51.211025
5.414559 21.115252 51.62034
5.431949 21.55114 52.27086
5.4591575 21.551361 53.88509
5.5276885 21.270937 58.29167
6.242175 22.004961 51.87621
5.3754873 21.712856 52.7564
5.645318 21.861809 53.368053
5.47703 21.932434 55.106266
5.7423987 22.325706 55.523136
5.596371 22.679567 56.31698
5.722682 22.764837 57.701828
5.8057175 22.127504 58.080467
6.2681146 23.912409 45.54995
6.3498235 23.78109 46.40433
6.3299828 23.516476 47.365685
6.3298445 23.783651 48.407772
5.974898 22.921501 55.83313
5.999125 23.2772 56.449753
5.832721 23.024834 57.392754
5.9588113 22.91858 57.866325
6.251528 24.545132 44.82831
6.062179 24.50742 45.6581
6.1109314 24.697594 46.316494
6.24335 24.248941 46.93707
6.272379 24.374208 48.83927
6.3176675 24.240383 49.359135
6.2730517 25.190395 44.877674
6.1181927 25.240587 45.51551
6.181958 25.092857 46.391346
6.4817863 25.406137 47.606445
6.2370076 25.625849 48.71569
6.2771044 25.579538 49.37582
6.2914133 26.404821 48.738594
6.2902355 26.445885 49.582375
6.44993 26.742617 50.05243
6.406896 27.32095 49.00666
6.3586974 27.286703 49.41566
6.424893 27.298496 49.933006
6.7348104 3.335104 50.813427
6.914564 2.819592 51.723164
6.891469 2.75389 52.749336
7.0512495 2.7227964 53.274456
7.0853853 4.3445067 48.08427
6.856063 4.3016067 48.583942
6.793177 4.1739774 49.759705
6.5449257 3.690452 50.643578
6.3813553 3.4194603 51.560246
6.853541 3.4641697 53.59158
7.1251802 3.6067455 53.91867
6.8471065 4.829186 47.789932
6.611525 4.5918684 48.556744
6.46957 4.3989997 49.527355
6.534821 4.0582566 52.872837
7.2408233 4.554743 54.431232
6.888088 5.7529387 47.257805
6.7320814 5.4215536 47.49784
6.6341915 5.1495624 53.046
7.354255 5.607251 54.59407
6.9012833 6.305862 47.18385
6.5890384 6.604225 47.45224
6.962163 7.418634 47.72282
6.771755 8.26224 52.74374
7.18068 6.994741 52.846905
6.7235875 8.374074 54.148247
6.413188 8.100992 57.304813
6.134342 8.849659 58.220547
6.0481386 9.186919 58.60943
6.6674123 9.275406 58.439896
6.007041 9.534309 58.731594
6.369044 10.593251 58.824818
6.2751 11.970734 47.252285
6.128479 11.712901 58.504642
6.537644 11.198819 58.69038
6.276103 13.080824 46.830814
6.438821 11.944322 58.424347
5.825189 13.654966 46.115646
6.9334283 13.462272 58.047066
5.9671926 14.330983 46.124924
6.716579 15.596833 58.688835
6.38657 15.841322 46.6644
7.1454206 16.930782 58.847973
6.6734543 17.137627 58.49809
6.7401905 17.60703 58.827904
7.1371465 18.719864 59.40199
6.9485903 19.30733 50.01989
6.699125 19.58466 59.26309
7.3822575 20.718613 47.672966
6.8431206 20.305708 50.27667
6.6966224 20.36855 59.207752
7.350215 21.528229 47.007153
6.4218497 21.311405 50.69185
7.3212857 23.178308 43.370983
6.8564935 22.56998 46.504726
[...]
POINT_DATA 3943
SCALARS features_00 float 1
LOOKUP_TABLE default
0.54912496 0.50466025 0.6859287 0.6472901 0.5866129 0.49215156 0.6729039 0.65011805 0.60309696 0.500968 0.6568386 0.6396527 0.6097493 0.61527944 0.51938426 0.62699825 0.528496 0.4466182 0.2848838 0.72928965 0.71070063 0.67610794 0.432829 0.28265882 0.71247935 0.683781 0.18581244 0.68880403 0.6603832 0.54349065 0.28231424 0.32282984 0.64674604 0.5803061 0.51129127 0.2725827 0.27554464 0.2890616 0.32450286 0.5434572 0.2603823 0.24691617 0.7068217 0.784047 0.82518125 0.21202794 0.71377885 0.81992173 0.8495968 0.59686905 0.50958496 0.346043 0.16488662 0.7234582 0.80470145 0.8260472 0.6214516 0.6531838 0.15787545 0.15917347 0.66289383 0.76881075 0.67977154 0.21817243 0.7285139 0.18772064 0.21797557 0.26818705 0.3039693 0.7153385 0.3349126 0.3279161 0.254509 0.66127634 0.648232 0.40295577 0.32057747 0.3488259 0.31195283 0.62147665 0.5184469 0.39780763 0.26443428 0.23928925 0.27965692 0.3334476 0.31559634 0.24015293 0.060487777 0.19090044 0.15892029 0.24753484 0.220516 0.32685497 0.27089673 0.33933547 0.29848576 0.27257267 0.5513571 0.64942 0.7293994 0.28036416 0.26449198 0.21048611 0.5623512 0.6742758 0.7674939 0.8273212 0.21513718 0.24785984 0.15584789 0.84659517 0.8351614 0.4639458 0.23280707 0.4179892 0.800531 0.81213343 0.55265605 0.54644287 -0.005491061 0.005362302 0.30426565 0.5933399 0.68147767 0.6039535 -0.004929742 0.13573001 0.39119214 0.66992825 0.17979962 0.09746868 0.014024508 0.67835414 0.19623455 0.103602715 0.6335125 0.14276129 0.109221525 0.5981706 0.60111725 0.15186918 0.11465725 0.5178481 0.24007258 0.07656209 0.13500267 0.28116095 0.25440288 0.16938388 0.18021032 0.24616703 0.27015212 0.17903708 0.29266703 0.23573028 0.31266475 0.27166072 0.3495195 0.3734023 0.3247857 0.30364367 0.35461223 0.3236808 0.2481434 0.33803892 0.42540467 0.40019268 0.36863732 0.33940747 0.3266768 0.25115117 0.22825745 0.31728435 0.43768716 0.4280536 0.40162775 0.44129986 0.4444835 0.5473462 0.45619854 0.48591647 0.52578604 0.56697536 0.4195895 0.40964124 0.43242094 0.42821646 0.6285105 0.59991 0.3475007 0.33486378 0.33990622 0.27773076 0.64322466 0.27305967 0.20192046 0.1733456 0.37586582 0.18096212 0.10528153 0.399302 0.4808967 0.6254488 0.69333863 0.68668264 0.05984514 0.43826404 0.7393881 0.7835219 0.22857064 -0.017635193 -0.045535833 0.77188486 0.34346554 -0.09205055 -0.040023126 0.73641944 0.38364205 -0.17593217 0.6121486 0.6774795 0.4924142 0.4746924 -0.17139341 -0.07238087 0.37390548 0.4647166 0.4958589 0.49649274 0.03042151 0.6050441 0.58135617 0.11491064 0.1503212 0.5545331 0.56863487 0.15544514 0.21382503 0.21262212 -0.089686915 -0.04417403 0.23659042 0.23864132 0.2599637 0.29105002 0.2759223 0.32055718 0.35421717 0.31763136 0.31830633 0.3419615 0.29957432 0.19492982 0.3903083 0.23427205 0.26404572 0.19934799 0.22302857 0.27305886 0.3996442 0.43865657 0.40773314 0.4125355 0.34085438 0.2496612 0.20788324 0.30780593 0.38133654 0.4438455 0.4220608 0.47222596 0.43018946 0.37722564 0.30853748 0.23063001 0.22390589 0.4626445 0.43110353 0.36276597 0.2532091 0.30624002 0.34683514 0.38812947 0.4295444 0.45526323 0.47660565 0.48693585 0.49898022 0.46650615 0.58195883 0.5699584 0.52176225 0.62969816 0.5581289 0.43775034 0.44283488 0.5159552 0.4869378 0.45319504 0.66983694 0.5589803 0.43138334 0.48846698 0.3478901 0.7134575 0.7047374 0.29342553 0.17500198 0.6979691 0.6855482 0.5513303 -0.100193255 -0.05853293 -0.110172294 0.59524316 0.60841745 0.6487565 0.53396225 0.6791481 0.66873395 0.26853096 0.56044066 0.58547497 0.3198618 0.47882074 0.47863147 0.028428227 0.51530385 0.1664991 0.46899545 0.1323148 0.18529904 0.17485736 0.18327777 0.044529043 0.23595226 0.13171294 0.19871402 0.2693445 0.16560662 0.2720711 0.5042609 0.21779765 0.19968483 0.17726833 0.121406816 -0.1686857 0.13425642 0.12047872 0.11899309 0.5594597 0.5086193 0.38736862 0.37752464 0.16882008 0.11164595 0.03603758 0.08408422 0.04169205 0.25876346 0.5509039 0.4922971 0.4843886 0.19801712 0.3639066 0.39280468 0.37379053 0.51739764 0.49100572 0.46357948 0.47486085 0.4291668 0.35203165 0.32909766 0.31153396 0.52400196 0.553235 0.5546589 0.45784906 0.44553405 0.4029776 0.3886025 0.30912334 0.295267 0.43623173 0.37825453 0.58907527 0.621971 0.39165223 0.39355186 0.4782893 0.50868016 0.50993425 0.5087644 0.4215969 0.4602324 0.506171 0.51791835 0.52504784 0.6156281 0.50963414 0.47688872 0.54587495 0.47690058 0.42306322 0.6352082 0.57510835 0.49225828 0.42153192 0.6895845 0.6808182 0.31446692 0.67363226 0.6249276 -0.010929696 0.566878 -0.33045408 0.35194921 0.09099072 0.37302113 -0.0054288656 0.015919488 0.14787233 0.3710351 0.006530121 0.27879578 0.006573596 0.122545116 0.1642926 0.17161193 0.057085097 0.20024392 0.10605048 0.21379451 0.16918994 0.15027753 0.18075253 0.55534196 0.5398549 0.4743386 0.33174536 0.24162836 0.5742401 0.56868994 -0.12003437 0.010294527 0.029695628 0.29318082 0.56556624 0.54660547 0.025096156 -0.106394 0.20920864 0.41043338 0.51648986 0.53051496 0.48244414 0.0822366 0.5984625 0.57297385 0.4499246 0.43505192 0.3043437 0.5233584 0.6474069 0.65246 0.63174176 0.40645626 0.39981744 0.38948137 0.3906021 0.61045897 0.67219305 0.68672025 0.33753592 0.24911515 0.40882397 0.47733426 0.48935583 0.4836973 0.48615122 0.42823327 0.44283473 0.4605836 0.44251126 0.41812742 0.49239898 0.36949465 0.3836231 0.47956705 0.41856688 0.29181543 0.5991988 0.4924363 0.38720655 0.29813224 0.64770424 0.60119414 0.2768459 0.58462846 0.55361474 0.2221612 0.5629076 0.48602384 0.34597623 0.17571232 0.152684 0.20272619 0.27539963 0.20847301 -0.037655503 0.40602452 0.37406752 0.49425364 0.5383283 0.510889 0.54487 0.3244325 0.39029503 0.46649748 0.35952768 0.37621927 0.21686868 0.39795142 0.35797635 0.09490777 0.055737346 0.09405808 0.09825959 0.01816453 0.5196922 0.45354638 0.1687901 0.5241054 0.5624058 0.21750033 0.5012399 0.54321486 -0.35474917 -0.36789748 -0.22779536 0.41313225 0.4075128 0.50243837 0.039261308 -0.32153982 -0.26267764 0.5111627 0.4893156 0.43339774 0.39050967 0.16703506 0.30460197 0.60096157 0.51390505 0.38058695 0.3459767 0.29590392 0.5897491 0.65864587 0.6284549 0.3204096 0.32033956 0.31345806 0.24273926 0.31242093 0.568381 0.3348263 0.40355858 0.3818265 0.3040499 0.31397614 0.8214741 0.79685545 0.8042213 0.7301867 0.69925284 0.6995193 0.7765884 0.47141236 0.6579462 0.72795105 0.33096868 0.2575063 0.5858026 0.66587615 0.25208116 0.24407959 0.19735865 0.16196935 0.50551224 0.3813581 0.49893177 0.45391968 0.4725353 0.40528533 0.37822664 -0.121626355 0.2572767 -0.21641713 -0.056917403 -0.078711264 -0.014773503 -0.09204389 -0.19419459 0.31807828 0.42016742 0.15133473 -0.085204005 0.5077459 0.52825856 0.27919787 0.54419 0.33538052 0.40336928 0.34336668 0.35695082 0.25459144 0.25406545 0.40681058 -0.018268168 0.09684377 0.3849982 -0.05209929 -0.11015171 0.023796674 0.23172678 0.12760985 0.005770441 0.46473312 0.014723033 0.44478744 0.20443758 0.44506526 0.25514603 0.4259222 0.39652297 0.38832545 0.33449554 -0.28100842 0.53134084 0.46634185 0.3239427 0.31918627 0.31351423 0.44748974 0.47055012 0.3227687 0.33043605 0.26841313 0.17941035 0.27355206 0.40052614 0.57235515 0.53649276 0.38253552 0.35125297 0.23546112 0.3017472 0.2562142 0.21047461 0.19404085 0.39936116 0.47452992 0.48856658 0.46144918 0.2714853 0.35513982 0.4698559 0.49791187 0.4853708 0.48232818 0.8233198 0.84169126 0.871327 0.84432995 0.8594836 0.7615714 0.7353039 0.8124261 0.8484509 0.6573535 0.8089402 0.3183213 0.65290934 0.19510461 0.5619714 0.16841274 0.09576363 0.3884949 0.50870717 0.121515594 0.03699592 0.18649706 0.44589496 0.35026246 0.15393472 0.17810044 0.4017641 0.3660893 -0.0458882 0.35106352 -0.21493495 0.23976815 0.29211748 -0.09282372 0.023371698 0.21706447 0.15305063 0.08556537 0.3479531 0.21167724 0.36005062 0.4778921 0.86360526 0.87173665 0.28362295 0.2851928 0.79198766 0.833061 0.31349587 0.29881638 0.35095426 0.34250394 0.32229978 0.29041874 0.14268574 0.3652136 0.094453685 0.2875265 -0.07367794 -0.0029384955 0.014163681 -0.14392155 0.04073019 0.10514815 0.29750317 0.1430586 0.024258038 0.39010727 0.010650976 0.39195964 0.055882506 0.38905323 0.12940924 0.32628357 0.28330082 0.23638096 0.268103 0.27922708 0.4587639 0.21554732 -0.09274899 0.1376324 0.15040007 0.30919647 0.52369416 0.50000644 0.46306568 0.36572957 0.2579882 0.047922168 0.42286244 0.3175137 0.39116368 0.08454674 0.22217235 0.2802838 0.36363637 0.47265652 0.3554772 0.4367417 0.46023607 0.8179821 0.83647525 0.8115071 0.81201607 0.84242094 0.882242 0.87560827 0.8754461 0.6317194 0.74680984 0.85942197 0.50474817 0.8030977 0.3958223 0.6556224 0.6357706 0.16348752 0.57540774 0.61084545 0.059787937 0.52855134 -0.040421106 0.2926768 0.49975058 0.45444965 0.38832456 0.2215466 0.52401245 0.22572531 0.54873025 0.50530267 0.42880523 -0.05551944 0.4253858 0.055294916 0.106696114 0.0955592 0.07488125 0.25831822 0.22010285 0.15644833 0.15272976 0.8076582 0.8830701 0.89603233 0.89972484 0.28179085 0.27192318 0.28143153 0.8267562 0.88399076 0.88249665 0.8867839 0.28711233 0.2979371 0.68365586 0.76023996 0.82501805 0.85045123 0.2577326 0.4889437 0.61252 0.7003932 0.75813925 0.78840554 0.19946003 0.52295804 0.6118293 0.6798166 -0.10613251 -0.04811921 -0.039133653 -0.15989009 0.029356612 0.08498687 0.13234219 0.08273119 0.13854611 0.21931636 0.14900446 0.40696537 0.40033808 0.114162855 0.15312617 0.40898177 0.39573598 -0.00783322 0.40437856 0.39872184 -0.03198956 0.37450308 0.24436143 0.07734992 0.16931258 0.3082585 0.26818913 0.49035168 0.38827938 0.5817911 0.5969491 0.5282024 0.39032984 0.27288014 0.053504065 0.052416313 0.3242797 0.3735469 0.40604132 0.41467297 0.11373909 0.4429757 0.38923484 0.39405024 0.40532565 0.24229813 0.31424302 0.36330834 0.37240323 0.3272202 0.80412734 0.7964014 0.7720916 0.77957916 0.7696079 0.8014649 0.8305402 0.8583356 0.62555593 0.72225636 0.7931291 0.8229196 0.54179895 0.60888684 0.75834477 0.4631275 0.6422383 0.6279869 0.3117231 0.57931584 0.26368096 0.4576138 0.56328976 0.33219525 0.54764634 0.5259919 0.31118646 0.14141148 0.2675841 0.5775919 0.5717902 0.6373055 0.11098085 0.64823955 0.60516334 -0.23847018 0.5161545 0.07941945 0.14181188 0.3739497 0.12641022 0.16247407 0.11768797 0.058543652 0.68110865 0.28704908 0.26813352 0.2385274 0.07936643 0.5359015 0.7447853 0.8217828 0.8735275 0.29537565 0.40153277 0.88634264 0.26096714 0.11836454 0.20103997 0.85787076 0.2366595 0.006166607 0.075971045 0.34843603 0.8060534 0.22774953 0.12305518 -0.11379678 -0.112094484 -0.06183389 0.24672331 0.46954405 0.59465885 0.6378964 0.70440125 -0.20645322 0.42374563 -0.17210853 -0.18539542 -0.20042214 0.014757239 -0.11946552 0.07538617 0.048615724 0.13978823 0.18410113 0.16487294 0.42808563 0.16237973 0.17307703 0.42659694 0.4131456 0.4064896 0.36201465 0.2474646 -0.038053356 0.17724076 0.19780932 0.05322475 0.26285696 0.4857049 0.52595913 0.11580679 0.071100995 0.35914478 0.36460865 0.5837647 0.5993891 0.5954031 0.45822406 0.071650565 0.40561396 0.11849546 0.0930095 0.31788093 0.3532798 0.381761 0.120361574 0.16647796 0.17246798 0.23611076 0.237686 0.3128692 0.31805956 0.16056424 0.22450265 0.72947717 0.7238202 0.7353174 0.69381404 0.6600194 0.67325664 0.73615515 0.60857284 0.59748995 0.6057781 0.5850029 0.63391364 0.47093725 0.49096954 0.5470042 0.6544189 0.6340807 0.5954522 0.3027151 0.3423696 0.17824808 0.47301552 0.36156842 0.2706709 0.36769047 0.5368253 0.47973207 0.39020008 0.268935 0.27693143 0.5686212 0.49016693 0.5890138 -0.17335844 0.4838438 0.45993966 0.1810923 0.19799611 0.19579604 0.13970661 0.2868334 0.27626032 -0.01468537 0.040808592 0.08272292 0.5236405 0.58769953 0.2863166 0.28188476 0.092873305 0.455921 0.48990002 0.6202333 0.700468 0.25307205 0.73783195 0.16847691 0.8335166 0.73322815 -0.17553148 0.19524315 0.29000562 0.5313511 0.5775646 -0.09211889 -0.1633721 -0.33553982 -0.22796996 -0.054771174 0.37865663 0.4169113 0.48853582 -0.17258176 -0.37462685 0.020054564 -0.08487199 -0.15903752 0.034123283 0.6699026 0.6732011 0.34655657 0.075858824 0.115234725 0.5621594 0.63005364 0.672498 0.66923475 0.13937843 0.47987795 0.5896292 0.63145375 0.6536153 0.13495323 0.3593889 0.48562047 0.54861355 0.57140577 0.4278229 -0.052306592 0.42415586 -0.027800772 0.24961779 0.030671317 0.17248484 0.13692218 0.21492597 0.39287293 0.27348727 0.53878844 0.49911606 0.17926776 0.33635682 0.564041 0.55696315 0.5229231 0.15971492 0.3126998 0.34518826 0.19484882 0.096984714 0.082957745 0.18399447 0.2500155 0.1300168 0.1446602 0.15494663 0.16203102 0.15309986 0.14673406 0.15674195 0.16012593 0.15446155 0.14509332 0.529075 0.46616635 0.4914224 0.38839918 0.40732643 0.43634403 0.48565292 0.3776525 0.39000982 0.40844816 0.43347275 0.3203897 0.37483487 0.41632465 0.39156657 0.43458188 0.407369 0.32961926 0.045468308 0.10754897 0.2202319 0.23442522 0.44838637 0.44205916 0.3863623 0.20369649 -0.06360656 -0.03605722 -0.04829432 0.47667438 0.47963494 0.45687723 -0.12573099 0.009314194 0.1109902 0.15210713 0.28172687 0.27951735 0.26086944 0.075497255 0.08045523 0.29585475 0.35561118 0.25855988 0.26834527 0.28353167 0.28603458 0.10223507 0.33082137 0.4016099 0.43815845 0.5306697 0.22404155 0.6393584 0.06276949 0.10786705 0.074735336 0.07080929 0.07342823 0.059381828 -0.008643175 -0.023402074 -0.23887102 0.03200661 -0.079611294 0.20435038 0.30925754 0.3289321 0.1323212 -0.13406646 -0.5806087 0.4280625 0.29675215 0.19957067 -0.033726834 -0.24682927 0.38409585 0.57147574 0.5718397 0.50886476 0.29330224 0.6538923 0.46682015 0.19738859 0.2905938 0.65662026 0.68478036 0.21352911 0.009792104 0.37059575 0.6343634 0.69330263 -0.11452548 0.112002224 0.16793811 0.31015372 0.37759143 0.6087349 0.6849978 -0.22673333 -0.029538266 0.031146418 0.1947732 0.31947237 0.47705284 0.15823388 0.22768675 0.24271306 0.25870666 -0.020579625 0.109243274 0.28243417 0.38123044 0.15191403 -0.15368071 0.34408677 0.44646227 -0.2998753 -0.0728455 0.13858102 0.50774825 0.5107086 0.059650935 0.20249519 0.22030537 0.1948215 0.25151742 0.24432686 0.33737904 0.17591542 0.19681054 0.25590357 0.35532707 0.09226693 0.14112963 0.16405582 0.13028274 0.12942258 0.20021081 0.18304397 0.17284046 0.1502225 0.1302489 0.19580539 0.13210897 0.119311415 0.59460783 0.635983 0.045345254 0.5023175 0.56844264 0.6070837 0.004998494 0.08623672 0.461178 0.10929249 0.1503706 0.02564606 0.24640712 0.2129704 0.056752272 0.253288 0.31462014 0.3307256 0.20928326 0.23925711 0.37189645 0.13695471 0.47280973 0.032263916 0.47567508 0.14294085 0.15482196 0.08078316 0.11601515 -0.12835583 0.6047182 0.54468524 0.38421696 0.25990564 -0.3872853 -0.06457798 0.26956913 0.19406828 0.65417755 0.6277298 0.49354115 0.5012767 0.47052756 0.6296716 0.6117926 0.5816189 0.6078397 0.49366602 0.7008252 0.17008096 0.72636354 0.098449916 0.7211004 0.11312854 0.16551694 0.63878816 0.679248 0.37683862 -0.4587989 0.334082 0.4528135 0.49300957 0.5024413 -0.31298733 -0.5653704 -0.23911753 -0.046677634 0.086626515 0.401362 0.3976634 0.47687033 0.502983 0.5370978 0.052365758 0.21246018 0.46345985 -0.16874853 0.4871378 0.5144187 0.57451916 0.55401003 0.52121955 -0.12244138 -0.07939564 0.5160846 0.602661 0.6363723 0.61219 0.20077078 0.1801224 0.14586736 0.58851886 0.31191736 0.36073014 0.3585875 0.33939984 0.21917441 0.15955898 0.09635952 0.1137341 0.17234379 0.2543079 0.29876631 0.21480975 0.21693909 0.19680822 0.14617866 0.08580895 0.16648346 0.22541255 0.65503097 0.6789987 0.68557525 0.20089129 0.22578804 0.18135738 0.1469861 0.14842749 0.52768266 0.61837244 0.66585207 0.6848824 0.20456916 0.62579316 0.6815009 0.13645399 0.56721795 0.0772924 0.010595307 -0.13639417 -0.023225375 0.22074574 0.30575636 0.11949401 0.086611524 0.07967961 -0.056314975 0.119005516 0.32728165 0.36110988 0.11804727 0.19898775 0.112434395 0.81305945 0.8316153 0.27332705 0.8519516 0.8672118 0.23429531 -0.119688585 0.8563882 0.87301767 0.3373113 -0.06912854 -0.07095647 0.6453842 0.5863815 0.45130035 0.35319132 0.019139037 0.6682942 0.66543365 0.41468078 0.64759743 0.48855817 0.6012175 0.4957077 0.6763129 0.37562063 0.7596019 0.13202406 0.7274326 0.20444891 0.1618405 0.45016786 0.65094286 -0.39239782 -0.54312706 0.27731046 0.39292434 0.45766616 0.18261236 0.01417131 -0.2490626 0.42149097 0.46716973 0.47284538 0.3318921 0.4610387 0.4534253 -0.022015614 0.011579849 0.5538014 0.511078 -0.021084785 -0.0590314 -0.022710906 -0.035066888 -0.15981635 -0.0265483 0.36448675 0.59664917 0.56933635 0.5094252 -0.007343717 0.5512939 0.605187 0.61978936 0.18553138 0.34203404 0.2639081 0.2889465 0.18580447 0.17107597 0.3063493 0.25417215 0.24973613 0.14025481 0.021912761 0.043833748 0.15718493 0.26671356 0.30017066 0.27956694 0.30272472 0.29336607 0.21617134 0.4883703 0.5616489 0.41706535 0.5115409 0.61212486 0.6547407 0.6715832 0.208684 0.028721612 0.6851367 0.171361 0.15228838 0.65104485 0.12542419 0.48854584 0.04979477 0.1534468 0.17664987 0.16158724 -0.10114149 0.10008627 0.112350345 0.039961517 0.23816754 0.115924746 0.093319446 0.4729584 0.53489846 0.36240482 0.28949267 0.28330687 0.70531535 0.7962332 0.77444196 0.40540725 0.81686634 0.2971622 0.31960183 -0.02126214 0.80105084 0.8320746 0.8617284 0.8438554 0.82306963 0.839059 0.6407959 0.56877255 0.07633422 0.6516725 0.6353175 0.6385883 0.47598213 0.58178633 0.6738755 0.24298684 0.6608505 0.12701327 0.5193448 0.628531 0.15991428 0.18524696 0.29861125 0.5205243 0.18568377 0.20810573 0.36899117 0.35678387 0.40838093 0.19035983 -0.063182816 0.42062962 0.43368882 0.22265092 0.020690424 0.47518337 0.027015498 -0.0013592727 0.07551231 0.47020498 0.45370954 -0.08063027 0.42324132 0.5600551 0.5140889 0.48869675 0.26851094 0.22691499 0.17350976 0.022072054 0.1355247 0.2649812 0.24133395 0.22913381 0.30244964 0.25472355 0.33207667 0.34756762 0.3429225 0.3326054 0.30027694 0.2806543 0.37500614 0.39335793 0.47812092 0.5213466 0.27913392 0.34751007 0.5767367 0.58222836 0.6220056 0.11822058 0.023689322 0.105574116 0.5968363 0.083642006 0.1058983 0.4724257 0.5456226 0.031063853 0.071864635 0.39177632 0.027742982 0.15780926 0.16736026 0.191247 0.16860563 -0.12003333 -0.056308247 0.5135555 0.4919269 0.47867143 0.11926967 0.14218025 -0.03407921 0.50919616 0.469985 0.10225083 0.041920543 0.4880857 0.46292168 0.46579123 0.42193216 0.5777093 0.5747559 0.43358678 0.4071154 0.32111904 0.36638203 0.39556077 0.6201805 0.4268782 -0.015214279 0.70609117 0.5977142 0.37088984 0.717763 0.7561056 0.28591806 0.27151728 0.82355696 0.77013326 0.588161 0.5101972 0.5968194 0.57370347 0.25907838 0.60713756 0.53239626 0.25943953 0.5500974 0.3658557 0.5003995 0.16707915 0.4617169 0.17550465 0.4244632 0.18927965 0.27805206 -0.080702886 0.3736112 0.02868187 0.12069186 -0.000530798 0.3766423 0.19355124 0.06027539 0.39800972 0.40956914 0.058619857 0.07549411 0.3384086 0.25981858 0.31219476 0.1501399 0.14910926 -0.07164855 0.011855371 0.14017935 0.21559101 0.19594213 0.16135111 0.27799964 0.1851967 0.18761078 0.3425516 0.37406033 0.36557776 0.35661232 0.3074437 0.39829504 0.39346415 0.39735124 0.40311477 0.37712038 0.43006724 0.47103587 0.15236841 0.27052724 0.28286737 0.47858578 0.49058995 0.13208863 0.12015885 0.06063419 0.43664196 0.50230855 0.0888341 0.43549684 0.044424962 0.16572592 0.050681345 0.46313453 0.44556576 0.18728296 -0.057287764 -0.10219051 0.51032233 0.5029257 0.48723882 0.4527524 0.3981661 0.11097063 -0.044145048 0.5535978 0.41880935 0.4118524 0.46317315 0.26108512 0.11861597 0.014771976 0.019404888 0.51703453 0.54267466 0.42188925 0.33283648 0.111823395 0.059737667 0.5698936 0.5571275 0.43308142 -0.1643197 0.5887896 0.37411764 0.39773744 -0.35154903 0.5485525 0.58427894 0.5603459 0.35751307 0.026903786 0.48931706 0.643809 0.15929307 0.5200067 0.4900496 0.36621293 0.46536574 0.37107813 0.2704525 0.20722431 0.13559164 0.20970163 0.26011607 0.31834847 0.29040846 0.27837434 0.29621214 -0.15734904 0.32428306 0.26796448 0.14825593 0.09477718 0.065722935 0.0030317865 -0.09963566 0.19475904 0.18336043 0.18421149 0.13007818 0.06352686 0.0044537373 -0.019286998 0.22782917 0.3220959 0.24866125 0.24987255 0.22734146 0.20235592 0.047545314 0.009050548 -0.0060513895 0.22640416 0.28159687 0.275