# vtk DataFile Version 2.0
Really cool data
ASCII
DATASET POLYDATA
POINTS 10328 float
-31.682419 -6.8432374 21.411814
-31.707296 -6.264278 18.707596
-31.851593 -6.151581 19.281715
-31.977299 -6.252823 20.553793
-32.06357 -6.1797066 21.45466
-31.925978 -6.056653 22.227325
-31.680552 -5.5791764 18.076654
-31.865393 -5.681398 18.636103
-32.10893 -5.343288 19.650982
-32.201206 -5.385393 20.586088
-32.294476 -5.3886676 21.55521
-32.13263 -5.4088645 22.45096
-31.889091 -5.202198 22.860497
-31.647985 -4.9430175 18.124674
-31.800467 -4.9292183 18.64516
-31.882818 -4.522699 19.21887
-32.204964 -4.707921 20.59189
-32.22391 -4.6680903 21.459003
-32.053143 -4.618563 22.344435
-31.93432 -5.0224175 22.826576
-31.75957 -3.7417614 19.727074
-31.772982 -3.5852394 20.32504
-31.906916 -3.9868598 21.494347
-30.947577 -7.679286 20.508295
-30.936527 -7.6428623 21.261608
-30.893978 -7.1151986 18.138952
-31.077827 -7.0898585 18.63481
-31.327257 -6.98664 19.413334
-31.231222 -7.354746 20.526676
-31.247091 -7.2762723 21.481869
-31.327713 -6.9469404 22.065845
-30.731058 -5.812164 13.447948
-31.393858 -6.21185 17.903303
-31.554382 -6.5228877 18.56552
-31.319744 -6.5489197 22.519112
-30.721184 -5.431432 12.853203
-30.844112 -5.537361 13.415696
-30.76568 -5.257955 14.376696
-31.575743 -5.881742 18.036688
-31.39873 -5.436594 23.058605
-30.922157 -4.638154 12.843117
-31.249605 -4.1845183 13.632287
-31.296057 -4.27472 14.031103
-30.78692 -4.3736105 14.948991
-30.879326 -5.0376945 17.28486
-31.55176 -4.738766 22.981691
-31.021778 -3.464821 12.893762
-31.304983 -3.3387587 13.578298
-31.267666 -3.3053284 14.272675
-30.809828 -3.6787467 15.044684
-31.547298 -3.9106705 18.892633
-31.38325 -3.5813768 21.306767
-31.380075 -4.0258183 22.354559
-31.212885 -4.263345 22.799397
-30.985655 -2.8308191 13.068345
-31.082092 -2.6576943 13.491974
-31.07082 -2.7888932 14.276524
-31.132854 -3.3403435 19.195505
-31.369535 -3.1968424 19.84282
-31.194784 -3.0970554 20.26854
-31.156755 -3.3108432 21.126913
-30.853367 -2.2919438 13.673614
-30.703245 -2.2351348 14.466725
-29.686728 -10.110513 31.048527
-29.751152 -10.14599 31.445223
-29.697947 -10.162839 32.202995
-29.710712 -9.781951 33.223377
-29.709665 -9.381242 31.039072
-29.894749 -9.4554205 31.631027
-29.943823 -9.513378 32.639885
-29.871487 -9.292869 33.36493
-29.823912 -7.7466955 17.586613
-30.060726 -7.9285607 18.79832
-30.038412 -8.038305 19.16921
-30.536016 -7.8863792 20.831627
-30.56618 -7.847217 21.160292
-30.206495 -7.734199 21.924938
-29.57737 -8.642623 27.714937
-29.920053 -8.563878 32.152245
-29.968159 -8.54938 32.61072
-29.954176 -8.510609 33.404224
-29.875849 -8.806611 33.82565
-30.265823 -6.8586555 17.05717
-30.531927 -7.0371757 17.723417
-30.641573 -7.3976016 18.546982
-29.631083 -7.316507 27.544891
-29.53098 -7.432418 28.697598
-29.910915 -8.143154 32.77555
-29.77362 -8.039539 33.346653
-30.240313 -5.940417 12.791028
-30.26502 -6.177463 13.405615
-30.268389 -5.918715 14.385324
-29.675219 -6.5549307 27.598131
-30.12202 -5.4460244 12.349446
-30.474993 -5.477155 12.552033
-30.543097 -5.383637 14.588397
-30.392761 -5.247428 14.829915
-30.556284 -5.3572326 16.74433
-30.639765 -5.139879 23.077778
-29.552223 -6.019689 27.607687
-29.604984 -6.0100584 27.986277
-30.189634 -4.6137695 12.284174
-30.573137 -4.709198 12.46343
-30.275057 -4.2786717 16.144482
-30.647657 -4.546585 22.935522
-30.1667 -3.611752 12.37699
-30.406988 -3.54824 12.501987
-30.496038 -3.9754574 17.147945
-30.263988 -3.8470516 22.042034
-30.386963 -2.713942 12.807126
-30.337086 -2.7447608 15.36283
-29.75156 -3.194253 16.365868
-30.715776 -3.183826 19.136568
-30.799322 -2.893792 19.9212
-30.386673 -2.9235363 20.420403
-30.706894 -3.2671084 21.27165
-30.234394 -2.2609332 13.111793
-30.42004 -2.1108136 13.573775
-30.030071 -1.7838383 14.594328
-30.108955 -2.058617 15.099283
-28.67026 -10.857467 29.599106
-29.009386 -10.89669 30.666456
-29.179785 -10.909593 31.498287
-29.163528 -10.764254 32.18185
-28.846766 -10.670444 32.876938
-28.676159 -10.024955 24.895409
-28.626394 -10.376218 25.737316
-28.63684 -10.481212 27.901573
-29.40362 -10.3077755 30.40837
-29.48697 -10.623799 31.247427
-29.35286 -10.477405 32.42809
-29.333282 -10.059245 33.248806
-28.94424 -9.9841385 33.805084
-28.744848 -8.850394 20.999401
-28.7498 -9.409071 22.196987
-28.808681 -9.3079815 23.209171
-28.780476 -9.6497135 24.8274
-28.854885 -9.565345 25.672415
-29.262817 -9.426926 27.820766
-29.270336 -9.31133 28.343126
-29.201973 -9.206552 30.277893
-29.50539 -9.675846 33.6597
-29.331074 -9.222943 34.040295
-29.144054 -7.8207946 16.709795
-29.359215 -8.0210495 17.726498
-29.076138 -8.511096 19.732475
-28.914053 -8.523306 20.58151
-29.451553 -8.073846 21.452536
-28.801872 -8.561451 25.61366
-29.294678 -8.6612835 26.588371
-29.463541 -8.210427 27.137188
-29.429367 -8.745964 27.999088
-29.11697 -8.353693 29.512552
-29.167406 -8.521134 30.751116
-29.445484 -8.569613 34.121956
-29.386892 -6.523682 13.881427
-28.905401 -6.8956676 14.735138
-28.958141 -7.2198906 15.470065
-29.462873 -7.5946484 16.834707
-29.0078 -7.4308023 23.085497
-28.57555 -7.396083 25.43086
-29.24295 -7.051507 29.09401
-29.236347 -7.5690365 32.73373
-29.265705 -7.6464367 33.37048
-29.123539 -7.94549 34.033096
-29.70864 -5.781847 12.406275
-29.532528 -6.146853 12.797956
-29.134583 -6.527449 13.294201
-29.438662 -6.4345946 14.220911
-29.28514 -6.412004 26.831411
-29.266354 -6.522381 29.218674
-29.44486 -5.4454975 12.319374
-29.773233 -5.782324 22.733267
-28.721367 -5.946904 26.324726
-29.153105 -5.960836 26.824718
-29.261019 -5.636645 27.578716
-29.304998 -5.5931454 28.331696
-28.687838 -5.3109703 29.659475
-28.768398 -5.7819495 30.03328
-29.692917 -4.608986 12.180515
-29.76568 -4.3828077 22.312475
-28.98975 -5.3145733 27.821642
-28.98381 -5.2483864 28.13953
-28.858921 -5.2695937 29.10777
-28.648872 -5.23387 29.859797
-29.514357 -3.61539 12.3792095
-29.764128 -3.6682265 21.761559
-29.68529 -2.723349 12.705146
-29.341288 -2.4718916 16.290981
-29.496012 -3.2205427 18.872883
-29.79471 -2.984349 19.770445
-29.771517 -2.9660575 20.415985
-29.718243 -3.0908859 20.82632
-29.604137 -2.1686914 13.089157
-29.513485 -1.7836145 13.697518
-29.544815 -1.4706357 14.490633
-29.451578 -1.4913131 15.281714
-29.1144 -1.6216317 15.785941
-29.187439 -1.321023 14.608953
-29.144928 -1.3324318 15.224572
-27.665487 -11.964161 23.233189
-27.73164 -11.976838 24.492327
-27.630428 -12.088661 25.446117
-27.857859 -11.661885 30.49745
-27.981272 -11.3908415 23.404272
-28.120821 -11.302744 24.671715
-28.039564 -11.326435 25.635834
-28.147404 -10.981183 26.477905
-27.775578 -11.492524 28.515018
-28.244905 -11.208256 29.716005
-28.684368 -11.096566 30.65157
-28.547121 -11.257786 31.8115
-28.447561 -11.124896 32.07854
-28.253292 -10.763429 32.93016
-28.514883 -10.415721 24.813654
-28.382338 -10.578536 26.524687
-28.588512 -10.286423 33.562775
-28.559456 -9.79819 34.04169
-28.455408 -8.581468 18.997412
-27.878796 -9.187842 19.951313
-28.107016 -9.15697 20.691936
-28.595331 -9.529341 22.699675
-28.521616 -9.289762 34.35297
-28.429094 -7.968921 16.445328
-28.610695 -8.113781 17.331896
-28.694307 -8.344643 18.617456
-28.518982 -8.573264 34.457287
-28.184204 -8.614943 34.542053
-28.456318 -6.688232 13.785224
-28.082844 -7.0427585 14.505048
-28.097244 -7.5360546 15.666171
-28.41038 -7.7790375 34.182907
-28.742277 -5.8132877 12.624024
-28.574596 -6.518722 13.482271
-28.774122 -7.427367 32.559044
-28.41815 -7.2747087 33.496563
-28.910574 -5.239875 12.343997
-28.786861 -5.4736624 12.469335
-28.464174 -5.4796424 22.715443
-27.946247 -5.7844563 25.960745
-28.550589 -5.666258 26.536722
-28.408266 -5.3565598 30.111778
-27.999395 -6.1194663 31.034002
-28.74617 -4.3538566 12.363832
-28.30606 -4.789981 12.508864
-28.280882 -4.9218884 22.263712
-28.11082 -5.082504 26.800995
-28.460806 -5.0314264 27.638597
-28.18117 -4.7088475 28.765158
-28.245358 -4.8605366 29.551878
-28.135792 -5.013008 30.087591
-28.595808 -4.052695 12.413825
-28.522057 -3.524728 12.621977
-28.468555 -4.0184546 21.637789
-28.47705 -2.700032 13.014371
-28.25331 -2.8103836 17.03116
-28.926281 -3.283072 18.895279
-28.175333 -3.4386415 18.992126
-28.95362 -3.2365398 20.593458
-28.9395 -3.2907386 20.942451
-28.756298 -2.1700332 13.292731
-28.679281 -1.7262058 13.816506
-28.822538 -1.432933 15.622352
-28.401619 -1.6966914 15.960779
-28.87245 -1.3804038 14.221255
-28.667559 -1.3089702 14.6470375
-28.543184 -1.278307 15.2089
-26.58432 -14.922997 23.778461
-26.641205 -14.48913 22.881636
-26.757317 -14.355066 23.446198
-26.681728 -14.111659 24.59779
-26.824602 -13.301248 23.034433
-26.967806 -13.554009 23.631596
-27.108564 -13.387077 24.392815
-27.00339 -13.275331 25.067778
-26.559946 -12.179619 14.945221
-26.587334 -12.3252 15.384826
-27.186035 -12.275003 22.881296
-27.396032 -12.569586 24.861868
-27.541597 -11.930998 25.793962
-27.005117 -12.404874 26.043999
-27.324926 -11.799461 29.00633
-27.275377 -11.900969 29.861609
-27.198502 -11.968048 30.517971
-27.313137 -11.791999 31.318972
-26.533278 -11.671344 14.912216
-26.580376 -11.830411 15.276087
-26.575895 -11.887729 16.06098
-26.955301 -11.011842 21.962181
-27.601807 -11.446308 22.74863
-27.541048 -11.355825 27.47643
-27.645256 -11.516475 28.352333
-27.32686 -11.207853 32.582283
-27.600466 -10.863382 33.00953
-27.356918 -9.679009 21.17442
-27.666304 -10.118678 21.793318
-27.395313 -10.420158 33.57936
-27.491228 -10.079143 33.825764
-27.276236 -8.846433 19.071733
-27.260368 -9.061925 19.673023
-27.500093 -9.287414 20.243818
-27.700846 -9.355007 34.2937
-27.926304 -8.996353 34.555466
-27.881441 -7.787234 15.827779
-27.703402 -7.8726745 16.316137
-27.628525 -8.0242605 17.40676
-27.57142 -8.461219 34.418446
-27.74403 -6.941057 14.616485
-27.51096 -7.4978695 33.762302
-27.69746 -7.785538 34.18358
-27.991535 -5.8952303 12.942359
-27.548962 -7.2973266 33.178814
-28.021835 -5.5755515 12.829484
-27.02165 -6.056163 24.003191
-27.810839 -5.920775 25.88591
-27.270243 -6.0751605 31.210924
-27.691677 -4.6247478 12.788637
-27.498135 -5.112292 26.772978
[...]
POINT_DATA 10328
SCALARS features_00 float 1
LOOKUP_TABLE default
0.5158243 0.418376 0.4506968 0.53308153 0.6457726 0.73320264 0.39717588 0.43181598 0.52374905 0.6262006 0.7589855 0.8112739 0.83026505 0.39394122 0.44945434 0.55883086 0.6908058 0.8009726 0.8340256 0.8334904 0.64830834 0.66876286 0.787413 0.32561526 0.34732747 0.3517469 0.3684902 0.39900565 0.37913176 0.42528975 0.50117534 0.79570764 0.38765734 0.40181822 0.6330278 0.82761085 0.8009356 0.68608356 0.39458835 0.8051299 0.8536424 0.8284318 0.7485487 0.54628 0.34722868 0.81084096 0.8847778 0.86586964 0.7855472 0.60728693 0.572985 0.7044915 0.78637516 0.7722006 0.86277384 0.85210454 0.80342114 0.6189509 0.63322663 0.62404716 0.65306276 0.82265794 0.7701949 0.5294474 0.5672796 0.6157149 0.7154826 0.49405408 0.5917383 0.7151675 0.80490595 0.28741366 0.2857337 0.27529052 0.27037427 0.2876986 0.29466432 0.27675527 0.7159548 0.80901986 0.9058138 0.9025402 0.3286421 0.33991364 0.33490497 0.4585454 0.38961124 0.8642266 0.92444396 0.7947314 0.76959836 0.69198513 0.5473541 0.79347706 0.81784606 0.65102285 0.5736422 0.2690465 0.71448606 0.5720628 0.5714108 0.7940413 0.8295516 0.25190115 0.6956899 0.8097646 0.8391223 0.21016823 0.5788231 0.82672703 0.64127064 0.5064857 0.5931823 0.59416974 0.5589185 0.6141232 0.8007982 0.79657626 0.7158512 0.67583585 0.29727995 0.46578354 0.52787435 0.5670083 0.5811747 0.14571781 0.14556146 0.17862314 0.45758432 0.538743 0.597319 0.6664537 0.6874461 0.12058235 0.09647556 0.13055791 0.14904064 0.19606695 0.22888103 0.22744472 0.35135677 0.7512415 0.8432317 0.25862014 0.26371664 0.19833905 0.15713623 0.17982106 0.28355604 0.2794063 0.31135517 0.2674046 0.1919217 0.36170542 0.9504039 0.58726376 0.32343978 0.22998548 0.270562 0.33408678 0.41486448 0.4561586 0.8287392 0.91942215 0.98697555 0.7598856 0.73409843 0.6385843 0.5518179 0.5404678 0.539508 0.73122454 0.54462874 0.5391406 0.55948156 0.5777602 0.5845565 0.5801383 0.5474916 0.7429944 0.46495646 0.5819388 0.5875199 0.5857457 0.580226 0.73077905 0.4732889 0.7634054 0.5796026 0.36615512 0.47180656 0.4785959 0.4803046 0.75008404 0.7261709 0.68995965 0.6341562 0.58922136 0.66079384 0.62765247 0.2341258 0.19547309 0.13337475 0.3525328 0.21236952 0.17958888 0.1111109 0.07997392 0.16418266 0.28847826 0.43008274 0.50059 0.51279175 0.54363346 0.14619616 0.12647 0.6202336 0.70045596 0.1753733 0.13342646 0.12711443 0.11254099 0.78162766 0.24225973 0.24000931 0.1988452 0.8961276 0.8498446 0.46784532 0.28811127 0.23035018 0.9298662 0.6631913 0.5532274 0.7217281 0.8173296 0.6679643 0.6609491 0.21777576 0.47743055 0.550012 0.5787182 0.50029784 0.62616456 0.57774854 0.21435097 0.5459112 0.58093774 0.58955115 0.589651 0.58318794 0.59703755 0.57724375 0.26624352 0.59309745 0.2982849 0.2103898 0.078563325 0.33369204 0.3464694 0.65269196 0.64906263 0.587695 0.52773845 0.652346 0.6254965 0.6002626 0.3789758 0.37252313 0.3553758 0.3025224 0.29892576 0.29919517 0.25728163 0.22113886 0.45918792 0.46107322 0.2549963 0.1823522 0.10611914 0.103873655 0.20409805 0.28077203 0.35152712 0.4293152 0.4432436 0.45517886 0.44435486 0.04691118 0.20708773 0.034081005 0.14416677 0.4637323 0.50055027 0.060209125 0.06416601 0.5245974 0.5655687 0.08428316 0.08758742 0.09774702 0.6736487 0.7560823 0.22771633 0.22478576 0.16271389 0.7891106 0.27695775 0.7410768 0.84368134 0.58178717 0.5893323 0.57818305 -0.10568531 0.4493747 0.49137193 0.49705717 0.5233818 0.56605434 0.5726703 0.5864769 0.5924573 0.46943438 0.43219066 0.013250325 0.052016824 0.14200495 0.57728875 0.5858126 0.5008905 0.49688098 0.1638246 0.018361207 0.5722551 0.57140917 0.53256434 0.39705345 0.5914176 0.5655192 0.3932918 0.4796136 0.5083234 0.5314034 0.511719 0.49946734 0.5793556 0.5807433 0.54288113 0.49805447 0.5696002 0.5950548 0.554767 0.4509387 0.46530932 0.5264328 0.42716652 0.41432458 0.41296756 0.40650487 0.385868 0.36183238 0.36583808 0.30647928 0.28906012 0.36387217 0.3736975 0.34840247 0.44086805 0.43867153 0.42572087 0.43174428 0.38390625 0.34625968 0.27362686 0.21322306 0.43246832 0.43508518 0.4534716 0.43142194 0.351399 0.29416868 -0.0057979226 0.24254149 0.35202217 0.40698102 0.4128506 0.39083827 0.39641494 0.43432033 0.42034936 0.36863977 0.06833251 0.42459232 0.436481 0.32162422 0.42964894 0.4120016 0.34425133 -0.026909575 -0.09016447 0.48687205 0.30078155 0.044679128 0.0030276254 0.5390543 -0.057965696 0.6813414 0.23736078 0.67623806 0.4494503 0.3574647 0.32422268 0.47745594 -0.0017492473 0.40914652 0.5068363 0.37567815 0.16932815 0.1499857 0.4847499 0.55104065 0.56014293 0.5774787 0.6005628 0.39621836 0.040881786 0.1985853 0.5691424 0.5744505 0.46573076 0.5015665 0.49973902 0.47744644 0.40994528 0.32238188 0.5661449 0.53277075 0.48070678 0.54990405 0.55071527 0.5158751 0.43050557 0.49664497 0.4957046 0.4127357 0.3125992 0.3010106 0.31568366 0.3539051 0.37622714 0.2864282 0.3776448 0.4594069 0.44970745 0.36802202 0.4987289 0.65806925 0.6571573 0.38929868 0.5011549 0.451582 0.63175225 0.6923401 0.68410945 0.6226777 0.25485554 0.33143276 0.38067538 0.41762054 0.3523463 0.5784122 0.64527726 0.6428995 0.60649216 0.30481082 0.21950248 0.3207207 0.2502776 0.4854476 0.52249897 0.52601874 0.42771962 0.40341455 0.25070247 0.49855292 0.5130452 0.4486114 0.543854 0.5438797 0.30254057 0.09919716 0.15334743 0.2266335 0.38391325 0.12756954 0.37292883 0.3770328 0.3940633 0.32076338 0.15271208 0.13172704 -0.012528822 0.29682106 0.384295 0.323182 0.4133356 0.40263277 0.3333267 0.28606498 0.26159844 0.2589138 0.18898323 0.16900927 0.2576955 0.2540717 0.41318053 0.43656445 0.43099362 0.23658907 0.27921078 0.16938485 0.40162674 0.42576098 0.24248493 0.09457143 0.16931552 0.2213009 0.39074355 0.3385323 0.37894112 0.25314537 0.10950234 -0.024488673 -0.13461316 0.40328166 0.41294247 0.28898388 -0.054680966 0.43035173 0.4658168 0.09129426 -0.000546284 0.20350352 0.16168913 0.28024304 -0.10416188 0.47270358 -0.11849377 -0.062425077 -0.10993424 -0.39299536 -0.050097723 -0.1780394 -0.07550571 0.4681989 0.10256919 0.19225028 0.3365766 0.49265915 0.5568641 0.26102325 0.27632228 0.54440135 0.5807062 0.59806633 0.38557562 0.4091195 0.17384589 0.3175626 0.31226802 0.44901815 0.37589946 0.28549334 0.263124 0.4747585 0.4610852 0.4030401 0.533499 0.47723857 0.4180488 0.55886185 0.5702106 0.5168804 0.4360422 0.31461957 0.51855505 0.34519207 0.3566376 0.41621962 0.30646932 0.18501273 0.25459296 0.24263018 0.25873855 0.21778575 0.23640168 0.2502604 0.2803577 0.21649542 0.22373673 0.37596667 0.58384335 0.61506385 0.5942193 0.58288515 0.16003603 0.18761292 0.4025687 0.55689484 0.6356054 0.5778795 0.13541454 0.15571238 0.27716902 0.4056091 0.5495248 0.43464565 0.2017705 0.27274597 0.20159854 0.17100722 0.13843352 0.36533213 0.4131747 0.39381012 0.41070387 0.35011938 0.440445 0.25430825 0.18212286 0.11905903 0.16262883 0.2948043 0.3762908 0.3697749 0.34607273 0.49259564 0.50626856 0.43062517 0.31200352 0.22100899 0.19362693 0.11312292 0.17443316 0.5561556 0.5623006 0.56161904 0.45206207 0.3758815 0.29573226 0.12891684 0.11151787 0.11999889 0.474827 0.5029253 0.53935444 0.58043706 0.56123215 0.47892636 0.12709096 0.1049533 0.08104993 0.05387812 0.24401212 0.36919463 0.4599319 0.5110588 0.4776491 0.13479957 0.110277295 0.06719036 0.046318337 0.049192607 0.12876382 0.25317305 0.41342866 0.28911012 0.12846798 -0.026815597 0.039364874 0.27182093 0.2596505 0.31014878 0.32166082 -0.08133252 -0.08072825 -0.016459648 0.009938531 -0.04312849 0.34949806 0.2842199 0.12775248 -0.07800723 0.24315694 0.19843012 0.10730355 0.3386381 0.31307352 0.2875628 0.20521085 -0.053488538 0.21939328 0.08100469 0.6419634 0.6512146 0.38142717 0.10889139 0.33170697 0.36999553 0.28238487 0.32739305 0.34366328 0.3738852 0.34354144 0.28942615 0.23324595 0.15544784 -0.09668991 -0.31808436 0.37646958 0.34990597 0.15133175 -0.3904836 -0.38732752 0.43730047 0.41436347 0.35358426 0.19810228 0.0011159778 -0.106680766 -0.06742219 0.35603082 0.40698498 0.43072253 -0.046151485 -0.09123105 0.1519047 0.16817045 0.42932355 0.44786495 0.46350756 0.485327 -0.07338428 -0.04833608 0.006507665 0.0916796 0.21726105 0.28601202 0.36783758 0.46155703 0.4831692 -0.03399001 -0.07309654 0.2780107 0.17674166 0.45109543 0.20960854 0.29268706 0.32887116 0.38161635 0.3790332 0.27357253 0.25907728 0.32744902 0.34405312 0.43477088 0.40804097 0.3163969 0.41637987 0.37818307 0.3127528 0.51894957 0.4659835 0.4421481 0.34505752 0.23465706 0.26834303 0.3967644 0.43472296 0.49354416 0.330248 0.4403345 0.44443902 0.32120937 0.4238742 0.3613763 0.2646957 -0.03287975 0.19381043 0.20737308 0.09653665 0.21494421 0.22148716 0.17782961 0.4846201 0.44510698 0.20480143 0.1543885 0.3218553 0.46232602 0.48005602 0.49554563 0.41817316 0.16017097 0.13632917 0.44825938 0.35395494 0.0693396 0.13428448 0.16974023 0.22281548 0.28744596 0.2208787 0.20580964 0.085106194 -0.35859948 0.17652784 0.29448184 0.38613242 0.3853746 0.28268057 0.034509 0.092577785 0.21120648 0.407574 0.42302096 0.43141508 0.40744644 0.3914652 0.51849115 0.21512538 -0.05952384 0.03993523 0.4772731 0.49215367 0.45325238 0.47562617 0.56696373 0.31713358 0.25513178 -0.026188806 0.05198013 0.059415117 0.5204816 0.5324662 0.5270561 0.5791597 0.5523387 0.4373245 0.34187293 0.25048944 0.11088594 0.120603144 0.44616234 0.28722474 0.08912166 0.119987294 0.12608327 0.3146009 0.065651976 0.10810281 0.094110996 0.06999397 0.19317597 0.23093075 0.048417732 0.049090624 0.060481664 0.21428904 0.13893902 0.70237935 0.72284174 0.68997747 0.64114594 0.035126157 0.014207102 -0.0016120225 -0.06589745 0.116082296 0.64737296 0.6714696 0.6993964 0.73151153 0.6753017 0.5844275 0.051070713 0.11552432 0.15811656 0.61353886 0.6378779 0.6453354 0.6793488 0.65671384 0.5419663 0.29059333 0.5701436 0.5995784 0.58478403 0.56639975 0.50196105 0.27495408 0.081462234 0.5151694 0.5102578 0.4975552 0.3509096 0.3344615 0.28421783 0.20502092 0.18651736 0.37860757 0.36703196 0.60593605 0.23316947 0.22284777 0.22591862 0.26264295 0.43765193 0.43731272 -0.36678955 0.18773864 0.23457044 0.2777599 0.2921539 0.33134198 0.36122996 0.39882627 0.45079052 0.4946713 0.48295635 0.44480738 0.25096515 -0.039474502 0.16394982 0.2371709 0.3025984 0.37954342 0.38513386 0.43810892 0.4412103 0.54561454 0.47333723 0.41542438 0.37416643 0.30881444 -0.05907105 0.057018347 -0.12087661 -0.109740496 0.32088006 0.4093086 0.42486137 0.51778007 0.577878 0.6054606 0.36065948 0.31437624 0.27126446 -0.08855744 -0.058390573 0.22338773 0.28448617 0.36734658 0.4580124 0.49277568 0.51814115 0.54826987 0.55560136 -0.07996757 -0.0927935 0.23937725 0.24860421 0.4166087 0.45112067 0.22091287 0.13236535 0.31682932 0.32221735 0.28823856 0.33047545 0.32134867 0.20347762 0.2206149 0.3101209 0.38550898 0.35950017 0.31571156 0.22655891 0.14171252 0.21999077 0.3361147 0.38685307 0.34079152 0.37787223 0.4162717 0.15956452 0.4047228 0.37328953 0.3874389 0.37730283 0.31764 0.32395 0.31482065 0.25871992 0.23222093 0.095244184 0.18596482 0.41075855 0.43893802 0.17020029 0.17624758 -0.16257435 0.14249545 0.3266181 0.37798846 0.38793266 0.44793797 0.5986226 0.64882696 0.5121479 0.51492375 0.17474066 -0.23370408 0.021663636 0.16061704 0.3410709 0.16358253 0.24635029 0.62700665 0.6851224 0.5006529 0.4960441 0.50219774 0.1193815 0.1761468 -0.18730806 0.24239075 0.18025938 0.09687565 0.48151824 0.61808854 0.680799 0.71509635 0.46763808 0.44529667 0.41700065 0.049243182 0.13349058 0.08077275 0.1007529 0.44911006 0.57405305 0.60401034 0.4035428 0.36516732 -0.012845642 -0.054476444 0.17585361 0.16959216 0.24617067 0.0103640845 -0.015838873 0.039775442 0.29657716 0.31292352 0.27471906 -0.12831569 -0.28331572 -0.12547094 0.083735555 -0.043263145 0.08374024 0.3045037 0.31760132 0.42677504 -0.27242488 -0.49191412 -0.29354772 -0.13452955 0.021512184 0.41852057 0.6091914 0.3793707 0.42661738 0.47201023 0.4823264 0.07691207 -0.15944044 0.36103615 0.49636072 0.4280523 0.40215814 0.45068282 0.51661867 0.52205515 0.49180478 0.4962371 0.4664169 0.33132282 0.2144128 0.071099654 -0.18423451 -0.060038455 0.3194491 0.26521033 0.450878 0.020186558 -0.10393702 -0.012005299 0.11726196 0.12495356 0.07889691 0.055072308 0.014239856 0.62534297 0.13625582 0.15647013 0.04585635 0.09205531 0.14923927 0.64623225 0.6940061 0.6629541 0.6452386 0.5917938 0.49177223 0.19032484 0.080028355 0.10660472 0.18632606 0.6060592 0.5036468 0.18612474 0.13431412 0.17368186 0.5651738 0.49228248 0.34883028 0.21409425 0.15427455 0.45700818 0.40407366 0.28582734 0.19051896 0.76012486 0.62257063 0.5554885 0.3783589 0.33620864 0.099441916 0.4104081 0.3551535 0.34442103 0.35045323 0.79187274 0.61810637 0.49686837 0.36475587 0.22717805 0.22447209 0.17171398 0.13996178 0.18825294 0.17818993 0.11826811 0.057538018 0.3772523 0.3648354 0.34189242 0.45849803 0.7715651 0.7277943 0.64307916 0.4827702 0.36519533 0.07909542 0.07256172 0.19108003 0.21262203 0.17530003 0.2858547 0.4966994 0.44951573 -0.41130796 0.4608862 0.6727407 0.61908925 0.5706742 0.45680988 0.25044185 0.026061881 -0.061483763 0.08145599 0.5515742 0.5075332 -0.1861831 -0.4785967 -0.5498101 -0.37704992 0.40511957 0.55036336 0.45556515 0.3852736 0.25138992 0.10590896 0.20677018 0.600497 0.37973785 0.37418982 0.021143146 -0.0013051927 0.3035152 0.1428624 0.13189876 0.07752468 0.17007095 0.59475064 0.58681333 0.32781464 0.26250088 0.2209506 0.22713622 -0.08408859 0.12690106 0.24269657 0.33487526 0.2694949 0.2701191 0.20542681 0.18875647 0.5037646 0.5450915 0.5287952 0.045768738 -0.042333297 0.12880427 0.2098879 0.19099396 0.19796379 0.44136074 0.46537724 0.38829947 0.29600096 0.24592654 0.15768453 0.26716775 0.3862692 0.26436567 0.37763816 0.44443658 0.50191426 0.11985039 0.07263021 0.07915143 0.29212463 0.26537514 0.26625198 0.4867664 0.5062866 0.49436617 0.4114653 0.2615606 0.49334693 0.4982564 0.47208506 0.5947101 0.61641264 0.6239396 0.52552545 0.55188054 0.58389556 0.5924359 0.47413853 0.4873771 0.5328272 0.38578832 0.16184604 0.120075464 0.106366456 0.14262266 0.30039245 0.2739075 0.2650837 0.3024354 0.17920738 0.2387754 0.25913364 0.24156934 0.20990732 0.24120109 0.19331767 0.23005432 0.22407617 0.4084023 0.43902528 0.48320842 0.4806574 0.4979371 0.16290396 0.14061151 0.3941546 0.42577612 0.46698612 0.49064636 0.50614625 0.48119086 0.51438 0.52528393 0.52269363 0.08719246 0.2823634 0.55686164 0.6551988 0.6665722 0.4418195 0.4932927 0.5132567 0.52947605 0.503099 0.4296497 0.12314141 -0.2407202 -0.23580678 -0.037141398 0.70130134 0.7119554 0.4673163 0.49033058 0.47318366 0.02186329 0.09332949 0.73234797 0.41659492 0.44366866 0.40065277 -0.068829276 -0.03457299 0.61548084 0.665573 0.36687613 0.36756265 0.29971427 0.04659701 -0.028509252 -0.039893895 0.41215497 0.45904613 0.2576853 0.09833892 0.00763914 -0.013970634 0.20774445 0.26327962 0.6568393 0.5528134 0.09820135 0.12738809 0.2460483 0.25475827 0.6381736 0.6621175 0.61208516 0.054313876 0.08678661 -0.43442026 0.60908026 0.65408564 0.65860534 0.5853841 0.46052068 0.2526456 0.22639632 0.09889271 0.36658087 -0.2887297 -0.49281478 0.6114649 0.6586149 0.6689759 0.547462 0.4006344 0.38785577 0.26918384 0.3128537 0.34648675 -0.335372 0.2058702 0.19717318 0.57812834 0.6356948 0.5915071 0.42834958 0.30364713 0.28402525 0.38815418 0.45086575 0.4300651 0.03677237 0.04761459 -0.12537473 -0.039444886 0.5399102 0.53797495 0.46236804 0.33215505 0.13046412 0.12620085 -0.064338736 -0.016960371 0.08879858 0.62483454 0.5995384 0.5235283 0.118304804 0.108239494 0.076677956 0.16583592 0.20555851 0.5915003 0.43679386 0.43448153 0.3751101 0.35029012 0.13101521 0.23625636 0.34008288 0.4535219 0.2144239 0.2057982 0.15046805 0.23946896 0.38046443 0.33907616 0.21547319 0.09361578 -0.004417573 0.14304364 0.41819522 0.409613 0.37044978 0.06548903 0.2998274 0.1223178 0.062618524 0.2684272 0.18922463 -0.03621012 -0.21223073 0.28378603 0.4162067 0.8402417 0.8454723 0.48657268 0.25184482 0.35600078 0.23584695 0.052351154 0.060910378 0.2839861 0.26023686 0.48620188 0.7713825 0.799611 0.18748772 0.12889025 0.25093243 0.19388226 -0.2356531 0.31376457 0.5025014 0.7498747 0.74039996 0.113484845 -0.0061922222 0.049807347 0.507126 0.68060565 0.6176688 0.10428831 -0.039791226 0.4098314 -0.19059622 -0.16734985 0.4855526 0.59627336 0.55325955 0.45845473 0.4764277 0.30823144 0.30009532 0.410069 0.49190223 0.51571184 0.45591494 0.34963524 0.21700941 0.15360273 0.5350855 0.22531071 0.24052161 0.13517675 -0.32897332 0.33803993 0.2399887 0.537239 0.5431186 0.2734356 0.24449661 0.49617237 0.49652398 -0.022376524 -0.018467594 -0.086723894 -0.14411968 0.06917532 0.10972605 0.45541865 0.5155201 0.54019 0.65695715 0.36670387 0.034121834 0.12047312 0.27472737 0.3677225 0.029562533 0.077237815 0.15973298 0.14396308 0.065112546 0.067519054 -0.01920006 0.5651914 0.5953347 0.63664997 0.39606333 0.46655318 0.3618015 0.28383484 0.12853648 0.085461676 0.17081895 0.4713537 0.46997714 0.441704 0.39013636 0.5563016 0.6044164 0.6374811 0.65694344 0.47139823 0.53393316 0.5884471 0.63202894 0.6366122 0.60058445 0.47153538 0.48916635 0.57697654 0.53960145 0.37699196 0.48161674 0.36236766 0.07154437 0.06505991 0.3615329 0.62168896 0.61131 0.15251881 0.0727309 0.61082923 0.6069058 0.59035766 0.12937853 0.15436333 0.13253279 0.09277442 0.14468677 0.14143768 0.15002403 0.16589981 0.16264889 0.16828723 0.12932864 0.35558408 0.42978722 0.46396095 0.48874587 0.49302405 0.4524324 0.4298823 0.38873947 0.4143055 0.051992692 0.061151624 0.29772174 0.4978292 0.5056363 0.53422344 0.40202743 0.48638445 0.4726251 -0.0015571266 -0.042889543 -0.3139654 0.59522545 0.640749 0.40000963 0.37619752 0.070087604 0.69828856 0.7419528 0.2579741 0.3462457 0.6866141 0.2274214 0.2731637 0.43780178 0.27011588 0.22727302 0.09833761 0.286571 0.6062561 0.63405097 0.62183034 -0.10165074 -0.108514145 0.27148548 0.55544436 0.5994146 0.47359556 -0.1216908 -0.17003888 0.25483835 0.29125398 0.5708798 0.59912646 0.30014586 -0.0861123 -0.2920398 0.16400346 0.5252458 0.56790614 0.09348057 -0.0011318661 -0.27168295 -0.31794643 -0.35977942 -0.10791305 0.49294752 0.5380947 0.21296746 0.15310466 0.13032126 0.21347149 0.3808938 0.31936914 0.15309983 0.048615888 -0.08613391 0.46610844 0.42206618 0.26933938 0.19737726 0.048369683 0.116369225 0.29727292 0.36597052 0.26844037 0.14414622 -0.052616805 0.019832104 0.1325057 0.40238672 0.3658648 0.24956012 0.50370073 0.20878515 0.43244946 0.042482648 0.22944817 0.39200425 0.54642797 0.42922843 0.2285859 0.026187167 0.32440305 0.11240149 0.013496831 -0.025880268 0.2925409 0.2032304 0.29488212 -0.07568626 0.024635086 0.08593591 -0.10976803 0.3587211 0.40166068 -0.005426377 -0.10325298 0.042225316 -0.31314832 0.4061458 0.8108487 0.8431022 0.7906987 0.10870527 0.5141842 0.5187369 0.77000844 0.7981477 -0.2778774 0.53193086 0.72782063 -0.26892355 0.54629797 0.5465717 0.6957858 0.6788496 0.5218471 0.6035225 0.38406414 0.16145572 -0.013864391 0.09772889 0.57819176 0.58863425 0.55202425 0.49918675 0.43606797 0.37056142 0.09904404 0.13354087 0.13831043 -0.30454832 -0.3398209 0.17675036 0.13152087 0.07825529 0.22829276 0.63635206 0.651675 0.32394356 0.42203552 0.38630122 0.005789036 -0.01754529 -0.17544705 -0.20108455 0.28441808 0.3518302 0.2598471 0.17365214 0.5035467 0.72119427 0.74204266 0.21442533 0.33449298 0.086496904 -0.08445153 -0.012460783 -0.014999598 0.27403876 -0.11937535 0.59886205 0.65914357 0.6965829 0.71937215 0.77362823 0.76845956 0.28000727 0.1848932 -0.096491486 0.002822712 0.047886074 0.1963397 0.05215869 0.23464938 0.20764734 0.058951437 0.12296356 0.16029568 0.31063724 0.673522 0.7228846 0.3769933 0.42803043 0.26667604 0.23640527 0.06719129 0.13212228 0.36077935 0.38028023 0.3991568 0.4040951 0.35500413 0.39121234 0.44393387 0.46749216 0.49543136 0.4740642 0.5264053 0.5683533 0.5081545 0.5242369 0.53502667 0.5226897 0.6035375 0.53513473 0.55444586 0.5589899 0.5929574 0.6443602 0.67060125 0.4668221 0.54204726 0.6034373 0.6370814 0.672081 0.6641846 0.35746187 0.43283933 0.60121727 0.32178617 0.38508016 0.4581591 0.4582183 0.13077271 0.33752066 0.28115165 0.64207155 0.61967814 0.5891448 0.54492843 0.007952794 0.05365676 0.013579845 0.027696498 0.6848158 0.66994 0.6371316 0.62345266 0.605