# vtk DataFile Version 2.0
Really cool data
ASCII
DATASET POLYDATA
POINTS 10052 float
-45.565414 -16.193485 53.51597
-45.509426 -15.999373 53.907166
-44.66128 -18.143196 53.80859
-44.822186 -18.182896 54.512005
-44.731674 -18.07332 55.179863
-44.769043 -16.968191 52.253387
-44.978966 -17.055235 52.559143
-45.258865 -17.13782 53.43975
-45.186584 -17.40183 54.369007
-44.88318 -17.5289 55.152126
-44.88531 -16.590023 52.251854
-45.278324 -16.39997 52.786926
-45.44819 -16.501656 53.406082
-45.33559 -16.366003 54.454815
-45.011658 -16.51692 55.051727
-44.903946 -15.90121 52.31296
-45.10945 -15.678365 52.737103
-45.370724 -15.524558 53.60309
-45.217873 -15.435123 54.411167
-45.01323 -15.597772 54.813614
-44.90264 -15.099477 53.080215
-45.011444 -14.987051 53.596073
-45.050945 -15.053252 54.218346
-43.6204 -23.283655 49.763443
-43.716118 -23.231817 50.53988
-43.625557 -23.314846 51.126842
-43.699303 -22.551958 49.825283
-43.929157 -22.379387 50.577953
-43.915955 -22.34899 51.381516
-43.81614 -21.75316 50.12742
-43.94785 -21.63803 50.61716
-43.93248 -21.577045 51.16908
-43.736824 -21.049994 50.65074
-43.6522 -20.91042 51.448166
-43.952427 -19.0351 53.86988
-43.93498 -19.20639 54.545162
-43.960682 -18.780008 55.35124
-43.856415 -18.041563 52.244144
-44.051342 -18.19501 52.615837
-44.314686 -18.497189 55.34355
-44.18987 -17.886717 55.811382
-44.503345 -17.054806 52.12006
-44.639362 -17.438295 52.475662
-44.59883 -17.269339 55.572735
-44.393 -17.582024 55.74979
-44.364883 -16.549004 51.991566
-44.496494 -16.584959 55.610252
-44.106346 -16.584795 55.816315
-44.458397 -15.704615 52.20889
-44.60309 -15.40915 52.45978
-44.468647 -15.551776 55.159336
-44.297073 -16.166132 55.61844
-44.305214 -14.964879 52.75776
-44.48918 -14.673668 53.596024
-44.460983 -14.80212 54.432278
-44.334167 -14.957161 54.75603
-44.038647 -14.485411 53.826603
-42.694496 -24.701176 50.047634
-42.70939 -24.720396 50.35555
-42.882492 -24.073912 49.003468
-43.001846 -24.283533 49.620956
-43.191727 -24.17118 50.504585
-43.059174 -24.091713 51.355488
-43.09724 -23.415842 48.820778
-43.440968 -23.396818 49.412933
-43.513927 -23.64216 50.139202
-43.37739 -23.478842 51.41331
-43.136814 -23.217533 52.197773
-43.0351 -22.723364 48.736946
-43.483547 -22.576702 49.333485
-43.4522 -22.105566 52.33607
-43.067604 -22.052343 49.05557
-43.214222 -21.588469 49.600437
-43.00991 -21.35335 52.560547
-42.758774 -21.48754 53.077442
-43.421646 -21.071507 50.165634
-43.43242 -20.887836 50.515972
-43.2326 -20.653734 51.280552
-42.93338 -19.959087 52.694122
-43.150036 -20.107796 53.759518
-43.15893 -20.01985 55.294453
-43.470284 -19.393856 52.892258
-43.42053 -19.6525 54.60525
-43.61267 -19.04594 55.59554
-42.921608 -19.30947 55.961468
-42.69859 -18.90111 60.065147
-42.741974 -18.933176 60.42533
-42.968246 -19.112272 61.66026
-42.89786 -19.13924 62.427174
-42.7921 -18.963774 62.914326
-43.193485 -18.60072 52.038647
-43.45973 -18.730612 55.64105
-43.29719 -18.26496 55.935978
-42.66983 -18.532637 59.890896
-43.026417 -18.371046 60.90105
-43.17485 -18.30947 61.574615
-43.178818 -18.485071 62.39894
-42.882496 -18.453867 63.014477
-42.684505 -17.89959 60.191956
-42.851765 -17.73472 60.74926
-43.103683 -17.828447 61.636456
-43.111988 -17.868086 62.353188
-42.942898 -17.909376 62.884327
-43.67244 -16.293543 51.927444
-43.320942 -16.614027 56.103935
-42.829494 -17.29756 62.207024
-43.698994 -15.54801 52.126183
-43.849403 -15.8611355 55.539406
-43.188023 -16.103394 55.88365
-43.803093 -15.210265 52.320103
-43.51395 -14.850138 52.706005
-43.736897 -14.575487 53.365646
-43.6073 -14.6708355 54.192135
-43.79827 -15.076316 54.94112
-41.75409 -26.227211 53.983463
-41.89586 -26.201075 54.52227
-41.78261 -26.328245 55.21373
-41.66567 -26.156923 55.847584
-42.30653 -24.880663 49.734665
-42.212822 -25.23959 50.543507
-41.94415 -25.4379 51.251343
-41.87318 -25.049555 53.208527
-42.216904 -25.377625 54.79517
-42.116844 -25.321478 55.536762
-41.874878 -25.350712 56.202454
-41.924255 -24.881159 57.113953
-42.260193 -24.251217 48.767525
-42.56134 -24.574718 49.53659
-42.30753 -24.371357 52.401882
-42.1469 -24.959145 54.558228
-42.181595 -24.575716 56.51146
-42.211113 -24.082783 57.50356
-41.910004 -24.108917 58.03615
-42.65285 -23.369583 48.398098
-42.332085 -23.441982 53.019844
-42.21471 -23.50912 55.69114
-42.369682 -23.452229 56.46347
-42.333004 -23.586292 57.397156
-42.06206 -23.648024 58.003677
-42.350204 -22.836945 48.373295
-42.37191 -22.488878 48.483902
-42.061836 -22.002598 53.58796
-42.067352 -22.341896 56.429962
-42.141224 -22.513063 57.56118
-41.92592 -22.827263 58.240067
-42.50429 -21.748194 49.088684
-42.22079 -21.333874 54.247715
-41.79147 -21.606028 55.104916
-42.062744 -21.357841 57.257565
-41.797806 -21.558125 58.158688
-42.536373 -20.727373 50.205334
-42.25534 -20.580164 50.771126
-42.132343 -20.583714 56.141174
-41.7824 -20.675283 57.352074
-42.14084 -20.041113 61.57477
-42.087246 -19.94891 62.37404
-42.493587 -20.371727 51.158817
-42.04717 -19.087185 56.66128
-42.452057 -19.046125 59.840843
-42.567535 -19.228079 60.351433
-42.582024 -19.454283 62.56145
-42.27994 -19.13529 63.15637
-42.55558 -18.472885 51.80451
-42.35907 -18.497105 63.370354
-41.95906 -18.844894 63.552723
-42.356533 -17.731398 59.819942
-42.52588 -17.56618 60.282986
-42.344685 -17.690905 63.22263
-42.832993 -16.122032 52.111786
-42.444366 -16.384264 56.027775
-42.04383 -17.196838 60.07493
-42.31886 -16.96791 61.403328
-42.573814 -17.243494 62.580185
-42.26349 -17.268553 63.005615
-42.44994 -16.090134 52.225113
-42.89178 -15.306844 52.42683
-42.247356 -16.115187 55.8074
-42.91901 -14.999517 52.733204
-42.870167 -14.781033 53.512188
-42.79772 -14.961439 54.229687
-42.505726 -15.3603525 54.89382
-41.39902 -26.665174 54.669323
-41.095207 -26.81859 55.330154
-40.958126 -26.666822 55.92564
-41.18058 -25.627218 50.074116
-41.49059 -25.704327 50.479984
-41.07567 -25.79535 51.61219
-41.629074 -26.554623 54.686337
-41.520115 -26.515862 55.42302
-41.423115 -26.188276 56.11135
-40.980156 -25.887218 56.932083
-41.276943 -24.686064 48.98159
-41.3903 -25.49114 49.977898
-41.73541 -25.559874 50.516537
-41.558155 -25.54793 51.556717
-41.405518 -25.23462 57.429207
-41.253105 -24.86932 58.041924
-41.427177 -24.244349 48.732193
-41.38753 -24.509161 58.246597
-41.13828 -24.068125 58.825375
-41.973213 -23.552904 48.25024
-41.234837 -23.55217 58.89476
-41.67292 -22.553799 48.461285
-41.22733 -22.314354 59.236294
-41.44322 -21.119785 58.6327
-41.231953 -21.677225 59.060074
-40.859444 -20.693178 60.395718
-41.0058 -20.833523 62.256195
-41.90971 -21.215483 49.950317
-41.509373 -20.267323 58.0977
-41.199913 -20.501333 59.617832
-41.570244 -20.496748 61.849186
-41.42715 -20.420252 62.47211
-41.377594 -19.933607 63.189877
-41.69944 -19.469713 51.8434
-41.410942 -19.624676 58.973526
-41.614487 -19.691048 59.55309
-41.297966 -19.40882 63.56817
-41.303413 -19.156137 63.673584
-41.0874 -18.584898 51.95045
-41.405415 -18.53517 57.269817
-41.422123 -18.630722 58.688858
-41.18402 -18.377848 63.79138
-41.631798 -16.963116 52.205482
-41.34412 -16.36442 55.26544
-41.93643 -16.698368 55.98309
-41.27622 -17.088621 59.767387
-42.091167 -15.924443 52.67437
-42.082977 -15.472847 53.39788
-41.896633 -15.686888 54.64561
-41.6704 -16.283422 54.984745
-40.854107 -15.095582 59.55021
-40.94279 -15.019445 60.22189
-41.272926 -16.021202 61.748814
-41.06804 -15.40655 63.45908
-40.647938 -15.140463 64.29184
-40.972565 -14.11877 59.552094
-41.09088 -14.383438 60.56938
-41.180622 -14.181186 61.222347
-41.078587 -14.769587 62.605537
-40.86304 -14.441533 63.502903
-40.70583 -14.578414 64.13609
-40.77976 -13.8077135 59.24049
-40.867565 -13.525076 59.535114
-41.00117 -13.490345 60.600163
-40.78376 -13.230275 61.954716
-40.78079 -13.527133 62.513397
-40.684204 -13.559525 63.343105
-40.721737 -11.651664 44.731197
-40.741653 -13.080903 59.67579
-40.844 -12.996621 60.53092
-40.69348 -12.982459 61.6211
-40.60595 -12.996345 62.444626
-40.862568 -11.151608 43.810432
-40.930313 -11.296677 44.58833
-40.86678 -11.1083975 45.378464
-40.681793 -10.339643 43.208256
-41.03837 -10.650012 43.847744
-41.19613 -10.455445 44.547413
-41.073303 -10.468884 45.289078
-40.777966 -10.451738 45.87814
-40.818497 -9.431656 43.608887
-41.06566 -9.68172 44.51796
-40.90651 -9.751206 45.408165
-40.74805 -10.000503 45.81001
-40.67533 -8.612307 43.814224
-40.703564 -8.736859 44.33026
-40.872585 -9.191849 44.885025
-40.882416 -26.770016 54.125813
-40.570057 -26.955324 54.623013
-40.50459 -26.994598 55.603897
-40.393986 -26.876259 56.189415
-40.406097 -25.659302 50.060055
-40.781906 -25.718142 50.236244
-40.80355 -25.58121 51.825985
-40.285778 -26.052404 53.04559
-40.217644 -26.257858 57.005455
-40.795876 -25.505445 52.13854
-40.53531 -25.140638 58.207138
-40.339825 -24.726784 58.831554
-39.556908 -24.14135 44.306232
-40.054058 -24.1535 48.0757
-40.759563 -24.52269 48.72954
-40.421303 -24.42712 59.06059
-40.013214 -23.934296 59.970497
-39.776134 -23.188189 43.438946
-40.002132 -23.172516 44.69975
-39.70651 -23.148193 45.431297
-40.082954 -23.550533 47.8495
-40.37991 -23.60405 59.675846
-39.99406 -23.458292 60.280266
-39.922382 -22.331772 42.85165
-40.24832 -22.253725 43.65249
-40.217186 -22.63159 44.136314
-40.025898 -22.279846 45.32863
-39.843407 -22.528994 46.110096
-40.338886 -23.040117 48.185158
-39.643005 -21.781288 42.159916
-40.05876 -21.5186 42.925755
-40.30205 -21.452778 43.539387
-40.32326 -21.721169 44.355103
-39.553417 -21.600704 46.631096
-39.6098 -22.019669 47.24208
-40.892437 -22.077 48.733315
-40.734085 -21.467035 49.36195
-40.54403 -21.47669 60.78194
-40.560036 -21.27869 61.686123
-40.2397 -21.008432 62.508602
-40.530014 -20.68971 62.94167
-39.876728 -20.646872 42.923893
-40.135918 -20.715975 43.58462
-40.060337 -20.708559 44.602055
-39.805283 -20.652876 45.29007
-39.9954 -20.72178 49.670307
-40.422146 -20.280006 63.401108
-40.346775 -19.898438 63.66649
-39.70784 -20.235857 43.126816
-39.89467 -20.24868 43.593235
-39.853832 -20.102032 44.3003
-39.77378 -19.760305 50.14928
[...]
POINT_DATA 10052
SCALARS features_00 float 1
LOOKUP_TABLE default
0.8833201 0.900567 0.60179013 0.5476295 0.5383522 0.7189061 0.7173639 0.7681626 0.7157062 0.62046933 0.7748797 0.8245748 0.8456631 0.8242302 0.7400565 0.8488145 0.8895812 0.9355842 0.89931583 0.8387921 0.9471017 0.960181 0.93294847 0.6645555 0.6238805 0.57972455 0.6903492 0.6709085 0.6390761 0.6808853 0.66864085 0.65274286 0.6416886 0.61914825 0.40669313 0.37305385 0.41350478 0.5516679 0.5441084 0.465002 0.5133957 0.681892 0.6454092 0.6299863 0.5731722 0.73991275 0.69697064 0.68047684 0.85469055 0.8927113 0.7877978 0.71803 0.9280212 0.9639478 0.91551137 0.86815214 0.94935215 0.53411096 0.5184324 0.6468656 0.59730995 0.5599946 0.4922151 0.7109438 0.6829317 0.62120485 0.5310818 0.42776835 0.70491993 0.70592046 0.47902083 0.6698508 0.6501224 0.32073832 0.09220032 0.62584996 0.61526364 0.57928294 0.15375753 0.18855241 0.16972876 0.34666735 0.28334075 0.34676215 0.20332149 0.461753 0.5046984 0.7196128 0.713582 0.6884602 0.4575177 0.35266018 0.37264487 0.4643879 0.6116966 0.7220918 0.7753487 0.7302539 0.52658844 0.5873424 0.70836556 0.76672316 0.7564615 0.7552457 0.6786251 0.6983545 0.8251507 0.7186029 0.68531334 0.861538 0.8838451 0.94015837 0.9051904 0.81226826 0.40843087 0.4315833 0.43470466 0.4254989 0.508865 0.45783114 0.41291082 0.28119156 0.40031415 0.41328877 0.41582114 0.4142261 0.591161 0.5518778 0.35148445 0.3479552 0.41769803 0.41818595 0.4070819 0.6873838 0.23263869 0.29589862 0.37074804 0.40315294 0.40413976 0.63426685 0.6145023 0.04347998 0.19604662 0.28620994 0.3381485 0.5697658 -0.11883212 -0.0995112 0.07619174 0.11645643 0.48388767 0.3658003 -0.05765503 -0.024563849 0.5217138 0.53144574 0.35910597 0.029447868 0.4042436 0.44960734 0.6322522 0.59655714 0.2809391 0.6420667 0.54112464 0.45767894 0.525415 0.6699138 0.6899281 0.53147376 0.43718114 0.53336537 0.6865213 0.63669217 0.6739266 0.78473806 0.48477757 0.8215971 0.8717927 0.8067215 0.6001533 0.4281823 0.42081463 0.40719265 0.38836294 0.39103594 0.32775587 0.43545854 0.43207556 0.4172568 0.38722813 0.43795452 0.41504925 0.41401368 0.37964174 0.39014524 0.37114453 0.47502276 0.37944144 0.3691721 0.5914254 0.37901294 0.5129186 0.2538622 0.0062419306 0.094372064 0.21142888 0.35747474 0.38258266 -0.11431129 0.02090472 0.40348694 0.42869985 0.44726333 -0.21646392 0.06725942 0.20397007 0.42867005 0.42100942 -0.17809655 -0.110936016 0.2266376 0.38592094 0.25630045 0.25606534 0.3708139 0.24098566 0.6728093 0.76566684 0.4248134 0.3041317 0.32702437 0.33817822 0.19180332 0.31289336 0.3620193 0.39086527 0.36348733 0.3121456 0.27805346 0.3273443 0.35310435 0.39007333 0.39799055 0.37018678 0.2771133 0.2673487 0.28737897 0.6660917 0.39463264 0.37008715 0.29914755 0.25824708 0.70930064 0.70843935 0.6197203 0.6111796 0.7100499 0.71292126 0.62658274 0.53174216 0.6031945 0.6174457 0.5168927 0.4967656 0.5383117 0.532286 0.52459204 0.3429313 0.36995015 0.39265168 0.37701467 0.30064505 0.33786088 0.30547482 0.14785112 0.36004072 0.30141473 0.32685915 0.32788518 0.33320364 0.23055142 0.358739 0.3373187 0.32856423 0.4242331 0.34370154 0.26951227 0.15621343 0.32507527 0.28227875 0.5554356 0.5264669 0.4389414 0.32204124 0.1910006 0.23013218 0.5958594 0.60769 0.58448887 0.49992815 0.10858652 -0.04947512 0.32050556 0.17639737 0.22816288 0.2967442 0.2932225 0.33908778 0.544354 0.5262606 0.4547931 0.3359395 -0.18154338 0.33823192 0.32645354 0.47107735 0.4526484 0.39255083 -0.17616184 -0.18721515 0.3159806 -0.11778766 -0.34400052 0.2539535 -0.35112134 0.23212934 0.20122588 0.082780346 0.10874856 0.27003404 0.31684 0.29069477 0.24929473 -0.16412255 0.22051542 0.36161983 0.33603472 0.35744047 0.3620739 0.3617754 0.33071643 0.36809897 0.34156436 0.35968152 0.6570489 0.6401006 0.5685902 0.47284752 0.3383425 0.38032758 0.38090527 0.36538896 0.2545864 0.25947854 0.30773756 0.58927864 0.6526748 0.5748423 0.4705214 0.41983983 0.33192784 0.31881553 0.28419966 0.255041 0.31934178 0.4637925 0.5507368 0.41435468 0.39608258 0.58818674 0.5230806 0.4123311 0.3935784 0.46492139 0.52390015 0.53029627 0.48805094 0.44188535 0.39796847 0.3667565 0.48693234 0.5000079 0.5031763 0.47366005 0.44053322 0.1365819 0.35352898 0.49824214 0.53168523 0.51319396 0.45518488 -0.046973858 0.18004845 0.3232907 0.41909307 0.4219592 0.3406238 0.36850214 0.21610564 0.2000898 0.12554164 0.32853594 0.30595157 0.33308896 0.36578685 0.35060856 0.27767533 0.34072468 0.32067978 0.49736258 0.45432693 0.283701 0.23667997 0.5613645 0.5468459 0.13532224 0.1565833 0.5888245 0.59547234 -0.062230214 0.18089098 0.25093687 0.59954643 0.55395395 0.0933031 -0.033025257 0.23854223 0.246115 0.46234232 0.38503763 0.25918898 0.21850541 0.051787145 0.028484188 0.25196126 0.7548937 0.7815912 0.75507987 0.13088407 0.19069664 0.075462446 -0.004060589 -0.1761247 -0.3272252 0.2159425 0.19019437 0.6678033 0.7466414 0.7851883 0.7140771 0.23946679 0.21750823 0.14855081 0.06576601 -0.10012008 -0.1462 0.1758326 0.5988586 0.71749806 0.7137015 0.63514364 0.11947421 0.0474438 0.0962668 0.18657798 0.51270664 0.6039134 0.5982951 0.6001451 0.55748904 0.27446747 0.30367443 0.067741066 0.21735965 0.30276752 0.53052634 0.56337297 0.5821376 0.57138234 0.24907449 0.26000333 0.22274767 0.139435 0.3417548 0.42881024 0.5082556 0.5486936 0.5466569 0.27633694 0.32788718 0.4090345 0.4161773 0.4987805 0.56932867 0.5003117 0.4746486 0.38575375 0.34783614 0.24957281 0.30057558 0.35914686 0.42936763 0.3891102 0.3734041 0.3671058 0.28428987 0.33106127 0.16747764 0.4346571 0.5575507 0.37570035 0.33439675 0.3124805 0.25760397 0.51888686 0.6695961 0.672572 0.645554 0.41174 0.34863847 0.27594024 0.54874945 0.67080927 0.72243476 0.71633255 0.39154765 0.45289367 0.3176523 0.48619115 0.5258539 0.68503547 0.716017 0.43297055 0.46356797 0.40653422 0.33077598 0.5389682 0.5760864 0.67131877 0.7358992 0.4524042 0.47143462 0.44460192 0.34848824 0.5798467 0.6544564 0.74693227 0.7893433 0.4017609 0.3823566 0.5753631 0.60240084 0.3170727 0.57815486 0.5781228 0.5948715 0.53728807 0.4997571 0.31584913 0.2108642 0.26205164 0.53951746 0.55021244 0.12108548 -0.1492854 -0.021645535 0.48172426 0.4530548 0.059521563 0.2895127 0.41803905 0.28588903 0.2914132 0.51959485 0.4712732 0.21670945 0.53872967 0.16104972 0.58847374 0.15868722 0.60334647 0.18642396 0.6745368 0.5250564 0.3527553 0.29056105 0.12784079 0.6596456 0.7088214 0.7436069 0.14800486 0.14525586 0.17415266 0.550524 0.57601637 0.6432934 0.51798856 0.24978574 0.28878754 0.2942093 0.20985988 0.16381703 0.518188 0.55038387 0.53827 0.4179936 0.34325922 0.32833412 0.19903204 0.14423977 0.17330003 0.48942697 0.49288094 0.11584952 -0.17458862 -0.014113963 0.45425683 0.42924753 0.5327476 0.20312321 0.22647873 0.052607987 0.029237062 0.36165863 0.38980168 0.5099577 0.293118 0.14772035 0.100166515 -0.016071588 0.1711996 0.18766941 0.31854242 0.3333545 0.40022272 0.44477105 0.31799796 0.3174082 0.34591144 0.33104002 0.2866857 0.2503816 -0.013476055 0.041032173 -0.026751183 -0.08647897 -0.19948928 0.12882131 0.4343524 0.3143052 0.32057643 0.2814084 0.22626376 0.18048048 -0.035659075 -0.0785573 0.18778607 0.08589323 0.56101364 0.49467957 0.27320924 0.22556207 -0.13621998 -0.018026073 0.008975647 -0.22630899 0.18085492 0.18696459 0.15756015 0.028373286 0.6407827 0.59592396 0.26750845 0.16588181 0.118772864 0.31883484 0.3480006 0.3753671 0.36824238 0.564495 0.63637763 0.7399876 0.7131727 0.8809047 0.8332305 0.374535 0.3675061 0.4386192 0.43309167 0.4679001 0.5081136 0.598446 0.68638325 0.7335068 0.9019276 0.8475876 0.74270463 0.3301669 0.383678 0.19995023 0.39128327 0.46292424 0.5141284 0.6375145 0.7406297 0.90425545 0.8521879 0.76002586 0.7231538 0.40312845 0.4166414 0.35867095 0.2585723 0.5016397 0.580415 0.68108714 0.7552824 0.83416694 0.84977996 0.8221425 0.7979248 0.7731744 0.31563678 0.33826086 0.35851306 0.6672317 0.7378076 0.8052732 0.8457228 0.55876464 0.6608442 0.75812083 0.81898 0.43939698 0.45731884 0.5709358 0.74047875 0.7903738 0.57660335 0.53505236 0.36838195 0.40634274 0.38787097 0.7203505 0.5915304 0.6300211 0.60899204 0.5502671 0.5007384 0.3474043 0.53530216 0.5632662 0.29871947 -0.26287135 0.30541247 0.08414499 0.13234027 0.19833727 0.42134094 0.17204046 0.15956646 0.49569482 0.16620162 0.5100713 0.15443808 0.5167041 0.11810742 0.119622834 0.059384476 0.52747583 0.56806463 0.58571494 0.6441166 0.613212 0.22360015 0.11255365 0.53933156 0.5670605 0.3246258 0.23729481 0.4253242 0.5265437 0.52910066 0.33098638 0.29910213 0.42950925 0.15309067 0.32302028 0.41997933 0.45928496 0.5292325 0.5083765 0.44174284 0.3077274 -0.14877495 0.40846545 0.44627768 0.48662096 0.46590376 0.046277534 0.35579446 0.37126824 0.36556047 0.4319361 0.06194283 0.13131973 -0.18693244 0.3019953 0.349084 0.31898195 0.044796586 0.0631094 0.19960004 0.14578006 -0.16029702 -0.047154557 0.31359208 0.27867872 0.24218276 0.23109852 0.28934813 0.019214883 0.04770069 0.019469976 -0.15632395 -0.055636592 -0.20369479 0.55669796 0.21417066 0.15687124 0.1704901 0.004202768 0.039382517 -0.04262907 -0.064407244 -0.027789801 0.64959407 0.59328455 0.80910754 0.7724207 0.67504114 0.024284258 0.33164445 0.28098777 0.43632865 0.6948552 0.88860166 0.8650243 0.82949936 0.552588 0.42836404 -0.01918184 0.053709738 0.23644839 0.59307516 0.53643334 0.58803725 0.6739038 0.7230373 0.7366341 0.9470489 0.5589222 0.48408782 0.1495703 0.11914059 0.1688064 -0.07911943 -0.011799315 0.0028330144 0.00041095167 -0.024544023 0.10145435 0.26793766 0.74143004 0.94407856 0.9111716 0.6700182 0.64277077 0.18577537 0.21107134 -0.07452055 0.024703879 0.04818403 0.37058267 0.4731605 0.55222154 0.8349298 0.85108465 0.78457105 0.79399693 0.76160085 0.71446115 0.28037146 0.34037796 0.28810877 0.18168741 0.15319702 0.13208422 0.63167745 0.7601037 0.8753826 0.8654398 0.8335967 0.7604097 0.77672005 0.7577904 0.72326875 0.3712663 0.30614826 0.23280172 0.46809915 0.5528978 0.7173117 0.84240067 0.84687686 0.41506475 0.43354625 0.47772163 0.82386357 0.76155585 0.36910585 0.40930068 0.7416842 0.56555206 0.59345347 0.5355596 0.4851695 0.4031763 0.19779055 0.45789093 0.5035646 0.08313205 0.28363022 -0.35640377 -0.4056216 0.121573776 -0.3244239 0.04014188 0.14160646 0.28900835 0.28397626 0.12723851 0.31388238 0.15719292 0.43621415 0.0133729875 -0.09695499 0.441083 0.4473204 -0.09422897 0.49932566 0.48877558 0.52256966 0.28898087 0.25313592 0.23308726 0.11970331 -0.07280538 0.27305377 0.35279244 0.3802306 0.5208527 0.22255054 0.303863 0.37705296 0.4038126 0.41570997 0.54466337 0.32625633 0.34359333 0.36702245 0.4212631 0.4572974 0.45607033 0.52206016 0.33624578 0.40935752 0.38268077 0.22296213 0.10452291 0.426086 0.4530032 0.5051201 0.1095956 -0.60767543 -0.32715085 0.3596058 0.40301642 0.4821111 0.09313372 0.08487281 0.082033314 0.07517682 0.058312975 0.14010392 -0.0006721914 -0.08013664 -0.061769173 0.27806714 0.3150924 0.049527295 0.061609708 0.051641613 0.503138 0.007998038 -0.14291976 -0.16667888 0.026381448 0.019183472 0.13857538 0.035380106 -0.046893954 -0.1727102 -0.1829576 -0.06247209 -0.14418432 -0.15058386 0.47404695 0.81714225 0.7832084 0.6980548 0.5534595 0.4788538 -0.1043461 -0.16320845 -0.1293043 -0.10329052 -0.06459935 -0.12866075 -0.15888095 0.39426133 0.5300158 0.59997046 0.8912423 0.3046582 -0.101980194 -0.00814694 -0.034923196 0.5127866 0.592358 0.63419163 0.65603733 0.9858866 0.015182257 0.13321751 -0.14331225 -0.09163905 0.23773134 0.5723178 0.9401957 0.32073426 0.2712503 0.27198955 0.20508847 0.039354358 0.006638624 0.021896333 0.70018375 0.7423602 0.7096803 0.2987643 0.3473081 0.2725668 -0.0665859 -0.17201248 0.030736417 0.12417471 0.13121086 0.4851653 0.5522288 0.6565509 0.8138859 0.77418274 0.7193545 0.7416893 0.71444184 0.6749495 0.3842221 0.3811883 0.37154433 0.3904429 0.33316427 0.24273229 0.20884137 0.04500912 0.029521216 -0.06651473 0.11625256 0.11354689 0.19669646 0.17583308 0.16474983 0.22039355 0.39464533 0.3848825 0.34594303 0.3068469 0.21944748 0.26082754 0.29446116 0.23804055 0.22907782 0.23947948 0.32688686 0.35053214 0.31534684 0.28802443 0.32892284 0.3679944 0.38666117 0.36348602 0.3568033 0.44335443 0.46346867 0.46259588 0.5731188 0.7357992 0.8425374 0.8306424 0.4080685 0.41613698 0.7865522 0.7528479 0.3502121 0.3840384 0.6407143 0.7286463 0.48885056 0.50121915 0.47555232 0.34415036 0.39957386 0.3349864 0.5801283 0.41973746 0.38912505 -0.21622778 -0.195471 0.26857013 -0.36074856 0.10187641 -0.30798444 -0.14435303 -0.050143644 0.07698889 0.15844534 0.0493552 0.19711113 0.08690731 0.11754819 0.18938543 0.11124173 0.21363135 -0.13668479 -0.10497026 0.4653319 0.48262623 0.50081813 0.47344738 0.31995326 -0.09891721 -0.06450351 0.3766153 0.41337907 0.28933588 0.19747613 0.20192078 0.21563962 0.30234748 0.47500074 0.27335754 0.22610413 0.06954835 0.20740235 0.3953058 0.3878336 0.46901864 0.46726507 0.29120493 0.22002971 0.4302045 0.41680235 0.4795228 0.23937128 0.33635163 0.19703156 -0.09470317 0.41696963 0.46171182 0.3051541 0.074201375 -0.48112628 0.36756662 0.32372773 0.38390502 0.098327555 0.10328404 0.090923265 -0.42131886 0.3054562 0.35394236 -0.17356735 0.06287207 0.37267184 0.222476 0.52999985 0.3816496 0.38349092 0.77807903 0.71044147 0.61165774 0.5643021 0.46371496 -0.061929658 -0.16023737 0.3863157 0.45587558 0.4147144 0.8106897 0.046259556 0.49233997 0.55638945 0.5658346 0.8841722 0.83066285 0.7720163 0.15799019 0.2274988 0.5329551 0.6102309 0.7048412 0.3524261 0.38888055 0.53405046 0.5637945 0.63436085 0.59487134 0.6750078 0.60534567 0.32902074 0.21300381 0.37468475 -0.06643795 0.28819418 0.30435318 0.3181108 0.33288178 0.35967112 0.31432807 0.27119532 0.14470473 0.011711616 0.2759933 0.30124003 0.31246957 0.22545263 0.31556317 0.3711152 0.2879312 0.32315224 0.37264478 0.4486487 0.4089012 0.4116173 0.45080686 0.4679454 0.56624866 0.54578376 0.57045066 0.5122758 0.6188999 0.72788155 0.7626873 0.7184704 0.4625664 0.5176848 0.65607595 0.7703274 0.7742238 0.39912093 0.4224968 0.48230416 0.7054976 0.75288904 0.38098973 0.3983498 0.68599284 0.27160636 0.4668887 0.71255374 0.32345366 0.29908523 0.025141835 -0.09087749 0.23624444 0.68536127 0.64781785 0.5792893 0.11263502 0.10792359 -0.26885515 0.48470998 0.5143782 0.37835127 0.14217393 0.13334003 -0.22006367 -0.052875575 -0.078414395 -0.03454344 -0.13125795 0.24869242 0.14868349 -0.006062418 0.029522348 0.15351507 0.07595734 -0.22229776 -0.03159453 -0.1695636 0.10765052 0.24067903 0.47252315 0.5165078 0.5618595 0.5419163 0.4103499 -0.22724824 0.009577313 0.21425112 0.26910627 0.30533138 0.41610563 0.31178224 0.35503268 -0.43774658 0.26850462 0.4396277 0.3479526 0.1278263 -0.13014221 0.20513429 0.2538483 0.26252842 0.2391718 0.36666918 0.31469756 0.111369155 0.29212254 0.19286701 0.35214037 -0.056953706 0.054280274 0.24362774 0.38688853 0.4264499 0.30094355 0.06883198 0.26740563 0.3865972 0.42524707 0.44635254 0.47961098 0.12834767 -0.10467376 0.07496163 0.4219403 0.48029178 0.5131358 0.51230097 0.30362803 0.3721655 0.4685263 0.54697526 0.5596437 0.4841264 0.25847358 0.5335934 0.57979894 0.6059196 0.59450835 0.62259847 0.5453433 -0.15233678 -0.01756373 0.31248525 0.4114126 0.36561504 0.7301622 0.61656284 -0.14333454 -0.11865475 0.71885026 0.5455665 0.30015177 -0.22371171 -0.15219064 0.09126575 0.19424789 0.4660638 0.5118681 -0.080677554 -0.3007403 0.38362175 0.2026007 0.28571168 0.19263434 0.19973695 0.2332243 0.28390118 0.24736968 0.25536123 0.27230135 0.21494506 0.1116832 0.036725268 0.04527121 0.40915722 0.14319442 0.07351245 0.17250031 0.4602689 0.52072316 0.5388108 0.5508157 0.60523635 0.7343763 0.7464653 0.8664233 0.7908457 0.83750653 0.89394486 0.9302244 0.88776207 0.5505768 0.59140044 0.64664954 0.4447787 0.5138453 0.57273847 0.6307101 0.62303036 0.317636 0.371724 0.53446877 0.6861192 0.71325994 0.19143814 0.6235837 0.7055236 0.7256328 0.64142287 0.5242766 -0.18433219 -0.2537813 -0.10893269 -0.08141193 -0.18199477 -0.11934372 0.64899075 0.53795457 0.4477877 0.37345836 0.1258669 -0.01975149 -0.19851911 -0.2490937 0.5476589 0.32944268 0.28842098 0.27001542 0.15664601 0.14917725 -0.30421162 0.19572766 0.23062798 0.16010663 0.14782219 0.13540684 0.029152263 -0.08645886 0.04318381 -0.22460033 -0.19118993 -0.07293206 0.1617196 0.29371595 0.32733494 -0.19506772 -0.21563649 0.3010957 0.32318625 0.32746384 0.48359686 0.5327032 0.55486536 0.43343407 0.31084096 0.3210965 0.41421244 0.32098106 0.33754906 0.30095237 -0.40235415 -0.35110244 0.15793225 0.19740438 -0.38818052 -0.40519875 0.3169944 0.37735018 0.48832518 0.2339719 -0.07156215 -0.006546341 0.4264839 0.49624062 0.5348555 0.23786283 0.5151019 0.53719664 0.22526638 -0.08262579 0.13151732 0.5252836 0.52349216 0.07548216 0.0075512603 0.22621924 0.30707273 0.36589384 0.5523298 0.5347757 0.41564572 0.29162097 -0.09237483 -0.010983139 0.53909194 0.61006033 0.6198554 0.59148955 0.5619401 0.52067906 -0.39984012 0.63548577 0.64377093 0.62241155 0.53692174 0.5114051 -0.09980919 -0.18376896 0.46304414 0.4589 -0.24982645 -0.18684168 -0.0079521015 0.39109012 0.31742895 -0.22020093 -0.16450499 0.28376544 -0.06733736 0.05896321 0.21592829 0.20413771 0.2401498 0.24354534 0.23359229 0.17984116 0.15012537 0.26310956 0.27569383 0.2822109 0.093922526 0.12038277 0.22871515 0.21961042 0.4969862 0.27869654 0.3013275 0.30541486 0.54281557 0.5990204 0.61983824 0.5802843 0.80028784 0.75870335 0.66091704 0.87916774 0.94157815 0.9285201 0.85023475 0.5227004 0.5458237 0.5375719 0.39787823 0.49500212 0.5168325 0.6316706 0.6641518 0.6364491 0.56198275 0.19193459 0.36427957 -0.057056814 0.61290216 0.50457394 0.4386217 0.024363134 -0.02420324 -0.12544787 -0.08950722 -0.12223313 -0.35460836 0.05745808 -0.12998047 0.34146908 0.07229452 -0.17179978 -0.24213387 -0.24841033 -0.17960832 0.30906603 0.24994941 0.09499271 0.12315035 0.1644182 0.13629532 0.14848045 0.10884225 0.06447066 0.07659735 -0.005421877 -0.1587158 0.31284314 0.32616842 -0.20257506 0.320577 0.31863168 0.5954348 0.32146567 0.36557302 0.41256928 0.3622927 0.3054136 0.24544232 0.2653463 0.13194788 0.10257922 0.31788048 0.40763462 0.4151485 0.16131613 -0.32947722 0.4074874 0.45312548 0.49261707 0.19496913 0.17920417 0.534168 0.5301552 0.21063785 0.5243384 0.5174256 -0.46149892 -0.21145925 0.51464546 0.186198 -0.645133 -0.18378627 0.52380264 0.5117492 0.37351698 0.3475601 0.2549509 -0.019443642 0.26525578 0.40267277 0.5148009 0.5971918 0.5649434 0.54213166 0.43234897 -0.022049896 0.11929363 0.13292067 0.5547508 0.6488858 0.6784274 0.62604177 0.6004691 0.4482028 -0.2601615 -0.07127018 0.08806755 0.20492786 0.24023744 -0.022611208 -0.24230859 -0.04791662 0.24312282 0.33287984 0.31586742 0.34717584 0.31254342 -0.09821684 -0.09914119 -0.0026176572 0.051904716 0.28265262 0.36920655 0.34312522 0.277638 0.24792187 0.14069626 0.15029421 0.04276293 0.29627058 0.37191764 0.358648 0.27020755 0.22222544 0.12420496 0.18764646 0.2969566 0.078956775 0.39835477 0.2948007 0.3545861 0.34675407 0.28860435 0.38443142 0.40242213 0.41909117 0.29669654 0.23782742 0.49037084 0.693705 0.6073065 0.5459788 0.5395997 0.8133449 0.80715024 0.78161496 0.74555194 0.6729265 0.881556 0.8428134 0.80744094 0.6938135 0.6538849 0.6719266 0.70914805 0.6809933 0.6426315 0.6697688 0.67870486 0.5384237 0.5167676 0.57762086 0.50613207 0.3805918 0.38920742 0.11663454 0.31212825 0.45404044 0.5098368 0.37560278 0.49725193 0.55204654 0.53704804 0.4927165 0.21937622 0.11480719 -0.13879965 0.29557335 0.45769596 0.40138078 0.22814055 0.17915876 -0.12879132 -0.15490511 -0.1765998 -0.17470142 -0.20196144 -0.37519044 -0.17202878 -0.24773535 0.32680857 0.301071 0.13933235 0.11865972 0.17944294 0.04836497 0.07308637 0.06434869 0.086157374 0.10344806 0.2674717 0.26434457 0.14044179 0.4432425 0.36809593 0.30569234 0.28995556 0.28443408 0.23267323 0.26312894 -0.17620009 -0.17479613 0.1648432 0.16131002 0.099715754 0.017876402 0.4220248 0.46355027 0.64708793 0.08800934 0.058323957 -0.007569516 -0.061433047 0.016540438 0.37291595 0.39467815 0.48511904 0.57565653 0.15112019 0.10753067 0.075765125 0.5219851 0.61463356 0.16996418 0.5321748 0.18292296 0.17526516 0.5084089 0.10236421 0.4896945 0.2737792 0.1699017 -0.4346564 0.505271 0.40060806 0.3745591 