# vtk DataFile Version 2.0
Really cool data
ASCII
DATASET POLYDATA
POINTS 3454 float
-22.649542 40.903973 37.216442
-22.768555 40.791176 37.673336
-22.713709 40.661095 38.342533
-22.70194 41.24992 37.21
-22.81829 41.461136 37.60537
-22.783594 41.44866 38.2835
-22.70766 41.860737 37.648655
-22.713373 41.821922 38.160984
-22.11211 40.09874 37.204994
-22.232216 39.93726 37.676533
-22.253546 39.910503 38.483215
-22.00452 40.025078 39.163025
-21.691532 39.89571 42.615467
-21.790628 39.80468 43.2603
-22.234745 40.781136 36.870228
-22.52935 40.414284 37.465137
-22.531235 40.319107 38.58252
-22.398405 40.505543 38.944355
-21.67341 40.521744 41.895233
-22.103497 40.657776 42.816967
-22.147587 40.726112 43.569836
-21.874304 40.77292 44.28626
-21.650932 40.994164 44.704094
-22.391937 41.514866 36.89991
-22.308279 41.522606 38.986332
-22.136967 41.33139 42.677067
-22.26456 41.31701 43.510944
-21.92012 41.347248 44.275925
-22.311176 41.95225 37.0314
-22.369003 42.20297 37.578415
-22.357033 42.165375 38.23907
-22.088184 42.0304 38.849712
-21.731047 42.712536 42.682686
-21.917776 42.235924 43.634453
-21.888437 42.132782 43.983223
-21.2438 39.23166 38.043163
-21.382765 39.362774 38.477024
-20.890694 38.80433 41.843212
-20.999203 38.692215 42.50214
-21.01903 38.811646 43.59592
-20.716558 38.692863 44.26786
-21.374462 39.98588 36.7701
-21.604267 39.537437 37.730404
-21.636839 39.48158 38.660976
-21.387909 40.065777 39.53312
-21.48807 39.603058 42.013264
-21.479223 39.30031 42.93373
-21.503721 39.42059 43.337116
-21.281466 39.41821 44.078926
-20.631617 39.9139 50.117832
-20.598051 39.662487 50.55768
-20.67761 39.966988 51.15673
-21.197617 40.566494 36.40007
-21.519924 40.617188 36.55549
-21.1502 40.937244 44.97769
-20.796913 40.40533 50.640255
-20.709143 40.330044 51.30698
-21.253765 41.67749 36.072426
-21.707851 41.86601 36.490967
-21.33179 41.378986 39.55386
-21.3105 41.588184 44.878094
-20.702148 41.010544 50.72573
-20.70627 41.085056 51.16162
-21.178478 42.205463 36.10342
-21.464329 42.496304 36.594894
-21.425457 42.21404 44.537846
-21.25006 42.010475 44.784164
-20.75343 42.840427 36.25755
-21.374401 42.858944 37.0089
-21.474169 42.86061 37.36284
-21.563494 42.648792 38.077023
-21.393251 43.193058 42.48896
-20.970951 43.5365 43.245308
-20.948483 42.91233 44.21704
-20.697695 43.788273 41.870342
-20.910488 43.66591 42.514645
-19.959791 38.316277 41.59047
-20.242147 38.134457 42.497105
-20.319767 38.177265 43.384056
-20.168566 38.227837 44.175987
-20.316183 39.07812 37.27372
-20.7101 39.218025 38.72729
-20.60645 38.59523 41.52697
-20.685349 38.438717 43.714443
-20.3513 38.508747 44.391136
-20.170404 38.807095 45.016754
-19.937836 39.234196 50.063633
-20.012154 39.123413 50.72261
-20.16465 39.28324 51.1663
-19.786665 40.16729 35.976
-20.807993 39.744892 36.881012
-20.037457 39.70819 39.76305
-20.130245 39.702484 49.8384
-20.417479 39.505077 50.444946
-20.355124 39.606316 51.409042
-19.982494 39.753128 52.10612
-20.393929 40.64435 35.919033
-20.463028 40.35735 49.82318
-20.548473 40.840828 51.662323
-20.228083 40.446915 52.093735
-20.468428 41.698044 35.74595
-20.744946 41.165833 45.272423
-20.194962 41.33057 49.910656
-20.429094 41.544502 50.86246
-20.371153 41.531227 51.334072
-20.13398 41.381264 51.92908
-20.44505 42.40806 35.83095
-20.532505 42.27187 45.08483
-20.159723 41.917168 50.788784
-19.971596 41.972458 51.42585
-19.917778 41.84473 51.78805
-20.482943 43.15326 36.5076
-20.408342 43.239388 37.794613
-20.103552 43.132122 38.016632
-19.90564 43.226997 40.306923
-20.692951 43.635006 43.56724
-20.106318 43.32992 44.59714
-20.299282 42.907207 44.845177
-20.436544 44.012043 42.074715
-20.15876 44.172104 42.518856
-20.437212 43.90055 43.358074
-19.535076 37.97878 42.67629
-18.751255 37.523724 45.04154
-18.711962 37.73984 46.061897
-18.880207 38.817554 36.11433
-19.70391 38.765007 37.624977
-19.06876 38.867653 39.172302
-19.49294 39.450855 40.24029
-19.43665 38.944805 45.517075
-18.578463 38.709072 46.60655
-19.178867 38.850033 49.86162
-19.526943 38.892513 50.60067
-19.463602 38.966236 51.427708
-19.381021 39.234234 52.04423
-19.014242 39.86631 35.32185
-19.490108 39.65159 52.333294
-19.437654 40.051655 52.613586
-19.05679 40.30432 35.305798
-19.4913 40.412014 45.55901
-19.624126 40.753956 52.52774
-19.301624 40.340374 52.678276
-18.903324 41.332672 35.378654
-19.134222 41.300858 49.006615
-19.656313 41.309242 49.444164
-19.488249 41.103123 52.444244
-19.242456 40.881905 52.659798
-19.64469 42.05383 35.601673
-19.708221 42.03982 45.287117
-19.29139 41.83295 49.72763
-19.4143 42.321514 50.69916
-19.620743 42.193768 51.39094
-19.373753 41.911564 52.007446
-19.418007 42.932056 36.034058
-19.549038 43.249363 36.537598
-19.521194 43.497448 44.543007
-19.232117 43.12114 45.219913
-19.411495 43.552357 37.346676
-18.729 44.87721 38.312763
-19.455566 43.860386 44.52841
-19.057137 45.81634 38.79541
-19.25253 45.417744 39.75699
-19.10268 45.71297 40.358807
-18.694202 44.90423 43.09914
-18.797245 46.427517 38.81169
-19.070652 46.167114 39.336308
-18.962324 46.531143 40.091366
-18.76414 46.12484 41.584583
-18.749498 46.788124 39.07985
-18.676365 47.050423 39.86299
-18.622786 47.19672 40.291
-18.645657 47.157772 41.49294
-18.578547 47.20058 42.020493
-17.656136 32.92008 35.493954
-17.599663 32.87985 36.063744
-17.786827 33.69935 34.74239
-18.007963 33.93039 35.398663
-17.891012 34.029003 36.092396
-17.687332 34.39709 34.23499
-17.973326 34.219456 34.86415
-18.09614 34.426277 35.435505
-17.84816 34.502693 36.185295
-17.885237 35.120647 35.565304
-17.573503 35.652287 36.363647
-17.745798 36.319656 45.960255
-17.712608 36.293102 46.075237
-17.938446 37.124477 43.82845
-17.928083 36.824596 44.684624
-17.961958 36.571396 45.70204
-18.052471 36.75342 46.349903
-17.855007 36.71217 46.89857
-18.102499 38.20805 38.163555
-17.827364 37.759438 41.53161
-18.668665 37.715797 42.801266
-18.219995 37.47757 44.17338
-18.385866 37.40547 45.450977
-18.493837 37.293636 46.277473
-17.772223 38.112644 47.952736
-18.23899 38.356342 50.326744
-18.426468 38.703144 35.75075
-18.386478 38.42536 36.61535
-18.532654 38.189095 46.5584
-18.182062 38.801216 48.73286
-18.522978 38.55219 49.757633
-18.780905 38.556507 50.28039
-18.393387 38.772144 51.497097
-17.805489 39.263725 35.125526
-18.18799 39.87987 48.25723
-18.687992 39.569 52.468037
-18.921488 39.776405 52.655037
-18.13069 39.75459 45.757656
-18.468332 40.497494 48.284756
-18.14616 40.21223 52.6472
-18.40319 41.58574 52.386593
-18.633707 42.256092 35.687557
-18.003403 42.90501 45.812473
-18.529936 41.736755 49.086296
-18.770212 42.4889 50.770054
-18.505508 42.381706 51.50528
-18.643707 42.10187 51.909737
-18.421886 44.294167 37.8687
-18.012945 45.79762 37.697292
-18.59545 45.184452 42.706455
-18.220259 44.986965 44.637203
-18.141062 46.396313 38.1006
-18.550137 46.685436 38.663754
-17.681528 46.175312 44.060715
-18.1659 46.899914 38.519386
-18.33481 47.43547 39.759033
-18.437492 47.400787 40.572063
-18.319136 47.724705 41.50828
-18.28547 47.369904 42.455116
-17.933739 46.98012 43.137512
-18.077805 47.700638 39.919605
-17.916376 48.114048 40.74978
-17.914948 48.29408 41.473923
-17.940762 48.08564 42.32572
-17.720713 47.979393 42.879364
-16.642502 31.200731 34.741867
-16.68529 31.252357 35.253967
-16.76911 31.893147 33.95393
-16.883842 31.669048 34.566887
-17.087559 31.83864 35.44462
-16.908577 31.879303 36.304085
-17.014128 32.90862 33.82028
-17.281435 32.644875 34.440784
-17.484903 32.5583 35.508076
-17.336332 32.56564 36.37903
-16.948936 32.637356 37.17367
-17.174244 33.52676 33.843254
-17.492123 33.28381 36.623337
-17.24992 33.368397 36.96733
-17.532793 34.267414 34.066025
-17.394283 36.17697 45.755013
-17.244326 36.175304 46.346268
-17.056965 36.28302 46.88816
-16.873281 37.009293 30.38983
-16.7603 36.472557 34.61445
-17.12186 36.649258 35.81817
-17.192913 36.36381 36.028587
-17.084732 37.2262 41.00509
-16.87668 36.481117 42.77538
-17.41357 36.66937 43.774574
-17.442385 36.713512 44.277428
-17.67866 36.41836 46.60409
-17.314043 36.742466 47.30797
-17.38024 37.20696 47.68935
-16.963133 37.72178 30.0244
-17.220354 37.871883 30.427542
-17.110128 37.41767 31.454086
-17.209341 37.764545 38.65159
-17.195951 37.813522 39.50947
-17.240463 37.588116 40.213696
-17.179094 37.51583 47.915634
-17.026773 38.456085 29.922514
-17.359875 38.34762 30.580631
-17.23633 38.538624 31.326395
-16.565037 38.717182 33.943382
-17.54325 38.717876 35.129078
-17.295488 38.83045 51.27324
-17.104158 39.02168 51.742367
-16.931286 38.941124 29.986223
-17.091288 39.05565 30.505524
-16.701385 39.363625 32.04645
-17.46002 40.022633 52.717175
-16.991524 40.085663 34.216984
-16.813272 40.96594 34.81772
-17.844193 41.409607 48.34326
-16.990208 41.63824 52.54369
-17.686758 42.35494 35.99441
-17.326906 42.747787 46.274513
-17.548658 42.457096 49.99108
-17.187265 42.494587 51.64063
-17.17962 42.1979 52.107487
-17.212854 42.687046 50.647873
-17.274767 42.654373 51.262684
-17.542051 43.94669 37.26248
-17.359835 44.404415 46.307426
-17.50107 45.064716 45.6485
-17.019379 45.10895 46.261112
-17.528782 46.50742 43.378525
-17.17827 46.14758 45.297028
-16.887255 46.02499 45.969788
-17.424261 47.353233 38.628124
-16.954477 47.077156 44.514996
-16.842909 46.70004 45.335423
-17.21805 47.63039 38.66027
-17.40524 48.403736 40.553013
-17.604773 48.489983 42.541042
-17.25277 48.455208 43.231354
-16.991629 48.1452 43.755688
-17.114588 48.70783 40.698975
-17.235287 48.95923 41.627075
-17.03848 49.07988 42.47472
-17.009974 48.927425 43.1148
-16.020515 31.06068 33.87717
-16.254316 30.940798 34.532677
-16.072456 30.796515 35.323944
-16.106913 31.156012 36.190666
-16.003813 31.816053 33.20636
-16.240917 31.568027 33.531487
-16.62502 31.72995 36.73817
-16.435303 31.892534 37.216774
-16.258572 32.412136 33.125904
-16.661072 32.214367 37.335606
-16.453081 32.702995 37.74037
-16.301071 33.1944 33.10658
-16.26951 33.610867 37.909897
-15.57853 34.1972 41.09752
-16.689285 34.46711 33.30653
-15.805587 34.63783 40.572823
-15.753642 34.734097 41.189297
-15.870498 36.02451 31.51076
[...]
POINT_DATA 3454
SCALARS features_00 float 1
LOOKUP_TABLE default
0.80853444 0.8300143 0.840965 0.8099343 0.82528305 0.83939123 0.8045114 0.8200781 0.7462413 0.7605297 0.7598674 0.72025216 0.4799506 0.49851054 0.76262057 0.80092436 0.814722 0.81762975 0.4412706 0.5537027 0.6047283 0.6069009 0.56976306 0.7767099 0.82470596 0.60640657 0.6274942 0.5894371 0.7650049 0.7678348 0.7811874 0.7849028 0.50642526 0.57582456 0.5598844 0.58969617 0.5980223 0.39357728 0.42736837 0.42638522 0.37738928 0.63578415 0.6710179 0.6423836 0.6185682 0.43062806 0.45393452 0.46414432 0.4609471 0.8035971 0.80105686 0.8739481 0.6229664 0.6759824 0.52057576 0.884421 0.904457 0.6661105 0.71749663 0.7598759 0.5068782 0.89003634 0.88486785 0.6612252 0.68340176 0.4937727 0.48396564 0.619875 0.6613275 0.6664971 0.6759656 0.41999367 0.41356397 0.4402488 0.30165124 0.37728316 0.23257084 0.36270994 0.36351687 0.31685543 0.45573822 0.42366797 0.3198204 0.39886034 0.3416566 0.30199683 0.6515453 0.7090162 0.78287345 0.38862994 0.5424906 0.19718015 0.7051314 0.7631471 0.85299397 0.8720336 0.5026806 0.8649349 0.89321756 0.8949709 0.59218967 0.45452106 0.87186706 0.8449072 0.8449069 0.8418255 0.6003438 0.4049378 0.8060265 0.79617286 0.80182266 0.5900599 0.5359783 0.47295463 -0.0045072455 0.3927946 0.34537578 0.3709169 0.2892631 0.28578907 0.34436136 0.26646855 0.2840866 0.36654338 0.24665391 0.32879713 0.06193723 -0.027033411 0.31214038 0.29792672 0.5305376 0.63910437 0.736286 0.7941319 0.27402058 0.8145509 0.7983022 0.32878277 0.34781122 0.82890046 0.7791157 0.41389418 0.6191162 0.7721368 0.80941844 0.7714586 0.52918255 0.3145947 0.7280487 0.7331449 0.75523764 0.75274616 0.47766966 0.4675566 0.2663645 0.20858556 0.31731868 0.24425007 0.23247647 0.33910525 0.3267046 0.31629986 0.059089504 0.3415417 0.34326944 0.33318847 0.24703869 0.3448129 0.3411315 0.33877376 0.3261804 0.31144923 0.49089694 0.46806583 0.49703914 0.4856431 0.4605108 0.45808268 0.48363835 0.47274894 0.44782233 0.43541205 0.38302976 0.48249587 0.4932305 0.20427534 0.34041035 0.447545 0.48016325 0.5114759 -0.0058844713 -0.05527115 0.10493936 0.22400585 0.37414598 0.4271509 0.3387352 0.4704497 0.21731412 0.19414395 0.366646 0.3937837 0.43026513 0.5293709 0.60509235 0.18671292 0.66141754 0.69203097 0.7251415 0.17634045 0.58080846 0.6561819 0.65128404 0.34934473 0.15712567 0.58895046 0.6252185 0.6015233 0.64306736 0.016810678 0.23784482 0.038272407 0.095289215 0.31727535 0.34334472 0.12490866 0.3447941 0.34246987 0.34293786 0.35675782 0.30489314 0.22521864 0.33932233 0.36116818 0.38104466 0.3662905 0.33154035 0.5463915 0.52634007 0.54185504 0.5512538 0.5174139 0.48011154 0.5004278 0.52694774 0.49676898 0.4602812 0.42344546 0.47090822 0.4389607 0.4113773 0.45340025 0.4822938 0.53046685 0.5536635 0.6218059 0.3331977 0.3025474 0.3477924 -0.13996808 0.12312835 0.24089226 0.313291 0.5221813 0.54765946 0.53515434 0.63277304 0.6254247 0.5679976 -0.20813224 -0.2519523 -0.23346844 0.52601427 0.6229168 0.61714995 0.60286903 -0.032092184 0.14009613 0.41442123 0.41790473 0.60427916 0.59510314 0.4383891 0.6042469 0.04145564 -0.0756964 0.5305363 0.5394013 -0.020674855 0.18238951 0.43942416 0.46340382 0.49543366 0.40436476 0.44366038 -0.108797684 0.25434837 0.2473245 0.30178136 0.1641317 0.25095546 0.30603397 0.33911914 0.21155147 0.2602373 0.3299443 0.35906136 0.38729993 0.3549724 0.2963415 0.37253502 0.40989172 0.42630607 0.40820354 0.53987503 0.5421289 0.48751262 0.47578406 0.49281156 0.526922 0.4695952 0.44631886 0.47183168 0.42865533 0.37208176 0.43033355 0.2499368 0.23218112 0.35897693 0.118086375 0.18433458 0.36526763 0.15746047 0.008998912 0.03321016 -0.015077367 0.35315785 0.44250536 0.5292315 0.56005013 0.5594783 0.602081 0.5884233 0.4719656 0.25251693 0.55544627 0.626875 0.634127 0.24437967 0.6264647 0.626143 0.29213557 0.35031435 0.4161104 0.61756927 0.60717463 0.4322062 0.61147344 0.5415544 0.44005936 0.0036744005 0.5656952 0.5548618 0.42425078 -0.14749672 0.5360011 0.5915909 -0.1745997 -0.23744805 0.26473847 0.46459648 -0.22761025 -0.17171857 0.10673751 0.302598 0.34345558 0.39513293 0.30783784 0.44865763 0.3146502 0.2916459 0.4802477 0.41972464 0.30024642 0.4298037 0.26050138 0.2990631 0.19952781 0.3703938 0.41525376 0.4574445 0.45053264 0.44909078 0.45280126 0.5207884 0.50603235 0.47506613 0.40516967 0.4368557 0.50811684 0.3889211 0.422567 0.30568334 0.2645635 0.015777383 0.29654986 0.3291178 0.29142055 0.31951687 0.4160099 0.5231462 0.51357114 0.3948334 0.5053343 0.52359724 0.58133614 0.4151252 0.21425025 0.59598494 0.31783244 0.34426743 0.42116678 0.6664181 0.5279731 0.62232137 0.5848638 0.53549755 0.5762352 0.5085654 -0.106440365 0.35756445 0.38810107 0.14929609 0.2609416 0.2752266 0.3552939 0.4498511 0.52155066 0.10083578 0.2653666 0.5004754 0.31604034 0.23572418 0.49228024 0.47227865 0.14838333 0.21141599 0.24725696 0.401795 0.11698022 0.2809975 0.45050466 0.36810225 0.34644142 0.41338754 0.4804088 0.48879975 0.55149615 0.67207074 0.69181025 0.66055393 0.6776763 0.632668 0.1875465 0.12929848 0.4217376 0.17696115 0.2503137 0.30421937 -0.057931583 0.26144913 0.2549643 0.21138793 0.13517135 0.28008494 0.28884828 0.42521012 0.41967952 0.23755506 0.31007707 0.29906583 0.23860918 0.48204815 0.1907994 0.09954129 0.049246475 0.14671104 0.24898413 0.29669398 0.3251432 0.5371323 0.37078214 0.676998 0.41118747 0.70768416 0.6484734 0.36910066 0.3563519 -0.20412552 0.043040585 0.29864153 0.49343887 0.0012571532 0.5876502 0.03953379 0.54969704 0.26148796 0.18225151 0.52941686 0.46823177 -0.16452199 0.25069755 0.17151897 0.35028607 -0.19160439 -0.23538463 0.1979644 0.34656236 0.5786917 0.5295297 0.18912363 -0.13194579 0.2665559 0.36948928 0.4818388 0.48829073 0.35238248 0.61203057 0.5865899 0.5432654 0.6042894 0.5657887 0.47458243 0.42122155 0.17131078 0.15446271 0.5990931 0.55849063 0.22258955 0.102573484 0.508216 0.11914427 0.35642934 0.38959873 0.42890412 0.49408334 0.48336405 0.49032792 0.5122886 0.50926566 0.5569249 0.5719751 0.55615795 0.53816295 0.69156456 0.7370138 0.76840794 0.6422361 0.6808659 0.7119615 0.7527213 0.51941305 0.6276797 0.6664669 0.6755148 0.5832107 0.5758327 0.606445 0.5986279 0.086431384 -0.019329876 -0.07309034 -0.101575494 0.3209156 0.25865844 -0.07966813 -0.116949335 -0.049242157 -0.036721185 -0.009646371 0.2584917 0.027472109 0.06642765 0.18048275 0.22561876 0.2040638 0.23981068 0.17070028 0.254238 0.28373703 0.111175485 0.3563335 0.0022420958 0.13316365 0.37838334 -0.013778666 0.0992163 0.19809067 0.29449195 0.47293368 0.3555105 0.55614644 0.53872544 0.3849624 0.64216864 0.5757669 0.4444946 0.55603445 0.3258579 0.07006549 0.24574903 0.46216393 0.44092968 -0.22923213 0.5267004 0.57244325 0.49629217 0.08955912 0.5262848 0.21175548 0.6315807 0.029731836 0.3003853 0.40096593 0.3584502 0.64569217 0.6468263 0.036479756 0.14814988 0.6461004 0.63741827 0.20404889 0.14218631 0.6431204 0.58957505 0.10555133 0.23824362 0.5639832 0.5210556 0.08824294 0.15267205 0.4417285 0.31991863 0.44579387 0.50917757 0.5082719 0.52761495 0.56080407 0.5653111 0.5344482 0.5274949 0.53476036 0.55599135 0.5634934 0.555846 0.52218986 0.5476148 0.549663 0.5280566 0.5396534 0.5726056 0.5206474 0.57272494 0.5968448 0.5561339 0.5265713 0.46155727 0.5158198 0.57727325 0.5522822 0.5104091 0.49551338 0.7143518 0.7765222 0.83203125 0.49547285 0.461419 0.4389264 0.4369321 0.6388378 0.67793834 0.76769704 0.8259419 0.8439935 0.33272716 0.3716698 0.7788223 0.7950971 0.15952295 0.34417135 0.6436448 0.68298733 0.2584731 0.13127652 -0.07213181 -0.0886115 0.07944264 0.49934363 0.2991698 0.28721648 0.23121123 -0.109025866 0.41406173 0.30948234 0.298383 -0.15301254 0.02941364 0.2611507 0.275122 0.13371103 0.05394237 0.20830743 0.060139272 0.23409837 -0.035600714 0.04045599 0.26830643 0.268524 0.24588405 0.27410167 0.29445165 -0.16046429 -0.16189945 -0.2526673 0.33547926 0.35326076 -0.13726877 0.030891601 0.09633449 0.18799773 0.4319389 0.37513077 0.48051196 0.45237234 0.45901477 0.269935 -0.08010444 0.20735547 0.2037153 0.2516445 0.16368861 0.15976593 0.28497735 0.40001813 -0.054371536 0.06501274 0.44329426 0.16157928 0.52593094 0.16806425 0.2176063 0.4937209 0.53057843 0.21561128 0.18919194 0.16959156 0.5792598 -0.042268395 0.61800957 0.6155188 0.6422579 0.024976678 0.65899885 0.6315454 0.5654552 0.4752165 0.45210296 0.32193786 0.40584803 0.43388116 0.5003152 0.5349187 0.51932466 0.42561227 0.52659374 0.5344262 0.52720886 0.4757269 0.46286267 0.4674976 0.44040895 0.4720226 0.50566614 0.5017453 0.51334953 0.4957252 0.38981384 0.45139772 0.5044321 0.40017772 0.5007024 0.47600627 0.6909065 0.7770196 0.84669614 0.8698315 0.3964766 0.40039212 0.5773803 0.864346 0.20054758 0.23646851 0.31278542 0.2267509 0.41324642 0.7945907 0.20257215 0.22387227 0.1611703 0.03750299 -0.16803111 0.050702758 0.5266633 0.2616754 0.28534925 0.31934226 0.10205168 0.34167883 -0.16349934 0.35638422 0.28882572 -0.11718464 -0.077300414 0.24885611 0.2923 0.1066687 0.27960944 0.25776514 0.013051733 0.15803507 -0.16502815 -0.07385756 0.03864016 0.061200738 0.13229564 0.30535474 0.3347636 0.12227772 0.13608217 0.12571102 0.042626247 0.07670748 -0.305438 0.1266501 0.15735132 0.14318906 0.17005377 0.20614645 0.098230004 0.0064369645 0.035531864 -0.0196961 0.18433164 0.20757782 -0.1498785 0.18060577 0.21865393 0.4727556 0.3834578 0.16946417 0.18801957 0.4691136 0.57651186 0.50867134 -0.07750814 0.4005378 0.5998254 0.61767757 0.508245 0.22576061 0.3637414 0.37255922 0.39607432 0.4462512 0.35248065 0.3705709 0.41150022 0.4571994 0.40202272 0.43495607 0.42419916 0.290032 0.30942586 0.40374118 0.4550072 0.49662077 0.5026656 0.4913695 0.4485438 0.45713776 0.4382891 0.42161387 0.4023 0.3969303 0.38917765 0.41069508 0.45865893 0.43346405 0.40943527 0.33581197 0.44422758 0.74084246 0.819625 0.8603573 0.26726633 0.41878414 0.5227243 0.5990309 0.85604286 0.18308066 0.16121677 0.10889952 0.1431483 0.8409317 0.18762259 0.47317642 0.25458884 0.0359144 0.33674657 0.36424565 -0.013249081 0.41957653 -0.19403878 0.39466664 -0.1648654 -0.009960234 0.1442654 0.41529387 0.27508605 0.1323136 0.2790044 0.41938597 0.29135728 0.37542456 -0.19768567 0.1599366 -0.21417703 -0.20429164 0.00941661 -0.07963828 -0.068252385 -0.035505377 -0.01828295 0.37871507 -0.22167915 -0.22054294 0.34396532 -0.20159957 -0.14069352 -0.14649355 0.15415555 0.26043427 0.05087328 -0.119854584 -0.22724564 0.12834136 0.12786368 0.189204 0.08351288 0.039670177 0.3122577 0.20578752 0.08480522 0.11243017 0.35116535 0.41246444 -0.055672307 -0.0071845427 0.09918637 -0.06824714 0.22384635 0.18219034 0.38419825 -0.1801393 -0.4873085 0.43861318 0.3929366 0.28869545 0.32153636 0.49374318 0.44165015 0.46407866 0.4261744 0.32130015 0.5107901 0.4632447 -0.11397653 0.44631296 0.41803718 0.53690195 0.51529413 0.08934437 0.1184858 0.49481004 0.27477628 0.4808087 0.4164862 0.39078563 0.5720674 0.35462913 0.36013234 0.4846701 0.58173835 0.63554525 0.36678427 0.39419246 0.44692978 0.5035814 0.6109626 0.677717 0.41902333 0.46144438 0.4397319 0.46337223 0.566536 0.6121782 0.47237223 0.44567457 0.4602465 0.29962382 0.31275737 0.30854636 0.25344038 0.7239239 0.7955936 0.062222246 -0.2969327 0.5307283 0.6716113 0.7455909 0.24579361 -0.19984654 0.7603868 0.21611777 0.16808616 0.20090897 0.30999386 0.30410674 0.38609487 0.23283622 0.25749403 0.4334018 0.09797352 0.19998913 0.4279737 0.39588743 -0.10773836 0.28654942 0.13700259 0.13679422 0.4235341 0.49206364 0.51508844 0.48215884 0.27506673 0.21683733 0.44114897 0.29923737 0.20354515 0.22780725 0.28133726 0.26236573 0.07098848 0.17562649 0.24329609 0.32035202 0.44207707 0.025458254 0.4115482 0.43043405 0.32947066 0.24666722 -0.102812275 0.36837554 -0.15832429 -0.077506915 0.30340385 0.16254634 -0.411513 0.19053584 0.21739507 -0.56669986 -0.47976205 0.31982836 0.31028906 0.15455723 0.4085551 0.3822024 0.023274593 0.12240226 0.43472442 0.46261397 0.44720873 0.05822981 -0.07326886 0.40121412 0.49242628 0.00608173 0.32886064 0.34761977 0.3715995 0.32890546 0.34120107 0.34897053 0.38203165 0.45167583 0.47154152 0.37873164 0.41449323 0.4524004 0.43933594 0.4552288 0.43814707 0.38999948 0.62870735 0.70912015 0.3832187 0.74818003 0.367716 0.38789707 0.69122577 0.78626347 0.40387738 0.41455367 0.39425862 0.3608093 0.59573483 0.6139419 0.6528983 0.75654995 0.81405264 0.6807253 0.62569106 0.5807356 0.64318573 0.7060027 0.6626253 0.5867457 0.49624527 0.6550764 0.69083726 0.54514533 0.3529322 0.12899274 0.24802941 0.2807001 0.29448867 0.20383471 0.30616283 0.1556375 0.2260196 -0.11400225 0.2273109 0.23614803 -0.3403227 -0.3484548 0.34330326 0.2646098 0.18929158 0.58088154 0.22643052 0.38447338 0.40507108 0.41203326 0.40359235 0.3628051 0.4022645 0.29832977 0.36156708 0.3397625 0.10824752 0.30645683 -0.13270149 0.13872582 -0.51276034 -0.42752224 0.48087713 0.15392753 0.038842157 -0.4046639 0.4956029 0.35245144 0.094203755 -0.12339114 -0.11133418 0.203776 0.2256661 0.20422937 0.19680676 0.2139224 0.2264423 0.33084047 0.49691582 0.50421786 0.54117864 0.18806913 0.19480501 0.47924805 0.46877873 0.07603803 0.44155976 0.5791192 0.55450785 0.4861211 0.41293615 0.03501199 0.036080375 0.4275065 0.4446404 0.5165885 0.3799907 0.0035443082 0.26161155 0.19485676 0.21089134 0.37323248 0.18209422 0.18379112 0.42351738 0.39561772 0.13498099 0.15346347 0.5022713 0.46356386 0.11222682 0.13641265 0.47259057 0.516003 0.5122589 -0.24201295 0.076632544 0.060357653 0.274728 0.35936463 0.24445447 0.15524574 -0.049788766 0.34390858 0.34472284 0.3164143 0.3298708 0.33016014 0.36773124 0.39968604 0.346278 0.4146621 0.4090023 0.8199847 0.36261755 0.3369773 0.8786783 0.4007045 0.86640674 0.4080841 0.39636552 0.359203 0.6183806 0.7596864 0.8200184 0.855669 0.64247334 0.66461074 0.7358872 0.6001574 0.5862886 0.6425453 0.64460087 0.5850863 0.55744994 0.5048176 0.5427958 0.4827507 0.43052423 0.38518518 0.28842372 0.12168703 0.11959934 0.120297685 0.13847628 0.01589521 0.019963428 -0.030038137 0.22551028 0.25405133 0.28419358 -0.037631255 0.06541632 -0.009745404 0.12496846 -0.2300735 0.19842976 -0.2737261 -0.29108813 0.39585963 0.4231038 0.42843294 0.4255549 0.35038066 0.4086581 0.33505923 0.31634262 0.25739214 0.22975616 0.050060242 -0.007322407 0.08386621 -0.4448411 0.24813205 0.04719066 -0.38130873 -0.24694507 0.23472673 0.25903103 0.30462974 0.4670632 0.27858225 0.1337807 0.22715177 0.19671167 0.20061159 0.4015141 0.5007674 0.5156969 0.5980052 -0.04881924 -0.04951899 0.023569874 0.16247354 0.22319807 0.469782 0.51754886 0.53830034 0.61718994 0.6037736 0.11248131 0.5286224 0.6420406 0.48943597 0.6274051 0.6252266 0.5055915 0.29420164 -0.039010182 0.06930449 0.42235744 0.45130616 0.57309544 0.60684085 0.59164786 0.5340876 0.4097444 0.019370727 -0.09196928 0.42984694 0.34904096 0.45026264 0.100126706 0.5023524 0.4882807 -0.009505263 0.40709364 0.52948725 0.5218281 0.012335492 -0.15842986 0.15118825 0.07215616 0.3435332 0.3223314 0.2839058 0.2698657 0.19570103 0.08046379 0.32534263 0.81396455 0.87215614 0.8692548 0.4242366 0.41361612 0.40005773 0.31106815 0.3205657 0.86981416 0.3907899 0.6046411 0.7390579 0.8191666 0.8535868 0.6280271 0.6622391 0.6991344 0.545124 0.5349792 0.5214184 0.3841933 0.51701736 0.4735177 0.47566092 0.43382 0.21906698 0.39657086 0.1357626 0.1538693 0.79234135 0.15054925 0.036777627 0.11124121 0.19988975 0.08360247 0.059555996 0.14784999 0.21266706 0.18123578 0.31914547 0.33186075 0.6377989 0.6777479 0.6747508 -0.0034196638 0.27029112 0.6274114 0.61011213 -0.0024225297 0.07369551 0.09587841 0.20160924 0.32955784 0.2468249 0.39574516 -0.00909812 0.4135454 0.3977663 0.35639703 0.1789123 0.054987915 0.28258395 -0.09689373 -0.067125686 0.06308118 -0.27568108 0.0693572 0.2179874 0.14797866 -0.117536455 0.4552978 0.37719846 0.018342443 0.32919955 0.3461651 0.28788263 0.40773582 0.49176788 0.54513454 0.7018538 0.6332798 0.5209061 0.41963106 0.39322168 0.17790192 -0.11208905 0.14622167 0.22011508 0.2559446 0.14028199 0.41393468 0.53485787 0.57680583 0.6041149 0.71908927 0.4925264 0.23832819 0.06146436 0.5815577 0.63234615 0.7061415 0.52756804 0.48314056 -0.00901705 0.5887181 0.67046094 0.67109585 0.6420113 0.623453 0.58286935 0.5404963 0.5160219 -0.20844397 0.039454754 0.54854363 0.6575037 0.6528841 0.63854414 0.63608396 0.62786424 0.55683386 -0.21425101 -0.19325498 0.04062447 0.49544835 0.49074745 0.50368035 0.16381387 0.42783523 0.10135197 0.32659036 0.061158895 0.4149184 -0.07423663 0.44283247 0.46214938 0.4532706 0.15559223 0.07933059 0.30566925 0.2241915 0.22253121 0.32422528 0.16056915 0.35407168 0.2811581 0.14653209 0.18983099 0.25374418 0.2583468 0.31931293 0.1297262 0.41489482 0.03356348 0.67294014 0.4638703 0.47301817 0.5522408 0.820361 0.4701473 0.4366213 0.50567025 0.577302 0.6324205 0.8046536 0.8384936 0.57245886 0.6218556 0.6659528 0.7761522 0.32157505 0.32324433 0.3261454 0.3995763 0.32945725 0.42497155 0.38766873 0.25690132 0.23886816 0.4078837 0.40337837 0.12630299 0.85239923 0.8455804 0.8293854 0.36604574 0.8069252 0.820559 0.80314887 0.7854507 0.13148627 0.20749867 -0.33103547 -0.19715756 0.35458744 0.34994105 0.3055195 0.6963227 0.74443483 0.74383664 0.14419909 -0.20822325 -0.16767809 -0.06676517 -0.011217143 0.0066727884 0.33375338 0.25812912 0.14769763 0.46271843 0.6581386 0.6639531 0.09938155 0.14164321 0.08621528 0.5895726 0.57743376 0.06483335 0.34306997 0.50967765 0.53279376 0.5318593 0.19612052 -0.21323535 -0.24652879 0.43526042 0.41149646 0.24612369 0.4681519 0.42739576 0.3322808 0.17972577 0.3290098 0.2624232 0.22394007 0.29222864 0.13351503 0.22059143 0.36007625 0.33692122 0.23205242 0.1773884 -0.18837348 0.13183936 0.30959505 -0.14303243 0.47219837 0.5680065 0.48295158 0.2971853 0.3619644 0.47691768 0.5756173 0.55191994 0.48012522 -0.1611417 0.6448446 0.67404294 0.7603353 0.7282207 0.63721013 0.5373476 0.5301448 -0.23186916 0.7886106 0.71576154 0.69941926 0.65438473 0.6143866 0.56941843 0.5547515 0.06533423 0.75418353 0.77647287 0.6646522 0.6427373 0.6161135 0.58733916 0.7084074 0.63066494 0.45371062 0.13690919 0.08019759 0.30470124 0.38111478 0.17839575 0.318015 0.41181248 0.026813399 -0.053817086 0.2210823 0.13440338 0.27713826 0.07173336 0.35753232 0.34093988 0.3824553 0.20066336 0.38852984 0.42551175 0.24208498 0.39774644 0.28569457 0.20970237 0.21582326 0.3589651 0.375789 0.12955722 0.42343175 0.434318 0.41790858 0.099877976 0.46602175 0.4320947 0.38876292 0.31093982 0.1492598 0.4387352 0.5178546 0.37778056 0.40409905 0.3937196 0.34613466 0.3417022 0.1647436 0.3279762 0.34352434 0.29651916 0.31921124 0.38663572 0.21331492 0.15483423 0.382944 0.85799253 0.8684235 0.83136106 0.79424477 0.098934606 0.7406348 0.80599916 0.78407776 0.14702186 -0.2003982 -0.20517516 0.13180128 0.36194128 0.5422107 0.7392423 0.16009873 -0.20970972 -0.19438314 0.6365968 0.14331871 0.13601118 0.5268203 0.5106728 0.024934765 0.4914859 0.18084924 -0.20399639 -0.14713079 0.3755668 0.4113687 0.45781657 -0.2709877 -0.19655044 0.48542106 0.5094644 0.49342504 0.44976318 0.40172392 0.10209888 0.348351 0.3863184 0.25178137 0.31302136 0.2896097 -0.1484099 0.4298499 0.41826004 0.35387886 0.36241078 0.3434084 -0.062424295 0.15336405 0.60138273 0.6059687 0.25241244 -0.31839705 0.6005546 0.41769826 0.5836336 0.60829 0.40925354 0.5897677 0.7037982 0.81489354 0.87263954 0.36662686 0.91221726 0.3271047 0.2218377 0.85958445 0.85538626 0.120056875 0.7799138 0.80690956 0.68116474 0.7183509 -0.038773797 0.45234185 0.5335449 0.071138985 0.10312998 0.056948002 0.20616902 0.21733761 0.21592836 0.21627349 0.23402508 0.18052825 0.20920116 0.07249655 0.32577023 0.36996284 0.11990606 0.37930363 0.38888347 0.21224028 0.4271345 0.10584045 0.18135245 0.46849912 0.4868748 0.25778258 0.48390353 0.4455565 0.27962613 0.2885908 0.26907277 0.30470932 0.30579314 0.27468312 0.23237105 0.15998307 0.35656744 0.32748902 0.31049097 0.24196772 0.39899617 0.34044015 0.31769532 0.38849205 0.4241622 0.4522632 0.38727212 0.34063476 0.37406546 0.33566839 0.35248548 0.34528804 0.3531996 0.30174756 0.46429843 0.30883473 -0.0013574064 0.42344838 0.13370489 0.41345268 0.8811852 0.87865597 0.8156613 0.051540244 0.07680417 -0.015374716 0.050088543 0.151359