# vtk DataFile Version 2.0
Really cool data
ASCII
DATASET POLYDATA
POINTS 3488 float
-22.547138 44.793865 26.693382
-21.810076 43.057114 26.114294
-21.70128 42.66035 26.519686
-21.784771 42.685505 27.28386
-21.62962 42.912975 27.897816
-22.005215 43.709686 25.990765
-22.116495 43.564915 26.375933
-22.272928 43.85028 27.176517
-22.237988 44.567986 25.973677
-22.450424 44.393257 26.521881
-22.344484 44.536644 27.303091
-21.918293 44.56153 27.992065
-22.139233 45.320663 25.957983
-22.328316 45.284187 26.515041
-22.256971 45.18639 27.34366
-21.88112 45.286842 27.870646
-21.668072 46.268574 25.78238
-21.869362 46.275074 26.443998
-21.92237 46.111607 27.094559
-20.898712 42.18404 25.82695
-21.196056 41.84568 26.818422
-21.162271 41.80825 27.385355
-21.010378 41.955315 27.978704
-21.107721 42.565536 25.657969
-21.205807 42.454586 28.173563
-21.171627 43.7637 25.11855
-21.45069 43.295998 25.722235
-21.122337 44.40109 25.131956
-21.476894 44.624493 28.42487
-21.238323 44.93833 28.685463
-21.285112 45.581963 25.127438
-21.660845 45.41258 25.377201
-21.30702 45.545574 28.374186
-21.146389 46.269787 25.196062
-21.467697 46.573704 25.674047
-21.548998 46.701035 26.579327
-21.45411 46.190193 27.614393
-21.336231 46.03886 27.808256
-20.86038 46.83852 25.330544
-21.133453 47.012707 25.806786
-21.249237 47.002697 26.396965
-20.984064 46.983246 26.95147
-20.41993 41.406258 26.912622
-20.524084 41.44379 27.322414
-20.062859 42.32081 25.25757
-20.347612 42.045956 25.695879
-20.440916 41.54584 26.68531
-20.733788 41.54651 27.465603
-20.442081 41.657986 27.999678
-20.451508 42.666435 25.099714
-20.476788 42.743374 28.63608
-20.473555 43.51976 24.78845
-20.073973 43.534176 29.208982
-20.03981 44.724163 29.315302
-20.147722 45.688766 24.794006
-20.482794 45.458107 28.729311
-20.517761 46.37322 25.013676
-20.624996 46.187157 28.043398
-20.649336 47.100853 25.670815
-20.643448 47.23678 26.508373
-20.578722 46.980083 27.096775
-19.90957 41.416916 27.148096
-19.612125 41.99552 25.607622
-19.842999 41.63128 26.449306
-19.503437 41.657192 28.050499
-19.29511 42.05151 29.091753
-19.591652 42.528492 25.060953
-18.652557 43.021034 30.554317
-19.191319 43.425335 30.210184
-18.888563 43.774975 31.075167
-19.714619 43.948124 24.741081
-19.124245 45.395622 29.876553
-19.001005 45.215023 31.28822
-18.654345 45.224087 31.791225
-20.010075 46.108532 24.982817
-19.245144 46.053795 27.475248
-18.698362 46.10892 30.835157
-18.820513 45.794346 31.068441
-20.04684 46.943127 25.468967
-19.9756 47.130142 26.336275
-19.019306 42.089443 25.52435
-18.141418 42.33284 30.6409
-18.17777 42.927277 31.226318
-18.602642 44.03827 31.50179
-18.230658 43.65449 31.781168
-18.484373 44.371918 24.714485
-18.026745 44.727554 32.380802
-18.160318 45.267273 32.220325
-17.802494 45.019558 32.5938
-19.1139 45.8473 25.236536
-19.177738 46.236782 25.42131
-18.396997 46.014446 31.365181
-18.051603 46.096786 31.846664
-17.482805 40.97948 27.772655
-16.801884 40.512463 28.49095
-17.049267 40.653378 28.875183
-17.688087 41.718105 30.08228
-17.412363 42.141247 31.096687
-17.77658 42.70651 24.821316
-17.6677 43.14452 31.83797
-17.758427 43.448345 24.664299
-17.32778 43.940414 32.4025
-17.558834 44.18394 32.474396
-17.249304 44.73481 32.67845
-17.74563 45.42774 32.44392
-17.380991 45.268906 32.610954
-16.967012 46.400234 26.105154
-17.680378 46.400997 31.604166
-15.835538 40.201157 25.564604
-16.421392 40.356255 27.619282
-16.530155 40.329025 28.49954
-16.300259 40.404617 28.866697
-16.06307 40.50341 25.428461
-16.311602 40.5322 26.867777
-16.223085 40.60884 29.215534
-16.50225 41.232147 30.147247
-16.271196 41.894253 23.897787
-16.418257 41.67159 30.447197
-16.590376 41.81328 30.976646
-15.774202 42.34296 22.922276
-16.526253 42.553875 23.643404
-16.431034 42.880287 32.104267
-16.088867 43.79589 22.32705
-16.465405 44.048107 22.603052
-16.699085 43.783848 32.506298
-16.025326 44.68593 22.193665
-16.49914 44.361454 22.750391
-15.996676 45.045597 22.317642
-16.100235 45.31914 22.744804
-16.75056 45.41288 32.480694
-16.21204 44.99547 32.534496
-16.178976 46.594765 24.136923
-16.252542 46.19255 28.319744
-16.334953 46.394962 31.370483
-16.15202 47.188515 24.830458
-16.040846 47.528637 25.179966
-15.683531 47.54191 26.861298
-15.867809 48.59514 30.418528
-15.608744 48.293995 31.439795
-15.728293 49.560116 29.44038
-15.719172 49.567287 30.3288
-15.604963 50.105827 29.78881
-15.627785 49.98793 30.286861
-15.21461 39.974323 25.109472
-15.190123 39.765415 25.59145
-15.326575 39.875225 26.303955
-15.497893 40.141464 27.506517
-15.504967 40.127537 28.362806
-15.286201 40.4058 29.110706
-15.101159 40.763573 24.020584
-15.486109 40.391895 24.752602
-15.550198 42.129223 23.00963
-15.524636 42.066956 31.453655
-14.904478 42.94572 21.969084
-15.344398 42.493603 22.477518
-15.631426 42.67656 32.15439
-15.320973 43.84609 21.805151
-15.715083 43.642513 32.59939
-15.261524 44.381004 21.734617
-15.618574 44.552113 32.508617
-15.475999 44.2984 32.578556
-15.070397 45.5254 22.22891
-15.282258 46.092754 22.912012
-15.724537 46.59416 23.619684
-15.5826 45.972866 31.767498
-15.135424 47.365154 24.030115
-15.735324 47.573685 24.681725
-15.3874855 47.970818 31.51829
-15.066489 47.76834 24.55646
-15.280447 47.814957 25.832851
-15.477155 48.87129 28.473814
-15.059686 48.54769 32.47326
-14.762928 48.27159 32.836185
-14.969372 49.38625 27.914265
-15.368504 49.50222 28.552359
-15.385612 49.272247 31.581654
-14.9380865 49.423714 32.100964
-14.757582 48.876225 32.7625
-15.178271 50.256382 28.717558
-15.371635 50.45863 29.751492
-15.305317 50.45357 30.423283
-14.97713 50.202927 31.273605
-14.702223 50.69119 28.533728
-14.989262 50.870815 29.592548
-14.980151 50.763515 30.446386
-14.239272 39.431477 25.613102
-14.073433 39.37249 26.085218
-14.176092 40.25182 24.07349
-14.429335 39.890297 24.694225
-14.804217 39.666016 25.228159
-14.628859 39.573055 26.59498
-14.537882 39.677635 27.543293
-14.533912 39.894302 28.152376
-14.404678 40.12183 28.80223
-14.6348715 40.768898 23.75056
-14.4637 40.876312 29.500784
-14.481146 41.680588 22.797535
-14.976189 42.163486 31.417194
-14.549882 42.722073 22.175568
-14.201477 44.052242 21.318699
-14.301898 43.3984 21.524237
-14.191522 44.506332 21.301497
-14.600437 44.208256 21.497808
-14.044406 45.163918 21.35275
-14.1949005 45.373623 21.623373
-13.913611 45.707554 21.707848
-14.255638 46.379448 23.240402
-14.590833 47.25828 32.434074
-14.170048 47.498512 23.978271
-14.605512 47.68057 32.842052
-14.38606 47.701275 24.243717
-14.314076 48.345226 25.349155
-14.374329 48.394398 32.98103
-13.694294 49.55729 26.10836
-14.392987 49.413864 26.929546
-13.9949 50.49391 27.2987
-13.96513 50.901443 27.710815
-14.173857 51.200893 28.705366
-14.4758005 51.16454 29.383272
-14.401646 51.15103 30.359604
-14.445344 50.768837 31.068356
-13.582131 39.403812 25.47591
-13.717975 39.37026 26.451113
-13.35845 39.42886 27.485825
-13.4205065 40.10896 24.232906
-13.037362 39.742535 28.556017
-13.741778 41.113125 23.043558
-13.818176 40.92799 23.377935
-13.48426 42.067993 22.254124
-13.256702 42.8707 21.617008
-12.963054 42.277504 32.255592
-13.885686 43.790607 21.297386
-13.354798 44.49791 21.189463
-13.850024 45.097374 21.320076
-13.326619 45.364887 21.450377
-12.867713 45.89978 31.847256
-13.69142 45.705498 21.735239
-13.436954 46.193516 22.792894
-13.489574 47.01208 32.417877
-13.510783 47.182674 23.711674
-13.100622 47.999157 24.31208
-13.64485 48.195732 24.804115
-13.310307 48.69406 33.17693
-12.847556 49.446224 25.296583
-13.5999565 49.271416 32.769485
-12.910015 50.19637 26.07761
-12.893162 50.406986 26.484192
-13.324804 50.55916 31.380589
-13.425788 50.339172 31.814283
-12.878378 49.835728 32.711246
-13.232301 50.822876 27.123661
-13.39005 51.196453 27.760015
-13.411955 51.504025 28.375874
-13.561485 51.566055 30.354195
-13.398903 51.076355 31.039415
-12.929501 51.6219 28.232977
-13.053208 51.881645 28.767992
-13.198776 51.969875 29.606562
-13.252276 51.8277 30.190624
-12.421782 38.87128 27.43922
-11.921596 38.809513 28.330938
-11.723993 38.563778 29.732798
-12.920593 39.84868 24.667263
-12.438461 39.615368 25.72294
-12.305939 39.557434 29.10939
-11.983055 39.868443 30.124155
-12.665167 40.88247 23.432777
-12.2715225 40.80506 31.270464
-12.111417 40.506622 32.520752
-11.95904 40.678356 32.818928
-12.187896 41.395256 22.799858
-12.35805 41.380253 32.84511
-12.99741 43.154648 21.459787
-12.734953 42.414173 21.925316
-12.82607 43.284374 21.40126
-12.415962 43.77303 32.815575
-13.050633 44.430073 21.217093
-12.7227335 44.89596 21.370455
-12.899883 45.3421 21.599655
-12.411075 46.0846 32.969055
-12.587786 45.918846 22.419762
-12.0322695 47.09275 34.06945
-12.612129 47.124355 23.597158
-12.0428295 47.425255 34.325855
-12.756777 47.816284 24.173473
-12.20694 48.564472 24.661003
-12.287199 48.52887 33.954876
-12.328374 49.63842 25.291147
-11.863852 49.60335 34.47566
-11.839542 49.013332 34.7567
-12.5844755 50.064827 25.74677
-12.729883 50.53233 26.598452
-12.003551 50.414867 32.17472
-11.731139 49.931248 34.16813
-12.645247 50.78234 27.029284
-12.461788 51.41346 27.884747
-12.086509 51.2043 31.205761
-12.774206 50.76073 31.67058
-12.362894 52.095417 28.871721
-12.283199 52.336132 29.616194
-12.365116 52.16448 30.348988
-12.56299 51.928158 30.729393
-11.0348425 37.83967 28.679802
-11.171769 37.911236 29.34918
-11.094086 38.075726 29.983559
-11.160632 39.256313 25.840284
-11.050945 38.647648 26.700249
-11.044098 38.48265 27.409296
-11.545421 38.681572 30.097715
-11.217077 39.136444 30.766352
-11.624484 39.748074 25.361197
-11.566264 39.761707 30.585732
-11.366349 39.986813 32.30354
-11.462391 40.285652 32.99481
-10.853953 40.388042 33.841713
-11.351906 40.45045 33.271763
-10.977364 40.988976 34.423798
-11.998291 42.258034 22.012978
-11.4315195 41.39316 23.076086
-11.211877 41.7772 34.410484
-11.144736 41.919098 34.808056
-11.456783 42.605877 34.347267
-10.931617 42.395573 34.980335
-11.617137 43.63146 21.688475
-11.370985 43.395306 34.19106
-12.0402975 44.600655 21.609337
-11.38494 46.053593 34.08332
[...]
POINT_DATA 3488
SCALARS features_00 float 1
LOOKUP_TABLE default
0.7529123 0.67501 0.6935483 0.7170522 0.70139694 0.68708265 0.69504863 0.71748114 0.7299089 0.736469 0.7324444 0.6614369 0.7738074 0.7733866 0.7285789 0.6589052 0.8093239 0.80118597 0.75411725 0.63171214 0.6719663 0.6672559 0.63301986 0.6414504 0.64100444 0.64488304 0.65792024 0.6770214 0.55266184 0.49427047 0.7603611 0.7607416 0.5559231 0.7946651 0.820287 0.80530125 0.6879419 0.65109134 0.8142237 0.83261144 0.8222486 0.78871405 0.6204623 0.6207646 0.55260724 0.5927279 0.6241385 0.6315017 0.58672565 0.5870882 0.5276341 0.5980663 0.3735566 0.31069076 0.6836941 0.43138862 0.76977086 0.5992336 0.8268769 0.82653594 0.77372885 0.5622037 0.53128225 0.574321 0.48243928 0.348847 0.48205873 0.34691438 0.3294193 0.43641746 0.51207733 0.34996128 0.5252913 0.5655999 0.71787584 0.67470634 0.45761287 0.4954949 0.78788555 0.8403069 0.45092773 0.3511945 0.41692555 0.5168497 0.497156 0.39121628 0.5570243 0.56852466 0.5493008 0.63064086 0.6759498 0.5175034 0.5328779 0.21599379 0.23029079 0.22674458 0.2766854 0.38568372 0.2217979 0.47105756 0.21418658 0.49986964 0.5149577 0.5074902 0.5455588 0.5184852 0.23022866 0.51694846 0.35503888 0.24698305 0.23007023 0.2232858 0.34453708 0.28750226 0.21639276 0.24678461 0.23432504 0.2731037 0.32616776 0.34228966 0.24911518 0.4645977 0.4855138 0.47089654 0.47987276 0.5102508 0.46426657 0.49696064 0.45943046 0.47116503 0.44005185 0.32344738 -0.009457685 0.4141975 0.31431806 0.29848927 0.119772956 0.47633937 0.45700508 0.47353536 0.49580154 0.49296126 0.4981887 0.36219922 0.35575458 0.3258082 0.25609618 0.23169722 0.21067579 0.32277128 0.35082605 0.320363 0.33432782 0.4495454 0.38620618 0.4297003 0.51151353 0.4626053 0.52830434 0.41864222 0.41715103 0.47428077 0.37754732 0.3277711 0.32185727 0.2764504 0.3038604 0.4222934 0.26858294 0.27015787 0.3831416 0.4692474 0.44628555 0.3954612 0.4507947 0.49603873 0.4881134 0.4548528 0.47139096 0.49669623 0.49966058 0.49686423 0.4567163 0.497477 0.4974664 0.35807756 0.33359063 0.32727563 0.35499564 0.36323452 0.3016396 0.22054482 0.19419165 0.16986822 0.31335488 0.16249913 0.31624186 0.272451 0.4168329 0.52785313 0.4926294 0.53369474 0.5309347 0.5226896 0.5048158 0.47008437 0.27336398 0.27867693 0.20203964 0.3763371 0.21501985 0.19725087 0.42615634 0.24446118 0.27742565 0.32306552 0.33946997 0.44009197 0.49218288 0.48575026 0.45996034 0.33855635 0.2904714 0.15556075 0.30648854 0.06862527 0.2917908 0.29190117 0.351841 0.44650728 0.19375953 0.51888007 0.5282377 0.5233225 0.49851334 -0.022889294 0.46370113 0.31032336 0.17613454 0.17480028 0.15690753 0.17510857 0.32363307 0.23964572 0.34299344 0.2742188 0.2794188 0.32144928 0.3053211 0.21659155 0.28521174 0.31387198 0.37454432 0.4496516 0.36483407 0.35388315 0.43071923 0.4928426 0.4609856 0.2162533 0.30904308 0.29765075 0.27996945 0.21425062 0.16803972 0.13199338 0.25545067 0.1545911 0.19149262 0.21464217 0.266379 0.23106368 0.4758612 0.38000897 0.4838804 0.053972226 0.52766013 0.5178036 0.48666805 0.036867525 0.3674135 0.24480815 0.13619508 0.31315762 0.14045826 0.18621178 0.34024444 0.26270613 0.400702 0.43649235 0.27337658 0.27814093 0.16212161 0.35654864 0.27390832 0.30791813 0.2682411 0.25321177 0.45879483 0.49333382 0.43424648 0.38383293 0.4387315 0.42711997 0.40642053 0.14279656 0.26159146 0.35734516 0.2793093 0.19758084 0.1095808 0.14208217 0.19948345 0.23831409 0.31027883 0.27055556 0.30200234 0.35076573 0.21693753 0.24492261 0.19237936 0.18299295 0.16093363 0.43655142 0.1142779 0.4949631 0.19773981 0.4391833 0.48000705 0.25383234 0.46094486 0.28123817 0.28104615 0.40098533 0.43175992 0.3557052 0.43224004 0.48870635 0.42930412 0.33077428 0.45152664 0.45785832 0.4252267 0.44973382 0.45591122 0.4478225 0.21347408 0.2658309 0.29385385 0.071192 0.33768815 0.38808224 0.32010913 0.37782258 0.40510356 0.34365356 0.49643236 0.56377566 0.24687514 0.12582567 0.43917084 0.54654384 0.29300544 0.5497477 0.49738744 0.32049966 0.41270977 0.42705554 0.25655055 0.42658654 0.42832166 0.2817674 0.36784697 0.41446748 0.3859371 0.19327281 0.28659493 0.32858694 0.45180434 0.50227493 0.48632145 0.42026395 0.30306035 0.44687656 0.45488727 0.32510853 0.40637708 0.45112064 0.24221757 0.05420748 0.15543616 0.34453303 0.36557037 0.38489905 0.41702777 0.41029483 0.38012284 0.40980935 0.4949395 0.38081372 0.20134939 0.50927925 0.5969295 0.61856663 0.378207 0.6187759 0.6337291 0.25512737 0.5573821 0.60241795 0.19340026 0.5295985 0.6054511 0.60318285 0.65779287 0.6510636 0.6307112 0.3204271 0.7065857 0.2921151 0.30875567 0.36994773 0.34812307 0.32586968 0.4738421 0.2755412 0.32345408 0.4832933 0.5063844 0.48578736 0.448534 0.27449423 0.26659054 0.48090038 0.44827253 0.35763466 0.4336237 0.24958923 0.28207248 0.24673826 -0.0964523 -0.014810964 0.31027946 0.3892112 0.39651102 0.38119382 0.2905925 0.2737735 0.024286082 0.36201045 0.36646613 0.4761173 0.38515246 0.6357106 0.6369577 0.26356483 0.59598583 0.6222807 0.4833579 0.1310781 0.26898915 0.44816574 0.56094605 0.112135194 0.21155418 -0.0033060312 0.7241362 0.46657223 0.17573299 0.7135565 0.70505834 0.73482436 0.7335993 0.2706769 0.21975054 0.2673214 0.73634845 0.7455879 0.7675973 0.3956337 0.27256668 0.27254218 0.41558987 0.48233086 0.24347457 0.26848724 0.4941417 0.475967 0.4392837 0.42530668 0.33557194 0.67370003 0.66380644 0.28257906 0.24141224 0.6378739 0.66520774 0.63971066 0.20220324 -0.014803842 0.08009817 0.5432619 0.57053316 0.4573614 0.30918324 0.32222623 0.050672345 0.014093377 -0.11012782 0.29376674 0.30771717 -0.010928841 0.23626734 0.41080603 0.66187286 0.57312655 0.32431626 0.27771068 0.40631098 0.48950273 0.750063 0.7482457 0.70760083 0.33764946 0.6177967 0.7517872 0.7663626 0.7327477 0.3077017 0.62485766 0.7203976 0.7029332 0.6844466 0.23889345 0.54028887 0.5689303 0.54200596 -0.02382256 0.45888558 0.5795725 0.23966837 0.23218286 0.7300464 -0.26990333 -0.44465953 0.22556894 0.25234607 0.760009 0.20993221 0.7542434 0.73813725 0.72007143 0.5481045 0.17131053 0.76551485 0.76353264 0.7748109 0.77811325 0.38422734 0.18253562 0.18369228 0.18814705 0.47345886 0.4307881 0.3941315 0.29718262 0.42644498 0.41911268 0.40806395 0.6244305 0.64391226 0.6545087 0.63146377 0.5931697 0.074578 0.5614655 -0.056981258 0.067925334 0.07868834 0.035287436 0.27023488 0.33354652 0.29803076 0.2524564 0.24665716 0.24300149 0.24130052 0.23626481 0.42841637 0.3760836 0.29675233 0.047640044 0.61905324 0.6131321 0.7162955 0.54294294 0.74436694 0.5693276 0.68852913 0.6589719 0.4597131 0.13758129 0.5886437 0.5881203 0.421957 0.16132697 0.04687448 0.19271314 0.6488877 0.76602143 0.29231492 0.28978008 0.8355315 0.37880504 0.088407025 0.24208649 0.27302647 0.80311346 0.81998515 0.72486126 0.5252354 0.1960544 0.04273179 0.17047487 0.78661984 0.8023055 0.8014461 0.7825682 0.14498252 0.16896145 0.34231815 0.106937215 0.587291 0.5728656 0.57373786 0.16719389 0.24589747 0.27252772 0.5780157 0.5738995 0.5485655 0.12511858 0.25070223 0.23688978 0.1785416 -0.024930557 0.055140406 0.34742373 0.4672422 0.06759982 0.29656643 0.42032748 0.3836093 0.33640754 0.25081342 0.24031009 0.18260618 0.1267898 -0.1308622 -0.5724715 0.24712577 0.49654984 0.45604193 0.36570245 -0.05962197 0.16937774 0.566068 0.05650955 0.66756785 0.65762126 0.5895511 0.58531153 0.538697 0.24951427 0.22540663 0.75851375 0.6521938 0.28882623 0.8260632 0.82355917 0.36369506 0.22334999 0.24657112 0.27789032 0.8279809 0.78870595 0.6958413 0.32151228 0.8062098 0.103323705 0.6730983 0.7637679 0.70048344 0.6207812 0.59036136 0.56376123 0.6571223 0.5927378 0.5207943 0.6302636 0.6122201 0.5674605 0.48322302 0.3302411 0.15761648 0.24135146 0.32302874 0.312715 0.48048908 0.49931824 0.5821166 0.44007963 0.13328427 0.2830715 0.3059684 0.2533633 -0.089685515 0.006749317 0.48153895 0.47692668 0.27239317 -0.06513452 0.2701308 0.093352854 0.2825938 0.26925662 0.45926875 0.40885353 0.38790274 0.26499143 0.2528406 0.56107825 0.49864718 0.13940074 0.6832428 0.114148855 0.7000192 0.68256235 0.6778022 0.6444204 0.663578 0.6575023 0.5096868 0.3372358 0.0817886 -0.111456335 -0.075016275 0.08310047 0.22558428 0.08504011 0.19569823 0.772622 0.6754954 0.6077934 0.10906477 0.17730185 0.16461878 0.3490909 0.35198748 0.19395933 0.18351787 0.70096266 0.66056633 0.7708684 0.81064045 0.7815759 0.75619495 0.6506282 0.65473 0.6387204 0.57083154 0.62865204 0.67301613 0.4491433 0.56136495 0.31669515 0.32456776 0.30309767 0.15145119 0.14287949 0.20716992 0.05140227 0.27620742 0.2653033 0.35627195 0.19910179 0.13196984 0.14758435 0.11949359 0.23218702 0.5369694 0.49051374 0.17107402 0.10926843 0.15906297 0.74907005 0.69145286 0.5684999 0.075472385 0.76292455 0.07033318 0.811015 0.08187993 0.78985155 0.19491383 0.78408384 0.21856838 0.2537093 0.78925 0.7515019 0.71272767 0.6082263 0.1954776 0.14506362 0.16967037 0.083460964 0.10076984 0.13770565 0.38417226 0.39389342 0.4002818 0.30769047 0.22338188 0.40084732 0.4417193 0.38582742 0.47621077 0.5463225 0.7666838 0.7013328 0.82288456 0.8281123 0.8041503 0.7634152 0.6657163 0.61756265 0.6402607 0.56619334 0.6871283 0.6853488 0.71599764 0.7009194 0.7207654 0.6097677 0.6726981 0.66880584 0.6179017 0.595278 0.56820756 0.5167003 0.61671597 0.66748744 0.5857678 0.55666596 0.5321804 0.5645097 0.54669386 0.30364105 0.31518155 0.32920986 0.3757953 0.4000466 0.25558054 0.25102985 0.1779733 0.30386567 0.38607764 0.15222439 0.06952062 0.05980359 0.24570587 0.15289539 0.14465639 0.089837186 0.7954618 0.7602962 0.7026676 0.6497098 0.54171073 0.1634952 0.08143753 0.81866324 0.044086054 0.84847784 0.12529445 0.81621784 0.22430624 0.8183118 0.6793252 0.25288692 0.82651937 0.83379066 0.82706785 0.7918033 0.19405195 0.12591511 0.33841527 0.27320972 0.14160617 0.13883677 0.14044112 -0.08889425 0.32111946 0.12905163 0.46908998 0.47963136 0.46882713 0.48749238 0.6610186 0.5842117 0.76720834 0.75907373 0.73471785 0.7992195 0.80725795 0.8004459 0.77486944 0.66925997 0.6955975 0.69082546 0.6728771 0.67169 0.6889006 0.6991534 0.6697328 0.6187775 0.6229023 0.61610746 0.6104027 0.553753 0.5157858 0.5429182 0.535635 0.52240264 0.4957791 0.37723458 0.4568324 0.5033025 0.4840472 0.34782368 0.4795707 0.48075807 0.47981358 0.75636125 0.8699552 0.803797 0.7349148 0.5227549 0.71086097 0.8399769 0.8018691 0.719067 0.53767425 0.76208407 0.7367139 0.5757028 0.5517613 0.5983123 0.5390253 0.644199 0.6482466 0.65165544 0.6136019 0.66226315 0.6845811 0.640658 0.65646243 0.6983041 0.70036083 0.6488764 0.66334176 0.60821605 0.63519347 0.60110736 0.50635165 0.6013138 0.5642187 0.45356315 0.36642814 0.53324383 0.517893 0.5035095 0.5908646 0.5276381 0.51480705 0.39370477 0.35443157 0.51311094 0.55003786 0.51170427 0.37867317 0.33862948 0.43696624 0.46130216 0.34680736 -0.024219692 -0.0429783 0.2527544 0.3163966 0.32568377 0.33271682 0.55123633 0.347641 0.3135789 0.33916968 0.06442666 0.29288703 0.31173947 0.3014954 0.31273326 0.3113084 -0.041921683 0.2625593 0.3114247 0.31625536 0.28819853 0.30754077 0.1286121 0.2685989 0.28349033 0.028154828 0.21418682 0.7941791 0.7428781 0.13407417 0.1191622 0.1322401 0.83356166 0.82097554 0.7714573 0.7219851 0.2558002 0.86151636 0.84632134 0.8253453 0.82881165 0.8240626 0.8131168 0.7755333 0.6975671 0.30026084 0.30250815 0.2320968 0.828207 0.8270717 0.8079724 0.75246507 0.26055568 0.83676624 0.82207614 0.7926241 0.21802825 0.3141927 0.32077932 0.1772292 0.11287612 0.4123422 0.37352026 0.3315695 0.4009271 0.5359918 0.5021049 0.45665577 0.48554933 0.5001988 0.4981166 0.39147425 0.42271474 0.51659334 0.5242706 0.46956497 0.64076203 0.66008615 0.6499145 0.74038064 0.75815594 0.7525946 0.7876173 0.78090143 0.5684866 0.602672 0.62355274 0.5607897 0.6529448 0.6310104 0.6059542 0.6233182 0.58411396 0.52620614 0.33016807 0.48730868 0.47262347 0.47216037 0.46931913 0.48851776 0.47166407 0.40115255 0.48796415 0.49583644 0.47575217 0.470568 0.6638488 0.8140609 0.7644596 0.55425125 0.6642052 0.7444166 0.6993698 0.36473286 0.6142867 0.21186633 0.42132175 0.54686356 0.13578972 0.42928106 0.48993933 0.20914745 0.5693133 0.4731768 0.049476936 0.5750966 0.5664338 0.48062485 0.17395028 0.57297164 0.61889195 0.60057807 0.6107549 0.62991416 0.65787804 0.60055494 0.48921365 0.2236598 0.29479742 0.56154597 0.60880536 0.45807147 0.3404168 0.25234878 0.37843156 0.34598196 0.4416176 0.49660817 0.39323667 0.35331386 0.4520626 0.20102221 0.45021033 0.326993 -0.08456333 0.28519884 0.29551226 0.30738616 0.33717704 0.3155518 0.27835116 0.3307341 0.30493605 0.30454153 0.2328803 0.2246685 0.31380162 0.32732674 0.30789167 0.042437844 0.26959842 0.33083075 0.12176463 0.13510917 0.3262397 0.3750741 0.3583609 0.42387962 0.28044134 0.37682188 0.3205412 0.24729648 0.21492389 0.36782146 0.04073713 -0.028055891 0.40456307 0.4166243 0.26299447 0.13037956 0.08677147 0.4738001 0.5622252 0.54818195 0.49064603 0.4551053 0.39363492 0.21924064 0.107191324 0.22117616 0.46906006 0.51284355 0.5082324 0.55211 0.27666932 0.2825239 0.26358777 0.5622281 0.55134326 0.5466913 0.5521859 0.5421355 0.15985835 0.07789606 0.52867466 0.0046451 0.4652455 0.42747468 0.3487748 0.3473168 0.2402187 0.12322048 0.44075269 0.40378782 0.40545857 0.31668603 0.45798513 0.40931594 0.4243464 0.41990733 0.37729725 0.39462206 0.40515625 0.39293516 0.650852 0.60220116 0.6409172 0.376244 0.42402074 0.367652 0.27176666 0.19296841 0.21503754 0.11682449 0.13997754 0.04936135 0.12805933 -0.0077724643 0.029148888 0.14303695 0.33949792 0.1843159 0.16069776 0.06898193 0.38054278 0.12457659 0.11096683 0.33929196 0.52471316 0.5931294 0.15877466 0.14099935 0.16944613 0.51419187 0.51624703 0.5346496 0.59817356 0.6187829 0.50599486 0.59841824 0.6146418 0.5552969 0.41285372 0.16874412 0.17862016 0.4411243 0.40144184 0.5700957 0.3132919 0.4345416 0.35810477 0.30136943 0.47199038 0.35522184 0.39563704 0.30942655 0.2651775 0.38687956 0.43242654 0.34923947 0.3943044 0.15385903 0.07681863 0.34376132 0.34794068 0.3192154 0.033337586 0.3140805 0.07692505 0.28741065 0.18933168 0.10307823 0.31513542 0.10346186 0.06385428 0.3536855 0.39414233 0.43896794 0.11835775 0.451042 0.4814217 0.24361236 0.51849246 0.31349862 0.3215211 0.41428414 0.469055 0.35011142 0.31814563 -0.011178076 0.07111681 0.112333186 0.11275306 0.10121447 0.0956305 0.09808323 0.027314052 0.3653507 0.4217384 0.34858266 0.38197404 0.31881765 0.13231717 0.023584627 0.1109947 0.11288224 0.09271195 0.08505319 0.047388196 0.091719605 0.45598364 0.5532423 0.45977354 0.49677527 0.55962855 0.58406407 0.5531522 0.21503745 0.16714597 0.10842253 0.42909914 0.334468 0.22881554 0.22778946 0.15284654 0.3175274 0.5106429 0.5321487 0.283499 0.1981584 0.23818219 0.5350472 0.37009144 0.29165757 0.14715807 0.1608348 0.4992916 0.30053902 -0.00097610056 0.042630672 0.4267174 0.40098345 0.38595718 0.31950587 0.37150216 0.33736414 0.37613034 0.36151642 0.3614903 0.34839627 0.38633165 0.3657708 0.17628723 0.041270927 0.23231414 0.29373538 0.35688892 0.34346575 0.20119798 0.38105366 0.12650576 0.21687764 0.028612211 0.07966722 0.28653854 -0.040524743 0.11595701 0.10524297 0.07556245 0.023482434 0.0824887 0.13460363 0.40852404 0.27469283 0.18841901 0.22300115 0.33029598 0.41283026 0.37243903 0.20267883 0.4886784 0.4859267 0.35185653 0.20763895 0.58814555 0.2606676 0.15220483 0.63127697 0.63004935 0.36268947 0.49675414 0.5678418 0.42031342 0.4139685 0.14991507 0.56728584 0.60490465 0.64103234 0.64776075 0.42561907 0.3585332 0.3224722 0.3178037 0.31196737 0.6011996 0.6222539 0.6415889 0.44857877 0.14667273 -0.19361895 0.20264003 0.24683776 0.43558818 -0.22877125 -0.18439448 0.1579687 0.21741068 -0.1682695 0.22195995 0.22589526 0.13269411 0.39831078 0.48501346 0.507875 0.26272446 -0.11122267 -0.13253294 -0.12701833 0.5977095 0.33670965 0.010962842 -0.101698175 0.52602124 0.58012974 0.3715206 0.06851664 0.07604701 0.093991436 0.08578831 0.04031975 0.100339375 0.4005596 0.36078858 0.48883975 0.4770056 0.36065087 0.3731044 0.09525442 0.09985885 0.100096986 0.0876042 0.13107525 0.4666307 0.40814734 0.11466062 0.10542396 0.10282622 0.09550348 0.3465551 0.42518967 0.50849944 0.42235094 0.3607647 0.5077417 0.5480641 0.5584903 0.5400569 0.31852973 0.32822487 0.30128935 0.3023984 0.28944921 0.27784967 0.12883814 0.45549303 0.38924325 0.30618915 0.17946272 0.11696915 0.46974504 0.4544517 0.32070422 0.15233421 0.1294821 0.4726265 0.45598364 0.4435656 0.47186154 0.50089645 0.44124168 0.4178518 0.47650743 0.4098991 0.36249766 0.3230526 0.28444067 0.27707404 0.28203973 0.2625655 0.28223258 0.28573313 -0.11025311 0.12798196 -0.088574745 0.073724665 0.18667647 -0.003920749 0.044947423 0.17703445 0.2587134 0.0655241 0.16055182 0.23369749 0.0504065 0.08342826 0.11893347 0.050250582 0.43179488 0.0914844 0.07435465 0.4758072 0.20559315 0.45078528 0.47009265 0.4471106 0.35942256 0.5278262 0.37340426 0.2998196 0.625355 0.42589927 0.48565176 0.4130128 0.31760973 0.21205671 0.151009 0.19794294 0.648764 0.6360415 0.44795614 0.42140126 0.36074978 0.23507468 0.30620036 0.29327986 0.6174321 0.6497899 0.64863026 0.4768768 0.07635275 0.2848853 0.21765965 0.2654363 0.46742433 0.46361682 -0.1322091 -0.023433395 0.20143953 0.17452429 -0.24663207 -0.35687414 0.1412968 0.2765944 -0.47795364 0.11591311 0.12048164 0.18012048 0.16077389 0.16125916 0.43758565 0.4547916 0.12632875 0.50537384 0.21886477 -0.4644541 -0.3596768 -0.16138513 0.55374444 0.3140602 0.25039417 -0.35562283 -0.2949488 -0.05868642 -0.1082793 0.61602795 0.60279655 0.34915406 0.35262382 0.01075062 0.03609156 0.041566636 0.1932835 0.61257255 0.37268117 0.3742731 0.43462613 0.5237074 0.57677376 0.39343265 0.3602203 0.48762655 0.44457152 0.41484886 0.4461897 0.42725646 0.39275384 0.3547331 0.45067066 0.4929347 0.52062404 0.52337134 0.37067145 0.34531376 0.38008967 0.3723579 0.35624343 0.3374931 0.36296314 0.34442848 0.339315 0.2900373 0.25643566 0.30876386 0.18741572 0.17325217 0.38471386 0.13697015 0.4490664 0.44882286 0.41535354 0.439888 0.420025 0.40072542 0.41461957 0.3921806 0.19513878 0.34114903 0.171883 0.1754982 0.24023631 0.23815131 0.09903312 0.26827127 -0.17057934 -0.17670152 -0.16954108 0.039111942 0.042680465 0.2364443 0.17344902 0.15123062 0.219448 0.052007467 0.50002384 0.4934942 0.4140104 0.47705632 0.52786696 0.34667787 0.15651637 0.49232805 0.47954628 0.1830487 0.33810708 0.60964364 0.5758792 0.31477293 0.20684424 0.06974302 0.013869911 0.32463104 0.33231044 0.31044233 0.65230083 0.6658716 0.6367734 0.46946895 0.45717013 0.38278145 0.2865901 0.19967346 0.44876605 -0.13220389 -0.23914365 0.13609509 0.35338598 0.017315177 0.01629588 0.17171907 0.17125592 0.4081292 0.08061843 0.49336666 0.05492329 -0.22120288 -0.3395396 -0.2821327 -0.24336368 0.004410524 0.54177356 0.5772387 0.1471333 0.20216477 0.59933645 0.31372654 0.19631885 0.59919196 0.61548406 0.37752587 0.36650902 0.32750732 0.45548537 0.54308754 0.553499 0.57958007 0.4034987 0.3960138 0.36557797 0.3091418 0.50069785 0.529745 0.42411783 0.39485145 0.3200431 0.5414671 0.47870052 0.5032861 0.54458785 0.3704767 0.35918668 0.44998622 0.50858545 0.59492075 0.30609798 0.36286294 0.28121606 0.28953528 0.19489281 0.14951542 0.346507 0.14324836 0.3407003 0.19881238 0.35667813 0.21721363 0.3354634 0.32800657 0.07241139 0.3275097 0.3055324 0.21382281 0.034222223 0.03696775 0.096254215 0.14855236 0.1956928 0.21193857 0.17105936 -0.006603852 0.2584464 0.31829685 0.12165643 0.11296894 0.12285657 0.060705177 0.090220176 0.6444423 0.602059 -0.03399451 0.009365007 0.45274347 0.62863034 0.5744177 -0.061345547 0.21397854 0.39055833 0.46566844 0.5222053 0.58240545 0.54519546 0.5106959 0.2806298 0.33801398 0.4020513 0.45379975 0.4354717 0.032944646 0.30643225 0.4043753 0.4311481 0.34210554 0.45638168 0.39523876 -0.18323253 -0.07483201 0.4988997 0.43232805 0.17592916 0.18161234 0.29726475 0.28163671 0.033843227 0.5247593 0.5476687 0.5097872 0.06868253 -0.16557005 0.14256921 0.31426772 0.27524513 -0.040544864 0.5801414 0.6261616 0.597509 0.17891836 -0.08388472 -0.2026145 -0.16319183 0.058085755 0.15607236 0.17429936 0.035719015 0.13923232 0.184699 -0.25868076 -0.18380193 0.43813843 0.17456327 0.27083927 -0.23774847 -0.09663252 0.16021626 0.49663597 0.5222313 0.2768619 0