# vtk DataFile Version 2.0
Really cool data
ASCII
DATASET POLYDATA
POINTS 1205 float
15.259983 15.110082 28.468575
15.352108 15.090566 29.15888
15.404317 15.266436 27.59139
15.12159 15.70274 28.811535
15.259314 15.575525 29.571486
15.16202 16.169708 27.833563
15.10888 16.634756 28.375402
14.994643 16.253382 29.045404
15.26651 16.783777 30.521894
15.231925 17.357386 27.871998
15.216325 17.443985 28.50229
15.135326 17.360716 29.409437
15.275387 17.422176 30.408257
15.442706 17.183464 30.942204
15.316683 18.023445 28.719961
15.301708 17.928598 29.94385
15.271308 17.906084 30.144485
15.379156 22.771616 18.286268
15.38172 23.518196 18.344505
16.131262 14.185779 27.50858
16.085167 14.160697 28.048794
16.054392 14.360293 29.136848
16.207691 14.867138 25.756918
15.712622 14.920638 26.768936
15.666749 14.676769 27.70109
15.70583 14.5816555 28.285975
15.693577 14.628624 29.191404
15.763685 14.90414 29.938107
16.069021 15.657845 24.9778
16.036983 15.468294 25.490128
15.812534 15.462959 26.254263
15.62279 15.496647 30.298162
16.015556 16.461353 24.665012
15.723724 16.835754 25.634588
15.545191 16.329205 30.657116
15.523335 16.800442 30.95502
16.041698 17.000128 24.697525
15.818962 17.383457 25.738844
15.551846 17.743746 27.022999
15.526971 17.255213 27.610252
15.654147 17.42959 31.296602
15.958323 17.247362 31.673439
16.226349 17.978235 25.435251
15.629392 18.312265 27.870003
15.517833 18.328613 28.777538
15.60851 18.494747 30.35313
15.938992 18.249716 31.24099
16.277851 18.995127 26.614836
15.9451475 19.062098 27.760138
16.021479 19.286287 28.577793
15.957594 19.03967 29.521534
15.909766 18.94602 29.923174
16.329988 19.643726 28.60812
15.876053 22.177343 17.43788
16.058184 21.611095 18.40024
16.029972 22.646095 16.817228
15.491307 22.494583 17.704044
15.496558 22.48291 18.767971
15.569637 22.787483 19.140274
15.846453 23.35873 16.911947
15.504513 23.29971 17.295986
15.769886 23.424177 19.490904
16.033533 23.5325 20.015476
16.117556 24.312649 16.99858
15.733232 24.299858 17.64143
15.699154 24.291332 18.292425
15.8908205 24.414494 18.873587
16.266556 23.908733 20.202747
16.0848 24.751677 17.518059
15.99646 24.79981 18.170074
16.525503 14.29938 26.169807
16.532387 14.169181 26.635235
16.634735 14.0341215 27.53155
16.444908 14.125107 28.622774
17.014631 14.912562 24.250214
16.735247 14.955749 24.655514
16.487474 14.685429 25.497824
16.772234 14.99613 31.153471
16.541351 15.764409 24.17586
16.51132 15.405309 24.430716
16.746016 16.870644 23.569973
16.611567 16.620405 32.21513
17.275509 16.431637 33.167027
16.443356 17.492474 32.119946
17.250694 18.866884 20.526102
17.223864 18.992447 20.983553
16.705908 18.329119 24.851822
16.405313 18.407667 31.634594
16.977207 19.474691 19.987211
17.207418 19.208172 20.752491
16.438381 19.229136 26.819698
16.856695 18.734482 31.508303
17.101522 20.464767 18.160559
16.566437 20.948175 18.796572
16.805742 20.963219 20.239614
17.15148 19.742855 26.845415
16.905205 19.700207 27.45867
16.804033 19.975075 28.58658
16.845846 19.757925 29.489819
17.114264 20.721195 32.718822
16.936552 20.869007 33.475155
17.206192 20.395596 34.287422
17.424015 20.559137 35.067562
16.54886 21.91341 16.91614
17.14467 21.444548 32.871124
17.035213 21.412941 33.529457
17.14794 21.295336 34.258087
17.32722 21.143124 34.84602
16.814108 22.727968 16.259253
16.4222 22.360065 16.526812
16.785273 22.896988 20.953121
17.185024 21.837553 33.025063
17.258085 21.888748 33.40881
16.764256 23.514694 16.29063
16.305586 23.656927 16.452192
16.435064 23.243074 20.67263
16.711039 23.571936 20.967236
16.69519 24.331833 16.678776
16.458689 24.052824 20.576797
16.973047 24.353615 20.946236
16.736435 24.846254 17.008224
16.529194 25.062424 17.63539
16.467508 24.89587 18.852127
16.840153 25.033834 19.409384
17.038912 25.11069 20.210135
18.153921 11.057649 33.802105
18.094114 11.07492 34.500946
18.13439 11.164413 34.901897
17.92381 11.502816 33.764145
17.768568 11.594035 34.529457
18.052341 11.740044 35.286694
17.617083 12.236998 34.447052
17.97424 12.328324 35.49812
18.146473 12.569179 35.693893
17.66071 14.097672 26.775217
17.896034 14.1710005 29.548412
17.814075 13.051463 34.34858
17.871716 15.258343 23.245949
18.031195 14.773938 23.696646
17.51512 14.650312 32.57021
17.996927 13.963211 34.327744
18.029926 15.693372 34.192047
17.632599 16.73063 22.47027
17.650925 16.163794 33.63991
18.097227 18.029514 19.718607
17.634844 18.135136 20.372639
18.0778 17.762718 33.9143
17.537195 18.629318 21.181486
17.648518 18.133118 22.784163
17.781279 18.181377 23.430906
17.844967 18.315907 33.541504
17.58386 20.071913 18.24909
17.756657 19.881079 34.70122
17.7222 20.019514 35.41182
17.708982 20.91501 17.190042
17.634138 20.623182 17.512651
17.762627 19.605068 26.099442
17.229166 19.700798 26.641598
17.175924 20.044765 28.010548
18.095018 20.52079 36.355312
17.377562 21.549387 16.837053
17.939455 21.354279 21.296412
17.884174 21.267946 31.503952
17.7507 21.340902 35.679867
17.96063 21.451904 36.211735
17.152023 22.670954 16.23559
17.894701 22.210424 21.561775
17.858192 22.086376 32.224506
17.777985 22.259325 32.766956
17.630367 22.27103 33.599888
17.648563 22.069202 34.351322
18.219746 22.200645 36.22219
17.503506 23.337559 16.26157
18.184689 22.74002 33.271873
17.268147 23.957417 16.378859
17.170137 24.558395 16.72589
17.508255 24.43769 21.327688
17.928505 23.942408 21.603115
17.267532 24.97466 17.205393
17.361017 25.013435 17.289598
17.657393 25.28804 18.334442
17.521877 25.27943 20.458406
17.758593 24.969927 20.981726
17.877028 25.663576 19.597338
19.12661 10.821825 32.79888
18.490026 10.845688 33.757256
18.527723 10.79685 34.453983
18.652178 11.037005 35.08921
18.342539 11.367554 33.10479
18.51486 11.586593 35.518055
18.660494 11.852407 35.76315
18.679808 12.446107 35.938526
18.737492 13.958309 24.628805
18.439594 14.041217 25.114391
18.040705 14.341292 28.162128
19.053415 13.465478 29.8122
18.533638 12.990969 35.918877
18.306688 15.086091 23.234404
18.560535 14.088631 35.181465
18.969484 15.762197 21.05544
18.592642 16.633722 20.562592
18.515966 17.428318 19.81856
18.968922 18.546654 35.356403
19.232288 18.816772 36.27614
18.170404 19.918592 18.000013
19.093225 19.339394 23.482315
18.59352 19.649994 36.33435
19.040852 19.680214 36.83828
18.698797 20.494902 17.329376
18.315025 20.666725 21.764008
18.318186 19.870731 26.700197
18.454716 19.895199 29.851318
19.011147 20.663464 30.716002
18.816875 20.570673 37.067867
18.198019 21.23204 16.990545
18.532774 21.784185 21.597858
18.4644 22.524279 16.631763
18.650263 22.271152 31.998981
18.436142 22.522144 32.31932
18.360899 22.56244 35.813084
18.560469 22.380188 36.492527
18.674835 22.044037 36.899734
18.281334 23.407286 16.614412
18.431526 22.614515 32.633614
18.384712 22.800674 33.491966
18.293535 24.439444 21.440632
18.097998 25.04378 17.674942
18.738308 25.240799 20.928513
18.267138 25.656134 19.548645
18.379213 25.626722 20.195246
19.85598 10.3520775 32.670216
19.537857 10.426638 33.64785
19.92973 10.472876 32.262135
19.147259 10.585477 33.937435
19.220476 10.642743 34.522102
19.384254 11.037988 35.21216
19.627575 11.869359 31.621359
19.440796 11.703326 35.728184
19.482122 13.097169 30.288483
19.472961 12.366113 36.009174
19.552351 13.490437 25.141504
19.615942 13.883269 29.240124
19.7796 13.213314 36.06622
20.005583 15.10583 21.075306
19.25326 15.379578 21.504519
19.761604 14.186876 35.844284
19.79002 15.686561 20.092943
19.604864 15.509144 20.64493
19.256224 15.4956255 21.35233
19.739717 14.834071 35.429165
19.483248 16.39342 19.705938
19.635576 17.482643 19.108767
19.459314 18.197773 35.411976
19.829262 17.788786 35.764038
19.164541 18.437248 18.977247
19.367592 19.575172 17.954742
19.638327 19.512262 26.924955
19.832039 20.10403 37.637405
19.074856 20.896141 17.151464
19.167341 20.345568 17.498587
19.13484 19.700293 26.646444
19.279396 19.885656 28.731737
19.673775 20.56064 37.621185
19.468943 21.226074 21.995039
19.32289 21.09642 37.514175
19.903198 21.60472 37.611843
20.017515 22.168953 22.10705
20.34281 22.710276 26.563332
20.281296 22.176338 27.675926
19.347374 22.07212 31.805073
19.324383 22.244778 37.07919
19.643717 23.550852 17.120174
20.352901 23.97064 25.90761
20.311407 23.697868 26.268019
20.416794 23.02983 27.788416
19.474617 23.30054 33.93978
19.474081 23.322725 34.79636
19.043898 23.888939 17.092379
19.572447 24.595116 18.429268
19.191435 23.997496 21.537888
20.418362 24.560272 25.937933
20.244555 24.28788 26.460602
20.270796 24.44793 27.112595
20.314793 24.211784 35.744946
20.25255 24.191801 36.331543
19.369259 24.75209 18.439941
19.24796 25.18447 19.228788
19.0933 24.904028 20.938095
20.380398 25.186445 26.217123
20.3891 25.034313 26.957397
20.334627 25.45614 36.492134
20.376776 25.150543 37.135494
20.624035 10.368835 32.063667
20.386333 10.268958 32.531223
20.532389 10.222252 33.281597
20.173552 10.409363 34.07193
20.547129 10.817417 31.642649
20.36402 10.6941805 34.521683
20.005781 10.966033 35.01864
21.349407 11.562936 24.367092
21.280098 11.941127 25.092802
20.907618 11.588098 30.67368
20.267868 11.428048 35.340057
20.129128 11.942884 35.737076
20.473606 12.990525 24.835052
21.28426 12.549998 25.501175
20.922766 13.017269 26.12702
20.918701 13.331061 28.424685
20.649202 12.321173 30.263533
20.22112 12.424049 35.90961
20.367653 13.850533 27.243938
20.397715 13.83009 28.892578
20.49141 13.606451 36.04002
20.764744 15.143767 20.110971
20.576162 15.017322 20.601337
20.997503 14.819107 21.812294
20.732733 16.07383 19.359377
21.043015 15.606804 19.579197
20.670094 16.233002 19.28587
20.319132 16.898268 35.426357
20.679735 18.100355 18.960972
20.999529 17.941715 36.64477
20.791178 18.75957 37.106823
20.012476 18.947565 25.403524
20.21526 19.36548 37.33964
20.260462 19.75614 37.630466
20.631456 20.632788 17.33272
20.502733 20.51568 38.02848
20.531477 21.657724 17.245594
20.525852 21.332924 22.398949
21.03149 21.723408 25.9574
20.46338 21.55954 26.479275
20.713963 21.371931 29.311193
20.243711 21.528828 37.90864
20.277504 22.79943 17.221815
20.641943 22.553371 25.97337
[...]
POINT_DATA 1205
SCALARS features_00 float 1
LOOKUP_TABLE default
0.46988568 0.4698863 0.45943052 0.4796973 0.4682667 0.45739847 0.4340644 0.46542186 0.44016674 0.37862852 0.40085736 0.4313059 0.44269028 0.43209767 0.40179107 0.4365387 0.4391343 0.7563726 0.78601986 0.44670337 0.44220936 0.43257555 0.3653924 0.4168495 0.44527507 0.45265195 0.451984 0.4410159 0.3590878 0.36512262 0.39394218 0.4261311 0.37779164 0.4106358 0.41868204 0.41937786 0.39340973 0.40153497 0.36290643 0.3701292 0.42023516 0.38779247 0.36960942 0.38109285 0.4033665 0.43481213 0.4305032 0.38253933 0.39425498 0.4007975 0.41746372 0.4242029 0.39271343 0.7056699 0.60975575 0.7715484 0.75484896 0.6776798 0.6418984 0.82376635 0.8381163 0.6235585 0.55757385 0.79741114 0.8175825 0.779276 0.7037778 0.5643999 0.7902559 0.7707164 0.38694328 0.4246925 0.4278152 0.4129022 0.2999102 0.3100092 0.33161396 0.31466317 0.3463257 0.33905032 0.3882926 0.25174925 0.055567376 0.32818538 0.2823225 0.23778374 0.33534855 0.4105755 0.30319995 0.2704594 0.38306022 0.39422366 0.42864507 0.514354 0.40864402 0.35416403 0.3685943 0.36410034 0.37713036 0.49746156 0.48929566 0.44428837 0.46805894 0.63884604 0.50506985 0.5054335 0.5125224 0.5003555 0.73153245 0.72079194 0.4789428 0.4987464 0.5031795 0.7668395 0.7888764 0.48424906 0.5189458 0.7657006 0.5610854 0.5970458 0.75886285 0.75837946 0.70935607 0.6640711 0.64074564 0.67207205 0.7158543 0.7283007 0.68098164 0.7270849 0.7346679 0.73006153 0.7255466 0.71096355 0.3412732 0.092037275 0.67486453 0.26983058 0.2405659 0.07370265 0.4243746 0.041198112 0.3262534 0.026610209 0.42079985 0.33247322 0.042183574 0.2271218 0.21963932 0.30210897 0.022410963 0.3564878 0.3533766 0.41667497 0.39628094 0.37985462 0.27921715 0.34712297 0.335728 0.48185822 0.5147132 0.26305756 0.4299538 0.4976313 0.49912894 0.6986948 0.35010365 0.45994163 0.47759873 0.4922421 0.5077946 0.49121094 0.69987464 0.45394468 0.7212435 0.72727174 0.60817105 0.5602883 0.7216927 0.7134017 0.69477105 0.65064025 0.6313915 0.6788831 0.55122507 0.6521884 0.6937753 0.71301347 0.589998 0.7159419 0.6972429 0.67277026 0.12196114 0.15751036 0.1927888 -0.1833179 0.6653246 0.22427969 0.5932683 0.2661075 0.29462102 0.40450877 0.25041437 0.32972983 0.30215684 0.042733252 0.3912518 0.39382875 0.3011507 0.1754787 0.2363438 0.087853916 0.060446255 0.45386964 0.387389 0.22100121 0.5150463 0.38536912 0.41945577 0.44142032 0.45681185 0.46469682 0.595972 0.4293697 0.43677026 0.5902131 0.6398084 0.6123339 0.6588919 0.65549725 0.54963744 0.59296757 0.5239829 0.6311302 0.6607481 0.67470515 0.31193894 0.6553521 -0.1080286 0.62494236 0.010230459 -0.21086761 0.59381163 0.38222206 0.25584453 0.60583335 0.3889368 0.36248845 0.27145547 0.54831946 0.37282503 0.31425166 0.2585631 0.26976457 0.24434896 0.19682984 0.04714635 0.408642 0.286807 0.26053333 0.098555684 0.10887465 0.4154327 0.124283075 0.42045838 0.37013012 0.14623655 0.4472308 0.35083863 0.30563626 0.3769562 0.3708081 0.4319837 0.4372772 0.3784291 0.29387844 0.24424747 0.49137014 0.47834504 0.50320673 0.4586392 0.4507568 0.4573736 0.3374312 0.4018099 0.5297103 0.52366376 0.57340795 0.50268805 0.48649192 0.5281935 0.5411166 0.5281037 0.54352105 0.5448104 0.5712031 0.47905612 0.56682867 0.61284304 0.59155965 0.42150167 0.3259678 0.5832534 0.5902523 0.16694102 0.23525435 0.026020348 -0.23951116 0.048840217 0.5726632 -0.18651581 -0.24690439 0.57513154 0.43912876 0.43284655 0.42493922 0.39900777 0.42373314 0.38792723 0.20789999 0.17871755 0.30429187 0.33558047 -0.1917059 0.377886 0.38612103 0.22323571 0.39216262 0.20809935 0.047632195 0.3159184 0.34243226 -0.1018025 0.36752573 0.19063753 0.41683656 0.26481932 0.27362454 0.09288278 0.41464853 0.35840476 0.119352005 0.40087387 0.47040147 0.44145527 0.40056488 0.5115564 0.013297483 0.52697444 0.5269878 0.4838341 0.44796228 0.52218485 0.577772 0.58542365 0.63732076 0.63299453 0.6028912 0.55822146 0.51573604 0.5458127 0.58876526 0.63063407 0.6158508 0.6494745 0.6400186 0.63447976 0.64946735 0.50736046 0.5374316 0.534197 0.7224323 0.6907351 0.60659575 0.52797174 0.5199189 0.70370406 0.66614014 0.5957154 0.41580617 0.4950647 0.6376506 0.566757 0.19688278 -0.087895535 0.5114812 0.4388408 0.45045507 0.4465583 0.40680856 0.51735014 0.39234847 0.41282433 0.5228435 0.33810568 0.28247577 0.09793404 0.29164463 -0.034384456 -0.27554122 0.3234422 0.3370734 -0.09371332 0.39122173 0.14740051 -0.07997015 0.3742391 0.33459157 -0.08821469 -0.19897784 0.39356062 0.16236225 0.50714827 -0.034656286 -0.028306663 0.30002785 0.10898234 0.58837485 0.20731468 0.23680297 0.38657537 0.48507938 0.6517956 0.16932958 0.26289368 0.27366683 0.5659007 0.5896673 0.52283597 0.65270394 0.6579123 0.6494743 0.6448187 0.62490606 0.5593348 0.63546747 0.65686417 0.6712325 0.7665113 0.5020356 0.51884526 0.7412305 0.768319 0.7499392 0.71413904 0.44301724 0.5118784 0.5198942 0.5119468 0.7049173 0.16105318 0.34065825 0.4977454 0.484774 0.6415818 0.43809432 0.39080867 0.38996065 0.33838326 0.23473099 0.013396324 0.38497704 0.39965284 0.1842561 0.39818573 0.21941938 0.4313462 0.009684804 0.5683033 0.021827519 -0.11189614 0.08643757 0.63132477 0.23115362 0.6900029 0.5132973 0.49478924 0.7097058 0.17777966 0.17805661 0.25669456 0.27705568 0.2811917 0.5829954 0.5799891 0.592941 0.5797696 0.5635605 0.6018208 0.6551597 0.6820052 0.6887837 0.26454982 0.7616974 0.7583246 0.76600075 0.7448323 0.71588814 0.48825547 0.49824458 0.53070253 0.754022 0.25555307 0.37040967 0.5007274 0.37106866 0.25878328 0.30987877 0.19329289 0.028972477 0.16895413 0.2769856 0.21418788 0.21783194 0.1869344 0.21326579 0.46921045 0.39847425 0.41183412 0.46501696 0.4232384 0.2786951 0.4494799 0.5640844 0.63761365 0.10629943 0.11921942 0.6735681 0.58129 0.043675013 0.70245916 0.5713062 0.5270165 0.41884416 0.35629568 0.5206152 0.5541818 0.6002356 0.63823557 0.65366185 0.68897784 0.5529499 0.29095662 0.21925555 0.2168179 0.41843808 0.35110384 0.7162467 0.68030846 0.64891183 0.51180935 0.29385006 0.17067368 0.27584103 0.37552136 0.5121479 0.5281817 0.34987897 0.15894759 -0.008650005 0.13647568 0.2819714 0.15157913 0.44239038 0.3826934 0.096590966 0.47776037 0.3744657 0.40614253 0.47976583 0.3959546 0.4388649 0.46427828 0.35973722 0.448146 0.5360928 0.6047868 0.5732589 0.6267316 0.63830894 0.32335296 0.17595577 0.4648987 0.62693995 0.6509412 0.65296304 -0.14819323 0.49222708 0.4993 0.517478 0.6159272 0.14019768 0.10154193 0.4140234 0.4830857 0.499699 0.5315569 0.6643287 0.63989854 0.39650914 0.32649282 0.51352036 0.47184744 0.43953624 0.48676017 0.45144343 0.32790533 0.41278827 0.39773262 0.13481602 0.008349374 0.23933358 0.25942102 0.41970912 -0.07316296 -0.0656008 -0.10760062 -0.15968952 0.47741067 0.03894277 0.2923745 0.30205846 0.106034644 0.40657148 0.08254705 0.24893889 0.41496396 0.4419936 0.46264076 0.41559497 0.43950146 0.4650822 0.42895657 0.45502654 0.48211697 0.49694228 0.5533977 -0.075740114 -0.041352503 0.0020106733 0.5128067 0.5420432 0.57878834 0.677886 0.25413242 -0.12645388 0.18306187 0.3429244 0.74097455 -0.13502789 -0.07312116 0.17225042 0.4351294 0.7434394 0.6937271 0.027211681 0.5355864 0.73025936 0.70898575 0.3608047 0.3435699 0.5061343 0.5464986 0.69797397 0.6521663 0.55443335 0.5294574 0.47858173 0.44897902 0.5373881 0.29963022 0.45101622 0.25600582 0.21749346 -0.041701794 0.48057258 0.18691547 0.5219929 0.5185584 0.5119595 0.44927692 0.33404642 0.061659604 0.51956123 0.5035065 0.41997582 0.122804254 -0.091275275 0.24869469 0.017526627 -0.10268521 0.41327915 0.3539371 -0.2955653 0.34950772 -0.056202218 0.53032 0.44508082 0.4721264 -0.11032322 -0.04127586 0.5902847 0.6812313 0.37327912 0.7942594 0.23132235 0.5370593 0.786176 0.37401345 0.50114816 0.55709326 0.72934777 0.6648849 0.50971377 0.49419624 0.6606256 0.6263263 0.5730351 0.5463407 0.5230506 0.75091517 0.66775715 0.6510054 0.70846605 0.49265206 0.42774498 -0.26450843 0.30168334 0.34570402 0.54758674 0.5413028 0.52230406 0.0009204298 0.48927486 0.36364394 0.1294697 0.4567095 0.12207803 0.17805445 0.35308266 0.12221623 0.11009604 -0.18935725 0.2457771 0.341242 0.5009608 0.4598524 -0.09449941 -0.13186589 0.54499304 0.057183467 0.62958896 0.5651962 0.2672999 0.18514583 0.7006814 0.09322992 0.26930314 0.301083 0.46623614 0.79331225 0.7767005 0.4514179 0.3123271 0.49491987 0.5220399 0.5362436 0.53562117 0.73086166 0.7081723 0.5185158 0.71022874 0.7030477 0.64083576 0.57781637 0.8957105 0.88500714 0.7695792 0.8562985 0.6970907 0.64722574 0.5235652 -0.1113404 0.41911656 0.44610488 0.004748855 -0.12094897 0.3374552 0.38155127 0.57106805 0.5592775 0.5673612 0.536543 0.22773921 0.24043481 0.1965859 0.26530173 0.56156766 0.3458079 0.16624844 0.22303355 0.5110618 -0.031515643 0.23548289 0.22973466 0.22735617 0.063964896 0.2761373 -0.07046676 -0.11479653 0.32735953 0.3752782 0.5348586 0.4645579 0.5932044 0.57339203 0.5596603 0.20839798 0.6950196 0.63365555 0.3261053 0.4817772 0.734977 0.43301928 0.3743148 0.39521146 0.531653 0.5318424 0.5168896 0.7458718 0.755967 0.7050991 0.5974441 0.53908 0.7361928 0.7264011 0.6830542 0.88600165 0.94706666 0.92376924 0.9073503 0.73758376 0.87026 0.75909925 0.5479083 0.4333946 0.24335518 0.18367064 0.038848102 0.39383078 0.5887737 0.593415 0.5704291 0.24447802 0.24877891 0.2865205 0.5688456 0.24749018 0.53533816 0.29239666 0.48562166 0.40280885 0.34116572 0.3826062 0.22924425 0.31844807 0.37923753 0.1286767 0.3810563 0.38450637 0.41799766 0.35687155 0.33220947 0.17224859 0.5826448 0.43642575 0.28899097 0.3049141 0.34988034 0.28166062 0.6219595 0.6720384 0.6726147 0.6434568 0.54825705 0.43520844 0.46120685 0.45033115 0.39786965 0.2249574 0.43300945 0.4411679 0.4935248 0.4655221 0.7304783 0.73430717 0.7212781 0.6762874 0.5170183 0.5192787 0.50876296 0.7606468 0.7432308 0.68974125 0.64113295 0.79434955 0.86162853 0.97230566 0.94753253 0.90892786 0.7337321 0.87252307 0.64595157 0.7996299 0.6975556 0.56021607 0.28554997 0.33588916 0.3440292 0.2411431 -0.13494065 0.58804214 0.5786006 0.5531865 0.56509817 0.57979804 0.5786834 0.5978928 0.20464619 0.2801072 0.35019597 0.5333297 0.54356325 0.34752184 0.49785608 0.38572425 0.41172105 0.3589983 0.23558906 0.45880127 0.47802943 0.32736468 -0.075577855 0.4953883 0.3679169 0.3622741 0.010727733 0.57420456 0.34809247 0.37839425 0.17100072 0.50679547 0.56728494 0.42774206 0.45 0.43100247 0.2651537 0.33244967 0.41421664 0.4904997 0.55557084 0.6806792 0.45943925 0.4464903 0.41886953 0.42252302 0.8469585 0.9365872 0.9130667 0.7377945 0.80990773 0.8630829 0.8459007 0.7869296 0.5031957 0.49030125 0.7291909 0.45205063 0.38440835 0.41365087 0.35986245 0.4718044 0.30015585 0.35138473 0.34255388 0.5655505 0.5636852 0.2900041 0.5445551 0.5306911 0.16492169 0.2760742 0.44645166 0.0123772025 0.2892875 0.08988056 0.053481467 0.39545885 0.060708467 0.07332298 0.065177105 0.35223377 0.34412542 0.293626 0.18826503 0.076472364 -0.0088521615 0.26079592 0.36526906 0.26703304 -0.07786527 0.16226454 0.4177286 0.36308798 0.30533355 0.4371301 0.36482915 0.32774276 0.35077035 0.17636476 0.38933766 0.32463762 0.350317 0.20003353 0.5843629 0.40351057 0.3971206 0.32243443 0.42262107 0.5952683 0.60099846 0.41421726 0.42951882 0.42228097 0.5756582 0.5886909 0.7878237 0.8524982 0.82569844 0.81618303 0.72179013 0.78678054 0.7605754 0.76736 0.5586226 0.6979948 0.6591014 0.42635638 0.54060316 0.518082 0.4056803 0.43360654 0.40328693 0.28517997 0.3679906 0.37420428 0.047533378 0.2565551 0.37958 0.26201904 0.27534023 0.21457346 0.12175336 0.21659958 0.14738932 0.2800548 0.27516064 0.27937484 0.19943997 0.2328326 0.17123346 0.33336562 0.09977648 0.3096942 0.32358056 0.12462034 0.25231916 0.50711256 0.44178915 0.34498912 0.26414865 0.32169938 0.40821385 0.55875134 0.5738815 0.5809104 0.33442807 0.43707258 0.5781919 0.59489155 0.5986563 0.397888 0.31488168 0.344293 0.31517345 0.25729838 0.111121304 0.39687383 0.25399145 0.241168 0.27033675 0.23677976 0.26135516 0.2007153 0.23942591 0.24555027 0.25952235 0.14242306 0.24094142 0.15528177 0.28815517 0.33105546 0.5022544 0.34611163 0.4202286 0.5429705 0.14047837 0.13295107 0.22827694 0.4104513 0.58773893 0.3043295 0.1514898 0.4836352 0.3298634 0.3268572 0.4922877 0.36153835 0.34049827 0.4522212 0.33814687 0.43300486 0.4199801 0.374788 0.27712542 0.5005059 0.54864913 0.61099976 0.2693411 0.29942048 0.20487733 0.62492335 0.4254976 0.4458442 0.6145078 0.48685122 0.5477878 0.4233054 0.55119425 0.57399666 0.5105491 0.50381947 0.44324985 0.46028018 0.56209874 0.59631836 0.6251477 0.3460035 0.38120884 0.4886074 0.62334037 0.6452406 0.65470946 0.45227054 0.41241574 0.41161168 0.5034112 0.6759031 0.5582338 0.5314919 0.53103864 0.65379024 0.61161023 0.5891642 0.5918928 0.58889675 0.52136385 0.51030064 0.54866457 0.5802156 0.59797704 0.56744605 0.5200074 0.43624327 0.54015505 0.508711 0.6699134 0.6910289 0.7185242 0.46155518 0.7414999 0.7652401 0.7308111 0.6957215 0.5017345 0.50054455 0.5502415 0.6842034 0.7061981 0.69465315 0.57416034 0.52678764 0.57470846 0.62787557 0.6556894
SCALARS features_01 float 1
LOOKUP_TABLE default