# vtk DataFile Version 2.0
Really cool data
ASCII
DATASET POLYDATA
POINTS 7803 float
-6.6365223 16.179417 17.694454
-6.704658 15.930906 18.507229
-6.703614 16.090582 19.150385
-6.626954 17.028492 16.957005
-6.9111714 16.704308 17.881365
-6.9958553 16.655663 18.52261
-6.871355 16.677624 19.353333
-6.6534743 17.52846 16.931385
-6.8768663 17.640009 17.670263
-7.0417757 17.397902 18.488058
-6.879903 17.414013 19.40666
-6.717186 17.309935 19.779486
-6.5944037 18.2792 17.007475
-6.71745 18.4266 17.66433
-6.782555 18.402288 18.5069
-6.7653956 18.115429 19.16712
-6.596921 18.967056 18.223173
-5.6733212 9.939283 20.766567
-5.585595 9.88486 21.299904
-5.5953126 10.539133 20.019653
-5.7152786 10.361786 20.67376
-5.709026 10.510731 21.20332
-5.629866 11.191986 20.63301
-5.752471 15.013784 17.727383
-6.0591784 15.254215 18.31984
-5.727018 15.796167 16.068426
-5.8236303 15.57359 16.726353
-6.412693 15.829808 17.581266
-6.4934216 15.742328 18.297182
-6.4176927 16.050085 19.462929
-6.261664 16.265572 19.808424
-5.716917 17.001982 15.19979
-6.030706 16.71493 15.83111
-6.3419776 16.811089 16.489815
-6.5927877 16.41796 19.632233
-6.3851385 16.700962 19.938383
-5.749995 17.47437 15.245019
-6.0189657 17.616283 15.586824
-6.410958 17.297344 16.369432
-6.334906 17.47148 20.019176
-5.774339 18.005005 15.256871
-5.991334 18.15766 15.7439575
-6.3164263 18.417032 16.58238
-6.466979 18.366425 19.312216
-6.408114 17.881895 19.79618
-5.8505774 18.797558 16.137058
-6.0390706 19.126478 16.852186
-6.2723737 19.289297 17.656927
-6.2909436 19.33244 18.398525
-6.2164216 19.166073 18.937708
-5.93677 19.75509 17.800623
-5.8893538 19.79075 18.275177
-4.808597 1.9350672 15.237194
-4.9953957 1.8608881 15.705623
-4.9677787 1.800061 16.319475
-4.781767 1.8699552 16.804548
-4.7979426 3.2857678 10.4157
-4.7512264 3.313245 11.317175
-5.022107 2.5189471 15.114962
-5.2682395 2.472136 15.711612
-5.2979817 2.5313587 16.342457
-4.998929 2.4316623 16.897598
-4.9654026 3.8031967 9.940356
-5.1348233 3.7364905 10.536969
-5.013565 3.6697729 11.118841
-5.051678 3.2609239 15.090261
-5.3150444 3.391163 15.784752
-5.2798405 3.3781335 16.348005
-4.9957137 3.4010744 16.924402
-4.9988074 4.4999986 9.752006
-5.297921 4.4532046 10.451463
-5.201447 4.3641386 11.207049
-4.957253 4.3404117 11.868451
-5.106992 4.354457 15.78408
-4.9729166 4.432747 16.281761
-4.7983446 4.113671 16.819649
-5.02805 5.1764584 9.958725
-5.1902266 5.264891 10.580268
-5.1385717 5.3533754 11.223607
-4.820182 5.2677283 11.981205
-4.854491 5.2610965 15.6927185
-4.7913923 5.2661095 16.106016
-4.8146176 5.8014784 10.096418
-4.848188 5.9617395 10.589581
-4.7237134 6.2590055 11.3957815
-4.619616 6.096627 11.871053
-4.593635 5.9183135 15.951655
-4.825597 9.028516 20.405527
-5.176112 9.29701 21.30485
-4.8324337 10.097064 18.655495
-5.043942 9.844905 19.517185
-5.4431877 9.529164 20.637333
-5.462471 9.666744 21.344364
-5.0291777 9.778437 22.185415
-4.8354254 10.148435 22.992065
-4.70804 10.9714985 18.187887
-5.0098653 10.530746 18.832823
-5.3809505 10.313712 19.635128
-5.394206 10.475545 21.994316
-4.8607965 10.54512 23.133188
-4.747493 11.558811 18.138887
-5.093958 11.461652 18.708292
-5.407434 11.479706 19.437586
-5.4305587 11.59771 20.527386
-5.4021764 11.638003 21.276203
-5.1659155 11.313931 22.495064
-4.780037 11.500344 23.306665
-4.574355 11.064692 23.917908
-4.9545875 12.001277 18.666481
-5.0507207 12.760339 19.534761
-5.3756347 12.080883 20.353277
-5.249142 11.990455 21.208586
-4.8705697 12.27256 22.482231
-4.658901 11.884159 23.511536
-4.5276046 13.3124 19.032198
-5.1332445 14.767702 16.51483
-5.4260592 14.7909 17.730398
-5.230568 15.121724 19.162273
-4.9861116 16.061893 15.218641
-5.198115 15.671682 15.553949
-5.4682193 15.886157 19.731035
-5.2076306 16.75237 15.045004
-5.2704062 17.718073 14.970737
-5.621312 17.48228 20.147238
-5.306725 18.169245 15.1493635
-5.5421944 18.405497 15.459635
-5.5759873 18.10832 19.92278
-5.222159 18.909616 15.78307
-5.5150347 19.25922 16.505014
-5.4999833 19.557646 19.054874
-5.4969354 19.710323 17.128847
-5.451026 19.919794 17.701159
-5.474144 19.952747 18.362062
-5.5594134 19.703651 18.872072
-4.2970757 1.3320322 15.791993
-4.324215 1.3402432 16.297943
-4.308262 2.0185146 14.824177
-4.544888 1.5743932 15.521625
-4.5679083 1.5354381 16.553457
-4.3739233 1.7841637 16.960222
-4.4247785 3.2384367 9.9564295
-4.4940243 3.1022782 10.381181
-4.4183097 3.1313522 11.161077
-4.297568 2.3002768 14.685667
-4.550634 2.3224218 17.22206
-3.8372529 3.0455906 17.588228
-4.2539616 4.1260457 9.308034
-4.4955273 3.690679 9.61925
-4.3865576 3.7385263 11.980758
-4.414616 4.4755797 9.305774
-4.627927 4.3011684 9.44818
-4.127263 4.564915 13.981741
-4.5338874 4.753083 14.390041
-4.5066915 4.1206083 17.233606
-3.823951 4.0147514 17.629744
-4.30239 5.2622147 9.3254595
-4.6065946 5.4730034 9.637404
-4.4148016 5.415633 12.6333685
-3.8677716 5.4949727 13.51039
-4.28404 5.047627 14.47625
-4.5737767 5.7823114 15.178659
-4.4762855 5.4465456 16.636301
-4.29944 5.5183725 16.916113
-4.360797 5.943703 9.765833
-4.383296 6.4372234 10.419407
-4.4786377 6.587188 11.353342
-4.2838798 6.545632 12.031065
-4.377918 5.8836164 14.7051
-4.185512 6.417457 15.760453
-4.1341968 6.7884145 10.483654
-4.1309447 6.914583 11.427898
-4.1100817 6.801572 11.998546
-3.666264 6.7669263 16.218466
-3.6167402 8.85467 18.066689
-4.5222106 9.013073 20.001934
-4.5988884 8.878503 20.909151
-4.0793962 8.642535 21.595772
-4.2683144 8.912561 22.257399
-3.7537823 8.893927 23.313354
-3.7189426 9.073709 23.872847
-3.929866 9.806299 18.06163
-4.3615756 9.5383415 18.867006
-4.3478866 9.655926 23.235556
-3.8380713 9.870367 24.357473
-3.8778498 10.996572 16.89574
-4.5576377 10.244833 18.340254
-4.3246546 10.732877 24.069008
-3.7633708 10.546291 24.807415
-3.9010108 11.607296 16.658493
-4.4808617 11.630413 17.754766
-4.4986343 11.820975 23.792828
-4.2820773 11.481979 24.315441
-3.8262007 11.612005 24.950815
-3.6413534 12.12781 16.09395
-3.917707 12.6369095 16.6785
-4.3374176 12.775098 18.024956
-4.516038 12.928265 18.358204
-4.3614006 12.303607 23.687004
-4.103614 12.271573 24.322649
-3.8416204 12.097537 24.865803
-3.6728995 13.602463 16.173998
-4.223501 13.963566 16.55638
-4.119118 13.345447 17.277918
-4.2971144 13.151435 20.360699
-4.314267 12.925794 21.576588
-4.497028 12.781858 22.26436
-3.8857906 12.933029 23.162987
-3.849705 12.728263 24.201168
-4.0745 14.80284 15.187409
-4.3459983 14.754944 15.657418
-4.306076 15.556145 15.13251
-4.4564695 16.825815 14.689527
-4.3086166 16.650772 19.970585
-4.3505282 17.73059 14.82005
-4.9110136 17.463497 19.977951
-4.477421 18.210672 14.968582
-4.835878 18.421757 19.668734
-4.4613686 19.059856 15.657307
-4.6713057 19.58207 19.142704
-4.9057117 18.833763 19.610252
-4.460419 19.559608 16.478098
-4.6000447 19.88819 17.457432
-4.7761374 19.926231 18.472519
-4.6758103 19.750813 18.785713
-3.3004506 1.2144395 15.192144
-3.276242 1.2097782 15.613449
-3.5737298 1.2216246 16.29874
-3.044689 1.3998133 16.776346
-2.7369633 2.0242226 10.731936
-3.0459206 2.233299 11.047434
-3.5817513 1.7416627 14.875375
-3.9220335 1.4387866 16.711697
-3.229339 1.7356449 17.157995
-2.5313349 1.7132075 20.886848
-2.6066318 1.7715914 21.630625
-2.6677794 1.7284867 22.332542
-2.6307266 1.9766499 22.992298
-3.751911 3.0920491 9.862289
-3.5843234 2.868677 10.240932
-3.522953 2.8326862 11.320394
-3.5802329 3.302755 12.887903
-3.7429943 2.8841069 17.690113
-2.5349793 2.4728446 20.3672
-2.7609718 2.3936615 22.513384
-2.580525 2.4275177 23.37726
-2.9083753 3.4436095 9.4353895
-3.0559404 3.5816855 18.47852
-2.9151814 3.559045 19.400581
-2.617565 3.7563705 20.314396
-2.8402534 3.2806427 22.481913
-2.7530115 3.7646325 23.156546
-3.5287626 4.5767303 9.049096
-3.1537006 4.1539183 18.609318
-2.8509676 4.5122066 20.091822
-2.7752182 4.331865 21.310497
-2.9053264 4.536569 22.305847
-2.7875378 4.464531 23.300392
-3.3214471 5.4940214 9.086911
-3.3854373 5.1984053 17.892088
-2.8461375 5.661657 19.08053
-2.609089 5.4583473 21.549376
-2.7432644 5.2543035 22.942663
-3.2396321 6.0588694 9.245993
-3.5279212 6.3893723 9.538126
-3.4661746 6.556737 14.811581
-2.623798 6.070326 19.537233
-3.4919379 6.718174 9.9133415
-3.2571044 7.1882634 10.5167055
-3.454686 7.3593273 11.225205
-3.0379684 7.1399994 12.440317
-2.9915607 6.840446 13.432085
-3.0078108 7.2154226 14.603018
-3.1788116 7.660397 17.534433
-3.0702531 7.686618 18.113564
-3.313983 8.241762 22.827702
-2.8489711 7.5847683 11.452246
-2.7421815 8.380869 15.106768
-2.7877467 8.277015 15.522211
-3.2273908 8.370332 16.722664
-3.4604132 8.674973 18.365345
-2.94138 8.52418 19.650585
-3.2554781 8.457439 23.590769
-3.5371437 9.069775 23.760317
-3.4317727 9.613319 24.479412
-3.1547146 10.105707 25.011707
-2.7229009 10.225876 14.959618
-3.3873072 10.862693 15.890468
-2.876274 10.438113 25.43069
-2.9605541 11.075049 25.604088
-3.1384194 11.601624 15.166666
-3.4318104 11.32854 15.769094
-3.4405687 11.693727 25.284649
-2.6089573 12.779159 13.948294
-2.725196 12.448114 14.765461
-2.8481748 12.734387 15.31375
-3.3020165 12.394298 25.115582
-2.7177722 13.745474 13.508214
-3.6041377 14.247316 15.204967
-3.1229653 13.2812195 22.914713
-3.5333927 13.115453 23.737328
-3.6011145 12.804111 24.581715
-3.5019531 12.819248 24.793417
-2.7131476 14.430095 12.938504
-2.9857004 14.695108 13.599281
-3.5659747 14.782018 15.007974
-2.6927207 14.124977 21.197329
-2.6442344 15.785668 12.911003
-2.9315808 15.190336 13.361847
-3.5403018 15.558789 14.632889
-3.5724092 15.9431505 20.120533
-2.838123 15.897897 13.500587
-3.6694715 16.17254 14.5391245
-2.5996819 16.571465 23.796844
-2.5735035 16.938087 24.716574
-3.2702453 17.407513 19.735977
-2.6359901 17.457584 23.033295
-2.6821275 17.582956 23.68357
-2.7167327 17.587862 24.447138
-2.5837827 17.636911 24.929428
-2.5652275 18.978443 -0.11768164
-2.5462892 19.073635 0.22003093
-3.723712 18.381445 15.023207
-2.9822762 18.338835 19.784506
-2.6385098 18.374722 23.655787
-2.6689844 18.243238 24.423222
-2.6934333 19.724869 -1.2969527
-2.7807574 19.688614 -0.49323663
-2.6572597 19.487595 0.30474025
[...]
POINT_DATA 7803
SCALARS features_00 float 1
LOOKUP_TABLE default
0.5584103 0.6154619 0.6712142 0.5644794 0.6208594 0.67975575 0.7308664 0.5876442 0.6542537 0.7314273 0.7794287 0.789255 0.6286783 0.688485 0.75212026 0.7888319 0.74369884 0.5325837 0.52173513 0.5056839 0.5364735 0.5275721 0.5084827 0.4346894 0.53466344 0.41899997 0.4215856 0.5164637 0.57861847 0.67450505 0.70358235 0.5117326 0.50872576 0.53106636 0.72275746 0.7468668 0.54397225 0.5575937 0.55588156 0.78729135 0.56898475 0.58072376 0.61156756 0.792968 0.79943895 0.6114547 0.67110986 0.7280682 0.7632401 0.774858 0.7540144 0.7643696 0.74287176 0.7799684 0.786997 0.7534592 0.6527436 0.5682336 0.76500833 0.8191767 0.82445586 0.7654519 0.7495713 0.7493484 0.687425 0.68799007 0.7091204 0.70286644 0.62583053 0.77535504 0.8274543 0.7872167 0.6756147 0.47871292 0.47716224 0.48416525 0.7388986 0.7494689 0.67858326 0.5165098 0.38399598 0.39951563 0.6526103 0.63563406 0.5530406 0.4798743 0.3552988 0.4517763 0.48995882 0.3088918 0.42429206 0.5135417 0.51156634 0.4555413 0.41841394 0.25166637 0.34657225 0.464297 0.49517256 0.4319167 0.21748364 0.31280345 0.41019684 0.4729442 0.47390193 0.46458036 0.44748306 0.4561119 0.2752373 0.35348293 0.4303301 0.44155738 0.426389 0.44882965 0.2253407 0.22281344 0.34917855 0.53084064 0.36601815 0.34029895 0.6756935 0.4689369 0.54824686 0.71904004 0.5681613 0.58124316 0.7080561 0.60006124 0.65909076 0.74226224 0.726372 0.7427389 0.7475325 0.7514226 0.6944664 0.69790757 0.6491621 0.7191566 0.7296128 0.6969947 0.6305205 0.5939511 0.5010083 0.61642087 0.6943705 0.49361265 0.6407655 0.6799317 0.50339496 0.67074597 0.71483874 0.2217702 0.28916898 0.42919523 0.32063836 0.62260854 0.6525614 0.29903314 0.10672958 0.27405512 0.31980324 0.37832654 0.35162514 0.5989242 0.5705339 0.52416384 0.42091194 0.25983325 0.29630932 0.52825904 0.4706564 0.40704718 0.19180176 0.06896595 0.38959128 0.43263835 0.3862794 0.3838833 0.29053485 0.2963701 0.17240378 0.26425487 0.3722393 0.38675538 0.077032626 0.26195917 0.45291469 0.47568923 0.011820358 0.1486039 0.46001863 0.47919142 0.5124932 -0.04409303 -0.054648772 0.11961399 0.16703452 0.4437478 0.46973735 0.49403623 -0.08408266 -0.032349385 -0.06307965 0.31440243 0.28729957 0.3476779 0.34705365 0.43511903 0.10833353 0.13010089 0.22553931 0.42119902 0.44451904 0.5187479 0.5561977 0.55588746 0.5428265 0.59435064 0.6605531 0.5960772 0.6454036 0.66105026 0.69267374 0.6817869 0.5699607 0.580335 0.6055347 0.52496207 0.2141673 0.21604814 0.57140374 0.6447414 0.53902835 0.45241934 0.45889235 0.47165453 0.4371534 0.5095085 0.43702215 0.29483604 0.09671484 0.49416903 0.34850743 0.40892816 0.3701212 0.36735684 0.10828146 0.05514446 0.1238236 0.32998165 0.29015812 0.48893946 0.07903959 0.071033716 0.18295628 0.2419773 0.26350155 0.47889042 0.17060822 -0.0077231377 0.12953004 0.23850083 0.4642709 0.49286222 0.12242806 -0.10658549 0.4736113 0.3905157 0.38007092 0.23126349 0.07249499 -0.10646343 -0.047073126 -0.06667468 0.25355792 0.23993385 -0.12189762 -0.10290593 -0.014662884 0.06699179 0.020563915 0.22205111 0.28439242 0.34454882 0.42637047 -0.041872706 0.006486131 0.4835859 0.5442393 -0.030088732 -0.0149761215 0.532362 0.03951057 -0.034294862 -0.069868 0.48600277 0.13511686 -0.016090617 0.1910991 0.34449577 0.43749705 0.44295174 0.250574 0.16030318 0.049249277 -0.05545717 0.30219823 0.22369331 0.12524575 0.27308348 0.26145706 0.20998614 0.4386141 0.5184518 0.19857489 0.38075992 0.47887674 0.5482176 0.56115687 0.5422312 0.53100806 0.49437952 -0.05380264 0.43721718 0.5321881 0.5676526 0.5651767 0.51669455 0.5117718 0.46971112 0.42830533 0.45961294 0.45805526 0.56009114 0.5595069 0.4639079 0.42013958 0.57406497 0.6067545 0.5458113 0.43775326 0.29300362 0.2916544 0.2863739 0.26802385 0.43403137 0.45906413 0.4643141 0.4822703 0.5045257 0.5255313 0.52208054 0.2776876 0.27448416 0.23771584 0.18775773 0.16185102 0.073676415 0.25600177 0.45863706 0.26487324 0.4316401 0.46964917 0.48442 0.5016798 0.43804264 0.38167918 0.2027469 0.14063564 0.38377786 0.28066826 0.22326446 0.2030051 0.17349753 0.15414609 0.18910185 0.34027016 0.05874843 0.10370598 0.10150047 0.14021203 0.17883281 0.19530356 0.01872702 0.12250743 0.04918497 0.006489182 0.475022 0.3907323 0.104650825 -0.2452335 0.12513728 0.23510459 0.104546055 0.14193606 0.0055201203 0.47417754 0.38883087 0.30616906 0.020040512 0.26659003 0.4477569 0.40691215 0.28674275 -0.16285975 -0.061754543 -0.053689763 0.310857 0.62238157 -0.04430213 -0.048186645 0.09318156 0.0058470927 -0.030381717 0.54904854 0.22620311 0.19662255 0.051875997 0.49182993 0.25904843 0.22457176 0.20451675 0.05470647 -0.034765773 0.42326486 0.29769826 0.29887813 0.030477792 -0.06882249 -0.052776977 0.051096722 0.3220623 0.31462196 0.3392291 0.2581458 0.32542875 0.31991315 0.44658536 0.4643501 0.48334652 0.47994715 0.49004608 0.16527656 0.19191909 0.5495504 0.5353779 0.43406752 0.4875361 0.52604425 0.52709115 0.49130538 0.4465688 0.17053515 0.43369502 0.53765064 0.5586856 0.5369954 0.48538554 0.53159845 0.4408279 0.41800857 0.310031 0.28165597 -0.19548054 -0.101269245 -0.027753875 0.18672425 0.27327052 0.35949752 0.48066726 0.53736013 0.4140165 0.48938102 0.52076113 0.4324435 0.36016047 -0.2071422 -0.0801031 -0.019379033 0.061327405 0.20035823 0.35094452 0.378148 0.43130016 0.4982203 0.48986155 0.38215047 0.20215355 0.17485714 0.20588017 0.08597897 0.14385375 0.38871422 0.39725423 0.4392776 0.4252625 0.21614252 0.38962138 0.3911994 0.32408977 0.33955672 0.25770393 0.55344844 0.544949 0.46630862 0.36491373 0.42332953 0.45160562 0.4760896 0.50243604 0.5322466 0.61044836 0.59220725 0.5400487 0.4915201 0.53150415 0.5433569 0.55932164 0.55816644 0.5277346 0.54349333 0.55476093 0.5584729 0.3067614 0.32744038 0.317702 0.2905657 0.4524141 0.49070907 0.48877525 0.69232714 0.78320086 0.833308 0.83337533 0.28397778 0.2949519 0.24547578 0.25512105 0.42687896 0.47745103 0.5045782 0.51101136 0.49884853 0.7805085 0.8078737 0.7906606 0.25896364 0.26959452 0.3286597 0.34198582 0.51848793 0.6684521 0.649166 0.21315238 0.22854483 0.15356497 0.31899855 0.5570352 0.122936204 0.17064829 0.13974623 0.14348787 0.30345583 0.28561434 0.08929705 0.21202129 0.23410358 0.22219695 0.22394426 0.35197657 0.1696484 0.5558401 0.4452845 0.5897128 0.52445716 -0.0848337 0.4211669 0.50689185 0.5775799 0.54615486 0.54167235 0.45644015 0.3842255 0.26588407 0.068921834 -0.17345414 0.43841192 0.5999335 0.6331582 0.61444783 0.33015978 0.30719367 0.44066045 0.44009852 0.62152386 0.6745329 0.6744417 0.14223719 0.4009459 0.6199553 0.6651896 0.68133336 0.6893252 0.16606264 0.17660734 0.2987075 0.61995685 0.65424657 0.19373968 0.25449598 -0.07651417 0.24130747 0.2987669 -0.07805576 0.085375234 0.31027925 0.38234326 0.37074053 0.31345373 0.3145396 0.3749509 0.3555976 0.38197947 0.35076132 0.44226757 0.44884637 0.43659058 0.25987867 0.12728263 0.47443956 0.32695165 0.30307373 0.39993116 0.3002148 0.37720883 0.41004878 0.41799527 -0.44461012 0.5233759 0.49904007 0.36210573 0.36932898 0.29034412 0.3741281 0.44422108 0.4346914 0.4092806 -0.07650753 0.4775208 0.38413295 0.3896603 0.13555963 0.051732294 0.44673792 0.45762682 0.42323738 0.16480853 0.25468776 -0.10634066 0.28874898 0.36439398 0.35946798 0.37161577 0.3719707 0.3633789 0.13057958 0.16048573 0.3309047 0.39956716 0.44091654 0.44786477 0.27333403 0.38487294 0.29981065 0.08381074 0.040875077 0.14275642 0.15872513 0.26531482 0.28015193 0.38162884 0.34317204 0.33303902 0.3404457 0.2963875 0.30430079 0.39554095 0.4413191 0.3665092 0.45873296 0.43123817 0.14836164 0.22415663 0.26107553 0.33193704 0.28928846 0.25476637 0.4654193 0.40117353 0.21060638 0.34165454 0.4142419 0.42267674 0.37015563 0.40967822 0.4754452 0.48825118 0.5982935 0.5747322 0.50305796 0.37792647 0.57864976 0.63659614 0.5963595 0.55838144 0.4446641 0.5026173 0.5494911 0.51915795 0.55707335 0.5943748 0.5184616 0.5863446 0.6808617 0.6676034 0.5751568 0.4657496 0.49610358 0.51236236 0.52550656 0.5341164 0.54254454 0.6067015 0.6651437 0.6307976 0.56374085 0.48791504 0.49522993 0.49687922 0.62552536 0.5943297 0.3005572 0.22915843 0.23293783 0.7363418 0.7785232 0.20549837 0.22722007 0.25994682 0.42419505 0.430691 0.40483224 0.35578397 0.49382317 0.676448 0.7523166 0.8163681 0.8195107 0.24429932 0.27423936 0.20916373 0.25434437 0.366404 0.39088222 0.3016389 0.29812267 0.78708184 0.730531 0.2557675 -0.108503275 0.1450064 0.6805568 0.67373943 0.14018328 0.45949763 0.48255163 0.06862925 0.34683657 -0.056062676 0.26886836 0.18282633 0.22889785 0.44519144 0.58260053 0.5592941 0.118647225 0.12226968 0.35671395 0.46422973 0.44552696 0.65341157 0.14184679 0.5107728 0.48911828 0.6700624 0.6172451 -0.029014517 0.11326991 0.58272886 0.53958017 0.38165566 0.27549872 0.12656301 -0.16785079 0.031639323 -0.2741082 0.67839926 0.17050348 0.06169413 -0.025897749 -0.25901243 -0.06191259 0.68098336 0.69674313 0.03708402 0.103558265 -0.2257899 -0.15607749 0.50439763 0.612327 0.6626793 0.677448 0.13747339 0.1584036 -0.065098554 0.6040872 0.6265379 0.1769054 0.091058314 0.09164745 0.27693272 0.21975872 0.20106858 0.22336204 0.25258395 0.28752494 0.275804 0.33175778 0.24214298 0.23538217 0.16701892 0.23149979 0.3012861 0.34548417 0.035548378 0.35212332 0.31577238 0.2807089 0.20152412 0.19560838 0.34008795 0.37388992 0.37670374 0.36292458 -0.34900278 0.3689373 0.3968246 0.38402656 -0.011047855 0.1753344 0.30762354 -0.04257445 0.44026732 0.3876944 -0.043791678 0.26101044 0.2560264 0.45376176 0.414926 0.4163301 0.38266546 0.086857945 0.185466 0.19882002 0.53476626 0.47862425 0.4236053 0.41229016 0.16210085 0.028322853 0.56678104 0.53715366 0.45226112 0.34914923 0.2714108 0.15308318 -0.021558844 0.008992329 0.27808118 0.28436247 0.3755325 0.24858412 0.23722282 0.31900316 0.2497198 0.10261693 0.34606817 0.31587416 0.07292331 0.3175685 0.25646314 0.03610199 0.11074455 0.15135816 0.47465265 0.46356702 0.47901285 0.27363956 0.28325784 0.19428845 0.28960904 0.416196 0.34504664 0.49769282 0.53838253 0.34125805 0.3513927 0.44662708 0.49797586 0.4163984 0.43523383 0.44253796 0.49480397 0.43850452 0.46412435 0.46801984 0.3362068 0.43673527 0.474013 0.45644906 0.46301395 0.47355765 0.5402 0.53204083 0.42562622 0.6546146 0.6511575 0.21615446 0.45884034 0.1684301 0.1532837 0.11375749 0.18322349 0.19906363 0.73782694 0.18831575 0.18514735 0.20614764 0.40629882 0.6193453 0.6925324 0.78728575 0.78511655 0.20109317 0.18448046 0.11457591 0.11761542 0.17646015 0.3081959 0.28893048 0.19352552 0.21820095 0.29675883 0.72953236 0.6865722 0.096977025 -0.00053162687 0.59617114 0.5199497 -0.057949822 0.36477754 0.038815916 0.31334963 0.30549186 0.185359 0.17620702 0.1922515 0.45917633 0.24561995 0.5756248 0.39439738 0.6045091 0.6418178 0.45782793 0.61982906 0.4935426 0.44300634 0.26988876 0.6108353 0.16989267 0.18711364 -0.2301486 0.70793474 0.060163245 -0.16043398 0.64603996 0.68883586 0.08171332 -0.07437548 0.032613635 0.14586316 0.5864198 0.6096672 0.3344015 0.30694804 0.13434584 0.113459796 0.30350807 0.31467432 0.27631664 0.2084405 0.05947671 0.122289225 0.1583778 0.1877594 0.24516544 0.04607621 0.01836322 0.0900927 0.19888301 0.030168407 0.14107516 0.12983048 0.12702605 0.22716111 0.23830023 0.27451664 -0.016032655 0.09970491 0.3374038 0.27753782 -0.10312617 -0.054915287 -0.057245675 0.16291839 0.06148516 0.41801763 0.37027007 0.226028 -0.1092502 -0.043929093 -0.064548165 -0.09364723 -0.108927704 0.15541893 0.48600286 0.44428575 0.33764753 0.27507827 -0.0854833 -0.120640315 0.5927465 0.55987453 0.29809713 -0.14525846 -0.1461577 0.013539229 0.6224841 0.5737983 -0.196269 0.04704185 0.6421892 0.61390555 0.58204615 0.08029816 0.047350444 0.6370977 0.61938494 0.51605666 0.28758234 0.24497756 0.18153349 0.048744954 -0.07512039 0.14607877 0.042255998 0.27522686 0.008069649 0.08013633 0.39146626 0.3268067 0.1865764 0.013696246 0.37945807 0.40511888 0.39798236 0.3282744 0.34996104 0.32158366 0.2575525 0.16424318 0.15234709 0.060309708 0.36953825 0.18154874 0.094452456 0.22017583 0.13309059 0.08516739 0.1579933 0.108118914 0.09655456 0.24714947 0.24852687 0.24230659 0.21155357 0.20025456 0.15356514 0.28401113 0.29143855 0.30172938 0.2725928 0.59021413 0.6805944 0.63957536 0.5664612 0.41580573 0.52447724 0.5817931 0.5112994 0.33134988 0.322187 0.3558598 0.15253934 0.1390466 0.15235908 0.09152538 0.21273798 0.19506873 0.54687333 0.6159863 0.72676015 0.712263 0.23506665 0.059552014 -0.06104488 -0.071140856 0.037927598 0.022636957 0.43948525 0.6249147 0.646119 0.60952693 0.21464929 -0.082285725 -0.004708156 -0.045353673 0.53231543 0.07915325 0.49386835 -0.17704208 0.44380543 0.34729657 -0.03668946 -0.16352576 0.31209648 0.12640543 0.06331262 0.21674727 0.298057 0.5173471 0.32776 0.5948432 0.56003785 0.39719507 0.48444158 0.39091003 0.4554947 0.30975327 0.56423414 0.112485036 0.11671752 0.66923976 0.108387694 0.68111736 0.49537218 0.4063365 0.3125084 0.2173615 0.21942285 0.4411396 0.57734513 0.44723362 0.34550712 0.29079166 0.019151881 -0.006595552 -0.010059252 0.41569948 0.08419958 0.014174171 0.046717297 -0.07402772 0.12043789 0.0711436 0.27306324 0.021152642 0.04318999 0.12130092 0.12787074 -0.10303402 -0.03409864 0.10144662 0.08659287 -0.053479373 -0.061166182 0.080863774 0.088999 0.39007896 0.35817033 0.23982655 0.023403706 0.47358966 0.41699404 0.6575053 0.5666641 -0.006311123 0.676147 -0.0013053025 0.69648397 0.001367176 0.6978816 0.66098386 0.089494586 0.033332646 0.69730926 0.6755211 0.6561149 0.57130694 0.2766704 0.1986616 0.12298599 0.03459602 -0.28417975 -0.035664722 0.13991237 -0.21081673 -0.24517253 -0.04737667 -0.14535269 0.19589937 0.23995301 0.096948236 -0.03736554 0.07822417 0.047492173 0.26445493 0.28504667 0.46320474 0.37544554 0.12583867 0.05774116 0.08459559 0.1659116 0.22822317 0.25227192 0.46225333 0.38500327 0.3047697 0.21560624 0.15962231 0.16771503 0.11318106 0.07398327 0.3956256 0.30643713 0.2293858 0.23531827 0.15859261 0.12864804 0.08855587 0.2527624 0.28688216 0.32018474 0.3223574 0.28374675 0.275568 0.21271627 0.17376639 0.14706425 0.32486507 0.34989876 0.35230976 0.3321946 0.3193426 0.28265506 0.35596326 0.3347739 0.6500057 0.6017264 0.5735922 0.4793561 0.6005627 0.65517366 0.60521775 0.5351478 0.45288527 0.44523948 0.47073305 0.42051828 0.1287329 0.22313672 0.13297552 -0.05998275 0.025913216 0.25776073 0.21160367 -0.02259472 0.07357544 0.31419885 -0.046372846 -0.003828235 -0.053699702 0.14028081 0.12643377 -0.1088273 0.10558982 0.3550515 0.45703235 0.5210172 0.5447561 0.3548235 0.29414532 -0.108265266 -0.17411065 -0.23184709 0.17732568 0.23030838 0.50854003 0.5125521 0.33005556 0.24046548 0.050983388 0.47565088 0.43805647 -0.15379083 0.24577677 0.040370032 0.015484695 0.18762699 0.1846825 0.11247691 0.22295651 0.4300658 0.24068937 0.2544025 0.33339345 0.33559617 0.105896264 0.31989992 0.15459237 0.06977132 0.47147733 0.064554766 0.051450603 0.59914756 0.4505446 0.34830722 0.40596992 0.020089902 0.4715257 0.56477857 0.52828825 0.4747091 0.3059597 0.10113841 0.07653447 0.022669256 0.15474264 0.5527688 0.53309685 0.105933644 0.03440327 -0.12646043 0.42628932 0.49384588 0.019791566 0.05596234 0.08730714 -0.10900819 -0.11187507 -0.15795659 0.40886033 0.52544564 0.61096203 0.09606737 0.01576227 -0.11048168 -0.13943386 0.05855776 0.04793375 0.31239507 -0.047984425 0.5301527 0.4496302 0.3599028 -0.05290296 0.7579887 -0.0007715523 0.798023 0.7625836 0.034457147 0.032866552 0.7752439 0.75991714 0.031987846 0.76982164 0.74661213 0.048544288 0.7256814 0.6942013 0.6379674 0.5595999 0.3547503 0.15109757 0.08173141 0.085375056 0.024694689 -0.10234676 -0.18984014 -0.2862699 0.23057383 0.35867977 -0.22022733 0.26923603 0.4287617 -0.020803213 0.0510234 0.13701098 0.24661487 0.4359178 0.439372 0.015015015 -0.023350773 0.070797816 0.11554661 0.1511223 0.1521901 0.39554018 0.38474968 0.038787283 -0.0141006 -0.049788587 0.028662182 0.09190616 0.12915769 0.31183058 0.29874766 0.25563836 0.23692545 0.11032955 0.067202955 0.07393371 0.060981546 0.3112118 0.3508925 0.17140728 0.18355355 0.24577829 0.18666893 0.22430533 0.19468638 0.33138758 0.35724267 0.33595222 0.30485177 0.25020796 0.16969377 0.39191902 0.32929328 0.33242226 0.26388168 0.5673741 0.48939234 0.4411301 0.59368044 0.5656576 0.60667443 0.58740866 0.55940527 0.3972852 0.5269792 0.5286776 0.48612952 0.3420776 0.33351523 0.016041346 0.15181735 0.21899566 0.104160346 0.16851275 0.21515477 0.2353954 0.15321256 0.30201995 0.2162355 0.13977803 0.1411674 0.104431294 0.1494967 0.15632243 0.38303328 0.3620218 0.38497722 0.3800109 -0.21828824 -0.27182505 -0.19400643 0.41067848 0.4461175 0.4777528 0.48491964 0.36076343 0.32521373 0.1961654 0.30210245 0.386149 0.44273716 0.4736066 0.24425742 -0.01613331 0.39079565 0.37946275 -0.14736512 -0.14121336 -0.046019886 0.21744256 0.25941023 0.28303427 0.2831195 0.29311243 0.25444886 0.042111635 -0.05396532 0.45661014 0.52544487 -0.05710454 -0.04354112 0.373662 0.42839736 0.4862423 0.47469246 -0.08204274 0.5236672 0.45211565 0.32504275 0.38663355 0.47176412 0.4763444 0.37993363 0.12383798 0.5699959 0.5511266 0.3959863 0.31744593 -0.18524209 0.5756451 -0.14419785 0.6510372 0.6933942 0.5433323 0.05675493 -0.13670409 -0.12509438 0.19090204 0.69140875 0.7190715 0.44843337 -0.021329597 -0.2289315 -0.2001575 -0.06628896 0.06271372 0.36464489 0.5025567 0.6578276 0.81139195 0.56712395 0.71650577 0.010596737 -0.14545503 0.6086284 0.52402955 0.0044358745 -0.12378851 0.83839947 0.010089008 0.82632613 0.8516069 0.057407815 0.8194983 0.8102969 0.071787685 0.7948084 0.7759646 0.7109488 0.7291301 0.7069875 0.5794861 0.40429106 0.11860557 -0.016673975 -0.096277595 0.18245198 0.29925197 0.22534192 0.39986804 -0.25504893 -0.24214895 0.22651726 0.3643234 -0.01209221 0.15720627 0.28189453 0.3410694 0.34224623 -0.045939468 0.0035012923 0.06561904 0.10232331 0.15895218 0.30045062 0.2683493 0.28954726 0.24162865 0.081799254 0.06690328 0.03504374 0.20256469 0.15360588 0.23882647 0.2475065 0.20071189 0.10253835 0.21638064 0.2571143 0.24481118 0.5902494 0.5395115 0.5039004 0.51555246 0.45755863 0.37704432 0.62254655 0.66986597 0.62079096 0.58768153 0.5982141 0.63078755 0.59023833 0.50122005 0.6989143 0.68860555 0.6378584 0.62332416 0.5956183 0.545476 0.5814483 0.5926839 0.57315487 0.5459184 0.38862318 0.52057827 0.5129318 0.27694854 0.3573762 0.06617768 0.15288179 0.21584982 0.27780658 0.28174138 0.07520352 0.2543208 0.20509644 0.14802511 0.13608325 0.18967158 0.14992584 0.114684604 0.11833559 0.36404398 0.34031326 -0.023385527 0.37960848 -0.15205911 0.22500926 0.35800487 0.2487812 0.21767867 0.2649049 0.11549545 -0.3921942 -0.033818774 0.03938636 0.12391342 0.0811642 -0.2657537 -0.12907954 0.15355688 0.2769698 0.056436144 0.29733062 0.31789455 0.3365389 0.023230635 0.3293775 0.056424692 0.3294344 -0.10707201 0.39600912 0.47474396 0.4587927 0.33010638 -0.18870729 -0.30126986 0.34109664 0.3886159 0.32028902 -0.017063763 -0.36148915 0.48454174 0.3242679 0.27342635 0.21796487 -0.26987755 -0.14034657 0.52672136 0.49720934 0.27629122 0.20528294 0.35278934 0.6171229 0.55322367 0.20593013 -0.20098518 0.7245894 0.8910184 0.89658886 0.9023918 0.56189734 -0.05449284 -0.21587877 0.7919573 0.871851 0.8928387 0.9153112 0.9338312 0.5865847 0.8514651 0.86532664 0.87140226 0.90736437 -0.13226047 0.027736805 0.30883363 0.58747303 0.78341025 0.90403676 -0.3131132 -0.12062984 0.76388896 0.03008452 -0.016955521 -0.30951208 0.75068307 0.6950732 0.11374005 -0.1374814 0.8835108 0.52341205 0.012318422 0.82012767 0.75362283 0.5682772 -0.04803928 0.78764564 0.729743 0.6067688 0.40561152 0.07107209 0.28231746 0.21824569 0.07932216 0.049308587 0.19845244 0.21631992 0.32505018 0.20133874 0.38126367 0.119328044 0.15785868 0.05309827 0.23757963 0.33588535 0.32766983 0.030969638 0.019725405 0.19551231 0.17602056 0.079704024 -0.094781145 0.0026227832 0.017854117 0.2317731 -0.080912516 0.15576033 0.0872653 0.019569173 0.060283124 0.07591416 0.4597553 0.4740364 0.5395103 0.46092725 0.43112683 0.0213928 0.06457045 0.10391718 0.3879812 0.4661834 0.30913693 0.18640977 0.4344349 0.48580736 0.5422921 0.56042135 0.55767167 0.5621619 0.5573319 0.38631377 0.5670464 0.4685075