# vtk DataFile Version 2.0
Really cool data
ASCII
DATASET POLYDATA
POINTS 839 float
-0.66152215 -56.038387 39.45201
-0.6814682 -55.88485 40.115063
-0.69129777 -55.503624 39.595463
-0.84641385 -55.399822 40.529827
-0.7519691 -55.265617 41.292183
-0.76506543 -54.41268 39.858665
-0.99866045 -54.26985 40.650646
-0.7953938 -54.715054 41.449596
-0.6792076 -53.76572 40.145958
-0.82352793 -53.882374 40.561207
-0.7451711 -53.812244 41.201775
0.03543073 -56.706394 39.127197
0.12604156 -57.112354 39.705486
-0.14358452 -56.97836 40.773212
-0.1638915 -56.09405 38.832054
-0.4803951 -55.993465 39.19996
-0.5526757 -56.21072 40.69663
-0.40899706 -56.146687 41.33578
-0.18530068 -55.60537 38.761345
0.3596741 -55.803535 42.946953
-0.12198785 -54.86327 38.956352
0.081285745 -54.328682 42.922684
-0.4072781 -53.731236 39.88041
-0.43272668 -53.488327 41.560955
-0.13074821 -53.685146 42.192432
0.22280921 -53.97399 43.060005
-0.223316 -53.288265 40.175896
-0.31081864 -53.18361 40.608353
-0.18436918 -53.138527 41.19894
1.0307664 -58.185238 40.861526
0.7986125 -58.17492 41.699577
1.0260831 -58.22591 44.611946
0.42221063 -56.899452 39.070854
0.6531057 -57.641144 42.428505
0.82440424 -57.6084 44.42001
1.0839189 -57.886223 44.955685
0.3603487 -56.332848 38.653694
1.1099211 -56.261585 44.363827
1.1053703 -56.98118 44.81527
0.3097831 -55.644966 38.484543
0.7021798 -55.35177 38.505226
0.66444427 -55.9459 43.32988
0.7658764 -55.39184 43.65701
0.53585863 -54.975952 38.63538
0.49119663 -54.50116 43.34576
1.1159441 -54.29726 43.768707
0.2490212 -53.98919 39.288433
0.40187323 -53.504356 39.673656
0.685907 -53.57353 43.108578
0.3881336 -53.241013 39.974335
0.45055968 -52.97529 40.600094
0.2128033 -53.00566 41.46629
0.5515373 -53.311455 42.55637
0.7068737 -53.26134 42.87177
2.2748084 -65.96646 42.282898
2.222957 -65.73918 42.63262
2.3804307 -64.92508 41.64104
2.281568 -64.99507 43.009804
2.0372586 -63.66802 41.61391
1.8985138 -63.633663 42.130795
1.9116015 -62.52551 41.67921
2.2800057 -61.467968 43.067852
1.8856313 -58.96747 41.01705
1.40006 -58.830387 44.745125
1.7194626 -58.14589 45.398922
1.95763 -58.086094 45.55788
1.9496882 -57.784008 45.572777
0.9044794 -55.95583 38.481182
1.2290124 -56.36686 38.699352
1.8051746 -56.92883 45.2644
0.9233738 -55.37925 38.52634
1.809689 -56.079273 44.678818
1.275573 -54.83197 38.828316
1.205578 -54.333763 43.81531
1.0643549 -54.2082 39.09452
1.0633987 -53.70221 39.64135
1.5544107 -53.638012 43.51969
1.5863247 -53.735622 43.605343
1.7149129 -53.125454 42.738403
1.1935376 -53.28389 43.130177
3.1051488 -66.805214 41.75557
2.9387698 -66.81431 42.603542
3.0495498 -66.702736 43.30842
2.679126 -66.45157 41.99932
2.7072527 -66.35669 43.23065
2.7323325 -65.09475 41.32089
2.479078 -65.68849 43.35635
2.8734093 -65.73801 43.668922
2.731173 -64.10375 43.800304
2.9120212 -62.050217 40.219246
2.9261558 -62.469624 44.236908
2.9480321 -61.653145 40.29256
2.564798 -61.832455 43.883
2.5676794 -60.649067 40.97365
2.9367115 -59.490696 44.85416
2.6063988 -58.644188 45.39617
2.2592797 -57.554646 45.60093
1.9392078 -56.699802 39.02726
2.4834542 -56.73925 45.31877
2.579525 -55.822903 44.816704
2.1628258 -55.215694 44.418205
3.3000455 -52.469326 40.88695
3.5220094 -66.994415 41.83539
3.6869817 -67.16575 42.70615
3.7948422 -67.062355 43.14791
3.965561 -66.45131 40.958992
3.4041994 -66.38533 43.741306
3.8817036 -65.44059 40.65549
3.6869524 -65.549545 44.107895
3.8636782 -63.344315 44.407974
3.9741883 -62.05397 39.788174
3.77676 -62.733227 44.46516
3.34632 -61.9412 40.032513
3.815664 -59.895004 44.71774
3.5977085 -59.863216 40.22149
3.792792 -59.196148 45.207
3.2134917 -58.08559 45.537018
2.7825134 -56.506493 39.602203
3.082506 -56.451942 45.097935
3.1800544 -55.56942 44.87625
4.1224365 -52.076897 39.69086
3.846286 -51.95727 40.66793
3.7334795 -52.12221 41.18026
3.9146397 -51.98159 42.42113
4.1467457 -52.123096 42.898727
4.356038 -66.67893 41.15847
4.5352235 -66.92842 41.664814
4.392245 -67.27362 42.484234
4.6425176 -67.089455 43.201077
4.3071976 -66.19369 40.88214
4.558421 -66.43896 43.831642
4.2828693 -65.575516 40.605244
4.3374333 -61.64179 39.685112
4.5042615 -59.631466 45.05207
4.1658525 -58.44496 45.36745
5.162298 -55.82259 39.52822
4.9043574 -54.023537 38.377716
4.861434 -54.502316 45.216705
5.2132106 -53.76837 38.184334
4.9149556 -53.314087 38.55405
4.814647 -53.823875 44.869358
4.600395 -52.572475 39.01701
4.9038906 -53.07639 44.059513
4.7163877 -52.073723 39.30777
4.6250186 -51.79687 39.716522
4.483811 -51.57991 40.469337
4.811186 -51.576267 41.298695
4.767988 -51.77519 42.467537
4.607581 -52.11812 43.18883
4.96038 -67.014595 42.029396
5.099014 -67.039536 42.695618
5.0488353 -66.96041 43.118637
4.863308 -66.10825 40.97246
5.200975 -66.548454 41.766785
5.4032116 -66.66858 42.77763
5.086474 -66.55762 43.530937
4.980584 -66.31942 43.78934
5.2907705 -65.54822 41.28962
5.431761 -65.13866 43.677498
5.3314314 -65.50072 43.754616
5.354852 -64.38018 44.094193
5.036004 -63.837093 44.343266
5.6496434 -61.23508 44.112522
5.471864 -59.876595 44.702324
5.2202425 -59.164406 45.0177
6.2527394 -58.340073 39.5975
5.0235496 -58.602882 45.18384
5.419646 -57.239346 40.344135
5.6978292 -57.187782 45.200954
5.8320327 -56.165154 45.403748
5.6771793 -54.175663 38.06212
5.5430803 -54.32385 45.389137
5.8050885 -54.749783 45.55091
5.629205 -53.553246 38.17052
5.6034927 -53.73321 45.059647
5.6210203 -52.99318 44.179104
5.1504045 -52.2825 39.043694
5.1893497 -51.90908 39.586834
5.120598 -51.575615 40.321114
5.290123 -51.665604 41.817295
5.5922527 -51.87922 42.289608
5.3070974 -52.186783 43.215977
5.764016 -64.994576 42.691635
5.8336325 -64.11273 43.50082
5.912419 -62.844322 40.470043
6.0812764 -63.398846 41.580505
5.8546987 -63.031555 43.459152
6.6754575 -61.915222 40.24115
6.672806 -60.537487 43.553703
6.7769313 -56.839455 45.361923
6.611967 -56.39844 45.48099
6.541551 -56.342957 45.563126
6.301947 -55.056583 38.274784
6.821852 -55.48088 45.49749
6.435408 -55.456 45.566147
6.180803 -54.445972 38.134254
6.1861706 -54.517685 45.440155
6.1213984 -53.58425 38.134106
6.0880094 -53.4088 44.710682
6.357202 -53.88199 45.056572
5.966173 -53.22682 38.290936
6.617226 -53.083073 38.73478
6.4881682 -52.573135 42.686615
6.0951643 -52.6477 43.40528
6.303687 -53.155556 44.167233
6.0605164 -53.382587 44.811832
6.196745 -52.18002 39.61911
6.2461653 -52.045204 41.42551
6.028343 -52.043964 42.243008
7.180905 -61.07515 39.535686
6.9136186 -59.385426 44.041443
7.5935016 -58.256306 44.30272
7.333425 -57.768417 44.647038
7.1824636 -57.21005 39.114388
7.543199 -57.08687 45.114243
7.383449 -56.437576 45.422405
6.981713 -56.28288 45.56012
7.30379 -55.536892 45.42322
7.1513076 -54.43234 38.609856
7.248678 -54.601574 45.043716
7.556455 -53.97602 39.50449
7.4183307 -53.40278 42.044888
7.473014 -53.74077 43.565556
7.4095693 -53.958687 44.135456
7.1743317 -54.162865 44.835903
6.7679486 -53.129906 38.809418
6.921991 -52.89877 39.574257
6.93262 -52.653378 41.396732
7.068744 -52.93993 42.554337
9.094245 -61.36496 37.672478
8.917053 -61.408253 38.239697
8.723852 -61.284573 40.979866
8.907012 -60.24596 36.754696
8.527005 -60.77245 37.46192
8.368937 -60.188145 42.889027
8.933018 -59.488956 36.69513
8.124581 -59.085594 43.566128
9.02497 -58.603443 36.942356
8.477095 -58.50712 37.62006
9.282431 -57.8597 37.377327
8.293284 -57.552357 44.469437
7.9518986 -56.88494 45.004333
8.462215 -56.70647 44.424248
7.946139 -55.972725 45.1164
8.237172 -54.92949 44.04522
8.129609 -53.995754 41.257706
8.041836 -53.960453 41.977486
10.109528 -61.8496 36.60702
9.295407 -61.64506 37.953648
9.992504 -61.355812 36.001907
9.688862 -61.475048 36.68048
9.489285 -61.07827 41.4101
10.115293 -60.723476 35.72241
9.572601 -59.844536 36.06595
9.771348 -59.064743 36.068787
9.629946 -57.972008 36.91208
9.291286 -57.272438 37.85837
9.265885 -57.146416 43.81526
10.145302 -56.76345 37.296562
10.241969 -56.482117 37.546852
8.977821 -56.487045 44.00996
9.689763 -56.321552 38.85551
9.467663 -55.861866 41.118896
9.031332 -55.45826 42.459644
9.507677 -56.15136 42.936302
8.684542 -54.939205 40.87414
8.845968 -55.041824 41.092564
10.852664 -61.750862 35.72664
10.576676 -62.02326 36.497272
11.016764 -62.164722 38.03461
10.891337 -61.286232 35.36191
10.623756 -61.3667 35.545204
9.802276 -61.0711 41.20989
10.794018 -60.638298 35.33681
10.599101 -60.488186 35.454575
10.433536 -59.70014 35.673645
10.130957 -58.35762 36.46602
10.81825 -56.819923 36.89366
10.619702 -56.431805 37.35812
11.487415 -61.89139 35.818954
11.492926 -62.19383 36.498283
11.601839 -62.307774 37.59105
11.587176 -62.19847 38.52897
11.091037 -61.88477 38.799004
11.445905 -61.31423 35.364933
11.633395 -61.591415 35.486908
11.442185 -61.4287 39.60243
11.648562 -61.142002 39.696266
11.368127 -60.48295 35.35029
11.361148 -59.271297 36.158066
11.977708 -58.310825 41.260128
11.039714 -57.494442 41.274292
11.491891 -56.436996 40.34578
11.999992 -61.80424 35.991936
12.049628 -62.02046 36.534595
12.247754 -62.187763 37.59642
12.350687 -62.095016 38.331173
12.310812 -61.886395 38.75514
12.09513 -61.31526 35.74029
12.388498 -61.614384 36.26958
12.477805 -61.533745 39.026558
11.954031 -60.79352 35.49479
12.455534 -58.086613 41.37194
12.634713 -55.537064 37.092335
13.365855 -54.192314 35.20617
13.270898 -53.99555 35.636692
13.033464 -54.604607 39.024
13.332374 -53.64754 35.585194
13.334443 -53.68168 36.26294
13.29614 -54.118813 38.749596
13.11862 -47.98346 38.95391
13.252601 -48.10092 39.463272
12.897704 -46.790775 37.093166
13.020125 -47.285244 37.616375
12.813353 -46.983093 38.464565
13.019783 -47.415867 39.249065
13.247331 -47.69056 40.263546
13.290142 -47.04334 40.921017
12.913275 -46.202564 36.67846
12.62354 -46.233635 37.490078
12.699417 -46.539608 38.27665
12.829443 -46.388405 39.462406
12.994732 -46.14916 40.42691
13.290493 -46.55904 41.198277
13.176188 -45.712242 36.3295
12.891681 -45.55373 36.70404
12.671156 -45.450092 37.669296
12.758218 -45.32736 38.771233
12.83679 -45.458633 39.789577
13.02766 -45.68101 40.47791
13.303284 -45.57749 41.051582
13.073124 -45.095413 36.74895
[...]
POINT_DATA 839
SCALARS features_00 float 1
LOOKUP_TABLE default
0.75700617 0.70437354 0.7890371 0.7157726 0.6780062 0.8135207 0.77627164 0.71921235 0.7805164 0.77690846 0.74612033 0.7474862 0.66950214 0.52884895 0.775286 0.7782519 0.6198412 0.55645776 0.7826762 0.40350106 0.79655415 0.4650174 0.77306855 0.7140707 0.6064656 0.4575735 0.76343834 0.75864327 0.73260427 0.29104075 0.28794166 0.55782974 0.73520434 0.37245277 0.51848614 0.5667038 0.7552842 0.37795046 0.49320334 0.7575443 0.73748463 0.3693882 0.3690675 0.7430754 0.40945792 0.391797 0.74770427 0.734299 0.4521172 0.7260828 0.7004547 0.6661402 0.49986815 0.46955496 0.8096484 0.78546596 0.63356507 0.7058866 0.46119434 0.48261514 0.47789058 0.5463933 0.108852476 0.5391255 0.5584614 0.5450798 0.55024576 0.72213036 0.7021863 0.50311065 0.71474624 0.37016606 0.66087306 0.3846259 0.6968465 0.6560445 0.39346355 0.38452673 0.40523773 0.435063 0.94811517 0.91764385 0.897257 0.89133817 0.8523562 0.7257551 0.78142816 0.78046083 0.64332986 0.27567816 0.49664876 0.27548307 0.49523014 0.22659084 0.3325906 0.43766183 0.52844036 0.63589084 0.46131092 0.3228996 0.28195077 0.5159916 0.9542436 0.97223425 0.9618106 0.790295 0.88979244 0.7591864 0.80783856 0.57215357 0.26017612 0.42517105 0.26296413 0.24443686 0.2569773 0.27735138 0.3945672 0.47354034 0.3711353 0.23790702 0.55705166 0.59028316 0.57129806 0.5069649 0.46094507 0.81157327 0.8769211 0.94737387 0.91418207 0.756836 0.8663688 0.69210446 0.27626976 0.23062858 0.24300712 0.14766002 0.52237225 0.42131796 0.5745597 0.57781047 0.43857676 0.5510669 0.4166477 0.5893332 0.5978902 0.60694844 0.59410954 0.50294375 0.44943666 0.89420366 0.90923834 0.893697 0.7215452 0.8073654 0.8343742 0.8388095 0.8169848 0.6818589 0.6157942 0.68118 0.49046314 0.48702842 0.07561749 0.14466606 0.18596327 -0.009825595 0.18987298 -0.023115903 0.2687571 0.37574434 0.56650114 0.48212644 0.48538333 0.59084797 0.47758788 0.44276178 0.60331845 0.59433365 0.60841405 0.53657174 0.47526973 0.44635135 0.5976304 0.4722529 0.22277197 0.43260098 0.37870517 0.13463728 0.017601196 0.3673489 0.39923903 0.40248716 0.574464 0.46354172 0.4647004 0.5859495 0.5097585 0.5900077 0.47198844 0.50269353 0.5997561 0.6292255 0.41657466 0.43490237 0.4467792 0.47350472 0.61887765 0.476215 0.44827488 0.053986773 0.077187076 0.2325342 0.30260122 -0.055076726 0.3854773 0.404254 0.41148117 0.4601218 0.61821425 0.5409642 0.5610801 0.32567173 0.4225006 0.47747815 0.5307556 0.62843215 0.6083022 0.37112647 0.38015378 0.5669697 0.4603599 0.21534689 0.61935586 0.5504216 0.03787115 0.49730164 0.072850734 0.3528751 0.28523964 0.2568274 0.36928552 0.4053293 0.42310745 0.44337294 0.51689464 0.25665143 0.26688743 0.71567714 0.5565814 0.7285006 0.6616106 0.16507709 0.6995791 0.5715965 0.4851524 0.27763116 0.20821622 0.3921322 0.18650427 0.16427487 0.44912332 0.21727546 0.15992846 0.28137958 0.3973077 0.20399132 0.21609709 0.8065031 0.79137886 0.67292917 0.79616725 0.7886927 0.06552091 0.73817205 0.710597 0.6050731 0.35934737 0.16251537 0.14122386 0.8118117 0.80326116 0.7132348 0.56870925 0.5160226 0.8052708 0.8119575 0.38494706 0.34440863 0.7475817 0.6098294 0.052368328 0.10176024 0.09535676 0.788433 0.763218 0.6824827 0.58440286 0.52689 0.7818769 0.7627498 0.46499887 0.7768434 0.065159656 0.19000448 0.58914 0.53369796 0.17463706 0.54649043 0.4367926 0.08826129 0.34414136 0.32825595 0.6112031 0.5107329 0.47585645 0.3905025 0.35961643 0.41199428 0.67792857 0.66695464 0.5533681 0.47537488 0.47593307 0.44529426 0.6871437 0.6937976 0.71880615 0.63265663 0.54382205 0.5069854 0.5025253 0.68524843 0.6922848 0.6520008 0.57666254 0.5509218 0.52983403 0.6833363 0.5567521 0.7308187 0.66330004 0.5439717 0.40527302 0.70539844 0.26064605 0.11252301 0.6536509 0.13897407 0.13081421 0.11556413 0.43318394 0.5605725 0.62397367 0.61929005 0.058038615 0.6036886 0.5525489 0.50452673 0.28385758 0.330924 0.41519123 0.47035944 0.43177366 0.32704085 0.3693963 0.40789515 0.60938704 0.4210843 0.6490794 0.4489165 0.44907603 0.6482558 0.49928495 0.46759072 0.6276444 0.6437831 0.56639916 0.5531641 0.52748436 0.49151832 0.59349406 0.62623495 0.5897933 0.5650018 0.55199414 0.25334612 0.13230512 0.31596035 0.29997522 0.44857666 0.5084584 0.57940644 0.61567914 0.6348127 0.016684592 0.5719193 0.07051678 0.22250818 0.2614544 0.27821875 0.36861688 0.41014266 0.40759873 0.39459997 0.4158371 0.42862815 0.4459183 0.4281237 0.528141 0.5162503 0.46550727 0.5285931 0.5343841 0.5403621 0.5088164 0.2642259 0.31839582 0.32831228 0.35707727 0.3338902 0.37173128 0.33710194 0.5153574 0.4012897 0.57975185 0.6274661 0.6347082 0.462488 0.59351504 0.5566584 0.46272382 0.49180686 0.53785276 0.46665558 0.24415956 0.33527267 0.2709949 0.36354092 0.43132788 0.3792647 0.3869519 0.5022321 0.4000005 0.4826004 0.45325136 0.4977144 0.25504515 0.33320463 0.3544298 0.36293727 0.34153003 0.15824631 0.09100816 0.5220363 0.60628575 0.6289874 0.3720652 0.63618314 0.35763258 0.5746443 0.48174703 0.47821778 0.4957319 0.40246993 0.3053363 0.42573246 0.40918356 -0.47579944 -0.27087167 0.15465674 0.16384012 0.22426565 0.35867506 0.30541772 0.40577173 0.40204456 0.37670922 0.43802294 0.41151875 0.42339182 0.43625802 0.34411222 0.25886053 0.5124963 0.2741531 0.56446326 0.14053053 0.2516472 0.58033055 0.6010512 0.519091 0.43092287 0.065106906 0.25826287 0.17559509 0.3025908 0.40375808 0.5829318 0.6032863 0.27620086 0.6053505 0.31918263 0.60032505 0.3383062 0.20575938 0.25552934 0.062191248 0.37535197 0.37372172 0.34312168 0.3994465 0.37315637 0.33662558 0.27890894 0.3273617 0.2647035 0.50248706 0.4684164 0.23764834 0.22900799 0.5677259 0.27055395 0.25698364 0.6098039 0.29218388 0.21944699 0.61667794 0.60534394 0.4997387 0.3967327 0.2115827 0.19847532 0.44188175 0.53316104 0.57648 0.25607905 0.5279472 0.54545575 0.25672713 0.4044252 -0.046715707 -0.04257811 0.25902373 0.30983883 0.25633642 0.24125685 0.37420875 0.26405454 0.47980672 0.24674603 0.54181015 0.55103624 0.27842152 0.28428936 0.6198708 0.25295794 0.23984686 0.6852009 0.5722009 0.43841058 0.28741696 0.38697448 0.46046025 0.42677373 0.37771618 0.24103223 0.17401777 0.36877018 0.30886212 0.11915 0.09409815 0.74679804 0.75214994 0.7894317 0.21240845 0.052455917 0.24175775 0.112512246 0.124121785 0.19473346 0.37095052 0.41717726 0.2653398 0.6189664 0.24619424 0.28120303 0.67614996 0.3070042 0.6768886 0.6688485 0.42437175 0.58350855 0.5744907 0.38630843 0.51734585 0.510576 0.40321717 0.38432753 0.16705894 0.26476532 0.14081915 0.036233194 0.19332936 0.33582854 0.39114916 0.7019533 0.7285866 0.1881 0.73228884 0.7980873 0.83640575 0.81859374 0.83817613 0.27109757 0.6748395 0.7565619 0.8030059 0.34453362 0.61197567 0.17131698 0.38593668 0.4921589 0.61591136 0.61357826 0.6872822 0.46300003 0.18356803 0.6916405 0.67739475 0.6477947 0.59705603 0.6655783 0.71192926 0.6896409 0.5666993 0.61950576 0.54627043 0.30801448 0.51754135 0.33571613 0.37529376 0.28189075 0.48607254 0.5932168 0.74761397 0.8275162 0.38697025 0.87032115 0.38381374 0.9565445 0.46087956 0.7404485 0.84052664 0.42830795 0.24757382 0.297846 0.5660797 0.7127711 0.7922722 0.073231876 0.19493999 0.14917022 0.49002898 0.65273 0.6115723 0.53782463 0.69364476 0.6820948 0.66239405 0.623246 0.6525754 0.7333191 0.70418215 0.65864265 0.7111263 0.73719835 0.69854665 0.65039855 0.6094055 0.65835315 0.62558365 0.56189483 0.6023845 0.39756495 0.46419933 0.4447496 0.53778356 0.40857106 0.41971025 -0.049942266 0.59347713 0.68308806 0.8098916 0.46898276 0.0064170063 -0.08416993 0.90622693 0.9297605 0.493303 0.95219177 0.8879789 0.93297184 0.53190506 0.61561644 0.736623 0.8365949 0.4526913 0.45815188 0.2474542 0.30777168 0.527091 0.16296738 0.15323076 0.72336805 0.69376487 0.6701484 0.7172823 0.731445 0.68431437 0.6584926 0.47400406 0.5360906 0.5526815 0.45263582 0.15516081 0.1799269 0.6899444 0.80234224 0.5306129 0.4944431 0.50105906 0.86231816 0.91660273 0.5882033 0.92851305 0.9359788 0.5767165 0.8966058 0.93823135 0.56745666 0.47064117 0.62399125 0.78550816 0.8641542 0.4207211 0.09783073 0.2926761 0.34718603 0.4140631 0.4234538 0.5012412 0.5460346 0.60483897 0.65308964 0.55406547 0.34165803 0.75252974 0.8318512 0.6117323 0.6178057 0.58160084 0.815032 0.897089 0.6262344 0.6228032 0.6558429 0.8216417 0.89335454 0.58812976 0.56123847 0.48887554 0.59207696 0.7217762 0.4517088 0.42382383 0.33292624 0.40887463 0.6389004 0.62776136 0.5527316 0.43417907 0.44948125 0.5796435 0.61067367 0.46848738 0.48701632 0.47709036 0.50353634 0.43613553 0.6025654 0.64335907 0.4775871 0.57849157 0.74711674 0.50893414 0.38304394 0.624233 0.37829995 0.37575915 0.5322782 0.65757364 0.64726174 0.62257135 0.506683 0.5266629 0.49871314 0.46968332 0.5260823 0.53738713 0.5472704 0.50940794 0.4857518 0.4490801 0.42607856 0.5277903 0.5615686 0.47557825 0.46895352 0.39491808 0.5425014 0.55909896 0.5941622 0.61238533 0.6133242 0.61847204 0.5987035 0.6360864 0.63648254 0.6308922 0.53334033 0.506022 0.54848397 0.52344656 0.5616395 0.56066036 0.55402565 0.5830424 0.59996086 0.6020341
SCALARS features_01 float 1
LOOKUP_TABLE default
0.13610563 0.12133486 0.15052827 0.12760109 0.11482024 0.16099247 0.14857289 0.12874007 0.14858255 0.14838517 0.13817295 0.1290128 0.09900341 0.059282962 0.14116101 0.1427573 0.093136586 0.074100286 0.14480934 0.02791431 0.1541744 0.053431764 0.14538531 0.12636764 0.09150222 0.052150846 0.14174326 0.14024483 0.13151357 0.0027418311 0.0029366664 0.075561054 0.122869834 0.010716451 0.06195292 0.07790715 0.13383137 0.025164267 0.056316104 0.13702798 0.13237135 0.01869296 0.022813378 0.13550131 0.039277207 0.03582313 0.13800626 0.13213933 0.051345993 0.12767735 0.11601388 0.10890321 0.063326016 0.055907894 0.16125657 0.15043516 0.083824925 0.11242176 0.039801512 0.043223225 0.03636751 0.037231483 -0.04113753 0.070333 0.077148974 0.07372193 0.07517189 0.124368675 0.11554847 0.062009778 0.12500978 0.02926621 0.10915694 0.03422653 0.12117252 0.10539142 0.03815548 0.036270358 0.040558457 0.04758248 0.22187017 0.21013646 0.20130576 0.19704218 0.18114561 0.118366696 0.14903326 0.14871873 0.0815331 0.00938487 0.032449692 0.010390133 0.016320838 -0.0022981456 0.0275012 0.047677215 0.069634765 0.095663786 0.053160183 0.024695124 0.01579782 0.06611641 0.2260437 0.2359783 0.2310639 0.1562185 0.19635597 0.13858522 0.15278655 0.048273504 0.009916778 0.01656272 0.009673378 0.0128110135 0.012071634 0.019078325 0.038999163 0.057596806 0.035044067 0.013996415 0.074767 0.08784254 0.08241533 0.06445599 0.052844558 0.16463289 0.19199765 0.2238762 0.20888554 0.14303663 0.18607293 0.11787174 0.012936507 0.012285464 0.014432799 -0.020613482 0.067079335 0.04326346 0.07970272 0.08009241 0.046835426 0.07401248 0.04178528 0.08592261 0.08870258 0.09232016 0.08713725 0.06177921 0.04920151 0.19842672 0.20536615 0.19925769 0.1291754 0.1590667 0.16968565 0.17540659 0.16557157 0.11031288 0.090689965 0.11258928 0.05352659 0.039125722 -0.01010545 0.0015291737 0.00724259 -0.005782367 0.007858732 -0.013538817 0.014610993 0.03453913 0.07679875 0.0567843 0.057095114 0.08385138 0.055349573 0.046203725 0.089700185 0.08777717 0.092232615 0.070008576 0.054310504 0.047385726 0.08253162 0.046637274 -0.03857922 -0.0013221944 0.0117790755 -0.04695227 -0.007922064 0.033452135 0.039852552 0.040500414 0.075514846 0.053003777 0.052866083 0.08020605 0.062580235 0.08282235 0.052962445 0.06020925 0.08655618 0.09300571 0.040034406 0.043567527 0.046649672 0.053393174 0.09439388 0.055572595 0.04761624 -0.06452106 -0.0016984895 0.013315615 0.022549396 -0.012822371 0.0369198 0.040839203 0.042363696 0.052305397 0.08428263 0.06873922 0.068773486 0.024180092 0.04087102 0.05343801 0.06607859 0.09200993 0.0872641 0.032477666 0.033061888 0.06865346 0.03695441 -0.0006311773 0.08309526 0.05906584 -0.0072579402 0.05733512 0.0007142527 0.03039047 0.017636802 0.015801087 0.03159254 0.04023486 0.040755417 0.048390813 0.058415182 0.009188587 0.014799406 0.12487513 0.065894365 0.13042341 0.10192198 -0.001972302 0.1206943 0.07878936 0.058299463 0.01922148 0.008536939 0.022355711 0.0060150907 0.003358021 0.038609907 0.0057719583 -0.014381703 0.009446979 0.011843378 -0.0007180413 -0.00081340596 0.1614207 0.15525506 0.113018 0.15763341 0.15502623 -0.006338777 0.1360486 0.12614213 0.09101181 0.033090577 0.004573865 0.0009214198 0.16253272 0.1600286 0.12600583 0.08005686 0.06598349 0.15973625 0.16233847 0.036450453 0.029090222 0.13740379 0.09155913 -0.017760094 -0.09746352 -0.08581777 0.15386693 0.1446713 0.11357036 0.082947366 0.06734106 0.14993359 0.14439276 0.050783515 0.1455191 -0.017191883 -0.04362554 0.07667157 0.059745237 -0.0057069995 0.06428556 0.034766246 -0.0074901413 0.029247843 0.025284635 0.09192574 0.064087756 0.055958472 0.03584874 0.027241226 0.03509987 0.11335448 0.11043723 0.07644195 0.052466005 0.049939197 0.041975662 0.11651772 0.11855957 0.12711766 0.094017066 0.067029126 0.057185575 0.055746745 0.11591405 0.118710846 0.103902966 0.07709145 0.069271475 0.06305853 0.113080315 0.07326619 0.13110732 0.10455099 0.066168055 0.03351117 0.12095003 -0.0060208435 -0.014356665 0.093704596 -0.06173554 -0.047797233 -0.039733063 0.038672972 0.0727248 0.089918196 0.08780671 -0.007679931 0.08059805 0.06652317 0.05536588 0.016592994 0.022713514 0.033549204 0.05053485 0.042198267 0.022758713 0.026337761 0.03148716 0.09129694 0.03351865 0.103068784 0.042089034 0.04141952 0.102888264 0.054976113 0.046597373 0.096255235 0.10206621 0.07423525 0.07034713 0.06293928 0.053662308 0.08572243 0.09728307 0.083550155 0.07470635 0.070641816 0.0038719242 -0.028316608 -0.0136642195 0.0061408337 0.044615313 0.06051154 0.08061608 0.090148516 0.09346431 -0.007962526 0.07724439 -0.011811598 0.008850668 0.013391981 0.014213594 0.024499014 0.026686843 0.026691748 0.020997908 0.028032232 0.033972822 0.040829636 0.03490385 0.062471684 0.061165042 0.04695085 0.06917234 0.06835775 0.0684905 0.060211264 0.007996291 0.01778011 0.01875334 0.02409658 0.00072223134 0.030062756 0.023881271 0.048319146 0.03787071 0.07502625 0.09130188 0.09307309 0.050798807 0.07986678 0.07625543 0.047423035 0.05153806 0.0706071 0.05069338 0.008018044 0.027486268 0.011133305 0.032640178 0.018607862 0.03237817 0.02232214 0.04604436 0.033294115 0.04105742 0.051541753 0.060036656 0.0060523637 0.022544187 0.027075242 0.016713666 0.026970442 -0.0036717725 -0.010704062 0.054470234 0.08418955 0.09148571 0.033936407 0.09310125 0.031039963 0.07237757 0.05829715 0.04621987 0.060816042 0.039343003 0.0057138987 0.030534448 0.036390938 0.04157952 -0.014421017 -0.003518034 0.0045168325 0.0011611113 0.030620685 0.005340198 0.015277397 0.03857992 0.034176357 0.019097937 0.03989798 0.041085396 0.018162612 0.014609197 0.012442214 0.056209713 0.01654935 0.07078008 0.0014822804 0.015482297 0.07368313 0.08016565 0.058747184 0.03912464 -0.013988222 0.010894219 -0.0016104729 0.0080897 0.026472293 0.079231486 0.08454421 0.01621409 0.08278895 0.023758214 0.077311866 0.027059313 -0.03193646 0.014109986 -0.0023158155 0.014642941 0.033552844 0.028535169 0.01151837 0.03319766 0.0021677967 0.008467934 0.0053384043 0.009604979 0.055936366 0.046659146 0.012828187 0.011058148 0.072808705 0.018212844 0.016418789 0.0840613 0.014509593 0.00908608 0.08757961 0.086108945 0.059098773 0.035627723 -0.005225021 -0.008932737 0.048252173 0.06794207 0.07776803 0.01139768 0.06478213 0.06539989 0.014506627 0.022217171 -0.01755686 -0.009158122 0.01609782 0.023383133 -0.01324508 -0.0038852636 0.026167452 0.008897556 0.05069026 0.014819546 0.06720737 0.06978483 0.019074973 0.020216564 0.08953266 0.006877207 0.012431403 0.11124146 0.08176353 0.04637247 0.002435347 0.02322453 0.04491842 0.03857997 0.021220218 -0.00039080204 0.00042298296 0.02983959 -0.0008080192 0.00254064 0.0029062405 0.12244873 0.117549054 0.13758864 0.00770285 -0.04467482 0.012551874 -0.038264308 0.0010038007 0.0008087349 0.031251144 0.04118168 0.016784776 0.09285256 0.013155379 0.019064523 0.110066295 0.018946685 0.1110624 0.10897061 0.042719755 0.082293436 0.08102936 0.024352796 0.06125083 0.06029866 0.030066542 0.019473549 -0.0035296283 0.006427575 -0.0036086733 -0.015427906 -0.019674206 0.015845787 0.029960148 0.11098667 0.1216082 0.0071882666 0.12160577 0.14548047 0.16103469 0.15116918 0.16041614 0.005922024 0.09691807 0.12842518 0.15137222 0.018570893 0.08013996 -0.005918746 0.036749113 0.06048057 0.09342815 0.09351481 0.115446 0.049274344 0.004474384 0.1168348 0.11210251 0.102532625 0.08633952 0.10792505 0.123088896 0.116754696 0.077116355 0.093937315 0.07106707 -0.0008769836 0.06377849 -0.015366357 0.023224903 0.0037964955 0.049327463 0.07796404 0.13406007 0.16861627 0.029872958 0.18335578 0.028727608 0.22308165 0.04672818 0.1334833 0.17514685 0.04045295 0.00046104845 0.005876062 0.06948129 0.12436398 0.15684044 -0.02271534 0.0004520826 0.0011336161 0.049463578 0.103173874 0.0889516 0.06273912 0.117494255 0.11251771 0.10610965 0.0912422 0.103549294 0.1317794 0.122623965 0.1077509 0.124062106 0.13316561 0.12091499 0.10519678 0.09086262 0.1071277 0.09715471 0.07769613 0.08723204 0.009422073 0.044492964 0.04019005 0.065282986 0.03341974 0.038898617 -0.00960697 0.082466766 0.11384681 0.16375044 0.048724063 -0.01855365 -0.01372828 0.20347774 0.2118668 0.054974172 0.22046466 0.19547082 0.2130083 0.068650536 0.08565895 0.13409075 0.17415293 0.050696135 0.051770125 0.0015070348 0.007823138 0.055237748 -0.027563248 -0.0026094934 0.1285839 0.11900621 0.11174351 0.12642878 0.13049993 0.114735894 0.10769814 0.046300985 0.06421987 0.06955788 0.049586527 0.0034532803 0.004092158 0.11584106 0.15971822 0.067018196 0.05706663 0.06076649 0.18266925 0.2061899 0.08281522 0.20935757 0.21352936 0.07966174 0.1957802 0.21483964 0.08005419 0.034768745 0.081628926 0.1480453 0.18379879 0.04094966 -0.013217203 -0.0040991013 0.028590608 0.04225204 0.038572956 0.05682585 0.066862434 0.08412121 0.099786185 0.07456836 0.027914347 0.13226286 0.1680863 0.09057513 0.092610866 0.08022032 0.15437004 0.1942734 0.09610041 0.09468689 0.08240229 0.15864429 0.19225596 0.08593951 0.078725584 0.060322948 0.056863885 0.11650581 0.050142005 0.045286153 0.026537418 0.017720446 0.09504867 0.092173666 0.06577864 0.046321057 0.047944922 0.075246006 0.084393516 0.053193387 0.058065824 0.056203842 0.06055815 0.03709044 0.07567663 0.090971634 0.053414207 0.04776029 0.12310454 0.064220265 -0.0069406647 0.06858781 -0.0100305565 -0.00796666 0.047503896 0.100283995 0.09753913 0.08830985 0.06267833 0.0675782 0.057829615 0.048331335 0.06722069 0.070507996 0.07244594 0.06076138 0.053219717 0.0392926 0.012775001 0.06648652 0.07676721 0.050721664 0.046801057 -0.0025295597 0.07088311 0.076327324 0.082646765 0.089131765 0.089328006 0.08805137 0.07792621 0.09493904 0.09492811 0.0926267 0.068077035 0.059859104 0.07298451 0.06536958 0.07710909 0.07603984 0.072254166 0.08226209 0.08582624 0.08535221
SCALARS features_02 float 1
LOOKUP_TABLE default