# vtk DataFile Version 2.0
Really cool data
ASCII
DATASET POLYDATA
POINTS 7878 float
-19.866667 -53.130657 1.8132629
-19.985773 -53.15691 2.461672
-20.041494 -52.954025 2.8943214
-19.76682 -52.483448 1.2549164
-20.118309 -52.41478 1.8101174
-20.293695 -52.573593 2.3694775
-20.130095 -52.355816 3.1711755
-19.85062 -52.116604 3.8190107
-19.993181 -51.76256 1.6638238
-20.270672 -51.797646 2.4478168
-20.061155 -51.43743 3.2379932
-19.8172 -51.065292 4.035162
-19.751966 -50.86854 1.761102
-19.961058 -50.800587 2.7411413
-19.856731 -50.40818 3.3780234
-19.683718 -50.412666 4.0840836
-19.587942 -50.16861 1.9748874
-19.848465 -50.0951 2.9402308
-19.59028 -49.38806 3.462333
-19.656824 -49.85479 4.107209
-19.51419 -46.50671 36.823997
-18.902348 -58.018536 8.767411
-18.952835 -58.27963 9.461073
-18.84379 -58.21922 10.174366
-18.746435 -57.824486 10.712428
-18.702007 -57.528095 8.248215
-19.100172 -57.469273 8.773088
-19.31143 -57.56603 9.538508
-19.138506 -57.362625 10.281925
-18.84957 -57.403694 10.716067
-18.716404 -56.990456 8.17426
-19.051651 -56.630756 8.796873
-19.348146 -56.821644 9.578401
-19.181025 -56.74131 10.220958
-18.714357 -56.754078 10.935293
-19.023804 -55.963314 9.695045
-18.890036 -56.033085 10.27388
-19.226612 -53.692085 1.7780402
-19.283373 -53.769516 2.3542461
-19.439718 -53.660934 3.0271363
-19.200745 -53.151688 1.0819812
-19.435131 -53.45384 1.5491695
-19.629955 -53.546654 2.439812
-19.368263 -53.446373 3.3041582
-19.336092 -52.99536 3.8515508
-19.329977 -52.503902 1.0094099
-19.352865 -52.253036 4.1250396
-19.232454 -51.51626 0.95605826
-19.472187 -51.408237 1.423041
-19.412607 -50.34547 1.6938215
-19.491308 -50.46892 4.5739694
-19.196295 -50.65477 5.044575
-18.903513 -50.159718 1.1215107
-19.05794 -49.788853 1.6802025
-19.363953 -49.31757 2.61399
-19.519926 -49.271038 3.3399062
-19.449572 -49.69336 4.3501344
-19.015907 -49.62465 5.00855
-18.97299 -49.20327 2.2302637
-19.184761 -49.006752 2.9071577
-19.211937 -48.852478 3.5120363
-19.231998 -49.06671 4.119715
-18.733774 -49.21523 4.916904
-18.806692 -48.018993 34.846264
-18.899809 -48.035526 35.443687
-18.810383 -48.062656 36.374207
-18.741558 -47.73939 37.204678
-18.95045 -47.502495 34.70491
-19.138607 -47.49023 35.502254
-19.158361 -47.512436 36.48596
-19.075338 -47.188564 37.257774
-18.882048 -46.92771 37.855667
-18.972918 -46.95995 34.746258
-19.161985 -46.68801 35.53787
-19.41635 -46.414295 36.613068
-19.333487 -46.435673 37.3819
-18.996208 -46.452305 37.910828
-18.987202 -46.011116 35.715195
-19.28579 -45.78506 36.72712
-19.182087 -45.75516 37.395348
-18.991522 -45.859535 37.851906
-18.84004 -45.326466 37.227146
-18.243826 -58.780792 8.999799
-18.241068 -58.894836 9.452572
-18.123415 -58.811783 10.123716
-18.089058 -57.908165 7.980981
-18.429482 -58.42746 8.628118
-18.425238 -58.481167 10.330495
-18.28529 -57.95938 10.905484
-18.559813 -57.37959 8.01304
-18.219898 -57.50978 11.113278
-18.258402 -56.776257 7.82559
-18.13129 -56.545685 11.250789
-18.06604 -55.274014 7.7114825
-18.459267 -55.452126 8.422211
-18.156 -55.544304 11.083989
-18.520016 -53.87851 1.7301335
-18.667398 -53.97223 2.7024102
-18.452946 -53.83983 3.20944
-18.062904 -54.968918 7.8688526
-18.105783 -54.23363 8.544351
-18.276686 -54.557495 9.245569
-18.391205 -54.807487 10.41906
-18.015886 -54.659824 10.929883
-18.507944 -53.268143 0.9459169
-17.988577 -53.731743 7.486734
-18.06776 -53.330383 8.503875
-18.025143 -53.72694 9.362946
-17.986238 -54.052708 10.39027
-17.842468 -54.213608 10.779514
-18.467907 -52.67227 0.69577074
-17.943678 -52.481403 7.765748
-17.903862 -52.595245 8.658774
-17.805994 -52.861343 9.185284
-18.412294 -51.3528 0.634827
-17.91596 -52.088707 7.7287617
-17.731926 -52.107315 8.022011
-18.542576 -50.70355 0.7421919
-18.44484 -50.109844 5.629523
-18.540947 -50.388355 5.8683314
-17.749151 -50.564888 7.129595
-17.55033 -49.35931 -6.0718436
-17.54035 -49.21502 -5.696345
-18.37208 -49.898132 1.0337827
-18.663454 -49.35696 1.8379754
-17.889353 -50.02841 6.249406
-17.899502 -48.833485 34.792145
-18.289383 -48.70909 35.649143
-17.982227 -48.801838 36.12015
-17.56259 -48.792458 -5.400687
-18.000917 -49.067253 1.6384792
-18.669138 -48.50031 3.6680505
-18.203428 -48.911705 5.3058248
-17.713242 -48.823555 6.0808682
-18.021002 -48.24891 33.885223
-18.44506 -48.29813 34.54126
-18.570854 -48.422104 35.462177
-18.476223 -48.34521 36.44086
-18.25723 -48.030045 37.39925
-18.041323 -47.828754 37.76209
-18.121456 -48.267387 2.6314218
-18.07662 -48.118423 3.747729
-18.04535 -48.1176 4.333833
-17.78392 -47.395054 33.290524
-17.983564 -47.365387 33.548683
-18.368484 -47.242897 38.085423
-17.760132 -45.784992 -4.3500443
-18.251074 -46.448627 38.42811
-18.020987 -46.54999 38.559105
-17.995817 -45.34832 -4.4308367
-17.88821 -45.21636 -3.6371922
-17.617182 -45.226917 -3.116585
-18.338877 -45.742546 38.193146
-18.048412 -44.137028 -5.2734423
-18.219831 -44.371258 -4.501593
-18.113493 -44.526127 -3.7871845
-17.706774 -44.703976 -2.9363832
-17.6897 -44.112682 33.562473
-17.790579 -45.22227 34.927593
-18.192263 -45.146706 36.098515
-18.244312 -45.1274 37.536785
-18.028103 -43.108833 -5.9357777
-18.192505 -43.357437 -5.369243
-18.240705 -43.41163 -4.7277246
-18.013 -43.497482 -3.6430337
-17.823606 -43.576862 -3.0700142
-17.679678 -43.137894 32.712852
-17.574093 -43.399204 34.18631
-17.892324 -42.678764 -6.03051
-18.209663 -42.71678 -5.461418
-18.138248 -42.54509 -4.511263
-17.95634 -42.707508 -3.8270311
-17.643332 -42.942596 -3.1440878
-17.569258 -42.529354 32.747593
-17.634676 -43.012115 33.815144
-17.60291 -42.980488 33.8984
-17.80644 -42.106907 -5.828232
-17.834381 -41.87617 -5.42808
-17.876106 -41.854023 -4.653743
-17.67225 -41.971497 -3.726476
-17.56631 -58.847015 8.794221
-17.617882 -59.04724 9.492987
-17.464647 -58.90355 10.194693
-17.724611 -58.115143 8.035676
-17.579573 -58.221985 11.031026
-17.446539 -57.52754 7.7360964
-17.410072 -57.552372 11.502411
-17.195126 -57.303276 11.737824
-17.253048 -56.56947 11.850133
-16.88688 -54.688396 -6.2054167
-16.734707 -54.807743 -5.845219
-17.045084 -55.11895 6.7490034
-17.642643 -55.48887 11.447211
-17.486591 -55.724354 11.649609
-17.000826 -54.152504 -6.9577847
-17.020382 -54.366253 -6.4498386
-17.083244 -54.251106 -5.642829
-16.830797 -54.293102 -5.01973
-17.954866 -53.785065 1.777563
-17.783861 -53.80255 2.6147509
-17.581905 -53.633255 3.1905146
-17.035963 -54.6705 6.4195833
-17.384356 -54.62036 11.351025
-17.219234 -55.031326 11.632705
-17.094292 -53.512787 -7.151951
-17.351498 -53.325405 -6.5130143
-17.235094 -53.486847 -5.54486
-16.963411 -53.57788 -4.902108
-17.8566 -53.20877 1.0604072
-17.49606 -53.390263 1.5543742
-17.712582 -53.527355 3.6594205
-17.343029 -53.633595 10.55195
-17.231346 -52.665665 -7.100971
-17.332375 -52.472374 -6.481619
-17.284983 -52.77239 -5.7796984
-16.854952 -52.46366 -4.9352007
-17.380198 -52.52374 9.495366
-17.179049 -52.85968 9.964229
-16.614042 -50.97952 -13.0159445
-16.623413 -51.28689 -12.561157
-16.543121 -51.32381 -11.607009
-17.10275 -51.18475 -7.8294835
-17.247843 -51.44331 -7.237202
-17.203594 -51.640934 -6.3770423
-17.047144 -51.227024 -5.650584
-16.689137 -51.24401 -4.9064717
-17.741142 -51.466644 0.6082843
-17.427597 -51.648724 8.541858
-17.094213 -51.925034 9.211845
-16.566238 -50.44085 -13.237953
-16.689001 -50.62476 -12.404607
-16.71004 -50.55479 -11.457046
-16.509668 -50.166885 -9.605749
-16.76996 -50.472713 -8.356133
-17.14805 -50.71812 -7.546223
-17.222874 -50.4755 -5.276876
-16.923265 -50.707527 -5.1382613
-17.620502 -50.68411 0.6756509
-17.452007 -50.20087 7.033126
-17.129364 -50.6891 8.045677
-16.744036 -49.786438 29.30936
-16.628912 -49.785046 30.004976
-16.583761 -50.093174 -12.965619
-16.561705 -50.078506 -12.861774
-16.669474 -49.296326 -11.421405
-16.83151 -49.868958 -7.9634027
-17.110378 -49.452732 -7.0593386
-17.260035 -49.587204 -6.5685234
-17.485765 -49.23524 -5.2447176
-17.347267 -49.40826 -4.7947216
-17.407598 -49.461 6.624707
-17.421621 -49.76689 7.30999
-16.751205 -48.86071 27.212986
-16.943361 -49.05877 27.81942
-16.702637 -49.6582 28.939667
-16.828985 -49.57906 29.624136
-16.89913 -49.22617 29.96882
-17.006218 -49.045673 32.75585
-17.126703 -49.093025 33.62163
-17.537231 -49.016598 34.584316
-17.192642 -49.30747 35.514687
-17.158758 -49.22382 36.403515
-17.110258 -48.884995 37.09239
-16.588375 -48.97615 -11.269979
-16.948675 -48.186733 -7.008713
-17.309 -48.396736 -6.3553295
-17.465944 -48.453484 -5.512579
-17.438795 -48.756664 -4.9243965
-16.919538 -48.500217 1.3158245
-17.276228 -48.60679 1.5102551
-17.617199 -48.69203 6.1178675
-17.021444 -48.84701 7.1433315
-16.890255 -48.34474 27.194561
-17.1195 -48.42085 27.564005
-17.290724 -48.530327 28.338436
-17.24697 -48.041256 29.57975
-17.110966 -48.03226 30.29271
-17.064173 -48.094944 32.085526
-17.279072 -48.402725 32.70172
-16.971249 -48.546303 37.568077
-17.23939 -48.181076 37.819607
-17.178398 -47.53605 -5.0566387
-17.269098 -47.896633 2.00115
-17.45579 -47.78177 4.621851
-17.251717 -47.893707 5.3321733
-17.000963 -48.05516 6.0999866
-16.637686 -47.921177 7.2688
-16.878723 -47.591343 27.1604
-17.248093 -47.5483 27.835686
-17.439188 -47.51037 28.492231
-17.360624 -47.37046 29.412077
-17.189922 -47.291912 32.727764
-17.730684 -47.16314 38.400604
-17.669546 -46.93795 38.588955
-17.09258 -46.45257 -5.4350605
-17.365845 -46.20256 -4.5464373
-17.099745 -46.462334 -3.769043
-17.168869 -45.90113 -3.0462813
-16.82192 -47.145386 2.6355956
-16.677656 -47.09904 3.2164853
-16.790943 -47.21785 4.653537
-16.670696 -46.60226 27.174135
-16.851881 -46.674744 27.606611
-17.235973 -46.85796 28.519203
-17.000986 -46.846714 30.057491
-17.485937 -46.37156 38.623398
-17.448206 -45.72002 -5.288173
-17.29954 -45.246002 -2.7351098
-16.83261 -46.208153 28.591166
-17.291142 -44.90586 33.292927
-17.544312 -45.652874 38.28666
-17.64863 -43.971684 -5.9169083
-17.43548 -44.545017 -2.6506422
-16.97273 -44.482506 -2.1982152
-17.329666 -44.388515 32.376434
-17.51107 -44.451015 33.45153
-16.917454 -44.40264 35.791344
-17.74249 -45.01392 36.873493
[...]
POINT_DATA 7878
SCALARS features_00 float 1
LOOKUP_TABLE default
0.8316883 0.80390096 0.77977586 0.82469225 0.809802 0.7962389 0.73667294 0.6593292 0.7396595 0.72917676 0.6214145 0.5097563 0.60638565 0.57968897 0.52279663 0.47481465 0.53454256 0.52817106 0.4984426 0.46677956 0.7997111 0.8748561 0.9426675 0.8860943 0.798093 0.7862654 0.8235148 0.88991296 0.8166617 0.7727934 0.6951457 0.7053014 0.823073 0.7716875 0.7017512 0.66520715 0.6607776 0.8603557 0.8305131 0.8026845 0.8843905 0.85995173 0.81597996 0.7910899 0.7490631 0.83979195 0.62279683 0.70573467 0.68070257 0.5482357 0.42692715 0.358387 0.5364578 0.4934779 0.4957254 0.49958867 0.44171166 0.35022864 0.46416855 0.48645034 0.48321527 0.45456493 0.34429288 0.48929003 0.53461134 0.5946146 0.6888078 0.49362424 0.5814094 0.6643771 0.76568127 0.81844115 0.50701135 0.63435525 0.78673315 0.850418 0.8606222 0.6696348 0.83581674 0.8868005 0.8848043 0.85667604 0.9405525 0.9647584 0.931489 0.80428934 0.89319634 0.8888786 0.7799206 0.7461728 0.73047864 0.6247937 0.6572422 0.43172067 0.49284685 0.5760658 0.8685693 0.82164407 0.7941387 0.409021 0.38431686 0.4409787 0.50692785 0.5255577 0.9054509 0.3254317 0.34019262 0.40879962 0.48191488 0.5061773 0.8739183 0.2529022 0.3058701 0.34955102 0.6940011 0.21713427 0.24439767 0.60724866 0.22212964 0.18649176 0.012753764 0.2867371 0.28449163 0.50208676 0.44738892 0.11310832 0.44267386 0.5006403 0.5223496 0.26397383 0.41569817 0.4430573 0.25804815 0.14763498 0.40608868 0.45730782 0.5086348 0.5671402 0.6491751 0.6821947 0.40433073 0.35196233 0.31366834 0.32122952 0.3534223 0.7681943 0.44560856 0.8023771 0.7726537 0.48187417 0.49710652 0.47918123 0.82803285 0.6744168 0.5896896 0.53582287 0.476969 0.33085328 0.28190482 0.6319668 0.8042836 0.7926291 0.75340116 0.68289304 0.5128849 0.45103317 0.42977646 0.3702976 0.80319476 0.7779761 0.664925 0.51708126 0.42818952 0.45437926 0.42038193 0.41947377 0.79989743 0.7810696 0.6946784 0.48743367 0.8634038 0.9058697 0.8948673 0.81950766 0.7977873 0.731944 0.7276481 0.71520793 0.6762829 0.57385296 0.6010103 0.25814968 0.5869764 0.61070675 0.53651655 0.5670061 0.6309308 0.6451816 0.8041159 0.73406446 0.6796278 0.12813705 0.54664236 0.57629365 0.52096736 0.551309 0.5886101 0.56386834 0.8082039 0.73076475 0.63724047 0.48498136 0.44812286 0.4480452 0.49006754 0.40505025 0.34963837 0.42056316 0.48375136 0.50386685 0.5018905 0.23098567 0.29158366 0.3460104 0.328106 0.3038392 0.65397614 0.20021968 0.28534457 0.44632775 0.4595296 0.43711573 0.15599743 0.11376818 0.1980453 0.33509195 0.32459772 0.5697848 0.02977072 0.027196836 0.4560539 0.38059545 0.4189311 0.41892827 0.34545866 0.1390149 0.24347106 0.2715609 0.27810913 0.29376167 0.085065424 0.035281252 0.59698224 0.5718865 0.48477852 0.4398791 0.40665567 0.2698464 0.31049606 0.41160148 0.4784321 0.5364009 0.56392384 0.32025337 0.24847886 0.23828149 0.24827422 0.2721347 0.3284478 0.3635792 0.14097187 0.070485644 0.632516 0.6267716 0.6010268 0.51815873 0.36409605 0.18066071 0.28404298 0.57936263 0.61654073 0.18921041 0.33203268 0.20591973 0.1661739 0.11093634 0.09793367 0.63197637 0.62058425 0.59051275 0.48920718 0.19039224 0.7170979 0.71812725 0.23475657 0.37507272 0.40063807 0.44095463 0.33786467 0.300178 0.14468518 0.5575509 0.543133 0.50265646 0.33141243 0.7253461 0.42971265 0.44856042 0.39254493 0.23006125 0.7363508 0.73802906 0.4499852 0.41442987 0.34099722 0.29485103 0.21913305 0.65131 0.7244732 0.74765676 0.7631525 0.4292307 0.38901663 0.38565016 0.40784746 0.79237837 0.43068326 0.40131086 0.38582653 0.4249956 0.4512813 0.4560791 0.4422801 0.3719805 0.77882814 0.7653097 0.59543896 0.5012797 0.40968135 0.40557265 0.42655945 0.4446915 0.4524409 0.42591035 0.40402704 0.7223942 0.67795074 0.49090922 0.7856832 0.7880832 0.8292216 0.7260034 0.71544313 0.7184396 0.77450895 0.7486648 0.6275625 0.736694 0.5239089 0.7001473 0.48722225 0.52580357 0.5999632 0.2910592 0.628446 0.48046553 0.57425356 0.48339078 -0.1982868 0.5546285 0.56112206 0.52637136 0.43308592 0.50856197 0.4310174 0.6876005 0.6170444 0.539711 -0.3493679 0.51232 0.53570384 0.5451001 0.54123443 0.5245508 0.28282663 0.35827255 0.6069454 0.45526296 0.45128384 0.53042173 0.5181017 0.48347086 0.32634902 0.28566667 0.5559361 0.464175 0.46774346 0.29832885 0.28896764 0.49133638 0.49588996 0.47029305 0.4103722 0.29396647 0.17139226 0.21349606 0.49410528 0.51094425 0.40412736 0.38843694 0.35846055 0.43166932 0.38921645 0.44088393 0.5578874 0.5495257 0.51237625 0.17612398 0.5278728 0.5521499 0.3221808 0.299024 0.29223406 0.26714987 0.327485 0.22679599 0.22321782 0.44752824 0.4985844 0.6160853 0.5816319 0.2690703 0.25170922 0.2393519 0.11436263 0.29404125 0.47938406 0.51748794 0.6269239 0.6107138 0.2715511 0.27559447 0.29656884 0.32641235 0.31686223 0.21771757 0.09435512 0.065406404 0.16863008 0.41693452 0.47726384 0.52769625 0.5643431 0.6215162 0.67033315 0.39531827 0.36688125 0.3380392 0.32217818 0.2820801 0.47938243 0.43971288 0.14041376 0.1829717 0.64199996 0.68341994 0.64896417 0.36891338 0.2795808 0.20717877 0.7139084 0.37832516 0.30139297 0.23249257 0.7586181 0.38864034 0.3512645 0.37652087 0.7154074 0.47165358 0.4549306 0.4847714 0.40917093 0.4281096 0.36916506 0.26844043 0.708966 0.63788706 0.5695704 0.52900535 0.51915306 0.5101592 0.40341717 0.38542926 0.34980446 0.37932956 0.5312937 0.727774 0.6358086 0.6789057 0.7441795 0.7711818 0.33649313 0.75110215 0.7452112 0.4659497 0.5074985 0.5226756 0.31693712 0.6703731 0.71203756 0.41556174 0.45150346 0.5405948 0.0912224 0.0134027 0.5804163 0.6322638 0.450912 0.029723251 -0.21795245 0.54849124 0.5898341 0.50449634 0.49627674 0.30608737 0.43929148 0.023573723 0.04820271 0.5240445 0.48853278 0.5167765 0.5298024 0.4520151 0.43854663 0.3401615 0.5220548 0.2540502 0.47767037 0.15114933 0.17524207 0.09783455 0.4731033 0.261598 0.40622854 0.27427533 0.41978514 0.438925 0.3689673 0.13528618 0.17859295 0.33357236 0.36323202 0.47480792 0.35564056 0.24030995 0.43004096 0.4764264 0.54153055 0.20710489 0.2639169 0.13532227 0.49249333 0.4465899 0.5977162 0.5581728 0.5491122 0.27984172 0.27053303 0.26342323 0.060687058 0.1907556 0.5258055 0.5463166 0.6053133 0.5432354 0.26120925 0.27129763 0.2836748 0.2638234 0.14807288 0.06896264 0.2779582 0.38923955 0.473794 0.5730526 0.63327765 0.54362047 0.42642033 0.2552234 0.23157407 0.17356706 0.29122275 0.3974272 0.35807127 0.31620032 0.2944234 0.40301394 0.4923563 0.57885396 0.5026318 0.45273876 0.52573663 0.28617918 0.3603971 0.34322613 0.9352081 0.9245833 0.877084 0.31078333 0.31074223 0.32946548 0.9535763 0.94962764 0.90721047 0.27751383 0.29884335 0.38337767 0.9329287 0.3470983 0.39386475 0.5982687 0.45606646 0.4226287 0.41153616 0.4579137 0.43975294 0.5831122 0.49146688 0.5289414 0.49361572 0.42415345 0.35358214 0.32684717 0.2269951 0.26744187 0.38425642 0.47092813 0.44585437 0.44131017 0.47619468 0.5194899 0.5382102 0.6549915 0.699551 0.46473932 0.3110142 0.20524162 0.5670049 0.6307007 0.67235595 0.37857333 0.42564118 0.37482962 0.33413145 0.16706409 0.27570182 0.19871372 -0.20385174 0.5085264 0.54255664 0.6356701 0.34400308 0.32138008 0.03725723 0.03525902 0.079475865 0.50377184 0.57157284 0.22001125 0.4638942 0.31084308 0.12992628 0.0049280184 0.47108084 0.52459997 0.44267148 0.45849925 0.45597836 0.43717438 0.024416067 -0.04202112 0.035637934 0.4396465 0.41573316 -0.018566376 0.20228967 0.061588302 0.5362713 0.35155106 0.14182469 0.21334663 0.2299241 0.08423574 0.017458495 0.7401367 0.6420483 0.41655385 -0.11788603 -0.10515724 -0.0074675865 0.3388543 0.20649996 0.33189285 0.38490906 0.7517429 0.6704962 0.52644193 0.43930903 0.26822585 0.21806875 -0.12061743 -0.13984051 0.33493307 0.45714378 0.39313108 0.40542608 0.48594877 0.51687866 0.70293856 0.615649 0.44961357 0.35585016 0.16187355 0.12614748 -0.18909091 0.46043003 0.44523242 0.50628436 0.48970336 0.40138584 0.30962193 0.20820618 0.15104426 0.009274006 -0.47842106 -0.34461978 -0.21493489 -0.08085549 0.5567311 0.43426216 0.20817834 0.18929404 0.2522008 0.26802844 -0.17712343 -0.058638953 0.6797785 0.68348914 0.49656963 0.08475159 0.17700364 0.16142781 0.12887688 0.13539156 0.14181626 0.40344042 0.26414585 0.13047633 0.27145928 0.35922244 0.47922134 0.53666437 0.6869774 0.839167 0.84368944 0.77495223 0.7622961 0.0657714 0.22670922 0.33114177 0.42876825 0.5311427 0.8493148 0.89925677 0.8250951 0.77919316 0.303706 0.19834405 0.19791302 0.8966698 0.94335186 0.8872804 0.8428002 0.25037235 0.38697848 0.32293272 0.9053645 0.8922021 0.88016707 0.8551098 0.34412435 0.38797843 0.40277636 0.4090823 0.31268635 0.3529998 0.8158504 0.4955457 0.42798096 0.41933614 0.34834746 0.42362994 0.5060948 0.45342153 0.556151 0.53508115 0.44469762 0.4708196 0.45050126 0.3420602 0.40593764 0.4979087 0.3220105 0.4065274 0.5135345 0.46637934 0.48532867 0.56077737 0.79594004 0.78416145 0.7695037 0.7784362 0.804348 0.7813553 0.74806714 0.71952224 0.73201025 0.7285782 0.6999159 0.6338706 0.60798657 0.5293339 0.4034363 0.49916482 0.4858674 0.13819236 0.1787557 0.2322609 0.2766216 0.42047468 0.06716956 0.10073803 0.117402054 0.056871176 0.19391751 0.22067073 0.25539806 0.12316838 0.04580143 0.21144545 -0.029336035 0.0683396 0.091340676 0.0058554765 -0.016882852 -0.05700479 0.004337359 0.12502734 -0.011597746 0.17949449 0.17344613 0.06337084 -0.051879436 0.0011448115 0.065872565 0.4776738 0.13997719 -0.003902331 0.019419149 -0.12714797 0.36208126 0.31264925 0.36460283 0.174977 -0.3490476 -0.3033936 0.12139289 0.20909934 0.3169049 0.3654237 0.6334599 0.1172024 -0.19870377 -0.18846689 -0.061427973 0.060866237 0.053413846 0.22821507 0.27389044 0.78698176 0.73613816 0.65590763 0.51236707 0.09715097 -0.20445716 -0.17783056 -0.15135744 -0.21017545 -0.14284497 0.05190899 0.1281469 0.2045776 0.82487273 0.76346314 -0.13121973 -0.14189613 0.8015331 0.7871231 0.7624961 0.70146185 0.6216845 0.38051695 0.5965656 0.48672235 0.42610705 0.36287728 0.022333022 0.8064203 0.23422675 0.40643418 0.33966202 0.30016398 0.12653804 -0.005480524 -0.15292577 0.18203321 0.72818685 0.56589127 0.57866764 0.57475835 0.32202947 0.3236305 0.2392514 0.23901543 0.11905933 0.08362601 -0.072588354 0.1909331 0.32424718 0.8195951 0.62981105 0.5741936 0.23685738 0.16327478 0.4729109 -0.13084924 0.20250939 0.43095773 0.5340744 0.57926106 0.8389612 0.728083 0.6436044 0.11631491 0.17519464 0.7486629 0.5427077 0.5369183 0.09490231 -0.33381352 0.75629425 0.67126 0.2209931 0.8187561 0.8220768 0.80431104 0.59144944 0.6063421 -0.023404844 0.1281693 0.85892016 0.77842134 0.8085185 0.81244826 0.8148224 0.51634884 0.31891412 0.34540105 0.85834956 0.85704017 0.7329549 0.11285946 0.25970623 0.7120804 0.75739014 0.7651551 0.55065864 0.5884948 0.41449356 0.8885226 0.34655935 0.5901555 0.5764692 0.5416224 0.45837322 0.41644388 0.50343245 0.3204595 0.45778552 0.36874527 0.39673966 0.47411156 0.5892999 0.6028044 0.63154763 0.48063558 0.5701874 0.508862 0.49841163 0.714991 0.7700454 0.75986004 0.74528444 0.8254043 0.81085503 0.7868432 0.7108663 0.7413601 0.7120167 0.80965734 0.84911156 0.83389866 0.7541956 0.6984593 0.2022798 0.23514827 0.25265568 0.811535 0.7615857 0.6647297 0.6323503 0.10956195 0.19460234 0.07848941 0.60897785 0.59727955 0.31313604 0.12090753 -0.13119923 -0.024324637 0.14502975 0.19767603 0.20614937 0.22206616 0.12458326 0.0018013269 -0.15329172 -0.17155501 0.04588716 0.061045066 0.011747779 0.7197763 0.21895693 0.21250625 0.17103869 0.19789617 -0.092569605 -0.00047477707 0.659621 0.6842549 0.6415536 0.21243715 0.10611647 0.19166584 -0.13529216 0.5193707 0.5026405 0.52360034 0.49745005 0.4583344 0.20916691 0.02069773 0.07519791 0.09178764 0.1588944 0.20507589 0.40009463 0.4341089 0.40127537 0.27040768 0.35851103 0.38891882 0.17381072 0.2784204 -0.1748822 0.14120774 0.217237 0.4110192 0.39257735 0.36992633 0.3867367 0.28524533 0.28688794 0.37613094 0.34634954 0.76295763 0.71814024 0.52942204 0.11506381 0.1361703 0.21223581 0.42485636 0.43122214 0.40850148 0.31494868 0.7876721 0.74793196 0.046539098 0.17668697 0.42810524 0.44088662 0.42836565 0.37147385 -0.074967265 0.21061417 0.8563645 -0.15594141 0.38550746 0.3925641 0.40396422 0.35435736 0.1029687 0.83909523 0.16008785 0.31664357 0.30542037 0.24282251 -0.115654096 0.7474141 0.6506468 0.32811382 0.14885658 0.3549702 0.5956318 0.4396282 0.48552173 0.4596001 0.44649756 0.19097173 0.10209122 0.3941418 0.39194596 0.08036295 -0.06967708 0.6186124 0.6391723 0.5082799 0.47849894 0.3480329 0.36375254 0.40792826 -0.08001121 -0.2627831 0.10849768 0.6675147 0.72097135 0.51457137 0.43761694 0.3942707 0.21847022 0.3842429 0.49294472 0.48020375 0.47041947 0.4884994 -0.17426902 -0.18362626 0.10257357 0.2033265 0.23547 0.35538766 0.5395814 0.7909875 0.5029713 -0.0038641244 0.38900784 0.637498 0.51912904 -0.10384542 -0.15698105 0.097705975 0.17977904 0.23597714 0.7437345 0.56081796 0.49337822 0.25613123 0.75275666 0.56628126 -0.054729313 0.081612326 0.1531714 0.12427227 0.12385686 0.59465873 0.628088 0.75717264 0.74964 0.81077254 0.85288966 0.6949835 0.6657788 0.08539737 0.69917333 0.6811708 0.71932316 0.5960562 0.8797375 0.9023198 0.834697 0.73741484 0.21650115 0.27141827 0.59732795 0.57566833 0.5097936 0.3968005 0.5573698 0.3648506 0.65259475 0.71044254 0.6561824 0.5171503 0.49294823 0.5430946 0.5445998 0.49698004 0.75790745 0.7346996 0.69590116 0.7648188 0.75175905 0.7224971 0.643435 0.6856256 0.7091613 0.71657485 0.3844769 0.40758115 0.4252479 0.42174405 0.78482604 0.8026587 0.7917124 0.74283195 0.6860682 0.59189034 0.575556 0.33812168 0.39071125 0.40696412 0.40597978 0.75867534 0.63675654 0.59857637 0.57775974 0.06501685 -0.024133168 0.35576388 0.31009018 0.6620939 0.73059565 0.547776 0.49645817 0.45711923 -0.02124476 0.05301521 0.62609327 0.52165186 0.41629878 -0.10415563 0.08261886 0.04020237 0.7448847 0.41688582 0.3970673 0.34022015 0.28775442 0.16391926 0.16294135 0.17398909 0.13673395 -0.015505232 0.7284993 0.7414941 0.7365909 0.4477178 0.40176105 0.3983741 0.22665042 0.26356524 0.23363481 -0.045100607 0.09408211 0.18779105 0.6423105 0.6975165 0.55723166 0.121821 0.33408427 0.39579356 0.37334174 0.30355668 0.14634009 0.19108652 0.45271137 -0.065774195 0.31720632 0.3525517 0.20366687 0.1798019 0.3374494 0.3274005 0.22297391 0.22384742 0.22636747 0.38806123 0.38283485 0.31345633 0.26593035 0.28730947 0.76660514 0.7294091 0.6880224 0.22955072 0.24409473 0.40292835 0.40370506 0.22091353 0.18359366 0.7928682 0.23693386 0.2490778 0.4159261 0.8581356 0.33181345 0.021519832 0.7441599 0.5968231 0.30452377 0.32144654 0.15766865 0.3256911 0.680715 0.58462024 0.18044114 0.22747627 0.40733945 0.45105648 0.37541202 0.3000653 0.40407386 0.36000636 0.3759081 0.3620773 0.4135865 0.16203406 0.42428863 0.36620152 0.30559325 -0.18436542 -0.11614904 -0.30638123 0.47731435 0.5027269 0.40830532 0.48062536 0.4223888 0.4369504 0.32972828 0.17995626 -0.15585186 -0.30342612 -0.27082083 0.47335476 0.47142607 0.38946697 0.47742283 0.48047048 0.46252078 0.28501743 0.4272027 -0.22085252 0.15297824 0.61663795 0.4138737 0.48347747 0.4723842 0.36408922 -0.016967434 0.40129757 0.4521948 0.43852675 0.51639676 -0.13607848 0.24300447 0.21254714 0.55092835 0.4383144 0.48563763 0.40737355 0.4121634 0.606843 0.5719601 0.19257717 0.20244525 0.21035779 0.20516467 0.22746879 0.24215743 0.53332883 0.60390854 0.5430852 0.54810345 0.7141783 0.67391145 0.64406824 0.109717965 0.16820973 0.22974402 0.24223582 0.27398723 0.24286805 0.6165793 0.5683551 0.48477682 0.0009759851 0.0713312 0.80322015 0.83826447 0.9056146 0.8758225 0.80782604 0.39551565 0.36386606 0.32753402 0.31625026 0.5702437 0.5161999 0.42371505 -0.17179473 0.1369548 0.9077924 0.8915621 0.51025224 -0.025754873 0.5715106 0.69922006 0.644243 0.5803798 0.76640016 0.7936724 0.77428246 0.7074288 0.42819065 0.46086812 0.5015078 0.70547706 0.70811176 0.6578204 0.49216557 0.5245258 0.506355 0.63287437 0.38169312 0.40924713 0.42769158 0.44659087 0.718364 0.5842691 0.44061977 0.42504132 0.29325464 0.37093398 0.3940514 0.40868318 0.65475583 0.51129353 0.49492955 0.4234815 0.2056989 0.5311497 0.56659776 0.42844594 -0.03399977 0.38973013 0.2603415 0.30992928 0.19746062 -0.00040060282 -0.0021262695 0.20682141 0.3365306 0.37135094 0.41593456 0.7275379 0.71429193 0.34409013 0.31224936 0.26240104 0.3317484 0.3568993 0.14570655 0.12292455 0.059388205 0.2978186 0.3777929 0.45001048 0.4734674 0.7171178 0.70349765 0.7246995 0.35719693 0.3539197 0.3306662 0.42980066 0.41944122 0.3642032 0.28106123 0.24785978 0.17388079 0.4051206 0.38416228 0.64518976 0.3439946 0.35064206 0.39092878 0.39578834 0.39801472 0.23892045 0.27701196 0.27716118 0.19044143 0.16785502 0.20326653 0.334884 0.22155015 0.22497442 0.3386724 0.3156575 0.76737034 0.75059795 0.6919268 0.24722302 0.24263963 0.18470736 0.34606183 0.22321947 0.19541518 0.7780019 0.23664522 0.23604843 0.51592994 0.5254221 0.5047497 0.23549224 0.16253778 0.78557515 0.117087424 0.13329314 0.48114038 0.48303932 0.47189587 0.40260667 0.11036396 0.16651341 0.652691 0.40765393 0.4518957 0.4037923 0.17185387 0.22575988 0.37194037 0.37723723 0.3915645 0.4269185 0.2244713 0.26246265 0.41322947 -0.103471965 0.32997 0.32377896 0.42695108 0.46059835 0.10521382 0.18724196 0.40030587 0.4249729 0.5000257 0.07226148 -0.32102776 -0.25467673 -0.20656613 -0.21369177 0.0066803843 0.042379826 0.18168144 0.4647325 0.48517388 0.19000685 0.27773038 0.3859623 -0.18198642 0.06647049 0.34172457 0.46896982 0.4603336 0.42724657 0.22167496 0.067472346 -0.046032667 -0.0371591 0.43275547 0.4665531 0.29368067 0.50539213 0.16917492 0.108970486 0.3939992 0.35424575 0.24878421 0.41577262 0.41843784 0.21064281 0.22187537 0.1719068 0.36147073 0.3970136 0.6422976 0.6523456 0.7209089 0.6568385 0.18920377 0.19230951 -0.06589519 -0.106521256 0.7918426 0.7371962 0.24453227 0.16871573 0.36633688 0.3918302 0.38926587 0.3490008 0.28533572 -0.07663948 0.2867129 0.8959446 0.9034658 0.855368 0.4403945 0.422516 -0.03438676 0.3183515 0.5030903 0.58527315 0.011495516 0.7708887 0.75011194 0.72473645 0.6879344 0.49132586 0.47061557 0.60111487 0.6317669 0.46314603 0.50171816 0.5579868 0.62508965 0.5050212 0.5277842 0.48173082 0.5272906 0.36146456 0.37172902 0.3396222 0.33534914 0.2919591 0.3609574 0.63010544 0.6302049 0.62930435 0.45072594 0.3634929 0.34348828 0.51497924 0.61771613 0.4086786 0.31086674 0.4026739 0.32547158 0.31097677 0.41089666 0.41712287 0.43007278 0.26598045 0.17864871 0.3406534 0.40635023 0.4480675 0.47990218 0.5148958 0.6453316 0.12503733 0.33523202 0.35195166 0.24125192 0.052704155 0.0035074875 -0.15575805 0.52717686 0.5596733 0.598349 0.594861 0.3221047 0.44292033 0.44292212 0.45130432 0.39540815 0.17366412 0.08311984 0.4674874 0.5567426 0.5900365 0.42903268 0.32774577 0.42858005 0.26447868 0.44564945 0.5101975 0.5463834 0.33291206 0.26251096 0.34122315 0.45140898 0.1786744 0.24876903 0.22201997 0.06572616 0.24489889 0.7320346 0.21957934 0.52240694 0.4501592 0.115859784 0.14740469 0.7345662 0.6994026 0.16226068 0.5103245 0.6639407 0.47663248 0.043747626 0.44373888 0.28724888 0.43440306 0.3610227 -0.14045613 -0.16088115 -0.08228559 0.3851593 0.43013674 0.05412507 -0.11539512 -0.1954327 0.08937062 -0.029528588 0.123684764 0.12610415 0.4401769 0.101938486 0.21985602 0.08710653 -0.10700624 0.27083072 0.4466213 0.029454641 -0.045897942 0.34403634 0.5048698 0.025952406 0.10701063 0.18826923 0.42146763 0.4556015 0.48656946 -0.19681261 -0.17940834 -0.18242794 0.0020868722 0.009151235 0.07312243 0.45082447 0.4301772 0.4117454 0.21931845 0.43140188 0.46739697 0.2603691 -0.24853112 -0.18766132 0.06752732 0.04162948 -0.043371767 0.10365908 0.116754025 0.09504245 0.36910206 -0.040924415 -0.0062395195 0.39595675 0.332978 0.4119766 0.66996175 -0.1533395 -0.13274388 0.10404395 0.4547611 0.31066522 0.31362897 0.043542158 0.4844826 0.7161879 0.83362377 0.07985531 0.094934985 0.17230664 0.5577528 0.49014735 0.77316964 0.82319915 0.90576047 0.48796773 0.20212284 0.2776875 0.39276412 0.36157477 0.3106126 0.21295628 0.36614865 0.46182638 0.8901271 0.78487754 0.69697344 0.7152662 0.32840958 0.42880592 0.41625962 0.012345215 0.09746049 0.42888403 0.8735225 0.8839998 0.8382921 0.67137265 0.59663427 0.3656228