# vtk DataFile Version 2.0
Really cool data
ASCII
DATASET POLYDATA
POINTS 2920 float
13.323913 21.247116 57.263325
13.351942 21.149166 58.237976
13.210717 22.005434 55.970783
13.144575 21.867342 56.404015
13.071229 21.62631 57.5803
13.140596 21.473824 58.30878
13.124348 22.402143 55.83102
12.774527 22.652111 56.699986
12.691084 22.701298 57.33944
12.938865 22.648182 58.301888
13.32095 22.77286 59.61411
13.093099 23.258158 55.793167
12.69816 23.46145 56.720634
12.706294 23.422556 57.409466
12.917055 23.498453 58.108818
13.417455 23.600538 59.48813
13.233943 23.933817 55.860207
12.987749 24.06352 56.64573
12.868549 24.014126 57.326363
13.084408 24.099125 57.831432
13.392405 23.919737 58.930145
13.965001 21.22458 56.116096
13.959228 20.846756 57.070168
13.702118 20.827366 57.58697
13.726875 20.816687 58.466583
14.037274 20.935062 59.46382
13.873367 22.039461 55.315445
13.732829 21.729143 55.671265
13.479531 21.537373 56.22518
13.96645 21.317503 59.61799
13.919772 21.766905 60.515144
14.337157 21.830053 61.323006
13.678387 22.721346 55.215607
13.423288 22.410225 55.47969
14.274918 22.602114 61.48947
13.800968 23.400639 55.166718
13.517686 23.694708 55.49725
13.613287 23.512716 60.08339
14.392165 23.467419 64.80122
14.30243 23.759605 65.45411
14.33827 23.668795 65.84902
13.940611 24.110783 55.19093
13.831159 24.327375 55.52776
13.52779 24.586395 56.412865
13.713451 24.167414 59.185303
13.7883415 23.93682 60.25587
14.266073 24.462355 64.691605
14.241652 24.542141 65.41609
14.369205 24.32592 65.92509
14.085639 25.019482 56.021652
13.714327 24.809114 56.969196
13.864274 24.856913 57.283474
14.379253 24.929111 64.71915
14.336035 24.999567 65.30798
14.892801 20.372202 57.975857
14.642717 20.413275 58.27257
14.4464855 21.239416 56.074657
14.377393 20.502775 57.696884
14.197157 20.522074 58.502644
14.645034 20.498621 59.112473
14.367964 20.912554 60.305225
15.084154 20.866755 61.95244
15.366262 20.891542 63.43252
14.391483 21.958626 55.265125
14.463452 21.581238 55.5484
14.953206 22.0059 63.87203
14.535938 22.503517 55.004513
14.52802 22.989777 62.14684
14.904985 22.24818 63.191257
14.473121 23.188745 64.78061
14.685977 22.933695 65.326836
14.557194 23.687445 54.784317
14.676454 23.533484 63.665794
14.767349 23.667019 66.35779
14.992527 23.81583 66.66268
14.563189 24.383814 54.92129
14.44061 24.501883 60.112167
14.994571 24.271896 63.008354
14.658266 24.470577 66.31775
15.10327 24.313406 66.95136
14.696681 24.887535 55.102432
14.625749 25.1398 55.535095
14.59061 25.23677 64.800446
14.556654 25.296505 65.49438
14.690439 25.14332 66.07118
15.1610365 26.042246 65.8732
15.180527 25.989273 66.05439
15.168662 27.590971 57.55645
15.256 28.334782 56.79395
14.871273 28.764198 57.67349
14.958843 28.501541 58.27429
15.088453 29.448425 56.883255
14.830806 29.666815 57.670364
14.756386 29.367949 58.580864
14.928184 29.698927 59.149845
15.268978 30.120136 56.79427
14.956365 30.218615 57.679134
14.869926 30.403019 58.501022
15.007289 30.349874 59.159092
15.216622 30.812323 57.75462
15.140697 30.862204 58.65408
15.231114 30.82641 59.067055
16.267061 17.20377 68.94123
16.200098 17.109735 69.591125
16.21036 16.893942 70.29819
16.241056 17.033623 71.65404
16.296635 17.112206 72.04488
16.381086 18.153173 67.58217
16.056437 17.824448 68.83725
15.867834 17.71674 69.6688
15.781219 17.790943 70.34472
16.00973 17.519075 71.51409
16.205648 17.536512 72.17941
16.38504 18.86722 66.71259
16.15074 18.754639 67.548195
15.943739 18.72216 68.62818
15.807002 18.500784 69.52984
15.779339 18.403563 70.47154
16.251326 18.53589 72.36739
15.39474 20.431372 57.80517
15.214039 20.370777 58.685955
15.902947 20.352884 59.066143
15.505312 20.4387 60.73739
16.090246 20.274107 61.760384
16.047388 20.147787 62.96874
16.19296 19.714607 67.73723
16.041311 19.36408 68.09796
16.157785 19.548145 69.39947
16.094687 19.30682 70.51713
16.122643 19.283728 71.664825
16.316992 19.182785 72.251564
15.33352 21.203629 56.158165
15.446519 20.869493 56.81402
15.368953 20.516922 57.69556
15.375539 20.69422 62.315247
15.4888 20.616123 63.36832
15.971336 20.755161 64.4703
16.313202 20.932474 66.80653
16.407497 20.190922 67.59184
16.251547 19.892403 69.34834
16.26523 19.834545 70.50222
15.531261 21.898552 55.68412
15.642015 21.436626 64.43693
15.259344 22.756779 55.038567
15.776371 23.072445 66.9686
15.339358 23.660452 54.706543
15.787048 23.357698 67.16561
16.19516 23.9438 67.97902
15.290575 24.208836 54.68568
15.643487 24.552334 67.350296
16.19904 24.530167 67.921425
15.571559 25.382147 55.686264
15.542714 25.136972 58.882137
15.611783 25.100637 62.34288
15.885132 27.13599 57.12163
15.991121 27.317055 57.27601
16.306566 26.695135 60.35436
15.999202 25.923096 61.419804
15.359454 25.682806 64.4693
15.449517 26.249931 65.734276
15.685166 26.349804 66.49211
15.606815 25.969402 66.850525
16.24884 27.0214 61.20017
15.965618 26.795425 66.215996
15.909104 28.44151 56.06755
15.441867 28.978445 59.38952
16.258747 28.398722 59.865158
16.17114 29.65637 54.872135
15.628535 29.615953 55.91409
15.609238 29.644562 59.712082
16.232481 30.642197 54.894722
15.834076 30.210983 55.436073
15.549557 30.272694 59.694935
16.242144 31.12847 55.459595
15.868156 31.10997 56.522427
15.48069 31.02732 57.51193
15.84686 31.307642 58.58651
15.665125 30.925064 59.237774
16.131157 31.580597 57.71179
17.078304 16.363747 70.78039
16.998278 16.466433 71.29017
17.106968 17.257309 68.057816
16.63577 17.086567 68.725426
16.634577 16.684853 69.66614
16.612795 16.694387 71.61582
16.718548 16.90417 72.3412
16.943745 17.076738 72.743805
17.105282 17.700788 67.122
16.936518 17.840956 67.25018
16.483978 17.387888 72.53853
16.814964 17.64963 72.94353
17.063866 19.278795 63.581367
17.311424 19.117685 64.57151
17.027428 19.006876 65.63815
16.586449 18.502504 66.79186
16.670448 18.455345 72.87594
16.494093 20.1249 60.861095
16.278923 20.270697 61.175446
16.272396 20.21373 62.284664
16.4849 19.812052 63.59829
16.477446 20.14836 63.89876
16.62411 19.245064 72.61844
17.045628 19.42958 72.85759
15.931416 21.248308 56.480316
16.13313 20.632357 57.803017
16.104782 20.641584 58.267414
16.618828 20.534882 66.10762
16.813074 20.099249 71.72448
15.9970045 21.465979 56.31747
16.16588 21.455261 56.548573
16.907566 20.962423 68.701996
16.913374 21.02208 69.98865
16.481903 23.099966 55.299427
16.126724 22.521465 55.59555
16.83366 22.526297 68.09187
16.484505 23.569763 55.173065
16.698399 23.498102 68.38025
15.996527 24.361496 54.900524
16.457035 24.636292 55.422222
16.524986 24.581818 68.30952
16.772608 24.557241 68.851326
15.846662 25.16131 55.420883
16.618273 25.037888 68.60354
17.15849 25.699596 68.9771
17.361912 25.967026 73.03014
16.63948 26.989616 59.591106
16.473515 26.769253 62.47008
16.710466 26.60555 67.10763
16.918932 26.0464 68.27795
17.234774 26.270836 72.56894
17.346285 26.506914 73.476295
17.400013 26.961573 74.02154
16.5171 27.669893 59.859043
17.218302 27.362526 63.073784
16.325686 26.92453 65.02784
16.333633 27.04793 65.61581
16.40414 26.977385 66.25778
17.242636 27.571238 72.21177
17.138638 27.602282 72.522415
17.095734 27.440958 73.33139
17.283068 27.291462 73.92629
17.286913 28.261501 77.44545
17.166216 28.77915 54.13912
16.389832 28.55033 55.371586
17.237904 28.021797 72.20751
17.188457 28.334072 72.67633
17.090908 28.082327 73.17198
17.207945 28.071182 73.87038
16.900042 29.094786 75.78572
16.898302 28.848944 76.55735
16.794586 28.869823 77.39712
16.931679 28.81251 78.42545
17.261726 28.86466 79.040504
17.122492 29.136848 60.46972
17.241673 30.014986 63.705574
17.05716 29.93202 65.2334
17.05398 30.133226 66.00127
17.31653 28.751684 73.043915
16.704563 29.647743 75.84073
16.626297 29.548277 76.585266
16.599493 29.6023 77.52849
16.725416 29.545292 78.350365
17.05978 29.863115 79.15737
16.93302 30.28575 53.98794
16.494055 30.63849 54.59132
16.11403 30.308998 59.889668
16.864958 30.92564 63.67373
16.77161 30.781925 64.47648
16.809063 30.450401 65.412285
17.075384 30.651918 66.30636
16.737383 30.177225 75.97074
16.658628 30.307957 76.57198
16.68863 30.451967 77.39961
16.81044 30.361351 78.33772
17.026669 30.389654 78.97086
16.5456 31.250664 55.029938
16.43539 31.329174 55.563984
16.963224 31.509996 58.59036
17.023167 31.286806 62.833645
16.801918 31.41867 63.84247
16.746916 31.37781 64.33838
16.682959 31.406406 65.43509
16.961672 31.57732 66.280754
17.24449 30.9389 75.7906
17.16092 31.175972 76.599434
17.003412 31.055233 77.41526
17.028606 30.936972 78.39395
17.062567 31.841904 55.7057
16.979586 31.774847 56.297253
16.323347 31.68952 57.689476
16.762302 31.715595 58.06929
17.20982 32.328552 62.84888
17.015291 32.37033 63.84833
16.8173 32.230587 64.88688
16.81357 32.098724 65.50818
17.14324 32.172176 66.26471
17.23293 33.222294 63.627556
17.231258 33.31553 64.45656
17.224968 33.047413 65.40193
17.46069 33.879784 63.343914
17.291088 38.94559 49.454937
17.30865 38.866787 50.21901
17.18502 39.68053 48.800823
17.056585 39.642567 49.5968
17.14903 39.551517 50.26584
17.297909 39.809685 50.949806
17.239468 40.263725 48.776142
17.015451 40.32328 49.576656
17.140465 40.510345 50.359116
17.34632 40.413944 50.9354
17.343636 40.835297 48.81174
17.248697 40.95816 49.613647
17.275309 40.944344 50.260147
17.481346 16.341248 69.70124
17.443468 16.364666 70.69911
17.483225 16.461487 72.04971
17.680342 17.179995 67.93486
17.889908 16.586597 68.93744
17.449669 16.510454 69.242676
17.74691 16.591593 72.477745
17.661152 17.040659 73.03468
17.695467 18.172224 65.78998
17.679895 17.585224 66.804375
17.761892 17.730791 73.44002
18.14553 19.192438 61.23349
18.009027 18.897903 62.39178
17.68925 18.86634 63.446007
17.782143 18.60671 64.594696
17.550802 18.372736 73.395836
18.08634 18.28298 73.61854
17.936726 19.469591 61.480534
17.554827 19.458189 73.11765
17.033531 21.317083 57.221893
16.998394 20.511087 59.731464
17.776352 20.090725 72.72133
18.1407 21.738003 57.09233
17.625296 21.443338 69.96465
17.673477 21.458513 72.493324
18.127901 21.454111 73.10729
17.24738 22.44462 56.17668
16.892296 22.569942 56.33485
17.721243 22.740288 69.405914
[...]
POINT_DATA 2920
SCALARS features_00 float 1
LOOKUP_TABLE default
0.6520717 0.5729065 0.71033096 0.7027555 0.66661954 0.59231246 0.7272276 0.7397362 0.698708 0.5850172 0.4231562 0.7323882 0.6976284 0.61711395 0.51534563 0.37633866 0.69101346 0.6577295 0.5907865 0.515563 0.4090421 0.67123055 0.6255151 0.60088104 0.53777593 0.479299 0.70988166 0.6986041 0.68870306 0.48169833 0.41093585 0.30753303 0.73556346 0.72750545 0.2830566 0.7285131 0.7099174 0.34717894 0.44833076 0.5046581 0.49873042 0.69795036 0.67921394 0.640949 0.35760555 0.32271734 0.48742983 0.51771164 0.5157607 0.64285827 0.58595794 0.5315623 0.4853328 0.51044405 0.49632242 0.49710947 0.6535934 0.5526909 0.5152273 0.45019314 0.3910652 0.25474852 0.23591444 0.6896852 0.66769177 0.21774982 0.7265506 0.20019698 0.20489979 0.40938717 0.391897 0.7438296 0.3313418 0.44307715 0.39761886 0.7242651 0.27554348 0.25637645 0.492788 0.37939578 0.7269813 0.701738 0.47422037 0.50368 0.50963277 0.4503962 0.45558178 0.5164043 0.49340996 0.597674 0.5919478 0.5317056 0.6165939 0.65847695 0.6499085 0.51467603 0.61304045 0.66637623 0.6719359 0.6015204 0.6540801 0.6619803 0.53534603 0.5946665 0.644012 0.6642754 0.675645 0.43636066 0.51864207 0.58020055 0.63147986 0.662153 0.6779177 0.3562801 0.41244483 0.45011997 0.49829376 0.5794142 0.6566355 0.46950835 0.42039713 0.320049 0.23479049 0.13627452 0.17046508 0.3255803 0.37058684 0.36255705 0.4592213 0.54851866 0.56677186 0.552601 0.5151928 0.4804588 0.22863528 0.21841802 0.19579351 0.12880035 0.27029127 0.31417465 0.3848045 0.5436646 0.23298638 0.6991066 0.21872443 0.7813667 0.22042647 0.15676737 0.7836814 0.2915681 0.20224312 0.7250608 0.3054852 0.009230289 0.3914647 0.41597036 0.040684946 -0.016558848 0.397035 0.41921568 0.39994356 0.42920148 0.014892153 0.36984223 0.4203973 0.500051 0.28052205 0.42129946 0.4734317 0.5642977 0.39849034 0.44204864 0.63137424 0.41167462 0.47104287 0.5648158 0.5926696 0.63290375 0.5363189 0.62542737 0.6432059 0.45572034 0.5074519 0.5846025 0.6580713 0.6838187 0.70462096 0.38605756 0.39988148 0.6922842 0.7037438 0.062304743 0.01536946 0.17899744 0.36670786 0.6555166 0.051417485 0.093532875 0.13543792 0.13125688 0.15313596 0.5408272 0.47186393 0.43445134 0.38883677 0.36168832 0.17051859 0.40131593 0.42747578 0.38625026 0.123850554 0.19660169 0.5616384 0.48733988 -0.011534041 0.654305 0.08699754 0.77638054 0.7146616 0.18648243 0.16301547 0.7578984 0.23445573 0.22101153 0.4615136 0.09058378 0.10036291 0.3107984 0.28816575 0.4765334 0.47449934 0.46260038 0.16923392 0.076923296 0.31536052 0.33021325 0.33787215 0.46866518 0.48167527 0.4824549 0.4640963 0.65233207 0.27193058 0.37296963 0.45731676 0.46152598 0.47460544 0.43758935 0.45019597 0.5606907 0.66304326 0.721953 0.68399465 0.25824034 0.40030253 0.5390609 0.5285877 0.43547362 0.53138983 0.6180497 0.7000791 0.7354685 0.71625817 0.3765119 0.38285467 0.5602813 0.40494195 0.50683296 0.5978875 0.5534793 0.58656025 0.62816566 0.661988 0.70688915 0.7095361 0.38358518 0.40413925 0.46001324 0.32455945 0.42380592 0.47510546 0.61051 0.61643344 0.5291089 0.5588974 0.6076702 0.65600246 0.3654835 0.42102635 0.51989806 0.4922722 0.39420897 0.43039912 0.51181376 0.56644684 0.5622875 0.44854292 0.47586983 0.48852313 0.47321376 0.57962024 0.523662 0.6625562 0.6648165 0.6174139 0.596903 0.6898855 0.7152692 0.696291 0.6488631 0.71928215 0.7466506 0.7173941 0.52962357 0.60375166 0.67009985 0.43019038 0.443632 0.49517262 0.701458 0.7314093 0.19547513 0.3438736 0.70613635 0.14691307 0.157466 0.09042943 0.038067102 0.62115324 0.6135733 0.10007104 0.4183719 0.21474397 0.061119154 0.31572622 -0.014173642 0.038241953 0.25670955 0.29003233 0.2816051 0.3473183 -0.1825253 0.26519394 0.2968832 0.5144737 0.2128438 0.27706197 0.5723211 0.10853579 0.2598377 0.33483315 0.3172136 0.4112342 0.34820548 0.20483664 0.09305493 -0.055608593 0.43027043 0.33381367 0.09409081 0.18746191 0.041555583 0.19499217 0.026256092 0.23972562 0.43835202 0.56556785 0.62626195 0.63539743 0.6374559 0.25516236 0.14014697 0.10308739 0.14160554 0.38853452 0.372352 0.3515415 0.65242815 0.61425346 0.38654265 0.33974367 0.24224326 0.20250571 0.24964592 0.4320361 0.34264678 0.38255012 0.3335328 0.68750703 0.64471525 0.44573352 0.42597055 0.36759713 0.17943858 0.48679197 0.4949752 0.41811284 0.68606496 0.46608236 0.44604227 0.37284797 0.24299446 0.33122152 0.5322762 0.42149717 0.45588517 0.5210092 0.5480793 0.61621296 0.4193988 0.27870345 0.41374588 0.35890013 0.35923594 0.5003124 0.51442105 0.4634983 0.49094188 0.34728903 0.4167989 0.46976042 0.48195657 0.3747884 0.48827642 0.496154 0.49427813 0.48121238 0.4633092 0.5200907 0.5258002 0.51569927 0.42519477 0.37847713 0.33574677 0.33272874 0.5614541 0.4929341 0.41355753 0.37106186 0.24927779 0.49104196 0.58472955 0.6209671 0.56431246 0.32188123 0.6520409 0.6906837 0.5475068 0.70603454 0.75082576 0.7082678 0.645643 0.7631793 0.75248504 0.6739618 0.46330357 0.5158181 0.6314887 0.6809818 0.38471615 0.41583437 0.43200558 0.71712756 0.7452222 0.27020124 0.23633519 0.7240726 0.69647026 0.21458706 0.17382383 0.58700526 0.07846933 0.42806667 0.48341173 0.025355294 -0.088805296 0.28061786 0.29696158 0.29704225 0.31229457 0.3160901 0.26388612 0.25439274 -0.57206017 0.29733843 0.31824997 0.23665386 0.17324574 0.2551723 0.19216758 0.18882307 -0.025247172 -0.011760823 -0.29315856 -0.1269081 -0.22024329 0.5339192 0.5676547 0.16169114 -0.3116799 0.5830833 0.59734535 0.3922911 0.35097456 0.28350133 -0.24575578 -0.04866921 0.10825416 0.1609844 0.5971751 0.4858425 0.44947165 0.3456486 -0.025035247 0.011095881 -0.026213516 0.050233953 0.12645842 0.6099314 0.45871997 0.43166578 0.10725442 0.23126963 0.034568712 0.10515539 0.12309348 0.47337514 0.4128912 0.18353996 0.039156407 0.058502544 0.26772228 0.14853656 0.41256016 0.41124654 0.4708587 0.42108586 0.38057947 0.36764163 0.189513 0.0929333 0.19756803 0.41126034 0.44340608 0.098682664 0.3654654 0.49677336 0.45655826 0.04653302 0.11707988 0.19452827 0.16912338 0.13002273 0.19337447 0.44020298 0.5396363 0.5212448 0.50484717 0.34309524 0.34222335 0.19978437 0.11152659 0.18515024 0.21459827 0.26654842 0.35222453 0.38886476 0.42777985 0.21822417 0.18612319 0.16947106 0.27985868 0.29643565 0.30038324 0.4166124 0.46787864 0.46264195 0.339374 0.3417271 0.39914292 0.49365497 0.5670723 0.6382062 0.56597495 0.29664415 0.3179144 0.34029126 0.38931116 0.45342895 0.56152195 0.6440841 0.6554647 0.6172479 0.27343744 0.3163482 0.33452064 0.47587848 0.51536185 0.5832993 0.7549726 0.50211275 0.76559156 0.7418922 0.71381855 0.6540655 0.71543485 0.62499046 0.3455066 0.38350064 0.64634806 0.73388135 0.74544585 0.3189462 0.3081899 0.23770295 -0.05282491 0.22214882 0.31388602 0.7226058 0.6915208 0.35170335 0.13153401 0.5841025 0.33359894 0.49687803 -0.0013065077 0.29028425 0.088308826 0.29067665 0.24111922 0.102682866 0.31962094 0.5554756 0.2756456 0.2957033 0.2936734 0.5541904 0.5023121 0.37558413 0.23263824 0.19676724 0.17109567 0.49416262 0.40062112 0.36220005 0.29606307 -0.26894128 -0.40335178 0.23965056 0.19650766 0.25740695 -0.024832387 -0.13547035 0.21802074 0.22235936 0.14118268 0.25225458 0.46419904 0.52436674 0.42229062 0.36380053 -0.25056309 0.5870069 0.5297632 0.49324423 0.44139665 0.5662688 0.54590523 0.5072259 -0.37974876 -0.21724987 -0.25281757 -0.20123613 0.5011788 0.5311669 0.49791405 0.0026827157 0.015800215 0.0047554355 -0.16396739 -0.2626295 0.51314056 0.49705946 0.4469867 0.3982457 -0.066311985 -0.19722584 0.0738916 0.107356 0.017637074 0.073423035 0.32374886 0.12570153 0.13992387 0.31207982 0.3558659 0.37156063 0.35822386 0.41509596 0.39336687 0.3311518 0.032012105 -0.21863815 -0.07787748 -0.08907199 0.42211306 0.4839671 0.41989782 0.38256013 0.29583228 0.32200998 -0.050020993 0.020374123 -0.034570593 0.45073253 0.43712205 0.48108268 0.551319 0.54637206 0.30735224 0.33076823 -0.098523386 0.1180058 -0.115095064 0.5105117 0.45776188 0.3433538 0.05499215 0.0026018247 0.5276492 0.5250917 0.49673268 0.3455029 0.62288004 0.6236952 0.36354116 0.64542836 0.21257955 0.2510663 0.44614613 0.53918767 0.58967495 0.6396046 0.6366227 0.7039681 0.22970958 0.746917 0.7041495 0.6595449 0.64544666 0.69009364 0.49803716 0.65346146 0.7200223 0.7355025 0.3699718 0.31208187 0.27596036 0.21009347 0.0747216 -0.091827884 -0.14314269 0.52393603 0.70081925 0.66514146 0.22683543 0.33365196 -0.028521458 0.5808439 0.475918 0.057530753 0.013681848 0.3163244 0.13836679 0.12425105 0.09098703 0.34079874 0.5996773 0.58636844 0.54664654 0.4939234 0.29563773 0.1545311 0.592677 0.5822522 0.5847256 0.12304665 0.5793264 0.5225524 0.09729496 0.41711223 0.37297845 0.39360514 0.46463412 0.4201879 0.50558734 0.56364477 0.53404033 0.46465644 0.51417345 0.5738483 0.44464165 0.5440819 0.40594757 0.48582572 0.43569744 0.36829486 0.35859674 -0.38502806 0.28576642 0.24877003 0.2563786 0.23289052 0.31186238 0.26450446 0.3581308 0.33518583 0.22120994 0.309798 0.38621572 0.37200743 0.44754687 0.507393 0.16836032 0.18273479 0.4661866 0.5954994 0.6119417 0.6078654 0.62003124 0.19321921 0.32637548 0.61981416 0.61920667 0.69301593 0.21504751 0.13758434 0.4262161 0.57665217 0.6244763 0.6275976 0.63342685 0.44682384 0.113384485 0.26506087 0.19810441 0.13932131 -0.011197317 0.033333234 0.046127304 0.094505236 0.26650953 -0.049880415 0.39795968 0.54497844 0.62871325 0.09771008 0.27665317 0.29230508 0.34048444 0.112060204 0.107459605 0.33798924 0.49242172 0.43959704 0.2581889 0.6042814 0.6006521 0.57494813 0.5465688 0.26399806 0.6046134 -0.086031124 0.589015 0.54687905 0.17225772 0.1808132 0.398929 0.4225343 0.35927257 0.5696789 0.37350288 0.5393816 0.46146053 0.32670945 0.35209954 0.28335375 0.22610301 0.18463531 0.24313444 0.25901592 0.108024746 0.15867238 0.17512657 0.23975906 0.28648394 0.34903872 0.34389883 0.31586868 0.18244407 0.094594285 0.20081918 0.18401663 -0.04596422 0.18373737 0.21355698 0.5125986 0.2175969 0.19762546 0.57475 0.22323856 0.6121527 0.5959703 0.613672 0.123588085 0.13981044 0.17066273 0.62426865 0.63734436 0.63179576 0.5005925 0.56095976 0.42888921 0.053307317 0.0845634 0.07409244 -0.13603014 -0.045536928 -0.007861964 0.07129275 0.07724181 0.07854054 0.06666968 0.019982517 0.0020473003 -0.1884295 -0.04231967 -0.006467985 0.19421327 0.23962682 0.5188346 0.5118195 0.43244582 0.23158547 0.5866763 0.576587 0.5113529 0.11015539 0.13147339 0.58573115 -0.10775135 0.54076695 -0.044871055 0.49920994 -0.08524701 -0.12672547 0.21587944 0.12318451 0.43029332 0.42318654 0.3169348 0.45480448 0.34002864 0.319879 0.38397223 0.07456584 0.24970889 0.021781787 -0.23428667 0.15456271 0.19981006 0.14201011 -0.014515646 0.2028363 0.22988832 0.2218244 0.1723866 0.06428494 0.050596178 0.03215937 0.20497918 0.08485101 0.054968767 -0.005403459 0.24113 0.39711404 0.23150823 0.49740732 0.32845145 0.55203414 0.6032655 0.61426365 0.6081666 0.41562408 0.51385045 0.108034424 0.13350914 0.16412231 0.6228428 0.62955093 0.5730691 0.5693766 0.44523415 0.61027575 0.3987384 0.6604434 0.6001709 0.53586113 0.48661715 0.30467182 0.6569365 0.5851717 0.30943227 0.26789021 -0.20033184 0.005774852 0.02218999 0.05577679 0.058466483 0.14449914 0.39655763 0.5712528 0.73412836 0.572127 -0.23351608 -0.22845632 -0.018978097 0.08113919 0.42001027 0.72635436 0.43963835 0.3234081 0.39772815 0.7302287 -0.13874903 -0.27517018 -0.116322145 0.081037536 -0.018011361 0.11853572 0.48079914 0.3814028 0.05000197 -0.12018809 0.50067806 0.14618528 0.35173655 0.1477102 0.3006486 0.27367944 0.31518036 0.36098382 0.0009862557 0.37243453 0.2752086 0.34638312 0.058284953 -0.121201225 0.07610602 0.1505688 0.09598113 0.12037175 0.13324237 0.0777788 0.010108063 0.11355317 0.17755376 0.16937062 0.13714625 -0.03136868 0.12697768 0.255408 0.10921343 0.10832496 0.03076189 0.07775915 0.3608009 0.4998783 0.31912732 -0.03549304 -0.2555027 -0.16937213 0.016848229 0.5436477 0.67086124 0.7320503 0.8494041 -0.032069325 0.20751499 0.6122126 0.7815322 0.86639154 0.8972328 0.3376431 -0.039095648 0.34368834 0.4561778 0.5088243 0.8863405 0.36796084 0.5731653 0.5744942 0.583617 0.5754615 0.5372133 -0.11350766 -0.01224419 0.061279844 0.12559384 0.62881494 0.62623954 0.13780487 0.69176316 0.6580152 0.6355291 0.6973672 0.70216084 0.65391713 0.5517205 0.51250124 0.41809452 0.3807964 0.30100697 0.7599416 0.7053411 0.6444539 0.22557265 0.16408807 0.29523897 0.5649752 0.77023077 0.72791404 0.09028387 -0.07346459 0.09183515 0.2251405 0.5249619 0.7401743 0.7871361 0.67966664 -0.23602605 -0.09496158 0.0001055114 0.8292544 0.1551038 0.8078865 0.015276477 -0.12691778 -0.053559266 -0.11415275 0.27128342 0.07587083 -0.057308808 0.16755182 0.08897922 -0.14283992 -0.24020971 0.022013376 0.05801805 -0.23607682 0.08594235 0.0549395 0.21193637 0.4165689 0.091157414 0.4302331 0.49335894 0.15750998 0.46587235 0.27899206 0.4098559 0.33351523 0.19939888 0.3652626 -0.058241665 0.37871975 0.333153 -0.055547833 -0.00877738 0.064633965 0.04631067 0.24184474 -0.035779804 0.2832683 -0.45156452 0.17822793 0.13670075 0.44303012 0.24816464 -0.023994543 0.0951084 0.23564324 0.24295294 0.35362867 0.4033724 0.8126703 0.18181145 0.0065967143 -0.095773265 0.4706458 0.62711173 0.8577045 -0.019072697 -0.05398996 0.7094064 0.8256941 0.88952416 0.8806523 0.58247256 0.5609839 0.6062252 -0.25657618 -0.06698325 0.13130106 0.6744953 0.13905436 0.043276478 0.73370254 0.7468462 0.4677022 0.34201634 0.7960985 0.8139678 0.7560655 0.56207365 0.7532964 0.6968968 0.60197496 0.4230687 0.35849047 0.30767596 0.28910682 0.25860527 0.7894883 0.7583892 0.20844841 0.17630446 0.22991657 0.29004055 0.4735166 0.6057343 0.68391 0.8029372 0.085187316 -0.12676403 -0.19548696 -0.11204521 0.043225132 0.19934067 0.731266 0.76813924 0.7860687 0.7982025 0.67707705 0.74836415 0.058483154 0.645192 0.55328155 0.5677311 0.52921385 0.34447443 0.265344 0.46149683 0.49918228 0.48321152 0.3149685 0.35254604 -0.24865204 0.05454541 -0.05155544 -0.050061177 0.13234867 0.009339155 0.45343217 0.54762137 0.14769998 0.5461285 0.22675946 0.58131933 0.4336397 0.40162987 0.55086374 0.48755407 0.53717256 0.5164433 0.33361813 0.49441808 0.3452717 0.28455 0.35130176 0.009550242 -0.11830547 0.31607664 -0.017220443 -0.041803308 -0.015000436 -0.03908724 0.035083033 -0.034973327 0.30663976 0.3157628 -0.42332157 0.22370294 0.13637504 0.037060857 0.5356412 0.1745953 0.17218691 0.045261838 -0.114262894 -0.008657306 0.267578 0.29042715 0.29679418 0.53890896 0.64108336 0.1684344 -0.03409326 0.39684096 0.15473317 0.19970927 0.21436909 0.29222623 0.52975905 0.53204334 0.7667713 0.2653756 0.021951288 0.5432938 0.57890046 0.7638666 0.8153795 0.7996104 0.5688065 0.11319265 0.66270214 -0.11167161 0.16540292 0.7257118 0.26248267 0.80111456 0.8378669 0.5184382 0.8877202 0.86934257 0.74529374 0.6539687 0.56472147 0.8576503 0.7947487 0.7895405 0.755833 0.6882194 0.45390487 0.2948689 0.18970823 0.29344165 0.27044904 0.18215552 0.8129369 0.041164823 0.02972503 0.37072563 0.47350335 0.58740973 0.6577282 0.8008337 0.7887819 -0.0830433 0.6746895 0.72827333 0.767272 0.67999136 0.719725 0.67828846 0.11286011 0.52264154 0.5885395 0.6112256 0.5586648 0.45341545 0.41174304 0.45750844 0.5391286 0.16075869 0.44046894 0.39545116 0.1429488 -0.031040488 0.5458114 0.59412605 0.65187216 0.25416753 0.6964545 0.38317028 0.68414557 0.45411527 0.41869655 0.5820732 0.6464641 0.4840626 0.54413295 -0.044438235 0.5643343 0.27141383 0.30058867 0.52998596 0.48756295 0.3214958 0.46894586 0.3351703 0.356733 -0.16092445 0.32853854 0.07903999 -0.05161026 -0.14963323 -0.17220005 0.31134608 -0.020851348 -0.010539442 0.4710455 0.3530732 -0.4730672 0.13882023 0.15895447 0.5323637 0.37198195 -0.093063876 0.34774232 0.33555087 0.31289047 0.53124774 0.42149764 0.06741026 -0.16568547 -0.033702254 0.40306282 0.39928585 0.35706758 0.3404006 0.3168199 0.5229753 0.5368178 0.6151242 0.5903268 0.23992112 0.17056915 0.55020076 0.54761297 0.55082554 0.5877274 0.65207154 0.4545048 0.36192945 0.20051947 0.6575817 0.650393 0.30318692 0.76315194 0.31403652 0.2863542 0.82706785 0.83689976 0.90482223 0.9181789 0.7887145 0.670951 0.85433674 0.7480341 0.17590955 0.10540941 0.15279739 0.101798 0.81061673 0.7909337 0.08687732 0.17401311 0.22004563 0.23097536 0.32899648 0.4020541 0.7458292 0.59635025 0.3738833 0.4754232 0.62809885 0.67162883 0.64740944 0.43121046 0.5508084 0.6377251 -0.02667059 0.5221517 0.6640024 0.6912422 0.60983974 0.50566506 0.4785569 0.31909907 0.08841556 0.31602943 0.12414879 0.62239814 0.663154 0.12519312 0.20457336 0.22062862 0.2526346 0.630336 0.2054829 0.47683662 -0.0017362684 0.4633659 0.56202286 0.68283963 0.33173668 0.32710597 0.72675616 0.4065407 0.7159267 0.42738065 0.59333885 0.6530583 0.48735815 0.4594679 0.5392846 0.5123026 0.1842997 0.5653519 0.269664 0.5349683 0.3073509 0.4981085 0.33226186 0.47193813 0.45850664 -0.33093008 -0.19053404 -0.17856792 0.33759195 0.12772922 0.34936875 -0.41592425 -0.34672588 0.015800126 0.08748291 0.36211008 -0.3384011 0.379596 -0.055692162 0.3393494 0.3478015 0.30327865 0.5055258 0.4194085 0.39658803 -0.027514942 -0.009113774 0.39103237 0.4115137 0.38992321 0.37320495 0.36685035 0.373014 0.5239286 0.5471854 0.5103581 0.4550966 0.05008068 0.06480007 0.5632653 0.5483662 0.5350594 0.42706788 0.08390461 0.14364046 0.69740933 0.65972245 0.58647585 0.29722127 0.7808505 0.74854255 0.27723867 0.33789617 0.3549407 0.83813024 0.8403665 0.8907555 0.6357507 0.90496397 0.9297445 0.75512725 0.18541409 0.16682434 0.06697091 0.1593835 0.21362624 0.1927059 0.19543377 0.17697723 0.22355987 0.26723474 0.3869672 0.033626907 0.08274124 0.089713134 0.06635553 0.3696929 0.70841396 0.7062862 0.665082 0.5753257 0.47319406 0.0409085 0.16267404 0.24328117 0.6911727 0.7052065 0.39359993 0.12978058 -0.08277619 -0.00013461336 0.2903167 0.6728471 0.18923151 0.32425535 0.65955675 0.52952003 -0.051871978 -0.091281556 0.62772477 0.7017484 0.26613265 -0.0996954 -0.2062049 0.7270183 0.35996842 -0.118628316 0.71166325 0.41395319 0.35856885 0.31915206 -0.21136722 0.6223663 0.68061197 0.45023167 0.35687536 0.5187824 0.44100374 0.37785238 0.51364493 0.39719445 -0.24605474 0.3066644 0.4925332 0.47911745 -0.37723017 0.31618553 0.3193906 0.5001266 0.4926721 -0.3055128 -0.1616715 -0.188899 0.47706264 0.44849205 -0.023701586 0.34970218 0.22981429 0.21297622 0.38163233 0.35487562 0.11215854 -0.048394106 0.19136241 0.23972277 0.28521743 0.3581003 0.36890388 0.3649619 0.20856538 -0.37466615 0.17059132 0.12440708 0.49900502 0.37565738 0.10115399 0.20138514 0.0022924012 0.22879538 0.32811397 0.39261204 0.35422122 0.55100304 0.5813087 0.46283686 0.38585913 0.07306826 0.065709114 0.36598736 0.37952337 0.4007643 0.37447417 0.3762452 0.39018178 0.39939773 0.5633205 0.58933675 0.54475343 0.48205188 0.027788453 0.092379525 0.56020147 0.24106216 0.7731759 0.36527842 0.29239297 0.32616866 0.3707686 0.7896737 0.5703036 0.31854656 0.3447569 0.3450018 0.40083408 0.18257093 0.17060162 0.2631204 0.16409573 0.15323392 0.16328125 0.10555595 0.041969437 0.18660963 -0.04072672 0.67382735 0.10678869 0.17091525 0.19445994 0.22300789 0.2760579 0.70102 0.7033464 0.6803332 0.616246 0.51843196 0.3952825 0.079323374 0.3251421 0.6901915 0.69672585 0.46893084 0.3918072 0.21013142 0.051923987 0.37725624 0.6584037 0.64249605 0.32441366 0.27192873 -0.1683737 0.49133298 0.5371982 0.34942576 0.22913685 -0.0017139465 -0.17855847 0.08935707 0.07620264 -0.19397093 -0.13272226 -0.092178136 0.6452005 0.70910704 0.17299713 0.066197515 -0.024511322 -0.1333204 -0.19886298 0.0021676868 -0.4618485 0.5962213 0.19942738 0.1252587 -0.07644349 -0.07906031 0.52643037 0.31456915 0.26874733 0.22725588 0.18132845 0.040223956 -0.031459656 -0.11313475 0.027620487 0.01215104 -0.24205126 0.19815424 0.3537324 0.28449482 0.21776748 0.1732184 0.08440809 0.056463093 -0.012852263 -0.10315848 -0.07740904 -0.094503485 -0.21869898 -0.084162995 0.39195335 0.32644546 0.2240423 0.011836114 0.01949863 -0.28749013 -0.28042576 0.28905892 0.41455087 0.373925 0.2263639 0.09503138 0.32033038 0.47171688 0.1872939 -0.011371202 -0.2111251 0.32371998 -0.06397338 0.32380685 0.34125602 0.28725773 0.34459576 0.24772587 0.23150772 0.38739985 0.60194534 0.33343184 0.3484692 0.2173279