# vtk DataFile Version 2.0
Really cool data
ASCII
DATASET POLYDATA
POINTS 12822 float
3.3485696 -6.7959323 15.161038
3.4522085 -6.975612 18.770744
3.415584 -6.917825 19.247194
3.4497464 -7.1083684 20.564789
3.299993 -6.3050003 14.743303
3.19258 -6.327544 15.424009
3.3238943 -6.4626126 16.1504
3.370746 -6.417469 18.693605
3.3509007 -6.6274333 19.515686
3.3950562 -6.6731877 20.51048
3.4226263 -6.5997057 20.97258
3.3172424 -5.5691037 14.767582
3.16377 -5.7425137 15.360061
3.279105 -5.7146487 16.087595
3.4067087 -6.081959 20.417658
3.0181403 -3.9499235 16.580214
2.7795825 -4.0678787 17.45125
2.9910502 -4.332876 18.582775
3.3657496 -4.375334 19.284784
3.2635133 -3.083618 16.327976
2.9397948 -3.263936 16.743765
2.6095765 -3.392077 17.651224
2.7351484 -3.449669 18.317657
2.8527117 -3.4064147 18.75854
2.9124982 -2.3986115 16.813862
2.622607 -2.7061508 17.519123
2.735919 -2.6514196 18.341763
3.2223892 -2.50346 19.087006
3.2761393 -2.166438 21.370474
3.08165 -1.5255723 16.787582
2.8671033 -1.6095092 17.343443
2.9131925 -1.8631521 18.24714
3.12531 -1.7305529 19.304846
3.0821657 -1.31166 20.963617
3.1837277 -1.4085549 21.76038
3.3363671 -1.3195571 22.280111
3.4356265 -1.1787239 22.7769
3.0890622 -0.9906193 16.94314
3.1679986 -0.64240617 17.528929
3.2012675 -0.7859822 18.862875
3.2748973 -0.5260647 19.61495
3.2765243 -0.9067872 20.7514
3.2100759 -0.67846656 21.366648
3.380303 -0.65207946 22.270504
3.3989668 -0.02906394 18.444336
3.348688 -0.044351727 19.396538
3.2866542 0.41525024 20.8953
3.3325825 0.2855831 21.294764
3.4448624 2.035215 18.884598
3.4347215 1.1905713 20.904835
3.379043 2.8147986 18.612253
3.196834 2.8674173 19.583214
3.239878 2.7076325 20.006819
3.3978755 3.623736 17.831915
3.2961237 3.6093352 18.507345
3.2554767 3.3560946 19.574366
3.3665206 3.2204068 20.146914
3.393867 4.3751426 17.79869
3.3187346 4.2251463 18.536411
3.3475518 4.0032964 19.35402
4.240213 -7.793779 15.4709
4.2004995 -7.8427296 16.155931
4.060779 -7.697665 18.799248
3.8513904 -7.67184 19.70541
4.009437 -7.842641 20.555054
4.0439377 -7.7792997 20.957458
4.1930304 -6.871972 13.975172
3.7441282 -7.0718813 14.777714
3.761243 -7.275784 15.3745775
3.6158354 -6.981334 16.174585
3.6834214 -7.2433233 18.662971
3.625539 -7.4009256 19.609991
3.6341605 -7.446707 20.485334
3.7996283 -7.3300414 21.246996
4.100235 -7.204757 21.705935
3.9402144 -6.318748 13.880969
3.5338879 -6.5053196 14.382987
3.5087967 -6.5254745 16.503359
3.777733 -6.4871764 17.390629
3.5055509 -6.494269 18.311884
3.499798 -6.207554 20.836977
3.6298215 -6.5626745 21.245125
4.0653033 -6.53551 21.748407
3.852249 -5.686094 13.923626
3.4617455 -5.4757934 14.404662
3.5617433 -5.917883 20.627699
3.8834345 -5.881304 21.254715
4.1914897 -4.795849 13.854619
3.5719805 -4.976908 14.521023
3.7367184 -4.317509 15.339368
3.4967792 -4.297365 19.214859
3.9652596 -4.0711803 14.767534
3.680022 -3.7042892 19.523523
4.0058794 -3.8083527 20.13487
4.14959 -3.409017 21.361187
4.3615675 -3.1995754 22.257015
4.308853 -2.8426516 15.281326
3.7702732 -2.2330492 16.016354
3.5316029 -1.895732 22.559795
4.0915213 -2.1593287 23.130587
3.9269605 -1.392827 15.79648
3.4928184 -1.4027624 22.657108
3.8373747 -1.4408445 23.192696
4.2606454 -1.3255255 23.627136
3.7693946 -0.9741104 15.973396
3.496197 -0.5995047 16.520016
3.5877542 -0.5270338 22.605253
3.7945352 -0.83265376 23.075132
4.005163 0.081685156 16.564388
3.9673426 0.75306445 18.253677
3.5392365 0.37324885 21.56457
3.833517 0.15213034 22.242939
3.9847934 0.0017511845 22.874949
4.2088375 2.2596717 9.718058
4.2922087 2.177266 10.588329
3.9243755 1.6488708 18.123991
3.6947892 1.7656212 18.806498
3.6868079 1.1370666 21.335642
4.195874 0.9873734 22.15458
4.374258 2.7114518 8.938899
4.0739813 2.7299154 9.672808
3.9813519 2.6732748 10.4322
4.1108437 2.772996 11.136396
4.1026387 3.1241157 17.09543
3.9007907 2.7151973 17.845888
3.486391 2.524521 18.668907
3.6431098 2.8513055 20.538107
4.0564137 2.140708 21.171318
4.2296977 3.5080876 8.947946
3.888329 3.5364099 9.789595
3.7758336 3.5555387 10.50066
3.938926 3.5201125 11.246336
4.208651 3.6786182 11.956505
3.8052726 3.4919453 17.16562
3.5161662 3.6168525 17.560223
3.6034935 3.3579037 20.354458
3.8986447 3.1149912 20.744108
4.2934675 4.6740494 8.90614
3.9850795 4.316433 9.5856085
3.8150644 4.239815 10.415785
3.8529885 4.4183636 11.297811
4.054139 4.9174433 12.338955
4.228861 5.11833 13.537229
4.08615 4.591602 16.905598
3.6131668 4.40407 17.3654
3.4927576 4.746216 18.13542
3.593693 4.426548 19.278019
3.7926967 4.083541 20.01927
4.0616326 5.1201725 9.905845
3.8642938 6.008923 11.023712
3.8862357 5.705684 11.409796
3.6749048 5.780424 12.497224
4.3091784 5.9580526 14.276895
3.8200505 5.0615506 17.558628
3.7455509 5.057566 18.221113
4.003157 5.0572467 19.045126
3.9245274 6.706586 10.7906
3.6335013 6.6922355 11.677408
3.5959752 6.6149645 12.446794
3.744821 6.778139 13.33036
4.138278 6.5876746 13.927794
3.8935976 7.4979796 11.121029
3.8039787 7.5098834 11.584633
3.7037218 7.2965646 12.504771
3.873276 7.343482 13.305377
4.068718 7.2394104 14.024173
4.197873 7.9204755 10.900895
4.156086 8.14271 11.524597
4.120316 8.198864 12.440177
4.21884 8.281435 13.241882
4.3161616 8.133913 13.886293
5.056433 -8.668272 15.921983
4.996235 -8.632871 16.345194
5.064506 -8.635061 16.893625
4.8340263 -7.9605117 14.963538
4.745994 -8.375967 15.7239895
4.642809 -8.415489 16.373676
5.0123262 -8.438393 17.188663
4.7071257 -7.969649 18.75925
4.754227 -8.102264 19.66586
4.5182204 -8.0793915 20.566538
4.508457 -7.973668 21.033865
4.950708 -7.735179 21.736372
4.711509 -6.999051 13.799766
4.3072414 -7.547306 14.840368
4.435875 -7.549661 21.638025
4.4244742 -7.367875 21.827003
4.730375 -6.185998 13.341705
4.508497 -6.4596143 13.530106
4.9571157 -6.3613415 22.154745
4.6776967 -5.6423354 13.328757
4.3957405 -5.6352463 13.466277
4.9213314 -5.1274037 13.399417
4.3115234 -4.5044584 13.996924
4.5631986 -4.3946233 21.69222
4.7710557 -4.372916 21.98157
5.454083 -4.7892222 23.809422
4.625256 -3.5511672 14.556918
4.475041 -3.5203843 22.22798
4.916718 -3.2979183 23.521753
5.3344307 -3.4885135 24.145546
4.938083 -2.269611 24.326818
5.203513 -2.0726144 24.682392
5.25649 -1.7917379 14.189682
4.7281146 -1.4135693 14.901064
4.9394608 -1.5027196 24.344887
4.843996 -1.1030774 14.825434
4.4289565 -0.8918364 23.596817
4.7513795 -0.9545686 24.02387
5.0349016 0.19203693 15.886062
4.5502005 0.4162788 16.920584
4.748282 0.45681924 23.185858
5.254573 2.012712 7.870224
4.781968 2.1559737 8.892716
4.8580747 1.8368901 9.609237
4.451596 1.9992204 10.142888
4.6543436 2.1465573 11.145214
4.8561764 0.8530524 17.014158
5.2835517 1.3097391 23.09876
5.211182 2.6144571 7.2028203
4.6602044 3.0014973 8.229806
4.523657 2.5617812 11.436286
4.7826743 2.9190385 16.70732
4.5883374 2.611695 21.091644
5.1893435 1.9704525 21.918705
4.834152 3.4569955 7.794439
4.57548 3.314895 8.242777
4.7991877 3.4353487 12.302555
4.987091 4.3450723 13.10661
4.8390408 3.6956618 16.288786
4.769854 3.5433955 16.55106
4.5793085 3.349096 20.956476
4.524144 4.682007 8.776051
4.9463797 4.961936 14.021552
4.604972 4.3126807 16.516644
4.4922543 4.283239 20.196884
4.3622417 3.8644233 20.627228
5.153437 5.5210376 7.758283
4.607107 5.598406 9.091433
4.5617013 5.6938596 9.357141
4.5130177 5.4897404 18.603947
4.4416075 5.033271 19.266996
5.2533884 6.3209925 7.9904294
5.0614533 6.5311484 8.619975
4.5702457 5.956642 9.497887
4.789105 6.6912165 14.52822
4.801957 5.759283 17.74141
4.811828 5.7192335 18.36218
5.180501 6.929573 8.428644
4.977594 7.5261583 9.500987
4.439749 7.756279 10.373687
4.529918 7.827772 14.649598
5.071976 7.611555 15.288323
4.964447 7.968371 9.792059
4.430375 8.152977 10.884309
4.543199 8.584097 11.476435
4.4972177 8.537302 12.333237
4.618033 8.435584 14.406562
4.855998 8.080411 15.0023575
5.185418 8.673098 10.8603325
4.7925973 8.75329 11.610625
4.8246446 8.966036 12.525317
4.6259403 8.895358 13.432193
5.55775 -8.691429 15.6714525
5.5955024 -8.791882 16.448025
5.5513525 -8.670728 16.99218
5.4378977 -7.653984 14.234379
5.5699954 -8.167454 14.855038
5.3399653 -8.544257 15.487199
5.4402604 -8.42901 17.432459
5.1349797 -8.113504 18.730915
5.676554 -8.385019 19.749872
5.5283585 -8.355287 20.641535
5.4040494 -8.249225 21.109045
6.1654906 -7.6815658 25.888443
5.622869 -7.0983996 13.754735
5.81187 -7.300047 22.180933
5.766593 -7.1120853 25.774515
5.9759545 -7.254502 26.38829
6.135973 -7.0831475 26.897587
5.284999 -6.442956 13.327305
5.617908 -6.662303 25.705221
5.6812015 -6.4859204 26.389711
6.0378356 -6.520633 27.002846
5.7374625 -5.4385304 24.47192
5.71838 -5.67653 25.400183
5.8044305 -5.671278 26.454855
6.1758165 -5.63401 27.24751
6.018109 -4.18546 13.092424
5.555327 -4.656809 24.490744
5.804982 -4.740844 25.795128
6.0022473 -4.693699 26.458601
6.3727937 -4.8358974 27.57906
6.325684 -2.8579092 9.900684
6.0953016 -2.8856251 10.711967
6.1831875 -3.1495793 11.56027
5.606431 -3.9910564 13.531443
5.6041107 -3.6287205 24.759892
5.8170257 -3.7398024 25.500458
6.151147 -2.2725933 9.972735
5.9441123 -2.368327 10.579571
5.9632454 -2.4558756 11.302746
5.5870967 -2.4379945 25.077095
6.1226006 -1.7634305 9.845068
5.883623 -1.5457307 10.915466
5.9029346 -1.6577218 11.141049
5.8392005 -1.1159688 25.272085
6.1714253 -1.7030244 25.677765
6.2047734 -0.80661845 9.342281
6.075888 -0.44719335 10.178928
6.199289 -1.0203983 11.298959
6.079428 -0.60333306 12.55779
5.6289926 -0.9883802 13.831601
5.4346633 -0.89836574 14.397564
5.947585 -0.3843432 25.34196
6.3969646 1.1236193 6.0531664
6.222646 0.5505956 9.049296
5.9834924 1.2318572 9.228376
6.3081226 0.23484963 10.309581
6.188961 0.62887335 11.725169
5.5933065 0.29777527 14.970302
5.5284295 0.7819456 24.212597
6.3235807 0.43111372 25.592981
6.1703024 1.8821815 5.6109786
5.93126 1.8559455 6.6134195
5.5054026 1.5690265 8.652089
5.4928226 1.4379315 9.752002
5.5795054 1.7354581 11.455692
5.955536 1.2505678 12.974499
5.930759 1.5614111 13.16665
5.9926395 1.7679086 14.162153
5.803624 1.7117074 15.622127
5.5161033 1.1751938 16.43417
5.7594476 1.2872434 24.265537
6.2402086 1.5174625 25.165562
[...]
POINT_DATA 12822
SCALARS features_00 float 1
LOOKUP_TABLE default
0.58772075 0.4219333 0.4762164 0.59438276 0.6121663 0.5518502 0.44854003 0.30829412 0.4568712 0.5512889 0.5645211 0.5642908 0.5239357 0.40422267 0.42417708 0.3044093 0.37260905 0.2592822 0.14473835 0.27520323 0.34686777 0.3991905 0.34813175 0.2994774 0.35965818 0.39846802 0.35517287 0.2630067 0.2895866 0.3332687 0.3552822 0.3314042 0.21307917 0.26641992 0.31522065 0.31979668 0.31203252 0.31735778 0.28812546 0.21036196 0.18136159 0.25438464 0.2875821 0.29975155 0.15339155 0.15119596 0.23166582 0.24891715 0.33977795 0.19600224 0.4667014 0.52610546 0.4703584 0.51914966 0.5619061 0.56634957 0.48730767 0.599036 0.61452377 0.5968179 0.5796686 0.50796413 0.44144028 0.5538143 0.6074877 0.6258992 0.6426649 0.6206012 0.5769843 0.46566638 0.42376024 0.5441741 0.6068919 0.63475263 0.6337522 0.6280236 0.63336587 0.38622466 0.24592704 0.2681367 0.47895575 0.56385475 0.5548768 0.58720875 0.5709294 0.38270587 0.387756 0.4639163 0.49865818 0.31028306 0.15283175 0.30074367 0.14437993 0.03293225 0.07844049 0.15399724 0.105117 0.22399336 0.32191268 0.28459844 0.20119682 0.31753498 0.29834402 0.26534683 0.22755638 0.2679637 0.29115438 0.29258764 0.18284276 0.059300527 0.2418603 0.24757472 0.24958633 0.39739352 0.40841502 0.14241636 0.25291124 0.17666513 0.14935453 0.36806503 0.4293151 0.45689273 0.4249373 0.3689305 0.36337668 0.42095542 0.36987853 0.17713948 0.3893972 0.43974805 0.46207163 0.42835048 0.315234 0.44204694 0.49596304 0.4437713 0.3390641 0.2755248 0.3508031 0.38993192 0.37809592 0.34160396 0.3515486 0.5266404 0.5671827 0.6259065 0.5896155 0.50007695 0.25927374 0.335045 0.3570177 0.44353682 0.39219815 0.6137245 0.6068074 0.542539 0.34176978 0.43182737 0.47372907 0.46709812 0.41945913 0.3788811 0.4147735 0.4677079 0.45727545 0.40078345 0.33437818 0.36732256 0.41238385 0.42299315 0.39462566 0.53408796 0.49571198 0.41712913 0.5900502 0.55687845 0.4882753 0.35898566 0.34301993 0.4518302 0.5551148 0.5856836 0.56615734 0.620826 0.6140219 0.6251434 0.6267547 0.57953477 0.6151519 0.47324306 0.53307116 0.55380785 0.45288694 0.4084408 -0.026087262 -0.034469582 0.026744755 0.19129805 0.087308906 0.11819775 0.08252806 0.17699422 0.14336494 0.016022436 0.07502316 0.17729375 0.0741836 0.25320435 0.20795633 0.053531375 0.10562143 0.16582179 0.18882623 0.2962042 0.2993371 0.37668407 0.34290946 0.008839242 0.08128263 0.18120024 0.32182366 0.3473539 0.18671532 0.1830731 0.039601438 0.28220743 0.33500674 0.20044434 0.14175928 0.2657659 0.29336184 0.25132686 0.26185042 0.20217803 0.39516848 0.39991564 0.34459388 0.13769573 0.18442938 0.18993387 0.44592088 0.46729928 0.12710392 0.15012647 0.18892404 0.30713266 0.36465716 0.3466778 0.14004028 0.18566822 0.2863593 0.3148464 0.18560612 0.20250498 0.31210214 0.32780725 0.3714849 0.319445 0.24131772 0.24278471 0.3114264 0.3255794 0.36730042 0.5357392 0.4741732 0.393605 0.53077465 0.54052484 0.55121094 0.30773437 0.25255764 0.31450492 0.40535477 0.4556513 0.6468481 0.47954053 0.44667673 0.6718885 0.68364 0.69941825 0.529896 0.6474352 0.6583035 0.69210005 0.21231511 0.40582472 0.5513474 0.63479817 0.24798316 0.12591773 0.31311327 0.45552173 0.63609374 0.40204564 0.4232266 0.37672043 0.25293854 0.08968459 0.1554288 0.3799819 0.390534 0.37850046 0.104163766 0.34230047 0.28679484 0.28539556 0.13441166 0.09906622 0.20303409 0.14292306 0.14948854 -0.20981288 -0.061518356 0.019786682 0.1707024 0.1826962 -0.05430925 0.047538765 0.001642704 -0.14187485 -0.07996267 0.16743824 0.22709227 0.20690131 0.1425793 0.14798462 0.16553618 0.12280365 -0.17853823 -0.17294961 -0.27604735 -0.3492462 -0.13628735 0.19464946 0.24734658 0.23704015 0.21011889 -0.3484 0.10666916 0.20353577 0.24740553 0.25179732 0.20487677 0.06360923 -0.102921255 0.021519843 0.04734913 0.010944799 0.13246445 0.56498724 0.53600216 0.43217114 0.3819694 0.22909705 0.5992048 0.6002438 0.60668564 0.5729471 -0.044777934 0.047202133 0.0811208 0.31355593 0.16843922 0.60753393 0.61169004 0.610518 0.5411351 0.06636148 0.09799161 -0.19639976 -0.11260714 0.12459973 0.23845549 0.6069511 0.604576 0.12406614 0.1194392 0.006594725 -0.038145885 0.108654305 0.26429036 0.28687352 0.12724866 0.13890916 -0.13906972 0.24012274 0.28900492 0.3017562 0.1167275 0.12408772 0.12393354 0.22087824 0.24500926 0.22737713 0.19547991 0.24457489 0.2792344 0.362206 0.39303017 0.3976384 0.38336176 0.44876906 0.52260417 0.5090132 0.45720205 0.5429621 0.6084692 0.55324924 0.6300771 0.50496686 0.4561215 0.30463582 0.24069744 0.2932919 0.31587714 0.49258932 0.4760977 0.1684348 0.23335937 0.34805155 0.27113086 0.534701 0.6062658 0.6491165 0.6520982 0.36220637 0.35552382 0.3058181 0.54981947 0.6739626 0.6878501 0.22617023 0.2554148 0.7030362 0.7413709 0.6822366 0.72207737 0.34572077 0.3545525 0.03385471 0.6414021 0.6971859 0.3515981 0.3665111 0.42109436 0.4231838 0.58728373 0.6447507 0.2974363 0.37807637 0.55643713 0.17944875 0.21036433 0.16018844 0.2429857 0.184293 0.19530056 0.15822983 0.043829374 0.25860822 0.21564674 0.21362843 0.25443366 0.2643009 0.2175506 0.22386055 0.2520774 0.26209277 0.38350075 0.10485134 0.15730622 0.20312464 0.52106977 0.53478116 0.4231347 -0.18707275 -0.011406217 -0.006816186 0.5813189 0.15903148 -0.113284975 0.60106206 0.6057793 0.35773957 0.16326728 0.59044254 0.5934912 0.5573852 0.09391399 0.27570003 0.24397299 0.3612393 -0.039198726 0.06288215 0.29720634 0.2991864 0.28024086 0.46893463 0.35896915 0.022136226 0.08757363 0.065233946 -0.012018388 -0.030663248 0.2555396 0.50777066 0.42127496 0.3306892 0.007789016 0.020827472 0.063753866 0.5793127 0.4674303 0.21322483 0.2786013 0.39804384 0.35598844 0.32419068 0.44145614 0.4597574 0.42569464 0.3967221 0.48834717 0.528919 0.54779166 0.49034917 0.44671506 0.56023127 0.63275516 0.64267147 0.5956293 0.51759064 0.6619583 0.6461005 0.22385465 0.24170451 0.2851665 0.3493858 0.108431414 0.17010899 0.33569944 0.48598588 0.5741693 0.6016849 0.58750725 0.19627708 0.23564667 0.65994716 0.7078198 0.013357874 0.7643022 0.04676181 0.76157993 0.76577955 0.2218323 0.24708919 0.73931766 0.760389 0.30147618 0.28227624 0.294775 0.61317366 0.68763065 0.07786744 0.083128035 0.16681214 0.46591356 0.46960342 0.13490115 0.04975246 0.29668128 0.17172821 0.16767001 0.2878227 0.13959196 0.1645034 0.26708955 0.2649608 0.823344 0.788172 0.25153235 0.18463671 0.25537527 0.8191687 0.8044168 0.75368154 0.39015883 0.35129333 0.17108008 0.1675043 0.76343495 0.7400433 0.49865615 0.49320367 -0.15539816 0.055470407 0.12065877 0.55212384 0.57256526 0.13518597 0.2875567 0.3238783 0.5860322 0.036043253 0.344611 0.3708661 0.5176364 0.12667395 0.53058773 0.47532356 0.22562633 0.18128413 0.62260294 0.6489288 0.5400129 0.5727358 0.20491028 0.13992855 0.21446264 0.61599696 0.65129626 0.61853004 0.6118016 0.29815322 -0.018632647 -0.00034956448 0.641526 0.62723875 0.51824844 0.4479862 0.15955326 -0.045466587 -0.033781216 -0.08449779 0.065041915 0.25409985 0.64340997 0.56603837 0.23255917 0.38285208 0.42573994 0.39330882 0.5258851 0.44936824 0.66184866 0.6029168 0.55495965 0.12029502 0.2337133 0.21768586 0.21984576 0.2584019 0.23832774 0.052966904 0.11872574 0.24648449 0.27146617 0.35671896 0.43571714 0.49607688 0.5433707 0.5741935 0.61604464 0.68445957 0.7538184 0.7418746 0.6449899 0.07904853 -0.019731408 0.7335048 0.716203 0.69919 0.6347425 0.43194085 0.37633708 0.069770366 0.01985394 0.74583703 0.76863456 0.64721715 0.5655222 0.48250914 0.39361396 0.35258818 0.1822266 0.16027042 0.13493253 0.7596626 0.769649 0.40727043 0.35379404 0.3530356 0.24013744 0.137613 0.01295355 0.74361277 0.289955 0.2495976 0.027517147 -0.012161672 0.090450406 0.08584714 0.10259981 0.21907634 0.83920693 0.8424288 0.84871066 0.85662174 0.85437 0.09975947 0.26983315 0.24972694 0.82609344 0.84540546 0.838779 0.79423416 0.81661785 0.8150675 0.08695087 0.09058733 0.2255228 0.8086989 0.81782895 0.7192998 0.73018193 0.7434985 0.37863544 0.29623672 0.100036815 0.75301445 0.75958633 0.7353463 0.6723056 0.43615282 0.16041376 0.19021927 0.69048166 0.50909114 0.17127424 0.34450495 0.51764077 0.45012242 -0.028378174 0.2527408 0.33973294 0.42902166 0.45722598 0.3724651 -0.032665107 0.20865417 0.3826716 0.4352901 0.5660012 0.63538283 0.6469571 0.6301128 0.33662075 0.03648403 0.5533794 0.59815234 0.6221731 0.6679259 0.62973034 0.55174434 0.14674619 0.106080554 0.5561528 0.5868145 0.63903797 0.65289783 0.6158303 0.58206666 0.6083001 0.14914405 0.26499894 0.27549696 0.5169329 0.570678 0.6102487 0.6031761 0.6372212 0.29963782 -0.044397563 -0.037492473 0.24226503 0.3010898 0.31472233 0.66712224 0.65444636 0.52090156 0.34819758 -0.04123775 -0.062929735 -0.10293507 0.2921548 0.29353032 0.31195045 0.590454 0.4516171 0.378837 0.34535924 0.32787752 0.38447434 0.39365622 0.5574443 0.4908346 0.40392292 0.3459202 0.3838403 0.42142195 0.43928033 0.42199287 0.3621048 0.4149679 0.47159618 0.51253116 0.5187523 0.41536278 0.47027296 0.5457197 0.58874243 0.59033895 0.5603534 0.52202463 0.5892689 0.64180046 0.6519865 0.62197447 0.6166074 0.6486837 0.6577401 0.55919266 0.5515599 0.5831194 0.57794154 0.31045586 0.31856334 0.25550127 0.08458979 0.24625269 0.3079087 0.18356326 0.06720977 0.0371578 0.15848024 0.2230731 0.26029554 0.41395387 0.44358724 0.46992797 0.4979227 0.82523394 0.80347776 0.74485147 0.041158922 0.46138722 0.51619387 0.5666853 0.799422 0.8002921 0.7784922 0.7156178 0.5821767 0.13666156 0.13426584 0.61881745 0.6869024 0.76071477 0.7463852 0.50258803 0.38399953 0.08941373 0.11514826 0.6278131 0.7049235 0.70286095 0.6178914 0.25655943 0.12061302 0.08875075 0.09130676 0.70022887 0.5080133 0.43047327 0.639069 0.62638265 0.033306852 -0.0628119 -0.069597885 0.083898365 0.83972037 0.8673739 0.87554526 0.001549229 0.18378927 0.8043257 0.8055395 0.8486549 0.8691326 0.8733258 0.8676924 -0.11182074 0.23573294 0.7825215 0.81277585 0.82562506 0.8441992 0.22345877 0.21347798 0.7670779 0.71917623 0.7572234 0.33229563 0.2776193 0.14626224 0.2051971 0.6839771 0.68650603 0.6230594 0.38959795 0.17519923 0.14754191 0.64628255 0.6258271 0.5926089 0.39572495 0.4040685 0.3106689 0.36873454 0.47972733 0.29533365 0.12904873 0.40424374 0.478764 0.48068473 0.5237911 0.5433986 0.53369606 0.104718685 -0.023215681 0.079047225 0.42602342 0.48006758 0.08442665 0.15984213 0.43060875 0.5134261 0.5224449 0.18033394 0.3606143 0.44063655 0.47949964 0.5323731 0.48575398 0.56292725 0.61039156 0.30817446 0.2578081 0.42436275 0.44813514 0.3702755 0.62245053 0.6515387 0.56468886 0.32623714 0.013567187 -0.13218506 -0.06845763 -0.0829503 0.07039588 0.2730164 0.30953652 0.33984667 0.5194316 0.3916851 -0.2980776 -0.2095966 0.075441815 -0.078356095 0.29214674 0.045892052 -0.031074481 0.28450683 -0.13545702 -0.033460665 0.40847164 0.4705338 0.59200484 0.30822235 0.33599824 0.004032545 0.5557878 0.5179793 0.5027739 0.47064006 0.41411713 0.6665143 0.7735683 0.7843299 0.30674133 0.33822227 0.44322854 0.40241 0.6313058 0.62817687 0.61145467 0.555485 0.49885476 0.50753176 0.7473693 0.8159864 0.811252 0.34942973 0.3944524 0.53317547 0.67673755 0.646827 0.58557767 0.52319884 0.67301565 0.7911831 0.82527757 0.81940293 0.45064232 0.517293 0.612933 0.5712093 0.6430931 0.625134 0.5937917 0.7984613 0.81899536 0.56732637 0.6122743 0.63398206 0.61595595 0.4612417 0.6583624 0.6008434 0.49786577 0.4126294 0.3778069 0.4745779 0.5630613 0.7040986 0.68673325 0.5659931 0.4876724 0.46111643 0.5408788 0.6837704 0.6593596 0.57566416 0.53356206 0.5026672 0.63040054 0.5937357 0.58793676 0.58352566 0.5541111 0.5062365 0.581341 0.6109921 0.6222761 0.583875 0.2668584 0.29519147 0.3147784 0.26650724 0.095072985 0.20625144 0.0015048906 0.12529394 0.3636433 0.4245001 0.85757256 0.8434043 0.7639127 0.68888855 0.12809962 0.22779799 0.26916507 0.37132096 0.38786706 0.4831853 0.8438367 0.84350395 0.62697035 0.49694556 0.14191198 0.13961914 0.12756102 0.2471376 0.2730326 0.36085737 0.47824264 0.5662087 0.7910752 0.4580474 0.120787665 0.25886634 0.3387022 0.636669 0.7094557 0.07050702 0.38745826 0.5724922 0.63626575 0.59402496 0.58219707 0.18600743 0.48503482 0.51747185 -0.48400486 0.2434878 0.009865392 0.28612202 -0.03935301 -0.18892515 -0.00021710247 0.79405 0.82365096 0.8417199 0.23942474 0.12297462 0.68021935 0.7275305 0.8700907 0.8780864 0.19849029 0.22738025 0.24097311 0.72977453 0.71290386 0.82646537 0.23684655 0.24115942 0.24817617 0.68783784 0.31050637 0.23727246 0.26046133 0.5246057 0.55218357 0.56694317 0.61808944 0.6087839 0.3513671 0.33974564 0.25047007 0.27229762 0.5985409 0.6024972 0.5846519 0.56161976 0.55236423 0.4690047 0.2937551 0.581078 0.38031706 0.32421643 0.63384426 0.6148082 0.5590165 0.4306805 0.55519557 0.34915608 0.37650162 0.39760852 0.5933056 0.5863955 0.46607327 0.29020327 0.34095353 0.26731083 0.45492664 0.4930729 0.2822578 0.36342382 0.43597612 0.58530015 0.46344867 0.27041316 0.4176318 0.48949277 0.52314484 0.2887518 0.18874195 0.31930313 0.75562716 0.751206 0.6670499 0.51969844 0.31655622 0.44772345 0.4085544 0.32269573 0.07134713 0.0696408 0.7376824 0.75882494 0.7468526 0.63522303 0.0534867 0.29276344 0.5136504 0.45727038 0.12546112 0.081211254 0.6801958 0.69599223 0.6804558 0.64889604 0.019091846 0.5223249 0.558895 0.14884125 0.60107183 0.58952653 0.523968 0.16500533 0.15579608 0.60283685 0.58480537 -0.050738055 0.26695305 0.22811145 0.4063056 0.5119244 0.6117231 0.16791284 0.06291199 0.061324865 0.086253636 0.58835757 0.46357548 0.3441839 0.16317578 0.058454134 0.051172674 0.44332308 0.5301769 0.6197836 0.15227053 0.1170997 0.01898843 0.0039075613 -0.05994746 0.06438429 -0.0451646 0.17842151 0.20242688 0.54061735 0.6185781 0.39229965 0.041636497 0.07422159 0.13187116 0.32832637 0.28308815 0.2706233 0.09755238 0.5350392 0.59472466 0.37764353 0.37963563 0.4252243 0.43269998 0.032430377 0.064569496 0.27644363 0.70400363 0.2878372 0.29393288 0.46017337 0.47761232 0.4815813 0.4781595 0.41618443 0.18828142 0.0033874363 0.2010255 0.7479066 0.31920627 0.27936113 0.54928553 0.5937868 0.46218526 0.42619818 0.10748894 0.4222173 0.764281 0.3398854 0.2717656 0.6540055 0.5009244 0.4768237 0.41690975 0.5962299 0.79517376 0.28118214 0.516133 0.4237361 0.45219642 0.5606244 0.61114764 0.6314812 0.60251725 0.5719689 0.5162103 0.61276126 0.72492445 0.7880608 0.8025662 0.80125517 0.3983107 0.49377063 0.5435856 0.57309955 0.5536265 0.5358334 0.35309902 0.38199562 0.4796877 0.6001419 0.6774442 0.5816493 0.5710875 0.52414596 0.7274669 0.7662214 0.49888933 0.5025747 0.47677767 0.5099932 0.47628212 0.390354 0.3508371 0.33674085 0.4164284 0.5978111 0.6586255 0.59923124 0.5772245 0.327056 0.5902088 0.6505784 0.65511256 0.6712497 0.56805724 0.6248131 0.6481166 0.6488657 0.42884558 0.5231541 0.57857287 0.55599856 0.5700506 0.5737834 0.5290667 0.43990964 0.509344 0.5680601 0.62051874 0.55967355 0.50657624 0.59344435 0.6170095 0.59990644 0.5787475 0.8599796 0.9236883 0.7129252 0.8033327 0.9214368 0.93472505 0.6453116 0.740241 0.824668 0.8944155 0.56011194 0.60742855 0.2731474 0.08032517 0.20563266 0.26640105 0.28043258 0.02736438 -0.07054493 0.87735736 0.87822974 0.79452217 -0.18032041 0.84969085 0.8610843 0.6108955 0.11910334 0.011566121 0.048074402 -0.15205726 0.11705444 0.11268175 0.21768367 0.76533926 0.40617794 0.3284244 0.124359064 0.24288414 0.69813114 -0.016943261 -0.21939474 -0.24520174 -0.34075266 0.46261016 0.0020507425 0.30166906 -0.15179962 -0.12924485 0.41611934 0.31427515 -0.20562196 -0.21403119 0.37496552 0.49177957 0.5386133 0.4023714 0.33248574 -0.16232137 -0.030555949 0.46982503 0.4919374 0.53302443 0.66919637 0.7473423 0.76690763 0.3457101 0.02254787 0.10244331 0.33370358 0.39666796 0.4476639 0.5904516 0.58984756 0.6459222 0.6666337 0.7722539 0.8311951 0.22652377 0.21237105 0.26538593 0.25164628 0.5648118 0.8074367 0.2273823 0.097551376 0.24261793 0.1803259 0.10626573 0.13588594 0.28365773 0.41124454 0.47789305 0.49225336 0.59377146 0.30420357 0.28831246 0.46343467 0.5025363 0.5472453 0.54619855 0.57736516 0.5920771 0.6327973 0.32446966 0.2504704 0.28018335 0.54840016 0.56157196 0.49991614 0.33801877 0.54780555 0.6245779 0.6397371 0.338489 0.35154366 0.23771204 0.5578955 0.6214108 0.51829386 0.5176055 0.45210713 0.6204087 0.3413707 0.27372155 0.28333017 0.5987478 0.2822928 0.35883278 0.20049366 0.568647 0.33573407 0.30510828 0.25832728 0.3194914 0.3747018 0.3753601 0.54837006 0.20110562 0.2872659 0.2641387 0.7247119 0.39926755 0.31003895 0.5177972 0.42343873 -0.19202879 0.50159013 0.2810349 0.11940649 0.6887965 0.41828966 0.30459493 0.53855664 0.48724073 0.43180907 0.31864846 0.46267033 0.59802926 0.102768905 0.04756859 0.12573096 0.21204636 0.52278554 -0.06391989 0.32380584 0.61707175 0.6687207 0.53992665 0.5196477 0.43985114 0.47133037 0.3680728 0.16634154 0.1449056 0.141808 0.5539406 0.53601193 0.0101828575 0.18266867 0.34182304 0.5367673 0.64731705 0.6724025 0.3534512 0.36602688 0.3465659 0.17024593 0.1811161 0.19516623 0.55099976 0.5222229 0.43474472 0.2292707 0.35332626 0.48032278 0.65740615 0.6803838 0.37592226 0.36587223 0.14233355 0.17018197 0.25342107 0.20786813 0.30825245 0.34232217 0.39577818 0.47703892 0.65971524 0.6870401 0.30826426 0.3381741 0.3488691 0.0992998 0.60294163 0.28733832 0.2976245 0.22988145 0.30042908 0.34907413 0.36506176 0.42188555 0.53095484 0.6187308 0.6537211 0.30866346 0.2939267 0.34181386 0.37479693 0.65025765 0.35850513 0.102163024 0.20242818 0.2732738 0.45195556 0.44315693 0.4942057 0.56876504 0.40149796 0.6723509 0.37577066 0.3549314 0.055884182 0.06025438 0.15890959 0.69761264 0.4152832 0.39625478 0.41582027 0.4308651 0.3816964 0.7178692 0.39530784 0.36390787 0.22346075 0.3835964 0.43217802 0.46858886 0.5185711 0.6301061 0.7175034 0.57516176 0.40185905 0.7527234 0.74633384 0.3475228 0.4187855 0.408938 0.33226854 0.34579024 0.3711493 0.39138848 0.7148886 0.57167304 0.5346638 0.46748167 0.4708769 0.34693205 0.6529174 0.6973995 0.7249532 0.738963 0.33957857 0.3924269 0.39544013 0.39544165 0.4256416 0.6930181 0.6771307 0.5731136 0.50323963 0.66838557 0.64039826 0.5996931 0.6199928 0.6420789 0.6073228 0.5693693 0.5589156 0.38993254 0.38002795 0.4880525 0.50149804 0.49441916 0.557041 0.58280516 0.56621575 0.53870404 0.50780475 0.5633426 0.55229723 0.5357057 0.6731545 0.7257467 0.8560444 0.9437523 0.95158565 0.60797405 0.67060196 0.7599325 0.9386072 0.5227861 0.619108 0.870775 0.42101005 0.43152815 0.4824786 0.5570675 0.69518054 0.18681136 0.29052123 0.3698467 0.5382959 -0.053446874 0.11096355 0.15914285 0.29311773 0.38970172 -0.008541249 0.18362093 -0.10719801 -0.11378026 -0.027166553 -0.015105305 0.8501162 -0.22780377 -0.15244062 -0.07799232 0.78531647 0.7441784 0.6799265 0.6063379 -0.15591158 -0.40614906 0.73304003 0.68387514 0.42199135 0.3448407 -0.19198206 -0.32495612 0.57611954 0.030891404 -0.36950052 -0.36079335 0.23341577 0.35363692 -0.38766992 -0.4599637 0.18552957 0.09051626 0.4195788 0.51706064 0.5362414 0.31230432 -0.03199932 0.12643582 0.28240913 0.4125928 0.49231288 0.5348414 0.5395845 0.44081235 0.022862576 0.46177357 0.54014844 0.5475959 0.5284352 0.42525905 0.43519813 0.22466215 0.54043245 0.5306504 0.38157782 -0.014062762 0.46852228 0.49164498 0.56701833 0.66654605 0.28817913 0.21965674 0.262579 0.2978894 0.46253553 0.40038833 0.422809 0.29036987 -0.07547818 0.05038842 0.19124189 0.33908066 0.39956787 0.40329376 0.5079257 0.4846094 0.2956066 0.25957057 0.48903298 0.50952345 0.5543859 0.5086806 0.618124 0.6412184 0.64807713 0.33265108 0.15862302 0.15843716 -0.056753587 0.46320632 0.5329596 0.35841924 0.6528683 0.36034104 0.36060077 0.18500617 0.21808042 0.37407893 0.40907067 0.4990663 0.6515099 0.35694718 0.15320039 0.16576044 0.15214851 0.43298426 0.43027094 0.020692747 0.6323887 0.31727102 0.16164441 0.058145247 0.17033619 0.16522123 0.18416043 0.4509318 0.43472832 0.3584757 -0.25567126 0.6021227 0.11684516 0.1886962 0.033061087 0.6559636 0.2553352 0.20012915 0.5298319 0.5405814 0.5102672 0.4352197 0.40356702 0.29572666 -0.29061878 -0.17848511 0.30785775 -0.25768873 -0.11682382 0.5766745 0.17327031 0.52801806 0.55471075 0.5551485 0.4204668 0.4062537 0.40664992 0.5313678 0.44244692 0.503724 0.26635075 0.5382464 0.54135966 0.48960474 0.10678676