# vtk DataFile Version 2.0
Really cool data
ASCII
DATASET POLYDATA
POINTS 7273 float
-98.64803 25.839495 98.847916
-98.73067 25.764769 99.27857
-98.863434 26.463905 98.73836
-98.85353 26.516195 99.46828
-98.55877 26.197142 100.765274
-98.6116 27.475912 98.00216
-98.70439 27.505392 98.30588
-98.64322 27.45565 99.532524
-98.59771 27.888552 98.81001
-98.05109 24.244476 101.23337
-98.15919 25.087847 98.96801
-97.98286 24.696991 99.363785
-98.37561 24.934711 101.23597
-98.00319 24.9629 102.121895
-98.27452 25.987953 98.01001
-98.40179 25.623762 98.50485
-98.42719 25.35559 99.58702
-98.52959 25.352713 100.130394
-98.21172 25.401318 101.93978
-97.83464 25.862236 102.83036
-98.219215 26.663765 97.71216
-98.47944 26.359581 100.521164
-98.448616 26.270687 101.36551
-98.32666 27.351053 97.716446
-98.43832 27.091375 100.41135
-98.044586 26.83232 101.80532
-97.82023 26.778471 102.20578
-98.09402 28.03138 97.890755
-98.39812 28.077574 98.50296
-98.30259 28.075962 99.25548
-97.11903 23.821114 100.64624
-97.37992 23.79362 101.35686
-97.05845 23.751501 103.503044
-96.97791 23.925556 104.13532
-97.33862 25.116299 98.144356
-97.359314 24.756046 98.531586
-97.21317 24.47392 104.310074
-96.74397 24.801813 104.92931
-97.546 25.777456 97.77263
-97.1612 25.259588 104.40231
-97.48175 26.652834 97.431305
-97.69094 26.421831 97.55282
-96.70049 26.39958 104.57264
-97.45098 27.245264 97.41687
-97.528015 27.248041 101.92077
-97.73596 28.196543 97.87776
-97.45419 28.45802 98.30824
-97.53957 28.390572 99.652916
-97.566734 28.64329 98.63479
-96.77668 28.669794 99.24883
-96.416534 23.458366 102.414536
-96.137184 23.396837 103.41642
-96.4792 24.31782 98.70995
-96.68478 23.968904 100.21918
-96.58214 23.572422 102.259544
-96.72973 23.550678 103.64856
-96.33876 23.61824 104.21305
-96.12214 23.930573 104.69273
-96.61723 24.874453 98.14334
-96.84965 24.651049 98.34839
-96.418655 24.551529 104.99082
-96.67569 25.541212 97.74696
-96.33777 25.471878 105.31921
-96.132095 26.353611 105.341736
-96.35102 26.883186 104.567604
-95.89808 26.935211 105.27669
-95.683334 29.134817 97.834785
-95.67885 23.469301 101.9591
-95.50469 23.418531 102.87029
-95.99228 24.279337 98.83689
-95.81341 24.07935 99.50828
-95.37309 23.56454 101.10612
-95.249374 23.557318 101.77422
-95.45135 23.558859 103.48337
-95.93693 23.665575 104.25896
-95.615166 24.048313 104.76844
-95.93299 24.686401 98.2392
-95.48122 24.540682 105.073296
-95.34246 25.250141 105.59547
-95.39893 25.637894 105.70639
-95.278465 26.386505 105.76521
-95.62322 27.435926 104.74615
-95.342476 27.10784 105.26616
-95.17895 26.82576 105.66823
-95.30166 28.19932 97.421455
-95.2095 27.795593 103.371956
-95.00729 27.623545 104.455124
-95.06273 29.50445 97.35816
-95.17223 29.536444 97.53008
-95.14721 29.566145 100.47113
-95.25243 30.056564 98.05621
-95.128235 30.368237 98.520386
-95.28271 30.250282 99.47716
-95.24878 30.152012 99.94422
-94.87172 30.625893 98.59083
-94.55624 23.740952 101.90178
-94.74203 23.657171 102.33674
-94.48196 23.928024 103.00989
-95.057365 23.998732 104.204
-94.46756 24.671787 104.61522
-94.63216 25.188328 105.29908
-94.1217 25.29093 97.91925
-94.461716 25.66271 105.42207
-94.7864 25.796959 105.70147
-94.49326 26.468119 105.50993
-94.75419 26.43407 105.68181
-94.34261 27.430626 104.59036
-94.66669 27.10199 105.19308
-94.80562 26.802467 105.61239
-94.763306 27.707455 103.87679
-94.72337 27.652891 104.35176
-94.23058 29.63625 97.03132
-94.158 29.15918 100.80333
-94.486885 30.41918 97.796844
-94.3614 30.397076 100.13733
-94.34076 30.874922 98.73717
-94.52824 30.71206 99.32838
-93.920685 24.258896 100.93217
-94.10859 24.184761 102.13181
-94.28139 24.12702 102.933586
-93.76272 24.917284 98.23561
-93.78794 24.57982 99.332924
-94.05741 24.321291 102.58977
-94.2608 24.324987 103.18485
-94.15362 24.909904 104.36502
-93.67336 25.390064 97.85349
-93.51537 25.942879 103.611496
-94.16607 25.785746 105.191666
-93.59635 26.472223 104.30372
-94.07879 26.409538 105.12783
-93.77249 27.619032 97.201584
-93.65624 27.036863 103.841515
-94.032555 27.166824 104.55634
-94.238686 27.076134 104.92318
-93.47555 30.497053 99.99051
-93.71127 30.799267 98.01981
-93.765785 30.870918 99.499054
-93.59281 30.642984 99.9727
-92.87236 25.004583 99.81447
-92.273125 27.130013 96.48521
-92.21399 29.169586 96.30255
-92.55256 29.170101 100.76656
-92.66644 30.046537 100.28873
-91.932915 30.736345 97.408455
-92.50993 31.075602 98.77771
-92.645454 30.946163 99.31749
-90.95842 25.475845 97.89718
-90.912384 25.510717 97.67556
-90.875175 26.808138 95.94154
-91.790016 27.035385 100.26022
-91.1056 28.405657 95.30573
-91.63733 28.624846 100.49074
-91.33552 29.071283 95.647446
-91.297 29.646133 100.08144
-91.7586 30.628014 97.05388
-91.54815 30.734354 97.36655
-91.50299 31.03935 98.49799
-90.58883 25.440292 97.30831
-90.22054 25.437883 97.95667
-90.40084 25.843533 96.674644
-90.36605 26.209665 99.1527
-90.23283 27.212355 95.39647
-90.307594 26.743254 95.72918
-90.73845 27.825449 95.1832
-91.03875 27.739351 99.9842
-90.4042 29.531267 94.811195
-90.65296 29.563038 99.71909
-89.80728 30.007153 94.23557
-89.977036 30.307285 94.64861
-90.21418 30.463947 99.11481
-89.90318 31.602104 95.20641
-90.245544 31.352127 96.55024
-89.87058 31.681448 97.6376
-90.51668 30.972141 98.73615
-90.50521 30.761368 98.8243
-89.80057 32.310085 94.935326
-89.76604 32.80092 95.24653
-90.20731 32.415974 96.47596
-89.75511 32.81608 95.03798
-89.68021 33.112373 95.47544
-89.86498 33.081585 96.601036
-89.7329 32.985336 97.06604
-89.79944 25.417727 97.07177
-89.52514 25.433216 97.64496
-89.267715 26.10783 96.17368
-89.504135 25.695726 96.64754
-89.6916 25.553513 98.15502
-89.277214 26.680347 95.75236
-89.20156 26.397585 99.12885
-89.06518 28.64577 94.24802
-89.081375 29.449854 93.906624
-90.04371 29.719753 99.41856
-89.11969 30.100302 93.864655
-89.10891 31.167553 94.055984
-89.540375 32.275 94.53099
-89.06174 32.864914 94.32839
-89.11778 33.144188 94.64788
-89.27186 33.558002 95.33805
-89.486786 33.45036 96.35542
-89.286064 33.22423 97.06803
-88.83878 33.589252 95.03473
-89.02265 33.725975 95.65793
-89.18233 33.67742 96.409355
-88.67359 25.842888 96.76736
-88.717 25.68365 97.454
-88.77379 25.87875 98.25519
-88.898125 26.098349 98.788956
-89.071205 26.647978 95.75442
-88.45918 26.328144 98.694954
-88.6911 26.49774 98.99829
-88.64017 27.24819 99.291084
-88.584015 28.88047 94.04043
-88.350655 28.355438 98.98512
-88.37372 29.500402 93.83469
-88.54069 30.558237 93.768364
-88.714264 30.422039 98.79119
-88.53851 32.565372 94.12852
-88.167305 32.945415 94.261444
-88.53456 33.431316 94.652245
-88.41316 33.345192 97.27279
-88.289795 33.725334 94.867935
-88.30359 33.964695 95.76675
-88.54569 33.908108 96.45785
-88.43062 33.697704 96.96241
-88.158905 26.103895 97.45373
-88.18121 26.171131 97.93584
-88.00144 26.465597 96.747856
-88.104324 26.617996 98.40313
-88.319954 26.566462 98.80371
-87.496506 27.99656 95.984726
-87.644 27.472427 96.582504
-87.96589 27.443157 98.653305
-88.22622 27.151987 98.834915
-87.944244 29.236864 94.00747
-87.489876 28.920952 98.150986
-87.374535 30.064075 93.74601
-87.53943 29.371439 98.26117
-87.39199 30.507277 93.58621
-87.46007 30.793865 98.45999
-88.09416 30.509308 98.62388
-87.901665 31.253202 98.355606
-87.21233 32.200485 94.06888
-87.68426 32.46525 97.76067
-87.209755 33.019165 94.57407
-87.41811 32.988094 97.43165
-87.81002 32.812435 97.63148
-87.88106 33.79888 95.053505
-87.24728 33.647526 95.303505
-87.94704 33.921562 96.610306
-87.48639 33.695652 96.8234
-86.56543 29.203894 94.13086
-86.4575 29.072123 97.59024
-86.136086 30.09645 93.3216
-86.362854 29.729746 93.86306
-86.882515 29.325148 97.496124
-86.971405 30.62699 98.24486
-86.13566 31.190548 93.32046
-86.89405 31.696356 93.662895
-86.93108 31.020124 98.25035
-85.787544 31.921604 93.34965
-86.330536 31.975246 93.66572
-86.39156 31.975262 97.58601
-86.24109 33.004166 96.49276
-86.66193 33.059334 97.063126
-84.86651 29.000742 93.29448
-84.87614 28.939518 93.53767
-85.13653 28.582853 94.54553
-85.56755 29.198135 97.44827
-85.6845 29.430609 93.49618
-85.28236 29.356813 97.62448
-85.67828 29.891476 98.02435
-85.70431 30.141022 93.157646
-85.311035 30.38909 98.125725
-84.98119 31.848883 93.021416
-85.16274 31.533897 97.441765
-84.75085 32.87518 92.739914
-85.27601 32.298374 96.939545
-85.0469 33.312847 93.64374
-84.70246 34.52346 92.18796
-84.558235 34.936024 93.096725
-83.97262 28.130634 94.157326
-84.167015 27.82846 94.74916
-84.32695 27.831087 95.09508
-84.3143 29.042782 93.236565
-84.082466 28.659235 93.68503
-84.597885 29.15293 97.45299
-84.20308 29.558582 92.89382
-84.467674 29.779247 97.79157
-83.93579 31.14791 92.0277
-84.743195 30.558035 97.93861
-84.25405 31.989107 92.02598
-84.52775 31.138025 92.49436
-84.98748 32.227894 97.229095
-84.35015 33.707005 91.86388
-84.078224 34.558018 91.41167
-84.242676 34.491493 91.65785
-84.06398 35.145065 91.811424
-84.34784 35.29999 92.51108
-84.37121 35.31234 93.42177
-83.83596 35.64613 92.11635
-83.79776 35.90532 93.09036
-83.7851 35.6892 93.87894
-83.82538 28.268377 93.8242
-83.50896 27.69971 94.704895
-83.53303 27.619228 95.3719
-83.349205 28.93475 93.31804
-83.29969 28.628893 93.46941
-83.47612 28.365593 96.57059
-83.34817 29.143595 97.15323
-83.488396 30.282583 92.506096
-83.31459 29.903664 97.45717
-83.90076 29.752432 97.61191
-83.397224 30.89853 91.97617
-83.2427 30.520945 97.42093
-83.12064 31.655901 91.460846
-83.38827 31.44229 91.75769
-82.96406 32.57593 91.34708
-83.53691 32.20329 91.57836
-83.40069 33.820778 91.200676
-83.60696 33.03826 97.113335
-83.1132 33.634193 97.77177
-83.58755 34.376957 91.23503
-83.21024 35.101273 91.29969
-83.57764 35.28604 91.60541
-83.43361 35.35688 95.085495
-82.6518 35.83596 97.77761
-82.64225 35.84778 99.53965
-82.608246 36.00742 99.926445
-83.26951 35.84967 92.00491
-83.39582 36.06764 92.6117
-83.10195 36.223923 93.309235
-83.15519 35.68324 94.77118
-82.69272 36.336506 99.77636
-82.6179 36.27374 99.99275
-82.71686 36.844456 99.649155
-82.66779 28.269304 94.06916
-82.83178 27.873661 94.63553
[...]
POINT_DATA 7273
SCALARS features_00 float 1
LOOKUP_TABLE default
0.69168705 0.6498992 0.7818886 0.6793669 0.5150546 0.83841485 0.82855356 0.7132987 0.74925315 0.6331724 0.6204807 0.5849996 0.5411442 0.5345701 0.7192712 0.6773928 0.6168625 0.5836537 0.4739148 0.4677831 0.81279117 0.5357789 0.46413934 0.8401578 0.5342301 0.43469268 0.42356583 0.75443995 0.73521626 0.684476 0.54524195 0.5964174 0.6448873 0.72483593 0.56433403 0.53585136 0.74679536 0.7983171 0.6334662 0.76825005 0.72157454 0.72793627 0.8052968 0.75292516 0.38253856 0.6929259 0.6030876 0.55344516 0.59556025 0.43075716 0.5146857 0.6053009 0.4359275 0.5062523 0.5063366 0.65473723 0.70666504 0.7528081 0.45656174 0.48532128 0.79278505 0.4763785 0.87755454 0.8574108 0.77173615 0.7993666 0.4240078 0.46824783 0.51942027 0.3848375 0.41200966 0.42433333 0.43686175 0.5743449 0.693621 0.7457899 0.3599524 0.79361236 0.8457302 0.8550018 0.8256687 0.7341672 0.77245086 0.7980193 0.3641858 0.6322886 0.71362317 0.42846587 0.43783137 0.496113 0.48204148 0.5294635 0.54041344 0.53557074 0.55392087 0.400743 0.44149455 0.48500186 0.6434739 0.7225127 0.81134343 0.3543991 0.8121939 0.8264537 0.7964313 0.8103306 0.7321482 0.76677626 0.79415536 0.68148035 0.71313834 0.43726784 0.45357144 0.5090196 0.52528644 0.56357014 0.56486416 0.3417616 0.3817631 0.4726823 0.38424477 0.42218548 0.41298577 0.49849135 0.7179622 0.33811378 0.7837193 0.79636645 0.770941 0.7733307 0.29928595 0.7433491 0.74124473 0.753174 0.5057494 0.52886146 0.5415509 0.5173768 0.3294247 0.3377549 0.3363613 0.37938294 0.42658415 0.42060444 0.5270399 0.50242245 0.5693344 0.5705549 0.4417739 0.29499757 0.35464597 0.3414405 0.29442334 0.3428111 0.31367084 0.333039 0.5146409 0.5880223 0.6135554 0.57475704 0.5784435 0.4273969 0.48251504 0.40151954 0.32349822 0.38696235 0.3264353 0.4036162 0.39954913 0.33640623 0.5426594 0.42408618 0.44377258 0.3120258 0.3305072 0.5898392 0.6227557 0.5783382 0.6201893 0.64057505 0.6405566 0.6249155 0.63989645 0.65277946 0.6274743 0.6482625 0.6347584 0.54873884 0.51896876 0.35419148 0.35002172 0.27114627 0.36705744 0.44678813 0.5733771 0.5868237 0.61853474 0.65793633 0.6747074 0.6515546 0.6499353 0.68350613 0.69535846 0.69684803 0.66681004 0.5988623 0.5542544 0.5725087 0.52732867 0.4964388 0.36103848 0.2797932 0.17501885 0.2722572 0.33350503 0.2408944 0.5333066 0.5593196 0.62345403 0.63937134 0.64104116 0.71472466 0.72195923 0.6875677 0.63752323 0.58807325 0.6775919 0.50768626 0.4935292 0.5485055 0.61335033 0.37725312 0.4075117 0.21889646 0.116660334 0.21757402 0.13453636 0.24769428 0.23867577 0.23799391 0.24692608 0.37730104 0.3968675 0.5505283 0.45933527 0.47729522 0.652004 0.68660617 0.7060573 0.6149648 0.18081717 0.17611046 0.22301848 0.2095031 0.15349904 0.23270634 0.20106538 0.25169647 0.2587744 0.11024913 0.15165605 0.27193615 0.36794472 0.38777572 0.3084783 0.32857722 0.38052034 0.23426513 0.25705 0.2623326 0.2306655 0.23728792 0.2820561 0.17643718 0.2711203 0.28605774 0.18125392 0.27574566 0.5742307 0.57414937 0.46804258 0.5235122 0.55094993 0.32620758 0.3979547 0.28534135 0.29232058 0.30846387 0.30599433 0.3271895 0.29220945 0.2880703 0.12261722 0.48191267 0.57490015 0.5723177 0.6052443 0.602795 0.5394166 0.6053823 0.5447409 0.4485505 0.44604218 0.5684909 0.65983516 0.38527423 0.42387146 0.51976216 0.3311593 0.28816852 0.3040022 0.31790623 0.28097665 0.26441717 0.2882576 0.2904729 0.34528723 0.32131934 0.4964337 -0.10372764 0.02366642 0.5523152 0.57584995 0.5991909 0.15430759 0.5644841 0.7233841 0.7608205 0.594746 0.5685613 0.47996974 0.20939992 0.74323356 0.7652602 0.70863986 0.53163266 0.5835229 0.6468792 0.6362599 0.48996705 0.474954 0.36936462 0.28190607 0.20270672 0.22907981 0.03823208 0.46884817 0.66915095 0.72313595 0.51592606 0.6163494 0.7900752 0.8333311 0.56509644 0.52771354 0.46292162 0.28914177 0.10211012 0.30449265 0.49978784 0.7822906 0.8243093 0.3519764 0.4346022 0.5952815 0.68056726 0.74952227 0.8031213 0.6787019 0.698732 0.5705764 0.5951711 0.47818837 0.5100416 0.53607494 0.123280905 0.14409444 0.06635085 0.14845414 0.087550774 0.17540528 0.5119414 0.7317835 0.7552388 0.42873532 0.8183363 0.38121116 0.8615814 0.29915014 0.3464761 0.7503934 0.82696736 0.37661195 0.40918112 0.54287696 0.6326597 0.69611394 0.37959212 0.010063678 0.029819693 0.03406222 0.032260723 0.5811323 0.5679742 0.2015608 0.003901788 0.5702572 0.54822934 0.04781381 0.4426458 0.2797338 0.59804595 0.6818787 0.06094089 0.7756715 0.82549167 -0.026430137 0.22659646 0.82102025 0.342493 0.36564833 0.40458405 0.47830623 0.4976018 0.09738953 0.21235314 0.45010823 0.4897232 0.60394514 0.561097 0.4254417 0.07726349 0.11235469 0.6065442 0.6014377 0.04799961 0.58775914 0.5843582 0.021456793 0.560045 0.5253538 0.045430988 0.42997533 0.29029906 0.19095767 0.19996883 0.68484044 0.7476352 0.20518854 0.5808704 0.46214417 0.46556294 0.28236166 0.34359437 0.676156 0.4977978 0.5188242 0.40539435 0.55176914 0.59488213 0.58548725 0.5482388 0.59982777 0.55803764 0.41524905 0.12123087 0.1520948 0.37992516 0.5993581 0.60905886 0.59343874 0.02331075 0.55701035 0.037483126 0.053610254 0.39315665 0.3723973 0.073330715 0.3977091 0.3995003 0.1763812 0.31362352 0.43770167 0.49877083 0.20361695 0.37501484 0.2531384 0.46745664 0.5137615 0.5434389 0.55923414 0.6900666 0.48083466 0.55742645 0.6441565 0.61062473 0.29183325 0.57649994 0.57260585 0.56344724 0.55704105 0.5274506 0.15976526 0.4085099 0.55897385 0.5378792 0.2656865 0.54018354 0.45303884 -0.019471657 0.011410803 0.11166374 -0.23258011 0.21441041 0.40363663 0.43567657 -0.10845889 -0.07978703 0.2974046 0.45628092 0.5184477 0.5685775 0.5759778 0.12959921 0.65079325 0.587649 0.5300405 0.5947753 0.6908562 0.6759604 0.64545226 0.58773875 0.68547297 0.6773173 0.64334357 0.6010818 0.6277343 0.66211635 0.33176214 0.4739653 0.5332683 0.729867 0.48709497 0.23781593 -0.028885024 0.2350603 0.39028537 0.49670047 0.37508193 0.2253851 0.37745208 0.082204394 0.060726818 0.4098129 0.22285523 0.41369236 0.070615195 0.38247946 0.34268427 0.14984792 0.32643485 0.18406202 0.30384013 0.19182338 0.07020207 0.16379872 0.21718262 0.24351239 -0.2661631 0.25582176 0.36958724 0.53700304 0.5300569 0.07465874 0.3383823 0.3819237 0.4072147 0.5362207 0.6224024 0.66140836 0.6188624 0.54157716 0.6420944 0.5847065 0.5109103 0.578619 0.05980961 0.53275514 0.44451305 0.5619339 0.15770182 0.48758018 0.35368502 0.050829202 -0.08204629 0.50015 -0.31254292 0.5277061 0.499447 0.4357887 0.17065892 0.4768641 0.44273508 0.40836996 0.4869095 0.45926487 0.43189603 0.30457872 0.13525066 0.4642433 0.42653173 0.33583963 0.084629275 -0.014310189 0.24861673 -0.14735472 0.16909662 0.52276015 0.5583119 0.50293916 0.046257973 0.10638755 0.23029676 0.3177758 0.37951508 0.2880664 0.38090134 0.5412768 0.42931625 0.37183768 0.3163156 0.64603066 0.62958044 0.24090125 0.15759993 -0.013217051 0.26103398 0.1918132 -0.26625234 0.5026288 0.3333686 0.5433127 -0.2950657 0.56969094 0.5223458 0.49203736 0.055106856 0.045880847 0.4976974 0.493639 0.4905032 0.422745 0.29340258 0.1675266 0.26264274 -0.31183994 0.09242281 0.16994661 0.2855394 0.14683655 0.060836177 -0.06198676 0.12664837 0.3643375 0.1706785 0.2664492 0.26987964 0.27503008 0.4286912 0.32551724 0.30978736 0.37324688 0.34584522 0.34057224 0.6342339 0.66010034 0.6586499 0.61729157 0.63502204 0.651335 0.65850663 0.61160326 0.59761167 0.61868674 0.60049284 0.5703077 0.26716554 0.34119326 0.5370444 0.41991264 0.16732657 0.2956797 0.3848613 0.41960865 0.37891752 0.49460703 0.32727972 0.40745443 0.47040418 0.4763134 0.28245202 0.15511453 0.13591924 0.18302548 0.09310156 0.39234525 0.37132066 0.3305001 0.12191869 -0.08556156 0.17709215 0.19578849 0.18874854 0.25984114 -0.32841045 0.41608298 -0.09266358 0.17263702 0.32254654 0.33481407 0.50158393 -0.18081729 0.0034569278 0.30467463 0.25233093 0.550212 0.22180018 0.1593226 0.10945296 0.49989754 0.094176605 0.4838422 0.11259679 0.16972983 0.48605713 0.49647766 0.2185756 0.24504277 0.47964987 0.41628528 0.24862915 0.3279558 0.35077313 0.35431546 0.145751 0.039580736 0.0026665833 0.38638902 0.40448987 -0.016190901 0.054008707 0.1560168 0.1258667 0.34896272 0.4043812 0.41992947 0.4065811 0.32163745 0.37379473 0.59772974 0.26655483 0.32633805 0.32198232 0.3980883 0.4702592 0.39514497 0.34691197 0.55365384 0.56161267 0.56810254 0.55271095 0.5742122 0.6340974 0.62874126 0.5833489 0.5386121 0.60443735 0.2856642 0.21624857 0.36176354 0.44742787 0.55611664 0.53740096 0.48388314 0.53483593 0.3785059 0.19200191 0.29315293 0.3833187 0.48569387 0.54809797 0.5575652 0.55187964 0.49172574 0.4235058 0.38899058 0.3798878 0.31638813 0.48505193 0.53689337 0.5872904 0.5383154 0.50574064 0.46092016 0.4574747 0.43094605 0.50667024 0.33383375 0.39904326 -0.11426465 0.10191655 0.5431876 0.58507603 0.46514177 0.51263237 0.588758 0.6244645 -0.012221172 0.022273485 0.50294363 0.53227323 0.52361304 0.61061406 0.70561814 0.50499475 0.42260838 0.32516956 0.20997782 0.04055293 0.31954572 0.35171098 0.39469302 0.54100686 -0.0057058036 0.14604194 0.22013584 0.15995419 0.2512337 0.15725999 0.26023087 0.36390948 -0.10200414 0.0869606 0.25365692 0.19274937 0.45104915 0.15586424 0.44026807 0.4816547 0.078985564 0.11999509 0.4772709 0.44601548 0.11224638 0.127583 0.45058304 0.2109563 0.23588195 0.44503063 -0.20328782 0.3239304 0.24414974 0.007963337 -0.014502294 -0.17978269 0.40849048 -0.019486494 0.16129228 0.0689556 0.07800212 0.40320504 0.41420835 0.14060241 0.37007153 0.5146306 0.121877946 0.35043147 0.37188202 0.49173367 0.56009734 0.61036044 0.6527553 0.61281383 0.31497654 0.32184812 0.32007888 0.5218444 0.64910173 0.6818323 0.68531054 0.524001 0.4927975 0.36795926 0.3398385 0.7169919 0.7336979 0.75082487 0.6046186 0.5959395 0.52677286 0.5828043 0.62207925 0.6025598 0.49647754 0.48212606 0.45950013 0.478715 0.56477785 0.55184096 0.54578745 0.49132222 0.4892761 0.34264562 0.45224184 0.44599813 0.4719864 0.51771647 0.49102843 0.34489053 0.21109563 0.46299645 0.29097155 0.3073773 0.43492085 0.5186621 0.5502648 0.511845 0.43922335 0.3165663 0.2700973 0.2935194 0.27137488 0.4913984 0.5599104 0.60679424 0.51838887 0.5446836 0.31957266 0.3580702 0.39446497 0.23276958 0.6055064 0.6195203 0.50919485 0.52187294 0.41940796 0.50008416 0.19690928 0.5843239 0.6205361 0.41834188 0.42167825 0.6300669 0.09064041 0.5489496 0.31429768 0.36917916 0.43140286 0.5079732 0.6558005 0.718618 0.53961384 0.4062696 0.35238007 0.12261781 0.49095112 0.40714696 0.557335 0.6073444 0.68436927 0.6728964 0.025779609 0.14211906 0.24441604 0.16869365 0.20001239 0.21710633 0.2521667 0.14845733 0.2773496 0.06154234 0.43125778 0.20326062 0.21060619 0.2527858 0.13582718 0.31204578 -0.2586174 0.39908725 -0.060764298 -0.017436981 -0.16363111 0.38487598 0.1171658 0.45491117 -0.0147102475 0.30436093 0.32864603 0.31671274 0.30819246 0.57507354 0.6747885 0.7462982 0.46866924 0.48490483 0.4180504 0.34819472 0.7394869 0.779546 0.7620257 0.6270268 0.66464084 0.63496506 0.6022115 0.53695464 0.6626966 0.6562114 0.6350043 0.48422575 0.57759786 0.63715243 0.66100705 0.5966749 0.41112396 0.42032963 0.21481107 0.20232953 0.4332422 0.56211025 0.50176775 0.12062971 0.26426712 0.44405144 0.49221003 0.2616424 0.14878023 0.02249657 0.082257435 0.13226606 0.37278858 0.38953018 0.5202959 0.3888976 0.10676763 0.17413342 0.22697592 0.2890635 0.29174685 0.013431147 0.15369964 0.5782851 0.60697234 0.44412822 0.35664475 0.3492238 0.0046580657 0.067590505 0.6108941 0.37037012 0.40525436 0.08555979 0.6085404 0.36828196 0.5718639 0.5175194 0.41593647 0.018015292 0.55565226 0.27693102 0.29012647 0.6700352 0.6046654 0.16809876 -0.15623818 0.012515046 0.3985504 0.49375418 0.5844998 0.6223486 0.6561024 0.5716394 -0.1492532 0.12491647 0.2129253 0.14907007 0.22947817 0.07124682 -0.16636223 0.17589414 -0.030314062 0.08338992 0.2408109 0.11671235 0.21136835 0.2724121 -0.103864305 0.36787847 0.39177173 -0.19809131 -0.19389942 0.37792093 -0.056089647 -0.0651885 0.39263126 0.11137341 0.15153524 0.019108996 -0.12479505 0.3098656 0.03747715 -0.08498807 0.44564223 0.09669264 0.2594731 0.2871028 0.22019462 0.35176528 0.3350652 0.28989908 0.39947164 0.7141371 0.5978318 0.41481113 0.35640013 0.6275321 0.738256 0.78346884 0.7742758 0.6850822 0.6826815 0.6535336 0.62479895 0.55868083 0.6729796 0.66594714 0.6454365 0.55982935 0.67036283 0.64520884 0.6608598 0.62296814 0.57348526 0.37032157 0.27654234 0.53911924 0.58621454 0.53254247 0.34224883 0.3765627 0.33579683 0.6174957 0.6580209 0.6563724 0.5827044 0.4919132 0.51481044 0.37371877 0.28779608 0.17336196 0.18912104 0.39828134 0.3426503 0.1732754 0.0037904903 0.5326966 0.49203438 0.30712128 0.088190265 0.06848816 0.101895586 0.08884655 0.25988847 0.2012541 0.3469251 0.025129262 0.051893674 0.13348785 0.20196657 0.112133294 0.13806832 0.22423412 0.023563482 -0.015110701 0.5651372 0.5783005 0.11993599 0.28903767 0.32437122 -0.038207576 -0.039939187 0.54103523 0.5807903 0.21065773 0.23760222 0.3065678 -0.0047320686 0.5136425 0.2417736 0.42086202 0.45214838 -0.0428167 0.49980938 0.40937316 0.22974484 0.21236506 0.19127238 0.54548675 0.23254804 0.18793465 -0.4082482 -0.4585688 0.20560002 0.5177953 0.53029335 0.62472665 0.61867344 -0.40818998 0.38374448 0.5617871 0.3658691 0.20040432 0.34058243 0.07635936 0.24898961 0.40621743 0.253333 0.24670914 0.32014275 0.42601424 0.50847584 0.59592795 0.12840094 0.41131932 0.55194736 0.62467015 0.5306726 0.5269617 0.6147735 0.581401 -0.17383167 0.4973994 0.6094866 0.589358 0.5796561 -0.12733808 0.5280559 0.5706227 0.057916798 0.0005078316 0.49680716 0.14343943 0.2949785 0.39903152 0.2627005 0.24007249 0.18919323 -0.09968568 0.2552173 0.112484455 0.102909766 0.30226988 0.3232211 0.2311319 0.15802333 -0.025170162 -0.04348903 0.309417 0.4162566 0.346502 0.2968828 0.28252226 0.2423391 0.32150543 0.54296184 0.55091393 0.5781796 0.47188544 0.34214908 0.30468777 0.5698663 0.7306652 0.70887125 0.6595433 0.67770135 0.6664015 0.6488319 0.67189693 0.6514075 0.7990861 0.759225 0.7215296 0.6526556 0.6786853 0.61055243 0.5270293 0.40844512 0.74682117 0.7500024 0.6979548 0.6179638 0.51727515 0.5158166 0.58862674 0.660546 0.4184488 0.35188636 0.2850294 0.37645778 0.66710234 0.63758886 0.66352534 0.46374047 0.44792783 0.5669921 0.6288407 0.61445993 0.5405643 0.37982845 0.48017135 0.19058901 0.3682971 0.39328653 0.47408384 0.49557796 0.4333576 0.27782217 0.18670723 0.20663752 0.2342744 0.33531868 0.27172914 -0.015696198 0.22004372 0.1322234 0.006621048 0.07273495 0.0730043 0.052080274 0.047860663 -0.07045627 -0.13279903 -0.14433596 -0.2060364 0.26820993 0.45484638 0.14389443 -0.094569504 -0.09489812 0.4186876 0.40781233 0.314645 0.18257546 0.22120948 -0.41313815 -0.37243646 0.4048403 0.5154532 0.50302166 0.38273448 0.2054665 0.37143427 0.5560975 0.5303819 0.10374197 0.009699501 0.3967051 0.34770364 0.5418111 0.5085614 0.43429786 0.19194882 -0.04176266 0.33348227 0.16716819 0.5761425 0.6207198 0.2951738 0.6332581 0.6616294 0.32517833 0.321218 0.35356325 0.39805955 0.4377032 0.1281932 0.65087765 0.72999835 0.35752332 0.3912694 0.513439 0.5563153 -0.029000115 0.7666292 0.41124424 0.50094795 0.5727574 0.5319674 -0.1168499 -0.14726534 0.69883156 0.46872628 0.53025424 0.5765563 0.5296018 0.48747367 -0.14460893 0.55603814 0.59639573 0.50885725 -0.0576995 0.4760364 0.526078 0.5752015 0.091877036 0.09420292 -0.15663683 0.3334147 0.39801294 0.23392953 0.07764765 0.097977236 -0.15545876 0.12690781 0.4809647 0.46277517 -0.0052772164 -0.17134681 0.39633942 0.28369173 0.19771716 0.13963996 0.6974244 0.6438738 0.6004231 0.20313843 0.18294403 0.14217542 0.25121832 0.24646872 0.43323123 0.49892557 0.6276293 0.73681486 0.7225391 0.63505065 0.47874242 0.34004033 0.26540363 0.20416735 0.655437 0.65084594 0.7536405 0.6880889 0.5108738 0.39850265 0.94507635 0.6477465 0.5916438 0.50689167 0.84501195 0.80361784 0.74915385 0.5470598 0.42244703 0.40897954 0.36241645 0.7869688 0.8146503 0.80753374 0.6835693 0.5864103 0.53453285 0.5272811 0.39095557 0.4416836 0.4558562 0.7142565 0.5356255 0.50174916 0.5260273 0.3035894 0.42539227 0.52532095 0.13160327 0.46842963 0.41339457 0.10690628 0.36229223 0.18634637 0.14305437 0.04439859 -0.020866144 0.16649012 0.18884757 0.24040647 0.10923407 0.10495878 0.053160362 0.11869783 0.086709104 -0.13896957 0.051661193 0.16497074 -0.3929241 0.24089085 0.37522298 -0.30643576 0.1295265 0.25500938 0.48675007 0.4612711 0.5494219 0.55798554 0.09816305 -0.24765883 0.5418372 0.54389423 0.49299553 0.32858878 0.15163863 0.039217874 0.22811726 -0.18666984 0.47023025 0.40176415 0.18899912 0.18440625 0.28900242 0.29230818 0.26126334 0.14983147 0.16964294 0.11523655 0.2812022 0.5270677 0.569414 0.62466556 0.34387913 0.31897852 0.26195806 0.21664181 0.32385412 0.721288 0.75658154 0.32581314 0.35153952 0.7933702 0.33999524 0.48763964 0.826003 0.35935825 0.4075972 0.7690398 0.4322332 0.43998212 0.21897247 -0.19741574 0.59431404 0.634256 0.4682353 0.4458782 0.43107906 -0.21705616 -0.08663771 -0.16838364 0.46526027 0.56446 0.5833098 0.05748374 -0.02002392 -0.13193478 0.5612707 0.40575624 0.18171455 0.038693707 -0.0026402846 0.6579381 0.04321253 -0.03812532 0.3464292 0.707535 0.092535816 0.09445066 0.48281628 0.47357666 0.7456157 0.19249931 0.09671752 0.45598698 0.50125134 0.76034033 0.7779726 0.74763227 0.60811174 0.2640489 0.43327457 0.5182929 0.87875855 0.92123914 0.9154914 0.8791695 0.779582 0.87546813 0.9168427 0.9426019 0.9354859 0.832138 0.79814315 0.8341136 0.8718231 0.8687298 0.77525854 0.7624911 0.7470724 0.6984848 0.6671485 0.6564325 0.7033516 0.560303 0.5666894 0.88616335 0.8389382 0.55007696 0.34612238 0.30584246 0.2973624 0.34686035 0.84007376 0.904888 0.91129744 0.8367976 0.7262444 0.583242 0.47761732 0.43258774 0.24014455 0.41639537 0.34682643 0.418535 0.41348833 0.82404435 0.52963644 0.5028243 0.39911628 0.3326735 0.22954448 0.117207356 0.33837155 0.2697666 0.19121253 0.14255352 0.11469363 0.26853085 0.12511316 0.27971104 0.19192278 0.18388416 -0.20646772 -0.0107662305 0.11309326 0.2752598 0.19594114 0.13042334 0.12176729 0.1840731 0.08858509 0.1947384 0.12756535 0.15088725 0.18657173 0.37538254 0.130899 0.4704721 -0.20870985 0.5081614 -0.24110913 0.522568 0.5317143 -0.03737452 0.5194908 0.51104784 0.41826212 0.3171337 0.08334075 0.035864487 -0.0723612 0.028736625 0.054087725 0.27443483 0.37197554 0.29928607 0.048296258 0.06363081 0.018206991 0.19879332 0.42459145 0.52864903 0.56956136 0.26716432 0.37400833 0.5757176 0.6992812 0.74824595 0.182089 0.26029524 0.75070846 0.7914594 0.29206306 0.82018256 0.34449777 0.35948804 -0.4567752 0.77815306 0.782727 0.46892804 0.4849916 0.6488515 0.5281297 0.5075785 -0.1863208 0.28656122 0.5320513 0.51363724 0.23325254 0.35162437 0.53180844 0.025529113 0.069981016 0.40567982 0.6113212 -0.32476422 -0.07908584 0.2863813 0.482576 0.42476237 0.63262 0.6700143 -0.104261294 0.48046613 0.426374 0.6913495 0.34842095 0.46260637 0.5100174 0.50214756 0.7338159 0.74923146 0.7732055 0.54332554 0.5093727 0.56864846 0.5958269 0.58412665 0.6472732 0.6190271 0.6308675 0.87721395 0.8650603 0.82573473 0.89925206 0.9040108 0.89423436 0.8118539 0.75748074 0.8553417 0.89667475 0.75475305 0.7528651 0.80185 0.7880254 0.7579802 0.73231554 0.6911315 0.695819 0.6052879 0.6530255 0.66571784 0.52542406 0.4860708 0.5157833 0.5826787 0.40580797 0.43391678 0.4089271 0.54066366 0.50579286 0.5645766 0.5535704 0.58731794 0.6111249 0.5379224 0.5669778 0.594041 0.63799936 0.67248714 0.63916135 0.6085701 0.6363656 0.6775869 0.7177392 0.68754447 0.73376137 0.6377534 0.5918503 0.664317 0.34955075 0.27544913 0.2516892 0.24546468 0.85989666 0.779045 0.6106236 0.5557556 0.23289078 0.29364878 0.34214967 0.73739314 0.6430268 0.5462405 0.566949 0.7906045 0.5200979 0.48058677 0.3115714 0.29770312 0.27524644 0.26295093 0.30686998 0.23353319 0.32868809 0.30936962 0.7112764 0.77222705 0.72622883 0.45779455 0.2086011 0.15440503 0.10908818 0.0381459 0.017929632 0.09538244 -0.3113229 0.46486652 0.47971585 0.3237366 0.058351904 -0.09913232 0.36340043 0.4029596 0.34171188 0.28467986 0.2472272 0.26511174 0.22231616 0.35142976 0.15586576 -0.31719393 0.45774567 -0.21362272 -0.06781559 0.47328758 0.49321085 -0.