# vtk DataFile Version 2.0
Really cool data
ASCII
DATASET POLYDATA
POINTS 4098 float
-66.546295 14.038714 71.881615
-66.57714 14.643751 71.7726
-66.62151 14.765944 72.16834
-66.535355 15.311086 71.68547
-66.56175 15.2358 72.34105
-65.9642 13.167645 71.69389
-65.96172 13.180091 72.2358
-65.98688 13.685844 71.14059
-66.29137 13.696625 71.68996
-66.174194 13.608433 72.50917
-65.94332 13.695981 72.87199
-66.1784 14.597293 70.969666
-66.48401 14.268925 71.51028
-66.41898 14.479351 72.559906
-66.05547 14.55308 73.001114
-66.19489 15.328763 71.00098
-66.44372 15.628445 71.5945
-66.45403 15.349425 72.31184
-66.135826 15.361143 72.83018
-66.18146 16.279903 71.34694
-65.69469 17.435877 70.66227
-65.72539 17.52018 71.61742
-65.730774 17.229263 72.28241
-65.15235 13.071645 71.02548
-65.29727 12.836683 71.5447
-65.52947 12.89578 72.30467
-65.30969 13.133733 72.80707
-65.01129 14.116668 70.366684
-65.57845 13.439192 70.9225
-65.43796 13.669861 73.12735
-65.495026 14.585238 70.496
-65.38271 14.352801 73.341125
-65.14629 15.840732 70.16672
-65.40538 15.269499 73.35747
-65.19654 16.852627 69.91618
-65.27476 16.536737 73.15938
-65.356224 17.231195 70.08706
-65.55794 17.44075 70.466606
-65.448685 17.42246 72.673325
-65.154175 17.33718 73.06512
-64.6944 18.409286 69.885
-65.22302 18.192778 70.52351
-65.40309 18.170248 71.31403
-64.843124 18.4834 72.54097
-64.92763 18.112093 72.91898
-64.92921 18.924734 70.739586
-64.7315 19.367989 71.08704
-64.90859 18.936382 72.0569
-64.2131 12.234514 71.584076
-64.03813 12.212005 72.15036
-64.32486 12.814699 70.764244
-64.32795 12.520492 72.53295
-64.775024 13.066456 72.854576
-64.19018 13.6474085 70.258354
-64.58129 13.720008 73.29903
-64.775024 14.183626 70.16203
-64.76036 14.691332 73.41167
-64.838356 15.613526 73.41467
-64.58726 18.055723 73.22016
-63.967766 18.509724 73.67954
-63.858204 19.474777 69.75712
-64.56894 19.674568 71.12073
-63.97782 19.469746 73.1093
-63.799297 19.35073 73.705
-64.04878 19.917906 70.37579
-64.02642 20.21956 71.45651
-63.77555 19.88651 72.78947
-63.792534 19.949615 72.89341
-63.46794 12.207643 71.013405
-63.340446 11.998655 71.65392
-63.423084 12.123542 72.229195
-63.40249 12.894937 70.41596
-63.785686 12.844753 70.54737
-63.18536 12.392748 72.61295
-63.26479 12.616021 72.78999
-63.38054 13.4611 73.15721
-63.79778 14.810987 73.43727
-63.070274 15.956875 69.49206
-62.789314 17.073832 66.02921
-62.921093 17.054918 66.391464
-63.950268 16.686573 73.5348
-63.004612 17.623201 65.92756
-63.177433 17.444986 66.28715
-63.054592 17.563953 67.39364
-63.378155 17.399708 69.28121
-63.272263 17.820007 73.92828
-63.02095 18.457754 65.84583
-63.272945 18.596806 66.30547
-63.371044 18.565899 67.13485
-63.399525 18.47539 74.074844
-62.82016 19.350815 65.918076
-63.06222 19.430922 66.545746
-62.980446 19.418573 68.57179
-63.08931 19.461643 74.23448
-62.85966 19.764875 66.65321
-63.14653 20.044058 69.58459
-62.891533 20.346159 74.15348
-62.999638 20.886595 70.77823
-62.95851 21.178335 72.11321
-62.92724 12.204863 71.10704
-62.694763 12.141782 71.63606
-62.80708 12.16872 72.14785
-62.63287 12.451135 72.46993
-62.815613 12.732814 72.7934
-62.72114 13.713223 73.06405
-62.534016 14.481321 73.079025
-62.16121 16.372072 66.851135
-62.211628 16.918892 65.86062
-62.452484 16.668211 66.921715
-62.17792 16.606976 67.20316
-63.03261 16.20025 73.20489
-62.122467 17.674997 65.36588
-62.63283 17.69186 65.53609
-62.747513 17.585161 73.8716
-62.321045 18.53397 65.334206
-62.629116 18.59179 65.481346
-62.28066 18.998215 65.4202
-62.356457 19.393204 65.6521
-61.855816 19.47321 75.02522
-62.384167 19.773941 65.98514
-62.49072 20.067503 66.57695
-62.36007 20.39401 68.31016
-62.56551 20.58394 74.63332
-62.07146 20.5381 75.11033
-62.263382 20.906122 68.69555
-62.403564 21.337921 70.49219
-62.553898 21.341658 72.97335
-62.286007 21.099916 74.40507
-61.987244 20.938637 75.07428
-61.974854 21.54528 70.30275
-62.42975 21.600416 72.794395
-61.77089 21.877008 73.115906
-61.511387 26.461546 74.92611
-61.530533 26.517227 75.25287
-60.645535 12.9984865 66.57719
-62.02529 12.569919 71.11031
-61.88796 12.728805 71.545845
-61.97635 12.889849 72.28698
-60.84277 13.695741 66.02332
-60.949802 13.387008 66.6935
-60.84132 13.326155 67.38948
-61.674625 13.328831 72.21365
-62.153236 13.564963 72.74465
-60.962746 14.244962 65.98628
-61.16246 14.848138 66.5133
-61.154408 14.893416 67.06118
-61.75525 14.509734 70.57231
-62.134277 14.308333 72.78843
-61.465458 15.350556 71.99918
-61.54408 17.70197 65.33462
-61.214027 17.923605 73.97638
-61.581734 18.55873 65.261734
-61.611874 19.484924 65.542595
-61.43535 19.664549 75.31792
-61.148422 20.169498 65.99507
-61.695816 20.479683 66.43481
-61.560036 20.452377 75.4159
-61.19078 20.57958 75.599525
-61.161613 20.924505 66.80218
-61.350452 21.136778 67.5475
-60.966984 21.51532 68.530945
-61.498608 21.48572 69.22575
-61.394794 20.991846 75.41679
-61.433895 21.77168 70.593704
-61.426556 21.89999 71.654594
-61.05277 22.388102 72.73065
-60.816402 22.352373 73.80992
-61.62109 21.689339 74.56665
-60.685852 24.869019 74.6545
-60.910355 25.869143 73.71515
-61.31574 25.81382 74.72469
-61.18113 25.688189 75.500984
-60.8587 25.839062 75.996506
-60.890663 26.511543 73.83452
-61.416473 26.303818 74.82992
-61.380615 26.496115 75.42964
-61.072617 26.499151 75.96684
-60.87039 26.841059 73.972275
-60.900276 27.26994 74.74162
-61.162403 27.0449 75.563225
-61.06427 26.822289 75.91774
-59.815678 12.378192 67.23445
-60.240234 12.717543 66.54476
-60.542862 14.061693 65.35379
-60.5686 13.506905 65.66544
-61.377144 13.648059 71.6344
-60.21824 14.832133 65.169365
-61.44471 14.566241 71.561104
-60.317856 15.800033 65.48895
-60.07091 16.191198 69.04669
-61.159946 15.610607 71.43885
-59.93599 16.296219 65.71266
-61.24445 16.33526 71.68941
-61.145065 16.391922 71.960754
-60.63351 17.864809 73.445984
-61.03326 18.199598 74.27368
-60.869904 18.467522 65.36777
-60.459343 18.858833 74.831726
-60.50389 18.94658 65.41077
-60.53934 19.604301 65.65226
-59.962563 19.951265 75.55669
-59.936558 19.96046 75.5918
-60.30778 20.130312 65.85818
-60.416374 20.600515 75.77074
-60.292328 20.735691 66.29301
-60.419746 21.05125 66.72558
-60.65502 21.370256 67.43383
-60.768436 21.45621 68.36815
-60.149445 21.094284 75.924904
-60.43398 21.521812 68.93653
-60.6297 21.551077 70.00007
-60.638374 21.719196 70.21884
-60.475086 22.204418 74.74204
-60.234802 23.635399 73.6016
-59.642933 24.010958 72.612366
-60.32143 24.755661 75.187065
-60.45973 25.95817 73.33363
-60.60736 25.806904 73.39245
-60.724453 25.787735 75.96715
-60.290417 26.323435 73.27993
-60.562035 26.581272 76.1989
-60.78551 27.10176 75.850876
-59.521988 31.660885 76.43711
-59.534 32.012947 76.305016
-58.790745 11.586214 65.806435
-59.247982 11.8410635 67.20724
-59.158703 12.763407 65.04324
-59.46971 12.413195 65.73092
-59.554073 12.934543 68.26519
-59.29744 13.675339 64.87432
-59.111374 13.520647 68.6184
-59.486298 14.494353 64.79393
-59.28835 14.258147 68.74374
-59.31324 18.185377 74.55088
-59.73521 20.386765 66.034966
-58.887512 20.517113 76.2567
-59.782818 20.837366 66.453224
-59.653297 21.277525 67.40029
-59.719254 21.620255 69.51773
-59.569477 22.422989 75.65616
-58.74017 23.470484 71.49953
-59.35115 23.634214 76.025635
-58.945606 24.607067 72.17196
-58.90155 24.037045 76.285736
-58.998928 25.094639 72.256935
-59.182808 25.235842 76.3765
-58.98139 26.408758 72.69341
-59.47194 26.830553 73.149155
-59.240417 27.433424 73.84133
-59.221092 28.432281 75.52964
-59.254253 28.99565 77.00513
-59.10247 29.346657 75.64777
-59.2465 29.423998 77.320656
-58.88419 29.757742 77.76304
-59.255474 30.520462 77.43397
-59.00179 30.379128 77.66422
-58.992878 31.831146 75.045235
-59.48933 31.77055 75.95516
-59.45882 31.857096 76.60692
-59.074745 31.486404 77.28067
-58.88911 31.259672 77.61588
-59.1695 32.426975 75.70474
-59.310444 32.40515 76.37942
-59.015903 32.37706 77.046776
-58.847 32.953518 75.6852
-59.0286 32.86528 76.34176
-57.541763 9.128803 60.176056
-57.62582 9.516624 59.56798
-57.676655 9.644548 60.728127
-57.78327 9.854458 61.09452
-57.548824 9.806684 62.02846
-57.611538 10.0907135 59.799
-57.651394 10.432421 60.44159
-57.759098 10.263835 61.30779
-57.533348 10.67681 62.111782
-58.284378 11.400832 65.44398
-58.63649 11.236302 66.62085
-58.247494 11.246255 67.30754
-57.599728 11.273253 60.69801
-57.999706 11.879659 64.56452
-58.614902 11.430343 67.31399
-58.323387 11.656224 67.816895
-58.639114 13.404903 68.7471
-58.04721 14.4962015 68.98876
-58.07557 15.337314 64.12679
-58.7108 15.59349 64.53094
-58.04619 15.621988 70.143135
-58.093666 16.18531 64.586105
-58.4573 17.106144 71.13876
-57.97177 16.950554 65.05117
-58.270954 17.676825 73.69969
-58.757736 18.258312 75.085045
-58.50707 18.214378 65.92746
-58.4094 19.714275 66.37317
-58.485237 19.886553 76.2877
-57.88264 19.91938 76.68705
-58.86853 19.979788 66.14517
-58.694798 20.353409 66.506584
-58.085648 20.47801 76.81197
-59.081573 20.876385 66.833206
-58.28503 20.752316 67.71426
-58.374584 20.99498 76.73749
-58.005726 21.910248 76.679726
-58.286217 23.1692 71.28983
-58.678352 23.429838 76.41917
-57.933186 24.793034 71.618904
-58.0512 24.803968 76.55581
-58.71063 25.140833 72.068214
-58.307167 25.634619 76.746346
-58.313587 25.982578 72.37098
-58.058113 27.422312 77.40378
-58.435604 29.397648 77.81422
-57.868805 30.984285 74.50732
-58.359383 30.438633 77.9806
-58.438305 31.553455 74.77108
-58.690666 31.712492 77.534325
-58.324413 31.48892 77.83837
-58.14028 32.257347 74.723976
-58.35267 32.453457 77.37465
-58.422234 31.972855 77.63165
-57.95917 33.050705 75.01409
-58.43159 33.177048 75.67339
-58.343037 33.269897 76.394684
-58.361946 32.932777 76.948105
-57.036205 8.30755 59.82374
-56.83398 8.172041 60.475807
-56.878395 8.732674 58.751316
-57.321568 8.742484 59.533024
-57.347965 8.833773 60.42272
-57.219864 8.975234 61.325188
-56.876858 8.869127 62.13794
-56.62823 9.606677 57.990128
-57.310116 9.4356985 58.943886
-57.483105 9.647365 59.24254
-57.454277 9.634194 62.140236
-57.169605 9.983981 58.71806
-57.4139 10.138202 59.259205
[...]
POINT_DATA 4098
SCALARS features_00 float 1
LOOKUP_TABLE default
0.78549004 0.73440033 0.7395086 0.6733596 0.6969193 0.8426556 0.8630363 0.77071786 0.81043017 0.8391073 0.83266896 0.695106 0.75033826 0.7742211 0.7777381 0.63099647 0.6381287 0.68520576 0.69498944 0.5715615 0.4781015 0.5060972 0.51297486 0.7437046 0.83426785 0.8657137 0.83535576 0.64562154 0.74190474 0.80841714 0.65298975 0.7540765 0.52621895 0.6600243 0.42599842 0.50357956 0.4419172 0.4701156 0.46146917 0.42066842 0.3603205 0.43220478 0.4765833 0.38816607 0.38737616 0.40616372 0.40249354 0.4150426 0.84459066 0.8208492 0.7349556 0.8110909 0.8002583 0.6259045 0.7288118 0.61240464 0.64565843 0.5407767 0.37392688 0.37279665 0.28239492 0.38645834 0.34261143 0.34980512 0.31950068 0.38464785 0.35905978 0.35578603 0.8333511 0.8222575 0.7988943 0.7241169 0.7358625 0.77101934 0.75023353 0.68267536 0.51337975 0.4535799 0.6611873 0.6281877 0.36758164 0.70998895 0.6809555 0.5697378 0.27276927 0.3484107 0.700722 0.6987047 0.6653495 0.3726377 0.65037 0.6275996 0.2993394 0.37200505 0.5809903 0.26664075 0.39909106 0.32157528 0.32607582 0.84011793 0.8104149 0.789568 0.7618677 0.7343179 0.65830696 0.5872893 0.40699244 0.61220384 0.48658878 0.40004215 0.33533555 0.66499555 0.7058896 0.31812453 0.6662923 0.6821034 0.6407887 0.6245706 0.42127383 0.6008853 0.54700625 0.35497618 0.43094948 0.43546057 0.32619673 0.27284226 0.34735143 0.41651103 0.4321519 0.2348634 0.3113541 0.2953734 0.723403 0.7051929 0.46774566 0.801685 0.77384543 0.731699 0.4615358 0.43745655 0.44687885 0.69150174 0.6760751 0.45403212 0.38473213 0.29343903 0.4650343 0.61355245 0.34161437 0.586316 0.23846044 0.6026696 0.5706942 0.39158982 0.51718783 0.51005626 0.41048798 0.3897105 0.46843612 0.4130701 0.3032112 0.24750629 0.4113031 0.21029142 0.2223742 0.16767721 0.2602496 0.4076808 0.6977525 0.60998505 0.7473917 0.69164526 0.65353096 0.63590765 0.7355701 0.7003088 0.6708218 0.6464986 0.6755864 0.68123865 0.6760849 0.5797634 0.5004206 0.46903113 0.47746283 0.61782825 0.40970135 0.45933747 0.3177201 -0.15577948 0.26543045 0.23211771 0.18592232 0.18548144 0.052589756 0.19767196 0.523929 0.23469867 0.4877533 0.49525192 0.29531807 0.2931171 0.48390156 0.30896074 0.48162663 0.46992558 0.4250892 0.32176834 0.25061122 0.24951456 0.20433226 0.19477323 0.39733645 0.120672464 0.15289403 0.6382562 0.41949683 0.4520495 0.64518726 0.40796793 0.59250665 0.6498146 0.7029233 0.75697815 0.50498635 0.56944585 0.5022969 0.51595515 0.5402571 0.47194576 0.25904214 0.3899353 0.0921911 0.19641574 0.46032235 0.2787768 0.4647895 0.43926352 0.18491057 0.19074395 0.035051554 0.11744288 0.10446131 0.122955404 0.12287682 0.20233089 0.2085166 0.31714153 0.35999697 0.3713146 0.5383004 0.47205746 0.4709323 0.46317226 0.49266106 0.4840191 0.75906336 0.75016856 0.7168838 0.6177244 0.5644816 0.7990835 0.7733042 0.70629644 0.82195014 0.7977175 0.5909503 0.57289577 0.57891035 0.57360244 0.56136143 0.55242366 0.5529423 0.556371 0.49666035 0.45850962 0.5215287 0.48657736 0.5423791 0.3269058 0.52331257 0.47478205 0.2460779 0.01538429 0.27753112 0.29581264 -0.011970267 0.23860553 0.024169847 0.15895472 0.24387342 0.31288916 0.05789163 0.26375943 0.36946255 0.491734 0.3616252 0.35496473 0.43908364 0.41189247 0.2698174 0.34547746 0.3309901 0.016746283 0.08621493 0.05510174 0.114764266 0.09959532 0.10889386 0.104434915 0.26936758 0.43953735 0.39821595 0.46086997 0.6267246 0.60096794 0.5379257 0.67196715 0.6472965 0.5952252 0.73396355 0.826259 0.8521764 0.7497258 0.63991153 0.6419983 0.6338713 0.61115897 0.61380064 0.6207043 0.57600236 0.64022446 0.5874037 0.57150894 0.56661224 0.568545 0.54281586 0.45228934 0.45445657 0.045574278 0.42292655 0.43555015 0.41042465 0.5217695 0.26238737 0.33729553 0.3348068 0.47269297 0.40353936 0.49404493 0.26529115 0.27131483 0.070723176 0.04254005 0.09200274 0.18383315 0.1454635 0.09033679 0.30747694 0.42764628 0.44109073 0.49565634 0.54270685 0.5760851 0.17839241 0.56185913 0.13686268 -0.233637 0.57172364 -0.0765903 0.0306432 0.04782489 0.052593254 0.06579371 0.27866513 0.3018542 0.3340121 0.09274039 0.20817181 0.3676623 0.4374151 0.49781746 0.5833607 0.6594012 0.5822295 0.5427802 0.69693446 0.75655174 0.65983045 0.728281 0.7644799 0.81203866 0.7357893 0.6565801 0.6536005 0.6221823 0.5511728 0.76512146 0.71441054 0.6764422 0.5513655 0.5294944 0.47704425 0.73702997 0.693392 0.68289363 0.6353835 0.21868132 0.29536226 0.56836283 0.50370693 0.26324952 0.19013777 0.42858803 0.3629233 0.14868236 0.120986 -0.05047472 0.08849087 0.057880286 0.09864367 0.17096506 0.17720643 0.2599538 0.13648112 0.1092986 0.40362707 0.5068422 0.5389706 -0.08314393 -0.14260137 0.6163785 0.6475277 0.65421337 0.63611615 -0.080647156 -0.113886826 -0.0077539757 0.023715358 0.11691989 0.004372224 0.022240212 0.1238877 0.1766495 0.03703718 0.035950247 0.22204968 0.26854897 0.05504885 0.32081187 0.024440698 -0.115446724 0.33714005 0.08005756 0.23995873 0.42648768 0.59407717 0.56005394 0.49114203 0.65028095 0.68879575 0.78007364 0.68177164 0.71710134 0.7400334 0.77158713 0.7988897 0.75396466 0.6794786 0.633181 0.5756746 0.51606303 0.80587745 0.41714746 0.39439175 0.82057536 0.793027 0.72003186 0.12677072 0.62803257 0.55866474 0.46897924 0.41828972 0.3095842 0.026190184 -0.014973262 0.06705714 0.008773416 -0.096664764 -0.03656562 -0.041199 0.17661902 0.28866535 0.09636073 0.07533465 0.3384339 0.11154726 -0.15132394 0.44151887 0.44989157 0.5640719 0.60710764 0.6442789 0.19462955 -0.3490684 0.61714816 0.63994104 0.1775353 0.0028235838 0.5710282 0.5899403 0.2508395 0.14694677 0.3813342 0.23509422 0.0433992 0.23919764 0.034261644 0.10145304 0.16098209 0.26484555 0.072725385 0.07987286 0.32584965 0.3391781 0.30806905 0.17457576 0.30022863 0.46348673 0.33406335 0.5782573 0.63904923 0.6805458 0.704263 0.71598035 0.62082803 0.71247745 0.7199305 0.73699975 0.71723634 0.82597315 0.77809167 0.7074994 0.5004839 0.43513674 0.86023235 0.33397657 0.27646622 0.8448179 0.8403952 0.13325787 0.7514601 0.16036071 0.14015104 0.5327431 0.4487459 0.4003263 0.26277274 0.0028161928 -0.121196695 0.10339525 0.065817475 -0.022491328 -0.08655646 0.15061043 0.24041046 0.39488304 0.02190395 -0.028546453 0.41326615 -0.124738395 0.30650014 0.19872381 0.038363382 0.21512663 0.42525333 0.5540896 0.59054583 0.23043093 0.23288456 0.51742625 0.5965438 0.24411276 0.24415241 0.08376633 0.34574616 0.5512438 0.27635956 0.2709309 0.29612714 0.2857966 0.2762995 0.09648851 0.2785452 0.2682828 0.21127924 0.12286985 0.21925932 0.074573904 0.29693666 0.115025654 0.3205794 0.2707672 0.2722772 0.37103462 0.3316995 0.55110216 0.6585911 0.6899045 0.6676514 0.8517719 0.83055073 0.522901 0.8718589 0.25994104 0.16478595 0.23615105 0.14950038 0.8577819 0.13138412 0.79641044 0.20342252 0.24708255 0.2495745 0.5146707 0.38939434 0.17720366 -0.19079232 0.11539687 0.042928316 -0.24841064 0.064376876 0.3422172 -0.19797698 0.43721083 -0.2732765 0.43463662 0.3861531 0.41025367 0.15207036 0.29139426 0.237928 0.19711852 0.21458927 0.20544164 0.21622026 0.23513824 0.28696698 0.29489475 0.04771788 0.26191807 0.0864627 0.2530465 0.20168623 0.21333331 0.30690664 -0.10406684 0.3410419 0.14371867 0.45437235 0.53147936 0.6629622 0.64168406 0.85214365 -0.027336374 0.8429182 0.7938973 0.09410198 -0.026052507 0.0064214375 0.8055997 0.6710843 0.6027597 0.16819549 0.25380242 0.29786247 0.24201757 0.22784433 -0.2957994 0.04564992 -0.15528414 -0.32674062 -0.0011046454 0.045731615 -0.0018855743 -0.19701046 0.4442014 -0.20558502 0.43258554 -0.24548763 0.38083947 0.10926427 0.15906845 0.008790392 0.19790614 0.034431994 0.20950896 -0.021156669 0.00044885278 0.25150898 0.19323204 0.18381777 0.18931887 0.1572255 0.12458624 0.2381151 0.25885674 0.30561 0.32525313 0.35311258 0.34817117 -0.019120328 0.36708865 0.3565693 0.088523015 0.35787305 0.24707738 0.30022073 0.3525051 -0.06621975 -0.058993727 -0.0003048405 -0.015236285 0.25466472 -0.005204915 0.15972929 0.25432992 0.29804644 0.5793332 0.6478996 0.6739198 0.0989891 0.4129178 0.58510894 0.62153083 0.65775514 0.16505471 0.50620365 0.616649 0.6386944 -0.04178253 0.0057879984 0.48506844 0.5411625 0.59388345 -0.13194942 -0.048601374 -0.005508583 -0.0043234676 0.28639144 0.39061886 0.009601196 -0.019248039 -0.16068478 0.2895497 -0.30007124 -0.013892196 0.109274335 0.057523817 0.028424092 0.06958413 -0.028014457 0.05065017 -0.017625153 0.013252258 0.08076686 -0.18493497 0.08881221 -0.009732008 0.19332118 0.055771858 0.21740323 0.2763758 0.0856267 0.08717592 0.073505476 0.30303556 0.33484596 0.3519416 0.043812856 0.023892991 0.37118888 0.14486189 0.28982496 0.34466344 0.19527125 0.24492699 0.28015435 0.22326532 0.21624261 -0.00024946034 0.2821419 0.004412532 0.06932838 0.6413791 0.7071301 0.7702619 0.2207264 0.25220376 0.08708446 0.5338988 0.60438395 0.6580965 0.72110325 0.7546903 0.12081277 0.6761993 0.6986798 0.06486758 -0.0021233186 0.6301113 0.65106976 0.004448422 0.022602938 0.5040426 0.507463 0.050257314 0.05623649 0.059165917 0.11659235 0.002420472 -0.10234003 0.116431236 0.0091367345 -0.42730308 0.09640582 0.020655684 0.0012796088 0.010692707 -0.13619241 0.028710686 0.028795961 -0.009953082 -0.049122177 -0.16485828 -0.05557558 0.309452 0.28592542 0.17670627 0.08147087 -0.044945806 -0.098108105 0.33244407 0.29766983 0.21310264 0.09557359 -0.37199068 -0.20938924 0.3289399 0.31982213 0.29136932 0.15521118 -0.2974838 0.33395314 0.3260439 0.310921 0.1183961 -0.15731657 0.3390448 0.32635057 0.28359747 -0.14571938 -0.40494373 -0.32025033 -0.28128502 -0.18742591 0.19478646 0.07913952 0.24271502 0.26786152 0.2900334 0.10159192 0.122488 0.32272092 0.1567559 0.36019528 0.35108092 0.17911904 0.14680329 0.36624268 0.19897014 0.1535665 0.059565462 0.31372237 0.26351312 0.33701035 0.57100874 0.49109945 0.24915332 0.21410868 0.17579447 0.23974854 -0.0020124484 0.65734494 0.7544004 0.8153045 0.84176123 0.05489956 0.29291618 0.47806042 0.8202239 0.18724726 -0.07759259 -0.1208933 0.13058329 0.77973366 0.12331018 0.056824535 0.6885086 0.056263335 0.5497003 0.067277715 0.03262472 0.26126248 0.111072466 -0.15205353 0.14425936 -0.050895553 -0.019284645 0.16151565 0.15144077 0.102482766 0.05413145 0.16137324 0.18743005 -0.11802221 0.19670299 0.22712639 -0.16023998 0.09384236 -0.0060906904 -0.15511693 0.032648932 0.26211077 0.2930473 -0.14859858 0.30848485 0.3317033 -0.24902898 0.33101988 0.33916187 0.30595702 0.31119576 0.2751466 0.20897362 0.07579288 0.051985845 0.3199857 0.05805134 0.06641336 0.33493307 0.3629497 0.07598414 0.09473917 0.37686563 0.06888156 0.15810268 0.40166354 0.18913512 0.19340514 0.15026012 0.121042885 0.44907975 0.37549075 0.18861969 0.17964572 0.1689046 0.36498618 0.5405247 0.520849 0.54228425 0.605741 0.5769632 0.18590465 0.18626347 0.19580352 0.25404102 0.41355363 0.1877453 0.2649474 0.4292251 0.50801146 0.8025541 0.22528896 0.22261263 0.6009205 0.7034899 0.80728436 0.8452985 0.8467963 0.22714436 -0.15567026 0.05181811 0.29032958 0.82715327 0.14484054 0.16569054 -0.18033525 -0.41784424 -0.17134428 0.7970258 0.115706824 0.1025391 0.64833724 0.073021896 0.06872651 0.051677413 0.08253482 -0.08299524 0.10925929 -0.03336934 0.22176477 0.10550499 0.2043142 0.09397203 0.0526819 0.22278059 0.2635457 0.21584564 0.009615593 0.13953012 0.20877016 0.03701353 -0.08256286 0.0050990935 0.2119156 0.2657218 -0.3210079 0.46148363 0.22104305 0.27989402 0.30833843 0.546854 0.5103499 0.24240483 0.29399544 0.26903152 -0.17750871 0.20137061 0.10991265 -0.036699735 -0.059645638 0.34990004 0.010285162 0.38398743 0.029786095 0.12037632 0.44081047 0.42326683 0.15641259 0.4888861 0.15419804 0.192298 0.16239098 0.32709098 0.52873313 0.5328002 0.5172435 0.58356476 0.5581376 0.55690587 0.26556635 0.22178167 0.26411465 0.37001944 0.41938698 0.48032156 0.31385294 0.26869947 0.44013408 0.5088974 0.55379754 0.2614149 0.2612711 0.25344858 0.5430299 0.23836583 0.24681771 0.33518293 0.7499051 0.799859 0.81748843 0.822128 0.19522712 0.21196829 -0.16216117 0.2768441 0.09093158 0.17371422 0.456099 0.75581914 0.78255016 0.16126251 -0.27330515 -0.18709753 -0.027151883 -0.021989565 0.7134156 0.11104635 -0.37621015 0.58670694 0.5489379 0.43387026 0.27752775 0.035266213 0.672365 0.67060876 0.56960535 0.51317906 -0.06796099 0.50999695 0.6767012 0.670467 0.60288835 0.50932884 0.01732872 0.5937871 0.6798198 0.064040154 0.05862261 0.42638832 0.5555406 0.119760394 0.32883316 0.17045957 0.19191472 0.27409947 0.20465666 0.23946264 0.14969435 0.08212122 0.090787455 0.30887127 0.49655807 0.48137355 0.610048 0.5632897 -0.2096133 0.62344307 0.5830706 0.5439602 0.41971287 0.19082984 0.22588497 0.2152336 -0.17724903 -0.15766002 0.62797266 0.60941565 0.5490364 0.21706119 0.026617438 -0.036584616 0.035040494 0.057195865 0.3143262 0.21370466 -0.0027065827 0.37545383 0.15402377 0.41918975 0.4303909 0.04868879 0.092019066 0.45778483 0.48854354 0.4797055 0.16575447 0.17676625 0.05569139 0.41826814 0.5267726 0.51237684 0.5073672 0.31685174 0.30840933 0.37607145 0.40662575 0.3357365 0.33885163 0.29486558 0.29411674 0.3497352 0.43385574 0.48128924 0.26360118 0.30567813 0.5263982 0.2282761 0.23621905 0.5454605 0.19167781 0.23585355 0.19476204 0.19655699 -0.17527077 0.43524352 0.47384733 0.6045042 0.71704113 0.139681 -0.17766309 -0.16675681 -0.007883702 0.09897209 0.26939553 0.38856977 0.5807104 0.6631584 0.49198747 0.46547595 0.27060753 0.31410894 0.6119646 0.64987254 0.6999891 0.71360874 0.72926444 0.685684 0.6744111 0.5462723 0.70764756 0.64269906 0.63550293 0.54658985 0.37883148 0.06147208 0.57165456 0.6457423 0.2338069 0.1499804 0.38247037 0.4836412 0.2443165 0.24701141 0.253762 0.23177408 -0.04716365 0.14102499 0.21629241 -0.14086452 0.05341713 -0.07290293 0.37032926 0.32010517 0.4328164 0.60333157 0.5740206 -0.18944305 0.6263619 0.6314903 -0.052984156 -0.028108332 0.6286411 0.6333936 0.6157657 0.5639721 0.46659493 0.6168242 0.5979209 0.5681493 0.49259472 0.1543004 0.12078826 0.27067143 0.2841652 0.19841245 0.29688305 0.27065557 0.29551774 0.4190223 0.26467133 0.17650314 0.10011239 0.17301549 0.34196988 0.4469356 0.13405012 0.20247562 0.25575006 0.1323639 0.4040377 0.3124922 0.3030756 0.37526774 0.4270293 0.39251196 0.34810618 0.41290453 0.47213918 0.59782016 0.6036724 0.6529097 0.31522307 0.2950223 0.2515291 0.2853933 0.32931316 0.41361174 0.3120917 0.33799726 0.27667373 0.43576795 0.4615364 0.7022296 0.18843034 0.24973871 0.2723469 0.52972203 0.633036 0.65707123 0.6518933 0.16503963 0.1808007 0.5224529 0.4542901 0.5607563 0.1644254 0.48623157 0.024659872 0.057952642 0.34088814 0.1539481 0.4631704 -0.12588744 -0.12751238 -0.07119514 0.5038712 0.38673383 -0.12247244 -0.017223716 -0.03856419 -0.0135217905 0.5926722 0.5454773 -0.056202024 -0.115127474 -0.10652283 0.627751 0.63105977 -0.1015504 -0.041839845 0.60238063 0.69042265 0.7127894 0.63837314 0.63883346 0.7205585 0.62149036 0.58268833 0.5132312 0.56553817 0.6510521 0.1485673 0.30960667 0.51416016 0.22990583 0.24420938 0.1464045 0.21960412 -0.07315536 0.040288292 0.15825449 -0.14837253 0.037411645 0.23767939 -0.29361638 0.2591845 0.30629277 0.2508933 -0.3482955 0.42698914 0.3836713 -0.046727937 0.09767626 0.5404219 0.12569185 0.2210184 0.6119827 0.26857635 0.6013143 0.61747706 -0.0869148 0.5835024 0.59152746 0.5641813 0.479843 0.37745678 0.0036947548 0.09157482 0.2936481 0.06266324 0.11711913 0.30749 0.27919102 0.11816423 0.26463318 0.15373078 0.3251688 0.33436006 0.3895117 0.34029648 0.43166718 0.53507483 0.6060516 0.51364934 0.59870446 0.6811811 0.6516733 0.1825014 0.20067663 0.30784264 0.3527524 0.6982034 0.73463035 0.24632695 0.30716866 0.19272539 0.37094763 0.44935083 0.5394263 0.6276599 0.696871 0.72416687 0.73018014 0.7554306 0.13217473 0.3696349 0.38407475 0.43907708 0.40226197 0.70090634 0.7597779 0.14530796 0.1450474 0.32461163 0.3120046 0.6046594 0.649359 0.1460028 -0.38489404 -0.05014471 0.40377486 0.53982 0.43861255 0.18856618 0.1677711 0.564944 0.5176906 0.622023 -0.2173515 -0.11825292 0.623945 0.20766234 0.48481283 0.59583175 0.61299133 0.5815338 0.5978984 0.64903057 0.5687361 0.5307536 0.4811687 0.19695432 0.67321444 0.028123997 0.1018035 0.5420594 0.10368303 0.035693638 0.09994298 0.17152941 -0.21881592 -0.05971594 0.04896849 0.084069766 -0.24218118 -0.26873267 -0.38707668 0.29964173 0.1614482 0.11149216 0.41909903 0.15769747 0.20230994 0.4514834 0.2183466 0.26247534 0.2743282 0.5430234 0.2794115 0.27729455 0.53126293 0.50479245 0.50169295 0.4944532 0.4004374 0.288693 0.29214716 0.24866295 -0.006937064 0.0103563145 0.25167483 0.27208757 0.18243334 0.12283106 0.15019178 0.3894207 0.23278588 0.33173916 0.41302246 0.27996075 0.44537708 0.49869654 0.53328264 0.5131872 0.62268704 0.6718513 0.6282922 0.5730765 0.031942137 0.17152362 0.17288665 0.61521536 0.67734325 0.7296076 0.75647783 0.26047182 0.10118475 0.19738922 0.44708464 0.5305052 0.57896256 0.77611065 0.7886646 0.23388794 0.79551214 0.9111339 0.96113336 0.22753154 0.10857187 -0.03443671 0.14048031 0.70794153 0.96137214 0.12766801 0.49258977 0.57720023 0.3555715 0.141006 0.56694984 0.51093477 -0.30326805 0.6199794 -0.4395691 0.08589009 0.6089877 0.14254372 0.38332227 0.556216 0.49138564 0.52681696 0.51555365 0.556013 0.44696236 0.30537903 0.6002162 0.15524536 0.25897008 0.048960246 -0.030894704 -0.101119 0.048681535 0.058837924 0.4124202 0.46054488 0.20933397 0.22533825 0.46952912 0.25743103 0.41230363 0.21830405 0.3201284 0.3501432 -0.09403093 -0.007001139 0.34857744 0.41174608 0.36951435 0.44548512 0.4162667 0.31272572 0.18649083 0.24213119 0.4933101 0.28475773 0.22919607 0.5752677 0.37393618 0.46946818 0.45445636 0.4583565 0.5190274 0.44815987 0.5932026 0.6139325 0.5667534 0.2065047 0.2251493 0.17309797 0.36631882 0.24126446 0.14117047 0.096167415 0.58158493 0.62857896 0.71417755 0.76975006 0.7086872 0.74273556 0.7909 0.3603009 0.3589458 0.2983583 0.03725501 0.50200254 0.5245067 0.81192434 0.8162011 0.7171025 0.7410135 0.8188962 0.90659404 0.93214184 0.34642187 -0.1354031 0.8090358 0.81791306 0.87447286 0.9529375 0.95501864 0.9286524 0.2938619 0.26146033 0.7787683 0.6792911 0.8660594 0.95425636 0.93578094 0.9238349 0.16472147 0.88170815 0.38036266 0.57533765 0.5135164 0.460192 0.015716493 0.10581845 0.15630774 0.5525845 0.4574464 0.16445497 0.17538866 0.5688162 0.1765315 0.16833393 0.5031427 0.37652582 0.33354896 0.30618528 0.14418612 -0.0130575 -0.04912956 0.15144604 -0.106754914 0.008883208 0.2657953 -0.022871524 -0.1868948 -0.2182756 0.0019987114 0.09513174 -0.06797955 0.10967405 0.12318057 0.15288763 0.32049927 0.15765978 0.27060074 0.15121977 0.26168314 0.18484358 0.22699764 0.21180856 0.27363908 -0.095082104 0.3582734 0.117946826 0.42605433 0.48723847 0.50260323 0.44808966 0.42867917 0.3480529 0.36527842 0.475064 0.3349582 0.5466388 0.4619854 0.6249511 0.6035737 0.5456749 0.55475366 0.60496193 0.5926937 0.5650945 0.55655 0.4881047 0.35548687 0.4257814 0.45990193 0.50122774 0.2272093 0.28509352 0.30132604 0.32421115 0.26461 0.43464085 0.4080271 0.14859316 0.07356989 0.5519841 0.60885775 0.6889155 0.6486531 0.64880055 0.66113955 0.7888479 0.8115312 0.4358576 0.41972068 0.09707284 0.4844462 0.48864377 0.52485377 0.72530836 0.8188227 0.66989046 0.8894727 0.8996192 0.400023 0.80856776 0.38838384 0.9025523 0.3435706 0.69087535 0.76770675 0.4407665 0.5948557 0.8865934 0.877909 0.18185025 0.5505658 0.431472 0.48892942 0.6476244 0.77644086 0.84749055 0.8555244 0.22028664 -0.26134968 0.027464537 0.08551944 0.13423929 0.35539097 0.23701379 0.3455869 0.2502067 0.31317842 0.11647579 0.06316565 0.10871551 0.20513912 0.07429284 0.39933938 0.06854469 0.366133 0.3950292 0.04207167 0.38043517 0.09632755 0.14138271 0.20280847 0.16997342 0.20080823 0.07728818 0.21957782 0.0712585 0.21035959 0.42529145 0.11173461 0.08538873 0.42984873 0.51654905 0.16089827 0.3406272 0.4903928 0.16620998 0.2933914 0.30766672 0.3512431 0.1654662 0.41167036 0.47032964 0.51569855 0.474868 0.40186852 0.32811475 0.4980143 0.49543488 0.59447443 0.5295235 0.6449336 0.63368136 0.6263206 0.5669951 0.6305292 0.66808265 0.6572907 0.61236084 0.32556608 0.38178334 0.47227985 0.52464896 0.49775022 0.49434096 0.47000343 0.37196928 0.435305 0.3798045 0.38786304 0.39