# vtk DataFile Version 2.0
Really cool data
ASCII
DATASET POLYDATA
POINTS 5979 float
-72.59408 -9.875647 9.748769
-72.57348 -9.969787 10.371078
-72.63602 -9.226072 8.826634
-72.702156 -9.406111 9.480127
-72.76747 -9.246776 10.42981
-72.6423 -9.253766 10.964433
-72.62014 -8.708352 8.746303
-72.715485 -8.569751 9.642378
-72.732315 -8.600485 10.452953
-72.64662 -8.732885 11.0306635
-72.61933 -8.121166 10.4191885
-71.77693 -11.226799 9.898385
-71.898476 -11.3009205 10.747874
-71.88098 -11.163098 11.28981
-71.96566 -10.026788 8.016604
-71.985374 -10.432952 8.652318
-72.34236 -10.332371 9.524978
-72.46136 -10.23489 10.4508505
-72.22512 -10.124937 11.3001
-71.789566 -10.0894785 11.988074
-71.793655 -9.060827 7.388799
-72.12606 -9.25442 7.772521
-72.433556 -9.413675 8.344201
-72.46883 -9.704314 10.499098
-72.40542 -9.352404 11.365404
-72.0334 -9.277755 11.746265
-72.12396 -8.588813 7.78131
-72.43628 -8.502976 8.331985
-72.37929 -8.688508 11.403727
-71.95169 -8.65696 11.829452
-71.99945 -8.092034 7.9260597
-72.1443 -7.976064 8.452762
-72.26246 -7.8544106 9.625918
-72.33846 -7.872202 10.581754
-72.228966 -8.002684 11.106406
-71.25738 -11.885126 10.002518
-71.19333 -12.165527 10.601107
-71.35973 -11.898152 11.109276
-70.811 -11.950819 11.887275
-71.34333 -10.770257 8.208548
-71.42629 -10.9504595 8.59366
-71.62428 -11.307806 9.76229
-71.33096 -11.216625 12.137081
-71.41347 -9.82879 7.3579025
-71.45834 -10.2174225 7.6722574
-71.33987 -10.885666 12.359462
-70.6694 -10.113335 13.014219
-71.31969 -9.495396 7.289862
-71.66675 -9.691816 7.4807396
-71.46377 -9.563157 12.291471
-71.64267 -8.897762 7.3264813
-71.61157 -8.340177 7.491909
-71.47592 -8.6001005 12.047052
-71.58207 -7.987873 7.8180475
-71.60059 -7.659582 8.572569
-71.5277 -7.5564847 9.519
-71.65924 -7.572423 10.616081
-71.51041 -7.6466856 11.122989
-71.23099 -8.141857 11.822711
-71.41311 -7.4385777 9.727729
-71.23554 -7.4469633 10.295162
-69.645676 -16.702513 10.034241
-69.666145 -16.956423 10.766026
-69.66658 -17.02069 11.429942
-69.58213 -16.988424 11.937079
-69.69874 -15.842181 9.10719
-69.863495 -16.024376 9.616508
-69.929634 -16.375288 10.762235
-69.90582 -16.408957 11.302479
-69.69005 -16.451221 12.155118
-69.808 -15.545339 9.082677
-70.07932 -15.527757 9.636311
-70.18652 -15.452935 10.572062
-70.01585 -15.684779 11.47429
-69.81203 -15.448104 12.165577
-69.8052 -14.684431 8.803276
-70.132 -14.491271 9.7123575
-70.182274 -14.348242 10.433725
-69.92506 -14.666389 11.631449
-69.60394 -14.616799 12.432628
-69.73462 -13.349944 7.6914186
-69.98197 -13.292437 8.290118
-70.218056 -13.185346 10.756328
-70.30357 -13.433699 11.152542
-69.84371 -13.685883 12.279187
-69.68841 -12.422924 13.408151
-69.82915 -11.51692 7.692032
-70.47413 -11.676886 12.686065
-69.99693 -11.055236 13.666073
-69.87817 -11.572352 13.920128
-70.70022 -10.060953 7.2786064
-70.73997 -10.303223 7.460611
-70.17278 -10.611162 13.673374
-69.79539 -10.47855 13.86579
-70.68918 -9.580711 7.166047
-70.45667 -9.792801 13.217054
-70.9143 -8.469631 7.4074087
-70.266174 -8.436377 7.7436333
-70.23825 -8.986704 13.047739
-70.83967 -7.964182 7.8514028
-70.41877 -7.91762 8.407497
-70.64898 -7.6586676 9.652672
-70.76874 -7.6231956 10.353611
-70.304535 -8.334473 12.345438
-69.00834 -17.735357 11.494417
-68.960144 -17.660772 11.96389
-69.136566 -16.93599 9.750972
-69.39159 -17.318645 10.76458
-69.42838 -17.3886 11.481403
-69.22943 -17.199692 12.226018
-68.95143 -16.911781 12.79572
-69.591835 -15.9513 9.122247
-69.631065 -16.341482 9.5800295
-69.50972 -16.548204 12.446021
-69.1281 -16.275686 12.953865
-69.00288 -15.299113 8.18919
-69.455055 -15.628018 8.737419
-69.15565 -15.546647 12.99408
-68.808716 -14.452763 7.1749563
-69.22407 -14.307447 7.6889415
-69.01585 -14.452985 13.02112
-68.680336 -13.734185 6.0315537
-69.20779 -13.365763 6.966817
-69.497 -13.657338 7.3648267
-69.196205 -12.853236 13.503997
-68.66769 -12.5131035 2.1064284
-68.78353 -12.396183 2.4608376
-68.723465 -12.444324 3.1114318
-68.564186 -12.378015 5.168973
-69.12082 -12.618211 6.7759314
-69.14688 -12.574738 14.244679
-68.82479 -12.357652 15.281047
-68.7676 -11.508035 1.8741398
-68.904045 -11.499096 2.4835994
-68.932076 -11.523447 3.111243
-68.722824 -11.903931 3.9977238
-69.04249 -11.55158 15.333346
-68.75291 -11.354464 15.822898
-68.6914 -11.023293 1.9285024
-68.902374 -10.985892 2.6230536
-68.80842 -10.959137 3.3488317
-69.37123 -10.596421 14.503791
-69.0859 -10.848579 15.358224
-68.71482 -10.583426 15.71818
-68.90339 -9.859675 7.1747947
-69.23492 -9.660666 7.872709
-69.24738 -9.961177 14.4306755
-68.76065 -9.73503 15.046365
-69.24562 -9.001338 13.644178
-69.77861 -8.325616 9.068409
-70.03564 -8.007845 9.107193
-69.32009 -8.057077 11.498399
-69.3108 -8.17052 12.30285
-68.483894 -17.837898 10.863771
-68.25423 -17.9359 11.419321
-68.28424 -17.738722 12.257284
-68.50341 -16.937605 9.169896
-68.3862 -17.42795 9.997158
-68.194695 -17.225924 12.962133
-68.62945 -15.990698 8.274309
-68.45423 -16.54488 13.269411
-67.80664 -16.357473 13.755433
-67.703964 -15.364015 5.4991264
-67.868324 -15.147378 6.5416846
-68.19485 -14.109806 5.251643
-68.248314 -14.552924 6.410504
-68.64184 -14.830349 13.105922
-67.771645 -12.975579 -2.861217
-67.91922 -13.075771 -2.313792
-67.98222 -13.208766 -1.6326411
-67.91546 -13.171172 -0.8710038
-68.439964 -12.770456 1.8959687
-68.28554 -13.057809 2.5233748
-68.45234 -12.8547945 3.3335292
-68.016304 -13.634362 4.501349
-68.46851 -13.153485 5.6172905
-68.3543 -12.731819 15.224109
-67.76347 -12.433643 -3.004927
-68.2055 -12.314471 -2.2995622
-68.37034 -12.39212 -1.5418011
-68.26666 -12.45759 -0.9285224
-67.9759 -11.92285 0.5611179
-68.52745 -12.577709 1.8330431
-68.343285 -12.153441 4.238062
-68.42527 -12.818702 5.2260494
-68.45927 -12.406446 15.600045
-68.20602 -12.149754 15.9135275
-67.74647 -11.414818 -2.9333978
-68.174225 -11.717659 -2.3753269
-68.39273 -11.654574 -1.4631305
-68.00628 -11.377936 0.18348171
-68.47451 -11.4612875 16.034563
-67.750244 -10.748402 -2.4045346
-68.231636 -11.086245 -1.6152192
-68.29952 -11.16826 -1.0645313
-68.073875 -10.459084 1.1529464
-68.46278 -10.813602 1.6163589
-68.44243 -10.253451 2.2266521
-68.52764 -10.392545 3.249897
-68.27941 -10.835888 4.49828
-68.07441 -10.799707 6.0303783
-68.29821 -10.547403 16.272264
-68.00617 -9.877192 1.1728367
-68.053154 -9.756317 1.5657104
-68.03435 -9.618181 2.3990068
-67.880005 -9.698464 3.580287
-67.849335 -9.898997 5.9703784
-67.9623 -9.736576 6.560401
-68.24681 -9.702592 7.472499
-68.51721 -9.235548 15.577965
-68.09985 -9.6732 16.343191
-67.775 -9.759517 16.740314
-67.83973 -9.321642 2.289899
-67.852936 -9.212342 7.8530087
-68.32007 -8.4641075 15.504758
-67.90334 -8.544001 16.117939
-68.457275 -8.200548 10.691153
-68.52299 -8.20046 12.935977
-68.242035 -7.517604 14.714673
-68.08892 -7.431078 15.320395
-67.84356 -7.794117 15.919997
-67.9869 -6.9802275 14.756204
-67.84928 -6.9629183 15.283611
-67.50736 -17.901114 10.919201
-67.73158 -17.991566 11.490265
-67.34195 -17.905283 12.122857
-66.85694 -17.106398 3.9112034
-67.00287 -17.31188 4.5522146
-66.76635 -17.601583 5.0162234
-67.110405 -17.07701 9.467083
-67.265785 -17.380571 13.056903
-66.68813 -15.989511 3.2637827
-67.117134 -16.465149 3.9504209
-67.26978 -16.633904 4.2469893
-67.38042 -16.418861 5.4726243
-67.33971 -16.18109 6.4217315
-67.51376 -16.125532 8.093623
-67.087135 -15.498094 3.7342687
-67.37453 -15.597914 4.410372
-66.944664 -13.692722 -2.8142445
-67.074066 -13.848768 -2.2781231
-67.48661 -13.766041 -1.5038031
-67.029564 -13.779776 -0.6700363
-67.52612 -14.199594 3.546716
-67.257095 -13.116596 -3.1150508
-67.4557 -13.461985 -2.5391595
-67.63765 -13.599404 -1.2535971
-67.596245 -13.540133 -0.9248084
-67.45327 -13.009601 0.37346968
-67.614456 -13.3608675 2.3778481
-67.83869 -12.859427 15.103848
-67.04052 -12.448597 -3.5991666
-67.3996 -12.6049795 -3.3351886
-67.516884 -12.599629 15.586089
-67.58417 -12.197783 16.043297
-67.04992 -11.668195 -3.6225712
-67.40635 -11.732988 -3.363084
-67.51329 -11.629963 16.355871
-67.14232 -11.133522 16.799448
-66.75533 -10.677895 -3.7373219
-67.14393 -10.47821 -3.2083457
-67.31997 -10.371206 16.979815
-66.960304 -9.836559 -3.1794086
-67.188576 -9.570231 -2.475948
-67.177956 -9.402969 -1.6218554
-67.27471 -9.928908 -0.4472817
-67.57354 -9.773619 0.6006107
-67.194786 -9.7519655 4.522749
-67.30552 -9.557786 5.864579
-67.36625 -9.534187 16.95285
-66.92089 -9.069879 -2.315103
-67.04073 -9.161826 -1.8693714
-67.16558 -8.884688 1.552428
-67.4938 -8.990717 2.3215368
-67.51044 -9.125597 3.0132556
-67.35811 -9.350231 6.1882153
-67.55586 -9.26748 6.737923
-67.77043 -8.98496 8.709822
-67.07137 -8.349027 16.454601
-67.26695 -8.944111 16.791319
-67.35346 -7.9690356 10.692546
-67.738785 -7.669257 12.027792
-67.72895 -7.7847195 12.39411
-67.29817 -7.6872053 16.173113
-67.0205 -6.816264 12.709904
-67.12703 -6.435627 13.550348
-67.47417 -6.7655134 15.505791
-67.305016 -6.9052315 15.762942
-67.17946 -6.3059044 15.160071
-65.61367 -25.356178 5.04218
-65.676094 -25.328274 5.592282
-65.69711 -25.17771 6.3028274
-65.670044 -24.877106 7.4919553
-65.57041 -24.803514 4.8275466
-65.74029 -24.60719 5.4536963
-65.83833 -24.478966 6.603607
-65.80314 -24.554632 7.419025
-65.66379 -24.370419 8.004552
-65.65863 -23.65814 5.5441017
-65.899734 -23.853062 6.478835
-65.85986 -23.617575 7.356904
-65.65831 -23.66707 8.094763
-65.59599 -22.734642 6.208977
-65.58729 -22.528643 7.016646
-65.587814 -22.957481 7.958839
-65.76365 -18.951527 4.1201935
-65.76579 -17.991234 3.1188078
-66.15434 -17.935787 3.7808475
-66.19258 -18.087446 4.382796
-66.67484 -17.65515 5.280151
-66.24233 -17.6457 10.192182
-66.31693 -17.91707 10.791918
-66.323586 -18.037537 12.057134
-65.7864 -18.16851 13.8639
-66.15344 -17.2487 3.2473936
-66.4819 -17.303932 3.650974
-66.58731 -17.667702 4.250838
-66.58636 -17.098705 6.3067074
-66.84243 -16.931108 9.0542
-66.81376 -16.98135 9.417237
-66.47942 -17.479109 13.304586
-66.032616 -17.384256 14.213283
-66.12866 -16.396019 3.0341475
-66.20797 -16.805494 14.291882
-66.067924 -14.99209 2.7348366
[...]
POINT_DATA 5979
SCALARS features_00 float 1
LOOKUP_TABLE default
0.6019478 0.5648351 0.748278 0.675706 0.6466464 0.62779623 0.8168601 0.77650845 0.72411406 0.6818788 0.80050623 0.4643492 0.439318 0.44630408 0.64331317 0.6072912 0.56630385 0.5360351 0.52291673 0.45835763 0.7477401 0.7391326 0.73705876 0.58671767 0.5960957 0.5653497 0.81790346 0.84269863 0.66696 0.62066984 0.86232054 0.8901168 0.87986684 0.8236142 0.7699429 0.33116668 0.28137985 0.3276636 0.2524002 0.5085241 0.4977627 0.4524361 0.35862395 0.6384472 0.58985907 0.34701478 0.27793825 0.6724651 0.66633725 0.442257 0.7575253 0.8164253 0.56933415 0.8566022 0.88348484 0.8142669 0.78577447 0.74638987 0.6250538 0.77978265 0.7202873 0.50107574 0.557256 0.5757803 0.5723462 0.35876256 0.41928464 0.5189222 0.5391034 0.5391991 0.3321222 0.3811131 0.44480675 0.4924394 0.4651708 0.2395622 0.32946536 0.33464617 0.36886758 0.3382942 0.0629256 0.10826151 0.14768058 0.17307214 0.1510535 0.18466 0.16411135 0.22733939 0.22872172 0.26026195 0.54936594 0.52124494 0.22015609 0.21922284 0.60742795 0.2645024 0.76100254 0.69702536 0.32400084 0.82161236 0.7675841 0.6473024 0.6058248 0.45784286 0.59833395 0.5895047 0.49145043 0.57568216 0.5910125 0.5745294 0.53608024 0.36671522 0.4397511 0.536526 0.4961816 0.21450889 0.30408794 0.44774237 0.036308777 0.079234794 0.26841727 0.0068114847 0.023287967 0.048239846 0.14007385 0.39840293 0.41735512 0.38466346 0.072699316 -0.0041230246 0.32475203 0.46935135 0.4411988 0.4649121 0.45651695 0.35467315 0.4196977 0.4667769 0.42501825 0.4560456 0.45188996 0.26283765 0.3527726 0.3905434 0.004642412 0.19696614 0.22882941 0.2750015 0.22621287 0.5224398 0.6262989 0.24672243 0.244525 0.5801056 0.566792 0.54867345 0.44460666 0.54457486 0.49460822 0.27908805 0.4709829 0.37489107 0.15036419 0.021290585 0.027581088 0.011406943 0.3470557 0.65979576 0.6671865 0.6372049 0.54202175 0.34008178 0.3043094 0.29913768 0.0488083 0.000986807 0.47133124 0.65822303 0.6859504 0.6403228 0.540742 0.34982008 0.37410498 0.27615446 0.029883891 0.49602276 0.5123967 0.6108577 0.65713805 0.58274364 0.32681507 0.5094571 0.5831374 0.5389297 0.45440942 0.33682323 0.38593084 0.40038267 0.41997436 0.31900868 -0.0042996705 0.48159283 0.32553124 0.34813976 0.37068775 0.31295526 -0.017960489 -0.0060008317 -0.008600369 0.33780766 0.44240886 0.49992815 0.34630778 -0.012074634 0.36639366 0.42079067 -0.003289111 0.120947406 0.35624045 0.39855313 0.41236395 0.3725747 0.39436835 0.46934032 0.51076984 0.4512814 0.3043478 0.3146426 0.2934652 0.33270556 0.3670813 0.23199445 0.30517036 0.3168779 0.30284864 0.16695964 0.21643652 0.22399175 0.2364189 0.5868931 0.57534486 0.5790333 0.44922638 0.06820539 0.6303357 0.63294494 0.5761065 0.53650117 0.34616163 0.18618634 0.4186688 0.604922 0.63750494 0.43133992 0.48338342 0.58558536 0.60662425 0.52669877 0.5575092 0.58898216 0.5931729 0.5812062 0.6247568 0.5893433 0.44080532 0.23065227 0.255823 0.04057083 -0.0279078 0.5225958 0.5771443 0.49972922 0.27407473 0.30944365 0.28309354 -0.033964317 -0.037489668 -0.041175112 0.44380626 0.48160225 -0.17074125 -0.06677615 -0.03957001 0.40302795 -0.089298174 0.13342781 0.3790871 0.37150657 0.33822018 0.53802294 0.5614087 0.56871235 0.55572796 0.47640458 0.49745613 0.5310507 0.540642 0.50915885 0.39851218 0.47452772 0.4538569 0.43355578 0.3040932 0.29580563 0.34703788 0.17230587 0.20463175 0.25176978 0.24955955 0.2779107 0.2350001 0.32927912 0.345754 0.33264074 0.23975408 0.27900574 0.29072016 0.21371101 0.22608414 0.2612244 0.29129803 0.34065557 0.2052725 0.3116042 0.08500183 0.21317217 0.54914844 0.49136773 0.50108194 0.41446888 0.012305856 0.55602974 0.57342345 0.2817477 0.40182996 0.5278634 0.52681637 0.59528494 0.58703524 0.63729817 0.6505179 0.5670265 0.64930445 0.58053863 0.4473985 0.29880396 0.16190803 0.21466431 0.011282511 -0.0812607 -0.09044999 0.48950607 0.22700654 0.20693825 0.14168206 0.07802336 -0.12808104 0.359469 0.42862064 0.03702228 -0.097824365 -0.13291448 0.29349524 -0.065720655 0.3150766 0.20139691 0.2909686 0.28718635 0.15844233 0.3638282 0.4596516 0.44278693 0.42696658 0.46792984 0.50632465 0.46298146 0.5058927 0.5373018 0.53772444 0.5659226 0.5458852 0.5302881 0.43861425 0.50962764 0.55103314 0.56091785 0.5804539 0.57180005 0.55017996 0.5442532 0.5392196 0.58101606 0.5835166 0.5413332 0.5632334 0.5774073 0.53754073 0.6113598 0.6007867 0.4646138 0.52215475 0.5745138 0.5813755 0.5618627 0.5115142 0.34987286 0.44337964 0.48859084 0.13243872 0.23835292 0.32200968 0.39521575 0.36525226 0.11967007 0.14343615 0.2329295 0.2380121 0.2680058 0.2691925 0.20428568 0.12867795 0.1458027 0.09713806 0.20257393 0.1610612 0.114843056 0.12472795 0.17650954 0.09412622 -0.013541654 0.023531564 0.00112978 0.05602223 0.1379804 0.18520725 0.11894941 0.033069 -0.12833755 -0.08434269 -0.011960395 0.3713866 0.06736156 0.15016478 0.06686588 -0.16118541 -0.25348607 -0.10841577 0.22731198 0.306923 0.38164622 0.39175698 0.07911716 0.14714709 -0.26402873 0.39096996 0.0669622 0.14756432 0.35833377 0.021740263 0.1292668 0.34377924 0.21706295 0.2532991 0.24262923 0.40410888 0.47172877 0.09392686 -0.0015587956 0.08180516 0.24549001 0.37943143 0.49644363 0.41242445 0.46399552 0.58344126 0.50023466 0.6242037 0.5507256 0.5973716 0.58625364 0.36714387 0.07362503 -0.07856055 0.4686545 0.04532407 0.16522217 0.14253847 0.06497607 -0.04388754 -0.059349835 0.15039633 0.08635127 0.0014143959 0.06528847 0.11173387 0.10619377 0.084064566 0.010642052 0.07960299 0.09170665 0.074162796 0.018908821 0.38344914 0.26162583 0.5021344 0.3281733 0.56378925 0.52640575 0.48554265 0.49031067 0.5210321 0.5441849 0.57512224 0.5512458 0.6188519 0.4669821 0.366544 0.4742393 0.68796337 0.6562267 0.54296505 0.35561734 0.4947847 0.5248845 0.49865913 0.51447165 0.6838238 0.69370675 0.66630757 0.5794544 0.40917265 0.38139236 0.4074304 0.6593367 0.6168225 0.5084074 0.34194535 0.182779 0.45791364 0.4769168 0.40137362 0.2597877 0.08875083 0.35268795 0.3216381 0.561777 0.06803236 0.20625871 0.05467332 0.1629975 0.26123866 0.26326275 0.61846936 0.6126617 0.5519379 0.40819308 0.045997307 0.10387267 0.02531412 0.12859997 0.15907529 0.63309234 0.63274366 0.56125546 0.45364618 0.10252698 0.12084013 -0.035055537 -0.03006757 0.62715155 0.59235835 0.51135635 -0.027921118 -0.052587662 -0.06720767 -0.08460452 0.35768783 0.38399142 -0.0817191 0.38718405 0.373257 -0.0038958723 0.31880528 -0.18598673 -0.2834876 0.12945405 0.2515674 0.15117592 0.07470901 -0.0021306165 -0.3102745 0.3319858 -0.16164048 0.349981 -0.120407104 0.2782976 0.43110108 0.29571366 0.4639601 0.33122605 0.5086526 0.48558533 0.41757938 0.45696944 0.48557407 0.3943975 0.065136276 -0.008677874 0.08205256 0.054041266 -0.032748837 -0.19424565 -0.13627425 -0.019140888 0.07633029 0.08932924 0.6271354 0.49159104 0.36892986 0.11624795 0.08158444 -0.036248915 0.123014264 0.15563111 0.6671075 0.64914995 0.56760216 0.44325104 0.6438752 0.58078104 0.45692283 0.09532125 -0.058430947 0.3993582 0.28111666 0.24226823 0.17351776 0.03217062 0.2796641 0.37770534 0.42046732 0.40871397 0.4266488 0.35021394 0.032031476 0.4651789 0.49502814 0.53786993 0.5195618 0.56607264 0.5781237 0.552539 0.61139655 0.634228 0.57178706 0.619228 0.6138636 0.5208684 0.5287475 0.5509717 0.5171297 0.45820454 0.49717122 0.46858662 0.6303162 0.6064586 0.4047617 0.37257677 0.40167376 0.35585898 0.27182066 0.6176576 0.65266377 0.2491067 0.15982689 0.33364463 0.6169849 0.6642083 0.67884177 0.17768665 -0.06957336 0.35625958 0.53412086 0.59727037 0.5942091 0.6515373 0.08762045 0.07348733 0.2879812 0.53795063 0.53894615 0.51853573 0.30849934 0.39662412 0.33874816 0.36123744 0.5447749 0.5534934 0.3535697 0.033773325 -0.03714998 0.2861892 0.22603238 0.5663767 0.58111787 0.5920887 0.05464755 -0.15828651 0.59391105 0.6204634 0.11290859 0.024616897 0.5815841 0.60411036 -0.107081234 0.24490002 0.5542775 0.33639085 0.052437913 -0.22324619 0.30327317 0.15905109 0.11167435 -0.08128479 -0.15567082 -0.21285152 0.29046923 0.08932601 -0.04588045 -0.2380289 -0.052521378 -0.12957576 0.117149845 0.065528505 0.18135715 0.31005242 0.23947318 0.026948527 0.1560205 0.122197844 0.3004006 0.046042014 0.11576231 0.51565737 0.5543701 -0.12907183 -0.2798912 0.42753717 0.5488613 0.33186758 0.03541687 -0.16636342 -0.20567222 -0.40121186 0.10660175 0.4355442 0.6553385 0.578231 0.27493364 0.044974253 0.054530784 0.25584677 0.6484021 0.20735572 -0.17542273 -0.0035210364 -0.055474102 0.17058258 0.6288791 0.6365092 0.49194232 0.38116845 0.31716314 0.1029147 -0.025592618 0.059998292 0.08809311 0.14926398 0.57584894 0.5575608 0.49551377 0.41392973 0.37228346 0.29893562 0.2530615 0.2570858 0.24090832 0.3710544 0.33342367 0.30850002 0.19639361 0.2338096 0.36454493 0.32606763 0.30672663 0.46041656 0.23136753 0.55294156 0.4912737 0.5669409 0.5911491 0.5651117 0.5033897 0.40204787 0.5174096 0.49490738 0.5047466 0.53381 0.4845402 0.3971106 0.39684498 0.49613494 0.4513672 0.34205145 0.5474233 0.5046375 0.2240088 0.54372746 0.5705431 0.05373475 0.035966236 0.057033993 0.0013806596 0.56133384 0.5975777 0.58752656 0.55395913 0.02481915 -0.073809095 0.15990108 0.31218192 0.47238198 0.5782392 0.52793 0.4372295 0.5344732 0.6566031 0.70922786 0.5490787 0.65990895 0.7188711 0.45713428 0.4402451 0.48883882 0.6326543 0.666399 0.50075895 0.5148746 -0.15830569 0.30940163 0.47493002 0.5221664 0.53262275 0.12006785 0.28712445 0.50054026 0.16783002 -0.023752436 0.42334783 0.027566329 0.18477838 0.12600984 0.116197504 -0.05864737 -0.017676055 0.02412327 0.017064426 0.17777398 -0.05343944 -0.11300013 0.24622743 0.2965374 0.044393048 -0.10754122 0.0790108 0.20914191 0.54512113 0.21150817 0.6047798 0.6295517 0.2376445 0.18178035 0.14807445 0.5825256 0.62548435 -0.43966147 0.5149447 0.6007352 0.58200455 -0.28771555 -0.1769608 0.47012097 0.5723654 0.6078801 -0.11267312 0.15404326 0.5872829 0.579693 0.5277703 0.44068664 0.22188216 0.37649402 0.36780798 0.31493518 0.2702944 0.279242 0.24801317 0.28503722 0.22767514 0.16796999 0.02768448 0.2610827 0.45489925 0.48538718 0.15892345 0.51395804 0.536641 0.13577804 0.1140926 0.2809415 0.54431814 0.51113784 0.43319097 0.27751735 0.36555594 0.41790715 0.33226264 0.5169732 0.6274933 0.55304956 0.68374324 0.69657063 0.7247813 0.7046162 0.8232992 0.82625985 0.7703356 0.45736217 0.42759588 0.36148256 0.43865597 0.23321225 0.22067907 0.2220475 0.42107892 -0.12954342 0.013529025 0.11095461 0.1637382 0.46276963 0.36502355 -0.053014442 0.15641285 0.14478719 0.11440058 0.37943095 0.49928063 0.45819187 0.37797555 0.25251862 0.25327253 0.42957705 0.40348354 0.5990665 0.5438137 0.639307 0.72930557 -0.036143973 0.7381965 0.7322339 0.34149444 0.24665606 0.6667615 0.67623055 0.40774107 0.52040887 0.38982016 0.28782934 0.29615775 0.14471269 0.18128331 -0.030482613 -0.026532758 -0.036644414 -0.09677248 0.19639352 -0.009629381 0.34747344 0.19236793 0.27055886 0.36389396 0.2823514 0.23313479 0.2779284 0.09832671 0.29874712 0.1402196 0.09652358 0.29219043 -0.23958786 0.25315943 0.060751826 0.18499179 0.23693055 0.52257323 0.2765301 0.6310916 0.24724236 0.24175693 0.6538028 0.19291422 0.036388405 0.6221111 0.39651084 0.47037226 0.47017205 0.27569625 0.3469332 0.4093224 0.32308286 0.3696084 0.3157007 0.41104463 0.24003525 0.21041094 0.3006907 0.23522589 0.30730504 0.31166357 0.39425004 0.33663005 0.20529298 0.2917056 0.31911963 0.29918984 0.23948157 0.41343182 0.2672771 0.3974483 0.39214337 0.31831408 0.26598 0.34385666 0.33971658 0.4407645 0.40752047 0.7233174 0.6558509 0.78614414 0.8443919 0.83784217 0.78624904 0.7252598 0.8930728 0.89270353 0.83841145 0.46707416 0.37536216 0.23667127 0.1332857 0.1729345 0.22009997 0.077598184 0.08526862 -0.01618106 -0.060359173 -0.016873466 0.16531473 0.1298453 0.07317191 0.18068492 -0.031644017 0.37997228 0.31674892 0.26861182 0.3671085 0.6074508 0.64428276 -0.15187351 0.6967475 0.7164473 -0.011824869 0.7141317 0.63406354 0.30624914 0.28278542 0.50811446 0.55865407 0.30755377 0.38605577 0.2925143 0.23019338 0.265861 0.27564892 0.11587578 -0.12498446 -0.0172464 -0.14715382 -0.12889034 -0.14108193 -0.12654802 -0.04808088 0.22393024 0.1380515 0.47358805 0.23242214 0.58148074 0.43836743 0.2819712 0.54702544 0.42409012 0.29600093 0.29313612 0.25509554 0.28066626 0.24834457 -0.036699563 0.221403 0.3101006 0.22904907 0.47773194 0.54656094 0.24351709 0.5350039 0.5859271 0.23743746 0.2433696 0.6205689 0.22926497 0.19833854 0.57872534 0.62120605 0.0059854784 0.51597524 0.27760735 0.20149565 0.413774 0.23834313 0.27276736 0.4327097 0.31475443 0.5278971 0.521639 0.20506862 0.0997308 0.30858058 0.3150267 0.5501329 0.55464506 0.49707294 0.437936 0.17293817 0.081563205 0.007438451 0.28380516 0.59824467 0.5911219 0.5630463 0.47178468 0.26748526 0.6273982 0.6063049 0.2688821 0.2944036 0.2646589 0.27835912 0.34018314 0.29968262 0.56792164 0.42611164 0.6964797 0.59349436 0.7734334 0.7963795 0.75606847 0.7754611 0.895657 0.9325704 0.865386 0.6679057 0.59937435 0.5082346 0.5982387 0.63508314 0.5400301 0.36803097 0.24150899 0.48775256 0.5398628 0.17958374 0.20460787 0.22043589 0.17013817 0.094108954 0.17621753 0.18014592 0.05445953 -0.08737305 0.077718906 0.018225811 -0.23336919 -0.0012560263 0.03604726 0.13334188 0.21484816 -0.22234297 0.06782962 0.19338588 0.3462665 0.49041268 0.12088832 -0.26951727 0.58092093 0.6543554 0.6850002 0.1544637 0.11201798 0.6279377 0.12775122 0.55199236 0.33458382 0.41031057 0.34375262 0.3158469 0.24698812 -0.02622034 -0.1796489 0.13906087 0.27105206 0.07801205 -0.20434877 0.116091706 0.2124848 0.41431648 0.24537782 0.2436929 0.6529396 0.1768526 0.69677126 0.6378304 0.24081782 0.23099251 0.7172547 0.6421907 0.62270886 0.4120509 0.22016266 0.24197371 0.2702928 0.1408334 0.095322184 0.35188773 0.43481654 0.26173544 0.2397289 0.525239 0.2327882 0.22441316 0.5496281 0.5871487 0.2224752 0.2140838 0.20071083 0.42042148 0.55236083 0.16295917 -0.14501508 0.097457215 0.070194684 0.093485124 0.2492424 0.23756917 0.42528197 0.28564292 0.3037188 0.5461174 0.022088155 -0.1180927 0.2860409 0.30500415 0.56294656 0.56569076 -0.026438802 0.19247529 0.58786476 0.62798405 0.5303056 0.36855644 0.08590377 0.14416659 0.20175596 0.6431943 0.65069056 0.6243918 0.5588146 0.124235824 0.21586503 0.16741744 0.10885911 0.43274993 0.4948375 0.57844996 0.62505245 0.71954215 0.75321186 0.72353685 0.8061838 0.839777 0.8284621 0.66569275 0.68904626 0.649361 0.5088436 0.6199286 0.43105057 0.32227886 0.23531318 0.23187613 0.4330722 0.23685801 0.2172246 0.06743788 0.022483608 0.13258877 0.1185337 -0.08589532 0.03535977 0.036820553 0.036749296 -0.06471582 -0.09209306 0.022419866 0.008301731 -0.04771747 -0.13410959 -0.0011548251 -0.011492431 0.24703948 0.07090617 -0.035589956 -0.20583187 -0.0553819 0.084396735 0.15253076 0.25482738 0.14916843 0.46975625 0.30540687 0.23478764 0.21786715 0.51980066 0.32291952 0.44906318 0.31187844 0.33238387 0.34599963 0.32896936 0.2925949 0.16306874 0.0805361 0.36974332 0.021267451 -0.36627838 0.3618864 0.38749754 0.33970454 0.0024113506 -0.2143707 0.3790239 0.56780905 0.29666656 0.7027427 0.6527935 0.23262882 0.7378281 0.18615212 0.75078773 0.65817577 0.5229635 0.15318768 -0.20248169 -0.1024409 0.1017838 0.16147009 -0.070738204 0.29769686 0.110733986 0.3656175 0.29192102 0.226378 0.3680086 0.45761353 0.26559207 0.24492247 0.2511209 0.22496398 0.21212065 0.102052584 0.18601054 -0.069627896 0.19095388 0.07990301 0.15785909 0.31416 0.5422021 -0.21465965 -0.21324047 -0.13550234 0.23877339 0.5402106 0.2264812 0.010888096 0.12254948 0.5370685 0.064956054 0.12422845 0.5443055 0.57166076 0.5984164 0.5920696 0.5310759 0.49755442 0.1256506 0.13154227 0.563453 0.56213254 0.51754606 0.096154064 0.06316108 0.06508055 0.47088802 0.2303023 0.61809736 0.6755605 0.733394 0.6624507 0.6356574 0.77642167 0.7828549 0.65993476 0.68671846 0.62229276 0.46527916 0.35739467 0.57947123 0.27002138 0.21497092 0.21182263 0.41645646 0.18002012 0.12653655 -0.035563923 0.054214917 0.14834154 0.06632455 0.041339345 0.107916154 -0.0027060807 0.026043996 0.027057765 0.0939727 0.06688601 0.024926838 -0.013400127 0.15325083 -0.033513032 -0.03379936 0.2773268 0.27480158 -0.07599319 0.27021652 0.13800916 0.2111982 0.29121965 0.27390647 0.35087043 0.41381234 0.28916997 0.3417029 0.27212673 0.28912893 0.26523423 0.26677126 0.29199082 0.30598935 0.24485181 0.30409026 0.20458074 0.3696377 -0.12649503 0.41255185 0.076078355 0.40937707 0.546664 0.3991348 0.34179783 0.37471735 0.6900848 0.62137634 0.32623088 0.34112906 0.72815484 0.20233741 0.28370053 0.7707192 0.7155029 -0.02317154 0.028853571 0.704401 0.60974 -0.1279707 0.27759385 0.14678796 0.3119415 0.31219745 0.30384016 -0.15525155 0.30023015 0.28264228 -0.07480107 0.09130685 0.26916143 0.23865324 -0.22278258 -0.017793905 0.19145931 0.15346546 -0.42098176 -0.22114903 0.121193886 -0.03491255 -0.32102248 -0.3697688 -0.5086857 -0.14719978 -0.013886016 0.024856014 -0.16041175 0.42633268 0.28661525 0.42265356 0.49449897 0.47616625 0.4962616 0.46648496 0.3886171 0.05288575 0.101877026 0.49317926 0.47718257 0.46136403 0.05191669 0.060275674 0.014485221 0.079282284 0.082057774 0.06911083 0.05524893 0.46055186 0.5853152 0.60595703 0.5481317 0.44132084 0.13975045 0.1597804 0.1470783 0.47194576 0.15550911 0.13301787 0.06894663 0.18719445 0.047838956 0.04824602 0.32345265 0.30374968 0.18371107 0.04728028 -0.034580152 0.29185283 -0.036876153 -0.028778791 -0.1313354 0.265878 -0.28873047 0.2368949 0.2507599 -0.26462552 0.26558328 -0.29475963 0.26473933 0.35355848 0.37528703 0.24949276 0.25959516 0.34522185 0.24408023 0.2500263 0.23021318 0.18847096 0.22312863 0.03787318 0.31247446 -0.046341587 0.38482636 -0.12634209 0.4074353 0.5005039 0.115258716 0.3876608 0.5774062 0.4456857 0.31758076 0.35713488 0.6965458 0.6395153 0.30470067 0.64469886 -0.1436618 0.56426084 0.051244885 0.10114208 0.10323835 0.3087782 0.03951232 0.0766797 0.31203365 -0.095294654 0.08053107 0.2850624 0.25460893 0.19941163 -0.36047536 0.13875785 0.1425604 0.08822359 -0.4011929 0.47572976 -0.004095573 -0.40256158 -0.2127118 0.5945729 -0.38335836 0.588294 0.39147362 0.07725956 0.4399425 0.61093074 0.46568277 0.4774977 0.06566751 -0.11904493 0.34943336 0.37003562 0.25852898 0.14166331 0.05990979 0.34808585 0.3243606 0.3641304 0.37559628 0.07494082 0.41234457 0.39586812 0.41907507 0.05735756 0.071002156 -0.18656033 0.08507541 0.09190528 0.09437144 0.11808055 0.14895521 0.08354238 0.50694895 0.6136906 0.42859623 0.30446985 0.13888115 0.1329042 0.6697054 0.66382885 0.5312946 0.12176534 0.10391408 0.6049151 0.5938174 0.5947805 0.46005058 0.017872471 0.122634575 0.21998672 0.2105645 0.1952475 0.04479999 -0.07944081 0.17631386 0.23293178 0.29707915 0.32769814 0.3818628 0.34973958 0.33047476 0.18890938 0.29495338 0.3418981 0.35245156 0.35070032 0.33875188 0.29953206 0.30289873 0.35975933 0.101647235 -0.058949582 0.18281548 0.22623788 0.18012771 -0.33077633 -0.20902169 0.1986327 -0.1280725 0.14842239 0.26534468 0.1814399 0.19935894 0.3319346 0.20725591 0.15331006 0.16404748 0.10244419 0.20784257 0.018586025 0.2303718 -0.05154165 0.24099502 0.2652895 -0.310835 0.27418593 0.3196809 -0.076536395 0.35305798 0.011588186 0.30582124 0.34999382 0.35527733 0.12940127 0.2440383 0.6093445 0.5852865 -0.071637824 0.009873483 0.19782981 0.12562 0.20803368 0.20387186 0.19613259 -0.21528429 -0.3612901 -0.36071426 0.41123098 0.6007228 0.48854536 0.5882593 0.6772625 -0.01831037 0.36937 0.6308119 0.6756635 0.18213715 0.22087951 0.6342237 0.6684418 0.41874248 -0.70487136 0.6292485 0.65664256 0.49298096 -0.10373003 0.13158113 0.3750757 0.48817077 0.59450096 0.53275526 0.5311918 0.06213619 0.34970257 0.45462734 0.51605475 0.45542425 0.22847895 0.17456436 0.47896618 0.40177247 0.32941407 0.24024135 0.32026315 0.34430695 0.07084044 0.033093117 0.0315757 0.39853284 0.08021455 0.49427953 0.13134064 0.1088542 0.59299093 0.49940604 0.5741157 0.5961474 0.67802536 0.6702255 0.67834824 0.67567563 0.6562988 0.5827458 0.67466366 0.6769084 0.67502356 0.640253 0.58350694 0.6904387 0.70343345 0.70515436 0.684427 0.664306 0.655149 0.62637067 0.57504046 0.5295059 0.30300418 0.20174342 0.14261526 0.6725507 0.68941355 0.6924771 0.6293899 0