# vtk DataFile Version 2.0
Really cool data
ASCII
DATASET POLYDATA
POINTS 1404 float
-75.63364 -39.97184 6.084804
-75.67942 -39.931664 6.6226254
-75.56856 -39.94873 7.3729644
-75.64583 -39.38285 5.892275
-75.75773 -39.355606 6.4887333
-75.66048 -39.44909 7.443473
-75.5554 -39.355362 7.956448
-75.61384 -39.03628 5.9040794
-75.67915 -38.894753 6.64793
-75.618675 -38.837482 7.3338633
-75.538536 -38.926323 7.9389987
-74.9912 -40.709843 6.399425
-74.99271 -40.6377 7.440203
-74.78155 -40.647434 7.9481916
-74.98142 -39.99417 5.3077297
-75.27502 -40.16995 5.7391024
-75.43918 -40.30532 6.4027343
-75.30949 -40.318233 7.359491
-75.11477 -40.075306 8.386858
-74.888794 -39.87426 8.915949
-75.04559 -39.3812 5.217288
-75.44726 -39.463165 5.5510135
-75.47163 -39.603138 8.176362
-75.04294 -39.38042 8.927551
-74.93634 -38.821777 5.287352
-75.305305 -38.62465 5.766298
-75.51794 -38.534374 6.53393
-75.43818 -38.412434 7.4151754
-75.32624 -38.67975 8.355208
-74.9706 -38.76808 9.082084
-74.93163 -37.968674 5.9175987
-75.017105 -37.7551 6.3865576
-74.99353 -37.567986 7.2580366
-75.03492 -38.15257 8.256563
-74.61831 -36.48707 6.6194205
-74.596985 -36.33951 7.1578794
-74.54315 -36.439995 10.40443
-74.57794 -35.67676 9.811169
-74.61664 -35.73218 10.487028
-74.5643 -35.86552 10.941232
-74.52658 -40.67905 5.610902
-74.397896 -40.970848 6.4334717
-74.53761 -40.86515 7.592153
-74.403885 -40.76157 8.165265
-74.57339 -40.094326 5.184589
-74.54184 -40.442196 5.4243593
-74.69292 -40.539948 8.322323
-74.53846 -40.09626 8.962597
-73.624435 -40.128082 15.837398
-73.70699 -40.34141 16.556734
-73.65809 -40.151512 17.280096
-74.51096 -39.71596 5.0058436
-73.70665 -39.55928 15.799346
-73.81958 -39.464226 16.629478
-73.66096 -39.47159 17.329948
-74.38487 -38.70929 5.0552726
-73.608444 -38.922485 15.708467
-73.63029 -38.69908 16.315937
-74.3598 -37.657375 5.611297
-74.12178 -37.164642 11.566442
-73.9155 -37.28957 12.343678
-73.59913 -36.954666 14.942222
-74.35327 -36.60936 5.9639034
-74.42542 -36.33453 6.265696
-74.49083 -36.35289 9.036834
-74.24335 -36.77784 9.128773
-74.29377 -36.268787 11.569655
-73.98365 -36.683167 12.708722
-73.95061 -36.694267 13.087412
-73.85577 -36.13133 5.654388
-74.42719 -36.021587 6.7129703
-74.37133 -35.703373 7.400705
-74.3553 -35.573174 9.301114
-74.51042 -35.27465 10.3181715
-74.3514 -35.65954 11.409079
-74.01753 -36.0049 12.498801
-73.7459 -35.50977 13.4395685
-73.89533 -35.246834 6.4973474
-73.89118 -34.98555 7.4004517
-73.81485 -34.744526 8.886132
-74.27031 -35.014748 9.640327
-74.22652 -34.893185 10.504484
-74.016525 -34.903496 11.394696
-73.78211 -34.89899 12.377681
-73.66976 -34.993626 13.108648
-73.01653 -41.82214 6.141082
-73.18456 -41.757534 6.416336
-72.68193 -41.856884 14.851886
-72.83577 -41.844612 15.608947
-72.75311 -41.78857 16.39524
-72.69098 -41.85292 17.241312
-73.01905 -40.98921 5.2659597
-73.24562 -41.214996 5.8171973
-73.27884 -41.233322 8.462302
-72.55213 -41.54028 13.574087
-73.04204 -41.345978 15.593641
-72.94658 -41.66749 16.894863
-73.18557 -41.106285 17.28719
-72.72577 -41.46843 17.889034
-73.445656 -40.663704 5.290636
-73.65058 -40.485836 8.683113
-72.72971 -40.086563 11.498045
-73.21088 -40.585247 15.081598
-73.44239 -40.229443 17.72269
-73.22959 -40.238808 17.997793
-73.33587 -39.68951 4.8916306
-73.2768 -39.11707 11.459575
-73.00246 -38.853 13.443757
-73.20346 -39.62208 18.084862
-73.484665 -38.98366 4.93737
-73.12377 -38.68555 12.402472
-73.45552 -37.96489 13.312531
-73.07988 -38.355026 14.445692
-73.36815 -38.769722 17.319914
-72.9659 -38.98199 18.029469
-73.45618 -36.437435 15.351768
-73.263466 -35.582443 5.6168284
-73.27745 -35.749607 15.245664
-72.967 -35.99089 15.74217
-72.84217 -35.06655 5.2283235
-72.90852 -34.715748 5.6604247
-73.31158 -34.67853 6.2497044
-73.32189 -34.325634 7.1378636
-73.433075 -34.424316 12.52705
-73.42819 -34.82704 13.7322035
-73.244835 -34.618607 13.892406
-73.13395 -35.1623 14.88506
-72.862785 -33.89193 6.4058905
-73.257225 -34.038143 7.8098674
-73.340546 -34.09009 8.4935055
-72.99675 -34.047676 9.45222
-73.63178 -34.357178 10.409516
-73.031425 -34.036247 12.565851
-73.00167 -34.12819 13.256616
-71.84459 -43.00043 14.523599
-71.69753 -43.12719 15.137731
-71.831665 -42.82628 16.608725
-71.8429 -42.638554 17.349718
-72.27994 -42.135616 5.9369845
-72.420975 -42.169838 6.5219226
-72.31177 -41.863735 8.157101
-71.98871 -41.95304 12.4233055
-71.88132 -42.543465 13.442964
-72.525925 -41.819653 14.4876175
-72.2379 -42.40902 15.595115
-72.4105 -42.176422 16.398249
-72.22841 -42.369003 17.326296
-71.99511 -41.996845 18.199364
-71.87802 -41.41115 4.8682346
-72.48353 -41.523182 17.670809
-72.31301 -41.42996 18.2491
-71.90212 -41.259953 18.650656
-72.3936 -40.22977 4.63615
-72.51943 -40.39899 18.485838
-72.54959 -40.05333 18.550259
-72.802734 -39.502945 4.754781
-72.578354 -39.4873 18.387447
-72.267365 -39.98086 18.58324
-72.71231 -38.459717 17.685074
-72.26602 -38.793148 18.152575
-72.39651 -37.669212 4.8772078
-72.544945 -36.6246 15.99573
-72.2549 -35.280445 4.8330665
-72.10858 -35.5001 16.175741
-72.205414 -34.605015 4.947829
-72.60681 -34.453915 14.61966
-72.14385 -34.831787 15.642738
-71.9068 -34.89514 15.98027
-72.19314 -34.023365 5.065926
-72.27083 -33.610035 5.5614552
-72.5183 -33.5301 6.613312
-72.200775 -33.565105 9.168409
-72.65251 -33.94986 10.562574
-72.47715 -33.788166 12.149458
-72.6215 -33.99616 13.502051
-72.610985 -34.19227 14.062447
-71.98787 -34.23282 15.000242
-71.91456 -33.141148 5.8532214
-72.13488 -33.19632 6.2497735
-72.12681 -33.13027 7.599048
-71.73015 -32.65562 8.34981
-71.83506 -33.204067 9.109327
-71.00309 -43.56679 14.3975725
-71.034874 -43.53632 15.01826
-71.03386 -42.920654 6.5603156
-70.80514 -43.088417 7.0364776
-71.127365 -42.910183 12.74932
-71.1228 -43.38565 13.769589
-71.30104 -43.466614 14.44295
-71.16639 -43.292656 15.416393
-71.16913 -43.153202 16.452505
-71.23091 -42.879383 17.458677
-71.31661 -42.741554 17.87741
-71.239876 -41.909416 5.051384
-71.45767 -42.312332 5.6427264
-71.79873 -41.672268 8.804754
-71.144875 -41.81612 10.86742
-71.39128 -42.27494 18.355213
-71.446785 -41.86017 18.666676
-71.10531 -41.098965 4.2381787
-71.25624 -41.359177 4.5301456
-71.34417 -41.43235 18.782684
-71.07331 -40.099262 3.930419
-71.76379 -40.65007 18.746357
-71.50602 -39.28955 4.255502
-71.65038 -39.92142 18.595032
-71.377655 -38.624542 17.97914
-70.57169 -37.10363 0.7373852
-71.40861 -37.43321 17.03929
-70.644844 -36.3751 0.5484481
-70.7207 -36.670174 1.4172484
-70.54025 -36.516277 2.634721
-70.62487 -36.513885 3.499542
-71.6264 -36.64901 16.573627
-71.36728 -36.41269 16.775242
-70.61567 -35.84733 0.67633253
-70.63892 -35.851933 2.5909216
-70.644646 -35.290173 3.5549223
-71.51468 -35.28489 16.489206
-71.09257 -35.49306 16.792545
-71.46354 -34.74701 16.139042
-71.140884 -35.04128 16.600897
-71.47774 -33.877754 11.763596
-71.25953 -33.769623 12.715408
-71.65101 -33.806705 13.606581
-71.57794 -34.006554 14.618118
-71.40023 -34.18975 15.494906
-71.75843 -33.115273 5.618884
-71.76464 -32.909893 6.2739573
-71.681694 -32.698574 7.296321
-71.36004 -32.540714 8.36433
-71.37129 -32.39831 7.8113523
-71.08647 -32.23355 8.106994
-70.444115 -43.580437 13.918621
-70.59104 -43.587116 14.400251
-70.198944 -43.031433 5.942377
-70.20517 -43.259846 6.539417
-70.342064 -43.131172 7.6150026
-70.28173 -43.006336 12.015637
-70.414055 -43.274776 12.702897
-70.54636 -43.458405 13.429082
-70.606445 -43.18842 16.287292
-70.58261 -42.934032 17.40545
-70.48281 -42.726303 17.83134
-70.73792 -42.41209 8.583316
-70.65204 -42.404545 18.26442
-70.83539 -41.97346 18.656939
-70.50375 -41.197487 4.0398703
-70.281525 -41.624374 4.395278
-70.70523 -41.50062 18.770956
-70.88489 -40.70838 18.714348
-70.17224 -39.317245 3.5819385
-70.32212 -39.118122 18.360912
-69.84473 -38.06788 0.22086252
-70.18077 -37.8636 0.52714366
-70.18409 -37.958004 1.2737613
-69.877686 -38.735996 3.5366983
-70.11379 -38.52911 18.34216
-70.02345 -37.236794 -0.1881445
-70.42424 -37.286423 0.38369393
-70.36581 -37.36361 1.8091419
-70.44804 -37.30394 2.3891294
-70.30834 -38.098537 18.077866
-70.20605 -36.473076 -0.21059397
-70.10359 -35.840225 -0.19481844
-70.46711 -35.476 0.7950176
-70.44612 -35.27162 1.3486458
-70.21204 -35.589848 16.99143
-69.82126 -35.185352 -0.16111505
-70.10862 -34.899567 0.752875
-69.693565 -34.42685 1.2040727
-70.0933 -34.846436 2.4806056
-70.565 -34.90501 3.4275813
-70.62528 -34.67757 16.345098
-70.44076 -33.866825 4.3012896
-70.80446 -33.788406 11.806307
-70.842125 -33.915306 13.878178
-70.664986 -33.888885 14.7301445
-70.3856 -34.088017 15.428665
-70.46621 -34.25012 15.8078375
-70.24394 -32.28048 8.936515
-69.57653 -30.520275 3.990409
-69.580345 -30.529964 4.3764176
-69.57187 -30.14519 4.37979
-69.50889 -42.952927 5.938575
-69.68661 -43.259075 6.5725703
-69.61974 -43.246357 7.3750095
-69.52321 -43.004448 12.097031
-69.55656 -43.173016 12.460097
-69.71725 -43.391075 13.398641
-69.51418 -43.26232 14.648971
-69.7154 -43.126404 15.446464
-69.816605 -42.9914 16.33972
-69.84183 -42.80259 17.16533
-69.39061 -41.974384 4.968465
-69.61798 -42.588566 5.397958
-69.61502 -42.448643 17.358595
-70.131546 -42.075718 18.30402
-69.83371 -41.434143 4.2952576
-70.09407 -41.605213 18.433205
-69.612854 -40.4185 3.8758566
-70.062325 -40.660748 18.562231
-69.35167 -38.087303 -0.030175626
-69.51053 -38.381447 0.45660484
-69.65892 -38.373005 1.5333507
-69.66383 -38.265774 18.30171
-69.17502 -38.460403 18.627293
-69.49373 -37.058285 -0.71172446
-68.99936 -37.597237 -0.57756495
-69.12327 -37.136593 18.5941
-69.162315 -36.34103 -0.97186506
-69.13096 -35.69429 -0.8200103
-69.96221 -35.424183 16.764061
-69.09243 -36.23801 17.959301
-69.17432 -34.528553 -0.110845745
-69.55197 -34.452248 15.74955
-70.07439 -34.748646 16.246029
-69.16917 -33.86408 0.64595973
-69.43159 -33.90367 1.6123239
-69.52699 -34.1247 2.833951
-69.16109 -33.61806 3.7581835
-69.21849 -33.893238 12.544449
-69.80062 -33.872295 12.985627
-69.463646 -34.146828 14.618727
-70.059204 -34.108562 15.541541
-68.60136 -33.149807 0.19323385
[...]
POINT_DATA 1404
SCALARS features_00 float 1
LOOKUP_TABLE default
0.7784351 0.7579317 0.6983934 0.7501714 0.7307066 0.6829402 0.6488987 0.7139853 0.6693625 0.6354297 0.62182486 0.7152152 0.65737736 0.595721 0.70365477 0.7558603 0.7700045 0.69134796 0.61420405 0.58183324 0.70698714 0.7486744 0.64163184 0.59915173 0.66735905 0.65110564 0.6115912 0.5620852 0.5740012 0.54440725 0.5093193 0.4545616 0.37641758 0.4613763 0.27259284 0.2395004 0.29252875 0.3256988 0.33910292 0.3415562 0.60535204 0.609239 0.58296776 0.52883357 0.626138 0.6159256 0.5664579 0.53178847 0.48202336 0.577538 0.65871894 0.6171 0.46099687 0.60770965 0.67570674 0.5993807 0.4017964 0.5169226 0.4205319 0.24459496 0.21966697 0.33327484 0.2749543 0.26931733 0.2512566 0.22845846 0.32625765 0.29440463 0.29957205 0.2693719 0.2605237 0.24366519 0.3058669 0.3471125 0.35259283 0.34539497 0.39227587 0.28165781 0.26058492 0.30507356 0.33386353 0.3564865 0.3614448 0.38144007 0.39746186 0.3578986 0.3841703 0.37362087 0.41395995 0.47759688 0.56572783 0.3605958 0.3858567 0.37707716 0.3166721 0.41054976 0.5251364 0.5940418 0.63074195 0.4199302 0.4021387 -0.015991576 0.3532224 0.6670958 0.6594703 0.42455757 0.045994487 0.047462672 0.6523847 0.44919723 0.06916852 0.12959725 0.10924809 0.64916277 0.6100449 0.39898872 0.29152963 0.42103207 0.40860084 0.30002496 0.31012526 0.30058998 0.27832627 0.40362757 0.41005248 0.41579545 0.41933453 0.30424407 0.25972942 0.2603808 0.25091735 0.34558493 0.41627514 0.4203142 0.43309417 0.46039534 0.52983284 0.6153123 0.3381614 0.37053365 0.37957186 0.3788663 0.4252337 0.36340854 0.4350416 0.48496783 0.5921882 0.67200434 0.32955134 0.6231786 0.6572765 0.65876174 0.3110645 0.62859154 0.6049793 0.34153292 0.5718373 0.56388056 0.5144143 0.469035 0.302123 0.35119432 0.21634364 0.40858543 0.25866923 0.43203557 0.44416666 0.4403296 0.28379497 0.30678704 0.28673065 0.21286464 0.24991754 0.39569095 0.42221004 0.42916086 0.45345375 0.29747173 0.28894883 0.23967507 0.22171295 0.21275556 0.4982465 0.50504875 0.51271254 0.53993404 0.46535462 0.47598302 0.4771626 0.507307 0.5613046 0.65556896 0.68204886 0.38121307 0.389056 0.24905261 0.36082697 0.69425625 0.68475056 0.35825282 0.36485216 0.657277 0.2770716 0.59082764 0.23155844 0.47105724 0.29865435 0.61571443 0.21028784 0.5931702 0.5231677 0.3714962 0.23527002 0.3216318 0.3283929 0.51483876 0.30363488 0.07682499 0.412028 0.38444608 0.43958482 0.41070879 0.29853082 0.29737067 0.39394653 0.44170618 0.45611212 0.29693916 0.2737304 0.2312721 0.21979958 0.2178781 0.2242078 0.5108781 0.5127436 0.51031613 0.54090047 0.55913705 0.4603898 0.48099884 0.5007367 0.5714328 0.65354335 0.67307204 0.4756632 0.6877086 0.678529 0.38516396 0.41562665 0.63656205 0.5340728 0.21239382 0.26594335 0.6239502 0.6312951 0.6056017 0.09004824 0.26081452 0.6487813 0.64217293 0.5412668 0.43721935 0.22243425 0.6433767 0.56967217 0.43453947 0.33457983 0.316553 0.43249732 0.33672196 0.22234309 0.1554792 0.042992316 0.39120683 -0.036886007 0.19410953 0.33726507 0.40117252 0.39361894 0.3946429 0.26178738 0.5340259 0.5575876 0.5820098 0.5023105 0.53583634 0.5593048 0.4585796 0.4777084 0.50235033 0.49739984 0.50529075 0.52041465 0.5552108 0.45425263 0.46821356 0.506578 0.63457656 0.40605977 0.6002592 0.3674751 0.47708303 0.6053986 0.6027847 0.56212044 0.2971334 0.33478364 0.61471653 0.57954764 0.3845076 0.51600283 0.43429622 0.3031408 0.32908273 0.28833765 0.26623586 0.3331731 0.20205465 0.12202952 0.009715209 -0.18840753 -0.066210926 0.07665111 0.24591291 0.35146472 0.19360986 0.030312423 0.21551225 0.18643317 0.3025074 0.18866846 0.14765435 0.49123847 0.550347 0.54883516 0.525031 0.5718567 0.5835086 0.5501129 0.47396567 0.56803316 0.48847288 0.52711195 0.5509881 0.43947428 0.45244437 0.45373172 0.42317325 0.44080788 0.4254881 0.34681907 0.33773094 0.39084587 0.38635242 0.3273667 0.37442255 0.26118127 0.12507384 0.29473597 0.40776148 0.5432183 0.32509896 0.50646424 0.5231798 0.35345733 0.35327387 0.53929377 0.41338208 0.40667313 0.38802928 0.43410596 0.29174972 0.20071836 0.34060225 0.20168227 0.12138221 0.12519854 0.17346185 0.21585482 0.20348433 0.012840755 0.23022535 0.22308585 0.20363417 0.15021174 0.27282435 0.2593325 0.13969597 0.16865176 -0.090245254 0.22591569 0.2226337 0.4940858 0.4410839 0.5297487 0.5458101 0.41329753 0.55264145 0.55734 0.52041113 0.4604696 0.354151 0.03563258 0.3403474 0.15190211 0.23500584 0.16309758 0.3319553 0.36240202 0.4545899 0.30392817 0.46147066 0.31725362 0.20647185 0.34065884 0.27141804 0.20948002 -0.031015394 -0.12850626 0.1607486 0.32845604 0.32060465 -0.17652139 -0.03631468 0.24207297 0.25510618 0.24668697 0.37597716 0.29945812 0.21817145 0.19008178 0.29044664 0.28824848 0.38711524 0.32829377 0.33440807 0.49297088 0.37173498 0.46847075 0.4387138 0.21899861 0.11821109 0.031088673 -0.26050183 0.3902712 0.01989393 0.4979748 0.014458194 0.1277576 0.4251538 0.31254292 0.29928964 0.43803513 0.4263971 0.42654574 0.3731185 0.38727474 -0.047163732 0.1141749 0.3725329 0.3389762 -0.048239492 0.29452896 0.1774315 0.37314218 0.22528718 0.4738905 0.43087533 -0.043514393 0.2773921 0.24492717 0.50364196 0.4533954 0.4758934 0.20943986 0.10214904 0.12953007 0.46537328 0.40298927 0.342051 0.28295988 0.32104388 0.2292685 0.22081065 0.09319274 0.06358553 0.12752546 0.037304536 0.3989504 0.409463 0.035282582 0.16553967 0.066222325 -0.22898294 0.5916854 0.514008 0.39370394 0.24828167 -0.14110011 0.6103493 0.5898106 0.56097174 0.4488968 0.3850374 -0.210166 -0.1218692 0.36906162 0.5131285 0.20578215 0.18321757 0.54472244 -0.111294955 0.1854484 0.53759575 0.5213951 -0.27486283 0.2911536 0.5154859 0.487952 0.44699812 0.33551195 0.1105419 0.23890033 0.4311943 0.40020913 0.28881362 0.30254602 0.32697695 0.40195975 0.47891557 0.5190956 0.4967556 0.13552874 0.47273242 0.49396735 0.4725758 0.4479019 0.2756316 0.29182005 0.057886105 0.37389666 0.3039605 0.16938815 0.06954324 0.5416918 0.2018994 0.11568215 -0.09817231 0.60327595 0.5648862 -0.15935439 0.10707127 0.593352 -0.14844784 0.54160964 0.4469043 0.022268474 0.065243445 0.40637448 0.3015276 0.44929105 -0.09431972 -0.08238036 0.40503177 -0.027484905 0.41799328 0.09462129 0.5428203 0.5525389 0.54560727 0.39501667 0.5352167 0.50727856 0.46116862 0.1750427 -0.14828925 0.1707703 0.26962578 0.470156 0.44608492 0.35221934 0.17868522 0.30044693 0.24584627 0.32384616 0.41949898 0.5311361 0.56493556 0.43139368 0.45577258 0.35366315 0.37490302 0.44333833 0.5270629 0.51875275 0.5402312 0.5383851 0.52577686 0.5058069 0.224351 0.20202151 -0.034866378 0.51478547 0.45916975 0.4337908 0.28340936 0.0047263494 0.30826995 0.21458936 0.2605429 0.060670547 0.027036099 0.49226958 0.46611175 0.39088702 0.5029892 0.5930954 0.5830114 0.32461002 0.5310018 0.5271081 0.5391586 0.3697514 0.45550913 0.38412598 0.18058118 0.34009928 0.27402914 0.40730336 0.49147534 0.21711181 -0.066049546 0.5768503 0.6031731 0.25547427 -0.1324009 0.09836713 0.5990205 0.6678356 0.40368515 -0.19033875 0.6500778 0.4563266 0.4349173 0.17638178 0.50847423 0.4929534 0.5099847 0.487127 0.28620452 0.51111215 0.4157733 0.41397393 0.38099083 0.54130244 0.48807874 0.4682157 0.43917477 0.40392217 0.40694875 0.432868 0.52796054 0.5668286 0.4927886 0.44264007 0.41394866 0.45184317 0.62639487 0.6270875 0.50618255 0.4964646 0.51863676 0.5178228 0.5159988 0.51526016 0.51219684 0.4925797 0.46180016 0.15896294 0.14560701 0.11981733 0.05693409 0.2272437 0.21176589 0.5050099 0.37614444 0.27193612 0.13108073 0.47384748 0.5185585 -0.02726274 0.42981952 0.5488194 0.516819 0.57204527 0.43927443 0.5590079 0.40477052 0.41302252 0.2259873 0.3340847 0.27418903 0.31588754 0.27735138 0.42766118 0.49050248 0.18880895 0.49790782 0.54555494 0.17354022 0.67748344 0.23052534 0.6972598 0.7193463 0.2183084 -0.07859932 0.5027385 0.67664313 0.7227641 0.74029136 0.3442226 0.40781718 0.2907535 0.41519135 0.395534 0.47561046 0.47236955 0.491143 0.39382112 0.5274061 0.5095401 0.5088502 0.45714056 0.44346935 0.7169424 0.72844315 0.7211335 0.7354882 0.6884609 0.48441446 0.4711074 0.45604008 0.6191646 0.61091125 0.635579 0.48697412 0.48393637 0.46655205 0.45262456 0.42562416 0.26732212 0.47498712 0.37400207 0.3111388 0.3183992 0.33928242 0.54436874 0.557866 0.5630597 0.5561935 0.33962598 0.536327 0.14307182 0.16952622 0.50260186 0.5877049 0.67507756 0.10613757 0.7396201 -0.052001975 -0.021238752 0.71104455 0.75316423 0.75723624 0.20550917 0.17293537 0.27053547 0.39230654 0.44597512 0.48194623 0.45620418 0.46406913 0.3537264 0.40107492 0.45115644 0.80802417 0.7451314 0.7735673 0.80854493 0.7677897 0.5516112 0.4503343 0.44946718 0.7175803 0.36303294 0.46810454 0.45428807 0.43438888 0.43690446 0.44401693 0.45699662 0.31942177 0.3234357 0.023956737 0.1601661 0.44099706 0.43764603 0.44445312 0.41907498 0.46596003 0.53664386 0.53994703 0.5319017 0.53204364 0.49618056 0.41436884 0.4912569 0.57633364 0.41063932 0.58165234 0.6482736 0.463592 0.6839423 0.15683204 -0.083112955 0.26156926 -0.15119128 0.33022946 0.2866002 0.40000024 0.3789497 0.32904708 0.11823473 0.227869 0.05215002 0.3317085 0.22516774 0.75431097 0.8013484 0.7775472 0.6840268 0.60014427 0.71231663 0.54324085 0.44965482 0.44311896 0.44112012 0.45646483 0.46596605 0.31304136 0.22281218 0.3258702 0.46914175 0.52228487 0.5145633 0.09972772 -0.03367342 0.30778867 0.35079774 0.4302163 0.5168289 0.527553 -0.048827976 0.4917035 -0.12380006 0.13203272 0.4966687 0.31660652 0.46774238 0.19388065 0.26967108 0.41462803 0.32521254 0.4447174 0.3468384 0.52102345 0.4794404 0.39400822 0.5210061 0.47833633 0.51906586 0.47369218 0.38009045 0.35377282 0.1918428 0.47962847 0.54594207 -0.0640739 0.13012917 0.2612767 -0.00834547 0.11888629 -0.09349714 -0.021809012 0.2512251 0.17612596 0.31084955 0.31024602 0.028229147 0.09374987 0.07445683 0.07588193 0.1554151 0.2975132 0.40434408 0.71233433 0.68030113 0.6490555 0.60104233 0.62797177 0.6856805 0.6137935 0.55453616 0.4444435 0.4534095 0.4542367 0.47432315 0.47166657 0.35049516 0.39401022 0.43650484 0.4454042 0.4450335 0.4588352 0.462625 0.46806014 0.53581136 0.52218175 0.34019208 0.36569583 0.43027526 0.5142705 0.5214309 0.06466322 0.011310574 0.24091567 0.216811 0.37463441 0.43745947 -0.1391619 -0.27879637 0.09083094 0.3144831 0.5018511 0.56919515 0.22852618 0.5815803 0.58078086 0.55224514 0.53521633 0.4380352 0.21111155 0.36353248 0.084753856 0.14796561 -0.04626868 0.061369225 0.2780628 0.16576333 0.07371658 0.19064969 0.29943848 0.29754508 0.40228584 0.394589 0.35621825 0.3659409 0.46255565 0.45743632 0.44244233 0.6671585 0.6398138 0.66576314 0.65922195 0.6175535 0.64946353 0.64045155 0.6181073 0.41866305 0.4269486 0.4124405 0.39413178 0.4168377 0.4004901 0.44902995 0.38826025 0.49222714 0.3802446 0.3781546 0.34662956 0.37719318 0.4695937 0.46684238 0.42909846 0.43012345 0.0355714 0.36778122 0.29663977 0.38560376 0.18519777 -0.128795 -0.12084255 -0.17348419 0.19290662 0.29971254 0.2937975 -0.33296382 -0.2448006 -0.23420285 -0.19642742 0.123545446 0.5023967 0.47073847 0.27332276 0.5830021 0.2759851 0.61315584 0.2569557 0.605049 0.57491606 0.10277202 0.52680475 0.47390997 0.3836211 0.3066473 0.20911312 0.3615552 0.15705049 0.15716383 0.35302663 0.39165425 0.057617713 0.28171846 0.37984198 0.10938611 0.041223682 -0.029627264 0.24682406 0.33326334 0.41504318 0.39953083 0.4238548 0.43924856 0.44624022 0.46416938 0.45698285 0.43703046 0.42626154 0.42237556 0.4335273 0.33929604 0.37753057 0.28945902 0.3672691 0.41289532 0.2828521 0.34702796 0.2848274 0.33272037 0.42661023 0.30089283 0.310334 0.0116117615 -0.018736541 0.27815568 0.40751052 0.41354984 0.36057898 0.35368717 0.35112274 0.3912413 0.33761773 0.503373 0.51746 0.29694653 0.5737176 0.5603186 0.29075947 0.6098896 0.59246093 0.28000805 0.27455705 0.5866512 0.5120554 0.45407087 0.4181664 0.12490166 0.33799884 0.44242 0.31991893 0.26232022 0.119752824 0.45058808 0.42315018 0.1271431 0.10879269 0.39481127 0.107106045 0.39449584 0.13871734 0.2605025 0.5125257 0.60752326 0.459878 0.5427083 0.6055771 0.48938423 0.4386831 0.43763196 0.54318595 0.43629545 0.5290436 0.55315864 0.52168506 0.4060207 0.49372464 0.5498801 0.32287556 0.2762729 0.32707047 0.22355065 0.41874945 0.3541105 0.3561182 0.35273585 -0.05262369 0.1354297 0.09466267 0.4066046 0.46325487 0.41987258 0.40093887 0.41364345 0.057193227 -0.047733553 0.40142483 0.4111357 0.46256036 0.21078096 0.3704133 0.4561515 0.21678193 0.30983183 0.5550314 0.4943413 0.38111743 0.32279748 0.2136917 0.23027313 0.46513736 0.41616488 0.25791186 0.17008011 0.15517591 0.20174755 0.32653087 0.40274405 0.07409024 -0.26013944 0.13070485 0.39904195 0.44394183 0.35431027 0.40122297 0.39917362 0.40478373 0.45394078 0.48068684 0.15688716 0.16891916 0.22638984 0.24929768 0.50847274 0.16487654 0.14923353 0.43502575 -0.025987826 0.3633636 0.15403052 0.33510768 0.5810031 0.44865614 0.63197017 0.6452273 0.5073208 0.6465347 0.6598488 0.5001048 0.4444765 0.47050315 0.5683176 0.6624388 0.6081162 0.6257508 0.58856434 0.64180106 0.6391754 0.6144093 0.3773685 0.37132254 0.38031426 0.37659258 0.6158271 0.6004782 0.56870997 0.38912165 0.38218877 0.33291483 0.5633996 0.5534203 0.5109916 0.41712677 0.40810823 0.4096099 0.34355623 0.10166102 0.50840324 0.5429804 0.4864863 0.4342114 0.46084356 0.45311868 0.39858943 0.3570031 0.3993332 0.39751405 0.4089179 0.4370952 0.4414839 0.3321058 0.3166174 0.09683442 0.042918287 0.09531498 0.28890175 0.3576531 0.23438558 0.21217445 0.20396037 -0.0020379461 -0.011761021 0.0072265267 0.22893697 0.23760965 0.37841725 0.36646497 0.08732975 0.15223543 0.06927126 0.40173763 0.45024058 0.3954516 0.2582485 0.44448286 0.45922333 0.48033735 0.46591228 0.12635449 0.3432582 0.34431642 0.30768383 0.39638937 0.3683259 0.33767465 0.3567987 0.3651793 0.31685638 0.5197986 0.3349247 0.29419878 0.47103167 0.11674992 0.3692335 0.56395674 0.61624926 0.45482695 0.6823833 0.6516473 0.50056463 0.5187786 0.67691946 0.5694732 0.53633714 0.6030283 0.71585923 0.67213213 0.64248145 0.48995572 0.51620424 0.6503164 0.634498 0.618857 0.5109866 0.56803167 0.5742587 0.570012 0.6314562 0.5779363 0.58636856 0.3950531 0.48131895 0.41662174 0.39618623 0.4605589 0.4690724 0.30078524 0.47537526 0.48121187 0.33901936 0.32948875 0.35305825 0.35598725 0.46106964 0.512475 0.41308314 0.4996171 0.549428 0.20790815 0.4745646 0.4704444 0.19449309 0.47562498 0.4326347 0.4042886 0.4640981 0.5322626 0.61236143 0.6620348 0.5233221 0.5456576 0.6970818 0.5298191 0.57244253 0.7559324 0.5637804 0.5998304 0.61947536 0.6554721 0.7321118 0.79003584 0.6615928 0.67637074 0.67754877 0.6881474 0.6217164 0.66968656 0.7043047 0.6684692 0.6119665 0.646352 0.65971804 0.5471418 0.5809776 0.61832106 0.61860836 0.6134368 0.5517812 0.57516295 0.6187092 0.6480026 0.68247646 0.59805363 0.5821619 0.6577641 0.65483284 0.6510299 0.7089721 0.730387 0.6287137 0.6755473 0.81337774 0.770034 0.67418134 0.6817211 0.74744123 0.8238405 0.8296765 0.70059144 0.6879512 0.7027264 0.70688355 0.6644187 0.67039216 0.6769717 0.6337471 0.64327955 0.65586364 0.73280835 0.72541326 0.66750944 0.6679536 0.7427997 0.78517646 0.8184287 0.75268066 0.73286223 0.72287786 0.7631289 0.82116187 0.8204682 0.780918 0.699059 0.7298957 0.837027
SCALARS features_01 float 1
LOOKUP_TABLE default