# vtk DataFile Version 2.0
Really cool data
ASCII
DATASET POLYDATA
POINTS 4441 float
27.4744 -30.298315 24.227486
28.116787 -31.836126 23.833818
28.166641 -32.011745 24.553133
28.298801 -31.383543 22.956787
27.833656 -31.210161 23.838278
27.780552 -31.307558 24.248365
27.9209 -31.123367 25.121147
28.25015 -30.419865 22.590034
27.700666 -30.268667 23.606215
27.577646 -30.302904 24.522861
27.935236 -30.499792 25.239471
28.22822 -29.540129 23.03607
27.702074 -29.764656 23.88188
27.687565 -29.77225 24.457344
27.951859 -29.86921 25.189922
28.050201 -29.204535 24.486364
28.101881 -29.284836 24.973318
28.95894 -32.931126 23.770039
28.963152 -33.06941 24.453627
29.096209 -32.905476 25.137032
28.626392 -32.616337 23.781616
28.5057 -32.5174 24.73251
28.57421 -32.201187 25.305359
29.115368 -32.33021 25.931759
28.923458 -31.069773 22.064594
28.904436 -31.473774 22.450989
29.007566 -31.594866 26.126581
28.938112 -30.368156 21.719862
28.658337 -30.471138 25.880451
28.850657 -29.794811 21.876022
28.373987 -29.66191 25.481155
28.855377 -29.46868 25.813091
28.81332 -28.971241 22.256271
28.712 -28.937744 22.523617
28.503674 -28.665304 23.479216
28.491814 -28.81781 24.397554
28.670519 -29.003185 25.22673
29.193647 -28.239403 22.859222
29.043941 -28.26207 23.344421
29.13473 -28.326736 24.070251
29.624863 -32.862106 23.216158
29.531965 -33.125744 23.745476
29.502314 -33.266666 24.455914
29.510225 -33.002 25.355011
29.628828 -32.716507 25.848574
29.415016 -32.259106 22.752554
29.528553 -32.361736 26.088552
29.56744 -31.219337 21.841345
29.702513 -31.636953 26.350996
29.607395 -30.363674 21.395296
29.458359 -30.548138 21.515413
29.612516 -29.782793 21.382183
29.37755 -29.631811 21.518574
29.288443 -29.271376 25.900665
29.659676 -28.750237 21.87148
29.329489 -28.359493 22.434458
29.494 -28.644793 25.420391
29.458614 -29.173145 25.846771
29.69609 -28.072617 22.64211
29.613201 -27.90152 23.54524
29.938536 -27.984383 24.540438
29.428656 -28.274502 24.837831
30.402882 -32.865047 23.246267
30.51495 -32.98128 23.770544
30.253902 -33.225826 24.30436
30.317696 -33.047516 25.357777
30.242033 -32.75168 25.8544
30.323925 -32.202473 22.492897
30.210222 -32.38176 26.151585
30.464075 -30.853994 21.44073
30.348854 -31.3202 21.786476
30.384737 -31.5894 26.386293
30.029593 -30.192677 21.313616
30.473719 -29.608902 21.41008
30.894735 -29.440027 21.603426
30.321442 -29.752644 26.073818
30.233511 -28.612577 21.82735
30.42765 -28.190067 22.200024
30.555464 -27.688707 24.490917
30.927906 -27.638008 25.033087
31.15221 -28.034197 25.628447
30.91459 -27.41179 23.518953
31.011269 -27.220371 24.487997
31.244759 -32.843807 23.59078
31.18606 -32.889088 24.42362
30.898216 -32.962044 25.16906
31.526278 -31.759138 22.282623
31.50416 -32.089733 22.652094
31.542728 -32.478012 25.161009
31.517017 -31.024548 21.652676
31.51221 -30.20269 21.506538
31.621517 -29.777088 21.44547
31.505375 -28.7719 22.015518
31.701973 -28.637821 26.119942
31.677626 -27.817257 22.626724
31.644272 -27.965572 25.797422
31.646574 -27.058802 23.82101
31.358974 -27.087502 24.368637
31.730394 -27.178377 25.129519
32.059525 -32.142513 22.979458
32.14353 -32.495583 24.45689
33.03402 -32.04596 25.387102
31.963528 -31.47884 22.089455
32.02903 -29.377428 21.6574
33.03154 -29.650038 27.10445
32.502743 -28.206156 22.545652
32.69835 -27.604864 26.40582
32.22373 -26.99741 24.797443
32.404003 -26.985844 24.918007
33.1994 -26.116146 31.055054
32.986637 -25.989944 31.120832
33.114742 -25.864212 32.10838
33.426468 -26.065395 24.124134
32.770416 -25.367088 30.736551
32.57239 -25.374851 31.479631
32.85734 -25.394701 32.133335
33.475075 -24.89072 22.761684
33.212837 -24.80627 30.242668
32.91606 -24.654034 30.672089
32.635624 -24.699799 31.477755
32.91169 -24.681461 32.108463
33.144527 -24.133268 30.85703
32.909977 -24.21583 31.43408
33.080376 -24.197964 31.930351
34.23115 -32.723347 25.370245
34.12569 -32.92589 26.041882
33.191196 -31.764307 24.097694
33.656883 -32.080025 25.344696
33.87708 -32.61422 26.35404
33.859764 -30.919306 27.480927
34.351944 -31.059961 34.783417
34.239365 -31.053099 35.333023
34.217857 -30.947756 35.94735
32.97206 -30.229706 22.046833
33.80431 -30.74153 27.520369
34.15046 -30.031809 28.25315
34.078632 -30.348318 34.919544
34.033905 -30.365206 35.431274
34.232758 -30.490652 36.134792
34.24901 -29.667017 34.821003
34.148296 -29.622484 35.44731
34.288666 -29.700994 36.177883
33.707657 -28.90256 22.700754
34.257824 -28.661512 28.142227
33.724506 -26.226795 22.682625
33.34926 -26.430132 25.735006
33.4777 -26.547585 26.009846
34.08826 -25.449999 21.922983
33.67324 -25.511839 24.403967
33.87721 -25.91461 25.769274
33.32394 -25.17252 30.175077
33.30841 -25.561089 32.462086
33.726803 -25.425207 32.76968
33.969234 -24.76101 21.932425
33.62081 -24.507927 22.607214
33.53487 -24.703691 23.380838
33.81112 -24.574749 24.24712
33.677025 -24.530867 30.051306
33.31632 -24.486029 32.4224
33.77946 -24.51991 32.74497
34.21068 -23.79438 22.237793
33.926346 -23.905367 22.700636
34.013035 -23.694925 23.516277
34.09163 -23.872671 24.275085
33.701958 -24.160917 30.136366
33.570827 -23.89179 30.677855
33.617912 -23.72024 31.533636
33.63692 -23.978928 32.212597
33.987827 -24.139076 32.714073
34.319286 -23.314026 23.807093
34.076164 -23.28386 31.010433
34.10347 -23.228792 31.350807
34.982544 -33.679947 25.870564
35.20539 -33.582146 24.791636
34.50356 -33.024097 26.590294
34.889248 -33.075962 27.109959
35.420734 -32.9013 30.86943
35.418457 -32.84541 31.008102
35.37431 -33.369576 38.789604
35.398502 -33.307163 39.51684
34.682266 -32.66079 27.203016
35.064198 -32.255867 27.846165
35.27472 -32.430088 30.64467
35.293167 -32.242195 31.417465
34.892212 -31.768847 35.7713
35.28276 -32.328594 38.775414
35.33037 -32.62214 39.4003
34.525883 -31.05645 23.462532
35.32739 -31.837296 30.255938
35.112885 -31.518028 32.52384
34.826508 -31.25694 33.831882
34.70059 -31.200167 34.473328
34.54939 -31.39874 35.49864
34.555363 -31.14762 36.188705
35.181995 -31.07247 36.95569
35.414577 -32.02559 38.53484
35.38047 -32.03452 39.199787
34.345573 -30.583048 23.159042
35.206112 -30.85077 31.888462
34.908382 -30.439854 33.166077
34.823837 -30.586843 33.81633
34.915268 -30.605204 37.1899
34.386482 -29.163902 22.629778
35.254723 -30.00118 32.62368
34.533035 -29.687025 34.203156
34.48124 -29.295029 34.699257
34.575577 -29.534813 36.60556
35.085453 -29.673372 37.39864
34.255623 -28.505539 22.763517
35.34604 -28.386879 29.450409
34.56633 -28.96903 35.610207
34.86641 -28.976429 36.457115
35.06084 -29.24311 37.164852
34.554752 -27.342716 22.836145
34.89555 -27.823269 28.255087
35.12183 -26.995634 32.445724
34.632828 -26.045929 21.810778
34.88272 -26.492268 32.550476
34.50062 -25.846895 32.729103
34.81696 -25.180187 21.41932
34.551235 -25.542404 21.592815
34.480183 -25.782774 29.903358
34.66108 -25.103329 33.27349
34.76425 -24.988634 21.408175
34.613148 -24.567308 21.562046
34.750904 -24.774317 25.944258
34.819416 -24.598255 33.38336
34.61532 -23.898497 21.97511
34.432262 -23.593325 22.463694
34.297844 -23.407661 23.1466
34.62979 -23.579494 25.018614
35.176735 -24.137466 25.757452
34.72934 -23.395857 30.288076
34.378418 -23.388308 30.470835
34.666267 -23.795519 32.930202
34.769012 -23.268505 22.789032
34.68432 -23.125904 23.636084
34.81578 -23.092302 24.304977
34.896057 -23.19212 24.947071
34.72972 -22.96441 30.637264
34.939083 -22.557762 31.590084
34.877537 -22.72438 32.11028
35.221874 -22.412558 31.221107
35.231136 -22.398407 32.03537
36.39745 -36.825165 19.807465
36.41404 -36.92996 20.086397
36.335625 -36.442795 19.657406
36.301277 -36.579853 20.189177
36.348103 -35.98292 19.63719
36.26831 -36.001656 20.077414
36.395985 -34.99274 35.207058
36.167095 -35.05142 38.76913
36.175453 -34.893764 39.72016
36.16327 -34.7982 39.93696
36.005936 -34.34637 24.983986
35.801952 -34.315643 25.360888
35.779613 -34.17633 26.090845
35.847736 -33.776466 27.081465
35.87925 -34.191216 30.0978
36.059452 -34.161003 31.314976
36.291203 -34.190727 35.637203
36.263866 -34.559063 36.589497
36.219982 -34.762875 37.262894
35.830227 -34.32508 38.692894
35.810375 -34.42151 39.43609
35.990402 -34.10875 40.350063
36.092556 -33.98184 40.68236
35.9924 -33.655327 24.21212
35.518612 -33.674946 24.582626
35.61115 -33.06716 29.761845
35.6253 -33.33971 30.734993
35.71936 -33.448074 31.257336
36.165882 -33.073322 33.251842
36.114506 -33.28 35.877792
36.16135 -33.731037 36.8524
35.521233 -33.507267 38.40315
35.47939 -33.715927 39.40186
35.690105 -33.499317 40.20486
36.14333 -33.77012 40.729576
36.027172 -32.488075 23.850964
35.721138 -32.62702 33.88898
35.59434 -32.39325 34.131973
35.39008 -32.08451 35.043377
35.683193 -32.238415 36.409634
35.711243 -32.621296 40.29741
35.961903 -31.397654 38.97602
35.912678 -31.869715 40.07307
35.58079 -30.261547 30.753681
36.139233 -31.265078 38.89179
35.46001 -28.909227 22.633368
35.55182 -29.382175 32.063828
35.470802 -29.665342 32.42913
35.36504 -29.435793 37.67623
35.499546 -28.645506 29.787876
35.48508 -28.35315 33.823635
35.390312 -28.692648 36.76524
35.799503 -27.200565 22.504574
35.549305 -27.55085 33.50551
35.405235 -28.298906 35.76039
36.027565 -26.623945 33.654873
35.026814 -25.288465 21.437666
35.240932 -25.408092 21.497879
35.98936 -25.109825 33.651154
35.182137 -24.88794 21.405731
35.517555 -24.51036 21.599695
35.31424 -24.044857 21.769672
35.620937 -23.41868 25.535145
35.73391 -23.693535 33.18988
35.833015 -23.339487 22.318443
35.604916 -23.116608 22.624136
35.56195 -22.820024 23.549423
35.378468 -22.886444 24.469902
35.59738 -22.48368 30.860395
35.38985 -22.596823 32.438408
35.608936 -23.194735 32.954166
35.43708 -22.37986 31.042553
35.62596 -22.197039 31.586193
37.144318 -37.61261 19.913656
37.14562 -37.634674 20.447346
37.03234 -36.963306 19.167213
36.75816 -37.148647 19.684145
36.740105 -37.206463 20.601435
36.93747 -37.138245 21.21169
36.81858 -36.459576 19.07724
36.464348 -36.31407 19.360096
36.45497 -36.662323 20.745152
36.750507 -36.45579 21.2316
37.08382 -35.90379 34.900723
36.988758 -35.92103 35.301483
[...]
POINT_DATA 4441
SCALARS features_00 float 1
LOOKUP_TABLE default
0.7213038 0.74857336 0.7549583 0.7412585 0.7473368 0.7461231 0.7450851 0.7541002 0.74087155 0.7130388 0.6988444 0.7323488 0.70763993 0.691723 0.660917 0.6475172 0.6342272 0.7617543 0.7723991 0.75495183 0.76045656 0.7630249 0.75422716 0.71624994 0.6606569 0.680093 0.728963 0.6647428 0.6859602 0.6983508 0.6246804 0.5762969 0.7028512 0.69676 0.6394795 0.6016995 0.5763483 0.6311729 0.5915276 0.5265289 0.69645894 0.7382691 0.75655735 0.7381141 0.718676 0.67122775 0.7044865 0.6140637 0.6791716 0.62877893 0.63209295 0.64645064 0.6685603 0.5174749 0.6800301 0.664912 0.46124864 0.49052238 0.6248679 0.51360106 0.41081518 0.45712343 0.62410843 0.6448528 0.70011675 0.70187706 0.69865143 0.57060444 0.68061805 0.5881768 0.57732606 0.6490656 0.61308837 0.60376555 0.5767865 0.41830885 0.6417919 0.62675136 0.36657876 0.31556803 0.2886255 0.45654976 0.32905495 0.54817194 0.57287365 0.64123285 0.51293045 0.49707407 0.47773993 0.5646205 0.55345774 0.5273937 0.5027351 0.23032765 0.58577305 0.2502491 0.3243073 0.3053667 0.24853039 0.4315723 0.35003304 0.035014957 0.4984727 0.45469654 0.20839815 0.38913587 0.11749782 0.19095106 0.16015492 0.9375091 0.97050416 0.81567556 0.22996859 0.92196226 0.9770318 0.8696892 0.7569925 0.76927125 0.8173558 0.90835035 0.85281426 0.7475134 0.82352585 0.8186147 0.21555763 0.23349716 0.2248397 0.11984046 0.2203758 0.20515674 0.46347916 0.48971733 0.5235405 0.33684087 0.20199192 0.2170984 0.54145634 0.5770136 0.5819625 0.5416353 0.6081893 0.60960424 0.13231184 0.07774712 0.66998845 0.039706673 0.032606825 0.6966159 0.32118997 0.13202065 0.7864014 0.7256824 0.62992156 0.7660508 0.7713115 0.6416154 0.5030549 0.6567693 0.77757215 0.69089204 0.79286397 0.74523675 0.65403056 0.56557465 0.6404347 0.67699814 0.7057025 0.73819816 0.6683583 0.64618766 0.59301543 0.6006357 0.3388481 0.43767065 0.26695368 0.27380168 0.16878086 0.16308694 0.4735673 0.5273244 0.25725973 0.1661607 0.14040498 0.14699727 0.3413505 0.44598794 0.51046216 0.13375008 0.13215996 0.1772677 0.3488837 0.41287476 0.42420173 0.47968304 0.40890282 0.37550026 0.46653193 0.1633168 0.1277779 0.27018577 0.3792165 0.46148437 0.120360866 0.18745655 0.4230585 0.48910272 0.5665014 0.45610803 0.05294119 -0.15242068 0.53884214 0.50245106 0.46575022 0.21898623 -0.026297271 0.1740418 0.55591357 0.34249753 0.47032145 0.66760945 0.63666284 0.69197 0.51408243 0.687691 0.73188967 0.35235816 0.50798905 0.7950511 0.7750463 0.70188844 0.5349223 0.4356086 0.4878055 0.54219025 0.59070253 0.7463206 0.672099 0.62429523 0.56874496 0.523441 0.54283965 0.5849911 0.5302829 0.54333633 0.7657069 0.7644541 0.7638931 0.7574401 0.73587775 0.7215328 0.22535633 0.43042016 0.50756186 0.5177398 0.40356907 0.39383453 0.31620723 0.18780212 0.30714917 0.2804113 0.14441295 0.21441966 0.2716811 0.42762783 0.4975646 0.5353063 0.53881073 0.3495667 0.41880202 0.18569791 0.20246786 0.19844103 0.0682237 0.038129188 0.1384295 0.40998155 0.5154872 0.54322475 0.5406371 0.27535883 0.123033926 0.16981359 0.22019155 0.15378018 0.5373138 0.35113186 0.47844392 0.02579441 0.30086398 0.08438041 0.110085316 0.16521275 0.36552846 -0.2372311 0.12536225 0.3814918 0.20029995 -0.14067252 0.32554764 0.083405755 0.6310961 0.57856965 0.3060723 0.6749644 0.68881583 0.74331945 0.4830894 0.43677294 0.7236991 0.7502314 0.7162719 0.6226723 0.5037314 0.5754905 0.5656892 0.5185673 0.5030118 0.7334149 0.72710216 0.7194872 0.7555617 0.7487945 0.69574654 0.72918373 0.75646174 0.7388363 0.6774727 0.2570293 0.27439028 0.2855123 0.35364178 0.41355017 0.49562255 0.5214284 0.70703095 0.6684917 0.67550874 0.6312106 0.36388755 0.13804647 0.2481054 0.22267368 0.19224449 0.08946533 0.092953995 0.2504179 0.2635704 0.273807 0.31766367 0.4222325 0.49133658 0.5271113 0.5323988 0.3803142 0.47253138 0.37854072 0.35155776 0.38896313 0.26195553 -0.008337989 0.09166505 0.27628112 0.5280124 0.28252527 0.5076041 0.26103503 0.18808675 0.46338275 0.32733917 0.018420313 0.064884156 0.090082586 0.5115511 0.073245384 0.38766506 0.50953686 0.550311 -0.048783205 -0.06558346 0.30499756 0.051172156 0.15361941 0.29346582 0.033981524 0.10322408 0.26730046 0.606585 0.23103788 0.25270665 0.28566846 0.6347927 0.6081287 0.37104115 0.30108958 0.6662005 0.7088783 0.62114245 0.56008863 0.34546694 0.4302838 0.4717726 0.43851638 0.509035 0.68634695 0.68682873 0.6302509 0.4313984 0.6440995 0.6925537 0.6259253 0.47900128 0.6205832 0.40548688 0.16696188 0.11512602 0.20633182 0.25132626 0.28035772 0.34929672 0.4390737 0.49500105 0.52560747 0.518983 0.36512756 0.24538767 -0.101053976 0.05939532 0.18884024 0.04862518 0.02237365 0.5323595 0.52079284 0.51477945 0.4369244 0.303273 0.092582256 0.15648559 -0.15960719 -0.12824395 0.5054382 0.6259163 0.60760885 0.41758168 0.37674004 0.1841953 0.261932 0.21888492 0.44739732 0.69586146 0.6352382 0.52550733 0.7026441 0.65554726 0.5450665 0.30899537 0.04381294 0.4110996 0.4993652 0.5211904 0.0046961606 -0.105744675 -0.008282908 0.56860626 0.56504166 0.24226758 0.4298246 0.5202752 0.5710647 0.57670116 0.2264426 0.24731487 0.36324668 0.47173244 0.5449964 0.39179322 0.23953125 0.10034039 0.39277995 0.480163 0.01476492 -0.060350902 0.17702341 0.109377414 0.60817534 0.6540509 0.12995315 0.35694426 0.26455534 0.3979298 0.5165217 0.43100148 0.51131773 0.5608418 0.559404 0.4601157 0.50389177 0.55913615 0.5384188 0.5430967 0.46866596 0.3453948 0.46190968 0.5278144 0.30262288 0.20125997 0.17343467 0.2072141 0.21030675 0.2544504 0.25868434 0.2992642 0.3116766 0.2483918 0.12860972 0.1432823 0.09541275 0.05946376 0.13085079 0.10766858 0.08577323 0.011952437 0.04417359 0.26368624 0.3004913 0.43532372 0.4947285 0.49641892 0.46246225 0.46499643 0.42043465 0.04358964 0.46943772 0.61111903 0.5592114 0.47164702 0.46579742 0.41049352 0.6975846 0.6507975 0.7685387 0.7187777 0.2828981 0.038785443 0.24955371 0.7686216 0.71364295 0.55521905 0.14786527 0.27885738 0.69779253 0.65072155 -0.06874804 0.30795735 -0.03366375 0.4680134 0.47313985 0.5507939 0.48923057 -0.017759066 0.55508196 0.5717368 0.098867014 0.3191382 0.5109124 0.44962513 0.10764173 0.0561454 0.31669605 0.3830324 0.42921686 0.36170885 -0.104159914 0.079612054 0.10331598 0.10574323 0.32282278 0.14904161 0.127225 0.33740193 0.66244376 0.5304749 0.24032857 0.46925956 0.63636804 0.5682068 0.35610735 0.5369187 0.50243425 0.4214115 0.4729494 0.4909602 0.5034849 0.4947338 0.36528093 0.33449674 0.37255788 0.27496636 0.20095915 0.19880712 0.20373218 0.18535915 0.17528963 0.3196545 0.34580603 0.33607936 0.29578727 0.13269942 0.19683692 0.17867398 0.14337392 0.037232663 0.23236255 0.2817047 0.30677548 0.28229332 0.27045506 0.3078527 0.3273663 0.22302431 0.20404308 0.28326002 0.32045865 0.35365775 0.4178609 0.45406348 0.37309572 0.41663146 0.45799875 0.6457647 0.54276896 0.37270975 0.39167154 0.7223737 0.71572185 0.32308057 0.75322145 0.7747003 -0.007850558 0.12790218 0.78739095 0.00624815 -0.023160245 0.19961187 0.6816287 0.6123704 0.04973749 -0.02671184 0.23460935 0.29165953 0.4353 -0.1935063 -0.21897912 0.3306176 0.35201216 0.54000527 0.49284035 -0.12441475 -0.1606631 0.51087993 0.56058896 0.6054991 0.58840656 -0.034902025 0.42406136 0.5289848 0.59209996 0.6301601 0.06602252 0.06444934 0.26717865 0.18610534 0.0903241 -0.24072848 0.35480762 -0.094939366 -0.11753413 0.1963888 0.25899184 0.5236298 0.052552864 0.023710642 0.67384815 0.2639744 0.41084394 0.68269444 0.64905024 0.5531244 0.47021478 0.48493674 0.6567396 0.56213194 0.40553612 0.4044387 0.4426699 0.47880518 0.57486033 0.5074661 0.506707 0.41970003 0.6278515 0.6341804 0.64898723 0.6738049 0.67582095 0.22687677 0.27313855 0.21164763 0.20968969 0.17649971 0.104443185 0.124353096 0.19375427 0.19245456 0.16912419 0.17284402 0.19195095 0.29653904 0.3760589 0.39533952 0.40002558 0.18336163 0.1928821 0.29916486 0.25675943 0.31213334 0.22042716 0.2705936 0.27570423 0.28449544 0.3331412 0.43873402 0.3240921 0.35497367 0.63115513 0.6960273 0.6737585 0.16692865 0.70897365 0.1389687 0.7314931 0.7513206 0.66950524 0.56651026 0.32067972 -0.02170188 -0.048436634 -0.18113136 -0.1929335 0.22335008 -0.019387797 -0.27314404 0.32341984 0.507934 0.46437407 0.40570232 0.5346749 0.54967 0.5979145 0.5442249 0.58551216 0.6487263 0.5104175 0.21825123 0.014484569 0.56872845 0.5826302 0.628133 0.58847934 0.24565154 0.20950615 -0.35230303 -0.5466935 0.2169199 0.24970955 0.035709694 0.8068862 0.8857522 0.869542 0.8611069 0.40055412 0.39587772 0.13844432 0.04765217 -0.2055952 0.9025985 0.97256786 0.93208915 0.91080064 0.5280845 0.30310002 -0.013725522 0.37133604 0.9469855 0.95983887 0.92977 0.89775765 0.66509396 0.47132745 0.40687963 0.43970114 0.9337503 0.929417 0.9034083 0.6771333 0.5758432 0.4730035 0.5740256 0.40836257 0.44090426 0.67260396 0.32489848 0.6531119 0.64686906 0.50541806 0.6694842 0.68764603 0.68864095 0.6523316 0.5868945 0.69145685 0.6844218 0.3188355 0.34637713 0.35965 -0.0070318505 0.09532232 0.1826339 0.1570634 0.22950569 0.38901386 0.41688633 0.40170497 0.13915324 0.36569187 0.33891025 0.24664828 0.252666 0.16158082 0.21203336 0.50769764 0.20200637 0.22429004 0.21315514 0.611687 0.66463506 0.6292288 0.47960365 0.5686977 0.6763263 0.61346024 0.4583348 0.17968372 0.4859882 0.2352538 -0.10065238 0.4831151 -0.00534229 -0.043005258 -0.118483484 -0.2717444 0.37567607 0.44124454 0.19064203 -0.037282042 0.30939025 0.47246057 0.33474088 -0.008328148 0.13906176 0.5211834 0.4027424 0.33192757 0.29697347 0.0021478613 0.53518486 0.5857116 0.45265245 0.28954256 0.02532566 0.5708302 0.5227369 0.26883233 -0.7684299 -0.007884918 0.56544125 0.61694 0.63887984 0.6532208 0.23924418 -0.314726 -0.031359464 0.71040046 0.6955197 0.7082759 0.7797284 0.7582979 0.27185562 0.34206718 0.003748292 -0.26236606 -0.28885043 0.816841 0.8530964 0.8257054 0.40576148 -0.06450583 0.18786424 0.8640045 0.91783947 0.88530135 0.8369652 0.42751902 0.50787914 0.28977194 0.32356882 0.8863199 0.89195585 0.87494457 0.8292359 0.5783714 0.5243674 0.42148623 0.5844541 0.3140759 0.33068675 0.6143079 0.62557775 0.6812626 0.652715 0.51696783 0.64995885 0.67895323 0.6601599 0.6259807 0.5765352 0.6806532 0.6669576 0.6387924 0.113790125 0.081601515 0.15513209 0.33408555 0.34630933 0.34873563 0.65310574 -0.14201027 0.029882178 -0.06624475 0.18405163 0.15646683 0.36800808 0.38138914 0.722294 0.6448835 0.34852967 0.28703502 0.7272205 0.18378374 0.41280937 0.47533172 0.019442348 0.07289695 0.45397642 0.6248568 0.6367629 0.5186958 0.6283196 0.6093431 0.20313573 0.58901095 0.53409386 0.033549666 0.030786268 -0.07915006 0.5442111 0.269091 0.1049505 -0.07522469 0.51428896 0.5466098 0.25415993 0.09381297 0.12393388 -0.06922358 -0.052797064 0.46553993 0.38988525 -0.0634115 -0.04704609 -0.132182 0.20112148 0.33908495 0.2458272 0.2840693 0.1460061 -0.009686362 -0.03488271 0.062921 0.46835783 0.36899713 0.2997061 0.29511622 0.19413815 0.37099358 0.33701319 0.41653466 0.42150995 0.2632708 0.268522 0.27623636 0.26014912 0.14826636 0.48110068 0.15909271 -0.5664277 -0.5789758 0.05788997 0.1348691 0.54061824 0.5231571 0.58091795 0.28210646 -0.39889544 0.7269777 0.5570072 0.34922254 0.11102329 0.12180392 0.80144453 0.66253537 0.39742807 0.47253948 0.2452552 0.74050426 0.81649226 0.8043703 0.7910688 0.72164 0.56832147 0.3383479 0.4888956 0.28115252 0.56089056 0.59074885 0.6149756 0.49290895 0.29740363 0.2863828 0.6557305 0.48213235 0.64053524 0.65766597 0.6586484 0.5940443 0.5473722 0.65733147 0.63801205 0.6280006 0.37725726 0.4448281 0.42125165 0.18923421 0.21853735 0.3808911 0.42171437 0.3455185 0.6019406 0.28470308 0.13188092 0.3082267 0.021005683 0.06535747 0.3372664 0.33991456 0.74374664 0.65926754 0.54922664 0.22444874 0.03794694 -0.00017170608 0.03370659 0.038178235 0.28766716 0.31222177 0.31223363 0.8334002 0.7717977 0.30751193 0.8306736 0.74286324 0.18941113 0.21022506 -0.16271834 0.50538194 0.54737145 0.6388202 0.64292824 0.0058320668 0.62692153 0.6045403 0.5815048 0.010501586 0.5344727 0.03581713 0.5436368 0.16505623 0.1514292 -0.21873246 -0.27595297 0.5245766 0.54196894 0.17449644 0.13700038 0.1786851 -0.6804862 0.5104955 0.1533277 0.10329738 0.3881941 0.27388483 0.2011387 0.12616888 -0.11597508 0.10255796 0.15276217 0.21122716 0.10937251 0.17985556 0.33211094 0.30299032 0.06943078 0.21562791 0.098698236 0.21416494 0.4106921 0.37899423 0.1387546 0.18123518 0.08574914 0.16480178 0.48389745 0.16586241 0.1023114 0.18034971 0.55529785 0.45137152 0.25353488 0.27507085 0.636193 0.4182548 0.3788097 0.12825948 0.6728456 0.6358079 0.5874529 0.5080639 0.5160842 0.5649571 0.27119806 0.26517037 0.57582295 0.5814969 0.5191966 0.28999886 0.29048428 0.47893906 0.45234892 0.36242068 0.560373 0.57219493 0.56426245 0.54804474 0.4104729 0.40335062 0.33103824 0.41747344 0.4315396 0.40099746 0.35211486 0.19883776 0.3365785 0.22194654 0.72091264 0.6042255 0.44297934 0.23133312 0.08899373 0.0584727 0.06077422 -0.122109026 -0.14808673 0.025852978 0.30743426 0.8697404 0.7770018 0.26245004 0.23512113 0.92333156 0.8803662 -0.022240385 0.20388019 0.73874414 0.60480964 0.28380933 0.5810855 0.066456035 0.63498175 -0.29574108 0.571795 0.56713855 0.60350215 -0.061289527 0.52839506 0.52356017 0.020480346 -0.004004389 0.43346554 0.5107356 -0.037769325 0.43530357 0.49420232 0.09028365 0.106885076 -0.35240382 -0.46345288 0.46589145 0.49919546 0.10408522 0.05879821 0.15313452 -0.48066866 0.37810612 0.42700803 0.056296203 0.00059722364 -0.42904374 0.1820523 0.35022235 0.024913758 0.08414388 0.1488719 0.09437671 -0.20646685 0.12703119 0.15376697 0.21257246 0.16644888 0.16788206 0.17082918 0.35528898 0.26499185 0.24442169 0.23823866 0.21908806 0.22214007 0.3925612 0.14415462 0.21712613 0.1317354 0.22751926 0.22938657 0.39813352 0.102403566 0.12217946 0.13720883 0.4198017 0.43581748 0.19633362 0.023512654 0.5470032 0.2739731 0.31878594 -0.31990552 0.08451627 0.17909066 0.5082268 0.49035892 0.51237404 0.4820379 -0.25152332 0.2630691 0.21765465 0.23722242 0.28196806 0.27245995 0.3787738 0.41965514 0.36071968 0.4371987 0.38424456 0.38324663 0.3653774 0.32486513 0.31551364 0.29087967 0.22150126 0.102784455 0.15278934 -0.050603 0.7131009 0.6146575 0.41508955 0.20166716 0.07880455 -0.24860725 -0.13789281 0.83932996 0.7858896 0.049657382 0.8654369 -0.21956033 -0.11439969 0.8063543 -0.037684523 0.17471047 0.2616577 0.31087223 0.33541885 0.6973727 0.5986433 0.28623724 0.3147168 0.42788744 0.30740216 0.38979286 -0.11981198 0.22712938 0.41060552 -0.041199386 0.020207427 0.020445127 -0.31272668 0.24036855 0.106063284 0.25009388 0.069867544 -0.055184618 0.046392232 0.13572659 -0.4041682 0.19719902 0.043016594 -0.041546047 -0.37187928 0.08851293 0.03639043 0.08018585 0.18084912 0.06548839 0.13408513 0.22409469 0.3458048 0.10985601 0.120360896 0.2140614 0.28035778 0.22090998 0.19047858 0.29856884 0.25537437 0.21588464 0.27535716 0.33228186 0.10998135 0.24586362 0.27969888 0.3457304 0.36095786 0.095347606 0.23093271 0.14324118 -0.11668703 0.1816661 0.3446059 0.15124366 0.117853045 -0.37519553 0.09586704 0.35791612 0.3703137 0.3666652 0.3201157 0.1714099 -0.44137138 0.15596332 0.036658585 0.18021561 0.21685013 0.25625783 0.25557166 0.4674179 0.26849067 0.27518278 0.26319826 0.27722937 0.4250785 0.42156255 0.34297508 0.37224308 0.37218702 0.4032626 0.33069178 0.25809282 0.13182612 0.14064726 0.17764185 0.20537812 0.55592227 0.1440841 0.058545917 0.06681243 0.18218872 0.7778169 0.7489794 0.6204287 0.29353294 -0.08955464 0.7495377 0.6777987 -0.3692671 0.16530564 0.70875514 0.5758218 0.117789134 0.22580014 0.31584042 0.34315455 0.39158416 0.66358244 0.5084602 0.37183332 0.41634253 0.20465477 0.44995216 0.49870348 0.5361849 0.5010801 -0.16395684 0.26474896 0.22206785 0.009114858 -0.13152416 0.17055629 0.02062165 -0.20962024 -0.096045315 -0.29362586 0.21679264 -0.09697522 -0.33660018 0.045827627 0.05375967 0.061017185 0.11843026 0.12959665 0.055898137 0.09065984 0.35411876 0.05929844 0.111189954 0.1817564 0.19986188 0.10615797 0.21558324 0.24082214 0.2935241 0.2420542 0.18533352 0.2637829 0.36827332 0.235199 0.078363985 0.11672006 0.27505162 0.45021427 0.41900057 0.27579302 0.07330759 0.099459946 0.27897012 -0.119296215 0.016976897 0.18288904 -0.08331747 0.24730611 0.24275394 0.1574987 0.17433143 0.19954132 0.22800618 0.19117786 -0.1374711 -0.00097549707 0.26073283 0.3576162 0.44736785 0.26920384 0.48031968 0.46550086 0.34075814 0.42227596 0.47002605 0.4881318 0.46169657 0.3336146 0.38461965 0.36745533 0.26216117 0.17656733 0.21831396 0.31415164 0.03796708 0.046416424 0.16905308 0.2837099 0.3277111 0.030482754 0.049183067 0.27006608 -0.009994775 0.6579944 0.64863795 -0.037835643 0.4702197 0.05259846 0.025873851 0.17447485 0.2684328 0.30044147 0.35369262 0.42006928 0.43325806 0.4784615 0.5099816 0.57445 0.60391533 0.015187429 0.5852685 -0.050462358 0.5071203 0.4585997 -0.14893384 -0.28396314 -0.087108426 -0.048383135 -0.046497907 0.24858618 -0.18256542 -0.026385494 -0.20157625 -0.22135198 -0.22264257 0.18997093 0.22468272 -0.02184735 0.00752414 0.08090559 0.157253 0.0060119517 -0.010572087 0.08280485 0.28343728 0.048579026 0.029605042 0.2939253 0.2627557 0.18451285 0.12630846 0.05798266 0.16592994 0.23868528 0.3283037 0.33865756 0.26792935 0.17966881 0.14078127 0.43577564 0.40338755 0.49574736 0.39988178 -0.012929138 0.05573544 0.28957856 0.2590426 -0.31452715 0.17332771 0.4383395 0.4655246 0.507871 0.28852585 -0.2499126 -0.22843942 0.5186023 0.34544536 0.017404392 0.20223153 0.18020368 -0.17215568 0.35344887 0.2571483 0.16344382 0.12246162 -0.03249366 0.2641212 0.27652407 0.18187784 0.12690836 0.02953162 0.29310042 0.36459595 0.13656835 0.41472626 0.46520886 0.4185375 0.35707086 0.42623073 0.5257561 0.4726381 0.52023154 0.52463555 0.49237037 0.4043704 0.35623002 0.42160714 0.32978743 0.39266515 0.49290228 0.5761968 0.32491484 0.5110735 0.5557221 0.47263506 0.288191 0.17433277 0.110532954 0.113315284 0.06023617 0.2871046 0.2686526 0.023719177 -0.0640333 0.051405333 -0.031493954 0.193136 0.27930573 0.2938676 0.33703703 0.47700703 0.56788236 0.60224164 0.030048475 0.034467954 0.63250685 0.6387687 0.04693526 0.6224223 0.029499551 0.5369471 0.5145457 0.40253204 -0.06811476 0.30585128 0.2503452 0.25932398 -0.10658221 -0.047259785 0.03354629 0.017328667 -0.011721723 0.22593412 0.23774603 -0.057444826 -0.1400396 0.030998215 -0.2460368 0.13657771 -0.061677802 -0.18084681 0.004524652 0.12687017 0.16305275 -0.054936886 0.33580014 0.15168928 0.012329951 0.13454835 0.05405136 0.057588555 0.43616772 0.32963312 0.041574024 0.12355895 0.32709616 0.38072342 0.56605446 0.54063976 -0.17185473 -0.038329687 0.21932623 0.1847427 -0.46421272 0.4421215 0.46342134 0.57321113 0.5610895 0.043608233 0.051932305 0.23193851 -0.2396161 0.5467466 0.11137337 0.0617086 0.022067204 0.42741495 0.17879286 0.09660186 0.12548509 0.30395567 0.28994617 0.24937603 0.21850394 0.10884884 0.170778 0.4270404 0.22669931 0.22375633 0.22759578 0.31571186 0.17847265 0.33343664 0.4099844 0.4425817 0.4041748 0.44284528 0.34175974 0.21705355 0.19500983 0.4363789 0.4181154 0.5462345 0.5384754 0.49963397 0.43607336 0.5158389 0.61091095 0.65736234 0.6441113 0.3712824 0.49903265 0.5543386 0.35701364 0.3092159 0.22431086 0.09868537 0.012654826 0.35094076 0.46938217 0.36482096 0.34330177 0.2289612 0.073024414 0.117838964 0.1532993 0.22619092 0.27778557 0.0698186 0.21559855 0.2358098 0.5237297 0.04310891 0.14775804 0.3842645 0.5612103 0.6297248 0.63880897 0.05285848 -0.11413048 -0.10549759 0.29310086 0.48937017 0.5757674 0.61513376 0.014776669 -0.30616355 0.38098723 0.5346936 0.5588944 0.0050921813 0.3220366 0.3620474 0.45637804 -0.005916262 0.26839897 0.3142949 -0.007507801 -0.12223763 0.24096373 -0.15148905 -0.1830279 0.19615483 0.2102763 -0.10973905 -0.017536027 0.007925376 -0.36564824 0.17560959 0.350608 -0.16154109 -0.12569381 -0.027267631 -0.3064763 -0.30352038 -0.08268403 0.06098571 0.18708292 0.2717937 -0.11710319 0.07363196 -0.11276773 0.27683157 0.19395846 0.123941645 -0.20455682 -0.3520579 0.46390772 -0.26834324 -0.30467254 -0.20292033 0.562492 -0.10996006 0.1160149 0.02680099 -0.43266472 0.59242564 0.101579204 0.18227275 -0.18010737 -0.06696816 0.5893741 0.578