# vtk DataFile Version 2.0
Really cool data
ASCII
DATASET POLYDATA
POINTS 8265 float
29.456774 -24.552305 12.563029
29.471302 -24.59501 12.965424
30.04308 -25.666744 12.812964
30.225742 -25.756115 13.345892
30.00496 -25.060406 11.891398
29.732182 -25.18063 12.503327
29.801096 -25.194885 13.312059
30.25827 -25.294537 14.114298
29.806343 -24.472034 11.880714
29.526129 -24.56132 12.322792
29.599535 -24.407015 13.280902
30.002691 -24.48877 14.027061
30.35901 -24.01482 22.055408
30.184168 -23.993391 22.744383
30.288795 -24.02981 23.347136
30.082033 -23.77019 11.675234
29.709631 -23.730679 12.427918
29.744526 -23.832773 13.393299
29.958103 -23.763624 13.841469
30.391241 -23.756138 14.780739
30.280226 -23.110218 21.059212
29.942554 -23.129705 21.751244
30.003677 -23.413286 22.720577
30.177597 -23.498426 23.376722
30.343296 -23.630669 23.764944
30.26219 -23.072071 11.875845
30.159998 -23.04533 12.614236
30.10878 -23.160454 13.35046
30.084911 -22.296211 20.693773
29.722008 -22.367577 21.588943
29.784744 -22.691803 22.423372
30.13844 -22.826609 23.221395
30.017883 -21.670786 20.813627
29.717388 -21.629133 21.655563
29.873514 -21.6238 22.350029
30.16597 -21.576075 22.749086
30.170702 -21.172243 20.820616
30.020697 -21.054544 21.726837
30.058783 -21.127087 22.145533
31.215065 -31.910564 19.65157
31.182308 -31.967434 20.159895
31.179512 -31.366915 18.963087
31.021357 -31.482494 19.571175
31.116755 -31.428219 20.476727
31.310127 -31.529957 20.97553
31.21458 -30.700848 18.958305
31.024769 -30.768673 19.628864
31.086567 -30.843388 20.413908
31.24246 -30.742914 20.838972
31.365984 -30.115612 19.103292
31.27381 -26.670143 13.833694
30.446274 -25.77117 12.54403
30.686821 -26.149511 13.392226
31.113947 -26.441175 14.498359
31.126223 -26.388695 15.366595
30.530466 -25.181864 11.711981
30.53704 -25.374006 14.706364
31.059326 -25.4078 15.698383
30.95331 -24.746906 23.417122
31.122984 -24.707218 23.83531
30.716993 -24.282728 11.212281
30.296642 -24.713821 11.504287
30.768261 -24.483408 15.260153
30.874224 -24.264336 21.694338
30.476595 -24.410126 22.781162
30.666178 -24.385502 23.60461
30.85485 -24.19579 23.961061
30.736593 -23.427828 11.148212
30.41187 -23.304296 11.434304
30.51061 -23.332502 14.550683
30.621689 -23.665049 14.99376
30.73306 -23.546034 24.05172
30.936071 -22.905928 11.21184
30.68657 -22.810795 11.688608
30.489319 -22.666492 12.9214735
30.683075 -22.699612 13.477683
30.864273 -22.761951 14.3230915
30.784071 -23.185003 14.9751425
30.618647 -22.326212 20.15103
30.685553 -22.38027 23.512337
30.740442 -22.818596 23.84537
31.12837 -22.352797 11.855752
31.03991 -22.362951 12.412478
31.250849 -21.874489 19.525915
30.621162 -21.815083 23.197348
30.618523 -20.646437 20.79752
30.57724 -20.61247 21.51609
30.40342 -21.012241 22.428936
30.543747 -21.258461 22.7876
31.204569 -20.188463 20.732952
32.185024 -32.709732 19.014858
31.897102 -32.21602 18.85086
31.592182 -32.45662 19.447031
31.448338 -32.24201 20.12465
31.580214 -32.020836 21.144377
31.923323 -31.491413 18.333038
31.500515 -31.445608 18.653267
31.602419 -31.73152 21.316875
31.794794 -31.082897 21.657295
31.846975 -30.57684 18.2599
31.41728 -30.594622 18.664772
31.52825 -30.802023 21.214548
31.92999 -30.75622 21.68383
32.046707 -28.669111 15.830338
31.650194 -29.688358 19.4998
31.462593 -30.063074 20.41309
31.911798 -29.680544 20.957426
31.709517 -28.100975 16.229198
32.004723 -26.735502 13.077277
31.714476 -26.998135 13.732677
31.643028 -27.42994 14.660016
31.568645 -27.339897 16.39053
32.049377 -27.354738 17.153534
32.436687 -27.766619 17.854465
31.628096 -25.910116 12.328988
31.463783 -26.136028 12.688307
31.32337 -24.970808 11.371563
31.398245 -25.06757 11.507703
31.720703 -24.9186 21.87226
31.821714 -25.221703 22.566397
31.45533 -25.03294 23.379684
31.644432 -24.819656 23.829166
31.383257 -24.313967 11.078547
31.49356 -24.339407 24.106672
31.37535 -23.46675 10.86977
32.30657 -23.781855 16.759003
32.194683 -23.421116 18.824678
31.451101 -23.563139 24.23317
31.475729 -22.792229 11.062404
31.825592 -22.447456 11.381939
31.375393 -22.60425 14.718877
31.313156 -22.916119 24.063173
31.468975 -22.292244 11.738896
31.498394 -22.2017 12.268262
31.661505 -22.25532 13.773334
31.449411 -22.44402 14.236723
32.14773 -21.31159 18.327948
31.92306 -21.743227 23.252337
32.344124 -20.545639 18.23458
32.17011 -20.612036 18.519749
31.308949 -20.75436 22.486866
31.663568 -21.2759 22.966616
32.20729 -19.534752 19.487247
31.86778 -19.831577 20.54628
31.412441 -20.19254 21.362318
31.974794 -20.125011 21.776804
33.330837 -35.90301 20.662872
33.34379 -35.477856 20.079916
33.18213 -35.50853 20.571445
33.178814 -35.325222 21.150673
33.41127 -35.001232 22.251394
33.440544 -34.066647 22.765532
32.397 -32.970997 19.357773
32.632847 -31.942993 18.277216
32.84681 -31.327711 17.842363
32.87614 -31.569477 22.060932
32.605774 -30.397932 17.790749
33.15219 -30.849958 22.186426
33.058243 -29.487007 16.395203
32.319973 -27.646011 14.20605
32.285034 -27.651184 14.574087
32.929813 -27.380453 18.713516
33.30534 -27.304073 19.57117
32.40743 -25.942133 12.285874
32.238003 -26.070559 12.598907
32.575054 -26.179379 17.601582
31.959894 -24.809723 11.454641
32.369606 -25.424541 17.509363
32.237038 -24.748821 20.841755
32.754707 -25.059212 23.24813
32.180737 -24.78631 23.872547
32.087914 -24.155512 11.092061
32.84016 -24.668453 18.537062
32.343285 -24.42526 23.980295
32.182343 -23.447628 11.003757
32.266647 -23.520298 24.108728
32.013218 -22.899837 11.012957
32.321583 -22.623127 11.5101795
32.591316 -23.098122 16.127176
32.24742 -22.933651 23.917845
32.099003 -22.243345 12.594115
32.57083 -22.205563 13.291466
32.478966 -21.957457 23.209702
32.663364 -19.492386 18.201471
32.742176 -19.815035 21.669834
33.004135 -19.144314 18.049166
32.987198 -18.523058 19.441284
32.98996 -18.73449 20.125998
33.307865 -10.929764 15.886676
33.246918 -11.169471 16.577255
33.14601 -11.079649 17.360079
33.205803 -10.947107 17.923565
33.014774 -10.276937 15.793221
32.80944 -10.388889 16.692192
32.73725 -10.213957 17.554317
33.032463 -10.377206 18.093832
33.02359 -9.514449 15.652669
32.75849 -9.589572 16.588022
32.636093 -9.61535 17.257929
32.9695 -9.570125 18.222624
33.362633 -8.254144 15.110936
33.118965 -8.542456 15.6035795
32.731197 -8.942527 16.703485
32.864124 -8.780069 17.453838
33.072296 -8.905514 18.113739
33.29746 -7.5954432 15.832494
33.18238 -7.635305 16.433445
33.265965 -7.77212 17.266504
33.412155 -7.227498 16.468966
33.798244 -36.043037 19.96005
33.814003 -36.309647 20.53569
33.758625 -36.10359 21.255337
33.940456 -35.808296 21.999357
33.649605 -35.445076 19.660046
33.466568 -35.463768 21.765432
33.661457 -35.231476 22.352385
34.126312 -34.996754 23.097324
34.082474 -34.541203 19.380548
33.47814 -34.25001 20.145891
33.45355 -34.526043 22.623123
33.728264 -34.476154 23.088087
33.913963 -33.721523 23.286163
33.54124 -32.04392 18.117544
33.45528 -30.16066 22.431553
33.968426 -30.287632 22.8477
33.32073 -29.403313 15.560491
33.3063 -29.81664 22.250786
33.49213 -27.749245 14.144345
33.748043 -28.654375 21.587595
33.88604 -29.029028 22.178871
33.066868 -26.67997 13.125227
33.38824 -27.423626 19.665848
33.335117 -28.266254 20.763397
33.5545 -26.396727 12.846239
33.085754 -25.562134 12.233104
33.7165 -25.240936 12.503843
33.16244 -25.04835 21.754093
33.146763 -24.59947 11.93797
33.5481 -24.244202 22.968035
32.85073 -24.2365 23.79952
32.807823 -23.505613 11.517148
33.330315 -23.468267 23.427942
32.93786 -23.744701 23.77936
32.880726 -22.801208 12.161174
33.126152 -22.38535 23.212008
33.164818 -21.696152 22.783266
33.9026 -20.726 15.919384
33.398766 -20.553637 22.238815
33.858078 -19.68241 16.678482
33.57479 -19.438484 21.44292
33.79108 -20.100853 21.973755
34.00213 -18.658306 17.165157
33.798325 -18.37987 17.746183
33.33115 -18.422417 18.498177
33.453224 -18.617481 20.388735
33.606335 -19.00432 20.961336
33.921204 -18.231913 17.74196
34.079082 -17.998096 18.527699
33.645687 -18.142435 19.556562
34.058968 -18.124357 20.05449
33.690075 -11.616807 16.798096
33.83925 -11.686533 17.276775
33.93365 -11.052083 14.749301
33.730785 -11.207656 15.549722
33.527134 -11.417573 16.457413
33.533512 -11.429931 17.6048
33.731125 -11.015853 18.21194
34.241253 -10.543078 13.885698
33.625473 -10.153118 14.614712
33.447174 -10.537661 18.396524
33.624332 -10.219569 18.624918
34.480953 -9.10257 7.981638
34.15422 -9.464729 13.637196
33.537502 -9.926257 14.57849
33.36738 -9.269762 18.54741
33.63596 -9.497372 18.67709
34.466663 -8.499549 8.122062
34.117134 -8.556795 13.838183
33.603073 -8.300323 14.866807
33.5014 -8.789127 18.36712
33.578346 -8.09521 14.918874
33.59619 -7.304727 15.531638
33.815838 -7.424857 17.586878
33.859 -7.6305776 17.758621
34.118214 -7.001121 15.122622
33.87825 -6.9234476 15.724003
33.76729 -6.85995 16.543642
33.805294 -6.9873395 17.123117
34.45284 -36.55184 20.454165
34.764286 -36.53152 21.054434
34.539253 -35.84848 19.36758
34.593796 -36.194157 19.718134
34.30689 -36.469376 20.495039
34.64841 -36.403103 21.339022
34.43582 -35.714287 22.43767
34.883133 -35.251633 19.08878
34.286777 -35.54238 22.62456
34.715652 -35.292603 22.986202
34.643024 -34.610428 23.491547
34.640682 -34.31611 23.56404
34.91593 -33.28472 23.425735
34.554935 -33.54985 23.56567
34.473682 -31.782064 17.810291
35.048874 -30.57959 16.007053
34.66898 -30.993093 16.833885
34.973335 -31.79011 23.113197
34.664017 -30.329159 15.830512
34.60797 -30.39692 23.18543
34.764694 -29.168625 14.644705
34.363163 -29.709919 22.89658
34.708508 -27.70362 20.549482
34.34054 -28.177 20.917397
34.149693 -26.181883 13.128964
34.469624 -24.703386 20.786463
34.206905 -24.742966 21.022326
34.372967 -24.5038 13.155696
34.334396 -23.839907 13.1055975
33.658676 -23.62513 23.08684
34.04633 -22.827168 22.569939
33.77267 -22.8768 22.878239
34.395615 -21.763523 22.286764
34.688404 -19.514023 21.35788
34.13055 -20.136808 21.961687
35.28318 -18.297003 14.923585
34.961575 -18.290768 15.665913
34.12378 -18.413288 20.376076
34.35114 -18.818731 20.86274
35.02407 -17.395607 14.889977
[...]
POINT_DATA 8265
SCALARS features_00 float 1
LOOKUP_TABLE default
0.8683245 0.8148337 0.7442813 0.66802084 0.8729126 0.8328547 0.7422952 0.59792256 0.9314159 0.89352465 0.761475 0.62313104 0.7069193 0.7522782 0.79736507 0.9411138 0.8780293 0.71819866 0.63637054 0.52990484 0.65533006 0.7174604 0.7566533 0.7967478 0.8134713 0.8748765 0.79765093 0.67349046 0.68397015 0.7478534 0.7665504 0.7849699 0.7090441 0.73834604 0.73361886 0.71814626 0.684443 0.68962336 0.6897973 0.67303693 0.6694405 0.65753484 0.68129635 0.65158147 0.6130928 0.67327833 0.68829083 0.65072525 0.61414224 0.6770192 0.45425636 0.712826 0.57542086 0.43778297 0.39277592 0.8090925 0.50362 0.36896986 0.8154583 0.84627146 0.92861664 0.90818524 0.46605814 0.709139 0.76111555 0.82084894 0.8340947 0.9459306 0.92328835 0.54485303 0.49713525 0.82808316 0.9055164 0.86957055 0.71435165 0.62824744 0.54456186 0.48560527 0.5699947 0.7714387 0.8074528 0.8301929 0.7655576 0.37944555 0.71952105 0.61119527 0.62612927 0.6561666 0.667529 0.5155896 0.52004766 0.5808097 0.6247241 0.65207106 0.57910526 0.5667382 0.6188097 0.5655221 0.51776767 0.5804676 0.6477776 0.5686015 0.49468514 0.4177318 0.65521955 0.6393639 0.53201413 0.40475196 0.4220994 0.41242722 0.3784138 0.33522186 0.17056334 0.10874205 0.5576519 0.536116 0.726024 0.69253397 0.7940117 0.8585657 0.8373748 0.8648848 0.87756 0.8552207 0.95336854 0.29435307 0.10872511 0.8557924 0.90810215 0.87136316 0.47462344 0.8321939 0.83697784 0.7734191 0.6076549 0.5415474 0.22158599 0.61402476 0.35196793 0.36031502 0.5780078 0.58656895 0.44745794 0.4409807 0.5276296 0.48567042 0.8267051 0.79915094 0.7985463 0.7460352 0.6345479 0.59607714 0.46281204 0.49460804 0.43946537 0.37459087 0.40899014 0.36393383 0.11408969 0.34286347 0.35069114 0.116515376 0.20288178 0.48718494 0.47138542 0.013367541 0.6569364 -0.011865914 0.72723746 0.8462013 0.85986847 0.8279083 -0.07579814 0.842043 0.92958033 0.7871932 0.9193354 0.86809254 0.30255944 0.71043515 0.74524707 0.66348696 0.52553594 0.39590174 0.43179643 0.3659673 0.46053603 0.43322772 0.5408257 0.6182721 0.7155903 0.7524189 0.5692334 0.7019566 0.80667245 0.7838864 0.56298566 0.7160835 0.81776893 0.7709043 0.5289627 0.5666988 0.72727764 0.7799386 0.7204711 0.6251619 0.6834449 0.72304106 0.6927532 0.8435614 0.83653647 0.78906184 0.6998024 0.7992664 0.701157 0.6475668 0.637701 0.7083821 0.60513043 0.6166388 0.6306554 0.577163 0.32479027 0.3490463 0.32139665 0.24777892 0.35889733 0.29912984 0.28023624 0.31849998 0.38783464 0.20444602 0.18323582 0.405778 0.463768 0.4050582 0.80302036 0.5312097 0.54809177 0.7441528 0.8384167 0.53459895 0.66043264 0.80819416 0.46353412 0.40212947 0.062964484 0.41603965 0.15437686 0.40639758 0.41226107 0.18543395 0.30323806 0.4176343 0.41801137 0.4066711 0.28266498 0.38180992 0.44874403 0.40609485 0.57606137 0.58881235 0.44108462 0.47790518 0.5689933 0.67756987 0.7087794 0.44834015 0.46379924 0.7475184 0.70452756 0.8351134 0.45090163 0.46757752 0.6720227 0.64264005 0.880453 0.4606063 0.5070343 0.635357 0.5202961 0.6090214 0.6795651 0.6583898 0.5690255 0.63144445 0.68736887 0.70076215 0.8118645 0.76635295 0.81685066 0.81571096 0.82092166 0.758525 0.6692128 0.7727138 0.6553279 0.6471567 0.6059176 0.57811385 0.40439832 0.48348606 0.09672644 0.072735466 0.03975345 0.26619196 0.15658738 0.29252806 0.15360622 0.3088883 0.07876763 0.18512946 0.37750623 0.33292195 0.4234267 0.255229 0.24358769 0.4619584 0.36711252 0.40825555 0.33174354 0.40475166 0.409154 0.29473305 0.29073548 0.38699472 0.37926453 0.35030535 0.38125783 0.38806355 0.28079525 0.30067 0.30779517 0.38927183 0.38245142 0.28895524 0.33092892 0.28573188 0.19698884 0.36563554 0.3773889 0.35469252 0.3791808 0.3827415 0.39146847 0.40894294 0.40773314 0.37013608 0.38005003 0.34848964 0.5852434 0.5177176 0.44585735 0.6121825 0.6816617 0.674603 0.65277493 0.5882908 0.40914595 0.5966468 0.7923327 0.78385687 0.7796767 0.68735284 0.39945835 0.41593784 0.5219654 0.88464284 0.89156437 0.8660115 0.78822243 0.6816257 0.42160454 0.4472273 0.5465963 0.51646036 0.8733921 0.87167597 0.86607873 0.8330569 0.4162948 0.4672416 0.57940096 0.83958733 0.83164686 0.49843377 0.58493793 0.6530792 0.65783024 0.6196491 0.56690973 0.7652971 0.77164286 0.77288854 0.7308899 0.7020362 0.65671754 0.7614912 0.6459209 0.64117384 0.6456015 0.54852444 0.4469761 0.40290526 0.38330764 0.30026156 0.017253755 0.029646896 -0.052803606 0.23529318 0.31039843 0.22144635 0.3205396 0.2737788 -0.07505881 0.15808101 -0.2600096 0.1759441 0.10340004 0.23713785 0.34760022 0.13238479 0.32613882 0.1880917 0.24703518 0.30267346 0.50635934 0.51381093 0.3230533 0.37053174 0.3908368 0.17539321 0.055442337 0.3984011 0.2553565 0.28009498 0.13127787 0.1630613 0.17419499 0.30428994 0.316768 0.08745372 0.18395251 0.2505003 0.23426914 0.21175379 0.21575569 0.23643489 0.18670633 0.09394262 0.2680083 0.27618977 0.21608794 0.15845409 0.28598934 0.3412923 0.21268779 0.16234288 0.22678804 0.2613249 0.25525957 0.295667 0.37569183 0.31163368 0.3278215 0.3957938 0.2787098 0.27379474 0.109005585 0.12376498 0.4918468 0.53201705 0.45805085 0.17804751 0.6269027 0.49503464 0.47634625 0.36376488 0.12435575 0.7668181 0.59177434 0.19804892 0.8264625 0.61947906 0.38015231 0.4080855 0.7967864 0.83695877 0.76970804 0.74326575 0.38049126 0.44343147 0.7916903 0.79724526 0.7730133 0.31529173 0.37877074 0.5802767 0.54955226 0.47788802 0.7008515 0.700114 0.65211576 0.66455567 0.59700114 0.59264004 0.616053 0.52524686 0.36288244 0.39291137 -0.13183224 0.2824933 0.0798209 0.23277688 0.23183501 0.37343073 0.41864127 0.35871753 0.33836296 -0.14000916 -0.08235603 0.044289917 0.034356058 0.51978135 0.62192816 0.6526784 0.69771516 0.22113024 0.4428072 0.44377434 0.567026 0.5213521 0.12375274 0.24929897 0.4111662 0.42757624 0.11226084 0.3163327 0.20281306 0.13391823 0.13327384 0.2318027 0.2840835 0.101862736 0.21857464 0.19084886 0.14103583 0.08886239 0.09392372 0.12321232 0.16864742 0.16149491 0.09147043 0.058007065 0.17270514 0.11373541 0.09468377 0.10635808 0.11142797 -0.03145453 0.18685015 -0.015726753 -0.11774051 -0.18486574 -0.12496111 0.09174976 0.09161078 0.09617925 0.10918889 -0.031560905 -0.29491794 0.12612344 0.30057856 0.15758076 0.17909689 0.1704874 0.62126714 0.08194267 0.10739668 0.6985878 0.050542675 0.651541 0.66688585 0.25818557 0.09538609 0.67104316 0.6250025 0.52955616 0.21729067 0.16478182 0.40049344 0.16805854 0.15287155 0.5672369 0.5384778 0.5240544 0.55334723 0.5705326 0.42085773 0.53869045 0.36371383 0.36238688 0.29179418 0.44027475 0.35098976 0.2858269 0.51453066 0.24215844 0.4742964 0.13818775 0.47449386 0.1857678 0.4923758 0.2702421 0.2769704 0.14725494 -0.021301124 -0.06249176 -0.09091598 0.017534804 0.08742695 0.5307486 0.5634897 0.70346004 0.12893237 0.17364764 -0.03907473 0.040458683 0.4769562 0.68562305 0.15956596 0.11135872 0.33038938 0.25915244 0.20218582 0.24791664 0.022905745 0.3266911 0.29455003 0.2503304 0.20878549 0.1685415 0.1537894 -0.016325131 0.30580908 0.27755797 0.23023242 0.15544128 -0.061956644 -0.019215643 0.24912345 0.23787028 0.04698252 0.24210939 0.2275895 0.07427169 0.111640945 0.25619283 0.33275577 0.3380676 0.23206352 0.076197654 0.10362016 0.2425145 0.31954443 0.27223986 0.25940043 -0.3408365 0.062223054 0.1921235 0.26707345 0.2632299 0.093658976 0.07003005 0.2580426 0.24713811 0.2229451 0.1471416 0.088544324 0.44118673 0.41184533 0.060912967 -0.16921885 0.46308184 0.4138563 0.29144967 0.105258405 -0.047367595 0.12495207 0.08824816 0.119287446 0.14122084 0.50190866 0.5269699 0.36636397 0.43794566 0.47018027 0.49981704 0.5273583 0.17553143 -0.04736621 0.3008851 0.6123874 0.5550165 0.49918866 -0.092246845 0.23229623 0.5987052 0.5513903 0.58720255 0.53046167 0.19245729 0.53862965 0.23463053 0.2605999 0.05261606 0.12223922 0.21200772 -0.14604287 0.6312922 0.5937036 0.5461747 0.65679276 0.69628143 0.5496369 0.5402933 0.42475498 0.5130185 0.36259702 0.13162416 0.43333852 0.42017108 0.35435057 0.27655977 0.4322375 0.38528526 0.37203562 0.34431827 -0.17677116 0.35104883 0.32674718 0.2959139 -0.09984895 -0.15935871 0.27817225 0.2552911 -0.09145579 0.15271989 0.23352407 0.32830352 0.34445962 0.3711455 0.356895 0.35771632 0.349687 0.30895054 0.2679422 0.27764225 0.30860448 0.29976726 0.2637792 0.10847704 0.25709462 0.2771314 0.25030956 0.25539145 0.0040143877 0.047146074 -0.1608995 0.27463853 0.18220465 0.3245104 0.15218857 0.24983978 0.34106973 0.3666322 0.3428211 0.023509108 -0.057088215 0.19452831 0.267452 0.32109126 0.4031347 0.39563483 0.39190137 0.2831614 0.30059403 0.25716436 0.072984256 0.058320828 0.18902713 0.34519792 0.37204015 0.064465754 0.052914906 0.10570058 0.13592087 0.14906459 0.17830415 0.24310522 0.2534354 0.12046395 0.18798874 0.17714944 0.14383718 0.15894723 0.15277621 0.1767433 0.17517196 0.15903844 0.15359552 0.1446347 0.44825986 0.2905672 0.3959379 0.4377674 0.26723954 0.29134512 0.38213187 0.7210643 0.591715 0.65173805 0.21817222 0.1769098 0.6690476 0.7020331 0.6589555 0.67806417 0.23082453 0.5003405 0.2291738 0.17089069 0.026201323 -0.0008918643 0.19471999 0.1452089 0.03407176 -0.06909703 0.16944556 0.118382044 -0.029528283 0.22725041 0.7211205 0.7234629 0.04216136 0.15784216 0.115799546 0.31225178 0.30901873 0.66549766 0.6894175 0.6977505 0.55833256 0.7146835 0.5677079 0.37334973 0.55629647 0.5858007 0.25388563 0.35501352 0.47118452 -0.069563776 0.339831 0.47913963 0.44454455 -0.3700628 -0.4096017 0.40721017 0.3035714 -0.22116019 0.031575017 0.34768432 0.28971627 0.27449396 0.24562481 0.331299 0.3165561 0.12969108 0.3525738 0.31264895 0.20397374 0.2913103 0.25979108 0.2565046 0.26685375 0.2560557 0.18712625 0.18106909 -0.10316411 0.031978577 0.21751481 0.3310967 0.39041206 0.4055845 0.1463079 0.40202662 -0.122026734 0.024892619 0.34373313 0.31246042 0.03419035 0.05271556 0.051627383 0.28098834 0.21779224 0.03668268 0.09821102 0.1615235 0.082212366 0.11254599 0.15077 0.116172805 0.12432431 0.10663464 0.063849986 0.21796483 0.32006174 0.08920714 0.013307278 0.27188843 0.39200452 0.23895292 0.17895263 0.25794238 0.32509026 0.44475472 0.29952928 0.26951027 0.7533914 0.7337482 0.33305877 0.30372438 0.79236835 0.7599353 0.7198842 0.70280004 0.80466783 0.81652963 0.12956652 0.7976272 0.25867236 0.7607398 0.8121568 0.08059607 0.032754928 0.2979747 0.7587769 0.6725905 0.3374831 0.28218356 0.005663052 0.15836014 0.25341022 0.37110406 0.09813074 0.06277017 0.20818111 0.16034435 0.71627283 0.7391796 0.7326651 0.57284117 0.1407001 0.25652158 0.66029024 0.69031876 0.61193246 0.4964205 0.5944637 0.3334263 0.2882214 0.60325766 0.16633461 0.4980531 0.03745687 0.34963465 0.3399227 0.4999607 -0.54758096 0.44465083 -0.15926853 0.3026817 0.25469744 0.22575328 0.19566733 0.29205853 0.2284239 0.29313836 0.26135316 0.29090136 0.22427958 0.2740192 0.26349312 0.20319697 0.24369901 0.26019147 0.11193705 0.24055693 0.2922704 0.21387169 0.09729153 0.24415345 0.14408056 0.3085198 0.2085195 0.10908991 -0.29857615 -0.25828537 0.29096514 -0.09194867 -0.009453647 0.28656614 0.03060805 0.25323132 0.33908802 0.4047419 0.051700436 0.10124098 0.40861773 0.47846746 0.05338607 0.106105 0.09550283 0.4114238 0.46915692 0.5510617 0.2006868 0.1531314 0.16131976 0.4608255 0.5433243 0.6119873 0.3275444 0.36115956 0.35336673 0.29866022 0.23055318 0.30429277 0.42458424 0.48729682 0.5778158 0.618243 0.36007825 0.3513348 0.3151247 0.2502392 0.40442294 0.48904598 0.3370017 0.33255446 0.2933042 0.87000597 0.84851307 0.8028468 0.76737297 0.1515927 0.20177294 0.19748496 0.8948481 0.12529495 0.106114745 0.097314164 0.26741374 0.311603 0.858003 0.87631005 0.64826167 0.090038106 0.07135331 0.36163092 0.8484721 0.8164923 0.6799806 0.59428924 0.05327166 0.38335273 0.43015224 0.61227006 0.45923015 0.010597371 0.47053647 0.30760717 0.47475344 0.3405309 0.4768558 0.3291337 0.1387717 0.7080401 0.7083888 0.6828003 0.40224737 0.21876508 0.15898447 0.67284906 0.68810225 0.6060369 0.46768877 0.32862437 0.4966964 0.5966909 0.6727083 0.30446112 0.24520814 0.6122158 -0.09806931 0.28529227 0.59610367 0.27883217 0.28290373 0.26867124 0.4891398 -0.049374446 -0.05784449 0.14858466 0.522387 -0.23074427 -0.28955317 0.27300635 -0.22630398 0.23901907 0.008609731 0.61859345 0.3004277 0.06772317 0.54564834 0.31486303 0.12620133 0.19036889 0.28076285 0.1581806 0.102208264 0.1846691 0.24166332 0.3094793 0.3101173 0.11282849 0.21522672 0.1136077 0.13819161 0.2633479 0.17676884 0.148543 0.24358743 0.10839502 -0.21393661 0.20500362 0.26882687 0.29537255 0.25382423 0.081680246 -0.28267786 -0.20917588 0.26927027 -0.17698288 0.40707913 -0.010150429 0.46851772 0.5560471 0.5633426 0.18260317 0.6109527 0.54054034 0.26581144 0.31020135 0.5611368 0.6093613 0.55625266 0.32915294 0.34759966 0.34799612 0.31391302 0.40019387 0.46309194 0.5176211 0.5081581 0.33081242 0.30695862 0.26382375 0.9034658 0.89870167 0.918288 0.93573594 0.9160807 0.859985 0.12380707 0.27859312 0.4249639 0.46937016 0.9025109 0.9120687 0.873363 0.7919136 0.088224635 0.4562974 0.4922704 0.8717616 0.85889006 0.77126837 0.72790825 0.5028525 0.5588132 0.04395257 0.03883166 0.52798605 0.5725513 0.5209696 0.5667231 0.3355288 0.46927702 0.67598134 0.66722727 0.6443901 0.47272497 0.11634874 0.6834426 0.68200815 0.6181846 0.58892906 0.47158593 0.4078877 0.18338805 0.6325991 0.18754181 0.40290526 0.5623101 0.38547724 0.49867532 -0.012707733 -0.024006851 0.47595942 0.5182904 0.28566656 0.30698472 0.16759954 0.6420665 0.6810727 0.6814865 0.29493076 -0.15512499 -0.11893726 0.51836795 0.6413197 0.65532386 0.33387032 0.49048 0.533105 0.3792966 0.2803956 0.3911507 0.24822302 0.17941928 0.2245655 -0.01395873 0.20204186 0.2927655 0.29135847 0.13636819 0.12426081 0.21390365 0.28526282 0.166125 0.15458551 0.1735426 0.055316992 0.6983176 0.70332485 0.20802793 0.17615624 0.65329033 0.67025816 0.20710854 0.27808005 0.010090105 -0.13902968 0.29249805 0.34844363 0.11515218 0.073349446 -0.10475473 0.06777574 0.36463892 0.14286116 0.1768847 0.127879 0.43677822 0.44489926 0.25377735 0.28079095 0.19109705 -0.017682139 0.54669005 0.50463045 0.47979373 0.4578107 0.32242745 0.31905466 -0.05482191 0.007118985 0.5928565 0.5664276 0.52689874 0.45160162 0.29303923 0.5047506 0.6164241 0.59448504 0.5503067 0.49131763 0.3298256 0.3609373 0.43448657 0.57094043 0.54263043 0.31132886 0.2926216 0.21897775 0.23246573 0.25270194 0.30278006 0.26106498 0.3361303 0.37813422 0.3684253 0.40551317 0.3864053 0.38305923 0.40389535 0.41373503 0.42731506 0.21981648 0.43490148 0.59384143 0.5815393 0.10682561 0.08130628 0.56569016 0.6059934 0.06151259 0.60456 0.030218259 0.5969676 0.043504354 0.5698304 0.58939946 0.4890058 0.26642805 0.5114695 0.55081207 0.6567426 0.6405185 0.52828455 0.6676875 0.65048766 0.62406325 0.57596195 0.4957418 0.08234921 0.5382015 0.4123062 0.15820871 0.3992979 0.037769683 0.045582063 0.04403047 0.33975607 0.42556942 0.32313007 0.1627545 -0.03299337 0.3279698 0.33820203 0.18047787 0.6988956 0.07838428 0.6840856 0.7122574 0.71240723 0.34199068 0.6557705 0.3760622 0.53942573 0.43449846 0.43076557 0.39184552 0.4417064 0.38112232 0.22872454 0.38729465 0.24795131 0.25243342 0.26773444 0.22926484 0.24677463 0.21550494 0.25248486 0.07378143 0.5901395 0.5828044 0.24298736 0.036862545 0.671686 0.70345867 0.64573175 0.5913091 0.20134845 0.6484693 0.6872691 0.63796365 0.18543494 0.5986091 0.6141069 0.5922723 0.15778038 0.3453212 0.4531418 0.4912485 0.5008229 0.13837221 0.14482939 0.43368632 0.2597829 0.28165102 0.24330711 0.2087304 0.49028558 0.18780096 0.406156 0.40767902 0.42447186 0.38980478 0.2876163 0.2710587 0.30571267 0.469082 0.43654633 0.3924011 0.33250892 0.34095162 0.33859232 0.33271772 0.29489598 0.5397667 0.6092731 0.38301885 0.19998792 0.37566656 0.5219818 0.32161456 0.27878338 0.24741152 0.31477606 0.50250816 0.49042583 0.36172587 0.25610492 0.27786523 0.45203793 0.39207157 0.33662918 0.32087627 0.36045414 0.6187111 0.6735793 0.67597246 0.221618 0.2871436 0.21330938 0.5494491 0.67256105 0.75440425 0.72679895 0.28569734 0.34759122 0.36365578 0.31460297 0.40857187 0.5552334 0.69494474 0.75506514 0.7410414 0.37337297 0.40833637 0.43560112 0.44024172 0.41779292 0.3732269 0.6672218 0.67651916 0.41225806 0.42343408 0.41481084 0.6054605 0.6649779 0.6441635 0.19065139 0.63939226 0.642367 0.09708318 0.6453092 0.053953025 0.6126778 0.0056883097 0.6041081 0.07265974 0.5891572 0.6024325 0.45597166 0.35727876 0.36851278 0.55016565 0.56116015 0.45389134 0.01753395 0.5721122 0.34726626 0.04939124 0.46416584 0.34099972 0.0031786934 0.53577113 0.06319625 0.057722453 0.38774413 0.4176401 -0.22940059 0.15449914 0.48602107 -0.09585205 0.008224908 0.061414234 0.057829313 0.049780108 -0.31789118 0.22360058 0.680092 0.4868359 0.17781653 0.66308284 0.6915425 0.4542212 0.63864315 0.41757488 0.5013723 0.42100644 0.45790356 0.3406788 0.36970037 0.46551174 0.46813512 0.45439452 0.45412293 0.1753337 0.12273529 0.14069349 0.4005399 -0.003662888 0.5042025 0.5283492 0.48970932 0.32771516 0.5260836 0.5465859 0.52126694 0.4565947 0.23175919 0.4589262 0.3994816 0.118595816 0.1024726 0.032235865 0.48003447 0.15363774 0.02779916 0.29294595 0.32133642 0.18935451 0.22197235 0.27225238 0.27927634 0.30773765 0.31733865 0.27625433 0.26143116 0.33584374 0.3669927 0.38439226 0.37103102 0.35105142 0.32345957 0.22341752 0.14791119 0.17982118 0.47504574 0.3058104 0.15644893 0.41836357 0.3860159 0.5282269 0.19638139 0.19054379 -0.089068346 0.33493713 0.57451856 0.6163956 0.09570635 0.11486812 0.14163037 0.2003777 0.67717373 0.6521958 0.19884217 0.3618184 0.14700608 0.19976495 0.6988684 0.32099032 0.44656998 0.34565634 0.37495023 0.435858 0.2662083 0.5221944 0.60489964 0.68944204 0.69857585 0.35366935 0.39319313 0.4297764 0.45567226 0.4649166 0.5483025 0.4387376 0.53522724 0.6915866 0.7091181 0.69840574 0.69442236 0.6766597 0.025964161 0.6475824 0.021524824 0.57947546 0.59557307 0.5617717 0.588159 0.4476226 0.54983974 0.22638236 0.501112 0.39856514 0.0057869777 0.3167317 0.13913377 -0.030230597 -0.029997036 0.6812177 0.66456425 0.4161883 0.30946904 0.32448223 -0.13805676 0.18749583 0.5959883 0.025319021 -0.0039304905 0.16377226 0.11752072 0.25125933 -0.07854899 -0.17927219 0.19957799 0.5383609 0.6199 0.54188806 -0.101557896 -0.08568314 -0.26537323 0.60356104 0.6240713 0.53354985 0.5441856 0.50871325 0.43555242 0.51740116 0.35559195 0.49217898 0.48340994 0.47433063 0.2092977 0.45365602 0.4081357 0.40271977 -0.17853194 0.44598565 0.4646101 -0.028409928 0.4811728 0.25667185 0.35249758 0.3844717 0.41806448 0.3690068 -0.044971645 -0.036857426 0.41383228 0.38591433 0.022037342 0.41059536 0.3695075 0.29062146 0.23334953 -0.059136912 -0.12509033 0.16065753 0.13711506 0.20995484 -0.10914708 -0.12986544 0.16947807 0.19722898 0.19689497 0.15666685 0.1788238 0.22625504 0.25995314 0.28090134 0.21885875 0.14525399 0.32261398 0.35711828 0.36491388 0.35343108 0.31029883 -0.07770962 0.04796494 0.38216752 -0.05785912 0.37024504 -0.1896486 0.23203228 0.3114052 0.4761296 0.49725455 0.07622199 -0.1543672 -0.1806876 0.08872436 0.5848167 -0.025104461 -0.0535005 0.043377817 0.070176676 -0.04044099 0.6036477 0.62793124 0.094111726 0.18514323 0.17071001 0.068394065 0.1276403 0.6313895 0.61159074 0.18725474 0.09759185 0.16484345 0.30499488 0.08692203 0.17161745 0.6318146 0.6339742 0.28284955 0.25983045 0.2298195 0.25246543 0.19095862 0.4308337 0.45009947 0.3980171 0.42564183 0.5002868 0.54554045 0.31306893 0.3389283 0.31355727 0.34304178 0.41805208 0.42335653 0.35652095 0.3652408 0.583877 0.67854625 0.72937244 0.5242889 0.6904766 0.72735256 0.7144316 0.24822405 0.6789392 0.42675453 0.37953597 0.33942226 0.55648625 0.3984707 0.440144 0.54050696 0.30228233 0.3707593 0.23994714 -0.0045941845 -0.038741276 0.73606837 0.74995124 0.70312655 0.0137176365 0.70794857 0.72563326 0.5509663 0.66647667 0.3440079 0.10977384 -0.011926361 0.091282874 0.18042181 -0.02935851 -0.03183431 0.18819089 0.64313376 0.16102174 -0.068188906 -0.041191585 -0.01902883 -0.059146766 0.0359233 0.10313072 0.0925281 0.002636589 0.008241549 0.39023012 0.5159549 0.59796786 0.44878027 0.47232157 0.56673014 0.37067485 0.52668357 0.54125684 0.2712621 0.5040222 0.49119228 0.4663605 0.17096439 0.332