# vtk DataFile Version 2.0
Really cool data
ASCII
DATASET POLYDATA
POINTS 4008 float
26.334812 10.793679 5.5639915
26.375563 10.612029 5.9701066
26.38353 11.391478 4.9649777
26.263504 11.597992 5.529053
26.325636 11.577032 6.3257513
26.329292 12.077262 5.6614633
26.33 12.036838 6.232017
27.004147 9.895411 4.9085317
26.899662 9.8506565 5.595803
26.763414 9.937546 5.9770555
27.05469 10.831303 4.2136464
26.770163 10.370932 4.7704825
26.544598 10.332034 5.459503
26.594912 10.280827 6.130376
27.028301 11.562922 4.067027
26.618677 11.395679 4.5449038
26.49048 11.2075405 6.6184244
26.629303 11.15915 6.790392
27.081223 11.9792595 4.0503607
26.857315 12.31826 4.713352
26.585814 12.43732 5.5646996
26.688908 12.39407 6.395287
26.903316 12.21251 6.903816
27.085873 12.738585 4.9648004
26.939823 12.788497 5.638207
26.880083 12.69446 6.2888494
28.30027 8.701099 5.000235
27.504175 9.339314 5.253457
28.085306 9.687818 3.8599684
27.437193 9.48209 4.8429995
27.425245 9.790899 6.4485097
27.760128 10.8670435 3.72246
27.881392 11.062815 7.3857555
27.649944 11.593517 3.7625155
27.902752 11.579236 7.45675
28.125189 11.280901 7.8069525
27.683683 12.280523 3.9969623
27.972805 12.388674 7.320002
27.642414 12.801985 4.675137
27.548985 13.028848 5.464327
27.585405 13.026792 6.3112936
28.039944 12.84588 7.0414796
29.45459 5.7542586 -10.911628
29.37819 5.901269 -10.385207
29.399197 6.0384817 -9.9599285
29.336891 6.6903844 -11.250031
29.147112 6.548536 -10.48327
29.155777 6.6193376 -9.645595
29.18784 7.0747843 -8.88036
29.298046 7.8028264 -11.881337
29.14776 7.715758 -11.253459
28.877726 7.5991387 -10.422595
28.830372 7.604925 -9.459298
29.059277 7.485094 -8.832117
29.37615 7.90648 -8.12532
29.31809 8.301875 -11.947978
29.10478 8.460367 -11.454698
28.902895 8.482174 -10.5796995
28.808304 8.322672 -9.503471
29.004656 8.440433 -8.800195
29.321009 8.949994 -8.168974
29.051657 8.48192 3.8653011
28.814287 8.565832 4.3691144
28.730486 8.832857 6.3994136
29.392817 8.796682 8.644908
29.128384 9.25022 -11.089494
29.17339 9.549136 -10.427753
29.010496 9.238464 -9.515184
29.281506 9.364018 -8.534219
28.793303 9.579694 3.3616755
28.419369 9.6979685 3.637249
29.346212 9.991702 -11.093793
29.294338 9.865342 -10.453896
29.2386 10.047884 -9.857783
29.40131 10.271611 -8.52988
28.350908 10.722555 3.5465338
28.313618 11.096182 3.4898388
28.252867 12.263548 3.9143374
28.293478 12.573168 7.4354115
28.721277 12.762825 4.3153443
28.809698 13.027487 4.5506625
28.209288 13.306635 5.875857
28.51257 13.323421 6.372871
28.720858 13.114915 7.0817237
30.038359 5.0062203 -11.037112
29.918581 4.997759 -10.552788
30.178272 4.8649287 -9.754586
30.265038 5.1486163 -8.949428
30.09248 5.8571115 -11.881003
29.760132 5.5847363 -11.311871
29.528416 5.608788 -10.444425
29.762535 5.570321 -9.381421
29.956364 5.603408 -8.957427
30.306507 5.98384 -8.25431
30.455761 5.6814237 5.9183025
30.166061 5.7366424 7.886268
30.151464 5.9972777 8.568638
29.684923 6.8959103 -11.871493
29.507116 6.640704 -11.513634
29.585608 6.601527 -8.639507
30.152935 6.6769094 -8.10217
30.363455 6.706942 5.456919
29.975218 6.6818385 7.467764
30.01058 6.6272554 8.682936
30.19405 6.7651005 9.450762
30.012161 8.004369 -12.704869
29.725237 7.7152042 -12.366593
29.778954 7.795102 -7.877178
29.71216 8.100949 3.9808378
30.156786 7.4232883 5.081221
29.865023 7.5341535 5.852449
29.571522 7.605939 7.885535
29.889612 7.581192 9.65202
30.132687 7.21515 9.7965975
29.657059 8.6900425 -12.409995
29.74992 8.154854 -7.6267233
30.009296 8.9397545 -7.0678535
29.281118 8.354243 3.8700013
29.901121 8.405854 9.509555
29.795511 9.28413 -12.378975
29.664198 9.426894 -7.650261
30.208643 9.173837 -6.685084
29.32377 9.381885 3.1510348
29.50125 9.401553 8.777693
30.145958 10.955154 -14.397675
29.79272 10.148939 -11.890547
29.53601 10.524635 -8.332637
29.73341 10.50282 -7.602455
30.114994 10.475563 -6.697036
30.399275 10.213661 -6.014232
30.298944 11.639392 -14.852344
29.988256 11.499694 -14.264634
29.858006 11.452488 -13.645284
30.120539 11.712981 -12.536295
30.011793 11.088157 -11.820756
29.914179 11.082878 -10.161195
29.905247 11.368862 -7.6807485
30.297667 11.483477 -6.651276
30.32793 12.230323 -14.763259
30.058865 12.287307 -14.157973
29.925264 12.330095 -13.357803
30.008991 12.283749 -12.753473
30.336231 12.478132 -9.9907055
29.867609 12.51982 -9.397267
29.957682 12.563401 -8.565729
30.10974 12.340897 -7.6763034
30.222246 12.600769 -6.8642955
30.325989 13.0681305 -13.614572
30.260242 13.311358 -10.543937
29.775078 13.693291 -9.559065
29.818047 13.553226 -8.662164
29.894855 13.9716425 -7.473285
30.239721 13.943496 -6.8206854
29.573828 13.135567 4.73472
29.764713 13.438897 5.633685
29.386316 13.170246 7.125036
30.03151 14.401761 -10.249583
29.762363 14.553532 -9.453973
29.768337 14.461137 -8.627664
29.856606 14.484089 -7.7385855
30.21133 14.474914 -7.0143194
29.3518 13.569014 6.13465
29.936848 15.437246 -9.509367
29.79439 15.458305 -8.503763
30.015097 15.399461 -7.6066337
29.99699 16.306723 -9.062474
29.969019 16.31611 -8.568378
30.158754 16.139364 -7.7777905
30.255217 16.819763 -8.572581
31.015041 4.3109074 -11.036455
31.180082 3.8932166 -10.432496
31.053385 3.9585662 -9.525266
31.275454 4.2120886 -8.648525
30.465042 5.1811404 -11.792198
30.485422 4.848329 -11.319163
30.507803 4.5421023 -10.49507
30.66515 4.5137053 -9.550324
30.635592 4.695306 -9.091021
31.18805 4.861327 -8.14625
31.228504 5.148021 3.7994227
31.044857 5.01277 4.807772
30.991806 4.937616 5.6674623
30.97476 4.978677 6.391517
30.614109 5.267065 7.5997167
30.63791 5.293548 8.00753
31.16508 5.2832017 8.797896
30.570911 5.4224954 -11.909261
30.351265 5.362302 -8.661292
30.711885 5.6936865 -8.024051
31.290697 5.856866 1.8549302
31.072142 5.651126 2.7053916
30.842508 5.7078557 3.562358
30.710323 5.9134645 4.226579
30.594103 5.4411907 5.9728117
30.571423 5.4589114 8.316787
30.619436 5.983542 9.298615
30.631332 6.955894 -12.664843
30.387587 6.580576 -12.376757
30.303726 6.9868298 -7.653689
31.375008 6.6459017 0.7308937
30.96263 6.704725 1.7623339
30.71568 6.465066 3.213492
30.595432 6.7087264 10.120011
31.086536 7.3856826 -13.001231
30.377434 8.025346 -7.1860886
31.305807 7.806485 0.034789488
31.17556 7.8052754 0.564274
30.762505 7.9247527 1.6355885
30.636902 7.3904314 10.436685
30.99571 7.394656 10.622485
30.439074 8.274565 -12.944574
30.474194 8.296024 -6.8702846
31.134417 8.70482 0.7877878
30.839697 8.670956 1.3132671
30.792715 8.253774 10.424656
31.154142 10.0718565 -14.990863
30.822735 9.969753 -14.159867
31.3166 9.546053 0.096519694
31.075256 9.638041 0.7284391
30.877695 9.550718 1.5991702
30.715189 9.468721 9.798098
31.284193 10.929064 -16.20908
30.905258 10.751735 -15.304808
30.638462 10.327818 -5.7979302
31.100056 10.639675 -5.2807264
31.353992 10.151105 0.13374355
31.250053 11.521926 -16.276037
30.663713 11.199629 -15.359034
30.831291 11.453273 -5.7684
31.400547 10.896862 1.4525645
31.100424 11.289107 8.745319
30.889717 12.350874 -15.381256
30.50644 12.564371 -10.875218
30.53176 12.697038 -6.3871813
30.801401 12.306088 -5.8906846
30.162174 12.512323 4.000684
30.199362 12.551857 7.78381
31.002052 13.650505 -14.325495
30.815487 13.347821 -12.739936
30.548616 13.8813095 -10.837067
30.583452 13.425778 -6.5210366
30.821146 13.213311 -6.153966
30.479197 12.699793 4.0182137
30.367413 13.21188 4.9299283
30.29194 13.381287 6.591549
31.07593 14.817775 -15.24163
31.192757 13.851018 -14.024158
30.626997 14.5291195 -10.695149
30.639313 14.478085 -6.5682054
30.951328 14.194132 -6.373936
31.175455 15.48495 -16.043598
30.98594 15.626703 -15.544319
31.060839 15.436915 -14.851728
31.08275 15.809978 -10.134746
30.757666 15.443218 -6.698072
31.267902 16.24356 -16.098564
31.098198 16.374697 -15.557181
31.152716 16.417736 -14.677153
31.33422 16.044909 -14.156142
30.49461 16.295671 -9.773236
30.588142 16.586285 -9.572966
30.44903 15.967667 -7.4062543
30.655012 16.296846 -7.0627
31.370869 16.770945 -15.929447
31.266806 16.886326 -15.487451
31.270699 16.941704 -14.902013
31.130976 16.809057 -9.817114
30.640602 16.892233 -9.228792
30.500854 17.076118 -8.630696
30.754251 17.057209 -7.651294
32.282234 3.138129 -10.805406
32.03387 2.973498 -10.231681
32.010082 2.8219826 -9.42678
31.976686 3.0727754 -8.890412
31.740177 3.831673 -10.905972
31.743217 3.3770268 -10.399587
31.553606 3.3652565 -9.583826
31.584665 3.63877 -8.801395
31.995935 4.142401 -7.9959645
31.43868 4.364998 -8.3561535
31.57943 5.073519 -7.92284
32.316196 5.291215 -2.9234693
31.65881 5.1945443 2.5475354
31.400629 5.112458 3.2406049
31.607697 4.6610336 4.7054057
31.571043 4.606432 5.248647
31.51637 4.7048955 6.51587
31.444973 4.8455563 7.5090365
31.694517 5.002296 8.556276
31.646967 5.2005863 9.01366
31.657818 5.8659496 -12.240133
32.276066 6.1256495 -3.8298113
32.048916 5.861842 -3.2838411
31.824226 5.899823 -2.5443969
32.29992 5.786778 -1.5789063
31.996973 6.2974043 -0.18258962
31.681347 6.0765343 0.75980914
31.622505 5.761362 1.5421079
31.508778 5.595877 9.442343
31.671146 6.00711 9.964617
31.769085 6.6699452 -12.966358
32.02738 6.6398177 -6.7926135
32.39885 6.4671535 -6.0409393
32.040997 6.505699 -3.8214824
31.669601 6.582102 -3.1128578
31.605402 6.601163 -2.4946465
31.646362 6.494007 -2.0693772
31.64568 6.6843934 -0.4767273
31.430902 6.591312 10.376211
31.407452 6.8958435 10.580195
31.806925 7.526005 -6.5111437
31.859722 7.5156736 -6.299254
31.949238 7.391489 -3.2986593
31.673294 7.2453566 -2.4501069
31.761412 7.4260406 -1.7857487
31.505518 7.6488547 10.7147455
32.00781 8.287864 -13.501614
31.37953 9.078596 -5.630583
31.943426 7.915842 -2.437471
31.811611 8.3961735 -0.5279796
31.543135 8.141461 10.6793165
32.00412 9.841435 -15.388402
31.229698 9.925225 -14.188277
32.19302 9.199126 -1.2537216
31.478151 9.469204 -0.30023554
31.520782 9.368654 10.04949
32.29663 11.252647 -22.1911
32.25726 10.706061 -17.557703
31.41957 10.329451 -15.616852
31.524483 10.289977 -5.1259527
31.520021 10.444051 0.118644685
31.471834 10.590765 0.47139505
31.227957 10.470109 9.376659
31.5717 10.163263 9.708414
32.11327 11.997613 -23.095419
[...]
POINT_DATA 4008
SCALARS features_00 float 1
LOOKUP_TABLE default
0.75301194 0.73487955 0.8249692 0.825276 0.8096324 0.8268352 0.81443524 0.618662 0.6170383 0.6296849 0.7158631 0.6911593 0.6953479 0.6833353 0.769311 0.81713927 0.7818929 0.7753241 0.7816419 0.82064116 0.81056476 0.7801578 0.75681853 0.78660154 0.77070594 0.7554349 0.35547918 0.5163826 0.4969988 0.54419565 0.55704665 0.6432327 0.6719595 0.71320814 0.6779175 0.60848695 0.7358278 0.6597018 0.73854744 0.72026634 0.6896643 0.64892113 0.4804619 0.48107272 0.46935886 0.46218663 0.48451865 0.46817702 0.39594114 0.41802663 0.4422808 0.48538673 0.46386486 0.39009684 0.31147635 0.410118 0.41985464 0.44720462 0.43691933 0.36766136 0.29604506 0.30583155 0.311176 0.29259998 0.48077863 0.36764795 0.3343892 0.36279052 0.3049212 0.3835522 0.46118635 0.25345722 0.28124344 0.2734437 0.24482879 0.56920594 0.6024662 0.66766036 0.6174122 0.5578529 0.53771853 0.6451212 0.60689914 0.58703434 0.45432234 0.4554242 0.41479224 0.3576072 0.4299525 0.46673834 0.47650895 0.416462 0.37495044 0.29030997 0.36333466 0.48736435 0.5501132 0.42512918 0.45130962 0.36148062 0.27623832 0.19967172 0.39523092 0.53526115 0.6189071 0.36007956 0.39243644 0.27691165 0.16340475 0.11321309 0.1429239 0.42302662 0.6033051 0.6405153 0.38186097 0.26325732 0.2338824 0.26378474 0.59477496 0.34764546 0.25388366 0.22594306 0.27230483 0.4674244 0.37223792 0.22087055 0.21710241 0.21319044 0.2173806 0.21582061 0.37445796 0.39604202 0.37854996 0.19724557 0.006352811 0.058352083 0.18569362 0.20117432 0.37223518 0.40421328 0.38690734 0.3010975 0.20133214 0.22780618 0.2551 0.22947808 0.21955661 0.37996462 0.29452413 0.37534207 0.3630473 0.31097782 0.25569755 0.3924204 0.44361025 0.5468282 0.442642 0.47526032 0.45677704 0.37767556 0.29921648 0.54963 0.5404674 0.5382184 0.4260705 0.5550033 0.5608855 0.4875456 0.52777284 0.37067133 0.37065342 0.38420612 0.3432671 0.4144165 0.42475218 0.41703272 0.3843848 0.35741708 0.27572346 0.40408233 0.4205318 0.4541875 0.4837717 0.5121333 0.5415497 0.6174691 0.39748532 0.33183703 0.24178231 0.32474357 0.352644 0.33151656 0.2879843 0.40369478 0.55945647 0.6332253 0.33312896 0.3692149 0.21949433 0.2019483 0.25454345 0.22915855 0.6974346 0.26565108 0.1944485 0.18409976 0.20746328 0.23613672 0.7039297 0.71452206 0.2944467 0.18362933 0.22455382 0.2358125 0.67967516 0.23810005 0.20051515 0.23603685 0.25853777 0.26037472 0.51379144 0.23403528 0.32047865 0.20521434 0.15921785 0.23934284 0.24226823 0.34135103 0.17755333 0.28972232 0.13341199 0.29432297 0.05672981 0.20358881 0.17080608 0.23339266 0.31826943 0.2619595 0.30452186 0.31566903 0.21877234 0.19101036 0.18185025 0.257725 0.4482587 0.30498326 0.23875672 0.4129138 0.25392136 0.21770978 0.3711673 0.39087975 0.35263065 0.35526732 0.28184417 0.3449508 0.37023985 0.36344153 0.3196831 0.4654585 0.46489483 0.40818912 0.35077018 0.32263738 0.34101897 0.3390711 0.35490602 0.47759277 0.49467316 0.4244361 0.28081024 0.36204934 0.4221229 0.42136592 0.30322713 0.35420358 0.40169582 0.38375947 0.31094396 0.3209353 0.21822332 0.23850474 0.40952927 0.40615064 0.45457363 0.46983898 0.51337034 0.5588937 0.6237121 0.640871 0.21613917 0.26425338 0.30301583 0.3395146 0.24582738 0.12585613 0.2124446 0.3337593 0.6621816 0.69761485 0.13895902 0.014309045 -0.13024282 0.33215535 0.37329784 0.3637673 0.34169823 0.16678992 0.7218307 0.7207584 0.08106762 0.07171345 0.34561408 0.30967963 0.21833774 0.7062292 0.025919262 0.19469392 0.16182224 0.14517517 0.6832371 0.15268725 0.15138608 0.018776245 0.21434793 0.5103663 0.4647936 -0.008502226 0.24250965 0.11598024 0.22695038 0.2396192 0.2443402 0.3180356 0.57676244 0.5484242 0.4244969 0.30537468 0.09734439 -0.040514547 0.037954703 0.19314101 0.19231784 0.22377479 0.2440206 0.15652892 0.5800925 0.5910505 0.56596136 0.48759568 0.32782924 0.1805785 -0.03211378 0.13169833 0.57095826 0.5137735 0.44063574 0.320898 0.1250176 0.24250375 0.11754226 0.13154489 0.33402935 0.44241443 0.31207448 0.1286376 0.20450713 0.2121578 -0.035126865 0.13509792 0.2658361 0.18877283 0.14748171 0.17010757 0.21748611 0.33891279 0.28491142 0.26452243 0.20458181 0.29127395 0.17528641 0.110517405 0.43841887 0.38835314 0.27057672 0.3071953 0.2876681 0.29968226 0.21098456 0.2816844 0.23011847 0.1726595 0.25827986 0.2722512 0.3645019 0.25537816 0.24106924 0.27809662 0.32961577 0.3800248 0.5447366 0.6330229 0.3871671 0.2688052 0.3115739 0.35956925 0.44310737 0.60886955 0.69295734 0.35692555 0.35461605 0.31054562 0.39894098 0.41135335 0.29331082 0.341102 0.33060348 0.21092834 0.1954521 0.33802924 0.41506898 0.3786643 0.16723023 0.2530222 0.25148994 0.29955494 0.35050857 0.034629676 0.055023838 0.48243213 0.16101877 -0.070951276 0.25070834 -0.00575264 0.18086985 0.029304288 0.41270277 0.42577747 0.43755066 0.45357883 0.47663838 0.52452356 0.5944999 0.62859356 0.64664626 0.052016463 -0.13912553 0.004802443 -0.103285596 -0.2581435 0.19718142 0.20684063 0.65818775 0.6760652 0.035282753 0.035795286 -0.05555036 0.68855894 -0.009909749 0.035572268 0.022026634 0.68716085 0.68863934 -0.008925442 0.0012499783 0.047285274 -0.019246489 0.22407013 0.66875714 -0.046329096 -0.007245305 0.03494285 -0.07402292 -0.03949888 0.54861075 0.5099269 0.48828918 0.09487036 -0.08932014 -0.07312393 -0.09451482 0.012799166 0.03156966 0.23373473 0.54855216 0.5653957 0.15180653 -0.055435237 -0.08245143 0.06041967 0.074754976 0.08969463 0.13656673 0.2266918 0.5493566 -0.057840414 -0.044894096 0.076095745 0.070288695 0.06667807 0.12639278 0.16023602 0.17973642 0.08920279 0.30880964 -0.13352168 -0.07702525 0.14893854 0.25869542 0.37762377 0.40016297 0.43748617 0.40400195 -0.25494474 0.39162368 0.38874853 0.43984842 0.49385393 0.36665472 0.27941006 0.2664165 0.05690691 -0.09198191 0.06167031 0.63031554 0.6301669 0.50272715 0.45499226 0.33907223 0.017852 -0.073375165 0.04765985 -0.10663587 0.008013025 0.14441662 0.59805167 0.4872278 0.46591663 0.320043 0.17008595 -0.01727955 0.03277374 0.13760835 0.012734622 0.21042474 0.6523597 0.5940957 0.5255965 0.47540206 0.39635703 0.2794876 0.08101858 0.021857865 0.0752645 0.10029275 0.15317002 0.08307421 -0.07945607 0.4296689 0.5324226 0.4866053 0.14797792 0.2921034 0.19427252 0.038889214 0.028767005 0.6146796 0.6728369 0.31291175 0.37806016 0.38465595 0.27171996 0.108529575 0.120080784 0.23599769 0.3151378 0.40754265 0.4136375 0.71126777 0.73344487 0.38045278 0.4280542 0.4155333 0.24998568 0.054476663 0.15576136 0.26789325 0.34786153 0.39237612 0.450769 0.6186962 0.70120555 0.73588645 0.38948685 0.35740483 0.29011583 0.31546238 0.23474474 0.33415508 0.2899004 0.31991482 0.28433228 0.27044505 0.2039111 0.1701254 0.31454596 0.34659672 0.3339736 0.29789287 0.31785673 0.3470366 0.33760917 0.27037364 0.122583695 0.1314056 0.34891203 0.3753906 0.14186327 0.14654613 0.19304796 0.2708345 0.2990523 0.24274354 0.2680423 0.33897477 0.33201075 0.14459701 0.1243576 0.23082155 0.11580996 0.30576324 0.29453045 0.23158374 0.11448502 0.15655613 0.22669944 0.18963143 0.11724363 0.04125823 0.12991528 0.07878941 -0.10769874 0.1121055 0.31827775 0.3633055 0.33936235 0.26421404 0.07847002 -0.02911701 0.1151699 0.028253175 0.0018695742 -0.17075405 0.3734771 0.43498322 0.4596898 0.47759488 0.45678765 0.50683254 0.58171827 0.60458887 0.63847125 0.35103834 0.3914342 0.34876865 0.23716195 0.1040824 -0.05875957 -0.026778515 0.07797003 0.079235554 0.49704194 0.5433085 0.6377594 0.31514764 0.3484434 0.24209404 0.112589374 -0.002931497 -0.035239834 0.026568238 0.008982994 0.62941486 0.6543288 0.26996043 0.23950961 0.107578374 -0.040286273 -0.017014727 0.6276956 -0.09570174 -0.07247422 0.53479546 0.6247426 0.43300444 0.01690945 -0.1407601 -0.037092913 0.28632733 0.46638212 0.45549566 0.39614806 0.12802373 0.120245904 0.52808154 0.27648345 0.49671397 0.045541096 0.08833328 0.11819761 0.07891703 0.05816147 0.37978628 -0.07450343 0.019830734 0.05112193 0.47331595 0.47752005 0.31481755 -0.09783633 0.39477652 0.54668224 0.44477004 0.37857562 0.50795656 0.6102066 0.6649835 0.6642523 0.62518513 0.53517675 0.49527836 0.6588869 0.6750258 0.6738999 0.65055275 0.6378497 -0.1315645 0.3213451 0.33643943 0.71682996 0.69937044 0.06730054 0.048274558 -0.22117788 -0.17963488 0.42581293 0.7177092 0.65957993 0.5607403 0.47023487 0.3446535 0.18954587 0.04067897 0.12499298 0.6586898 -0.061942756 0.03627368 0.7200618 0.44015354 0.33121648 0.078149796 0.2581927 0.3738301 0.41668373 0.46022284 0.5828831 0.66492903 0.7005923 0.56471634 0.53045595 0.3263474 0.33363405 0.27132744 0.31778976 0.34543732 0.4072429 0.4451149 0.6269454 0.62563276 0.6169704 0.5214217 0.22167234 0.27485132 0.21785265 0.1259813 0.67869484 0.69613445 0.64176893 0.5664168 0.3847517 0.72429675 0.6938184 0.6298808 0.7161293 0.7174388 0.66497695 0.6100413 0.70331347 0.66781867 0.61012566 0.5229507 0.5523997 0.5753131 0.51304835 0.38756508 0.40618473 0.33923188 0.29017693 0.08216491 0.227682 0.3117931 0.25031444 0.237924 0.46739239 0.44678944 0.41131654 0.21362072 0.24263176 0.2737091 0.27009785 0.11825049 0.28588897 0.24951531 0.34731898 0.37992972 0.3449229 0.19420812 0.22588 0.26778585 0.15252304 0.09088818 0.09785701 0.1607874 0.23052979 0.32924035 0.18197757 0.0862091 0.2342963 0.23680627 0.23135404 0.18992184 0.10976178 0.098372094 0.102449626 0.21146616 0.16276145 0.35295212 0.34132373 0.32460853 0.13005087 0.04245888 0.031590674 -0.030398913 -0.08599778 0.22165006 0.21759424 0.32608414 0.29968506 0.18876326 0.06653819 -0.08432434 -0.08622792 -0.03333643 0.12897235 0.21162497 0.18601876 0.19664946 -0.0827606 0.4359136 0.4026113 0.5253992 0.127981 0.25398463 0.30841628 0.5479119 0.58847713 0.3529786 0.5694518 0.23579684 0.41796994 0.457657 0.468344 0.44489825 0.19583392 0.5040305 0.50921243 0.30052096 0.4768749 0.4210258 -0.09662843 -0.015410852 -0.0059015155 0.030859197 0.034201026 0.46476734 -0.27269468 -0.2255234 -0.0009266883 0.4312883 0.5547775 0.39357448 0.6059754 0.6185571 0.65472436 0.63504875 0.5284604 0.039370596 0.6612213 0.68173176 0.6781834 0.6406202 0.26339567 0.15552999 0.7220743 0.31627953 0.71813834 0.7082015 0.6573699 0.52802455 0.052083865 0.45883512 0.45252153 0.30703983 0.16016194 0.6320186 0.18262985 0.4415962 0.50640786 0.56101674 0.6265466 0.5801747 0.27783763 0.40505946 0.41795814 0.6392718 -0.05215571 0.7350627 0.46042103 0.17112203 0.5874699 0.79898167 0.77405334 0.71048623 0.5876286 0.59293044 0.65636337 0.70323294 0.8186823 0.79921734 0.7634449 0.7130372 0.66031384 0.7138612 0.7239231 0.69350076 0.74047923 0.5391474 0.6270634 0.7199161 0.7231721 0.64711314 0.5211684 0.5860436 0.5619932 0.4770543 0.45085347 0.43484634 0.5927254 0.6168401 -0.06994179 0.31213444 0.32228902 0.48761362 0.5631263 0.5684867 0.5866205 0.6132704 0.16379297 0.22946253 0.2748872 0.23936883 -0.034406126 0.10813697 0.24641839 0.22653654 0.38020015 0.42226052 0.5202863 0.4095263 0.43190545 0.032984357 0.1337989 0.1672422 0.24448417 0.18156499 -0.12645164 -0.021330567 0.041615706 0.19846885 0.3022946 0.2933321 0.25685465 0.19251117 0.18939836 -0.08339635 -0.0068091303 -0.033807658 0.009839032 0.16489317 0.31485313 0.33686304 0.35013795 0.14610997 0.079955846 0.09149135 0.14093103 0.13750914 -0.0685905 0.13833764 -0.44343302 -0.36082196 0.016756754 0.15581231 0.11319619 0.33476928 0.3565667 -0.09973667 0.062233854 -0.02426732 -0.32721746 0.15163967 0.31215876 -0.17721568 -0.24058366 0.1886634 0.18447378 0.20024016 0.17786174 0.24619721 0.18282603 0.18343481 0.1286303 0.13164087 0.4055591 0.19029073 0.17490819 0.15250297 0.25983894 0.27405965 0.36152625 -0.103732035 0.28194496 0.31283227 0.3823194 -0.63728887 0.21352696 0.48502877 0.48165482 0.30834648 0.41434616 0.37518448 -0.022917494 -0.39539158 0.42995542 -0.25013855 -0.2503451 -0.17454246 -0.042718858 0.36526686 0.47322965 0.55143285 0.53511214 0.6608584 0.6711556 0.6460664 0.5956951 0.44638705 -0.10039121 0.6785432 0.6750701 0.6109947 0.12626293 0.6892385 0.6277484 0.3047266 0.62516695 0.70539093 0.65882885 0.58920354 0.35031942 0.22031204 0.24375948 0.35914522 0.50365925 0.7035905 0.71053386 0.4648524 0.5366447 0.73834264 0.75437486 0.3991934 0.3470103 0.35241535 0.41266805 0.5280131 0.37824553 0.57823706 0.41474062 0.7262281 0.2378896 0.62601775 0.81548333 0.52240026 0.7012101 0.709561 0.8313706 0.8172256 0.7895483 0.7473624 0.44781202 0.49556243 0.65157604 0.735426 0.7463819 0.73818266 0.81144714 0.7990737 0.57581395 0.63668656 0.7510233 0.775736 0.70878637 0.46203792 0.57535374 0.5583722 0.44652143 0.54083866 0.41372395 0.20603676 0.35071614 0.59182316 0.6471671 0.71589005 -0.019139826 -0.058205232 0.2639628 0.5517708 0.101928696 0.13126718 0.17326078 0.1828838 0.18713155 0.14418246 0.014661238 0.048168182 -0.045068674 -0.17339903 0.22317682 0.23578477 0.2535208 0.19368502 0.19602253 0.36840773 0.0122487135 0.15171313 -0.1928861 -0.11444643 0.14415802 0.23078507 0.24862373 -0.26259768 -0.08657746 -0.08470048 -0.19942254 0.11986303 0.109585404 0.44192547 0.21139692 0.3031124 -0.17197992 0.23531711 0.3819014 0.19773114 0.26300284 0.38063896 0.3358029 0.20652077 0.33727384 0.20004511 0.16887441 0.16391084 0.5571732 0.5212835 0.1629301 0.19181772 0.18896724 -0.36581874 0.17116289 0.16305164 0.13559313 0.2011689 0.15388867 0.035787955 0.2973313 0.346622 0.18432233 0.11222258 0.28360248 0.4100755 0.41056636 0.36156553 0.43572116 0.42179173 0.366877 0.35024172 0.36740583 0.36456937 0.44337338 0.3897798 0.046068683 -0.18593502 0.5728687 0.5065656 0.12914798 -0.09803052 -0.0569392 0.647674 0.6022533 0.31241155 0.33446681 0.051938232 0.15845037 0.07308665 -0.15678382 0.124015644 0.3720575 0.398726 0.44356987 0.33131206 0.5616097 0.6090796 0.13826501 0.326586 0.6002356 0.7563163 0.7299042 -0.0402183 0.09309317 0.36373055 0.6881779 0.75696015 0.7886764 0.813164 0.1164076 0.81405413 0.8431444 0.85952413 0.20272797 0.3867383 0.41299033 0.6662624 0.589013 0.83804345 0.6978002 0.8475206 0.819026 0.7985655 0.72626615 0.4952286 0.5366449 0.79992825 0.78779143 0.80376256 0.5102858 0.5711657 0.65169144 0.7775694 0.8356725 0.8333099 0.6070359 0.6958755 0.6040839 0.59505975 0.50260687 0.45746982 0.39072767 0.30877608 0.25698835 0.046868443 0.297431 0.43011874 0.33086914 0.40507528 0.41796905 0.36371186 0.18851389 0.25142363 0.25271738 0.21453932 0.24792027 0.48200226 0.5480963 0.6285954 0.30581623 0.312882 0.3465103 0.27531457 0.19503105 0.07770011 0.11727074 0.2631407 0.27554798 0.075658716 0.38241044 0.62583303 0.12599613 0.10031356 -0.050084516 0.1803609 0.3059245 0.25428405 0.099988565 0.48748046 0.20924443 0.2568638 0.4254356 0.5698178 0.5143339 0.40533826 0.31336904 0.0929374 0.40338176 0.49256265 0.45810115 0.41589895 0.45436034 0.40668398 0.4837014 0.40411744 0.37663698 0.5282296 0.607118 0.64043427 0.12847546 0.657922 0.16925015 0.15788993 0.31711116 -0.22183952 0.43913764 0.4213745 0.3841474 0.3353798 0.4230509 0.49593818 0.5186492 0.5048076 0.41933793 0.5056297 0.56374675 0.5338996 0.31108856 0.43476796 0.40106118 0.41209787 0.39781156 0.5458932 -0.14697361 0.43882126 0.4628026 0.48594087 0.38824314 0.16555962 0.37327763 0.29665703 0.49474192 0.053384736 -0.23453312 -0.16938221 0.59420896 0.6054315 0.050977793 -0.25889832 -0.15879826 -0.030986173 0.48957774 0.75475216 0.7100414 -0.37363386 0.010830133 0.7268388 0.8199649 0.8036487 0.7940123 0.8554976 0.88550633 0.9066839 0.06732725 0.88817984 0.9086485 0.91879654 0.25195897 0.28926098 0.5143781 0.53819644 0.7786399 0.67236173 0.7700497 0.7151003 0.7622292 0.5461579 0.59380746 0.6883504 0.7500806 0.88750744 0.86203504 0.8417671 0.87556446 0.5221081 0.47470948 0.34694338 0.21074122 0.23141448 0.58360785 0.13330022 0.24348974 0.32705015 0.34390864 0.3225478 0.07523747 0.31178153 0.48827243 0.35024613 0.26628608 0.28862065 0.32595277 0.43565252 0.27127978 0.43761346 0.51376796 0.69592154 0.25914705 0.076894775 -0.14085072 0.09817536 0.29726714 0.22566369 0.14635926 0.3329266 0.41287595 0.4312301 0.09943435 0.6547335 0.6740073 0.61379623 0.5281146 0.4543975 0.34430465 0.553409 0.6460798 0.614637 0.56262547 0.5816675 0.5901893 0.5046657 0.6191488 0.49110955 0.46342283 0.6336271 0.44160563 0.416399 0.6657246 0.28555456 0.7119069 -0.10976869 0.6625535 0.40766793 0.37214506 0.45751834 0.48575023 0.6320331 0.5758972 0.55248046 0.51288474 0.29768145 -0.27938488 0.5722293 0.52492046 0.5362406 0.45492133 0.577062 0.53610146 0.53141135 0.50089335 0.6404839 0.5601107 0.43345177 0.4035655 0.61833227 0.18467672 0.5477922 0.4333766 0.50528955 0.41842994 0.3395251 0.53343046 0.32207367 0.22979438 -0.437145 -0.15179431 -0.20279348 0.5767736 0.23365119 0.15391736 -0.047965094 -0.108708724 0.6318965 0.23059623 0.18015112 0.08953996 -0.4140841 -0.046219077 0.52485925 0.583168 0.7529241 -0.17467882 0.8279389 0.89845496 0.85946345 -0.057419036 -0.00044253282 0.86977386 0.9042833 0.9149792 0.07539932 0.26809335 0.17189753 0.35323155 0.34881553 0.6322266 0.7037343 0.5696303 0.74376166 0.44956356 0.53005946 0.5823505 0.8073506 0.87604237 0.8368459 0.5466542 0.5439637 0.498504 0.5300093 0.5445553 0.5319035 0.5196818 0.46105054 0.487428 0.52812135 0.50602305 0.50456387 0.6901776 0.6674392 0.6349013 0.38677198 0.483777 0.43683073 0.6789606 0.64611745 0.6238751 0.32252508 0.57725716 0.33000022 0.3842128 0.5827261 0.44082576 0.27802253 0.2501718 0.3593755 0.36146307 0.311872 0.18820621 0.111523464 0.2916388 -0.083047226 0.41089186 0.27332684 0.3645205 -0.049293242 0.37598073 0.33251163 0.1551436 0.059395816 0.39815858 0.28747046 0.21997572 0.2558181 0.27643186 0.3712017 -0.149344 0.10679945 -0.04613492 0.72816575 0.7095251 0.68111813 0.38090038 0.006841421 0.80416703 0.7485019 0.55007726 0.5031524 0.57651484 0.8403511 0.59447485 0.6093359 0.7892997 0.71980244 0.6257555 0.6761619 0.574812 0.6597531 0.3763517 0.7064223 0.33365324 0.73598266 0.16287115 0.77652776 0.25758854 -0.3474297 0.3205431 0.60799783 0.39264974 0.4537045 -0.3023801 0.7383591 0.8361215 0.7206743 0.63125974 0.47807747 0.4896832 0.6897589 0.63901687 0.49574047 0.4956262 0.14003591 0.18724152 0.65832627 0.62635505 0.5118624 0.54921746 0.5681292 0.65354383 0.009964012 0.50995886 0.62673897 0.62350476 0.16996717 0.44142133 0.31363368 0.37493336 0.4395063 0.3131693 -0.10810738 0.49862254 0.27316272 0.24788958 0.07975555 -0.018269911 -0.063227035 -0.04884605 0.5690154 0.5797797 0.19698228 0.1180906 0.42906272 0.24109392 0.33881938 0.017524734 0.2491922 0.5115689 0.75890636 0.69552493 0.16901241 0.0877642 0.061284892 0.48117566 0.7559726 0.78527784 0.83740854 0.8553017 0.07580499 0.055654317 -0.26248452 0.07863484 0.84840786 0.8830513 0.8910913 -0.080149904 -0.03398145 0.24736968 0.7337687 0.7992412 0.8042833 0.021410048 0.4679929 0.5935097 0.81719315 0.84193826 0.8646107 0.20196469 0.4251107 0.492401 0.7378262 0.70584023 0.8509588 0.8709444 0.872651 0.45468593 0.5675192 0.8185133 0.48723164 0.51146376 0.5292611 0.5017331 0.76384103 0.42560735 0.46683562 0.48116267 0.50300246 0.78293276 0.74761575 0.6899729 0.65290856 0.40506783 0.50563884 0.48167455 0.744567 0.7138321 0.6829124 0.5780631 0.3584022 0.4447071 0.73120964 0.68915784 0.5351621 0.30676246 0.5430193 0.39394253 0.45131344 0.4895438 0.2261242 0.056267723 0.008896422 0.42151874 0.107949585 0.16602138 0.41639078 0.41453528 0.40120274 0.37526995 0.12661636 0.22042297 0.41227353 0.37885582 0.34612417 0.33202133 0.06189104 0.08526492 0.043257058 0.054996025 0.27561703 0.36203662 0.2125055 -0.08955223 -0.027975284 0.09479417 0.74147797 0.72389054 0.69508034 0.33082712 -0.2200596 0.803635 0.780468 -0.11793746 0.49060065 0.56110007 0.83437586 0.59445316 0.6089468 0.8514515 0.5645347 0.6155731 0.73323166 0.5239911 0.61268044 0.59899175 0.51300156 0.5704588 0.61935973 0.36760578 0.29789582 0.41502112 0.5381094 0.5822978 0.6513242 0.18891999 0.14080948 -0.24120124 0.16680102 0.4689417 0.5850092 0.12627688 -0.04375198 0.24353835 0.2738003 -0.0506482 0.41505796 -0.15393941 0.85155845 0.837005 0.45884103 0.42359418 0.75652206 0.77663493 0.7297813 0.46731138 0.42896426 0.60854423 0.70333934 0.7096015 0.43807518 -0.014055371 0.46062237 0.61895025 0.64943343 0.005471492 0.60959995 0.2857572 0.009548441 0.18087886 0.4199378 0.28710318 0.34428596 0.37476578 0.33