# vtk DataFile Version 2.0
Really cool data
ASCII
DATASET POLYDATA
POINTS 7545 float
3.4050372 -8.05209 1.8655119
3.2389495 -8.112313 2.6995182
3.1605492 -7.9689913 3.3308444
3.3050454 -7.8845468 3.8693168
3.4030716 -7.173766 1.168337
3.1644099 -7.5682197 2.0251646
2.9799352 -7.2834153 2.609708
2.9834435 -7.320776 3.405045
3.2158387 -7.3479905 4.0397468
3.4414313 -6.575429 1.1702994
3.2639797 -6.485966 1.6067963
2.9726489 -6.625896 2.750608
2.9654808 -6.65173 3.4276783
3.096466 -6.722087 3.9326348
3.1415339 -6.0026364 2.8411353
3.2370024 -6.024594 3.585814
4.167207 -8.788957 1.7597278
3.864961 -8.817522 2.6143744
3.9114408 -8.855177 3.45235
3.980049 -8.74427 3.8887792
4.2718325 -7.8981214 0.22120665
3.9741287 -8.169891 0.7290193
3.5898669 -7.9625463 1.4882704
3.527006 -8.501852 2.6249409
3.5558848 -8.516315 3.4445074
3.6108594 -8.139531 4.066348
4.109853 -7.8824825 4.7065053
4.161437 -7.5442767 0.24400136
3.7588086 -7.58648 0.7549264
3.5737488 -7.447398 4.4307065
4.0456505 -7.433719 4.951925
4.1433945 -6.5199857 0.23860033
3.7119281 -6.447694 0.8400685
3.4920332 -6.6425796 1.2167435
3.4592295 -6.9074583 4.461274
3.9054925 -6.742104 4.9046826
4.2347493 -6.0259013 0.3472908
3.9495368 -5.7062597 0.77536476
3.712695 -5.6176257 1.311047
3.6587195 -5.420599 2.427801
3.7155364 -5.7182775 4.1767497
4.153216 -6.029307 4.9310412
4.2441173 -5.091159 0.73365414
4.254385 -4.8096876 1.2028364
4.344371 -4.1852407 3.8128352
4.336265 -3.7214656 2.46121
4.1911345 -3.3048766 3.7137384
4.200195 -2.466136 3.4959207
4.2702503 -2.5285196 4.1710033
4.3517504 -1.4834194 3.6056993
4.3184137 -1.893745 4.0810494
4.425747 3.0169988 9.5666
4.421805 3.5820093 8.961568
4.3245645 3.6276095 9.536912
4.3806467 3.5217052 10.1148
4.391896 4.273634 9.07448
4.369721 4.4919252 9.588903
4.395728 4.336777 10.157078
4.4469876 4.9944196 9.527311
4.7889547 -8.92109 0.6991649
4.822134 -8.936793 1.6922851
4.735308 -9.269038 3.377723
4.598814 -8.922415 4.239673
4.5374084 -8.14354 0.06903839
4.507369 -8.55165 4.559349
4.709935 -8.207343 4.9818406
4.463296 -7.3674827 -0.05109763
4.4978657 -7.3110094 5.299918
4.79456 -7.0646353 5.6499376
4.6792645 -6.5789285 -0.01515618
4.543938 -6.272078 5.4291105
4.891886 -6.6868863 5.724004
4.615303 -5.5735126 0.24071184
4.917255 -5.845823 5.587006
5.1405597 -5.618218 5.6992555
4.647904 -5.2113657 0.28585678
4.7333345 -4.377928 4.971248
4.8656635 -3.1329887 1.9407575
4.9711347 -3.2838728 5.190936
5.2874875 -2.6296418 1.2197931
4.553638 -2.4711804 2.3440492
4.487473 -2.09917 4.6024847
4.908475 -2.3030782 5.234408
5.0845556 -1.173814 1.6299024
4.61858 -1.7140272 2.4255428
4.5055428 -1.2233691 3.6866708
4.5162663 -2.0827549 4.665176
4.705509 -1.79 4.9093513
5.0932336 -0.4850382 1.9211625
4.766206 -0.58644646 2.4497266
4.7860227 -0.5505012 3.376748
5.0478554 -0.6077976 4.158938
5.2147107 0.003409475 2.1878707
5.078829 -0.034213424 2.55118
5.078944 -0.0001758635 3.0913844
5.3760047 0.97232157 9.662641
5.234296 1.5917886 8.976647
5.1538386 1.7227328 10.328149
4.933228 2.5258613 8.82676
4.590919 2.7558026 9.503783
4.675492 2.8170862 10.385087
5.035118 2.8439903 11.321066
5.3258595 2.9099038 11.950865
5.019501 3.8729856 8.255412
4.6715646 3.6163187 8.642129
4.541563 3.5090067 10.401242
4.822277 3.6113522 11.207531
5.2231507 3.361762 11.930884
4.985824 3.9695272 8.284854
4.6444488 4.3837457 8.783099
4.535898 4.672671 10.321687
4.7911386 4.4637346 10.9487095
4.9984274 5.220254 8.931073
4.738837 5.2864337 9.5527315
4.818634 5.2068763 10.26268
5.060954 4.956126 10.9664135
5.1233974 5.661264 9.648136
5.1691756 5.643432 10.060628
6.317037 -10.99731 -0.17221797
6.3287644 -11.240063 0.46906334
6.037686 -10.615326 0.5157991
6.1543164 -9.806535 1.2244048
6.0556345 -9.300906 0.09844194
6.1991057 -9.643306 0.21889898
5.5754237 -9.508697 1.1628832
5.1291804 -9.149982 2.10831
5.5464053 -9.295687 4.503775
5.992006 -9.106848 5.008987
5.5116587 -8.594597 -0.057423383
5.621875 -8.261368 5.3175206
5.4649463 -7.2072716 -0.1884264
5.514215 -7.2231054 5.8405294
5.494488 -6.500181 5.970271
5.5015097 -5.242788 0.20042898
5.525822 -5.517837 5.8680143
5.9950876 -4.6297865 5.8433757
5.504764 -3.6797388 5.384628
5.9093766 -3.5926516 5.749159
6.2562847 -2.1731522 0.18916367
5.643957 -2.5181634 0.87218916
5.6043224 -2.5031734 5.676725
6.2225676 -1.7468357 0.14256093
5.7140307 -1.592522 0.7433812
5.326799 -1.8821496 5.4811316
5.6806245 -1.9885026 5.661073
5.7654014 -0.66607255 1.1325178
5.3920007 -0.61687547 1.510417
5.4715285 -0.54401034 4.5261436
5.590138 -0.83369946 4.7899075
6.156394 -0.23275155 9.600061
5.775277 0.060314387 1.8688732
5.535978 0.2608492 2.5117195
5.6930695 0.24451286 3.3917441
5.7014484 0.10268721 3.8351753
5.9752364 0.9606729 8.23499
5.63145 0.4378456 9.100885
5.6396546 0.49834356 9.457848
5.626813 0.58130133 10.525854
5.927618 0.6748156 11.168595
6.0512733 1.3176209 8.203555
5.7077646 1.3507735 8.467197
5.7781057 1.5590836 11.479466
5.9690375 1.9808867 11.8960905
5.823884 2.4264653 8.195034
5.6300416 2.7982154 12.076617
5.5420113 3.722575 8.057773
5.9237227 3.5517452 12.308298
5.6771555 4.5359077 8.073492
5.3815174 4.495923 11.658648
5.5668917 4.115489 11.988123
5.7261176 4.957373 8.200583
5.619196 5.329257 8.649558
5.65841 5.160662 11.156915
5.811991 4.8383794 11.681458
5.440663 5.758311 9.613756
5.604157 5.6681166 10.324555
6.989413 -11.705398 -0.14201954
7.0137086 -11.847138 0.41220897
6.871696 -11.740752 0.90822566
7.0696225 -11.088077 -0.9688819
6.678839 -11.3981905 -0.27642238
6.4763865 -11.44279 0.38844824
6.68654 -11.346547 1.2210203
6.9424887 -11.112572 1.7406938
6.8699403 -10.333521 -1.1418018
6.4492726 -10.766377 -0.5499815
6.4528174 -10.706172 1.6569948
6.5739417 -10.239746 2.039467
6.4132853 -9.986612 3.2971141
6.532367 -9.812476 4.3578906
6.656159 -9.661885 4.8250237
6.9795628 -9.238754 -1.1891114
6.4360285 -9.369625 5.0452766
6.143504 -8.615638 5.424136
6.6710396 -8.361344 5.654034
7.4197764 -7.6121645 -1.188448
6.38445 -7.3586974 5.9216743
7.338056 -6.265211 -1.8534857
7.4229374 -5.1482596 -2.6690319
6.814985 -5.2833138 -0.52924037
6.673726 -5.353649 6.263485
7.363593 -4.9290547 16.994244
7.2105837 -4.826822 17.501722
7.390673 -4.436916 -2.5085127
7.0290627 -4.399167 -1.621766
7.0967584 -4.303289 16.75998
6.997587 -4.340176 17.442501
7.1691656 -4.349265 17.959167
7.1394405 -3.5138385 -1.1120526
6.6550937 -3.7375822 -0.34869152
7.0207143 -3.9337308 6.075463
7.2915187 -3.8831773 16.2158
7.032524 -3.5656328 16.809744
6.886324 -3.7447503 17.381117
7.127716 -3.634306 18.205683
7.387962 -3.0007484 19.01665
7.308712 -2.5641017 -0.95355237
6.9923625 -2.6569154 17.467407
6.972857 -2.1580253 18.259846
7.353472 -2.3923113 19.186825
7.000068 -1.4344645 -0.18428874
6.2152815 -1.4719759 5.6856775
6.993592 -1.195264 9.343836
7.189645 -1.281039 9.972408
7.1262894 -1.6947895 17.694778
7.103881 -1.4964936 18.293907
7.2241697 -1.7692224 18.956697
7.470336 -0.9168878 22.627745
6.843932 -0.9983306 0.16762921
6.32032 -0.48644912 0.91277665
6.708782 -0.5190993 4.9510336
6.766838 -0.1902911 8.039416
6.4985757 -0.41257474 8.732195
6.7863894 -0.58638483 10.083488
6.715869 -0.13704208 11.016322
7.280077 -1.0855513 17.851873
7.3606577 -1.0442653 18.223946
7.464471 -0.26531813 22.71323
7.4845405 -0.7926819 23.028788
6.6611686 -0.27588952 0.91233885
6.541263 0.11722988 1.6711959
6.2066455 0.4275027 3.6055918
6.265168 -0.00037580729 4.610224
6.5353765 0.28713462 11.362081
6.6568413 0.9043573 11.7495
6.433465 0.54996085 2.753565
6.58514 0.56553584 3.2081738
6.9461102 0.5481492 3.8787258
7.0661616 1.7991245 7.7796702
6.699558 1.7901766 12.07687
6.707914 2.1030264 7.8650017
6.5312896 2.8387432 12.415407
6.2283235 3.5735042 7.889475
6.439457 3.4967732 12.444236
6.384477 4.4758096 7.943255
6.578006 4.3749413 12.256143
6.2585926 4.9672704 8.203015
6.3015776 5.4221807 8.631912
6.5162206 5.3362775 11.433241
6.747956 5.064859 11.876475
6.0328054 5.7884927 9.744266
6.138106 5.745529 10.295874
7.924068 -11.74053 -0.76603234
7.4584026 -11.885405 -0.23304303
7.666409 -12.142722 0.5399374
7.6440845 -11.902902 1.3281705
8.112847 -10.722202 -1.8915976
7.615776 -11.290689 -1.0804805
7.2814345 -11.483711 1.6786394
7.640295 -11.488532 1.8756719
7.668681 -10.159962 -1.8552567
7.8381853 -10.237385 3.4275422
7.8339725 -9.640214 4.995255
8.227977 -8.885251 -2.6090221
8.003413 -9.649444 -2.1873393
7.5606437 -8.957008 5.475574
8.162066 -7.918428 -3.0699115
7.8671513 -8.392594 -2.315605
7.9417806 -7.2766266 -3.199566
7.6061583 -7.545886 -2.4807615
8.323261 -7.5998883 7.035475
8.340068 -7.319303 9.849031
8.245115 -7.060653 10.491245
8.312569 -7.0939784 11.033844
7.8052645 -6.573499 -3.1301146
7.4911733 -6.12394 -2.1627114
8.100264 -6.1604686 7.026228
8.172812 -6.4380474 9.599316
8.005667 -6.441807 10.437769
8.14458 -6.3007646 11.306371
8.145108 -5.702812 17.381857
8.265289 -5.658958 -3.679629
7.7101026 -5.4270706 -3.0293968
7.216285 -5.9024177 6.5239196
8.209315 -5.4934173 9.350988
7.9312077 -5.540406 10.571313
8.08992 -5.6257515 11.41905
8.432732 -5.493387 11.871888
8.041738 -4.938976 16.010206
7.79379 -5.317287 16.91731
7.668297 -5.218639 17.419024
7.7980995 -5.005517 18.113903
7.805033 -4.4971285 -3.183381
7.4659276 -4.4532337 -2.6782043
8.041314 -4.104627 9.475544
7.947928 -4.4936547 10.505865
8.117073 -4.5799823 11.226372
7.8419657 -4.5560613 15.889529
7.474659 -4.619935 16.327011
7.631283 -4.6823483 18.308308
7.9856477 -3.9628408 19.196392
7.936384 -3.6658273 -2.8777285
7.37026 -3.846156 6.2857122
8.026613 -3.7366514 9.737913
8.185462 -3.8763456 11.129292
7.6874595 -3.6409645 15.746021
8.022036 -3.594511 19.328348
7.8981647 -3.0017395 -2.1926668
7.806459 -2.2840734 5.970563
8.121586 -2.3287065 10.234467
8.21594 -2.2738624 16.087137
7.544701 -2.6424472 16.419239
7.5562997 -2.4949687 19.396502
8.107749 -1.7630835 21.81795
7.972052 -1.8840582 22.407787
8.146854 -1.9373953 23.137444
8.1390085 -1.4730384 -1.341059
7.848802 -1.3649787 6.0970755
7.3435726 -1.4576008 9.669523
8.080527 -1.5431519 10.700957
7.792518 -1.6495798 16.658075
7.7014585 -1.412331 19.36817
[...]
POINT_DATA 7545
SCALARS features_00 float 1
LOOKUP_TABLE default
0.57241046 0.6042323 0.59997463 0.57380456 0.5184443 0.5899092 0.6187271 0.6113566 0.5717528 0.49359304 0.5217681 0.614889 0.611436 0.5801333 0.57576597 0.56558436 0.4932934 0.54875016 0.546435 0.53258955 0.47743434 0.49934894 0.54735446 0.5811019 0.5730334 0.55010897 0.49418676 0.47804987 0.50291026 0.53238666 0.48041397 0.44210127 0.464793 0.49777442 0.52756834 0.46728042 0.41820025 0.41844207 0.42787305 0.4468134 0.45457166 0.3948581 0.3507874 0.31065395 0.36486402 0.30033073 0.4312154 0.47572133 0.4575914 0.5608021 0.51272476 0.6651013 0.72978294 0.72985494 0.70297027 0.79246986 0.79280424 0.7591578 0.82265437 0.38580602 0.3956566 0.46220952 0.4722253 0.45922625 0.47545058 0.45062804 0.4601335 0.43889973 0.40007114 0.42152438 0.36867675 0.36782897 0.36691815 0.29556555 0.25182638 0.325815 0.26612684 0.27105898 0.3531521 0.28979278 0.4378093 0.48712027 0.43965313 0.46296644 0.53495026 0.5820104 0.48726517 0.5044143 0.530892 0.5908687 0.6181792 0.5791223 0.5546395 0.58227694 0.5926221 0.50768995 0.5064343 0.56005865 0.5966914 0.63272643 0.6206502 0.6074729 0.5920267 0.7237998 0.72444075 0.69142693 0.6823589 0.6352627 0.7404368 0.80977094 0.7725754 0.7324508 0.85345423 0.8358619 0.7915628 0.74107504 0.8254591 0.7945005 0.536011 0.53761864 0.45852217 0.34751236 0.31540915 0.36129048 0.2935252 0.34484985 0.3745585 0.35568106 0.3423732 0.3963502 0.3824932 0.37092417 0.30234155 0.20423293 0.20650382 0.15127635 0.24371454 0.20200677 0.21375833 0.2655921 0.33387414 0.25767073 0.35013896 0.4433807 0.3807728 0.4292341 0.4761209 0.5394176 0.51810324 0.47110176 0.5082652 0.54096776 0.5170753 0.5116352 0.4077513 0.4652854 0.48663557 0.546975 0.4979195 0.4014241 0.4449774 0.50185037 0.48473948 0.4781757 0.5616643 0.62965524 0.59891343 0.6791495 0.6806834 0.6544022 0.702381 0.7903105 0.6912274 0.6568395 0.8085002 0.73980665 0.6300564 0.62614274 0.5838933 0.58043945 0.6017896 0.56877935 0.52479184 0.46415603 0.49904412 0.5276538 0.42422128 0.33110654 0.25038725 0.2973352 0.30140814 0.31780618 0.324077 0.3602075 0.33082187 0.2249322 0.32156897 0.27919808 0.34654015 0.0121556595 0.12926234 0.54347825 0.5483289 0.32404274 0.19705182 0.59620535 0.5832356 0.55225384 0.14018631 0.010971721 0.15962173 0.61210155 0.63261104 0.615289 0.5703421 0.54851204 0.10015307 0.6438721 0.60276175 0.54077935 0.17465854 0.3555227 0.33082402 0.27375996 0.60531074 0.58360994 0.5523393 0.74373806 0.24204814 0.38507953 0.3843158 0.3824521 0.42198068 0.4072827 0.42954552 0.5695527 0.55879843 0.74506795 0.77253306 0.35003182 0.4392168 0.42956054 0.43165055 0.42904538 0.39947587 0.4162943 0.3682197 0.29364032 0.27278134 0.39326316 0.32357714 0.47496417 0.4916649 0.5527718 0.53854394 0.60011744 0.6009964 0.66585976 0.59947956 0.5793933 0.7406632 0.684862 0.57442236 0.63233715 0.65138566 0.58854294 0.46832728 0.5599475 0.50701445 0.48139316 0.43848193 0.16230196 0.24017912 0.34110218 0.364211 0.27636763 0.36634046 0.32238376 0.38180894 0.33381337 -0.059538327 0.26375765 0.33168167 0.36028847 0.39363015 0.3188755 -0.18523669 0.28631228 0.34563595 0.3655417 0.42989975 0.44295555 0.3950647 0.06505681 0.31736296 0.36017495 0.34977922 0.33466908 0.49766523 0.49163574 0.50420904 0.4899733 0.40588748 0.34721124 0.2773755 0.3388192 0.32828686 0.5457748 0.56421185 0.50019974 0.48076278 0.35130793 0.14252657 0.21757968 0.2784982 0.58693975 0.48809254 0.24015045 0.123346895 -0.03533441 0.49288538 0.61802256 0.50123113 0.6794582 0.7452699 0.7878057 0.112593316 0.096103296 0.22801009 0.12719432 0.56216747 0.48166722 0.67850935 0.75177884 0.7999699 0.82649183 0.11339009 0.21394648 0.33598465 0.30371174 0.5356125 0.5506872 0.5262682 0.56586224 0.6665371 0.73516107 0.8053926 0.83166766 0.25728863 0.1211648 0.26902106 0.278624 0.46265715 0.47320777 0.666397 0.75158626 0.8013978 0.8313701 0.14321688 0.093946636 0.22036086 0.1600045 0.28353438 0.23159316 0.2582467 0.31683502 0.38779822 0.5182672 0.42566028 0.41286904 0.61474067 0.53285944 0.5262353 0.43159163 0.5944623 0.47612894 0.5206775 0.592782 0.6504092 0.6100807 0.51433754 0.27186725 0.41156045 0.083320364 0.35226503 0.0653032 0.62959886 0.7187128 0.7336842 0.41789532 0.37882832 0.059370104 0.21427055 0.31887558 0.38228306 0.32184792 0.60332656 0.7284331 0.73854077 0.72621167 0.43309093 0.40479127 0.06350335 0.21906759 0.32274762 0.38806307 0.39209703 0.36933416 0.3505992 0.6845021 0.7339029 0.7247171 0.71180034 0.44065362 0.057259813 0.37627608 0.3665377 0.28798503 0.36520362 0.16601847 0.3108185 0.63027245 0.71630603 0.6937883 0.45147038 0.3142005 0.3805438 0.42252827 0.3909757 0.37272274 0.19858292 0.29963496 0.29750177 0.31122607 0.32330438 0.1648278 0.18281525 0.44504595 0.12395055 0.26899543 -0.07842868 0.067501105 0.73336136 0.77580607 0.79150295 0.12100823 0.44323677 0.8187439 0.1325407 0.1344813 0.113262385 0.42746866 0.49062803 0.8249035 0.12195693 0.10477826 0.071526974 0.46249092 0.26921737 0.5359926 0.8096678 0.7997509 0.06771247 0.042936053 0.012050532 -0.013442464 -0.06345965 0.10403611 0.34008527 0.5509515 0.61230254 0.7331572 0.05500116 0.0067040473 0.05255121 -0.029628515 0.0066984184 -0.004246503 -0.0063390955 -0.040589243 0.2902 -0.026900604 0.531649 0.5347513 0.564851 0.51904523 0.48355895 0.41757435 0.416779 0.4377151 0.34952667 0.22397396 0.34003043 0.33391103 0.33764943 0.006805755 -0.085745886 -0.02240637 0.22258043 0.2638975 0.22360028 0.15904756 0.6276189 0.70069015 0.6974958 0.29775998 0.06692098 0.07382147 0.07922767 0.28902984 0.40031886 0.5810872 0.7152505 0.71865815 0.70081854 0.4327184 0.3804094 0.23936823 0.3345417 0.36842176 0.3233291 0.28454 0.30762848 0.72732806 0.69648266 0.452267 0.36318487 0.13084576 0.18415867 0.6847064 0.46275795 0.24891147 0.20601064 0.63582265 0.6054838 0.4480898 0.18087843 0.5598374 0.49503615 0.33041298 0.22342643 0.4557355 0.08172664 -0.00084753707 -0.16106844 0.7237059 0.71056336 0.0078055635 -0.19799365 0.2649635 0.75299346 0.11934285 0.30820447 0.7367656 0.10622273 -0.016719855 0.2731329 0.14242929 0.71827364 0.6792259 0.034752924 0.09556244 0.1231966 0.2810135 0.3375312 0.5635116 0.64124215 0.6729609 0.09773221 0.075752005 0.024962485 -0.014471725 -0.043321207 0.17305309 0.38964784 0.4626944 0.5916346 0.035276413 0.027653605 -0.063522205 -0.11487301 0.061205126 0.049727507 -0.0570668 -0.14021793 0.0601203 -0.084953785 0.0938593 -0.025971524 0.026860509 0.16582239 0.3842659 0.20515148 0.2993784 0.35847932 0.5212711 0.3809463 0.31274346 0.25328547 0.32645988 0.3710534 0.4809253 0.55723166 0.57891876 0.54188865 0.49059582 0.47749448 0.5216529 0.5883439 0.59510136 0.57860357 0.5278452 0.5837412 0.6052312 0.6019998 0.35096115 0.43716675 0.4427178 0.43120235 0.36528355 0.3827644 0.38574958 0.36723292 0.25971973 0.25303522 -0.09342245 0.22787616 0.32632208 0.3666275 0.635211 0.67549187 0.6477876 0.5825362 0.30926982 0.2062906 0.22317918 0.33085585 0.3612712 0.66950977 0.6338551 0.3526998 0.27732897 0.31676984 0.2715594 0.3059303 0.603595 0.43882278 0.2789562 0.62595797 0.43876088 -0.04472518 0.54534256 0.41410094 0.37488282 0.19239582 -0.043747187 0.020832237 -0.19505194 -0.20540918 0.09530713 0.47756562 0.16697758 -0.34054816 -0.4165836 -0.2652673 0.62308633 0.2215155 0.1939956 -0.34580842 -0.52242744 0.6174755 0.64585656 0.27560496 0.26684088 0.15388405 0.017986119 -0.32848114 -0.31097704 -0.18182245 -0.02051249 0.6482648 0.65969634 0.2975847 0.22912014 0.008094735 -0.20964336 -0.24554223 -0.1462731 -0.07290685 0.61128074 0.63589543 0.08351182 0.09684401 -0.16132548 -0.14456949 -0.12633847 -0.068634346 -0.03138791 0.0016896278 0.05612781 0.08525711 0.5737866 0.055042207 0.05035683 -0.020037152 0.03755215 0.08393303 0.07833357 0.044513326 0.026680192 0.14287755 0.22173387 -0.036898155 -0.016339675 0.023414658 0.25942445 0.3169968 0.02454575 0.12523685 0.4724536 0.51545244 0.096236624 0.14974865 0.20849147 0.44640672 0.5089984 0.54435694 0.27989125 0.37679875 0.43227142 0.47354224 0.5242959 0.5407947 0.43447 0.4863341 0.54926145 0.5406351 0.51898813 0.48954988 0.5488863 0.6019527 0.6111592 0.58410686 0.5965924 0.58654356 0.6644683 0.62518376 0.54769474 0.64280057 0.63960874 0.6030773 0.5522859 0.48569852 0.34914905 0.36949217 0.4013294 0.41065267 0.5735124 0.60449 0.58451915 0.51625603 0.37664464 0.42552632 0.3417984 0.4323662 0.44705182 0.42345834 0.38435373 0.15076977 0.3637608 0.4936193 0.44877905 0.25722712 0.00057187956 0.42276356 0.26751488 0.11015538 -0.26829514 -0.21661922 -0.16346538 0.011829009 -0.031961963 0.2569543 0.32684886 0.4570797 0.48265028 0.55757225 0.080700755 0.03792089 -0.015110213 0.10139233 0.17771384 0.2276427 0.50805277 0.09414037 0.20190963 0.19134477 0.1866291 0.464882 0.3616622 0.3064662 -0.047820583 0.3602122 0.35976085 0.292458 0.2748038 0.13835073 0.1852365 0.1329382 -0.077514514 0.08627496 -0.2637182 0.34118488 0.2364147 0.45839077 0.2620734 0.19823661 0.43855414 0.5119921 0.23238222 0.22000271 -0.4077015 0.587672 0.26934236 0.27428555 -0.3321522 0.6032154 0.31098276 0.31233612 0.30139813 0.26784217 -0.25071138 0.5480879 0.6038572 0.3256813 0.31939793 0.2855231 0.24894568 0.20794219 -0.082129255 0.02973596 -0.08273218 -0.08542898 0.031945243 0.2376489 0.5134936 0.34688455 0.32654166 0.28637576 -0.0054780617 -0.032422796 0.010530278 0.033605255 0.018999219 0.019004004 -0.023998395 0.0073693246 -0.09064883 -0.053657383 -0.12323725 0.40692636 -0.03244287 -0.003511561 0.50452787 0.52131736 0.5477726 0.5463475 0.15828258 0.52289045 0.53694314 0.28775522 0.39657515 0.5516638 0.5078751 0.51263046 0.42151833 0.525354 0.56886584 0.64671636 0.622275 0.5885552 0.58614635 0.5611322 0.60645735 0.60177124 0.5508076 0.4930301 0.60057306 0.6390591 0.5362789 0.37922662 0.3675165 0.37288666 0.56149226 0.42643863 0.24332112 0.29469153 0.33835635 0.35837275 0.33121458 0.35925907 0.3890283 0.4022498 0.32239702 0.3119378 0.19634193 0.29293567 0.3582582 0.35892624 0.33701348 0.31024536 0.33685046 0.16539091 0.370165 0.40333894 0.39784718 0.2209337 0.36524794 0.015011858 0.048279304 0.3670089 0.28403583 0.27706057 0.08525372 0.23683275 -0.011564013 0.089881994 0.20065437 -0.06675348 0.103302166 0.3545098 0.17032993 -0.05560322 0.08554228 0.28097716 0.0870164 -0.030714512 0.08145581 0.19348297 -0.28201678 0.02929756 0.13498782 0.15808247 0.13022064 0.28129178 0.21165189 0.069739334 0.39366513 0.19968715 0.45646363 0.3675756 -0.14521776 0.40508506 0.38163012 0.26987442 0.35827374 0.4319925 0.2802013 0.24551377 0.51180625 0.24957822 0.49176767 0.22985047 0.31144917 0.3179987 0.025698584 -0.21521491 0.4742396 0.26262724 0.3106805 0.32681653 0.24170922 0.04947241 -0.075571634 0.06443893 0.11042255 0.30763593 0.37353963 0.36010826 0.30046046 -0.0819661 0.012684122 0.046450637 0.46430993 0.5423176 -0.10932556 -0.11362286 -0.19568932 0.10198948 -0.25585386 0.26358408 0.40506214 -0.09327912 0.5057719 0.033897564 0.547214 0.7182121 0.7535969 0.6502943 0.60133666 0.11781225 0.10031985 0.5370828 0.54769874 0.71911734 0.79286027 0.7606038 0.5797067 0.18435943 0.19796294 0.23264664 0.19340913 0.50311106 0.7477566 0.7544603 0.7931968 0.75243205 0.5970092 0.5194697 0.55691636 0.56639785 0.50609505 0.787462 0.7542775 0.66683495 0.7629752 0.7086458 0.63539565 0.5370555 0.55436933 0.53566974 0.4675898 0.3548096 0.30267143 0.47817627 0.55670035 0.43940604 0.32536787 0.2826662 0.33651525 0.34774035 0.50557005 0.60895133 0.637813 0.48330748 0.18820888 0.08167361 0.2552426 0.32219535 0.35810706 0.36188996 0.36153948 0.2970832 0.3443604 0.5843013 0.47116834 0.21514967 0.089303344 0.07688696 0.20524582 0.35633564 0.3488423 0.35189253 0.3140032 0.3143344 0.42980504 0.27236107 0.2164937 0.14594746 0.067135364 -0.21229452 0.098083526 0.14479074 0.30690053 0.32986715 0.30582088 0.27762565 0.24441852 0.24381965 -0.1528658 -0.02057457 0.1831316 0.30741638 0.36850262 0.26290962 0.16786301 0.06691118 -0.17141457 -0.09945704 0.15955374 0.17119047 0.20745637 -0.08293034 -0.19948445 0.08415634 0.17347121 -0.10935859 0.004760716 -0.0017278194 -0.036673702 0.16109186 -0.07678874 0.09077692 -0.080762975 0.1167949 -0.002212271 0.045185942 0.5013173 -0.0009168163 0.54875606 0.5034449 0.39849436 0.55122924 0.5127965 -0.15082276 0.46248373 0.44241887 0.34984493 0.31952617 -0.05581595 0.24994591 -0.04865265 0.16175143 0.1337372 0.31310308 0.25684065 0.22465295 0.3832489 0.45764953 0.46262044 0.40302563 0.2137704 -0.053202316 -0.12326102 -0.17795978 0.5229087 0.52748567 0.6338254 0.54425275 0.5399109 0.21678598 0.1539335 0.286417 0.33413038 0.35173258 0.27509817 -0.00924357 -0.05577825 -0.085071936 -0.028124943 0.55809164 0.58834374 0.5781728 0.73238903 0.71713716 0.66287947 0.58899325 0.2924593 0.32131767 -0.00811246 -0.1150375 -0.12126889 -0.2566945 0.30683932 0.47818488 0.578938 0.6186653 0.76581705 0.73581314 0.7028581 0.6450835 -0.12649374 -0.13758448 -0.24302351 -0.27885455 0.26312232 0.75262266 0.7143959 -0.18525796 0.48954773 0.56832886 0.6289704 0.5310317 0.5252143 0.41930205 0.53804123 0.5473237 0.6323238 0.6232523 0.42407864 0.25104615 0.28464285 0.33282506 0.16032411 0.23448941 0.39513597 0.4156408 0.4468342 0.47175413 0.75244105 0.69484574 0.4923363 0.35924047 0.37263903 0.33255503 0.46128416 0.4768883 0.45922798 0.80269784 0.7905779 0.4563228 0.38672903 0.7927308 0.7614022 0.68879306 0.5930356 0.5002852 0.39987808 0.72195375 0.7000842 0.42086732 0.38665828 0.48605692 0.4295647 0.46212095 0.41354778 0.3597357 0.3213534 0.2393609 0.1997853 0.3304043 0.3820344 0.41431433 0.603142 0.65374005 0.67723453 0.40095058 0.4570539 0.253151 0.375002 0.40866625 0.39039743 0.49284595 0.54472995 0.63286704 0.6590196 0.6488889 0.3797567 0.3844279 0.37633455 0.3427538 0.33010423 0.5964316 0.25550884 0.36879387 0.39703727 0.33982587 0.32763553 0.42494762 0.10678046 0.12801322 0.18030593 -0.10299438 0.4453243 0.47243512 0.3160635 0.18540892 -0.27006304 0.4310736 0.4661553 0.23582879 -0.19644025 -0.24843562 -0.34360406 0.31573427 0.4168099 0.18734035 -0.1672498 -0.18913199 -0.20959225 0.0120667815 0.22688624 0.27136245 0.14224389 -0.29842946 -0.15200171 0.21028043 0.14062047 -0.1748751 0.085476115 0.13300373 0.061787784 0.09243714 0.11730709 0.067732036 0.013431 0.5484246 0.48819178 0.4238402 0.32504427 0.19339912 0.57543325 0.5676654 -0.10594215 0.5684135 -0.15491255 0.47005534 -0.13731414 0.1950939 0.22355013 0.12734042 0.15638684 0.22983819 -0.0363117 -0.023307249 0.050566703 0.30722407 0.2550681 0.14179726 0.35400957 0.33709127 0.3919589 0.447995 0.51859283 0.5712898 0.12472969 0.61077476 0.5839722 0.6613678 0.31344476 0.12669313 0.14702097 0.19998758 0.015455589 0.008925512 -0.04279895 0.21450044 0.5314357 0.6179055 0.6345698 0.7619873 0.56996655 -0.019004554 -0.18133494 -0.22118239 -0.21916553 0.44659835 0.53819335 0.5962881 0.8022201 0.7836396 0.72310257 0.6563197 -0.17648269 -0.31819046 0.4321464 0.85549784 0.81293654 0.78082174 0.21128775 0.40710953 0.22698204 0.55367666 0.52231205 0.47151768 -0.0046200603 -0.14110324 0.4633567 0.5254511 0.09743585 0.26583445 -0.112631634 0.28777656 0.18888956 0.4987632 0.70154786 0.31883952 0.26595956 0.36154944 0.37285283 0.39338994 0.38433722 0.8157828 0.3402127 0.28880805 0.37524182 0.38145447 0.80157167 0.76738846 0.6448604 0.5384044 0.4449036 0.36051196 0.7337564 0.6753745 0.6166543 0.33052844 0.3923592 0.33567876 0.28831998 0.23763388 0.3592127 0.28628412 0.32241827 0.28948104 0.23029855 0.3256988 0.39815277 0.42574736 0.51255405 0.5465822 0.6193117 0.69355845 0.69297725 0.32353956 0.28435412 0.394032 0.4703204 0.48993173 0.6712898 0.6352174 0.17054392 0.33625266 0.33722594 0.37311757 0.38545918 0.53299755 -0.08347593 0.4114907 0.43804425 0.3651159 0.41780767 0.07083614 0.017002024 -0.17047995 0.4605931 0.32929218 0.15713616 0.22867826 0.09846334 0.469749 0.4497918 0.41405421 0.42331445 0.09145409 0.3693781 0.085369006 0.35702312 0.109423846 0.26778 0.3062436 0.10316204 -0.01190092 -0.06860294 0.5449705 0.4597267 0.3701983 0.23629966 0.5724966 0.5594513 -0.104215816 0.5663302 0.11082618 0.4551057 0.48101437 0.30889076 0.27165914 0.32540005 0.10826089 0.30294183 0.054352246 0.28808677 0.251326 0.14361101 0.34029362 0.32275474 0.4057891 0.44893193 0.52181 0.56177104 0.54069173 0.5806364 0.5696779 0.10574745 0.097198576 0.019180275 -0.28636128 0.6071712 0.6755651 0.7193954 0.41158926 -0.020506024 -0.03564664 0.13696271 0.45624334 0.55864537 0.7815343 0.858998 0.6616093 -0.03166569 -0.07702857 -0.21627067 -0.43899298 -0.5656337 0.8799802 0.8402555 0.78781754 0.71290374 0.025140587 -0.3710047 0.37341863 0.45408103 0.8456481 0.106171064 0.061724342 0.15757062 0.18070285 0.3681795 0.4733161 0.3690468 0.150302 0.18021388 0.242863 0.22477834 0.6180402 0.36281738 0.3519001 0.71781564 0.16731454 0.25793093 0.35094002 0.33048272 0.73643136 0.6810054 0.41171557 0.3022101 0.26036704 0.6789943 0.6272503 0.56667316 0.16704278 0.21770671 0.23884968 0.22283764 0.34125602 0.39151752 0.1452675 0.25129157 0.24101077 0.41057462 0.4259119 0.40077782 0.54914206 0.5920577 0.68127996 0.71911603 0.6908118 0.0065073296 0.17826007 0.33700854 0.44900906 0.50610495 0.64254904 0.59655094 -0.04390342 0.31563568 0.4099518 0.46672255 -0.09782946 -0.08445119 0.30310643 0.38102758 0.37074354 0.34602907 -0.16729493 0.3949387 0.26529765 0.15815766 -0.17177832 0.02504528 -0.044797063 0.3897342 0.3959747 0.17073295 0.35929132 0.28838387 0.37850174 0.31363648 0.22140224 0.36237258 0.21073002 0.11979663 0.22405607 0.27072793 0.09027285 -0.07139441 0.18599762 -0.21846889 -0.22287188 0.5110586 0.44462916 0.24799246 -0.30050573 -0.092811815 0.5607652 0.396976 0.5143813 0.53474236 0.1504859 0.21178478 0.49338943 0.327866 0.35112554 0.39721012 -0.02882655 0.40606257 0.4771993 0.0065198615 0.42629844 0.47529453 0.1913855 0.42050463 0.49081004 0.27495137 0.32185078 0.3570253 0.242247 0.31977993 0.44184428 0.52350396 0.4997181 0.1634784 -0.06626104 -0.07143456 0.3224803 0.54826534 0.6275265 0.3260313 0.047874704 -0.04635872 -0.21047132 -0.08431874 0.441261 0.5081837 0.7745352 0.59596026 0.49880147 0.13727643 0.1070658 0.23892608 0.885079 0.86076427 0.80909765 0.73071206 0.26478314 0.21040791 0.24914214 0.8484622 0.82218456 0.3328548 0.19169363 0.22351433 0.25622264 0.42347854 0.2933602 0.1938538 0.16676252 0.06860994 0.18391126 0.2893964 0.30458793 0.27502593 0.2310723 0.33078516 0.29417342 0.41132107 0.12381041 0.20014279 0.28388658 0.29815513 0.5129421 0.43640095 0.42528433 0.2930025 0.2994693 0.24460301 0.53577846 0.29382515 0.07324527 0.23109353 0.24989477 0.29769146 0.34697878 0.39492047 0.42531464 0.061740443 0.42188272 0.3786469 0.5620577 0.6255158 0.67418253 0.6595698 0.6207002 0.10057642 0.092666075 0.3246233 0.4545616 0.5160186 0.571395 0.5866252 0.011097144 0.21751897 0.40617642 0.47558516 0.4265947 0.039220132 -0.011196708 -0.01027776 0.13215326 0.20051713 0.3401043 0.30431926 0.3252808 0.018414056 0.010201139 0.2778263 0.45389628 -0.20502503 0.3261667 0.29892612 0.47664046 0.42578632 0.32868138 0.44661075 0.4395608 0.31829196 0.36938107 0.23645777 0.26396236 0.166789 0.19173487 -0.023760129 -0.16749871 -0.07366673 0.5257882 0.48470002 0.36444998 -0.040382788 0.50612366 -0.020047255 0.4661026 0.23997653 0.41838163 0.4223395 0.5053458 0.5282521 0.041294705 0.4806099 0.21662886 0.34845442 0.3281089 0.25304657 0.039643995 0.09538105 0.37712836 0.2115221 0.5491679 0.4808383 0.1657773 0.0052362382 -0.042776085 0.62861764 0.6064231 0.33867145 0.002329275 0.0018791817 0.73491347 0.77491117 0.46493518 -0.021799792 0.8622847 0.8503171 0.8172706 0.718444 0.38409054 0.08114132 -0.08653301 0.51479554 0.41733354 0.2570087 0.4945253 0.4866366 0.11055337 0.14976281 0.2826409 0.34481832 0.3416661 0.31186253 0.4538459 0.40452084 0.21531847 0.16895914 0.18095884 0.093678154 0.088377625 0.1191691 0.19326808 0.22573224 0.26727396 0.17314677 0.18568578 0.25910592 0.21122003 0.14012681 0.3266276 0.35545838 0.35818958 0.10562423 0.093436375 0.14572775 0.23287424 0.34664428 0.3729689 0.4079619 0.42979336 0.19499713 0.12782006 0.13241449 0.4107403 0.62276655 0.62820876 0.61026365 0.19211894 0.3115527 0.50431395 0.56968117 0.586895 0.55871487 0.503086