# vtk DataFile Version 2.0
Really cool data
ASCII
DATASET POLYDATA
POINTS 7177 float
-16.518538 -1.8923762 14.433452
-16.582817 -1.4019094 13.883361
-16.622023 -1.3946425 14.380136
-16.546263 -1.6210616 14.874523
-16.668755 -0.39601153 13.817094
-16.694471 -0.51990855 14.4239
-16.621614 -0.36098182 14.982687
-16.63687 0.4984919 13.778361
-16.684809 0.44710553 14.523385
-16.608297 0.46486333 15.030396
-16.609903 0.91656697 14.189227
-16.569225 0.838448 14.884892
-15.773349 -2.845406 14.0371475
-15.880064 -2.8078 14.613014
-15.905994 -2.7963269 14.88053
-16.001167 -2.028064 13.243261
-16.208773 -2.2604723 13.782983
-16.341684 -2.2807906 14.512597
-16.172842 -2.263914 15.08225
-15.660588 -0.941956 12.24547
-16.0085 -1.3375363 12.796558
-16.424753 -1.3407586 13.470871
-16.381958 -1.4457539 15.165605
-15.826382 -1.0854638 15.713878
-15.631596 -0.17057604 8.422363
-15.714578 -0.041886717 9.083012
-16.04996 -0.7607267 12.757694
-16.35127 -0.40104753 15.387879
-16.2145 -0.19827372 15.688614
-15.795982 0.5505564 8.603548
-15.86212 0.50420135 9.191178
-16.395987 0.4590258 13.090733
-16.520264 0.830577 13.696805
-16.396578 0.5186673 15.33442
-16.040485 0.4931101 15.755636
-15.704725 1.3680037 8.5957365
-15.7516985 1.3702027 9.333313
-16.165071 1.1913605 12.993325
-16.360378 1.1392102 13.506265
-16.374443 1.2648951 14.488257
-16.187704 1.1932888 15.237303
-15.871759 1.0853727 15.70212
-15.577291 1.8849885 9.271941
-15.997007 1.8238926 13.57663
-15.880702 1.9272096 14.114962
-15.82335 1.7428285 14.928767
-14.927822 -7.8042865 16.609468
-14.953872 -7.7448683 17.185736
-14.647891 -6.994771 14.873822
-14.959384 -7.428205 15.881159
-15.247736 -7.356567 16.625006
-15.151337 -7.3639307 17.339212
-14.943053 -7.1436925 17.83525
-15.082763 -6.6847296 15.572827
-15.407031 -6.6733227 16.601255
-15.285662 -6.632585 17.380554
-15.051659 -6.6079526 17.856264
-15.144676 -5.843561 15.802169
-15.311118 -5.904767 16.633535
-15.111087 -5.6800876 17.393602
-14.860091 -5.8517666 17.91621
-14.852322 -4.3751264 15.86616
-14.971994 -4.5064816 16.612211
-14.818589 -4.570497 17.432207
-14.967447 -2.7295146 13.130597
-15.5765705 -2.6947856 13.536092
-15.640167 -2.8477418 14.942203
-14.620095 -3.1916037 16.428955
-14.701495 -1.8579172 8.210989
-15.337631 -2.2923875 12.765738
-15.728997 -2.342882 15.489008
-15.0744095 -2.2225916 15.932922
-14.817832 -1.1524483 7.1767955
-14.980025 -1.3414308 7.6149073
-15.212922 -1.1166859 8.46219
-15.200265 -1.4813817 12.144121
-15.3804455 -1.7882824 12.390443
-14.818971 -0.6068844 7.0718293
-15.27897 -0.4801462 7.7125845
-15.451775 -0.59038126 8.600566
-15.545748 -0.39965904 9.118055
-15.000695 -0.46678442 9.882193
-15.569298 -0.26269674 15.96335
-15.3774395 0.34841412 7.731409
-15.160749 0.5045665 16.119276
-14.819057 0.9234409 7.281139
-15.205862 1.4162779 7.816108
-14.929892 1.7869477 10.172948
-15.103389 1.2273226 12.002688
-15.691094 1.5975956 15.36625
-15.461869 1.1777127 15.858922
-15.030029 2.3711658 8.104564
-15.248905 2.2949092 8.805676
-15.284441 2.298761 9.43337
-15.281687 1.7836676 12.633021
-15.133208 2.2732635 13.439034
-15.367848 2.2598135 14.592843
-15.328293 2.0667832 15.164702
-15.004745 1.8534777 15.75004
-14.8815 3.2032056 8.153293
-14.901236 3.340069 8.3962965
-14.971459 3.432061 9.406181
-14.73456 3.4748445 10.201031
-14.718572 4.131884 8.306993
-14.812314 4.357096 9.403549
-14.665375 5.2246704 8.562378
-14.804019 5.5778303 9.304656
-14.613889 5.2613473 9.932065
-14.66127 7.788568 12.240475
-14.761802 8.012589 13.269576
-14.572087 8.460153 6.908217
-14.549447 8.515095 7.5252347
-14.769748 8.355972 12.806693
-14.807385 8.463954 13.346526
-14.660833 8.345534 13.932224
-14.597463 8.971829 6.9970393
-14.5539875 9.003052 7.244636
-14.724499 8.959952 12.779509
-14.690293 9.197238 13.467056
-14.617708 8.962841 13.929332
-13.554162 -9.232577 22.4969
-13.524328 -9.147905 23.026567
-13.6253605 -8.413565 14.583415
-14.3803215 -7.9834676 15.71329
-14.45384 -8.095892 16.443554
-14.493853 -7.962361 17.337822
-13.54696 -8.9456005 22.691418
-13.595995 -8.934237 23.076792
-13.718471 -7.2377014 14.093142
-14.259909 -7.2917805 14.646694
-14.612047 -7.5343747 15.2746
-14.21989 -7.235535 18.346397
-13.632632 -7.3195066 19.64574
-13.548574 -7.5945325 20.140114
-14.084517 -6.846819 14.268561
-13.809857 -6.5323706 19.243261
-14.013405 -5.9458375 14.338968
-14.360497 -5.878817 18.282326
-13.898201 -4.9069033 35.69247
-13.941518 -4.9202504 36.40895
-13.801046 -4.8571315 37.07927
-13.730173 -4.6558075 14.496371
-14.480174 -4.697296 18.024513
-13.841037 -4.39043 34.945736
-14.238378 -4.2799354 35.62801
-14.217617 -4.464533 36.35204
-13.970481 -4.366096 37.324413
-13.780433 -4.143041 37.736137
-14.208193 -2.7844636 12.746649
-14.275967 -2.9823887 13.695686
-13.891577 -3.4489722 14.381798
-14.4905615 -3.3804948 16.193443
-14.390842 -3.885067 17.643038
-14.285717 -4.06843 17.932314
-14.081002 -3.5336878 34.947594
-14.35721 -3.5448725 35.500736
-14.402798 -3.5869088 36.403866
-14.122736 -3.4681075 37.38719
-13.838686 -3.51117 37.788452
-14.045049 -1.7913963 7.15341
-14.385207 -1.9221957 7.5752215
-14.467145 -2.0281355 8.420595
-13.79151 -2.5862916 11.603076
-14.759444 -2.162013 15.800074
-13.907591 -3.1472774 17.793524
-14.055722 -2.4768226 34.768524
-14.364851 -2.317794 35.587276
-14.348054 -2.5082273 36.38617
-14.108462 -2.6349494 37.159992
-14.42537 -1.2757903 6.984966
-13.786008 -1.6303651 10.237766
-14.760207 -1.3549962 16.079945
-13.571529 -0.90885955 27.544165
-14.0144415 -1.1395168 30.715563
-13.986019 -1.1938314 31.424938
-13.761248 -1.1086835 31.997097
-13.849759 -1.7232708 34.672123
-14.252813 -1.7012647 35.42968
-14.151219 -1.7981324 36.450863
-13.9145 -1.9384063 37.07595
-14.380773 -0.59527797 6.804634
-14.014125 -0.7577665 16.605114
-13.539247 -0.54119444 26.729637
-13.604202 -0.19729139 27.508535
-13.68273 -0.3200048 28.701595
-13.82884 -0.33699903 29.705694
-14.134883 -0.5399 30.630295
-14.172175 -0.43872225 31.417727
-13.906718 -0.7740817 32.04406
-13.790391 -1.0279881 36.236095
-14.392485 0.4791332 6.93247
-14.341794 0.90195554 16.254633
-13.534578 0.65598965 26.756617
-13.657978 0.5118294 27.52172
-13.693418 0.5370946 28.448301
-13.835161 0.3939999 29.641735
-14.09559 0.05374044 30.792765
-13.898546 0.38187563 31.343527
-13.697279 0.4353084 32.13556
-14.17369 1.3466829 7.0267835
-14.58131 1.6824323 11.950185
-14.619229 1.411003 16.198097
-13.621547 1.8278911 26.672705
-13.694512 1.3000176 27.387846
-13.648921 1.450768 28.423153
-13.663967 1.4854316 29.474428
-13.64506 0.8571923 31.45922
-13.995902 2.4472895 7.3608704
-14.589427 2.724473 7.701357
-14.513386 2.3526032 11.789607
-14.554195 2.6018543 15.274002
-14.378049 2.0123365 16.047804
-13.629708 2.6706905 25.855358
-13.609355 2.6217244 26.4735
-13.658723 2.1816366 27.19426
-14.4980345 3.5699298 7.956605
-14.292519 3.6094375 11.251231
-13.97984 3.3224494 14.416772
-13.997446 2.7385688 15.748623
-13.533177 3.4443557 24.471285
-13.759706 3.562411 25.705994
-13.703717 3.614747 26.342852
-14.26777 4.30087 8.0702305
-13.739802 4.7900596 12.453197
-13.604427 4.3298163 25.66098
-13.6144 4.1698937 26.618332
-14.16682 5.190598 8.083442
-14.441033 5.177247 8.357434
-14.413205 5.680866 10.502293
-13.896459 5.6822214 12.473939
-13.591379 6.0190105 35.800293
-13.863499 6.1475034 36.72277
-13.569761 5.629568 37.079243
-13.62207 6.8673973 6.88935
-13.822787 6.1879916 7.5625744
-14.46464 6.8007183 8.850017
-14.445713 6.371337 11.4408455
-14.4157095 6.992372 12.688721
-13.854605 6.93897 13.93118
-13.545123 7.055159 31.723625
-13.683785 6.814889 35.949757
-13.883305 6.580495 36.504997
-13.810151 6.4587574 37.302513
-13.696689 6.6661854 37.969875
-14.004698 7.8862586 6.076184
-14.25855 7.8231277 6.6482544
-14.446629 7.8883758 7.2886767
-14.353124 7.7375784 8.017271
-14.291208 7.115496 9.557098
-14.336756 7.634412 10.776077
-14.410769 7.5862036 11.436011
-14.39084 7.1227427 12.438896
-14.466347 7.4171104 13.612887
-14.317491 7.6137757 14.088985
-13.904956 7.984752 14.7542715
-13.558294 7.516142 31.607824
-13.542852 7.9214554 31.941698
-13.742754 7.1364555 36.068985
-13.810902 7.351352 36.606533
-13.80851 7.373065 37.27624
-13.635331 7.387267 38.010597
-13.962316 8.600521 5.7884054
-14.424684 8.436779 6.540803
-14.34892 8.465505 8.143152
-14.322443 7.9920573 10.707085
-14.365501 8.427141 11.679808
-14.358413 8.660108 14.517231
-13.870924 8.550712 15.346785
-13.51083 8.438496 30.97199
-13.550117 8.369293 31.495949
-14.042897 9.32808 5.919971
-14.395883 9.340581 6.574353
-14.392927 9.425483 7.348869
-13.763579 9.505522 8.110847
-14.235997 9.355308 11.996573
-14.250382 9.562649 12.392214
-14.378232 9.660769 13.610837
-14.144753 9.637265 14.504504
-13.962951 9.373751 15.374097
-13.706772 9.019629 15.75601
-13.524539 9.48187 30.635794
-13.514956 9.76984 31.13142
-13.849031 10.061009 6.1191134
-13.933244 10.157747 6.5430875
-14.018133 10.063372 7.1748686
-13.750958 10.180065 12.676136
-13.767413 10.549868 14.011486
-13.6107025 10.840873 14.901053
-13.690191 10.064133 15.393707
-13.519318 10.033138 30.929056
-13.61383 11.080871 14.75747
-13.576743 10.881546 15.040028
-12.642921 -11.981128 17.618883
-12.605999 -12.00142 18.537636
-12.588053 -10.895038 15.550802
-12.710879 -11.313042 17.35116
-12.75056 -11.3012085 18.356907
-12.611116 -11.352827 19.127909
-12.810875 -10.843208 22.719292
-12.639858 -9.957704 13.799122
-12.757877 -10.244519 14.766943
-12.85237 -10.294761 15.263413
-12.757261 -10.362515 16.812315
-12.793962 -10.488026 18.35403
-12.761972 -10.036826 20.61211
-13.052797 -10.124595 22.066132
-13.252157 -10.085484 22.485947
-13.003465 -10.332029 23.425545
-12.773787 -10.14302 24.309832
-12.721905 -9.534796 13.765423
-13.039893 -9.717325 14.740934
-12.967235 -9.80734 15.52385
-12.950113 -9.074538 16.53322
-12.909036 -9.518079 17.529709
-12.815956 -8.965813 18.389578
-12.916735 -9.249779 19.607792
-13.345502 -9.436014 21.71742
-13.482043 -9.475009 22.733267
-13.365496 -9.399482 23.494476
-12.922307 -9.579658 24.151705
-12.915588 -8.052172 13.1858015
[...]
POINT_DATA 7177
SCALARS features_00 float 1
LOOKUP_TABLE default
0.61457956 0.6138177 0.6179962 0.60101545 0.60271525 0.60934603 0.6039407 0.57523704 0.59275913 0.5930155 0.57742625 0.5860654 0.5753166 0.59239715 0.5761539 0.5611048 0.59611446 0.6105323 0.57343745 0.48161083 0.54775524 0.59726524 0.58000743 0.5082988 0.5855195 0.5443642 0.5558276 0.58434296 0.5618821 0.5684563 0.534664 0.5365714 0.5598875 0.5823907 0.5460869 0.5007527 0.44665518 0.47505438 0.5330742 0.57251495 0.5636296 0.5290525 0.380085 0.50946087 0.5382807 0.5383481 0.5050176 0.49943995 0.3564551 0.49543884 0.56123394 0.5305526 0.4722197 0.49989727 0.60040855 0.544255 0.4633525 0.5365562 0.5519993 0.4322881 0.3596985 0.29246563 0.29256994 0.2432623 0.38521028 0.5264053 0.5466495 0.010454252 0.6237043 0.44758716 0.4834277 0.28552294 0.7336342 0.7026179 0.60105014 0.39869475 0.4480729 0.7090244 0.65316856 0.5810726 0.53178567 0.42838284 0.47445536 0.6105291 0.43045592 0.55200696 0.4928277 0.13615176 0.22480589 0.51757574 0.48213163 0.37647575 0.36601388 0.29916155 0.34283122 0.42123324 0.4861225 0.47168386 0.42028803 0.31251973 0.29901877 0.24877435 0.12839082 0.24609083 0.22968519 0.19308835 0.22160566 0.18470666 0.36491463 0.443198 0.5755753 0.5427699 0.43693447 0.4660798 0.47717673 0.6252006 0.61556995 0.453956 0.48570007 0.49755222 0.37551934 0.4099608 0.17718643 0.36419275 0.40446538 0.40724188 0.3784976 0.39952528 0.2269912 0.29061663 0.3808577 0.318753 0.15600777 0.16119222 0.2589624 0.16901688 0.26442307 0.2658025 0.64732814 0.6584202 0.6350744 0.12861538 0.18612117 0.59248745 0.6854676 0.7077159 0.66438305 0.6439881 0.22070354 0.2597344 0.13053367 0.037136674 0.10957721 0.10864165 0.578102 0.6712637 0.77259284 0.688483 0.6504041 0.7425339 0.70073396 0.5538732 0.054309167 0.2545144 -0.00191091 0.5070226 0.6491617 0.69085217 0.64708257 0.7523171 0.14932871 0.298027 0.23207283 0.45569006 0.44936 0.42100084 0.4492368 0.5936538 0.603371 0.5828381 0.7144178 0.10920453 0.20734367 0.2003904 0.21862607 0.33511314 0.45114642 0.45637724 0.42994335 0.53071076 0.59547424 0.3161568 0.14461823 0.16364169 0.19487575 0.3083844 0.4242431 0.4067036 0.38171244 0.47490537 0.108353645 0.35986623 0.14184332 0.14391747 0.17921576 0.2601813 0.3568762 0.36661255 0.34710696 -0.04686702 0.353157 0.32834756 0.22302642 0.2044379 0.16472727 0.28008896 -0.05469904 0.19265504 0.27026296 0.32224604 0.3051313 0.28571826 0.21802106 0.02093263 0.32619637 0.2831022 0.14738911 0.17317095 0.12500691 0.10824952 0.3639804 0.50024295 0.49336907 0.3254419 0.18316877 0.12262742 0.15917216 0.31700048 0.34198302 0.22275096 0.43168622 0.5035298 0.5748533 0.6446705 0.51644045 0.49711883 0.47864115 0.3665423 0.052168943 0.20361328 0.27314946 0.3117814 0.41500053 0.4386043 0.46605164 0.22995518 0.25472647 0.4606642 0.55331534 0.6391912 0.7271068 0.6003479 0.58691025 0.46254528 0.226563 0.36529976 0.4947058 0.49979457 0.21486041 0.24109668 0.6562952 0.66973907 0.6481658 0.5681826 0.4026239 0.41845357 0.47950232 0.50351596 0.5232329 0.52318233 0.24865335 0.28456548 0.6830838 0.6973353 0.6744702 0.3988924 0.4871921 0.5725609 0.561851 0.31048965 0.57942903 0.5909975 0.35275853 0.36077964 0.17484792 0.23285568 0.25105864 0.23075004 0.4462663 0.22102064 0.20613562 0.16536018 0.09254116 0.11069778 0.12541296 0.3773762 0.4108403 0.44981676 0.4190531 0.19139919 0.19049682 0.12509428 0.014818503 -0.015495568 -0.046198845 0.05854254 0.30077758 0.40428263 0.4425092 0.44596887 0.06688459 0.09528977 0.14295198 0.015430674 0.09237124 0.16499546 0.27159438 0.3601489 0.39975697 0.40966105 0.40126407 0.5029254 0.1952952 0.1939619 0.22490159 0.34587312 0.34447855 0.41304255 0.4746198 0.4852687 0.19483554 0.18109648 0.20404565 0.38222003 0.44045448 0.46014673 0.56711894 0.08270389 0.09285857 0.56491864 0.5968944 0.61238074 0.59668434 0.60274184 0.04331055 -0.028577039 0.53394747 0.6251794 0.6102814 0.1436994 0.10335483 0.03539577 0.14939809 -0.016808083 -0.09084338 0.42935875 0.5125603 0.6146448 0.7439712 0.587011 0.4788994 0.1484645 -0.12506083 -0.1560027 -0.09686687 0.1815247 0.14684065 0.10441711 0.17120616 0.20254989 0.3871318 0.39468816 0.2562145 0.32308084 0.57480836 0.54810035 0.7401296 -0.10831469 -0.07628456 0.09121668 0.15095039 0.11496987 0.13764554 0.20215614 0.23691383 0.22505781 0.36875433 0.14466088 0.3845387 0.52277815 0.50826657 0.6404537 0.65980613 -0.13101617 -0.123897076 0.111594476 0.09413512 0.04119951 0.059055746 0.07348356 0.15173775 0.20134208 0.15646325 0.45511186 0.47796404 0.5055097 0.558067 0.18618472 0.1504371 0.17043087 0.23304577 0.18584612 0.0021545184 0.11881088 0.18369342 0.35783404 0.32917625 0.4513856 0.074598044 0.25492728 0.2884148 0.27125895 0.23991063 0.13386582 0.124965385 0.11946967 0.29120654 0.31152195 0.3945109 0.12546045 0.3158702 0.32046524 0.3126077 0.19385542 0.1953699 0.22916904 0.20413357 0.15163179 0.18041594 0.1362384 0.13073242 0.20046404 0.2945517 0.24196868 0.08518448 0.19871923 0.31964022 0.3171206 0.34791726 0.35330185 0.23014554 0.12031861 0.077995025 0.115198255 0.1929864 -0.13216367 0.35211843 0.3584742 0.3285733 0.2810607 0.23644632 0.014732204 0.054819137 0.21166533 0.3276745 0.48153973 0.14029343 0.12070377 -0.038636655 0.29918513 0.32621336 0.29359788 0.27101076 0.20757422 0.113339484 0.16377565 0.06037076 0.064201675 0.12675911 0.20209128 0.5254668 0.52466226 0.59917593 0.28468663 0.31410182 0.25897613 0.22175224 0.19484943 0.15214299 0.08661777 0.19520798 0.20850483 0.19718544 0.19195676 0.6453463 0.7358395 0.47027475 0.47018212 0.439213 0.46714967 0.17603967 0.17602593 0.09959858 0.13175352 0.20155641 0.2471264 0.23995647 0.41252437 0.51755595 0.8195554 0.8398421 0.54313815 0.55603147 0.5025152 0.33976406 0.30324405 0.23527874 0.21011892 0.20903867 0.22740963 0.2765321 0.5504416 0.76930606 0.8639151 0.9059572 0.57628095 0.6310844 0.12266957 0.2606676 0.56266814 0.40724513 0.39612255 0.3366591 0.26380497 0.24500987 0.25191447 0.8156547 0.9053388 0.9242351 0.54547226 0.6201656 0.6575972 0.6095257 0.4237082 0.3286181 0.43426016 0.4520872 0.5808338 0.6673739 0.4179245 0.40073043 0.3644389 0.3703973 0.45995045 0.56199056 0.63469654 0.54743624 0.63175285 0.6922244 0.75961685 0.423826 0.45787138 0.50906986 0.62248206 0.67898345 0.679247 0.59999096 0.7097311 0.77394235 0.8011556 0.56256706 0.67084605 0.73819995 0.7499325 0.53402483 0.57124174 0.59007347 0.51063555 0.52185047 0.53415835 0.35453406 0.39663357 0.4062154 0.44045454 0.40846926 0.30565414 0.3337038 0.22719012 0.22192934 0.22884926 0.17338023 0.3163789 0.43196994 0.32349917 0.23915711 0.23279034 0.10229874 0.39851207 0.2520179 0.29308656 0.5005813 0.5343703 0.27960944 0.26147023 0.41550863 0.50076574 0.5474689 0.559389 0.30824074 0.30112547 0.21166083 0.3123497 0.41197062 0.47375768 0.52897817 0.53341705 0.30539286 0.3037622 0.27675256 0.27535084 0.13674724 0.19105254 0.39562678 0.49175498 0.45637637 0.27409798 0.22011358 0.19921121 0.34099096 0.44587833 0.39929324 0.40126356 0.5190227 0.5058079 0.48872092 0.13996996 0.064048946 0.14357737 0.22921568 0.34188795 0.40015426 0.37296972 0.4613105 0.5223955 0.528891 0.5590236 0.18276976 -0.040790103 0.2005957 0.26327458 0.3573151 0.56877357 0.19519457 0.19268547 -0.12467762 0.12830713 0.13856418 0.060883123 0.049037673 0.00640136 0.57028306 0.5649321 -0.14896537 0.18559721 0.17640665 0.12945645 0.08446441 0.11557806 0.14463878 0.24306749 0.21995783 0.18583538 0.5069052 0.6114772 0.16557764 0.5931662 0.3762504 0.3894006 0.50505567 -0.016331809 0.05773519 0.29526952 0.4400113 -0.17351955 0.013295956 0.35229114 -0.29478022 0.16555993 0.010744095 0.18011822 0.22858362 0.2782911 0.29291016 0.099288665 -0.036597855 0.2846958 0.35660136 0.3875888 0.109729305 -0.15991405 0.19530252 0.21902966 -0.002297219 -0.05093645 0.44656694 0.5254491 0.32012722 0.21163324 -0.09685995 0.1712824 0.19735637 0.2778389 0.010447156 0.40732753 0.38496798 0.12673314 0.22087717 0.18594705 0.7368357 0.80303884 0.5054936 0.47247577 0.36099735 0.17831305 0.2581917 0.8515863 0.8736806 0.5271674 0.5165001 0.4638212 0.26039466 0.27672458 0.19575635 0.1647389 0.4901798 0.9331714 0.91560674 0.54695606 0.540653 0.54586375 0.6004169 0.37202668 0.44895315 0.9122974 0.9311698 0.94242847 0.50021267 0.40998426 0.14262511 0.02648975 0.10298666 0.71010375 0.63794863 0.4116119 0.43489578 0.65310824 0.47857502 0.511397 0.2910015 0.05181513 0.4092286 0.7954328 0.7813853 0.41194266 0.44262686 0.46411705 0.48290023 0.72176963 0.72883093 0.7793745 0.8374492 0.8533076 0.4937269 0.5299407 0.5747504 0.70718837 0.7881382 0.817191 0.80117375 0.83521104 0.57848537 0.63624007 0.76686895 0.84774977 0.47993046 0.53580064 0.600191 0.62352043 0.60806584 0.4352337 0.491145 0.5582191 0.258197 0.44689143 0.17984189 0.31083572 0.22312805 0.2120296 0.26691037 0.17147571 0.20610876 0.2796132 0.22952619 0.21289614 0.23562236 0.19604701 0.41438177 0.5017213 0.5380296 0.25706118 0.25737074 0.2532316 0.25300267 0.54460156 0.29759118 0.2764725 0.27111915 0.46290308 0.32363617 0.31320712 0.2973935 0.34628114 0.31929484 0.3175268 0.2978678 0.27290142 0.2729858 -0.052797534 -0.04512606 0.32691526 0.26939642 0.37818992 0.3955838 0.13606335 0.048318803 0.042434737 0.31096408 0.2234005 0.23738745 0.23829564 0.4586547 0.44161317 0.17793417 -0.055934068 -0.025126874 0.01077798 0.22068514 0.09597894 0.1387134 -0.081944995 -0.107862204 0.050700434 0.10335882 0.15162 0.05364149 -0.01969789 0.02331468 0.49466985 0.20027147 0.36775815 0.49462315 0.39788657 0.2570731 0.22965258 0.41396666 0.42108735 0.19154395 0.43343037 0.37505764 0.14146072 0.106683105 0.34294945 0.28425592 0.13807562 0.17387715 0.10786169 -0.23606125 -0.26365453 -0.28802586 -0.2923319 -0.3014651 0.38437614 0.049321994 -0.18324329 0.04460434 0.05548247 0.001175167 0.51164645 0.3088155 0.16048315 -0.13251549 -0.048571415 0.6882577 0.40850607 0.35075468 -0.13883771 0.06763171 0.7904316 0.5011978 0.45901388 0.15674259 0.85848165 0.5443226 0.4409716 0.19531876 0.21438807 0.67061573 0.92317224 0.8963314 0.55721647 0.6099826 0.27830365 0.3620357 0.85592854 0.9185996 0.93282324 0.49125192 0.43121618 0.6996126 0.3733123 0.38301098 0.38401955 0.3122031 0.016314954 0.51047975 0.8308594 0.7865486 0.38999534 0.4217567 0.7640554 0.73134255 0.85671246 0.87029046 0.5146677 0.8776348 0.79170704 0.831319 0.591685 0.6937709 0.8959081 0.9497038 0.9288832 0.51642364 0.5594213 0.6395549 0.622177 0.5474663 0.3941989 0.44718957 0.47325096 0.459499 0.46199617 0.44298047 0.45871362 0.18706968 0.20227842 0.19160824 0.1339838 0.42801225 0.410308 0.37598073 0.11975421 0.19247165 0.13443403 0.2371591 0.3455766 0.4616993 0.50763345 0.27090713 0.3354694 0.29179388 0.40287316 0.33865562 0.33697522 0.27250922 0.19541445 0.22730218 0.40322447 0.31847215 -0.18514718 -0.3149881 0.18119007 0.10920161 0.19486442 0.20695183 0.27790886 0.25322032 0.3019305 -0.050178766 -0.042062297 -0.06340307 0.042251945 -0.019639231 -0.016242117 -0.13448176 -0.42521864 -0.24860846 0.25923938 0.07828662 0.07972784 0.06651361 0.048915535 -0.0024677515 0.088664584 0.12104419 0.05085867 -0.27713823 0.300724 -0.2131691 -0.27636236 -0.20236512 0.5261171 -0.17267 -0.30313087 -0.11279102 -0.17056374 -0.19212812 0.6195168 0.4487095 -0.09380104 -0.0900818 -0.16063197 -0.1970711 -0.067982286 0.7348435 0.7795024 0.48840746 0.4476682 -0.12495978 -0.056518875 0.05343943 0.78787833 0.8263515 0.5311028 0.14985839 0.3331115 0.6883652 0.7711643 0.8632107 0.85807234 0.55048764 0.5756415 0.2079158 0.25399202 0.7211858 0.86867344 0.8768784 0.39980102 0.6566568 0.27105984 0.29306805 0.41493315 0.38363028 -0.03517932 -0.012413405 0.2252251 0.75355184 0.2922271 0.35298717 0.7490319 0.50900304 0.45771942 0.5912459 0.68567395 0.7326908 0.82244945 0.55278176 0.61979556 0.8732405 0.6026312 0.569203 0.7387446 0.7706452 0.6569129 0.784794 0.9147936 0.9251697 0.8986075 0.60988873 0.5042619 0.56529033 0.61168313 0.6439036 0.5765065 0.41168302 0.46186814 0.48089588 0.56873673 0.585897 0.5367858 0.46024516 0.35180217 0.17912003 0.17490673 0.23823288 0.27576214 0.4506021 0.48287848 0.50567645 0.44979233 0.010542631 -0.14842857 0.049058378 0.10053306 0.23554102 0.19689856 0.2691598 0.41229272 0.4265764 0.09629797 -0.22786845 -0.17359352 0.12832433 0.4348333 0.29496652 0.35068673 0.19701034 0.53240114 0.45757562 0.36335808 0.31668112 0.30663255 0.2991615 0.51628506 0.4649639 -0.008296974 0.24486688 0.27857727 0.29065627 0.24921542 0.20653334 0.30833623 0.35914123 0.48685503 0.4093736 -0.4302061 -0.05596347 0.10779463 0.34237123 0.3844808 0.36867025 -0.44650015 -0.26401287 -0.32944322 -0.13385898 0.060959958 -0.2962672 -0.25061628 0.28039446 0.11108734 0.013482414 0.1582268 0.13994591 0.069191225 0.025264487 -0.16304186 -0.008016273 0.020956852 0.1435602 -0.036484167 -0.31063527 -0.27235064 0.43642414 0.6158605 0.39627233 -0.10210079 -0.04479552 -0.03253637 -0.14944793 0.47216022 0.46831393 0.42839995 -0.047438215 0.11969016 0.029560305 -0.10771558 0.31503096 0.4600568 0.56993705 0.7290251 0.48359415 0.07947947 0.1337624 0.26141393 0.34698755 0.7919142 0.50704914 0.20547953 0.19725305 0.19376062 0.42289412 -0.055259038 0.3284073 0.26806036 0.30428657 0.32148242 0.2666743 0.35525918 0.437398 0.3996203 0.33079928 -0.036091864 0.14422534 0.3995818 0.3798674 0.51618457 0.66515934 0.37213242 0.5160794 0.53147024 0.55335075 0.55375254 0.4821487 0.51326907 0.6599808 0.63665974 0.6920737 0.7342113 0.7783996 0.6291608 0.635594 0.60496056 0.5862247 0.60504246 0.76358676 0.82913715 0.8386042 0.6650514 0.6587317 0.62376565 0.5899417 0.6352174 0.6247294 0.5914898 0.6009106 0.5772443 0.48070315 0.44098043 0.49799466 0.5517232 0.56869376 0.47711572 0.17307827 -0.015737042 0.26697123 0.32035005 0.3526656 0.34384662 0.36301634 0.3786014 0.4013225 -0.041884907 0.10321545 0.30801672 0.31224734 0.3394218 0.3874312 0.33514065 0.36011726 0.1277352 -0.23144512 -0.16372006 0.28471386 0.35606673 0.38426965 0.13282904 0.48994347 0.42453307 0.3135571 0.27066186 0.52477586 0.5195787 0.31994 0.2941401 0.26425484 0.25516605 0.3187628 0.5276338 0.5324667 0.33543324 0.36325783 0.47806108 0.49045232 0.36320543 0.35817492 0.3944244 0.32363233 0.3430531 0.18532655 0.28274027 0.27381232 0.084252104 0.12491627 0.06963441 0.049359582 0.00905343 -0.09749113 0.0072928034 -0.106967606 -0.013973218 -0.12731567 -0.01779403 -0.19593823 0.09304811 0.1780925 0.2866345 -0.29709065 0.1482661 0.21215576 0.2852683 0.3316375 0.011498224 -0.17741725 0.21590099 0.39294362 0.01691848 0.124780536 0.1570673 0.21598862 0.24326333 0.4565754 0.25710693 0.2435315 0.18370068 -0.07727436 -0.083831154 0.023514517 0.19776122 0.49788126 0.2355596 0.34216905 0.32986334 0.27541566 0.10378477 0.08719571 0.02977568 0.45625317 0.19545656 0.2982921 0.30592877 0.1835638 0.067524165 0.40507153 0.4097264 0.30141625 0.4747822 0.15536782 0.21231863 0.20966709 0.20081946 0.18153802 0.49988562 0.48154777 0.4536367 0.42880785 0.5523998 0.60654235 0.5843881 0.6381693 0.6111226 0.6369096 0.6786542 0.7106912 0.7094661 0.68219125 0.6503035 0.5219888 0.58059204 0.62487566 0.60568225 0.5322435 0.5660105 0.5465363 0.5246461 0.4038061 0.46063054 0.49283162 0.5412968 0.40230763 -0.094506174 0.31370354 0.4072797 0.4519532 0.40991616 0.39285806 0.4046219 0.43427747 0.3686701 0.18768981 0.0075796843 -0.039916053 0.03397184 0.39822596 0.42502826 0.42427248 0.22147745 0.4055199 0.26538253 0.1589908 0.30649784 0.44702893 0.3695739 0.21398933 0.14991426 0.13279334 0.14306223 0.4983072 0.48576778 0.20873614 0.32770237 0.5197469 0.34786782 0.31705323 0.50498855 0.3049036 0.38325053 0.37819007 0.2517259 0.23579213 0.09426984 0.2511211 -0.10902217 -0.028403072 -0.095192716 -0.045570932 -0.040379576 -0.09938967 -0.095370844 -0.105868965 -0.12848495 -0.053744256 -0.24371319 -0.4118572 -0.23778057 -0.04860411 0.12916556 0.29409415 0.24610452 0.0079360455 0.0936937 0.3466875 -0.0631033 0.05948834 0.43933767 0.273886 -0.02538075 0.30817708 -0.01187817 -0.14993533 0.5388995 0.353607 0.34386358 0.28771523 0.11031473 -0.059811465 -0.10776913 0.16144292 0.3386388 0.26131493 0.23830752 0.51499534 0.54272795 0.1283836 0.2814435 0.3361001 0.28749126 0.24070905 0.5839602 0.60780394 0.626578 0.6514667 0.6668699 0.7009424 0.71245384 0.7408602 0.7154465 0.68730503 0.6746399 0.5319954 0.5508336 0.5253945 0.48165217 0.3695165 0.43720138 0.21866345 0.051874477 0.34588414 0.05962354 0.08172249 0.11297869 0.40344706 0.46954513 0.46006924 0.44899282 0.4529578 0.23364985 0.30952632 -0.053829566 -0.1006383 0.13724656 0.4510613 0.44614595 0.17532365 0.40824893 0.3782286 0.19270928 0.09159213 0.091103636 0.35972655 0.13408971 0.4748838 0.43432373 0.044402506 0.19802105 0.502495 0.2766748 0.29337218 0.4600677 0.3206444 0.32191703 0.27000734 0.4205044 0.19236061 0.066910885 0.17013767 -0.056345392 0.019546758 0.26777843 0.22334637 0.020484038 -0.11200727 0.30370158 0.27234423 0.19128251 -0.07096153 0.33175844 0.3675452 0.29147288 0.27572244 0.18103004 0.23517159 0.34480593 -0.0043487884 0.31207767 0.28564015 -0.00728105 0.052277684 -0.37113994 -0.5441338 -0.50746775 0.03686005 -0.034759086 -0.34259835 0.0069562197 0.026261613 -0.22771384 -0.14619939 0.08365701 0.427185 -0.011562869 0.19622359 0.5408581 0.52783155 0.09852107 -0.0017291903 0.010822162 0.25719863 0.3154936 0.09358541 -0.040996954 -0.030968338 0.14639103 0.22139959 0.5498307 0.38151133 0.30837542 0.24543525 0.16836604 0.27622417 0.30057108 0.032308064 -0.08333802 -0.03945527 0.6156254 0.36833727 0.35373002 0.32631224 0.63309157 0.6860794 0.6922107 0.71760756 0.68990314 0.70898294 0.7175542 0.72347844 0.7121899 0.46443963 0.44853634 0.3774091 0.3099509 0.38432652 0.3555804 -0.013510495 -0.0042738654 0.041563474 0.14665169 0.1301627 0.2670658 0.38313505 0.44815335 0.4270484 0.436373 0.19613242 -0.05997937 -0.12025942 0.0009848028 0.14703181 -0.13710056 0.1089948 0.20978652 0.44446194 0.43259633 0.39801168 0.1617813 -0.04469174 0.14204092 0.14865404 -0.4825244 0.104296505 0.08935803 0.08509802 0.10192959 0.08399868 0.24702458 -0.00888887 0.07851194 0.47114792 0.45648324 0.2915228 0.34396148 0.4574681 0.48623526 0.50925165 0.0336766 0.48778456 0.5147389 0.16538513 0.03526802 0.38266858 0.46342322 0.30616754 0.21453479 0.35016245 0.35782844 0.3608448 0.31250805 0.27235517 0.32506135 0.29983118 0.35847652 0.3129981 0.28721154 0.33931231 0.3307795 0.2781853 0.2755674 0.22262436 0.3294369 0.19036393 0.043620445 -0.10750726 0.27710786 -0.19154146 -0.34423155 0.18160953 -0.23011063 -0.60777164 -0.57294875 -0.026512332 -0.019920453 0.020620897 0.42416835 -0.028806925 -0.084415734 -0.28783602 -0.42363673 0.43314376 0.50029933 0.56131303 0.57289916 -0.0076301023 -0.1076443 0.4448369 0.5585512 0.6245043 0.63050663 0.0038280338 -0.0064784884 -0.13948506 0.62144434 0.06300171 0.04097172 -0.061695304 0.17293182 0.26220658 0.03764025 0.019425884 0.16463754 0.043367192 0.2077561 0.114430904 0.23299423 0.26207733 0.2699665 0.23366879 0.020305894 0.34759873 0.38187233 0.36129737 0.32854366 0.21399248 0.1554091 -0.13197255 -0.11572682 -0.05444932 -0.18703814 -0.20502107 0.14749475 0.24957454 0.61199474 0.5787513 0.67290974 0.35753298 0.3466063 0.08409798 0.10283308 0.67485726 0.6854404 0.7145931 0.2041897 0.23573458 0.18497977 0.67810094 0.69497275 0.7081121 0.72089666 0.3049587 0.36917663 0.39115947 0.30835986 0.29348105 0.27921435 0.71185464 0.31791148 0.38108185 0.4326051 0.4274096 0.4045192 0.3812122 0.45162016 0.47792324 0.47539836 0.44816852 0.47867945 0.278727 0.17747857 0.18662867 0.16718951 0.17251676 -0.03747693 0.06144373 0.225725 0.30241024 0.33283678 0.3750249 0.40680614 0.2411094 -0.10060531 -0.04489319 0.019682981 0.12123999 0.24198574 0.37334815 0.35072064 0.18430786 0.19895072 -0.18290648 -0.117293745 0.070689045 0.28690362 0.18263185 -0.31999764 -0.4791987 -0.30688924 0.15334468 0.05062472 0.0809558 0.10737759 0.08095414 -0.13651764 -0.004451886 0.17658912 -0.12330167 0.38993245 0.5178056 0.55680245 0.39251786 0.5474974 0.36908448 0.3288952 0.4810065 0.50814974 0.40119922 0.36586046 0.3351488 0.29888684 0.39977428 0.38535202 0.14487393 0.40230736 0.390979 0.1866841 0.4002877 0.37482435 0.2671879 0.24161649 0.3385358