# vtk DataFile Version 2.0
Really cool data
ASCII
DATASET POLYDATA
POINTS 7546 float
1.3834331 -13.210091 -4.383576
1.3793397 -13.151784 -3.8317575
1.0594635 -13.135627 10.720398
1.0093547 -13.156063 11.458975
1.1090034 -12.984321 12.016681
1.379469 -12.581607 -4.96782
1.2244602 -12.463979 -4.3833094
1.2746458 -12.311188 -3.7688982
0.91900575 -11.874535 8.977535
0.87317955 -12.260167 9.71566
0.6654123 -12.365875 10.608055
0.65140545 -12.445284 11.383942
0.9910614 -12.396292 12.329294
1.3757232 -11.924073 -4.9690876
1.2713878 -11.690395 -4.4266973
1.2978632 -11.731115 -3.8089814
1.2875397 -11.580699 8.096285
0.90448636 -11.441109 8.662783
0.7031198 -11.547411 9.451598
0.60996157 -11.625786 10.625464
0.7004076 -11.616462 11.363074
1.0464911 -11.602351 12.086765
1.3283169 -12.029379 12.976749
1.3951399 -11.266352 -4.199623
1.399264 -11.272617 -4.0568233
1.0619277 -10.55563 7.997047
0.83641326 -10.90015 8.497848
0.72449493 -10.676915 9.578745
0.83854294 -10.800141 10.426415
0.8716294 -11.097434 11.202816
1.1791441 -11.135992 11.874638
1.1548799 -9.494814 7.780707
0.9178738 -9.732115 8.444573
0.8916218 -9.971813 9.159885
1.1147649 -10.1202545 10.187759
1.2456985 -8.875352 7.7414274
1.1888595 -9.03382 8.24625
1.3035327 -8.857043 9.133425
2.0786805 -14.080412 -5.0774035
1.9475163 -14.29337 -4.452738
1.9535635 -14.287927 -3.7875178
1.9271653 -13.954454 -3.2953181
2.2333434 -13.856893 10.195806
1.9053075 -13.867517 10.803099
1.924629 -14.037179 11.390204
2.0420275 -14.019258 12.28595
2.2364166 -13.952205 13.071106
2.324683 -13.116372 -6.1288457
1.7745872 -13.296084 -5.3530626
1.5264566 -13.594602 -4.511635
1.6820532 -13.474341 -3.361699
1.922839 -13.4323435 -3.0581229
2.0837438 -12.661623 8.588114
1.7670912 -13.114771 9.464212
1.4890639 -13.484445 10.652776
1.3608639 -13.475133 11.276578
1.6969641 -13.437262 12.674337
1.7176371 -13.34903 13.016401
2.0647128 -12.993867 13.9866085
2.0264468 -12.443873 -5.9231234
1.6111637 -12.369891 -5.332862
1.4509883 -12.366199 -3.4024756
1.6565657 -12.384307 -3.1652875
1.9310582 -12.29954 8.08414
1.8195269 -12.480375 8.47685
1.6193398 -12.371045 13.544414
2.0390124 -12.413162 14.221352
2.0259175 -12.02025 -5.8539906
1.721091 -11.618034 -5.268896
1.4102494 -11.506636 -4.7683606
1.5916747 -11.460579 -3.4704204
1.6687543 -11.812323 -3.2390885
1.8362744 -10.986694 7.266449
1.7186557 -11.639729 7.653309
1.7331216 -11.601525 13.336743
2.0946655 -11.772068 14.206286
1.9189392 -11.053607 -4.9636645
1.6996052 -11.033564 -4.43085
1.793876 -11.1360235 -3.6769395
1.9708598 -10.268659 7.0470157
1.4800057 -10.622893 7.4535036
1.3252747 -10.948657 11.761339
1.8008153 -10.939419 12.452553
2.189626 -11.080584 13.734653
1.6973963 -9.287937 6.9876027
1.691086 -9.56941 10.306936
1.5318385 -8.704857 7.065502
1.4423666 -8.745736 7.2517233
1.6295738 -8.504738 9.31155
2.2496684 -8.96949 10.434984
2.2593307 -7.238561 3.994732
2.1885362 -7.222907 4.5080137
2.3827434 -7.5422087 5.200803
1.5619986 -8.009628 8.520872
2.0253136 -7.548557 9.185656
2.27213 -6.643308 3.8497386
2.1953042 -6.4877386 4.5796256
2.304718 -6.9208865 5.3518047
2.2992036 -6.836974 7.7351627
2.3582213 -6.0114946 3.8299081
2.3049045 -5.8643284 4.5311084
2.6825948 -14.784915 -4.4444065
2.503046 -14.706935 -3.7965045
3.148614 -15.025944 11.547124
2.9473572 -14.096683 -5.870028
2.3746567 -14.245086 -5.1923895
2.4094942 -14.476053 -3.3901951
2.7643032 -14.066595 -2.7714622
2.6119616 -13.961238 9.941199
2.4914556 -14.449049 11.056233
2.47096 -14.515112 11.666728
2.5415585 -14.551126 12.388178
2.5827682 -13.981935 13.444237
3.0168924 -13.088159 -6.8129487
2.6736133 -13.536162 -6.229956
3.4078352 -13.208759 -0.4257356
2.7421782 -12.887297 8.718818
2.5612905 -13.223611 14.343415
2.9079802 -12.999367 14.716939
2.8076344 -12.678606 -6.6904593
2.5025005 -12.381207 -6.49246
2.4543924 -12.559718 -2.7070146
3.3479557 -12.333574 -1.1041533
3.2905517 -12.727426 -0.44876915
2.5924075 -11.77796 7.3216925
2.6205025 -12.119096 7.6113267
2.4865687 -12.675593 14.586736
2.6510735 -12.384321 14.743839
3.142888 -11.918376 -6.9283094
2.6515255 -11.751734 -6.252724
2.6064122 -11.170189 7.122075
2.3761497 -11.447152 14.378677
2.6411207 -11.905785 14.687181
2.8109674 -11.131238 -5.9991097
2.6846225 -10.746234 -4.9391
2.4176235 -10.704308 -4.7228317
2.8399932 -10.698991 -3.8309927
2.3937588 -11.153523 -3.218295
2.7215292 -10.401741 6.8772373
2.63343 -11.130063 14.16314
2.4013057 -9.80788 6.713611
2.2945492 -9.957817 11.380813
3.0914233 -7.7897396 3.4860911
2.823261 -7.979772 5.211693
3.1573462 -8.497714 11.041679
2.8337593 -7.1603527 3.163336
2.575439 -7.1634383 3.4482946
2.4236 -7.7038813 4.4014273
2.5156398 -7.8524995 6.498762
2.7162857 -7.4788585 10.238055
3.3202496 -7.3331785 10.763238
2.7708046 -6.4380755 3.1392956
2.523895 -6.5739255 3.4030428
2.5609827 -6.211523 6.883861
2.5628386 -6.426413 8.445679
2.8414814 -6.472551 9.6347885
3.037442 -5.9396405 3.0033193
2.617212 -5.6631737 3.6414564
2.5120568 -5.361904 4.300674
2.4973958 -5.643356 5.1180606
2.7263904 -5.9436655 6.529029
2.8998818 -5.9836864 7.5021734
3.1626353 -6.011718 9.375572
3.3159158 -6.1643176 10.087171
2.8831892 -5.1212873 3.8260524
2.7045283 -5.1724954 4.422822
2.9113438 -5.0340667 5.0610175
3.928255 -15.6645 10.838292
4.0751376 -15.645697 11.094361
3.7535548 -14.872435 -5.3253613
3.5571387 -15.048066 -4.4252567
3.179127 -14.853272 -3.6528993
4.2920947 -14.960631 -1.2369887
4.281022 -14.808102 -0.41584367
3.8824992 -15.418358 9.89096
3.6430655 -15.478765 10.687635
3.5719738 -15.241337 11.707914
3.9492278 -15.121946 11.986363
3.5577185 -13.817754 -6.737867
3.3849976 -13.815561 -6.621717
3.250814 -14.515079 -5.6387196
3.8008904 -14.200222 -2.4261823
3.8385737 -14.037021 -1.3173515
3.9375746 -14.426164 -0.66638285
4.1296105 -14.315427 0.14095037
3.8877642 -14.393792 9.190612
3.466429 -14.701489 9.644518
3.2608736 -14.493928 13.156521
3.6812842 -13.699617 14.385262
3.5733025 -13.090121 -7.1204185
3.5052176 -12.918936 -1.632056
3.657367 -13.540413 -0.797628
3.6927955 -13.235127 0.503733
4.000965 -13.152887 1.0065563
3.7795966 -13.256726 8.749528
3.3634229 -13.5991955 14.419435
3.5861547 -13.227998 14.765929
3.7132773 -12.189449 -7.24355
3.5640686 -12.71052 0.50439155
3.913168 -12.576824 1.074124
3.9519222 -12.762851 14.99109
3.4904575 -11.841776 -0.71496814
3.947989 -11.816256 0.94105804
3.6672459 -11.158487 7.398146
3.1970322 -11.642777 14.75387
3.9286199 -10.63245 -6.2900343
2.9909446 -10.733125 -4.063091
4.1717553 -10.944973 -1.0686591
4.161814 -10.738081 -0.27795354
4.090979 -11.225191 0.50237054
3.4353414 -9.970879 6.8200693
3.9174428 -10.76037 14.276825
3.984248 -10.483322 -5.381165
3.6632063 -8.19866 3.837069
3.2267046 -8.278122 4.515773
3.93957 -8.798148 11.694885
3.601441 -7.530976 2.917575
4.2373514 -7.421217 11.804305
3.9580886 -6.2164984 2.461649
3.5877504 -6.3794518 2.6411204
3.6784983 -6.694419 11.105657
3.5781503 -5.5048876 2.9010623
3.6223345 -5.5191617 8.739602
3.6596167 -5.682508 9.412956
3.6742592 -6.056568 10.47879
4.114513 -5.939576 10.904116
3.2722774 -4.7310457 3.913327
3.7091868 -4.545287 5.429634
3.7724705 -4.5310225 5.9634314
3.73663 -5.3901305 8.277741
4.333212 -3.9854143 4.386576
4.271142 -4.3069344 6.371194
4.3384914 -2.216345 1.5384377
4.4325776 -1.6659845 1.1147698
4.3188596 -1.5421542 1.5903516
4.284841 -1.959981 2.1049867
4.3715215 -1.1050203 1.466479
5.484542 -18.644539 12.309059
5.056683 -15.568899 -4.074348
5.1896815 -15.705351 -3.5912585
4.4109774 -15.887779 9.990654
5.201052 -14.695028 -6.7772875
4.834956 -14.954726 -6.1454964
4.6498685 -15.291586 -5.1674676
4.6395016 -15.392816 -4.4838037
5.0387673 -15.447985 -3.2520447
4.8598127 -15.388926 -1.2666523
4.6067014 -15.226816 -0.6482448
4.9174376 -15.02342 0.29372427
4.926027 -15.272979 9.111617
4.336125 -15.006944 12.71943
4.7818766 -14.197791 -6.9488273
4.5386376 -14.377316 0.61538243
4.6424665 -14.392222 0.7725136
4.617847 -14.032581 8.829377
4.1929727 -13.698272 14.563933
4.3576136 -13.201441 -7.2834864
4.7803564 -13.745308 1.2329698
5.0827045 -12.822314 8.064239
4.49749 -13.809048 8.961261
4.1224957 -13.426437 14.668782
4.389684 -12.427408 1.5217665
4.582274 -12.252142 1.6540735
4.6456347 -12.704235 8.03827
5.033196 -11.002384 -8.206408
5.097886 -11.655769 1.5346875
5.256351 -10.16502 -10.109875
4.735736 -10.410934 -8.256544
4.8079486 -10.766599 -3.4054847
4.5472794 -10.554197 -1.2282978
4.732871 -10.650738 0.53679544
5.136435 -9.992851 14.842359
5.221204 -8.945199 -10.725599
5.0311365 -9.311153 -10.308156
4.802588 -9.359097 -9.437775
4.187987 -10.455545 -4.7796087
5.1859837 -9.872426 -1.3967191
4.9538 -9.922227 -0.69720846
5.2490373 -9.786756 0.2695026
4.531779 -8.910505 4.906079
4.7946734 -9.094041 5.6423063
4.1819363 -9.242252 6.3046355
4.54619 -9.615011 12.928457
4.860526 -9.466169 14.499204
4.9773583 -8.8371525 15.620254
5.3257203 -8.814982 16.16426
5.2430406 -8.441235 -10.760249
4.9006767 -8.4598875 -10.350767
4.68632 -8.52165 -9.5436945
4.795932 -8.618653 -8.808584
4.634623 -8.526664 3.831629
5.0431533 -8.405554 14.099872
4.9007263 -8.780683 14.433053
4.732182 -8.386983 15.389006
5.222737 -8.045544 -10.670538
5.074337 -7.865175 -10.312862
4.8553786 -7.9199967 -9.651898
4.9868784 -7.8640327 -9.057351
4.6239624 -7.725492 12.037126
5.0311155 -7.296632 14.487498
4.9218807 -7.294163 15.500895
5.131315 -7.585586 16.45684
4.4009333 -6.206623 2.433381
5.0437174 -6.3186307 11.768739
5.267699 -6.6807213 14.414223
5.037941 -6.927347 15.3398485
5.2381597 -6.8595815 16.229712
4.13392 -5.279173 2.829176
4.3314304 -5.523324 10.573765
4.4903374 -5.9148135 11.23239
5.2842283 -3.8964767 2.0717144
4.3289876 -5.0682616 8.659381
4.8250127 -5.0533957 9.8214
4.416387 -5.3470917 10.071733
4.594669 -2.8452525 1.5375363
4.4845977 -3.9313648 3.449598
4.6607 -3.5620089 5.821323
5.094034 -3.4038172 6.678455
5.2192235 -3.5139616 7.367543
4.673676 -2.2069619 0.96611524
4.49475 -2.5154636 1.2821316
4.5070515 -2.2872672 2.5701072
4.6021223 -2.195203 3.0889258
5.069314 -2.6311224 5.7139816
5.1228414 -3.0284116 6.395806
[...]
POINT_DATA 7546
SCALARS features_00 float 1
LOOKUP_TABLE default
0.7756009 0.7530552 0.5019456 0.531616 0.567197 0.7331294 0.7642318 0.75590044 0.5365565 0.5549769 0.6026802 0.61052275 0.59489834 0.73827684 0.76834786 0.76807004 0.52309376 0.54074395 0.56201214 0.5483422 0.5214258 0.50931096 0.5598748 0.7722139 0.77205074 0.52999973 0.540743 0.51107454 0.4444577 0.43694586 0.43002304 0.4945274 0.5001246 0.4829669 0.37687033 0.45161384 0.45960867 0.4027755 0.67198586 0.7126558 0.68367994 0.6386747 0.3179403 0.38582975 0.3970583 0.4295407 0.49285668 0.559953 0.67591596 0.77134836 0.68336874 0.60762596 0.39857775 0.3835041 0.4307323 0.46702892 0.51991475 0.5500877 0.60839236 0.6098706 0.6893869 0.7280835 0.6885519 0.4623441 0.4532776 0.5940336 0.6019067 0.63305235 0.7132106 0.7574824 0.75652814 0.7283058 0.4920681 0.5016361 0.53075844 0.5699354 0.7326976 0.7585888 0.7561605 0.49113265 0.51339936 0.38828516 0.38574177 0.48824054 0.44858524 0.27869865 0.40105316 0.42163795 0.35130876 0.18842497 0.6167768 0.590472 0.5124893 0.39710224 0.3044158 0.61984694 0.57687306 0.5018045 0.27005744 0.608743 0.5578253 0.58499837 0.5916754 0.3383494 0.508204 0.6207416 0.57061833 0.42699218 0.27834362 0.3406148 0.35576656 0.38970572 0.5153614 0.48302513 0.52506393 0.47296625 0.27654415 0.5945529 0.58512557 0.50485754 0.54117745 0.49181116 0.39144236 0.48577738 0.41179767 0.3874858 0.6050522 0.5951127 0.49074402 0.5778337 0.42038792 0.5493457 0.5773385 0.62606215 0.6583322 0.6916633 0.6262735 0.713415 0.3980505 0.49662945 0.4315618 0.17222968 0.63170725 0.4926302 0.14422163 0.65470517 0.6425503 0.59447473 0.23246494 0.27330393 0.26939696 0.6438905 0.639444 0.27850705 0.25383776 0.28860232 0.6227521 0.598807 0.5370619 0.47230905 0.28820598 0.22052312 0.26339886 0.2843371 0.53833187 0.49710822 0.38760713 0.34120807 0.33402604 0.40404993 0.4129805 0.44051054 0.4303372 0.5286468 0.35464737 0.33596134 0.34824005 0.35341638 0.4331643 0.44815215 0.4739887 0.25238484 0.34547567 0.45955175 0.5479126 0.2527852 0.32016873 0.43598256 0.4848078 0.44160843 0.29150867 0.42033845 0.5554444 0.56675816 0.15679845 0.52466416 0.5164206 0.42315698 0.565428 0.5716835 0.47871602 0.50390476 0.5768552 0.24319762 0.54784214 0.48902404 0.5850684 0.33052275 0.34735578 0.5140523 0.19468768 0.27146143 0.37584 0.51823914 0.5243255 0.053975657 0.6513709 0.26900733 0.5728326 0.6171363 0.30834273 0.56450164 0.22262818 0.23815872 0.288448 0.29716536 0.47582316 0.2283445 0.1427682 0.19097054 0.23011991 0.05453851 0.69198 0.76185864 0.7312179 0.6660656 0.7670216 0.6876144 0.34328973 0.38367683 0.35921633 0.37753445 0.3604131 0.31138116 0.30583328 0.3604676 0.47974426 0.5375419 0.6033933 0.30517372 0.35880047 0.35522884 0.5929532 0.60151684 0.1761963 0.41457945 0.364297 0.5822029 0.0992865 0.1667164 0.42117524 0.5487594 0.5246232 0.10328998 0.349118 0.46184313 0.58280385 0.5192559 -0.012412131 0.19494964 0.32173756 0.19439635 0.77587616 0.7468382 0.74394083 0.25692117 0.0962116 0.15364684 0.1372472 0.12725438 0.0011856891 -0.020909987 -0.21370554 0.23324798 0.5077987 0.5787279 0.8241041 0.84033614 0.8567295 0.8333292 0.17310008 0.34632438 0.36141962 0.52616626 0.85526085 0.8690202 0.8758583 0.85026675 0.20125034 0.5188961 0.618737 0.6911796 0.5101024 0.31876662 0.5246946 0.60852903 0.68784976 0.48242158 0.25284737 0.30570042 0.32277197 0.13491319 0.17560022 0.2180822 0.62779146 0.22860555 0.060918704 0.059991628 0.061828252 0.722087 0.6796677 0.5771594 0.48236948 0.08019041 0.06481535 0.07645444 0.788177 0.6362369 0.5559703 0.35577062 0.21713214 0.84241414 0.8040965 0.7068674 0.58618414 0.8561559 0.8197006 0.70576906 0.6631066 0.7419532 0.49383253 0.6508895 0.7246289 0.65065104 0.50173116 0.6061956 0.564037 0.3415353 0.3295559 0.38877025 0.45461923 0.46617815 0.4813909 0.5409825 0.19837801 0.412035 0.40765962 0.3462813 0.42307675 0.556867 0.5862459 0.6113061 0.35422444 0.61057323 0.1781278 -0.23784907 0.260378 0.33373675 0.56973493 0.4840697 0.38280842 0.35395825 0.16342545 0.41495964 0.38460535 0.12595834 0.054069184 0.58213985 0.7136084 0.66237843 0.14463408 -0.18138286 -0.009052172 0.087453425 0.048023388 -0.12635316 0.5488701 0.59849983 0.78642935 0.44049555 0.28485826 0.046169765 0.06942246 0.09417546 0.07801896 0.0073884204 -0.042359214 0.6383139 0.67491 0.8474717 0.8631207 0.84831786 0.68961126 0.036394462 0.71538043 0.8622029 0.8506893 0.69921327 0.7302867 0.33561766 0.24742648 0.15230118 0.48168927 0.5876043 0.64942855 0.08115198 0.4604108 0.02301905 0.6783484 0.09011355 0.08385872 0.07545637 0.7419221 0.78590727 0.1539277 0.13144682 0.10037042 0.83454144 0.38645262 0.8736174 0.6766443 0.49309343 0.7656304 0.83523154 0.8605379 0.5899771 0.67315245 0.78935957 0.76336217 0.76518357 0.52348685 0.74262613 0.4055543 0.5908826 0.38579413 0.31293815 0.44459084 0.4893582 0.49500525 0.48753887 0.51272213 0.15783603 0.43101782 0.4364269 0.4034474 0.5184225 0.55710787 0.57256484 0.19408578 -0.052016683 -0.0016180649 0.37661904 0.57652086 0.1465429 0.34444803 0.30318037 0.12140101 -0.15037051 0.3716802 0.35779715 0.2778283 0.21170756 0.06164381 0.07191026 0.41147637 0.15889743 0.109762385 -0.18704918 0.12987863 0.5629498 0.07671837 -0.18471979 0.64190745 0.63594925 -0.16383615 -0.021792449 0.66186535 0.71164715 0.6330333 0.79952896 0.810812 0.5621353 0.41342008 0.2608468 0.082588516 0.08264693 0.06742068 0.036824495 0.6533036 0.83784425 0.8242121 0.05002722 -0.071943656 0.68211126 -0.13390191 0.0616048 0.3351067 0.47687715 0.6226646 0.072708644 0.03010423 0.51173985 0.58418155 0.6099899 0.07738179 0.62018836 0.09917247 0.09745533 0.74466 0.7181617 0.2246528 0.15601245 0.71953505 0.6288902 0.380778 0.31213528 0.4851196 0.4360543 0.48129678 0.49961877 0.4832809 0.72267854 0.79526716 0.70272195 0.7435888 0.7849646 0.81757903 0.77471936 0.86909354 0.9012766 0.8566028 0.60882103 0.811847 0.4428504 0.4948821 0.739772 0.7453114 0.33976215 0.62696314 0.45863888 0.46709293 0.4752732 0.47206035 0.2102611 0.43808502 0.41746575 0.37660015 0.39052743 0.43472815 0.42732638 0.42840412 0.45669568 0.5017741 0.13423014 0.027102813 0.41963458 0.4417323 0.3731581 0.32961902 0.31075764 0.2338549 0.5834621 0.33139434 0.38096663 0.37887532 0.34862646 0.2864461 0.28434685 0.34963313 0.45268145 0.4060936 0.009779489 0.2959054 0.5384363 0.22373669 0.6039579 0.5821577 0.362463 0.6317983 0.03620498 -0.31878206 0.47487718 0.6793449 0.78232276 0.3430726 0.26311797 0.020252764 0.070677236 0.5789053 0.054393437 0.16512075 0.61302805 -0.24367356 0.62426853 0.619367 0.29017055 0.5229782 0.6206348 0.62361693 0.3663692 0.35632765 0.050552696 0.06593031 0.2618386 0.10393956 0.022809587 0.058738932 0.09543486 0.4294867 0.44262356 0.4452794 0.4140382 0.49801838 0.20165265 0.48186222 0.48649907 0.4854439 0.49012122 0.33753622 0.2698543 0.49880642 0.5056815 0.43769413 0.5028209 0.51020753 0.4681656 0.39579612 0.18605897 0.8167342 0.4936551 0.45451856 0.33576757 0.47685212 0.66577506 0.72555965 0.8689591 0.47631145 0.47754306 0.5525602 0.68252814 0.8668182 0.8860909 0.6933203 0.70955795 0.72194606 0.74890965 0.79035205 0.84950006 0.7429974 0.7666892 0.7751597 0.7963197 0.82490534 0.7579492 0.76636505 0.87705886 0.89467674 0.85331213 0.47144628 0.6397087 0.80477965 0.36560363 0.2515027 0.74995273 0.7366344 0.2925135 0.6673499 0.37439305 0.1896604 0.51277846 0.5127961 0.33291358 0.32989925 0.3787086 0.36288536 0.36191416 0.35670468 0.07879872 0.4740435 0.5018815 0.33077672 0.34244403 0.32648122 0.23696426 0.3576851 -0.067682125 0.45204836 0.25485998 0.07715748 0.070817344 0.055784345 0.36384556 0.4652149 0.43372458 0.45561 0.36505705 0.3289298 -0.15782675 0.4107682 0.41975844 0.39119327 0.49206597 0.5406711 0.15919822 0.59703344 0.08111686 -0.22826076 -0.10723333 0.46400073 0.5580163 -0.043942824 0.030492939 0.5974542 0.09863131 0.24110869 0.6205379 0.6137576 0.29145384 0.33671945 0.335376 0.5600161 0.6075788 0.6524836 0.6380408 0.32656613 0.36799076 0.2474508 0.036795847 0.32066178 0.3795348 0.24096376 0.11525437 0.3289569 0.3763628 0.37341416 0.39228284 0.21354538 0.04137235 0.12852266 0.13386525 0.3928507 0.40014216 0.4030582 0.077254355 0.061996363 -0.10710075 0.0005076453 0.09568632 0.12105278 0.12678471 0.3977176 0.32217833 -0.020038202 0.074969105 0.3615372 0.382416 0.37266654 0.4353522 0.5801645 0.6491815 0.7668254 0.5490779 0.5201682 0.45812017 0.31321177 0.41889253 0.45840207 0.3674212 0.89028704 0.5851612 0.3974797 0.8897675 0.6106882 0.8621539 0.87471586 0.6921805 0.7282467 0.74432087 0.77840745 0.8170645 0.7111726 0.7229371 0.6915425 0.7460892 0.8220582 0.83073497 0.5757383 0.7993045 0.76113194 0.204718 0.62908554 0.11831373 0.57439363 0.58382297 0.031757936 0.5477628 0.5546366 0.2373536 0.22302252 0.25534534 0.21465863 0.3886579 -0.17088766 0.54573166 0.21826372 0.207118 0.20578903 0.10546042 0.13628763 0.18295184 0.14063719 0.08576743 0.2926916 0.31648248 0.3995133 -0.31569135 0.49974453 0.2683768 0.07258117 0.0066499114 0.21323799 0.23213494 -0.383048 -0.37721196 0.53599256 0.3132075 0.42674115 0.26634163 -0.017952487 0.2443172 -0.108241424 -0.2035314 -0.12895176 0.37535858 -0.14267612 0.05526055 0.030412644 -0.0557532 0.03909695 0.23176678 0.63114965 0.15330952 0.3430729 0.6463411 0.66137445 0.098866254 0.1584809 0.20114976 0.0014990102 0.5285365 0.46081835 0.32298166 0.26457828 0.25154933 0.37856933 0.0696672 0.5894512 0.5654079 0.4603232 0.21902995 0.38086697 0.59888417 0.5704294 0.4451651 0.12645538 0.07763586 -0.0871757 0.13066058 0.12813066 0.5784535 0.53606486 0.34051767 0.21867023 0.3104601 -0.15980801 0.18691483 0.1683947 0.14410053 0.19656071 0.22460073 0.48340285 0.022503093 -0.0063628405 0.38766193 0.21359132 0.23987924 0.22689837 0.22901098 0.5992443 0.506665 0.5937747 0.41326925 0.33478445 0.18691875 0.26772487 0.2431997 0.8931242 0.6140044 0.64369005 0.60183764 0.5512147 0.44888094 0.21844071 0.8702436 0.6539962 0.63025564 0.57074374 0.5077375 0.63650703 0.63409984 0.62380946 0.7607919 0.64660215 0.6501627 0.6711973 0.6594261 0.29988664 0.38892144 0.27439344 0.209617 0.2908895 0.29947025 0.6050749 0.6556429 0.604859 0.65289116 -0.20094892 -0.4294231 0.6281353 0.21558282 0.2253057 0.13263172 0.15200822 0.25252792 0.31375283 0.3611243 0.6174176 0.1268653 0.16437182 0.18106656 0.12578122 0.07719989 0.13956638 0.23531646 -0.20026591 0.5929314 0.055394843 0.14554816 0.01441992 -0.08532103 -0.01051588 0.528818 0.5819086 -0.059726715 -0.17024639 -0.12356365 -0.08067835 0.03535764 0.25285262 -0.099282324 0.63850546 0.7228309 0.22960745 0.046716243 0.056922533 0.293904 -0.14848526 0.39491737 0.32005006 0.11782536 0.3396082 -0.044918995 0.505268 0.34973317 0.04386986 0.5552061 0.57285035 0.4100278 0.1584442 0.56939304 0.5897956 0.2927707 0.07925375 0.34358656 0.14265949 0.13645312 0.5281544 0.5433216 0.1388347 0.13676184 0.4659138 0.44477844 0.320058 0.18627048 0.16672207 0.1019061 0.14001793 0.60317713 0.34667888 0.4103555 0.27430433 0.07845389 0.09401426 0.4820494 0.56164974 0.50856996 0.35787308 0.017406331 0.058950968 -0.007290587 0.6710871 0.57493114 0.6378258 0.63288075 0.56123316 0.3985926 0.5586416 0.33802605 0.2873827 0.5132067 0.43012682 0.46441272 0.5310223 0.5704694 0.5585804 0.52335525 0.4595497 0.51967806 0.30400836 0.3100843 0.27018493 0.3242246 0.62987494 0.68204176 0.69688547 0.20843962 0.6911336 0.22236319 0.67223513 0.31084022 0.2722938 -0.07374936 -0.08119658 -0.18537593 0.6387334 0.042274192 0.15170604 0.19658239 0.61664397 -0.020785391 0.18244608 0.23156299 0.20020266 0.56241643 0.5877143 -0.050851658 -0.035905972 0.25054097 0.15081608 -0.051764242 -0.059671767 0.0026704054 -0.032135576 0.31406453 0.41472813 -0.0562146 0.19336896 -0.07666081 -0.025167134 -0.19289671 -0.22551242 0.029567424 0.056348354 0.0951827 0.006966803 -0.08210656 -0.08251641 0.0033690706 -0.01228622 -0.09213334 -0.033549845 -0.11708184 -0.17604133 -0.055716842 0.20047562 0.18751566 0.18597284 0.075827286 0.30034474 -0.065779254 0.33888483 -0.010269627 0.32433057 0.12969027 0.41771418 0.43384838 0.25407183 0.31506386 0.27086893 0.4665079 0.29083467 0.30356687 0.28800702 0.20048466 0.13156772 0.48764598 0.47551164 0.109218866 0.46582177 0.5788173 0.110096864 0.33878058 0.51982653 0.48798466 0.09298026 -0.0016976297 0.032860357 0.45055777 0.26459146 0.12523486 -0.034775406 0.3574774 0.35257268 0.46705437 0.37449658 0.268459 -0.041331556 0.4809324 0.60855865 0.54200816 0.24386442 0.24307594 0.009426847 0.2833666 0.4584386 0.40645564 0.3996042 0.27647135 0.036711305 0.1730372 0.45560682 0.5220262 0.48870862 0.4458149 0.2209492 0.52471447 0.5937774 0.5772925 0.4998628 0.5246523 0.41208494 0.372541 0.28755072 0.3408344 0.31326073 0.30121917 0.32118732 0.22403514 0.58448887 0.67776066 0.30623043 0.33179638 0.14887077 0.6817794 0.7000562 0.32878664 0.65179896 0.6849936 0.40169355 0.36139807 0.30757117 0.2733302 0.57660836 0.6343668 0.14689013 0.24578138 0.5022098 0.56967306 0.6025839 0.17704387 -0.0050600097 0.0051029176 0.22162884 0.07102977 0.4339165 0.3623782 0.056227244 0.19849855 0.24910516 -0.12682663 -0.1767006 0.409857 0.21327105 -0.12053542 0.29069948 0.20156102 -0.11934738 0.017783165 0.04903102 0.19552082 0.13888678 0.01279065 -0.000119522214 0.20357092 0.010302633 0.05831415 0.06095791 0.07960232 0.032355785 0.15278377 0.25774306 0.15210544 0.122036316 0.08126687 0.27454656 0.22154824 0.17575194 0.22181585 0.2328921 0.28529793 0.22786506 0.108609326 0.25184768 0.24267423 -0.0334932 0.16712695 0.18582857 0.32761967 0.32129437 0.11222975 0.38969582 0.08401743 0.08088653 0.2799731 0.15893455 0.21903381 0.26793528 0.6455766 0.0676003 0.086381584 0.03324113 0.30313113 0.54513586 0.014181644 0.14104494 0.33964953 0.5143892 0.48264936 0.46856803 0.4206348 0.14676522 0.33375502 0.45501673 0.38325036 0.27321935 0.16864039 0.36444807 0.13169023 0.36102763 0.43100965 0.52015805 0.3506374 0.26859602 -0.022182457 -0.06912247 0.46204245 0.44920674 0.28967032 0.088997856 0.0277846 0.37724102 -0.051656455 0.045039326 0.5145179 0.5634769 0.3908202 0.24048609 0.20502028 0.58786803 0.5623573 0.45088497 0.3039226 0.26854756 0.40050352 0.4770757 0.42415434 0.38782287 0.20339659 0.2422207 0.36981913 0.3826378 0.37458324 0.35168028 0.31990373 0.25167125 0.23256725 0.26093602 0.25895378 0.28078115 0.2898252 0.57145095 0.19233117 0.30322504 0.029521488 0.029545017 0.47557184 0.4390501 0.3827471 0.35041517 0.31740484 0.21420567 -0.12142103 0.22455868 0.3622089 0.46136394 0.31954092 0.26864174 -0.17365089 0.52719235 0.30721834 -0.1139826 0.3676325 0.5566766 0.520321 0.019699583 0.47120768 0.47075695 0.009412691 -0.07018684 0.11428039 0.41022784 0.35135698 -0.07605475 0.3527274 0.33084017 -0.01942718 -0.08458102 0.26416394 0.24230485 0.08623857 0.044687904 -0.045084104 0.21789435 0.13509782 0.033826225 0.16887414 0.08663597 0.15228382 0.13504119 0.24572995 0.27986312 0.16027325 0.25012866 0.3317679 0.2106936 0.27647185 0.18165201 0.23389953 0.18141326 0.21635768 0.11462203 0.2901821 0.48276508 0.08602654 0.11284992 0.21190599 0.14143518 0.1525305 0.26203936 0.36356285 0.4501238 0.34754395 0.36466518 0.5357483 0.5864632 0.4176125 0.36205605 0.49677938 0.4250952 0.36183608 0.31177205 0.4200964 0.5097197 0.5420784 0.5238373 0.46207905 0.51321244 0.445869 0.375929 0.26499242 0.21359645 0.1934317 0.47757608 0.52792704 0.5466695 0.53653103 0.46105444 0.3705622 0.29492456 0.12325696 0.019717064 0.18550977 0.4359616 0.34233183 0.2904384 0.34188026 0.42003006 0.006197974 0.100334905 0.39877218 0.50989217 0.1244028 0.5030619 0.5122431 0.42310783 0.33493036 0.2462003 0.29264322 0.25228631 0.32904175 0.35457778 0.33721834 0.17378566 0.1239461 0.16578366 0.21569377 -0.013818413 -0.073853076 0.3233117 0.08450431 0.14612807 0.2267346 0.17822662 0.134462 0.02834928 0.42449874 0.4609124 0.42566845 0.38577104 0.35370544 0.10388802 -0.11053772 0.43217242 0.29479897 0.33568406 0.0074469 0.5940214 0.5419624 0.3146981 -0.047703438 0.59454894 0.2380302 0.013415903 -0.011419907 0.5124134 0.06940156 0.1275042 0.09384544 0.015334114 0.44301623 -0.06511895 0.1674157 0.33709708 -0.011075344 0.09665494 0.28583273 0.051570613 0.21944524 0.046415817 0.085901886 -0.10092916 0.10070336 0.3051939 -0.021747032 0.1209161 0.3167219 0.099825665 0.38822415 0.07212968 0.3745153 0.07712655 0.35460353 0.03659171 0.3614761 0.16198644 -0.051808562 0.28408656 0.31160608 0.053732477 0.1701408 0.3284381 0.22049749 0.37974167 0.18953195 0.27253687 0.5097392 0.46456888 0.2871126 0.35050762 0.51970613 0.49138805 0.31827945 0.27978855 0.36915848 0.5427966 0.5343769 0.37527978 0.63747185 0.47369063 0.5694908 0.5476627 0.30964074 0.5109322 0.53236187 0.5182929 0.4664072 0.55541223 0.49048913 0.26120585 0.7292658 0.18869515 0.51315856 0.50753087 0.5026865 0.48229843 0.37669992 0.28597653 0.18071896 0.6142616 0.43648916 0.36352003 0.32446122 0.3903985 -0.054382965 0.43061912 0.38072115 0.29868624 0.2895866 0.122562855 0.15795508 0.0083654 0.06667544 0.56052375 0.54741466 0.54247427 0.5271806 0.5326463 0.41547608 0.42440373 0.2810213 0.24993962 0.1050678 0.092377 0.43120158 0.43014622 0.42297697 -0.17647918 0.31153166 0.035852112 0.01441551 -0.09300502 0.6121353 0.29306716 0.106551364 -0.059894305 0.63230026 0.19078106 0.05160344 0.61991954 0.16834071 -0.12835306 0.1370503 0.21022463 0.3749398 0.22504103 0.26127806 0.2667176 -0.13817169 0.23488401 0.12501922 0.047795817 0.17035569 0.17638081 0.24691275 0.30533096 0.33012775 0.03470228 0.31122625 0.34255663 0.006285554 0.37738207 0.16087943 0.4691836 -0.02186396 0.36992323 0.13976972 0.4087466 -0.023669645 0.13610527 -0.01161287 -0.15637967 0.24865288 0.32409817 0.40225822 -0.02921493 0.15506351 0.21798365 0.04579866 0.36073598 0.3465525 0.55914235 0.17668374 0.26159364 0.119373836 0.36157468 0.35935858 0.59727585 0.37892944 0.34509888 0.6027886 0.6231942 0.4754979 0.40916935 0.58245623 0.5459943 0.24001522 0.6713439 0.71677744 0.18765101 0.43988758 0.46104455 0.47000262 0.52484673 0.55428267 0.45500684 0.17157167 0.15153843 0.7675388 0.3716833 0.28994685 0.3433368 0.29798082 0.28889784 0.28554296 0.045958534 0.23557419 0.59107363 0.4647597 0.3959043 0.36612505 0.28508118 0.24240118 0.26307362 0.14646685 -0.21489765 -0.09988785 0.09300984 0.123446524 0.31204802 0.40391088 -0.07445059 0.01575166 0.09890337 0.18229254 0.25132236 0.38475657 0.082486466 0.14553985 0.22603366 0.39839315 0.1508406 0.23035583 0.34982842 0.49454862 0.45665032 0.14309855 0.16148122 0.5148139 0.5111036 0.49745405 0.45669147 0.51180625 0.50986004 0.50802344 0.49890774 0.53150564 0.5158086 0.51521134 0.5913101 0.6013925 0.5706978 0.53168875 0.55625916 0.5458604 0.5088945 0.4875365 0.5200244 0.36593977 0.4019125 0.052317407 0.21081695 -0.07958832 -0.08162088 0.10662831 -0.092536554 -0.13513601 0.5665611 0.6377037 0.66798884 0.004591371 -0.0067904983 0.16308682 0.59688485 0.4315882 0.35951328 0.39972585 0.33760118 0.24604724 -0.012334682 0.02247747 0.21156716 0.18781334 0.5074934 0.33907986 0.2477847 0.27074143 0.087014556 0.022291154 0.6688304 0.6457356 0.5262166 0.3924396 0.6120931 0.5318928 0.2135084 0.28329247 0.06288246 0.70045996 0.64091825 0.5171065 0.426709 0.37648398 0.2585405 0.605193 0.1133685 0.3458404 0.3389951 0.008386135 0.63930583 0.56629044 0.4794557 0.37952673 0.3262067 0.27574608 0.4836449 0.16229345 0.48235714 0.39316893 0.32926607 0.3036157 0.47851372 -0.2810515 0.5362537 0.51574314 0.21595785 0.37119925 0.28927737 0.27738988 0.32954904 -0.1855584 0.61449087 0.47464958 0.3824488 0.24497895 0.20964083 -0.19839954 -0.22028649 0.58694845 0.4846064 0.23971252 0.12454073 0.22268519 0.44789743 0.37007302 0.14360836 -0.29847723 0.023908764 0.1109207 0.46652 0.41116348 -0.058095027 0.095456034 0.21302539 0.3806804 0.3597247 0.22962102 0.22328958 0.20674156 0.46980962 -0.009685144 0.2921759 0.32934028 0.15975334 0.13668117 0.5121578 -0.0025087446 0.3293509 0.14830224 0.13245834 0.011862632 0.1270116 0.108824946 0.31359178 -0.0043738335 0.09929843 0.07229592 0.2957421 0.3277407 -0.15403616 -0.06480004 0.33372936 0.44538862 0.07099885 0.33722752 0.5334505 0.0052107424 0.30845305 0.3288688 0.64705807 0.55606395 0.35539055 0.31447208 0.5837911 0.54714954 0.