# vtk DataFile Version 2.0
Really cool data
ASCII
DATASET POLYDATA
POINTS 2869 float
28.373173 6.687602 9.74244
28.355135 6.7179246 10.239996
28.391523 7.1551046 9.733545
28.370724 7.1238484 10.176299
28.21626 11.016849 -3.276255
28.202034 11.01204 -2.578101
28.171604 11.74605 -4.0526853
27.915085 11.630224 -3.2348766
27.9473 11.638368 -2.6403017
28.181732 11.56351 -2.1409717
28.17787 12.477059 -4.149949
27.949574 12.487511 -3.4836388
27.927044 12.244161 -2.7148144
28.212742 12.192935 -2.1186728
28.257557 13.063018 -3.9432352
28.151247 12.994305 -3.4961889
28.185606 12.956289 -2.9195912
29.25901 5.177247 9.896691
29.27105 5.142762 10.233535
29.121763 5.952809 9.067384
28.868027 5.7903557 9.597273
28.85723 5.742704 10.419538
29.109777 5.768495 10.900618
28.771519 6.684644 9.083361
28.50309 6.587339 9.470563
28.488653 6.6492753 10.564894
28.89611 6.6254516 10.987722
28.960056 7.2305713 8.9538355
28.581348 7.4967 9.697137
28.619865 7.3854303 10.450843
28.901722 7.2110953 10.902295
28.895157 7.891478 9.797203
28.899761 7.8340096 10.285697
29.066786 10.337367 -3.2686756
29.011095 10.390142 -2.8105533
28.9455 10.902199 -4.26538
28.59508 10.68038 -3.230709
28.708275 10.697999 -2.4528346
28.83639 10.976255 -1.989782
28.998093 11.710853 -4.855411
28.502857 11.608089 -4.350862
28.592495 11.536887 -1.8310779
28.819149 12.464575 -4.9137416
28.462135 12.413323 -4.541367
28.644289 12.205325 -1.887803
28.988789 13.14501 -4.867843
28.49701 13.116778 -4.2871413
28.467312 13.39325 -3.487988
28.713737 13.23901 -2.7496498
29.002138 12.916961 -2.088524
29.232601 13.864118 -4.4923215
29.18281 13.838429 -3.6000962
29.07538 13.794745 -3.0250556
29.207603 19.265196 -0.32204413
29.185102 19.31633 0.38811696
29.035976 19.574194 -0.31043994
28.893795 19.773235 0.41043025
29.069778 19.850313 1.0358496
29.290722 20.586376 -1.1638005
28.776125 20.502232 -0.19622761
28.732658 20.35503 0.38343436
29.035746 20.464094 1.2498162
29.296432 20.420494 1.703692
29.187376 21.080431 -0.9202387
29.052645 21.281935 -0.35172114
28.964214 21.246765 0.56843024
28.976954 20.994183 1.0727608
29.324036 21.781408 -0.25514057
30.137306 4.432635 10.313513
29.75526 4.8409824 9.737198
29.748348 4.750314 10.459278
29.881945 4.898545 10.986622
30.10611 6.102957 8.361231
29.64617 5.6959286 8.85512
29.617779 5.5740833 11.23082
30.107208 5.8658624 11.590151
29.835476 6.7340965 8.277141
29.541334 6.4077272 8.553997
29.560919 6.521312 11.407207
29.919172 6.212155 11.6007395
30.01037 7.3547845 8.196128
29.458519 7.1328087 8.598783
29.887627 7.556611 11.278968
29.73131 8.122981 8.747818
29.759706 8.472163 9.731192
29.657007 8.281647 10.314435
29.541458 7.8669486 10.8494625
29.897274 9.934642 -3.4677365
29.600534 10.088305 -2.7217612
30.29796 10.035758 6.2584734
30.190252 8.828005 9.641663
30.001453 11.008275 -5.3427787
29.691267 10.663289 -1.8547101
30.211685 10.934436 4.3254633
30.125053 10.72079 4.657632
29.975853 10.69492 5.484798
30.232143 10.525175 6.4374256
30.472937 10.511743 6.957277
30.24893 12.047272 -6.1687365
29.640333 11.596535 -5.4151635
29.454824 11.5510645 -1.6167433
30.26563 11.445648 4.2378883
30.097994 11.392253 4.6138797
30.05674 11.4690695 5.5029883
30.20634 11.226574 6.1312227
30.41812 10.896485 7.029984
29.385202 12.090548 -1.62762
30.238623 11.952322 4.9867864
30.213621 11.881587 5.3496847
30.280247 13.494808 -5.861779
29.358532 13.507818 -4.9586377
29.964024 13.666384 -2.5435982
29.2505 12.990246 -2.0401433
30.06408 14.277396 -5.336778
29.816679 14.580112 -4.5851007
29.824276 14.320982 -4.005053
30.01119 13.930223 -2.7356217
30.117243 18.06773 -0.7278636
30.277975 18.214542 -2.9654102
29.855404 18.735136 -2.3364313
29.87929 18.2877 -1.4487475
29.783905 18.741808 0.30133948
29.541534 19.258326 1.1305008
30.211422 19.355827 -3.0785823
29.470808 19.517479 -1.0450094
29.627443 19.601759 1.4836054
29.7709 19.89535 1.8292388
29.999424 20.169714 -2.4520473
29.702202 20.675575 2.0019295
29.465647 21.728483 -0.8438223
29.743628 21.571178 1.6982378
29.823544 21.2157 1.9238663
29.984467 22.208042 -1.3633344
29.650051 22.189495 -0.29132807
29.80506 22.264805 0.2314492
29.590118 22.003168 0.9488872
30.240028 22.619074 -0.9964311
30.186638 4.454129 10.081217
30.494486 4.4126945 10.5500965
30.464447 5.0876913 8.996801
30.257772 4.6283784 9.635374
30.367422 4.4872394 10.756512
30.529192 4.761069 11.119958
30.87769 5.954186 8.0978365
30.273603 5.5209036 8.7020855
30.324024 5.301984 11.49524
30.416817 5.6711154 11.59159
30.486824 6.3702116 8.074087
30.406532 6.410154 11.739163
30.94998 7.876471 7.6628575
30.485628 7.6879745 11.474278
30.708698 7.3535852 11.692778
30.777378 8.88177 6.520886
31.156473 8.339136 7.3203006
31.18336 7.8260593 11.77621
30.9843 10.179094 -4.782322
30.44191 10.156966 -4.369113
30.330404 9.690899 -3.2818346
30.72008 9.686453 -2.541188
30.6257 10.076771 -1.9973278
31.11575 9.648719 4.744467
30.582916 9.602233 5.5836806
30.638115 9.637352 7.1590037
30.467607 9.258268 8.549014
30.94297 9.095928 10.459712
30.75034 11.093187 -5.890769
30.420132 10.526703 -4.95208
30.474655 10.430146 -1.7870169
30.60582 10.768737 4.1163855
30.363321 10.535465 4.3665833
30.575865 10.308743 7.443233
30.811962 10.229793 7.9165044
30.768835 11.741144 -6.2106175
30.540234 11.454424 -1.7235202
30.797342 11.429083 4.0201707
30.419178 11.436821 6.563109
31.026474 11.579943 7.0354857
31.276196 11.142463 7.964558
30.726004 12.5024 -6.310933
30.694513 12.175052 4.6416435
30.700014 12.352708 5.361144
30.622696 12.045464 6.0239825
30.737885 11.746752 6.8014116
30.34386 13.768308 -5.9028354
31.150764 12.760248 5.4240646
30.484333 14.597725 -5.64409
31.356888 15.554391 -5.9324503
30.727354 15.430073 -5.2326856
31.020481 15.518468 -2.5287004
30.761805 16.600067 -2.453441
31.057667 17.128674 -0.80345345
31.191364 17.029068 -4.14092
30.752644 17.234602 -3.4072232
30.448551 17.781721 -2.5485306
30.518461 17.416218 -1.0266045
30.638428 18.101978 0.07677983
31.267477 17.963957 -4.791369
30.738625 18.825697 -3.8852777
30.612835 18.570772 0.82580227
30.98971 19.123068 -4.00078
30.628963 19.758762 -3.459858
30.322044 19.786636 1.9872575
30.556133 20.205853 -3.1970932
30.727995 20.89644 -2.8295007
30.598215 21.59606 -2.332836
30.325779 21.699903 1.9996512
30.59778 22.107487 -1.9727035
30.403412 22.377777 -1.6184455
30.361176 22.16219 1.2323833
30.72316 22.694916 -1.1467019
30.359165 22.746931 0.028226074
31.439669 23.497528 2.9147046
31.4315 23.920534 3.504854
31.333555 24.3195 2.7419088
31.440329 24.350962 3.6858509
31.036722 5.1724663 8.888411
31.597128 4.7621694 9.740504
31.636084 4.8665037 10.2886715
31.149702 4.8908386 11.159632
31.933638 5.511006 8.583153
31.261677 5.295618 11.495939
31.53278 5.9100566 11.774657
31.35284 6.5820403 7.704414
31.69768 6.707264 12.08033
32.05407 8.215952 5.9952073
32.108322 7.9251733 6.823104
31.78963 7.3545117 12.137609
32.375923 8.331762 -5.355203
32.265614 8.54843 -4.5995107
31.578688 8.740417 5.279064
31.67697 8.458861 5.6751585
31.472458 8.490419 11.410178
32.130486 8.087722 12.064081
32.212677 9.512043 -5.561361
31.300858 9.718087 -4.2825475
31.38183 9.579945 -3.3134007
31.545164 9.762125 -2.7078001
31.21461 9.924496 -2.114279
31.803305 10.041725 4.3663273
31.570093 9.379818 4.8244896
31.710314 8.908688 11.369876
31.377539 10.718279 3.9641995
31.746557 10.291775 9.4743
31.448166 11.605725 -6.2313657
31.359005 11.166322 3.9019346
31.571306 11.145983 8.165086
31.635847 12.99323 -6.425986
31.652206 12.347173 4.2605486
31.789036 12.646949 4.4849634
31.302713 12.481816 6.4238462
31.582045 12.076729 7.035463
31.787933 13.901982 -6.4568214
31.342138 13.52315 -1.9842063
31.513458 12.790703 4.8713236
31.847248 12.873007 6.2924705
31.539948 14.6292305 -6.336339
31.884386 14.109963 -1.9446433
32.102512 15.565647 -6.4347367
31.585247 15.985474 -1.7789689
31.624283 16.148148 -1.1543242
32.396667 15.652867 7.894206
32.33144 15.193857 8.500759
32.321465 15.48141 9.219758
31.260035 17.028122 -0.52878654
31.834911 16.97173 -0.25054973
32.294876 16.329681 8.773387
32.38684 16.386095 9.397416
32.245396 17.925856 -6.719973
31.978388 17.2912 -6.1415625
31.639832 17.453472 -5.5546355
32.416306 16.823143 8.689833
32.030518 18.176764 -6.2176814
31.431095 18.83705 -4.575781
32.221195 18.820719 4.3014884
32.178154 19.025518 4.9961
32.170757 19.0447 -6.176594
31.863602 19.01815 -5.375068
31.812029 19.512661 3.5731037
31.78998 19.571041 4.5472717
31.93468 19.740309 5.337826
31.81539 20.0748 5.2608337
31.704735 21.149986 -3.0846825
31.251902 21.581043 -2.4533458
31.624481 21.495047 2.714703
31.759108 21.398748 3.3246365
31.975643 20.86493 5.026881
31.333143 21.996212 -2.236555
31.510136 22.308174 3.0925689
31.892954 22.831444 4.515242
32.285103 22.530787 5.4939265
32.399338 22.845045 5.9180017
31.695898 22.971994 -0.6614632
31.597673 23.951767 1.8070083
31.561161 23.36222 3.3826306
31.688095 23.55965 4.4343014
31.99956 23.500858 5.147982
32.396698 23.244093 5.8861723
32.128624 23.991135 0.33066872
31.596003 24.532465 1.5162156
31.50118 24.373463 3.7490582
31.653124 24.460966 4.278816
32.370625 24.657984 5.308538
31.799625 25.127178 1.2086816
31.632854 25.223148 1.5759469
31.596516 25.413734 2.7182555
31.51498 25.016943 3.1393085
31.808857 25.006126 4.24189
32.27413 25.805431 0.92793095
32.0402 26.238565 1.8419521
32.00452 26.412683 2.3301613
32.111195 26.431894 2.9323838
32.261715 26.652285 2.5067747
33.288445 0.9715821 -2.142977
33.29711 0.97564733 -1.6870297
33.254772 1.1807947 7.009921
33.346703 0.97623706 7.4660597
33.213737 1.4350077 -2.271915
33.19349 1.4025624 -1.6660007
33.346794 1.7162107 -1.0881646
33.46161 1.7220601 5.6777644
33.218307 1.6252857 6.519179
33.117966 1.5372128 7.4797683
33.276875 1.6154785 8.053684
33.23345 2.5368724 -3.0439196
33.215202 2.4252908 -2.4199302
33.2699 2.503913 -1.7238423
33.421368 2.062854 5.577673
33.137264 2.573127 6.4768667
32.99733 2.30002 7.2879305
33.18378 2.3481207 8.13485
33.198586 3.4627173 -3.3198924
33.120052 3.150219 -2.61857
33.317524 3.2356272 -1.9192723
33.16159 3.171864 6.5638294
33.01986 3.2907805 7.2200108
[...]
POINT_DATA 2869
SCALARS features_00 float 1
LOOKUP_TABLE default
0.9044639 0.91878116 0.8697704 0.88217986 0.87636256 0.8978554 0.80108356 0.91706944 0.94730204 0.93406403 0.72490084 0.8246745 0.9250696 0.9179334 0.684966 0.7483815 0.81136596 0.89257455 0.8991002 0.79299736 0.91815984 0.96853364 0.9126811 0.81660485 0.8837228 0.9209573 0.88432145 0.78726125 0.8354628 0.84005016 0.82878244 0.79039735 0.7862072 0.73635983 0.77196014 0.71626544 0.81663 0.8373703 0.8584225 0.6322198 0.74400663 0.9031906 0.5971125 0.6666612 0.8839632 0.54537094 0.63722736 0.686322 0.7416465 0.76864576 0.5324216 0.61964166 0.66107863 0.5480803 0.5777149 0.6043124 0.6473267 0.64346683 0.628239 0.7104492 0.70419776 0.6687081 0.6423877 0.6265086 0.66526747 0.7043731 0.6912372 0.6192092 0.83603716 0.839386 0.8588562 0.83214486 0.5536057 0.7062223 0.8213824 0.692835 0.5469421 0.63566136 0.74336934 0.67864347 0.49266475 0.6628283 0.6256348 0.67278415 0.63389707 0.65640366 0.6933659 0.6383026 0.70585144 0.563789 0.47934616 0.49704427 0.7665002 0.87294763 0.86573553 0.74643826 0.52262473 0.4489266 0.41892 0.53894067 0.8167652 0.87916315 0.8746623 0.7214911 0.57801354 0.44473153 0.7976775 0.812168 0.7409388 0.35719496 0.48568788 0.5882417 0.7273903 0.3451513 0.40368474 0.5020537 0.55762744 0.32111233 0.28065112 0.39289704 0.4031971 0.45079088 0.5642184 0.318614 0.5440737 0.5930708 0.5915476 0.4176686 0.58677834 0.57999563 0.57941806 0.55620927 0.50924146 0.5807191 0.58741534 0.6306094 0.49214938 0.8250128 0.8110163 0.7014038 0.8034142 0.82039464 0.7887783 0.45185196 0.6278757 0.74328345 0.682216 0.4611045 0.57879895 0.24847762 0.48262072 0.46425122 0.42982918 0.23051994 0.37451726 0.3660474 0.5077641 0.6173068 0.6042011 0.63801956 0.63605684 0.69160914 0.4336703 0.24741696 0.39033297 0.36863226 0.45602685 0.66023004 0.8237582 0.83486724 0.3804078 0.2984912 0.35562915 0.597987 0.8470397 0.50888896 0.42823836 0.31061354 0.34953332 0.8413329 0.71479285 0.5938044 0.4750855 0.32406312 0.6794108 0.26300138 0.100015506 0.15792067 0.04928264 0.26449448 0.07303436 0.1317954 0.23096001 0.3208068 0.2060028 0.22746596 0.11516544 0.20842928 0.3129558 0.18839598 0.28435972 0.49386382 0.32861498 0.39030847 0.41811877 0.41188732 0.4379738 0.46216744 0.5012181 0.43845552 0.49411115 0.2623348 0.29162008 0.36086175 0.32137877 0.6171949 0.687694 0.68906665 0.7375363 0.43793184 0.67879903 0.567723 0.29725337 0.4274721 0.19128837 0.14123407 0.3635825 0.29181874 0.24788636 0.3383173 0.27142775 0.34730464 0.32011777 0.11818907 0.369741 0.49364933 0.5170028 0.56843543 0.55554247 0.4806286 0.33195007 0.72053826 0.1523574 0.26509863 0.7664238 0.26849198 0.19581856 0.7787065 0.7231611 0.52233166 0.4085689 0.11779411 0.18311211 0.70759666 0.52331173 0.12504882 -0.088971436 0.03197109 0.033751547 -0.037548088 0.4989162 0.64234126 0.7606716 0.021936506 -0.03609368 0.64096713 0.68928003 0.21807581 0.117980845 0.098916344 0.58806056 0.19401327 0.11465721 0.1961917 0.2528398 0.29673284 0.17724398 0.25006834 0.3189782 0.27394882 0.2687655 0.2992077 0.39399648 -0.019317955 0.03301237 0.18517645 0.37958834 0.06299256 0.20358677 0.20916206 0.24203536 0.29461324 0.35793874 0.23967007 0.26151004 0.26868278 0.2604095 0.26415893 0.45463794 0.32228857 0.32329243 0.3135684 0.52575636 0.53087497 0.5035558 0.42234534 0.3669082 0.5848303 0.5804414 0.55295986 0.51289546 0.530037 0.6240107 0.6205966 0.38785577 0.38912165 0.6245319 0.62800336 0.6024072 0.35442144 0.3979352 0.44878918 0.47801888 0.5510832 0.5719071 0.5315777 0.36354893 0.43139508 0.48147255 0.52435577 0.47764468 0.4960592 0.41628328 0.44234592 0.49512547 0.38960484 0.32483733 0.47411287 0.5109145 0.24033676 0.2784158 0.2625826 0.5056918 0.21025535 0.25755525 0.29345834 0.2963555 0.12343578 0.35709354 0.27378058 0.27968943 0.3036971 0.23903582 0.04241969 0.3289724 0.2563514 -0.057933137 0.080564514 0.25847307 0.20583452 0.29464233 0.16185552 0.4662373 0.2831743 0.026114572 0.39765203 0.5512512 0.23135504 0.057389196 0.16083385 0.6209321 0.14746559 0.4137367 0.25867823 0.068031065 0.6464608 0.19079252 0.36380312 0.26385042 -0.024657432 0.54980063 0.42689794 0.22079791 0.27940714 0.35324377 0.68346035 0.0034738556 -0.19003838 -0.11395237 -0.0667845 0.17835876 0.3399568 0.7020944 0.1271912 -0.1250658 -0.08689598 0.6643015 0.6915176 0.24848202 -0.07219541 0.17800778 0.29860198 0.4391703 0.5496304 0.6299005 0.6691498 0.39819634 -0.04341311 0.023720272 0.15563947 0.485045 0.5698796 0.5390011 0.5333309 0.48538268 0.21955115 0.20145717 0.3185999 0.17553708 0.23644952 0.23944801 0.24936187 0.28144655 0.277864 0.29833937 0.4454643 0.30386704 0.2885436 0.30387267 0.30181926 0.46918243 0.4047771 0.5760411 0.48814029 0.4920106 0.2917978 0.30391943 0.56545204 0.552462 0.54463106 0.24119088 0.23396623 0.31056398 0.5944412 0.6015605 0.59277165 0.56037486 0.25874555 0.2928546 0.2751695 0.33971947 0.3922985 0.53658026 0.57646817 0.51465833 0.29244423 0.33546615 0.4831213 0.3939528 0.52027386 0.44747365 0.3301067 0.34985504 0.36499304 0.300708 0.26197004 0.06160345 0.39711154 0.26955605 0.2652145 0.3599792 0.4856262 0.5083891 0.31019875 0.27617928 0.1340845 0.10667629 0.12406149 0.27907342 0.25611812 0.19550945 0.21441904 0.39593738 0.26583987 0.32933995 0.30612683 0.17322141 0.18702064 0.17263375 0.09261279 -0.19096112 0.325126 0.38970944 0.35331598 0.34653482 0.25258148 0.18517561 0.14352547 0.10746724 -0.011900406 0.5029719 0.43659145 0.401783 0.3679365 0.11659146 0.2024139 0.038316324 0.29383677 0.3006879 0.44190913 0.4181984 0.39355016 0.23370506 0.28501472 0.13698328 0.26590323 -0.12952207 0.1629211 0.19843206 0.24418035 0.4304279 -0.063584745 0.35165548 0.11128118 0.50189257 -0.07589303 -0.21237007 0.49289632 -0.036211036 0.38205025 0.4400285 0.35362154 -0.0706315 -0.005379863 -0.0011587776 -0.09655167 -0.00410448 0.41619027 0.5485834 0.18210542 -0.03083377 -0.051862355 0.0025520027 0.012504421 0.11539659 0.6431415 0.5895835 0.20304254 -0.0445828 -0.043239415 -0.1560641 -0.16926524 0.013352558 0.64082503 0.61763644 0.32239354 -0.13253313 -0.11329024 0.6620877 0.45862043 0.3579608 0.44828287 0.58525556 0.5985845 0.51055324 0.531816 0.3767162 0.558084 0.5303939 0.4773609 0.37721196 0.3429633 0.26306713 0.096824765 0.05861146 0.30053815 0.30307823 0.41132206 0.33077106 0.37722367 0.52481973 0.43937603 0.47936743 0.6062119 0.32454222 0.37437764 0.52016395 0.50727654 0.58595467 0.54305434 0.47515097 0.43964556 0.43421966 0.545452 0.3600157 0.39313912 0.45112985 0.52940637 0.5695788 0.29782552 0.31652078 0.33760732 0.31454146 0.47942966 0.49260908 0.5244092 0.5032235 0.43298027 0.22462744 0.24558103 0.3000729 0.48129362 0.24151605 0.24947152 0.24100393 0.44104934 0.3984984 0.46402 0.26051116 0.27334142 0.41569492 0.41910672 0.37851894 0.29118535 0.16079406 -0.055048894 0.2662413 0.35066414 0.39049137 0.33027062 0.23886734 0.11835566 0.058926113 0.0033276677 0.2002495 0.11038142 0.28231555 0.28251156 0.31695583 0.20396352 0.092933044 0.0531656 0.07584302 -0.08045314 0.021143407 0.15492146 0.29924303 0.31501713 0.08128909 0.07240423 -0.016428925 0.06338323 0.17884059 0.5625622 0.51372284 -0.017220248 0.08826274 -0.094568186 0.31338036 0.31248778 0.58020395 0.5389302 0.30868784 0.57768035 0.5397144 0.45586562 0.12414139 0.27947396 0.2863909 0.54044414 0.45549843 0.35719278 -0.111625224 -0.08888943 0.07212568 0.21551825 -0.14832845 -0.15769038 -0.013689868 0.19075894 0.38904595 -0.17456679 -0.18450178 -0.09966853 0.013983987 0.5362824 -0.12695897 -0.26513582 0.5163907 -0.19700232 -0.100208536 0.16272222 0.44204378 0.008717423 0.013226459 0.5113073 0.24062878 -0.0013252074 -0.14296909 0.46945316 0.5208843 0.062012345 -0.12653208 0.58098 0.5277099 0.31897807 0.5163505 0.4839652 0.45751804 0.5168397 0.5267446 0.2997599 0.5274027 0.5376518 0.096931994 0.53255135 0.48398125 0.35182247 0.19459546 0.13025765 0.044505574 0.29351074 0.35145444 0.24489163 0.448964 0.45331013 0.4983524 0.49389383 0.49521357 0.5358536 0.52691495 0.52903926 0.53479517 0.50926477 0.40893394 0.31046164 0.22802967 0.5815537 0.63631094 0.5824472 0.47106892 0.5968924 0.6617423 0.6780846 0.64744675 0.39398637 0.4615683 0.61037385 0.61888313 0.6101991 0.31736857 0.2633701 0.20652781 0.3447036 0.34995797 0.5365839 0.52004415 0.38169575 0.3010535 0.059423745 0.22296485 0.2970958 0.4290442 0.43431038 0.2678638 0.14916742 0.4541595 0.40434086 0.3355768 0.2099815 0.13645191 0.3604131 0.12063319 -0.026461296 0.35206428 -0.040824547 -0.08168094 0.034761146 0.24245204 0.045308217 -0.14619565 -0.19974723 -0.081189185 0.26712924 0.5152101 0.07160622 -0.06444976 -0.32491663 -0.24305663 0.26101494 0.29907256 0.5381392 0.08928016 0.065572724 -0.104242116 0.3023722 0.5030324 0.5602666 -0.13754304 -0.29144222 0.26891825 0.29337317 0.523189 0.29000008 -0.27238667 -0.16537718 0.2228731 0.44096506 0.4607666 0.3999007 0.3524417 -0.4772774 -0.30561545 -0.20387214 0.1269247 0.17047094 0.47646022 -0.20664442 -0.18181086 -0.20486635 0.06359014 0.52237856 -0.2806657 -0.21170379 -0.19102864 -0.15680121 0.4383458 0.24903467 0.40054426 0.3495899 0.34998637 0.34244403 0.13819641 0.4167704 0.31602547 0.47863013 0.44558895 0.3221032 0.5067707 0.5121225 0.27946794 0.5240688 0.5264236 0.20107843 0.5109534 0.44610256 0.34369975 0.25220644 0.2046529 0.11556726 0.0015361235 0.20388883 0.111052126 0.29743275 0.38822758 0.45504373 0.4916374 0.43299517 0.5413865 0.5260198 0.45537162 0.46072137 0.37558275 0.20973736 0.19070071 0.3729416 0.5949866 0.43829116 0.5580611 0.6658999 0.6227074 0.6788546 0.70283854 0.3592434 0.3661358 0.45095924 0.56362426 0.6726805 0.702207 0.67942166 0.34608033 0.38930765 0.41007066 0.38984558 0.36961448 0.34969652 0.37784675 0.62329805 0.33348203 0.3056134 0.13237181 0.5150647 0.52568007 0.36814186 0.38356653 0.38581604 0.4015799 0.37404937 0.3198507 0.23433872 0.25396517 0.39940304 -0.026078232 -0.13131562 0.23327865 0.30919245 0.35911995 -0.10487957 0.17388533 0.20108773 0.18910043 0.15369894 0.10025872 0.08758115 0.15178731 0.1736955 0.38986295 -0.3263385 0.27440542 0.4094128 -0.23550229 -0.36776128 -0.34128934 0.2802155 0.38075262 -0.31360355 -0.37084106 -0.4214463 0.25405532 0.28385213 0.41831768 -0.30733746 -0.3209228 -0.2952559 -0.3210003 0.19937253 0.39893937 0.407722 0.24651143 -0.2543413 -0.20693238 0.13362494 0.404037 0.39887774 -0.24684906 -0.0019067694 0.124195606 0.007245099 0.31207064 0.30732593 0.2657799 0.32352322 0.30008385 0.29695085 0.28212976 0.24735829 0.20393896 0.21131521 0.49190587 0.21540865 0.50252503 0.15553533 0.48390138 0.37489572 0.32028946 0.13935539 0.11955617 0.0720156 0.10488185 0.1820313 0.18714407 0.5474976 0.4943595 0.312486 0.56510127 0.54288626 0.34571984 0.27720684 0.6839765 0.4276523 0.45585477 0.6437616 0.72382975 0.6057186 0.662266 0.68975484 0.33801672 0.35299486 0.4601769 0.521875 0.69155174 0.68056846 0.38730234 0.40265805 0.36650532 0.29540017 0.3532644 0.3215822 0.64745665 0.60154176 0.1421905 0.24584861 0.29333994 0.31534496 0.22869444 0.37190285 0.28512564 0.36966372 0.2409016 0.1389182 -0.053335287 0.38719296 0.10639303 -0.29103714 0.36734965 0.31594783 0.06496864 0.17666237 -0.03252494 0.23377258 0.2006036 0.23843491 0.30970177 0.26196808 0.32943144 0.26906967 0.37600237 0.37998542 0.2481853 0.4048394 0.41532356 0.2260153 0.4639017 0.4532659 0.18985361 0.44758296 0.18853259 0.009339489 0.12401378 0.14817303 0.24686188 0.28490382 0.2417498 0.14601324 0.13702057 0.17803307 0.33717197 0.085619494 0.16940416 0.20419559 0.18872319 0.027748022 0.12090677 0.01152426 0.1128489 0.09546116 0.185342 0.09202042 0.041521005 -0.015253574 0.08658055 0.10807462 0.50386274 0.21927486 0.60614866 0.41234908 0.68091774 0.6661701 0.55406475 0.68221676 0.70843434 0.57564175 0.63328683 0.6528937 0.2960787 0.3553003 0.50547826 0.5448047 0.62446576 0.5948895 0.29148757 0.30282426 0.28570586 0.19126794 0.3145185 0.3007061 0.5391046 0.45214826 0.05382374 0.25946775 0.36522418 0.37564063 0.37627602 0.32494232 0.14958063 0.104802564 -0.040861756 0.37580746 -0.054594845 0.35800678 0.34691435 0.1026922 0.3246457 0.33450496 -0.10247553 0.28331366 0.17247343 0.028544739 0.1957014 0.085524924 0.1910097 0.15765102 0.3245948 0.27394995 0.3653853 0.32005575 0.45527074 0.28666914 0.5218782 0.27051914 0.28644723 0.5634443 0.55638134 0.42206812 0.25179762 0.22336705 0.036436334 0.28174913 0.26131293 0.22569291 -0.1268533 -0.29678202 0.058859482 0.0940552 0.008270661 0.0503174 0.11305863 0.06863963 0.12873076 0.14273497 0.13497989 0.079518676 0.12304538 0.5545589 0.24685688 0.5831028 0.2212475 0.22208267 0.20512258 0.4625721 0.6317158 0.6109351 0.5350967 0.69969755 0.65272236 0.5630643 0.5890676 0.42996114 0.37280244 0.4531632 0.48172957 0.51813036 0.1528868 0.04954743 0.2707198 0.3169369 0.40275657 0.42075652 0.44783902 0.39604652 0.35001618 0.23329136 0.12615304 0.15776645 0.12763342 -0.14756882 0.09566472 0.36325318 0.36295572 0.40926158 0.40759316 0.37097275 -0.022920065 -0.05903028 -0.04613871 -0.08804676 0.0772136 0.3477188 0.35713 0.37905556 0.40197307 0.35421765 0.33073986 0.33651358 0.3508276 0.34968194 0.26206994 0.33255774 0.22731534 0.3123505 0.3489918 0.26190934 0.19146004 0.32717976 0.24370788 -0.006237872 0.008165838 -0.07542976 0.3969636 0.2170812 0.3063122 0.3376598 0.33728933 0.42350864 0.46300107 0.31586927 0.5268035 0.496219 0.28935596 0.28856766 0.53572905 0.5035569 0.32262185 0.27221894 0.24331188 0.3462609 0.10086009 0.19294131 0.33573046 0.32237908 0.2837919 0.24008477 -0.23899522 0.26358724 0.26057154 0.27312896 0.17398337 0.46556577 0.31721693 0.6319374 -0.06698151 0.54239225 0.6439952 0.07018507 0.37912756 0.5231085 0.6305423 0.16887218 0.20673335 0.2194009 0.018611632 0.30227864 0.24120083 0.20127974 0.2809855 0.34590608 0.19962543 0.2815336 0.26240695 0.22252709 0.14692791 0.24947228 0.33229527 0.30735603 0.4693684 0.2908098 0.42781284 0.5187498 0.54894406 0.65634435 0.71685684 0.6990716 0.5126327 0.5939791 0.62729406 0.5836595 0.24223357 0.47911018 0.12834607 0.14400196 0.13904265 0.022221968 -0.028342158 0.14212798 0.27233124 0.3232168 0.37064424 0.39316702 0.37710458 0.33500415 0.17577328 -0.13149707 -0.18603997 -0.26459375 0.010899626 0.31233162 0.3324356 0.3377027 0.39245886 0.40652934 -0.06995991 -0.1368864 -0.14088476 0.32037514 0.36852124 0.32137024 0.29915977 0.33693397 0.33966404 0.33877754 0.36758977 0.23728912 0.2882231 0.43751943 0.1323846 0.4996171 0.49284923 0.48823553 0.471942 0.35442898 0.36905986 0.21094029 0.26066387 0.30812654 0.36512154 0.40111932 0.26895463 0.29152566 0.43399623 0.40123445 0.2930187 0.11626069 0.45527813 0.1495137 -0.4054982 0.2436189 0.25988036 0.018898278 0.22100127 0.35143006 0.3645434 0.261244 0.36068872 0.04390472 0.2831982 0.28171885 -0.39608902 0.2554288 0.27866447 0.16023302 0.24347618 0.26608607 0.51562 0.14000669 0.50992644 0.38474053 0.5138189 0.6419636 0.6855154 0.3296254 0.71219623 0.29792455 0.120615795 0.6833607 0.721488 0.66636395 0.7079005 0.36615074 0.4757141 0.38032824 0.33891925 0.2732548 0.2635326 0.22631186 0.02762812 0.22587869 0.70093393 0.51013154 0.6433112 0.71492594 0.6862099 0.3835498 0.5423882 0.14360102 0.100199476 0.00018535554 0.32809317 0.36064297 0.07409364 0.09975744 0.056682784 0.12844293 0.14040853 0.30905777 -0.00950353 -0.20911081 -0.03637902 0.055588074 0.08300525 0.11414924 0.14641055 0.35744622 -0.04061873 0.19781765 0.17266655 0.24234074 0.29832226 0.2728309 0.31881243 0.43418604 0.4913725 0.08333982 0.5261008 0.23434132 0.5126165 0.345604 0.48697263 0.2708868 0.41154915 0.28173712 0.114269815 0.25233462 0.02656632 0.17711116 0.38484284 0.18250018 0.074195124 -0.14869201 0.34898844 0.22510584 0.0921575 0.063492104 -0.49599338 0.20238745 0.21264659 0.22561434 0.35268703 0.2622099 0.3463673 0.3618865 0.39440584 0.42608854 0.38871133 0.33027658 -0.118148446 0.26858208 0.5705098 0.212892 0.6261802 0.0055369735 -0.003231898 0.6447439 0.498322 0.5270319 0.57771504 0.50882816 0.63979536 0.6958016 0.44136405 0.39123696 0.734944 0.34761125 0.74098414 0.32560402 0.66837394 0.7249503 0.3633771 0.39184523 0.40439963 0.094086856 0.41335785 0.51483727 0.5955211 0.40723914 0.4158849 0.4308368 0.44545305 0.11635667 0.05746588 -0.029902421 0.36620414 0.46606982 0.5755786 0.66413033 0.55959034 0.52879226 0.32323322 0.4142081 0.5881024 0.22794779 0.21828459 0.11849678 0.06508064 0.16749735 0.35720184 0.5172076 0.36104017 0.23431972 0.020405857 0.48488784 -0.00677401 0.3554215 0.039745826 0.045956384 0.049650427 0.020428088 0.21315566 -0.0020690411 0.07992822 0.18210313 0.20460828 0.2346651 0.26690075 0.36368358 0.47824252 0.52907807 0.23699318 0.5415854 0.3300603 0.52973336 0.52223915 0.41360176 0.49798733 0.44214493 0.35036692 0.43839857 0.38801676 0.37706825 0.07274996 -0.43756518 -0.3212941 0.27910772 0.32823446 0.102865696 0.066818774 -0.29571062 -0.13516325 0.05189638 0.064554855 0.04501763 -0.009342916 -0.11984913 -0.10206808 0.07625049 0.081232965 0.12601924 0.13415486 0.17991744 0.23049353 0.33536327 0.4343279 0.117215574 0.14726448 0.44388884 0.4957568 0.014653191 0.10194482 -0.04077579 0.14451653 0.56546545 -0.08150621 0.15776286 0.60190976 0.593736 -0.50887716 0.12848562 0.53531116 -0.3838635 0.6245997 0.70351195 0.44015494 -0.110248126 0.67561793 0.7133179 0.37294748 0.3217936 0.003841117 0.7317544 0.3107224 0.6909888 0.71999454 0.3632837 0.39178586 0.38065326 0.2793483 0.30849195 0.08587847 0.5175757 0.5796426 0.3934892 0.388123 0.41587824 0.42127454 0.42264947 0.13416947 0.038615752 0.3318277 0.3662206 0.41543943 0.4982813 0.37835738 0.6478827 0.5763651 0.35051128 0.3575864 0.36309016 0.19409037 0.6522517 0.5585125 0.46719807 0.2460944 0.3240495 0.33517948 0.2589716 -0.08415063 0.0022025332 0.112089686 0.6447243 0.08214953 0.022679523 0.10562797 0.53888714 0.11828015 0.055639874 0.022211865 0.010023754 -0.05361961 0.002026394 0.26636136 0.1095714 0.30052024 0.40061343 0.3965168 0.40658402 -0.09785361 0.39510798 0.5098014 0.0005876124 -0.09516311 -0.16295251 -0.06908786 0.45291626 0.4969225 0.4666463 0.46547353 0.11068252 0.01660078 -0.054810863 -0.093267836 -0.30604708 0.37761426 0.42516023 0.44768086 0.4409963 0.43176877 0.095292866 0.07433948 0.068787776 0.31167516 -0.102841064 -0.099520355 -0.11615233 0.16518855 -0.076161556 0.12809774 0.15513042 -0.07622053 0.03541219 -0.07400811 -0.13371024 0.4519738 0.31295335 0.2874754 0.50613153 -0.18783744 -0.20859407 0.5574321 0.5115116 -0.6267832 -0.5669217 -0.3991218 0.54059803 -0.020074211 0.52126604 0.47458464 -0.11699743 0.334088 0.47733402 0.5789516 0.4307155 0.6270177 0.6835975 0.34475666 0.32839757 0.21151653 0.65857327 0.3205647 0.34830093 0.31422412 0.63293135 0.6529785 0.3597175 0.38356084 0.3829873 0.4019987 0.4613721 0.49360722 0.54358655 0.5959166 0.6225326 0.37754002 0.36427587 0.35762176 0.3873258 0.457681 0.38461474 0.40575254 0.29453602 0.66369903 0.61715496 0.5146485 0.4222083 0.28771526 0.36496356 0.3928593 0.40552658 0.20274791 0.6871842 0.17666537 0.18361361 0.6497561 0.66058075 0.22357993 0.6274339 0.22192444 0.5868471 0.16071531 0.4120582 -0.021804914 -0.006230414 0.3434656 0.23017038 0.47518867 0.31166407 0.51024216 0.22006063 -0.33799356 0.49455184 0.3101713 0.17637824 0.077218935 0.39672068 0.488855 0.4170205 0.17833488 -0.11017499 -0.09887705 0.34211653 0.4960247 0.5023876 0.45680583 0.3450482 0.12933728 -0.12943281 -0.15141943 -0.17019361 0.42351854 0.4771311 0.47589183 0.47297218 0.36693126 -0.08227448 -0.22925694 0.40178484 0.46038443 -0.08017942 0.26958466 0.31898296 -0.051218696 0.0096686 -0.079519585 0.1456299 0.05497835 -0.10361656 0.1636922 0.14106208 0.14567783 0.090936124 -0.020278841 -0.29135492 -0.11824721 -0.12687518 -0.13398008 0.14507021 -0.10224937 0.4205183 -0.04431817 0.4387148 -0.24208704 -0.12430995 -0.013661124 0.44715935 -0.19826294 0.26063675 0.35644376 0.49256665 0.599703 0.58986783 0.3852653 0.26635575 0.18869096 0.2890301 0.3528589 0.5933857 0.6199983 0.6357818 0.38503537 0.30390573 0.51410425 0.34565133 0.5919645 0.6253711 0.6430331 0.40438432 0.37634897 0.34972897 0.36810014 0.3863565 0.56048244 0.5181705 0.44108897 0.48409837 0.5632572 0.6098256 0.34803623 0.5318121 0.4601376 0.281