# vtk DataFile Version 2.0
Really cool data
ASCII
DATASET POLYDATA
POINTS 2997 float
36.464493 23.198559 23.90874
36.470848 23.562508 24.297798
37.448635 12.521493 22.57426
37.442947 12.988634 21.81843
37.102573 22.162811 23.6507
37.09287 22.224325 24.444132
37.017193 22.950943 23.151308
36.65845 22.859066 23.728533
36.760662 22.654207 24.437403
37.006657 22.751205 24.959806
36.888783 23.626034 23.202967
36.63218 23.422087 23.629625
36.55355 23.47517 24.43999
36.921474 23.46862 25.168945
37.092278 24.197699 23.22858
36.647423 24.239717 23.852524
36.63518 24.19534 24.4045
37.143898 24.739084 25.359993
37.073643 25.47213 23.991386
36.93618 25.398523 24.511898
37.131584 25.675339 25.156567
37.356686 25.176231 25.683674
37.262512 26.115828 23.971237
37.23323 26.289337 24.537264
37.25631 26.32551 24.907606
38.25069 7.892557 16.86536
38.258335 7.9183207 17.371592
38.32023 8.080384 17.931519
38.369846 8.7396755 16.123106
38.200424 8.432263 16.806051
38.21139 8.433542 17.574642
38.456577 9.461304 15.975085
38.336975 9.410636 16.505383
38.328167 9.722254 17.154041
38.45723 10.336518 16.92281
38.07855 11.139981 21.830338
37.910515 11.231705 22.18172
37.824127 11.533949 21.90621
37.67995 11.676044 22.58055
37.868862 11.698863 23.233261
38.019962 11.957745 23.630796
38.419853 12.741155 12.59758
38.403778 12.658747 13.1361
38.012394 12.586458 20.821627
37.686802 12.461306 21.598188
37.704433 12.451257 23.3519
38.031563 12.624492 23.745224
38.404526 13.165151 12.609282
38.39702 13.229445 12.985234
37.781586 13.715263 20.90616
37.62757 13.545254 21.290308
37.643845 13.70865 22.798693
37.73733 13.407861 23.225489
38.126083 13.369843 23.741854
37.994534 14.345254 20.788456
37.79906 14.43645 21.66941
37.79281 14.598646 22.454113
37.864506 14.540354 23.287872
38.237324 14.482792 23.820166
38.1539 15.492884 22.108593
38.032707 15.495673 22.458942
38.03885 15.200282 23.211206
38.23937 15.790634 22.458101
38.37634 19.161047 17.42098
38.307617 19.09057 18.54635
38.212456 19.954075 16.907017
37.993397 19.903536 17.614317
38.145172 19.64075 18.36005
38.16823 19.45209 19.546331
38.323784 19.662777 20.237843
38.08655 20.609007 16.929077
37.801353 20.6975 17.655258
37.79605 20.477718 18.567587
37.7946 20.64663 19.583725
37.924675 20.705254 20.296965
38.223724 20.639568 20.755838
38.15427 21.482376 16.896729
37.939137 21.440264 17.461075
37.91545 21.459185 18.46246
37.872288 21.348068 19.3706
38.04122 21.207756 20.472727
37.593616 21.907045 23.776525
37.6907 21.8947 24.278458
37.48105 22.215977 25.055365
38.238937 21.82796 16.969217
38.102123 21.918213 17.505316
38.24001 22.081846 18.303307
38.18143 21.876316 19.493387
37.27123 22.798452 25.304623
37.96041 22.899147 25.693798
38.057858 23.561333 22.761541
37.75365 23.648666 25.888552
37.602142 24.742746 23.119493
37.758842 24.362713 25.976347
37.47217 25.48514 25.598898
38.004326 25.439526 26.14601
38.049248 26.13042 23.378815
37.64832 26.403425 23.773329
37.422897 26.567532 24.366056
37.584404 26.50047 25.250875
37.984947 26.34601 25.883171
37.950607 26.881742 24.016766
37.77538 26.9159 24.478312
37.958042 26.914585 25.310995
38.92284 7.2549253 16.724504
38.907944 7.1926336 17.52407
39.1429 7.237812 18.020414
38.65119 7.959114 16.06075
38.60928 7.5084653 16.75475
38.47035 7.567615 17.43166
38.812546 7.7008533 18.257183
39.20625 7.654071 18.72829
39.29592 8.98869 14.143768
38.59924 8.68644 15.892419
38.540485 8.322964 18.409143
39.061966 8.528331 19.05797
39.180298 10.192646 12.87866
39.14971 9.922617 13.698257
38.883507 9.825112 14.7216
38.530766 9.796765 15.866527
38.598244 9.614653 17.951708
38.826717 10.934101 12.894876
38.926075 10.719095 13.437587
38.98544 10.157503 14.096439
38.801643 10.638216 15.21129
38.50853 10.328137 16.714754
39.0199 10.956796 20.836256
38.83226 10.605041 21.878187
38.62581 10.802535 22.48484
38.751682 10.9762335 23.14995
39.10938 11.51982 12.01462
38.801594 11.683066 12.52849
38.58444 11.783686 13.39792
38.8403 11.370893 14.172895
38.94559 11.397411 16.087149
39.130653 11.416736 20.247778
38.512363 11.738251 23.766092
39.238914 12.46757 11.376815
38.75041 12.644159 11.873767
38.573017 12.332756 12.304755
38.730244 12.418256 14.051447
39.408787 12.488852 15.303472
38.54644 12.291773 23.949406
39.343445 13.822053 11.221483
38.767956 13.387858 11.823323
38.511387 13.540118 12.449786
38.490677 13.5122 13.041254
39.079067 13.339335 14.200805
38.39498 13.481101 19.966034
38.667076 13.615043 24.047935
39.35303 14.629855 11.164583
38.97905 14.078996 11.746335
38.74356 14.04726 12.490815
38.943844 14.037793 13.3842325
39.229313 13.935726 13.957851
39.066322 14.171794 19.489216
39.19029 14.8877535 11.773752
39.2722 15.121502 12.18957
39.29393 15.020287 19.95571
38.84337 15.619973 21.013773
38.40416 15.512435 23.481344
38.578777 15.265275 23.810343
39.03062 15.831805 20.957224
38.778046 16.207882 21.891573
38.86294 16.215937 22.453316
38.860832 15.997549 23.236258
39.130444 18.293423 16.698023
39.072742 18.172634 17.386873
39.178997 18.301155 19.339643
38.936016 18.82298 16.475065
38.683273 18.722649 17.293549
38.773148 18.403843 18.202381
38.44909 19.060545 19.182377
38.93924 18.921522 20.585484
39.045403 19.067274 21.005104
39.010124 19.408215 16.16483
38.508877 19.501087 16.660185
38.984016 19.33134 21.49871
38.824883 20.53568 16.125074
38.647724 20.322569 16.516575
39.155144 20.081768 21.859388
38.78432 21.485155 16.308128
38.513847 21.630419 16.500141
39.067204 21.774645 23.715
38.44013 22.272087 25.614159
38.9014 21.831995 16.376532
38.593674 22.050905 16.871416
38.508686 22.189434 17.3639
38.366493 22.207237 18.087791
38.660122 22.32061 19.420593
38.69961 22.255325 20.183826
38.54596 22.835674 26.00098
38.99569 22.621681 18.050085
39.046707 23.677914 26.598969
38.491833 24.586515 26.465834
38.41715 25.190393 26.40634
38.952915 25.122112 26.768986
38.48764 26.3372 23.300495
38.42749 26.56211 23.453274
38.561367 26.578249 26.244062
39.012707 26.141962 26.726204
38.617813 26.89819 23.74918
38.383045 27.296251 24.513004
38.477432 27.263102 25.361649
38.789085 27.19693 25.955488
39.18397 27.722563 25.475859
39.54364 7.1575637 16.219786
39.58031 7.012294 16.75057
39.61314 6.9252477 17.44534
39.554306 7.114412 18.163937
39.854366 7.3724265 18.729982
39.408596 7.4459286 18.564405
39.585888 7.8918977 19.04247
40.11657 9.253596 11.995265
40.15491 8.96138 12.526906
39.784435 8.853811 13.544216
39.44965 8.756401 14.387776
39.95496 10.011827 11.599328
39.84115 9.597241 12.229958
39.83887 9.664774 19.112234
39.26314 10.468184 22.057938
40.25918 11.020195 11.384892
39.652946 10.468095 11.822615
39.71759 10.588056 21.397675
39.220478 10.593824 22.409075
39.349255 10.993985 23.27443
39.084587 11.255624 23.711262
39.69113 11.922887 11.217072
39.48632 11.024478 18.471859
39.439182 11.848557 23.978485
39.428635 12.751182 14.651172
39.50916 12.59535 15.280973
39.487076 11.957928 16.316816
39.739635 11.886108 18.095377
39.389885 12.569886 24.136032
39.758755 13.689239 10.801042
39.65199 13.435191 19.0636
39.86072 14.06402 24.199074
39.64189 14.64828 10.95828
39.396736 14.125951 14.039411
39.78587 14.749972 24.246319
40.191017 14.946424 10.35866
40.022705 15.3927555 10.884304
39.553696 15.309213 11.4998665
39.590614 15.613745 12.470098
39.76009 15.337437 13.586422
40.01568 15.00492 14.080584
39.79528 15.439001 19.362644
39.39298 15.008955 24.141485
39.906708 15.750079 11.576343
40.22029 17.369608 18.841822
40.312634 16.03798 19.36073
39.839478 16.569637 21.008083
40.47691 16.970776 12.974535
40.416996 17.791653 13.422317
40.0043 18.220085 16.122328
39.632145 17.993229 17.082178
39.605446 17.76369 18.228657
39.791267 17.566628 21.583157
39.75999 16.762623 22.023945
40.428898 18.098917 26.015694
40.37569 18.04627 26.51792
40.354687 18.740337 13.966137
40.391598 18.591799 14.360775
39.383564 18.503859 16.287653
39.576164 18.457714 20.741798
39.732758 18.433102 21.46184
40.24585 18.247883 21.79774
40.174232 18.809486 26.641464
40.29863 18.532719 27.470448
40.375042 18.762667 27.861635
40.468235 19.082762 13.771558
40.43515 19.283127 14.51564
39.354244 19.505938 15.851852
39.77514 19.401876 22.198534
40.20165 19.630777 24.845833
40.32 19.362616 26.510733
40.21783 19.440258 27.435863
40.369343 19.238945 27.87525
39.944653 20.105257 22.65918
40.144234 20.576494 25.225998
39.468258 21.440258 16.11365
40.089737 21.31858 25.339321
39.49477 21.75989 25.862411
39.191765 22.486258 17.31892
39.861168 22.379845 21.157513
39.47145 22.697878 18.901537
39.747135 22.860992 20.152206
39.64871 23.651743 26.696371
39.697445 24.714298 22.750347
39.85692 24.908243 27.221315
39.501774 26.385149 26.927511
39.294544 27.02349 23.755365
39.83062 27.545568 24.327242
39.6181 27.54363 26.228964
39.836323 27.731974 24.550112
39.65971 27.865517 25.561123
39.96458 27.711489 26.118546
40.85111 7.104322 15.873051
40.44379 6.8130627 16.792763
40.560043 6.800051 17.370598
40.556778 7.1358976 18.127386
40.986282 8.2325115 12.771681
40.583096 8.250034 13.52313
40.85753 7.643145 14.807238
41.146664 7.525093 15.3420315
40.548042 7.8082213 18.968992
41.117035 8.969154 10.780325
40.745872 8.844288 11.571854
40.33329 8.646984 19.347832
41.157352 9.810329 10.313439
40.84597 9.521785 10.647546
40.60124 10.181548 19.555614
40.5785 10.190755 10.725749
41.03459 10.410123 19.886261
40.241455 10.864023 21.67075
40.032665 11.063551 23.37746
40.556957 11.437314 10.954752
40.181274 11.630649 23.802132
41.203125 12.873514 9.753206
40.55466 12.455847 10.591528
40.407177 12.426743 23.917856
41.167965 13.981216 9.339615
40.88533 13.55463 9.775758
41.236286 13.698804 16.51521
40.72106 12.990934 17.386738
40.8025 14.638815 9.846429
40.936344 14.099163 15.397695
41.1693 15.282908 10.039082
40.312588 15.483552 10.717195
41.13564 15.249017 18.03986
40.83611 15.547998 23.845486
40.493187 15.874386 10.928327
40.40249 16.118845 11.430239
41.191296 16.103458 18.31404
41.104668 17.147375 26.675468
41.140938 17.201363 27.268833
40.65638 17.461481 13.459253
40.59538 17.318747 13.887858
40.507847 17.985687 26.794868
40.642673 17.833765 27.5011
[...]
POINT_DATA 2997
SCALARS features_00 float 1
LOOKUP_TABLE default
0.73094094 0.7190523 0.7211455 0.6359468 0.7421341 0.7231592 0.7100142 0.7378938 0.7371719 0.69679964 0.6733936 0.71344686 0.72237873 0.6795598 0.6481757 0.68313634 0.69942343 0.61983395 0.6721769 0.67872274 0.64807105 0.5737175 0.66637826 0.6782971 0.66976386 0.6519687 0.66609573 0.6668298 0.4696109 0.5971722 0.6491134 0.3503008 0.42623 0.4503245 0.3286201 0.7262099 0.76755816 0.7470537 0.7803436 0.770539 0.73975027 0.4836219 0.4735512 0.56004536 0.66140926 0.71258056 0.69063437 0.500836 0.49340585 0.5088382 0.5548248 0.6374414 0.6525433 0.64561546 0.46364093 0.54130936 0.58519906 0.6178862 0.6246965 0.47901306 0.5143723 0.5862889 0.48105964 0.49143964 0.44751954 0.56090415 0.57271653 0.515165 0.42260194 0.38447446 0.6133565 0.6337423 0.59927136 0.5613126 0.51691514 0.44339612 0.5968677 0.6045724 0.58204395 0.5787418 0.5481123 0.71224684 0.66946435 0.6237298 0.57124543 0.5645802 0.5205431 0.5232209 0.6290691 0.4709751 0.61509484 0.4926068 0.6195039 0.48696828 0.5897635 0.50928795 0.600101 0.64638275 0.67380404 0.65589166 0.59374994 0.6397074 0.66619354 0.6581967 0.66039366 0.662712 0.6515316 0.57087517 0.6651771 0.6723553 0.6565639 0.63339806 0.24432176 0.43163782 0.661296 0.626295 0.280747 0.24280658 0.2332535 0.30802298 0.5720732 0.32214516 0.28290033 0.2306163 0.23019421 0.31455407 0.64075243 0.69875836 0.75156546 0.7718816 0.38126963 0.40397727 0.406681 0.30461687 0.18274318 0.5970096 0.743559 0.4095232 0.4639393 0.45826274 0.3934471 0.14273825 0.69786274 0.42710054 0.48080075 0.5073161 0.4936763 0.32892847 0.4105761 0.6148912 0.39343363 0.46050358 0.50129145 0.4502556 0.3340955 0.26536965 0.40957177 0.4137385 0.25822273 0.34461915 0.5843191 0.61744356 0.30138767 0.34775954 0.39026916 0.5102171 0.39524466 0.38517174 0.31658882 0.425314 0.44499207 0.3926894 0.39731196 0.24108039 0.18659456 0.4301033 0.49754244 0.16654038 0.5482427 0.55608094 0.20038322 0.5550344 0.57075536 0.42288488 0.38045955 0.5058042 0.5204093 0.5133769 0.5096593 0.4328491 0.4283957 0.34705657 0.4205063 0.3206712 0.40629697 0.44960028 0.3921337 0.55340815 0.57840407 0.5537205 0.4653679 0.5812192 0.6388197 0.64210963 0.583704 0.581409 0.58147895 0.6209539 0.63158774 0.6324196 0.6034249 0.6335356 0.5938767 0.37966502 0.3447183 0.27917343 0.25793818 0.37025392 0.34153953 0.50379896 0.69511515 0.3135941 0.3425551 0.62272453 0.7144081 0.7461189 0.74829745 0.3171601 0.46161008 0.6979451 0.24652779 0.12563229 0.057651736 0.14965191 0.6549895 0.37398785 0.09922193 0.547686 0.36907852 0.30210215 0.5402394 0.31596053 0.32411772 0.36351025 0.35490578 0.34631124 0.22290695 0.1175988 0.58618844 0.31877774 0.06672478 -0.06722956 0.119971946 0.15536499 0.20065112 0.30227673 0.34029713 0.30070364 -0.21551934 0.12819065 0.50963026 0.59583014 0.17726558 0.09443271 0.38040623 0.1212163 0.024660598 -0.030170463 0.56343997 0.6748346 0.6923617 0.23018903 0.077019766 0.37060785 0.078409195 0.0779524 0.48432943 0.64404666 0.68979985 0.030746024 0.027617339 0.43375212 0.110588886 0.18793105 0.40615737 0.18169452 0.3074828 0.12063716 0.25966167 0.46000203 0.33948565 0.4493544 0.49385706 0.43755376 0.50143313 0.4629591 0.5245408 0.47428703 0.32211304 0.53220695 0.5530494 0.56769145 0.35263425 0.28009427 0.17037466 0.15653093 0.4786031 0.5109937 0.453763 0.3771118 0.4748097 0.48084235 0.12384209 0.39608243 -0.023373127 0.54211736 0.67440486 0.24161321 0.64405465 0.19301127 0.19165051 0.5837271 0.28694242 0.2665165 -0.25053442 -0.1298411 0.30755726 -0.1018548 0.27603373 0.30234107 -0.18144642 0.360613 0.26194313 0.2453394 -0.2906831 0.52932405 0.5878212 0.19014427 0.1494213 0.6257936 0.6691532 0.67809 0.4297679 0.30098945 0.21542662 0.68959916 0.47966546 0.39186016 0.3114136 0.6745688 0.4567423 0.37528569 0.24700545 0.65069425 0.104841694 0.15467146 0.1072422 0.15182601 0.16965751 0.12363365 0.049938045 0.05942405 0.20734154 0.15340443 0.19624774 0.27701887 0.29070312 0.36574566 0.33231574 0.30135053 0.42012793 0.4050967 0.21224992 0.27001578 0.3975581 0.42751765 0.3939188 0.39967397 0.5022824 0.47947225 0.31147164 0.28666127 0.30695844 0.52092814 0.52200884 0.48714983 0.5022899 0.007854192 0.41476554 -0.013057077 0.23433736 0.50097793 0.56363463 0.19698241 0.16245082 0.39216983 0.28129023 0.33988094 -0.24549636 0.40448922 0.27332047 -0.23106796 -0.19079183 0.30078527 0.4179931 0.2401898 -0.043622598 0.48461235 0.52430046 0.24815732 0.024679646 0.6104542 0.48682696 0.63656247 0.59982497 0.50884354 0.6041889 0.6369362 0.43355477 0.3793443 0.1218833 0.57273555 0.06751295 0.082293026 0.10250276 0.30121082 0.26566797 0.34674802 0.2922926 0.26731077 0.32084686 0.270617 0.33481473 0.35722312 0.380288 0.35432696 0.38239378 0.36568817 0.30887213 0.2513647 0.0900162 0.062955216 0.3727395 0.37433892 0.17667612 0.18832144 0.24487175 0.3223456 0.53004724 0.5383636 0.409029 0.4845414 0.49522364 0.4301547 0.27206224 0.21276243 0.4812677 0.43388176 0.06396476 0.49878517 0.48788393 -0.00546363 0.48710102 -0.023230273 -0.041747328 0.43751454 -0.096672714 -0.15839215 0.07951333 0.34631976 0.3207796 0.4187469 -0.10478217 0.47413567 0.45984325 0.049162164 0.3138395 0.480848 0.4697578 0.42653036 0.38603866 0.44376633 0.41450512 0.23748943 0.509288 0.42378238 0.32692403 0.44348544 0.4889326 0.46724796 0.33075303 0.10358921 0.14166738 0.27365375 0.209754 0.36353427 0.362666 0.26109535 0.36306682 0.3430291 0.2790748 0.31563327 0.3349675 0.42031807 0.4848984 0.47519195 0.4363763 0.30363938 0.34550753 0.18992881 0.17749599 0.15346101 0.47186136 0.5325396 0.5484995 0.5206475 0.46879628 0.44811016 0.21596844 0.40251675 -0.012303077 0.43704098 0.4367375 -0.034111556 0.42545438 -0.036444336 -0.069556616 -0.14090084 0.26295665 0.23267229 -0.10659592 -0.10607235 0.32250953 0.0912164 0.25605592 0.30305654 0.4060213 0.39187276 0.23364508 0.28322387 0.2622401 0.47147566 0.2173169 0.22656253 0.48127723 0.4810435 0.29986987 0.47345978 0.3514869 0.30940756 0.35202682 0.11309602 0.299092 0.3239851 -0.077547036 0.29080686 0.31365824 0.32485688 0.30610836 0.298478 -0.2131058 0.33270317 0.3592572 0.28494754 0.5250999 0.44884282 0.39307058 0.37967312 0.3146123 0.3267734 0.6907234 0.6873243 0.5993275 0.45492387 0.39337808 0.3346921 0.35496444 0.31115526 0.22017784 0.76676285 0.802928 0.7398602 0.6306218 0.4597154 0.4653977 0.8111259 0.83546597 0.7824114 0.6655024 0.5582011 0.56454 0.20374198 0.50970984 0.37987402 0.24231051 0.19835128 0.3445221 0.23402306 0.18956533 0.16814789 0.2358788 0.22802001 0.33926722 0.446174 0.49147433 0.52714604 0.3221798 0.31497592 0.32916942 0.26658183 0.014045447 0.1418706 -0.010876261 0.3164741 -0.05040489 0.3208475 -0.06441619 0.12744933 -0.122822024 -0.084921494 0.033725295 -0.030936997 0.24427505 0.15362106 0.23595682 0.34574777 0.3289882 0.28828806 0.35113928 0.35943854 0.41955042 0.28866166 0.27321887 0.27284825 0.31021908 0.47426766 0.34705406 0.40538853 0.057388783 0.36340225 0.3302982 0.34934902 0.25860262 -0.064085014 0.2999067 -0.21952409 0.2614614 0.17864959 0.12372343 -0.034845114 0.27753216 0.29574156 0.57644737 0.027360331 0.042712778 0.677544 0.6651059 0.34158656 0.19058326 0.3103342 0.68398404 0.7447301 0.46930188 0.54300827 -0.013987681 0.020886052 0.8071637 0.8703968 0.8118814 0.7131388 0.58777356 0.6074203 0.5099922 0.8847928 0.84839857 0.8012748 0.587888 0.3704046 0.19424655 0.26529694 0.121642336 0.37088194 0.47092932 0.55259645 0.34650198 0.40853724 0.3453381 0.33470628 0.2685637 0.08143073 0.0007096231 0.27852193 0.32285082 0.00407207 -0.022698864 0.118113145 0.036817383 -0.11617936 -0.082461014 -0.19035831 -0.07828456 0.03176994 -0.082343295 0.22291735 0.13734823 -0.055304177 0.23352286 0.34771863 0.37853009 0.2751909 0.38396728 0.38724113 0.32223073 0.32988846 0.3399582 0.41602686 0.328908 0.37749732 0.44467592 0.36002463 0.022115456 0.44018453 0.011338279 0.42898786 0.21421137 0.18032846 0.4065894 0.27266595 0.26508334 0.27888018 0.26757488 0.2654664 0.24203047 -0.36634892 -0.5066978 -0.004713103 0.5328577 0.218099 -0.15529299 0.5608392 -0.04986185 0.08876537 0.43001705 0.37290254 0.61091745 0.54793745 0.042656377 0.15367478 0.13025816 -0.04219675 0.11342431 0.28181762 0.16819763 0.71162665 0.7286725 0.17987023 0.35557878 0.39547464 0.43350542 0.5648518 0.38945854 0.43886197 0.29988495 0.066204906 0.814595 0.6655263 0.4817704 0.5657731 0.4492622 0.27647525 0.1636508 0.10274573 0.11068229 0.2693775 0.8632811 0.8835006 0.859715 0.7912774 0.7368797 0.04784575 0.29372752 0.031898208 0.50824916 0.18383232 0.2687742 0.5053166 0.57227015 0.41052726 0.53385663 0.5918275 0.58400977 0.47390354 0.5521383 0.6091466 0.6364353 0.4083721 0.25831655 0.37414712 0.33207375 0.30400783 0.3638351 0.394779 0.36321378 0.124687634 0.066321984 0.096567124 0.2429612 0.29860675 0.32511264 0.3357737 0.24352568 0.27736887 0.07189782 0.113674864 0.13584796 0.049954932 0.051790334 0.12739113 -0.055070236 0.07932741 -0.07327354 -0.016756047 -0.19608387 -0.18027145 0.30594617 0.4111265 0.19895616 0.4188385 0.42005408 0.41605556 0.47324607 0.29146773 0.49416506 0.5234945 0.09478848 0.049286872 0.49481446 0.08965588 0.10612996 0.49530524 0.17387134 0.16486575 0.28562626 0.27007213 -0.106388845 0.32913214 0.31343377 -0.3504017 0.5182268 0.33894747 0.31480742 -0.18283935 -0.3606633 0.50099313 0.5773262 0.5767258 -0.020683326 -0.10793503 0.5853908 0.19113605 0.004112631 -0.08109647 0.51300454 0.016726315 0.011904672 0.24220364 0.108528495 0.41247374 0.68329453 0.46634543 0.33775997 0.31110576 0.17952141 0.06419068 0.01385168 0.19153038 0.77490246 0.80975103 0.509074 0.5063332 0.50813824 0.15608165 0.4309679 0.822469 0.829167 0.81347036 0.7222955 0.54810464 0.544058 0.542149 0.04912062 0.4880187 0.5407044 0.57545096 0.23858906 0.60064256 0.6087781 0.3130104 0.35215485 0.39953464 0.6343058 0.62144506 0.623047 0.38248453 0.47817412 0.5610561 0.6128746 0.6498963 0.5669361 0.62555134 0.44328058 0.48982787 0.48159808 0.4487508 0.29380536 0.23507482 0.353134 0.39082664 0.41399562 0.4634006 0.44222558 0.39219016 0.13161397 0.08774349 -0.002058424 0.42617348 0.4704944 0.32607353 0.41033652 0.3878859 0.21031955 0.27398223 0.03206361 0.14658055 0.17235103 0.04893586 0.15421328 -0.13556181 0.12794732 -0.16776474 -0.15343459 0.12849705 0.3643336 0.37229556 0.3180835 0.48405483 0.14584607 -0.054696433 0.5196682 0.2874101 0.284328 0.5372722 0.5445825 0.26902837 0.24562386 0.5345963 0.5215739 0.21558723 0.39776134 0.2861647 0.3456205 -0.16024716 -0.2710315 0.34494907 -0.095049955 -0.19503377 0.4893124 0.5510451 0.27226096 0.27760148 -0.025400814 -0.1920659 0.56716526 0.0005922541 -0.17795083 0.5647468 0.5040723 0.45911735 0.42206752 0.61521804 0.48369578 0.5350095 0.48933583 0.41825363 0.76167065 0.7519481 0.7437763 0.5427215 0.5893775 0.5859287 0.5458654 0.53288376 0.62270284 0.6490606 0.3559678 0.6505303 0.6389674 0.40425017 0.45062774 0.64476407 0.65087914 0.5931478 0.6158324 0.46848884 0.4568423 0.4010165 0.4813891 0.49160835 0.47918177 0.43764743 0.47850466 0.33682868 0.5112387 0.5799555 0.6111882 0.32266155 0.15419123 0.5509994 0.59201974 0.3775423 0.46516818 0.51774144 0.32021278 0.37311465 0.0964324 0.24295002 0.28361928 0.1632856 0.109614864 0.21213502 0.15777674 0.09711207 -0.09035573 -0.20720792 -0.30443442 -0.11754207 0.26527902 0.04153852 -0.054893766 0.1669982 0.36979282 0.26755112 0.2694131 0.20402981 0.4467563 0.51554024 0.2272817 0.24587803 0.54221344 0.5489031 0.2302793 0.24594034 0.53695893 0.54828113 0.39222118 0.22532989 0.1762457 0.38089073 0.5017866 0.43204746 0.372102 0.23655336 0.043891028 -0.097148925 0.1645668 -0.0672456 0.43003443 0.49309975 0.07586398 -0.046537537 0.40194148 0.47354245 -0.042843692 0.04533282 0.037830796 0.5052022 0.31736195 -0.2187623 0.42399758 -0.20316446 0.16952711 0.16872092 0.25681823 0.5084578 0.57328236 0.18374094 0.36701703 0.5438796 0.57185185 0.5955468 0.58266306 0.4725816 0.65103924 0.2468482 0.6749121 0.30841973 0.6663109 0.39439756 0.4126991 0.4566875 0.53519607 0.58373606 0.64074695 0.45657587 0.55130136 0.58211744 0.4472971 0.42382216 0.39643797 0.43260658 0.4269923 0.37340343 0.52441514 0.60882336 -0.024725003 0.21186356 0.6177031 0.64106035 0.6244088 0.6188564 0.53739697 0.54454136 0.14574517 0.4102341 0.13845584 0.124304086 0.31235877 0.13988897 0.32060632 0.09194937 0.2159736 -0.10499412 0.058642235 0.10179448 -0.11763769 0.15977643 0.18337975 -0.043270715 -0.0129245445 0.20684013 0.22031975 0.16175514 0.1365209 0.2634964 0.46514493 0.49336898 0.2115425 0.4609817 0.5053736 0.29653326 0.23053439 0.49893156 0.41966185 0.33326533 0.46408278 0.080296576 0.5244634 0.48585457 0.07954024 0.5316419 0.51038307 0.43058813 0.20647182 -0.05131425 0.14253107 0.29507726 -0.07242249 -0.11687839 0.0026348159 0.04440848 0.23583199 0.31239015 -0.09514707 0.33383155 0.27215672 -0.16298588 0.23542543 0.07502774 -0.030319765 0.01847756 0.4612592 0.4753176 -0.41317654 0.03649926 0.009031057 0.27852696 0.5421976 0.518728 -0.20818129 0.28806362 0.48616022 0.529716 0.57147753 0.033640005 0.4253552 0.5371564 0.09706681 0.6240113 0.29000384 0.56742686 0.6351236 0.41030985 0.42691228 0.4648916 0.45814514 0.54717195 0.43327415 0.4625749 0.33240426 0.3731136 0.34118873 0.32005256 0.55603546 0.62582827 0.6605507 0.3524357 0.6309805 0.3278702 0.5347569 0.27128464 0.25243515 0.28376487 0.46437246 0.4052606 0.20753841 0.19924134 0.38953835 0.13568121 0.32920238 0.53746605 0.44752955 0.32618195 0.19371033 0.24597381 0.21543784 -0.10549933 0.055321373 0.3155205 -0.016890481 -0.03187221 0.33980516 0.35932484 0.11656547 0.04254044 -0.017290272 -0.22121638 0.38220114 0.29131556 0.18541348 0.30894655 0.2614718 0.3668074 0.14210403 0.4128831 0.46166673 0.091098614 0.49440205 0.11026499 0.11140843 0.5196047 0.5311236 0.11816384 0.52648556 0.5005647 0.37830165 0.13728309 0.013004977 -0.10543667 -0.044884365 0.13642083 0.23711072 -0.03386925 -0.010889614 0.23715815 0.3701523 0.17698279 0.031719 0.043708272 0.051731173 0.4017018 0.3091985 0.22473276 0.019494709 -0.054341525 0.3936868 0.380038 0.31390658 0.36994764 0.38986275 -0.16306978 0.07861291 0.036283053 -0.055692684 0.34935054 0.47755796 0.46775496 0.10688702 0.09290581 -0.0089964215 0.192236 0.14505677 0.122198135 0.2447418 0.21551055 0.2352384 0.21114933 0.41871232 0.2928451 0.30989885 0.39698732 0.3328597 0.17381698 0.4006304 0.3589791 0.41902986 0.39016825 0.024174998 0.18698776 0.33300158 0.6286807 0.33092874 0.28269345 0.1776814 0.0534667 -0.124718435 0.28814834 0.47851434 0.600767 0.653531 0.38503122 0.36675563 0.5939491 0.36636454 0.4009221 0.48015082 0.34558702 0.40940714 0.27823085 0.36702994 0.3756044 0.5630935 0.5363765 0.34972814 0.58713984 0.5554634 0.5264449 0.328398 0.34343243 0.73447585 0.6625797 0.49010226 0.26293218 0.7262614 0.73189044 0.5871079 0.4591151 0.32817098 0.35672426 0.28764182 0.38543648 0.70693743 0.7219093 0.4964968 0.10052612 -0.18434519 -0.051674653 0.4258541 0.43308803 0.64275086 0.536042 0.2307482 0.4567545 0.27836585 0.42055804 0.19991025 0.32790598 0.29298645 0.1664542 0.35402387 0.4530893 0.053242527 0.083901376 0.5111697 0.12293179 0.5002464 0.37048286 -0.12436947 -0.12984066 -0.49630153 0.35396 -0.09787969 -0.07694611 -0.13311726 -0.045967754 0.15269464 0.46229023 0.41696078 -0.037295252 0.0075758738 -0.0135598555 0.016354898 0.4467948 0.42668983 -0.02485913 0.1873886 0.45712245 0.43479994 0.41373092 -0.066926986 0.069368064 0.27498448 0.1062153 0.06039259 0.45186734 0.13373782 0.1491082 -0.023313306 0.06289467 0.06605979 0.21446988 0.4623487 0.387918 0.13512667 0.13168763 0.22179802 0.2228807 0.30813712 0.3795771 0.3571197 0.45335782 0.4414553 0.4922558 0.48152068 0.4818516 0.3195992 0.28927618 0.03765808 0.40972453 0.30643594 0.31793737 0.27878848 0.1567573 0.10852025 0.37245542 0.34849882 0.41602534 0.37144962 0.39048588 0.42010888 0.42740273 0.3578464 0.39109927 0.3434397 0.35505322 0.38356808 0.5355718 0.55932415 0.5235743 0.4762528 0.31544167 0.5449072 0.36226484 0.2294295 0.7178917 0.7302604 0.6447286 0.5054706 0.10372774 0.6550943 0.7027148 0.43389803 0.42235726 0.27923873 0.4086839 0.6312335 0.68453324 0.445392 0.46065494 0.55197716 0.46290278 0.40012878 0.3107207 0.41951877 0.21448086 0.31164703 0.35274953 0.2620365 0.19544429 0.29653028 -0.09233922 0.44708508 0.49135485 0.14166528 -0.39809522 -0.26866603 -0.22185019 -0.33788022 0.24077336 0.48401183 -0.16751763 -0.067649215 0.4885279 -0.059622616 -0.097914144 0.05021564 0.18438894 0.48607713 0.4792989 -0.011306018 0.23995933 0.24855337 0.4802097 0.08760435 0.08949515 0.060070485 0.31112355 0.49116224 0.46919423 0.43285894 0.35267168 0.31729633 0.3211341 0.05580712 0.08764446 0.38932034 0.47667652 0.44840991 0.42778403 0.4217686 0.40513033 0.399755 0.4615357 0.48282146 0.2806544 0.5014703 0.5092623 0.47755206 0.42680395 0.41493756 0.37386775 0.43930274 0.43188095 0.5874151 0.5437782 0.5171461 0.47529775 0.46274996 0.13146932 0.12040864 0.023750164 0.0015959851 0.4336982 0.2818815 0.23512109 0.13542919 0.304143 0.25772518 0.30915788 0.27642414 0.30051002 0.37578005 0.30131134 0.36616635 0.26049668 0.4690006 0.463583 0.48991013 0.19962904 0.61300987 0.41885984 0.15159628 0.21024491 0.6602613 0.68764365 0.5630435 0.41788554 0.06293516 0.6476122 0.6384356 0.12355425 0.59310365 0.552072 0.22498679 0.4241938 0.53288996 0.43067846 0.4535611 0.4010787 0.36203897 0.07883592 0.24245876 0.10253765 -0.33512324 -0.3709959 0.30770153 -0.008048167 0.39973652 0.31473738 0.42536235 0.42028072 -0.44391745 -0.58332694 -0.38621306 -0.48710167 0.26789176 -0.21066347 -0.2786786 -0.26675978 -0.19730759 0.29681975 0.27955294 0.43220523 -0.16252975 -0.15549642 0.28826207 -0.0126804635 -0.06976041 -0.10210739 0.24136406 0.46896827 0.2323899 0.2541566 0.45788467 0.45452106 0.20423281 0.020241847 0.46095157 0.47381836 0.48111358 0.37060466 -0.03881372 0.012285888 0.44578815 0.39288676 0.47461367 0.46866423 0.4497947 0.47592393 0.47133964 0.43467164 0.37689912 0.29245973 0.36025688 0.40545124 0.47087103 0.50164664 0.54024637 0.54525954 0.4475749 0.4365118 0.521064 0.47293824 0.46654314 0.5462141 0.61038774 0.5698422 0.5323934 0.3712852 0.5118855 0.49301675 0.4552438 0.19452664 0.13023937 0.28424233 0.41915458 0.23295692 0.41163674 0.21373056 0.3136287 0.1829581 0.14292565 0.21240768 0.15047856 0.24184304 0.23616041 0.18724057 0.3070753 0.19079685 0.16150907 0.61169565 0.5954616 0.5571348 0.16484384 0.15180251 0.6464261 0.64464504 0.110724196 0.60330236 0.6318158 -0.042523146 0.5389265 0.48891434 0.20410892 0.35840398 0.191516 0.07062345 0.105115294 0.15235583 0.093903966 -0.11558923 0.13445862 0.22036922 0.22940028 -0.20434514 -0.04855569 0.17636508 -0.74343693 0.30568382 -0.4928962 -0.5633298 -0.26532835 0.3582942 0.36846688 0.00085802376 0.33246678 0.43144184 -0.16490695 0.17899415 0.11083629 0.4486372 0.26200074 0.2606094 0.2696143 0.427725 0.41031614 0.43610314 0.4107015 0.38437095 0.31480822 -0.07178519 0.3708409 0.4226244 0.42616552 0.5208109 0.40248916 -0.07770708 -0.10104333 0.34107167 0.37907696 0.45365193 0.4664713 0.51345074 0.5255445 0.5373106 0.28490087 0.2836564 0.31778312 0.41428953 0.32975376 0.47137254 0.5399822 0.49903476 0.46018147 0.4162735 0.53050834 0.4931419 0.56852996 0.6127879 0.59604 0.54718065 0.48561546 0.5349611 0.50552756 0.46515507 0.26999888 0.1963379 0.45578393 0.44112456 0.2575909 0.16880643 0.3765313 0.34367436 0.19241542 0.24656461 0.19589154 0.19891894 0.6163937 0.5888463 0.5646238 0.036046255 0.098659866 0.14661025 0.1973373 0.17004922 0.6018152 0.592736 -0.013148882 0.020183787 -0.1400342 0.6122613 0.5994555 -0.3738906 -0.29496142 0.03699457 0.23852995 0.41049564 0.54010344 -0.4480462 -0.36812037 -0.34529424 -0.189004 0.43358174 0.3649754 -0.4812261 0.47799817 0.3198557 -0.20777209 0.46672603 0.066790834 0.033247218 0.41429195 0.03684079 0.084020354 -0.15459092 0.08721495 -0.15240489 -0.09882772 -0.03767523 0.20479691 0.32821634 0.280548 0.3401355 0.37717152 0.38410282 0.38773566 0.37717533 -0.45412323 -0.5025337 0.41830823 0.4000135 0.37578678 0.39458513 0.41455567 0.3675534 0.39124697 0.25495374 0.3787864 0.33445254 0.5156219 0.47878635 0.34039453 0.3844