# vtk DataFile Version 2.0
Really cool data
ASCII
DATASET POLYDATA
POINTS 12591 float
6.3680944 0.94895774 -18.079079
6.363195 0.90248215 -17.54071
6.2950883 1.0100933 -16.962334
6.380168 1.8628029 -20.169735
6.2094674 1.7885231 -19.383646
6.094752 1.6494306 -18.333914
5.934912 1.7475843 -17.201244
5.9605827 1.8115474 -16.471283
6.1613483 1.8059343 -15.8813095
6.275983 2.8058627 -20.147184
6.108723 2.6350698 -19.466532
5.9167123 2.7517202 -18.551662
5.83267 2.521689 -17.435717
5.790303 2.5175605 -16.527039
6.0861197 2.5203464 -15.767718
6.431277 2.9207413 -20.679043
6.148187 3.2093983 -19.382305
5.9963164 3.3293767 -18.411722
5.974072 3.3991585 -17.314377
5.9422383 3.26459 -16.518755
6.0976624 3.1475286 -15.94322
6.25939 3.7729123 -19.109348
6.2663383 3.863099 -18.530746
6.2753525 3.8344321 -17.661152
6.227688 3.734506 -16.57691
7.052416 0.23905051 -18.372316
7.201892 -0.16628832 -17.657606
7.11662 0.16163698 -16.5954
7.0180955 0.7405064 -20.146637
7.162927 0.4578479 -19.885345
6.6777515 0.66447604 -18.411419
6.788664 0.3630496 -17.559322
6.5219393 0.8915521 -16.553087
6.7956743 1.0135846 -15.772064
6.9973817 1.793143 -21.258308
6.506316 1.6326188 -20.388079
6.5032263 1.4659269 -19.54919
6.4719963 1.4897691 -15.627017
6.814462 1.7801279 -15.197481
7.17355 2.6045039 -21.789358
6.7724943 2.6109352 -21.155205
6.4782076 2.6620054 -20.713768
6.3905687 2.6808784 -15.447697
6.734276 2.3835473 -15.200981
6.9055943 3.3980422 -21.070045
6.576896 3.3582065 -20.43436
6.523537 3.2521908 -15.6111355
6.738835 3.085407 -15.370638
7.1320834 3.8539677 -20.910141
6.8641953 3.904983 -20.190466
6.7007227 4.1035566 -19.345934
6.637413 4.1842003 -18.58295
6.567899 4.0396914 -17.61464
6.620911 3.9339986 -16.535505
6.70678 3.8032207 -16.100803
8.474423 -5.078279 -11.909988
8.413458 -5.349252 -11.256763
8.436328 -5.4129806 -10.799466
8.430436 -4.8977165 -11.175235
8.42651 -4.970278 -10.777588
8.424059 -3.2151446 -27.471933
8.203529 -2.8161938 -26.30119
8.249218 -2.1967964 -27.891956
7.9091496 -2.168721 -27.143248
7.951384 -2.318117 -26.342678
8.073096 -2.3160505 -25.950317
8.354183 -1.8293717 -25.210613
8.246344 -1.3838958 -28.060108
7.7042637 -1.4094095 -27.250591
7.5810966 -1.3989636 -26.562567
7.8271317 -1.3380083 -25.732721
7.944418 -0.63012326 -17.49765
8.192424 -0.8141159 -16.933563
8.126 -0.61165106 -28.019377
7.805258 -0.5261797 -27.394257
7.556555 -0.7764713 -26.609625
7.6486845 -0.53779566 -25.976233
8.079212 0.03568551 -20.319061
7.9818482 -0.27685732 -19.329704
7.556228 -0.29156625 -18.387259
7.6040964 -0.4117209 -17.44385
7.7207623 -0.33774817 -16.842705
8.286774 -0.41279662 -15.895016
7.840626 0.41985187 -27.315643
7.6139073 0.59262246 -26.56507
7.660108 0.672963 -25.813244
8.0783205 0.2119575 -24.729046
8.335729 0.6057296 -23.805557
7.684983 0.7840866 -21.331272
7.3316307 0.45188928 -19.918716
7.76668 0.36880445 -16.076244
7.990808 1.2034304 -27.113533
7.9065266 1.3929431 -26.49909
8.101002 1.708383 -25.595476
8.433559 1.8336003 -24.496569
7.965062 1.3841554 -22.190907
7.367236 1.4979783 -15.086863
8.298304 1.8733014 -26.988874
8.194125 1.9511323 -26.65806
8.286753 2.4536989 -25.543446
7.6794643 2.4903378 -22.061165
7.3635883 2.4227834 -15.054019
8.389008 3.0860732 -25.689459
7.5912676 3.1899934 -21.82883
7.259737 3.3730052 -15.559673
7.2639136 2.9400792 -15.212649
7.626164 3.941141 -21.084545
7.7186866 4.299106 -20.309603
7.6203084 4.3817363 -19.348616
7.2602243 4.3559666 -18.326937
7.293803 4.2583723 -17.648634
7.439586 3.9736636 -16.643318
7.1776443 3.7795126 -16.010834
8.435931 5.97743 -32.823906
8.412656 5.6745243 -32.442703
8.368145 5.67205 -31.982042
8.351797 6.185446 -32.47792
8.358853 6.504607 -31.458052
8.436934 6.6093364 -31.045464
8.250917 7.6391597 -32.470486
8.181147 7.7218966 -31.605192
8.3712845 7.66596 -31.047918
8.24421 8.437962 -32.413383
8.227335 8.445285 -31.66257
8.351901 8.949824 -32.360577
8.353003 8.9302635 -31.698278
9.319091 -5.8343935 -13.101564
8.98802 -5.924262 -12.196289
8.821266 -6.0596633 -11.420799
8.879179 -6.0979195 -10.700747
8.987489 -5.8679643 -10.143899
9.112942 -5.5443897 -13.069806
8.744565 -5.453334 -12.207255
8.537019 -5.6172724 -11.533038
8.601041 -5.4273806 -10.371125
8.912244 -5.366105 -9.9913645
9.152533 -4.2174726 -28.138023
9.020912 -4.3304696 -27.433846
8.960359 -4.087293 -26.665152
9.256766 -4.1835046 -26.103209
9.377381 -4.2049923 -15.083246
9.203394 -4.3713717 -14.346331
8.845682 -4.3880677 -13.383707
8.636224 -4.558816 -12.317877
8.6247635 -4.4066067 -11.7844
8.560973 -4.6850486 -10.624548
8.92059 -4.731136 -10.018178
9.03389 -3.5794659 -28.40994
8.645817 -3.5784514 -27.560223
8.515045 -3.3956451 -26.701384
8.764474 -3.2514224 -25.88905
9.207846 -3.0086079 -15.811865
9.256581 -3.4601436 -15.392705
8.94529 -3.3001208 -14.444517
8.741528 -3.5061076 -13.323069
8.751429 -3.5791895 -12.329269
8.7493925 -3.795524 -11.710245
9.14491 -3.823133 -10.357049
9.253588 -3.8960857 -10.124421
8.86213 -2.6677134 -28.183393
8.393906 -2.4680953 -25.927813
8.72835 -2.0826018 -24.95679
9.285143 -1.7757779 -16.802134
9.004278 -2.6773212 -15.095628
8.935481 -2.5552616 -14.905806
8.872808 -2.421845 -13.293365
8.953428 -2.6356118 -12.533914
9.045598 -2.9458117 -11.840379
9.382687 -0.7986491 -30.916784
8.599742 -1.4190092 -24.714203
8.691617 -0.84085053 -18.488703
8.634247 -1.2046864 -17.05796
8.654873 -1.1747266 -16.479435
8.607121 -1.1473747 -15.8300085
8.968955 -1.6282688 -14.488222
9.1598 -1.8811616 -13.998115
9.431969 -0.28727984 -31.39282
9.315285 -0.7051259 -30.572428
8.708221 -0.4798422 -28.467272
9.078171 -0.2673785 -23.310837
9.222909 -0.5415684 -22.503605
8.796508 -0.08589026 -21.852226
8.506213 0.123753786 -20.63
8.569847 -0.29562443 -19.54683
9.447501 0.107392184 -31.86236
9.351707 0.22561468 -31.146442
9.258419 0.105701335 -30.401854
8.667576 0.3778532 -28.458847
8.580233 0.2985204 -22.65028
8.65419 0.20887029 -15.380038
9.4919 0.93151206 -13.735721
8.748384 1.2083527 -28.186062
8.484114 1.7043198 -27.453978
8.774417 2.3113956 -27.11228
8.453989 2.6575315 -26.580904
8.627443 2.780333 -24.589016
7.948466 2.402351 -15.217193
9.154871 3.3552113 -27.205471
8.667296 3.4204938 -26.466528
8.601469 3.536231 -25.507936
8.733993 3.1925194 -24.06006
8.618383 3.2741997 -16.560331
8.109916 3.1473427 -15.782852
8.751284 5.102463 -32.55602
9.008898 4.809386 -31.47365
9.259582 4.8639116 -30.81522
9.286134 4.3268156 -26.983337
9.020109 4.2654066 -25.96884
9.327335 4.107265 -23.955635
8.948164 3.942112 -21.823395
8.299892 4.2446303 -20.43331
8.512723 4.371889 -19.507933
8.073314 3.9548905 -17.735891
8.204117 3.734307 -17.01512
8.747416 5.7206964 -33.05365
8.561146 5.3772902 -32.63835
8.534988 5.69871 -31.43849
8.855679 5.675051 -30.884457
9.230211 6.1050906 -29.947517
9.431726 5.147489 -26.448736
9.403759 5.1184416 -25.270739
8.857526 6.2575173 -33.213352
8.544548 6.396678 -32.717136
8.613168 6.388555 -30.74706
8.779598 7.643263 -33.23057
9.007145 7.3804502 -29.972038
8.667921 8.428285 -33.061718
8.731593 8.447442 -30.692318
9.124661 8.37835 -30.234617
8.909707 9.032186 -32.948612
8.598688 9.226372 -32.28089
8.678657 9.267007 -31.509094
8.962301 9.138971 -30.78039
9.031747 9.6616 -32.249737
9.166332 9.766686 -31.27209
9.79055 -6.524364 -11.340346
9.912165 -5.8896866 -13.856415
9.688368 -5.985474 -13.363319
9.64426 -6.2845964 -12.277358
9.345806 -6.41897 -11.362257
9.334745 -6.3590536 -10.568168
9.549324 -5.892305 -9.906789
9.779768 -4.822821 -28.084084
9.659151 -4.910741 -27.621191
9.899563 -4.911532 -26.656693
9.986386 -4.686029 -26.081768
10.0357 -5.122247 -14.984261
9.627691 -5.199307 -14.272604
9.560141 -5.661695 -13.651502
9.514468 -5.3938503 -9.604679
9.952072 -4.936803 -9.3992605
9.789566 -4.0691905 -28.788013
9.475608 -4.4700747 -28.279266
9.334616 -4.6178293 -27.820877
9.399142 -4.541065 -26.583782
9.623943 -4.406824 -26.015255
9.961961 -4.137201 -16.028769
9.814267 -4.3596754 -15.663349
9.346677 -4.6008754 -9.667783
9.843063 -4.633223 -9.431707
9.597151 -3.4050043 -28.88825
9.659217 -3.7880857 -25.473722
9.828055 -2.902898 -24.917162
9.811989 -3.3250234 -16.324913
9.548771 -3.8444388 -9.840729
9.844914 -2.220091 -29.2609
9.5275545 -2.2154856 -24.681871
10.195826 -1.8709855 -20.236591
10.095444 -1.7851413 -19.59005
9.338611 -1.7566545 -16.762917
9.439811 -2.4468243 -11.871777
9.655116 -2.9230897 -10.8898115
10.466493 -2.5267155 -3.8252077
9.950722 -0.770872 -31.994963
9.671404 -1.0742533 -31.087374
9.843936 -1.395077 -30.283678
9.56946 -1.2121906 -24.067411
9.65588 -0.7877081 -22.130024
9.689456 -0.9391083 -21.381878
9.763869 -1.3596144 -20.351662
9.761724 -1.3461196 -19.47711
9.881137 -1.2532072 -18.911308
9.538594 -1.4948905 -13.497935
9.351533 -2.1477575 -12.433476
9.912613 -2.2388813 -11.715421
10.33326 -1.2633592 -3.3482065
10.415991 -1.2932357 -2.3581645
10.049005 -0.041267842 -32.870274
9.878523 -0.2848129 -32.320988
9.685254 -0.7247158 -31.711864
10.455702 -0.872673 -3.9629261
10.410024 -0.6767228 -3.5065584
10.4299135 -0.60620236 -2.738554
10.028942 0.69036996 -32.957516
9.653725 0.4589699 -32.35582
9.48561 0.3273087 -31.852512
9.597212 0.5958628 -13.479025
9.715186 0.78572834 -12.700531
10.131318 0.73921967 -12.050661
9.629207 1.1280899 -32.11389
9.671321 1.23176 -31.769548
9.691437 1.0538335 -30.54284
9.652348 1.7219177 -13.6261835
9.901532 1.6288965 -12.461147
10.172237 1.3273503 -11.920474
10.273902 2.0469198 -32.384407
10.156453 1.9478985 -31.06296
9.74391 2.0929866 -28.294992
8.753806 2.5598505 -16.054922
9.876463 1.9705105 -14.456536
9.836138 1.9969921 -13.610147
10.139881 2.033083 -12.4987545
10.186518 1.799592 -12.158925
10.487015 3.0817897 0.5787949
9.771351 4.261272 -32.71695
9.912656 4.0606995 -31.152004
10.07026 3.7937872 -28.830952
9.861021 3.6961844 -28.379734
9.497775 3.096829 -27.552376
9.351403 3.1829948 -17.633684
8.679828 2.9344745 -16.520245
10.4760275 3.5446434 0.49194166
9.783307 5.0667357 -33.66974
9.428983 4.9353614 -30.591585
9.772193 4.290012 -27.863892
9.478794 4.366703 -24.337078
9.845147 4.429139 -21.627605
9.587105 4.3616495 -19.359694
[...]
POINT_DATA 12591
SCALARS features_00 float 1
LOOKUP_TABLE default
0.39005932 0.4111216 0.47693622 0.4908596 0.4882158 0.48746336 0.6065568 0.7158746 0.7635813 0.5281368 0.5383573 0.5884333 0.70465803 0.80361545 0.81591964 0.5222111 0.55895907 0.61276007 0.72147334 0.8070481 0.8244633 0.5816557 0.6158862 0.6823782 0.7857635 0.28794366 0.25866413 0.32358935 0.3620468 0.3148821 0.3423059 0.32884908 0.48120642 0.59921867 0.47753876 0.47693712 0.4550876 0.73121 0.78320503 0.5138938 0.5075824 0.51413953 0.8153001 0.8075528 0.5290065 0.53406876 0.8174479 0.8112937 0.5337773 0.5470823 0.57111394 0.60668314 0.6851976 0.776706 0.797967 0.6253662 0.7068552 0.7441559 0.6746727 0.70860445 0.54082316 0.4955362 0.47866333 0.511659 0.4949289 0.4756467 0.4310718 0.42393947 0.50160897 0.5122999 0.47890115 0.16188955 0.14911242 0.4044376 0.45484245 0.5028527 0.47951043 0.15174162 0.17920098 0.21941775 0.21366183 0.2298739 0.19607498 0.3783793 0.38039744 0.3641282 0.32460207 0.1374925 0.29197183 0.29708385 0.3369202 0.28975046 0.2806855 0.26455906 0.26230815 0.31740358 0.7413219 0.2246981 0.23077089 0.22552635 0.4989745 0.79198676 0.20556816 0.5133347 0.78314704 0.79345465 0.5149269 0.5253152 0.5519425 0.60581374 0.6630225 0.7170337 0.7732356 0.48885366 0.4994957 0.5016545 0.5136849 0.50782627 0.48052907 0.5955837 0.61104167 0.5653883 0.61344755 0.6176863 0.59463704 0.5935714 0.47871956 0.6108588 0.71427405 0.7869446 0.78391504 0.4810721 0.6064715 0.69280475 0.75994104 0.74216485 0.5961064 0.6067264 0.5773835 0.55802727 0.27106825 0.33319652 0.43925378 0.5510428 0.582127 0.68791425 0.69463754 0.53538924 0.5631363 0.5354343 0.49108762 0.2010701 0.2509399 0.32610327 0.4016072 0.46612456 0.5277064 0.59988433 0.6076064 0.46192497 0.46937948 0.38926506 0.0027881563 0.2469598 0.25825945 0.33344197 0.3552316 0.42141297 0.4208519 0.3531544 0.06750541 0.058809534 0.09488927 0.09005089 0.2126749 0.28532922 0.44640622 0.38445324 0.2957945 0.0011055432 -0.057900168 -0.00078766793 0.09305039 0.10344879 0.45941442 0.41895443 0.3444454 0.26627925 -0.016388997 0.2101992 0.4738806 0.23231268 0.21510929 0.17314598 0.19162112 0.21423955 0.75220245 0.119855 0.18100761 0.2041698 0.15669984 0.4442621 0.6928254 0.4794829 0.44279635 0.3697515 0.15794301 0.21180347 0.17968348 0.33326313 0.46042654 0.45971447 0.50309503 0.49864686 0.45066035 0.47766992 0.4791894 0.42348355 0.35596415 0.22984418 0.25323534 0.4387653 0.49812585 0.43973827 0.49141502 0.42382905 0.55643964 0.5213968 0.4400919 0.549512 0.578748 0.56381625 0.5089661 0.53932524 0.5059923 0.64411724 0.3404301 0.42696276 0.55907893 0.70118713 0.7885145 0.7429162 0.65812016 0.6580594 0.63786685 0.5897019 0.21610515 0.31266883 0.39079523 0.6925002 0.62550795 0.581239 0.6197844 0.632355 0.60901177 0.5666873 0.20043784 0.22167912 0.65628886 0.6248497 0.50384736 0.48510963 0.33666682 0.17276776 0.5818676 0.23159194 0.25077695 0.033134047 0.017462898 0.0045356005 0.33417776 0.42044187 0.5852443 0.4903509 0.4298231 0.34914994 0.11240977 -0.030590385 0.0054779276 0.02158383 0.015760945 -0.0035133827 0.2245929 0.28899446 0.2677598 0.51574045 0.5976494 0.5074477 0.49239844 0.46396065 0.42204782 0.45527142 0.52700984 0.4906859 0.47630644 0.45616573 0.4193862 0.51845646 0.5551361 0.44875297 0.42642415 0.3163883 0.54258597 0.5866781 0.59941614 0.3852272 0.26813477 0.06220915 0.46280518 0.37951255 0.517769 0.567507 0.58936244 0.6190972 0.42675307 0.27060455 -0.1595475 -0.032008443 0.081997514 0.15678719 0.42747784 0.5705681 0.29984722 0.33483434 0.026303127 0.21763773 0.07534905 0.22340865 0.12041065 0.29310596 0.28803962 0.08834305 0.2726192 0.2668756 0.3374029 0.29080153 0.28452843 0.30681485 0.29828936 0.2011405 0.36632308 0.29801232 0.29956475 0.36195484 0.43971807 0.39832118 0.4765067 0.4600746 0.40544525 0.43268052 0.5074996 0.46910143 0.43624598 0.36798024 0.69792783 0.68682444 0.3140645 0.37421688 0.40618724 0.6488236 0.7080313 0.7038306 0.68318665 0.6557138 0.59705967 0.17488128 0.17828482 0.5827742 0.6635489 0.5363203 0.470945 0.1139537 0.16395332 0.59257454 0.6338685 0.6969055 0.70995015 0.5108905 0.295639 0.022219969 0.60797226 0.6407366 0.7033814 0.70604086 0.43743524 0.12564567 0.2092719 0.040472258 -0.034484316 -0.072192274 0.26898748 0.3822653 0.54295087 0.514564 0.58052886 0.5686376 0.6505313 0.6899878 0.51625687 0.43909377 -0.017779276 0.0635109 0.18643616 0.4295326 0.61740714 0.6998389 0.51743805 0.13568278 0.31922147 0.361955 0.40855587 0.5560564 0.6531434 0.46451962 0.5275542 0.29307282 0.37807575 0.4471711 0.5927639 0.46530497 0.5936676 0.6955191 0.6912414 0.32366648 0.13295445 -0.2759582 0.067685656 0.45948496 0.5469825 0.57178736 0.5413716 0.65394104 0.72141445 0.28019062 -0.17627087 -0.04198164 -0.11395919 0.24996993 0.41178715 0.4949788 0.23499317 0.33934185 0.60912716 0.646137 0.7116363 0.1656721 0.0066988543 0.11863282 0.08171011 0.21577314 0.25216413 0.42634612 0.4899087 0.6030922 0.6460836 0.15452047 -0.00010301918 0.17761938 0.14324322 0.14660525 0.20744412 0.23716894 0.30717352 0.42979878 0.14476962 0.15811267 0.16201422 0.08303935 0.28262252 0.34306327 0.45075536 0.52664185 0.66927326 0.1382172 0.19447063 0.005405523 -0.040853694 0.2148127 0.2299504 0.28843987 0.2295949 0.09966661 0.31600088 0.50766337 0.5643797 0.7253325 0.6864549 0.15551992 0.119787574 0.5011434 0.5485975 0.73628676 0.12775925 0.263208 0.34363812 0.2764787 0.33643702 0.36191 0.42634803 0.46143615 0.4690655 0.43876347 0.45493013 0.4901436 0.50854754 0.55457 0.6372197 0.5870986 0.65708745 0.711038 0.6144738 0.6529739 0.711298 0.7373296 0.70685756 0.73353064 0.7427054 0.3720069 0.41081864 0.54542464 0.4420801 0.5037856 0.5684068 0.64194596 0.6020404 0.47744888 0.52972674 0.5858569 0.6761645 0.6926341 0.67855364 0.50710905 0.55331737 0.6187999 0.6945616 0.69736683 0.67682064 0.6066096 0.65008825 0.6645892 0.33053303 0.40730327 0.49580505 0.52617145 0.6955742 0.68081236 0.6583636 0.17026725 0.1636534 0.13267225 0.25243402 0.22822383 0.50704134 0.7424438 0.63646233 0.58885676 0.119091675 0.13906425 0.39912525 0.6825197 0.6483796 0.4528152 0.04322111 0.6140491 0.68432635 0.702788 0.68482274 0.46595633 0.39724228 0.00011094473 0.33654407 0.54363483 0.57669526 0.27244687 0.49647173 -0.113543704 -0.22665201 -0.12303993 0.24693778 0.3383189 0.42264068 0.6396288 0.64357877 0.46083885 0.44931212 -0.02714257 0.060312405 0.057240605 0.14228982 0.15793546 0.28172326 0.69509846 0.34913874 0.19960444 0.2038479 0.6934396 0.24962568 0.46164948 0.13825588 0.17237839 0.15523235 0.17592208 0.15966631 0.5594413 0.041831747 0.060225584 0.22251248 0.23721781 0.7368419 0.74166954 0.7288072 0.23582545 0.20869197 -0.20208612 0.53906405 0.5486153 0.09914976 0.068887666 0.15203837 0.25511017 0.7400398 0.2535689 0.23538932 0.15988384 0.10299903 -0.3325909 -0.22787118 0.074299246 0.30511707 0.4932186 0.17507984 0.18172422 0.7158637 0.25802603 0.1950236 0.0931278 -0.16676922 0.06708616 0.20042844 0.36886156 0.18281034 0.6296504 0.31352884 0.26238915 0.094861165 0.20843142 0.29000777 0.37597227 0.39097565 0.16108194 0.16614051 0.13338591 0.5359448 0.6504526 0.57880396 0.5011117 0.2932155 0.3546601 0.39041075 0.39172828 0.19208708 0.55873 0.7541673 0.70950603 0.6657683 0.5514636 0.47032708 0.0782748 0.10782573 -0.14129178 0.041963235 0.117836446 0.06028651 -0.041867495 0.2614229 0.26388475 0.3404132 0.37278968 0.36780465 0.34995562 0.5778328 0.59239817 0.7913534 0.7583917 0.64704406 0.6278963 0.48816863 0.027610525 0.102845736 0.0069186315 0.06050694 0.06789783 0.20508324 -0.0744279 0.13369435 0.23582472 0.316656 0.3485055 0.35641462 0.18285812 0.56838703 0.5968513 0.8143695 0.77107024 0.6903411 0.5921873 0.19113699 0.44060513 0.47316638 0.4107985 0.12133125 0.24791738 0.34127522 0.28273037 0.3453185 0.3388844 0.35541463 0.51386833 0.57214946 0.6067869 0.7570058 0.6618438 0.2535699 0.39341596 0.3391383 0.58850867 0.62205064 0.6024345 0.57749856 0.31441835 0.34246615 0.31606042 0.1874335 0.35678294 0.35499126 0.40871596 0.48793012 0.66488385 0.6932725 0.6829802 0.628688 0.19265926 0.32517818 0.42293325 0.58874595 0.3929239 0.4104098 0.4292328 0.47784802 0.5143006 0.5110155 0.6975568 0.6854089 0.4083051 0.40173584 0.36702412 0.64226604 0.39865935 0.38999322 0.35206747 0.66218483 0.392825 0.38020146 0.3504128 0.29148075 0.34707424 0.54713815 0.7227526 0.68760014 0.32209992 0.32517368 0.33513135 0.27682278 0.63197136 0.69499576 0.7412777 0.73781264 0.21448389 0.7185538 0.7423763 0.73955417 0.31947914 0.30342692 0.23235025 0.3711673 0.43469873 0.6352105 0.59768176 0.46797514 0.5203886 0.6345523 0.5867487 0.5086553 0.5806318 0.58737737 0.57961655 0.61686087 0.4401152 0.47986543 0.2571575 0.23768939 0.2123373 0.41183168 0.4880012 0.51334083 0.67929554 0.659347 0.6487747 0.45515266 0.4234383 0.47066134 0.2606641 0.23180282 0.11791928 0.062688656 -0.020504296 -0.0052412823 0.51337826 0.7374115 0.6728171 0.625385 0.5715223 0.35596108 0.335191 0.25887454 0.043393765 0.67709917 0.6661302 0.15893054 0.17013824 0.16328973 -0.15161148 0.48076123 0.5744426 0.64457786 0.65047115 0.5830835 -0.15436845 -0.17605466 -0.21064988 0.5829088 0.38643196 -0.32011423 0.5761563 0.340886 0.29207042 0.032736134 0.06901367 0.59387684 0.2809229 0.30127513 0.16681513 0.6193466 0.18059143 0.24983203 0.13658391 0.19028792 0.1827158 0.42858902 0.4280975 0.08697248 0.048478458 0.64846355 0.69569504 0.6864655 0.23256116 0.21755292 0.4857927 0.45698136 0.07193125 0.69601756 0.25663403 -0.17207801 0.09746154 0.15382951 0.68430436 0.23370662 -0.13635555 0.39203823 0.31130874 0.1639225 0.61546165 0.58207554 0.5229924 0.40092632 0.28108582 0.065370515 -0.114001326 -0.062080115 0.08435605 0.37297478 0.12764132 0.5304174 0.6535302 0.6498139 -0.044984274 0.1547142 0.38481748 0.36148322 -0.12497182 -0.024817139 0.5348257 0.6974335 0.24446507 0.110569626 0.104156435 0.21422333 0.33454555 -0.08151917 -0.039499827 -0.12495476 0.5688189 0.5823605 0.7600311 0.05323624 -0.037678286 0.06287679 -0.067520455 0.01986646 0.28193924 0.19048244 0.23732007 0.30462873 0.32525232 0.34717476 0.33564165 0.3360882 0.074218124 0.6038002 0.7721201 0.46969151 0.41768456 0.1403735 0.1493966 0.101734444 0.040692158 -0.008669864 0.20999694 0.2625783 0.2929429 0.23282847 0.09444584 0.2439269 0.29684854 0.32991338 0.32824993 0.30334768 0.10468717 0.23682596 0.6151891 0.61183065 0.73528737 0.67888784 0.5893376 0.42176908 0.25808012 0.17519924 0.22556965 0.31373292 0.41335887 0.4947491 0.27354455 0.2751584 0.22563784 0.13680148 0.43032232 0.37345344 0.473032 0.41474116 0.6276898 0.6161561 0.45376942 0.36079156 0.41183218 0.3880147 0.09424559 0.4087158 0.41675436 0.40383494 0.43245795 0.42349946 0.45011884 0.646141 0.6666435 0.6561029 0.58271337 0.30541188 0.39781457 0.40819263 0.37344265 0.036534205 0.62407976 0.38103327 0.30618274 0.37850237 0.3388196 0.11831969 -0.11376398 0.6269753 0.29877985 0.1137491 0.6505946 0.23279741 0.005571902 0.70080626 0.6781798 0.11211747 0.64303565 0.73768675 0.70346916 0.20928317 0.17880076 0.08332025 0.2929015 0.28478336 0.31070316 0.3155567 0.43149695 0.30272913 0.3006072 0.4820811 0.37904355 0.46456537 0.48164016 0.50477505 0.5489982 0.36329395 0.4672141 0.26327932 0.23522735 0.4101235 0.45615253 0.6393564 0.63697267 0.6206777 0.58790165 0.5622556 0.27393615 0.2661296 0.0031972723 -0.0015521273 0.23686376 0.49319082 0.45504275 0.57566154 0.4988973 0.48718816 0.5390457 0.5958466 0.5348742 0.55005133 0.5166068 0.27620906 -0.366665 0.43680412 0.48969793 0.44417116 0.45259282 0.49381727 0.46234173 0.15444358 0.50996804 0.35017484 0.387475 0.117577225 0.3845908 0.4282761 0.43853194 0.44219744 0.6350601 0.37844872 -0.028898746 0.029515378 0.17246093 0.60641986 0.5577259 0.43002227 0.49790448 0.4418953 -0.30096674 -0.09093911 0.5039346 0.52179444 0.38505396 -0.08027829 0.18558274 0.48338342 -0.091692984 0.43090606 -0.1926301 0.11604667 0.17943853 0.34510526 0.006722562 0.043178603 0.2074255 0.20626816 0.3550062 0.62942827 0.21195197 0.2585718 0.63867116 0.19163316 -0.094621494 0.12071411 0.59555465 0.36842626 0.09202021 -0.27756032 0.18161736 0.114798784 0.111346684 0.575319 0.54813766 0.47789747 -0.18353362 0.0927276 0.036188446 0.4267642 0.60412717 -0.007008299 0.008929819 -0.12923826 0.53015965 0.53642046 0.6120063 0.6354972 -0.3006556 0.33643132 0.3554687 -0.017728336 0.55046695 0.55662763 0.6530659 -0.38609082 -0.38447315 -0.03905782 0.36250135 0.35076684 0.34326175 -0.01133935 0.0023604594 0.5740157 0.5708227 0.68840873 0.6858143 0.101939626 -0.33695775 -0.0563903 0.008929641 0.024537371 0.6006154 0.6324547 0.589427 0.4004103 0.2802819 0.16951305 0.11601929 0.056218833 0.25842652 0.1451738 0.21277009 0.1731824 0.004490332 0.039454423 0.26671672 0.6113057 0.54350317 0.48372698 0.36746043 0.38654014 0.37711638 0.344405 0.17357579 0.19080542 0.46524698 0.55054384 0.44018045 0.3529034 -0.13581365 0.3442194 0.2958674 -0.10306462 0.4182964 0.34906042 0.39159325 0.371804 0.34701774 0.2929595 0.36750415 0.27521977 0.18944013 0.55622053 0.57118547 0.56287026 0.5035479 0.11090445 0.2874357 0.22419685 0.33390898 0.31396085 0.1429847 0.5713231 0.058463372 0.5951577 0.0075235665 0.60654074 0.61099863 0.05693871 0.053537413 0.6851915 0.23573688 0.24218762 0.21168666 0.25388294 0.30089477 0.2877163 0.36470133 0.28813672 0.42788708 0.40129045 0.3830499 0.40309852 0.43336433 0.5384309 0.4586484 0.3269338 0.60177904 0.60069084 0.5669425 0.62973297 0.6291598 0.58040106 0.50907224 0.6653354 0.6506976 0.5858445 0.5061662 0.44513106 0.65335053 0.6405005 0.598343 0.48974735 0.6208695 0.6086496 0.3669474 0.13445875 0.75424486 0.7499621 0.69957197 0.65080047 0.6660894 0.6437609 0.25100884 0.41553363 0.37217748 0.10453129 -0.14168069 0.17136589 0.34112978 0.7101753 0.66121066 0.61657286 0.5580872 0.6565273 0.66356146 0.6438211 0.5995857 0.539232 0.4298157 0.21140009 0.22023986 0.25410986 -0.33589977 0.37042055 0.3649314 0.64271826 0.6400943 0.5777125 0.49050596 0.52404445 0.5351549 0.57812816 0.5281136 0.5993112 0.4677466 0.08828212 0.3455586 0.59926796 0.5382123 0.5062411 0.5125972 0.54887277 0.0848597 0.23783009 0.57053787 0.49584502 0.43891808 0.48425773 0.10298419 0.09051112 0.4946592 0.46798036 0.5676924 0.48069245 0.3279622 0.3650794 0.045589946 0.38449377 0.40544873 0.1258588 -0.1907948 -0.051877066 -0.005110204 -0.1899406 -0.08777052 0.14690022 0.17503294 -0.02500166 -0.007829875 -0.057434164 0.12150257 -0.03780505 0.42137814 0.15795285 0.05826877 0.3365512 0.5205429 0.011347495 -0.11634116 0.12748793 0.27126858 0.3872327 0.26755098 -0.0450698 0.12860033 0.108618714 0.37103045 0.5491097 0.50616246 0.38359326 0.3958512 0.54416937 -0.10663124 0.011150301 -0.1246934 -0.10718484 0.4867328 0.57728255 -0.49288064 -0.51117736 0.12196006 -0.0888163 0.52231616 0.583505 0.52990115 -0.4509017 -0.056758553 -0.031690385 0.5486125 0.6128714 0.6094917 0.025649447 0.5566897 0.5630035 0.5460658 0.4746672 0.29193816 -0.12838902 0.5573095 0.48227727 0.33511677 0.3922649 0.28288925 0.2673047 0.38835162 0.3279741 0.007961184 0.0044424236 0.035391524 -0.19540174 -0.11130728 -0.15535548 -6.404519e-05 0.5136124 0.42761356 0.43780386 0.43352395 0.27863547 0.34286895 0.33127514 0.29787382 0.26021603 0.2428076 0.23613457 0.24223928 0.3127196 0.2767144 0.27926046 0.28562132 0.35528266 0.29954073 0.26401785 0.08486903 -0.17213325 -0.12747549 -0.12703529 -0.11209985 0.2947558 0.27249512 0.39828694 0.32478735 0.36602533 0.34036916 0.40690327 0.41587955 0.38799196 -0.15802176 0.49693838 0.41811496 0.41523418 0.41688788 0.43230784 -0.07048204 0.2591942 0.08889096 0.20696759 0.21542038 0.24837446 0.2500504 0.3261526 0.3649844 0.3412874 0.5178484 0.15069179 0.5941452 0.62051797 0.43739402 0.56618965 0.6466181 0.66513324 0.69133174 0.7181479 0.6957167 0.6977 0.74882996 0.76095414 0.6149327 0.56419575 0.45670217 0.40695947 0.66512585 0.64983964 0.392636 0.3550731 0.64514625 0.31993437 0.5670322 0.20086545 0.23743163 0.82153726 0.80417323 0.78210413 0.7072851 0.6459718 0.62866855 0.073234856 -0.0050528347 0.25515568 0.77888805 0.78775406 0.6008405 0.5928271 0.605912 0.46259993 0.61706185 0.6179497 0.56571233 0.49990696 0.051724568 0.07230143 0.21398301 0.7038739 0.6052927 0.6132809 0.43378925 0.23419112 0.65245575 0.6010797 0.13349985 0.1581761 0.14084435 0.6579559 0.63269675 0.11681059 0.121369705 0.6057873 0.53309715 0.31765947 0.28432137 0.034098726 0.30513707 0.4017862 0.08903089 0.23080602 -0.23782046 0.23122883 0.24964888 0.30963138 0.22957245 0.25697386 0.22718027 0.09205209 -0.31873864 -0.112482086 0.007715985 -0.016189203 0.20238772 0.10723671 -0.5448694 -0.082041666 0.07853879 0.1062327 0.4371748 -0.45227754 -0.27038252 0.19250831 0.12532571 0.09739493 0.244995 -0.05625284 0.18504785 0.24459907 -0.15788388 -0.14630017 0.23315467 0.24592572 0.32744378 0.39471608 -0.19015421 -0.21196789 0.10795846 0.2807541 0.3386594 0.43593985 -0.18131614 0.02930743 -0.3489335 0.26757416 0.3527011 0.4605752 0.42477706 -0.18432194 0.4082163 0.47104782 0.5266529 0.47481662 -0.21911827 0.49327236 0.37130105 -0.26046488 0.4396497 0.5127643 0.28105712 0.33651364 0.35731173 0.14007244 0.1801193 0.12702957 -0.21510403 0.35237896 0.43885154 0.49046898 0.5009898 0.44071203 0.21515276 0.28153026 0.29644048 0.2470206 0.18137635 0.19415039 0.2666493 0.10166597 0.17455295 0.26709628 0.18023223 0.2483505 0.2833597 0.28125384 0.21297935 0.25714993 0.28204298 0.35701376 0.36011702 -0.17791665 0.29406804 0.34571072 0.40566754 0.34892088 0.01879277 0.33680183 0.35842443 0.3853899 0.40881002 0.38815174 0.29117528 -0.22191718 -0.20918423 0.27025253 0.36989462 0.31709424 -0.13099693 -0.19232756 0.25812232 0.090031035 0.16600847 0.18814611 0.24538629 0.25008324 0.39176267 0.5070318 0.33571392 0.5799071 0.6160739 0.6157011 0.6347295 0.664938 0.7261851 0.69876266 0.761783 0.77669907 0.76190174 0.547042 0.5319836 0.41948542 0.3400995 0.63217247 0.290972 0.29552025 0.28676265 0.5608345 0.59451723 0.26504552 0.27941653 0.36756945 0.20248261 0.80805063 0.8214655 0.8489063 0.81279874 0.73817176 -0.03680511 -0.000619784 0.7937282 0.62729 0.6234863 0.4988373 0.54540694 0.53187454 0.32433486 0.20620567 -0.17325978 0.20351124 0.7350231 0.6210815 0.61090577 0.338317 -0.2445624 -0.15569878 -0.13799602 0.6698282 0.6779177 0.60019004 0.17135923 0.087063625 0.6634123 0.10627304 0.052045718 0.05256329 0.6534981 0.6401293 0.14750326 0.034119226 -0.019690579 0.1456052 0.5824909 0.5059772 -0.21136944 0.017350312 0.0733224 0.15339723 -0.078261465 -0.3522799 -0.3679071 0.14209782 0.21653178 0.2085285 -0.5038013 -0.011542708 0.18161227 0.19830808 0.60431373 0.60355365 0.5721555 0.39970803 0.0021753144 -0.6608621 0.024497837 0.11294387 0.0792026 0.50337243 0.55844426 0.4935651 -0.31751728 0.054163653 0.04715279 0.4222846 0.34489858 -0.07984625 0.33295155 0.05507162 0.20023528 0.22170186 -0.11170473 -0.14098614 0.3187827 0.03578227 0.21541813 0.062354244 -0.19934502 0.12531647 -0.05636991 0.1596229 0.23725829 -0.35410333 -0.4735511 -0.1814025 -0.11013766 0.019445997 0.16425186 0.096225955 0.164441 0.3949734 0.26222023 0.035939522 0.20174482 0.40335 0.109395914 0.03386218 -0.004596453 0.3104133 0.3539002 0.3176642 0.11597127 0.08834797 0.17023396 -0.22698979 -0.23034029 -0.051969726 -0.01806898 0.40550113 0.45811707 0.52509195 0.51107603 0.4363162 0.2042024 0.24363291 0.27091512 0.17611045 0.07391487 0.13701989 0.20740798 0.17946485 0.06854485 0.036645308 -0.055962577 0.5357677 0.5302014 0.19978198 0.20797598 0.09926761 0.19916934 0.2220059 0.19088483 -0.060102522 0.2784253 0.31479913 0.19105107 0.30227894 0.3182832 0.34340343 -0.0045776665 0.12929222 0.17749986 0.2969889 0.24453916 -0.018706024 0.088796034 -0.008254945 0.0064407624 0.12622258 0.14763121 0.3083213 0.24448141 0.32471958 0.33344102 0.42097265 0.48198795 0.5258157 0.5273864 0.5636746 0.56243753 0.5712462 0.6395681 0.7253041 0.6835431 0.7313869 0.76379323 0.75244606 0.24941604 0.2505014 0.42298377 0.23197214 0.264428 0.27594456 0.3155844 0.28701708 0.2875144 0.25815982 0.21771507 0.13207924 0.7718258 0.74537265 0.721019 0.6609103 0.12026357 0.30218202 0.73996854 0.7354834 0.5877691 0.57721335 0.61530113 0.4236384 0.4431213 0.37876374 0.