# vtk DataFile Version 2.0
Really cool data
ASCII
DATASET POLYDATA
POINTS 13036 float
-27.540876 -9.039973 16.360058
-27.553541 -8.57048 15.850722
-27.5742 -8.594261 16.304462
-27.527643 -8.586465 16.922955
-27.533684 -7.882911 16.491053
-27.505232 -7.8217993 17.079298
-27.532595 -7.5299945 18.85196
-27.69179 -6.108127 22.526943
-27.6025 -6.0860205 23.042665
-27.660599 -5.5653653 21.984222
-27.74797 -5.446829 22.51051
-27.678318 -5.4195466 23.036646
-27.650103 -4.9558015 22.715454
-27.642242 -4.945341 22.967619
-27.807163 1.2187649 28.934317
-27.896175 1.0939293 29.599566
-27.827297 1.1102718 30.085249
-27.980776 1.6260072 28.917168
-28.126858 1.6470975 29.529404
-27.978872 1.6154084 30.203182
-27.681343 1.6674169 30.712456
-27.892344 2.268487 28.822096
-28.112661 2.2238407 29.525799
-27.968176 2.205599 30.200544
-27.696215 2.194008 30.689426
-27.813272 2.7880073 29.595612
-27.683437 2.9185133 30.05169
-27.517162 4.8771152 24.00409
-27.589523 12.86225 23.718332
-27.5952 12.886463 24.335262
-27.606075 13.411017 23.694845
-27.619215 13.408 24.312952
-27.533066 14.033846 23.81268
-27.081352 -9.992211 15.725464
-27.09249 -10.111861 16.360226
-27.052475 -9.903002 17.025768
-26.655321 -9.903273 18.721113
-26.703732 -9.995833 19.831032
-27.01426 -9.361791 15.071072
-27.339222 -9.36451 15.563355
-27.40914 -9.5389805 16.379585
-27.305836 -9.171872 17.165215
-27.225716 -8.8195915 18.541954
-26.853884 -9.365283 19.538956
-26.714752 -9.496292 20.323595
-26.664087 -9.063992 21.156517
-27.095049 -8.545134 14.935289
-27.409723 -8.547878 15.44624
-27.430012 -8.539712 17.376123
-27.428839 -8.264146 18.669159
-27.408367 -8.15453 19.131765
-27.216145 -8.178105 20.060799
-26.68983 -8.476762 21.822184
-26.738356 -7.924474 22.318409
-27.02159 -7.6316805 15.050145
-27.315691 -7.694756 15.624442
-27.374996 -7.510683 16.509512
-27.438456 -7.4941063 17.670958
-27.482067 -7.7537093 18.722359
-27.396402 -7.541526 19.50758
-27.16497 -7.7053943 20.680414
-26.871338 -7.4813066 21.380592
-27.28286 -7.1669574 22.572996
-27.013102 -7.2178087 23.40819
-26.850035 -7.153055 23.836424
-26.734007 -6.994936 15.110726
-26.958021 -6.7928696 15.660863
-27.111916 -6.7561812 16.421198
-27.103918 -6.7526464 17.710257
-27.269579 -6.9170375 18.685144
-27.19541 -6.822241 19.50908
-27.362324 -6.5219617 21.60032
-27.49122 -6.595568 22.535393
-27.380219 -6.411184 23.333387
-26.835073 -6.618059 24.007488
-26.664846 -6.1127 16.095999
-26.78385 -6.2303753 16.437653
-26.719599 -6.2332325 17.215654
-26.787544 -6.2288413 19.466108
-27.495264 -5.327677 21.598074
-27.410711 -5.5222692 23.466896
-27.09922 -5.6058607 23.876652
-26.82007 -4.9493837 21.022745
-27.363321 -4.872821 21.748264
-27.519684 -4.6687794 22.381285
-27.226564 -4.615762 23.2425
-26.875793 -5.071327 23.845709
-26.811314 -4.325682 21.632952
-27.007616 -4.173805 22.490072
-27.193329 -4.3418016 22.93956
-27.488644 0.94385153 28.830788
-27.354673 0.67048293 29.514015
-27.370165 0.8783008 30.340014
-27.166561 1.0021268 30.817682
-27.003387 1.7046564 27.727774
-27.606567 1.3876915 28.489487
-27.654182 1.2988875 30.616642
-27.403755 1.5591478 30.895908
-26.815744 2.9855642 23.151016
-26.950766 2.9306822 23.61257
-27.031857 2.9388537 24.224485
-26.749153 2.9533625 25.050644
-26.896818 2.1148531 27.30856
-27.424124 2.5396583 28.34206
-27.345774 2.2261841 30.975342
-26.999998 3.6459653 23.059202
-27.236301 3.6546972 23.500248
-27.312199 3.6971426 24.260275
-26.952442 3.9680097 25.127182
-26.755714 3.3838482 27.722519
-27.214064 3.2152684 28.582594
-27.295723 3.1678765 29.537708
-27.118685 3.1735537 30.295517
-26.89221 3.0318444 30.907375
-27.01152 4.6017327 22.953743
-27.393084 4.6357665 23.63469
-27.377785 4.574911 24.302912
-27.02332 4.593286 25.064629
-27.06412 5.2618647 23.064438
-27.351318 5.3973107 23.622192
-27.29612 5.590244 24.316097
-26.924067 5.2560215 25.121002
-26.635607 5.9786344 30.636032
-26.730898 5.8804703 31.426542
-26.626278 5.974421 32.6498
-26.86391 5.9542074 23.129278
-27.029446 6.110396 23.54274
-27.095102 6.1121154 24.187628
-26.73209 6.5000324 30.778297
-26.829933 6.354786 31.336432
-26.763756 6.568438 32.461792
-26.682953 6.642945 33.08371
-26.62061 7.1533012 30.770645
-26.747852 7.370646 31.559898
-26.710037 7.3692484 32.591076
-26.627428 7.3430047 33.17966
-26.597073 7.792551 31.236767
-26.911217 12.111953 23.121601
-27.114264 12.019043 23.573608
-27.2746 12.137576 24.378935
-26.759932 11.963313 25.139896
-27.125639 12.7477255 22.950792
-27.43299 12.593805 23.5454
-27.449982 12.550454 24.387354
-27.027424 12.623161 25.224562
-27.172323 13.56539 22.884418
-27.487848 13.563726 23.3884
-27.470354 13.67518 24.642477
-27.249126 13.443209 25.124954
-26.772476 13.520775 25.660166
-27.009134 14.342237 23.032246
-27.25486 14.352313 23.570303
-27.237267 14.345343 24.261375
-27.059809 14.0664215 25.122057
-26.786848 14.759118 23.07042
-26.96564 14.774058 23.518793
-26.983526 14.74191 24.148775
-26.77036 14.626721 24.834137
-25.598303 -15.046029 20.692078
-25.553371 -14.966253 21.024559
-25.6672 -14.426446 20.630938
-25.657969 -14.531944 21.117699
-25.67913 -13.758813 20.647692
-25.672161 -13.806776 21.208315
-26.408634 -10.521141 16.132236
-26.019144 -10.886505 19.148577
-26.194185 -10.873538 19.54814
-25.894548 -11.233587 20.411747
-26.461403 -9.9769125 15.115452
-26.455814 -10.34646 15.66646
-26.641693 -10.456422 16.225212
-25.89761 -10.267708 17.537693
-26.424448 -9.796599 18.123444
-26.438047 -10.468077 19.564314
-26.451752 -10.490271 20.458345
-26.148941 -10.552965 20.928825
-26.507166 -9.34837 14.722362
-26.513145 -9.1886425 21.3567
-26.055878 -9.664948 21.74038
-26.361506 -8.467745 14.368437
-26.575785 -8.544659 14.512831
-26.53526 -8.787356 21.37827
-26.579481 -8.250009 22.416872
-26.275484 -8.039507 23.493244
-26.2003 -7.8216 23.947195
-25.939724 -7.5972266 14.14957
-26.464476 -7.540768 14.569621
-26.428225 -7.3509245 24.040695
-25.751986 -7.021838 14.21818
-26.103033 -6.7049236 14.700573
-26.625889 -6.527436 15.384685
-26.265554 -6.4959207 24.534788
-25.825727 -6.183521 14.874399
-26.239582 -5.9641943 15.736738
-26.326635 -5.8695784 16.353485
-26.233912 -5.9351034 17.213713
-25.915161 -6.0069704 18.436768
-26.555231 -5.7251406 24.285152
-25.654514 -5.26398 24.927763
-26.47476 -4.6714163 21.075678
-26.70148 -4.494801 21.48217
-25.914938 -4.5412827 24.302633
-26.001844 -4.2170806 21.11106
-25.764538 -3.5938134 21.64357
-26.378254 -3.768138 22.573523
-26.234184 -3.8695948 23.303894
-25.706703 -4.018534 24.131691
-25.579145 -2.4192054 21.82902
-25.586641 -2.5193746 22.45147
-25.621916 -2.7780201 22.967243
-25.585358 -1.6910843 22.312235
-25.9417 0.04988855 27.325113
-26.047274 0.05344194 28.680126
-26.601362 0.39689294 29.83302
-26.20294 0.23128958 30.360659
-25.762629 0.89804673 25.979816
-26.099812 0.6331947 27.045744
-26.279953 0.6116767 27.49453
-26.501682 0.52612084 28.641136
-26.408829 1.0060647 31.165674
-25.942886 1.9789187 25.606964
-26.349724 1.5895063 26.671555
-26.290846 2.830934 22.923693
-26.66125 2.5284858 23.613653
-26.566517 2.4319487 24.330486
-26.464043 2.7365732 25.597973
-26.362331 2.928463 26.601185
-26.491877 3.8284447 22.650742
-26.515854 3.5024047 27.279322
-26.113966 4.338712 22.430851
-26.27686 4.490019 26.0221
-26.211088 4.0569 27.802853
-26.28024 4.052304 28.427658
-26.182089 4.429112 29.406464
-26.314034 5.2772026 32.63138
-26.43808 5.3176594 22.642836
-25.791447 5.718411 25.643747
-26.074686 5.5466137 29.954473
-26.520247 5.7395844 30.619171
-26.191505 5.778663 33.475136
-26.048204 6.1067853 33.86003
-26.55694 6.085301 23.019234
-26.646332 6.393661 23.501362
-26.273338 6.389148 24.688852
-26.124142 6.171014 25.149862
-26.237473 6.4573054 29.910797
-26.547453 6.9135838 30.291636
-26.465782 6.459218 33.568645
-26.030308 6.7323117 34.026093
-26.171635 6.6189075 23.719166
-26.124092 7.2394304 30.040724
-26.40692 7.6489124 30.645205
-26.421339 7.446 33.50088
-26.090641 7.3238816 33.933025
-26.305826 8.068629 30.858133
-26.273024 8.208622 31.488276
-26.301682 8.07934 32.391525
-26.155993 7.991909 33.32412
-25.955004 7.881725 33.791172
-26.215246 11.226285 23.633682
-26.176836 10.93499 24.580387
-26.030235 10.877457 25.216877
-25.820284 10.931101 26.389698
-26.486752 11.982472 22.92927
-26.463623 11.340744 24.780933
-26.218235 11.736568 25.56344
-26.008778 11.462162 26.568415
-25.830528 11.918937 27.0873
-26.052164 12.577581 22.282753
-26.559849 12.627787 22.629675
-26.552889 12.208447 25.524118
-26.178759 12.452138 26.454557
-26.276882 13.316635 22.319092
-26.652655 13.833109 22.520958
-26.67379 13.653208 25.74254
-26.239067 14.034321 22.388416
-26.446606 14.388872 22.691942
-26.613556 14.433301 25.22444
-26.561056 13.912438 25.699963
-26.33224 14.829213 23.02094
-26.428076 14.978343 23.564415
-26.409752 14.9487 24.336422
-24.691393 -16.639475 20.45785
-24.89225 -16.201078 19.924952
-24.997692 -16.256927 20.480524
-24.927374 -16.121365 21.106161
-24.720278 -15.130337 19.241283
-25.103184 -15.399394 19.735209
-25.383171 -15.449344 20.555986
-25.274208 -15.308145 21.316793
-24.925198 -15.241926 21.828053
-25.204384 -14.505461 19.713436
-25.506367 -14.391025 21.5218
-25.235489 -14.37234 21.870707
-25.474184 -13.671054 21.570765
-25.11247 -13.828251 21.9461
-25.016026 -12.045359 20.017965
-25.348776 -12.96206 21.276302
-25.759151 -10.623523 16.11222
-25.668852 -10.818048 18.57171
-25.2863 -11.726084 20.71579
-24.870085 -11.258387 21.85624
-24.6455 -10.985197 29.917221
-24.707567 -10.885364 30.45416
-25.556263 -9.990623 15.070912
-25.540003 -10.314683 15.4966
-25.637527 -10.503065 21.549574
-25.515188 -10.43961 21.700785
-24.960262 -10.333838 29.858416
-24.948986 -10.384858 30.40712
-24.765718 -10.356326 31.0019
-25.322521 -8.882656 14.192308
-25.647701 -9.490039 14.550548
-25.328003 -9.317787 22.550463
-25.247286 -8.926201 22.930838
-24.657053 -9.102324 27.710253
-24.821253 -9.227105 28.7331
-24.940283 -9.534002 29.30686
-24.977488 -9.553221 30.502703
-24.814032 -9.78095 30.956173
-25.36115 -8.384679 14.0205145
-25.299265 -7.9673553 24.408875
[...]
POINT_DATA 13036
SCALARS features_00 float 1
LOOKUP_TABLE default
0.5722467 0.6179607 0.55164933 0.45630962 0.49968874 0.42753 0.31088555 0.5660127 0.5573024 0.5945538 0.6085217 0.5953363 0.59120154 0.5864146 0.70687187 0.7452885 0.7327213 0.7456621 0.7816817 0.75898474 0.7219621 0.71883297 0.77614605 0.7573614 0.7270322 0.7175507 0.71107256 0.75962555 0.8006263 0.7512723 0.839047 0.7973738 0.8556373 0.7435169 0.65161574 0.5104542 0.2601899 0.25725812 0.7715884 0.7289746 0.61182725 0.43844932 0.2736662 0.24690616 0.23813827 0.20966592 0.7153899 0.6740309 0.39360094 0.2877997 0.26944903 0.22197816 0.22160752 0.28470176 0.63274765 0.60417736 0.50106895 0.38172787 0.30937412 0.2882946 0.19741873 0.23081261 0.39794934 0.39826912 0.38582045 0.5835867 0.5631983 0.5215932 0.42422882 0.33690146 0.31311676 0.44058922 0.4910395 0.50856185 0.42201704 0.53151023 0.5226103 0.48888895 0.30860084 0.5553388 0.5600885 0.5075924 0.37905645 0.53215486 0.55898476 0.5222641 0.4727404 0.42402333 0.47034276 0.5066329 0.6220006 0.6461767 0.6709565 0.6367837 0.44776303 0.62884766 0.7128705 0.67585945 0.5743613 0.54687744 0.50407875 0.39332703 0.37912938 0.5877565 0.67493206 0.6528778 0.6549591 0.60873014 0.5364585 0.28804642 0.43767273 0.5788711 0.634243 0.6263331 0.70804334 0.7495148 0.71308637 0.6253308 0.7229432 0.77813876 0.7656034 0.64261496 0.40885946 0.54523885 0.700665 0.6744396 0.7178594 0.7316781 0.47145152 0.54887295 0.70516384 0.74843824 0.50437605 0.6127701 0.73903716 0.7756635 0.595343 0.7419193 0.70767665 0.6453413 0.46835154 0.8156159 0.7843531 0.7032318 0.58599985 0.85526085 0.8556539 0.7851228 0.7164496 0.65784544 0.85980463 0.86809736 0.8404636 0.7634524 0.8485305 0.8623352 0.8526505 0.8033401 0.71164954 0.68975455 0.6250634 0.6349381 0.52964306 0.5495118 0.6453589 0.26994735 0.28131366 0.29429471 0.7372297 0.7037009 0.6589887 0.37786204 0.29920343 0.26779422 0.26896882 0.2765682 0.74210715 0.21788949 0.22735037 0.6707071 0.69284415 0.20645286 0.26592892 0.2795801 0.25821823 0.61431074 0.6161285 0.31912136 0.6031189 0.5794513 0.5594921 0.32713753 0.57384336 0.5380249 0.5126278 0.4599766 0.2908987 0.4087336 0.20628549 0.32043678 0.40861237 0.23858225 0.21944273 0.20613335 0.32981166 0.27674225 0.17277408 0.16405296 0.1289048 0.11464558 0.16793819 0.2382872 0.30374205 0.51328915 0.4285681 0.12145822 0.24092817 0.29375163 0.406761 0.4958386 0.099099115 0.18530239 0.5357746 0.47459716 0.37252653 0.24093424 0.20417503 0.60893965 0.2068769 0.53074825 0.29260206 0.09787073 0.12097013 -0.054847986 0.61732405 0.5720605 0.36806768 0.17407587 0.37101865 0.68406045 0.7231864 0.6092341 0.6542645 0.5668395 0.47372192 0.31795323 0.4244293 0.75550354 0.7689688 0.60187036 0.37885845 0.51191825 0.7876364 0.7862389 0.55960304 0.6286092 0.71538806 0.7606808 0.76701653 0.5767535 0.3868749 0.27021942 0.16122743 0.70715976 0.4243129 0.32606947 0.1874792 0.16743617 0.7313278 0.7816445 0.43420014 0.32488528 0.79066014 0.82874584 0.66338015 0.795174 0.81939536 0.7587687 0.69130003 0.814432 0.8318994 0.8391851 0.78858435 0.78144336 0.81274366 0.79143804 0.62232375 0.7615733 0.7707616 0.710294 0.6492249 0.6415461 0.60100454 0.5683018 0.5172206 0.48301125 0.3157297 0.38970858 0.5328617 0.2370061 0.3061729 0.13803649 0.69952154 0.7267106 0.58128154 0.5507746 0.24300149 0.21652648 0.6454567 0.6813925 0.6957634 0.5908426 0.6199354 0.18225534 0.21153264 0.295095 0.38100165 0.4821608 0.57986236 0.6242367 0.60692614 0.10786849 -0.0049759746 0.23866692 0.32143193 0.35963896 0.4438208 0.49873477 0.62265635 0.14065626 0.0659969 0.13231783 0.21758044 0.22974318 0.62332106 0.13683361 0.108627185 0.13753644 0.15620407 0.17122127 0.6246445 0.5836041 0.5229043 0.29808703 0.18543115 0.11659001 0.16293806 0.17010151 -0.020585224 0.116296425 0.101477124 0.13466972 0.10654056 0.11552511 0.11426902 0.16416338 0.13108158 0.057725184 0.062125664 0.18611835 0.25595033 0.28374854 0.06360118 0.1414653 0.05565313 0.19754586 0.29490042 0.32691175 0.21167207 0.11529575 -0.032939337 0.17527214 0.19633421 0.22064719 0.0952345 0.14942558 0.2967129 0.33731472 -0.024511248 -0.17915982 0.04972365 0.08007367 0.26649973 0.2695682 0.14687279 0.07892928 0.43903863 -0.029053742 0.43316734 0.0322365 0.2992067 -0.012087221 -0.12857571 0.43757057 0.5442422 0.16694655 0.3365932 -0.10573054 0.1565913 0.6635505 0.20942523 0.3594049 0.38152796 0.4037827 0.1911332 0.7309464 0.47636658 0.2748384 -0.07257647 0.042056903 0.27574474 0.75437474 -0.20957229 -0.00843801 0.64474607 0.676832 0.7322115 -0.036902044 0.015591875 -0.0062895045 -0.046349786 0.1716149 0.5412205 0.5885265 0.589712 0.5971712 0.42934445 0.397759 0.0940014 0.108075075 0.1726941 0.2563854 0.11882688 0.10945774 0.20455435 0.31333297 0.35694635 0.68288887 0.10003063 0.23581302 0.33198538 0.365977 0.7292223 0.3496462 0.37012154 0.38183942 0.7320846 0.7294801 0.758209 0.6202267 0.40959585 0.43687087 0.45268986 0.4309146 0.40217137 0.7658155 0.7430827 0.7517239 0.5010475 0.5032605 0.47477072 0.42117974 0.62057143 0.60720885 0.5602891 0.48180923 0.64690334 0.65990853 0.6511506 0.666618 0.71309066 0.74731636 0.745828 0.6488073 0.7082963 0.7438933 0.66023993 0.5357547 0.56998295 0.41170806 0.4576466 0.14288871 0.31348637 0.11888887 0.05611095 0.051029205 0.7103425 0.11149296 0.12862818 -0.03255171 0.52855563 0.6812843 0.7392709 0.75070035 0.46151155 0.39686072 0.30727726 0.017656505 0.34637964 0.38684314 0.50877273 0.70461583 0.68554604 0.48476875 0.0549374 0.23823935 0.25852662 0.58271754 0.598323 0.5599594 -0.036858067 0.62843704 0.61748445 0.19097637 0.16199346 0.6426412 0.12235677 0.0940181 0.6369774 0.62119055 0.58614045 0.348071 0.25396705 0.011683598 0.1265047 0.103917025 0.17608759 0.28776884 0.30991155 0.32427937 0.57656956 0.29157585 -0.13073337 0.085503206 0.082836896 0.097883984 0.15322584 0.2595809 0.30140018 0.30263376 0.002649054 0.098292485 0.07530049 0.070695005 0.06316601 0.0133962035 -0.007622093 0.05062722 0.12715973 0.2520446 0.050529096 -0.057829082 -0.020805791 0.07510372 0.12180437 0.32537794 0.21038398 0.12462432 -0.005890101 0.101224445 0.08049339 -0.08562222 0.004332632 0.07679783 0.3885336 0.29670662 0.19950826 0.036534674 0.13734628 -0.012208238 0.24908449 0.19514604 -0.037009828 0.17489648 0.11001094 -0.15634339 -0.15565924 0.015025396 -0.25482664 -0.03758452 0.3807258 0.14657454 0.124994084 0.5519055 0.14878175 0.10890082 -0.13495831 -0.36579955 -0.03540666 0.67501426 0.082134776 0.041764226 0.017968208 -0.2855162 -0.05421087 0.68819 -0.11664385 -0.15991482 -0.14442745 -0.1401239 -0.13153121 0.5455395 0.6548524 -0.19625446 0.35915416 0.22062616 0.30347687 0.56954277 0.48300332 0.3825883 0.6715667 0.39349124 0.38850927 0.6677736 0.65697336 0.6554918 0.5766483 0.36367634 0.3414857 0.6380842 0.59368205 0.59631366 0.40749812 0.39630264 0.34900355 0.4554023 0.45892054 0.61871076 0.6429267 0.6347597 0.5746783 0.660072 0.667789 0.64575595 0.63373506 0.66847485 0.6825875 0.50160754 0.5802238 0.53072584 0.428246 0.40444177 0.38445607 0.27308786 0.23405352 0.26920235 0.30582368 0.094637014 0.14164457 0.17344813 -0.07785081 0.062370047 0.65416646 0.7185755 -0.17692895 -0.13587022 0.34497756 0.40918016 0.58063126 0.66539806 0.75155926 0.760478 0.72782433 0.4493258 0.3514365 0.24049519 0.6885029 0.49013925 0.46603906 -0.20813346 0.54863656 0.52977073 0.595532 0.08291048 -0.061732717 0.057515927 0.63090247 0.044707134 0.09495571 0.2606718 0.2679389 0.62476385 0.62704027 0.21911252 -0.19911924 0.2483924 0.3040898 0.31165642 0.30099213 -0.30981314 0.3301852 0.3215961 0.07235193 -0.10069196 0.19217642 0.23220266 0.308833 0.2735356 0.20281285 0.066164315 0.11126558 0.15325986 0.2924381 0.4489248 0.37670344 0.32555738 0.06741749 0.08512904 0.0032763463 -0.03580506 0.06676821 0.13395855 0.17189229 0.48102236 0.42812216 -0.04997854 -0.08193295 0.51803595 0.44963658 0.2809103 -0.14861812 0.094188124 0.23327515 0.49846533 0.44640353 0.33071533 0.16445282 -0.12037883 0.20769338 0.25610238 -0.15070273 -0.15795648 -0.0709063 -0.2626404 0.11650996 0.26271567 0.31787124 0.36041048 -0.28827342 0.04840292 0.30149603 0.35569453 0.14459167 -0.21095665 0.15334825 0.15281554 0.5456721 0.14424396 0.15594035 -0.34167588 0.5147886 0.11612493 0.41671345 0.044182796 -0.02417012 0.28655654 -0.17254409 -0.1900032 0.13516316 0.19343486 -0.07011311 0.3499742 0.72580814 0.72800606 0.749524 0.0869409 0.38591 0.73174965 0.78567564 0.79854584 0.5561826 0.36641577 0.78278154 0.8304055 0.84221137 0.58825064 0.34053966 0.8650979 0.89375496 0.5319674 0.51274997 -0.0074545722 0.3053658 0.46381378 0.26603466 0.35695773 0.32640886 0.41531903 0.46113455 0.3726748 0.5065451 0.53392315 0.6527527 0.6794689 0.6659992 0.61424327 0.5886035 0.70218885 0.6781831 0.35084406 0.5152924 0.3437476 0.48592943 0.5213155 0.33869722 0.34009528 0.38125545 0.15866125 0.12650663 0.16645934 0.3719857 0.36706614 0.20231009 0.29934883 0.2973761 0.28968382 0.21494526 0.19283089 0.27800986 0.62960535 0.7331983 0.11537649 -0.21998245 -0.20561758 -0.07053971 0.2915349 0.50970006 0.7210388 0.68397236 0.4258552 0.052473806 -0.36129427 0.27576536 0.47682706 0.47411314 -0.39734158 -0.39663047 0.3854066 0.4858581 0.5454086 -0.068388276 0.004814105 0.15754968 0.5440082 0.24271312 0.24157785 0.5539988 -0.36368936 0.2690515 0.29654956 0.009407401 0.34622124 0.12445542 0.395285 0.44446158 0.5872613 0.28011316 0.25111595 0.26256073 0.46913108 0.61537343 0.64557856 0.36815387 0.03418726 0.19643298 0.44193876 0.5746982 0.62562096 0.4488635 -0.037250288 0.061186597 0.3034269 0.45217726 0.5009231 0.5140529 0.1399711 0.21241522 0.5031292 0.5056851 0.4694566 0.13837641 0.28178883 0.32981208 0.32663563 0.4870944 0.4206247 0.34950644 -0.19934268 0.36692372 0.35221803 0.046358276 0.3736996 0.38380665 0.09747891 0.12574968 0.18272749 0.28509545 0.31773126 0.11988073 0.21168956 0.17480633 0.09938912 0.1539333 0.30880955 0.2841633 0.32325605 0.021927396 0.092196904 0.23720363 0.35539985 0.36177838 0.0147311315 -0.3151387 0.3857137 0.42786413 0.44207072 0.37501705 0.29056776 0.22406706 0.04745467 -0.07334138 -0.29227975 -0.24961022 0.42595622 0.4274947 0.40333018 0.31388718 0.58363813 0.6233361 0.42993346 0.374644 0.0045183394 0.3846475 0.38478708 0.365164 0.25885138 0.32650942 0.6169817 0.6713966 0.7320068 0.72208357 0.527003 0.49167156 0.41657832 0.34836498 0.5609672 0.79602766 0.7914171 0.53685325 0.5217022 0.3090927 0.44487187 0.5642615 0.70274997 0.8654469 0.8485038 0.41746348 0.2111635 0.29691646 0.6420821 0.74131787 0.8924259 0.92609376 0.911065 0.40125132 -0.05567859 0.28155828 0.83005226 0.9183281 0.94346225 0.927713 0.100685254 0.2788219 0.38809842 0.45759773 0.50657004 0.6136515 0.5847347 0.52933085 0.68435156 0.71629316 0.69558334 0.62501496 0.21024069 0.19400108 0.117284805 0.24577783 0.36057803 0.20559445 0.25887388 0.29369846 -0.04531223 0.06583223 0.17577425 0.24286336 0.29450506 0.36121634 0.35798997 0.09663629 0.13185792 0.15592684 0.3435474 0.26603463 0.518347 0.5111187 0.31018984 0.485371 0.5908779 0.6049372 0.6310295 0.42470938 0.40697744 0.4517519 0.33629975 -0.49303222 0.50027215 0.14120275 0.3391791 0.46913382 0.3975094 0.13925035 -0.043182462 0.029327322 0.46659765 0.057074375 0.42523083 0.10059789 0.19016665 0.22374566 0.2735627 0.13539508 0.11744812 0.3092442 0.15162084 0.06442258 0.5509165 0.63945425 0.23684272 0.24006239 0.18912987 0.67257285 0.319759 0.3086043 0.64690226 0.3607359 0.40608215 0.4285056 0.54027814 0.4407284 0.16522895 0.2837932 0.46686763 0.46141344 0.24272853 0.44913456 0.37972265 0.3213321 0.053793065 0.35751572 0.3321622 0.07535506 0.2456592 0.04910678 0.17054926 -0.10731937 0.30983582 0.24812296 -0.109442845 -0.076362744 0.31191745 0.27744547 0.05024708 0.025562659 -0.15197322 0.20781717 0.398972 0.28746563 0.25816786 0.2568649 0.390066 0.58730346 0.47605592 0.37996575 0.36119807 0.34029573 0.7028173 0.51318145 0.53430367 0.25796115 0.24873558 0.2581644 0.7470826 0.509409 0.51719224 0.5215377 0.23301166 -0.22395748 0.3796576 0.81399465 0.4793554 0.4046723 -0.087525256 0.32426646 0.49396712 0.58705854 0.8355136 -0.016014978 0.2921048 0.601509 0.80313766 0.9140557 0.89999396 0.8758228 0.25424635 0.17714481 0.24380577 0.36652178 0.26148993 0.49914366 0.570715 0.5332823 0.63217 0.6873668 0.6788658 0.599512 0.20149562 0.25436848 0.051214285 -0.054967254 0.17728442 0.11243876 0.21708006 0.13843632 -0.104788706 -0.06480563 0.27391416 0.23502767 0.052202303 0.03989836 0.22906259 0.286136 0.29779232 0.31915244 0.27275118 0.33248335 0.32333392 0.48203614 0.5300122 0.5391607 0.525888 0.5193157 0.117533654 -0.027215432 0.2722031 0.45886335 0.5345098 0.5347425 0.5216055 0.52734 0.55852765 -0.019707523 0.14074846 0.39548853 0.46743608 0.49257377 0.49721736 0.5585698 -0.07156456 -0.4047693 0.41560367 0.38247564 0.15242964 0.15833923 0.08056444 0.23010164 0.30045477 0.39900762 0.5155244 0.54008996 -0.05512422 -0.5542203 0.26814732 -0.019990027 -0.03634715 0.08642039 0.21617255 0.29766852 0.4180444 0.02091059 0.24327901 0.02758231 -0.007686481 0.1166001 -0.21064325 0.22234747 0.026840499 0.25280142 0.08041932 0.2821005 0.07727714 0.5276674 0.5795997 0.18386188 0.65331197 0.2861629 0.6621516 0.3205596 0.41634342 0.37259853 0.17250143 0.33794516 0.16668539 0.109237865 0.30929372 0.20692545 0.016579859 0.23582715 0.04783739 0.27590364 0.2184931 0.28751254 0.25278878 -0.1129861 -0.1591871 0.18754496 0.26948938 0.23657417 -0.02937941 0.18528086 0.078111686 0.27128813 0.09688631 0.11777394 0.36865476 0.3797471 -0.31022197 0.17348626 0.26861423 0.4353212 0.45588773 0.13076012 0.6022357 0.48800206 0.23171127 0.17795207 0.63175094 0.4754517 0.43753645 0.47032183 0.22184287 0.2836678 0.108205885 0.30383822 0.6370511 0.4512185 0.40071297 0.32340145 -0.1033395 0.44034833 0.6439822 0.7273133 -0.014189896 0.45866466 0.5528616 0.6356122 0.83242494 0.784001 0.77454025 0.018421497 0.023213299 0.25693983 0.2581107 0.27176088 0.24760267 0.2876043 0.294015 0.47962564 0.4929393 0.5000218 0.38877136 0.59693193 0.61832386 0.6439384 0.18264443 0.2453848 0.28981218 0.06857349 0.12835048 0.25448692 0.26613596 0.19537616 0.11268921 0.28144884 0.079358034 -0.059377424 0.05668126 0.033675525 0.3512017 0.3199999 0.21257633 -0.045013055 -0.08526285 0.3551286 0.3216214 0.33694053 0.2289 0.50041676 0.5141124 0.27447054 0.28273422 0.16296703 0.36635935 0.49861467 0.5060097 0.50921714 0.5539136 0.14431505 0.15004292 0.16113359 0.24224465 0.6192602 0.6628095 0.05347795 0.22273484 0.19554192 0.17680287 0.6139988 0.6520983 0.045416057 0.014316134 0.21595067 0.5646281 0.6192134 0.19082838 0.08033015 0.44268978 0.22215098 0.13257569 0.17208819 0.0055284053 0.24319261 0.15249352 0.10269967 0.08268411 0.16728276 0.018442973 -0.017667236 0.011830088 0.33790633 0.090870395 0.5818697 0.17093001 0.55674404 0.25659645 0.28484946 0.095672734 0.26044157 0.1131618 0.32767516 0.43794775 0.454767 0.447334 0.13681726 0.15754357 0.32679087 0.46811396 0.50476754 0.4900712 0.45076278 0.19528836 0.4222716 0.51619506 0.5133086 0.48871046 0.2876014 0.19703701 -0.11590459 0.13698414 0.28777087 0.45508963 0.48327315 0.51062304 0.5218493 0.32152826 0.32244372 0.28001612 0.24673611 0.37569672 0.4272615 0.47782806 0.514862 0.3231898 0.32903707 0.088368475 0.30028465 0.37611282 0.41259658 0.30655694 0.30520636 0.0058694184 -0.031001568 -0.05700268 0.3039425 0.3393586 0.21429354 0.17021722 0.0331027 -0.008741766 0.29305136 0.068480246 0.1654225 -0.31279418 0.40588862 0.39733976 -0.4192417 0.12503341 0.39098644 0.34172258 0.13612668 -0.12044233 0.07584508 0.16003731 0.18994798 0.3368764 0.3420812 0.3041835 0.19356951 -0.029092414 -0.048879392 0.1851967 0.20642681 0.5635933 0.57385695 -0.010481526 0.23868024 0.4321761 0.4042421 0.55028635 0.651784 0.6498877 0.023486577 0.27393743 0.27025792 0.045537874 0.31695205 0.19214396 0.34401643 0.34926555 0.22755858 0.43331933 0.3014795 0.33798027 0.5484495 0.32331216 0.35076395 0.58077836 0.5284288 0.33842057 0.23587438 0.29804325 0.33260998 0.50080836 0.31747055 0.31435564 0.27121973 0.07664982 0.35482126 0.3139478 0.040974114 0.07120185 0.27979863 0.36333936 0.38658112 0.37383962 0.33137256 0.34520313 0.28037792 0.30032614 0.2567947 0.30329263 0.0854021 0.3484807 0.43363863 0.4286253 0.3490454 0.20967029 0.0909012 0.18311529 0.47918266 0.56671417 0.15756713 0.05873648 0.0073150974 0.10701772 0.12049311 0.70345104 0.10142389 0.0715447 0.15813364 0.7133137 0.19670632 0.15969174 0.26151812 0.22182639 0.67128766 0.2449009 0.31434104 0.5434877 0.27829838 0.261035 0.11389279 0.18606709 0.28479618 0.27049202 0.08470607 0.2964306 0.2633953 -0.045864522 0.2812113 0.23028731 0.268263 0.19596474 0.11492163 0.13453893 0.18429852 -0.0073916987 0.26781115 0.04184725 0.12440075 0.11474517 0.33695126 0.27636316 0.16062848 0.018969923 0.12130806 0.38673097 0.4185254 0.22134274 0.34420365 0.4004081 0.40402073 0.39952427 0.14842418 0.11914337 0.13012405 0.36637595 0.42436472 0.40319747 0.3734749 -0.10902582 0.120250165 0.10624733 0.40042853 0.008273326 0.055227898 -0.04809147 0.08771106 0.46492082 0.49139315 0.50243634 0.29083923 0.24571395 0.2182489 0.05014424 -0.04180092 0.078593664 0.5255325 0.51207906 0.2853957 0.309734 -0.19279471 -0.05412887 0.13291037 0.5201506 0.507941 0.24593316 -0.07226528 -0.30062488 -0.08291076 0.23067845 0.4007765 0.4739977 0.21822669 0.23735246 -0.20213674 -0.27139208 -0.17251408 -0.102175385 0.043364935 0.19679606 0.27827466 0.33816087 0.382069 0.2048356 0.12584928 -0.041787528 0.14015399 0.26894256 0.32748282 0.38144797 0.099197164 0.013712011 -0.08090145 0.0979204 0.21461233 0.3051849 0.3948964 0.02775582 -0.12838185 -0.09683926 0.03916508 0.09779011 0.0026418418 0.106902 -0.0986824 -0.06828972 -0.07574928 0.034984894 0.107966095 0.17041965 -0.34797865 -0.014741898 0.08227372 0.1365552 -0.056010395 0.13149375 0.3384847 0.3468415 0.012458805 0.23616147 0.09087418 0.1072126 0.3235505 0.28566173 0.19701612 0.22365782 0.3598314 0.3572699 0.2920681 0.3982394 0.3579558 0.35527173 0.37777346 0.45108306 0.6298777 0.59047556 0.48697042 0.28422892 0.3193663 0.39333272 0.42832235 0.40689087 0.5916013 0.6207932 0.34169686 0.2995819 0.77436864 0.49086007 0.15901767 0.24340528 0.2767773 0.34211248 0.52652365 0.54168797 0.5576531 0.3514139 0.3710795 0.33488125 0.3763658 0.36645594 0.4580086 0.508789 0.54348385 0.543743 0.54686916 0.35429353 0.33898944 0.37559146 0.51386195 0.5344217 0.46543965 0.5032391 0.2531197 0.30200833 0.2661631 0.38377795 0.2385686 0.09768024 0.17683607 -1.033023e-05 0.20577005 0.14639904 0.024306398 0.14139315 0.102081716 0.6140398 0.68522227 0.116516724 -0.006991173 0.0018946249 0.007258756 0.72022235 0.1593226 0.15150316 0.0015119242 0.17269483 0.06676892 0.70866215 0.21092278 0.20821905 0.19617438 0.19547558 0.70736235 0.22924843 0.18076873 0.33765748 0.27258655 0.09106003 0.6790875 0.27813348 0.28652477 0.341312 0.3361715 0.64344656 0.64622986 0.5930339 0.27899936 0.2935764 0.26176205 0.4656003 0.56574094 0.5359255 0.2795159 0.291983 0.27038175 0.22573097 0.1668051 0.22231418 0.24501146 0.19223106 -0.2747834 -0.16428691 0.094423816 0.29777893 0.23277259 0.27282727 -0.2685845 0.13391416 0.012019612 0.33959496 0.4279849 0.43774045 0.42580837 -0.15068416 0.08302495 0.41055804 0.3500198 -0.2761941 -0.14176895 0.29076982 0.2620842 -0.27091008 0.4559475 0.24417606 0.27684546 0.28840938 -0.4118783 -0.12762699 -0.08168924 0.45837772 0.22769716 0.27267677 -0.59024286 -0.1345078 -0.061777048 0.44825017 0.23527274 -0.6702801 -0.11145511 -0.07478925 0.43747488 0.404795 0.21440166 0.21696135 -0.57265866 0.37198648 0.2346912 0.27263576 0.2315088 0.44209313 0.29581773 0.3113415 0.21285187 0.42162496 0.4613635 0.30331254 0.3066655 0.25145844 0.17825925 0.33176428 0.44338232 0.2743787 0.24332023 0.1355668 -0.064571075 0.12347895 0.24033174 0.1858359 0.04219783 -0.0031830035 0.06396738 0.048926704 0.08324766 -0.29762816 -0.3456493 -0.20034014 -0.07360533 0.027717859 0.014758587 0.011155993 0.07853096 0.08239003 0.12576842 0.079563595 0.14566411 -0.3106821 -0.077433884 0.08891541 0.024128437 -0.13942286 0.11650689 0.034776047 -0.0917993 -0.028161613 -0.060900107 -0.024010234 0.20971961 0.1573