# vtk DataFile Version 2.0
Really cool data
ASCII
DATASET POLYDATA
POINTS 7152 float
22.386587 63.85081 14.939406
22.34489 63.6989 15.453714
22.362806 63.611553 16.528072
22.164177 63.82685 17.589588
22.186495 63.9829 18.065512
22.385714 64.29569 14.741755
22.176422 64.25313 15.720582
21.933239 64.39435 17.201128
22.101622 64.64549 18.10065
22.393147 65.00718 14.956611
21.949036 65.526726 16.478579
22.093393 65.15663 17.303648
22.245785 65.21993 18.380629
22.318203 66.159386 15.73641
22.177475 66.13205 16.441639
22.905754 63.07751 14.924803
22.813631 63.05137 15.2631035
22.904175 63.024277 16.180264
22.692781 63.253883 17.601355
22.82135 63.3285 18.077118
23.155691 63.64172 14.127021
22.672186 63.543716 14.738604
22.501154 63.35428 15.421422
22.369709 63.54206 17.753872
22.672039 63.563145 18.292385
22.936579 63.772984 18.778847
22.993546 64.36087 14.055978
22.597212 64.59319 14.510128
22.738853 64.59168 18.957039
23.131102 65.30972 14.039692
22.695658 65.44933 14.693151
22.48007 65.7189 18.463736
22.778025 65.31716 19.002357
22.644682 66.05307 15.074253
22.57546 66.48729 15.499335
22.408068 66.67772 16.127813
22.499647 66.272026 17.516787
22.67458 66.02163 18.404858
23.051977 65.998726 18.915722
23.069798 66.74527 15.121254
22.858942 66.92493 15.706773
22.736217 66.88638 16.089428
23.013308 66.88054 17.237804
24.264784 51.308727 -2.1124802
24.202093 51.157265 -1.4050008
24.305674 50.921097 -0.5475431
24.370186 50.9348 0.3443423
24.457743 50.06846 4.116263
24.34293 51.02609 7.5306473
24.067043 51.75139 -2.2246907
23.908289 51.660603 -1.475825
24.04638 51.57441 -0.50989544
24.278666 51.688046 0.31732035
24.183254 51.806957 6.996601
24.122465 51.649048 7.598137
24.229013 51.65924 8.164767
23.98431 52.38603 -2.2100654
23.825262 52.354733 -1.6564246
23.849335 52.447067 -1.0235202
24.209377 52.18213 0.065588385
24.249048 52.333298 6.9446197
24.07329 52.289684 7.6063337
24.112553 52.23656 8.044198
24.168987 52.984787 -2.2371187
24.091267 53.092476 -1.6321132
24.165268 53.01873 -0.7480452
24.48263 53.484425 1.8059697
24.416086 53.668278 2.649592
24.3786 53.735092 3.0998962
24.2694 52.999683 7.6848016
24.294481 52.919975 8.147981
24.409224 54.19975 2.6147993
24.401016 54.298264 3.237666
23.788969 63.16199 14.268711
23.58904 62.91404 14.713189
23.690254 62.696346 15.430652
23.654741 62.983402 17.387257
23.556898 63.142227 18.167961
23.446878 63.823566 13.941959
23.35475 63.432045 18.633715
23.54407 63.798676 18.9545
24.009539 64.56176 13.275977
23.527124 64.37489 13.648733
23.4997 64.75259 19.351185
24.21216 65.40483 13.193695
23.704844 65.612854 13.674013
23.642117 65.385086 19.35979
23.567177 66.244446 14.128407
23.591078 66.64593 14.385262
23.57946 66.4978 18.65473
23.631065 66.12957 19.024137
24.077024 67.59181 14.673228
23.576157 67.51785 15.455568
23.50585 67.473206 16.632252
23.457998 67.26907 17.201794
23.786306 66.70145 18.46196
24.168234 67.813156 14.866843
23.975048 67.90311 15.432872
24.140625 67.99523 16.275286
23.953398 67.68164 17.06185
25.131094 49.21696 3.0561388
25.081854 48.852627 3.726085
25.083263 48.7917 4.4432354
25.176233 48.881992 4.976137
25.281693 49.241463 5.959634
25.042494 50.347466 -0.876696
25.111486 50.400856 -0.6531962
24.912449 50.34175 0.15150736
24.990673 49.602104 2.9058678
24.733025 49.444454 3.65073
24.636644 49.551506 4.3814926
24.871782 49.546974 5.378701
25.26779 49.559177 6.178924
25.213308 50.25752 7.7699656
25.128475 50.311142 7.9295635
24.613398 51.08782 -2.1296513
24.575136 50.903633 -1.5769696
24.546877 50.669262 -0.40754646
24.80002 50.55483 0.867766
25.10233 50.365257 2.6053855
24.63879 50.297115 3.6222026
24.63184 50.69375 4.3793635
24.920635 50.381065 5.7312613
24.438362 51.119366 6.983074
24.700315 50.679073 7.6342993
24.8223 50.854015 8.210818
25.077112 51.096413 8.720447
24.71274 51.764523 -2.8232098
24.503471 51.420174 -2.464171
25.05742 51.605587 2.4197803
24.760172 51.336647 3.6681507
24.710083 50.873432 4.507868
24.964762 51.15837 5.0093465
24.464182 51.49359 8.492019
25.219934 52.308796 12.812295
24.596275 52.403492 -2.9000812
24.593426 52.287624 0.6416439
24.68161 52.95054 1.4897758
24.644701 52.714478 2.5526347
24.520796 52.988274 3.1988513
24.923693 52.538536 4.0998297
24.41728 52.475914 8.502819
25.046923 52.3182 8.96751
25.34947 52.74539 10.902288
25.069082 52.61792 11.921135
24.962238 52.597805 12.57137
25.025835 52.836918 13.3384075
25.226694 53.035038 13.793701
24.965622 53.31216 -2.8746307
24.567871 53.356976 -2.5191758
24.469961 53.634075 -1.5893269
24.640802 53.46843 -0.630792
24.86245 53.44267 0.6137723
24.541666 53.51665 1.7500844
24.494152 53.21832 2.0959258
24.535677 53.45724 3.4720092
24.954508 53.44005 4.6407413
24.834276 53.469547 6.565487
24.62793 53.42036 7.408625
24.517405 53.167904 8.090535
25.360031 53.603863 10.757965
24.832024 53.473236 11.819396
24.729399 53.51563 12.513911
24.854675 53.397724 13.307389
25.14505 53.35931 13.773984
25.135302 54.197067 -2.19644
24.956802 54.160187 -1.496293
24.999992 54.036247 -0.66169786
24.56685 54.254887 1.8293663
24.493835 54.525146 2.6307855
24.535381 54.492657 3.714105
24.699282 54.277733 4.0526276
25.001108 54.489014 5.59539
25.102753 54.417404 6.409245
25.089533 54.04845 8.101117
25.344355 54.33402 10.940955
25.228952 54.51147 11.508537
24.874735 54.060715 12.602131
25.154303 54.35096 13.086066
24.86372 55.022694 2.1150482
24.77565 55.04424 2.638153
24.644941 54.942123 3.1491714
25.106833 55.325306 4.402166
25.247414 55.777687 5.7010045
25.325796 55.468124 5.8942266
25.262737 54.838615 7.2536607
25.32184 54.77492 11.777969
25.320301 54.689766 12.85315
25.302656 56.788605 3.9112027
25.355963 56.661827 4.3327594
25.29874 56.421574 5.0710135
25.240797 57.992733 3.3256373
25.290415 57.586887 4.3724813
25.416615 58.879192 3.059989
25.22427 58.633934 3.4936106
25.183825 58.464745 4.238986
25.290207 59.2383 3.6442518
25.363794 59.437687 4.388015
25.416172 60.185604 3.811816
24.764963 63.194473 14.228414
24.563879 62.849525 14.725363
24.54019 62.885506 16.59722
24.558441 63.054703 17.142235
24.43671 63.27484 18.306475
24.21782 63.84277 13.62397
24.213266 63.44055 18.616217
24.385078 63.666348 18.870525
25.021173 64.39223 12.874634
24.504028 64.5571 19.189405
24.905998 65.558014 12.712128
24.368898 65.456314 19.21273
24.926664 66.63682 13.0805
24.43867 66.32092 13.695592
24.204502 65.84662 19.180227
24.628408 67.33293 13.943125
24.765612 67.31556 18.137316
24.647375 68.0015 14.676431
24.681915 68.29689 15.515978
24.6435 68.23849 16.180586
24.790457 67.944824 17.253057
24.948946 67.66532 17.778265
26.108795 48.066006 2.884613
25.837307 48.15252 4.6932006
25.963589 48.57983 2.131371
25.734377 48.71984 2.3044531
25.41728 48.554256 3.6466374
25.594387 48.544144 5.3358088
25.59458 48.91343 5.8967714
25.33859 50.241257 -0.55908626
25.3066 49.994953 0.9504383
25.63526 49.392807 1.9210942
25.761557 49.57216 7.2961087
25.312023 50.792454 -2.1100173
25.439043 50.48109 -1.4427325
25.512875 50.565586 8.456801
25.693098 51.00041 8.954156
25.51532 51.849636 -3.0588515
25.784212 51.749092 9.450613
26.13708 52.11905 10.968502
25.774948 52.105377 11.545287
25.716219 51.966415 12.5169325
25.65333 52.191353 13.2389765
25.535646 52.355377 -3.2652836
25.447721 52.515884 13.595692
25.819988 52.843952 14.158173
26.397873 54.082317 -5.465126
25.561079 53.36094 -3.3631103
25.665361 53.49895 14.208642
26.422394 54.70958 -5.60933
26.186483 54.75511 -4.195276
25.814774 54.202347 -3.2262394
25.493467 54.665688 -2.0593128
25.478283 54.568375 -0.19017173
25.387081 54.652386 1.3048854
26.07595 54.131294 9.540802
25.760267 54.322567 10.43573
25.528727 54.564693 13.628607
25.75932 54.297115 14.120922
26.35255 54.427513 14.895418
26.378233 55.538662 -5.097569
26.14603 55.767807 -4.4323773
25.962402 55.601982 -3.5479312
25.665846 54.94789 -1.553367
25.606226 55.228573 1.5388052
25.592165 55.73495 6.573937
25.834393 55.52706 7.3214736
25.921938 55.26605 7.9655666
25.66104 54.903603 11.616935
25.56693 54.93495 12.433211
25.95799 55.197113 13.429547
25.999628 54.978477 13.894471
26.217009 56.09545 -4.418733
26.126245 56.3526 -3.6840935
26.21651 56.163097 -2.9370935
25.408125 55.828568 3.0583389
25.591703 56.890503 3.7354493
25.540262 56.491444 5.40646
25.879787 56.1177 6.549688
26.337778 57.07403 2.0940776
25.656153 57.453545 5.1952653
25.680965 58.349625 2.651267
25.778736 58.610023 5.3177457
26.042955 57.963 5.7939787
26.291105 59.54479 2.367298
25.824856 59.503494 2.7681146
25.508116 59.877956 3.350995
25.514393 59.66561 4.6361723
25.71958 59.532566 5.147457
25.93273 60.38829 2.9593105
25.628067 60.38618 3.5214257
25.662228 60.447014 4.3215113
25.96306 60.450447 5.0704217
26.291468 60.115887 5.6970015
26.15123 60.983543 3.0700636
26.029722 61.08183 3.6718805
25.955341 60.9472 4.265474
26.246231 60.949703 4.972375
26.209682 63.22301 13.169326
25.718044 63.01771 13.90035
25.689627 62.793888 14.789977
24.954092 62.973473 17.151272
24.887321 63.226524 17.917906
26.118246 63.972443 12.554988
25.936163 63.596752 13.2836485
25.861599 63.49276 17.159952
24.869862 64.062126 18.961897
25.857895 64.75878 12.059012
25.51533 64.48138 12.488041
25.896633 65.41529 11.916166
26.131355 66.37518 12.155073
25.567144 66.41977 12.512296
25.8609 66.119095 18.623629
25.659056 67.11601 12.988233
25.335716 67.46064 13.7012205
25.286879 67.3497 18.015507
25.53471 67.769585 13.922954
25.437984 68.23775 14.793943
25.414295 68.33049 15.474587
25.418215 68.22984 16.423126
25.37166 67.91302 17.330183
27.380363 41.711296 5.8435473
27.355045 41.575043 6.420621
27.38372 41.595444 6.872831
27.358328 42.60792 5.5221853
27.248497 42.37153 6.44957
27.353886 42.161755 6.9915257
27.377016 43.226902 5.6312838
27.417528 43.055855 6.555967
26.60791 47.880486 2.2068422
26.519827 47.785805 2.8230622
26.752028 47.669052 3.52308
26.800383 47.757717 4.8792386
26.482449 48.202225 5.7294393
27.03883 47.872425 5.9317236
26.588041 48.771606 1.2696528
26.314713 48.501873 1.9151049
26.671179 49.326675 7.300548
26.816973 50.39303 -1.704878
26.971733 49.341553 0.9634168
[...]
POINT_DATA 7152
SCALARS features_00 float 1
LOOKUP_TABLE default
0.6008098 0.61106247 0.6617279 0.7265109 0.7623395 0.58554924 0.6193918 0.7239171 0.8066419 0.5630454 0.62981594 0.7530359 0.81942165 0.50935555 0.57498354 0.5925458 0.5973385 0.63511634 0.68620145 0.70163953 0.5709083 0.5976477 0.6091258 0.7208051 0.73248756 0.74940753 0.556328 0.56696117 0.8531088 0.5018525 0.51802963 0.775905 0.8192024 0.48474514 0.48564482 0.52099377 0.6578832 0.7338457 0.75178754 0.46209222 0.49168193 0.5114392 0.5789934 0.62701845 0.58060527 0.51180136 0.44113925 0.4003988 0.5185759 0.7057675 0.66904426 0.5805874 0.43149352 0.5083692 0.5682105 0.57681084 0.7312238 0.7135751 0.62863404 0.4272104 0.46316665 0.5386918 0.5628256 0.6335919 0.56765753 0.45852196 0.23036087 0.2538113 0.25667477 0.43923622 0.47906625 0.27161306 0.2678 0.5314351 0.5552647 0.5807843 0.59833044 0.6361766 0.5478696 0.69235027 0.7327112 0.4559415 0.5163705 0.84696966 0.43830472 0.45710766 0.79353476 0.44022515 0.43761033 0.6639472 0.7168534 0.4764939 0.49927935 0.5409554 0.56366915 0.6265724 0.5026494 0.52968526 0.5692762 0.56207067 0.3639515 0.4244979 0.4264117 0.38785654 0.31326315 0.42554086 0.40935504 0.37069353 0.34594387 0.42746598 0.44117135 0.3815207 0.3180234 0.41965777 0.43054357 0.5601114 0.5302354 0.4719826 0.30525732 0.27289522 0.3566146 0.3131414 0.32867467 0.46615946 0.47167882 0.4949825 0.49156398 0.64584935 0.6268922 0.133287 0.1947814 0.28138575 0.23038018 0.5646663 0.7054575 0.68661875 0.26555473 0.17621753 0.18088782 0.21206565 0.15812004 0.5596907 0.5593387 0.6782811 0.7586492 0.7540444 0.72497135 0.69682825 0.5281456 0.5401052 0.4341905 0.33236 0.18867218 0.2306098 0.21531038 0.24035156 0.17981984 0.24206215 0.326679 0.40945852 0.5687609 0.7449882 0.76718235 0.73826766 0.70588523 0.33198375 0.30791855 0.23423968 0.25675744 0.2760514 0.24313712 0.22539306 0.10883765 0.15187028 0.16846663 0.48989457 0.5551262 0.69448155 0.6493135 0.25663567 0.26819062 0.25923696 0.122120745 0.11188707 0.11896358 0.15174486 0.55380255 0.59097815 0.19125193 0.166433 0.12939388 0.36335206 0.32969543 0.4068519 0.43401343 0.4449631 0.4817424 0.5135839 0.5216882 0.39422107 0.4324303 0.46459547 0.45394158 0.56446826 0.44780594 0.6235877 0.6438794 0.37283522 0.7537513 0.4490067 0.7391204 0.42919472 0.41929954 0.7024383 0.4466712 0.5348468 0.51857555 0.5835677 0.5885553 0.5517096 0.53312874 0.26884878 0.35340738 0.2283566 0.2534848 0.39637607 0.3211819 0.28584477 0.35307464 0.16203323 0.18612894 0.3599875 0.44269368 0.39598474 0.41097513 0.39574033 0.5139768 0.33028352 0.37679893 0.569101 0.6287943 0.6484724 0.5233083 0.6669018 0.6409943 0.38044724 0.41821086 0.6632291 0.42649305 0.2876879 0.26673055 0.21863803 0.07767075 0.16338369 0.046609502 0.36952418 0.58848023 0.59889394 0.587685 0.43331194 0.4109615 0.3254217 0.13743122 0.109939806 0.119266205 0.10603583 0.10433077 0.47259095 0.53153634 0.4631115 0.4821814 0.44203663 0.4171036 0.30084142 0.18106002 0.21396017 0.13236837 0.09311481 0.049115792 0.2615524 0.31099457 0.42803884 0.31195685 0.30262238 0.38699353 0.4804548 0.5190544 0.48797017 0.4436249 0.505072 0.5362836 0.5035536 0.4613434 0.4627149 0.5126327 0.525124 0.47782665 0.19052564 0.23293464 0.22956002 0.4051187 0.4703061 0.35702354 0.25967717 0.32735044 0.63271356 0.44648924 0.3900475 0.5168579 0.50417423 0.46709272 0.5665077 0.4359285 0.44927824 0.5003678 0.4596303 0.5386701 0.5724343 0.5435983 0.5162228 0.481549 0.4955631 0.49814922 0.4422295 0.49112058 0.495316 0.4002245 0.46042794 0.16428968 0.21321845 0.23888502 0.25648963 0.23939684 0.16363223 0.09299405 0.18580073 0.26901 0.19893208 0.01255339 0.31163204 0.212148 0.079763465 0.20124891 0.25942096 0.06937514 0.4329068 0.48093992 0.5567874 0.5732122 0.22494891 0.15256466 -0.02317299 0.6107714 0.6659845 0.7272684 0.35157144 0.4056735 0.3260386 0.7128002 0.76911706 0.44772854 0.44584405 0.42260227 0.65825903 0.7071064 0.4599495 0.45283923 -0.019227061 0.09394443 0.1796647 0.42180234 0.5640529 0.45854008 0.46815827 0.47255966 0.3710368 0.033352904 -0.09123789 -0.19872858 0.034322217 0.07912836 0.08453831 0.16203706 0.32553405 0.3647369 0.45940012 0.4564796 0.4416919 0.3442915 -0.07035398 0.0058909208 0.030698325 0.18079004 0.3672562 0.20225227 0.19611733 0.061311997 0.16253756 0.42077428 0.22853643 0.20808873 0.1893203 0.3178445 0.38197437 0.4454689 0.20150325 0.16896626 0.42108533 0.39681488 0.39771545 0.41908666 0.4224223 0.37564236 0.28119794 0.07277636 0.067831084 0.28306693 0.39749676 0.318643 0.36934873 0.4682584 0.49020082 0.63044125 0.5326402 0.51406896 0.47474104 0.42886582 0.37266093 0.4440267 0.40652847 0.39481488 0.36334288 0.4626176 0.4656942 0.45686483 0.36438978 0.41643167 0.42713597 0.4668728 0.3466222 0.4115886 0.4687696 0.48861378 0.4892496 0.4514687 0.2788952 0.3108325 0.37712336 0.41579002 0.47087872 0.43868387 0.49571192 0.24913469 0.20326854 0.2805039 0.33128047 0.3693104 0.4178261 0.35651192 0.56230307 0.5623176 0.38814238 0.26650164 0.22094409 0.21792282 0.24962908 0.28710216 0.2188862 0.46552956 0.5240645 0.5197057 0.39448094 0.22080706 -0.05262278 0.0517971 0.15002283 0.732196 0.7476543 0.7377679 0.41795933 0.20267642 0.061372496 0.03616728 0.113298245 0.15387297 0.04242608 0.10006316 0.15912798 0.1532861 0.74965847 0.76854014 0.74854255 -0.108778775 -0.0605238 0.073771134 0.11720965 0.71435106 0.7600412 0.7403573 -0.08268961 -0.033894695 0.6773682 0.68411785 -0.05322876 0.11927633 0.21867657 0.42208982 0.42824322 0.410146 0.31251934 -0.07335196 0.4206008 0.43710643 0.3965552 0.21010646 -0.059247755 -0.08322635 -0.039229333 0.25628287 0.5053491 0.5811129 0.5965023 0.4160825 0.4024763 0.10769388 0.0750015 0.6732793 0.7300204 0.7891639 0.35714883 0.7280254 0.3828404 0.5972886 0.66611487 0.38653898 0.054349206 0.03268026 0.33655065 0.4137162 0.35089415 0.34947407 0.25918135 0.15976575 0.20022771 0.20043908 0.16166365 0.25093135 0.29067758 0.18030874 0.17178828 0.1553439 0.20823511 0.20499623 0.19907857 0.23092607 0.2893177 0.38144243 0.24771428 0.19952722 0.12885663 0.3299389 0.27149063 0.23648575 0.19201873 0.21317065 0.31113946 0.29089293 0.22555494 0.16253783 0.14799286 0.2594871 0.27828377 0.24793991 0.21689917 0.06935445 -0.039647788 0.013733774 0.04666911 0.37936005 0.3100025 0.22144756 0.08405559 0.051479418 0.111570306 0.037560202 0.15613934 0.32653224 0.3119893 0.27687383 0.39500043 0.36667567 0.46928555 0.49839875 0.52338505 0.50488317 0.467529 0.4152017 0.19569479 0.30251646 0.38994998 0.35872197 0.44679034 0.43225303 0.3843155 0.42192423 0.40267202 0.33192888 0.31877023 0.34110937 0.26243114 0.29126397 0.3103083 0.41002637 0.4123811 0.2721697 0.32770061 0.39215422 0.31489366 0.33411917 0.22746676 0.24659067 0.32478485 0.5306277 0.52487004 0.41510773 0.275983 0.33448076 0.3026892 0.4800993 0.53908503 0.14445822 0.13959992 0.6780125 0.64761055 0.40683013 0.11524454 0.10233469 0.6872284 0.7217572 0.7006211 0.63738894 0.2957955 0.26264837 0.17137536 0.21737897 0.3552707 0.12695476 0.6818762 0.70348173 0.7030234 0.63946927 0.30934972 0.2785008 0.17681682 0.035247393 0.04689634 0.6552886 0.70033693 0.6961068 0.6472982 0.25158417 0.02579673 -0.19036049 0.019704647 0.5750705 0.6108457 0.6546151 0.67236805 0.6505206 0.40464658 0.37591115 0.36713552 -0.16138771 -0.20787863 -0.15859844 -0.007219732 0.6143197 0.41201764 0.41638565 0.22469275 -0.16453026 -0.09508166 -0.038779184 0.37930962 0.40457317 -0.059865974 -0.15031654 -0.17409062 0.23130769 0.51319754 0.5881829 0.3535719 0.3890931 0.6558149 0.7286265 0.32471776 0.3494059 0.3143224 0.7943766 0.21479964 0.7362191 0.17487645 0.23749278 0.47707194 0.6482748 0.22189188 0.2926938 0.331617 0.29581243 0.25736517 0.41165447 0.2081662 0.13933694 0.45876306 0.4871388 0.19753484 0.22736032 0.2657346 0.4405793 0.22762533 0.35949296 0.043549284 0.20269722 -0.09739846 0.22935492 0.18122949 -0.07932973 -0.029964387 0.07677652 0.019845374 0.23842083 0.19397934 0.27272117 0.18574022 0.18727347 0.11207477 0.15032268 0.34649226 0.3380602 0.43384862 0.14142431 0.40532628 0.46006367 0.6112618 0.6497307 0.6230252 0.6049546 0.23111172 0.44224346 0.37420046 0.6021614 0.66177654 0.64876825 0.61036 0.46567333 0.43635124 0.07853706 0.141141 0.49853158 0.59537274 0.5974338 0.5661701 0.40762585 0.37804323 0.3006508 0.22461061 0.11410883 0.4476618 0.46317136 0.51113236 0.5283807 0.50772524 0.46449342 0.5121168 0.5148945 0.49164432 0.45960486 0.41612947 0.4448851 0.473569 0.4693824 0.43967474 0.41948116 0.40468416 0.35582793 0.26602155 0.2919809 0.25934383 0.1853883 0.22878778 0.2623762 0.10844278 0.23100841 0.2192755 0.44586903 0.3816475 0.22575878 0.107234426 0.46869302 0.43816704 0.16113374 0.36155617 0.15611386 0.1398406 0.574907 0.57862747 0.26204237 0.23088391 0.0025099963 0.20347065 0.11344077 0.53237337 0.5817291 0.543887 0.5000822 0.29010722 0.2839382 0.24631101 0.05968854 0.53530145 0.57611346 0.54780304 0.29943097 0.31650415 -0.07533225 -0.21574974 0.62548685 0.60672855 0.4887878 0.44372073 -0.07868676 -0.26814023 -0.27863908 0.6583558 0.64564073 0.6349149 0.45627236 0.3949129 0.3733322 0.35847253 -0.07994361 -0.64730597 -0.2309241 0.48764312 0.5993579 0.4292395 0.33468586 0.34938952 -0.16785589 -0.18440458 -0.31213087 -0.4889573 0.33616623 0.31834486 0.34406585 -0.2923708 0.29506385 0.33357367 0.43853116 0.5801155 0.28062308 0.45441598 0.72323763 0.18798602 0.16476825 0.10681332 0.1451089 0.27294222 0.32055008 0.1903863 0.18169841 0.40536183 0.11707287 0.08846437 0.47747356 0.14002302 0.18554264 0.43763125 0.0541922 -0.06978902 0.2950202 -0.011018865 0.005849734 0.49307245 0.609132 0.0019961372 0.1265405 -0.06738977 -0.021288617 0.0076435646 0.47977364 0.5623416 0.6421992 0.52119744 0.5501803 0.5450893 0.49943632 0.027658261 0.15269907 0.12402288 0.06934123 0.323284 0.4875364 0.50744903 0.6522313 0.47137642 0.4980666 0.5686246 0.53946865 0.5511075 0.22200124 0.2661499 0.22734663 0.29879764 0.3532544 0.3335243 0.60740405 0.4036252 0.4748575 0.54960483 0.27518696 0.2875306 0.30546305 0.35205543 0.37265152 0.25603873 0.17281517 0.4432188 0.39620602 0.414547 0.3462983 0.22820032 0.29452118 0.32384568 0.17384775 0.113056265 0.08676923 0.17786767 0.27022347 0.2763138 0.37929583 0.32303298 0.18854536 0.23028004 0.2912876 0.34020227 0.21904555 0.25276044 0.20279878 0.2413237 0.30748844 0.37991953 0.3890207 0.2366136 0.38060555 0.45260608 0.41787422 0.39855272 0.51580775 0.5284891 0.51218545 0.45329735 0.42492348 0.3835764 0.4658096 0.50357246 0.39978185 0.3527675 0.3056725 0.42124626 0.33158147 0.3282717 0.2786096 0.3075989 0.39120674 0.30064023 0.26435748 0.25500226 0.18846542 0.10034949 0.20858416 0.13464174 0.033862233 0.079119414 0.03947469 0.08384861 0.25344396 0.28692144 -0.10067338 0.23723465 0.24145946 0.04943568 0.14809594 0.082682006 0.038086273 -0.049258903 0.30162445 0.036967043 0.28173047 0.43589693 0.38054198 0.20857917 0.1947083 0.27271023 0.46111488 0.4665473 0.13641363 0.22696799 -0.059668675 0.5230735 0.53876936 0.50506043 0.45045358 0.117765084 0.23908086 0.5946857 0.6212155 0.52566445 0.4654128 0.41401082 0.26677054 0.2443642 0.6126847 0.6998099 0.6211326 0.51194984 0.55262965 0.5689266 0.62977886 0.5491181 0.43072978 -0.51035106 0.46900478 0.32804874 0.26607394 0.25725445 0.23539951 0.20185909 0.2193692 0.159882 0.2025773 0.12362161 0.09592599 0.13307515 0.3043179 0.199432 0.21062589 0.1790884 0.38711435 0.17679714 0.06971387 0.049339794 0.07897545 0.4090511 0.037810035 0.07610201 0.36132902 -0.19147518 0.31176192 0.39706573 -0.20684583 0.74129635 0.79543483 -0.07877441 0.07253094 0.3072022 0.6693938 0.7529333 0.7788558 0.5001465 0.46694466 0.43524718 0.25332633 -0.1317864 -0.13293007 -0.06911869 0.7309445 0.83997595 0.46147805 0.48761895 0.51937145 0.34305894 0.22897507 0.1548886 -0.13281845 -0.11065872 0.7302015 0.8054098 0.42010272 0.4454944 0.041883588 0.3539994 0.08519375 0.046645608 0.6786517 0.7723938 0.31818157 0.32440662 0.35984585 0.34927267 0.072441116 0.3665387 0.53627497 0.59045565 0.26412395 0.16629234 0.2586522 0.34109485 0.33119857 0.09552315 0.075034074 0.06745241 0.1680225 0.17614554 0.3238266 0.32601115 0.3594696 0.35027513 0.43187895 0.36668935 0.16735595 0.11874264 0.36558175 0.4094752 0.42664158 0.4054778 0.52560693 0.4881848 0.41656876 0.26330414 0.027172625 0.14934194 0.2615563 0.30498365 0.3704328 0.43473518 0.4536407 0.46099544 0.5709919 0.54315746 0.16423157 0.23822469 0.29876408 0.37998092 0.44175416 0.5423964 0.44056326 0.40420246 0.34479102 0.4859891 0.48965487 0.3388436 0.29548156 0.37341338 0.45823115 0.2968525 0.2829449 0.3901733 0.268056 0.27012163 0.29305455 0.2244265 0.250015 0.1474974 0.17287038 0.12079656 -0.05829086 0.041169226 -0.0030411258 0.007219605 0.57706183 0.5352845 -0.05432082 -0.15704371 -0.19200376 -0.10312616 0.5801957 0.57522714 0.4992392 0.33760422 0.23322497 0.12225218 -0.13595982 -0.19708419 -0.06461611 0.23381558 0.49208784 0.38423115 0.3289349 0.10816353 -0.1137378 -0.0489647 0.110285245 -0.21466157 -0.1292733 0.120254025 0.24943176 0.30437055 0.42543313 0.34159482 0.21204793 -0.13589999 0.20765892 0.28651416 0.18078175 0.3087509 0.38885203 0.48973048 0.7436466 0.7120193 0.5652556 0.5658456 0.48860294 0.5180973 0.7673917 0.71720207 0.24882433 0.43696117 0.52340597 0.7727021 0.7550554 0.32269016 0.40710723 0.73975825 0.72438294 -0.027273282 0.5984254 0.45233813 -0.09407296 0.33289352 0.20348413 -0.01241735 0.14157861 0.1715508 0.12477834 0.10807867 0.106092535 0.10657509 0.09616366 0.1742421 0.18984084 0.22720814 0.21887966 0.33306223 0.20510057 0.17212628 0.0724058 -0.05277124 0.22716856 0.28984287 -0.27801347 0.29376617 -0.32570297 0.24154654 -0.39148653 -0.29116142 0.58507764 0.7582561 0.8413073 0.84647715 -0.011464864 -0.056580603 -0.17793182 0.15316303 0.29811615 0.39656007 0.8427807 0.87292767 0.47372103 0.47417766 0.4250056 0.3413903 0.07989358 -0.033010706 -0.12625319 -0.11037373 0.89108104 0.46452498 0.4895463 -0.0780468 -0.13907099 -0.018854499 0.8730727 0.33987874 0.39033872 -0.1251184 0.14893487 0.07115378 0.063436344 0.7146379 0.8163136 0.34815532 0.339063 0.044901755 0.07206409 -0.07134388 -0.14445037 -0.0010769516 0.4534056 0.65016055 0.26232484 0.3233919 -0.022171736 0.095815584 0.14429656 0.358366 0.38739148 0.34569564 0.2903231 0.2703536 0.25464782 0.040685378 0.47615427 0.3856057 0.5341096 0.55616254 -0.012309335 0.47171617 0.43979856 0.62119675 0.6137083 0.4058887 0.08974207 -0.019125797 0.06902815 0.18724325 0.29086068 0.32610762 0.4164557 0.45179898 0.6727821 0.65287954 0.549338 0.38880575 0.2853883 0.21250777 0.25734133 0.64678395 0.54049855 0.17487036 0.13458094 0.14944047 0.1626325 0.37155378 0.22904308 0.13576536 0.2305957 0.12666734 0.3894167 0.21830058 0.26007977 0.35954756 0.27588177 0.18674257 0.2657581 0.22284338 0.24487424 0.21190275 0.07240406 0.18190461 0.58704346 0.5450204 0.07328986 0.031062365 0.5988035 0.597188 0.55033886 0.43365455 0.19036333 0.13154012 -0.0016417801 0.05999592 0.27099305 0.3028772 0.5213361 0.5730982 0.20070413 -0.10014565 -0.031483144 -0.002638448 -0.12043944 -0.0962691 0.14210047 0.28402814 0.32160723 0.45617545 0.5038468 -0.1342804 -0.302656 -0.09853706 0.32528102 0.31500667 0.30262277 0.262519 0.24135429 0.29834563 0.12837204 0.41037023 0.7528049 0.69904244 0.62774295 0.5858188 0.56604004 0.5091224 0.37882861 0.7768754 0.7773769 0.14499041 0.29075065 0.36928624 0.7642341 0.14898708 0.73312926 -0.15952197 0.6567811 -0.28946695 0.3022222 -0.15986563 0.11927738 0.124330595 -0.07556023 0.10198918 -0.018006258 -0.010285173 0.43992016 0.5438796 -0.056419037 0.61187947 0.16721003 0.0021873564 0.5143314 0.68423367 0.22388233 0.71600485 0.19406778 0.13761093 0.0613883 0.027656585 -0.40101087 -0.32087636 0.010778457 0.02401653 -0.32262626 -0.3472231 -0.017628118 -0.15362582 -0.3528539 -0.25671083 0.6030941 0.75285006 0.84021837 0.87221766 0.038951397 0.0055870414 -0.026944846 -0.26032448 0.23528661 0.34268165 0.45179302 0.8843142 0.90685534 0.4405774 0.42166424 0.33381444 0.20735824 0.93598384 0.41641542 0.9269861 0.36222377 0.40277356 0.014710151 -0.42222965 -0.12565194 -0.031393047 0.70169437 0.8482522 0.23977374 0.15637529 0.03507394 0.3491587 0.50030184 0.60317737 0.24843915 0.25485545 0.052447036 -0.024577983 0.11588998 0.096170835 0.3938689 0.38308728 0.11622909 0.15842499 0.10319151 0.14592049 0.35023835 0.2771457 0.21536371 0.47558403 0.45946312 0.27926916 0.4467591 0.45169812 0.51815 0.5705459 0.3752344 0.39273936 0.58512515 0.628834 0.027686058 0.32629055 0.3616585 0.6686501 0.35716885 0.0048209354 0.16434477 0.14815943 0.23781686 0.667636 0.64720565 0.5102997 0.36969018 0.16578294 0.010478536 0.41434634 0.3669898 0.4241979 0.463146 0.36463863 0.28123525 0.20868032 0.19866711 0.302382 0.38566655 0.46886715 0.54922163 0.1869379 0.1720101 0.17399088 0.34066927 0.46509397 0.58522344 0.28715193 0.25340694 0.5694982 0.57454467 0.18302885 0.50935143 0.523983 -0.055362314 0.099211335 -0.0077772327 0.104905576 0.27175614 0.26985374 0.09775589 0.08550562 0.06052378 -0.016214877 0.055644315 0.00104177 0.57651556 0.51730794 0.1268376 0.24865517 0.26029018 0.21189362 0.19336838 0.5265318 0.5750509 0.35008234 0.17313668 0.13728368 0.059448183 0.24139531 0.29541838 0.49964464 0.541956 0.06565829 0.307864 0.30293941 0.41756493 0.28729117 0.32618523 0.24877529 0.1178657 0.21422225 0.112185314 0.24036418 0.6779332 0.57907385 0.55278444 0.55544764 0.49850762 0.071063355 0.1705772 0.7592644 0.6967733 0.40703356 0.044061176 0.74938744 0.7263835 -0.06578554 0.13268113 0.6846323 0.62482727 -0.15132678 0.63410515 -0.27186948 0.18868284 0.16349307 -0.25785935 0.14189182 -0.0034466013 -0.34015062 0.31268454 0.43401188 0.5316161 0.6113632 0.3157704 -0.091309026 -0.1752104 -0.24896933 0.6864865 0.7428141 0.04827166 0.71512103 0.75928235 0.72383606 0.75559103 0.13576521 0.07570372 -0.05514351 -0.34246176 0.5739092 0.6598009 0.73004246 -0.05669454 -0.35729003 -0.14284493 -0.15288067 -0.16968162 -0.31713933 -0.51924 -0.07294879 0.81084216 0.029666469 0.0036630481 0.014118031 -0.36135286 0.25870618 0.49708357 0.6732855 0.8068669 0.88375884 0.29525587 0.33681422 0.09856987 0.6507678 0.8993237 0.93423635 0.27467573 0.3267939 0.8534958 0.9248855 0.29335594 -0.49954236 -0.11937378 0.33223027 0.8279971 0.20232737 -0.056444637 -0.18727198 -0.1495004 -0.19326118 -0.058183175 0.30642432 0.34754163 -0.07138284 -0.026741281 0.1728193 0.415415 0.4476148 0.14013585 0.4930386 0.48437375 0.509418 0.32674092 0.37597427 0.48847505 0.5304285 0.54005015 0.5470116 0.57007825 0.56512254 0.19614154 0.52531195 0.55628467 0.5652417 0.59549665 0.09758351 0.1118407 0.63185906 0.60937965 0.46879256 0.2818911 0.1110329 0.021186918 0.14168034 0.09150845 0.21058711 0.26022488 0.2655909 0.2786603 0.37840447 0.4118467 0.49730873 0.42014402 0.48673624 0.47886235 0.40605915 0.30474782 0.2149649 0.29950452 0.4322544 0.49685374 0.55710113 0.45179898 0.58412844 0.62646 0.3084829 0.6071035 0.6339456 0.6387103 0.5786801 0.5882863 0.09915418 0.05317855 0.47133815 0.5221628 0.54443055 0.07257923 0.35109204 0.078498304 0.25932458 0.26990578 0.054976307 -0.01286715 0.22895011 0.24485427 0.25808668 0.24434365 0.17823353 0.036333926 0.4956947 0.49464798 0.20500466 0.4578855 0.49335203 0.030948706 0.1640002 0.18805036 0.41558766 0.28190437 0.27487373 0.36904764 0.2395686 0.18805422 0.13683459 0.11494451 0.010405622 0.03382785 0.13412991 0.017774872 0.52682126 0.43882912 0.044630885 0.566296 0.48879826 0.32107538 0.0011996925 0.69958943 -0.113460734 -0.06781245 0.50185406 -0.19445048 0.053921044 -0.19193853 0.13009045 -0.16326517 0.026831355 0.33138317 0.4038977 0.5368758 0.33462673 0.3218435 0.2588583 0.55920064 0.63522 0.40390295 0.3671894 -0.028527915 -0.11417109 -0.18444431 -0.28748852 0.71132445 0.7689853 0.44018435 0.3854509 0.28333378 0.15435466 -0.057248265 0.8084553 0.5334153 0.4215873 0.33647132 0.09917709 0.104510784 0.79796755 0.43787605 0.38148445 0.01645225 0.68022835 0.7285888 -0.068681635 -0.45022726 -0.17881928 -0.24047492 -0.22485767 -0.5751707 -0.14849181 -0.3121404 -0.17824036 -0.47382438 -0.10018985 -0.36999586 0.14109132 0.034004014 -0.10357907 0.16979998 0.17010394