# vtk DataFile Version 2.0
Really cool data
ASCII
DATASET POLYDATA
POINTS 7063 float
36.403763 72.92284 21.789915
36.399986 73.7084 21.053843
36.34918 73.47825 21.5349
36.424072 74.143555 21.74564
36.438614 74.05393 22.096054
37.160294 62.165794 20.127432
37.02723 61.98852 20.71262
37.11985 61.855236 21.355862
37.3062 61.93551 22.017757
36.984093 62.745422 19.927727
36.723892 62.605965 20.651367
36.81518 62.498352 21.269564
37.299526 62.3666 22.232641
36.959015 63.271652 19.902954
36.76526 63.39776 20.480068
36.83313 63.35095 21.26106
37.32213 63.495186 22.332981
37.44169 63.535183 23.92135
37.415623 63.627205 24.500553
36.95442 63.72959 20.204586
37.008446 63.807716 20.907618
37.40717 63.805927 22.222572
37.426098 64.14099 23.858694
37.46853 64.59717 24.329239
36.91676 72.220695 21.040443
36.982334 72.00345 21.512657
36.89336 72.17078 22.366335
37.26151 71.80798 23.274807
37.114994 72.96723 20.242132
36.79429 72.71684 20.74504
36.53962 72.66035 21.438053
36.61023 72.637375 22.289064
36.929325 72.70877 23.371853
37.1876 72.990234 23.960674
37.035183 73.42536 20.298126
36.67644 73.37044 20.667702
36.556812 73.53159 22.6875
36.916805 73.47325 23.343897
37.239536 73.54987 23.789434
37.20409 73.89588 20.276663
36.713474 74.184555 20.821198
36.622967 74.55923 21.496
36.701416 74.47616 22.25667
36.807373 74.051994 22.89644
37.03521 74.84676 20.973383
36.935017 74.99212 21.568068
36.919216 74.90913 22.17254
37.25124 74.74849 22.952238
37.840294 61.35136 20.61854
37.766697 61.27724 21.287506
37.73459 62.003 19.857868
37.517525 61.549343 20.62577
37.605522 61.420002 21.660946
37.468338 61.702347 22.004255
37.629578 62.978935 19.435595
37.404366 62.64529 19.517294
37.50533 62.75827 23.077194
37.68626 62.763733 24.315083
37.815216 62.947235 25.372719
38.264397 62.622444 26.35188
37.539204 63.119255 19.44716
37.329258 63.19238 19.542387
37.53129 63.21893 24.558224
37.54978 63.838036 24.995346
38.083225 63.578724 26.504704
38.183952 63.37822 26.77316
37.57968 63.95199 19.735804
37.57684 64.11011 21.440916
37.696682 64.717705 23.313982
37.63902 64.43687 25.384632
38.07266 64.30103 26.31303
38.342003 66.16689 14.772371
38.31704 66.050125 15.136126
38.061768 64.72077 20.889475
37.860653 64.6153 21.075815
37.994137 65.383896 23.91027
37.802544 65.27224 24.438019
37.73996 65.064674 25.154333
38.3725 64.95072 26.190845
38.29933 66.5868 14.194769
38.17728 66.67288 14.561076
38.193787 66.70799 15.463681
38.316757 67.06366 14.116109
38.18145 67.36913 14.584338
38.16154 67.336945 15.426482
38.244087 67.88105 14.649725
38.346992 68.106224 15.410167
38.299313 70.0025 22.431267
38.39795 70.22326 24.116024
37.990036 70.7923 21.605347
37.805485 70.537025 22.343063
37.8736 70.97312 23.548676
38.233387 70.749916 24.305767
37.69529 71.9378 20.792412
38.092957 71.954666 24.385933
37.836502 72.558586 20.27419
37.487953 72.47627 20.422453
37.770325 72.64548 24.367334
38.173897 72.4496 24.634413
37.768204 73.31662 20.046122
37.670425 74.247765 20.202707
37.82344 74.42933 23.566813
37.82562 74.021416 23.975307
37.687546 74.92261 20.710777
37.513588 75.28713 21.521814
37.60843 75.23547 22.228498
37.9109 74.76773 23.18508
38.681393 61.30819 20.651468
38.341206 61.090446 21.253532
38.97603 61.03306 24.682608
39.012566 61.124348 25.235098
39.041718 62.1508 19.390896
38.790974 61.684166 19.959724
38.55523 61.586357 23.195
38.82837 61.87704 26.234417
38.76109 62.613644 19.289036
38.453194 62.469482 26.505962
38.70656 62.711544 27.067663
39.167896 63.053875 27.98597
39.0788 63.776165 19.133585
39.09543 63.629154 28.22501
39.29837 63.631634 28.732138
38.771564 64.220085 19.238636
39.160004 64.25438 28.574804
39.3363 64.19919 28.912537
38.85632 66.0669 14.015778
38.51572 66.00594 14.497695
38.580685 65.92719 15.212546
39.115772 65.98203 16.219831
38.68983 65.007195 19.709074
38.596577 65.017685 20.360878
38.93008 65.37429 23.108564
38.623608 65.502106 26.152735
38.984104 65.2196 27.795227
38.7909 65.08925 27.924025
38.698967 66.575195 13.829058
38.781033 66.36084 16.169495
39.031704 65.7844 23.771929
38.697098 66.01296 24.263287
39.115128 66.91795 26.697676
38.98608 66.97423 28.942034
38.813244 67.45095 13.772591
39.164783 67.58233 16.630373
38.84521 67.95986 28.553602
38.93136 67.579735 28.993975
38.933086 68.114655 13.99313
38.567596 68.36823 14.793174
38.630062 68.42188 15.560296
38.699272 68.36188 15.887021
39.468372 68.02517 25.5488
38.844975 68.75939 27.830166
38.656834 68.8373 28.46936
38.82017 68.94308 29.268671
39.172077 69.016014 29.780422
38.949528 68.6913 14.824344
38.99626 68.79331 15.499436
38.89405 69.813675 22.145756
38.668518 69.64522 22.605713
39.004036 69.87853 24.399092
38.812584 69.59473 27.779245
38.644676 69.209175 28.383755
38.84333 69.7072 29.293446
39.312897 69.206604 29.985834
38.527275 70.81465 21.15109
38.85602 70.33096 25.010658
39.19971 70.56881 27.737492
38.740158 70.10227 28.684206
38.797905 70.227135 29.071772
39.359997 70.52092 30.065557
38.29841 71.359085 20.900808
38.852104 71.26823 25.182587
39.29077 71.29381 29.645985
38.58151 73.030594 20.105873
38.69897 72.21794 24.851736
38.267143 73.591 19.994476
38.171047 73.55926 24.484106
38.262268 73.32254 24.55778
38.548298 74.270035 20.142271
38.536594 74.26934 23.998732
38.42132 74.995575 20.85595
38.090576 75.242 22.36582
38.57673 74.771774 23.3604
39.369495 79.65467 12.769454
39.36229 79.70403 13.177701
39.42432 80.498566 11.962682
39.35186 80.461296 12.430888
39.395847 80.365524 13.354579
39.445057 81.1624 12.293312
39.407795 81.026985 12.926102
39.895496 60.31078 24.343225
39.817436 60.3423 24.95248
39.742542 61.196407 20.226301
39.68105 60.907146 21.011839
39.84575 60.784046 22.602404
39.534145 60.523506 24.59157
39.69987 60.583046 25.234474
39.852413 60.90002 25.94571
39.383186 61.74295 26.686632
39.300087 62.5223 27.456436
39.5209 63.00218 28.354094
39.979492 62.987797 28.712873
39.385433 63.570297 19.015804
39.450275 63.272724 28.607098
39.70639 63.746975 29.04643
39.55151 65.41774 14.939376
39.237503 64.3314 19.117556
39.87455 64.364075 29.32197
39.763046 66.15748 13.364417
39.596706 65.96196 13.790255
39.239258 66.02094 16.353989
39.507095 65.20868 19.583792
39.355324 65.347885 20.154797
39.6795 65.6129 29.347502
40.103188 65.90636 29.765818
39.70058 66.6501 13.222097
39.34804 66.369385 13.471606
39.455425 66.68803 16.813839
40.183437 66.4816 23.538477
39.609 66.6542 24.206871
40.09648 66.336296 29.798634
39.656654 67.3464 13.059542
39.483093 67.57572 16.740181
40.172104 67.28764 23.467493
39.47829 67.061066 24.685759
39.385113 67.52034 29.603333
40.113674 68.12289 13.002219
39.34497 68.476364 13.990088
39.31329 68.443855 16.235556
39.60149 68.51966 22.635942
39.713215 69.0046 25.992048
39.721207 68.72912 30.26149
39.962982 68.66307 13.546069
39.576965 68.93593 14.686303
39.360443 68.95473 15.211328
39.23844 68.63222 15.977667
39.673252 69.50693 30.34716
39.174564 70.430626 21.214018
40.2199 70.326294 30.866676
39.7906 71.40266 20.638237
40.029232 71.296524 25.904594
39.451496 70.76996 27.597536
39.585445 71.519936 28.21308
39.795498 71.480064 30.264038
40.0448 71.02313 30.672247
39.639656 72.18902 25.334333
39.86328 72.189865 28.843712
39.88572 72.176895 29.480656
39.936176 71.99983 29.969578
40.162045 73.734886 12.740777
40.002834 73.68339 13.440415
40.199924 73.73999 14.1864805
39.405125 73.57225 20.374897
39.620853 73.08483 24.6931
40.344173 74.69213 11.949462
39.96359 74.363075 12.881823
39.904762 74.39029 13.614976
40.079987 74.52391 14.209712
39.240345 74.03121 20.331896
39.488716 74.251724 20.810802
39.1859 74.20264 24.062775
40.38784 75.08207 11.879841
40.163296 75.23648 13.516548
40.333855 75.454704 14.262276
39.09529 74.83176 20.961763
39.074158 74.87583 21.297935
39.329594 74.83449 22.158617
39.273426 74.77962 23.249403
40.36227 78.035286 12.889534
40.204876 77.8975 13.95065
40.07685 77.894264 14.559904
40.257782 77.66799 15.394019
40.413086 77.52595 15.847853
39.925617 78.94812 12.076172
39.99199 78.706375 12.573161
39.663994 78.8709 13.495702
39.823593 78.38055 14.816097
39.99618 78.39003 15.228967
40.15006 78.56366 15.831925
40.12097 80.06732 10.881439
39.69566 79.69539 11.863044
39.523487 79.317116 12.425109
39.481148 79.339386 13.379572
39.630116 79.56562 14.144014
40.15701 79.31002 15.374872
40.20813 78.96494 15.797363
40.290154 80.83798 10.265781
39.99968 80.60383 10.802055
39.621037 80.632706 11.473398
39.6124 80.80879 13.630831
39.699085 80.42123 14.0111885
40.161423 80.09447 15.077288
40.313137 81.03055 10.295937
40.081238 81.40146 10.675414
39.626286 81.39118 11.527784
39.594803 81.70531 12.427074
39.663662 81.189316 13.375049
40.193596 81.09308 14.341399
40.14454 82.170586 10.990721
39.91539 82.45045 11.743373
39.892242 82.4162 12.337679
40.11287 82.256615 13.195439
40.15352 82.85934 11.874051
40.12191 82.82405 12.297756
40.285484 82.775 12.8109865
41.17531 60.3206 20.95663
41.227688 60.096287 21.342024
40.98216 60.1313 22.920359
40.250637 60.085205 24.532337
40.78136 60.057293 25.409122
41.053455 60.281128 26.161266
40.372593 60.519054 25.637539
40.73251 60.98249 26.501778
40.203465 61.296917 26.771358
40.627316 61.861076 19.126198
40.95271 61.956146 27.637875
40.987118 62.246178 18.514334
40.591423 62.72847 28.530779
40.544926 63.052723 28.937778
40.632664 63.83294 29.405357
40.569397 65.46376 14.800479
40.10123 64.41453 19.155603
40.324894 64.27077 29.535196
40.48922 66.055756 13.273159
40.658466 65.628075 13.771806
40.193913 65.503136 14.573422
40.205917 65.27457 20.517937
40.80544 65.937996 30.017363
40.580387 66.72125 12.87123
40.51057 66.94639 30.038044
40.551167 67.53286 12.747508
40.93704 67.644585 17.152176
40.559467 67.996666 22.611818
40.63604 68.08059 12.820164
40.55074 68.677315 16.460201
40.483383 68.32389 16.78799
40.661236 68.214455 30.564087
40.857506 69.15405 13.768129
40.52363 69.197235 14.184764
40.427692 69.29438 15.542817
40.904285 69.22682 16.281898
40.80113 69.574165 30.925013
40.934433 69.594734 15.327443
40.200985 70.454636 21.105818
40.65223 70.329796 31.073399
40.33122 71.654495 30.562595
[...]
POINT_DATA 7063
SCALARS features_00 float 1
LOOKUP_TABLE default
0.77991045 0.85174274 0.81692374 0.8256339 0.79476553 0.81026226 0.7899116 0.71471244 0.62100035 0.83132714 0.83877605 0.7624974 0.5751883 0.829835 0.84017354 0.7435127 0.46172294 0.3331623 0.37150624 0.8215915 0.7571675 0.449207 0.34967345 0.4062645 0.70686185 0.6732862 0.6767566 0.5657266 0.7801171 0.76913756 0.77500284 0.7297647 0.64532113 0.6085044 0.8288075 0.8333469 0.7378417 0.68775237 0.64863575 0.87999046 0.896701 0.8634576 0.798797 0.7377789 0.9329819 0.87646765 0.8169764 0.7474419 0.6808476 0.6490878 0.74499106 0.72808367 0.63545275 0.6092533 0.7497637 0.7777101 0.37453958 0.31125954 0.39569777 0.38095403 0.75735295 0.7835102 0.35538706 0.40892935 0.40327513 0.3879164 0.76679325 0.5758024 0.33207482 0.43607354 0.407394 0.84182405 0.85616505 0.61370474 0.583879 0.34129038 0.41372457 0.44562227 0.38457477 0.8288736 0.84396863 0.87459385 0.8378854 0.8636968 0.891323 0.8455544 0.79486084 0.44805467 0.37911844 0.4659205 0.49503028 0.4692191 0.4046136 0.6111846 0.48247546 0.6878501 0.701778 0.5404759 0.5010239 0.80316556 0.92938375 0.6734232 0.63476145 1.0 0.93406767 0.8216975 0.70409703 0.5617105 0.5499743 0.26195365 0.28730583 0.5474584 0.5902872 0.32815117 0.33730873 0.62122256 0.36507604 0.35598367 0.37831718 0.6378285 0.39355955 0.43254158 0.6891321 0.41837198 0.44311813 0.78417814 0.8110492 0.8548546 0.90195656 0.73613346 0.7061518 0.16474435 0.31825638 0.30666584 0.3189255 0.8018587 0.92240244 0.12757349 0.19909126 0.06156505 0.3509891 0.8244833 0.72041285 0.38340843 0.38527888 0.7989725 0.7741971 0.72767687 0.6984396 -0.03575412 0.34712303 0.42743725 0.45259464 0.47473463 0.7045278 0.6579169 0.38694185 0.42882776 0.27734283 0.42098722 0.4452607 0.5169441 0.50495887 0.42354187 0.3042244 0.4900902 0.5222508 0.5565068 0.62603927 0.47777623 0.37249053 0.6770586 0.7660874 0.44880223 0.8548535 0.5661156 0.54369915 0.9206184 0.59959245 0.978994 0.81073976 0.6568047 0.5064962 0.49362862 0.5945741 0.56136394 0.5060351 0.6006876 0.5457408 0.27661824 0.29542547 0.36519194 0.2849748 0.2033234 0.27082014 0.2932809 0.31261837 0.32486695 0.3418408 0.40051836 0.4240426 0.5612153 0.42091018 0.44945252 0.7927607 0.6785448 0.44033986 0.7107699 0.73654735 0.90517545 0.6862843 0.66949016 0.38524568 0.3723289 0.7132264 0.7490716 0.86941266 -0.086193785 0.024934188 0.37046784 0.7415586 0.6431946 -0.102428705 0.03489977 0.39440373 0.72348744 0.7303051 0.5929097 0.22176641 -0.118696 0.46971214 0.69418156 0.6308205 0.6264718 0.6110636 0.5571214 0.36256814 0.64047796 0.32390568 0.13924009 0.4637127 0.6388414 0.6684385 0.6629951 0.3156031 0.6834669 0.67562735 0.66984653 0.74240446 0.71465623 0.65067947 0.8241169 0.40716726 0.65425056 0.6398088 0.59172046 0.5157601 0.88872296 0.83496 0.5406425 0.60876775 0.42873427 0.31199923 0.8824842 0.8673409 0.7213499 0.60863733 0.30275023 0.26499686 0.279334 0.2806769 0.2567935 0.47361946 0.4158391 0.4062673 0.3329251 0.3305094 0.3172176 0.6679197 0.5517626 0.489065 0.4573016 0.43044746 0.3487379 0.3215967 0.761472 0.71238244 0.6491468 0.4812855 0.4475789 0.36279103 0.7749804 0.7732949 0.69659877 0.60772383 0.5044763 0.39850777 0.770103 0.7039256 0.629991 0.52515733 0.6694738 0.6294558 0.56984276 0.02592593 0.068059154 0.27259806 0.30220222 0.35074025 0.39571762 0.32251006 0.35670167 0.3306249 0.2124081 0.319621 0.25366178 0.40921777 0.43043098 0.42803383 0.663512 0.65296066 0.42516688 0.65379596 0.65285194 0.70372176 0.47552285 0.3638263 0.64170223 0.36961457 0.656325 0.39384532 0.09113528 0.6637284 0.4739548 0.45924944 0.43119675 0.58075064 0.5780343 0.5406052 0.44588423 0.5523201 0.512965 0.20546079 0.6408124 0.671746 0.6725098 0.8265253 0.7667357 0.20427337 0.58686215 0.66615355 0.6670431 0.6748636 0.7422921 0.79609394 0.7811306 0.6474481 0.37480292 0.33442268 0.3572999 0.6431726 0.6662737 0.6856797 0.68227124 0.4309183 0.2800717 0.37281156 0.5349501 0.6528076 0.6272366 0.25062323 0.18185955 0.5896778 0.17575428 0.15989773 0.10073993 0.085318245 0.29643092 0.17861593 0.22482836 0.18874279 0.1678818 0.60851026 0.43738347 0.25340307 0.16290131 0.67552614 0.652222 0.27026904 0.7346353 0.33395958 0.2525664 0.7956635 0.34999126 0.30358475 0.7668624 0.7385104 0.48310655 0.37551856 0.6517864 0.6415523 0.59431964 0.4818083 0.48320526 0.5002617 0.48817417 0.49226433 0.5983351 0.5346372 0.4284097 0.35353112 0.15882619 0.21515965 0.40758336 0.43225598 0.49391925 0.58691716 0.4488536 0.5102285 0.36079863 0.36784267 0.33714256 0.3038776 0.38878343 0.39078128 0.5132451 0.45170033 0.3172208 0.3390058 0.5822351 0.5676329 0.55902076 0.5940756 0.2287267 0.1451405 0.3352375 0.5816139 0.33178428 0.5837387 0.31284362 0.09880919 0.36063164 0.58192414 0.35787666 0.11778849 0.40540138 0.54718125 0.38744807 0.33067447 -0.13257372 0.51693654 0.49199224 0.47498056 0.3534618 0.07120262 -0.048131794 0.6300104 -0.039394274 0.6815363 0.8197562 0.74453217 0.15085542 0.18272956 0.15488377 0.47012228 0.52033335 0.67889595 0.6831403 0.7595916 0.42648137 0.36690372 0.03736085 -0.07966913 -0.042773947 0.14617549 0.6315902 0.6675788 0.6736045 0.6722924 0.6885648 -0.04401923 -0.14516138 0.65080166 0.6364881 0.16739793 0.25084504 0.5584636 0.054764576 -0.060641605 0.07432862 0.13014644 0.5805362 0.18649434 0.26861852 0.6530653 0.5974022 0.24678361 0.3570097 0.3946988 0.7041639 0.25019637 0.4441475 0.76222694 0.19765598 0.74352324 0.64191854 0.28675294 0.5526432 0.5084754 0.560614 0.42805085 0.29687434 0.62410414 0.5932324 0.56349885 0.46237087 0.49010247 0.5356579 0.5423889 0.54740834 0.5522057 0.62765694 0.6251762 0.5810966 0.4187634 0.53621274 0.5476295 0.5249023 0.6129703 0.606804 0.4938656 0.54691494 0.4855883 0.36361 0.25964794 0.35367322 0.3206158 0.2857385 0.0866728 -0.078670315 0.27794087 0.51482856 0.47315127 0.41825917 0.068750545 0.023520423 0.25377712 0.46518612 -0.27261382 0.23161766 0.49339756 0.23842457 0.28827032 0.51405877 0.23562373 -0.15869233 -0.044280134 0.33265966 0.5017075 0.37970436 0.483616 0.37137237 0.17269026 0.5760919 -0.04424402 0.091360345 0.6765362 0.7033764 0.5710162 0.490677 0.6896882 0.72971606 0.70865625 0.32404256 -0.08899009 -0.173073 0.5248636 0.63659394 0.6760274 0.68917334 0.6524477 0.67344177 -0.19043337 -0.17087328 -0.05501553 0.05957838 0.6114787 -0.24528554 -0.26524535 -0.19194892 0.2918347 0.56633806 0.5469351 -0.14625582 -0.10990237 -0.120637566 0.09518196 0.30785194 0.3634962 0.37100923 0.34344307 0.3920113 0.39421833 0.3759914 0.38970968 0.56821656 0.5543839 0.37945622 0.29372787 0.2511332 0.28394514 0.6211821 0.457172 0.46257317 0.40718716 0.33350068 0.63383746 0.40034735 0.4300843 0.44323316 0.39994094 0.59272414 0.38600004 0.45332402 0.4097365 0.32949919 0.35203472 0.6294209 0.6059017 0.39546448 0.35051653 0.67861927 0.6266073 0.6146833 0.5816555 0.35778767 0.45939982 0.50650364 0.53435117 0.55536455 0.62802434 0.63061476 0.2692679 0.5260142 0.55502105 0.5488856 0.5187329 0.6099564 0.49851072 0.48125112 0.52995324 0.35506108 0.40042427 0.28172827 0.16855583 0.10718936 0.1623888 0.013296977 0.025212578 0.011613306 0.16508266 0.37336236 0.3587344 0.26761553 0.037747003 -0.4330025 0.1830771 0.39357078 -0.39132267 0.1630321 0.41656584 -0.26071662 -0.24447677 -0.28712004 0.40744406 -0.2453494 -0.2137281 -0.24798113 0.27616906 0.37805498 0.4675438 0.22226661 0.23160347 0.10532462 0.5086751 0.60275066 0.6200439 0.649043 0.41400903 0.40200156 0.3845569 0.39580613 0.65146554 0.653157 0.6625212 0.55196774 0.44149965 0.24898016 0.5220768 0.6002674 0.68192136 0.6440349 0.10288364 0.59512687 0.58245933 0.23278444 0.26114324 0.55006063 0.51368886 0.3213451 0.41857302 0.40611815 0.41506374 0.36541831 0.3935874 0.3847773 0.30662626 0.34397024 0.31142163 0.2621617 0.21115795 0.26805708 0.25438827 0.3225942 0.3649875 0.39523637 0.3794158 0.3304903 0.37834716 0.5577308 0.3949722 0.6758705 0.57550657 0.4064675 0.39134806 0.7313447 0.727386 0.694209 0.6258148 0.7367395 0.72589743 0.5956651 0.61178327 0.56659853 0.46741772 0.43806452 0.49089485 0.58963746 0.592147 0.2480853 0.23118633 0.07390055 0.30803582 0.38094294 0.45403123 0.5173019 0.5182226 0.4683258 0.45872718 0.44011572 0.49205223 0.4019654 0.17835893 0.3142113 0.20375265 0.17477676 0.09704514 0.11896352 0.12457136 -0.23669071 -0.31710503 0.10422554 0.32517302 0.27383283 -0.273621 -0.52183133 0.09817469 0.2950152 0.22725588 -0.32090932 -0.39678442 -0.40393162 0.33038184 -0.3030307 -0.25036862 -0.3119659 0.075328074 0.3221691 -0.21711309 -0.24447739 0.27203512 0.22675753 0.123256765 0.16727772 0.44138634 0.011233928 -0.20738763 0.4196615 0.5236684 0.5629301 -0.28677756 0.1297832 0.5303693 0.44907475 0.23773372 0.14880137 -0.1548485 -0.12313166 0.58156574 0.45539075 0.37332243 -0.045250952 0.56237847 0.19136716 0.49483597 0.35458425 0.3486817 0.35561126 0.41671497 -0.18814272 0.3894956 0.42095798 0.3427117 0.03346407 0.23122951 0.20812999 0.24567918 0.25438133 0.15964964 0.045820985 0.13884655 0.25642428 0.30518562 0.3189039 0.25389898 0.21339077 0.41654074 0.24398161 0.23078606 0.5187878 0.5665121 0.41279352 0.7047248 0.49352878 0.7621939 0.74996734 0.69960135 0.66297066 0.74761844 0.7306955 0.54077005 0.547013 0.41775972 0.47229493 0.48360422 0.42046165 0.26045603 0.13384362 0.058543783 0.10441997 0.41917437 -0.012135666 0.15469646 0.42999643 0.20744348 0.36790872 0.186718 0.33675063 0.37553078 0.27111024 0.24507505 0.23969397 0.19256742 0.08008044 -0.0047617033 0.08119154 0.11963114 0.23732185 0.036118727 0.1340737 0.15900654 0.024752252 0.1288594 -0.281637 0.16283551 0.18886447 -0.199693 -0.20838702 0.22638376 0.15632817 -0.221335 0.15024737 0.22318953 0.14845176 0.0002411604 -0.0658088 0.06600228 -0.57805425 -0.07872338 -0.56476516 0.22273572 -0.117658004 -0.0036388244 0.30710077 0.08900086 0.25094694 0.0030096099 0.35216933 0.051745903 0.34621048 0.04891275 0.30319622 0.36747262 0.101577915 0.25342074 0.2662218 0.059431393 -0.20657301 0.05897353 0.18451682 0.2106227 0.26454583 0.25505427 0.26512563 0.42040515 0.07238075 0.23391062 0.5203069 0.2946211 0.7185872 0.55809003 0.40347096 0.76953906 0.72103035 0.6333029 0.7491117 0.7353288 0.35929143 0.4002185 0.40525782 0.29840255 0.2007259 0.51950985 0.25892258 0.08834545 0.009464033 0.45859247 0.40825158 -0.038018633 0.43474394 0.39713636 0.04908635 0.12473446 0.37639642 0.3065677 0.32721454 0.16080232 0.01670364 0.2491182 0.0028263405 -0.35136756 0.30433315 0.022203349 0.44997966 0.60311645 0.48116726 0.1478068 -0.14574161 -0.3927791 -0.06291619 -0.07498634 0.19495079 0.12481168 -0.041763697 -0.39978376 -0.101486064 -0.09072091 0.14780182 -0.20463541 -0.089390114 0.029740453 -0.019698896 0.08625701 0.012079783 0.05452791 0.115811616 0.27940932 0.112049535 0.31266987 0.101602644 0.0668863 0.18699981 0.12283008 -0.11840458 0.2723081 0.27151006 0.2582553 -0.1772035 0.09571677 0.067014284 0.26242208 0.2956925 0.31239226 0.2960182 0.40256953 0.298763 0.08589303 0.15163547 0.50928366 0.5034928 0.74868405 0.53381896 0.3365858 0.7979182 0.7904693 0.6488626 0.6131499 0.57849985 0.1846031 0.6272675 0.58853364 0.4731192 0.35370564 0.10116257 0.11049582 0.08145873 0.06489091 0.57486194 0.5339068 0.008114023 -0.054017007 -0.049065925 0.5065127 0.51197255 0.1312339 0.16218181 0.428137 0.42192194 0.057756834 0.012362249 0.35637507 0.0829898 0.1659914 0.24091406 0.25635532 0.2912346 0.012201805 0.34263057 -0.10509354 0.39932933 0.44011235 -0.1228211 0.57678676 0.14376089 0.11597066 -0.07956237 0.72372526 0.1718942 0.23990194 0.6523135 0.72593296 0.6803342 0.5971825 0.44527894 0.1900922 0.25446844 0.27644062 -0.09838542 0.12831703 0.37807018 0.6157409 0.7379814 0.7282969 0.67105126 0.24303356 0.25847897 0.100009166 0.73257583 0.70127535 0.19481586 0.19240302 0.026738308 -0.028971478 0.18887074 0.100870915 -0.088293046 -0.11355895 0.048840236 0.19839944 0.05727027 0.09609766 0.06446227 0.10021266 0.074725494 0.17681372 0.12421401 0.17993413 0.11352037 0.21777721 0.18937892 -0.40192905 -0.04276757 0.0026870891 0.025914766 0.33896455 0.24838273 0.20700088 -0.23123235 0.0018235631 0.10364508 0.26098815 0.32435775 0.5337 0.21447892 0.1703722 0.39327347 0.62640274 0.6583531 0.41237584 0.48120022 0.5919382 0.6432287 0.6754347 0.5181651 0.5978817 0.65849346 0.67757493 0.64567965 0.6735114 0.69469655 0.6663071 0.6226151 0.6606967 0.6809069 0.5779006 0.40736365 0.17544463 0.04863168 0.04622671 0.5962165 0.013190044 -0.021662675 -0.0701185 -0.05300304 0.14926064 0.51189435 -0.07129779 0.16390127 0.19880894 0.16740268 0.44286132 0.09153004 0.063298695 0.17814156 0.055714294 0.07491069 0.3193924 0.35113013 -0.113086 0.4010942 -0.10252088 0.46949416 0.54022235 -0.0345088 -0.13966276 0.64706635 0.086557835 0.016115252 0.7614616 0.61617255 0.5182375 0.35790595 0.07268573 0.0483522 0.054802276 0.7812057 0.6983578 0.6879402 0.43249905 0.25827724 0.098493256 0.15953685 0.29624274 0.52992076 0.672606 0.72837716 0.21139047 0.2696602 0.7039654 0.70824885 0.6410682 0.200533 0.2924205 0.61964834 0.5376388 0.32093945 -0.02959741 -0.021463402 0.24482907 0.013442971 0.23177138 0.056619413 0.18171513 0.21524732 0.109184206 0.055417676 0.16638112 0.074493766 0.09821351 0.018056016 0.10786522 0.079447225 0.10770782 0.13963543 0.15136042 -0.114707574 0.24873127 0.16252351 -0.11839718 0.048278593 0.15889344 -0.101951346 0.013549298 0.22620195 0.33576375 0.55358756 0.6186918 0.21003532 0.33536714 0.65787387 0.6573182 0.5617902 0.36675245 0.3819235 0.6900477 0.6874312 0.5864664 0.57411456 0.50954795 0.34485957 0.43947518 0.5350301 0.68057954 0.6916115 0.6937952 0.59367836 0.5825379 0.46629572 0.44498456 0.43594772 0.61424875 0.68127674 0.7042252 0.70212513 0.5779666 0.52616465 0.7036828 0.7099209 0.71152794 0.64516693 0.6719478 0.7208866 0.69270146 0.608403 0.35558087 0.5945616 0.061541773 -0.04427035 0.008513154 0.034252133 0.52628124 0.5173159 -0.041001208 -0.054710165 -0.10004793 -0.023323027 0.05377867 0.14948094 0.2281567 0.19895479 0.4473227 0.16945486 0.21033384 0.06208057 0.13429937 -0.06913428 -0.06448016 0.27483243 0.3393444 -0.07064825 0.38431022 0.4008822 0.39188582 0.49926785 0.5424944 0.44463843 0.38935465 0.28647876 -0.054405406 0.5996636 0.68589073 0.3975226 0.113174886 0.050324623 0.7834931 0.012890741 0.80361307 0.8192866 0.55640656 0.5690731 0.6849679 0.70811385 0.6508943 0.31150052 0.60172665 0.34195143 0.5494975 0.56593984 0.4779962 0.20364319 0.051807053 0.31459337 0.1476092 -0.19606352 0.255447 0.034186862 0.23715276 0.062743664 0.13877536 0.06411285 0.2040466 -0.010645814 0.10112476 0.065559655 0.049135424 0.08188129 0.12615606 0.07754007 0.076341346 -0.5665519 -0.14509301 -0.12989111 -0.009214327 0.07805388 -0.12542474 -0.16511722 -0.09955359 -0.18238764 -0.28871274 -0.1605953 -0.08339154 0.4780756 0.1689301 -0.22379555 -0.21628645 0.015203334 0.09222667 0.5769006 0.47308344 0.3821681 -0.1391166 0.13148876 0.51140285 0.49718696 0.48951763 0.31527907 0.12715258 -0.08351131 0.66860557 0.65372807 0.53851485 0.32068703 0.1043143 0.30335608 0.6923806 0.68001807 0.48255724 0.54634964 0.40258545 0.23369437 0.23979832 0.41329336 0.6931173 0.68943965 0.51421213 0.56440926 0.5753694 0.5242187 0.4550454 0.6783506 0.6966115 0.6973974 0.6863724 0.5580144 0.5624941 0.52859294 0.6711973 0.5731652 0.6691489 0.64004433 0.53866744 0.3480395 0.46524543 0.19272307 0.101083875 -0.10916609 -0.21450529 -0.08560494 -0.027016252 0.0459524 0.16002414 0.24575055 0.30606318 0.291358 0.3225935 0.33804762 0.33059615 0.24045785 0.26281145 0.21035701 0.2539813 0.14355831 -0.03083165 0.1932033 0.41708034 0.3587319 0.3051468 0.19752987 -0.02973672 0.28476435 0.3643394 0.50173515 0.46719012 0.41155532 -0.10460795 0.23459944 0.383129 0.49975264 0.52056146 0.4869941 0.079273134 -0.100351006 0.086002626 0.39904803 0.5315323 0.66369015 0.5078144 0.44325256 0.50941604 0.6728232 0.77505267 0.4240197 0.37268424 0.56500167 0.7061454 0.7577344 0.33858854 0.21950607 0.44875884 0.26372793 0.42489937 0.3329221 0.43955237 0.31047034 0.32571846 0.28384417 0.0995739 -0.052299537 -0.14806236 0.2498087 0.03178863 0.23227179 0.039088607 0.25242913 0.25420517 0.0044700503 0.15742758 0.21004647 0.41051754 0.30509955 0.1215013 0.37928867 0.29700875 0.021042537 0.0012293309 0.3019147 0.34278634 0.0074434727 -0.06174128 0.33792794 0.39209622 0.4139098 -0.07856644 -0.106862485 -0.22869417 0.35601854 0.41793126 0.42316282 0.3677926 -0.08826934 0.28296566 0.23239258 0.592264 0.30433536 0.5908977 0.6400378 0.2739592 0.37655115 0.20521306 0.572391 0.61612046 0.43930894 0.32231784 0.102568895 0.27346605 0.6204052 0.61385673 0.5138494 0.51708883 0.4794848 0.35983455 -0.03426843 0.3694173 -0.009629935 -0.13472554 -0.08728617 0.07759914 0.31066957 0.3727646 0.42602158 0.4066018 0.33656877 0.18639597 -0.1828083 -0.3013415 -0.20583273 -0.045609683 0.3935876 0.32035333 0.37454504 0.23981464 -0.11048468 -0.16750082 0.34468907 0.2775206 0.23856072 0.45719868 0.42824012 0.33020347 0.19960101 0.52852947 0.5161375 -0.30149558 0.54770124 0.5394387 -0.15373364 -0.18059242 0.5373101 0.5176835 0.50469273 0.47111326 0.08799268 0.37970954 0.17737272 0.24091572 0.22233579 0.23445645 0.26391083 0.2871676 0.2756002 0.34773448 0.3811952 0.18036647 0.039348155 -0.11543656 -0.23434776 -0.6703001 0.18980545 0.4158083 0.23762128 0.13980588 -0.49895665 0.21989237 0.043759152 0.23928913 0.42905056 0.37749565 0.23198915 0.17562148 0.20295982 0.4422027 0.101928905 0.42477524 0.36509138 0.34471142 0.32679558 0.2892377 0.24770333 0.20354141 0.15242366 -0.06710863 -0.03421703 0.40181988 0.17478995 0.008466527 0.07625182 0.43347067 0.43531978 0.32902735 0.24806854 0.15071826 0.33693278 0.42788202 0.367535 0.3241287 0.2774993 0.26528326 0.3034754 0.33338374 0.2994249 0.23013109 0.22086182 0.4020301 0.24424785 0.24172658 0.23398925 0.3856934 0.31375512 0.117153555 0.08929533 0.18428294 0.20527178 0.360291 0.3443811 0.41327506 0.17032269 0.29629028 0.14271328 0.25791812 0.20684353 0.08449596 0.11497884 0.1910237 0.20993772 0.12367262 0.16469765 0.5182839 0.1548236 0.11260684 0.088792585 0.08214734 0.07841165 0.117175944 -0.042337924 0.31940186 0.5838841 0.4318698 0.41208005 0.3492049 -0.17984065 0.10069056 -0.2699215 -0.29539275 0.3422447 0.42555287 0.3441288 -0.04112865 -0.29108417 -0.31549603 0.38123485 0.35098267 0.21738774 0.2887588 0.3218516 0.32086885 0.19355114 0.2832484 0.3964565 0.03774258 0.18882397 0.48805276 0.40676928 0.5266809 -0.14682886 -0.12884133 0.5158915 -0.0648345 -0.03445292 0.48076195 0.44292518 0.11940162 0.35207826 0.2669507 0.15099572 0.1742051 -0.05218088 0.16741413 0.10004935 0.18164694 0.1873106 0.30912632 0.19104457 0.48322636 0.043226507 0.5280057 0.028906424 -0.20717609 0.1034588 0.36384737 0.13760215 0.4615757 0.056411795 0.46162832 0.024774607 0.4603449 0.11985947 0.38272265 0.35535797 0.2948171 0.416913 0.2935569 0.4030614 0.3931199 0.45992595 0.41895705 0.3878021 0.4325427 0.4752916 0.43518406 0.3867229 0.38733196 0.38660657 0.44173664 0.39235765 0.38559616 0.36485773 0.3483779 -0.02427496 0.11292395 0.32782876 0.295013 0.22215834 0.08886551 0.18717831 0.06261156 0.062630616 0.038491286 0.23503391 0.15995952 0.105487846 0.3781353 0.39386153 0.2948404 0.24350989 0.4608231 0.46793276 0.50836843 0.477476 0.38505358 0.48199448 0.50379175 0.4580256 0.35983583 0.39004827 0.3411497 0.34688306 0.25563896 0.22163072 0.2641794 0.25296113 0.21538188 0.099524215 0.23527724 0.19051889 0.12057518 0.0813542 0.72000843 0.20962486 0.23346372 0.12681054 -0.027583461 0.07037751 0.1827834 0.25119445 0.23832685 0.1893866 0.10458296 0.09656197 0.19264431 0.28632903 0.39119482 0.5529051 0.732429 0.7618164 0.83969414 0.13851415 0.13834396 0.042074814 0.024446359 0.13706844 -0.034555163 0.3090515 0.4572969 0.63102853 0.82567763 0.86825395 0.04545356 0.071059234 0.016661916 -0.06824947 0.6450629 0.68481493 0.38024205 0.3983683 0.32771295 -0.05611798 -0.12278252 -0.14124994 0.4126466 0.5600384 0.157037 0.28096876 -0.0380634 0.12535368 0.15864126 0.1966806 0.23182467 -0.092907585 0.0270558 0.37233135 0.30201343 0.4595436 -0.30073136 0.45200813 -0.24601561 -0.06729401 0.34238207 0.059995156 0.25113738 0.0904672 0.16293696 0.1586705 0.01781