# vtk DataFile Version 2.0
Really cool data
ASCII
DATASET POLYDATA
POINTS 12340 float
-36.525387 46.452217 60.20242
-35.814636 44.99428 58.510357
-35.819893 44.837555 59.309093
-35.891716 44.938755 60.19649
-35.81862 45.155247 60.9888
-35.697357 45.563282 58.010098
-35.952507 45.52178 58.549927
-36.296524 45.69866 59.620132
-36.28402 45.72464 60.51952
-35.95642 45.711967 61.228893
-35.760723 46.027386 58.145546
-36.00108 46.31663 58.689854
-36.368446 46.52938 59.722973
-36.380314 46.553036 60.441765
-36.105972 46.543728 61.115433
-35.922215 47.105988 59.12322
-36.078438 47.210358 59.691074
-36.11525 47.223763 60.337364
-35.8834 47.210995 61.012184
-35.785297 47.6499 60.33315
-35.425472 44.317604 58.80743
-35.120224 44.09765 59.429882
-34.98792 44.19778 60.255085
-35.214706 44.748558 57.941746
-35.3241 44.422024 58.55629
-35.5365 44.539326 59.802536
-35.406784 44.52339 60.43054
-35.418186 44.96889 61.217907
-34.9686 45.351105 57.423626
-35.40138 45.4933 57.75969
-35.618027 45.32137 61.4863
-35.28452 45.608906 61.884853
-34.89028 46.082047 57.403675
-35.33449 46.27651 57.859673
-35.451595 46.740044 61.816784
-34.60082 46.976364 63.526894
-34.977123 47.07609 58.11487
-35.271515 47.335938 58.84292
-35.706997 47.55357 59.47852
-34.7989 47.3814 63.216103
-35.19819 47.838795 59.619343
-35.441822 47.811752 60.23065
-35.058636 48.062386 61.43893
-34.838287 48.323666 62.56982
-34.8718 48.121307 62.952194
-34.48807 44.29601 58.045113
-34.578255 43.943306 58.70079
-34.49736 43.812885 59.582565
-34.277668 44.031475 60.33152
-34.38967 45.078598 57.342396
-34.143044 44.716747 57.56854
-34.503788 44.543674 61.090202
-34.59464 45.71536 57.28696
-34.66553 45.662838 62.135098
-33.884975 45.99217 63.719234
-33.740543 46.151203 64.328
-34.01681 46.47299 57.130558
-34.153126 46.82924 64.253075
-33.76077 46.678223 64.73356
-33.986847 46.979702 57.24765
-34.1384 47.34582 57.68337
-34.244053 47.432323 64.28188
-33.94695 47.824505 58.095604
-34.348793 47.787907 58.6227
-34.49961 48.137638 60.261044
-34.535194 48.484867 61.443996
-34.025723 48.42771 64.33423
-33.655025 48.74649 68.692795
-33.660793 48.851463 69.494804
-34.298187 48.91525 61.797737
-34.129574 49.203896 62.652336
-34.01979 49.255203 63.317776
-33.989517 48.98629 63.957336
-33.78952 49.54908 68.766785
-33.773727 49.39636 69.4406
-33.64502 49.57357 69.97186
-33.663742 50.480328 68.87657
-33.758648 50.263386 69.480385
-33.624897 50.476437 70.04178
-33.5696 51.407074 69.029625
-33.6332 51.3313 69.538124
-33.586735 51.156006 70.10183
-32.67348 36.276516 50.809628
-32.662785 36.808113 50.071453
-32.793205 36.75416 50.533485
-32.76715 36.633957 51.285225
-32.606735 36.919487 52.141895
-32.707504 37.662018 49.989887
-32.931557 37.40499 50.632713
-32.901543 37.355648 51.32529
-32.640133 37.540134 52.085472
-32.72792 38.09085 50.143894
-32.786526 38.290314 50.614693
-32.762585 38.285736 51.22381
-33.699303 43.833786 58.507072
-33.226135 43.73988 59.29811
-33.61456 44.114525 60.37237
-33.227722 44.80529 57.255573
-33.032566 44.427086 60.635582
-33.7406 45.063316 61.79351
-33.317303 45.645794 56.90706
-33.3561 45.534725 62.624557
-33.24659 45.64131 63.549664
-33.373096 45.93252 64.34192
-33.096188 46.164562 64.894905
-33.61431 46.227837 56.945736
-33.305187 46.8705 64.97343
-33.500717 47.170044 57.159313
-33.615746 47.430214 57.455368
-33.37598 47.627827 65.04209
-33.094666 48.167778 68.56931
-33.010674 48.08376 69.39489
-32.884525 48.192085 69.998795
-33.59317 47.85598 57.898056
-33.189415 48.144638 58.512577
-33.6237 48.27857 60.29518
-33.329674 48.24313 65.07384
-33.544537 48.5491 68.8698
-33.36375 48.471 69.55651
-33.23377 48.816814 70.208755
-32.834595 49.103172 70.81204
-33.3796 49.435658 62.351814
-33.416878 49.32536 67.99399
-33.436172 49.496067 70.31848
-32.919914 49.75452 71.00626
-33.075584 50.023335 62.804176
-33.182243 50.052544 63.41644
-33.0413 50.21006 63.949306
-33.334053 50.470802 68.41222
-33.433144 50.332348 70.45387
-32.969242 50.37083 71.06357
-33.406902 51.65184 68.87486
-33.51349 51.73374 69.50984
-33.414898 51.40296 70.28146
-33.05081 51.38505 70.868355
-33.019695 52.1482 68.81775
-33.147568 52.246574 69.528564
-33.01245 52.103275 70.26737
-32.655582 53.709034 66.40055
-32.75717 53.85878 67.0656
-32.61149 54.309647 65.98633
-32.720543 54.308983 66.495964
-32.669704 54.29951 67.3957
-32.53592 54.092255 67.8886
-32.60537 54.94616 66.647446
-31.669239 36.034267 49.13353
-32.02986 36.02611 49.755013
-32.24746 35.976128 50.57515
-32.26347 36.03497 51.27153
-32.019005 36.20842 52.03924
-31.796776 36.47471 48.98158
-32.32107 36.45684 49.7545
-32.510067 36.373154 51.612625
-32.3562 36.71004 52.1878
-31.903036 36.837116 53.01736
-31.905409 37.446087 49.00668
-32.556614 37.695713 49.775017
-32.4643 37.429874 52.523968
-31.986523 37.473324 53.33115
-31.704792 37.657684 53.68319
-32.013645 38.17153 49.279064
-32.163002 38.447178 49.601345
-32.51137 38.553284 51.691227
-32.378883 38.440098 52.350433
-31.960665 38.285122 53.329445
-32.054565 38.961678 49.93546
-32.204666 39.21034 50.69568
-32.286766 38.951565 51.69857
-31.95406 39.104073 52.23522
-31.765076 39.022213 53.01444
-31.610945 40.725082 57.571
-31.527729 41.11502 57.17458
-32.03705 44.162148 57.954544
-32.691418 43.97245 58.541134
-32.08478 44.67848 61.05924
-32.61245 45.681988 63.574482
-32.87787 45.771343 64.52223
-32.61319 46.573853 56.853687
-32.834843 46.59436 65.1281
-32.382675 47.475372 57.34474
-32.65947 47.600044 57.42065
-32.304985 47.76158 66.17526
-32.392693 47.92216 68.63537
-32.4453 47.813457 69.57671
-32.48669 48.070667 70.13794
-32.49396 47.824173 57.75877
-32.130184 48.37332 59.43971
-32.24687 48.46942 66.706825
-32.60167 48.51228 67.611855
-32.476322 48.44093 70.529175
-32.40014 48.947296 70.93526
-32.444763 49.508194 61.789093
-32.255913 49.432602 66.31844
-32.364025 49.509884 71.44367
-31.935764 49.752068 71.996056
-32.03804 50.51335 63.001324
-32.614998 50.48692 63.217083
-32.316975 50.58125 64.73342
-31.949642 50.301514 65.5998
-31.73291 50.69442 66.194534
-32.08769 50.581364 67.64853
-32.615707 50.398235 71.53676
-32.14053 50.49046 72.001274
-32.609375 51.40049 67.802414
-32.46712 51.3899 71.44162
-32.165157 51.453743 71.78997
-32.06166 53.089523 65.79066
-32.24387 53.688625 65.66774
-32.493034 53.37259 67.11574
-32.338497 53.634186 68.73017
-32.009476 53.014816 70.69575
-31.695326 52.93282 71.200615
-31.77271 54.11692 65.25168
-32.31867 54.47769 65.75313
-32.513424 54.68401 67.55924
-32.30523 54.587593 68.205795
-31.797808 54.07692 68.98292
-32.064423 55.11216 65.877686
-32.28166 55.216953 66.527626
-32.241627 55.262268 67.346375
-32.02205 55.03854 68.12327
-31.8607 55.70327 66.80587
-31.800596 55.721397 67.43093
-30.968502 35.25576 49.280975
-30.937881 35.216324 50.009724
-30.849415 35.99858 48.405178
-31.167692 35.785496 48.794727
-31.466679 35.58082 49.451385
-31.526773 35.59971 50.553818
-31.531027 35.76709 51.668427
-31.30116 35.998753 52.301323
-31.100067 36.27594 53.015022
-30.987318 36.664665 48.29058
-31.372087 36.571854 48.58259
-31.476381 36.712807 53.377167
-31.132671 36.958244 53.775036
-30.92722 37.62534 48.2845
-31.339575 37.490223 48.573677
-31.168047 37.616497 54.046707
-31.337927 38.293446 48.839508
-30.68541 38.927414 54.617363
-31.0444 39.133106 57.661564
-30.900887 39.185978 58.380177
-31.478249 38.924683 49.29993
-31.478813 39.0325 49.532467
-31.062824 39.719444 53.47713
-30.603586 39.747627 55.093895
-31.312197 39.855213 56.797447
-31.19882 39.64441 58.510887
-30.94408 39.69689 58.999004
-30.826828 40.07836 50.75188
-31.318552 39.963463 52.173138
-31.01531 40.201214 53.276665
-31.31827 40.75259 56.72241
-31.456924 40.297695 58.10725
-31.112085 40.42648 59.002728
-30.738792 41.898792 53.216698
-30.771744 41.929565 55.72398
-31.276524 41.377285 56.755478
-30.864761 42.848083 54.661972
-30.838017 42.222042 55.49393
-31.369951 42.78514 57.068645
-31.181477 42.920113 58.6261
-30.992834 42.449295 58.92937
-30.59799 42.807503 62.571335
-30.584404 42.762352 63.626034
-30.635395 42.66884 64.17326
-30.552843 43.702515 51.482594
-31.064182 43.71962 53.574123
-30.965195 43.92263 54.198257
-30.974615 43.47395 55.937645
-30.613907 43.70549 61.37149
-30.626207 43.246838 63.2161
-30.587545 43.044365 64.52692
-30.580116 44.18371 51.792675
-30.740252 44.260212 52.526443
-30.93382 44.09439 53.17177
-31.109625 44.465042 63.15712
-30.99339 45.58202 56.866043
-31.404146 46.167774 64.66399
-31.0873 46.10868 56.78986
-31.148046 47.45481 57.843075
-31.43651 48.231403 67.34831
-31.868649 47.719284 69.003746
-31.584831 47.717922 69.502914
-31.568161 47.90181 70.23345
-31.408155 47.85216 58.038914
-31.414072 49.138485 71.81844
-30.959661 49.553802 61.43263
-31.499813 49.60254 72.14682
-31.507242 49.803555 61.78242
-31.382843 50.46919 62.662575
-31.619389 50.553284 72.48734
-31.119616 50.593067 72.75299
-31.039757 50.58295 63.02738
-30.932251 50.7688 63.468605
-31.57479 51.449486 72.454735
-30.775833 51.65577 73.10946
-30.673746 52.425175 64.787796
-31.344778 52.4746 72.09597
-30.740915 52.369644 72.78201
-31.264868 53.287582 71.314865
-31.262835 52.86532 71.94135
-30.96254 54.387714 64.78582
-31.308043 54.366882 69.26139
-31.230219 53.899292 70.37109
-31.487051 54.838947 65.3464
-31.410187 55.37706 65.75469
-31.618057 55.39494 68.25556
-31.104906 54.851917 69.23313
-31.313744 55.771713 66.1111
-31.334406 55.949566 66.70882
-31.369251 55.944454 67.220764
-31.326185 55.678867 67.937996
-30.541508 35.267994 48.92624
-30.657524 35.13289 49.367702
-30.647806 35.349525 50.64317
-30.491678 35.91514 48.32065
-30.45522 35.5269 48.585194
-30.334461 35.73269 51.458744
-30.491732 35.670403 52.066555
-30.261255 36.233128 53.33397
-30.448803 36.553814 48.146717
-30.735752 36.8264 53.82097
-30.304825 37.410873 48.04098
-30.220182 38.223717 48.11086
-30.369112 38.935 58.53736
-30.250578 39.072174 58.95484
-30.076092 39.426094 48.75172
-30.542168 39.571182 59.31068
-30.472994 40.01575 59.58582
-29.731594 40.82454 64.72927
-29.6823 40.774998 65.099205
-30.21306 41.38325 51.77815
-29.668844 41.926594 61.678814
[...]
POINT_DATA 12340
SCALARS features_00 float 1
LOOKUP_TABLE default
0.7498683 0.7420057 0.7211931 0.6786176 0.6511663 0.7143624 0.75029314 0.78418684 0.73670167 0.67739606 0.70378363 0.7344731 0.7470937 0.73389983 0.69744223 0.65839684 0.6519314 0.64167213 0.61832345 0.56240815 0.71271294 0.6632115 0.6064165 0.71156675 0.7206776 0.6673499 0.6251088 0.5900991 0.667459 0.6938561 0.61650556 0.5652421 0.6212054 0.6445365 0.59591633 0.47485012 0.57644176 0.5697354 0.57811475 0.50216407 0.48758107 0.5103024 0.43360257 0.4663582 0.50702083 0.6868298 0.67676604 0.6274966 0.54533064 0.64965856 0.6551783 0.48553923 0.628796 0.440483 0.41144228 0.434593 0.54914117 0.46216214 0.44188437 0.5227861 0.51436263 0.4832915 0.4716712 0.4730999 0.38317627 0.36711252 0.54349774 0.6170633 0.6204221 0.3554524 0.41308746 0.44998795 0.51748365 0.60115176 0.60512656 0.57774645 0.534024 0.5535488 0.53164667 0.4692784 0.4918486 0.5029925 0.69825053 0.70544875 0.70871216 0.68688655 0.63394415 0.6771194 0.70836973 0.6920109 0.6387768 0.6626922 0.6736461 0.6671527 0.6178888 0.5716664 0.4687338 0.5963878 0.32760528 0.27910447 0.55824333 0.24011572 0.33122218 0.40897995 0.40915298 0.5353447 0.42395788 0.48571283 0.48516214 0.41661313 0.5837908 0.62047976 0.61703783 0.4555428 0.3924684 0.30083725 0.40383005 0.61948884 0.6241587 0.5926728 0.5354483 0.34013337 0.56446415 0.5614916 0.50161743 0.33153412 0.35979873 0.35189006 0.50673395 0.5210688 0.4842078 0.43097818 0.45702702 0.49048442 0.47801235 0.35183305 0.37997675 0.4344474 0.6323178 0.57811666 0.69994116 0.67634326 0.5913483 0.5042966 0.7006984 0.7017681 0.71002376 0.69513965 0.6627375 0.6054621 0.67890614 0.7036966 0.65929055 0.6207543 0.5625522 0.6141559 0.6582089 0.60960484 0.5581367 0.5252629 0.5734101 0.58524257 0.6024816 0.5574262 0.5123574 0.5647031 0.5906187 0.54161507 0.45575988 0.40936837 0.38554788 0.21872276 0.31517166 0.4975013 0.044833355 0.26533523 0.3744272 0.419792 0.38234395 0.37140355 0.40336722 0.108278766 0.5455497 0.6078973 0.60588336 0.36872506 0.22135678 0.18774861 0.41545698 0.5765692 0.5271044 0.23987375 0.13236062 0.4827901 0.46764457 0.23655121 0.29906 0.3195297 0.21461895 -0.04347007 0.2320078 0.45818096 0.4370342 0.26921868 0.43679363 0.41072243 0.5554027 0.6519762 0.4887011 0.3257822 0.2590341 0.2714308 0.6026723 0.70634556 0.6066054 0.52163655 0.35869265 0.7210125 0.72342956 0.66166043 0.55730283 0.7097274 0.66585153 0.7262904 0.69618475 0.67985225 0.7045516 0.7196909 0.67431575 0.5869872 0.531103 0.47463793 0.62066954 0.651543 0.5176639 0.47621435 0.5012243 0.5545584 0.47215864 0.47794062 0.24852142 0.539909 0.518806 0.4716714 0.47440875 0.23245473 0.024545603 0.37989947 0.56279683 0.5391253 0.37620342 0.312482 0.14607841 0.18591237 0.5507188 0.5565007 0.116816774 0.008832 0.1089689 0.050059453 -0.0012870468 0.047426388 0.101251766 0.2596842 0.24857962 0.30539542 0.3572095 0.45106977 0.3002692 0.2759029 0.015406735 0.044317566 0.2346451 0.36163208 0.45234627 0.4340556 0.3951266 0.07722993 0.16378915 0.1737716 0.20268606 0.19549556 0.12361667 0.525752 0.5168369 0.5236025 0.2127642 0.49531066 0.094301865 0.47770026 0.1752149 0.16612844 0.4213968 0.41038066 0.12692437 0.10850227 0.38171864 0.36581886 0.26977015 0.3131194 0.3302048 0.22935686 0.27649644 0.46452606 0.34446627 0.2313143 0.6073605 0.6611415 0.5506383 0.3823809 0.68912256 0.6941682 0.67144024 0.59313047 0.7167728 0.7212783 0.59661686 0.67721415 0.702847 0.46125183 0.42840734 0.33914712 0.60947216 0.41322938 0.49156454 0.38503653 0.46978176 0.46583265 0.29454172 0.4973974 0.48832244 0.54873765 0.5849878 0.119545996 0.27319697 0.35261935 0.33922037 0.45328984 0.5430236 0.5512245 0.4446565 0.40151897 0.26276964 0.33801106 0.42650113 0.5051648 0.465556 0.46046686 0.35390803 0.46939415 0.4700813 0.4685085 0.16015835 0.4667938 0.46283323 0.4029375 0.282798 0.13834894 -0.014359623 0.29406428 0.25986505 -0.1258597 -0.14462522 0.14672719 0.16863406 -0.06797951 0.2151604 0.30998677 0.019649774 0.030190289 0.2978896 0.39656562 0.39335775 0.44936937 0.036652308 0.37863877 0.37543997 -0.16361836 0.35785636 0.2934675 0.37605557 0.20169011 0.20121336 0.37849253 0.41084898 0.27947122 0.21491024 0.43792325 0.5593233 0.38875493 0.33637238 0.6529032 0.6383938 0.59540975 0.51706266 0.6941231 0.6484463 0.67849064 0.57791436 0.40593517 0.34112638 0.17947154 0.13166977 0.59523904 0.2368376 0.03092618 0.41564 0.06903286 0.12259305 0.30241764 0.32222492 0.3326485 0.3740972 0.40663272 0.30474132 0.377204 0.26153877 0.578764 0.59291327 0.580878 0.3588289 0.31755182 0.3242521 0.25786385 0.57234776 0.607189 0.6025298 0.37572834 0.2021839 0.58572555 0.5178473 0.4017771 0.4327376 0.4443658 0.39321423 0.41631365 0.2351284 0.41411906 -0.28534773 -0.021863699 -0.2763334 0.38078946 0.39344478 0.16429414 0.039711803 0.28103888 0.23279479 0.19046436 0.0691133 -0.0041173324 -0.011159267 0.022616655 0.21625957 0.13910107 0.33407658 0.40968916 0.462385 0.43557468 0.3650633 0.08113437 0.02218479 0.37255627 0.53633094 0.5107621 0.33359075 0.20185843 0.00994882 0.37753657 0.58359635 0.48112237 0.24120532 0.27982736 0.61709845 0.63935715 0.62030745 0.37222534 0.39518777 0.15894127 0.63166344 0.64614224 0.6435619 0.42488414 0.33871824 0.32054642 0.4929584 0.48833886 0.34034413 0.33442143 0.49729055 0.50939727 0.26235068 0.022783048 -0.025147572 -0.004037887 0.53222346 0.021234512 0.3750918 0.06468598 0.10920477 0.32046032 0.33724076 0.48249328 0.5010396 0.3537522 0.33184004 0.2757632 0.50844634 0.5365199 0.5426525 0.3850794 0.39096636 -0.0077372347 0.08735934 0.19165257 0.33988228 0.559379 0.42328185 0.40128243 0.38135922 0.5635318 0.45652148 0.33755386 0.37111184 0.35787153 0.32566345 0.116744176 0.35409087 -0.17723392 0.09054357 0.11456864 0.36367515 0.29431748 0.1427566 -0.0777489 0.028346868 0.34041566 0.27995366 0.23472717 -0.043083057 -0.06331244 -0.086397454 0.0025706887 0.079977885 0.18814509 0.2584676 0.28324994 0.33867365 0.7287383 0.76406884 0.77869684 0.7530758 0.43931276 0.49244258 0.16286907 0.044268653 -0.06320174 0.23716344 0.6240262 0.76625365 0.7277988 0.5117881 0.24633512 -0.010421976 0.4944464 0.61657506 0.6693887 0.67597306 0.5387641 0.5784837 0.51560056 0.51135087 0.30715707 0.3492225 0.14229405 0.3650077 0.44873214 0.45532596 0.4866072 0.5781715 0.6169288 0.6515728 0.643349 0.38323328 0.2773834 0.328723 0.30798137 0.2703504 0.2340201 0.16192272 0.25254077 0.4073583 0.40876096 0.4214258 0.6550615 0.32044414 0.19012009 0.20999786 0.09462917 -0.15357152 -0.06589754 -0.029106528 0.30426794 0.00247591 -0.00094710104 0.31807765 0.40464836 0.37137294 -0.25771224 0.41608906 0.45918643 0.4078601 0.07506268 0.43361288 0.7034959 0.4318943 0.4276032 0.5391049 0.62162083 0.71426845 0.7337991 0.74241114 0.31226754 0.36226073 0.49052423 0.54976434 0.65556693 0.74376214 0.76941645 0.7558514 0.32092917 0.38680312 0.5975556 0.6426517 0.7086798 0.27032447 0.21276362 0.4110229 0.4921525 0.32969925 0.18686098 0.37538666 0.13110974 0.031844784 0.43428528 0.40039822 -0.14398772 0.4251852 0.38251603 0.316473 0.21964791 0.13646166 0.3864643 0.3615472 0.30812472 0.2486299 0.1798597 -0.18080592 -0.0948749 -0.23980528 0.09350369 0.010421678 0.18504813 0.13917519 0.7455482 0.7491218 0.73552513 0.124749035 0.7639656 0.7216623 0.663502 0.26783308 -0.16058694 0.68981564 0.6522746 0.3502224 0.63269705 0.6099293 0.45679387 0.48050636 0.49256092 0.5933499 0.6068132 0.5299951 0.16045845 0.2712817 0.20505677 0.21538696 0.21736997 0.020318579 0.10669025 0.3930248 0.38253224 0.57412 0.6322799 0.62466323 0.07732566 0.146806 0.22633052 0.3153912 0.3557915 0.3410638 0.7140245 0.47302476 0.44694138 0.41330475 0.4017486 0.47308135 0.6717233 0.7709936 0.4179072 0.40648913 0.3718306 0.31010562 0.361534 0.48455653 0.74745923 0.3260482 0.27891675 0.2675243 0.09162827 0.108914174 0.18759272 0.30585134 0.39952195 0.29636115 0.29631704 0.24452814 -0.16725184 0.006408414 0.26724547 -0.061446227 -0.08394086 -0.07619581 -0.15798917 -0.14227562 -0.04204052 0.09931015 0.12025998 -0.12837586 0.117116615 0.08899428 0.25319812 -0.1169509 0.17021698 0.23710865 0.2889883 0.29411966 0.3452648 0.05813481 0.28341907 0.388645 -0.48823357 0.5160578 0.5942507 0.6753011 0.7160553 0.7205949 0.42189303 0.42982024 0.32615465 0.41034263 0.48460338 0.5217743 0.5939062 0.725785 0.7288689 0.3918468 0.18945724 0.35155275 0.39775229 0.7466824 0.19626543 0.27260926 0.75403875 0.25644416 0.24719535 0.055733237 0.1581835 0.16837037 0.295715 0.37696263 0.41909674 0.2672378 -0.23966762 0.23714393 0.41033757 0.43913603 -0.33719695 0.43238932 0.41811985 -0.30920196 0.38227826 0.33966953 0.29584736 0.1941145 0.10578881 -0.056957304 -0.19690886 -0.04237815 0.3022064 -0.06757833 0.025738819 0.67444557 0.69945204 0.68933415 -0.0028606877 0.66016656 0.624136 0.10756432 0.5225521 0.20948261 -0.11196701 -0.41085017 -0.39989632 0.49268222 0.24991927 0.24310862 -0.28236464 -0.12903337 0.39203262 0.051013656 0.096393965 0.0794525 0.4649679 0.5264361 0.20664705 0.053124353 0.07653713 0.20624572 0.28747568 0.18136108 0.064778656 0.067838386 0.54656607 0.75081015 0.8120999 0.5432425 0.5106637 0.43375802 0.30308217 0.35117096 0.43190014 0.55395526 0.693187 0.8423358 0.8848697 0.54510385 0.49182218 0.39907864 0.2840082 0.31378338 0.4011222 0.53813446 0.845424 0.88013256 0.43004832 0.22721992 0.28436297 0.78424466 0.8420703 0.28539556 0.2220317 -0.07969391 0.110745035 0.25915965 0.5193623 0.71292233 0.75441873 0.27898914 -0.15274765 0.013366461 0.08770393 0.3339094 0.23551296 0.22641993 -0.05666109 0.020725936 0.10907797 0.15013736 0.1890975 0.13373359 0.09469941 0.15462236 0.038289122 0.008210577 0.26050627 0.32139707 0.3699962 0.02144824 -0.08738236 -0.006489232 0.102217935 0.32025787 0.2858435 -0.39542842 -0.20671599 -0.1874249 0.2803804 0.21601167 0.575264 0.6274289 0.6729153 0.17525868 0.4895631 0.52630603 0.5941279 0.6838324 0.71561337 0.71338165 0.25890264 0.42244172 0.70916 -0.17992552 0.20602258 0.70285034 0.29568654 -0.1345473 -0.6205037 0.35379487 0.49002555 0.13661398 -0.08711374 0.04652523 0.10445748 0.33520442 0.6584077 0.70608914 -0.33019796 -0.011155516 0.11829615 0.651621 0.72831637 0.68288714 0.74898314 0.41134435 -0.41331568 0.40436384 0.3647329 -0.1180333 -0.24042696 0.32728827 0.28869408 0.23956616 -0.007949732 -0.1628293 -0.31707546 -0.14195575 0.027711809 0.09244497 0.38517392 0.54535556 0.28163987 0.25075912 0.12573972 -0.021525368 -0.17676118 0.01568751 0.07515524 0.32404777 0.44348148 0.547153 0.11171148 0.034538552 0.44843045 0.310547 0.16294082 0.037192892 -0.3551644 0.40370396 0.36160284 0.30409914 0.24580882 0.13263239 0.17372666 -0.25386703 -0.3162094 -0.37951007 -0.37734228 0.3640192 0.27290863 0.007191879 0.115264 -0.08477108 -0.06725297 -0.025390044 -0.018108916 0.08970318 0.007847807 0.015771307 -0.22457752 0.30151528 0.37733805 0.38690132 0.34530425 0.09901058 0.20416254 0.2169462 0.6274158 0.26528162 0.098865144 -0.034676477 -0.042508952 0.08261623 -0.10880157 0.20771165 0.34437603 0.37979364 0.19279481 0.2287795 0.2367051 0.20150843 0.029903406 0.10594377 0.21182056 0.27253312 0.39228377 0.64968836 0.6050494 0.36256248 0.21068236 0.1830608 -0.060570225 -0.025469698 0.05843675 0.25864917 0.3691318 0.39928117 0.35517573 0.25012252 0.2551508 0.15587452 0.4635498 0.51093996 0.727063 0.6975738 0.64668953 0.62106395 0.36357808 -0.07254397 0.5630751 0.5793242 0.73497903 0.71871334 0.69846404 0.6638855 0.60770446 0.55769515 0.2326462 0.2841565 0.68940455 0.6467974 0.61805403 0.5761467 0.266542 0.31824568 0.3512498 0.62757754 0.6158755 0.42030483 0.5426134 0.554014 0.5554097 0.5955255 0.73824906 0.79414487 0.78055274 0.76934063 0.81956434 0.87410605 0.8565943 0.86963 0.8944914 0.5634445 0.5482147 0.4403876 0.5317627 0.60549957 0.74242735 0.8568623 0.8648423 0.55122757 0.563689 0.5416633 0.4480876 0.12436944 0.30612648 0.874372 0.8564706 0.4978451 0.21144034 0.867576 0.8517896 0.24877316 0.24351057 0.35916197 -0.0017076582 0.8344312 0.8331901 0.27110782 0.27877337 0.6301761 0.74956894 0.26756033 0.43069822 0.51236683 0.19957684 0.23788035 0.033157796 0.17947012 0.35545826 0.36451855 0.36840862 0.13985123 0.38736147 0.30338573 0.10280455 0.2304379 0.16811483 0.08019855 0.20090154 0.57441 0.627404 0.6800933 0.6895593 0.0083988365 0.45321912 0.68423146 -0.26912254 0.20649888 0.6531267 0.47588867 0.33413708 0.25832847 0.6199533 0.5521295 0.43861723 0.527653 0.5474714 0.72975844 0.5306968 0.66762316 0.6945044 0.7956662 0.723215 0.5451441 0.40008283 0.7335345 0.77965945 0.768306 0.33734858 0.6552356 0.792684 0.38801402 -0.27955997 -0.33233744 0.3467236 0.34216443 0.30974284 -0.15062094 0.40163547 0.30261302 -0.07814923 0.43742406 0.30461752 0.00051411986 0.44662413 0.40398636 -0.35347715 0.33834732 0.39606506 0.3557664 -0.296851 -0.3045964 0.08990263 -0.19095184 -0.28877708 -0.00079572015 0.17267011 -0.023954064 0.051107086 0.12596315 0.68725765 -0.121386066 -0.120962314 0.20757198 -0.0425255 0.15767613 0.35581824 0.7209364 0.6954551 -0.05882059 -0.030733246 -0.015242368 0.15799299 0.29782882 0.25441453 0.21723074 0.23231313 0.17623384 0.06827603 0.5230957 0.48328975 0.74658024 0.7198419 -0.06868301 0.030113209 0.1044138 0.33602312 0.358818 0.2894961 0.15789036 0.26941657 0.3536441 0.57899225 0.6438806 0.6089997 0.7569905 0.73908746 0.34588623 0.2375768 0.23999405 0.18316148 0.13463381 0.58162266 0.6478913 0.69033897 0.68575454 0.73267686 0.70127857 0.65298766 0.30825225 0.35625806 0.64475083 0.62834233 0.60456485 0.5635564 0.43266493 0.45153168 0.7301671 0.7088979 0.7461442 0.8261018 0.840557 0.7503482 0.80296004 0.8808241 0.92301166 0.90497434 0.5573142 0.5509274 0.28839535 0.51240075 0.62739515 0.74276537 0.8066157 0.8374245 0.52783424 0.5466782 0.5181525 0.35369027 0.285747 0.062361225 0.050224364 0.08061421 0.13012132 0.8412248 0.8464951 0.4153341 0.18550527 0.049779944 0.8069829 0.8249238 0.21707737 0.78195953 0.79991895 0.25573677 0.23866762 0.730731 0.2133674 0.24622642 0.3450873 0.5118214 -0.122173786 0.14932156 0.16207792 0.11959109 0.2860892 0.28372204 0.30724597 0.18897268 0.24815094 0.71481067 0.6756551 0.45776826 0.14328009 0.7501348 0.7017779 0.6361966 0.061603982 0.024887087 0.6443682 0.6559493 0.7709264 0.7354593 0.69416696 -0.0050343424 0.17762214 0.38653985 0.58844113 0.61297476 0.57502645 -0.26082858 0.5261674 0.48255694 0.16966407 0.15241279 0.32553172 0.23768373 0.3749669 0.3895253 0.46507853 0.54289496 0.81204295 0.5758794 0.6691839 0.8055944 0.8181571 0.44228762 0.7151919 0.81169057 0.7777776 0.35180154 0.7598694 0.4247846 0.38407636 0.86027634 0.8134277 0.4223343 0.40063184 0.39489323 -0.37932456 -0.5000607 0.38048208 -0.7876521 0.4059437 0.34924316 0.5293239 0.33362037 0.3172774 0.4675511 0.36126652 0.36067814 0.17802349 0.24493119 0.108290106 0.71137345 0.64649516 -0.05776807 0.017110959 0.35488892 0.75507486 -0.039108083 0.12050398 0.15348418 0.49067575 0.7876088 0.15616466 0.16534245 0.19563684 0.07787003 0.6426957 0.58353823 0.77694595 0.09351164 0.10407017 0.27833107 0.52679634 0.6386056 0.6985189 0.68920255 0.7535074 0.70244443 0.61429596 0.37261927 0.18632483 0.094868615 0.64228284 0.6744163 0.55013514 0.5544004 0.5598768 0.52594054 0.09845388 0.17605886 0.33822858 0.5640639 0.6726886 0.81885904 0.7541311 0.8450186 0.93216395 0.9761508 0.9093108 0.2241308 0.26404747 0.31594592 0.44882947 0.5968244 0.66297734 0.7494391 0.80156946 0.46709105 0.5172191 0.46576267 0.19992058 0.11123368 0.17411236 0.70758736 0.80237395 0.33511594 0.784426 0.21356387 0.17571601 0.16849157 0.7620859 0.25151652 0.7068231 -0.05322221 -0.3089972 -0.28853962 0.14822891 0.16128603 0.17196806 0.22848092 0.68264735 0.6320572 0.289239 0.073762566 0.76384103 0.7392535 0.63897216 0.08042065 0.79589075 0.76960236 -0.1324215 0.8315109 0.81061494 0.7745321 -0.23515365 0.0921558 0.44613197 0.53434414 0.51967853 0.49701983 0.8400633 0.81986624 0.7613987 0.56716645 0.4101055 0.37965965 0.3454762 -0.08002108 0.23165566 0.28458557 0.37192863 0.78489935 0.45454824 0.4929543 0.78360736 0.7893171 0.5515325 0.7936858 0.35612717 -0.10632299 0.6101876 0.654192 0.7947736 0.7816124 0.7033661 0.6296794 0.7336759 0.23306783 0.3979569 0.7831943 0.39498794 0.22899756 0.21756756 0.39417642 0.22356845 0.41838762 0.35791305 0.54384625 0.31820118 0.54279876 0.24258316 0.2738278 0.13279404 0.03140016 0.18508859 0.0031024814 0.6851741 0.10361032 0.69630444 -0.09840036 -0.044165123 0.48853752 0.78714764 0.078263305 -0.05910821 -0.081538565 0.014824422 0.6152406 0.5599568 0.76543695 0.7052208 0.07739509 -0.03745912 0.14966342 0.24292476 0.28480422 0.34174168 0.33648545 0.30053785 0.44758165 0.6669749 0.6697829 0.5734833 0.49572736 0.1230302 0.35429847 0.39182127 0.37973094 0.60692275 0.47380322 0.43681347 0.38639137 0.3090446 0.122962445 0.5897091 0.408691 0.532982 0.6308098 0.7615969 0.70987993 0.84021103 0.88295007 0.82844794 0.5207515 0.52137685 0.423393 0.44073075 0.4835305 0.4550901 0.3006136 0.3187555 0.33299753 0.3205129 0.27394497 0.5125988 0.66917133 0.2284886 0.48039088 0.28211868 0.23334311 0.62456286 0.6978612 0.33564526 0.071762875 0.6100942 0.5638877 0.26765996 -0.18406409 -0.11295208 -0.03393303 0.670547 0.6152648 0.045846984 0.087797 0.22372478 0.7749239 0.71866614 0.17074668 0.2909763 0.83608115 0.048974503 0.8698963 0.8685 0.8610748 0.83133477 0.7790109 0.4719182 0.17836873 0.20199859 0.25850433 0.27359703 0.2822498 0.28633612 0.26697722 0.33136636 0.7186984 0.39963657 0.4100175 0.7531647 0.119686164 -0.06816369 0.43459827 0.478638 0.7698441 0.73667264 0.6096167 0.48384592 0.31304637 -0.1753987 0.49882632 0.61129963 0.77868026 0.74234176 0.655455 -0.03754181 0.5041604 0.31304199 0.12684903 0.4881038 0.35366493 0.2717695 -0.33621266 0.38232365 0.039918467 0.38258028 0.15881874 0.33640134 0.15775198 -0.13838348 0.073011935 -0.33901784 -0.073346935 0.18166178 0.6128895 0.6768704 0.6201345 -0.17322446 0.507796 0.2890553 0.5625099 0.11032604 0.22930157 0.2858116 0.40541792 0.3035772 0.43541 0.315062 0.47640824 0.50184524 0.4222341 0.15016784 0.20188157 0.29620183 0.32274854 0.3879338 0.42260885 0.4053784 0.46755147 0.50899297 0.52194506 0.52443635 0.42363924 0.40456697 0.36988813 0.17908011 0.15565068 0.38064522 0.39822564 0.43536863 0.65198517 0.56235564 0.6061877 0.6807983 0.66485834 0.67144537 0.7065403 0.7489422 0.58584124 0.60783285 0.5801662 0.53939605 0.46877652 0.27054754 0.31952506 0.24386525 0.28584966 0.16286725 0.17385626 0.29252568 0.4016034 0.35847512 0.29853493 0.2024182 0.31867594 0.44464666 0.4521413 0.274971 0.14889114 0.45021087 -0.1778126 -0.074258596 0.07077066 0.11438967 0.6788161 0.661623 0.58868945 0.49242637 0.3059089 -0.10894735 -0.048874035 0.07878825 0.09600957 0.175388 0.71493393 0.06410625 0.2092204 0.3008171 0.36453903 0.75010324 0.7250918 0.39891115 0.8568591 0.87935287 0.8454191 0.83169305 0.7770288 0.69447637 0.08232946 0.44391936 -0.26389706 0.017853983 0.2092449 0.29100475 0.31102633 -0.20571603 0.255261 0.29612324 0.32619858 0.51051277 -0.17844692 -0.31775558 0.093547106 0.2523523 0.31161126 0.66289747 0.5895932 -0.30317613 0.12405904 0.7040293 0.6618898 0.585906 0.4721216 0.38017017 0.41805735 0.47430986 -0.068216726 -0.06967626 0.4595028 -0.027611196 0.43174198 0.61013865 0.64222014 0.30654478 0.6247362 0.6869161 0.32182348 0.22951362 -0.015105337 -0.04909017 -0.009610355 0.31087142 0.5588542 0.67612624 0.69940233 0.35460263 0.5046897 0.621634 0.6736362 0.3001752 0.38728186 -0.110863596 0.065519765 0.026886404 0.07455206 -0.346995 0.20836055 0.12871908 0.51816756 -0.21364185 0.42913836 0.29645354 -0.02605743 0.31138572 0.07448709 0.31825846 0.26103252 0.40067336 0.38144505 0.30228695 0.25586104 0.22239165 0.11309762 0.21902145 0.44280845 0.5353569 0.5490828 0.56689715 0.56668735 0.4754739 0.19002226 0.17444094 0.18142012 0.41739303 0.26903033 0.31316257 0.39028692 0.42685512 0.45502317 0.46250835 0.58606064 0.5985296 0.59382296 0.4310152 0.5083773 0.52406156 0.521172 0.5341567 0.5691869 0.6138599 0.6279999 0.6552408 0.653072 0.6513729 0.62069845 0.5912349 0.6393099 0.5952839 0.51464754 0.341215 0.34777498 0.31922272 0.3440051 0.13870195 0.38181007 0.38540146 0.49303728 0.4837390