# vtk DataFile Version 2.0
Really cool data
ASCII
DATASET POLYDATA
POINTS 10530 float
-14.570338 61.174835 50.989555
-14.68953 60.959644 51.884594
-14.591419 60.895958 52.08639
-14.563332 62.00256 50.035347
-14.611508 61.618732 50.650494
-14.794517 61.529488 51.697723
-14.781013 61.58688 52.257534
-14.558321 62.35232 50.148125
-14.640515 62.455418 50.653854
-14.835982 62.35421 51.542843
-14.791623 62.410103 52.360203
-14.646984 62.382336 52.860123
-14.670551 62.90024 51.689617
-14.686693 62.957066 52.358574
-14.113266 60.22276 51.4853
-13.881211 61.10141 49.856415
-14.134499 60.827396 50.592606
-14.367679 60.607994 51.568302
-14.3836775 60.735962 52.593292
-14.209663 61.0421 53.039394
-13.67159 61.041695 59.389202
-13.590657 60.749786 60.679295
-13.557527 60.89294 61.72907
-13.822612 61.789974 49.260216
-14.125509 61.704308 49.662273
-14.391748 61.43379 50.285458
-14.284316 61.610447 53.267345
-13.862878 61.599648 53.773224
-13.751936 61.59495 58.723774
-13.886172 61.581516 59.415302
-13.808398 61.461 60.30838
-13.594223 61.427467 61.465633
-13.918834 62.2833 49.31479
-14.253298 62.405994 49.706802
-14.506934 62.10423 50.202663
-14.539217 62.541862 52.97226
-13.976751 62.226936 53.719673
-13.798297 62.256836 58.803627
-13.920601 62.267998 59.461926
-13.782836 62.397488 60.211487
-14.050955 63.009827 49.8245
-14.174489 63.2882 50.709934
-14.382925 63.182755 51.524647
-14.306018 63.363533 52.315533
-13.8322735 62.92167 53.43927
-13.595224 63.31983 59.247894
-13.604627 62.93735 60.094757
-13.93478 63.642563 50.91629
-13.983496 63.601646 51.716038
-12.743748 57.697987 51.89011
-12.703267 57.72179 52.33988
-12.78964 58.462414 51.602272
-12.804439 58.32756 52.04183
-12.973201 60.363274 50.171825
-13.529573 60.245018 50.793503
-13.248396 59.55143 51.78176
-13.313798 59.729733 52.632244
-13.243208 60.16468 53.369125
-12.750697 60.068924 59.722466
-12.968389 60.076336 60.580196
-13.003267 59.990993 61.517773
-12.927135 60.108257 62.22653
-13.052037 61.01894 49.356842
-13.102924 60.924828 49.576576
-13.518128 60.457153 50.295486
-13.363293 60.426445 53.672146
-12.937736 60.92292 54.305065
-13.023441 61.080887 58.21904
-13.128963 60.701115 58.837326
-13.418433 60.616764 59.674084
-13.500677 60.824726 60.523705
-13.401304 60.479973 61.680267
-13.282161 60.697796 62.23932
-12.826953 60.62417 62.745132
-13.408676 61.68836 49.16494
-13.283514 61.49141 54.252644
-13.052542 62.084156 57.18404
-13.033484 61.504074 57.794746
-13.476485 61.327057 58.304523
-13.248689 61.340534 62.343376
-12.907979 61.42191 62.760323
-13.458581 62.44745 49.096375
-13.482285 62.473003 54.25699
-13.471321 62.443897 57.919094
-13.274949 62.223755 61.493954
-13.061195 62.085182 62.21765
-13.496574 63.30519 49.490116
-13.202147 63.082382 54.003963
-13.217901 63.30917 57.666
-13.344602 63.327824 58.302803
-13.428682 63.479027 59.492504
-13.124229 63.490227 60.360077
-12.834057 63.079113 61.316986
-13.35583 63.97223 50.637516
-13.118084 63.78404 53.264618
-12.698384 63.85199 57.068012
-13.057416 63.90327 57.979485
-13.006658 63.972347 58.79565
-13.113984 63.811657 59.34008
-12.844871 63.841553 60.222824
-11.795412 56.2422 51.57065
-11.891541 56.30531 52.32584
-11.909436 56.864864 50.79405
-12.200886 56.76667 51.632072
-12.128046 56.657814 52.199707
-11.7730255 56.531 53.24418
-11.649107 56.79219 53.75507
-11.774228 57.83508 50.387306
-12.364623 57.673286 50.94772
-12.51258 57.4719 51.29121
-12.524466 57.452553 52.443405
-11.678208 57.307472 53.931343
-12.141525 58.25224 50.80582
-12.544489 58.539738 52.989418
-12.173124 59.464264 61.86545
-11.953464 59.458073 62.007668
-12.2136345 60.15834 50.08348
-12.576538 59.180904 52.828873
-12.362704 59.96169 53.955227
-12.332548 60.21306 58.96266
-12.139523 59.78607 59.417027
-12.350487 59.67017 60.565258
-12.384358 59.598 61.519424
-12.308721 59.73107 62.302757
-12.215703 60.088356 62.845985
-12.913164 61.23809 49.258705
-12.884207 60.899544 49.526596
-12.394021 60.54716 54.42824
-12.179834 60.813004 54.710114
-12.012118 60.60721 57.90915
-12.604679 60.529213 58.641983
-12.448232 60.742813 62.99958
-12.482563 61.800964 48.99512
-12.200258 61.505535 55.462425
-12.425854 61.3735 63.048687
-12.424016 62.538982 48.900528
-12.367886 62.458138 62.4612
-12.360624 62.10462 62.809883
-12.155298 63.30896 48.756615
-12.395248 63.501858 56.5183
-12.377328 63.01372 61.425823
-12.115113 62.697754 62.301044
-12.062887 64.27161 48.811684
-12.5755825 64.343 49.3332
-12.417557 64.53178 50.487465
-12.565825 64.27699 51.003708
-12.673313 64.27579 52.05222
-12.242349 64.061745 55.746838
-12.189591 64.38765 56.875717
-12.524505 64.270195 57.159794
-12.629044 64.19159 58.62409
-12.412662 63.884853 60.49227
-12.3813095 63.64461 60.926945
-11.759894 65.1696 49.08706
-12.143414 65.03718 49.629124
-12.181487 64.94451 50.540543
-11.571975 65.60382 52.534027
-11.69185 65.696686 54.582954
-11.921488 64.95673 56.988495
-12.163642 64.7179 57.626446
-11.671333 65.77886 58.50413
-11.722843 65.25801 59.389305
-11.961221 66.50184 52.73975
-12.1566925 66.73464 53.26349
-12.061794 66.96179 54.498947
-11.56726 66.23653 58.435658
-11.798736 67.33783 52.30939
-12.099527 67.54168 52.799133
-12.290866 67.61911 53.626286
-12.234699 67.60555 54.25485
-12.032458 67.37692 54.882217
-11.96508 68.010445 52.96279
-12.020243 68.26006 53.668636
-11.9432335 68.36339 54.38465
-11.814087 68.35889 54.880985
-11.785764 68.62887 54.14467
-10.529003 52.912838 46.567566
-10.545864 53.211838 46.56924
-10.541285 53.325996 46.963196
-11.583867 56.216366 51.413666
-11.090977 55.92939 53.579315
-11.115094 56.74275 50.309116
-11.603463 56.707523 50.61547
-11.551323 56.455296 53.647217
-11.34955 56.68433 54.129726
-11.445016 57.90868 50.214462
-11.338478 57.37757 54.236866
-11.266197 57.995163 50.28003
-11.389563 58.83558 54.11551
-11.427506 59.40943 60.467766
-11.614291 59.40254 61.638126
-11.441599 59.449043 62.052376
-11.421146 60.12579 50.37032
-11.6243305 59.130005 50.694542
-11.659152 59.902393 54.42438
-11.117904 60.3677 58.20232
-11.523624 59.88516 58.997066
-11.511315 59.603374 59.57444
-11.556593 59.629467 62.54509
-11.556197 59.96999 62.886696
-11.617707 60.623966 49.776733
-10.983503 60.66813 56.02522
-11.089789 60.659595 57.45548
-11.642687 60.60961 63.188496
-11.588782 61.531555 63.212788
-11.80614 62.591774 62.581764
-11.593123 62.117428 62.945236
-11.14661 63.505535 48.28961
-11.704257 63.262264 61.46248
-11.602279 62.857185 62.20935
-11.39993 64.37166 48.327297
-11.62844 64.49281 48.537273
-11.763878 64.31503 60.04655
-11.831625 63.875065 60.716995
-11.47194 65.15045 48.83743
-11.454042 65.72945 54.760567
-11.46906 65.5566 55.095703
-11.506147 65.13615 56.66904
-10.88501 66.811554 49.80705
-11.417112 66.74081 51.48608
-11.068454 66.3496 57.28989
-11.465496 66.61107 59.34936
-11.033294 66.52559 60.16933
-10.681382 67.48965 49.029163
-10.884155 67.866394 49.354633
-10.895818 67.66966 50.436684
-11.2557745 67.76245 51.686295
-11.472445 67.57108 55.493576
-10.743971 67.23686 56.714413
-11.18277 67.32062 57.691135
-11.26764 67.563545 58.471863
-11.260861 67.465416 59.412064
-11.029801 67.308876 60.05279
-10.677799 68.470825 48.9131
-10.85795 68.2389 49.444786
-10.919588 68.475 50.471195
-10.9496 68.16575 51.455845
-11.594726 68.39674 52.94125
-11.513797 68.42206 55.012432
-11.185919 68.03282 55.774662
-10.849271 68.25733 58.71264
-10.824408 68.537674 59.600178
-10.703992 68.43296 60.32158
-10.770374 69.23438 49.71292
-10.732201 69.440544 50.27742
-11.396313 68.764 53.631443
-11.317002 68.78397 54.46446
-10.628868 68.772675 59.075207
-10.646858 68.88047 59.705482
-10.62121 68.83963 60.20118
-10.575388 70.39006 49.92863
-10.5206 70.78281 50.174824
-9.916611 52.142822 46.01096
-10.020048 52.054436 46.574173
-9.912864 52.07554 47.231007
-10.085398 52.698395 45.747555
-10.3923435 52.61558 46.461273
-10.2900915 52.55867 47.073185
-9.937752 52.8924 47.850178
-9.871832 53.216442 45.413864
-10.284954 53.336952 45.900818
-10.481306 53.584553 46.68546
-10.366547 53.382374 47.131428
-10.068725 53.472248 47.844536
-9.9681 54.25338 45.999454
-10.263452 54.339226 46.659035
-10.299054 54.51737 47.03502
-9.836352 54.45356 48.05569
-10.258768 55.393906 52.761284
-10.262373 55.408 53.373253
-9.738125 54.80837 46.141155
-9.960724 55.16325 46.659645
-9.867183 55.431416 47.48661
-10.42538 55.82357 52.043816
-10.58402 55.64439 52.57781
-10.23264 55.642452 54.2439
-10.079687 56.09651 54.853657
-10.941712 56.397884 50.591347
-10.370959 56.581253 54.750618
-10.796405 57.405975 50.13897
-9.696494 57.12975 55.656452
-10.849179 58.762276 50.514595
-10.50274 59.06612 54.556923
-10.573873 58.46622 54.728573
-10.877951 59.8381 59.06693
-10.758867 59.598087 59.726517
-10.573228 59.539204 60.739616
-10.70602 59.654583 61.08237
-10.985929 59.749527 62.60259
-10.240238 60.783867 49.227016
-10.406366 60.84986 57.071877
-10.856438 60.441933 62.988472
-10.012478 62.0916 47.804554
-10.917562 61.20265 63.09513
-10.123759 62.63028 47.697685
-10.493242 62.38382 62.25946
-10.888617 62.018806 62.86491
-10.212206 63.445965 47.69661
-10.841703 62.941593 61.48413
-10.654877 62.64946 62.069992
-10.299456 64.35694 48.007423
-10.378498 65.26414 48.331078
-10.555993 65.16878 48.452755
-9.985122 65.13934 60.833347
-10.180154 66.56185 48.6154
-10.09014 66.82837 61.2995
-10.1852255 67.6277 48.24436
-10.231762 67.8651 48.400726
-10.110811 67.543945 61.298225
-10.225208 68.23819 48.267864
-10.373215 68.45773 48.561916
-10.198379 68.22124 56.560925
-10.230317 68.60294 57.961956
-10.467948 68.55563 60.625683
-10.158308 68.285095 61.073635
-9.784897 69.90619 47.834034
-10.438141 69.51609 48.904156
-10.295668 69.84527 50.768963
-10.350259 69.06352 54.434235
-10.278509 68.92298 55.378952
-10.27881 69.007706 58.944374
-10.221538 69.26938 59.59371
-10.21937 69.043106 60.33179
-9.914416 69.02429 60.805088
-9.858775 70.115974 47.807236
-10.009669 70.423615 48.264545
-10.356836 70.4865 49.195557
-10.433425 70.766884 50.398785
-9.809315 70.559364 51.341927
-9.755841 71.294266 47.506016
-10.157494 71.395386 48.90196
[...]
POINT_DATA 10530
SCALARS features_00 float 1
LOOKUP_TABLE default
0.6029187 0.5930773 0.5838734 0.63654864 0.6252789 0.63321286 0.6438992 0.6422774 0.6446838 0.65042895 0.648669 0.62469834 0.6341336 0.622489 0.4890155 0.57715046 0.5759755 0.54081 0.5470759 0.54002297 0.5814621 0.6528231 0.7755155 0.59633803 0.6108638 0.61323655 0.5703759 0.49664184 0.5876635 0.61066365 0.64506066 0.7508735 0.6148325 0.63463235 0.64018285 0.611061 0.54714364 0.6044852 0.62737954 0.64673376 0.62272877 0.5872907 0.5976479 0.56356615 0.55073786 0.5148337 0.57914263 0.51733005 0.5036096 0.51592565 0.45897505 0.43762568 0.42301333 0.4195242 0.4752887 0.34246984 0.31801438 0.29129827 0.54844165 0.6320207 0.7332751 0.80401695 0.48856324 0.4898842 0.5074167 0.31025916 0.24539125 0.5322755 0.5313764 0.57194716 0.63986886 0.76089597 0.8261012 0.8688828 0.56725824 0.36886305 0.49930608 0.5492059 0.5665024 0.83536804 0.8605765 0.59001696 0.4844064 0.5551417 0.6822803 0.73771346 0.5834287 0.47283316 0.3772499 0.43958375 0.49546945 0.47430864 0.49324012 0.43183357 0.46497107 0.18135266 0.29054564 0.33475906 0.4149642 0.4152275 0.61152923 0.5686134 0.6202066 0.5987678 0.55628026 0.5130973 0.45007735 0.5079142 0.5843946 0.5904105 0.4772399 0.3755999 0.48785138 0.29600158 0.7440046 0.75237286 0.22178988 0.24375851 0.15090461 0.47422543 0.5048574 0.6338719 0.71864104 0.78870016 0.8393568 0.4838599 0.45393234 0.12456637 0.08349451 0.39231226 0.48367533 0.9023059 0.46872607 0.09908866 0.89210993 0.48516616 0.6648598 0.7628691 0.36152017 0.1447303 0.5010929 0.61089253 0.35402 0.44046015 0.36364856 0.3379326 0.2846503 -0.09587826 0.07128386 0.12789345 0.24860862 0.38415992 0.421983 0.26816738 0.3315493 0.25282478 0.18471688 0.21570565 0.014263576 0.08753537 0.09938893 0.12555188 0.34474212 0.44079185 0.45007133 0.14728668 0.28928715 0.40269503 0.51575 0.5158658 0.44460088 0.45593065 0.5405133 0.5248567 0.48558185 0.5337094 0.81106234 0.8063965 0.77412045 0.61702794 0.5220163 0.5799823 0.6178694 0.49296445 0.4265407 0.45971608 0.32249948 0.42406574 0.14260304 0.6237248 0.7111933 0.74046385 -0.004176438 0.19132024 0.023772962 0.3311112 0.44060743 0.5179932 0.78824794 0.8341619 0.129771 -0.20319606 0.19219843 0.92437637 0.89067924 0.64983124 0.75670254 0.19929937 0.4880942 0.591967 0.23051056 0.26992697 0.28537217 0.35458934 0.22675422 0.17704749 0.012412492 -0.07355918 0.096557334 0.09063421 0.020137303 0.3094855 0.41291684 0.19694287 0.21098663 0.12250692 0.1523857 0.3408831 0.028757684 0.15580463 0.31393132 0.4262492 0.4942212 0.23408073 0.2201969 0.1541673 0.09963705 0.45712557 0.45764965 0.3175165 0.4131952 0.49951363 0.5377382 0.26923937 0.27860108 0.5119095 0.47323245 0.46273655 0.5058001 0.52796316 0.38468856 0.4242605 0.8037069 0.78712344 0.7122158 0.8154138 0.8186387 0.75556976 0.65359616 0.76222503 0.80691314 0.7896429 0.7543354 0.66720676 0.708951 0.7371222 0.72140324 0.6915146 0.45924628 0.4732019 0.60338485 0.5749703 0.5857623 0.48327172 0.49484515 0.476416 0.43163973 0.60840446 0.40142134 0.4442259 0.30554578 0.17012842 0.04803429 0.142407 0.4396274 0.5308225 0.62143743 0.65926135 0.79305506 -0.08296657 -0.060224846 0.8958013 0.07645461 0.91299796 0.10214857 0.6865027 0.7513391 0.14942367 0.50959796 0.6386185 0.14836225 0.08832399 0.112960085 0.10112641 0.066146284 0.3864376 0.14793113 0.17804042 0.50817 0.19645157 0.22185308 0.10928141 0.31860888 0.5443984 0.5450308 0.17420562 0.2735077 0.37075374 0.29405576 0.24732226 0.43897784 0.4801978 0.5181332 0.51375115 0.18305476 0.2685082 0.36531526 0.43450278 0.45245144 0.21621557 0.4171068 0.44720244 0.4591376 0.48101288 0.36598974 0.4445104 0.47757453 0.4935277 0.5513015 0.7331649 0.7171258 0.6419441 0.51132584 0.7152401 0.7608449 0.58125484 0.71856594 0.7236548 0.55431724 0.39743197 0.5868133 0.36014032 0.42087847 0.44058308 0.45368665 0.47562188 0.47322845 0.41417098 0.43701518 0.44746113 0.40669078 0.38009498 0.3786943 0.40440142 0.42040202 0.4148949 0.33235848 0.22066745 0.1336726 0.16568114 -0.019790187 -0.11273508 0.5165596 0.67468363 0.7437105 0.5684463 0.008980826 0.034189068 -0.29371068 0.3671997 0.90910214 0.5651494 -0.009971052 0.008646667 0.8147788 0.65668166 0.09882785 -0.15023294 -0.004540384 0.04507886 0.12813002 0.021648005 0.32738492 0.38053823 0.27284545 0.11884158 0.4894224 0.4125951 0.3417087 0.22351898 0.07341963 -0.0051605105 0.09735195 -0.07834567 0.043088883 0.21005532 0.3416363 0.41665748 0.47612834 0.49502832 0.37324256 0.3074609 0.20706318 0.07722292 0.4263135 0.44376406 0.45334762 0.23195264 0.1528647 0.06440937 0.07739478 0.49309605 0.50482404 0.121991605 0.20156685 0.36509946 0.39505318 0.49951237 0.5180223 0.54158235 0.27305108 0.3144786 0.29823473 0.31005615 0.4014812 0.48097652 0.51824933 0.2790444 0.310013 0.32223573 0.29909107 0.21507277 0.31299925 0.31229216 0.5858575 0.6221085 0.6079582 0.47637296 0.52618873 0.51259464 0.45397875 0.3253181 0.5898609 0.64366704 0.6509508 0.6110284 0.5848502 0.5425205 0.2656269 0.61147565 0.6436572 0.59803295 0.6202077 0.27431715 0.31759322 0.56483644 0.5646996 0.6102848 0.5407711 0.22570878 0.40821064 0.4246065 0.421019 0.33964238 0.31521237 0.38140798 0.40959573 0.3602235 0.24749474 0.1443156 0.3306586 0.512958 0.2718566 0.21249521 -0.09099276 -0.13051596 0.13322783 0.45945728 0.4876898 -0.09802501 -0.25571576 -0.19646156 0.53626424 0.600034 0.5998277 0.49938875 -0.1519108 -0.36016828 0.3874818 0.5867403 0.525636 0.51025844 0.57618713 0.5163601 0.41694158 -0.07228685 -0.2995717 0.323226 0.5290818 0.6194745 0.5357116 0.39763576 0.2778831 0.1494338 0.45625204 0.6289865 0.60647726 0.54198134 0.42492914 0.23769397 0.14755493 0.54851127 0.4730991 0.37307167 0.24787563 0.1370193 -0.07098314 -0.04255429 0.42364228 0.2715831 0.18229638 0.08338969 -0.09134334 -0.034067824 -0.035885885 0.5316202 0.70855474 0.08758712 -0.1508724 0.01247263 0.6629424 0.7169336 0.72834027 0.08567602 0.6357549 0.6933892 0.7108216 0.005573347 -0.16883966 -0.19768164 -0.084176466 0.36003146 0.43437344 0.4251908 0.41162235 0.2677086 0.19522768 0.38922465 0.45427603 0.43888938 0.41825843 -0.23440428 0.022252463 0.009089194 0.42001528 0.31469104 0.4647909 0.42980298 0.3946649 0.023948483 0.01187107 0.09237227 0.1659463 0.33407867 0.34633076 0.53312045 0.42586398 0.37017173 0.57462794 0.47721437 0.34793478 0.13055226 0.53980005 0.5699376 0.5105291 0.42150432 0.29526412 0.25280568 0.07731171 0.10792768 0.36976328 0.47309136 0.5006832 0.5125426 0.49033514 0.42150784 0.33096603 0.29567835 0.25857177 0.11704011 0.36319336 0.4453922 0.478662 0.43056235 0.39622635 0.3144372 0.29424405 0.28451467 0.23109747 0.42579237 0.33472413 0.29544684 0.30553544 0.30789983 0.31495994 0.3858691 0.45862305 0.5158 0.5194183 0.20432495 0.4476956 0.5239238 0.58157 0.5549801 0.31912315 0.37550777 0.36207384 0.41593882 0.54544497 0.4637912 0.32685357 0.5399366 0.48508605 0.4739238 0.48210227 0.17263049 0.4253298 0.15967372 0.3910631 0.3965366 0.37691468 0.3775978 0.29887953 0.0645485 -0.10461345 0.1071928 -0.027408555 0.026086785 0.03535758 0.30175287 0.07702139 0.038154833 0.04460351 -0.043513715 -0.01642184 -0.043084204 0.3614437 0.392258 0.39584458 0.40555397 0.122123934 0.012973689 -0.044069365 -0.089199774 -0.0145676285 -0.06568459 0.049623907 0.47425297 0.4689014 0.4762693 0.4673087 0.20554712 0.061134957 -0.08748021 -0.08902384 -0.05830177 0.4980783 0.69111735 0.6169743 0.5063165 0.023299664 -0.29412928 0.48123106 0.49078676 0.70503163 0.6616988 0.36761916 0.28065085 0.46193916 0.66468275 -0.38473988 0.62566936 0.5393987 -0.08770599 0.058677018 0.116182595 0.43479085 0.5978632 0.5554317 0.52821946 0.2827702 -0.030713677 0.28646737 0.5075383 0.6683031 0.7233683 0.69479644 0.3426866 0.17473575 -0.016946584 0.16156131 0.53766525 0.71614504 0.6998829 -0.11126742 -0.18631516 -0.3421505 -0.3159084 0.28764263 0.40114796 0.5016095 0.6821099 0.6804946 0.67047435 0.34020412 -0.009092778 -0.07313132 0.17410786 0.3573506 0.44090116 0.5821809 0.6131649 0.4249457 0.40951812 0.3557744 0.44794255 0.19001144 0.45949185 -0.23209666 0.03174953 0.034788802 0.020668367 0.014540756 0.06563184 0.26906392 0.36444956 0.5668515 0.40063238 0.2669687 0.39109886 0.4444659 0.42872828 0.67066205 0.6071172 0.47765797 0.699578 0.66097456 0.44617367 0.43026415 0.6213419 -0.07282535 0.30127242 0.3985805 0.4242522 0.5799695 0.50065446 0.46636772 0.49922484 0.46405834 0.44307107 0.37090307 0.30147696 0.31748164 0.36396787 0.33676177 0.33833104 0.37588018 0.34127405 0.38458288 0.38421458 0.36335623 0.38803846 0.17246592 0.23514067 0.33992833 0.41660124 0.3643581 0.032998182 -0.010637812 0.23044026 0.45226258 0.31793493 0.41302156 0.442821 0.4821257 0.15254587 0.17879917 0.37093335 0.5166937 0.4871468 0.3821897 0.4309249 0.45825046 0.18236132 0.07063086 0.44239354 0.39462233 0.53715616 0.5588273 0.5287789 0.38272178 0.4090494 0.47847918 0.39841577 0.3221714 0.28398353 0.5651946 0.5825551 0.5642029 0.5178672 0.468378 0.28206277 0.22225532 0.23956916 0.23957616 0.5783203 0.57002664 0.5081074 0.34858185 0.045079723 0.32400018 0.21876189 0.07816675 0.20689152 0.22468853 0.21908984 0.3454975 0.006209839 0.10847958 -0.111187205 -0.014085684 0.16385563 0.17785424 0.15250796 0.112585396 0.11890212 0.14597887 0.08891729 0.028668776 0.22687462 0.19961222 0.32622576 0.3493414 0.21937309 0.43509954 0.57706016 0.4479162 -0.07134098 -0.07905145 0.48116398 0.7113209 0.6369044 -0.12044806 -0.09055353 0.47831836 0.75920165 0.08321902 0.3764334 0.43379077 0.7381305 -0.02115367 0.12377305 0.6291141 0.070138715 0.4085027 0.6453258 0.5749852 0.6839212 0.6628647 0.51841754 0.662418 0.6191698 0.30331048 0.17329891 0.18087983 0.24554513 0.32602686 0.43087125 0.5247941 0.56023324 0.38289407 0.33631194 -0.01630731 -0.23026761 0.16893406 0.28553504 0.3151879 0.41194874 0.39705876 0.08151641 0.41293034 -0.02406418 0.018998556 0.35262218 0.23277271 0.61128354 0.52907884 0.3066105 0.41764802 0.48456195 0.4517265 0.35801268 0.67994416 0.44854587 0.48587292 0.71650904 0.38356376 0.3793264 0.68752277 0.64608145 -0.099114574 0.32948032 0.31048286 0.6045711 0.543452 0.118883386 0.521936 0.47473627 0.27649355 0.20099744 0.417295 0.35310498 0.29599357 0.32635093 0.37501824 0.38794583 0.3378702 0.3179883 0.37461692 0.3886088 0.3765321 0.17835096 0.2325558 0.28318754 0.28980136 -0.04455199 0.07034497 0.28154856 0.23434643 0.4065667 0.43995863 0.4770161 0.5118192 0.21413632 0.08948753 -0.018578602 -0.04079438 0.15006757 0.42701542 0.38979658 0.31607968 0.23195995 0.31877932 0.39359653 0.44887924 0.48624375 0.49655432 0.5086542 0.007051766 0.19754244 0.19944775 0.23615131 0.39408833 0.458264 0.4873848 0.39935225 0.34472817 0.14305949 0.2803275 0.3528366 0.47773474 0.46812847 0.44198984 0.27467015 -0.003199038 0.13113934 0.1463284 0.20560348 0.26390904 0.4259436 0.50401896 0.41040608 0.1487516 0.21898833 0.3271752 0.42975098 0.43313578 0.5413271 0.48088914 0.3862961 0.0047933236 -0.007479377 -0.011530856 0.20124316 0.2552248 0.24946287 0.2881425 0.4471528 0.5258051 0.53174025 0.4125753 0.13486868 0.24779168 0.28754932 0.3683309 0.5862818 0.5527123 0.0096024275 -0.12959178 0.0708591 0.13557808 0.23390311 0.24998108 0.2600621 0.23773469 0.5555592 0.5440348 0.5148814 0.41779637 0.06414686 0.15267651 0.17063215 0.5865588 0.51848793 -0.2937355 -0.03663272 0.13604248 0.17803563 0.5483172 0.4953268 0.38534388 -0.22442333 -0.0077047274 -0.060855374 0.43126237 -0.1109751 0.109658614 0.15371682 0.03354898 0.27806535 0.26439378 0.029488713 0.3903902 0.41308534 0.26785305 0.4213975 0.37090784 0.57921964 0.5356852 0.35062218 0.36643028 0.67510414 0.6791077 0.020598724 0.21688303 0.5929367 0.35731664 0.5034577 0.51846904 0.56527245 0.33314818 0.08030723 0.55011386 0.22458535 0.3326249 0.32286328 0.34019795 -0.26877365 0.15723903 0.16338056 0.22312725 0.35342968 0.084803976 0.37694767 -0.25756398 -0.13527614 0.3018701 0.59560037 0.44732636 -0.067377046 -0.06406437 0.114749216 0.39071047 0.64288616 0.12823455 0.27372026 0.4025185 0.45185623 0.47016904 0.6969949 0.2524739 0.67724705 0.656385 0.16693129 0.64441466 0.59761214 -0.01771567 0.56352633 0.47152102 0.23255022 0.13500778 0.13686915 0.3379857 0.20545702 0.26082093 0.27611637 0.30148092 0.41514185 0.40013486 0.39342836 0.37754524 0.44486594 0.46121168 0.44945866 0.7404292 0.73487455 0.69557536 0.7536055 0.73647857 0.6960349 0.59526324 0.7025831 0.6826525 0.56329846 0.5585834 0.5846674 0.5105245 0.30958396 0.53697646 0.5043354 0.2950799 0.1315177 0.09725872 0.11981779 0.12233995 0.5862065 0.6100776 -0.03901933 0.08294238 0.15333691 0.18587549 0.15126042 0.52512443 0.5091288 0.5252192 0.57197976 0.6427049 0.7161735 0.44595364 0.40973926 0.20480928 0.13323638 -0.054355532 0.14860377 0.34732592 0.38671124 0.4067486 0.33258712 0.3312649 0.43647882 0.46488482 0.4828374 0.5155818 0.60825014 0.67608154 0.3761223 0.4017318 0.3516567 0.037290588 -0.040625684 -0.03918927 0.10052461 0.19316235 0.30195934 0.35674432 0.34397835 0.15422562 0.56117356 0.6131922 0.2853465 0.21594422 0.24071668 0.204185 0.29666662 0.44170037 0.5196909 0.3675735 0.35149395 0.12105927 0.21724191 0.23485978 0.24004304 0.22785725 0.34133074 0.37068012 0.34245497 0.56938607 0.5465267 0.44722584 0.2843015 0.26559886 0.38013452 0.5990624 0.59194094 0.062397227 0.35164315 0.3671514 0.26645768 0.16158135 0.40701455 0.49755415 0.6184112 -0.06061967 -0.23013443 0.06909338 0.13308698 0.1836602 0.2465052 0.45267522 0.5046935 0.6043612 0.5439111 -0.11457517 -0.030020319 0.18459174 0.21692243 0.23152623 0.25442332 0.30865538 0.4499926 0.49587035 0.43187454 0.27697042 -0.04659189 0.110470325 0.22803187 0.28755695 0.32104334 -0.0060321093 0.10155278 0.12326077 0.2580864 0.2884467 0.26496422 0.33274814 0.23542607 0.2014466 0.5252554 0.3853684 0.20824802 0.5177146 0.35919648 -0.23508322 0.4959991 0.16350272 0.41888818 0.36631072 0.11748869 0.14892375 0.36960223 -0.0010578185 0.27493247 0.16757672 0.24197498 0.16458158 0.08666904 0.043490283 0.15319765 0.15220606 0.32282105 0.3026697 -0.07060429 -0.023331381 0.070162036 0.107671395 0.14878637 0.3463564 0.27475932 0.11289663 -0.039743803 0.28302598 -0.2526994 -0.22388226 -0.15440257 -0.10713519 0.26246196 0.18937382 0.55536824 -0.26480943 0.16045447 0.2628577 0.33573404 0.40908283 0.6412177 0.6015426 0.069860764 0.66954696 0.66250145 0.016613733 0.6541307 0.6233934 0.21172494 0.5676658 0.5234721 0.3222002 0.071080066 0.1846542 0.0726761 0.02721811 0.13798308 0.323731 0.35102266 0.12079147 0.27515322 0.42446792 0.4498208 0.368974 0.47221267 0.517641 0.54542756 0.5174858 0.68984026 0.6765919 0.70400465 0.71347046 0.708017 0.6925554 0.6046586 0.66273403 0.6506791 0.48598254 0.59936225 0.4192883 0.25789028 0.23444125 0.14620394 0.08792992 0.055492867 0.3308885 0.05486296 0.68711144 0.72904646 0.7475922 0.7764033 0.8303286 -0.18367442 0.019776773 0.3575194 0.36826527 0.38828814 0.3651824 0.5346163 0.6230092 0.76617694 0.81739783 0.85195667 0.4602303 0.46031561 0.352062 0.16234389 -0.11151686 -0.14594996 0.023331486 0.2525831 0.30073547 0.31249943 0.77704144 0.8390341 0.38806933 0.17329869 0.20427692 0.19810563 0.23700257 0.75763977 0.82531583 0.27628717 0.1313456 0.16149554 0.27390993 0.11525845 0.037226826 0.1498498 0.09359138 -0.009058736 0.20062642 0.56274563 0.4725064 0.31224066 0.4543074 0.59765846 0.5530614 0.61624247 -0.37795258 -0.103029445 0.5256686 0.5490665 0.5783951 0.55996823 0.030174993 -0.08632056 0.41790548 0.5196625 0.5488384 0.3609833 0.04677473 0.20488773 0.2803257 0.34111512 0.43039614 0.47941428 0.040156364 0.23750117 0.2745701 0.3371595 0.35292026 0.4033266 -0.16134517 0.34016383 0.34519884 -0.17162824 0.16246828 0.113571644 0.115840554 -0.02703382 0.069141366 0.09261218 0.23348087 -0.09384266 -0.5480897 -0.04862914 0.16032259 0.31531113 0.35267454 0.06532149 0.21611884 0.38501048 -0.020325322 0.3429069 0.38490918 -0.031583928 0.37562674 0.0159529 0.23834273 0.29619402 0.028012013 0.19717771 0.21867988 0.03189688 -0.0037461445 0.15031044 0.17750046 0.20732039 -0.035518873 0.0824223 0.15108483 0.18046358 0.22936362 -0.0077742077 0.19772862 -0.084267125 -0.1266178 0.10812955 0.14166182 0.10552347 -0.2777818 -0.19793092 -0.051483817 0.10127899 0.12315572 0.051391926 0.049974754 -0.09537582 0.07965576 0.5813346 0.48926568 0.38112986 0.16445881 0.096578315 0.620087 0.59572005 0.53559136 0.2485225 0.28756377 0.29428637 0.64704883 0.6200494 0.4763283 0.28848034 0.30343252 0.24884042 -0.12097557 -0.2312813 0.18778798 -0.120266125 0.39024204 0.2223092 0.5101051 0.4605949 0.37790847 0.47366542 0.618674 0.6028147 0.57294774 0.5314137 0.5887597 0.6521927 0.66828287 0.654479 0.64894354 0.63562787 0.644546 0.63655484 0.6150243 0.52962244 0.4821278 0.7901762 0.36198384 0.2543723 0.6105781 0.7903193 0.84862316 0.8653338 0.268376 0.3247378 0.120616026 0.70097923 0.8012121 0.84757555 0.8688036 0.29956922 0.054999933 0.682846 0.7582273 0.8199895 0.8462899 0.8005457 0.8099508 0.1721127 -0.048056673 0.39078918 0.7206454 0.7816287 0.830779 0.89622104 0.88657725 0.31099015 0.36860794 0.38910186 0.3654303 0.33455724 0.66181517 0.8955283 0.895489 0.46457615 0.43342477 0.38289338 0.27592254 -0.12218863 0.20304728 0.27797347 0.10456765 0.8969218 0.37177208 0.076582275 0.16463718 0.88994193 0.21695012 0.2641602 0.04030452 0.069020554 0.75295496 0.8393117 -0.001619108 -0.004276946 0.011298969 0.23340356 0.5266404 0.5291615 0.53519297 0.6287349 0.5952486 0.3375244 0.46421638 0.5336227 0.55300355 0.36411572 0.27023298 0.1511935 0.48679185 0.52227974 0.12348801 -0.071145244 -0.158215 0.053839635 0.17725301 0.35709715 0.4233957 0.45002067 -0.18266708 -0.2217635 0.050137486 0.14104933 0.34306717 0.35325062 0.34990802 -0.22141817 -0.2218202 0.045652702 0.35347894 -0.1805217 0.02207879 -0.18870975 -0.16656348 -0.16771095 -0.47946286 -0.3779264 0.28224915 0.31760228 0.39155978 -0.45882928 0.3100857 0.37841308 0.43482065 -0.122294456 0.42023748 0.44209164 0.40971702 -0.121955976 0.38560626 0.35125533 -0.012757136 0.35285854 0.014240652 0.273271 0.3365851 -0.14356664 0.19288212 0.059767503 0.19168209 0.18145207 0.08322409 -0.12835988 0.20006076 0.18525699 -0.058877364 -0.25933847 -0.18011388 0.15380073 0.19567394 0.19888456 -0.33007723 -0.08774963 0.1884388 0.23017892 0.19022545 0.063396804 -0.03122377 -0.17570147 -0.042216048 0.11921537 0.18994696 0.1667171 0.1869582 -0.3833014 0.13595442 0.24922659 0.10305354 0.25804302 0.25550964 0.23997124 0.3158368 0.28185993 0.24692637 0.2625234 0.29669878 0.29329872 0.27024603 0.316246 0.31773368 0.35669756 0.29445457 0.29581386 0.30757904 0.29649228 0.27595317 0.2399875 0.26303574 0.4060851 0.35849327 0.28160092 0.28022122 0.28519657 -0.022311702 0.39898473 0.48209482 0.47946197 0.40723425 0.3110555 0.30907643 0.4953121 0.4089598 0.47759634 0.41897768 0.38014865 0.47290623 0.65333897 0.5783881 0.51595837 0.62061083 0.69112766 0.7234448 0.5471268 0.3835657 0.54802805 0.3981802 0.36374554 0.5852906 0.72616565 0.80956745 0.83316696 0.26118588 0.010374725 0.30158067 0.5751787 0.8370918 0.8600266 0.8558891 0.24428909 0.8639955 0.8576734 0.22412542 -0.0907981 0.4706052 0.77915347 0.8075906 0.80842304 0.13315392 -0.24254742 0.5412376 0.694363 0.36352506 0.37462536 0.37211418 0.31615704 0.74386257 0.7811703 0.78987813 0.82752824 0.8874238 0.909839 -0.26036364 0.28699842 0.32801655 0.3203652 0.6339917 0.69684863 0.89548326 0.89853036 0.4175531 0.35093713 0.32692578 0.24683915 -0.31167746 -0.27282703 -0.25421453 0.23877636 0.07268018 0.33352748 0.85083914 0.88799715 0.3320362 -0.17152727 0.11973256 0.8215251 0.86358416 0.1322926 -0.14347816 -0.096837446 -0.1605492 0.7149103 0.77498376 -0.023087073 -0.008319092 -0.16102019 -0.16398586 0.5464493 0.78862786 0.7048359 0.50662196 0.085979834 0.71862423 0.84767044 0.80211186 0.120459735 0.69883275 0.7099347 0.8311767 0.7852536 0.5936908 0.39176908 0.64583623 0.77231216 0.68838924 0.4919433 0.39678526 0.2075052 0.5564599 0.4836247 0.5195832 -0.44918808 0.42036492 0.45738935 -0.3271017 -0.015076965 0.33555198 0.40239456 -0.19412039 -0.14885384 0.11949805 0.2460213 0.3429067 0.31409538 -0.19688083 -0.07587578 -0.19372427 -0.45390064 0.0908449 -0.14792888 -0.37777093 0.09610