# vtk DataFile Version 2.0
Really cool data
ASCII
DATASET POLYDATA
POINTS 4313 float
-29.560953 23.776556 23.951006
-29.641851 24.643963 23.542507
-29.628988 24.597645 24.197443
-29.655539 25.27653 23.613245
-29.644035 25.258234 24.134735
-28.519962 20.864403 18.015324
-28.629112 20.808292 18.696894
-28.565323 20.884995 19.205845
-28.662039 21.251057 17.889435
-28.772581 22.063028 19.279837
-28.809515 22.317463 23.745089
-28.756783 22.344843 24.492853
-28.563822 22.617233 17.767279
-28.831387 22.65349 18.598185
-28.753641 22.53463 19.29402
-29.01084 22.93319 23.186327
-29.122221 22.746815 23.70101
-29.104523 22.73018 24.358757
-28.742235 22.545834 24.780334
-28.93067 23.058352 32.689804
-28.987156 22.90609 33.401863
-28.896261 23.036615 33.998623
-28.65196 23.158478 18.422132
-28.794653 22.960785 19.152617
-28.951431 23.564463 22.895054
-29.464346 23.798452 23.629354
-29.41148 23.39117 24.260057
-29.062963 23.572947 24.918118
-28.824234 23.581936 32.1738
-29.168993 23.728968 32.699326
-29.284424 23.520885 33.432274
-29.057276 23.590324 34.07502
-29.46054 24.812202 23.05409
-29.34747 24.577719 24.673393
-28.800617 24.684195 31.856436
-29.28685 24.554855 32.69086
-29.284348 24.551594 33.298977
-28.948112 24.145605 34.227932
-29.323221 25.525139 22.99726
-29.542059 25.617512 23.871307
-29.52069 25.331785 24.266903
-28.857643 25.511465 24.917614
-29.055708 25.265993 32.0415
-29.191523 25.481506 32.44329
-29.226358 25.12435 33.4251
-29.337616 25.961374 23.462656
-29.33564 25.84474 24.178679
-28.918362 25.884998 32.06657
-28.969849 26.024069 32.345695
-28.908092 26.238644 33.195335
-27.797663 19.8936 16.592194
-28.14209 19.975536 17.495895
-28.170149 19.917162 18.395376
-28.01344 19.956041 19.08957
-27.83345 20.703278 16.052074
-28.112991 20.783869 16.513113
-28.329365 20.415707 17.727528
-28.468672 20.3803 18.46509
-28.266838 20.565136 19.528717
-27.842188 21.42596 16.018305
-28.222382 21.447847 16.619532
-28.435993 21.384659 17.291563
-28.459179 21.496458 19.594854
-28.156136 21.928411 20.132877
-28.06938 21.912354 23.856033
-28.494383 22.176353 24.402195
-27.974113 22.415808 32.67855
-28.291658 22.387592 33.34723
-27.843699 21.880938 16.163141
-27.984144 22.237318 16.639229
-28.524553 22.407757 17.577477
-28.456018 22.930418 20.016796
-28.129587 22.480019 23.011415
-28.51682 22.698032 25.067892
-28.049871 22.962347 31.983856
-28.312412 22.54024 32.7505
-28.572205 22.525635 33.27639
-28.426008 22.85424 34.23532
-28.10214 22.887043 34.64077
-27.766352 23.312525 16.955343
-28.313793 23.035545 17.549168
-27.813091 23.71873 20.317236
-28.44015 23.534733 25.388954
-28.358007 23.746054 31.74157
-28.53689 23.263258 34.493362
-28.062862 23.411549 34.89491
-28.236235 23.826897 18.463474
-28.682976 24.335773 22.509531
-28.326984 24.677538 25.472542
-27.680115 25.355612 18.782566
-28.304705 25.7294 25.161474
-28.05707 25.391144 31.332842
-28.513386 25.661455 31.627045
-28.399107 25.84784 34.85071
-27.784412 26.92981 18.183777
-27.676321 26.473595 18.832335
-27.870975 26.692186 19.218935
-28.065733 26.061396 22.249315
-28.18796 26.393764 22.87411
-28.504427 26.457924 23.387629
-28.329662 26.293564 24.612595
-28.597015 25.951424 24.880259
-28.128008 26.306252 31.800743
-28.276424 26.697151 34.478485
-27.98338 26.453487 35.107864
-27.779732 27.57854 18.00686
-27.965559 27.530064 18.547134
-27.958332 27.257206 19.234407
-28.39276 26.633272 23.797892
-28.080198 26.908152 24.019133
-28.352432 26.839682 32.60248
-27.744236 26.82528 35.036118
-27.850891 28.034807 17.976717
-27.793186 28.637772 18.808075
-27.658674 28.778313 21.552896
-27.53697 29.25231 17.620565
-28.02079 29.883207 21.28972
-27.729044 29.379194 22.271284
-28.099129 30.610214 20.637802
-28.206083 30.558287 21.30706
-27.936077 30.766993 22.096817
-27.936047 31.282003 20.60681
-28.004768 31.37384 21.377281
-27.819336 31.276342 22.039698
-27.073463 19.261993 16.675999
-27.307915 19.295433 17.32052
-27.231531 19.347282 18.162342
-27.23495 19.83445 16.040121
-27.39572 19.583118 16.40236
-27.627008 19.492641 17.435028
-27.74117 19.597706 18.659155
-27.210001 19.784685 19.400223
-27.389544 20.628637 15.729361
-27.1793 20.523651 19.987282
-27.256735 21.443605 15.679131
-27.599424 21.965874 23.710993
-27.2787 21.952381 24.740438
-27.416924 22.055202 25.031744
-27.51419 22.27965 32.693527
-27.444582 22.271774 33.38367
-27.598988 22.401806 34.03346
-27.183065 22.138113 15.914061
-27.743391 22.771156 25.460012
-27.668903 22.965122 31.834013
-27.551443 22.449812 32.41936
-27.469736 22.653154 34.47052
-27.571175 22.921535 34.759964
-27.482014 23.06738 16.64277
-27.238235 23.533535 35.125957
-27.047308 23.89225 16.957277
-27.55901 24.260454 17.719673
-27.370293 24.692482 25.766722
-27.77767 24.248825 31.359211
-27.467798 24.451788 35.275597
-27.090998 24.760841 35.52621
-26.748436 25.068638 17.350746
-27.206388 25.908316 18.062809
-27.422985 25.470318 19.031094
-27.072329 25.435608 35.63116
-26.903164 26.713669 17.279678
-27.100752 26.725159 20.995464
-27.560574 26.083332 25.235409
-27.591225 26.453863 31.718363
-27.71977 26.53437 35.265533
-27.082499 27.598635 16.975616
-27.35679 27.80971 17.366882
-27.418594 27.232864 24.305223
-27.547918 26.856627 32.073315
-27.52183 27.266865 34.55801
-26.703619 28.76193 16.268463
-27.23223 28.596436 16.944086
-27.35753 28.265404 17.479906
-26.994967 27.996756 33.8152
-27.32845 27.709661 34.183514
-26.737242 29.216875 16.311728
-27.043974 29.423298 16.687185
-27.321898 29.475813 17.338703
-26.826782 29.360561 23.67612
-26.738369 30.52393 16.992247
-27.229107 29.967386 17.383017
-27.170666 29.973576 18.18323
-27.09164 30.568336 23.272957
-27.314163 31.366842 19.975641
-27.498587 31.67594 22.241768
-27.092594 31.38514 23.04767
-27.203796 31.71117 20.15559
-27.391737 31.927633 20.619864
-27.218508 32.208656 21.441898
-27.048948 32.10354 22.228674
-26.628176 19.38148 16.229118
-26.632208 19.232782 16.574354
-26.541172 19.133265 17.255314
-26.168325 19.36768 18.145134
-26.670933 19.718134 15.954021
-26.448927 19.490705 18.781557
-26.63347 19.682255 19.266233
-26.860033 19.982286 19.69589
-26.922997 20.889977 15.45564
-26.448318 20.602003 15.564644
-26.760271 21.09212 20.41152
-26.853292 21.083473 15.493049
-26.58235 21.561277 15.603817
-26.64227 21.887417 23.57265
-26.429575 21.708944 24.457268
-26.724352 22.138887 25.321554
-26.788704 22.335024 32.962635
-26.856323 22.338545 33.527077
-26.957016 22.323317 33.890064
-26.429882 21.812931 15.671238
-26.087145 22.30769 25.440466
-26.703821 22.725777 32.169247
-26.39929 22.578651 32.602127
-26.488672 22.484928 33.27908
-26.657999 22.710066 34.29897
-26.21622 23.230572 25.844543
-26.741344 23.719559 31.54056
-26.698336 23.718061 35.24712
-26.506964 24.155218 16.919516
-26.350986 24.676147 31.205904
-26.490976 24.568481 35.44048
-26.169634 25.978024 35.6806
-26.733746 26.11224 31.297121
-26.133451 27.812443 16.069662
-26.469627 27.683718 24.35659
-26.491068 26.862232 24.95936
-26.561089 26.909641 31.713139
-26.224808 27.571444 35.210434
-26.12401 28.504799 15.883036
-25.834612 28.348587 24.494564
-25.975119 28.539904 33.901604
-26.031254 28.143217 34.472885
-26.22171 29.356087 16.018747
-25.993364 29.503727 24.262556
-25.742851 29.340025 24.837292
-26.32288 30.311464 16.2939
-26.4143 30.381136 16.412954
-26.035107 30.36598 24.371563
-26.190767 30.844757 34.14931
-26.10585 30.687992 35.348476
-25.867691 30.715311 35.762604
-25.906906 31.260166 16.259806
-26.178823 31.626436 16.747574
-26.505589 31.73498 17.600206
-25.717255 31.412897 33.563572
-26.178276 31.34849 34.747044
-26.10012 31.223686 35.26514
-25.839338 31.214941 35.709236
-26.083502 32.036858 16.936638
-26.097486 32.25605 17.35924
-26.169048 32.196346 18.148315
-26.545336 32.255497 20.70669
-26.545902 32.472164 22.486174
-26.236904 32.325134 23.26829
-25.852896 32.154495 23.891289
-25.844076 31.90622 34.149788
-25.897863 31.913645 34.601326
-25.779984 31.846338 35.376183
-26.237892 32.664898 21.657766
-26.061226 32.810184 22.468119
-25.899765 32.807377 23.082977
-26.058405 19.322094 16.694311
-25.931486 19.298908 17.41498
-25.934378 19.937485 15.980564
-25.566898 19.661055 16.58094
-25.679289 19.458529 17.587477
-25.67809 19.925133 19.24608
-25.629261 20.731865 15.755517
-25.390368 22.208836 21.73441
-25.17069 21.839342 21.946877
-25.772501 21.90517 25.02255
-26.080744 22.676752 16.498455
-26.281694 22.958508 32.258797
-25.568184 23.148464 33.805683
-25.96367 23.070295 34.148514
-25.243265 23.617512 25.812616
-25.81544 23.832422 31.953796
-25.478905 24.108023 25.909927
-25.705482 26.127827 16.750366
-25.608397 25.539558 25.814428
-25.620808 25.176842 31.339159
-25.275465 25.824953 35.89277
-25.426075 26.676048 16.527561
-25.615376 26.224432 35.81993
-25.276655 27.772923 15.87883
-25.103947 27.745857 25.162506
-25.034431 27.327555 31.269741
-25.554548 28.344582 15.706131
-25.189703 28.882448 25.24343
-25.532972 28.183596 35.015118
-25.446129 30.42122 15.944961
-24.916819 30.031546 25.299435
-25.200296 30.843113 32.581043
-25.180382 30.41991 36.082462
-25.6375 31.57586 16.216118
-25.647528 31.069912 24.471828
-25.16687 31.211637 24.870295
-25.45898 31.323368 33.107685
-25.408445 31.674856 33.3361
-25.460995 31.387056 35.90712
-24.932932 32.390476 16.20891
-25.470346 32.385807 16.612549
-25.059639 32.47654 19.080853
-25.852173 32.51493 21.187542
-25.597723 32.636517 23.594013
-25.171686 32.354214 24.124178
-24.841494 32.081295 33.103333
-25.421991 32.054367 33.792973
-25.504692 32.18352 34.45368
-25.416048 32.134304 35.31904
-25.178936 31.909603 35.763496
-24.707407 33.41962 16.892181
-25.171473 33.20211 17.407003
-24.85233 33.13723 18.39981
-25.463245 32.916706 21.754353
-25.373577 33.088295 22.735636
-25.429245 32.937008 23.226368
-24.935125 32.66244 34.59214
-24.932812 32.62907 34.932636
-24.762531 20.262299 17.121313
-25.021713 20.197504 19.067936
-25.059708 20.71935 16.056232
-24.609442 20.761087 17.003607
-25.00026 20.620005 19.61618
-25.215487 20.513924 19.757992
-23.818743 21.434628 22.468262
-24.651 21.14589 16.292398
[...]
POINT_DATA 4313
SCALARS features_00 float 1
LOOKUP_TABLE default
0.698569 0.6607282 0.6755738 0.65050566 0.660746 0.6377643 0.6284956 0.6267116 0.6035654 0.5465409 0.69307643 0.6942126 0.5030933 0.5153555 0.52336466 0.69694257 0.70687664 0.7112001 0.6938917 0.8706715 0.87248933 0.8409958 0.4497229 0.48863125 0.67398417 0.69236636 0.7108433 0.714872 0.8345574 0.83963287 0.8610011 0.8278583 0.6423909 0.682081 0.7167238 0.7537753 0.77700126 0.79346085 0.6299813 0.64820063 0.65679324 0.6179985 0.66971266 0.6560948 0.71046484 0.63144076 0.63688946 0.62116444 0.6132387 0.65188515 0.82183963 0.7498144 0.71470505 0.7088232 0.7768845 0.7438661 0.70274127 0.6744578 0.6699008 0.67777544 0.64013135 0.6159048 0.5798874 0.5373808 0.65172255 0.677984 0.8327409 0.8473536 0.6162143 0.54862916 0.5209327 0.4818784 0.6525301 0.68022346 0.8314936 0.8550215 0.8636017 0.8176088 0.7788424 0.4179565 0.45007238 0.35448307 0.7185801 0.8134657 0.78452873 0.71207535 0.3595663 0.6244167 0.6661205 0.13102376 0.5512981 0.61312187 0.6037525 0.59197783 0.24252574 0.18831074 0.16820584 0.5063104 0.57787293 0.6083876 0.5445353 0.5755258 0.5693244 0.45879966 0.47290844 0.2972788 0.2551856 0.19700503 0.5891223 0.5316678 0.582995 0.4146495 0.32373154 0.29881477 0.34369385 0.39869994 0.5185237 0.46487516 0.6014615 0.60641164 0.57806003 0.6376302 0.64426625 0.60792994 0.82143915 0.79320085 0.7545434 0.85518867 0.83947754 0.7869264 0.73312354 0.6903898 0.79994637 0.6535224 0.70041096 0.616481 0.60124487 0.606367 0.8028933 0.7972839 0.79610276 0.5992616 0.6255186 0.80885684 0.80460286 0.76541644 0.7433653 0.44997293 0.66481674 0.33031523 0.27554616 0.5454421 0.7847439 0.53443044 0.47182852 0.13834827 0.1680111 0.12083247 0.49843603 0.31764284 -0.07617624 0.42000216 0.53881145 0.45110312 0.38977855 0.35871145 0.3638714 0.5230044 0.35211578 0.47415 0.41949528 0.37752557 0.26851684 0.30716017 0.4566873 0.4350279 0.41675618 0.18582433 0.4004072 0.4084759 0.33874047 0.43980253 0.47719425 0.5813885 0.5053002 0.50619674 0.58873403 0.57414126 0.543562 0.8367954 0.81973404 0.78038836 0.6912546 0.8544812 0.65591353 0.6380067 0.63251966 0.78097284 0.819202 0.5342245 0.761343 0.6953503 0.45170438 0.5144838 0.54656696 0.76058245 0.7525456 0.75391185 0.652529 0.47452524 0.75802875 0.7395662 0.72557044 0.7135475 0.43304813 0.71102035 0.5997449 0.22981274 0.611111 0.41928875 0.40368724 0.5234864 0.47158587 -0.0023986623 0.1563389 0.42222106 0.33080435 0.49682897 0.012604468 0.19855496 0.25710618 0.47076863 0.1664997 0.15849161 0.42934728 0.42453822 0.28272194 0.6122812 0.64423686 0.639025 0.38099086 0.3644157 0.33127046 0.58035004 0.6687677 0.6791645 0.675437 0.34875143 0.34009236 0.28241965 0.45711946 0.5044237 0.50010514 0.521223 0.63648224 0.66628826 0.68847597 0.46138364 0.48677307 0.50886875 0.79679036 0.74671173 0.8316119 0.78476346 0.71480393 0.54966766 0.8051132 -0.094651796 -0.07200439 0.47066432 0.39538512 0.7304287 0.62836003 0.6629373 0.33147883 0.57432395 0.32915795 0.22959709 0.2831554 0.4409161 0.22138599 0.28988844 0.2877546 0.34974852 0.06929787 0.12744476 0.43869975 0.15228285 0.27924174 0.40152228 0.27830303 0.5285039 0.57661974 0.35552984 0.41592577 0.44185212 0.5516119 0.5702704 0.667904 0.33282763 0.34375685 0.15416734 0.3797561 0.53117657 0.54893595 0.5646397 0.60708964 0.6550176 0.6916226 0.68872225 0.42061317 0.4045741 0.3379805 0.40454882 0.48742545 0.5181291 0.6665094 0.6856126 0.7013724 0.45278537 0.7581567 0.65268457 0.36640024 0.42784616 -0.107985854 0.65171266 -0.12715302 -0.0813412 -0.039292052 0.38714474 0.40358275 0.35126173 0.3000063 -0.10549246 0.26360333 0.120361574 -0.19130097 0.21690801 0.08987583 0.24327691 0.27998167 0.09879 0.24931464 0.31301183 0.19286191 0.33099267 0.27794328 0.37461126 0.34482387 0.3473192 0.385285 0.5495028 0.5635374 0.48385176 0.54952186 0.66461736 0.32120675 0.20234928 0.5381774 0.59087646 0.6158221 0.70517707 0.7175059 0.35945967 0.46639842 0.13531895 0.4855843 0.51874936 0.5231129 0.6332421 0.64891857 0.68941003 0.73951864 0.5603074 0.5921335 0.57620114 0.694432 0.741771 0.7178902 0.82121336 0.28520507 0.81017315 0.18737192 0.009623755 -0.10338169 0.08796947 0.25090393 0.032933604 0.022572108 -0.05698254 0.219355 0.07929603 0.15318097 0.1830805 0.17648503 0.23634852 0.10985441 0.26859605 0.30139887 0.13833407 0.2539987 0.37651712 0.36520392 0.21844444 0.381517 0.489115 0.24868412 0.42938405 0.5253663 0.66949165 0.33334976 0.43768564 0.43056512 0.4685179 0.61540294 0.7297139 0.3576705 0.44668156 0.49200863 0.65566593 0.6861057 0.74030924 0.7961757 0.7626665 0.48995185 0.52730113 0.7296044 0.74562544 0.62438273 0.6894382 0.73343337 0.67977846 0.7339077 0.77087736 0.75416267 0.63469267 0.52311033 0.6517067 0.74933195 0.77826977 0.68511105 0.808208 0.80791485 0.33315483 0.28201592 0.19873615 0.100553244 0.5579691 0.71564233 0.78184915 0.7967343 0.7935661 0.12034225 0.18490738 0.13824582 -0.08575731 0.10668607 0.74696696 0.096386135 -0.051657587 0.0805452 -0.18886614 0.023680389 -0.14957324 0.16676095 0.24074715 0.47527063 -0.07203221 -0.079052046 0.34640342 -0.049131125 -0.08614786 0.19813901 -0.38006005 -0.25619984 -0.018058643 0.064480275 0.35764682 0.3350471 -0.030184992 -0.0020073801 0.102645636 0.31461364 0.25990087 -0.43875396 0.052447177 0.30132952 0.12948562 0.36366373 0.3315811 0.21035257 0.3456214 0.3005465 0.40953484 0.34865555 0.47977728 0.49838108 0.43215212 0.5679903 0.52847785 0.17439824 0.33991343 0.36495215 0.5742068 0.6184643 0.6323638 0.35437566 0.22620285 0.3494036 0.36899218 0.6373601 0.7051597 0.40658307 0.6908809 0.7383841 0.8282149 0.80212843 0.7595581 0.54849124 0.6558072 0.6737317 0.68935424 0.74217606 0.7718409 0.76860136 0.7344647 0.36755654 0.47390696 0.58060443 0.6751691 0.3085896 0.3764397 0.451896 0.5923775 0.72587717 0.75764614 0.31630892 0.26668033 0.2331186 0.35674936 0.7771771 0.1629964 0.30677357 0.19241665 0.061997674 -0.06339554 0.7969193 0.06440474 0.09845557 -0.087733716 0.5971515 0.6007775 0.25651664 -0.19247061 0.23125365 0.26963273 0.2647262 0.2531403 0.23997954 0.1711865 -0.29706126 -0.08740172 -0.19811708 0.12846771 0.1442845 0.3246411 0.5578947 0.17127132 0.20880352 0.21523961 0.1954067 0.03442838 -0.25187695 0.3609773 0.38128817 0.36564922 0.22358333 0.1652241 0.18166982 0.18111826 0.08395032 -0.15513021 -0.27829066 0.30153182 0.3243863 0.37045562 0.40202758 0.37856233 0.27630115 0.15232378 0.15903668 0.14277196 0.13337567 -0.2378023 -0.2544095 -0.26661596 0.27090994 0.29991478 0.36259705 0.34649035 0.086973324 0.26380533 0.31802046 0.31114882 0.22475944 0.15923303 0.022946792 0.022769516 -0.38009334 0.23301241 0.24186721 0.07464822 0.0071530975 0.11068437 0.14006273 0.07299733 0.018074825 0.25351092 0.31215066 0.29964122 0.20171957 0.028219564 -0.011376571 0.16573066 0.4607209 0.47111708 0.49938613 0.3536377 0.1327412 0.09931506 0.12286872 0.20001383 0.5621507 0.6225711 0.61743724 0.52739877 0.47634986 0.31744906 0.24917379 0.17321596 0.63366544 0.652408 0.4847563 0.7081102 0.7130151 0.6772815 0.5099108 0.43949747 0.35595277 0.24997184 0.23423745 0.20984335 0.31902865 0.72067106 0.863483 0.9140904 0.79188263 0.44308797 0.3752702 0.32245967 0.49788535 0.5624735 0.40200764 0.4003541 0.3868925 0.70979893 0.67808914 0.49793267 0.52664965 0.5107281 0.7322111 0.76061547 0.750426 0.7202307 0.5463922 0.5482197 0.5314916 0.5162655 0.51266956 0.4867639 0.36717716 0.45117423 0.5919404 0.6692153 0.7110912 0.47532526 0.46158528 0.41297513 0.7162032 0.25306526 0.08145732 0.3416823 0.6850972 0.7270041 0.28460592 0.23303233 0.2554099 0.26326236 -0.02690418 0.04449244 0.53186 0.20707446 0.2206855 0.25506622 0.20340958 0.07414889 0.19185808 0.22198553 0.19795151 0.05137677 0.0946628 0.16250762 0.22783248 -0.19197914 0.13525543 0.3298456 0.48377687 0.60013425 0.31434828 0.3075715 0.27737463 0.08369233 0.20616166 0.58353007 0.6141585 0.32854208 0.13873549 0.6066927 0.28791213 0.3374508 0.24266517 0.28833327 0.3942125 0.2944828 0.20864582 -0.017826084 -0.17842579 -0.06996049 -0.010134622 0.021605209 -0.046036556 0.30290872 0.43985897 0.33481693 0.20467067 0.16023692 0.03538242 0.5285975 0.4853121 0.40653697 0.26611534 0.03702945 0.028478023 0.080153465 0.68677294 0.6317357 0.5253148 0.49152827 0.053191297 0.000547193 0.7756411 0.7216185 0.6934837 0.54898286 0.6369976 0.3697887 0.25863272 0.12373766 0.0015573055 0.11844051 -0.050052408 0.884936 0.853512 0.7997619 0.7184957 0.5274801 0.5231467 0.17063238 0.060928345 0.20035842 0.49657017 0.22050865 0.36429176 0.50387156 0.3962763 0.36652005 0.6313188 0.70344055 0.685867 0.6511588 0.44891775 0.47439623 0.4936446 0.7421487 0.71818566 0.71170026 0.5631095 0.55306995 0.5628431 0.5513253 0.58904016 0.5753534 0.5694239 0.5532581 0.4850672 0.43182403 0.8277328 0.84069496 0.81379914 0.525215 0.56090486 0.46297815 0.40574637 0.4516664 0.60340214 0.68453497 0.68866754 0.83777845 0.8500015 0.83278453 0.6108522 0.6512047 0.67955977 0.6704253 0.8373905 0.83098114 0.81884843 0.4960034 0.438201 0.4782036 0.13988216 0.38201746 0.33713824 0.31694144 0.3044351 0.21304049 0.016402368 0.03427482 0.02529239 -0.026103146 0.6720034 0.27266973 0.26461092 0.27976412 0.22002676 -0.21870452 -0.041236956 0.043349195 0.050719157 0.16240537 0.5186168 0.20258494 0.058225416 0.5953615 0.65230334 0.2681602 0.03426462 -0.026477292 0.6635905 0.6529074 0.6583644 0.21923396 0.6350881 0.64942527 0.3482506 0.19926059 0.5029085 0.607645 0.49926326 0.25898564 -0.31206977 -0.026055016 0.49903464 0.540249 0.5169118 0.054959644 0.05664498 0.53639996 0.5377852 0.30339873 0.23487668 0.1760017 0.09451364 0.08028741 0.14569384 0.055049513 0.4852413 0.123622134 0.1493674 0.32348034 0.17711644 0.43569034 0.18296354 0.18420961 0.5128275 0.49702102 0.50374293 0.32060578 0.26936406 0.64222133 0.64149874 0.6227455 0.48608345 0.47428867 0.39362216 0.56331146 0.5998316 0.5231502 0.44245124 0.5965395 0.5564146 0.53112644 0.7860079 0.7791302 0.7037425 0.720994 0.600554 0.58397365 0.5431446 0.7279948 0.7878077 0.81214213 0.8007496 0.78373337 0.70217395 0.7628002 0.7389818 0.7409466 0.54876673 0.46585327 0.5483397 0.6193523 0.64558125 0.723318 0.7662171 0.80376065 0.8000126 0.77364904 0.6949807 0.70576906 0.69485295 0.68366176 0.43278116 0.60795826 0.75011516 0.8125837 0.8076363 0.7615539 0.6990933 0.6611928 0.63189137 0.6015679 0.5652716 0.7651198 0.76503205 0.70274544 0.64921737 0.64983714 0.6384613 0.42573124 0.24211262 0.049862716 0.06520641 0.045810875 -0.009026956 -0.05230723 0.61237186 0.50506544 0.29340994 0.46451175 0.40969798 0.12599939 0.019559905 0.14898652 0.15042283 0.23535967 0.07314145 -0.2553448 0.6719442 0.67609 0.18994975 0.68225 0.13630714 0.6674715 0.6652466 0.6570523 0.5261662 0.43297318 -0.018448755 0.4806612 0.5747928 0.6419314 0.3054108 0.30900675 0.5408064 0.5398981 -0.2173501 -0.096572235 0.34109735 0.35410267 0.35968444 0.5294846 -0.1315049 -0.22981352 -0.15525715 0.3841598 0.38917837 0.5046215 0.29660997 0.41170138 0.51983595 0.51487285 0.05823107 0.032984644 -0.0055055693 0.36968663 0.40907368 0.20640242 0.19976172 0.12654069 0.14557345 0.04008137 0.11452099 0.37986812 0.15088636 0.20091613 0.11838746 0.3563647 0.34467426 0.37686986 0.37615907 0.5880892 0.41105425 0.35989118 0.35853782 0.6673462 0.65794253 0.53726697 0.42001545 0.6271878 0.580395 0.7348529 0.6792803 0.63438416 0.6061313 0.6125985 0.5743141 0.5726118 0.52852315 0.7135577 0.64336395 0.77933896 0.7826011 0.76784194 0.7485594 0.5079325 0.5216694 0.34733972 0.24890202 0.54784155 0.62851655 0.7136127 0.6278261 0.6142223 0.55271345 0.67756784 0.7546904 0.705672 0.3409763 0.28098094 0.48264417 0.6483741 0.68025047 0.5443186 0.6283325 0.64076626 0.6486347 0.6139697 0.16906947 0.06966401 -0.09051969 0.14095676 0.4518451 0.68770266 0.67979944 0.5795871 0.6325294 0.6416514 0.088927865 0.5399201 0.53405356 0.58669376 0.58916235 0.4816389 0.44417244 0.51808786 0.45076957 0.3312892 0.07508178 0.0024064034 0.086927615 0.2873249 0.41204244 0.425722 0.20911774 -0.34446603 0.5876342 0.34930462 0.40201607 0.41968226 0.43016213 0.16936554 0.5911825 0.629768 0.68135107 0.2971634 0.38882804 0.4300705 0.44136795 0.05441889 0.6157522 0.66318667 0.32627603 0.3652865 0.41034013 0.3745749 0.513366 0.37799925 0.122708835 0.19352625 0.584099 0.633348 0.22694346 0.18037263 0.17285715 0.324501 0.27740368 0.25149325 0.5390364 0.3588451 0.49802846 0.25617883 0.26152247 0.2641943 0.12120385 0.1537755 0.15691952 0.15680145 0.5296324 0.14372765 0.2696601 0.29145253 0.31199417 0.21959785 0.23592044 0.29492074 0.31441835 0.47143567 0.34924734 0.3648342 0.3708561 0.32311833 0.34353977 0.36932468 0.43587786 -0.24014272 -0.4962296 0.5459437 0.38463587 0.420687 0.41593647 0.3801522 0.27039978 0.3199664 0.40369385 0.4087866 0.3581643 0.028836744 -0.16483486 0.2712469 0.5651928 0.4043405 0.4104867 0.4078317 0.3274529 0.3865024 0.29416046 0.22457574 0.08961875 0.36212355 0.3811087 0.45938712 0.57086897 0.38499552 0.37612754 0.30978584 0.21534573 0.23754123 0.099316634 0.09744464 0.3550733 0.3862307 0.42821577 0.22462168 0.357762 0.34437245 0.3626744 0.38286966 0.5717081 0.4014673 0.6223495 0.41282195 0.6427038 0.6673086 0.6406084 0.5373018 0.45801017 0.41094857 0.53451025 0.8351479 0.8146517 0.8148134 0.7504815 0.7686696 0.49575 0.5344866 0.6152635 0.6339965 0.7459546 0.7197237 0.7719698 0.58912486 0.51911473 0.53053415 0.6229949 0.4760258 0.74264884 0.75239015 0.741504 0.48611972 0.50636727 0.5976284 0.36318505 0.24106795 0.5257235 0.39827442 0.6478924 0.6839957 0.7048758 0.14832085 0.25281423 0.12781642 0.09867817 0.08596626 0.6058282 0.36913624 0.32368207 0.61098456 0.32930166 0.49659646 0.15169157 0.067289636 0.061892062 0.5435283 0.35514054 0.2752031 0.24751896 0.56544256 0.45702332 0.48881018 0.27751353 0.54104394 0.47854343 0.46108353 0.33766854 0.42666984 0.36820614 0.40011942 0.42062652 0.38236782 0.35968512 0.11984338 0.2532645 0.35418662 0.4194448 0.40197432 0.36511052 0.11711339 0.56972456 0.21117707 0.26339042 0.39468092 0.0030363686 0.4254349 0.53175044 0.5523603 0.28698796 0.24299128 0.18562776 0.124827765 0.26324713 0.3843576 0.21988058 0.32569247 0.272007 0.2396223 0.18764794 0.51325023 0.32926017 0.284477 0.43565786 0.18234165 0.35364658 0.3219483 0.33202755 0.44759262 0.29659683 0.33914763 0.31691736 0.32119748 0.3601515 0.3002394 -0.24408805 -0.27062443 -0.24526869 -0.6195185 -0.5620245 0.4245276 0.39493513 0.33162323 0.36571807 0.40296572 0.39313298 0.19015372 -0.043073617 0.5452629 0.35630098 0.37095404 0.37924662 0.23377918 0.3674999 0.41935733 0.40544003 0.106042214 0.0021247976 -0.01801484 -0.01644209 0.11244674 0.6174231 0.35513905 0.34140772 0.35210124 0.32251075 0.3057627 0.14949003 0.22797236 0.29373446 0.10534011 0.066679254 0.2635947 0.1584081 0.052307874 0.06197565 0.15954013 0.20237564 0.41612595 0.32337657 0.32258224 0.35519084 0.3458271 0.36908597 0.3622614 0.39219752 0.35382527 0.42287445 0.5345181 0.4223801 0.4676709 0.50430256 0.49769205 0.5987173 0.58044827 0.441822 0.44698358 0.44895223 0.55422986 0.61970127 0.61082625 0.60733914 0.5410502 0.4980631 0.46699724 0.8935028 0.8683572 0.90632147 0.8820208 0.8378686 0.7808595 0.72231793 0.6925304 0.67240965 0.69055486 0.6960413 0.8788624 0.8444656 0.761595 0.40899405 0.3349834 0.63917524 0.66421044 0.6777375 0.6923015 0.8000371 0.7912923 0.42430934 0.6320083 0.6665287 0.69085157 0.63546133 0.80213135 0.41053808 0.21003674 0.36985466 0.0037356168 0.041965008 0.45918936 0.37401924 0.2420227 0.46272582 0.56183815 0.610096 0.17170437 0.099315636 0.17476691 0.19161963 -0.013520643 0.0386481 0.43046215 -0.08772047 0.27952078 0.13304447 0.05555243 -0.13514805 -0.010788696 0.006288062 0.4467122 0.4773125 0.039053693 0.12650967 0.12064375 0.1558576 0.16485268 -0.21633613 0.47030228 0.46249098 0.17519343 -0.08766818 0.4221301 0.39494222 0.37236863 0.012906494 -0.10346845 0.20495963 0.26454023 0.30233437 0.2844241 0.039546847 0.30696166 0.14036724 0.16411467 0.3516572 0.30391112 0.25210452 0.2097027 0.14797574 0.31792703 0.15612227 0.36269373 0.29265746 0.1761323 0.2693158 0.23517528 0.2157567 0.42158437 0.37263656 0.17331785 0.18802604 0.37372857 0.40572888 0.32468992 0.36957502 0.27464586 0.2683236 0.3636856 0.28824043 0.30232388 0.28423116 -0.27303258 -0.3079837 -0.23133698 -0.13307855 -0.124907315 0.42442998 0.28079486 0.31519142 0.32858193 0.40748718 0.37483627 -0.23696485 -0.14177112 0.46283054 0.31583327 0.36980188 0.31523967 0.10201384 0.06270945 0.017586863 0.50210375 0.338005 0.32046628 0.32225814 0.30150247 0.067728154 0.27128214 0.3027581 0.3314895 0.16541594 0.20800433 0.48436388 0.29085332 0.23809102 0.26291248 0.17927426 0.0950471 0.2359041 0.21356611 0.2093406 0.365843 0.25252974 0.3938192 0.36736506 0.5245906 0.68969727 0.51509976 0.46843463 0.4300782 0.4470969 0.3736689 0.44325238 0.48924556 0.56715786 0.6459837 0.51990366 0.45731223 0.45092767 0.5253725 0.57124937 0.6224729 0.66633487 0.73754513 0.5584296 0.5278266 0.50661033 0.55457515 0.59605485 0.63245803 0.6781118 0.89569867 0.8330485 0.7176924 0.63799274 0.6837503 0.69752604 0.9285568 0.9149388 0.6570837 0.65050805 0.6417486 0.69291687 0.71194494 0.7097937 0.85671425 0.87964773 0.32438278 0.46058905 0.6990201 0.7883224 0.75312424 0.68280673 0.2233311 0.6420665 0.6769905 0.5503428 0.5056919 0.3276993 -0.0014932156 0.17047325 0.24009612 0.1886832 0.052037816 0.25768402 0.22873169 0.034578815 -0.1471028 0.1519058 0.19977924 0.23441836 -0.041270293 0.043953903 -0.006159723 0.03158225 0.1698323 -0.21223114 0.03949707 0.020002527 0.10193457 -0.027918912 0.40550163 0.07507216 0.071977116 0.15793802 0.15543926 0.18189575 -0.05534891 -0.04471357 0.14249775 0.012360111 -0.15924367 0.41656423 0.4358818 0.113090396 0.1304497 0.2197488 -0.12727854 0.014789011 0.14763674 0.15150054 0.07996917 0.38894343 0.21708313 0.25255978 0.14419697 0.27554798 0.31197035 0.31851467 0.2840597 -0.15324956 0.33435306 0.352368 0.32804495 -0.24604388 0.32137856 0.11522074 0.28807625 -0.01989296 0.2623959 0.2665836 0.22508934 0.21741043 0.42189997 0.23270781 0.16803235 0.44957554 0.44538036 0.22421682 0.27149993 0.3309028 0.43356177 0.27744985 0.2998119 0.27998835 0.28366444 0.30285716 0.32440382 0.35323435 0.28059244 0.2708549 0.45734358 -0.22637792 -0.013390131 0.36602992 0.28123218 0.006784603 0.034584023 0.36838275 0.22046396 0.28556207 0.2681036 0.5786153 0.0714421 0.11559257 0.1289706 0.08640524 0.4089663 0.26245043 0.5758614 0.49348158 0.29333192 0.04504615 0.15949646 0.4215144 0.26196128 0.16743977 0.13439101 0.031437922 0.10039863 0.27885765 0.29955477 0.16759007 0.19374691 0.23803255 0.22076558 0.7206098 0.10595736 0.27631944 0.2908064 0.35021544 0.35867202 0.37224537 0.34749356 0.45987743 0.2645176 0.2721741 0.3209663 0.3578481 0.38051805 0.53442144 0.476866 0.37787423 0.91170347 0.45916975 0.64378864 0.57854843 0.39795932 0.4762743 0.55856913 0.7449844 0.79839885 0.8558643 0.5004583 0.5774677 0.6528205 0.67228925 0.6400588 0.7060133 0.74093187 0.7838049 0.8520403 0.75369394 0.65293235 0.65916085 0.8909255 0.8537022 0.73149043 0.59046066 0.6095412 0.60419726 0.4689691 0.5937826 0.6257162 0.6861851 0.6914354 0.836033 0.8300737 0.5876694 0.6081401 0.20788038 0.24696383 0.64906585 0.73917043 0.67975533 0.19884706 0.58036065 0.73737997 0.5542613 0.49413115 0.026811995 0.028883778 0.050467856 0.4455896 0.45953023 0.508517 0.50953674 0.44071347 0.1286259 0.23096901 0.29033113 -0.042972848 -0.031888396 -0.016935214 0.05278256 0.17256285 0.112943165 0.16503215 0.31188208 0.17510277 0.24054214 0.088096775 0.16812459 0.34994182 0.36983463 0.4049111 0.37991554 0.29610023 0.093665905 0.33137733 0.2967587 0.44507948 0.43359804 0.4263324 0.3898208 -0.12773845 0.28162435 -0.03765893 0.23278853 0.28451967 0.26570252 0.011920318 0.2289665 0.18436411 0.07964701 0.1848382 0.36943528 0.37455195 0.1997023 0.22075766 0.2718561 0.39168012 0.2869566 0.42094907 0.304845 0.3276479 0.27605036 0.43826324 0.3284853 0.25868887 0.5306488 -0.05587113 0.27068803 0.21744642 0.21799922 0.23168121 0.6252191 0.6559527 -0.010133654 -0.059557423 0.08405517 0.09079254 0.004164625 0.032906957 0.2751874 0.32652795 0.25102836 0.22718684 0.61035967 0.58016187 0