# vtk DataFile Version 2.0
Really cool data
ASCII
DATASET POLYDATA
POINTS 1459 float
-34.71483 39.76699 28.640676
-34.962837 39.86141 29.692375
-34.962048 39.812756 30.457184
-34.85284 39.939823 31.60587
-34.75595 40.067142 31.998842
-35.03627 40.550327 28.818771
-35.26494 40.56378 29.61404
-35.290882 40.64449 30.470808
-35.14102 40.421013 31.533329
-34.96164 40.684353 32.013386
-34.71222 41.687523 28.356344
-35.049892 41.405495 28.773909
-35.259747 41.586273 29.49371
-35.323036 41.112522 30.323944
-35.173897 41.333527 31.510035
-34.890945 41.469063 32.12712
-34.84105 42.35268 28.8789
-35.04579 42.23629 29.42503
-34.91281 42.44243 30.32836
-34.99778 42.01658 31.533987
-34.68833 42.850418 29.940798
-34.035084 38.932507 29.307241
-34.126205 39.841354 28.046503
-34.473907 39.441975 28.606604
-34.615467 40.118725 32.274174
-34.29168 40.437447 28.005283
-34.22779 40.782074 32.759792
-34.3599 41.476803 28.12526
-34.509968 41.195507 32.625755
-34.455833 41.29516 32.698475
-34.36383 42.09218 28.296858
-34.63582 42.24651 28.495865
-34.37468 42.697895 32.48071
-33.968678 42.441372 33.17989
-34.147392 42.797176 28.806326
-34.320526 43.018204 29.633059
-34.054485 43.671806 31.370945
-34.077595 43.46368 32.43537
-33.840477 43.665455 30.979935
-33.928165 43.847046 31.646894
-33.811424 43.930374 32.302353
-33.893036 39.285973 28.163942
-33.76477 39.089134 28.50642
-32.951546 39.236 32.530167
-33.60439 39.795444 27.908455
-33.836704 40.271336 27.832722
-33.825394 41.318237 27.9592
-33.176414 41.89768 33.960922
-33.59121 42.18007 28.307823
-33.26088 42.57351 28.70386
-33.214603 42.42021 33.946377
-33.704582 42.751312 28.796165
-33.4381 43.195267 29.677912
-33.355927 43.42485 33.354664
-33.004997 43.182125 33.846947
-33.469048 43.861248 30.992373
-33.44105 44.12539 31.519918
-33.40528 44.161026 32.30835
-33.425713 43.929134 32.837215
-31.631714 30.854483 30.830133
-31.621721 30.963772 31.150187
-31.684317 31.384954 30.626833
-31.656328 31.41832 31.006376
-31.588142 31.975021 31.013357
-32.100525 38.781574 30.701777
-32.295685 38.695602 31.511314
-32.490036 39.984756 28.704073
-32.258255 39.452843 33.421967
-31.849958 39.48564 33.625336
-32.768814 41.103134 33.876606
-32.99393 41.376377 28.19832
-32.646057 41.415905 34.05502
-33.003876 42.247818 28.61583
-32.22504 42.585823 34.387005
-33.146763 42.77033 28.974855
-32.653297 43.150185 29.91533
-32.353584 43.149544 34.037724
-32.453873 43.760303 30.912655
-32.629753 44.128803 31.56483
-32.650753 44.1817 32.40592
-32.502193 43.817528 33.257812
-30.83452 30.123896 29.916706
-31.043869 29.957523 30.784994
-31.141472 30.043867 31.177193
-30.891096 30.160627 31.889967
-31.227274 30.7209 29.900803
-31.357643 30.432318 30.46724
-31.41092 30.555443 31.463041
-31.099922 30.690212 31.991121
-30.859062 31.605694 29.292253
-31.250551 31.639517 29.517126
-31.046587 31.215534 32.103683
-31.539988 32.121983 31.060837
-31.136576 32.39334 31.904123
-30.969442 33.836 31.490875
-30.68263 33.242935 32.130474
-30.753897 34.59103 31.740808
-30.837948 34.79869 31.846535
-30.895689 35.058273 31.445915
-30.61801 37.173363 29.15918
-30.748173 38.770794 33.892857
-31.41657 40.5198 29.244165
-31.632113 41.56127 29.219162
-31.556631 42.5572 29.843859
-31.496855 42.78659 34.221966
-32.06391 42.779354 29.78354
-31.74763 43.252956 30.598816
-31.377539 43.60522 31.99549
-31.331392 43.501957 32.87376
-31.688713 43.497932 33.367607
-31.733597 43.02196 34.08841
-31.995005 43.885113 31.562996
-31.962189 43.914898 32.513126
-31.94979 43.770523 33.077553
-30.275396 29.947136 29.85816
-30.500124 29.690222 30.575895
-30.393787 29.686337 31.377777
-30.622252 30.101715 31.981945
-30.033884 30.404959 29.238075
-30.597288 30.771355 32.410934
-30.29151 31.115355 32.644657
-30.233406 31.340961 28.961374
-30.464067 32.40207 32.634556
-30.186996 32.885372 32.782887
-29.836643 33.69102 25.524862
-30.501698 33.023388 29.54487
-30.496723 33.03279 32.585533
-29.983099 34.646324 24.567312
-29.995087 34.555573 32.787575
-29.750526 35.04981 24.205408
-30.049019 35.436195 24.846859
-30.178226 35.44456 26.381577
-29.823303 36.10478 25.259995
-29.953827 38.21688 29.155489
-30.607798 39.12483 34.150513
-30.210592 41.81189 29.999327
-31.119457 42.89521 30.598152
-30.996384 43.09193 31.507809
-31.207281 43.45974 32.83411
-31.064226 43.16452 33.303837
-31.18367 42.82327 33.907703
-29.846779 29.854933 29.815336
-29.585762 29.647974 30.811205
-29.861431 29.6312 31.24736
-29.807814 30.00603 32.0359
-29.587738 30.472433 29.218397
-29.363134 31.49786 33.134922
-28.748014 33.124275 23.806276
-28.987696 32.723503 24.54703
-29.329014 32.779026 25.457071
-29.702408 32.371902 33.153862
-29.233442 33.606342 24.108114
-29.240133 33.269043 24.28755
-29.764706 33.146988 33.01884
-29.176498 34.637726 23.820505
-29.18821 35.51295 23.814857
-28.933714 36.201443 24.118454
-29.363577 36.21643 24.590534
-29.259695 36.222202 33.249744
-29.018597 36.68932 24.898413
-28.89095 37.17071 25.841923
-29.454424 38.247513 34.34073
-28.84976 39.038544 35.198975
-29.218872 39.306915 28.854485
-29.135849 40.461136 29.507109
-29.49749 41.981335 30.289465
-29.362972 42.07487 30.438738
-28.731888 29.934004 30.96543
-28.661036 30.046534 31.42271
-28.246063 30.434942 32.148514
-28.320742 32.238037 24.568058
-28.717327 32.114388 28.82048
-28.625877 31.667122 33.12424
-28.26866 32.78473 23.810019
-28.414907 32.603634 33.194866
-28.077814 33.520145 23.407951
-28.27754 33.27007 23.569971
-28.22363 34.61974 23.407406
-28.694723 34.578365 23.539173
-28.426403 34.20626 33.144455
-28.260765 35.25543 23.432846
-28.716425 35.3545 23.54713
-28.517792 36.323208 24.003653
-28.112547 36.951385 24.627531
-28.303362 37.335514 25.415232
-27.92995 38.032265 34.840847
-28.154222 37.998325 27.276981
-28.565807 38.93213 28.53635
-28.148415 39.54561 35.676487
-28.576998 40.175354 35.50561
-28.064669 40.16986 35.715256
-28.716194 41.29615 30.191664
-28.31282 42.11101 31.831108
-28.37203 41.763725 33.185238
-27.912737 30.407148 31.5439
-27.64024 30.76953 30.932745
-27.593273 30.65935 31.68631
-27.837742 30.868912 32.24491
-27.60301 32.071968 24.607292
-27.55611 32.014835 25.303823
-27.577263 32.04252 26.083841
-27.985212 31.541775 32.765724
-27.682755 32.77971 23.709631
-27.54845 32.90726 32.592228
-27.993118 32.509796 32.90234
-27.721807 33.55438 23.393785
-27.733566 33.13176 32.479343
-27.644583 33.263172 32.660545
-27.942198 34.460896 23.396322
-27.567076 34.9443 32.598724
-28.083487 36.34634 32.935825
-27.707867 37.75636 34.60101
-27.77589 37.599068 25.662989
-27.427279 38.632736 35.51871
-27.309645 38.680794 35.581722
-27.576557 39.66131 35.874786
-27.499226 40.19189 30.002169
-27.3791 40.17458 35.90682
-27.721909 40.941113 35.489563
-27.261187 42.044033 32.991943
-26.873442 42.09561 34.57051
-27.30497 31.11335 31.150179
-26.659176 32.183884 26.48137
-27.045889 31.80995 31.879747
-26.880527 32.533306 24.122646
-26.264656 32.541893 27.598246
-27.078037 32.34778 31.912868
-26.364492 37.461136 25.922037
-26.335192 38.001717 34.59862
-26.827362 38.020805 35.132816
-26.3988 37.618107 26.046696
-26.455494 38.009007 27.794842
-26.951437 38.34848 28.727034
-26.517101 38.98324 35.78446
-27.014448 39.079895 29.946758
-26.164356 39.830566 35.995876
-27.230822 39.79331 30.29025
-26.383406 40.237076 35.99184
-26.328615 41.502743 35.440815
-26.188358 41.216553 35.67144
-26.297993 42.20584 33.219715
-26.180119 42.305923 34.447033
-26.728048 41.880634 35.05796
-26.03724 32.0536 25.979488
-25.95956 32.430557 24.73483
-25.894445 37.52242 25.94552
-26.093014 38.19792 33.428066
-25.685148 37.99413 27.34596
-25.504332 38.712654 35.49927
-25.556202 39.505543 35.942204
-25.654837 40.23952 32.42461
-25.424904 40.30142 35.916027
-25.906971 41.167816 32.44398
-25.496239 41.540318 35.32728
-25.626951 41.19077 35.636696
-25.713734 42.300365 33.721275
-25.61207 42.299976 34.34976
-25.674229 42.017914 34.94634
-24.630337 32.823357 25.42638
-24.053423 37.6876 20.70421
-24.275377 37.337906 21.408451
-24.084105 37.029358 22.980942
-23.97236 38.47262 20.861277
-24.270126 38.286415 21.637543
-24.20234 38.019943 25.966164
-24.308493 38.25088 26.482954
-24.97221 38.66841 34.731453
-24.647043 39.119957 35.389137
-24.99361 39.193745 35.710888
-23.833181 38.79979 21.033045
-23.937325 38.799843 21.220686
-24.456884 39.640274 35.495632
-24.736803 39.741306 35.75433
-24.986843 40.532642 33.067356
-24.766937 40.639603 35.559998
-24.954695 40.437363 35.73759
-24.538076 41.056072 33.903397
-24.761068 41.585457 34.494034
-24.937649 41.18142 35.304153
-24.985699 41.879593 33.868965
-25.091612 41.990196 34.469517
-23.004131 31.129744 26.044205
-22.909971 31.071093 27.43475
-23.234457 33.98083 24.705496
-22.829311 35.40799 21.523096
-23.153475 36.89811 19.872778
-23.587448 36.78934 20.507195
-22.80095 37.715313 19.263523
-23.188429 37.42223 19.715675
-22.754038 38.05609 19.213
-22.928463 38.388577 19.590298
-24.314907 39.1716 34.801777
-24.352419 38.993645 34.969448
-22.986423 38.794308 20.013266
-23.49509 38.927616 20.791285
-23.297798 39.12974 21.668062
-23.470598 39.051292 22.041338
-23.052317 39.560654 26.466482
-24.193974 39.531265 34.623478
-24.222977 39.52648 35.152916
-22.861288 39.784786 26.602638
-24.197496 40.31132 34.139126
-24.233425 40.47227 34.503536
-24.294456 40.23452 35.227383
-24.393621 40.874855 34.48638
-22.037548 30.298275 25.76713
-21.819199 30.164566 26.544243
-22.004038 30.551184 25.365034
-22.37485 30.625141 26.159363
-22.362394 31.357748 28.651236
-22.648678 31.681456 29.065828
-22.315691 33.023964 30.78347
-22.391891 33.75585 31.148357
-22.033012 35.17506 20.332836
-22.061934 34.36888 31.36167
-22.161081 35.882236 19.824028
-22.08772 35.07972 31.177635
-22.434536 36.894432 19.228638
-22.278538 37.823124 18.979559
-22.2802 38.243553 19.075674
-22.163591 38.663277 19.27175
-22.347088 38.924088 19.78871
-22.490578 39.14263 20.444447
-22.5923 39.231052 28.769218
-22.257689 39.669662 25.091927
-22.139936 40.08119 25.749193
-22.181639 40.39287 26.687126
-21.785664 41.015934 27.957087
-21.861166 40.87714 29.076942
[...]
POINT_DATA 1459
SCALARS features_00 float 1
LOOKUP_TABLE default
0.7455179 0.6993356 0.5707249 0.46796906 0.44414198 0.7964119 0.7286532 0.5995074 0.48696047 0.46194983 0.8204319 0.8146788 0.78379375 0.6524852 0.49479958 0.4613282 0.8042798 0.7921212 0.70500946 0.5441036 0.7013249 0.67441964 0.75362104 0.72528905 0.42224586 0.7947123 0.4329793 0.81783116 0.46401036 0.46963304 0.7968943 0.80493313 0.64427817 0.63677895 0.73969203 0.69404495 0.6751522 0.7542412 0.6509532 0.72377396 0.7923455 0.7181985 0.701476 0.5109724 0.72207713 0.7695839 0.7960369 0.65972054 0.71716607 0.6178349 0.76086634 0.6856595 0.570006 0.8265935 0.8111552 0.65636784 0.73108697 0.8081358 0.8335966 0.7597188 0.7382876 0.73784834 0.71103495 0.63737375 0.56612456 0.5538302 0.75604343 0.2769939 0.23997468 0.474064 0.693782 0.596035 0.5803356 0.77165294 0.5675382 0.4569028 0.73942137 0.5886896 0.7292518 0.78464353 0.74486196 0.8267277 0.82353234 0.8077949 0.7971802 0.80614704 0.79899144 0.75919354 0.7365949 0.75799096 0.7663937 0.6650411 0.60666513 0.5050934 0.29048356 0.3694629 0.26501742 0.24904653 0.21594334 0.16753593 0.06990448 0.45869404 0.39488405 0.3272539 0.6583931 0.38783714 0.42784008 0.60495925 0.62081385 0.6588328 0.67919844 0.6457341 0.6820936 0.6761973 0.8307588 0.8459465 0.8412088 0.80572134 0.77737045 0.725183 0.6809881 0.7279346 0.51178986 0.44991392 0.5636922 0.6281192 0.40663755 0.56734675 0.2861058 0.55595493 0.5600169 0.5448809 0.517324 0.1771962 0.15353689 0.17908575 0.33137316 0.46942735 0.60346174 0.5815132 0.6070825 0.8161206 0.8409574 0.84818757 0.8287891 0.71308625 0.72019446 0.54116255 0.57417595 0.5671495 0.61827135 0.53773034 0.5515785 0.48094875 0.52347994 0.5495887 0.52587104 0.5198854 0.14769726 0.46079308 0.35954565 0.22458495 0.43321314 0.24837336 0.199246 0.15496606 0.15925355 0.70571744 0.68470204 0.62551296 0.5963582 0.5455905 0.6665162 0.5586882 0.528203 0.5206926 0.5337922 0.5054691 0.51460814 0.3348669 0.5036417 0.53455937 0.49752885 0.3740338 0.3404515 0.45085704 0.15038407 0.21984491 0.5041944 0.46328932 0.517539 0.23106043 0.33388802 0.37218776 0.6002935 0.5629016 0.59937304 0.60458636 0.5864843 0.53121746 0.41135475 0.6014495 0.56281036 0.42548728 0.48731643 0.50617135 0.39968944 0.3838908 0.48692757 0.20083898 0.10126464 0.42854398 0.26536942 0.5315637 0.5438763 0.5480473 0.21235731 0.5739555 0.55886227 0.5260072 0.68881005 0.5831096 0.36439386 0.5646866 0.5671418 0.26446605 0.49214894 0.17110911 0.620186 0.56936216 0.15391025 0.076732405 0.13227077 0.633713 0.14370233 0.7020464 0.108247615 0.6819339 0.7177799 0.7221477 0.6932925 0.7412746 0.7022072 0.3971551 0.4363109 0.033223562 0.64190775 -0.0946229 0.7276498 0.7650341 0.60567975 0.7937732 0.6816982 0.7880925 0.7764236 0.7564576 0.7747586 0.7732016 0.25847417 0.6519606 0.6451901 0.61954546 0.6239437 0.59538144 -0.100329995 -0.08360184 0.7079445 0.79056627 0.78096753 0.61063707 0.5992679 0.8225186 0.8157954 0.7532898 0.85077775 0.83414006 0.83393943 0.8410888 0.8389183 0.8135361 0.8146497 0.34343246 0.38498026 0.06584492 0.48109108 0.6452266 0.6472591 0.69474125 0.6757958 0.7019048 0.69540274 0.7857847 0.7813201 0.66834754 0.61732674 0.5463613 0.5292981 0.26705754 0.8057544 0.8264196 0.29763278 0.83059525 0.8562622 0.85122144 0.85930073 0.41961235 0.42518088 0.41675574 0.37593746 0.28639638 0.26799476 0.44297153 0.49687982 0.47154087 0.57283187 0.55272377 0.5851879 0.6542322 0.6867732 0.68531084 0.66961706 0.6632471 0.6260747 0.77337825 0.26497072 0.31025866 0.37404647 0.6388399 0.80050045 0.51049334 0.51433337 0.51392305 0.48285162 0.3334549 0.34380883 0.3193507 0.38437352 0.55180204 0.57587373 0.429995 0.40394843 0.34676266 0.47914773 0.60571045 0.6534469 0.6064948 0.5937443 0.8035883 0.6116375 0.5783655 0.42509156 0.16124317 0.29219297 0.378198 0.4194384 0.8128866 0.567392 0.63365316 0.81179476 0.8337517 0.8415364 0.6064353 0.59893465 0.6756176 0.5985325 0.50814146 0.5845467 0.41658038 0.41454482 0.47890645 0.61246955 0.36295617 0.63152003 0.42049956 0.37768772 0.6332666 0.55015135 0.61856776 0.5007525 0.5498324 0.54006875 0.46939552 0.6193588 0.53772485 0.3435577 0.41130427 0.8196099 0.62366945 0.62389654 0.75627077 0.86933565 0.8649404 0.85005546 0.7914295 0.85836476 0.6588848 0.7064079 0.71786594 0.66014326 0.5903547 0.66981745 0.55027026 0.57500684 0.6487291 0.61299515 0.547804 0.37680465 0.38746765 0.58271474 0.6153338 0.5176452 0.46449047 0.4067955 0.39749277 0.34946498 -0.26057863 -0.12978338 0.5442739 0.58462346 0.65551144 0.6091932 -0.2700874 0.50630146 0.28198737 0.18483272 0.13189611 0.5044941 0.03630719 0.37514257 0.6683586 0.64000803 0.79665744 0.778368 0.8507018 0.89245296 0.87675375 0.7364954 0.6954094 0.65495574 0.76560825 0.65513396 0.6034391 0.44964018 0.40204203 0.37906563 0.3573381 0.3607267 0.7079104 0.60623205 0.5878732 0.5372214 0.4468685 0.36339596 0.35410893 0.3664835 0.5860547 0.5666052 0.5901903 0.5210911 0.4397463 0.40811867 0.30002362 0.47165424 0.554018 0.5673537 0.6513103 0.6432778 0.3990285 0.2588454 -0.30600274 0.4840619 0.49492338 0.5289753 0.56779253 0.6597752 0.6659572 0.66866845 0.3654469 0.32677954 0.6765947 0.6817342 0.67215884 0.6475674 0.23530841 0.43209752 0.46732008 0.5058397 0.5476884 0.58335793 0.18457776 0.8100454 0.67211914 0.66593087 0.6481147 0.8120998 0.8245021 0.8138721 0.7117882 0.83473885 0.87839234 0.8723624 0.73850465 0.7036817 0.4279282 0.7482723 0.73742497 0.71104014 0.66546893 0.63366896 0.46834433 0.43310946 0.40537563 0.3875021 0.3852992 0.3546344 0.3354507 0.3266119 0.7394395 0.73163694 0.70866024 0.64041275 0.6192812 0.61438364 0.55175626 0.37087244 0.36403227 0.6418568 0.70970523 0.6208534 0.58534276 0.63739836 0.30748415 0.5744708 0.5534146 0.6483055 0.24546754 0.12399283 0.66734123 0.6595877 0.6702399 0.6439724 0.60054564 0.26629862 0.306455 0.48180786 0.6394856 0.42334995 0.42554295 0.44294828 0.4361089 0.4116765 0.38661087 0.551041 0.42669553 0.5905414 0.32411504 0.21383172 0.583774 0.5701195 0.6316958 0.55290085 0.5231469 0.19187158 0.55449784 0.5347481 0.69418824 0.6868919 0.7171922 0.3925454 0.41275716 0.34491172 0.34645328 0.347049 0.29322472 0.23954105 0.45876235 0.23572084 0.42624176 0.35643804 0.40081814 0.41856146 0.22631752 -0.09406383 0.60938525 -0.068976626 0.6138913 0.40600902 0.61547124 0.5606137 0.6254569 0.6760121 0.6734569 0.713539 0.71706486 0.13271014 0.16921559 0.30449083 0.1965616 0.1668144 0.14403376 0.1532377 0.53837264 0.1286061 0.014283381 -0.13815767 0.57755214 0.6316195 0.68128574 0.637428 0.6614162 0.7005978 0.7067503 0.7059126 0.56429946 0.52237475 0.6181941 0.49823403 0.26015234 0.051703304 0.09185282 0.6778462 0.5256946 -0.0117895175 0.62988156 0.66410744 0.19168884 0.04921606 0.24559385 0.20489901 0.18734002 0.07195734 -0.13346031 -0.053657148 0.58319634 -0.01469193 0.49343067 0.6035899 0.5944359 0.54897237 0.5507232 0.54569 0.6404387 0.637439 0.6102849 0.45699483 0.11521819 0.69098014 0.60681623 0.09007712 0.6483284 0.014496155 0.6008748 0.60595506 0.0951746 0.5729346 0.44260713 0.2538561 0.3010827 0.18985923 0.1867361 0.23436296 0.464336 0.5813874 0.7071836 0.63045496 0.6506023 0.65840006 0.6545272 0.5972984 0.57147706 0.5925998 0.61815846 0.6006172 0.36661452 0.525352 0.4137628 0.28372818 0.3265705 0.1380552 0.17331737 0.14123264 0.3025974 0.33882096 0.39923722 0.11209366 0.6291235 0.071916215 0.1389971 0.56960887 0.11307925 0.34209406 0.6883492 0.53924996 0.5453138 0.7537241 0.41107124 0.1990959 0.7494091 0.24783392 0.8174863 0.7612628 0.75757825 0.78409225 0.7667836 0.7139421 0.5328076 0.69369745 0.6931094 0.56359756 0.13154988 0.1279464 0.18850133 0.20103928 0.33387646 0.32063153 0.2141628 0.18692997 0.529376 0.44166362 0.24742237 0.12835215 0.4921883 0.41370118 0.29224443 0.26646662 0.34012252 0.482297 0.42673516 0.12908337 0.2876293 0.43577737 0.5877545 0.18621345 0.09643872 0.5625676 0.63718116 0.35345787 0.7178441 0.7600483 0.46955293 0.77988565 0.45859605 0.76568234 0.19078274 0.5214999 0.31399962 0.33123916 0.32887304 0.8473736 0.84264946 0.7929877 0.77556014 0.7290274 0.6013204 0.6685616 0.34631836 0.43210948 0.4737804 0.31831712 0.076877296 0.09554146 0.17912799 0.19198635 0.19525325 0.60048646 0.5730257 0.17665482 0.61150384 0.57452065 0.24778187 0.20248061 0.6013629 0.54210454 0.14224713 0.34339362 0.2387264 0.4941386 0.66422486 0.704444 0.39064056 0.33857602 0.27754638 0.30366647 0.53183645 0.74908924 0.7718332 0.38916582 0.79203165 0.39945346 0.18974245 0.052297853 0.7760823 -0.057214905 -0.08863738 0.7070012 0.2593847 0.32329914 0.40603673 0.45253354 0.58181566 0.3118989 0.33591214 0.79014325 0.8019117 0.81959534 0.8056606 0.7213696 0.7532608 0.79025495 0.7437866 0.46089777 0.26798928 0.0384032 0.017711677 0.03879202 0.023639634 0.11378785 0.20985308 0.55501723 0.50995195 0.36393708 0.27662623 0.6287217 0.27502018 0.63008475 0.2012122 0.4649545 0.44655907 0.42788082 0.24529758 0.38575652 0.20129244 0.69405925 0.70313764 0.75702083 0.3960667 0.36357844 0.28788462 0.33885565 0.2520511 0.68228114 0.7805727 0.79816157 0.35680637 0.20926102 0.16089556 0.0011198074 0.56587917 0.78231394 0.74238944 0.39264265 0.4583426 0.52066547 0.6289666 0.72427 0.7620219 0.5556811 0.5970509 0.60970366 0.26593286 0.24975397 0.21802306 0.105097376 0.43867487 0.38443744 0.32202232 0.5052136 0.40026462 0.4668331 0.6236911 0.45438233 0.6222293 0.36655504 0.4735918 0.38007298 0.23615038 0.08603019 0.7749944 0.74204576 0.76283514 0.45122987 0.4423247 0.42042089 0.3527102 0.30597296 0.08414564 0.1616146 0.348857 0.6795303 0.78198385 0.7823094 0.255995 0.2677982 0.5636354 0.77530324 0.7788633 0.53850657 0.54452616 0.6038988 0.7362144 0.763551 0.50112045 0.51928115 0.55093 0.35089272 0.36361563 0.384881 0.42535403 0.103483625 0.3675145 0.2576392 0.31789196 0.37943375 0.42381597 0.385279 0.2526384 0.012124188 0.41668394 0.47267458 0.5400107 0.549706 0.5641765 -0.061246283 0.5852881 0.14383835 0.042080324 0.740384 0.6931702 0.5617341 0.47325283 0.42912918 0.41461188 0.4018541 0.342457 0.41475987 0.7832459 0.7875289 0.7857284 0.7852404 0.77550316 0.71170574 0.57034993 0.6902714 0.78224516 0.82694554 0.80930626 0.73776543 0.5454214 0.56293267 0.59866714 0.82141006 0.38199943 0.4105295 0.40627104 0.38354626 0.09078115 0.32116866 0.27877462 -0.03027235 0.5581535 0.58376 0.5881493 0.5618074 0.06652397 0.627428 0.5850753 0.015105564 0.012383556 -0.0029959306 0.66858774 0.6624636 0.6981214 0.6286237 0.5272877 0.7438064 0.66817737 0.7730974 0.74065995 0.48806733 0.20640281 0.6166159 0.67514277 0.70976377 0.8031676 0.7978836 0.8391625 0.8413351 0.5659975 0.42302507 0.8313111 0.7825356 0.7220753 0.50707173 0.42321852 0.4473364 0.18272376 0.4802592 0.489169 0.15924731 0.48252168 0.21890257 -0.08117606 0.05050877 0.11683366 0.7471822 0.71203977 0.6641924 0.03458049 0.769646 0.7595053 0.71548355 0.71151435 0.6785002 0.60511345 0.67552614 0.69609225 0.74886644 0.7515643 0.76798964 0.2837255 0.2519882 0.6835761 0.7170975 0.8135144 0.8331382 0.29994833 0.7952829 0.72370327 0.6383443 0.5152443 0.3679745 0.3500043 0.68266857 0.64359313 0.6927638 0.55933726 0.6117949 0.1542766 0.18011618 0.0077334717 0.14351285 -0.019297116 -0.1826279 0.036096405 0.114942856 0.12633918 0.6928247 0.6480974 0.772272 0.3629464 0.33904055 0.8251735 0.26301667 0.831571 0.2751924 0.76128095 0.58604753 0.46353644 0.39417621 0.36302698 0.34143 0.30726847 0.41397268 0.37928903 0.84939784 0.83305764 0.86246395 0.794206 0.84941757 0.7337032 0.8378521 0.7006509 0.6834066 0.6399331 0.5987762 0.22694759 0.34362 0.4115635 0.36242968 0.49141365 0.13760464 0.08305566 0.30240515 0.55813545 0.3981381 0.6087542 0.46131974 0.3921634 0.36305058 0.3937335 0.39762154 0.8106239 0.26418006 0.48364806 0.43221837 0.36296076 0.29685026 0.36972094 0.83371544 0.875438 0.92637277 0.9253688 0.86924314 0.7920947 0.80738866 0.75363284 0.7107352 0.6217979 0.5090215 0.56300604 0.56746817 0.41462153 0.46962953 0.52727145 0.2671761 0.3436375 0.57620555 0.5883341 0.20479468 0.18680067 0.5333469 0.120875485 0.18095744 0.21153857 0.47163022 0.5097856 0.44751626 0.4517412 0.44374737 0.3641899 0.3936001 0.42314702 0.41281956 0.3279831 0.3880309 0.2601291 0.32041878 0.25931546 0.84406817 0.8533573 0.8721926 0.81115216 0.8189318 0.8191565 0.82062644 0.74795055 0.76205176 0.74989426 0.76129854 0.77833784 0.6583927 0.6419645 0.67430353 0.58238024 0.3660525 0.5731496 0.5454341 0.16100714 0.3684945 0.47330484 0.50554824 0.42892277 0.44274002 0.46133047 0.45858002 0.48372832 0.24504629 0.8075011 0.79122365 0.78483796 0.7907252 0.48905864 0.51966196 0.350439 0.38605958 0.39454383 0.4293804 0.42744 0.41952443 0.43650585 0.40257043 0.38867545 0.5293393 0.58171153 0.12177582 0.5300805 0.5871414 0.5698279 0.6349859 0.6778989 0.54719913 0.45643806 0.52141833 0.50426507 0.38120273 0.36988813 0.38881737 0.42684782 0.027561858 0.41119426 0.108616225 0.41834515 0.16109376 0.37435538 0.45675552 0.11240147 0.52524424 0.56179595 0.57415545 0.6667248 0.5773506 0.5734693 0.64499855 0.6811857 0.6907357 0.654121 0.68149155 0.55001056 0.5463392 0.53493774 0.50182265 0.5407426 0.56431127 0.51451474 0.46143436 0.35137507 0.33997 0.42509645 0.39156353 0.3506205 0.18459876 0.5442397 0.68503535 0.56255877 0.57322377 0.6141057 0.7026086 0.6929631 0.6010358 0.61881125 0.6848476 0.6972133 0.5884556 0.40073845 0.5005576 0.31412587 0.26018283 0.22380427 0.15916881 0.17772193 0.20469171 0.176545 0.6790392 0.5212116 0.5995895 0.6438122 0.71679115 0.71346116 0.6469088 0.6849258 0.52929616 0.53175926 0.50405663 0.5063687 0.49340308 0.5922648 0.48433197 0.51174617 0.3155215 0.5003458 0.3318259 0.19055283 0.18274178 0.22947606 0.29588592 0.16350532 0.14614344 0.48787862 0.5130178 0.47011244 0.654459 0.44659144 0.5134546 0.5107817 0.488261 0.6418184 0.6380858 0.70509255 0.7204491 0.7238021 0.54930866 0.5851136 0.59191537 0.5284388 0.64781874 0.5751097 0.5319008 0.5691602 0.5413493 0.4877564 0.115242794 0.55368143 0.46141067 0.40345022 0.2913532 0.5482631 0.53890634 0.23302922 0.12389852 0.35130173 0.5717774 0.36920035 0.5148436 0.5323309 0.52755904 0.5176481 0.63765264 0.66026556 0.6384789 0.6900685 0.7029947 0.6136498 0.6263417 0.7049924 0.6884543 0.6627787 0.7029056 0.58701146 0.6271103 0.6875352 0.6206484 0.56787527 0.56025165 0.5139225 0.6295067 0.43122053 0.63216126 0.6448029 0.4003294 0.6163549 0.5895227 0.33632046 0.5770226 0.39935127 0.417188 0.49605006 0.22959635 0.5061717 0.69093454 0.60702765 0.61816746 0.5934684 0.75349844 0.73212075 0.72951305 0.7910707 0.5389859 0.5715843 0.6092397 0.74805886 0.57928216 0.6000726 0.78490067 0.62892675 0.6599403 0.4571242 0.6244784 0.42675132 0.60117346 0.58913785 0.25020713 0.52121806 0.5418715 0.5864619 0.5305023 0.7506257 0.71080863 0.59738594 0.83144355 0.8329543 0.84138507 0.8214751 0.71622634 0.5432892 0.55141544 0.8251649 0.5503903 0.5510854 0.5524269 0.563086 0.7558385 0.5675281 0.66079104 0.4003114 0.53885925 0.62596 0.6308423 0.46027106 0.59419954 0.29541078 0.5368596 0.5819726 0.4112282 0.3740995 0.61415684 0.64793396 0.530419 0.70402557 0.7177402 0.6971867 0.6263341 0.7499763 0.73570836 0.7011303 0.61276126 0.7621516 0.7402321 0.59640634 0.5466295 0.72324836 0.45816624 0.5232409 0.5482626 0.647992 0.5053361 0.5230038 0.61701804 0.4003552 0.5934867 0.5302241 0.4275448 0.32219273 0.5916961 0.44389176 0.67333555 0.6747601 0.63774496 0.5672902 0.6907408 0.6865561 0.62865925 0.6882911 0.6597847 0.6104539 0.5381491 0.67636716 0.67139125 0.6242244 0.48225167 0.4856538 0.6048795 0.434595 0.38650352 0.34598294 0.38968515 0.39917132 0.44581994 0.61711717 0.57438636
SCALARS features_01 float 1
LOOKUP_TABLE default