# vtk DataFile Version 2.0
Really cool data
ASCII
DATASET POLYDATA
POINTS 3466 float
-36.592667 -17.917528 52.386776
-36.670166 -17.268745 51.85647
-36.65225 -17.487852 52.559032
-36.578754 -17.36153 53.017963
-36.64257 -16.616077 51.88053
-36.72321 -16.6484 52.563396
-36.63929 -16.710516 52.87064
-36.63668 -15.322564 46.11141
-36.77508 -15.28447 46.913185
-36.762955 -15.029857 47.513077
-36.932564 -14.127393 45.001232
-37.13186 -14.236345 45.782875
-37.18278 -14.219303 46.52562
-36.97244 -14.287267 47.386898
-36.704517 -13.228239 43.672222
-36.92145 -13.774817 44.782104
-37.209423 -13.599758 45.628487
-37.2637 -13.538893 46.43609
-36.96889 -13.613543 47.446465
-36.709194 -12.683645 43.52591
-36.833836 -13.019486 44.428185
-37.0387 -12.950874 45.79443
-36.994427 -12.771684 46.432987
-36.863277 -12.71469 47.17474
-35.84796 -18.860647 52.03378
-35.903347 -18.841228 52.468513
-35.892384 -18.805872 52.844074
-35.82681 -18.388002 51.233593
-36.22642 -18.377718 51.833023
-36.237137 -18.428446 52.58348
-36.103703 -18.196455 53.18216
-35.759365 -16.809748 47.685417
-35.752605 -17.161842 49.984882
-36.218143 -17.588346 50.94498
-36.507957 -17.647207 51.54573
-36.316536 -17.43801 53.253265
-35.89026 -17.282656 53.754288
-35.82613 -15.785598 45.56349
-35.805035 -16.428804 46.637268
-36.123753 -16.198574 47.512012
-36.02932 -16.328035 48.087364
-36.053658 -16.500242 50.73245
-36.44962 -16.58321 53.06587
-35.787037 -16.957119 53.849094
-36.602882 -15.331062 46.2805
-36.45429 -15.598845 47.299515
-36.416447 -16.179382 51.78029
-36.337265 -15.962021 52.511917
-36.06214 -16.017206 53.158604
-36.222355 -13.505496 42.90106
-36.333115 -13.381429 48.202408
-36.412228 -12.710697 43.12883
-36.405075 -12.528361 47.697487
-36.244804 -12.660556 47.910633
-35.671265 -11.834334 42.004807
-36.138103 -11.198632 42.542904
-36.43068 -11.724395 44.479992
-36.061337 -11.531836 45.558483
-36.416042 -12.199247 47.047672
-35.893215 -12.294937 47.85027
-36.221664 -10.504133 42.649822
-36.016766 -9.767714 42.714622
-36.104805 -9.51891 43.532024
-35.91263 -9.562086 44.373447
-35.793423 -9.28404 43.473896
-35.78789 -9.1518755 44.13229
-35.39357 -18.989988 51.659325
-35.54466 -19.023327 52.576733
-35.56793 -18.846012 52.998085
-35.47481 -18.070312 50.135223
-35.41791 -18.562044 53.39352
-35.48786 -17.97609 53.7644
-35.313385 -16.796694 46.78991
-35.074913 -17.460249 47.62022
-35.282383 -17.521326 53.982243
-34.711475 -16.099983 39.029408
-34.929565 -16.165892 39.553844
-34.891094 -16.313488 40.68669
-34.71696 -15.951702 42.779827
-34.666733 -16.464844 44.59035
-35.31126 -16.570375 53.910892
-34.78307 -15.532558 39.06578
-34.99798 -15.359218 39.44691
-35.218777 -15.394135 40.385895
-35.06632 -15.594161 41.164204
-35.149666 -15.089851 42.438972
-34.69962 -15.317741 43.476555
-35.61323 -15.558067 51.54904
-35.64414 -15.585872 52.667427
-35.453438 -15.851067 53.25683
-35.24206 -16.15202 53.70764
-34.73405 -14.895709 39.02791
-35.09669 -14.879564 39.77289
-35.229786 -14.692413 40.869442
-34.97503 -15.370351 50.68237
-35.331654 -15.36655 52.482056
-34.755985 -13.613866 39.767094
-35.784584 -14.045115 48.46827
-35.293365 -12.858287 41.58142
-35.68431 -12.89095 48.25928
-35.280518 -11.906826 47.427418
-35.10394 -12.095271 47.74422
-35.601135 -10.616037 41.832516
-35.25896 -10.228505 45.458298
-35.226315 -9.635982 42.092716
-35.579712 -9.439255 42.454426
-35.491497 -9.70957 45.096233
-35.146397 -9.022587 42.76765
-35.396343 -8.973682 43.4707
-35.168377 -8.970024 44.309395
-35.238327 -9.215048 44.830807
-34.041492 -19.657963 50.80995
-33.972378 -19.037127 48.999725
-33.98925 -19.154467 49.56208
-34.44687 -19.079926 50.468357
-34.389275 -19.42152 51.301357
-34.54519 -19.240229 52.419525
-34.67352 -18.801718 53.312027
-34.19255 -17.911945 45.60592
-34.119686 -18.335777 46.148163
-34.068756 -18.264345 47.55288
-34.179157 -18.255001 54.004517
-34.241627 -16.656652 39.06685
-34.361153 -16.763266 39.426693
-34.374756 -16.888895 40.44255
-34.44038 -16.75842 41.783653
-34.511505 -17.17516 45.4576
-34.490543 -17.39529 54.163918
-34.391872 -16.337784 38.962955
-34.403778 -16.520842 42.845257
-33.945885 -16.715464 43.60171
-34.28291 -16.582865 44.47161
-34.521416 -16.79763 54.120907
-34.309425 -15.573709 38.70067
-34.490334 -15.75689 53.293713
-34.559605 -16.271057 53.923172
-34.37151 -14.727984 38.904427
-34.154285 -15.068975 50.813133
-34.22638 -14.978453 51.47713
-34.051872 -13.628287 39.033146
-34.939667 -13.449968 48.596985
-33.815212 -13.205371 39.01185
-34.177868 -12.688949 39.727116
-34.454395 -12.626202 47.90796
-33.893974 -12.268965 39.898422
-34.552917 -11.738865 47.24393
-34.560017 -10.796349 46.131054
-34.670113 -9.522854 41.95168
-34.40908 -9.220001 42.26409
-34.429966 -8.866439 42.7491
-34.315033 -8.719321 43.333893
-34.56113 -8.87558 44.259125
-34.741524 -9.215516 44.905003
-32.86803 -19.627747 48.986423
-33.427696 -19.578432 49.896862
-33.096436 -19.776617 50.207294
-33.23077 -19.899529 51.235844
-32.898766 -19.021132 45.273926
-33.68904 -18.803205 47.131783
-33.574368 -19.316622 52.99974
-33.39308 -17.690771 43.931934
-33.211544 -18.323189 54.16253
-33.63013 -17.18183 41.837337
-33.485012 -17.29028 43.18944
-33.377266 -17.652315 54.187122
-33.589535 -16.362429 38.807156
-33.58611 -16.41645 53.69402
-33.31887 -15.382878 38.48865
-33.72385 -15.358023 38.56876
-34.018173 -16.153635 53.739677
-33.250736 -14.908168 38.472717
-33.191574 -14.344487 38.583748
-33.61726 -15.048517 50.50558
-33.525925 -15.112902 51.708923
-33.10522 -13.697567 38.62376
-33.292263 -12.774696 39.1772
-33.797745 -11.709722 46.966
-33.668224 -11.253998 40.7976
-33.684673 -10.695552 45.931377
-33.98476 -11.340811 46.74659
-33.778084 -9.598377 42.015423
-33.35355 -9.448436 44.356285
-33.97964 -10.263676 45.54922
-33.826115 -9.167974 42.333626
-33.823112 -8.950188 42.76187
-33.71737 -8.859786 43.35445
-33.73676 -9.139484 44.32994
-32.570465 1.8022699 64.002266
-32.620647 1.7812234 64.40922
-32.595146 1.9192659 65.10015
-32.58954 2.4738333 63.99803
-32.645565 2.5186682 64.44445
-32.551273 3.233099 64.44261
-32.614353 2.9890494 65.459045
-32.622692 3.604224 66.49904
-32.591347 3.7630327 67.71681
-32.016613 -19.631433 45.424244
-32.26804 -19.605387 46.44219
-32.258793 -20.028122 49.754093
-32.400497 -20.062693 51.338425
-32.44774 -19.802252 52.06648
-32.370655 -19.139383 44.91307
-32.52096 -19.408451 45.768326
-32.483135 -19.436155 46.831287
-32.76964 -19.034557 47.23282
-32.200634 -19.429998 53.25488
-32.34497 -18.94386 53.904354
-31.68961 -17.814333 39.55429
-32.703827 -18.226656 54.186115
-31.726372 -17.677406 39.701675
-32.724 -16.951435 40.082726
-32.706352 -17.302378 54.138805
-32.687073 -16.458206 53.581657
-32.58829 -16.58167 53.77687
-32.823807 -15.542607 38.674065
-32.45198 -15.69072 52.492035
-32.669598 -14.156638 38.483032
-32.791115 -14.852079 49.835796
-32.38153 -15.418413 51.52395
-32.82704 -15.426073 52.05865
-32.628227 -13.753951 38.58805
-32.749535 -12.961432 38.941944
-32.949066 -12.389162 39.43902
-32.623936 -12.717087 46.219997
-33.194756 -12.470562 46.94155
-32.885475 -12.279718 39.623985
-33.04077 -11.23207 40.931496
-32.921917 -10.633567 45.357628
-33.140194 -11.075432 45.953762
-33.129147 -9.530979 42.644745
-32.672417 -9.931459 43.61449
-33.029263 -9.642302 44.222984
-33.237343 -9.174473 43.46043
-33.212654 -9.285838 43.885914
-31.696241 -2.9770093 66.03936
-31.70445 -2.9435997 66.2897
-31.626654 -2.972319 67.17598
-31.82665 -2.0882807 64.84642
-31.970371 -2.2620208 65.42244
-32.053833 -2.167979 66.20983
-31.72857 -2.5313177 67.429756
-31.632488 -2.4007144 67.85419
-31.94188 -1.6160928 64.72618
-32.19807 -1.4069732 65.54378
-32.244244 -1.5474482 66.23521
-31.995075 -1.5865668 67.32069
-31.744137 -1.443481 67.85398
-32.169704 -0.93449587 64.935425
-32.205074 -0.90270233 65.31708
-32.263115 -0.8790568 66.52276
-32.08442 -0.7173157 67.20958
-31.666397 -0.7940142 67.91036
-32.1033 0.9141629 63.766373
-32.396862 1.0372367 64.41913
-32.420437 0.9978555 65.562904
-32.08401 0.21614312 66.1981
-31.943651 1.6822768 63.096863
-32.371193 1.5781506 63.68421
-32.460186 1.2556043 64.64645
-32.46549 1.4401397 65.33767
-32.018757 2.4458237 63.10018
-32.36957 2.4559803 63.592365
-32.258717 2.8730106 68.5975
-31.977625 2.7075317 69.06168
-31.928377 3.0754714 63.1729
-32.290016 3.3052502 63.756195
-32.464066 3.4141355 64.522835
-32.454155 3.2066367 67.895355
-32.46552 3.5547817 68.22661
-32.153255 3.501178 69.2123
-31.736362 4.0475483 70.035126
-31.945944 4.163499 64.13415
-32.071674 4.2795663 64.80853
-32.384533 4.1063175 65.222015
-32.412094 4.4710636 66.21102
-32.479153 4.4278083 67.491135
-32.29855 4.2449737 68.69698
-31.9898 4.5130544 69.35742
-31.63019 4.6447554 70.32411
-32.07359 5.001746 65.769325
-32.2871 4.9640784 66.82428
-32.094913 5.3367953 67.74324
-32.05923 5.5930552 68.21988
-32.0525 5.1357303 69.099205
-31.813765 6.0598 68.56593
-31.73036 5.8980417 69.3903
-31.610176 5.9902053 69.95699
-30.670485 -22.833664 37.538708
-30.634039 -22.407625 36.999607
-30.763653 -22.485453 37.52638
-30.79784 -22.17252 38.10913
-30.701868 -21.623602 36.90128
-30.815792 -20.964542 38.506138
-30.986858 -20.58138 49.173336
-30.659897 -20.69745 36.83613
-31.53988 -19.724445 45.586205
-31.400923 -19.782322 46.32037
-31.443016 -20.317135 49.069233
-31.776255 -19.996134 51.56319
-31.20689 -18.860762 39.59267
-31.511412 -18.825554 44.141663
-31.709496 -19.502382 44.977596
-31.863579 -19.463078 53.224926
-31.649347 -18.811419 53.783768
-31.329254 -18.50808 39.51749
-31.52286 -17.761375 43.1357
-31.761824 -18.714863 53.993553
-31.590105 -17.399733 41.312073
-31.32576 -16.42468 53.247173
-31.608313 -17.142933 53.843067
-31.276667 -15.69525 51.309948
-31.696291 -15.873115 52.53075
-31.591503 -16.290085 53.267597
-31.387257 -14.55602 49.016983
-31.387472 -15.365853 50.803864
-31.828468 -15.2444515 50.927567
-31.880621 -13.467899 38.822243
-31.981796 -13.254423 45.67119
-31.62308 -14.225332 47.80149
-31.713549 -14.296847 48.495068
-31.861097 -13.01667 39.125782
-31.157486 -12.489077 39.85141
[...]
POINT_DATA 3466
SCALARS features_00 float 1
LOOKUP_TABLE default
0.74740994 0.75222546 0.78193104 0.80707914 0.78706646 0.8195433 0.8295983 0.35554394 0.37322435 0.41910994 0.39276463 0.47363728 0.52214307 0.59342515 0.27113605 0.38033167 0.4748413 0.56175613 0.6650384 0.29157937 0.34813154 0.48798388 0.5885534 0.6347966 0.6214654 0.66380394 0.6882621 0.58350587 0.6686262 0.7165379 0.7554737 0.16671044 0.46919698 0.6459304 0.705022 0.8114105 0.82425743 0.20373333 0.2069855 0.21947026 0.16351525 0.7192342 0.83769274 0.8220351 0.35409376 0.3003999 0.8072498 0.82677907 0.8231288 0.21027927 0.6093219 0.2609165 0.58124506 0.56603634 0.28908604 0.42141762 0.42635617 0.54186136 0.5770925 0.5213782 0.6264608 0.7295287 0.72460127 0.67731434 0.7597191 0.738871 0.54071563 0.62870175 0.67279875 0.43031502 0.7112404 0.7755226 0.18218517 0.1470489 0.785303 0.65918005 0.6552664 0.5662243 0.10964272 0.019112404 0.7705078 0.6507058 0.6507257 0.61100423 0.4678142 0.19635983 0.010849845 0.749825 0.7780162 0.7701613 0.7523312 0.6204727 0.6246567 0.48155153 0.51630604 0.72063124 0.5179546 0.60413814 0.17625228 0.5191451 0.43541595 0.42884225 0.6079117 0.5496072 0.707821 0.74439275 0.6392128 0.7621732 0.7744367 0.7533519 0.6978721 0.28939554 0.12193024 0.1755662 0.30405214 0.37947312 0.5256271 0.6613705 0.1783292 0.22244106 0.13900456 0.6892804 0.663713 0.66125524 0.56416667 0.26774397 0.117323175 0.68898517 0.6601703 0.06920763 -0.0012787562 0.019564575 0.6692349 0.62749046 0.6192572 0.6647829 0.5893624 0.35903025 0.41526014 0.5081242 0.47804314 0.47700745 0.43032497 0.38683704 0.38370654 0.35781 0.35394004 0.6706398 0.7143092 0.75432146 0.7825546 0.7773246 0.68319184 0.10618688 0.20045751 0.23499694 0.31686574 0.2827619 0.17497364 0.5627599 0.089806415 0.6192999 0.18614571 0.025920145 0.6037554 0.621276 0.54907465 0.56144553 0.5895797 0.58055526 0.5385621 0.50577235 0.26248905 0.31242603 0.47412616 0.43623 0.33001888 0.31640273 0.36141047 0.32524702 0.63003266 0.6027366 0.4624492 0.701133 0.73122483 0.73237157 0.6888751 0.42588815 0.39934528 0.3523208 0.44430685 0.4218496 0.43331078 0.36612916 0.33060312 0.35029066 0.30228025 0.26151824 0.21384332 0.33593005 0.4373483 0.31991482 0.28750837 0.22502825 0.1743798 0.5475453 0.58832186 -0.036895186 0.6098622 -0.034602568 0.21619366 0.57473314 0.49736622 0.5176217 0.49133095 0.31470004 0.45610934 0.17630552 0.20906982 0.28346893 0.4501124 0.43054307 0.38745147 0.20969889 0.2995934 0.3657232 0.32508057 0.40623152 0.3211475 0.6195625 0.50077397 0.54555297 0.65673035 0.63159597 0.5835606 0.5738534 0.5262155 0.5866561 0.586861 0.55579746 0.5040197 0.47743222 0.576434 0.52348626 0.5122634 0.4782802 0.45274243 0.47143307 0.45204863 0.4405458 0.42551887 0.39284608 0.3793715 0.33432582 0.25530803 0.295936 0.4796086 0.43945634 0.34429178 0.29637763 0.48918194 0.46687442 0.3562413 0.34593818 0.49194497 0.46589845 0.42931208 0.34757006 0.36018884 0.37006742 0.41254812 0.4233017 0.39283657 0.38028806 0.3521951 0.3463483 0.37559366 0.40501133 0.4627393 0.36087608 0.35107833 0.36051205 0.3703038 0.39044416 0.37554345 0.39844435 0.4498575 0.6424183 0.6215118 0.6348026 0.6014034 0.58146846 0.47650352 0.1 0.4740845 0.28756544 0.25104845 0.11601624 0.34787387 0.07728228 0.30438152 0.30906862 0.5377063 0.589182 0.036767915 0.2285983 0.5972825 0.0010402501 0.43761277 0.5686732 0.11950521 0.27672756 0.42711237 0.07473905 0.077911414 0.1295442 0.38656956 0.07942423 0.06479704 0.089152835 0.37816593 0.30767506 0.16319495 0.31579494 0.32837164 0.30827576 0.36252213 0.3616389 0.5367851 0.5131937 0.47723946 0.5647467 0.5818211 0.5654755 0.5010355 0.47094437 0.44364858 0.55059195 0.5673077 0.46092385 0.43257463 0.5587007 0.42420572 0.38729948 0.44282144 0.45749247 0.47470754 0.30415958 0.4552153 0.4884278 0.31747583 0.49596858 0.38542247 0.4128812 0.44721276 0.46990094 0.350338 0.34682983 0.59805894 0.66616786 0.32531658 0.25778338 0.41412643 0.47137785 0.74488527 0.7407359 0.2942886 0.35516542 0.47718763 0.63193893 0.7767199 0.6501578 0.6161677 0.6246228 0.64262605 0.6087965 0.53610826 0.5966104 0.61808705 0.56448865 0.49461845 0.53940403 0.56908554 0.41370213 0.08828684 0.45180887 0.4557577 0.1941104 0.069636926 0.35065472 0.3295034 0.14478904 0.05538173 0.27095225 0.20827188 0.22460166 0.59770274 0.18929009 0.5684978 0.10106121 0.0648594 0.012684334 0.13840717 0.033300206 0.05411933 0.06248834 0.2515417 0.03651864 0.08028045 0.14149673 0.27913368 0.25460234 0.20875163 0.530069 0.49979296 0.46433148 0.45896825 0.4822991 0.49950147 0.46588606 0.42114878 0.49704552 0.50140226 0.39142603 0.4717688 0.41647846 0.20644526 0.42360103 0.23546173 0.42954916 0.47128758 0.44887328 0.43309656 0.35990387 0.4801003 0.519331 0.26845017 0.657194 0.8142095 0.340504 0.2733801 0.27544153 0.4570186 0.84688985 0.86936736 0.72471976 0.8479552 0.78689957 0.7914943 0.6324862 0.6478392 0.65675306 0.5777364 0.73758674 0.7761221 0.79740393 0.81297463 0.62207264 0.62926435 0.47763205 0.4312915 0.6726885 0.7637808 0.77965754 0.8150027 0.61028886 0.44532636 0.40547198 0.32759243 0.6630347 0.7254771 0.7690634 0.30426434 -0.024507247 0.16172287 0.27078736 0.21873 0.22908612 0.576285 0.4462108 0.49667165 0.088990256 0.1274505 0.30769727 0.010247916 0.14861065 0.123422556 0.17963815 -0.24225572 -0.21266626 0.7311145 0.6773405 0.6312691 0.2570147 0.69550943 0.6307218 0.56460154 0.24843821 0.62968 0.5925475 0.5315221 0.33221585 0.2586749 -0.0926956 -0.040898576 -0.007849485 0.58130133 0.56559306 0.5495322 0.52389467 -0.08003455 0.0986146 0.13790908 0.15868486 0.40770984 0.28676477 0.2608463 0.21274814 0.23992726 0.24453086 0.3619973 0.16009149 0.40173632 0.39418054 0.39298463 0.3980533 0.37210578 0.3582527 0.72031045 0.34517395 0.8247832 0.38719162 0.30135715 0.8754498 0.41357476 0.4036587 0.3647257 0.36596692 0.4443603 0.7919359 0.876521 0.7211287 0.76238346 0.7854413 0.8168394 0.6109674 0.62731373 0.65236676 0.5810353 0.5493077 0.6880459 0.8061639 0.84226644 0.87671804 0.6247841 0.45127627 0.4602843 0.8399739 0.87056804 0.35032365 0.7341902 0.836805 -0.037842207 -0.06430036 0.12980667 0.66737765 0.48289114 0.121475354 0.057997026 0.7458742 0.738183 0.70000553 0.64600956 0.7325984 0.7429439 0.69192755 0.5944482 0.52408314 0.25667274 0.050523534 0.13355258 0.7215122 0.53431815 0.46623078 0.3408252 -0.07189247 0.6581515 0.45823258 0.33630338 0.3349217 -0.069378644 -0.04598241 0.5266501 0.5295551 0.4456635 0.39702785 0.30800557 0.31630537 0.09949654 0.11056354 0.46769118 0.43683606 0.4539353 0.3636756 0.3446159 0.084264494 0.27299565 0.37737355 0.40130913 0.0971172 0.2824309 0.2721845 0.38594013 0.40394336 0.42624396 0.38860604 0.40559888 0.19213986 0.2306321 0.19723515 0.13562429 0.08484564 0.14371577 0.079161 -0.09367297 0.15524817 -0.12114369 0.21483473 0.04553988 0.20950109 0.18865924 0.22224042 0.20529884 0.33791345 0.15146782 0.30403805 0.26329637 0.51792735 0.37947854 0.38264263 0.75742364 0.82416725 0.3964811 0.7028838 0.81798136 0.3991053 0.41814613 0.4224435 0.41949636 0.48399928 0.50130486 0.6666244 0.5439866 0.53875697 0.6644452 0.7264496 0.78243184 0.83364516 0.5378675 0.5621459 0.45279682 0.54220235 0.6044214 0.8580965 0.87976086 0.4721356 0.2555002 0.3795045 0.88708085 0.53989327 0.25117466 0.8294898 0.51528 -0.005933434 0.15761721 0.17540562 0.63083184 0.4017788 0.07021756 0.41070867 0.6816059 0.6577813 0.5810671 -0.1034998 0.6535795 0.7096875 0.727319 0.6634872 0.5817731 0.5072908 0.17276825 -0.34861073 0.6315564 0.46664375 0.24798244 0.3062775 0.344433 0.6792205 0.3499989 -0.104011424 0.1986731 0.30048624 0.33211657 0.39070618 0.32641256 0.32250014 -0.028286375 -0.08561146 0.38106674 0.42826116 0.29182506 0.25712442 0.09545892 -0.061684735 0.14390087 0.3902868 0.34301963 0.28164133 -0.0349453 0.35940778 0.38335955 0.36114588 0.06403056 0.13615544 0.26708442 0.33945167 0.35162562 0.3528723 0.36457348 0.41104794 0.3423288 0.36898714 0.38936317 0.4271884 0.33531174 0.3567681 5.6274235e-05 0.0021126 0.09602986 0.21398161 0.07014031 0.19819212 0.23544604 0.42622083 0.4787697 0.2665997 0.17496333 0.09603281 0.44606712 0.45144537 0.35640943 0.30568928 0.25066093 0.34580117 0.29738927 0.1570359 0.06853588 0.3480069 0.15576918 0.33720934 0.23256855 0.123357706 0.2661064 0.3020528 0.4318125 0.48476744 0.42841524 0.41275805 0.44583422 0.514094 0.43307614 0.41972068 0.42764905 0.44150496 0.4075858 0.4286285 0.43006724 0.47529423 0.49456874 0.57739735 0.6481416 0.73837537 0.43814868 0.45534468 0.451999 0.5201472 0.56662184 0.82019854 0.87091154 0.37885126 0.33401638 0.32998282 0.8961194 0.2519064 0.22156641 0.7351228 0.1541797 0.168082 0.17100431 0.21711479 0.4706669 -0.15004174 0.114887096 -0.0018650554 0.0089837015 0.075494625 0.5950997 0.5349241 0.49501702 -0.11098981 0.6230253 0.532983 0.42965218 0.1922334 0.12523872 -0.45986074 0.5669188 0.44680336 0.2876833 0.3529781 0.37881994 0.29366034 0.4116814 0.45961452 0.24633451 0.33236057 0.2834867 -0.022706367 0.37917447 0.4386328 0.45384088 0.45456532 0.32661808 0.28547898 0.2432559 0.09808253 0.038004003 0.44013107 0.45271516 0.47779053 0.27840596 0.26095042 0.15158978 0.20857105 0.0038523152 0.32687074 0.22913912 0.27739763 0.30698925 0.13872784 0.26745644 0.31658566 0.35311365 0.3680621 0.32314816 0.30374792 0.32902503 0.26441407 0.23335567 0.17398097 0.28438526 0.29180634 0.10232028 0.09710303 0.26905456 0.2626472 0.2681609 0.015327756 0.15650004 0.15906446 0.23378158 0.2537712 0.11726943 0.022624835 0.20406762 0.23826677 0.39333162 0.42654783 0.14791498 0.021852076 0.04428883 0.44249678 0.47239798 0.24936688 0.1414404 0.45569548 0.4677086 0.43081343 0.4078839 0.41049355 0.40076804 0.31231576 0.4560193 0.39055753 0.24854556 0.14756867 0.36018154 0.3330504 0.30219653 0.16744733 0.40770388 0.43503645 0.40704018 0.4672732 0.17544109 0.5251502 0.29742065 0.49926335 0.48215148 0.3555432 0.48000756 0.46021912 0.46995884 0.44678664 0.44975758 0.43247408 0.41652465 0.5813366 0.6215074 0.611801 0.59092045 0.53787017 0.58496284 0.51881564 0.50545627 0.5377152 0.5712707 0.6341334 0.75866336 0.83709204 0.45049536 0.42028475 0.31599557 0.37737763 0.4510387 0.46541867 0.775121 0.40425426 0.16886602 0.3555425 0.80738354 0.011759594 0.012226477 -0.06694722 0.17363606 -0.09561021 0.048854828 0.5139023 0.47553062 0.42607844 0.41559833 0.03202343 -0.12468597 0.57825184 0.35711765 0.29685852 0.18000767 0.5371429 0.52816826 0.4112792 0.49698263 0.463996 0.49507797 0.01977183 0.29045117 0.25352952 0.13406226 0.5009768 0.39408484 0.10944104 0.47189724 0.19041416 0.4088625 0.34407675 0.2878935 0.17645405 0.016125947 0.32689506 0.49162358 0.49635124 0.18463463 0.21492141 0.33249226 0.22784808 -0.044113297 0.33675188 0.19945414 0.23397417 0.29415658 0.337408 0.1555213 0.24674937 0.1989969 0.26999146 0.20608899 -0.085227154 0.27776405 0.017356582 0.029557012 0.26633132 0.25176412 0.18778381 0.34696525 0.42470407 0.47544208 0.36374325 0.47083598 0.5275619 0.50718987 0.44993418 0.31809288 0.5419626 0.52462566 0.27694142 0.5219058 0.22735178 0.44227302 0.12924126 0.38507903 0.39675763 0.27266002 0.20845106 0.41312948 0.1757345 0.45539182 0.4475064 0.44321802 0.37093216 0.43662995 0.47648713 0.5636065 0.5951458 0.32417855 0.56307536 0.5661171 0.53545165 0.4178437 0.40384403 0.5168176 0.5162082 0.46811643 0.42354053 0.40875274 0.6239687 0.591789 0.6292102 0.6324856 0.47284865 0.5697013 0.54441124 0.5126977 0.53377837 0.55320174 0.5369812 0.49914104 0.3203635 0.37139735 0.5044018 0.50687057 0.53963304 0.55192983 0.029685609 0.24678239 0.42248404 0.3614127 -0.036501687 0.15660945 0.17706484 -0.16978058 0.19671653 0.33722162 0.33156052 0.1545486 -0.2377111 -0.2636372 0.32291502 0.35866135 0.38018548 0.34911987 0.2986915 0.33089983 0.40754807 0.20825768 0.4493584 0.54390657 0.554431 0.5290997 -0.1874101 0.054214567 0.44440573 0.32301593 0.5485012 0.5842242 0.3284884 0.2731135 -0.040148012 -0.1152183 0.03600104 0.0795667 0.17293236 0.18201622 0.28999975 0.4794188 0.4483118 -0.04546556 0.34694877 0.5198689 0.32042456 0.27783906 0.24984007 0.20780164 0.21261983 0.045522716 0.23932213 0.4609385 0.19104156 0.22894503 0.29785684 0.28280023 0.30782753 0.2095319 -0.09845826 0.4838484 0.3570971 0.3638301 0.19569299 0.12542135 0.18486615 0.51403904 0.5054627 0.23665789 0.06613809 0.1926675 0.3469176 0.25654888 0.27344024 -0.111658625 0.101119906 0.24666297 0.13660452 0.36178815 0.40498427 0.48532647 0.36598185 0.54442155 0.5019634 0.25925618 0.54964346 0.1731136 0.24237378 0.5302916 0.51443094 0.16686413 0.46546352 0.3797426 0.33882523 0.32647428 0.26911244 0.33707494 0.20677717 0.42166686 0.44089276 0.14945522 -0.08236477 0.46564108 0.4654583 0.41230196 -0.015119599 0.0068394206 0.45959136 0.46572995 0.3537699 0.43754512 0.5728294 0.2779895 0.6227963 0.3877465 0.3634953 0.62402976 0.6191312 0.57440144 0.50069416 0.45051777 0.40825278 0.38368145 0.48045397 0.36014223 0.55517054 0.62174 0.6455155 0.5091692 0.48961055 0.39598 0.07347416 0.58896434 0.5701233 0.5516941 0.28905153 0.48391202 0.49556077 -0.11305672 -0.23825932 0.0007144585 0.18685743 -0.15615544 0.19632842 0.20575884 0.27077007 0.30829865 0.40586144 0.4358273 -0.2911418 0.19086652 0.14053841 0.45966086 0.4720974 0.37853783 0.32807633 0.124023445 -0.15501226 0.40538883 0.061447706 0.24918951 0.35723817 0.5250573 0.57155 0.542951 -0.25195995 -0.09226911 0.0324973 -0.41105032 0.58806926 0.5240005 0.5080736 0.40738207 0.19908145 0.19451305 0.23784144 0.20283654 -0.2601899 -0.24046284 0.57234025 0.3202526 0.17757197 0.021466248 0.47675356 0.32325006 0.29702652 0.32888585 0.37019372 0.40894175 0.34564918 0.36728632 0.5042381 -0.037869513 0.06422353 0.19172263 0.4360971 0.49584174 0.18727285 0.44210875 0.40505564 0.36856002 0.29385674 0.19235305 -0.026311077 0.089228034 0.3199883 0.49547654 0.5575805 0.50551695 0.59564114 0.7152144 0.4402457 0.5020588 0.64589566 0.7192718 0.54612577 0.107428506 0.18199866 0.440468 0.6983778 0.73871446 0.5400659 0.49807116 0.4862184 0.11489494 0.44899398 -0.013606399 0.3568146 0.107103154 0.24350858 0.27567813 0.2517177 0.35806975 0.21956363 -0.08055422 0.43723089 0.40695596 0.20275483 0.122768335 0.44792777 0.45896333 0.25155467 0.39858112 0.43875444 0.45228136 0.35101107 0.2846498 0.26056963 0.41971207 0.43729383 0.54868454 0.53319544 0.47517332 0.4253314 0.39494386 0.5792272 0.5492708 0.483506 0.5484183 0.5476303 0.59881556 0.5333477 0.26805568 0.021575287 0.5647436 0.5502464 0.57860357 -0.0068972223 0.050133687 0.45094395 0.49488276 0.42838177 -0.06508794 -0.018334389 0.34239292 0.14451858 -0.12084988 -0.31774816 0.0050015002 0.027152762 0.14807177 0.24934307 0.3499052 0.41868174 0.5033063 -0.003900379 0.5111157 0.53897417 0.3975653 0.4597129 0.4745264 0.3072328 0.41526306 0.52951837 0.44210237 0.5516647 -0.13500242 -0.1726214 0.09505369 0.15789564 0.035277564 -0.24987191 0.573949 0.53856945 0.4808963 0.3411285 0.28854033 0.035676748 0.00092439353 0.16897088 0.20708969 0.23007604 0.19462797 0.5577622 0.54986656 0.48250127 0.4021977 0.37588963 0.3411103 0.39349973 0.028921522 0.5049646 0.41544926 0.5246347 0.4709858 0.39757508 0.4281239 0.4663654 0.29810035 0.13246632 0.36506087 0.35374683 0.3165217 0.2558787 0.16463009 0.48824495 0.5996768 0.65720797 -0.35491568 0.7084678 0.82555294 0.79788697 0.8896277 0.7653525 0.87247413 0.9296746 0.4804468 0.3345528 -0.006644778 0.5312283 0.87349284 0.47612005 0.4306025 -0.14064951 -0.009289928 0.45146132 0.40301612 0.2606897 0.20460556 0.25215754 0.2130639 0.13321775 0.3190802 0.2330941 0.2679264 0.43995142 0.3592959 0.52888155 0.3309391 0.53977835 0.48688054 0.20468122 0.5214697 0.5775633 0.51894754 0.55074406 0.17406037 0.42670372 0.44667923 0.35638982 0.2521947 0.5058824 0.004488528 -0.023818985 -0.24149352 0.027401894 0.036215723 0.17711747 0.24816044 0.36320657 0.47312188 0.5238638 0.3912189 0.35172242 0.5820072 0.6115395 0.42960155 0.59939206 0.5828722 0.48147976 0.45009297 -0.14395615 0.019565843 0.43617997 0.54419696 0.60128355 0.1730403 0.11956693 0.5551684 0.55981314 0.60745543 0.26167 0.41366896 0.15957318 0.1679382 -0.012674339 0.53520757 0.5484253 0.4622693 0.5043392 -0.017194211 0.4932986 0.5712582 0.5628011 0.5709602 0.5786227 0.07555315 0.11846266 0.16236201 0.040941417 0.2906093 0.19250616 0.14131153 0.032329142 0.25442755 -0.11805649 -0.22488424 -0.16808474 0.4731567 0.7138615 0.009581961 -0.15238655 0.72955596 0.8607956 0.96196866 0.14451507 0.9999486 0.008602038 0.5078558 0.7984078 0.92552865 0.97225344 0.28648606 0.26082957 -0.10187086 -0.22164553 0.34411785 0.20874329 0.13345575 -0.07592088 0.18812051 0.2377812 0.21984458 0.20997372 0.26693183 0.27423966 0.24669486 0.18831769 0.4997121 0.48963717 0.5018968 0.45377523 0.6591568 0.6912913 0.6734247 0.646248 0.15643382 0.18058 0.21640366 0.57379603 0.62730646 0.632339 0.5589178 0.46880317 0.105904736 0.37982732 0.3065959 -0.08560851 0.349349 0.26721984 0.22569014 0.35364687 0.12782647 0.50530154 0.53411114 0.4131508 0.3961861 0.1314136 0.40827566 0.5156467 0.58378124 0.6496307 0.4350623 0.6611309 0.4782908 0.5976685 0.58561826 0.021130593 0.46880883 0.6586094 0.68307245 0.1116669 0.046865392 -0.0748651 0.008474246 0.5167099 0.69514245 0.55241215 0.5280413 0.033676095 0.2399873 0.5099813 0.6370567 0.50195444 0.06560585 0.047684327 0.60212713 0.636746 0.6352438 0.6257092 -0.071015775 0.40205726 0.43169856 -0.019342642 0.2322465 0.36709684 0.041323923 0.100972265 -0.012927815 0.45981497 0.6718248 0.15434498 0.7380274 0.86892587 0.9695574 0.13181943 0.17398039 0.9792018 0.084642425 0.028658599 0.056752298 0.100495294 0.4545622 0.6810962 0.90604603 0.9659455 0.059552357 0.047794923 0.055967636 0.055748068 0.045218915 0.14306259 0.06015964 0.24432372 0.23645616 0.51894695 0.5210719 0.5274283 0.51601213 0.4844454 0.38803566 0.5083009 0.4688634 0.6694417 0.6996559 0.69831693 0.6516223 0.26588565 0.22391424 0.5404433 0.6239811 0.5790431 0.4320996 0.225405 0.1756843 0.35616407 0.44148433 0.31949782 0.04477109 -0.09962827 -0.020578623 0.2942651 0.27788305 0.14313897 0.25624448 0.23239852 0.41240793 0.35261977 0.2818675 0.14565697 0.12955138 0.4718714 0.56072843 0.6404291 0.42959213 0.29993618 0.47855535 0.58706725 0.6267926 0.53320324 0.50542885 -0.26187515 -0.09357825 0.04216917 0.07505219 0.0041451585 0.033748817 0.36255655 0.57382774 0.6128975 0.27176496 0.35330558 0.13501713 0.10517624 0.6629324 0.67662287 0.23242088 -0.007132763 -0.17929348 -0.13525403 -0.08944681 0.0019846633 0.7012457 0.66765636 0.4839785 0.35336202 0.32078093 0.3127037 0.4678851 0.5274955 0.54797876 0.049076118 0.07382851 -0.23562223 -0.093946606 0.24931052 0.64402336 0.64151555 0.637928 0.62715757 0.60646296 0.07127611 0.05297602 0.1553711 0.6417632 0.65065247 0.64991915 0.64263785 -0.004985705 -0.061906517 0.4337057 0.46273327 0.43378896 -0.06529738 -0.0724309 0.42172688 0.010706184 0.3666485 0.0068777613 0.19509116 0.00021333992 -0.01629451 0.14352655 0.14509417 0.1445263 0.300063 0.16688368 0.17204791 0.76506215 0.86950195 0.13228767 0.123199835 0.80555826 0.8706951 0.11149371 0.11478051 0.83439296 0.8823669 0.12860313 0.14260234 0.05008791 0.097180426 0.78236294 0.8623896 0.13959831 0.028182834 0.10132301 0.07532546 0.057688974 0.19147667 0.21205646 0.5386439 0.547399 0.54523826 0.65596104 0.627286 0.5993326 0.5774965 0.42420384 0.5007219 0.6237968 0.64944005 0.5335398 0.42854494 0.68072605 0.68652594 0.64395154 0.33957097 0.4772827 0.31816822 0.55498177 0.60032564 0.6407702 0.6478094 0.58483183 0.15407746 0.22332746 0.479129 0.40247858 0.36050662 0.34921268 0.26155558 0.048731253 0.35229865 0.33181095 -0.08551056 0.11528304 0.34333962 0.3327372 0.115922414 0.22657968 0.21597393 0.38674387 -0.06059259 0.14116631 0.11716414 0.08156331 0.5428791 0.33001578 0.08181369 0.023902409 0.618128 0.23646313 0.1676956 -0.005944929 0.67325526 0.63812494 0.44638258 0.07221541 -0.090542495 0.69721746 0.6687979 0.51892054 0.5127644 0.5622277 0.5027797 0.5568933 0.59322476 0.10456051 -0.1531653 -0.24470875 0.62621737 0.096605405 -0.2373847 0.07058834 0.39000195 0.4452499 -0.04762426 -0.34996226 0.42965457 -0.10971034 0.38596904 0.364798 -0.046587653 0.2887299 0.32313746 -0.04617056 0.254