# vtk DataFile Version 2.0
Really cool data
ASCII
DATASET POLYDATA
POINTS 3279 float
-37.661144 -14.801041 50.578053
-37.63743 -14.807025 50.920418
-37.707085 -14.342944 50.076225
-37.82883 -14.447897 50.56417
-37.807854 -14.224958 51.19368
-37.71909 -13.783425 50.027344
-37.859592 -13.721679 50.564342
-37.75316 -13.69723 51.30227
-37.66932 -13.153223 50.79996
-37.60995 -12.982843 51.07907
-36.788536 -25.040234 56.81113
-36.953056 -25.241419 57.569286
-37.074837 -25.177128 58.5865
-37.100014 -25.226423 59.367256
-37.005486 -25.016829 60.16126
-36.854618 -24.48635 56.67485
-37.176376 -24.510761 57.39315
-37.326122 -24.542212 58.634823
-37.43845 -24.408125 59.553974
-37.144035 -24.431547 60.326435
-36.717133 -24.088903 61.10238
-36.826775 -23.872923 56.819275
-37.106125 -23.61912 57.670082
-37.329037 -23.191013 58.86748
-37.443512 -23.751045 59.63299
-37.20872 -23.694914 60.31158
-37.137142 -22.838684 59.78198
-36.70064 -22.644104 61.107655
-37.095596 -15.016185 49.796387
-37.404488 -15.020506 50.509094
-37.290752 -14.852368 51.28075
-36.857906 -14.352738 49.21377
-37.427605 -14.523918 49.769684
-36.88192 -13.648578 49.25924
-37.36712 -13.670175 49.68188
-37.509693 -13.215673 51.61511
-37.269783 -13.336361 52.04485
-37.205414 -13.061801 49.84738
-37.377205 -12.725674 50.686905
-37.3952 -12.643719 51.56906
-37.191257 -12.792542 52.05426
-36.766922 -12.215019 52.711037
-36.96563 -11.899042 51.53148
-36.82216 -11.8427725 52.086716
-36.02438 -25.769743 56.8793
-36.141586 -26.009888 57.447784
-36.546303 -25.776329 58.755398
-35.887146 -25.982195 59.611176
-35.998287 -24.97327 56.180832
-36.299114 -25.33663 56.649456
-36.60039 -25.609907 57.521317
-36.19729 -25.330877 60.600677
-36.055637 -24.886074 61.206512
-36.295918 -24.56939 56.196827
-36.519485 -24.70428 60.940125
-36.55814 -24.0101 56.34077
-36.492504 -23.67229 56.648125
-36.452164 -23.386927 61.582138
-36.29293 -23.26868 56.886757
-36.406384 -22.819372 61.561264
-36.095173 -22.562891 62.163677
-36.46241 -22.043015 58.384686
-36.300995 -21.657156 61.47231
-36.01928 -21.756462 62.003845
-35.94595 -20.560465 58.872135
-35.877453 -20.695171 61.41495
-35.692963 -21.096544 62.190907
-35.76546 -19.895447 58.858788
-35.82569 -19.774157 60.358685
-35.686817 -19.023848 59.659966
-35.56757 -18.34851 60.735115
-35.61172 -18.137205 61.952892
-35.840538 -17.545002 58.517933
-35.857685 -17.357302 59.13235
-35.72691 -17.325403 60.423943
-35.6365 -17.883646 61.65776
-35.553818 -17.632322 62.16606
-36.144726 -15.51816 50.77335
-35.730766 -16.9012 58.99837
-35.66601 -16.786627 59.706963
-35.62575 -16.361755 60.70327
-35.593506 -16.878933 61.573624
-36.326015 -14.91247 49.20212
-36.45689 -15.21938 49.58943
-36.605534 -15.42282 50.46364
-36.583057 -15.109143 51.393543
-36.244267 -14.870092 51.730038
-35.5644 -16.074234 60.501434
-35.566135 -15.991353 61.14429
-36.402866 -14.467582 49.05406
-36.595814 -14.094936 52.146038
-36.482487 -13.642096 49.124226
-35.53505 -13.030392 56.06715
-36.15438 -12.653694 49.278164
-36.457554 -12.6196575 49.548702
-36.39997 -12.8756695 53.043842
-35.588852 -12.828344 55.7794
-35.75107 -11.389268 50.04966
-36.381157 -11.60169 50.528072
-36.555042 -11.6940155 52.396194
-36.127327 -11.743251 52.75757
-36.11917 -11.226554 51.68009
-36.22531 -11.3431425 52.153854
-34.915974 -26.584509 57.861248
-34.95607 -26.592958 58.41303
-35.423218 -26.027128 56.971558
-35.48784 -26.30761 57.54702
-35.60988 -26.371845 58.495163
-35.572372 -26.102158 59.392292
-35.539032 -25.615316 60.5528
-35.637665 -24.946829 56.111965
-35.273724 -25.440294 61.129803
-35.688572 -24.784494 56.01326
-35.2701 -24.6664 61.93816
-35.525764 -23.101847 62.554443
-35.586227 -22.119736 62.573288
-35.432068 -22.24977 62.715595
-34.81887 -21.357592 55.779987
-34.87556 -21.431267 63.036186
-34.853237 -20.531239 55.886845
-35.34057 -20.68281 56.8572
-34.859303 -20.589668 62.59589
-35.15135 -19.741655 56.6499
-35.34896 -19.323576 57.327522
-34.806484 -18.910053 55.80469
-35.41025 -18.241117 62.526104
-34.984776 -18.455484 63.107777
-35.472404 -17.636189 57.545803
-35.473206 -17.0121 61.593533
-34.96234 -17.830523 63.091835
-35.933006 -15.535675 50.07545
-34.613525 -15.749531 55.676792
-35.188835 -16.552153 62.244286
-34.84442 -16.786123 62.852444
-35.681366 -15.275225 49.636734
-35.572205 -15.388357 50.334644
-35.250645 -15.17864 51.22324
-35.26056 -14.779551 51.905952
-34.889893 -15.090519 55.313507
-35.115696 -15.005769 56.60671
-34.89994 -15.40413 57.497208
-35.29523 -15.636741 59.391205
-35.336754 -15.4901285 60.54866
-35.28962 -15.682731 61.48755
-34.923344 -15.685824 62.114727
-35.544086 -14.509044 48.9593
-34.849144 -14.508788 54.668667
-35.355663 -13.898735 55.59185
-34.92143 -14.855197 58.962044
-34.733227 -14.616022 59.358757
-35.072803 -15.146244 60.878193
-34.9289 -15.21539 61.422585
-35.410778 -13.324284 56.361874
-34.81634 -13.945542 57.901672
-35.303444 -12.558616 54.49744
-35.41225 -12.475923 55.565636
-35.27735 -12.40001 56.40144
-34.993366 -12.65882 57.115055
-35.432407 -11.81796 49.57451
-34.83742 -11.809962 54.96183
-35.016743 -11.9550905 56.538628
-34.901485 -12.002974 56.761227
-35.54821 -11.15135 51.827526
-35.123405 -11.306595 52.805416
-34.560265 -9.011584 48.636753
-34.5852 -8.233625 46.81539
-34.595886 -8.348915 47.533646
-34.846027 -8.096974 48.77554
-34.842182 -8.6761465 49.18435
-34.659256 -8.741126 50.176247
-34.67649 -7.872833 48.26393
-34.850048 -7.7458873 49.530693
-34.75103 -7.53354 49.927208
-34.719788 -7.17979 48.989235
-34.74054 -7.202874 49.481113
-34.16014 -26.631927 57.52992
-34.333485 -26.70495 58.49236
-34.714344 -26.539232 58.88346
-34.879524 -26.122133 56.880585
-34.806572 -26.200455 59.50496
-34.30488 -26.035936 60.073856
-34.89346 -25.272663 61.553196
-34.779835 -25.18133 61.779522
-34.368423 -24.447905 62.394997
-34.11669 -24.095852 62.915703
-34.28786 -23.185938 63.26741
-33.92302 -22.899334 63.62679
-34.001755 -22.120579 55.062576
-34.087933 -22.83411 63.57953
-33.92103 -22.518417 63.73525
-34.414425 -21.466415 63.48593
-34.359043 -19.45782 54.873207
-34.165848 -18.896946 54.89333
-34.541054 -18.34346 63.45823
-33.89387 -17.557041 55.424755
-34.5004 -17.701262 63.39463
-34.03334 -17.733206 63.67064
-33.804462 -15.7349415 53.471733
-34.11981 -15.979891 54.78605
-34.225143 -16.598963 63.167267
-35.07472 -14.807929 49.14793
-34.447758 -14.800531 49.452656
-34.23835 -15.050278 50.12299
-33.984512 -14.8070965 52.738144
-34.213646 -15.721007 54.425083
-34.41933 -15.511476 62.41282
-34.09989 -15.914185 62.846336
-34.409084 -14.34651 48.936966
-34.413578 -14.599378 49.36109
-34.27805 -14.630568 60.74545
-34.601738 -14.935123 61.351162
-34.30352 -15.114916 62.05105
-34.54345 -13.551843 48.58405
-34.237263 -13.901904 59.361237
-34.11887 -14.158788 60.108105
-34.015373 -12.445583 48.051533
-33.74311 -12.343374 58.123764
-34.12825 -11.560891 47.18368
-34.702805 -11.528162 55.769382
-34.26815 -12.005515 57.374672
-33.914246 -9.946849 45.915882
-34.155262 -10.599716 46.755375
-34.182365 -10.946552 47.54937
-34.47977 -9.930727 48.64684
-34.569782 -10.869157 49.818596
-34.123543 -10.505749 52.58484
-34.078117 -11.285437 53.250782
-33.763054 -9.081859 45.419567
-34.41436 -9.369598 46.65753
-34.49706 -9.221039 48.650387
-33.83707 -7.9458876 44.462875
-34.486248 -8.304725 46.496788
-34.314724 -8.294271 50.771713
-33.962894 -8.419213 54.65015
-33.797302 -7.2414083 44.203133
-34.07902 -7.370068 44.688198
-34.307274 -7.4649415 45.4953
-34.347454 -7.424234 46.39186
-34.43173 -7.5748816 47.417526
-34.55702 -7.2645555 50.245354
-33.83569 -7.197728 51.82337
-34.333187 -7.307877 52.762646
-34.34915 -7.2322235 53.449787
-34.28657 -7.6177797 54.103867
-33.77099 -7.676861 55.004032
-33.92784 -6.7500224 44.655857
-34.074722 -6.6008506 45.83291
-34.261227 -6.745906 46.849392
-34.315987 -6.6610236 47.477516
-34.397396 -6.6435227 48.63546
-34.39968 -6.7794394 49.3817
-34.234135 -6.833288 50.331894
-34.085873 -6.6826267 52.93076
-34.18672 -6.812682 53.296673
-34.04066 -6.5954585 54.02976
-33.78815 -7.0152917 54.787735
-33.920788 -6.287112 45.658047
-33.85079 -6.200877 46.849293
-33.829872 -5.925663 47.591454
-34.016235 -6.069473 48.31747
-33.930523 -6.2405863 48.98116
-33.80184 -6.350655 50.3933
-33.636536 -5.959194 53.536976
-33.084457 -26.6617 57.081234
-33.836872 -26.617037 57.380085
-33.73184 -26.7636 58.19192
-33.239857 -26.410727 56.874844
-33.713585 -26.32614 59.11476
-33.63653 -25.404942 56.367146
-33.533646 -25.394506 56.52245
-33.43072 -24.745705 62.43867
-33.31556 -24.57326 62.683125
-33.38773 -24.008371 63.271523
-33.379337 -23.234774 63.756874
-33.47795 -22.329498 54.831642
-33.032642 -22.452124 64.25142
-33.329536 -21.723532 54.688084
-33.473026 -21.508781 64.25298
-32.916885 -21.352516 64.60824
-33.310276 -20.045668 54.38465
-33.313316 -20.271866 64.36473
-32.763546 -20.862188 64.72139
-33.201836 -19.442738 54.322536
-33.458954 -18.302761 54.692352
-33.394276 -18.443136 63.857437
-33.037937 -17.101917 54.60958
-33.669476 -17.455986 63.70906
-33.202618 -16.494944 63.378666
-33.185783 -17.035276 63.639442
-33.495876 -14.679083 49.692177
-33.22275 -15.218864 51.210224
-33.20621 -15.574899 53.23589
-33.502777 -15.769829 62.920177
-33.304966 -14.426104 49.003937
-33.111614 -14.535828 61.492897
-33.534576 -15.095864 62.337406
-33.208374 -13.027292 47.78556
-33.60532 -13.361754 59.413353
-33.561085 -14.094185 60.237785
-33.46199 -12.499731 58.624317
-33.293922 -12.980735 59.048252
-33.4717 -11.445325 46.004013
-32.946884 -11.611122 58.310814
-32.912445 -10.321476 45.150974
-32.86027 -10.813103 57.520393
-33.336285 -9.633604 55.61329
-32.944317 -9.6395645 55.98636
-33.650654 -7.90101 44.290363
-33.64341 -8.431285 44.655346
-33.36147 -7.154601 43.852707
-33.586647 -7.558807 55.029602
-33.53783 -6.93064 44.050415
-33.40639 -6.9921885 55.05188
-32.827526 -6.9561296 56.005466
-32.536747 -5.610443 42.937973
-32.664005 -5.2711 43.756813
-32.80844 -5.7792673 45.937813
-33.57545 -5.7267046 47.556168
-33.551178 -5.7233367 48.333965
-33.2597 -5.9131474 49.630947
[...]
POINT_DATA 3279
SCALARS features_00 float 1
LOOKUP_TABLE default
0.90363485 0.8997505 0.87544274 0.8791212 0.83862424 0.839965 0.8258493 0.7830296 0.75680375 0.7151451 0.7058 0.7072504 0.6766931 0.632329 0.57790065 0.7025083 0.70634913 0.664255 0.5997233 0.5512689 0.4901271 0.6683301 0.6239256 0.5622729 0.55881935 0.50709486 0.46918255 0.37100798 0.90571904 0.91327274 0.89984614 0.8612733 0.8862216 0.8115015 0.8282387 0.7015898 0.6721116 0.76648146 0.70366144 0.6353944 0.6171305 0.49383986 0.5652592 0.5283798 0.63596857 0.61138374 0.6113622 0.46607023 0.6945261 0.6853684 0.67362106 0.4943081 0.45975626 0.7084132 0.5043543 0.6815378 0.63270855 0.41539925 0.5352292 0.36987177 0.32432684 0.31217784 0.28999949 0.29853147 0.07738016 0.23679462 0.26794583 0.10035374 0.14913213 0.12993348 0.21375869 0.35561597 0.15783836 0.18495563 0.2744043 0.3501406 0.4276963 0.77712935 0.19027156 0.249322 0.3604257 0.411168 0.8038881 0.8416955 0.8710227 0.8348731 0.7858014 0.35389292 0.42441025 0.8124053 0.82975876 0.7832016 0.37004977 0.6407875 0.6724786 0.4620812 0.37515152 0.41833213 0.5732753 0.47363287 0.3790835 0.46390182 0.43681765 0.45382494 0.42940485 0.5526357 0.5219367 0.48022354 0.4303627 0.42416093 0.6502495 0.39405656 0.6543472 0.39562225 0.36466745 0.30317193 0.30904797 0.32702386 0.29233927 0.26977643 0.15885946 0.22005624 0.1996575 0.13353616 0.2672353 0.3997341 0.40796545 0.14857167 0.4104424 0.46944636 0.7293155 0.18797486 0.5089151 0.5263946 0.6612666 0.6386477 0.5522067 0.51644266 0.2425816 0.3003441 0.19582175 0.26404846 0.38147312 0.47705454 0.54857713 0.6055974 0.2608937 0.364775 0.26453853 0.2901962 0.41796917 0.47741818 0.36090457 0.24831575 0.26000565 0.37109485 0.36618525 0.32269952 0.38738498 0.2793145 0.3499419 0.33590013 0.36314514 0.17846629 0.30523214 0.32118922 0.3202873 0.37406147 0.35750487 0.37192607 0.37126833 0.389044 0.37374896 0.3967877 0.38715732 0.44662303 0.40186495 0.3905176 0.49171802 0.3621956 0.30560327 0.35661387 0.35558242 0.40070003 0.40956464 0.38677213 0.38732702 0.40437305 0.37794697 0.37293816 0.31901717 0.39676097 0.341795 0.42342246 0.10291962 0.47193974 0.44739997 0.004677132 0.055982918 0.52637863 0.49912912 0.355095 0.29432458 -0.081679374 0.08367832 0.58100855 0.56100994 0.30540192 0.34097186 0.4061386 0.4711734 0.55640656 0.26516175 0.21488774 0.3122528 0.077472895 0.1307794 0.18932919 0.31502992 0.22035475 0.24228685 0.21264449 0.18618387 0.14966507 0.016908057 -0.03690272 -0.028325602 0.29634643 0.26358467 0.28123984 0.32536358 0.32467213 0.31891227 0.273095 0.3108854 0.36496377 0.40164065 0.3699092 0.36306688 0.34447736 0.16544414 0.2418218 0.3605836 0.3903613 0.32425553 0.3363151 0.3918922 0.36959904 0.38583577 0.397656 0.3805626 0.32685092 0.2921744 0.3474211 0.40142453 0.3908341 0.37117612 0.3644702 0.37539852 0.388379 0.37734875 0.31478202 0.36974224 0.4512437 0.45176798 0.4190284 0.44921705 0.3437992 0.41987914 0.4183165 0.37350473 0.3935988 0.42346835 0.41303045 0.30119863 0.41097885 0.33379763 0.39235204 0.44702977 0.3905741 0.3965314 0.47732335 0.37770802 0.28453594 0.37753487 -0.051694527 0.44328302 0.4676118 0.44070172 0.111541875 0.003484115 -0.05667174 0.5208544 0.06003172 0.49369025 0.5444605 0.12660138 0.17343259 0.3059132 0.113845006 0.13172615 0.18636537 0.1517701 0.17988575 0.09741054 0.08275259 0.047995646 0.2884314 0.30217785 0.23590219 0.32545325 0.27500507 0.36684847 0.28826982 0.34168243 0.36495647 0.2736333 0.3567841 0.35692787 0.33779424 0.30161086 0.2939107 0.3691328 0.37923634 0.35529888 0.3140816 0.6552465 0.5747974 0.556217 0.35825217 0.28404918 0.3407386 0.34641135 0.6824528 0.6559809 0.6065151 0.7077733 0.7017818 0.46160734 0.43066108 0.3933714 0.43088782 0.32398325 0.30686677 0.4581489 0.3217723 0.33470452 0.36740908 0.42925164 0.25001335 0.44590202 0.4654023 0.33440816 0.34576845 0.48462823 0.34942472 0.50194734 0.34553087 0.42224592 0.33005053 0.35118705 0.3975363 -0.119378924 -0.091801435 0.43957132 -0.039977655 -0.020860668 0.4732262 0.47321713 0.09254793 0.48563287 0.29172903 0.2562278 0.2731758 0.2956987 0.21330918 0.23866549 0.11484161 0.15164986 0.022241887 0.114011645 0.08918406 0.09968491 0.11706357 0.26326868 0.51130915 0.20198727 0.20335457 0.32225057 0.3158066 0.6375146 0.639344 0.25931606 0.22576363 0.3350258 0.31053454 0.30615705 0.70175993 0.7035848 0.6202901 0.27003017 0.27312422 0.73604774 0.7466837 0.76101375 0.742706 0.7011334 0.42262763 0.77221775 0.7821542 0.7605368 0.7280294 0.5905014 0.58968365 0.56695706 0.47898877 0.6022192 0.60870373 0.58213234 0.5042482 0.5920759 0.59715277 0.5656756 0.44904566 0.46875364 0.41529787 0.36583713 0.44933027 0.45184213 0.25946963 0.49639708 0.45402277 0.38320166 0.18287483 0.2739124 0.34503138 0.28075343 0.43777394 0.2225818 0.46100584 0.48531353 0.27580187 0.50403124 0.3140496 0.52062047 0.3099529 0.4004199 0.4668753 0.19024347 0.35966238 0.059339244 0.032143865 0.009679161 0.1727022 0.35973588 0.13562569 0.1323419 0.026484914 0.31531534 0.37935296 0.3453089 0.32021528 0.340381 0.287459 0.18866238 0.19418462 0.44302428 0.20616549 0.1503445 0.2469671 0.27872515 0.2066748 0.11412848 0.23764634 0.1588016 0.34630552 0.40413457 0.19130424 0.234966 0.3309157 0.3474654 0.36505744 0.64739114 0.2556451 0.07795416 0.016969573 0.17320323 0.18749991 0.3119532 0.36125094 0.38593417 0.71733034 0.21501033 0.019786805 0.20737189 0.3697823 0.45030296 0.48256034 0.73875326 0.7579127 0.6744625 0.60243404 0.42021284 0.46816263 0.5421673 0.7675785 0.7858573 0.7578341 0.6816678 0.520582 0.33508226 0.48638594 0.53862685 0.5510341 0.5792172 0.38872242 0.41793528 0.47489268 0.51553416 0.5610796 0.57859254 0.5747973 0.52107346 0.39854407 0.39237034 0.43643692 0.45803797 0.5597437 0.56561995 0.514688 0.46232352 0.48818135 0.44821453 0.38126618 0.52515763 0.47616348 0.36429086 0.36182082 0.29816338 0.53386545 0.52913296 0.5136627 0.19093445 0.49564773 0.4378445 0.4903577 0.21957406 0.4750055 0.50795275 -0.03528767 0.5184491 0.4846418 0.5048813 0.15843551 0.10577622 -0.104544505 -0.0144008845 0.4703529 0.38099015 0.21560837 0.13834248 -0.19158264 0.009072091 0.4291137 0.43027964 -0.15976404 0.3569578 -0.07339014 -0.05130425 0.61790216 0.5861119 0.55001867 0.14901797 0.048374705 0.59801865 0.53568834 0.38727713 0.16278327 0.586689 0.4657141 0.44293576 0.36600304 0.28775913 0.2740509 0.34790388 0.36705995 0.14739752 0.3735722 0.3713484 0.6017001 0.4185734 0.48160955 0.69968903 0.39083773 0.15662792 0.14513817 0.13591905 0.5119333 0.5725391 0.72679436 0.7291807 0.52818036 0.20887822 0.2056965 0.008726269 0.084891275 0.55712223 0.60066986 0.72579 0.7665784 0.73238397 0.61256224 0.5592345 0.60535043 0.405667 0.5294944 0.5723187 0.5221101 0.44537365 0.47951674 0.52035904 0.5582094 0.5241687 0.5406785 0.5186297 0.40936744 0.2933829 0.4347098 0.4565969 0.46114093 0.52610403 0.51894075 0.48754305 0.43357152 0.54223967 0.54556906 0.4103502 0.5354272 0.53168446 0.50190854 0.25925466 0.4175834 0.3606658 0.4258263 0.4473498 0.4777441 0.14497904 -0.04834652 0.46222335 0.19905755 0.25678793 -0.18918765 0.12847707 0.17099857 0.18855546 0.47226042 0.4806712 0.43136936 0.37842485 0.22056575 0.097606994 -0.24574523 0.4358288 0.037127085 0.36585116 0.68469024 0.68208563 -0.035833474 0.67033505 0.64718765 0.66780514 0.63815856 0.05025243 0.62926596 0.5085014 0.22595276 0.29740828 0.3044841 0.23964176 0.33446333 0.19921973 0.34770203 0.0016119534 0.49850285 0.54325473 0.66318035 0.24958605 0.04047341 0.17587191 0.5982662 0.68040645 0.67640376 0.23077726 0.21224038 0.1956357 0.13390848 0.679494 0.6460514 -0.007620737 0.65939504 0.36086076 0.6156901 0.35999435 0.48644233 0.5266238 0.55778694 0.43837976 0.47186023 0.3450289 0.2578071 0.29660946 0.41249815 0.48539484 0.32005113 0.56535655 0.56702197 0.5462076 0.53006333 0.5168903 0.4910523 0.5110528 0.5060157 0.4706467 0.41458973 0.4840605 0.44658753 0.3562556 0.2736795 0.31143242 0.14399157 0.37844336 0.4095086 0.38791996 0.42922246 0.20606838 0.33365014 0.3701047 0.42445797 0.23520465 0.22299847 0.21812877 0.23682159 0.17007297 0.16426468 0.45567536 0.43478858 0.19928378 0.42576584 0.39122158 0.19875294 0.7196895 0.7120644 0.1516334 0.69376284 0.70691466 0.64808655 0.67312056 0.11338003 0.61892104 0.13329786 0.4862026 0.12241595 0.28046536 0.23431882 0.19048049 0.26582766 0.28478423 0.24191363 0.31528828 0.37376636 0.4221725 0.5289706 0.20325015 0.09983407 -0.071729906 0.12586959 0.58466256 0.49325448 0.006602086 0.18873192 0.21331087 0.6953472 0.2036223 0.20280054 0.11112598 0.75444615 0.7124985 0.3089624 0.6716572 0.21233138 0.3904932 0.22736898 0.3744177 0.30827504 0.28548115 0.58527726 0.57478774 0.56174785 0.47631943 0.5516109 0.5896338 0.58124626 0.5641861 0.54036266 0.4575624 0.483341 0.5073638 0.41443193 0.45363802 0.37077436 0.30940855 0.27876478 0.15382597 0.28199267 0.26161245 0.377285 0.22589098 0.21310848 0.20112908 0.21508114 0.1987724 0.1768077 0.21349728 0.16100967 0.18656704 0.2735307 0.3710506 0.3654051 0.0874666 0.3265972 0.33124807 0.37834674 0.31413805 0.27080688 0.30996174 0.72034633 0.7111815 0.65536726 0.0044939276 -0.12814173 0.69069505 0.7105103 0.66351295 0.3064733 0.57849777 0.2649485 0.466159 0.18015261 0.18918563 0.30319494 0.26768783 0.26987976 0.26692748 0.28520846 0.21698575 0.41553104 0.1758702 0.14056617 -0.11769326 0.5677791 0.09067907 0.18105818 0.22438225 0.18196051 0.2030384 0.65750885 0.1858853 0.17346576 -0.03725584 0.7369515 0.70086145 0.15677613 0.6166881 0.16124606 0.1397374 0.1288011 0.43025404 0.18027855 0.5855845 0.58473593 0.5736911 0.54692745 0.56501824 0.55943537 0.52536696 0.4045688 0.4710924 0.47078753 0.48922426 0.484064 0.22904655 0.37280616 0.3436165 0.39796305 0.13862576 0.25317034 0.18116769 0.12745664 0.13474415 0.17793804 0.22313276 0.2103503 0.23198591 0.19223534 0.13644737 0.11502128 0.39643383 0.10114649 0.16592501 0.15697977 0.03489743 0.023331523 0.40094543 0.23486553 0.0075431373 -0.098131485 0.4057157 0.2115983 0.21252987 0.36865264 0.031640843 0.31498528 0.6479723 -0.17112523 0.6890247 0.6227838 0.5473404 0.6118752 0.6200129 0.36044222 0.35606045 0.3931901 0.3321824 0.5013073 0.6038531 0.39941514 0.19282827 0.25964808 0.58786225 0.061979197 0.18102157 0.22298774 0.3400001 0.12177964 0.24874197 0.27860236 0.27656984 -0.03227805 0.018103527 0.32306665 0.2100679 0.24962217 0.29300767 0.30343622 0.22171764 0.1029365 0.061047398 0.074766226 0.579918 0.34169137 0.48662844 0.021552362 0.5779719 0.65727895 0.6500625 0.18609065 0.03035426 0.22342846 0.017267536 0.22620386 0.14004233 0.18363106 0.22816524 0.227162 0.22001594 0.24987388 0.27987957 0.20991144 0.24782085 0.36836225 0.14196596 0.16706532 0.44568744 0.050867166 0.13531989 0.5093472 -0.02670605 -0.10142894 -0.2798843 0.056701504 0.4415421 0.34789288 -0.20404533 -0.19706476 0.14448026 0.19430438 -0.13827129 -0.21775207 0.29640898 0.4152676 0.4148566 0.44071525 0.37125766 0.39613515 0.7598475 0.30347204 0.69756424 0.66423583 0.60686517 -0.17070723 0.63761055 0.5375496 0.37610593 -0.1918331 -0.27920428 0.4306641 0.38664395 0.27853352 0.04279095 0.3152699 0.37375522 0.2370942 -0.031588513 -0.036340363 -0.1622924 0.36711025 0.35622066 -0.034385704 -0.13189715 0.09596773 0.28206176 0.4136695 0.3579486 0.011806108 0.443142 0.4343745 0.49968374 0.47223276 0.41670978 0.28845373 0.25025794 0.24363682 0.5239583 0.4833032 0.29977736 0.29409003 0.31894523 0.39873123 0.4044394 0.1997121 0.32619423 0.500921 0.29541245 0.570807 0.19454478 0.12883407 0.2089072 -0.046082526 0.585212 0.17781632 0.05443672 -0.15698197 0.55098027 0.54642725 -0.08769219 0.4611695 -0.16150653 0.004558496 0.21369898 0.29559165 -0.023830276 0.36664906 0.58908045 0.33944446 0.086489424 0.79359007 0.75960743 0.18069082 0.7068898 0.078491166 0.6641935 0.59958196 0.13582706 0.0085770935 -0.07684109 0.65439963 0.46129936 0.4711746 0.4566087 0.37352434 0.26485872 0.2752632 0.2013018 -0.03207769 -0.18115287 0.60697937 0.65536 0.8385294 0.38335824 0.37698054 0.15145996 -0.18250577 0.61794144 0.7068026 0.7871255 0.09327878 -0.14920974 0.6177565 0.6639974 0.2422449 0.46377933 0.27303237 0.49529976 0.4768051 0.22876364 0.035226315 0.34101683 0.38107508 0.5351026 0.5153172 0.6163181 0.5691788 0.56076515 0.49805725 0.34951347 0.33276653 0.30429596 0.34620762 0.69997895 0.7059945 0.7060871 0.34468317 0.47506028 0.44434145 0.44183534 0.66000116 0.7272805 0.7343062 0.51424265 0.7355361 0.9147539 0.8810941 0.77701294 0.6570455 0.9754157 0.93522847 0.846081 0.63306236 0.99667335 1.0 0.93350184 0.7847496 0.9463438 0.9681885 0.9069197 0.4990302 0.53320324 0.5262989 0.55037415 0.57267725 0.55966556 0.16083851 0.12576984 0.06668822 0.02314771 0.02161314 0.24552184 0.2456205 0.40344986 0.5118276 0.5827178 0.5982764 0.07249004 -0.034739964 0.58289033 0.58854866 0.014053173 0.5028421 0.55274713 0.5527631 -0.14900787 0.19549036 0.0721541 -0.114459604 -0.14453563 -0.023203813 0.0046719834 0.08323678 0.75693345 0.6748684 0.25668365 0.7414657 0.6532531 0.27750257 0.7108991 0.60216427 0.17613083 0.59349585 0.45245314 0.034372345 0.44564205 0.44815946 0.23227224 0.1535326 -0.19151506 0.49772078 0.55964357 0.7574341 0.8540369 0.85687745 0.45181882 0.46673608 0.459 0.41706428 0.2826303 0.3140396 -0.069610946 -0.14140934 0.21237178 -0.22623923 0.4741728 0.5244789 0.5789143 0.8354348 0.4876696 0.49785614 0.50494564 0.5439102 0.81463057 0.7835159 -0.14745757 0.17881212 0.50192714 0.51596916 0.52113533 0.5739466 0.7180424 0.77364117 0.77619815 0.07659006 0.5266978 0.652012 0.51266444 0.0096872 0.057511088 0.2403864 0.25919235 0.5160835 0.15819675 0.28691047 0.35468075 0.5198973 0.40440205 0.45338959 0.5581 -0.031878345 0.6376961 0.585128 0.5982952 0.70461667 0.5994172 0.56432056 0.32901782 0.3958637 0.38730332 0.74926984 0.7464314 0.4662294 0.5346105 0.54554975 0.5293437 0.6952772 0.73926044 0.7517723 0.5417681 0.6725546 0.5724402 0.52889013 0.8281523 0.7998197 0.6642023 0.56833446 0.4395434 0.85671085 0.88114154 0.5415727 0.84485406 0.91862 0.625386 0.87775195 0.88687253 0.8325745 0.8269615 0.77646387 0.4292458 0.43051517 0.35114837 0.3001739 0.07468265 0.26652798 0.27300352 0.56784075 0.57678854 0.34256318 0.41940245 0.1098147 0.02318404 -0.007201478 -0.121123955 0.18049231 0.26209015 0.27616918 0.5705218 0.5782629 0.23134807 0.5623265 0.5671013 0.0030201972 0.25314945 0.10648158 0.24977763 0.23693746 -0.037253454 0.18801431 0.32033435 0.37023532 0.43106866 0.5990937 0.46592915 0.35003164 0.5322775 0.2895337 0.42236543 0.028597414 0.43706316 0.48101345 0.726897 0.77069706 0.41365498 -0.008544683 0.40486142 0.43119895 0.5852726 0.8013512 0.45180714 0.44172978 0.39907485 0.14575863 0.13383684 0.22348969 0.4424267 0.73092663 0.708448 0.42837405 0.3876074 0.29193538 0.20056915 0.12880524 0.21572974 0.22925338 0.4550076 0.7136843 0.6883941 0.12946899 0.16869554 0.05571605 0.40890172 0.72352886 0.09330968 0.09566011 0.449117 0.56904185 0.69237286 0.48437047 0.2057308 0.4176764 0.25121054 0.31642514 0.53812706 0.5515424 0.48077017 0.57236373 0.5907317 0.589573 0.5859982 0.5421773 0.65402585 0.6996237 0.4916377 0.52776104 0.5358016 0.51443857 0.79040897 0.77832854 0.7598775 0.5354441 0.53546906 0.528671 0.65231967 0.54736483 0.53450674 0.49776474 0.44884935 0.6989298 0.72679085 0.34127414 0.36910093 0.73258066 0.39646858 0.3761362 0.39118835 0.70946634 0.43887573 0.3948655 0.749593 0.8033094 0.62353086 0.8100654 0.7867216 0.7003615 0.48417866 0.4410101 0.3377085 0.26136172 0.41069323 0.21191415 0.2754518 0.35991335 -0.05583948 0.2527577 0.2830356 0.32152864 0.22720817 0.17771581 0.4028248 0.2573427 0.42612326 0.120545596 0.42051005 0.32757163 0.1820033 0.50377196 0.49545103 0.42517167 0.41761887 0.15395853 0.41616303 0.45066902 0.4441931 0.3881296 0.11608185 -0.2056521 -0.043407217 0.36568144 0.37039095 0.6292255 0.20840016 0.182896 0.0862183 -0.16786256 0.18506423 0.29716608 0.2716 0.334063 0.38349378 0.5670159 0.4616593 0.40935364 0.2753284 0.15122828 0.17366818 0.10455341 -0.03569305 -0.06649218 0.642899 0.420835 0.35611457 0.2743402 -0.18608074 0.012984682 -0.045243442 0.6651933 0.4278007 0.49954405 0.3889908 0.13784522 0.1373571 0.30454805 0.35360336 0.53821695 0.4783151 0.39670822 0.5345601 0.5469518 0.450138 0.48596814 0.46277916 0.481705 0.31376833 0.48256764 0.4923656 0.6423369 0.51553184 0.54951054 0.5339017 0.5214875 0.49414468 0.542773 0.72499967 0.7700983 0.5307289 0.5273554 0.5159919 0.41237956 0.43495294 0.47084528 0.37872112 0.39235765 0.6051178 0.3582723 0.35627714 0.6432953 0.37946436 0.66656935 0.4061124 0.40329218 0.40316874 0.74133325 0.33236125 0.77498525 0.75167656 0.69899577 0.5139729 0.31660303 0.37449557 0.1956785 0.47930422 0.3609838 0.2945246 0.1947146 0.29213926 0.12020632 0.050160773 0.2871707 0.028520107 -0.06358234 0.3088306 0.15247285 0.25100705 0.16570386 0.42168462 0.13626157 0.143294 0.3882634 0.38392776 0.3290658 0.04624065 0.26835033 0.35041952 0.26822543 0.22289087 0.3753888 0.46563178 0.20198339 0.3729216 0.45330077 0.28390545 0.28050038 0.05665437 0.35700685 0.3438249 0.36047018 0.33362716 0.43987823 0.0949918 0.10064271 0.18962136 0.24533805 0.29023036 0.29492977 0.29074997 0.35283127 0.22545682 0.2016861 -0.14146388 0.32926136 0.23811018 0.092615694 0.29830116 0.37799004 0.42907837 0.12535064 0.083222285 0.45479757 0.45572257 0.40489113 0.1681753 0.14620462 -0.18613723 -0.12049792 0.3053319 0.27511865 -0.19805901 -0.2231355 0.27466637 -0.4144966 0.35795236 0.31947142 0.34359443 0.37761393 0.4351967 0.5135906 0.5038319 0.5519492 0.39557675 0.31926614 0.6333078 0.5824324 0.5581384 0.54717773 0.514935 0.4580168 0.5029294 0.6130583 0.66648304 0.60517323 0.6200744 0.42961258 0.5226462 0.5147211 0.34174204 0.39423898 0.41992027 0.3299404 0.28643346 0.39447746 0.3480227 0.39882687 0.34756902 0.20237748 0.3033005 0.6493851 0.3335785 0.0773766 0.0056975065 0.50364476 0.38659823 0.27579957 0.00029904023 0.06927388 0.09410064 0.5177054 0.48224208 0.09851433 0.19067203 0.21357012 0.5151278 0.5195571 0.36656618 0.23296303 0.107684284 0.4806112 0.15606372 0.15828852 0.43975836 0.14752951 0.37063 0.32169923 0.038084984 0.25862756 0.16704375 0.19363059 0.5233598 0.55292195 0.57088375 -0.008091614 0.035371922 0.40255013 0.548059 0.56464356 0.07971926 -0.033470124 0.111096755 0.23289877 0.06441027 0.12913215 -0.113064125 0.09123607 0.2941617 0.36834884 0.4202335 0.21645835 0.21674877 0.060448892 0.34684014 0.3327335 0.43430266 0.40930688 0.1300963 0.39174882 0.23768479 0.380048 0.4000419 0.08069268 0.20244324 0.19924676 -0.01248973 0.26548463 0.40072542 0.10435387 0.3624977 0.5019527 0.53732103 0.44076097 0.30675253 0.47406423 0.41607696 0.54638183 0.56065536 0.51579905 0.39208245 0.5127848 0.5792418 0.56494606 0.54279906 0.56864333 0.6180761 0.63596785 0.6426133 0.77215016 0.6005585 0.6240072 0.6342279 0.59677565 0.78332555 0.7924478 0.60364604 0.48181477 0.53130734 0.5251077 0.6846005 0.42018253 0.082785875 0.20355639 0.33946633 0.010737054 0.14463067 0.2320995 0.20023352 -0.06674124 -0.0004464537 0.08440892 0.034497943 0.082862005 0.15129605 0.09737342 0.045604803 0.042345434 0.07320237 0.078496024 0.10737683 0.08450004 0.06960252 0.034188673 0.07156675 0.114498295 0.19558495 0.5002293 0.2449813 0.25690156 0.4838568 0.499009 0.4884977 0.45425314 -0.2512396 0.05568258 0.38762122 0.069621414 0.11041879 0.20331842 0.205412 0.18463 0.4019081 0.17833087 0.17313217 0.3576752 0.57886577 0.5799811 0.55916953 -0.059045907 0.4675904 0.56474507 0.549933 0.06503919 -0.036400124 0.20689759 0.5587306 0.5552275 0.025010519 0.072925664 0.032349307 0.051257618 0.11291459 0.05482824 0.15164267 0.06420657 0.043285813 0.013904341 0.3970238 0.20112126 0.20650107 0.26470727 0.22139868 -0.0017394647 0.074413136 0.27048242 0.3863222 0.44478676 0.46359116 0.47573632 0.46001378 0.3960767 0.16524793 0.14615756 0.10071157 -0.23205285 0.15072712 0.21792626 -0.12032498 0.08185125 0.2559449 0.123329654 0.15890287 0.2698502 0.36475268 0.6176733 0.6322259 0.6321651 0.8263227 0.83756447 0.8089124 0.56787455 0.615911 0.5984952 0.7474779 0.7840066 0.39790758 0.72540796 0.67174006 0.5331178 0.59032804 0.6330852 0.65605295 0.57686746 0.5621973 0.5730675 0.6298