# vtk DataFile Version 2.0
Really cool data
ASCII
DATASET POLYDATA
POINTS 10651 float
10.366487 33.0782 11.683273
10.3974495 33.179184 11.942146
10.202534 33.64137 10.919691
10.159867 33.594078 11.550859
10.235795 33.846313 12.126595
10.169264 34.657852 10.199917
9.933308 34.662975 10.66671
9.851435 34.630997 11.370978
10.111356 34.563644 12.093177
10.203875 35.61431 10.260432
9.913359 35.373325 10.692747
9.857886 35.350887 11.370724
10.113255 35.315594 12.002212
10.313153 35.87253 10.167632
10.1266165 35.965237 10.770459
10.195992 36.04282 11.4664545
10.303807 35.806885 11.935851
11.447204 21.996212 9.28941
11.421421 22.541601 8.803445
11.446398 22.400759 9.324103
11.35621 24.224674 -0.85981333
11.271689 24.14383 -0.41367355
11.348951 24.214775 0.08605208
11.307087 24.70306 -1.0106595
11.148247 24.649406 -0.4301543
11.203344 24.671724 0.17535146
11.345816 25.340715 -1.1025145
11.180728 25.296093 -0.4806995
11.240161 25.402164 0.20030123
11.3267765 25.060923 0.8275923
11.394782 25.994934 -0.3588458
11.409462 26.05032 0.029165884
11.428814 29.635849 7.725198
11.4256525 29.763144 8.154711
11.429356 30.531397 6.8608747
11.25939 30.5547 7.5116587
11.294424 30.523705 8.175987
11.362815 31.4275 6.799946
11.205828 31.626547 7.5190887
11.197832 31.414047 8.215209
11.097877 32.387875 11.774713
11.287754 31.93544 7.5165086
11.280287 31.927767 8.411179
10.561712 33.002785 10.807564
10.714305 32.68374 11.627135
10.762126 32.86943 12.158321
10.970213 33.139397 12.623627
10.610175 34.11903 10.155826
10.462967 33.633373 10.458939
10.577584 33.4233 12.431336
10.850226 33.612095 12.789418
10.420188 34.48151 12.51721
10.837691 34.41857 12.897525
10.565905 35.415356 9.9316435
10.49273 35.626522 12.346388
10.876674 35.284065 12.84827
10.919417 36.104855 9.77406
10.460259 36.299007 10.605613
10.537664 36.375 11.647238
10.65881 36.09373 12.225324
11.21987 36.832745 10.084675
11.079106 37.04188 10.591379
11.066734 37.14714 11.326013
11.165161 37.099216 11.937695
12.357471 20.050577 9.476332
12.051668 20.572735 8.546029
11.968247 20.787788 9.344309
12.056992 21.045883 9.987048
11.909357 21.959862 7.808301
11.686011 21.573332 8.481173
11.595512 21.6912 9.407873
11.959138 21.674988 10.084874
11.857191 22.475544 7.810974
11.589275 22.451141 9.647336
11.818014 22.491232 10.024893
12.076689 24.215662 -1.6973404
11.844173 23.999228 -1.2315168
11.698382 23.823044 -0.55618185
11.433611 24.064192 0.03513722
11.9796505 23.163317 7.798921
11.824083 23.312054 8.556875
11.755165 23.335115 9.410399
11.99218 23.163155 10.053374
11.944059 24.797743 -1.8640444
11.539611 24.575289 -1.3376743
11.413688 24.49134 0.76231605
11.764735 24.707443 1.43266
11.917873 24.915325 2.1838703
12.247635 23.967693 8.307641
12.391105 24.383076 9.51039
11.997488 25.417442 -1.8982661
11.672108 25.4567 -1.5352876
11.521409 25.752554 0.82232773
11.592803 25.311573 1.2667775
11.877937 25.497656 2.4050937
12.208675 25.496105 3.2331972
12.101336 25.87066 -1.7537718
11.764773 25.965397 -1.2333815
11.568069 26.087187 -0.65477484
11.746739 26.168625 0.5679538
11.991131 26.342743 1.3532209
12.093593 26.1734 2.656716
12.356381 26.203672 3.3733056
12.138148 27.001846 -0.27287555
12.035162 26.96837 0.3291583
12.25312 29.197306 6.8237004
11.8127165 28.985502 7.7796855
11.893056 28.987122 8.385739
11.80014 29.788012 6.898773
11.597753 29.455482 7.592604
11.562616 29.50722 8.356284
11.709163 29.66327 8.739038
12.046153 30.580843 6.049169
11.548595 30.567612 6.665623
11.4723835 30.445105 8.670332
11.76885 30.71446 9.096618
11.932532 31.412754 5.9907055
11.228569 32.40903 11.930788
11.961825 32.120407 6.2381783
11.793146 32.2535 6.706717
11.584 32.46783 7.4647093
11.541664 32.501442 8.210984
11.7856 32.222908 9.237266
11.432695 32.694878 12.482365
11.448744 32.843002 12.711645
12.437758 33.330467 6.079575
12.294714 33.254948 7.2301865
11.89665 33.990273 9.301015
11.221828 33.33731 12.91712
12.406072 34.685337 4.024704
12.320517 34.579384 4.554288
12.358164 34.44658 5.2117343
12.458818 34.81166 6.9754
11.8196945 34.295063 13.278587
12.153809 34.867477 13.594807
12.44032 35.52921 3.9525132
12.34713 35.382587 4.332985
12.373112 35.513817 5.298803
12.493945 35.571762 7.42759
11.979753 35.337276 8.859051
11.578848 35.672756 13.23777
12.396597 35.98859 4.5387993
12.4368 35.967415 5.539037
12.430469 36.250973 6.928377
12.310292 35.972866 7.6572933
12.121227 36.76384 9.075546
11.429883 36.283363 9.627757
12.229197 36.533478 13.508801
11.931619 37.247707 9.52121
11.430416 37.471348 10.503914
11.463908 37.709 11.848244
11.586904 37.599884 12.486024
11.841829 37.35863 13.047592
11.805443 38.009094 10.776245
11.77969 38.245495 11.603021
11.8545475 38.317123 12.353076
12.111462 38.232956 13.129465
12.225205 38.786457 11.724748
12.208044 38.82976 12.431588
13.1382475 17.1683 7.4849167
13.200484 17.908663 5.5851502
12.908485 17.695978 6.843971
12.780201 17.778282 7.5441246
13.054369 17.608044 8.200608
13.143701 17.913727 8.755112
13.180362 18.416195 4.809254
12.886894 18.575895 5.7002907
12.67192 18.352388 7.5792203
12.776316 18.377363 8.211429
13.086594 18.719946 9.128386
13.18414 19.98053 3.93111
12.959933 19.734613 6.110111
12.683842 19.81392 7.693664
12.536859 19.36285 8.650262
12.818977 20.132086 10.148822
13.189712 20.479774 3.6968195
12.844535 20.622826 4.771767
12.823253 20.936646 5.564229
12.679332 20.488558 10.352335
12.947475 20.886198 10.756026
13.358476 21.149456 3.1134467
12.989901 21.407068 3.7931411
12.896072 21.332432 4.3236995
12.933461 21.265905 5.813077
12.462021 21.511826 10.547829
12.851641 21.397408 10.792465
12.505144 23.354683 -0.9470013
12.6262 23.260042 -0.38489684
12.570222 23.317484 0.18859112
13.329624 22.46214 3.450343
13.209951 22.53639 4.7747846
13.251498 22.515265 5.558043
12.4476595 22.680143 7.030893
12.802072 22.558344 10.838465
12.320256 24.067308 -1.7441527
12.40767 23.666784 -1.3812445
13.22529 23.39712 4.0139008
13.389612 23.80768 6.43444
12.469967 23.537745 10.418417
12.93069 23.484617 10.815422
12.56069 24.665024 -2.1080682
12.68361 25.000196 3.539871
13.175491 23.950956 6.742896
12.891696 24.15429 7.8016768
12.498498 24.620708 9.542827
12.559739 24.198822 10.12408
13.130836 24.037102 10.792964
12.46687 25.420843 -2.1109872
12.680746 25.626303 4.2352643
13.113569 25.55027 5.30333
13.396874 25.92079 5.999305
13.001745 25.256609 8.555599
12.670943 24.91513 9.643997
12.939098 24.900143 9.949999
12.57508 25.956738 -1.8948002
12.561118 26.353128 -1.5308391
12.636032 26.67522 3.470085
12.706864 26.093739 4.332156
13.017969 26.560501 5.202291
13.350756 26.221115 6.0233483
13.391259 25.857443 8.805053
13.381209 25.912754 9.078452
12.574091 26.894861 -0.92233956
12.534165 27.166578 -0.45038968
12.379591 27.321068 0.26987472
12.628955 27.21763 1.7454706
12.712124 27.100603 2.6925712
13.080629 27.351448 3.66905
12.842757 27.078453 4.229762
12.996057 27.026628 4.967185
12.949893 27.600094 -0.10648945
13.032468 27.664385 0.21193722
12.641354 28.67328 7.3739133
12.470347 28.648865 8.601822
13.077365 29.156406 9.270911
12.593183 29.953768 5.9478984
12.948727 29.357487 9.363855
12.487444 30.638813 5.708023
12.776612 30.69633 9.662998
13.037331 31.524546 5.2982655
12.902346 32.216164 5.5536838
12.722749 33.848526 3.9307141
12.554905 33.892567 4.373958
12.74261 33.716618 5.29203
12.697853 33.137676 6.211109
12.967268 34.63968 3.217419
12.629875 34.828304 3.6235974
13.009408 35.87978 3.08565
12.633659 35.580345 3.581578
12.533004 35.15106 6.602818
12.852542 35.267056 13.906909
13.09065 36.46523 3.0700097
12.743751 36.4121 3.595702
12.520577 36.339615 4.6717954
12.690194 36.622086 5.6736484
12.523204 36.542416 6.874862
12.647441 36.626793 8.211123
13.116809 36.17328 13.767043
13.187837 36.920574 3.1909785
13.051027 37.065533 3.661394
12.9632435 37.14923 4.2906766
12.91348 37.00053 5.5527835
12.92117 37.298733 6.633912
12.692461 37.216278 7.629881
12.654264 37.525387 8.793889
12.429373 37.65685 13.559053
12.717652 37.502613 13.791307
13.231603 38.226116 8.642986
13.181878 38.58821 9.236965
12.352229 38.46611 10.772668
12.3665 38.19204 13.430703
12.691924 38.332664 13.703035
13.325868 38.791008 9.100188
12.774885 38.811726 10.881066
12.512433 38.996944 11.410507
12.629092 39.239964 12.504466
12.691028 38.998074 13.232495
13.223201 39.660435 12.118377
14.192376 17.288185 4.9501834
14.024843 17.16372 6.010074
13.64191 16.83253 6.9880376
13.752884 16.730175 7.5280933
13.714799 16.937992 8.251206
14.019419 17.193098 8.816403
14.141904 17.833681 4.255605
13.610761 17.874779 4.8372188
13.539662 17.30075 8.578532
13.70277 17.741497 9.050234
13.906669 18.707838 3.7947438
13.742424 18.31113 9.327024
13.646011 19.240389 9.780809
14.126022 19.953358 3.09552
13.538249 19.8857 10.377952
13.641728 20.132113 10.67176
13.569824 20.6186 10.864102
14.074593 21.959232 2.580369
13.588537 21.560911 11.0429325
13.270612 23.265472 0.75146997
13.705474 22.766624 11.166612
13.158538 24.174963 -2.0304673
13.474183 23.436998 11.11364
13.038412 24.544584 -2.113212
13.630233 24.384817 10.897261
13.159391 25.366573 -2.1359522
13.461201 25.24707 10.166187
13.951416 24.79811 10.732245
13.19802 25.992348 -1.8933156
13.470876 26.502134 -1.4651644
13.529948 26.77212 5.9310856
13.576012 26.085962 9.310814
13.389094 27.066854 -0.900521
13.344633 27.456223 -0.41244453
13.738989 27.163836 8.560596
14.085852 27.354536 9.277656
13.879681 27.662403 0.008067936
13.393615 27.714598 0.32248464
13.866139 28.055916 1.3420215
13.579412 27.980549 3.2216952
13.492659 28.90803 9.075331
14.318063 29.924553 3.8636334
14.366428 29.001865 4.519613
13.597014 29.807547 9.864308
14.3556 29.921467 10.995172
13.952944 30.32813 4.714337
14.256207 30.78061 12.126685
14.064939 31.418816 3.667322
13.637307 31.154364 4.8124933
13.521152 31.68822 11.388108
13.624915 32.11652 12.494409
14.130919 32.01767 15.550716
14.272064 32.08516 16.368063
13.910954 32.431374 3.9120395
13.695058 33.21948 13.938616
13.924901 32.663055 14.629258
13.918645 32.536037 15.856051
14.067108 32.61602 16.419209
14.263055 32.67609 16.844816
13.341014 33.537827 3.678279
[...]
POINT_DATA 10651
SCALARS features_00 float 1
LOOKUP_TABLE default
0.6083887 0.5995059 0.6973477 0.66698873 0.6361806 0.641227 0.72578895 0.75463414 0.6851386 0.54892707 0.6557971 0.6952448 0.6614398 0.4960791 0.5672687 0.5791979 0.5908923 0.5852085 0.5794381 0.59357953 0.75529635 0.73182034 0.6893027 0.77216625 0.7328497 0.6776425 0.7844727 0.7312264 0.65302575 0.5819731 0.7098038 0.666356 0.54039025 0.54267406 0.5302162 0.5362942 0.5325344 0.47206986 0.4761817 0.49350923 0.50167745 0.43697622 0.43625677 0.5920905 0.56167066 0.55795014 0.53590894 0.59751034 0.64413965 0.5767585 0.5459919 0.6216027 0.55289704 0.46817517 0.56784517 0.52310354 0.3410065 0.48434913 0.51070356 0.50523084 0.29533553 0.3558337 0.3977712 0.40242833 0.50463873 0.47059375 0.53785014 0.5717285 0.45254698 0.5402889 0.5778897 0.58472145 0.45742947 0.5965734 0.5919815 0.76779735 0.75476706 0.7213719 0.69028044 0.41779315 0.5427539 0.5789043 0.57607704 0.7902509 0.7815193 0.5983672 0.46141577 0.3210361 0.45525882 0.4556172 0.79802495 0.80084723 0.5526352 0.49898803 0.326011 0.21951088 0.7766236 0.76738954 0.73228997 0.5900087 0.4670077 0.2965151 0.23868223 0.6380844 0.6035216 0.5172275 0.5486196 0.56046367 0.53003055 0.53961414 0.5453128 0.537528 0.43720302 0.5194731 0.53078604 0.51706785 0.38436127 0.4859864 0.31870824 0.3389508 0.34246862 0.33005333 0.3354572 0.4674652 0.46527398 0.083961256 0.12790772 0.11850107 0.50107884 0.46784866 0.38186663 0.2533366 0.054531354 0.39386564 0.29054722 0.5534241 0.48197955 0.33721298 0.07547181 0.0737788 0.36839122 0.5037053 0.3410331 0.17374703 0.06886081 0.08905648 0.24400917 0.2807649 0.1559977 0.29385662 0.3818919 0.40933883 0.3996399 0.2810807 0.35787293 0.41301042 0.43822297 0.34477344 0.41576648 0.6471809 0.4770989 0.5722662 0.56921303 0.60455173 0.5686595 0.41889066 0.48512995 0.48209977 0.5045243 0.4995809 0.3884941 0.31343848 0.31568068 0.44113076 0.5373523 0.34839857 0.29024905 0.21542314 0.5630175 0.58069015 0.3327916 0.28402257 0.25991717 0.15978464 0.5938876 0.5936862 0.68851936 0.65258306 0.63648474 0.24564752 0.109798715 0.039353658 0.19884968 0.5856154 0.7529732 0.72255754 0.034168012 0.020064145 0.5386881 0.5346804 0.7640265 0.13661143 0.10327418 0.32057816 0.42433226 0.48071104 0.49456778 0.78036284 0.16252218 0.08080974 0.04966699 0.2848904 0.3905986 0.3956341 0.7497912 0.7077441 0.24203329 0.18242474 0.14372486 0.079589725 0.19601151 0.21416126 0.6404932 0.60470414 0.55503523 0.43609893 0.28596836 0.2318951 0.21056113 0.15530208 0.52874327 0.498223 0.5319429 0.50852764 0.28396276 0.38035697 0.32655662 0.32978922 0.3257435 0.16139261 0.16403097 0.36917946 0.3242702 0.1525059 0.105767414 0.53917694 0.532395 0.6594261 0.60739124 0.13158044 0.14243396 0.6808231 0.65288734 0.51003784 0.3609387 0.19112493 0.046506226 0.14057928 0.6795932 0.64147973 0.56238234 0.38258004 0.23211926 0.108566865 0.057185132 0.36823666 0.3150707 0.054564185 0.07246587 0.23200068 0.42178485 0.3999732 0.057012096 0.20263892 0.28563976 0.40555784 0.43463272 0.32698303 0.40746653 0.5033706 0.6311378 0.68427527 0.6956289 0.68365043 0.3737356 0.40840942 0.6551007 0.6094711 0.3746305 0.55357283 0.50338054 0.34872442 0.51119375 0.5128479 0.5341057 0.3020006 0.54545057 0.4228161 0.5465821 0.6695788 0.5306506 0.7176523 0.47451323 0.73586285 0.3558081 0.44255185 0.70028204 0.6301576 0.08753753 0.17006251 0.5711361 0.52624476 -0.09167369 -0.08671574 0.43819243 0.47563115 0.31463507 0.22138815 0.13104154 0.002560325 -0.17120132 0.04533732 -0.11238024 -0.0100287 -0.04303072 0.046137977 0.039343428 -0.09258922 -0.065735966 0.3748479 0.45459187 0.06670588 0.12067185 0.27346155 0.4504843 0.49537864 0.5164075 0.31399935 0.09262593 0.44784904 0.5048211 0.5243235 0.52636695 0.30414698 0.379669 0.62922144 0.21977457 0.6563293 0.6713021 0.63005626 0.5064907 0.361898 0.206563 0.57011646 0.48220724 0.4070995 0.19429107 0.1098674 0.29173854 0.036801837 0.07971997 0.15207006 0.34258878 0.30982298 0.10419283 0.14622289 0.23734975 0.2998786 0.30665916 0.29069793 0.33737373 0.4805761 0.50527275 0.4938528 0.51794887 0.5350952 0.54015803 0.5326451 0.55774844 0.6786766 0.40411782 0.40678167 0.5726191 0.6746994 0.7323222 0.7129377 0.34452718 0.36799723 0.63136566 0.35140616 0.55190414 0.47696602 0.2026657 0.36434233 0.47028512 0.71290255 0.117001124 0.43420705 0.69646174 0.65193105 0.5976107 0.640096 0.5480531 0.4489138 0.6478905 0.6904466 0.64756376 0.55231094 0.6048832 0.48923653 0.613543 0.6606219 0.64963424 0.57321626 0.4823825 0.59176767 0.6105707 0.58837265 0.5388322 0.57310164 0.3667763 0.52743363 0.5150502 0.027507499 0.5387867 -0.19944331 0.078815974 -0.08757907 -0.018095065 0.107129484 -0.0525712 0.0074505396 0.23273721 0.11161664 0.23380294 0.310646 0.08234948 0.09323252 0.18414071 0.35322338 0.43865788 0.47135746 0.082241 0.52628446 0.18775 0.52780986 0.5062858 0.34231123 0.40804738 0.4933734 -0.012672221 0.14148258 0.2089393 0.6026926 0.021374006 0.63525784 0.1592435 0.11789368 0.43122995 0.22894117 -0.09073553 0.27704647 0.24862877 0.28058326 0.263889 0.2750061 0.27468708 0.39972773 0.39071447 0.41733962 0.36957213 0.3004059 0.2701958 0.26306164 0.4769356 0.48260486 0.42729634 0.34149405 0.32814947 0.36593273 0.36490986 0.37809002 0.42776465 0.43648186 0.40046668 0.45200282 0.47298804 0.48479748 0.46528912 0.3219485 0.47211486 0.5052702 0.547281 0.52850586 0.47072732 0.5251926 0.5623896 0.56385463 0.48857218 0.49566287 0.50915515 0.46121806 0.44296515 0.67848015 0.33231395 0.38863835 0.62669146 0.72231364 0.25871003 0.6442485 0.09219028 0.22479564 0.518946 0.3056779 0.30514613 0.7388948 0.72301304 0.48658848 0.24523501 0.2103239 0.051640652 0.26732987 0.3503095 0.7368326 0.7406355 0.7076157 0.6262133 0.66364384 0.52279216 0.36216748 0.28062725 0.23624164 0.35371077 0.70242417 0.71483016 0.58549964 0.52449703 0.7577876 0.7093875 0.61546034 0.23155196 0.35527065 0.49447185 0.61115855 0.48799306 0.3363012 0.714207 0.6731721 0.36935827 0.46569124 0.5157082 0.47646752 0.4103387 0.63052267 0.36895913 0.48847514 0.53408873 0.47352898 0.44825003 0.47663108 0.49309924 0.46829668 0.42876855 0.43975985 0.40837985 0.43059623 0.43106604 -0.14506668 0.002825927 -0.035243146 -0.09377532 0.009080343 0.14303163 0.23054422 0.2758493 -0.003401859 0.23405343 0.30380923 0.34419015 0.102948 0.33049253 0.35302326 -0.058316298 0.40483224 0.432374 0.5337193 -0.06721497 0.5231715 0.38401708 0.44744092 0.33234182 0.20135334 0.28707394 0.1288957 0.11278742 0.35537255 0.18326798 0.39657325 0.26534942 -0.12621306 0.23814127 -0.04569523 0.266699 0.25319248 0.24677804 0.34649318 0.30657429 0.27639776 0.26475388 0.38385653 0.46779424 0.5111418 0.48515612 0.4393896 0.3894822 0.3073665 0.51834846 0.48303878 0.44192496 0.37882888 0.3592422 0.32742256 0.27883923 0.26669812 0.31357354 0.3174312 0.31132984 0.44123536 0.3982798 0.35683852 0.3279727 0.25502515 0.25126356 0.34043625 0.32838857 0.51075894 0.4552043 0.3890755 0.32916495 0.26479203 0.37925246 0.34980586 0.49045295 0.40957934 0.35575062 0.29844722 0.2433511 0.44861633 0.48730054 0.40231556 0.31011027 0.25648138 0.4777911 0.45848095 0.32085633 0.23717856 0.16089503 0.19723274 0.39950716 0.1631255 0.11852445 0.25507563 0.3985579 0.4428166 0.39157182 0.36484545 0.36692646 0.28395584 0.28359973 0.32886085 0.3122909 0.30584168 0.4953733 0.14149576 0.19766147 0.5791737 -0.027615849 -0.062113367 0.41037267 0.2236385 0.088067465 -0.020203818 0.058331944 0.16734819 0.7147491 0.7125752 0.68980217 0.67777723 0.54922855 0.3133052 0.2825243 0.03327263 0.6948893 0.6221327 0.83224714 0.7059052 0.039367147 0.081208386 0.68872076 0.8535004 0.16302818 0.39352798 0.27954304 0.026831485 0.74824095 0.16871345 0.16144401 0.37087804 0.018079083 0.72134644 0.66088504 0.20521934 0.3809129 0.4049118 0.22909965 0.26497313 0.30543146 0.33430782 0.35404217 0.016960293 0.27996972 0.37266678 0.24210495 0.27977934 0.30666962 0.31635466 -0.018684391 0.25442392 0.33846217 0.35580477 0.351511 0.28533095 0.20704217 0.24803078 -0.045160394 0.1756702 0.2428884 0.25466698 0.18976142 0.109384626 0.07724272 0.26088455 0.17271918 0.07874644 0.04284198 0.3369649 0.35299665 0.42188853 0.44211155 0.09212852 0.062847495 0.0010392144 0.36544502 0.45546603 0.4795719 0.477577 -0.029043304 0.373897 0.4237032 0.48271102 0.5076577 0.53038025 0.016029779 -0.031764954 -0.09089137 0.4768029 0.53529286 0.54001975 0.04813133 0.50229084 0.41702497 0.35187206 0.005964823 0.4535873 0.2521848 -0.04127478 0.3337816 0.3312981 -0.1868197 0.18112853 0.056220643 0.0789092 0.39840856 0.12700897 0.5149348 0.54418325 -0.08707124 0.19341885 0.6025541 0.5935614 0.5486018 0.36494383 0.19242093 0.2318352 0.6124476 0.606414 0.5485093 0.35057256 0.22869463 0.27791864 0.23503044 0.5815562 0.53988534 0.47360677 0.41638923 0.38078272 0.26742807 0.50666094 0.52551425 0.49641502 0.43540323 0.3870225 0.36432368 0.33568257 0.2780822 0.28428188 0.3496865 0.3753267 0.37500203 0.45937818 0.39163786 0.36575532 0.3013967 0.5650994 0.5352263 0.4860938 0.59812164 0.5488336 0.26521212 0.64735675 0.5499403 0.22532617 0.35955358 0.49141532 0.56033564 0.67904526 0.610199 0.5390729 0.5426595 0.5890069 0.5640617 0.51148874 0.42268822 0.4707449 0.5566001 0.49744725 0.22573388 0.1993424 0.17407498 0.121126264 0.20862219 0.3077379 0.3623006 0.21004432 0.08954824 0.24522123 0.24675114 0.2909966 0.17671537 0.18651165 0.57756114 -0.0430833 -0.090047926 -0.099835515 0.4529336 0.0018590968 -0.018790644 0.27011743 0.15246528 0.08423756 -0.10810814 0.5578421 0.6007564 0.36307365 0.6332073 0.63083434 0.62049484 0.7881167 0.7044384 0.5351438 0.36571446 -0.19525424 -0.20008072 0.58506715 0.3483566 0.52207327 0.5230347 0.5342666 0.5733906 0.87690675 -0.1342874 0.49419934 0.3764639 0.3797059 0.54989624 0.5565368 0.8956562 -0.018028148 0.10933043 0.090661004 0.21266434 0.49061507 0.8054576 0.046358343 0.024291344 0.03411567 0.094805405 0.23523971 0.3385504 0.32790482 0.7368254 0.686756 -0.003399536 0.1644308 0.1991253 0.33277786 0.3068473 0.22790647 0.0096244365 -0.52253336 -0.017337032 0.00035888515 0.3578658 0.3300994 0.17742276 0.3040106 0.29245064 0.2371194 0.219791 0.07138354 0.026522014 0.015524125 0.3795222 0.35661417 0.23416868 0.12599522 0.1998007 0.19536425 0.18773301 0.012108013 0.3446374 0.29375762 0.17070153 -0.10043776 -0.10783456 0.051938534 0.13098772 0.17041868 0.11270578 0.07058436 0.25804642 0.14302503 0.2430503 -0.029157147 0.0922933 0.017789453 -0.082245216 0.03928619 0.11417778 0.13918523 0.18388097 0.23884594 0.29817432 0.3274727 0.26601458 0.39211464 0.24984401 0.15366995 0.13925442 0.15811118 0.2403522 0.32740322 0.39459962 0.19968665 0.3241967 0.37084582 0.4044298 0.40990925 0.44958317 0.31820592 0.2145065 0.35743293 0.4121099 0.42978165 0.124242224 0.3113767 0.3222139 0.36527872 0.44118536 0.49963945 0.49280092 0.2117298 0.31145942 0.3955708 0.43535483 0.46367067 0.38022947 0.47840455 0.5192573 0.5311998 0.48618716 0.2743131 0.39451844 0.44613078 0.32561857 0.32330972 0.45495033 0.5001342 0.49312383 0.49587995 0.17366555 0.2378591 0.36514294 0.49666792 0.49108675 0.40726548 0.43962413 0.42086554 0.57257557 0.5983945 0.5226239 0.43267506 0.43349355 0.4375348 0.40168595 0.3555391 0.3007598 0.59392446 0.63768995 0.63661873 0.5598586 0.50790644 0.42158145 0.22295699 0.084708124 0.6429668 0.5667226 0.538092 0.02536454 0.052447982 0.22443807 0.111764826 0.4886015 0.21169573 0.20847905 0.55585647 0.59003145 0.2466926 0.37597346 0.5821946 0.6016774 0.19293559 0.11852618 0.37098154 0.59080577 0.5692721 0.4997187 0.29712853 0.18772061 0.11214762 0.38254884 0.36210907 0.3425411 0.44588947 0.49875176 0.48328075 0.41254333 0.39282215 0.4182492 0.30215824 0.37786722 0.42553395 0.42553023 0.41059345 0.3323884 0.30837643 0.245301 0.38024625 0.33972096 0.50871116 0.47303528 0.37635922 0.56983596 0.53239864 0.6862751 0.64304733 0.38753033 0.4946464 0.5164341 0.7592788 0.47887903 0.5744478 0.59458625 0.76900095 0.60135025 0.6053826 0.68475294 0.60237753 0.58455646 0.52785724 0.44658256 0.23547484 0.26306477 0.37479395 0.51672184 0.40085799 0.29899424 0.32235885 0.2027941 0.103308655 0.0264206 0.20647603 0.27079582 0.8377128 0.9294291 0.44111836 0.39773238 0.32730836 0.15664485 -0.015792191 0.087629765 0.105233796 0.16044122 0.16108601 0.35849884 0.5256058 0.67859125 0.7470139 0.70897657 0.2155079 0.24394594 0.34618646 0.3703414 0.5950091 0.5789294 0.14127626 0.116344005 0.061360054 0.118305504 0.09672804 0.07505573 0.32179672 0.06495779 0.4959181 0.63372684 0.68138015 0.10596287 0.04861305 0.2980493 0.29282978 0.107707985 0.22158326 0.47568277 0.59571534 0.67004037 0.6329218 0.5685519 0.5887811 0.58022976 0.6919019 0.5207673 0.2740962 -0.011412431 0.3111449 0.558201 0.4713843 0.5244286 0.57069343 0.58721554 0.5687262 0.52310836 0.8577188 0.7641465 -0.042665735 0.2838496 0.07068375 0.2578972 0.42073235 0.5110718 0.5237498 0.50508344 0.5328518 0.45576763 0.90115535 -0.11262739 -0.08375904 0.2453508 0.3718189 0.44215333 0.39241236 0.33248597 0.8198894 0.78313327 -0.056737363 0.18082172 0.019466192 -0.0061888844 0.27390543 -0.090241626 0.28832647 0.28087828 0.27039266 0.35257745 0.26357365 0.70316875 -0.17591771 0.2570153 0.18171376 0.13017626 -0.10221413 0.06495504 0.1880575 0.23183353 0.33869052 0.34796828 0.30177882 0.09521876 -0.10793128 0.16448839 0.19566655 0.2047485 0.04739796 0.34063047 0.3748678 0.12754941 -0.031398192 0.0027115047 0.24782476 0.025899375 0.03290572 0.31843483 0.3095749 0.07028387 0.07578262 0.12541199 0.16807532 0.24058479 0.025575876 0.028760204 0.20157188 0.20493945 0.23499477 0.02806903 -0.080696285 0.025127511 0.045868095 0.014046572 0.044571813 0.38615352 0.15140858 0.14709726 0.08106807 0.11350644 0.13868088 0.0864925 0.14756455 0.3989975 0.4173833 0.101894125 0.24637005 0.13132307 0.29665953 0.22299099 0.16475312 0.15688708 0.168796 0.43113965 0.45463517 0.12007737 0.22724847 0.3726985 0.33173406 0.12460298 0.13587673 0.15822461 0.4614117 0.4755758 0.51389426 0.12429124 0.15060024 0.2493855 0.34953254 0.41282293 0.39257443 0.08581652 0.28458616 0.15167905 0.5118495 0.5427415 0.2793221 0.2537427 0.40070283 0.41582966 0.286771 0.38033032 0.2892093 0.2143299 0.14023018 0.5109059 0.5625236 0.62148726 0.37108845 0.24554856 0.48067373 0.35050005 0.15157607 0.16978985 0.17710993 0.24922112 0.5970649 0.66047513 0.6842325 0.4193464 0.4234914 0.08413337 0.07233688 0.58135396 0.40140015 0.18680122 0.18791242 0.61682487 0.6853231 0.3738237 0.3901062 0.35259274 0.24501938 0.024042279 0.6061237 0.64906347 0.62582797 0.55649775 0.51819676 0.41354033 -0.20036621 -0.027129095 0.59810394 0.5415405 0.50630987 0.4578188 0.06822361 0.1422137 0.1529037 0.3969683 0.21420512 0.48839664 0.38266993 0.5126153 0.53859794 0.19409923 0.35416 0.4156487 0.5093972 0.49361816 0.5237898 0.48379713 0.38325423 0.16431916 0.13000236 0.04433185 0.11892845 0.35521626 0.56559277 0.27702498 0.34133503 0.4377335 0.44534323 0.4112097 0.40128547 0.45726216 0.4759593 0.44646102 0.43552095 0.24171574 0.2081833 0.40064505 0.49623334 0.473186 0.54424775 0.51852226 0.41717166 0.4793598 0.7181474 0.62705564 0.395933 0.4833267 0.52910084 0.8119488 0.56326306 0.58414966 0.8376428 0.600683 0.7967158 0.5709069 0.5931769 0.530568 0.5220684 0.78481174 0.89315784 0.97806567 0.43912053 0.24757677 0.52474916 0.61959517 0.7959587 0.9564819 0.90865767 0.4901055 0.49062967 0.44825807 0.35809925 0.2580893 -0.0040611587 -0.048955683 0.20669039 0.47066635 0.77161753 0.51259065 0.48668373 0.4204805 0.17014854 0.13014692 0.18876404 0.33508766 0.32414043 0.169696 0.22616598 0.27843705 0.5855077 0.22677888 0.2886674 0.33045918 0.37481284 0.14995381 0.46994436 0.37302226 0.41469705 0.42032093 0.09982685 0.11252653 0.40239108 0.08971183 0.23920353 0.59957373 0.6490377 0.6717063 0.056251466 0.073254816 0.03926973 0.43464786 0.41358924 0.3389841 0.03844983 -0.0146317445 -0.03182887 -0.0010720082 0.16488717 0.4083495 0.6604115 0.5132803 0.5333438 0.51915807 0.40649194 -0.12590475 0.01903898 0.45257947 0.390079 0.30663583 0.13070272 -0.003664676 0.50606096 0.3826689 0.49443483 0.5186148 0.74217844 0.46571803 0.027093366 0.49356872 0.47471166 0.42623225 0.2939688 0.2769352 0.42278746 0.4917925 -0.016506907 0.45641094 0.3942528 0.30752337 0.41079754 0.27774557 -0.22099064 0.2981311 0.19512036 0.15653789 -0.017399877 -0.4471234 -0.41092864 -0.01583279 0.08313134 0.19392984 0.2366741 0.124223836 0.20049736 0.23597872 0.20305076 0.34740257 0.06771164 0.24240682 0.19779712 0.20198122 0.058444403 0.05461716 0.2538209 0.21024191 0.03430208 0.18293563 0.13789256 0.28297827 0.31663936 0.0772769 -0.017346194 0.10153203 0.39549538 0.06556615 0.102241635 0.1903888 0.111038856 0.12783481 0.45846963 0.48240587 0.048195265 0.05605883 0.15817949 0.13275596 0.13914323 0.21146262 0.09599791 0.5135585 0.07985364 0.13750781 0.25484335 0.31404075 0.23187152 0.24509099 0.028521076 0.5567466 0.21173957 0.11742151 0.33007663 0.325549 0.28497073 0.26063725 0.6497994 0.6681138 0.3019402 0.20207462 0.16526735 0.42791665 0.67810154 0.6759056 0.33364195 0.07321632 0.508072 0.19548221 0.40671894 0.53146374 0.6508636 0.67837 0.2927797 0.57258344 0.6136922 0.30861267 0.24099302 0.20558044 0.0027483301 0.6226395 0.6118136 0.51175916 0.47061062 0.36477417 0.029761575 -0.0519161 0.12589742 0.32769793 0.2882947 -0.03512997 0.4411521 0.44651726 0.4349302 -0.05289623 0.32526416 0.5752589 0.563694 0.4178646 0.26053694 0.11759916 0.0026256333 0.060601264 0.12173458 0.34035224 0.40341058 0.52558386 0.57895565 0.25998282 0.14980851 0.12018265 0.1676728 0.34657526 0.35012168 0.4248057 0.43076777 0.40438172 0.405193 0.41817373 0.47473967 0.480864 0.48951566 0.38870412 0.4666413 0.4252655 0.47207767 0.4231733 0.54504675 0.485493 0.48665595 0.51017404 0.6995263 0.6516083 0.50833905 0.5216178 0.7823252 0.5443684 0.55776244 0.7908088 0.48730737 0.55121547 0.7256287 0.5545337 0.4017486 0.84821403 0.999045 0.993718 0.9577626 0.45281914 0.4952208 0.61247313 0.90142274 0.5210922 0.41207436 0.77029383 0.52258873 0.48055983 0.44960713 0.102825835 0.20649213 0.30922657 0.12640867 0.6381825 0.22154099 0.27614537 0.3885144 0.32019335 0.66688675 0.6591699 0.12511785 0.46934503 0.36238626 0.42363352 0.44534716 0.4610748 0.4146633 0.36164165 0.6481619 0.6221374 0.07971704 0.33786124 0.46155885 0.4874339 0.476978 0.09182452 0.2110431 0.37894544 0.5260217 0.5688403 0.27161545 0.41165975 0.039833985 -0.066256315 0.4672258 0.3719629 0.31902805 0.13543344 -0.049227916 0.16068166 0.33100134 0.5440824 0.56003404 0.2250013 0.28674468 0.46852735 0.42350826 0.20928438 0.08658004 -0.021691479 0.59100246 0.08101682 0.05650107 0.3174953 0.01514665 0.519776 0.22238058 -0.15621316 0.1029085 0.09837713 0.048547946 0.37078196 0.29260665 0.21305823 -0.062978595 0.42126995 0.120543554 0.36473638 0.17864384 -0.19971761 0.33796299 0.12456782 0.15846032 -0.5413528 -0.08491455 -0.008874044 -0.01781042 0.16676316 0.17200632 0.108407795 0.2545861 0.39523298 0.43160594 0.54304963 0.01246066 -0.33828288 0.02302903 0.017653145 0.12575802 0.20214725 0.3719312 0.45663178 0.5200678 0.46725613 -0.11790857 0.03804434 0.037183125 0.041397452 0.14804737 0.15266019 0.5631211 0.54822737 0.40943775 0.3546556 0.047532585 0.071732596 0.09774004 -0.07302958 0.04266829 0.026519753 0.15160969 0.052138127 0.09150326 -0.029689148 0.22404324 0.18943778 -0.0013103187 0.03280884 0.3834316 0.039397396 0.068722785 0.05277006 0.4676334 0.045288555 0.08844917 0.053205494 0.10068356 0.025918894 0.06791334 0.11187366 0.16442351 0.21166804 0.5802463 0.67414236 0.086696155 0.15325847 0.2360206 0.69846326 0.18729728 0.20982619 0.24419661 0.35130095 0.23759565 0.17394674 0.6735483 0.68969667 0.16887718 0.48794988 0.14887545 0.47968954 0.61103606 0.64451814 0.119893275 0.19844078 0.19223966 0.03888575 0.45242065 0.51092577 0.21906872 0.17912939 0.15538646 -0.040355887 0.5320304 0.5055033 0.3855779 0.3181073 0.23826683 0.21248087 -0.067490704 0.13412821 0.41199607 0.35695854 0.083317555 -0.064834155 0.28788847 0.39468437 0.20788857 -0.113057554 0.5677527 0.594792 0.19583789 -0.05179821 -0.08633287 -0.023069032 0.37224752 0.47060102 0.55791235 0.19886953 0.16620362 0.21664491