# vtk DataFile Version 2.0
Really cool data
ASCII
DATASET POLYDATA
POINTS 10605 float
13.354571 3.1032383 43.08236
13.243645 2.8736136 43.798103
13.219276 2.7967076 44.36905
13.312424 2.8428771 44.882046
13.427901 3.6264935 42.886997
13.161156 3.4627361 43.673355
13.107154 3.505387 44.432728
13.237955 3.5334141 44.939365
13.433264 4.067063 43.0786
13.281065 4.1476784 43.799534
13.241465 4.098368 44.38456
13.286221 3.8959403 44.915543
13.313563 16.987583 30.729757
13.44996 16.544672 31.603624
13.404877 17.49164 29.892605
13.397578 17.430033 30.532764
13.365395 17.450552 31.368347
13.397403 18.333015 30.714247
13.404182 18.291864 31.256577
14.299376 1.031016 43.83566
14.251127 1.0031034 44.35551
14.137097 1.9924312 42.84033
13.814741 1.9349339 43.412666
13.733515 1.8314112 44.392776
14.110755 1.7709547 45.155903
14.204624 2.9139628 41.965027
13.7581625 2.8139374 42.723347
13.555351 2.4371746 43.358047
13.496603 2.343619 44.728878
13.718113 2.7259493 45.307312
14.103929 2.8312688 45.6571
13.98231 3.7078466 41.99151
13.701949 3.1650393 42.384903
13.578239 3.4283085 45.32614
13.986467 3.6060338 45.58815
13.955103 4.235418 41.96102
13.698148 4.281869 42.541035
13.504466 4.454046 43.649406
13.505952 4.3908777 44.50439
13.732711 4.1184764 45.133476
14.098721 4.7843175 42.06147
14.125754 4.965767 42.347984
13.805806 4.764168 43.55053
13.984029 4.797843 44.24442
14.454784 10.624653 34.609776
14.376248 11.379857 33.9607
14.421541 11.566713 34.48403
14.480358 12.352685 33.51792
14.410186 12.151366 34.547043
14.07329 14.994677 31.806654
14.1427765 15.632658 29.786259
13.898727 15.394623 30.404282
13.986903 15.392838 31.555971
13.753779 15.942898 32.29835
14.260311 15.655008 32.96652
14.156492 16.878796 28.653658
13.642367 16.754269 29.624212
13.54576 16.599073 30.182394
13.60838 16.341805 31.279335
13.639712 16.670723 32.351192
14.051428 16.620493 32.88125
14.160215 17.775126 28.285847
13.873595 17.495317 28.731705
13.762855 17.42656 32.28558
14.166646 17.160107 32.811253
14.230816 18.339428 28.341099
13.958606 18.295664 28.675482
13.661915 18.4746 29.516539
13.5599 18.641981 30.573448
13.612286 18.590912 31.499056
13.765377 18.412876 31.983955
14.104168 18.987007 28.946455
14.103576 19.163055 29.33861
13.986722 19.20832 30.614311
13.8018875 18.948341 31.38788
13.972956 18.891672 31.836193
15.060247 0.2694611 44.041134
15.066756 0.25616255 44.44197
15.045973 0.34565133 44.900192
15.067948 0.79874516 43.03263
14.592033 0.7848348 43.64295
14.736658 0.57880676 44.43332
14.701073 1.2390064 45.46736
15.036361 1.0789268 45.86588
14.783274 2.1192737 42.127575
14.460887 1.3809277 45.439445
14.759539 1.6783943 45.88041
14.607472 2.8941615 41.729584
14.713909 2.4932883 45.992
14.837053 3.4139893 41.363926
14.511439 3.6467955 41.465168
14.554683 3.4336135 45.85674
14.341008 4.5443487 41.674713
14.2893 4.2822647 45.258076
15.236182 6.0766964 37.86361
15.237041 6.0661535 38.339195
15.258539 6.258017 38.94358
14.385022 4.9799294 41.93883
14.674462 5.267267 42.630985
14.248371 4.9925694 43.373703
14.405768 4.822561 44.427567
15.08257 6.606515 37.69615
14.978467 6.7126584 38.344597
15.179051 7.336814 37.120224
14.921896 7.3347974 37.802483
14.7814455 7.7132554 38.539692
15.10088 7.5739603 39.255024
15.241099 9.132407 33.476357
15.07999 9.092039 34.489483
15.414773 8.969996 35.777184
14.95357 8.393596 37.4315
14.7003 8.363986 38.216404
14.977119 8.552605 39.363384
14.978462 9.834716 32.939724
14.837325 9.607485 33.65925
14.726004 9.695987 34.57085
15.036152 9.466456 35.276474
15.120138 9.607083 37.098022
15.068208 9.567792 37.58433
14.768119 9.305848 38.679317
14.926155 9.292054 39.130943
15.293204 11.097273 28.228338
15.140104 10.887251 28.690758
15.017706 10.913431 29.414991
14.92465 10.668942 32.687737
14.563531 10.254845 33.72357
14.535427 10.450049 34.391052
14.583217 10.448217 35.111626
15.14801 10.123862 38.445644
15.172115 10.122488 38.939648
15.264155 11.630584 28.05865
14.950111 11.597353 28.726118
14.848702 11.345956 29.318184
15.000565 11.469472 30.236786
14.798836 11.702533 32.733334
14.853678 11.644622 36.107468
15.119507 12.26687 28.562376
14.884504 12.246886 29.282412
15.0743885 12.502491 30.054302
14.8622055 12.675528 32.96135
14.567408 12.371845 33.64743
14.560665 12.55442 34.87189
14.600252 12.070464 35.715553
14.723922 12.114205 35.974358
15.229958 12.025867 36.672947
15.126136 12.820372 29.718359
15.092129 13.597411 33.623898
14.585166 12.815578 34.738297
14.652757 12.776956 35.479794
15.19674 12.937088 35.90505
14.769665 14.368539 32.28136
15.174144 14.390705 33.717308
14.831402 15.953326 28.980139
14.61182 16.824408 28.314936
14.6248865 16.340792 33.41338
14.6120825 17.667969 28.074041
14.6642475 17.626053 32.913845
14.65098 18.413404 28.161747
14.350542 18.55662 28.39552
14.8161335 18.448719 32.56166
14.749628 17.925491 32.852833
14.7504425 18.875053 28.291716
14.640787 19.264174 28.698692
14.412684 19.481588 29.503094
14.505553 19.434814 30.969759
14.423066 18.925947 32.14119
14.859029 19.616495 29.007168
14.72007 19.644167 29.487318
14.66183 19.578138 30.36423
15.526727 0.21180546 43.299313
15.7493 -0.080776185 44.66904
15.366114 0.09743172 44.86037
16.134691 1.1614672 42.353424
15.811899 0.5612464 42.937878
15.721194 0.9166763 46.15452
15.434233 1.7924142 46.31869
15.897141 1.744574 46.61463
15.35271 2.2223978 46.33786
15.248266 3.2155933 41.29539
15.392143 3.2431257 46.155502
15.7869005 4.4107122 45.26846
15.483158 3.9551954 45.743362
15.861978 5.9190917 37.197655
15.730127 5.892161 37.559326
15.531714 5.9101553 38.367172
15.880963 5.922632 39.159504
15.752345 5.1472425 42.212997
15.607731 5.09643 43.39239
15.569567 5.0504146 44.141804
16.089645 6.570153 36.443714
15.682643 7.0054398 39.802273
15.619544 7.335745 39.773464
15.479159 8.878806 33.70761
15.331682 8.895814 34.57703
16.234194 9.541559 29.592787
16.085926 9.907778 30.689804
16.09955 9.88596 31.143528
15.574613 9.505026 32.262966
15.505161 9.302643 40.02051
15.835222 10.668188 28.047758
15.40297 10.547998 28.68905
15.59243 11.013452 30.770973
15.498625 10.356189 32.003357
15.648288 10.5107155 39.534145
16.177309 10.62686 40.2897
15.985913 11.5245905 27.468872
15.374343 11.740327 36.53585
15.663023 11.619053 37.529377
15.636229 11.610708 38.44789
15.622875 11.27663 39.191376
16.422003 11.105241 40.716503
15.861418 12.347443 27.775724
15.710164 12.264016 37.18946
16.188183 12.395586 38.858986
16.083916 12.39249 39.129845
16.430975 12.643149 39.98519
15.949267 13.072282 28.169256
16.041386 13.393606 28.703362
16.387081 13.183522 39.495506
15.26776 15.568578 29.335114
16.200373 15.17138 35.028423
15.435161 16.480957 28.605808
15.474722 16.461092 34.179726
16.12622 16.045145 34.922894
15.43901 17.80686 27.943981
16.112556 17.004517 34.50926
15.322401 18.453896 28.03118
15.296287 19.081038 28.29814
15.442326 19.38657 28.667019
15.796649 19.511131 29.230375
15.554695 19.41984 31.502005
15.238876 19.667505 29.43624
15.694641 19.638031 30.19495
15.559992 19.583908 31.020477
17.249311 -3.7375047 42.93268
17.309603 -3.7665646 43.38979
17.275536 -3.1078622 41.926056
17.034359 -3.2551641 42.729996
16.942822 -3.3088043 43.43161
17.093523 -3.2721481 44.247448
17.401604 -2.6161838 41.393913
16.80784 -2.5375354 42.711456
16.68668 -2.5498908 43.516575
16.828388 -2.536456 44.467407
17.0356 -2.6144135 44.993336
17.313488 -2.316821 45.922585
17.093777 -1.5691316 41.69962
16.645695 -1.0913253 43.765194
16.644264 -1.8727915 44.667286
17.172419 -1.4717383 46.375614
16.563011 -0.3427449 42.394917
16.669168 -0.6549026 45.7369
17.050035 -0.3447224 46.673103
17.169344 -0.38582486 46.84145
17.328197 0.27674016 40.581966
16.812683 0.8183931 47.016514
16.4886 1.2458404 42.135696
16.58732 1.7643582 46.883377
16.347996 2.2892787 41.725273
16.327122 2.1725726 46.507267
16.494549 1.9636644 46.861607
16.189014 3.0215647 46.42005
16.67351 3.3404796 46.613575
16.770884 5.2532325 37.680534
16.931973 5.172262 38.26262
16.661198 4.0830984 46.325554
16.872856 6.059461 36.076202
16.710629 5.574135 36.55558
16.541725 5.7020473 39.19261
16.553799 4.8507586 42.916676
16.528578 5.086079 44.81145
16.691378 5.1159506 45.171886
16.421144 4.7290936 45.895607
16.830526 6.5782537 35.870163
16.40557 6.532874 39.997234
16.490648 8.292134 33.981354
16.698591 7.241873 40.316208
17.179173 8.795926 27.60445
16.97983 8.798327 29.847448
16.463373 8.859764 32.333847
16.284426 8.518899 33.902054
16.219034 8.562446 40.22939
17.148973 9.569436 27.427784
16.45846 9.535169 28.893452
17.35601 9.726438 43.17706
17.094969 10.635978 26.623463
16.388487 10.474226 27.507933
17.097961 10.917081 42.81389
17.246716 10.512803 43.369026
16.581497 11.900568 27.273603
16.737232 11.766388 41.478745
17.03879 11.229628 42.521477
17.241268 11.505967 43.146152
17.434542 11.027124 43.98187
16.510365 12.258543 27.40451
16.57462 12.670277 27.491192
16.715643 12.692352 40.589195
16.68886 12.135533 41.345036
17.048044 12.064629 42.322685
17.44137 12.142251 43.406002
16.382101 13.129107 28.061975
16.607658 13.398516 37.594353
16.52782 13.137789 38.489033
16.644173 13.682788 39.71412
16.7859 13.400259 40.27186
16.7428 14.5317955 36.158154
16.772717 14.421732 37.813087
16.620079 14.10215 38.85141
16.821136 14.396563 39.307945
17.106823 14.197311 40.081257
17.060658 15.447905 36.451984
16.998123 15.152804 37.71636
17.10021 15.222441 38.43799
17.21421 15.140619 39.17049
16.779951 16.772997 28.470331
16.675695 16.446022 35.385834
16.110182 17.285852 28.113438
16.495863 17.405563 34.4755
16.617277 16.90182 35.044567
16.68158 18.304443 28.035622
16.542368 17.900663 33.821648
16.180714 19.294724 28.935843
16.2911 19.394165 30.48798
16.30543 19.274054 31.399786
15.846163 19.565638 29.867872
15.85626 19.612696 30.06451
18.22666 -4.0152726 41.015537
17.909487 -3.9364913 41.674286
17.741451 -3.9960992 42.64164
17.670341 -3.9934838 43.35702
17.708408 -3.8258429 44.1061
17.945889 -3.3037415 40.77355
17.60515 -3.483409 41.65475
17.426338 -3.492857 44.38039
17.47234 -2.7989397 45.426434
17.829643 -2.767449 46.088757
17.85596 -2.4485314 40.58291
[...]
POINT_DATA 10605
SCALARS features_00 float 1
LOOKUP_TABLE default
0.6752968 0.7255961 0.74775517 0.7404331 0.68323565 0.74738455 0.7877239 0.7820356 0.7081591 0.7615802 0.790648 0.7880989 0.5899006 0.54979503 0.6741047 0.6241574 0.6034825 0.67613316 0.64667654 0.51670194 0.52932745 0.5394102 0.5958624 0.62786365 0.58572316 0.573992 0.61437213 0.6430921 0.68960315 0.6753328 0.6102126 0.6375942 0.62530476 0.73529816 0.67369217 0.66312337 0.68468136 0.7421977 0.77822924 0.75105166 0.686985 0.6941352 0.72166693 0.7280649 0.40183884 0.38206893 0.3835011 0.304747 0.35320497 0.41937137 0.5998384 0.538552 0.4714054 0.48263347 0.38845086 0.6882309 0.64340544 0.58571965 0.54086167 0.5298437 0.46780193 0.6954187 0.72035277 0.56476796 0.48667118 0.7075399 0.72254753 0.76046574 0.71089053 0.65441155 0.6162322 0.7451254 0.7590002 0.7371572 0.6816033 0.65223914 0.41864175 0.43545866 0.45210963 0.4195648 0.47101986 0.47852862 0.5119674 0.45584604 0.46931684 0.53406525 0.49118757 0.5364201 0.4897861 0.5535705 0.5974786 0.5461393 0.6587162 0.67781866 0.59786165 0.61612725 0.63656855 0.6868475 0.69763577 0.70013267 0.68242705 0.570622 0.59543586 0.4862659 0.5355933 0.55526114 0.6051891 0.4006098 0.40413123 0.2684888 0.3800361 0.46266574 0.49625185 0.3776012 0.40833396 0.39659995 0.34631562 0.22200778 0.28337243 0.36618608 0.37529638 0.54433376 0.5239552 0.48793736 0.3405069 0.4061271 0.40387198 0.37881505 0.22140655 0.23532543 0.5600591 0.5625452 0.5277337 0.45377868 0.31220573 0.2537086 0.59356606 0.5749816 0.48869818 0.2112669 0.30672938 0.3239014 0.307913 0.26667467 0.099900566 0.5612806 0.15886758 0.30006915 0.2867306 0.18269646 0.17228536 0.08459471 0.56922066 0.63009405 0.3439445 0.6614181 0.43171474 0.6888988 0.71251285 0.5302439 0.4451866 0.7031654 0.7266458 0.7392529 0.7025269 0.63581383 0.7118931 0.707899 0.68858147 0.34605664 0.323483 0.40024978 0.3221746 0.32831374 0.35157195 0.38097548 0.3057605 0.3869645 0.48672777 0.3849967 0.44487467 0.437687 0.6037642 0.6069685 0.62685454 0.6568084 0.6680085 0.60168517 0.5285609 0.55989933 0.6108489 0.5949966 0.3999017 0.4010747 0.29373115 0.17663991 0.14189756 0.28545594 0.37400055 0.50457835 0.4904338 0.2867794 0.22311898 0.18569538 0.1560827 0.52117383 0.12420074 -0.031923488 0.014787092 0.102908954 0.0980756 0.5301975 -0.012280174 0.09244251 0.10837527 0.15689 0.53454053 0.5388683 0.18793747 0.45071533 0.07284345 0.4837727 0.20262343 0.117381245 0.6295694 0.16803713 0.6600325 0.6805389 0.6648849 0.564269 0.52089685 0.6475035 0.5156221 0.5080588 0.41814616 0.41554314 0.38751557 0.4086074 0.40907907 0.37897483 0.33580863 0.37820616 0.3836493 0.32644397 0.2815183 0.20655951 0.23310103 0.21083182 0.25538972 0.21794224 0.09859365 0.21726462 0.23753735 0.23524728 0.1276571 0.2119933 0.2644341 0.21430983 0.4749395 0.25763324 0.22193949 0.2706774 0.21657984 0.6767975 0.66230154 0.26821122 0.58223796 0.6128124 0.65558374 0.5752271 0.36023843 0.31296444 0.32895446 0.537879 0.5751226 0.2877316 0.44064882 0.4763251 0.27000976 0.23930904 0.33878 0.45974493 0.48009413 0.38416234 0.35181004 0.50572 0.47916013 0.28724492 0.36648464 0.48300117 0.10392614 0.2435391 0.33313984 0.41997945 0.47936013 0.4603653 0.16101436 0.10597026 0.22233137 0.40163746 0.4718973 0.07273335 0.13993359 0.24781539 0.23832041 -0.07242589 0.13649541 0.23597723 0.2881705 0.31792057 -0.028263934 0.08785437 0.18436728 0.28374717 0.3262801 0.08368415 0.5335056 0.1511483 0.11607251 0.54126817 0.17980528 0.5244805 0.36573893 0.29997948 0.50260466 0.48962396 0.39437455 0.40857464 0.41974297 0.41169488 0.37937298 0.34325075 0.39268738 0.36905658 0.246034 0.21331543 0.28304452 0.334081 0.20477039 0.22506054 0.18624274 0.22422981 0.23252094 0.1892066 0.2296424 0.20406702 0.17780666 0.24924457 0.17631161 0.14123307 0.10099277 0.6225505 0.114484936 0.6375219 0.5755114 0.59604853 0.064832464 0.47180507 0.33696538 0.07465913 0.49690425 0.48125464 0.45927548 0.44121552 0.1034552 0.10599106 0.2724133 0.20260544 0.50589955 0.48803198 0.18329382 0.10981352 0.10935205 0.3264642 0.2943887 0.27403575 0.55182594 0.31945056 0.3555146 0.32228503 0.51757216 0.4076411 0.41075394 0.47391605 0.4566188 0.4847647 0.5148692 0.4079762 0.45893705 0.5413852 0.5702313 0.34347737 0.57998395 0.60776246 0.31794694 0.09279612 0.31592387 0.29186782 0.27245882 0.053748026 0.037729226 0.14919968 0.41954008 0.087396696 0.09201777 0.2971635 0.44456708 0.4383674 0.14346932 0.09952442 0.088343546 0.6222699 0.6648241 0.36778894 0.13736483 0.22084789 0.13363738 0.4659009 0.4562397 0.44724527 0.40696508 0.37506634 0.40645197 0.43496215 0.41852278 0.3871715 0.34160608 0.3275559 0.29159445 0.34870717 0.25406912 0.3176117 0.1940614 0.25828165 0.2739122 0.2061247 0.26209825 0.42016184 0.4174922 0.32197124 0.1904717 0.39779103 0.3874724 0.09925499 0.38236946 0.3901192 0.36281377 0.24821484 0.36689895 0.33128986 0.25723106 0.2067314 0.0916586 0.3492267 0.30077028 0.098768614 0.15345377 0.5381073 0.08648969 0.48259324 0.58659595 -0.3250637 0.062413014 0.4788474 0.4644167 0.3581314 0.3657632 -0.24547502 -0.28446895 -0.019964613 0.49391663 0.48263553 0.47020668 0.2956128 -0.031324286 0.007628754 0.3207705 -0.24454536 -0.15950644 0.14483647 0.13305515 0.52820957 0.509063 0.20536001 0.1532042 0.54867715 0.23720095 0.51762366 0.385635 0.3827877 0.46916208 0.5069165 0.4198636 0.5968654 0.3238752 0.6125215 0.61090016 -0.09332354 0.12460211 0.14776123 0.54584277 0.55508757 0.19933614 0.38720578 0.41530284 0.61057544 0.4457791 0.08120129 0.007483164 0.3362024 0.7505022 0.74071664 0.42995444 0.3818438 0.22014925 0.034143895 0.07027842 0.6234033 0.7109652 0.7559769 0.6811832 0.49017733 0.46750864 0.4893952 0.49229246 0.48181397 0.45998305 0.4125473 0.4331641 0.27353328 0.2346297 0.3060865 0.37664846 0.4478532 0.33786353 0.394033 0.20300357 0.13154617 0.33747494 0.3732828 0.4194793 0.36362854 0.1704748 0.21726733 0.20751858 0.44757372 0.44306457 0.39550576 0.14226341 0.43731132 0.4296161 0.34886885 0.3649131 0.11647983 0.3021418 0.1638862 0.29808313 0.00025317073 -0.06808832 0.12943289 0.36126333 0.31959602 -0.13742116 0.042634353 0.07120295 0.47458032 0.48169747 0.4462558 0.41558325 -0.020401519 0.48448431 -0.082942225 -0.06317651 0.3066342 0.28660873 0.48866326 0.07796337 0.4872665 0.3382308 0.42705604 0.40264702 0.48454338 0.25487477 0.5859073 0.54856443 0.26079875 0.055921715 0.5514865 0.5833843 0.25588363 0.4334537 0.4746321 0.5356282 0.28765836 0.13119093 0.4179172 0.47087294 0.6065936 0.48420864 0.75352526 0.44403398 0.29880407 0.074131496 0.5737349 0.74033225 0.7698555 0.3460949 0.62327147 0.6702394 0.70410633 0.5094312 0.50194883 0.48171893 0.4949089 0.5062102 0.4998032 0.46612874 0.4373772 0.49614143 0.5833339 0.4463303 0.24189179 0.18707204 0.35366246 0.53469783 0.568387 0.32314342 0.5251518 0.53108966 0.2534198 0.20933399 0.06638663 0.4437973 0.43562508 0.42286536 0.3489195 0.27833968 0.4416573 0.4445458 0.04486675 0.13480791 0.42781037 0.029561639 0.359313 0.11103293 0.11401324 0.26995564 0.25348118 0.17531754 0.24419266 0.25408426 0.2106692 0.16510978 0.15639564 0.13852043 -0.03259892 -0.3114554 0.13978674 -0.3801819 0.03691665 0.4575222 0.1384581 -0.51805615 0.45519644 -0.12641911 -0.14937347 -0.22809428 -0.39476645 0.06943011 0.020147566 0.20099273 0.45950234 0.16637374 0.26727593 0.05862481 0.24559787 0.26252738 0.28034657 0.5310332 0.13699251 0.5574784 -0.15625584 0.46946955 0.5321917 -0.16428196 0.36374936 0.44334102 0.4461363 0.40182507 0.33271295 0.47037965 0.2779075 0.49289346 0.6433581 0.5089754 0.48150837 0.70808935 0.47010732 0.4251039 0.18860516 0.057142016 0.2476485 0.4279527 0.4889789 0.6516749 0.71390486 0.73364794 0.38375044 0.35472715 0.29439718 0.30899167 0.2537531 0.59535885 0.6390052 0.69223785 0.51315856 0.50833607 0.48570186 0.5108328 0.5086864 0.4372021 0.59067535 0.64822996 0.6789775 0.7068431 0.43113673 0.045570232 0.13474801 0.6574488 0.6682733 0.17977972 0.6150917 0.26189882 0.48879567 0.39273894 0.35178745 0.39861116 0.23094828 0.3310321 0.3905924 0.010225832 0.28721094 0.24552526 0.25824678 0.124294296 0.2513449 0.253497 0.09494438 0.65760255 0.63574374 0.6256548 0.21092641 0.22862826 0.026548596 0.66703576 0.65980005 0.63210535 0.23354086 0.1875445 0.117956765 -0.07277841 -0.4122541 0.023010887 -0.010362675 0.6683432 0.65321606 0.09872035 0.1183145 0.08520858 -0.37914628 0.23273271 0.18597326 0.26832342 0.3027163 0.31072235 0.107483536 0.28573614 0.117772885 0.47645015 0.46616212 0.10839137 -0.16227908 0.31212887 0.31399196 0.40370005 -0.013719611 0.51852673 0.33720332 0.50057244 0.59528387 0.48572946 0.44871727 0.3151341 0.65129006 0.6617671 0.4293641 0.39390817 0.13206714 0.23169866 0.41781807 0.56265444 0.6945324 0.32729554 0.29595077 0.3142331 0.3310901 0.48561335 0.4679563 0.30272457 0.34364286 0.5042162 0.604344 0.6875251 0.7454895 0.75565684 0.30869284 0.18692248 0.17052299 0.41587806 0.719143 0.6848372 0.071262434 0.00807482 0.6320397 0.65309 -0.0121755 -0.060031205 0.5125541 0.5731158 0.22616127 0.44547608 0.2563212 0.1995987 0.21918651 0.18981618 0.58793896 0.5488956 0.37963402 0.25290275 0.20032895 -0.06415452 0.63212085 0.64335155 0.6198229 0.5489248 0.28544757 0.2736123 0.1216639 0.6408028 0.66864324 0.58803916 0.23301868 0.26266545 0.121676624 -0.025063159 -0.027145986 0.6243203 0.6506864 0.5609906 0.5254098 0.121696725 -0.16282968 -0.13954347 -0.32221898 0.06967541 0.4999179 0.53651917 0.52441263 0.010853112 -0.02350539 0.14500563 0.108076654 0.09635131 0.09381072 0.21941961 0.08108805 0.29527208 0.08746454 -0.017518736 0.11081495 0.20147821 0.28749156 0.38061732 0.39113203 0.16734962 0.16977733 0.24815038 0.20851019 0.4425364 -0.10778049 0.47740847 0.30189914 0.4602254 0.43789342 0.11261347 0.16335614 0.41506943 0.39018443 0.3116262 0.28803945 0.26794463 0.2736945 0.28114164 0.3070464 0.48916888 0.6053165 0.72013223 0.7953844 0.80672526 0.25322545 0.2486137 0.18406895 -0.07944005 0.04949645 -0.11494336 0.44025004 0.7550473 0.21878566 0.12777776 -0.039348338 -0.2808326 0.66074634 0.6215514 0.08493155 0.53791136 0.5742971 0.3683206 -0.03428342 -0.04753428 0.07328686 0.35855818 0.46561846 0.51698136 -0.100863725 0.34567276 0.46513653 0.4988131 0.14301893 0.14380252 0.09563768 0.15373021 0.27452898 0.42372036 0.489874 0.33797777 0.123880975 0.2209928 0.23069091 -0.2832389 0.33993396 0.5240115 0.54465795 0.26467076 -0.114250734 -0.17001365 0.57625216 0.12273197 0.19258878 0.5610451 0.0007125363 0.4060167 0.47243413 0.46138942 0.067264415 0.0025925785 0.48749238 0.5930691 0.7098875 0.37312287 0.35594508 0.3656524 0.28745508 -0.023076355 0.59782904 0.7325928 0.8148229 0.1264793 0.7386619 0.8155012 0.8565031 0.06020336 0.28545964 0.8305689 0.8495362 0.042855307 0.0368957 0.4188798 -0.014774773 0.055661283 0.46894324 0.4659207 0.5119294 0.49875265 0.068049185 0.20608273 0.5269313 0.53115195 0.20835087 0.31639558 0.25992298 0.38747358 0.39973587 0.3673092 0.34886366 0.4528998 0.45981458 0.45404094 0.44855338 0.40197268 0.30872244 0.1434208 0.20949681 0.3764132 0.40998375 0.45109665 0.3086692 0.26351702 0.27992296 0.3682515 0.3647206 0.24632488 0.6434246 0.7782929 0.3225998 0.33160642 0.31534833 0.088056296 0.40395385 0.50224376 0.5802826 0.6576069 0.78432083 0.24305318 0.24798025 0.66347295 0.1965242 0.1958286 0.53369516 0.12401806 0.1297482 0.60872316 0.6000259 0.12322751 0.4696654 0.5170822 0.5693891 0.5430038 0.45944113 -0.24594551 0.4841347 0.5287589 0.5461214 0.50172937 0.47117078 0.31835642 0.10839064 0.53123724 0.54911906 0.4663759 0.4227629 0.34670246 0.019168295 0.08962536 0.057362907 -0.014906883 -0.02313406 0.0026244707 -0.18870224 0.5097092 0.32192403 0.062487416 0.11726929 0.0066408925 0.18262929 0.41848952 0.31821558 0.054006856 0.08099095 -0.1478368 -0.05023235 0.22123955 0.4244764 0.44426152 -0.089673705 0.17987585 0.42159206 0.50712425 0.73754513 0.82051057 0.3611666 0.6374973 0.7742381 0.8905075 0.3573166 0.33793476 0.30854768 0.3611001 0.8537939 0.92198884 0.053936474 -0.030646063 -0.011374116 0.54053485 0.69674146 0.8873558 0.92192864 -0.018962264 0.25218463 0.75474215 0.81247294 0.85948837 0.8870975 -0.073149264 0.45928234 0.3934493 0.18361007 0.27977005 0.5200038 -0.09897979 0.3303248 0.5128543 0.55088454 0.55062675 0.53508687 0.19821522 0.40929696 0.36289835 0.28266275 0.16307776 0.44303292 0.4250797 0.3674928 0.22202715 -0.09602749 0.48184866 0.51723474 0.5321299 0.17188814 0.4387135 0.50212234 0.44429782 0.4141974 0.26193953 0.33471417 0.45580298 0.53664845 0.52657413 0.4509424 0.49119166 0.542881 0.53162473 0.32723612 0.3437347 0.3391152 0.35861558 0.38074607 0.36117178 0.3034613 0.32612288 0.2861093 0.32101893 0.34985885 0.21095437 0.11462269 0.06866041 0.18356392 0.19304787 0.114831075 0.52871406 0.59163624 0.20839182 0.26240808 0.08695896 -0.0056096353 0.30590346 0.35226524 0.16630743 0.17895794 -0.110974744 -0.05534683 -0.005149275 0.26528442 0.6516812 0.6378733 0.60227716 0.15097362 0.15498748 0.64498127 0.63542545 0.61893076 0.53441846 0.45927382 0.09662876 0.5266358 0.6140752 0.6020044 -0.0930333 0.5335492 0.54536605 0.55040896 0.19829062 0.05926734 0.054594167 -0.18178007 -0.30136323 0.5549022 0.46911854 0.080104396 0.028392114 -0.026040196 -0.0983796 -0.16101387 0.4954415 0.53500426 0.32306388 0.37795517 0.42006552 0.42234415 0.13635595 -0.11090961 0.16497637 0.29827172 0.47056252 0.56373864 0.34705362 0.69794196 0.87631077 0.33702895 0.3444951 0.91574454 0.92832744 0.35912186 0.3577719 0.9338671 0.9304423 0.3861887 0.37388554 0.27932158 0.17020647 0.9195796 0.91232 0.38539785 0.36234888 0.22802502 0.1402202 0.42266667 0.5964974 0.7258098 0.8188667 0.8704924 0.017934427 -0.045888342 0.35144764 0.7388214 0.78983516 -0.05477436 0.3096059 0.45975545 0.43336204 0.4896547 0.52996653 0.53399396 0.52073014 0.2092441 0.19578813 -0.15213569 -0.24720672 0.44848734 0.4351637 0.34272054 -0.022603942 0.11310317 0.392643 0.45604706 0.43200788 0.48657528 -0.07007212 -0.013000578 0.3292358 0.5136707 0.5621884 -0.027449206 0.46282303 0.44094068 0.53354657 0.5707891 0.58340037 0.52244306 0.35239226 0.38502395 0.3455333 0.51431835 0.5317264 0.5597267 0.48312178 0.5246229 0.5710259 0.58779603 0.57125866 0.53705144 0.5594026 0.57873464 0.35843655 0.3639985 0.33980396 0.29978696 0.2722675 0.28339946 0.26782072 0.32206059 0.3451597 0.37420988 0.35269123 0.11406538 0.1711788 0.2670095 0.21582165 0.1975491 0.26242083 0.026728163 0.103065215 0.08295821 0.18169576 0.13084029 0.16400003 -0.15747297 -0.06775099 -0.07671345 0.008250244 0.6727812 0.6709455 0.6769767 0.5972219 0.5355496 0.5156881 0.054045476 0.33485323 0.35389334 0.6603493 0.66138834 0.5076283 0.43280047 0.06775382 0.44765827 0.6067755 0.3630796 -0.11398828 0.5138866 0.45103544 0.055186264 -0.03286943 -0.32019538 -0.189771 0.49829817 0.43115634 -0.07414232 -0.13522333 0.41574457 0.4158284 0.45091814 0.44169092 0.36208633 0.5682278 0.3697119 0.7359725 0.86166155 0.33672404 0.350703 0.9044726 0.915527 0.40277535 0.87919474 0.90145946 0.4141031 0.4205169 0.85477614 0.89876944 0.41453895 0.3906799 0.22888634 0.30035833 0.4874554 0.6286298 0.77369416 0.8322685 0.06794969 0.0047548413 0.23294768 0.086656556 0.26932564 0.38062638 0.33699358 0.022690833 -0.19424935 0.32002738 0.42982405 0.43506613 0.4095454 0.3318317 -0.14982474 -0.08137337 0.37759972 0.38542062 0.44247773 -0.17606132 -0.047478475 0.3617653 -0.077170074 -0.025554735 0.14847803 0.5251379 0.5475255 0.2595346 0.1388455 0.05663073 0.24291347 0.3971002 0.5832864 0.59943587 0.5374684 0.4135734 0.26135063 0.3707764 0.5059142 0.5023649 0.4501056 0.60045683 0.60905886 0.5930698 0.5376284 0.39887816 0.492084 0.562579 0.5963136 0.5567897 0.47122598 0.53265893 0.5772511 0.6035944 0.33185348 0.35306722 0.34102264 0.3090357 0.31393746 0.34379673 0.17398492 0.22664545 0.31104377 0.4144581 0.36031765 0.2962145 0.30631647 0.10000449 0.0033881962 0.08284713 -0.24268477 -0.23405123 -0.052703626 0.08128069 0.10936104 -0.30212462 0.6311249 0.112262055 -0.22126457 -0.09075859 -0.013141677 0.6592952 0.6901852 0.6932696 0.6287195 0.5736635 0.5500326 0.023994617 0.071246736 0.03369377 0.258984 0.6356989 -0.045865677 0.35189426 0.55062985 0.5780501 -0.083994195 0.38959438 0.4331659 -0.28142527 -0.19892547 0.28439504 0.38542342 0.36492538 0.13684133 0.38913792 0.030793862 0.025292134 0.41886276 0.43111223 0.39007592 0.24718603 0.39090022 0.3365877 0.6621363 0.31033123 0.7770175 0.88068855 0.40091223 0.71311295 0.8289635 0.4164096 0.4284216 0.47026736 0.69717634 0.79496264 0.42778727 0.4294775 0.35592496 0.24460354 0.4119149 0.49492076 0.6209731 -0.35816538 0.24414167 0.024741754 -0.38163674 0.092615925 0.21016651 0.25365126 0.28112882 0.3134139 0.22693384 0.05646807 -0.19384602 -0.09790482 -0.096294194 0.014140056 -0.062009774 0.28222746 0.32580087 0.2029325 0.0028795972 0.054958336 -0.15098518 0.16060075 0.44218674 0.23262581 0.20134792 0.09239289 -0.10345064 0.18529317 0.52469975 0.47978142 0.3458867 0.41779605 0.5973494 0.5568147 0.49545276 0.5681924 0.4000401 0.40297127 0.39101118 0.35580516 0.527752 0.35020834 0.37679863 0.3559001 0.32164782 0.5004646 0.5122805 0.50108325 0.41093516 0.31032884 -0.027697863 0.19642578 0.17072707 0.42808223 0.47164598 0.21063283 0.04260181 -0.06497222 0.021761142 0.07559736 0.2828685 0.1333614 -0.15837374 -0.0039355457 -0.07834164 -0.07472618 -0.05732184 -0.027862519 0.08202834 -0.21570203 -0.12680623 0.62945044 0.0560462 -0.1697011 0.64237267 0.66976 0.63084954 0.5502688 0.12883213 0.05017535 0.011225741 0.011568077 -0.18209466 -0.07989591 0.16356486 0.58201784 0.5619116 0.09573147 0.0041767694 -0.13074063 -0.12297469 0.2107688 0.28053364 0.5196537 -0.07944631 -0.13361359 -0.13215719 0.27569345 0.39751 0.24399251 0.18382168 0.30891734 0.08350237 0.2967472 0.03116312 0.3766817 0.35127077 0.32422203 0.23031026 0.15279949 0.33221692 0.34916463 0.37197948 0.437756 0.22697365 0.35801297 0.4427359 0.40779936 0.3703306 0.12969694 0.28014958 0.293804 0.17056921 0.05503604 -0.3348972 0.10186948 -0.023081746 0.01486901 0.012287697 -0.3497687 -0.29106492 -0.008083549 0.10714057 0.17352962 0.21566768 0.16952282 0.03064086 -0.006323077 -0.010041252 -0.009985685 -0.18308865 -0.11236028 -0.16555512 0.21395755 -0.038865283 -0.08248552 -0.094622634 0.032906633 0.25668332 0.22363243 0.41613314 0.42000255 0.4260881 0.391416 0.30672878 0.21565822 0.5557597 0.54936916 0.51666015 0.2624407 0.3508883 0.22955301 0.27525604 0.3621031 0.5258571 0.5471246 0.51493573 0.50703794 0.40690345 0.24887004 0.024398368 0.22744091 0.33940044 0.39543146 0.43382043 0.19127503 0.13620466 0.12971537 0.056060113 0.13904193 0.2921907 0.3073207 0.4022404 0.27635425 0.08232825 0.17562024 0.1736138 0.38659364 0.35912383 0.2431427 0.018310342 0.07525108 0.087149054 0.326228 0.31382963 0.019446686 0.5921322 0.6249118 0.6229099 0.57842946 0.21314996 0.19567192 0.55377257 0.40219167 0.11378813 0.18406832 0.19460472 0.4842707 0.40835655 0.20326698 0.29376763 0.1579399 0.15513733 0.29830343 0.29650173 0.2937509 0.15352419 0.30587098 0.30470976 0.39536428 0.3138216 0.31013694 0.3977437 0.45507282 0.24709293 0.45114878 0.47430667 0.065323204 0.16121963 0.46410012 0.4474464 0.34666604 0.010668799 0.2993208 0.060004838 0.0017805248 0.06814666 -0.09917514 -0.34468782 -0.39762717 -0.4117074 -0.24426033 -0.026360475 0.07753128 0.07861179 0.13127086 0.22238302 0.16764131 0.27381715 -0.092101105 -0.12170376 0.10140799 0.21656173 0.26699275 0.27087188 0.37070683 0.38260564 0.3439422 0.2613095 0.38444352 0.29320478 0.23485044 0.3011052 0.3692659 0.39031753 0.5524727 0.5482309 0.49529392 0.30798173 0.39856318 0.41519648 0.41113955 0.50732553 0.55008686 0.46905094 0.35266355 0.21222818 0.19137412 0.121962085 0.41718712 0.41792944 0.31870672 0.40353996 0.18063843 -0.16138205 0.20678023 0.18295512 0.14452551 0.31450287 0.31618258 0.41055793 0.2839719 0.12694842 0.23614585 0.44016802 0.45369786 0.17888166 0.41291505 0.13509756 0.5871544 0.32233024 0.29887843 0.035807714 0.50420994 0.5178475 -0.0049103573 0.089780934 0.15186387 0.40688837 0.17066455 0.10364732 0.102279395 0.11269803 0.3142047 0.14194575 0.33081627 0.33079147 0.30342016 0.3500917 0.49293935 0.522765