# vtk DataFile Version 2.0
Really cool data
ASCII
DATASET POLYDATA
POINTS 6112 float
9.341368 19.780287 17.967932
9.22593 19.755018 18.51243
9.333204 19.61893 19.199888
9.28429 20.6451 17.66901
9.117475 20.308722 18.572886
9.270652 20.399017 19.372396
9.331014 21.756987 17.483236
9.246384 21.315742 18.366209
9.168889 21.714218 23.653975
9.190345 21.715591 24.446178
9.332992 21.764093 24.93233
9.419607 22.931276 17.094109
9.2490015 22.250824 17.718908
9.267901 22.587576 18.243196
9.128026 22.584106 23.056583
9.066332 22.34944 23.608318
9.07481 22.42942 24.497557
9.269791 22.468004 24.99397
9.364517 23.230043 17.53173
9.229518 23.019642 23.157248
9.10761 23.44256 23.724888
9.169434 23.382019 24.575138
9.270241 23.420265 24.88989
9.439174 24.385183 23.113552
9.299118 24.308199 23.645546
9.245361 24.188967 24.465284
9.379323 24.08673 24.883036
9.356454 25.918169 20.487583
9.297963 25.850554 21.152689
9.392502 25.135717 23.875286
9.462461 26.86221 20.006607
9.354305 26.536236 20.584051
9.338468 26.21882 21.245743
10.057576 18.981684 17.820631
9.813375 18.865002 18.413458
9.877047 18.838282 19.159939
10.069781 18.91401 19.832115
10.23544 20.029705 16.136717
9.960918 19.838306 16.800535
9.511116 19.539555 17.788418
9.497752 19.280949 19.09636
9.651396 19.462069 19.922821
10.305788 20.147757 22.364677
10.163079 20.471334 16.133509
9.732748 20.701977 16.822645
9.491404 20.44714 17.33962
9.463486 20.557959 19.7953
9.701614 20.557095 20.29428
9.843815 20.480995 21.23396
9.898337 21.067326 22.230345
9.808033 20.74767 23.227167
9.680002 21.04642 24.348831
9.913149 21.13531 25.032938
10.224747 21.424757 16.064405
9.637854 21.405539 16.857998
9.605791 21.423729 19.599451
9.871504 21.235437 20.42536
9.84187 21.22843 22.143597
9.595825 21.647478 25.0966
9.80667 22.031494 25.569784
10.101373 22.63216 16.197515
9.789057 22.720577 16.560171
9.502324 22.0227 18.835493
10.160885 21.892387 20.493275
10.11919 22.331003 21.533964
9.491796 22.634949 22.468344
9.649533 22.540133 25.391655
9.816968 22.32383 25.565208
10.284548 23.141954 16.00718
9.753567 23.497643 16.709145
9.560167 23.712076 17.82249
9.705119 23.700289 18.367496
9.665694 23.420273 25.307907
10.290659 24.52059 16.101068
9.981775 24.488031 16.556799
9.813954 24.35474 17.48047
9.765993 24.737726 20.860044
9.836917 24.646578 21.120596
9.73536 24.754833 22.208254
9.482467 24.659979 24.656124
9.763371 24.343924 25.161806
10.341404 25.017973 16.18425
10.138681 25.253529 16.780216
9.951936 25.131649 17.781046
9.888859 25.258144 18.120502
9.719753 25.772842 19.511562
9.690821 25.18588 22.760601
9.512238 25.311342 23.560278
9.722612 25.32597 24.423708
10.017948 25.09248 24.939367
10.326755 26.039413 17.233187
9.994598 26.877022 18.538883
9.677977 26.393293 19.489416
9.601606 26.552155 22.485373
9.671409 26.328829 23.224941
9.935507 26.176023 24.000011
9.91605 27.147554 18.801039
9.711886 27.559402 19.52004
9.548961 27.350111 20.489012
9.916109 27.309763 22.28286
10.249853 27.237356 23.290508
10.1331215 26.880005 23.846962
10.018219 28.48237 18.650684
9.750644 28.501307 19.355814
9.813404 28.879566 20.359854
10.202075 28.630276 21.520689
10.106798 29.110907 18.703156
9.941249 29.205082 20.222025
9.890405 29.939411 21.809052
10.036563 30.552141 19.860754
9.779501 30.352205 20.707077
9.89214 30.474596 21.401636
10.23491 30.510864 22.283443
10.403006 30.331896 22.889519
10.232947 31.169926 19.831541
10.068891 31.1903 20.566921
10.137193 31.404621 21.389908
10.18758 30.964577 22.07569
10.373156 31.761625 21.211617
11.396503 16.066833 22.595314
11.336306 16.767286 21.663654
11.293196 16.685818 22.466215
11.370186 16.501768 22.923746
10.512113 18.338135 18.004543
10.43555 18.26987 18.70552
10.698516 18.27388 19.273056
11.222203 18.065176 20.585196
11.139186 17.689127 22.668772
11.237299 17.633213 23.294428
11.409115 18.087675 24.030107
10.614964 18.941055 16.967365
10.391974 18.574898 17.848423
11.13115 18.383533 20.990835
11.076016 18.279646 21.049082
11.164278 18.724962 22.688528
11.076857 18.141628 23.094034
11.179656 18.808367 24.004032
10.876701 19.653566 15.759921
10.710741 19.340559 16.255817
10.686457 19.783335 23.167883
10.906543 19.816437 24.138895
10.994062 20.113577 24.75106
10.888148 20.623966 15.595297
10.761251 20.73361 25.202703
10.85844 21.184734 25.663994
11.265337 20.907425 33.05112
11.176136 20.80046 33.472046
11.198672 20.945211 34.128937
10.501471 21.418604 15.867222
10.238892 21.401941 25.491465
11.193171 21.395952 32.985485
11.023409 21.433327 33.5572
11.136019 21.52448 34.19301
10.7369585 22.647594 15.765438
10.969601 22.457767 25.952866
11.208878 21.848635 33.121246
11.2181 22.142378 33.56804
11.201715 22.112192 34.08854
10.605246 23.533386 15.849443
10.345659 23.335518 25.653261
10.818382 24.588795 15.696252
10.449733 24.250835 20.33495
10.213548 24.418285 25.439796
10.271167 24.027828 25.56731
10.869437 25.451488 15.985333
10.60422 25.337618 25.076878
10.829147 26.402046 16.781832
10.615702 26.472036 24.45823
10.721021 25.996315 24.88448
11.024732 27.270412 16.952168
10.789263 27.789715 17.49775
10.412943 27.136267 23.697248
10.797587 27.179838 24.010273
10.668049 28.527306 17.812584
10.998103 29.393005 17.95898
10.696751 29.65517 18.47572
10.898831 29.446972 23.332859
11.192011 29.970112 23.877747
10.823466 30.309402 18.709105
10.481456 30.72597 22.595814
10.72558 30.64076 23.347925
11.210651 30.666563 24.036861
10.968079 31.38864 19.143251
10.660044 31.358866 19.370401
10.505085 31.508255 22.528517
10.99583 31.423525 23.419136
11.175051 31.129265 23.854572
10.995203 31.948956 19.728148
10.878313 32.25789 20.607128
10.749912 32.36343 21.62911
11.079093 32.597004 22.338968
11.074937 32.125687 22.98353
11.140427 32.788563 21.6757
11.200239 32.798077 22.217413
12.135393 15.093699 13.450761
12.153878 14.939959 14.276758
12.131596 15.820629 12.9404
11.926766 15.50579 13.6031065
11.847703 15.633127 14.353378
12.136812 15.540693 15.214553
12.10652 16.180944 21.14623
11.74309 15.958231 21.753239
11.703816 15.846796 22.461632
11.956306 15.902127 23.190245
12.24625 16.38038 12.795093
11.933113 16.501297 13.525736
11.828868 16.28586 14.47586
12.220388 16.230307 15.417271
12.36669 16.390156 15.954068
11.918587 16.328321 21.188406
11.4515915 16.297352 21.91858
11.624047 16.467588 23.351576
11.959407 16.843906 24.093517
12.316095 16.961678 12.977153
11.972923 17.05934 13.86112
12.414999 17.693487 14.230803
11.664719 18.066166 18.855501
11.546837 17.925343 19.35605
11.596269 17.16839 23.508144
11.711559 17.61664 24.307428
11.9316635 17.96927 24.664814
12.247224 18.695658 14.625594
11.816236 18.657104 15.817548
11.634898 18.327322 24.475103
11.816804 18.697334 24.769392
12.3104315 19.059135 38.417522
12.423512 18.709475 39.165936
11.941405 19.522108 14.847131
12.1117325 20.167583 25.552069
11.638613 20.365604 34.108772
12.372955 19.37177 37.542328
12.13225 19.577631 38.622566
12.280686 19.604683 39.12797
11.544882 20.250095 15.08937
11.928234 21.037838 32.346287
11.672718 20.66543 32.820354
11.42923 20.50919 33.30288
11.405024 20.505346 34.037807
11.636082 20.93229 34.719406
12.249263 19.976818 37.66884
12.169733 20.116327 38.514492
12.238755 20.06386 38.931084
11.961612 21.609375 15.330249
11.616544 21.897154 26.139153
12.103966 21.86685 32.2455
11.543087 21.39425 32.584324
11.405104 21.321894 34.667854
11.657069 21.570017 34.98356
12.417633 20.79152 37.922325
11.688968 22.440105 26.179758
12.020865 22.016853 32.319485
11.747395 22.30842 32.736923
11.489735 22.623163 34.055725
11.905138 22.456797 35.378014
12.245234 22.496616 35.896572
12.248139 22.953646 32.910965
11.663048 22.896574 33.773716
11.956368 23.607965 34.51301
12.022319 23.544546 35.273388
12.2560835 23.453676 35.77538
11.940172 24.610933 15.17857
11.426715 24.63563 25.375286
12.185757 23.903568 34.06003
12.144113 23.951414 34.71462
12.223648 23.930544 35.329967
11.751353 25.254887 15.265014
11.533569 25.310593 15.422024
11.981864 25.497255 25.170752
11.577768 26.080942 15.879094
11.546065 26.233671 24.929754
11.726019 27.500536 16.748339
11.747297 27.466755 24.05631
12.04088 28.663439 17.253155
11.516114 28.164764 23.637249
11.399888 28.960232 17.419525
11.856587 29.955397 24.240623
11.663814 29.863316 18.035059
11.697834 30.647566 24.303455
11.766438 31.28651 24.1822
11.490339 31.780785 19.259087
11.537235 32.183083 19.726854
11.472502 32.460815 20.276886
11.378346 32.596947 22.700865
11.664247 32.232227 23.342445
11.705823 31.727734 23.924994
11.564027 32.744568 20.749422
11.527214 33.03816 21.652504
11.651528 32.984993 22.257254
11.722842 32.76157 22.789717
13.362948 12.715938 16.197805
13.350567 12.78545 40.60862
13.2074375 12.805468 41.41084
13.297433 12.939871 41.995632
13.033261 13.87982 14.116362
12.976605 13.819703 14.640194
13.001099 13.734816 15.511289
13.359067 13.4471855 16.168964
13.264682 13.470153 40.59312
13.082521 13.446318 41.52489
13.1982765 13.5887575 42.04892
12.967205 15.159024 12.261201
12.802865 14.833835 12.757157
12.623335 14.637582 13.412185
12.491876 14.625813 14.8216505
12.6303625 14.432921 15.002274
13.300807 14.382688 16.4514
12.830442 15.408532 21.991518
12.403767 15.435259 22.383331
13.226891 14.105309 40.826176
13.0945425 14.152875 41.50335
13.289089 14.3135195 41.99107
12.820635 15.605034 12.194113
12.479587 15.514164 12.559962
12.563534 15.839863 16.296091
12.848153 15.674937 17.05787
12.432462 15.920626 21.221428
12.312129 15.70118 21.54872
12.311091 15.5009365 22.809702
12.57861 15.804264 23.421598
12.566421 16.230354 23.941704
13.209523 15.757779 33.85352
13.084081 15.877286 34.41896
13.191177 15.673317 35.315334
13.03651 16.297798 11.904451
12.488241 16.817133 12.571782
12.556655 16.431446 16.833902
12.534828 16.56342 24.22562
12.710476 17.06401 24.719515
13.251001 16.840942 32.70942
13.048822 16.511154 33.619682
12.853938 16.369059 34.54598
12.955655 16.268879 35.474903
13.214292 16.333668 36.01912
12.557215 17.465075 24.868189
13.193022 17.05602 32.861397
12.9568615 17.033184 33.62559
12.814841 17.242384 34.28795
13.366996 17.55342 36.656235
[...]
POINT_DATA 6112
SCALARS features_00 float 1
LOOKUP_TABLE default
0.48195106 0.49092978 0.4725227 0.43053907 0.4618863 0.40444478 0.38636705 0.3957364 0.48816556 0.5418241 0.53577316 0.3572327 0.37536785 0.33933958 0.3841574 0.49114794 0.556463 0.5497075 0.34625962 0.38575578 0.4624254 0.52434987 0.5259995 0.3383783 0.4138252 0.4767609 0.49235868 0.2253866 0.26984507 0.4254589 0.18444788 0.22456121 0.27219218 0.4728853 0.47289068 0.43137085 0.35365963 0.32343376 0.3923191 0.4778684 0.47285712 0.39315635 0.14040448 0.3178212 0.3708705 0.41806102 0.33736622 0.25279385 0.10176777 0.168825 0.32576394 0.46785086 0.46747935 0.30235898 0.3628003 0.27160722 0.16671714 0.16276745 0.5181897 0.50833195 0.3261299 0.34599936 0.3136927 0.0837459 0.03854274 0.24159597 0.5265968 0.5115748 0.31789336 0.34382343 0.31353843 0.2523116 0.5133543 0.31632513 0.32467282 0.2969453 0.21084216 0.20169955 0.23143259 0.4638444 0.47434187 0.30403063 0.30114308 0.2197938 0.16425477 0.14609763 0.31415552 0.40281895 0.43596876 0.4361216 0.2580068 0.17175645 0.149489 0.3158022 0.36230713 0.39955938 0.18513352 0.20873797 0.21216038 0.2666407 0.3330886 0.367965 0.34823665 0.31614166 0.3121916 0.23558913 0.40674704 0.36283696 0.40242016 0.5346585 0.47999185 0.46934426 0.47236276 0.47224066 0.59212345 0.5930338 0.5746746 0.5181139 0.63305897 0.6501788 0.49968547 0.549346 0.5919583 0.44033438 0.4110831 0.3405003 0.19614945 0.38972515 0.42984843 0.38071612 0.39239344 0.4565071 0.18800704 0.19722266 0.24018896 0.3412146 0.2765247 0.25505945 0.30877984 0.19597757 0.23817022 0.2735227 0.24159321 0.3620664 0.38833296 0.7100961 0.7112706 0.6881054 0.278508 0.45669648 0.72892135 0.7432773 0.71566534 0.26687884 0.42193368 0.7342552 0.7408357 0.7175555 0.29777172 0.4711764 0.28364235 0.11684366 0.44830793 0.4591129 0.26941115 0.38886732 0.24480467 0.36011073 0.35939202 0.19145003 0.26364985 0.34634426 0.32488737 0.31975457 0.3459677 0.4022587 0.375096 0.51742667 0.4478781 0.5104033 0.5373379 0.59997565 0.53605187 0.5681229 0.5787875 0.6150396 0.6240475 0.6095495 0.6809938 0.66538167 0.64987576 0.6340724 0.686851 0.66506755 0.4826663 0.438856 0.46785057 0.5009589 0.47752032 0.34600723 0.59615815 0.6562048 0.68718994 0.6898761 0.43343043 0.4711111 0.48086298 0.3476405 0.25958902 0.57097685 0.60295933 0.60319304 0.549814 0.3843007 0.4071815 0.2363329 0.29280472 0.254148 0.50996363 0.455479 0.42215264 -0.025435146 0.13757917 0.36098474 0.31645274 0.4357766 0.41344512 0.05879212 0.23325853 0.5944973 0.40864098 0.4846424 0.4735763 0.1475459 0.5762323 0.6375484 0.6687507 0.6391187 0.5905938 0.48660368 0.50902474 0.4939258 0.09164096 0.3346762 0.5484204 0.6692162 0.6509925 0.598348 0.48202214 0.3294071 0.56755984 0.6388097 0.67944527 0.51819026 0.42621714 0.54866827 0.6568984 0.54248804 0.5357058 0.5208296 0.20265374 0.31178597 0.5076638 0.515284 0.52409637 0.21579127 0.22939175 0.18658188 0.18435985 0.26046994 0.097297564 0.21696803 0.20079264 0.15644085 0.28195763 0.5815894 0.3280614 0.6428474 0.68566334 0.5264554 0.586783 0.6549127 0.6571623 0.6748991 0.6909643 0.7014743 0.69904923 0.6840976 0.6742924 0.094887756 0.6905564 0.7292446 0.715917 0.36543292 0.299385 0.18617573 0.115587935 0.65147686 0.6914692 0.66526127 0.39831778 0.43413472 0.4534827 0.34692332 0.30737197 0.15561908 0.6613548 0.6995244 0.61750585 0.62508583 0.58607423 0.40080518 0.43832254 0.21275155 0.16204563 0.6256244 0.6629735 0.7166244 0.68684435 0.61797464 0.3745033 0.38697842 0.3439659 0.352773 0.37923145 0.14915025 0.5761341 0.5131987 0.31012142 0.359948 0.3881053 0.34235132 0.27445972 0.48313582 0.30648446 0.33864853 0.33805668 0.100365564 0.14832777 0.28938663 0.31644258 0.31615674 0.21987393 0.36757883 0.23885298 0.22940643 0.17237104 0.09740061 0.36586887 0.36610925 0.41876242 0.30972582 0.25450966 0.17103317 0.27330098 0.26313633 0.35676956 0.2221516 0.18120518 0.46251416 0.4023961 0.22887748 0.12843528 0.02641195 0.24007651 0.49338347 0.49589896 0.47305748 0.4042276 0.22925532 0.24298908 0.36515608 0.31293538 0.35921386 0.43610087 -0.03202366 0.24858704 0.5005524 0.4418854 0.2785727 0.094019935 0.18967648 0.37252447 0.4478029 0.49698406 0.114793845 0.35008124 0.42570677 0.47349417 0.49901456 0.5195098 0.16843382 0.09892374 0.43810946 0.46477568 0.14278077 0.14368227 0.10541214 0.14498994 0.09038843 0.15523459 0.056411527 0.13631111 0.20492275 0.56067306 0.25657114 0.69741637 0.33740819 0.7261219 0.71914494 0.47117427 0.5258207 0.625311 0.7073612 0.7345895 0.7184878 0.74563456 0.7120664 0.6865878 0.4497026 0.44710934 0.39857817 0.38663948 0.25766194 0.5395862 0.6571217 0.72686994 0.39785764 0.36647832 0.3067299 0.24702355 0.44134802 0.6242368 0.7268833 0.31451976 0.31677648 0.28682372 0.21706036 0.21948189 0.5947933 0.6754569 0.18632676 0.13816619 0.20393424 0.35512316 0.55210996 0.58810025 0.63475883 0.71020067 0.7541933 0.7788857 0.1653127 0.11366392 0.21945275 0.26778993 0.49118632 0.61933565 0.7067081 0.7502825 0.7325384 0.72431165 0.34584177 0.18532112 0.33167866 0.3807822 0.35253638 0.508005 0.6629904 0.6386529 0.36957473 0.39471322 0.093599424 0.6401216 0.6291201 0.33261594 0.29600695 0.28540227 0.2540075 0.15873073 0.33920744 0.46444774 0.53927636 0.5119075 0.3140513 0.33475003 -0.011259422 0.5238137 0.60152256 0.5857518 0.62279165 0.5329743 0.31783205 0.3550595 0.2247388 -0.03958203 0.16421604 0.43353954 0.2928788 0.3245036 0.4848222 0.44597423 0.26918167 0.33612597 0.20653369 -0.0026473217 0.06789732 0.14308472 0.16644272 0.1243975 0.34632224 0.32541266 0.2777083 0.38630727 0.21363696 0.26117548 0.19024959 0.03282698 0.35463804 0.33000454 0.27559763 0.20900996 0.18350378 0.18953604 0.19513874 0.40346956 0.4818539 0.3377195 0.27919325 0.17963772 0.19922663 0.20846651 0.17345853 0.30355301 0.51044035 0.54286665 0.33288252 0.2996524 0.16373119 0.21744263 0.29686436 0.47704107 0.5418145 0.57618165 0.29921016 0.12050279 -0.0077783465 0.13840911 0.24331579 0.35772198 0.22267799 0.3830428 0.5037309 0.55447793 0.5895542 0.14702001 0.19211234 0.23286152 0.080887675 0.42438406 0.05463593 0.1553019 0.21339154 0.1845263 0.3076918 0.47911906 0.48496014 0.13622029 0.17408702 0.31182152 0.34507307 0.4449256 0.022457525 0.111628026 0.18490493 -0.094754174 -0.036333196 0.09823199 0.04882252 0.11086525 0.64632374 0.30836406 0.3358072 0.7087795 0.7123517 0.50153005 0.6393945 0.7052014 0.73300123 0.7472908 0.7464667 0.63450104 0.6002229 0.56897724 0.51209056 0.6096402 0.5302868 0.49540934 0.47269398 0.62420976 0.6987816 0.76047176 0.54520893 0.4622345 0.38829774 0.38904047 0.602614 0.6833352 0.76321065 0.787285 0.43309417 0.36656594 0.17818937 0.38198495 0.7531538 0.76183915 0.3296258 0.68137044 0.63735473 0.7416314 0.80195206 0.23746207 0.5712373 0.5619977 0.426399 0.55938447 0.6728488 0.76632035 0.8119747 0.8190061 0.4061654 0.47943592 0.5072423 0.43572778 0.3479252 0.19692814 0.53116775 0.7430602 0.2770066 0.13873516 0.25131166 0.61704385 0.5830176 0.51081467 0.39646977 0.25809118 0.114293374 0.0067706285 0.22834781 0.61383665 0.32635924 0.30183542 0.13982883 0.52940184 0.17146215 0.051271632 -0.15670717 0.015037712 0.3811513 0.32307988 0.3253127 -0.023442268 0.49637455 0.42098996 0.23268828 -0.018667381 0.30239984 0.41665778 0.35583955 0.30561423 0.18490086 0.18151397 0.16988966 0.35168973 0.2927561 0.26370773 0.2013783 0.1549967 0.3593058 0.20679106 0.2385555 0.3266909 0.44671336 0.35339254 0.34756854 0.09635288 0.23315528 0.5243442 0.5313439 0.32850152 0.22161686 0.57793796 0.59524864 0.3261364 -0.024300812 0.14667545 0.13594258 0.3290417 0.5566835 0.59737414 0.6090825 0.104448825 0.14781228 0.038549155 0.44067138 0.4990955 0.53624284 0.5797601 0.22777113 0.23056732 0.16149163 0.23929608 0.4683746 0.51637554 0.4460446 0.34505153 0.23436812 0.20322944 -0.039308935 0.06681676 0.5621693 0.5298743 0.4750224 0.21462822 0.19105992 0.019255891 0.056609668 0.129989 0.1739642 0.34075943 0.5425143 0.4954016 0.4141609 0.0069969594 0.06262929 0.13892229 0.07419895 0.06582323 0.0479578 0.523577 0.38589156 0.27899867 -0.12612274 -0.10175976 0.28693163 0.23039262 0.17707282 0.21887045 0.09601381 -0.0813767 -0.09183328 -0.096038744 0.009434109 0.5778341 0.6293957 0.55049765 0.597021 0.64205533 0.7758404 0.7111537 0.75312316 0.74287194 0.6945673 0.6332996 0.5437382 0.712318 0.67993295 0.4302279 0.6292329 0.72577494 0.7885001 0.6557255 0.575091 0.8017554 0.79720104 0.49614236 0.7204969 0.5837575 0.2525921 0.7112446 0.7990856 0.18289167 0.47163868 0.48196548 0.44036353 0.4512503 0.42070013 0.32838112 0.24278033 0.20767948 0.41976535 0.5509667 0.8207886 -0.123905696 0.3944702 0.5229218 0.4926235 0.47319496 0.29387003 0.20645145 0.16460925 0.7458575 0.69433033 0.243583 0.16233754 0.16187617 0.5789821 0.55471635 0.0074267397 -0.10048793 -0.08725944 0.5819187 0.60506094 0.31527254 0.05936136 0.61418647 -0.16636118 0.31142712 0.29920116 -0.013398066 0.049721844 0.5177593 0.4392091 0.32040614 0.1295785 0.20975457 0.21330357 0.23682624 0.21483257 0.33542562 0.35566977 0.17286201 0.22373317 0.22975478 0.29602778 0.3547405 0.14969006 0.2487602 0.3825368 0.30366218 0.059898194 -0.011816887 0.26310834 0.44668925 0.25874844 0.23416294 -0.038081884 0.5598409 -0.025165528 -0.012037173 0.12543724 0.02053665 0.61560893 0.099066414 0.14677516 0.1582512 0.12669155 -0.08458811 -0.07872328 0.2631443 0.52019715 0.56439847 0.48710483 0.13994999 0.18469417 -0.032963097 0.39430088 0.44298732 0.49145955 0.54745674 0.52295715 -0.08277403 0.5778729 0.08313072 0.29048645 0.33587945 0.57966876 -0.037647583 0.23361534 0.32215506 0.53565925 0.51887506 -0.45091254 -0.2954193 -0.14504963 -0.12625337 -0.18857193 0.21068934 0.18781501 0.06831341 0.06046253 0.09150205 0.18594366 0.22288635 0.42690027 0.38789362 -0.46138397 0.2185177 0.2506519 0.23497847 0.080000326 0.14290763 0.36673254 0.3525594 0.30342543 0.23063344 0.085475996 0.26779848 0.25186074 0.36036158 -0.11783293 -0.11152839 0.424217 0.2481043 0.511923 0.33996063 0.31800967 0.40129936 0.43432164 0.41960704 0.8416995 0.8700093 0.8217238 0.7387208 0.7857387 0.8110477 0.6249053 0.72321403 0.40354532 0.45798564 0.6085545 0.7519313 0.5806718 0.6413065 0.794372 0.7770891 0.4463073 0.60532296 0.18682078 0.3666848 0.47348925 0.23947549 0.24437138 0.23886472 0.6553985 0.7362776 0.3714485 0.35647216 0.3461886 0.32335824 0.27066886 0.1835728 0.087801754 0.065445505 0.151316 0.44059622 0.67938757 0.7878088 0.26666668 0.48529428 0.39434776 -0.026935667 0.011897676 0.74211013 -0.011721205 0.51958907 0.55306184 0.5629871 0.06758619 0.061652116 0.55813926 0.11752807 0.22704382 0.048989967 -0.016456619 0.41912553 0.1297135 0.31740278 0.29294214 0.13268577 0.27527985 0.28329217 0.20473942 0.35490847 0.33797377 0.100512594 0.11261002 0.12060007 0.368144 0.34421647 0.03857076 0.2366462 0.28544775 0.281842 0.31699967 0.32282633 0.14502667 0.34410274 0.42690188 0.09395024 -0.054844216 0.0054879338 0.14353353 0.09318416 0.1137535 -0.1434809 -0.10552889 -0.15125565 0.039288633 0.51043797 0.32916653 0.3155448 -0.14766023 0.2751118 0.4239781 0.46309227 0.47609496 0.5777194 0.3142028 0.32786167 0.571272 0.3258556 0.32556814 0.51569134 0.4652583 -0.27307528 -0.33276147 -0.19218722 0.29551083 0.28966683 0.47291934 0.43204615 -0.45488054 -0.10540842 0.18322477 0.03778885 0.07717268 0.11977846 0.18117276 0.3966894 0.3918505 -0.113151185 -0.10121616 0.22411394 0.23678225 0.23619294 0.18377018 0.069704756 0.09834633 0.42653686 0.41926694 0.4505676 0.2805995 -0.19454426 -0.22456746 -0.27764922 -0.15309224 -0.04665687 0.08324584 0.10961927 0.17551592 0.18380754 0.06977484 0.25777745 0.2807932 -0.06598158 0.08489718 0.20040017 0.22637083 0.17637332 0.10752474 0.23549944 0.31848392 0.1464611 -0.005168304 0.25080156 0.26902226 0.15543874 0.28169298 0.3260205 0.27237552 0.11511725 0.11756571 0.37723225 0.2781245 0.28067395 0.18422686 0.08227365 0.20576087 0.28838474 0.3815449 0.442241 0.29460645 0.37793398 0.4395521 0.44333315 0.37780142 0.35746402 0.3489183 0.3670812 0.42018753 0.40352643 0.88199055 0.9022826 0.86711556 0.8196193 0.7984347 0.8373896 0.69761544 0.44117376 0.7324458 0.24447992 0.30175003 0.45232683 0.59055763 0.61038285 0.54559433 0.14879651 0.544125 0.45663726 0.22362417 0.23432003 0.23771101 0.25144356 0.0742264 0.055355377 0.29081836 0.20687208 0.22714758 0.23590025 0.24235545 0.2701355 0.25314486 0.056428567 0.15098333 0.1794951 0.19370238 0.16723491 0.07791734 0.20884487 0.46745762 0.5835563 0.12048329 0.37437627 0.30114603 0.40609333 0.68953955 0.14997664 -0.17830898 0.024238873 0.12060189 0.41730064 0.24250826 0.17854826 0.17512125 0.2792287 0.0757256 0.3134383 0.21340096 0.2581233 0.3362655 0.15996666 0.21252453 0.36798832 -0.075349964 -0.15232143 0.15939716 0.3771881 0.19206771 0.33550388 -0.15563414 -0.19135343 0.1512717 0.048577547 -0.18867758 0.16087584 0.14730516 0.039182752 -0.09512465 0.48637676 0.37744895 0.12219037 0.02541323 0.041779175 0.12255177 -0.16526183 0.27760735 0.39779788 0.3268055 -0.22883275 -0.035294384 0.43106014 0.28233945 0.5364886 0.30143762 0.54264796 0.30825868 0.5181063 0.25790876 0.26614696 0.49342793 0.4517976 0.12752697 0.15340427 0.47566706 0.4436625 0.06866729 0.09172278 0.10966333 0.1053242 0.44575924 0.4705649 0.47371835 0.36889923 0.00010993704 -0.12507331 -0.12784472 0.102838464 0.11283778 0.010428176 0.117602885 0.14016725 0.12958968 -0.1606277 -0.010260902 0.0236836 0.18079717 0.17766595 0.080002755 0.09087546 0.27008513 0.18210325 0.2048346 0.1837665 0.2230221 0.31463686 0.31014568 0.07251851 0.25697607 0.2688461 0.29564667 0.30932376 0.29766232 0.24005386 0.120863594 0.018201485 0.2368616 0.34837794 0.31612116 0.2908307 0.32668132 0.33066058 0.1819859 0.32826078 0.37633622 0.39837632 0.36896265 0.3508422 0.305947 0.34806427 0.40058938 0.3966175 0.8486916 0.829129 0.78945625 0.7756282 0.7189622 0.7362261 0.68581593 0.72761506 0.6303804 0.55534613 0.1770348 -0.15596521 0.3633223 0.35564303 0.36829865 -0.012209669 0.2692067 0.2789972 0.2845744 0.26230067 0.28281388 0.21853057 -0.18814218 0.121998966 0.31248483 0.30379388 0.37238136 -0.2597266 0.042964615 0.06261513 0.13091663 0.09740521 0.16979375 -0.33905685 -0.4368816 0.07794748 0.080482304 0.1528931 0.4409742 0.34451693 0.048799735 0.11742416 0.15162581 0.13653177 0.33583945 0.29572394 0.12006207 -0.002233252 0.22987124 0.28380182 0.30042803 0.049846426 0.03059034 0.2901585 0.3311907 0.056020305 0.25716215 0.3675165 -0.15437578 -0.04173428 0.20068714 0.36224964 0.32621497 -0.18505657 -0.019626126 0.21567088 0.31653666 -0.20637862 -0.08076972 0.29216614 -0.061801866 -0.32345104 0.058281735 0.424496 0.48198086 -0.015581168 -0.14498116 0.41715363 0.06757118 -0.13717191 -0.07225688 -0.2763877 -0.09022106 0.2759117 0.18168639 -0.23662993 -0.5208336 -0.18337269 0.15841329 0.2523232 0.35226893 0.252106 0.19964375 0.41092318 0.26085228 0.47992063 0.27255237 0.2672877 0.5319082 0.24283963 0.5635618 0.5674356 0.14504051 0.5619382 0.5176397 -0.2429489 0.10307561 0.50061625 0.47720772 0.4561692 0.31662542 0.19240163 -0.33234414 -0.36256868 0.1593174 0.12538433 0.12773006 -0.059764534 -0.03692995 0.0035579875 0.1937426 0.170178 0.15917128 0.110786036 0.11204633 0.022588812 0.14703847 0.22096041 0.21408996 0.19983009 0.15966119 0.14131066 0.12245308 0.17802042 0.18146227 0.2143462 0.25980157 0.22445053 0.120311335 0.33281747 0.3278144 0.10967076 0.32032454 0.37718317 0.35369456 0.3149482 0.22479346 0.25417528 0.41357547 0.51604486 0.52946734 0.40983033 0.41056842 0.3587907 0.25088692 0.30510545 0.3472442 0.3206144 0.3600139 0.44301212 0.61111915 0.6641264 0.67411375 0.29171556 0.3027777 0.67292285 0.71259624 0.5880634 0.53252137 0.26346713 0.30395037 0.07502924 -0.08005147 -0.13458376 0.16393903 0.34198397 0.40059906 0.33955055 0.41013792 0.43807554 0.41196635 0.3436804 0.27217042 0.23807052 0.33635753 0.27937266 0.24743775 0.27081364 0.37302548 0.33625382 0.22285345 -0.21046147 -0.25473756 0.16720288 0.2870138 0.22558403 0.514169 0.43143892 0.3091597 -0.27684656 0.11091085 0.11123903 -0.007396493 0.55389786 -0.4673836 -0.42651522 -0.0035839304 0.024891786 0.12317486 0.115751125 0.08174115 -0.031276084 0.5490236 0.07797253 0.062647454 0.0044218525 0.07150204 0.07320525 -0.055389144 -0.15171522 0.467185 0.0729904 -0.038622312 0.034725152 -0.038414918 0.2074736 0.33507836 -0.0450873 -0.2600445 -0.100106336 -0.10505588 0.2732866 0.31563893 -0.30664518 -0.17252886 -0.1649378 0.32568115 -0.20027211 -0.22911224 -0.07328071 -0.06619753 0.35031223 0.2896708 -0.042571157 -0.012774184 0.5353984 0.049132876 -0.2790211 -0.32919517 -0.19846717 -0.029637024 0.52704185 0.5941112 -0.025800765 -0.38178238 -0.36611116 0.02614738 0.5920303 -0.05429793 -0.04247453 -0.29309553 0.49731702 0.5181818 -0.5027082 -0.3589487 0.4131127 0.46458197 0.49957645 0.03823888 -0.6263521 -0.5102026 -0.09957949 0.09892028 0.4343712 0.5010747 0.06693084 0.13016553 0.39257514 0.48264062 0.25837392 0.23387688 0.46046612 0.37629074 0.2299916 0.5138242 0.49048275 0.16781354 0.56595457 0.58959484 0.081278645 0.59404624 0.5938679 0.054822292 0.1253403 0.5006317 0.38350913 0.29208297 -0.36390036 -0.3550007 -0.36807877 0.12722631 0.13766585 -0.020563582 -0.041394234 0.09350106 0.19286859 0.15050499 0.1080168 0.18187839 0.18980558 0.17226471 0.15473033 0.18603107 0.33346027 0.35973388 0.2307039 0.43885618 0.09459914 0.57683575 0.436076 0.49514964 0.4984558 0.4262158 0.3929294 0.35174268 0.13037677 0.28659046 0.68753064 0.55076444 0.474672 0.45092535 0.21498652 0.2389958 0.24717365 0.5761236 0.6961013 0.7347868 0.72545516 0.61919886 0.6245283 0.6434254 0.48158765 0.57115483 0.61537194 0.671105 0.73909473 0.76808965 0.4305749 0.4710688 0.53368425 0.5513779 0.6163942 0.7393476 0.7738312 0.41335303 0.45789292 0.50974965 0.57387245 0.6887007 0.7316766 0.36140758 0.45609152 0.49269378 0.50785846 0.30847076 0.3778385 0.4152822 0.21557496 0.27163264 0.30488616 0.3029847 0.4520506 0.47667515 0.47524053 -0.17979814 -0.22355613 -0.030092455 0.30167937 0.23904002 0.30889085 0.42546886 0.47574937 0.43246138 0.3098011 0.4318294 0.37066758 0.2903367 0.20052248 0.10768655 0.19170596 0.19409537 0.44711253 0.44104326 -0.17138667 -0.0890778 0.056040924 0.06261338 0.048892517 0.06833604 0.14376804 0.20735037 0.5719954 0.47635454 -0.29603523 -0.18747176 0.00019212812 0.03497106 0.037300963 0.06315886 0.067548215 0.106330685 0.09627427 0.32547462 0.6218347 -0.04100173 -0.006465029 -0.04188609 0.13229159 -0.055628747 0.13603829 0.3021998 0.24124311 0.620063 -0.05276882 0.048004523 0.47601685 -0.19613877 -0.13707733 0.3340141 -0.23418285 0.298104 0.27640432 0.20956741 0.29117125 0.28897622 0.31816655 0.2719739 0.5677403 0.6405339 0.1841436 -0.39800858 -0.310019 -0.05684413 0.675203 -0.04496836 -0.40786615 -0.3144972 -0.0733823 -0.012714639 0.6373605 -0.34752715 -0.2264491 -0.15884694 0.5436243 0.5719124 0.039513458 -0.24116641 0.5627496 -0.013491467 -0.19722416 0.54728 0.5882065 -0.014254006 -0.12874374 -0.02332154 0.070187226 0.37694672 0.3794721 0.48580885 0.5786299 0.12157033 0.1742963 0.42142236 0.1946098 0.4938055 0.3209229 0.20941003 0.5631967 0.4532371 0.17784369 0.234942 0.59862816 0.19173808 0.18755731 0.2588043 -0.41893676 -0.33222705 0.13316515 -0.25648555 -0.13023968 0.119683236 -0.054058135 -0.048859812 0.10380722 0.03491465 0.14299744 0.1867243 0.18130249 0.16280648 0.28506255 0.21172595 0.3932573 0.44521958 0.4591037 0.51345384 0.5613741 0.32465076 -0.055578563 0.6468227 0.60689604 0.6049521 0.58854145 0.5016218 0.24547994 0.24755365 0.23439452 0.20327312 0.18973438 0.5232649 0.6674671 0.7166984 0.69767565 0.26060626 0.56232196 0.59129226 0.60804176 0.6147545 0.64955837 0.4633637 0.43927392 0.71669173 0.7460873 0.39101118 0.38405955 0.7655809 0.3370189 0.37587237 0.7179016 0.5260084 0.603477 0.14691529 0.24043146 0.3907456 0.11765501 0.27517608 0.3130033 0.33470756 0.4071398 0.4979632 0.3285467 0.41345698 0.5831295 0.5908259 0.5288904 0.61833 0.6459212 0.64787143 0.65334755 0.39441568 0.19175267 0.24712597 0.2749819 0.19286212 0.4058716 0.44402635 0.040438406 -0.16528186 0.15431017 0.033169292 0.065090805 0.05659765 0.29839766 0.3301271 0.2343827 0.48331034 0.44190973 0.35363957 0