# vtk DataFile Version 2.0
Really cool data
ASCII
DATASET POLYDATA
POINTS 6171 float
-3.881865 -17.82434 32.895653
-3.7002816 -18.236385 33.63562
-3.6961567 -18.228893 34.290997
-3.606685 -17.99791 34.997864
-3.7856145 -17.202106 32.11971
-3.99274 -17.388739 32.639683
-4.09633 -17.260609 33.44316
-3.8700714 -17.333763 34.27591
-3.6963496 -17.154398 35.25026
-3.7560582 -16.786964 32.075317
-3.9283876 -16.557438 32.4973
-4.040641 -16.520922 33.357002
-3.8813128 -16.740461 34.520515
-3.7614439 -16.633472 34.92933
-3.6655192 -16.148884 32.22295
-3.7579646 -15.964018 32.631893
-3.889663 -16.189941 33.341534
-3.7831993 -16.037315 34.08251
-3.013547 -19.079811 33.77045
-3.1006403 -19.176516 34.544342
-3.157234 -19.004414 35.01038
-3.1212933 -18.032465 32.150097
-3.4160135 -18.274918 32.877834
-3.4933083 -18.388664 33.182396
-3.4917424 -18.60588 34.379066
-3.2548437 -18.36365 35.357635
-2.8663363 -17.962023 35.852276
-3.4502182 -17.433146 31.931438
-3.378697 -17.607185 35.551327
-2.930766 -17.820063 35.94158
-3.549954 -16.564396 31.910505
-3.2182627 -16.254114 35.928314
-3.209158 -15.810395 31.973713
-3.431865 -15.537027 32.430466
-3.4830074 -15.37778 33.309967
-3.5553231 -15.972651 34.889446
-3.2997997 -15.863477 35.470345
-2.8323975 -15.658862 35.884857
-3.1032758 -15.137514 32.60367
-3.2893987 -15.212776 33.39712
-2.375786 -19.54536 34.53513
-2.2057018 -19.583382 34.92675
-2.645878 -18.807627 32.95227
-2.3522167 -19.286919 33.606552
-2.7169185 -19.461458 34.61251
-2.4501863 -19.305212 35.263687
-2.2580745 -18.907122 35.858635
-2.6001546 -18.070177 31.986185
-2.4742832 -18.451147 32.525322
-2.5624344 -17.544453 31.58684
-1.9898968 -17.726599 36.756367
-2.3735716 -16.522707 31.340162
-2.3797274 -16.244015 37.111774
-1.9493845 -16.409222 38.228794
-1.7065701 -16.459164 39.22816
-2.633806 -15.687626 31.650095
-2.2381635 -15.634775 37.15216
-1.9469357 -15.616485 38.400276
-1.6938834 -15.877292 39.230854
-2.3525155 -15.042517 32.019226
-2.4896069 -14.798687 32.443085
-2.666825 -14.794246 33.464832
-2.4950929 -14.765228 34.764557
-2.1789277 -14.745175 35.46949
-1.9162676 -14.54887 37.10722
-1.5668436 -13.853707 33.729855
-1.7729423 -13.172889 34.247776
-1.75142 -13.842302 37.050304
-1.6698132 -12.136399 33.177803
-2.0168438 -12.283556 33.815716
-2.1289597 -12.209148 34.861664
-2.0120976 -12.537739 35.39218
-1.7696489 -12.403978 36.337532
-1.6632686 -11.436885 33.30699
-1.93627 -11.507773 33.728455
-2.0508664 -11.433679 34.444702
-1.9405824 -11.569959 35.09374
-1.7130157 -12.047542 36.207714
-1.7646042 -11.036527 33.78634
-1.8268988 -11.045897 34.325096
-1.7674768 -19.555101 34.622395
-1.8560445 -19.54196 34.969734
-1.9668988 -19.025192 33.154682
-1.6122937 -19.320484 33.820736
-1.2619623 -19.457695 34.81593
-1.7955471 -19.363974 35.291862
-1.6375557 -18.422195 32.121685
-1.748579 -18.565182 36.328415
-1.081714 -18.098942 37.27779
-1.1124951 -17.828203 38.357048
-1.2269914 -17.251362 31.33862
-1.4223701 -17.390902 38.67008
-1.19606 -17.19413 39.32782
-0.9548924 -16.954111 39.839535
-1.3063931 -16.141314 31.3642
-1.4562148 -16.408817 39.573246
-1.0286493 -16.48529 40.00033
-1.4667526 -15.866055 39.530155
-1.0108093 -15.629165 40.00548
-1.2428194 -14.849664 31.72711
-1.799671 -14.76446 32.494007
-1.4640063 -14.935965 38.56909
-1.3075719 -14.842777 38.99966
-1.2780982 -14.242038 32.82866
-1.4793184 -13.242398 37.272507
-0.8975986 -12.488217 32.654278
-1.2492975 -12.71731 37.263134
-0.86889243 -12.992292 37.79998
-1.166648 -11.364819 32.882023
-1.4944401 -11.387385 35.660946
-1.3587064 -11.694663 36.366524
-1.2153527 -12.050106 36.993977
-1.1984792 -11.0193615 33.10938
-1.3390107 -10.773626 33.623257
-1.361664 -10.729139 34.589172
-1.390005 -10.987403 35.165787
-0.52428997 -9.384758 23.802044
-1.074453 -10.435072 34.36774
-0.47207862 -18.940739 33.804848
0.33277208 -18.019184 28.98789
0.27002788 -18.136116 29.422419
0.14567168 -18.37513 30.858156
-0.49359393 -18.314072 37.52274
-0.32879394 -18.201698 38.440613
-0.32872498 -17.88731 39.188442
0.038219243 -17.71433 39.780064
0.45639056 -17.789894 28.124918
0.4241888 -17.463629 28.25158
-0.019981444 -17.361675 29.621536
-0.51381326 -17.517935 39.59047
-0.27125296 -17.217012 40.148426
0.15396926 -16.345139 29.006248
-0.5598097 -16.28816 40.29949
-0.19040394 -15.868277 29.920113
-0.5440124 -15.892221 30.440023
-0.34900677 -15.211317 40.29696
0.24977072 -15.428378 42.361256
-0.009268701 -14.942337 30.704449
0.22660798 -14.446647 42.453636
-0.2228823 -13.855292 31.732208
-0.58897805 -14.237874 38.930206
0.36625206 -13.985565 40.346764
0.38430998 -13.588032 41.698334
0.13422036 -13.624309 42.65248
0.21704116 -13.255172 43.443558
-0.673059 -13.099462 32.42902
-0.34248334 -12.393576 37.62424
0.13654262 -12.703619 42.96797
0.19976866 -12.575296 43.54381
0.35271883 -12.4635515 44.080334
0.16989017 -10.731414 23.834612
-0.5954346 -11.4514065 32.530865
-0.4706903 -11.742534 37.03732
0.27097633 -12.028401 43.001858
0.3654751 -11.816203 43.495075
0.11362755 -10.239577 23.079887
-0.07903981 -10.338991 23.643925
-0.1032331 -10.221546 24.40183
0.15920588 -9.922767 24.961332
-0.25022647 -11.172825 32.435574
-0.43071428 -10.7020035 32.942757
-0.51853204 -10.520595 33.308075
-0.11297768 -10.59251 35.427273
-0.54926276 -11.170706 36.25191
0.3199361 -9.332808 22.27351
-0.0654591 -9.433396 22.844025
-0.4045713 -9.451323 23.601213
-0.38940874 -9.514916 24.298975
-0.046252936 -9.584769 24.864979
-0.53741336 -10.316011 33.627087
-0.541023 -10.473146 34.72214
-0.24725284 -10.463597 35.0852
0.07599467 -8.0745325 22.152172
-0.15317398 -8.32643 22.688591
-0.39471138 -8.68116 23.69126
-0.2693919 -8.822007 24.25039
0.14730445 -7.4549675 22.08875
-0.11327988 -7.519276 22.655554
-0.19162527 -7.6253653 23.340506
0.010953099 -7.673335 23.830286
0.24835363 -7.1134 22.154537
0.14713375 -6.899624 22.689447
0.091218024 -7.0128837 23.230677
1.146286 -18.629484 27.83034
1.120239 -18.733128 28.396004
1.1489463 -18.789192 29.511108
0.5968184 -18.616915 31.200434
0.3588063 -18.5664 32.131542
0.9351323 -18.778885 33.73411
0.0054790676 -19.133614 35.04572
0.5402449 -18.79018 36.45775
1.1166219 -18.048723 27.27154
0.89291894 -18.197197 27.671038
0.7240113 -18.386078 28.42113
0.51174456 -18.480217 29.828459
0.4072317 -18.337374 37.44296
0.6231115 -18.32727 38.297028
0.63809454 -17.875072 39.776928
1.0637804 -17.765158 40.43293
1.0671741 -17.614052 27.264673
0.6923717 -17.6986 27.714468
0.49502707 -17.277534 28.246685
0.68054056 -16.996508 41.321526
0.8637392 -16.872404 41.83573
1.08845 -16.565302 27.822289
0.65011793 -16.268316 42.306522
0.8440123 -16.084131 42.88044
0.553439 -15.81459 29.056467
0.9564276 -15.44056 43.451447
1.1117156 -15.629916 43.7197
0.7809504 -14.99618 29.807516
0.43544397 -14.521195 30.788256
0.55071455 -14.373452 43.39304
0.8994384 -14.175497 44.067665
0.7872657 -13.529793 39.134678
0.80230165 -13.385265 44.421795
1.1758753 -12.939866 44.795406
0.59764624 -13.084827 32.186066
0.422068 -12.619213 37.87665
1.1596018 -13.17509 39.577187
1.161257 -13.172238 40.276073
0.7871808 -12.774147 41.56059
0.53732836 -12.389775 44.34008
1.0020803 -12.372615 44.778595
0.9563967 -10.918844 23.082003
0.6437799 -10.9678955 23.49701
0.64267504 -10.934386 24.51793
0.6412926 -10.816349 24.717607
0.10190679 -11.462428 32.469353
0.692331 -11.670536 37.043953
0.9630034 -11.858993 41.883865
0.5336049 -11.565253 42.97194
0.46795514 -11.569437 43.621426
0.6892923 -11.572642 44.185795
1.037841 -11.568609 44.63758
0.8704086 -9.813336 22.112877
0.5972165 -10.364531 22.741869
0.40701383 -10.183458 25.019547
0.24984528 -10.932187 32.862553
0.31102452 -10.482865 33.224728
0.71381265 -10.690097 35.462788
0.48064086 -11.20731 36.521023
0.994571 -11.150747 42.617653
0.83252114 -11.020086 43.561874
1.0257691 -11.070587 44.2462
0.5507827 -9.321345 22.188526
0.6726596 -9.479963 25.229366
0.23341769 -10.349953 33.803513
0.022643007 -10.441851 34.296394
1.2082369 -8.396884 21.425707
0.6970509 -8.39994 21.714743
0.5975509 -8.773591 24.982016
1.0787417 -7.570735 21.396431
0.57354623 -7.5126557 21.75252
0.4653871 -7.914654 24.441652
0.7935799 -6.909794 21.828512
0.4985894 -6.649129 22.517315
0.5704729 -6.6797886 23.362303
0.6297657 -7.0947146 23.899717
0.91736895 -6.418297 22.580225
0.9150274 -6.4288015 23.121897
1.6473978 -18.75859 27.747564
1.6089609 -18.864996 28.436466
1.5387317 -18.78193 29.512703
1.3692153 -18.815561 30.30983
1.6715587 -18.972477 31.68373
2.0164793 -19.31062 32.31322
2.100686 -19.459095 33.545902
1.5533028 -18.25739 27.181196
1.4184117 -18.505953 27.453314
1.5376465 -18.356947 37.541832
1.9452933 -17.8388 39.39289
1.7027653 -17.743246 40.520332
1.7006433 -17.580992 40.877613
1.6690795 -17.594633 26.972347
1.218876 -17.48724 41.07179
1.6526548 -16.859467 42.136456
1.7109424 -16.822718 27.16784
1.8993336 -16.412804 27.419392
1.5504768 -16.171293 43.466644
1.7612705 -15.877191 43.984276
1.9011825 -16.166443 27.6668
1.5180359 -15.75461 28.582565
1.6560379 -15.418886 44.235153
2.0399032 -15.218358 44.67536
1.5456258 -15.000753 29.731209
1.2371855 -14.624893 30.43716
1.6593707 -14.599641 44.47078
1.889653 -14.16846 44.729836
1.6727157 -14.19824 31.058384
1.642344 -13.552104 44.78255
1.8367841 -12.919885 38.773224
1.5843621 -13.136106 39.688656
1.7546521 -12.59831 40.922485
1.4721911 -12.288382 45.010822
1.5295805 -10.985878 22.886923
1.396437 -11.253244 23.519176
1.3755233 -11.290341 24.28557
1.5900664 -10.822811 25.0728
1.281438 -11.575363 32.78431
1.0321524 -11.977822 37.360397
1.5238885 -11.675104 41.634914
1.5362066 -11.534756 44.862877
1.7547996 -10.070922 21.848894
1.6021746 -10.651577 25.1421
1.6959336 -11.024591 33.20548
1.6782334 -10.643199 34.252575
1.5706981 -10.726805 35.415356
1.3759673 -11.181979 36.349026
1.9346068 -11.291452 41.799973
1.6272993 -10.783695 42.76562
1.4716591 -10.629952 43.54863
1.4974515 -10.784926 44.233273
1.652322 -11.173095 44.694714
1.316533 -9.261798 21.516788
1.7098696 -9.363096 25.308256
1.7240258 -8.487783 21.24877
2.053768 -8.581638 24.993937
2.2803032 -7.84779 30.62194
[...]
POINT_DATA 6171
SCALARS features_00 float 1
LOOKUP_TABLE default
0.7369268 0.7169933 0.69343674 0.6403165 0.7286584 0.7403751 0.7186398 0.6517536 0.5516978 0.7039944 0.68931353 0.6753783 0.5887423 0.5393347 0.64331234 0.6301913 0.64436305 0.5768048 0.6935388 0.70325685 0.6848701 0.67598104 0.6972865 0.7035914 0.70748377 0.6430603 0.5654316 0.7165377 0.56336915 0.54447657 0.67364264 0.3925591 0.574528 0.5728482 0.5476669 0.48271596 0.40265742 0.30395848 0.50537986 0.5100192 0.6441097 0.623247 0.63307714 0.6345767 0.672215 0.6320205 0.58219945 0.62418616 0.60530734 0.65399945 0.39445052 0.5982342 0.29665256 0.43230247 0.4653673 0.49637264 0.21708928 0.35705423 0.43434328 0.38899025 0.38715294 0.37895155 0.30328888 0.23896112 0.1656852 0.2074313 0.394278 0.20980078 0.57695657 0.5824921 0.5660329 0.4650519 0.42326403 0.68102795 0.68504244 0.67423284 0.61696124 0.47765738 0.72354716 0.7082664 0.5738666 0.5813323 0.56345856 0.5399083 0.49436766 0.5559039 0.47203892 0.4541778 0.27533162 0.38023815 0.509284 0.45383596 0.4602635 0.4575307 0.36996394 0.46557653 0.46484956 0.4401071 0.42748287 0.16337447 0.26184213 0.29963654 0.32108003 0.14824812 0.30145502 0.4441316 0.374366 0.3159205 0.65379596 0.5737791 0.4952612 0.4331472 0.69956994 0.7298175 0.69563806 0.6343392 0.85450816 0.7018943 0.30899566 0.6072708 0.55007607 0.22106712 0.23710428 0.29378176 0.35663146 0.3274067 0.6789235 0.6669762 0.5274214 0.4078861 0.3870178 0.54117125 0.4416346 0.3009382 0.22853892 0.3786326 0.39216834 0.19418603 0.49452114 0.030424036 0.17233078 0.093145326 0.45922276 0.5747372 0.6076501 0.24252634 0.36818096 0.6237949 0.6533451 0.67978776 0.8597151 0.5858883 0.4202202 0.66966105 0.71283215 0.7684442 0.8520522 0.88783705 0.86773646 0.57205385 0.662899 0.69120014 0.47684234 0.48142868 0.6402967 0.74315417 0.83926654 0.87805647 0.8645885 0.69534457 0.6264163 0.53968745 0.72281295 0.766534 0.8313744 0.8438843 0.7649015 0.80384696 0.8263943 0.82227373 0.7850405 0.8120333 0.8169276 0.701419 0.64894366 0.49035186 0.119778216 0.009315755 -0.044547625 0.24713662 0.117061295 0.7584417 0.7218735 0.65539086 0.4660266 0.15622082 0.15474708 0.21622089 0.1606554 0.77206576 0.7193638 0.6692939 0.21338408 0.24604361 0.6806504 0.34931886 0.399388 0.44365498 0.44218242 0.44622386 0.26893812 0.15513346 0.5157876 0.51370394 -0.050845675 0.59474504 0.6202411 0.1743599 0.20084879 -0.0449232 0.039380953 0.44309387 0.69176775 0.6877934 0.680531 0.7852372 0.8430239 0.8436779 0.48566407 0.3052367 0.622424 0.72044224 0.7377796 0.7489896 0.7569659 0.56003255 0.6691848 0.85819244 0.5520064 0.58738774 0.3246949 0.3223959 0.7820108 0.79747254 0.79819745 0.6090977 0.80443305 0.5944738 0.58688545 0.57274485 0.62789786 0.78148377 0.6617969 0.7243179 0.78174204 0.759511 0.80090684 0.78512436 0.76168424 0.7832608 0.77020556 0.6980283 0.6288527 0.47406876 0.27934933 0.006867118 0.0104918815 0.03487558 0.7668781 0.73822784 -0.006368939 0.047418505 0.12113805 0.13807249 0.8140102 0.16338807 0.2513339 0.7642882 0.65968406 0.4248343 0.47855002 0.58204365 0.45883024 0.48807108 0.5184698 0.23454809 0.1682412 0.49234003 0.50398266 0.10004501 0.53788066 -0.12040365 -0.05869411 0.21445018 0.6844728 0.573869 0.6817486 0.7316532 0.7046081 0.31253797 0.22498049 0.5383178 0.7700373 0.46776807 0.714004 0.41636634 0.42693195 0.19267091 0.15314482 0.5877635 0.8546411 0.8761871 0.8491973 0.8127392 0.5083378 0.74122167 0.52315605 0.6347605 0.29555184 0.31985098 0.31441504 0.27192444 0.6248573 0.6674793 0.3296638 0.34972125 0.33971906 0.27986798 0.34978652 0.35987642 0.3548218 0.6075987 0.69275177 0.7011342 0.6589587 0.28698066 0.33385324 0.34478527 0.33715242 0.38366354 0.42284837 0.43260297 0.3918782 0.7328009 0.7248531 0.6727636 0.34956643 0.326529 0.2791251 0.40982366 0.44372517 0.45275646 0.4083846 0.36783415 0.32626206 0.27232432 0.2788296 0.4041746 0.466578 0.4695412 0.35559738 0.32940978 0.39926958 0.31628087 0.06727716 0.16690809 0.22970034 0.29085296 0.24035892 0.7064651 0.660913 0.57389593 0.456835 0.31218305 0.022852693 0.05786292 0.05204493 -0.0101968385 0.73144245 0.71524084 -0.037085205 0.012588518 0.12393151 0.79963374 0.12979588 0.25789 0.39078993 0.7537596 0.46055984 0.54023486 0.5185142 0.5666148 0.11938816 0.53507626 0.04151526 0.556276 -0.054326564 0.65127623 0.32183757 0.44226044 0.5387605 0.5257614 0.038001627 0.23494981 0.25995132 0.43439913 0.8682629 0.34684104 0.33640295 0.17338757 0.32869285 -0.14188147 -0.3330178 0.78861415 0.93140566 0.9013158 0.47343072 0.18488969 0.26721826 0.057023495 -0.3304322 -0.2355987 0.40990087 0.21808803 0.2646492 0.2607056 0.23368588 0.14380527 0.08056243 0.42092538 0.0034166723 0.0031809732 0.13584854 0.25994602 0.3427378 0.2595142 0.48731494 0.57978636 0.50785196 0.116556495 0.24005628 0.34393245 0.22565557 0.58244246 0.27451104 0.3484092 0.38928574 0.28958234 0.2787163 0.3671237 0.22989047 0.3056683 0.47021532 0.4725745 0.38695118 0.37873155 0.32398736 0.2552756 0.26911086 0.39577 0.44494092 0.46937335 0.37467018 0.33960423 0.29356205 0.19798803 0.31085527 0.32505077 0.3049922 0.23370978 0.098866865 0.1391834 0.19076851 0.25345355 0.17705406 0.0616934 0.54292405 0.49484932 0.3530867 0.060652774 0.03585132 -0.019216994 0.61261827 0.5106988 0.40955174 0.3114453 0.11190699 0.68842304 0.16311929 0.57782674 0.4619373 0.54498506 0.5785139 0.59602994 0.1491996 0.16402002 0.023252316 -0.01879599 -0.08500643 0.13071123 0.20058936 0.36238742 -0.030421808 0.08179165 0.08356441 -0.021785695 -0.21968205 0.38508788 0.74784875 0.91372633 0.11682276 0.06709181 -0.09754785 0.5416657 0.5736384 0.056355197 0.10678621 -0.081650466 -0.04060318 0.43474543 0.48633057 0.3475414 0.45099318 0.5097212 0.32442844 0.35913122 0.37652493 0.43029517 0.36062992 0.42133862 -0.110805616 -0.02833736 0.032951795 0.30230775 0.42123157 0.36702073 0.10578071 -0.024385452 0.037383124 0.2639577 0.19710244 -0.009348719 0.21939987 0.40751725 0.060834862 0.3041947 0.33523047 0.37876582 0.26897648 0.35845804 0.37303406 0.33996278 0.19900426 0.14902279 0.33429828 0.3617615 0.35395902 0.2486793 0.5504559 0.5557765 0.61005163 0.62696904 0.5454766 0.63161284 0.6506518 0.64500314 0.50627184 0.589442 0.62649226 0.31564373 0.33088565 0.17586464 0.24928094 0.3330735 0.32877427 0.27496356 0.12010762 0.15094462 0.074238576 -0.13560352 0.038688965 -0.015133653 -0.086531796 0.33565363 0.25407323 0.18242677 -0.00048646703 0.031542312 0.14277595 0.23153074 0.11745931 0.22972554 0.3864889 0.5440763 0.52147865 -0.05650502 -0.13245231 0.44662702 0.49984458 -0.243756 0.037312865 -0.060299084 -0.23761225 -0.263243 -0.24050511 -0.10817547 0.40002304 0.09459427 0.07113294 -0.040688712 -0.23093185 -0.25965142 0.4223882 0.5208597 0.17563021 -0.028932482 0.46457565 0.20674281 0.4423551 0.46275073 0.51934814 0.522351 0.49341285 0.23222157 0.53342015 0.4883685 0.24671635 0.49720582 0.49835008 0.2483929 0.31781343 0.46660942 -0.12632951 -0.08540924 0.12653245 0.3338812 -0.051715307 0.3652506 -0.13626964 0.022383288 0.1819137 0.048068523 -0.097633936 0.19447508 0.26755476 -0.040935054 0.06577329 0.5008501 0.36016002 0.19656165 0.19347242 0.33121642 0.35221505 0.3367863 0.22143039 0.5867454 0.5420208 0.44654307 0.29722303 0.23265053 0.3342467 0.30215782 0.4666267 0.6137818 0.5903155 0.4721837 0.39298546 0.4474342 0.46338934 0.49349502 0.50385076 0.54635334 0.5543647 0.5586265 0.62965584 0.3180883 0.38208616 0.45811278 0.5202875 0.59561527 0.6031575 0.58206844 0.26286831 0.36043468 0.41986513 0.6281221 0.59070647 0.2619627 0.33514714 0.44325343 0.5899348 0.5874647 0.26112863 0.25177935 0.29535848 0.3155697 0.51203203 0.5187988 0.24547827 0.27108663 0.28605124 0.28463566 0.13922736 0.15419911 0.26425353 0.2359946 0.17606662 0.19961992 0.2338682 0.11814679 0.05809076 0.044310786 -0.0620606 0.17265688 0.11069818 0.1863465 0.045700893 0.07259101 0.19379085 0.24747705 0.21308063 0.19121495 0.1764679 0.27883112 0.17271155 0.058615018 -0.1596936 0.4019211 0.550125 0.6434846 0.6994227 -0.042157114 -0.022084936 -0.22471096 -0.14279048 -0.1259549 -0.035750512 0.45308945 0.5648483 0.63413703 0.7155811 0.78464484 0.049767494 0.5237309 0.586478 0.733606 0.8038253 0.13330972 0.48621958 0.40883425 0.52121466 0.7488704 0.06274827 0.3674202 0.3551244 0.46313646 0.43246013 -0.039151907 0.2787184 0.43562105 0.45548066 0.45958984 0.42873704 0.0735428 0.19836098 0.47339937 0.29421142 0.39713222 0.41466478 0.39411205 0.28854692 -0.10855584 -0.028767277 0.3076752 -0.064729825 0.3012586 0.065675415 -0.0121879615 0.3738548 0.40375888 0.38179263 0.061020307 0.065971345 -0.14780216 0.05310989 0.10040891 0.10206333 0.46201032 0.514372 0.1736627 0.27844125 0.0054055415 -0.09578143 0.00048895925 0.08316639 0.56366 0.55475724 0.23538026 0.18673573 0.30805466 0.23329252 0.12628695 -0.11647508 0.40491557 0.40794122 0.412467 0.45230478 0.51341766 0.5120152 0.60127175 0.6282464 0.5288291 0.39931113 0.2841518 -0.07136347 0.3991895 0.40966243 0.43204266 0.5064705 0.52391696 0.5394964 0.5442517 0.6446138 0.638834 0.5785365 0.4934731 0.43649805 0.12703437 0.3461346 0.5805668 0.5689115 0.1568164 0.22941673 0.5573592 0.17840512 0.25133434 0.4095168 0.46223807 0.625592 0.63715035 0.5954611 0.5314348 0.1584774 0.25778866 0.26286134 0.34894305 0.45377076 0.6238481 0.64063346 0.6373974 0.5452855 0.47487622 0.26356915 0.27793908 0.2651229 0.20952109 0.21849494 0.6134757 0.6299575 0.6372007 0.5853057 0.50198644 0.44569308 0.26994455 0.29063642 0.3042961 0.32468098 0.29382843 0.6169481 0.57639223 0.53948724 0.514223 0.40857607 0.4763354 0.5036591 0.5447035 0.24520648 0.122445285 0.19270761 0.2524097 0.28139713 0.10185981 0.0952816 0.19531171 0.09246132 0.27380797 0.12447945 0.11362769 0.18575747 0.15903015 0.10344545 0.17067 0.15703943 0.14472745 -0.05735872 0.16783872 -0.13289279 0.114404395 0.11049916 0.7831592 0.6778825 0.5092413 0.39240816 0.26164863 0.2649265 0.23408319 0.8082603 0.7434937 0.63932806 0.4424761 0.38628817 0.25770473 0.185767 0.22734316 0.020577788 0.5654602 0.6375582 0.7078918 0.705747 0.6136606 0.4810543 0.40435997 -0.057883043 0.06751279 0.14983319 0.3589955 0.49866703 0.6242354 0.73172975 0.75983727 0.46496713 0.31939667 0.22243075 0.062281847 0.041769743 -0.04933857 -0.010696948 0.12201032 0.06939849 0.26652807 0.32448697 0.81028295 0.8334085 0.18055525 0.06325303 0.10588507 0.3011641 0.82445526 0.83807445 -0.13892394 0.31145883 0.7471695 0.8087216 0.82676804 -0.100555144 -0.14311111 0.177824 0.2581289 0.37563235 0.2404212 0.0022289306 -0.08132602 -0.095821604 0.032391593 0.35823327 0.18007481 0.0726076 0.02585698 -0.085795134 -0.09152388 -0.054680265 0.13444363 0.34856933 0.3317758 0.057077125 -0.009754121 0.36119094 0.06035556 0.1974114 0.23266242 0.2898057 0.048705555 0.2574916 0.23788014 0.2558291 0.25263292 0.31091866 0.20334208 -0.07311876 0.24107862 0.2776271 0.31435293 0.3241519 0.32369816 0.3289245 0.29536542 -0.012903776 -0.055815592 0.3019131 0.32471693 0.3417042 0.37201875 0.08677995 0.400585 0.44427124 0.014562443 -0.023923596 0.09586781 0.11250863 0.43839508 0.4989494 0.12624925 0.067028865 -0.13839762 -0.09491266 0.007250864 0.10550423 0.23294029 0.30594495 0.43233794 0.4951656 0.4823965 0.5562426 0.0820822 0.04593463 -0.046971552 -0.08281357 0.4738211 0.58432484 0.6163233 0.63845587 0.17952967 0.03027834 0.071986176 -0.0068371687 -0.0700198 -0.071431965 0.5351591 0.60502833 0.6135154 0.62699443 0.6117872 0.5966132 -0.028352097 0.050965913 0.023780162 -0.049861964 0.0073046237 0.41870108 0.13534996 0.0744423 -0.038919635 -0.019111559 -0.043307792 0.2935078 0.6079724 0.23181675 0.08880983 0.061761826 -0.04151876 0.025138043 0.58151984 0.29760695 0.288535 0.24134739 0.2248467 0.13673684 -0.13313791 0.13795675 0.18394667 0.17996436 0.56985307 0.5997931 0.4168493 0.35643467 0.23565519 0.5631706 0.5518185 0.566449 0.545784 0.5253371 0.48281038 0.29024768 0.39800757 0.55459976 0.54161483 0.5604833 0.5600843 0.54657906 0.49302816 0.4128664 0.52495813 0.5843123 0.6135565 0.5951871 0.57381546 0.6273949 0.63247335 0.5274445 0.55605346 0.36800075 0.45817018 0.4873094 0.49270886 0.43304503 0.22208679 0.32168195 0.3068477 0.24261518 0.26719514 0.08922491 0.062144376 0.073696434 0.25892296 0.5660865 0.61788106 0.6655278 0.14106989 0.10093638 0.16865222 0.61781394 0.6752082 0.7059808 0.17950481 0.02363855 0.63458776 0.71015924 0.71810126 0.1530483 0.16455011 0.045791477 0.50717807 0.604948 0.63982004 0.08893027 0.13011158 0.098702006 0.7728224 0.6883154 0.51690775 0.47005665 0.21173953 0.21446362 0.1425174 0.10763369 0.08157011 0.87428415 0.80881995 0.6202097 0.49746734 0.43301666 0.35797518 0.16488335 0.24254322 0.8772857 0.8513739 0.3045529 0.038593687 0.15814984 0.41463315 0.6225709 0.68762696 0.70471865 0.82266724 0.743193 -0.05159673 0.24318284 0.34281918 0.75775707 0.70437384 0.45418572 0.168367 0.7821491 0.81812644 0.105074495 0.82925403 0.25195715 0.14884916 -0.2095502 -0.16829315 0.7482219 0.8031285 0.5071153 0.3440926 0.27705508 0.6107347 0.7217165 0.60238326 0.52227986 0.4140927 0.2065447 0.612414 0.57189536 0.44269523 0.24039714 0.13840881 0.54873794 0.45178622 0.30569088 0.15402399 -0.24812874 0.21866176 0.25258023 0.16639984 -0.21468069 -0.118189216 0.028602354 0.13588306 0.35343492 0.08269753 -0.053180873 0.21253292 0.37377247 0.40223223 0.31877726 -0.021373343 -0.1833188 -0.2132184 -0.08339277 0.092153236 0.2554704 0.31781816 0.34708446 0.34642714 0.36048257 -0.0030481983 -0.22999194 -0.26835033 -0.21033344 0.2530726 0.27249217 0.35817802 0.37724444 -0.3258858 0.37276238 -0.15919027 -0.38239512 0.12384652 0.11699157 -0.124295235 0.19335514 0.3000207 0.20510536 0.42817825 0.4572035 -0.13562737 -0.036640868 0.52080595 0.5012233 -0.22578217 -0.31348798 -0.025923423 0.3432978 0.5331254 0.48783326 0.5329354 0.5367215 -0.2187284 0.29159582 0.048975214 0.21336877 0.21417244 0.5080683 0.12168105 -0.16407278 0.034953877 0.1343324 0.18658179 0.2402811 0.48152345 0.06775987 0.52280784 0.33840632 0.06249412 0.4814921 0.45398384 0.24818118 0.56489015 0.4051519 0.4657176 0.5259559 0.5521587 0.52287424 0.46561962 0.37354296 0.26829404 0.3994793 0.5935409 0.5196114 0.55058795 0.5104424 0.39924452 0.5969914 0.64311504 0.63583124 0.61833715 0.4800009 0.5340682 0.58193934 0.5898114 0.5628952 0.3751178 0.42519587 0.46548128 0.46568882 0.2854786 0.33636677 0.23623878 0.11072621 0.1020339 0.15163393 0.37206888 0.4927547 0.56754386 0.6312798 0.6321695 0.1589395 0.12365882 0.10340084 0.04410527 -0.010722278 0.40510756 0.6914993 0.66498566 0.18179846 0.17576846 -0.017462432 0.019195765 0.34066063 0.6614369 0.619134 0.14460996 0.16135281 0.574327 0.6213046 0.35531303 0.76636636 0.6674808 0.48635423 0.41557837 0.11891762 0.1612449 0.12187526 -0.059977196 0.061460387 0.004721381 0.8945608 0.8855872 0.41322577 0.3154267 0.16845055 0.12267015 0.03486443 0.8659284 0.017743904 0.29810822 0.33093867 0.37509063 0.54178256 0.6390734 0.651724 0.8303627 -0.070459396 0.122123145 0.68549657 0.79591054 0.736808 0.7570369 0.73605394 0.6288252 0.7444631 0.6403138 0.6996403 0.52373314 0.38083842 0.61260736 0.6267219 0.16871355 0.65096444 0.11850036 0.58565927 0.49847674 0.28960764 0.22494665 0.1626738 0.38193285 0.40712792 0.039505854 0.407337 0.4519384 0.45424962 0.046710253 0.35065287 0.36672103 0.44768006 0.2774785 -0.19078669 -0.0022781454 0.3158309 0.27884525 -0.43330577 -0.30684736 -0.1910932 -0.26352394 -0.42301592 -0.12653694 -0.08820984 0.31847903 0.29674593 -0.2879598 0.16782475 0.11154145 0.34672293 0.38961112 0.4554293 0.17540658 0.43062067 0.38387474 0.48383287 0.42276224 0.6249893 0.56948346 0.6478759 0.71255183 0.44182125 0.27156016 0.28151178 0.5956513 0.6808951 0.71622443 0.44785076 -0.03912472 0.13909018 0.2362142 0.29415348 0.44236583 0.43796694 0.44368523 0.37290007 0.33595657 0.27388442 0.5009072 0.32083505 0.3880796 0.41898525 0.38380092 0.3263378 0.17608619 0.21164961 0.28748116 0.5692714 0.47185254 0.47019267 0.46717647 0.3284483 0.53208375 0.6319404 0.6081267 0.5959873 0.63014674 0.5943137 0.64854133 0.4697752 0.5473892 0.60831964 0.646234 0.41184008 0.45468906 0.5168912 0.5496087 0.35681987 0.41325057 0.46480116 0.48129275 0.33865592 0.36995918 0.38001823 0.4872191 0.53648674 0.6214094 0.6292855 0.52356625 0.33533373 0.34788495 0.34800786 0.30083397 0.3893922 0.4414871 0.48788133 0.31930572 0.25670454 0.26892912 0.2867096 0.17832851 -0.05187119 0.06421839 -0.21383968 -0.23189248 0.118292116 0.32366878 0.44136995 0.104825184 0.17829171 0.03755234 -0.12741414 0.15098263 0.51123714 0.48402196 0.05212506 0.553144 0.11534774 0.030774157 0.5307611 0.0863449 0.49232256 0.03948068 0.10121298 0.41889757 0.6860994 0.5716553 0.43155026 0.36743763 0.09289868 0.09436445 0.8186155 0.7154015 0.49380937 0.06675402 0.0056799054 -0.11285938 -0.12849896 0.79698884 0.78831244 0.027312864 0.075837165 0.27012342 0.38529497 0.7588705 0.61529946 0.70276725 -0.19594207 -0.081280485 0.5379442 0.59787244 0.5034597 0.510714 0.31297737 0.42259043 0.60387516 0.6540112 0.65132797 0.034577407 0.075878546 0.6751666 0.6560483 0.5716822 0.30556554 0.40345034 0.16975275 0.45327026 0.02440992 0.4971248 0.07419897 0.46034336 0.49452314 0.14004368 0.10208985 0.3382997 0.18668413 0.22540419 0.06964488 0.24218348 0.12270748 0.32919592 0.28524268 0.5254414 0.7056018 0.20507997 0.6144742 0.73738366 0.7705692 0.39148515 0.698255 0.7584853 0.41093862 0.27944982 0.30098677 0.5498568 0.6742977 0.7461637 0.3939156 0.35812736 0.23653555 0.29320538 0.3006627 0.25777563 0.45912117 0.22510578 0.3323997 0.36583418 0.25094146 0.19840617 0.46849492 0.37711245 0.39769542 0.39174986 0.25233558 0.27057153 0.29135936 0.31227124 0.40255368 0.44269317 0.5398071 0.4934574 0.5887002 0.63217556 0.6494302 0.69785565 0.7258237 0.50718343 0.49046504 0.59444517 0.6780993 0.71796113 0.33804917 0.37323582 0.38676932 0.6752708 0.6562251 0.33002168 0.35004932 0.5781884 0.5678874 0.2548184 0.28407675 0.528854 0.48068225 0.26917398 0.3823423 0.41829595 0.4331075 0.452228 0.5096827 0.49571562 0.23089318 0.36631206 0.4143355 0.18830647 0.24486643 0.112365544 0.2490239 -0.3523941 -0.2019991 0.13434516 0.20892099 0.26994544 0.29082194 0.082948014 0.14155039 0.42221734 -0.01652094 0.44684407 0.4312796 -0.06103244 -0.103853986 0.4315816 0.3848245 -0.07856547 0.31912118 0.27414668 0.3072966 0.2612805 -0.000973057 -0.025667455 0.019219719 -0.26799506 -0.06769732 0.71387905 0.6750535 0.30846292 0.22323895 0.109933645 -0.13020264 0.7494841 0.68025905 0.51552606 -0.18233514 0.14198968 0.15468822 0.39781174 0.7012136 0.60340375 0.6508147 0.54676056 0.46116605 0.14511286 0.29926097 0.2021287 0.6283425 0.5901822 0.6531406 -0.030950867 -0.038041525 0.6621665 0.6649749 -0.081719495 0.651302 0.56257594 0.19626877 0.04485245 0.4525559 0.051975116 0.50022334 0.15570281 0.13243166 0.43208998 0.14028457 0.008531537 0.22078943 0.17199495 0.112826385 0.058344908 0.12180693 0.059337273 0.038073227 0.039718106 0.32921514 0.6704494 0.8136375 0.8447917 0.89308155 0.29391414 0.84574133 0.88681054 0.2592005 0.81887114 0.83523536 0.3270003 0.2514671 0.39393348 0.47527108 0.67083764 0.7320781 0.30717522 0.20156303 0.2595618 0.2864592 0.3312128 0.27432582 0.22237092 0.19210094 0.20191054 0.206406 0.2949593 0.20121258 0.21631359 0.20494616 0.23373702 0.23623371 0.36541393 0.42920196 0.69215906 0.7214186 0.76274323 0.73752344 0.7176826 0.62271047 0.6326499 0.68413055 0.6982064 0.7195047 0.7212283 0.46412838 0.4828956 0.71466136 0.6843717 0.34843948 0.6192079 0.29107678 0.5502993 0.23738174 0.49169567 0.22712195 0.33474854 0.33571866 -0.03372626 0.34199896 -0.525591 -0.0044976324 0.124659345 0.1613071 0.22719735 0.19598968 0.20067948 0.5205311 0.05586131 0.49959683 0.47026423 0.3142516 0.36405447 0.38882923 0.40741795 -0.12678273 -0.1108295 0.29654276 0.03983554 0.16279402 -0.25381798 -0.29512286 -0.25660163 -0.03374201 -0.16895542 0.029943421 0.016686447 -0.09117422 -0.13709614 -0.39738178 -0.09820454 0.042889923 -0.0930133 0.054185487 0.01080098 0.11998953 0.31607372 0.40985104 0.10014605 0.30391273 0.10010521 0.04455226 0.2429248 0.27531517 0.44572607 0.32027948 0.096141845 0.16772757 0.62769485 0.58374 0.64747137 0.629954 -0.15754697 0.65