# vtk DataFile Version 2.0
Really cool data
ASCII
DATASET POLYDATA
POINTS 12548 float
-52.675198 14.240601 33.529766
-52.837914 14.721669 32.88326
-52.94063 14.7359085 33.477524
-52.893505 14.800987 34.297417
-52.759556 15.012004 35.041435
-52.87467 15.267877 32.67933
-53.108044 15.443778 33.49368
-53.12606 15.60832 34.324947
-52.817474 15.65936 35.195286
-52.767323 16.175896 32.94104
-52.97389 16.330492 33.624176
-53.07392 16.409504 34.485847
-52.88279 16.44097 35.13536
-52.7935 17.009872 33.927856
-52.8508 16.983719 34.43887
-52.78505 16.951136 35.08704
-51.552826 -2.8698475 32.164944
-51.56813 -2.4311242 31.772224
-51.58198 -2.5246468 32.295944
-51.563503 -2.0256345 31.999043
-51.566525 -2.0643902 32.270824
-51.628044 9.930825 24.491808
-51.622963 9.886846 25.578194
-51.66297 10.019414 26.089083
-51.689686 11.020894 23.130743
-51.77811 10.768717 23.608269
-51.796555 10.752358 24.530468
-51.80195 10.416882 25.442305
-51.66287 10.479278 26.28472
-51.705975 11.645532 23.079994
-51.796074 11.489355 23.374134
-51.95187 11.407829 24.372927
-51.81623 11.550176 25.40461
-51.793697 11.28426 26.311707
-51.59403 12.543806 23.11929
-51.75981 12.25007 23.50598
-51.908493 12.039689 24.371725
-51.85073 12.878427 26.794954
-51.74178 12.448123 27.082794
-51.71392 13.438119 24.560003
-52.053944 13.588868 25.621775
-52.05337 13.394797 26.341545
-52.018475 13.783087 27.20864
-51.700024 13.681907 28.312332
-52.43374 14.272674 32.696224
-52.340492 14.017304 33.461796
-52.274315 13.97555 34.607807
-51.948135 13.862206 35.15747
-51.69188 14.081008 24.129719
-51.923576 14.498222 24.867292
-52.148922 14.739584 25.594107
-52.22456 14.6744375 26.593946
-52.118805 14.347846 27.178661
-51.739857 14.310805 28.20554
-52.61441 14.554852 32.63026
-52.34573 14.309324 34.81068
-52.340153 14.627689 35.38171
-51.85814 14.582671 35.97628
-51.57707 15.000648 24.05947
-51.79224 15.214746 24.86611
-52.06592 15.387835 25.643028
-52.22586 15.328893 26.42633
-52.01046 15.305904 27.095724
-52.20862 15.378885 32.1378
-52.569637 15.464356 35.508476
-52.10207 15.436512 35.95846
-51.749596 16.06075 25.871367
-51.825054 15.970033 26.509901
-52.420094 15.8531685 32.3084
-52.543877 16.416023 32.928585
-52.541176 16.616663 35.586334
-52.2945 16.460297 35.769917
-52.30492 16.930317 33.160152
-52.372894 17.26753 33.726063
-52.59488 17.32945 34.637245
-52.388577 17.17867 35.28575
-52.00634 17.026909 35.830383
-50.81521 -3.563563 32.030544
-50.99785 -3.0056965 31.215084
-51.234695 -3.1552691 31.754505
-51.262527 -3.2044888 32.3817
-51.0629 -3.0433874 32.98254
-51.097614 -2.4773374 30.958792
-51.469574 -2.4201148 31.522505
-51.509815 -2.740567 32.616722
-51.216457 -2.480291 33.02791
-50.690094 -1.7273318 30.170332
-50.94455 -1.4053729 30.624758
-51.365837 -1.6912956 31.490074
-51.41343 -1.7781787 32.43606
-51.288654 -1.8851135 32.85023
-50.808178 -0.69276 30.782124
-50.98671 -0.8761194 31.469584
-50.909912 -0.97707236 32.37887
-50.736492 -0.94846034 32.768963
-50.60565 3.0135384 37.599953
-50.61104 3.0939784 38.356903
-50.75735 3.6664426 37.085155
-50.865166 3.7328281 37.572906
-50.773235 3.6334906 38.3224
-50.607838 3.6633205 38.794823
-50.651928 5.1125712 19.602465
-50.66599 4.8385587 20.563147
-50.73205 4.5279245 37.025684
-50.87493 4.384722 37.59995
-50.821053 4.400282 38.23849
-50.62846 4.030167 38.811268
-50.640774 5.803021 18.85808
-50.83722 5.587773 19.618052
-50.901615 5.5905113 20.401007
-50.68378 5.5133605 21.165346
-50.69579 4.996478 37.635254
-50.674507 4.945932 38.025227
-50.589054 6.647278 18.098167
-50.653706 6.5488586 18.50847
-50.86824 6.396563 19.490795
-50.869614 6.2680125 20.43306
-50.624638 6.7085595 21.082722
-50.60437 6.9834113 18.130342
-50.77427 7.071874 19.61384
-50.701473 7.1129026 20.462275
-50.827427 8.574902 24.635664
-51.166676 9.083303 25.30754
-50.81349 8.683617 26.4977
-50.763065 8.956672 27.175043
-51.110023 9.646738 23.057875
-51.336544 9.7505045 23.699478
-51.38876 9.4775305 24.717104
-51.368916 9.454851 25.620354
-51.305576 9.60042 26.506409
-51.006615 9.685724 27.130716
-51.324253 10.507416 22.822304
-51.469227 10.150532 26.644138
-51.24653 10.6290245 27.14683
-51.20352 11.877368 22.360285
-51.340405 11.62515 22.651133
-50.726685 12.393966 21.964352
-51.418526 12.192946 22.821783
-51.576324 12.613429 27.925257
-50.820473 12.864635 29.046913
-50.78664 13.247708 33.74487
-51.242027 13.281526 34.33104
-50.706684 13.548938 21.841238
-51.177517 13.018056 22.734386
-51.467194 13.401074 23.54536
-51.34826 13.476695 28.785875
-51.8808 14.239972 32.507286
-51.491707 13.584801 33.61319
-51.551495 13.720065 35.727345
-51.258106 13.857352 36.124847
-50.617905 14.419522 21.645264
-50.95064 14.458842 22.59336
-51.445553 14.81512 23.873547
-50.82998 14.505497 29.36283
-51.539776 14.948458 31.962162
-51.339172 14.595404 36.423004
-50.791416 15.107321 22.845558
-51.314014 15.212624 23.90912
-51.616924 15.67688 27.604109
-51.075283 15.474993 28.509521
-51.23594 15.083745 28.834929
-51.485794 15.523011 31.85945
-51.45007 15.570684 36.330284
-51.362896 15.974009 24.823654
-51.316418 16.184679 25.34729
-51.5212 16.050772 26.995514
-50.650024 16.561232 29.91718
-51.022373 16.49713 31.167925
-51.20762 16.437057 31.43288
-51.517303 16.423107 36.042774
-50.64613 17.63864 24.919403
-50.785393 17.231426 25.60663
-50.897717 16.862919 26.2037
-50.713577 17.044838 28.92096
-50.62043 17.479206 29.590996
-50.868477 17.522352 31.320444
-50.90035 16.998064 36.15417
-50.624313 18.154076 24.958897
-50.52148 18.230366 25.185987
-50.625782 18.94861 27.590652
-50.78602 18.394201 28.883604
-50.80941 18.60417 29.532206
-50.78019 18.218214 30.386549
-50.898323 18.374052 31.194756
-51.22684 17.658266 35.2308
-50.594 19.570906 27.513334
-50.77776 19.507452 28.902185
-50.803734 19.368465 29.452024
-50.82775 19.545704 30.595898
-50.780235 19.26011 31.444527
-50.80979 19.370886 32.484417
-51.184975 19.675129 33.680798
-50.91465 19.67965 34.39843
-50.648796 19.648573 34.84942
-50.663166 20.750858 27.907383
-50.636284 20.439123 28.62674
-50.66598 20.43407 29.54943
-50.616943 20.605368 30.745874
-51.05421 20.606216 31.43009
-51.289665 20.547073 32.558376
-51.26848 20.622057 33.358707
-50.91407 20.59714 34.314156
-50.60061 21.315683 27.921175
-50.58138 21.279282 28.28657
-50.605717 21.04508 29.13791
-51.051445 21.43102 31.841825
-51.258793 21.37389 32.548283
-51.148624 21.41859 33.312893
-50.7961 21.446177 34.06044
-50.628677 20.9498 34.856297
-50.952953 21.810822 31.950987
-50.970955 21.911041 32.6298
-50.884384 21.916424 33.22395
-50.73179 21.843931 33.900726
-49.61042 -3.8340254 25.809477
-49.80476 -3.943479 26.732458
-49.890934 -3.9666772 27.39815
-49.781464 -3.9506774 28.077185
-50.416077 -3.6793444 31.76285
-50.47327 -3.6450818 32.415585
-50.275482 -3.5753284 32.986786
-49.647835 -3.1234205 25.21134
-49.791187 -3.346624 25.676233
-50.01794 -3.352001 26.580433
-50.13085 -3.3527098 27.48361
-49.792107 -3.5062964 28.515947
-50.361687 -3.2991517 31.047274
-50.40084 -3.251162 33.24896
-49.96859 -2.8949502 33.778214
-49.8934 -2.69443 25.639786
-50.125805 -2.780264 26.721922
-50.214672 -2.5477276 27.253569
-50.07376 -2.4139931 28.802748
-50.502934 -2.2671711 30.170666
-50.23724 -2.5184774 33.73275
-49.753536 -1.9058453 25.517155
-50.003033 -1.6259004 26.465948
-50.023834 -1.3898234 27.50467
-50.146523 -1.6260877 28.579927
-50.53693 -1.7660207 33.4537
-50.017124 -1.794903 33.72571
-49.71947 -0.45399305 26.796377
-49.873543 -0.7803757 27.639147
-50.094833 -1.0623808 28.099318
-50.37366 -0.27597094 30.151083
-50.028667 -0.95764315 33.12996
-49.63069 0.05167617 27.433762
-49.689594 0.6383906 29.805796
-50.10998 0.28630236 30.481936
-50.259808 0.3906495 31.1296
-50.276073 0.18474168 32.22123
-49.849606 1.3487782 30.819542
-49.963146 1.4306828 31.317163
-50.16183 1.5850953 32.41597
-50.08716 1.6193216 33.43896
-49.92921 2.0645187 37.63343
-50.020134 1.9900702 38.475292
-49.757988 1.7909057 39.16512
-49.586308 2.9510005 20.497684
-49.855118 2.921248 21.638279
-49.861866 2.9880028 22.64567
-49.973755 3.2640445 23.314968
-49.73641 3.0407605 23.850224
-50.0579 2.438249 32.52378
-50.124786 2.4816475 33.406723
-49.915684 2.5488458 34.4859
-49.59597 2.760984 34.91914
-50.09908 2.578949 36.647274
-50.354305 2.6558151 37.489563
-50.347347 2.7020855 38.61367
-50.054646 2.6128612 39.249516
-49.718685 2.7001808 39.756493
-49.766636 4.2258883 19.35202
-50.0719 3.6715178 20.80882
-50.146446 3.6446564 21.677488
-50.16877 3.6720998 22.51912
-50.170643 3.6993315 23.545263
-49.968372 3.7915096 24.139639
-49.954315 3.2890928 32.810093
-50.10332 3.200419 33.370354
-49.89383 3.5898347 34.57964
-50.06668 3.6534154 35.368244
-50.481403 3.656782 36.33143
-50.23193 3.5574653 39.230312
-49.78219 3.566083 39.739697
-50.2006 5.100238 18.79151
-50.314526 4.7181726 19.336517
-50.388474 4.4575624 21.423492
-50.319027 4.2966914 22.50385
-50.35893 4.497027 23.407852
-50.042187 4.436775 24.221518
-49.677666 4.619328 33.132656
-49.625076 3.99219 33.27727
-49.946796 4.8380103 34.639027
-50.003822 4.3194156 35.50829
-50.32666 4.596384 36.368477
-50.098373 4.3217077 39.207165
-49.926567 6.0903482 17.09262
-50.071327 5.788222 17.542233
-50.291744 5.594743 18.502155
-50.29968 5.3987575 21.655767
-50.293953 5.1162114 22.537624
-50.161987 5.2374697 23.279884
-49.787025 5.2002373 24.28889
-49.55591 5.5085397 33.561497
-49.730183 5.501485 34.791817
-49.841675 5.469694 35.573334
-50.308926 5.2699547 36.560314
-50.50072 5.292461 37.28683
-50.378662 5.1465883 38.36035
-50.066483 4.9670258 38.93193
-49.98993 6.6423388 17.011705
-50.420105 6.425696 17.766659
-50.493217 6.3637815 18.59
-50.423264 6.518908 21.42978
-49.689987 7.2823462 25.557426
-49.630726 7.219793 26.262444
-49.643433 5.9420714 34.244404
-49.892838 6.0978594 36.589676
-50.061516 5.90678 37.60141
-50.00759 7.290152 17.192667
-50.236374 7.314457 17.59743
-50.46686 7.5094857 18.387005
-50.505363 7.738155 19.240574
-50.43782 7.5438538 20.586737
-50.309845 7.3097663 21.213701
-49.977383 7.846395 23.157728
-50.12534 7.8631816 24.488432
-50.120293 7.7743306 25.729815
[...]
POINT_DATA 12548
SCALARS features_00 float 1
LOOKUP_TABLE default
0.6422981 0.69817567 0.7059847 0.6679902 0.60624325 0.68183464 0.7545868 0.73848003 0.6326948 0.6388627 0.71388006 0.7131984 0.6566973 0.6955047 0.6877035 0.64295465 0.77552986 0.7077753 0.75530005 0.6799898 0.70300186 0.3410144 0.31008083 0.29582876 0.31867743 0.34990734 0.35085806 0.31402647 0.2805055 0.28185946 0.30734712 0.337833 0.2841449 0.24801236 0.22376609 0.2627052 0.29599768 0.27952093 0.23540366 0.23597425 0.32058614 0.33201912 0.37211907 0.32052547 0.6529837 0.60630995 0.55232584 0.48723584 0.20239808 0.28473294 0.37133014 0.42494345 0.40249118 0.33430037 0.6765202 0.5603415 0.5291283 0.4532581 0.18929935 0.2674414 0.34645772 0.40472987 0.3957196 0.57144475 0.57673943 0.504979 0.29793143 0.3384851 0.5458728 0.5955603 0.59656507 0.56278265 0.5700151 0.61681664 0.6217357 0.5746887 0.5164077 0.8281599 0.7291832 0.7813171 0.8280535 0.86810243 0.6424917 0.6867274 0.7956762 0.8138836 0.370345 0.43477392 0.5956062 0.6840271 0.7257195 0.35762697 0.4745245 0.58800733 0.61275154 0.57139224 0.62977743 0.5147615 0.57525516 0.62978894 0.6397295 0.3493908 0.3266995 0.47217256 0.5585109 0.6115066 0.63571125 0.39487606 0.39327785 0.37792635 0.32638785 0.5298885 0.5701295 0.43152255 0.42574775 0.41499913 0.37583566 0.31952643 0.43216187 0.40517694 0.3496818 0.24967143 0.2917844 0.2735569 0.25701207 0.3230673 0.33895636 0.3174019 0.3013054 0.28492448 0.25513053 0.3160947 0.2731446 0.22904822 0.21400851 0.24486129 0.18504798 0.23106734 0.25921658 0.18560115 0.31533638 0.4473848 0.18706888 0.18158591 0.18189761 0.26284742 0.612952 0.516612 0.40797728 0.3635782 0.21679646 0.16738251 0.17468345 0.16016713 0.51847756 0.37985885 0.15013376 0.16200674 0.3226004 0.17679304 0.19609179 0.4225781 0.41683966 0.20423312 0.2300775 0.3147781 -0.18234757 -0.12975419 0.040046953 0.45991814 0.13949695 0.13904282 0.19163027 -0.07197289 -0.037776303 -0.070924684 0.33389574 0.13849035 0.12118467 0.18673846 0.11649549 0.085875235 0.0059458315 0.016878052 0.35732222 0.2566712 0.22167374 0.15929636 0.10786962 0.119492844 0.27042708 0.36460358 0.28510463 0.20274745 0.40862262 0.33908677 0.24653482 0.18963803 0.28046632 0.41836703 0.4349207 0.3580578 0.48762962 0.47273546 0.3773724 0.40297467 0.44145948 0.44027996 0.39681655 0.3025654 0.41467512 0.43438298 0.42730784 0.3993767 0.5456722 0.57170147 0.5605063 0.52268195 0.7936406 0.844518 0.855559 0.5125126 0.5269341 0.5464891 0.5401236 0.5036592 0.72898066 0.8696264 0.80640215 0.47740898 0.49192035 0.44741988 0.28988788 0.44982386 0.8052561 0.39523605 0.33986565 0.25365865 0.20047694 0.72580343 0.6841456 0.19374572 0.18153688 0.17338131 0.17517868 0.5544722 0.13576734 0.032115556 0.14297017 0.19469947 0.2931337 0.0662381 0.090349406 0.17736146 0.21709888 0.52075714 0.63302094 0.6685975 0.16144235 0.18408224 0.2539332 0.3407247 0.32939267 0.1720365 0.19085786 0.18865557 0.18638927 0.38667038 0.53642046 0.6398372 0.65762985 0.66113263 0.19014376 0.2069443 0.2434436 0.31283784 0.39109868 0.38641575 0.1446898 0.15975916 0.17893255 0.22422315 0.38659012 0.6404358 0.6399003 0.31527352 0.28057802 0.27812973 0.33509278 0.41667765 0.3995838 0.08455494 0.12116731 0.116267756 0.20672481 0.34727108 0.6211384 0.39568502 0.38570035 0.3697428 0.2962889 0.31524813 0.3729251 0.34795022 0.035699952 0.08750843 0.17750639 0.35620368 0.46719944 0.5752916 0.5903268 0.41973138 0.4265598 0.41957504 0.28677702 0.14299822 0.17132208 0.0013287496 0.31875947 0.47144842 0.41817507 0.42450544 0.4122957 0.37967855 0.31205356 0.25990045 0.074414596 0.16858682 0.20698512 0.23786329 0.2260569 0.21322043 0.18795143 0.3750456 0.369317 0.3329131 0.24731761 0.15081203 0.17229737 0.2530911 0.1916499 0.21510391 0.2543945 0.27564025 0.26716632 0.29122767 0.272167 0.20964278 0.09405731 -0.012178004 0.16795114 0.19096255 0.25743923 0.28522715 0.2532701 0.047083255 0.09158705 -0.12043627 0.13854909 0.21808381 0.24281582 0.048947077 0.011340307 0.09770004 0.104002744 0.22337021 0.18328963 0.075244516 -0.0024596378 0.101332285 0.1938523 0.27215275 0.29875144 0.20151217 0.20603532 0.28465426 0.12620759 0.19083509 0.27521738 0.31174436 0.2618817 0.2299104 0.07330075 0.29954952 0.25813708 0.30357105 0.364881 0.3844763 0.4778677 0.33423173 0.32392013 0.25880256 0.12774009 -0.024215378 -0.026493464 0.202939 0.34110272 0.39434534 0.49402884 0.5495137 0.30207253 0.20053533 0.121293314 0.09007755 -0.054754093 0.2007609 0.24275857 0.5350106 0.5778978 0.5998659 0.23543091 0.0910531 0.1209793 0.14414757 0.094494365 0.14139238 0.04047535 0.013437927 0.27060127 0.45152262 0.5930845 0.6045552 0.21748562 0.19275853 0.07946371 0.13202234 0.31989968 0.20262378 0.55774033 0.25178584 0.11402472 0.14539945 0.06736 0.29106188 0.3811981 0.41870242 0.41179615 0.3556823 0.3594241 0.37720147 0.40061653 0.38183284 0.53350973 0.52633244 0.5140133 0.40359992 0.22078018 0.23879603 0.3418082 0.37885112 0.5657866 0.573822 0.5638869 0.5024713 0.37103838 0.3272215 0.4036678 0.39928883 0.36108094 0.57699674 0.5669791 0.37662503 0.35853636 0.31712574 0.5077391 0.53226227 0.543048 0.5648225 0.53764427 0.48701274 0.3988867 0.71206534 0.7550932 0.76307094 0.5260516 0.5384306 0.47947747 0.7682458 0.7613932 0.49890256 0.7004566 0.30855072 0.27670607 0.5550014 0.069029756 0.10658135 0.19315046 0.3056742 0.22185768 0.17554086 0.0972904 0.062553756 0.07294053 0.021892844 0.115567975 0.11672403 0.10325416 0.06559339 0.06490882 0.6250547 0.6573619 0.22592305 0.18940435 0.15061212 0.08629797 0.0746586 0.13963255 -0.10674223 0.09154531 0.1045453 0.084378205 0.009311374 -0.027951762 -0.015673937 0.004123494 0.11582406 0.33148482 0.45278686 0.6299247 0.67086804 0.6667294 0.19031239 0.19612926 0.18209648 0.1539865 0.14333832 0.17594445 0.29374236 0.07571969 0.21332553 0.66977274 0.66424847 0.1439465 0.12437749 0.14521651 0.32282883 0.3122508 0.050776806 0.65069443 0.1965023 0.21229438 0.3594669 0.3311016 0.0409618 0.050247557 0.07056735 0.6056156 0.62028694 0.2763573 0.33107615 0.09159751 0.10035765 0.08573206 0.018237941 0.5266587 0.57002044 0.38497686 -0.02377642 0.13348606 0.16443576 0.12855968 0.12069403 0.019719364 -0.010608077 -0.011165652 0.36849082 0.47058547 0.37017336 0.19937778 0.1460276 0.1393258 0.015633717 0.28996345 0.33145308 0.095319524 0.19216417 0.29218125 0.27612266 0.24107006 0.15951636 0.07718544 0.036061406 0.0842334 0.14417408 0.035130884 0.34279197 0.39810416 0.18070403 0.095195815 -0.041215416 0.03711485 -0.14679445 -0.13555059 -0.03305768 0.102635786 -0.07161914 -0.12198043 0.12181573 0.3092584 0.37359488 0.39001817 0.109044425 0.013059415 0.18099736 0.084560566 -0.17827551 0.1109608 0.23548147 0.28701243 0.36114463 0.37247738 -0.05998052 -0.13577303 -0.18539903 0.089645594 0.30127624 0.3119378 0.21100548 0.00086094067 -0.0884645 0.3356696 0.39973602 0.2599813 0.41242725 0.4555681 0.31793872 0.5489358 0.5623962 0.3177325 0.11447109 0.6073316 0.6009824 0.28423524 0.2719226 0.1456523 0.09571624 0.043537445 0.020723172 0.59748566 0.6040625 0.29365012 0.27137434 0.11252103 0.48992604 0.5460179 0.30528885 0.26691997 0.3367364 0.25726447 0.26617986 0.23299998 0.3404417 0.30101836 0.53170997 0.29345152 0.3592118 0.3345661 0.5460783 0.5595927 0.4795321 0.29162362 0.26121736 0.22651987 0.3287073 0.55301833 0.5339787 0.33436674 0.29926062 0.29041788 0.25640142 0.524626 0.47484422 0.4343173 0.5231789 0.50995123 0.5922699 0.51098025 0.43372223 0.6612012 0.6832602 0.49853873 0.6550541 0.07082401 0.11298627 0.49792692 0.019658398 0.051515996 0.05845246 0.20428774 0.12336877 0.0792044 0.2952115 0.48835218 0.59513247 0.6362963 0.1704938 0.20565334 -0.0010902779 0.036912017 0.34543344 0.65784025 0.65142393 0.15746975 0.20376872 0.07159466 -0.12442047 0.64020836 0.6357253 0.05629238 0.09999028 0.007031275 -0.1894047 -0.14856502 0.6334312 0.6096792 -0.009085711 0.21176109 0.031490818 0.6149643 0.3018391 0.2308416 -0.07024856 0.14278983 -0.110883445 -0.080585495 -0.14675482 0.025439974 0.5534996 0.37821376 0.30947596 0.14332557 0.15249088 0.08674429 0.35778773 0.38218915 0.38061276 0.3498602 0.21350288 -0.20640229 0.0818544 0.1741877 0.35233015 0.3224909 0.17512289 0.18823685 0.35985363 0.40362334 0.3932233 0.33736172 0.31682673 0.2547201 0.25312948 0.40448505 0.40359694 0.20471793 0.19960271 0.07507209 0.40484542 0.38691944 0.19026312 0.162723 0.10684068 -0.13805468 0.39772266 -0.0044043735 0.42754984 0.48541722 0.50491995 0.165468 0.24574733 0.5622506 0.32257196 0.2758097 0.59516203 0.33092982 0.30278957 0.59252477 0.34076002 0.32898086 0.3168037 0.5251635 0.540084 0.35020658 0.3246558 0.21444619 0.20675701 0.358736 0.41795152 0.47682315 0.28808582 0.24638818 0.2526303 0.20025036 0.28842607 0.20154373 0.112791166 0.39359045 0.31340912 0.24775878 0.41275302 0.20302325 0.2933553 0.4735152 0.47373986 0.3147401 0.21211834 0.20924102 0.26043728 0.23525214 0.22495916 0.18942992 0.22220513 0.85170937 0.87586784 0.88458425 0.81362975 0.83387303 0.8424164 0.79206204 0.74907506 0.801034 0.7573472 0.70767826 0.6460758 0.7536991 0.656462 0.5387069 0.5462825 0.6287761 0.45027888 0.42010468 0.040310934 0.18529752 0.44581988 0.4623415 0.4620962 0.43239316 0.40105557 0.37220657 0.34239793 -0.0016572028 0.050167017 0.25431705 0.43797344 0.59904045 0.4214093 0.42949903 0.4501515 0.4140096 0.38354594 0.33547276 0.5644492 0.36702836 0.36705488 0.101162285 0.078393504 0.07215462 0.32453817 0.23373488 0.14335842 0.16074763 0.05455441 0.010248549 0.13934174 0.1860996 0.14669837 0.14236632 0.069606066 0.01991956 0.5530323 0.14908083 0.58822954 0.60307884 0.09228248 0.14022787 0.5662967 0.54759604 -0.017005317 0.080885544 0.5323498 0.56834936 0.380907 0.24040407 0.018477157 -0.31470987 -0.16669968 0.56607765 0.43968207 0.35760307 0.3011729 0.10609537 -0.2724448 -0.19735357 0.40710992 0.4184211 0.40225708 0.35142875 0.38339263 -0.13659498 -0.06486954 0.32778853 0.34881747 0.1852301 0.368832 0.3718319 0.32033297 0.32794276 0.32552284 0.3117965 0.3713922 0.31995368 0.31225 0.29660434 0.21170892 0.056928843 0.13202472 0.35407257 0.29108885 0.102447435 0.13954255 0.37348816 0.36842504 0.0811989 0.37641898 -0.27278814 -0.106018186 0.41842172 -0.09331582 0.46414888 0.28411984 0.5148055 0.34746858 0.34117222 0.5301403 0.34792328 0.35441735 0.5450147 0.3397711 0.34362048 0.49957746 0.34184805 0.3579145 0.32126504 0.19966947 0.40997648 0.4539417 0.30340874 0.15849747 0.19463491 0.18759932 0.32902637 0.16841891 0.20023388 0.17163143 0.13717386 0.26080918 0.15490404 0.30145764 0.23265126 0.22415197 0.1508497 0.1483931 0.17496222 0.26478526 0.2734416 0.17771575 0.09213276 0.16204113 0.13913965 0.8552178 0.8973725 0.9251244 0.8838513 0.7649854 0.80841625 0.7826861 0.76675874 0.6877116 0.6590973 0.60710275 0.538308 0.44649166 0.26175866 0.32572752 0.1066982 0.22832835 0.25948435 0.4427482 0.45087442 0.42452842 0.4007109 -0.046783395 0.09631075 0.4354989 0.43950057 0.46161413 0.45724252 0.4236102 0.40473783 0.3445166 -0.25293642 -0.009840053 0.42634267 0.4237106 0.095059775 -0.03001689 -0.06660644 0.23108083 0.618679 0.41582856 0.3714984 0.21381307 0.20765588 0.17952597 0.61808753 0.18057565 0.15863724 0.15308625 0.09893009 0.13650581 0.024148166 0.059230164 0.33702397 -0.038696982 0.4388442 0.41577163 0.41522783 0.37187552 0.34487376 0.48411733 0.4121378 0.44233084 0.4459603 0.33903965 0.37228724 -0.14194176 0.32086352 0.3200606 -0.21334285 0.3087418 0.3163612 0.24196874 0.3244922 0.32016712 0.25400883 0.33640134 0.32166073 0.31363997 -0.05412643 0.31505266 0.28157538 0.24661936 0.19342893 -0.033963196 -0.0699936 0.100216925 0.28287065 0.102903344 0.2638578 -0.21087123 0.29451925 0.13525164 -0.055975866 0.2122999 0.3007663 0.28573936 0.25152016 0.3792153 0.31549984 0.33893347 0.46304068 0.31007773 0.33813098 0.44007814 0.32680225 0.31055263 0.44089457 0.2941749 0.2833868 0.2860706 0.38551235 0.42475778 0.2938934 0.2827239 0.24377026 0.15252157 0.028277352 0.028927617 0.07695207 -0.13489026 0.27825728 0.3040168 0.088474125 0.1688962 0.040521137 0.15598047 0.05268369 0.009509444 0.08514548 0.26073846 0.31217307 0.18184935 0.28251454 0.31052795 0.23092109 0.07504635 0.06443174 0.109309405 0.13172053 0.38934842 0.31880227 0.29302472 0.24722543 0.84569216 0.9163332 0.96206427 0.9165782 0.7253603 0.8047689 0.7517854 0.6556027 0.6057962 0.34274465 0.45558506 0.33267143 0.39792448 0.6348636 0.6783439 0.6961503 0.008016951 0.22244337 0.62894547 0.6516209 0.67644083 0.40496984 0.42054313 0.4230696 0.4214384 0.3568638 0.30158347 0.5725949 0.64300984 0.4162531 0.42251217 0.2567298 -0.2761765 -0.48117197 -0.22318222 -0.3089985 0.46882576 0.51196766 0.56893796 0.5812347 0.5758735 0.403966 0.4268427 0.03536828 -0.01906163 -0.42492032 -0.5319526 -0.011060074 0.23560873 0.47242773 0.54736733 0.60737956 0.6111586 0.6041045 0.58440244 0.40086558 -0.18842733 0.19243607 0.15217955 0.56190073 0.61353457 0.61105573 0.5983801 0.5720189 0.37238854 0.56731755 0.5653138 0.5397809 0.34251612 0.26505062 0.07838486 0.14962435 0.17409666 -0.14238486 0.0035412908 0.50586337 0.39467782 0.28007522 0.34602475 0.23932566 0.3003139 0.23889548 0.2984033 -0.15540813 -0.018439714 0.2789341 0.2840237 0.14890604 0.2999559 0.3219905 0.15494657 0.30323878 0.3333335 0.30233642 0.2877123 0.24401695 -0.017482705 -0.004605256 -0.10662993 0.14416559 0.15925477 -0.33001465 0.2677424 0.23603618 0.18803957 0.010394886 -0.1984272 0.052420124 0.16644381 0.15531957 0.2803046 0.2969687 0.2740374 0.14473723 0.2771997 0.31221014 0.2469212 0.26051232 0.27214363 0.25227562 0.26823327 0.15682001 0.07770303 -0.091409035 -0.09625028 -0.21248415 0.15997452 0.19013172 0.1929402 0.16560309 -0.048383642 -0.016734108 0.061145797 0.043262973 0.042565413 0.026208451 0.10735488 0.12610911 0.35528374 0.15870804 0.18749392 0.23900539 0.14003503 0.048334025 0.060756873 0.43141103 0.47811222 0.43425462 0.29208437 0.29094377 0.228345 0.7893126 0.8441903 0.86348796 0.8478671 0.7415229 0.67541814 0.50091374 0.4189752 0.39310342 0.7357527 0.78774136 0.7867427 0.034199215 0.35633072 0.60529464 0.69952404 0.7417133 0.71156573 0.3418433 0.3749116 0.35208035 -0.02573426 0.2529767 0.5685749 0.64994836 0.6513836 0.31508142 0.34518975 0.24826188 0.2164689 -0.07007249 0.04471509 0.4857793 0.5608655 0.57224905 0.64392483 0.34145987 0.09674047 -0.519223 -0.09763817 -0.08299382 -0.16953951 0.23897113 0.65670013 0.64179766 0.39405113 0.39532763 0.45778006 0.48929965 0.54374504 -0.19906807 -0.11191349 0.18992442 0.1957077 0.62258947 0.59640455 0.4149292 0.5586902 0.2372554 0.1376698 0.013371155 -0.069084816 0.12753455 0.41760534 0.48663735 0.49430472 0.4368269 0.4655853 0.52171934 0.50658077 0.25205982 0.29425138 0.18387015 0.3301539 0.052756373 0.14253797 0.4621136 0.4725724 0.32336596 0.46681625 0.4775113 0.30584842 0.35384998 0.32617778 0.22457112 0.2866213 0.40406948 0.3736283 0.38266808 0.44629192 0.362585 0.3683092 0.34596232 0.37053186 0.2646165 0.23994339 0.28210685 0.44162747 0.38194656 0.049056977 0.34045333 0.20353411 -0.27472258 0.16805026 0.44472244 0.45295823 0.42146873 0.29395133 0.21216492 -0.04579071 0.23107783 0.44301373 0.4821952 0.5161309 0.49066684 -0.26169458 0.062168777 0.17670844 0.18955556 0.443848 0.44220078 0.41876134 0.36469513 0.13851818 0.052131884 0.34036556 0.41262758 0.43830052 0.48197648 0.5130396 0.48778147 0.33520347 0.28599247 -0.11383945 -0.045500252 0.4201842 0.40353101 0.3689561 0.24248247 0.3039285 0.26891273 0.43405986 0.45204502 0.45843607 0.45676476 0.4134953 0.2772311 0.33428985 -0.0591607 0.012964487 -0.0010755062 0.22837466 0.24209598 0.24189484 0.34622198 0.37033692 0.1965438 0.061466895 0.2439804 0.25425094 0.24778283 0.16082394 0.2245723 0.047181275 0.07569678 0.11212649 0.25638244 0.23392981 0.28576428 0.46799976 0.4733755 0.15511303 0.20006673 0.3565244 0.43694308 0.524031 0.4671216 0.32496858 0.275968 0.2603386 0.33431563 0.529364 0.582505 0.51381326 0.419053 0.34606963 0.29515237 0.22063561 0.24716453 0.45915875 0.5921896 0.33130324 0.3114228 0.1461383 0.08104569 0.11041289 0.19699505 0.21281616 -0.42906213 -0.53307956 0.2416407 0.1593707 0.11037801 0.15171342 0.053247 0.22645801 0.22909848 0.057042044 -0.24250054 0.2015815 0.3047338 0.24844548 0.22081392 0.25695333 0.23710819 0.1892958 -0.18759722 -0.23857832 -0.14945121 -0.1172436 0.31945282 0.3779916 0.35270694 0.3897403 0.4278024 0.3834508 0.31429088 0.21242884 0.21804881 0.20500582 0.15353379 -0.016164638 0.42598057 0.43459335 0.3992626 0.46201533 0.46498924 0.43026656 0.14740115 0.20712397 0.2163278 0.44250816 0.4497642 0.45040822 0.4442102 0.45673153 0.3807914 0.2129015 0.43630773 0.40911314 0.43691945 0.16375023 0.24999017 0.10452406 0.503685 0.50129455 0.5136419 0.19026262 0.5771842 0.59458363 0.56020284 0.15451527 0.22297178 0.22226027 -0.20045422 -0.21128969 0.009537235 0.19616482 0.13732386 0.116176575 -0.0328464 -0.06627388 0.022300582 0.04182343 0.07070235 0.3260871 0.14976785 0.1420696 0.107524544 0.21301712 0.5014782 0.48489192 0.24175483 0.2636966 0.20913523 0.48640776 0.51307005 0.7720684 0.7571702 0.7157672 0.6454644 0.6990225 0.5318516 -0.12196618 0.33304703 0.40412456 0.35489267 0.2913264 0.8642452 0.8699239 0.8352455 -0.0442176 0.25851145 0.6386012 0.76894134 0.8014207 0.74609035 -0.2535074 0.1865003 0.5566035 0.71586746 0.63481593 0.5745344 0.20696837 0.25811315 0.18327305 0.023197427 -0.26840705 -0.3653314 0.12137403 0.3592555 0.4913722 0.4998833 0.6518154 0.64408314 0.36701342 0.50655353 0.46346605 0.51302826 0.21923563 -0.023507863 -0.2828734 0.06220246 0.023326218 -0.017659385 0.12160478 0.38100576 0.6652372 0.6663255 0.6394405 0.5692029 0.2999177 0.3099338 0.29150146 0.28296176 0.33154136 0.37663406 0.37989056 0.23515138 0.23745057 -0.12658837 -0.28523144 -0.32340506 -0.30102122 0.26850486 0.12092002 0.30615935 0.46089822 0.4884617 0.6392052 0.6651906 0.52659106 0.30539876 0.40800893 0.20683435 0.26874667 0.23634642 0.2720591 0.17399406 -0.056872874 0.03912602 -0.2721188 0.32811785 0.5164336 0.51834124 0.5924783 0.60070884 0.4938587 0.4633944 0.17781675 0.17395283 0.12828566 0.50403947 0.5128153 0.48041776 0.18926783 0.13599177 0.20703223 0.4724347 0.48577183 0.22672841 0.43434966 0.20072648 0.16855367 0.16719875 0.33503067 0.15892854 0.057389632 0.30172753 0.41006008 0.42559308 0.42265987 0.28057182 0.26769397 0.13477372 0.06461847 0.4187655 0.44125468 0.3426965 0.2459462 0.41795766 0.29386258 0.1735196 0.35249656 0.37561017 0.34521174 -0.2544563 -0.03922093 0.40078393 0.39565548 0.3866887 0.19517346 0.040323064 0.09044425 0.36890203 0.36734766 0.28790912 0.20006898 0.20065911 0.18358408 0.087962106 0.115469605 0.21808189 0.3260731 0.17122379 0.11756405 0.089017555 0.19322672 0.15335786 0.035315894 0.11872223 0.26999557 0.38738886 0.18711007 0.022090971 -0.042238943 0.0841968 -0.2015729 0.3352277 0.49465743 0.5449956 0.63386595 0.5316975 0.35027042 0.25968608 0.1615986 0.0716007 0.030478237 0.10047318 0.532492 0.5790385 0.704417 0.6628934 0.59963256 0.42634857 0.2373978 0.11246844 -0.10957807 0.6131751 0.7120755 0.6591184 0.55269945 0.13394673 0.057781193 -0.0531689 0.004313983 -0.08493061 0.59489715 0.62848127 0.6038394 0.5211717 0.12868842 0.04286562 0.10967015 -0.1149099 -0.117056504 -0.09755702 -0.6904942 0.2716792 0.20245224 0.2945522 0.13917252 0.037832137 0.05016645 0.15600416 0.22325525 -0.14707887 -0.1293568 0.008978894 -0.3735865 0.2387574 0.23868783 0.2415122 0.13241634 0.07275553 -0.0018223822 0.15030818 -0.22668871 0.057851568 0.36449248 0.21999717 0.22124042 0.22162977 0.106934965 0.01564566 0.03652297 0.17797136 0.11638783 0.09227631 0.26475897 0.34170777 0.40719277 0.18216425 0.2191562 0.1676905 0.121657014 0.13724288 0.07698469 0.27951878 0.3863266 0.43184778 0.3926292 0.2584245 0.32546505 0.3346429 0.23689742 0.22212254 0.26872212 0.44060898 0.4467363 0.42498946 0.3863486 0.32976544 0.34244776 0.3854037 0.3942529 0.37119663 0.3708896 0.11116792 0.17470431 0.43256754 0.4673734 0.4609971 0.495794 0.41924155 0.054668896 0.12155164 0.6178665 0.6094372 0.62299776 0.5827054 0.55916274 0.0831744 -0.38295138 -0.44574493 -0.081549734 0.7528399 0.72361016 0.6953579 0.6805557 0.19303529 -0.058164325 -0.101