# vtk DataFile Version 2.0
Really cool data
ASCII
DATASET POLYDATA
POINTS 12540 float
-20.62712 16.984926 45.81284
-20.674885 16.971827 46.352814
-20.648146 17.578976 45.76672
-20.731264 17.59119 46.381966
-20.59872 17.322464 47.06746
-20.594975 18.25383 45.578686
-20.754679 18.107939 46.58429
-20.62734 18.900484 46.97851
-20.590807 19.531832 46.1168
-20.659664 19.574694 46.359444
-20.656178 20.307945 46.8318
-20.628767 20.503468 47.27159
-20.569881 21.319687 47.61912
-19.655521 16.161125 44.35477
-20.092459 15.908228 45.818573
-20.097008 15.913527 46.173954
-19.663733 15.802335 47.412846
-20.08268 16.553629 44.848995
-20.407417 16.607622 45.442047
-20.466227 16.521088 46.33324
-20.243216 16.636427 47.178444
-19.794628 16.43233 47.786495
-19.686678 17.24545 43.97123
-20.07747 17.557257 44.56917
-20.532682 17.684708 45.494358
-20.476225 17.66296 47.273846
-19.963001 17.427256 47.760548
-20.124893 18.320206 44.897373
-20.398844 18.405825 45.271435
-20.343319 18.44202 47.40391
-20.149448 19.532764 45.240246
-20.283417 19.299303 45.48951
-20.515156 19.996475 47.609722
-20.350378 20.219196 45.760685
-20.184576 20.657482 48.472977
-19.911816 20.871975 48.93321
-20.141207 21.63994 45.845547
-20.352081 21.334671 46.29885
-20.487917 21.211813 47.580193
-20.317411 21.49513 48.37013
-19.989073 21.444555 48.899784
-19.643312 22.134136 44.9741
-20.013086 22.255526 45.533134
-20.224804 22.3313 46.49097
-20.258339 22.211357 47.63956
-20.110657 22.115715 48.35226
-19.889868 22.019014 48.731
-19.611738 23.219555 45.083767
-19.724657 23.382353 45.73486
-20.047235 22.994347 46.665073
-20.036268 22.87239 47.28842
-19.620539 25.053932 44.882526
-19.581038 24.881023 45.471455
-19.584524 24.258831 46.62316
-19.57326 25.987919 44.128906
-19.709732 25.771675 45.074333
-19.569656 26.073072 44.132088
-19.647116 26.405985 44.63512
-19.665667 26.394611 45.1187
-18.682405 14.994154 43.46327
-18.6844 14.556333 44.6206
-19.052155 15.154922 47.31468
-19.130821 15.814734 43.828144
-19.198925 15.395418 44.58167
-19.647467 15.459279 45.621056
-19.477793 15.583296 47.45656
-19.089983 15.698262 48.028797
-18.922482 16.563856 42.70044
-19.353312 16.77627 43.582436
-19.24167 16.46984 48.20599
-18.662596 17.954008 34.735603
-18.688108 17.810156 35.307926
-18.635052 17.8378 36.11235
-18.993313 17.19633 43.05651
-19.35541 17.438608 48.165924
-18.699654 18.388435 34.69637
-18.772482 18.365055 35.44911
-18.639482 18.494925 36.351105
-18.577848 18.181509 36.950367
-19.393599 18.132244 48.09199
-18.672337 19.054756 34.783207
-18.64531 19.386784 35.412296
-18.544893 19.2425 36.468826
-18.6352 19.59418 42.774876
-19.13829 19.388937 43.73813
-19.547445 19.3454 44.317295
-18.659761 20.482832 42.457714
-18.896408 20.26927 43.55918
-19.60861 20.151285 45.111156
-19.355612 20.81879 49.209785
-18.746243 21.161308 42.777065
-18.755848 21.557516 43.24144
-19.483984 21.712677 44.639122
-19.573925 21.415934 49.186386
-18.617867 22.117563 43.43909
-19.35716 22.164179 49.011295
-19.13102 23.701042 44.826496
-18.95064 23.481806 48.397087
-19.194063 22.804193 48.837326
-18.91016 24.323532 48.208973
-19.276869 25.771318 43.843243
-19.457432 25.43265 45.57055
-19.354378 25.385283 46.620186
-19.12883 25.188103 47.490948
-19.05283 25.45354 47.908062
-18.792751 26.486198 43.328423
-19.264473 26.507198 43.785046
-19.497072 26.65537 44.21796
-19.466429 26.671001 45.577675
-19.12584 26.537907 46.293682
-19.127476 26.093246 47.426178
-18.809744 26.212727 48.03672
-18.956167 27.201073 43.732555
-19.331125 27.125448 44.499172
-19.322123 27.16369 45.275936
-18.870913 27.43338 46.382484
-18.81504 27.03895 47.228977
-18.880684 27.85741 44.701237
-18.794847 27.947435 45.378048
-18.668789 27.965082 46.31058
-17.87659 13.2760315 43.771656
-17.760046 12.961009 44.469376
-17.80232 13.155204 45.077866
-17.879192 13.945411 43.181435
-18.126945 13.784425 43.620434
-18.18844 13.619284 44.217575
-18.171238 13.835458 45.28561
-18.054113 14.649041 42.91811
-18.155146 14.5513935 46.281845
-18.676926 15.174283 47.607464
-18.532787 15.346392 47.994167
-17.787336 15.676866 42.089596
-18.48519 15.502741 42.846508
-18.509985 15.6819 48.21794
-17.813025 17.153355 34.1082
-17.989773 17.104855 34.673065
-18.15224 17.016926 35.467854
-17.81236 16.690855 36.241592
-17.96833 17.090847 37.249115
-18.20776 16.739265 42.055046
-18.564512 16.459667 48.41045
-18.048325 17.780666 33.96642
-18.344692 17.590597 34.533096
-18.491604 17.456057 35.421318
-18.416285 17.585756 36.435993
-18.268326 17.608486 37.328243
-17.888462 17.50069 37.903553
-18.514568 17.339754 42.40844
-18.420488 17.78787 48.34634
-18.227438 18.455177 33.936306
-18.448717 18.463394 37.333496
-17.991072 18.239773 38.14225
-18.295408 18.689638 48.480217
-18.052105 19.397999 34.024647
-18.358835 19.466934 34.528854
-18.471199 19.737688 35.57777
-18.431046 19.33756 36.44046
-18.317467 19.254385 37.18848
-18.048695 19.585123 41.9105
-18.290936 19.162529 42.601906
-18.40959 19.98721 48.995834
-17.854235 19.951363 34.16522
-18.025652 20.072956 34.5617
-18.075922 20.30298 35.368244
-18.080439 20.142038 36.385403
-17.864985 20.180595 37.555344
-18.017048 20.279121 41.39191
-18.562658 21.020058 49.400124
-17.820604 20.606586 35.50899
-17.671291 20.736675 37.20725
-17.652891 21.14152 40.752827
-18.418 21.312561 42.016098
-18.478615 21.786827 42.643105
-18.821884 21.591543 49.390915
-18.409647 22.60639 48.9573
-18.191624 22.79219 43.452007
-18.218544 23.49917 48.95474
-17.821182 24.140818 43.991894
-18.408272 24.658094 48.34497
-17.92923 25.918285 43.110588
-18.401005 25.675163 48.504646
-18.152458 25.412642 48.673336
-18.28344 26.65358 43.060196
-18.392147 26.2845 48.34236
-18.110619 26.117886 48.621
-18.042593 27.312084 42.975716
-18.561087 27.627415 43.5112
-18.290262 27.51811 47.525074
-18.32609 26.980736 47.96736
-18.21958 28.081602 43.66871
-18.24248 28.273739 44.422157
-18.27854 28.356031 45.543694
-18.311766 28.22612 46.541492
-18.038752 28.233398 47.032368
-17.891867 28.540926 45.341194
-17.92034 28.657835 46.203987
-16.964422 12.422892 44.65278
-16.916445 12.444033 44.993008
-17.115047 13.267306 43.048073
-17.159473 12.767479 43.81528
-17.340883 12.626366 44.58957
-17.154524 12.657935 45.21794
-17.000204 13.066605 45.827843
-16.90766 13.936623 42.54218
-17.638987 13.299149 45.530857
-17.176006 13.458344 46.030434
-16.80176 15.3927 36.92415
-17.674435 15.004156 47.161797
-16.945852 16.290579 34.677876
-17.123215 16.130047 35.881058
-16.995852 15.729244 36.698277
-16.870756 15.684076 37.4036
-17.901972 15.718482 48.054237
-16.800251 17.028393 33.184513
-17.080519 16.818592 33.7593
-17.215479 16.583767 34.475742
-17.453098 16.333054 36.13905
-17.223757 17.05581 38.342236
-17.750944 16.476421 41.93496
-17.895086 16.930153 48.390133
-17.000902 17.664429 33.08711
-17.522686 17.442202 33.568634
-17.218697 17.97105 38.989037
-16.89474 17.456568 41.194664
-17.456083 17.09652 41.824585
-17.101086 18.424002 33.057804
-17.506325 18.50271 33.4281
-17.173946 18.528831 39.76517
-16.93787 18.389393 40.568455
-17.214832 18.81029 48.305283
-17.012432 19.23088 33.189117
-17.443289 19.403034 33.568947
-17.297752 19.528215 40.068832
-17.793835 19.248138 48.511086
-17.944763 20.096495 49.016777
-17.39815 20.0864 33.963802
-17.477476 20.47734 34.544643
-17.494675 20.656452 38.27603
-17.373817 20.066969 39.957916
-17.37446 20.529491 40.514
-17.629639 20.724407 49.18844
-17.195843 20.67041 34.577953
-17.23596 20.95167 35.629253
-17.026531 21.40441 36.99805
-17.1808 21.198784 37.491566
-17.279812 21.319136 38.52602
-17.096905 21.743853 39.177414
-17.614916 21.295015 49.282642
-16.844103 22.066668 38.583714
-17.062098 22.142536 39.45455
-17.137615 22.362051 40.723457
-18.010698 22.164457 49.28469
-17.24292 22.817898 41.304592
-17.433676 23.379068 49.108265
-17.513996 24.752989 48.921085
-17.336569 25.86478 43.09712
-17.299706 25.658998 48.852676
-17.745516 26.165041 43.059204
-17.698483 26.694452 48.45696
-17.60225 26.400095 48.64588
-17.371384 27.568756 42.851208
-17.415894 27.258286 48.127625
-17.447598 28.014227 43.121586
-17.488785 28.401953 43.69246
-17.741516 28.507156 44.129673
-17.485828 28.340832 47.21908
-17.42347 27.898514 47.69141
-17.452044 28.578852 44.62348
-17.479738 28.689186 45.669292
-17.407204 28.67683 46.4956
-17.488026 28.62817 46.889614
-16.395826 12.396621 44.01618
-16.588728 12.321127 44.404697
-16.559715 12.3833275 45.043236
-16.205343 13.005448 42.85976
-16.343973 12.608754 43.596626
-16.572536 12.556862 45.42902
-16.616653 12.81193 45.761272
-16.213564 13.412087 42.384075
-16.768187 13.884164 46.438328
-16.170624 15.389152 36.054962
-16.067455 15.193765 36.54508
-16.335613 15.278177 37.372982
-16.65807 14.195649 46.51487
-17.019814 14.711945 46.806705
-16.149939 16.315826 33.576313
-16.377592 16.097675 34.354748
-16.453634 15.587416 35.935516
-16.656452 15.457359 36.434235
-15.688739 16.066145 39.13094
-17.09766 15.451789 47.41036
-16.198153 16.829926 32.99344
-16.544706 16.490059 33.552113
-15.728518 16.737186 40.64181
-16.736996 16.68148 47.51071
-16.328125 17.499338 32.73705
-16.67648 18.045437 47.693485
-16.239672 18.49817 32.6929
-16.189493 19.397215 32.844963
-16.824234 19.750648 48.371155
-16.281456 19.911049 33.12965
-16.179253 20.425909 33.574753
-16.283613 20.69806 34.014122
-16.38846 20.869165 34.54677
-16.106789 21.441734 35.88218
-16.75462 21.443289 36.473114
-16.916216 21.93103 48.75167
-16.370296 21.716322 36.902973
-16.358757 22.33733 37.897297
-16.553225 22.13757 48.617126
-15.938283 22.978806 38.43609
-16.33096 23.174892 39.709538
-16.538363 23.079279 40.186207
-16.667906 23.541697 48.97654
-16.125599 23.81187 40.635418
-16.385208 24.2024 42.48606
-16.690023 24.184942 48.892048
-16.649532 25.545082 48.809963
-16.29025 26.560616 48.50618
-17.026533 27.571243 42.901894
-16.714018 27.202303 48.179554
-16.811226 28.001318 43.214424
-16.836946 28.194416 43.579308
-16.704119 28.444363 44.563362
-16.503656 28.50959 46.499653
-16.68469 28.265232 47.11698
-16.691706 28.570724 44.955677
-16.740551 28.666227 45.562256
[...]
POINT_DATA 12540
SCALARS features_00 float 1
LOOKUP_TABLE default
0.47284144 0.50858617 0.4323407 0.46923462 0.5323473 0.3642647 0.43937278 0.3960347 0.3130799 0.32842213 0.35330316 0.39896592 0.45999876 0.3674512 0.5020913 0.54195803 0.6288625 0.4143331 0.45908 0.5317006 0.58792794 0.63828593 0.30599883 0.3389568 0.4036306 0.5316539 0.60268736 0.28737932 0.32125688 0.48515597 0.21789011 0.26317596 0.40202385 0.24890637 0.544186 0.5793086 0.25717524 0.3151409 0.45581907 0.5319449 0.55878043 0.120814145 0.2141888 0.33165407 0.47130817 0.5249217 0.5371475 0.15012094 0.20984562 0.30635086 0.40236196 0.3480415 0.31240684 0.2503717 0.5054305 0.43699256 0.5179777 0.5224311 0.49240282 0.35559866 0.42675018 0.54456764 0.33351314 0.35628855 0.4640106 0.6169968 0.6200226 0.29712456 0.30990714 0.64382744 0.61939675 0.5788246 0.537419 0.24867961 0.6065673 0.6536714 0.6021565 0.54720366 0.5057368 0.5469713 0.6614472 0.6066891 0.52084655 0.09785468 0.09327273 0.1280714 0.103023455 0.086712904 0.14238186 0.5824224 0.097645834 0.08894978 0.076737754 0.5597119 0.08714998 0.5175678 0.14952268 0.36477837 0.45602873 0.35519424 0.51246125 0.3780355 0.3707525 0.40478316 0.43140927 0.69777405 0.62677515 0.5833536 0.50513977 0.4938154 0.48027122 0.49121958 0.7152129 0.6144198 0.5752739 0.59045374 0.5685653 0.6823025 0.6418276 0.62003183 0.54856575 0.58874106 0.5841137 0.46371818 0.48896033 0.5360565 0.5483016 0.38965654 0.39443737 0.52993584 0.54499376 0.31934047 0.33754084 0.5746365 0.56183517 0.5263456 0.4955799 0.4451437 0.44830278 0.23238617 0.6103916 0.6302251 0.59202826 0.5429045 0.5057143 0.46118298 0.39332613 0.19406718 0.42653516 0.6801012 0.47470975 0.36014223 0.2654329 0.6439388 0.6429198 0.56678486 0.5133383 0.4560429 0.0473351 0.059898123 0.3913337 0.5853878 0.5753244 0.51930875 0.44311363 0.3240485 0.06360301 0.5348101 0.4680698 0.32075405 0.10536283 0.122589804 0.1048248 0.53413755 0.44528633 0.06581209 0.36114132 0.16459754 0.38161832 0.6399329 0.4559846 0.43922785 0.74935484 0.5057223 0.4991184 0.8147725 0.7952242 0.61354375 0.56709117 0.8023213 0.7234813 0.6477616 0.63373506 0.64362013 0.6549974 0.64488137 0.59493923 0.5949689 0.50027853 0.56312317 0.59357595 0.5880789 0.5354779 0.41852856 0.5594607 0.49684906 0.3095415 0.4012718 0.42328745 0.36986676 0.33124557 0.32376486 0.50694 0.6133118 0.55571944 0.4678716 0.39889073 0.31443304 0.21912381 0.47881478 0.64691705 0.6124743 0.17376503 -0.16933748 0.10302368 0.6537899 0.6629738 -0.033694156 -0.22955091 0.18090175 0.6157173 0.6138646 -0.030901477 0.2207532 0.34325615 0.5551697 0.49980125 0.18673706 0.05282709 0.057308137 0.38907728 0.45525128 0.38805062 0.27527064 0.2560268 0.1676728 0.14345099 0.44323143 0.1652658 0.15088895 0.14443375 0.4737724 0.13142958 0.38012612 0.4105933 0.6217598 0.4971542 0.6943462 0.56113535 0.5417277 0.81490135 0.6123761 0.8117765 0.7676335 0.7337765 0.65894914 0.6513507 0.6857846 0.64756656 0.650946 0.6548673 0.5532018 0.58319795 0.59083444 0.42925227 0.512293 0.57327455 0.5417963 0.36267406 0.39028436 0.3078324 0.2956922 0.2923251 0.34249485 0.31603032 0.54234624 0.43416938 0.32361096 0.31913581 0.10500397 0.34869742 0.6167097 0.55625224 -0.215808 0.28885043 0.6474631 0.15859541 0.6261946 0.6150391 0.19091848 0.59275085 0.5359116 0.46003532 0.3831476 0.22049265 0.2815974 0.3283149 0.21272832 0.18308082 0.26482522 0.17834978 0.1862521 0.17591599 0.34443915 0.13821849 -0.07429916 0.3914547 0.5191949 0.59828854 0.7864709 0.64152956 0.75448406 0.7406961 0.668955 0.64711124 0.6635585 0.6473456 0.6397701 0.6483165 0.47804826 0.5509385 0.3204332 0.414381 0.57881266 0.50883543 0.2166733 0.4198084 0.28903806 0.27196872 0.2664437 0.22560182 0.070759624 0.0634536 0.3246107 0.5122976 0.35788465 -0.0019780658 0.13678558 0.59162354 0.52113736 0.57780606 0.5726527 0.57234114 0.597174 0.05681672 0.5916969 0.6140465 -0.019819982 0.6169802 0.5573716 0.11365433 0.48127854 0.2783103 0.19015342 0.11662981 0.14158985 0.099694096 0.21020955 0.21818809 0.22285223 0.24184608 0.22827584 0.1082433 0.42055574 0.4938552 0.61177886 0.58089375 0.66467094 0.6391307 0.57081234 0.6345376 0.63545823 0.6552805 0.5768391 0.6001613 0.65763444 0.70443344 0.48072025 0.63496804 0.6955028 0.6917348 0.65436006 0.43307006 0.51941967 0.6380322 0.5884194 0.573727 0.38902822 0.409281 0.49374115 0.5290135 0.36077577 0.38704318 0.36476055 0.33335373 0.5101592 0.5391196 0.5908866 0.51536715 0.5509252 0.63215816 0.68404096 0.5408012 0.59552467 0.68717235 0.444826 0.53298783 0.56509423 0.26324245 0.34325817 0.5619093 0.5040968 0.102467425 0.13322987 0.11285103 0.44380575 0.2744369 0.23806646 0.20923617 0.11851748 0.0970532 0.10355062 0.3199752 0.3142473 0.5261641 0.4422447 -0.0484047 0.50681967 -0.027936347 0.522992 0.4971584 0.010400906 0.5692909 0.57938355 -0.071892425 0.6123668 0.5321252 0.48542923 0.310228 0.034502514 -0.225628 0.05471292 0.1340963 -0.043806985 0.18849643 0.21316722 0.23426363 0.22902393 0.15198514 -0.036924105 0.05995558 0.45453358 0.48572528 0.44271988 0.24943829 0.510549 0.5003138 0.574231 0.53689134 0.5956915 0.6504048 0.72005236 0.71144927 0.5661596 0.60575336 0.7152052 0.68410295 0.3889739 0.6218668 0.39515513 0.37143803 0.36390898 0.5611061 0.40370867 0.40240723 0.3686591 0.4709898 0.38423517 0.3317654 0.3405893 0.36243063 0.3587104 0.29789358 0.32255805 0.3215753 0.23871844 0.26517048 0.22183648 0.35718265 0.50604206 0.4565199 0.5159689 0.5668476 0.74383855 0.82265556 0.43920606 0.48094255 0.7522949 0.79903984 0.4008346 0.4520936 0.4867846 0.6408018 0.7462329 0.7831929 0.36819756 0.45489395 0.6553343 0.68531406 0.36816224 0.51266956 0.24657105 0.22689071 0.15220104 0.15093453 0.5002847 0.5159821 0.23117465 0.42973298 0.40435085 0.27392596 0.2397212 0.17966087 0.23210222 0.35120553 0.3274959 0.07741875 0.34811905 0.420732 -0.009296626 0.47017974 0.55145645 -0.11046313 0.32339832 0.43070322 -0.17558746 0.41519374 0.2615921 0.111311436 -0.32005537 0.06564993 0.17105989 0.22016767 0.2230544 0.23948596 0.046951786 0.25083312 0.36636454 0.5357764 0.50914085 0.5552088 0.5148779 0.6052091 0.5919816 0.6219665 0.7009182 0.552633 0.66952443 0.6591141 0.69194734 0.5354725 0.46163306 0.36333698 0.6665077 0.6163684 0.43031535 0.41803747 0.5488226 0.44932467 0.40585083 0.47520292 0.4011215 0.32860428 0.38596135 0.4013 0.32825953 0.2986068 0.23678975 0.23037654 0.20914431 0.3176906 0.65518856 0.20312387 0.24227999 0.7938038 0.23575392 0.2686462 0.79389286 0.2240373 0.76273453 0.7806419 0.29322094 0.2538223 0.71296716 0.27325493 0.28722855 0.37827083 0.46420714 0.6605321 0.44837222 0.5660823 0.7094567 0.73717886 0.74274266 0.5689646 0.63909924 0.72369504 0.7799339 0.85017085 0.7200339 0.7943384 0.84374464 0.24758586 0.24368356 0.2332764 0.17754795 0.15465869 0.29857004 0.32394516 0.27810806 0.21414936 0.1224835 0.37498504 0.35553145 -0.08721281 0.33976698 -0.098334536 0.25151145 -0.024377555 0.40460223 0.36006337 0.25380832 -0.016416505 0.5034577 0.5122595 0.52109706 0.46892595 0.33784205 0.48317507 0.48817915 0.47924322 0.59672046 0.6178832 0.6165819 0.23049891 0.15918519 -0.17273906 0.36975724 0.39662838 0.4165944 0.5754214 0.6193348 0.62545264 0.042147607 0.029533803 0.12967718 0.16773954 0.27926284 0.5003046 0.61038125 0.61572146 0.46221292 0.5287515 0.565822 0.03073316 0.2205019 0.20145997 0.50459516 0.12902166 -0.0042912886 0.3577056 0.60478777 0.35195583 0.050066806 0.15217309 0.3181969 0.36865136 0.70238256 0.78112626 0.7885704 0.6803061 0.106887884 0.18049574 0.76359797 0.853832 0.86745584 0.32414895 0.36023542 0.6285287 0.75393665 0.7846556 0.81512177 0.80622125 0.4909879 0.6005571 0.63434994 0.6482097 0.7859794 0.79831797 0.8569054 0.8318647 0.7682047 0.83329856 0.80231595 0.7487478 0.63554025 0.3871563 0.7865259 0.75557923 0.28475532 0.5080342 0.6144676 0.6493645 0.6578777 0.5774328 0.5575285 0.46491775 0.41200686 0.53324574 0.38983518 0.16121681 0.37044817 0.38398308 0.12897478 0.35679573 0.30850178 0.21581568 0.26905593 0.1840886 0.27511162 0.27405673 0.18775132 0.14108996 0.628263 0.116245784 0.676037 0.7230158 0.20772403 0.6196277 0.2622133 0.6624313 0.31066173 0.40728062 0.5007572 0.83898306 0.82016236 0.5990788 0.72002256 0.84071636 0.91017234 0.90535575 0.2463057 0.21064687 0.2420738 0.2448666 0.20713845 0.24677809 0.24808908 0.31151557 -0.00041728094 -0.0015412346 0.2959216 0.3072353 0.22491714 0.13738705 -0.04791033 -0.053857863 0.37378147 0.33713087 -0.1463585 0.3438366 0.22926505 -0.15547161 0.4626201 0.18322459 0.4812341 0.503707 0.5883913 0.58222485 0.15720706 0.4131938 0.5966025 0.60480547 0.5973068 0.57068014 0.08698029 0.14897011 0.61191857 0.5843269 0.057457738 -0.009811107 0.0852484 0.17983314 -0.01771769 0.57242304 -0.101555325 -0.047412723 -0.026285391 0.29727167 0.5571909 0.5549834 -0.044267785 0.1380313 0.13075456 0.27023968 0.426369 0.4863192 0.5253714 -0.053050227 0.2740172 0.2878606 0.3465186 -0.0014698282 0.009514466 0.54825294 0.5211036 0.029808983 0.6357317 0.68949765 0.13662574 0.2322615 0.3406831 0.6194361 0.7330915 0.7645459 0.76627326 0.6708377 0.44690812 0.57013714 0.6358546 0.6300974 0.77826035 0.7948475 0.7950865 0.87354016 0.8821442 0.76282126 0.8076228 0.839201 0.54450166 0.39704856 0.7588825 0.75785124 0.27501625 0.4587152 0.6708065 0.5494752 0.50627345 0.19865781 0.3445183 0.45574594 0.39300507 0.3486835 0.30432466 0.23702864 0.17069826 -0.070584476 0.006572172 0.24510656 0.07677898 0.21786481 0.35627866 0.20682067 0.49187326 0.0055080913 0.3379498 0.48633364 0.39484876 0.5885944 0.61279356 0.62966895 0.30988067 0.66827315 0.7148471 0.59948564 0.64200616 0.65257895 0.5931824 0.3543042 0.46811354 0.8112179 0.5923628 0.61365473 0.5865607 0.54715586 0.46547192 0.76847005 0.9215719 0.88487756 0.8548604 0.48089927 0.5042634 0.5060608 0.4408055 0.83631516 0.89829284 0.22375007 0.23119101 0.25623757 0.3524094 0.40042016 0.19226934 0.22159776 0.37565494 0.37534332 -0.00894903 0.120316304 0.32347625 0.347158 0.35111687 0.25385875 0.1499736 -0.010391571 -0.10914779 0.23183466 0.2794422 0.059486292 -0.21320711 0.1939885 -0.20091105 0.24085838 0.18442118 0.15898511 0.30994898 0.42345202 0.542628 0.5246355 0.1221117 0.10376509 0.5338317 0.5918555 0.6130327 0.5850595 0.5777066 0.6535543 0.054828204 0.5177269 0.48809424 0.56371784 0.5993509 0.65533257 0.6877444 0.7088546 0.7002499 -0.2196345 0.5415118 0.5349145 0.56140906 0.58816797 0.5806299 0.6385511 0.56234336 -0.07086062 -0.09060928 0.5444502 0.5382781 0.4856727 0.48988092 0.51551247 0.52095425 -0.022016782 0.0638348 0.5238378 0.53408796 0.049180135 -0.15224198 0.2535541 0.44582984 0.49186605 0.026174866 0.1728049 0.28397107 0.037151076 0.036943883 0.36279702 0.5189122 0.109890796 0.27419686 0.33557695 0.66224897 0.70725214 0.60894424 0.5688418 0.51289123 0.58087254 0.7463994 0.7841024 0.7457209 0.9074378 0.94499695 0.8096447 0.60774916 0.8173678 0.842082 0.29897848 0.23563352 0.4288239 0.7617419 0.16845214 0.21002862 0.42348367 0.7078233 0.67616546 0.3187763 0.58252144 0.5078759 0.0053149145 0.32902455 0.025956148 0.020618603 0.13575366 -0.100519165 0.19910198 -0.007304549 0.122081906 -0.056131594 0.11589064 0.033771694 0.07244182 0.11559522 0.09350265 0.095367156 0.09765111 0.06469557 0.08139779 0.07797159 0.06372898 0.13241738 0.1979517 0.19659409 0.021653488 0.37365738 0.52301854 0.55801946 0.5491917 0.52109665 -0.015115619 0.24037667 0.55067 0.6254885 0.54079473 0.15907547 0.124582216 0.32636243 0.69456375 0.74521655 0.44909787 0.45917767 0.3536597 0.14319253 0.086194135 0.14951831 0.6049483 0.7566976 0.755201 0.8003094 0.46758264 0.41767633 0.39859328 0.2859577 0.24530762 0.2968254 0.26089007 0.23468056 0.2894938 0.25130016 0.14914145 0.15932803 0.22727567 0.23451361 0.24578312 0.3056401 0.39159048 0.45075738 0.4560015 0.19040889 0.22276211 0.4128697 0.42980143 0.42334417 0.051439058 0.12729561 0.33787975 0.2628167 -0.091149315 -0.106051475 -0.12625661 -0.1447434 0.2618447 0.19533652 -0.10445699 -0.09259218 0.062303767 -0.18930604 -0.06835756 0.119109064 0.01851509 0.34134126 0.45143327 0.39801836 0.43820858 0.47520387 0.43035325 0.42623532 0.41856718 0.43565685 0.5006478 0.49575073 0.48691505 0.5289552 0.5447468 0.47794312 0.49784175 0.5390417 0.5728794 0.5141674 0.45705423 0.48446947 0.49833757 0.5361142 0.46700752 -0.1406945 0.5254548 0.4132469 0.43689442 0.42354244 0.4487031 0.46737164 0.5260784 0.47086078 0.075481266 0.51374567 0.52069706 0.39204445 0.3954202 0.21245302 0.028606497 0.04042316 0.075187534 0.45424032 0.24360062 0.23423621 0.13089599 0.052734233 0.049827676 0.2522013 0.18315534 0.12683499 0.033273794 0.07374667 0.43363655 0.0322469 0.01762397 0.025663741 0.39040533 0.63980496 0.62367207 0.14615904 0.12193611 0.081359625 0.26417544 0.7049941 0.75779223 0.7291667 0.286475 0.41690797 0.41985756 0.45649964 0.5540285 0.5523428 0.9529038 0.95686644 0.859153 0.70540047 0.87284964 0.9152853 0.23686786 0.4962705 0.49543762 0.5406027 0.66345465 0.6495183 0.80216956 0.62356734 0.728717 0.70375663 0.35831884 0.6293318 0.58264375 0.25141394 0.5349213 0.40664965 0.32874644 0.1470809 0.031243686 0.03238838 0.016205326 -0.028453901 0.10100935 -0.13413969 0.08476972 0.027453179 0.18060394 0.18414107 0.13818234 0.05891997 0.119209975 0.09516688 0.059333824 0.12999478 0.16098972 0.2938242 0.22479731 0.061721463 0.07676767 0.13465473 0.14728738 0.36479115 0.3686399 0.40181607 0.4643208 0.43607402 0.34543434 0.40585807 0.523923 0.57627285 0.37708652 0.20803699 0.036043115 0.042735837 0.17501675 0.23561633 0.49042335 0.56255054 0.59591925 0.59837985 0.40285036 0.39001685 0.3323974 0.26989955 -0.0011744238 0.03811485 0.15426356 0.2460513 0.37446204 0.39013517 0.37136656 0.3440953 0.2761192 0.15123624 0.06581086 -0.02979269 0.048291065 0.33380973 0.33671468 0.036998045 0.112874314 0.045432627 0.124439254 0.18506186 0.73068506 0.72343093 0.72319376 0.64215565 0.5235424 0.40186012 0.43214574 0.42726818 0.2517112 0.26003268 0.27706665 0.21785542 0.16050832 0.027309863 0.12100734 0.12501276 0.046815213 0.69872856 0.68304825 0.66994464 0.63459754 0.4378282 0.4429288 0.42999792 0.2126399 0.21672133 0.169865 0.08300713 0.1977344 0.22256538 0.21106479 0.65383613 0.62313235 0.5758077 0.46125942 0.45834935 0.1943436 0.17814428 0.14619617 0.21008769 0.25146052 0.25250667 0.23351058 0.26496696 0.2662589 0.22015965 0.23104039 0.23921597 0.3094161 0.38100523 0.4516768 0.4668265 0.18779573 0.21309125 0.43730158 -0.09827714 0.0025505647 0.19662853 0.2793504 0.27558511 0.030916363 -0.03309229 -0.11146769 0.17925417 0.18961254 0.24919629 0.24904115 0.018746436 0.10938306 0.06315927 0.19623764 0.05377487 0.06201351 0.62874055 0.580292 0.5108926 0.06598576 0.0032270923 -0.19823526 -0.12677485 0.24596013 0.67998254 0.6539923 0.5823555 0.5087335 0.013197407 0.025043704 0.16206414 0.39010364 0.652879 0.595751 0.54373586 0.26094267 0.30434403 0.19202864 0.21624547 0.15117341 0.10337137 -0.34970048 -0.27224118 0.39412963 0.35536954 0.3790247 0.08397223 0.09686704 -0.28683463 0.42070436 0.4442826 0.07509844 0.012951046 0.47420546 0.4135447 0.4079922 0.20203066 0.5007574 0.3183295 0.33001575 0.4014593 0.37666017 0.06552267 -0.031969853 0.47325444 0.5035808 0.28635624 0.235316 0.28778982 0.3346643 0.31270036 0.15494943 0.25202847 0.39840412 0.40636665 0.23665616 0.24748844 0.18451045 0.23369351 0.23017734 -0.043344364 -0.27083728 -0.025650054 0.040510967 0.051827986 0.2703628 0.18119398 0.14963695 0.06640804 0.026879447 -0.041280508 0.023960434 0.5108515 0.60622466 0.49365768 0.10326423 0.0937565 0.63812727 0.71538603 0.6850691 0.30536872 0.35674566 0.4770553 0.5906946 0.54675174 0.591231 0.60473967 0.7386416 0.73656136 0.78854954 0.78489614 0.8244784 0.8220408 0.9615017 0.92867684 0.8152015 0.6477667 0.6830649 0.6977744 0.9508234 0.8794222 0.7593745 0.5698507 0.1752778 0.5203416 0.69764906 0.69122636 0.8759104 0.8910018 0.26057315 0.643182 0.7390065 0.5760044 0.56925935 0.5629379 0.25910807 0.5242132 0.44763607 0.3614995 0.1780737 0.020269707 -0.06608757 0.009279504 -0.1751124 0.038778216 -0.032059856 -0.21723667 -0.028784651 0.105356365 -0.012751443 0.17383367 0.16473788 0.050030366 0.042286105 0.03030869 -0.07717295 0.05017819 0.06624515 -0.03283297 -0.014137527 0.049253024 0.0036638938 0.0753677 0.22088331 0.1445988 0.15721521 -0.028294824 0.2455576 0.23206607 0.35187393 0.43646348 0.1889565 0.45371467 0.5104054 0.48720366 0.4762705 0.50200224 0.36956495 0.38033554 0.341865 0.3209638 0.5124427 0.3793378 0.21081097 0.5009325 0.5117878 0.302984 0.3358882 0.27575445 0.27549437 0.76831067 0.72109896 0.6536957 0.4686108 0.48387077 0.43448532 0.46184373 0.4558335 0.16341071 0.2914937 0.28322458 0.08762583 0.23777746 0.34764084 0.33478284 0.75572884 0.7584152 0.49119264 0.39558092 0.42667687 0.4249881 0.39146218 0.16960914 0.21347797 0.028771622 0.09136808 0.2517404 0.38261878 0.7164588 0.32334888 0.41368186 0.35382515 0.15240102 0.17352232 0.17262116 0.64042854 0.6098001 0.35136116 0.4587159 0.40116924 0.32961178 0.15378308 0.17447773 0.17934346 0.1094421 0.25098854 0.21531081 0.5337068 0.41458935 0.31793424 0.4638043 0.17417267 0.16131105 0.12658527 0.063019276 0.020499371 0.11237651 0.14720483 0.24639428 0.2533856 0.21504217 0.37647918 0.33550382 0.33040553 0.1379577 0.038876243 -0.00089938194 -0.046142653 0.13835415 0.21662372 0.42163193 0.3946241 0.21933177 0.23466274 0.26773876 0.21597452 0.18020499 0.33224374 0.38442105 0.4565217 0.50780606 0.49335194 0.4649224 0.39611757 0.4425785 0.45101866 0.28250483 0.33261624 0.3325646 0.2491202 0.1562369 0.15398034 0.19546056 0.375831 0.4498864 0.51694596 0.509291 0.4511966 0.4389792 0.4525038 0.43876567 0.289671 0.3161152 0.3153722 0.27265894 0.26910242 0.21757193 0.14400725 0.09743678 0.024468333 -0.06383187 -0.1327601 0.08066693 0.24514678 0.13967313 0.37098616 0.42998958 0.41721097 0.1973258 0.2511261 0.19345476 0.18886386 0.26223853 0.27873996 0.23487636 0.11327503 0.035078287 0.14797126 0.35336035 0.37480026 0.39702594 0.09199549 0.21705323 0.13393387 0.10162464 0.30121282 0.3050512 0.32246238 0.5668081 0.5311937 0.40932074 0.07911793 0.07888262 0.2941585 0.3052814 0.3144528 0.38557726 0.6130413 0.61221206 0.52889633 0.4658318 0.2153974 -0.054515608 -0.039130192 -0.12224157 -0.18970996 -0.13272206 -0.113935724 -0.2004886 -0.2970197 -0.22455539 0.10119054 0.31304437 0.34776008 0.3526798 0.2915186 0.31221217 0.3586201 0.38809484 0.5690753 0.6699432 0.42772174 0.33245605 -0.15474084 -0.06799267 -0.030660754 -0.03709972 -0.23159951 -0.19504413 -0.0621373 0.030661222 -0.26384097 -0.04087324 0.36969677 0.6591111 0.64393497 0.5533604 0.4801973 0.21979703 -0.10103162 0.01253245 -0.06569617 0.34183508 0.57785434 0.5635448 0.44577566 0.0557622 0.06320585 -0.15218943 0.337582 0.29843104 0.24134912 0.029956225 -0.34398398 0.3469448 0.45891768 0.45046857 0.43755516 0.39693913 0.27446333 -0.009316027 -0.07157061 -0.22181733 0.40804365 0.45785123 0.505223 0.5210768 0.47238415 0.38097864 0.33193713 0.24584296 0.25316098 -0.247177 -0.023588859 0.15641358 0.42306334 0.46288183 0.51359266 0.5457856 0.4564472 0.3319678 0.19507085 0.19879654 0.17148489 0.16570306 0.14077803 0.23311956 0.23956543 0.19780996 0.059548687 0.19714864 -0.08859392 0.1463627 0.53415656 0.41029125 0.37312347 0.5556963 0.5542566 0.14762911 0.20758276 0.1952972 -0.15782815 -0.17608945 0.58262 0.2002347 -0.3666912 -0.3357882 0.017530464 0.15712905 0.111284226 0.16785891 0.19141838 -0.2754538 0.07464224 0.0773439 0.2784925 0.2462506 0.230116 0.17551008 -0.19127248 -0.3303961 0.297603 0.28014654 0.24111858 0.24054876 0.2853063 0.29838064 0.32195723 0.5216863 0.3224749 0.360303 0.4185537 0.49751657 0.51239884 0.52207947 0.5375773 0.6375666 0.5050614 0.47512716 0.491939 0.75264215 0.71111 0.7255139 0.7071927 0.8179446 0.80768526 0.8167512 0.8065035 0.75868076 0.8626263 0.8731383 0.8532918 0.8202515 0.8864317 0.9106848 0.90498036 0.6735679 0.7174728 0.7262904 0.8568245 0.728977 0.5556061 0.7234731 0.7011343 0.8255193 0.6118122 0.5506979 0.15275879 0.68150955 0.6115495 0.49819535 0.0902144 0.60740197 -0.043557625 0.30881906 -0.14258102 0.37881514 -0.43921554 0.2918043 0.022879608 0.024159553 0.4752131 0.43184963 0.39564642