# vtk DataFile Version 2.0
Really cool data
ASCII
DATASET POLYDATA
POINTS 458 float
-63.637398 -6.847413 64.362114
-63.8091 -6.4678416 64.5547
-63.824635 -6.313889 65.2151
-63.68443 -6.0312996 65.82085
-63.84124 -5.579464 64.51282
-63.85468 -5.651139 65.37974
-63.869244 -5.1903462 65.08011
-63.841007 -2.852018 61.10842
-64.02207 -2.957388 61.527477
-64.019325 -3.324019 62.148018
-64.435196 -2.0288298 61.914703
-64.37221 -2.420267 62.349354
-64.22563 -2.4809296 62.988136
-63.96549 -1.7617649 60.983143
-64.35627 -1.546932 61.826607
-64.49754 -1.481013 62.593433
-64.311615 -1.5000578 63.064884
-63.86029 -1.3413379 63.669014
-64.10676 -0.9500575 61.73356
-64.21278 -0.84616673 62.36774
-64.024704 -0.93535304 63.281754
-62.700752 -7.7291565 63.70798
-63.275074 -7.0799894 63.757435
-63.50205 -7.2042365 64.48822
-63.301453 -7.198394 65.214554
-63.283558 -6.684041 63.44515
-63.24416 -6.282882 66.16777
-62.515587 -5.4010696 59.04848
-63.305126 -5.606041 66.161934
-62.539906 -5.069149 56.721355
-63.34948 -3.8824759 61.552048
-63.445633 -4.642573 65.2836
-63.38495 -5.142319 65.92729
-62.90577 -3.3117328 60.32188
-63.50527 -3.6065292 63.56704
-63.221516 -2.3318865 64.192764
-63.40877 -1.4967989 60.523773
-62.962326 -1.5517423 64.43685
-62.878056 -0.64382756 64.4049
-63.34357 0.22503334 63.117607
-62.935127 0.15471184 63.943913
-62.58418 1.9518753 56.965076
-62.55204 2.314351 56.3611
-62.56882 2.3142786 57.52598
-62.604313 3.1927412 56.81445
-62.61375 3.037866 57.42665
-62.269882 -7.9273887 63.562145
-61.854202 -7.093785 56.77624
-61.971157 -7.0589027 57.213924
-61.934647 -6.9030023 58.1696
-62.104183 -6.134324 55.944466
-62.342735 -6.300363 56.777493
-62.287758 -6.3151627 58.25561
-62.160576 -6.173613 59.243843
-61.720024 -6.3309307 60.24495
-61.80552 -6.740075 62.43377
-62.134163 -6.173597 66.85891
-62.136414 -5.384927 55.800194
-62.44684 -5.545078 56.505062
-62.475838 -5.6119776 57.157394
-62.384552 -5.685984 59.463203
-62.18451 -5.733322 66.83405
-62.086384 -4.7685423 55.91861
-62.306015 -4.6909847 56.22484
-62.444557 -4.8102064 58.8275
-62.229614 -4.9553475 66.36345
-61.914886 -4.132246 56.292007
-62.228184 -4.10318 57.405445
-62.492535 -3.6231072 59.31412
-62.579033 -4.2671733 65.18622
-62.50673 -0.9785228 60.34467
-62.220833 -0.36908036 64.646
-61.699795 0.5597248 54.979836
-61.930794 0.7603701 55.39785
-61.99053 1.2125686 57.387894
-62.40215 0.28064957 64.248245
-61.996265 -0.012690887 64.616844
-62.14116 1.4231919 55.608295
-62.28642 1.7649052 57.584656
-62.554737 0.9815434 62.410717
-62.29641 0.89473224 63.33475
-62.06935 0.7217233 63.9918
-62.3726 2.5199375 55.904316
-62.515553 2.6711786 56.24556
-62.250427 2.8591206 58.209263
-62.066807 3.4610407 56.024452
-62.426853 3.5340097 57.541073
-62.12522 3.2239196 58.233646
-61.950874 4.133034 56.585594
-62.177948 4.01713 57.388153
-62.10792 3.9032376 57.960155
-60.63125 -11.8823805 65.335304
-60.74002 -11.42879 65.54485
-60.60523 -11.498429 66.024155
-60.87948 -10.620611 65.024055
-60.572983 -10.69125 66.29987
-60.9686 -7.8365426 56.607452
-61.057884 -7.771962 57.365723
-61.5514 -8.63288 65.093834
-61.12736 -7.3038993 55.887947
-61.48229 -7.424416 56.50821
-61.418888 -7.4847803 57.643093
-60.92587 -7.4414225 57.923275
-61.62385 -6.911852 58.923573
-61.138664 -7.6217074 61.887768
-61.626633 -7.377267 66.65924
-61.33686 -6.256469 55.373547
-61.596752 -6.309973 55.52163
-61.291954 -6.5226936 67.17296
-61.45849 -5.511391 55.29817
-61.32987 -5.7000937 67.09378
-61.613136 -4.4669247 55.615383
-61.481125 -4.768552 66.29778
-61.49923 -5.092733 66.77028
-61.7449 -4.2878556 65.785774
-61.174183 -2.8062313 56.538532
-61.430027 -2.101366 58.599308
-61.69703 -1.9388114 64.7421
-61.22819 -0.05784154 55.851513
-61.315437 -0.27839583 64.59331
-60.764805 0.7628541 53.842457
-61.581425 0.37973514 64.31541
-61.0481 1.5941305 54.048893
-61.229008 1.7167728 54.348473
-61.46875 1.664276 58.58551
-61.60264 2.0860198 58.740704
-61.238564 1.1447564 61.42415
-61.904232 0.834771 63.76661
-61.10671 2.1066937 54.316425
-60.805923 2.7746043 54.537754
-61.743042 3.545705 58.470993
-61.498848 3.8809385 55.82798
-61.5732 4.458053 56.881184
-61.565113 4.3871274 57.71207
-61.638958 4.181271 57.983746
-61.312603 4.5516405 56.731346
-61.249634 4.572296 57.41243
-59.7278 -13.271301 63.856792
-59.835682 -13.307139 64.36917
-59.75025 -13.0328245 65.721405
-59.85745 -12.874693 65.891754
-59.915 -12.880684 63.89507
-60.34378 -12.370153 64.743805
-60.435093 -12.160587 65.6178
-60.164925 -12.093088 66.48477
-59.955837 -12.094833 66.77074
-60.36583 -11.575442 66.44925
-59.91828 -11.675286 66.95647
-59.890755 -10.717938 66.97549
-60.561867 -7.774958 56.08618
-60.57026 -7.8936033 56.36236
-60.15556 -7.9798803 57.113285
-60.28828 -7.7247276 58.04667
-60.603806 -7.354444 55.729305
-60.192818 -6.8942313 66.97901
-60.423584 -6.3729 55.36573
-60.688614 -6.3061013 67.21404
-60.829533 -5.9024715 67.2581
-60.69513 -5.136604 66.80419
-59.900288 -0.9302832 52.750507
-60.178352 -1.7138612 54.244225
-60.12738 -0.38645452 52.8027
-60.50188 -0.37825698 63.65232
-60.81992 -0.3848843 64.1548
-60.40749 0.5371236 52.916115
-60.448997 0.56892383 61.94233
-60.7902 0.3862102 63.580833
-61.197693 0.1649054 64.26015
-59.844753 1.1282569 52.462345
-60.689682 0.809137 61.086647
-60.927254 0.9625412 62.45086
-61.051563 0.8297798 63.198017
-60.150425 3.60401 54.6913
-60.652115 3.5763628 58.735146
-60.475773 3.9512057 55.188473
-60.31229 4.397628 55.727024
-60.822132 4.2955456 58.069275
-60.170433 4.5717497 56.040367
-60.373222 4.6255565 56.429348
-60.7591 4.532672 57.648205
-59.257214 -13.867155 63.993492
-59.20202 -13.9033 64.32925
-59.14777 -13.725586 65.21187
-59.12129 -13.366622 63.27192
-59.346954 -13.630856 63.68307
-59.540924 -13.354803 65.37349
-59.50492 -12.756245 66.39339
-59.414837 -12.581161 66.68338
-59.431675 -12.250025 66.891846
-59.399475 -11.356951 67.1965
-59.56637 -10.870146 67.27067
-60.031612 -7.7360663 56.061916
-59.85648 -7.8506546 56.456207
-59.512398 -7.808174 56.99953
-59.80988 -7.309867 55.90745
-59.808426 -7.4917192 58.095707
-59.385895 -7.791044 66.11548
-59.625053 -6.6806836 55.66678
-59.486256 -5.8695726 66.39621
-60.076866 -5.4197273 66.771286
-59.622746 -3.3936203 65.07633
-59.240414 -2.1558135 52.853252
-59.352135 -2.8089542 64.59688
-59.822063 -2.6714418 64.71869
-59.527348 -1.1071225 52.47401
-59.75536 -1.5562372 63.35623
-59.372982 -0.25523216 52.13812
-59.70086 -1.2056776 62.484467
-60.13042 -1.1714609 63.63835
-59.050106 0.38234895 51.752872
-59.316154 1.6213396 52.268547
-59.00797 2.0550647 52.55289
-59.585777 3.1838975 54.07728
-59.717487 3.5688791 58.790268
-59.26413 3.9235103 54.927174
-59.181767 4.4716744 56.026756
-59.27952 4.3615346 57.748154
-59.318573 3.8907895 58.765213
-59.857594 4.606968 55.955166
-59.265034 4.557879 56.66654
-58.280575 -13.763894 63.28268
-58.565228 -13.939052 63.646297
-58.44668 -14.045287 64.45541
-58.668133 -13.778454 65.22255
-58.514874 -13.303365 62.942116
-58.141018 -13.580528 65.54672
-58.51925 -13.031729 66.17755
-58.906086 -12.100616 67.03379
-58.656506 -11.384589 67.266396
-57.95888 -10.0009165 61.51234
-58.66085 -10.667513 67.28619
-58.71596 -9.419936 61.61856
-58.37752 -9.926552 67.03224
-59.257248 -7.322191 57.062634
-59.096363 -6.7219577 56.340115
-58.977924 -6.6399508 57.560013
-59.103752 -5.8940363 65.88819
-58.92891 -4.3132324 65.25822
-58.645935 -2.6969466 53.123917
-58.53919 -2.8745353 53.479576
-58.83131 -3.5067923 64.83193
-58.583305 -2.2182999 52.749043
-58.951294 -3.073977 64.57328
-58.535324 -1.1944327 52.135265
-58.51901 -0.32727116 51.733944
-58.852043 -1.1704235 59.2129
-58.210583 0.832373 51.38801
-58.332092 0.33757532 51.500862
-58.192135 2.1932163 52.0194
-58.381424 2.4312491 52.47679
-58.463116 2.8029559 59.171608
-58.434135 3.203979 54.10913
-58.570892 3.409909 59.07406
-58.947624 4.184636 55.602573
-58.94251 4.410759 56.497803
-58.349045 4.287283 57.059174
-58.77345 4.1042547 58.43528
-58.592865 3.8093503 58.796818
-57.77608 -13.671583 63.07751
-57.44199 -13.910091 63.65954
-57.649605 -13.960817 64.29765
-57.695705 -13.852818 64.83593
-57.44588 -13.451454 62.832565
-57.99118 -12.942145 66.12056
-57.228462 -12.790847 62.363365
-57.932323 -11.326142 67.06838
-57.793465 -10.36271 66.90762
-57.85676 -9.62392 66.52385
-57.56288 -9.2197075 66.221275
-57.15837 -6.8592415 65.025314
-57.46682 -5.7099705 61.820755
-58.091206 -5.654116 65.13354
-57.80965 -4.7442217 61.966194
-58.372597 -3.526418 64.40898
-57.683083 -2.5711687 53.3198
-57.566376 -0.7939451 51.76728
-57.293816 -1.3634627 52.494877
-57.42808 -0.16808268 51.36521
-57.45053 -0.41089615 51.50569
-57.174 0.41986898 51.26181
-57.237286 1.637336 51.454967
-57.371563 1.7642075 51.51089
-57.454 2.2250564 51.82972
-57.92054 2.8627913 58.875874
-57.433315 3.6072133 57.700863
-57.72792 3.6442053 58.374157
-58.036747 3.0076306 59.017246
-58.00863 4.0596895 57.007187
-57.646233 3.8322997 57.62181
-58.08034 3.96122 58.41047
-56.94429 -13.835593 63.661358
-56.930824 -13.746281 64.29172
-56.69574 -13.3018 62.753414
-56.451702 -13.189583 64.74089
-56.7576 -13.064064 65.31669
-56.50633 -12.661818 65.39297
-57.01309 -12.158893 66.31127
-56.575783 -11.488222 62.264324
-56.338913 -11.5925665 66.162476
-56.917866 -11.4051075 66.646
-56.74062 -7.563575 60.62483
-56.994144 -7.538549 65.20965
-56.447468 -6.2888384 64.48077
-57.07726 -4.5240602 57.66507
-56.12703 -2.3710155 60.45043
-56.41858 -0.95742273 53.32725
-56.71768 -1.9876034 60.472874
-56.968052 -0.12997676 51.332897
-56.635757 -0.22593735 51.621033
-56.275406 -0.5319804 60.27425
-56.625355 0.68548334 51.41128
-56.524723 0.42456385 51.47692
-56.846165 1.1450859 51.394325
-56.592705 1.3508242 51.586792
-56.84582 2.0284078 51.81927
-56.52639 2.4092743 52.870968
-56.622112 2.276659 54.429832
-56.97273 2.577307 52.79617
-57.35463 3.4259098 57.04094
-57.38373 3.397434 57.858833
-57.207687 3.0694957 58.028824
-56.222115 -13.37912 63.413868
-56.0923 -13.212263 64.110466
-56.057846 -11.037177 65.83333
-54.976364 -9.95728 59.956608
-55.1095 -10.577839 61.090935
-56.286133 -10.399887 66.10875
-55.670914 -8.214348 59.964783
-55.135994 -7.0045834 64.521545
-56.04851 -5.926768 63.555428
-56.0278 -4.1375875 58.06589
-55.754463 -3.3735652 55.49804
-55.33059 -3.3963246 58.506603
-55.86629 -1.5649405 60.609467
-56.17641 -0.035353377 51.934216
-55.958652 0.0610113 52.321075
-55.72791 -0.065609634 53.262463
-55.509304 -0.60899043 60.261833
-55.67044 -1.0238729 60.553013
-56.13359 0.37598604 51.844
-55.735653 0.7621079 52.499924
-55.58005 0.57512784 53.36711
-55.85425 0.5976447 58.476284
-55.62505 -0.20681971 59.90427
-56.131405 1.1470186 51.83225
-55.746456 1.163698 52.60879
-56.030464 1.2650504 54.382843
-55.930336 1.7544771 52.611404
-56.073532 1.84438 53.863083
-56.128635 1.759206 54.33457
-54.340027 -10.978598 63.846584
-54.21096 -10.226416 59.216652
-54.29956 -10.236858 59.458794
-53.950905 -9.714819 58.73965
-54.62564 -8.364687 59.043938
-54.44744 -6.922892 64.17422
-54.389095 -6.1319737 62.597477
-54.935585 -3.1332083 56.036926
-54.943676 -3.131351 56.35453
-55.09724 -3.5719068 57.42932
-54.977394 -3.2155213 58.219463
-55.20088 -3.0997524 59.623665
-54.803864 -2.5447166 55.921486
-54.500214 -2.3764331 57.28617
-54.49888 -2.1913233 58.700706
-54.562595 -2.2318783 59.09466
-55.228558 -1.9528844 55.219357
-54.499657 -1.2219251 58.764755
-54.54383 -1.6464478 59.47784
-54.788303 -1.4341908 60.01525
-54.813034 -0.765141 56.94994
-54.803658 -0.6483672 57.421528
-54.766827 -0.5710994 58.291
-54.911488 -0.5687041 59.544514
-55.021503 -0.71443737 59.97594
-55.13528 0.04997295 58.48651
-55.02433 -0.29455853 59.36807
-53.144993 -10.701061 58.821
-52.93924 -10.221821 58.36346
-53.476185 -10.204589 58.68122
-53.226067 -9.812664 58.321175
-53.62581 -9.197004 58.48591
-53.73435 -8.630827 58.678993
-53.539814 -8.439723 64.41612
-53.62692 -8.115062 58.976383
-53.799328 -7.467242 64.20607
-53.411983 -6.861604 62.794632
-53.375484 -7.06209 63.40848
-54.10283 -7.0250115 64.076096
-54.42537 -1.179855 58.632694
-54.471127 -1.7029033 59.418514
-52.150986 -12.019072 60.81004
-52.275352 -11.9434805 61.235756
-52.516003 -11.684764 62.167336
-52.418312 -11.142749 59.096767
-52.188263 -11.267028 63.388744
-52.51097 -10.233763 58.319496
-52.667583 -10.57475 58.55459
-52.80699 -9.963557 64.525116
-52.239994 -9.663334 58.312374
-52.289845 -9.512299 64.46204
-53.043617 -9.8319845 64.61317
-52.26931 -8.540823 58.78492
-52.792843 -8.823164 64.53597
-52.929813 -8.040404 59.146782
-52.656044 -7.70444 59.83672
-52.562298 -7.4308095 62.34497
-52.404594 -8.169652 63.98533
-52.85767 -7.2548714 63.085117
-51.29456 -11.930075 59.65275
-51.51167 -12.186556 60.57369
-51.432373 -11.957734 61.90458
-51.581013 -11.671423 62.87233
-51.507046 -11.267765 59.0049
-51.23452 -11.0336275 63.464725
-51.7728 -10.251254 58.548553
-52.035194 -9.722958 58.353825
-51.696854 -9.774692 58.55689
-52.092148 -9.302592 64.35469
-51.968407 -8.769886 63.982006
-51.859497 -8.056259 60.363373
-51.85244 -7.8307886 61.296722
-52.018642 -7.790349 62.574337
-50.812664 -11.704315 59.36614
-50.596657 -11.92486 59.66176
-50.345764 -12.19903 60.59088
-50.57728 -12.228049 61.02638
-50.603546 -11.799195 62.09427
-50.60873 -11.3090725 59.16816
-50.37312 -11.698462 59.481167
-50.456066 -11.150004 62.730408
-50.78302 -11.18801 63.05165
-50.403088 -10.748452 59.248207
-50.71695 -10.504732 63.341927
-51.031555 -10.427939 63.644936
-50.877026 -9.803939 59.076717
-50.70205 -9.597248 59.495842
-50.730488 -9.630947 63.171036
-50.747746 -9.212383 59.93792
-51.157078 -8.427125 61.93698
-51.22065 -8.856619 63.11099
-50.04188 -11.923432 60.00476
-49.92398 -11.966471 60.573826
-49.985847 -11.947064 61.111046
-50.131424 -11.156959 59.319714
-49.943027 -11.437969 59.74848
-49.58336 -11.3971815 60.546013
-49.662407 -11.41128 61.203728
-50.18875 -11.161965 62.289368
-50.21748 -10.769682 59.266155
-49.81981 -10.757014 59.82213
-49.668495 -10.692805 60.23397
-49.69018 -10.721723 61.227013
-50.300037 -10.771939 62.75787
-50.181507 -9.761422 59.982338
-50.075825 -9.779955 60.50565
-49.474495 -11.046769 60.547737
-49.482365 -10.937997 60.49711
VERTICES 1 459
458 0 1 2 3 4 5 6 7 8 9 10 11 12 13 14 15 16 17 18 19 20 21 22 23 24 25 26 27 28 29 30 31 32 33 34 35 36 37 38 39 40 41 42 43 44 45 46 47 48 49 50 51 52 53 54 55 56 57 58 59 60 61 62 63 64 65 66 67 68 69 70 71 72 73 74 75 76 77 78 79 80 81 82 83 84 85 86 87 88 89 90 91 92 93 94 95 96 97 98 99 100 101 102 103 104 105 106 107 108 109 110 111 112 113 114 115 116 117 118 119 120 121 122 123 124 125 126 127 128 129 130 131 132 133 134 135 136 137 138 139 140 141 142 143 144 145 146 147 148 149 150 151 152 153 154 155 156 157 158 159 160 161 162 163 164 165 166 167 168 169 170 171 172 173 174 175 176 177 178 179 180 181 182 183 184 185 186 187 188 189 190 191 192 193 194 195 196 197 198 199 200 201 202 203 204 205 206 207 208 209 210 211 212 213 214 215 216 217 218 219 220 221 222 223 224 225 226 227 228 229 230 231 232 233 234 235 236 237 238 239 240 241 242 243 244 245 246 247 248 249 250 251 252 253 254 255 256 257 258 259 260 261 262 263 264 265 266 267 268 269 270 271 272 273 274 275 276 277 278 279 280 281 282 283 284 285 286 287 288 289 290 291 292 293 294 295 296 297 298 299 300 301 302 303 304 305 306 307 308 309 310 311 312 313 314 315 316 317 318 319 320 321 322 323 324 325 326 327 328 329 330 331 332 333 334 335 336 337 338 339 340 341 342 343 344 345 346 347 348 349 350 351 352 353 354 355 356 357 358 359 360 361 362 363 364 365 366 367 368 369 370 371 372 373 374 375 376 377 378 379 380 381 382 383 384 385 386 387 388 389 390 391 392 393 394 395 396 397 398 399 400 401 402 403 404 405 406 407 408 409 410 411 412 413 414 415 416 417 418 419 420 421 422 423 424 425 426 427 428 429 430 431 432 433 434 435 436 437 438 439 440 441 442 443 444 445 446 447 448 449 450 451 452 453 454 455 456 457
POINT_DATA 458
SCALARS features_00 float 1
LOOKUP_TABLE default
0.5157445 0.5650898 0.61958915 0.650408 0.56987673 0.6312681 0.6119405 0.38252544 0.4198593 0.4291348 0.5103731 0.50199527 0.51648974 0.48032948 0.5269303 0.5543344 0.5618716 0.5829597 0.54146147 0.5744473 0.59973633 0.35916072 0.40527207 0.48904756 0.55381155 0.37965667 0.6763618 0.34844896 0.65731263 0.54771376 0.26880604 0.59638673 0.63387024 0.20320705 0.39274582 0.49449736 0.46538296 0.588732 0.6427629 0.6695322 0.66830266 0.6588257 0.6545494 0.7175509 0.7629799 0.7562011 0.31569886 0.7284651 0.66316164 0.54748535 0.74279386 0.6808373 0.48366898 0.36313185 0.2604672 0.1786007 0.58315337 0.65632105 0.6280619 0.5653912 0.32678986 0.5844966 0.5714725 0.5448289 0.3148135 0.5825151 0.4397996 0.3773706 0.16091606 0.52063537 0.29140243 0.66440535 0.43744043 0.46713305 0.588702 0.68354905 0.6775409 0.5124058 0.6734158 0.71636736 0.7082461 0.69748616 0.62638307 0.68844956 0.7359735 0.7427605 0.7666352 0.74520147 0.7555789 0.76008177 0.75379264 0.53118783 0.5179571 0.54978204 0.4093501 0.53901607 0.7820728 0.7405319 0.33545038 0.8096076 0.7711478 0.68037325 0.69295365 0.43692994 0.078706235 0.5743191 0.80731016 0.7996335 0.57002354 0.70890206 0.5648129 0.5122267 0.53918815 0.5567887 0.5160109 0.21061243 0.22381927 0.5127794 0.40700373 0.62940365 0.39439595 0.67641366 0.42606595 0.45292288 0.6516712 0.6882218 0.55764353 0.6988573 0.45370197 0.47410876 0.7296814 0.66867554 0.72144186 0.73467654 0.73630685 0.6946135 0.708573 0.6967577 0.696795 0.6184164 0.60171205 0.6518048 0.57417953 0.5557274 0.5863195 0.5998926 0.57797194 0.61045647 0.61936 0.8050957 0.7983053 0.78377473 0.7356385 0.8083918 0.5458691 0.7951356 0.57119346 0.5675 0.54367214 0.4616183 0.41737026 0.43984848 0.4790349 0.54444474 0.40826914 0.5164945 0.5896082 0.6420459 0.4891398 0.4814007 0.63059574 0.65496075 0.45942685 0.6576879 0.49977055 0.53527945 0.68426514 0.5557204 0.5991881 0.67359906 0.72157234 0.73043674 0.71128464 0.6616689 0.7137648 0.6665745 0.60952306 0.60894406 0.6133696 0.63987374 0.64216894 0.79346883 0.78539014 0.7691777 0.7802905 0.73132044 0.26304337 0.76913834 0.42472914 0.5279112 0.19973418 0.4415159 0.19071929 0.21372992 0.47758907 0.23889118 0.49564558 0.2943653 0.3151231 0.5640407 0.572128 0.5192913 0.39893985 0.58481276 0.43706143 0.50189817 0.60713756 0.59056485 0.5278636 0.5520201 0.69089687 0.71059036 0.73701346 0.71781313 0.6219131 0.683357 0.6369714 0.6338142 0.65160704 -0.094866075 0.6370426 -0.028508358 0.48515022 0.7354063 0.7167373 0.64380896 0.26736724 0.20086282 0.384073 0.35680625 0.19002137 0.43141168 0.16412571 0.49670127 0.55103946 0.26517278 0.66866 0.6155858 0.69341373 0.5917524 0.51797926 0.37127036 0.5492382 0.4631511 0.538311 0.5605524 0.5676631 0.5583917 0.6695831 0.6869843 0.7065251 0.70090973 0.6458627 0.64736736 0.5699582 0.6202029 0.52403176 0.39332214 0.28506285 0.07713622 0.12116009 0.06961632 0.0057381373 0.18743375 0.35096967 0.5843384 0.5289175 0.63927555 0.62533116 0.65977705 0.7210395 0.7306682 0.75956094 0.51395345 0.5197132 0.5351308 0.5287119 0.5352371 0.5327462 0.5405891 0.673497 0.6690968 0.6380131 0.61153924 0.61938745 0.57464087 0.5817246 0.19154643 0.5009572 0.520921 0.1718659 0.03614156 0.19937742 0.27142933 0.74284136 0.589801 0.6180161 0.65347373 0.64421284 0.6227006 0.6783921 0.6728997 0.6920074 0.70208424 0.74480224 0.76300895 0.5249625 0.7550025 0.45558807 0.5067694 0.4686152 0.6411105 0.60306436 0.43988794 0.40394968 0.18458228 0.4283132 0.47915515 0.25191835 0.27198038 0.3974181 0.37116268 0.48201996 0.70085704 0.6458079 0.64732116 0.6481117 0.6613263 0.691588 0.6635674 0.67193824 0.6913696 0.45318308 0.60300916 0.6838681 0.6972835 0.5853304 0.73861456 0.67230463 0.6019126 0.30252573 0.5074817 0.476334 0.58435124 0.57755697 0.31158987 0.2769821 0.42488757 0.4446504 0.46493647 0.5055584 0.6050945 0.41840148 0.49973214 0.53738 0.5514567 0.37543073 0.5413611 0.5846276 0.63574564 0.4793583 0.4793656 0.5078785 0.59232235 0.62832654 0.4948064 0.5731463 0.5290489 0.58565253 0.5686697 0.5897491 0.6355084 0.66839457 0.38540155 0.67389 0.3504786 0.2969041 0.34297138 0.3311975 0.5323802 0.575471 0.7476865 0.703616 0.6101384 0.5607439 0.5640181 0.5915123 0.5731447 0.45428297 0.6053931 0.48548764 0.44062504 0.69363767 0.43908206 0.71366537 0.63208973 0.34225866 0.43314976 0.36272714 0.7691195 0.8350913 0.7131592 0.6121769 0.6340803 0.58340216 0.6246916 0.6098177 0.63266206 0.49100965 0.47790602 0.5598377 0.39177057 0.39532757 0.7490256 0.7987132 0.8581772 0.86107874 0.7277537 0.72959155 0.78781766 0.6334373 0.60663503 0.72616696 0.5761294 0.5835042 0.6856655 0.67601895 0.5712 0.63950646 0.4313168 0.55521834 0.82040626 0.84318197 0.84501815 0.76370335 0.80284727 0.8296796 0.83049864 0.686504 0.7360912 0.767607 0.776103 0.7847507 0.5899708 0.69151247 0.6787572 0.81572074 0.80683076
SCALARS features_01 float 1
LOOKUP_TABLE default
0.05858299 0.06938394 0.08503865 0.09461577 0.066397436 0.08762549 0.07891854 0.035931405 0.043612674 0.042889897 0.061837554 0.058780037 0.05771768 0.055739753 0.06575434 0.07065673 0.070820205 0.07573192 0.06897795 0.07615947 0.082845785 0.029873503 0.035060544 0.053880088 0.067844614 0.030366784 0.10416457 0.019951094 0.09862975 0.07304465 0.019586906 0.07094793 0.09049321 -0.0032278607 0.0042283516 0.036415547 0.048884902 0.07389972 0.09662027 0.10814528 0.10825844 0.107122734 0.10373016 0.12843853 0.14460365 0.14203526 0.023476463 0.13082443 0.105136596 0.065110385 0.1376909 0.11276137 0.047553048 0.02470281 0.0014921753 0.0070641316 0.0848413 0.108095124 0.097869575 0.07365517 0.017893646 0.084697306 0.08263848 0.07421525 0.00628177 0.082060225 0.048097994 0.030582812 -0.0347061 0.05138576 -0.010387769 0.102440074 0.032249898 0.04197804 0.08494365 0.112083234 0.1079491 0.05435584 0.113235146 0.12231214 0.12061087 0.11649357 0.092213996 0.11591482 0.13312139 0.1348262 0.14537877 0.13558826 0.14192303 0.14299528 0.14026035 0.068241715 0.063525364 0.07140187 0.034995105 0.06514349 0.1508317 0.13360769 -0.0061269067 0.16259809 0.14750046 0.1105694 0.11332751 0.040994536 0.0034185494 0.08155462 0.16038612 0.15848976 0.08097939 0.12319164 0.07957358 0.0671611 0.07192754 0.07718994 0.061931036 0.0101708155 -0.00021800864 0.04327985 0.031585023 0.09130597 0.029381234 0.108623885 0.027937835 0.032821346 0.10600419 0.11673149 0.07864706 0.116811275 0.033803586 0.04135813 0.12853454 0.10970724 0.12998821 0.13414548 0.13413936 0.1206087 0.12535746 0.12062744 0.119617395 0.09236596 0.087436475 0.1060586 0.081835315 0.074527115 0.08214852 0.085803434 0.07876636 0.087474935 0.084564365 0.16038422 0.15727039 0.1497198 0.12725537 0.16159192 0.072521664 0.15343894 0.081107356 0.08033647 0.07371502 0.049127303 0.040215265 0.047799207 0.051796205 0.06775959 0.039109766 0.06546559 0.08371606 0.09760405 0.05605143 0.05808805 0.098536134 0.104026265 0.041791644 0.10656474 0.0572072 0.06923399 0.11624442 0.075497106 0.089191005 0.11302532 0.1287283 0.1314325 0.12298611 0.109277 0.12629811 0.107576996 0.08985225 0.089889705 0.09051111 0.09419932 0.09144219 0.15625471 0.15258606 0.14545684 0.15138997 0.123326555 0.012522435 0.14586885 0.044235587 0.06892887 0.008550492 0.03933981 0.005856007 0.0034010378 0.050370496 0.00025339378 0.05884002 0.019029295 0.012336215 0.07821267 0.07890734 0.06195319 0.02110403 0.085437045 0.038876925 0.0583904 0.090945065 0.08656928 0.066938095 0.07425907 0.11562425 0.12332282 0.13221893 0.12581731 0.096325204 0.11471383 0.09899307 0.09627135 0.097737834 0.00979108 0.09105139 0.005199622 0.05247665 0.1339402 0.12844367 0.10139447 0.017692395 0.010004656 0.029573843 0.024367966 0.008623919 0.037803356 0.0058031967 0.054499853 0.07254548 0.019414559 0.11167351 0.09380412 0.11985855 0.083259024 0.06672412 0.018733691 0.07479839 0.046395734 0.069517024 0.077278614 0.07933534 0.076882794 0.10599986 0.10944342 0.118247665 0.11855353 0.09668782 0.102522135 0.07457537 0.09192619 0.067323126 0.03768959 0.02021794 -0.014808255 -0.05649813 -0.00363433 -0.029494826 0.008331521 0.02720806 0.08161082 0.06412089 0.100221224 0.09516923 0.10773442 0.12970853 0.13326468 0.14352001 0.06403669 0.06601984 0.07019822 0.0684561 0.07076667 0.06962901 0.07135218 0.10218599 0.10296959 0.08810317 0.08628086 0.09261582 0.0785588 0.082327895 0.015803427 0.058920853 0.06625142 0.0016246598 -0.0067118085 -0.0063087298 0.017663626 0.13520381 0.07921982 0.09492017 0.10459414 0.10057204 0.0927496 0.11387334 0.11171856 0.11899886 0.1224509 0.13805065 0.14427239 0.06407347 0.13870502 0.049702168 0.062265478 0.051254727 0.08648054 0.07741351 0.04297597 0.0369508 -0.0049680043 0.043871533 0.019467812 0.00687139 0.004869521 0.038353335 0.03405315 0.055249274 0.11927658 0.101404205 0.10222727 0.10018632 0.10399446 0.11498852 0.10851335 0.11183261 0.11593457 0.04273039 0.084825456 0.116123125 0.12071851 0.082417294 0.13578197 0.11232002 0.08978273 -0.02239558 0.061250787 0.053733725 0.08006143 0.059125468 0.01537166 0.014548413 0.04489321 0.04918003 0.052931532 0.061355762 0.09030459 0.043894373 0.060024023 0.06820784 0.0720299 0.03402161 0.0687907 0.08042664 0.09452012 0.052790534 0.053182214 0.06001828 0.08176998 0.09215949 0.055758603 0.07628289 0.0661911 0.08075798 0.07739794 0.08281679 0.093349114 0.09609435 0.028565597 0.09243185 0.021770421 0.014714651 0.019751636 0.018311953 0.066514656 0.07779921 0.14192355 0.12416258 0.08294636 0.07341435 0.06479068 0.08101832 0.076044984 0.041726336 0.08437014 0.04961309 0.035879564 0.10938658 0.03548546 0.11031971 0.08240719 0.019038063 0.032128323 0.021050466 0.14492534 0.1739566 0.1220312 0.0840684 0.09390709 0.07533409 0.08704895 0.08444474 0.08919041 0.050055083 0.044904374 0.07105104 0.02830752 0.025034033 0.13771223 0.15849853 0.18338132 0.18428151 0.12777497 0.12853256 0.15368558 0.09435114 0.084481075 0.12639321 0.07540803 0.07504851 0.10599591 0.10694411 0.07119454 0.097644284 0.033362053 0.060806107 0.16766098 0.1771756 0.17721158 0.14331266 0.16016929 0.17152718 0.17063805 0.11474375 0.13138959 0.14646682 0.15040667 0.15088294 0.083726265 0.11821428 0.11537609 0.16590959 0.16240916
SCALARS features_02 float 1
LOOKUP_TABLE default