# vtk DataFile Version 2.0
Really cool data
ASCII
DATASET POLYDATA
POINTS 4412 float
-65.5202 9.874612 67.27092
-65.52794 10.550016 67.01012
-65.55833 10.518258 67.23596
-64.62665 4.1352825 62.83727
-64.645584 3.8215544 63.51084
-64.66737 3.7873492 64.28232
-64.59453 3.7388859 65.005554
-64.74458 4.9086328 62.531925
-64.84009 4.6132107 63.494633
-64.81559 4.4732924 64.272194
-64.71403 4.210981 64.97827
-64.64287 5.4663563 62.106754
-64.81804 5.534946 62.536602
-64.98234 5.35034 63.490646
-64.85675 5.5038095 64.0908
-64.76284 6.1314774 62.622368
-64.80601 6.3353333 63.287968
-64.6495 6.523385 64.09999
-64.62945 6.776121 67.64976
-64.65858 7.0117445 68.47292
-64.60468 6.931706 63.305664
-65.08083 7.9247246 66.433
-65.10514 7.7377343 67.505005
-64.971794 7.62363 68.3371
-64.667175 7.780269 69.05225
-64.766884 8.649023 64.947464
-65.08542 8.216637 65.9653
-65.258736 8.429733 66.75049
-65.299416 8.610215 67.5295
-65.19931 8.530206 68.35869
-64.88495 8.673284 68.997795
-65.09777 9.532888 65.83
-65.2411 9.332558 66.537895
-65.39226 9.3169985 67.70197
-65.176605 9.318771 68.41801
-64.76264 9.705967 68.88144
-64.64026 10.348352 65.2316
-65.353004 10.6221695 66.49055
-65.442024 10.53579 67.504814
-65.18766 10.77259 68.255325
-64.99687 11.478426 66.024864
-65.2705 11.312299 66.56083
-65.36111 11.407716 67.41162
-65.256584 11.204798 68.04989
-64.74991 12.433164 65.93152
-64.94261 12.313849 66.619545
-64.95121 12.249713 67.23701
-64.65174 12.314747 68.62826
-64.63206 13.394506 66.6411
-64.77818 12.990305 67.33824
-64.63798 13.081504 68.07191
-63.75534 2.0932376 45.967648
-63.843346 2.022226 46.5922
-63.78143 1.9997435 47.0016
-63.654015 1.9530709 63.198303
-63.911587 1.9924041 63.81533
-63.94021 1.7662554 64.57088
-63.863136 1.8734865 65.437546
-63.71442 2.100738 65.88057
-63.908504 2.6217744 45.932587
-64.07301 2.5885377 46.547356
-63.88777 2.5627334 47.23305
-63.941803 2.8223825 62.906174
-64.16222 2.7170846 63.574066
-64.29107 2.584783 64.56603
-64.16287 2.6022508 65.30408
-63.792023 2.3862932 65.88314
-63.964767 3.4361823 45.85927
-64.16508 3.3565497 46.581665
-63.887108 3.4526374 47.311428
-63.774242 3.8426604 61.938297
-64.27825 3.721941 62.84106
-64.5004 3.6802547 63.34821
-64.418724 3.2825742 64.53717
-64.359985 3.6996918 65.29295
-63.75843 3.134109 65.98421
-63.854866 4.258162 45.985516
-63.922188 4.32625 46.511917
-63.864914 4.1795163 47.131504
-64.253494 4.767379 61.85604
-64.55046 4.524977 62.66181
-63.962643 4.3739986 65.80288
-63.819237 5.4579735 61.434692
-64.29738 5.5407987 61.742626
-64.31999 5.73828 65.33545
-64.378365 6.143266 61.99916
-64.544266 6.460445 62.37399
-64.22814 6.390578 67.58309
-64.2308 6.689331 68.43115
-63.947025 6.8083525 69.06879
-63.890156 7.0284348 62.187813
-64.26132 7.0826497 62.791378
-64.45603 7.4954863 63.6142
-64.37793 7.4570446 69.16113
-63.864082 8.268864 62.853397
-64.22681 8.681917 63.649998
-64.4092 8.81346 69.46971
-64.15051 9.400301 63.846455
-64.42115 9.187623 64.537704
-64.61813 9.165175 69.246284
-63.731064 9.9815035 63.590908
-64.42348 9.933363 64.791595
-64.356384 10.317914 69.15411
-64.049065 11.380198 64.95783
-64.054016 12.420309 65.05575
-64.47582 12.298096 65.4819
-64.22005 12.505286 69.14396
-63.99308 13.472341 65.1373
-64.39562 13.368047 65.779144
-64.46817 13.708481 66.63928
-64.47727 13.536834 67.25752
-64.39489 13.403287 68.36305
-64.05925 13.309593 69.09965
-63.75928 13.992408 65.20876
-64.00247 14.16613 65.89496
-64.27998 14.007989 66.528175
-64.1844 14.138738 67.50566
-63.96689 14.2387 68.33262
-63.882526 14.0003805 68.932755
-63.704285 14.730942 66.40181
-63.696278 14.766081 67.45752
-63.69387 14.682728 68.04895
-62.55434 -8.289745 52.494514
-62.54999 -8.190764 53.07466
-62.565414 -7.317499 52.55987
-62.560658 -7.4971933 53.061565
-62.52765 -7.045492 52.567978
-62.55987 -7.0911155 53.065647
-62.775604 1.272268 46.077793
-63.11122 1.3715497 46.700706
-63.10288 1.2407173 63.63589
-63.207584 1.0326111 64.570366
-63.058964 1.13384 65.33668
-63.23542 1.7749224 45.786663
-63.40853 1.5896682 46.348396
-63.386707 1.8638483 47.239
-62.923843 2.0723794 62.158478
-63.218708 1.9389511 62.72196
-63.39887 1.5112851 63.62425
-63.57691 1.4124858 65.27551
-63.330803 1.7370038 65.915085
-63.200043 2.6129544 45.280106
-63.57355 2.5309904 45.517345
-63.570286 2.3758693 47.522015
-63.334694 2.5862422 47.736652
-63.00642 2.7014692 61.824375
-63.34604 2.5893044 62.292656
-63.36508 2.619186 66.22634
-63.215195 3.6271825 45.146362
-63.620777 3.7541633 45.51489
-63.229797 3.425147 47.85573
-63.145424 3.8490922 61.36911
-63.500263 3.7222562 61.73322
-63.26667 3.3583837 66.14205
-62.997208 4.6489077 45.19413
-63.518444 4.154271 45.52588
-63.645706 4.0646906 47.469734
-63.077744 4.419572 47.755383
-62.832207 4.219827 61.15304
-63.69585 4.8157263 61.47653
-63.58804 4.7808356 66.09733
-62.955616 5.436724 45.24608
-63.21541 5.29818 45.6329
-63.36857 5.357286 46.289875
-62.956715 5.451137 47.40356
-63.2365 5.5527334 61.100357
-63.25645 5.2967772 67.28698
-63.48279 5.8506813 68.313354
-62.93796 6.076789 69.240036
-62.827908 6.117112 45.2113
-62.841145 6.3941126 45.75327
-62.88178 6.347554 46.370502
-62.701256 6.0034065 47.358337
-63.10589 6.4081964 61.215855
-63.638718 6.761239 61.6761
-62.812954 7.204793 61.352974
-63.474274 7.271642 61.88864
-63.169903 7.689359 70.33473
-63.546947 7.919648 62.26845
-63.435814 8.543848 62.55412
-62.751877 8.769445 70.440285
-63.183098 9.266305 62.704037
-63.097446 9.138208 70.0871
-63.410343 10.252125 63.777596
-63.03344 11.2516985 64.25218
-63.549217 11.933922 64.7376
-63.262863 12.617443 64.503365
-63.022114 12.367413 70.4898
-62.731064 13.366718 64.13554
-63.388134 13.413162 64.68601
-63.224148 13.262018 69.9339
-62.724792 14.227648 64.317474
-63.375206 14.287396 64.9597
-63.630802 14.491436 68.57268
-63.315575 14.227645 69.20633
-62.94772 15.143451 65.093605
-63.161667 15.175043 65.60309
-63.265633 15.151378 66.41642
-63.364735 15.012146 67.587814
-63.224796 14.907517 68.36862
-63.023685 14.73759 68.85336
-62.730976 15.593809 66.25037
-61.81465 -10.767596 52.60933
-61.777153 -10.841711 53.678566
-61.576187 -10.953501 54.30433
-61.883926 -10.08273 51.68872
-62.167946 -10.265328 52.628212
-62.033 -10.292982 53.40442
-61.894215 -10.284884 54.202003
-61.5786 -10.757017 55.03787
-62.100006 -9.550188 51.762943
-62.312794 -9.620465 52.409775
-62.334225 -9.448249 53.246754
-61.985947 -9.411898 54.271698
-62.166286 -8.516332 51.56292
-62.415974 -8.639386 52.293167
-62.403423 -8.41566 53.411125
-62.0509 -8.749758 54.20512
-61.618027 -8.76438 54.770176
-61.98946 -7.429271 51.10373
-62.369804 -7.316179 51.813377
-62.417126 -7.44711 53.341305
-62.031677 -7.4910965 53.936718
-61.636833 -7.1829286 70.07334
-61.78122 -7.2961297 70.575714
-61.766186 -7.237105 71.36807
-61.622055 -7.241099 71.746544
-62.131416 -6.830252 51.661995
-62.382607 -6.6959333 52.713436
-62.234837 -6.70345 53.14174
-61.833683 -6.9907937 53.95175
-61.762085 -6.411234 69.76912
-61.91264 -6.494598 70.447365
-61.81918 -6.614177 71.308235
-61.634037 -6.791605 71.79575
-62.086987 -6.2191195 52.653637
-61.911697 -6.189251 53.12804
-61.67325 -5.789016 69.82404
-61.76027 -5.906368 70.40182
-61.808804 -6.067699 71.060036
-62.139263 1.0785582 45.59374
-61.783916 0.53651226 46.368015
-61.83891 1.0925448 47.296974
-62.43882 1.2168901 63.033688
-62.227787 0.90183926 63.54824
-62.42634 0.7153075 64.402504
-62.841278 0.887357 65.11884
-62.361336 1.4835434 45.271458
-62.8616 1.8894664 47.67615
-62.16813 1.859149 61.837906
-61.937195 1.4952468 62.242226
-62.296276 1.6171126 66.01949
-62.16439 2.40749 44.77941
-62.73429 2.5888743 47.87342
-62.34863 2.7542703 61.26703
-62.572308 2.417245 61.558163
-62.3827 3.0366945 66.59257
-61.99863 3.1159701 44.690727
-62.45413 3.3360753 48.033318
-62.05853 4.239741 67.990456
-61.632908 4.1795526 74.56802
-61.590706 4.0622106 76.476494
-62.70876 4.4615474 44.971542
-62.422886 4.4448776 47.984802
-62.334103 4.400744 60.87761
-61.80211 4.8035126 74.52489
-61.86046 4.646054 75.25327
-61.651104 4.399979 76.46399
-61.559414 4.563382 76.8734
-62.3391 5.4088264 44.71577
-62.122105 5.570485 48.01914
-62.743134 5.13202 60.87627
-62.410793 5.939323 69.431
-62.448364 6.1453857 69.79998
-61.613953 5.642237 72.64514
-61.782326 5.702951 74.91586
-61.800823 5.37366 75.368675
-61.630135 5.4367747 76.23986
-62.47045 6.3842936 45.05393
-62.601807 6.2895308 47.37893
-62.251133 6.2481875 47.850376
-62.40414 6.59662 70.30304
-61.696133 6.167133 72.885124
-61.6835 6.209769 74.75007
-61.60684 6.39534 75.17079
-61.929203 7.1443286 45.016907
-62.455452 6.894615 45.518276
-62.120716 7.3181987 46.365128
-62.011627 6.931507 47.379063
-61.90664 7.002205 60.884026
-62.64175 7.6583157 61.47523
-62.152374 7.352839 71.172714
-61.629925 7.7849617 72.10567
-62.157234 7.817191 61.307674
-62.024475 8.508376 61.774937
-62.64757 8.280391 70.799286
-61.732292 8.503738 72.11822
-62.547943 9.001699 62.19409
-62.516907 9.906168 70.42227
-62.289925 9.501094 70.799706
-62.29157 9.773973 62.687744
-61.95209 11.519673 63.55689
-62.118877 11.7107 71.15255
-62.288895 12.428194 63.902233
-62.41334 12.45645 70.93282
-62.220875 13.73044 63.796234
-62.326668 13.552623 70.209785
-62.089508 13.14651 70.75402
-62.136868 14.295389 63.822723
-62.718616 14.380701 69.410416
-62.122204 13.960438 69.982666
-62.01597 14.990745 64.049446
-62.39653 15.357924 64.75524
-62.666485 15.536925 65.332985
-62.433773 15.399728 67.265785
-62.51667 15.017896 68.39952
-62.371616 14.81583 68.87181
-62.111614 15.74089 64.976265
-62.381363 15.7792425 65.52479
-62.43903 15.807068 66.214386
-60.835423 -11.740163 53.636463
-60.91359 -11.772904 54.44515
-60.570805 -11.054698 50.518047
-60.78373 -11.1298065 51.27046
-61.269154 -11.2413225 52.460224
-61.49972 -11.298976 54.711742
-61.261616 -11.261396 55.251522
-60.762486 -11.389932 55.782608
-60.675415 -10.555185 50.434772
-61.611263 -10.557459 51.659885
-61.39204 -10.2813225 55.48113
-60.861584 -10.284376 56.30614
-60.65369 -10.13216 56.655396
-61.236774 -9.262814 50.88408
-61.334625 -9.525385 55.48004
[...]
POINT_DATA 4412
SCALARS features_00 float 1
LOOKUP_TABLE default
0.36872828 0.36182 0.36648333 0.44719714 0.4407266 0.44484136 0.4467706 0.47976977 0.45013344 0.43117356 0.4235586 0.48739064 0.48681 0.46729526 0.45365947 0.46266782 0.4407667 0.39366156 0.35951048 0.38671368 0.36746612 0.36720413 0.43736398 0.4465493 0.4230647 0.21649462 0.33195344 0.37956977 0.4102659 0.44866818 0.42957085 0.31979114 0.35019502 0.39306363 0.41738877 0.38624987 0.2341519 0.34381124 0.36930436 0.36920875 0.3480625 0.3660337 0.37704822 0.37162185 0.38883317 0.39804792 0.39070392 0.39343062 0.41620907 0.40431687 0.4225409 0.76150143 0.7998196 0.79466087 0.43703496 0.51630235 0.6095073 0.6056284 0.567433 0.78887975 0.837258 0.81394696 0.40713584 0.45509338 0.5216621 0.5249393 0.5341771 0.7448861 0.85521984 0.814556 0.40205187 0.4268821 0.43724418 0.4714729 0.44267315 0.45235097 0.64951205 0.73568696 0.7745093 0.46008867 0.46306598 0.35274357 0.43922722 0.4729718 0.35746425 0.45186943 0.43128735 0.27274406 0.32516292 0.31100613 0.3355917 0.3473851 0.26835158 0.38425952 0.21279328 0.19232742 0.34932265 0.17806944 0.18721391 0.36665976 0.14540888 0.18759449 0.31085348 0.19184743 0.29047197 0.3457747 0.40884814 0.37183654 0.40971982 0.42650473 0.42571887 0.4483343 0.45427874 0.409384 0.44512168 0.4365281 0.44688186 0.46342266 0.46056104 0.4548189 0.4538906 0.45917943 0.47519445 0.45801127 0.47197548 0.46118373 0.470749 0.4585953 0.669096 0.7182112 0.5096685 0.65523523 0.6748803 0.6946162 0.7400209 0.74978334 0.328449 0.380022 0.50934243 0.6619613 0.6067635 0.658956 0.7168621 0.76853293 0.7311621 0.3242149 0.35903978 0.48243052 0.577271 0.63620746 0.6958642 0.33452633 0.3768708 0.3967358 0.5015765 0.5876509 0.72371984 0.5939372 0.29653352 0.41623223 0.23789142 0.49816266 0.51941204 0.58776534 0.5664633 0.36808687 0.026051745 0.20258032 0.22227965 0.49977523 0.5288189 0.5622046 0.53784835 0.3290648 0.34806854 0.22138214 0.2736659 0.24359724 0.21794885 0.1779633 0.12727123 0.14353342 0.1794895 0.102905795 0.05526679 0.17659025 0.20479183 0.3608053 0.23937808 0.30317557 0.4048746 0.35464516 0.40665144 0.457326 0.43151557 0.44573152 0.46279925 0.46395028 0.452819 0.44161195 0.4220201 0.46365124 0.41716003 0.432098 0.43453634 0.40047002 0.44546816 0.4458161 0.43787628 0.42423603 0.44339398 0.46653014 0.4571671 0.42267233 0.48648992 0.48299813 0.44446266 0.4079615 0.35598284 0.48632264 0.48705783 0.447896 0.41182476 0.75321305 0.8017448 0.8476535 0.85891306 0.48539823 0.46197975 0.44191658 0.40339237 0.73487777 0.8002334 0.8493968 0.8544464 0.44393092 0.41475064 0.73330426 0.7908062 0.8345212 0.6112728 0.59371686 0.6079987 0.36547875 0.43310773 0.5924075 0.66846967 0.5965291 0.6692218 0.25696146 0.25556552 0.57711357 0.51735264 0.6238639 0.25465015 0.27944508 0.35733843 0.44906336 0.5521297 0.0848084 0.5498215 0.6418102 0.46790865 0.49041116 0.23892984 0.518085 0.5813671 0.62410927 0.61967623 0.44141376 0.42689323 0.28762925 0.19995505 0.22420856 0.30384606 0.46620733 0.5197378 0.5242574 0.48662236 0.52589965 0.45464173 0.21433626 0.23321632 0.3850007 0.37871945 0.4644938 0.5144799 0.5342443 0.4988433 0.16326234 0.16460356 0.053000644 0.004312843 0.101948574 0.021269523 0.09361889 0.050100066 0.072149694 0.078770384 0.046295516 -0.0067193285 0.0044776313 0.2744257 0.11848499 0.33348554 0.2694844 0.3393238 0.322425 0.34666756 0.38635632 0.32599828 0.4179826 0.4424309 0.45931178 0.41429484 0.39505166 0.3736257 0.44993097 0.45786554 0.45178157 0.3300107 0.3771033 0.44134462 0.36591774 0.34808546 0.42801934 0.41655636 0.37853867 0.44373268 0.37631062 0.38627458 0.31522763 0.27101946 0.36318702 0.34714657 0.29824302 0.30294904 0.72370875 0.7790762 0.82378316 0.8307023 0.39383948 0.3513826 0.6285503 0.70266974 0.79364365 0.8509779 0.85799193 0.3866855 0.3679434 0.27951413 0.61085176 0.6752798 0.83276314 0.86028266 0.8492659 0.79878914 0.29960725 0.41522485 0.3037777 0.2851492 0.602983 0.6830255 0.7610466 0.7939992 0.748342 0.8342123 0.81225884 0.7558764 0.33659834 0.32429048 0.2340436 0.298203 0.56053555 0.69377375 0.67781425 0.79880595 0.7759094 0.6645321 0.40177226 0.3885983 0.34912303 0.27316204 0.6949793 0.6934992 0.42511883 0.44275796 0.40550867 0.3585358 0.4547664 0.41681427 0.47747326 0.53525406 0.5740004 0.5793803 0.20904887 0.2387245 0.5054797 0.54718745 0.48452842 0.20217925 0.26560044 0.41214556 0.14255825 0.08267839 0.6209477 0.6562066 0.24408342 0.38433146 0.15621464 0.10531649 0.44380337 0.53971803 0.6110164 0.6552061 0.64898694 0.63064456 0.16402546 0.10746427 0.34180707 0.46778613 0.624184 0.6162816 0.40242496 0.30615088 0.1319657 0.18592001 0.29782164 0.34924877 0.539232 0.58612025 0.590284 0.41227466 0.089548856 0.35711232 0.3958312 0.5084207 0.37807143 0.32880718 0.28429526 0.057091225 0.01896301 0.231208 0.2880551 0.26580402 0.3997953 0.3964286 -0.1057479 0.10319411 0.4859201 0.022026472 0.08259924 0.054501444 0.67223436 -0.024809815 -0.16910872 0.06413121 0.7583717 0.79632556 0.7544727 0.010053951 -0.027380798 0.83196783 0.14814809 0.22677648 0.30027896 0.27227074 0.3812128 0.39919093 0.22495763 0.26607126 0.4428837 0.44593933 0.31361938 0.30583066 0.2832551 0.44758046 0.43251643 0.40667537 0.3667169 0.6479384 0.7455473 0.78965497 0.5228138 0.46318477 0.33862624 0.23937067 0.23648463 0.27551845 0.35991016 0.32959598 0.6007421 0.6739426 0.7780424 0.78620577 0.52214634 0.48735133 0.2753294 0.31902027 0.44889477 0.70546645 0.6677196 0.51713324 0.44315952 0.27835143 0.1885433 0.5598 0.5104767 0.200807 0.12657285 0.6174203 0.72261405 0.7750663 0.83616745 0.9162023 0.16124217 0.51053494 0.5612152 0.91929716 0.30372563 0.19847295 0.46204087 0.8086201 0.8058584 0.844632 0.85929286 0.85495174 0.8097391 0.7301396 0.35797155 0.26001966 0.4842679 0.5159497 0.620015 0.6733891 0.82951295 0.85299826 0.6970997 0.60563284 0.32299584 0.124424875 0.12032583 0.13886559 0.47347176 0.5111712 0.51934373 0.54934365 0.5372677 0.75596774 0.75771844 0.06793517 0.43884945 0.488883 0.51134616 0.57672477 0.58078957 0.58886665 0.57117045 0.4722963 0.27869606 0.3158302 0.53763455 0.19490424 0.41995212 0.30453816 0.36580628 0.0070677847 -0.20901614 0.34777117 0.3551784 0.18310906 0.20181198 0.26553205 0.3142627 0.32409006 0.20247003 0.20364273 0.3415473 0.060071692 0.11522494 0.1441483 0.21483275 0.15770206 0.05691915 0.08183346 0.064138144 0.4691463 0.5747969 0.6429763 0.6576462 0.2118031 0.12770791 0.07289202 0.39562672 0.64451545 0.6285583 0.11623469 0.13159527 0.26705688 0.60453373 0.30234024 0.2061488 0.08317351 0.10057051 0.594408 0.30631444 0.23644827 -0.103848085 -0.06572518 0.5543884 0.2945461 0.15902714 0.07576959 0.18697028 0.36459798 0.48598242 0.26730198 0.17655253 0.24467146 0.22104257 0.21611139 0.03081932 0.11563119 0.124697074 0.3488514 0.5479616 0.30365866 0.28768975 0.22167434 0.10067493 0.03275834 0.041081943 0.5944576 0.6359612 0.49443537 0.31999853 0.2612468 0.1396189 0.6821053 0.74830973 0.7030091 0.61297727 0.23172393 0.151261 0.076721616 0.84258926 0.8735299 0.8055941 0.690318 -0.025962824 0.26924857 0.25527737 0.8804361 0.89774466 0.86356384 0.22496188 0.37791154 0.46139988 0.19047242 0.20733957 0.45442438 0.40600687 0.31440848 0.25456044 0.6370512 0.6897429 0.7212118 0.44854242 0.33019757 0.14179176 0.40017724 0.56999826 0.72796977 0.7547775 0.76166844 0.5949965 0.55639136 0.45521674 0.30647147 0.20223728 0.1465163 0.2128529 0.7376965 0.5819704 0.5580606 0.66045284 0.6198944 0.58752346 0.5668322 0.5847754 0.55207837 0.19553736 0.48953384 0.7260159 0.8044994 0.322446 0.10787465 0.19982761 0.3033549 0.39205492 0.6499505 0.7136395 0.8290374 0.9234416 0.06581348 0.22617781 0.26839948 0.43754414 0.5062014 0.9713007 0.26259404 0.07170427 0.35468873 0.412853 0.9013081 0.811972 0.8256966 0.82912517 0.8037677 0.09986467 0.4077296 0.5807237 0.7191293 0.7784604 0.43655407 0.045882788 0.4250462 0.41723335 0.67402864 0.40764892 0.009970292 -0.037891164 0.3887204 0.38272828 0.36990133 0.37249377 0.37923616 0.53138983 0.5679239 -0.08139992 0.2961087 0.31559813 0.49700278 0.19186366 0.1231122 0.07225774 0.043543726 0.39933348 0.30242103 0.2018979 0.15773469 0.102483004 0.12651104 0.20682724 0.30675817 0.1847337 0.18827686 -0.034366082 -0.0727674 0.13836297 0.13216089 0.005965609 -0.057342377 -0.081023194 0.023630563 0.023601856 0.03170806 0.3358177 0.39506194 0.54914504 0.620402 0.6155847 0.5937193 0.02735672 -0.0017974656 0.16890126 0.21477355 0.33594376 0.59489524 0.08137696 0.051767275 0.2361684 0.17102912 0.59605944 0.59128606 0.17920986 0.03501605 0.35415423 0.29065648 0.18340072 0.020675823 0.5998385 0.22868088 0.111903645 0.44122428 0.4083433 0.34204042 -0.03641125 0.5745502 0.22573522 0.105986625 0.4880185 0.48251808 0.4234981 0.27569202 0.051301397 0.25496906 0.44293743 0.48783848 0.4852838 0.4395045 0.18373369 0.1947687 0.068798035 0.23235023 0.2927422 0.320112 0.13923463 0.037065517 0.3020496 0.08743525 0.5059219 0.36882246 0.3232813 0.32293928 0.13602999 0.64663225 0.5086913 0.2807635 0.25709972 0.13438924 0.29011297 0.7244601 0.8120729 0.5912529 0.23748145 0.08238666 0.16620022 0.5556282 0.84717405 0.89134717 0.8524378 0.15072255 0.16910294 0.14691617 0.4039257 0.27849698 0.2541035 0.41788268 0.34069207 0.3073686 0.23046386 0.23514462 0.3010484 0.30011192 0.27698028 0.47537875 0.6109846 0.6576259 0.6815497 0.46451724 0.3950472 0.14336362 0.06679645 0.10560419 0.23546563 0.68967307 0.6787772 0.6154591 0.63559496 0.60990834 0.5902766 0.5999526 0.60765433 0.60334146 0.47379822 0.5882349 0.75953436 0.82142854 0.38580728 0.3276712 0.31135255 0.42673945 0.4385131 0.6019551 0.73862743 0.8720177 0.92735845 0.23870522 0.28606713 0.31339318 0.35316253 0.3964172 0.9578445 0.15097864 0.19894701 0.22327465 0.30299693 0.320143 0.3517564 0.93525064 0.6981305 0.7654186 0.58715194 0.33433035 0.14883702 0.16796656 0.25387776 0.2562598 0.66861975 0.6868298 -0.03497582 0.04375527 0.10632714 0.24706998 0.23155782 0.4428177 0.53970885 0.59749115 -0.11143839 0.22923091 0.19404803 0.22586358 0.3178764 0.30975187 0.34513077 0.51090246 -0.08517361 -0.11156614 0.1130564 0.14844927 0.05592693 0.2896843 0.20058131 0.1895601 0.48345608 0.43661577 0.021348642 0.10246006 0.078943 0.0013770834 0.03443435 0.045110002 0.15105927 0.39080483 0.22791283 0.2142978 0.1789566 0.047552742 0.2197489 0.30779713 0.17596383 0.18955034 0.19645463 -0.014787154 0.008545276 0.02575893 0.14649628 -0.024680987 -0.024199285 0.012545787 0.047964063 -0.010324815 -0.0989563 0.47164458 0.57532156 0.565917 -0.11271608 0.17101981 0.17373845 0.15989615 0.15919253 -0.096760884 -0.16621791 0.13665256 0.56825984 0.5547678 0.058921825 -0.29422837 0.1744354 0.20152758 0.26790646 0.17462918 0.118766725 -0.11257369 -0.26430634 0.56569016 -0.16183236 0.31697017 0.5783193 0.12213167 0.54900557 0.14477238 -0.084553845 0.43937206 0.47618544 0.45625985 0.2504486 0.19323021 -0.044870887 0.42676136 0.4664339 0.059722587 0.3651024 -0.021631915 0.42486858 0.38600138 0.32888365 0.15546206 0.08064131 0.075831816 0.441678 0.4382379 0.13913545 0.23783392 0.28021812 0.21740517 0.2608625 0.43380752 0.47214538 0.58542633 0.4868506 0.21835902 0.17181276 0.15071154 -0.020132538 0.35580254 0.47349393 0.6096779 0.60354394 0.55558133 0.67496926 0.7127261 0.7752093 0.7699375 0.69050705 -0.028674878 0.5755329 0.6324885 0.63622814 0.18220836 0.26454082 0.29826027 0.3416247 0.28425473 0.34419155 0.3210635 0.28193447 0.32248026 0.33487797 0.27087313 0.28924063 0.3083016 0.5212111 0.59859717 0.57858247 0.4813773 0.3705302 0.03979054 0.05847694 0.14213917 0.5871482 0.58383846 0.59362495 0.60304487 0.500775 0.5871307 0.49800783 0.58090425 0.5756608 0.3439346 0.6607434 0.22178344 0.65185535 0.79327434 0.85367024 0.89621174 0.34731102 0.35099253 0.22115707 0.19348955 0.34107664 0.8640349 0.881757 0.23139203 0.33617318 0.31760347 0.85621315 0.5507359 0.4207319 0.12780957 -0.06749172 0.1498473 0.24006774 0.2864456 0.29196036 0.6633419 0.535141 0.44954294 0.4611842 0.101892486 0.14128765 0.25313443 0.28733343 0.43310797 0.5000297 -0.00371008 0.14792666 0.17109272 0.2963508 0.46358883 -0.030510424 0.43960142 -0.027760103 -0.0048836637 0.16038366 -0.28874403 -0.27656788 -0.016245838 0.3221429 -0.030320294 0.16411321 0.21339644 -0.22796789 -0.123972416 -0.07331608 0.24257134 -0.013030611 0.1819725 -0.09304489 -0.022534408 0.09626782 -0.30661127 0.045991864 -0.033685483 0.13428119 -0.07276412 0.092303604 0.10624437 0.07258321 -0.022870474 -0.20125839 0.46636105 0.5296345 0.5496327 -0.122822404 -0.2196969 -0.039822333 0.10455999 0.1453329 -0.13358429 -0.36362007 -0.19119549 0.09380026 0.54765254 0.54772836 -0.4169224 -0.18190023 0.08754146 0.52326214 -0.025504742 -0.24027762 -0.12910548 0.07943235 0.50780153 0.0991448 -0.1268774 -0.23669359 0.009688646 0.41549242 0.21050005 -0.24244009 -0.21137339 0.23020114 0.3245119 0.2435422 -0.1890035 0.31986016 0.34525466 -0.15311418 0.31445837 0.18672478 0.122317985 -0.057114523 0.42909786 -0.04128206 0.37961394 0.46910727 0.4973574 0.26374587 -0.0110030435 0.18735513 0.47446656 0.51376736 0.3122913 0.26979584 0.17165437 0.16511507 0.18067878 0.59367526 0.5609906 0.54200107 0.5945465 0.6348995 0.64871496 0.51716524 0.12432458 0.074520946 -0.003455542 0.44190326 0.5953933 0.6363931 0.6102508 0.57762176 -0.016555961 0.16684505 0.15133718 0.3116593 0.28266576 0.31578958 0.32831305 0.30155337 0.27328253 0.2592165 0.24441773 0.28824544 0.28689554 0.41282827 0.55306995 0.44861665 0.55756414 0.36841547 0.41764438 0.55468893 0.4053374 0.48568934 0.5051168 0.50721407 0.3616258 0.29748356 0.5677573 -0.010406226 0.6642299 0.7150204 0.79985595 0.8361113 -0.15920426 0.32584286 0.33527675 0.2986695 0.20074233 0.18693307 0.56855553 0.79676294 0.83424866 0.8493306 -0.42935786 0.19703747 0.28889936 0.061572812 0.3167917 0.11521975 0.12386562 0.78579104 0.80586946 0.8259535 -0.10211295 -0.19023001 -0.20615248 0.13638802 0.2834249 0.56900036 0.751982 0.41846246 0.39433706 0.3449942 0.2512858 0.012739813 -0.209081 -0.33431053 0.14300013 0.109973796 0.32917187 0.41366532 -0.15059102 0.13457517 0.43368894 -0.013777334 -0.08359088 0.044764027 0.23258129 0.3885321 0.0018962896 0.14974383 0.1390232 0.2699652 0.363535 0.29625723 -0.06439307 -0.20699866 0.18234527 0.06377275 0.23440158 -0.092567846 -0.15577161 -0.14695258 -0.18268278 -0.049789105 0.043065153 -0.005061325 0.15171751 0.13766451 -0.3692277 -0.05535833 -0.10292762 -0.14980637 -0.06785399 -0.032878038 0.033004306 -0.2485516 -0.07149301 -0.23234147 0.41323388 0.49769098 0.52521527 -0.1616317 -0.19465697 -0.039574727 0.06805291 0.2448456 0.4791842 0.5261536 0.5327736 -0.115068875 0.51072156 0.5092911 -0.1003983 0.44196993 0.4088096 0.0780911 -0.23364022 0.15897545 -0.13715196 0.24448791 0.28993982 -0.18766655 -0.15021211 -0.2802171 0.15494144 0.14747363 0.38811463 0.23041 0.11672856 0.4228647 -0.0020450726 -0.11453062 0.058022328 0.015067503 -0.11629675 0.38307148 0.45893544 0.04282309 0.1990773 -0.06750518 0.07537813 0.4714272 0.47938538 0.2668373 0.3128276 0.33939487 0.5244311 0.5289769 0.59655404 0.5948476 0.4257555 0.10861226 0.052720293 0.0043115877 0.102437526 0.22883557 0.588251 0.55582166 0.5320071 -0.0093914755 -0.056252547 0.16581735 0.35023898 0.554417 0.53578246 -6.85174e-06 0.3825097 0.49756104 0.17292364 0.21144913 0.27183712 0.5418589 0.18725307 0.21011956 0.24552128 0.35525262 0.39259034 0.37344515 0.5267744 0.45912075 0.3700315 0.30396748 0.5330042 0.53046286 0.11504295 0.21061745 0.52982056 0.28883982 0.37547937 0.5051869 0.3888569 0.43963188 0.18900415 0.47967595 0.04334562 0.4906208 0.23363014 0.27211365 0.26435772 0.18352099 -0.41079795 -0.40858108 -0.22074367 -0.030561551 0.08942585 0.16017914 0.24696758 0.20452672 0.116642356 0.077265695 -0.27941507 -0.35828906 0.18073033 0.05679054 -0.27402553 -0.23819606 0.37916717 0.3521814 0.13193552 -0.26007172 -0.24605805 -0.31823426 0.35426697 -0.123477995 -0.20223756 0.3999192 0.34965578 -0.1184805 0.3753699 0.27744925 -0.19986875 -0.19830035 -0.015482429 0.047771815 0.37054923 0.22149149 -0.1347142 0.15929069 0.11785711 -0.0010322817 -0.01581686 -0.18211967 -0.12296699 -0.093721524 0.06395046 0.36091554 0.46888596 -0.09917449 -0.0964173 0.49584007 0.4222625 0.11731388 0.2076426 0.21777454 0.2648714 -0.20841685 -0.30896112 0.08344271 0.25508958 0.32521355 -0.13775186 -0.14308035 0.39196527 0.011531681 0.42724842 0.43706763 -0.015273467 -0.007899925 0.4291439 0.4372968 0.19775882 0.2665965 0.09510313 0.13633002 0.12609313 -0.033821166 0.4356717 0.43996897 0.432332 0.67006433 0.5530216 0.48920396 0.08248687 0.05406668 0.46168768 0.47470587 0.6642424 0.62200713 -0.029613242 -0.07103368 0.43117112 0.33897787 0.1323562 0.049557664 0.4964621 0.57838464 0.5230409 0.48216772 0.28163356 0.2779113 0.23198274 0.1566299 0.56250244 0.539677 0.5120644 0.4080006 0.47729447 0.48198423 0.5055027 0.4700199 0.33791146 0.5224229 0.14642847 0.5230822 0.5135831 0.11139528 0.50070995 0.31320465 0.33869448 0.27969676 0.33635098 0.04587063 0.1772504 0.35295838 -0.5003218 -0.5002636 0.37864968 0.33499354 0.033609122 0.13341779 0.117915645 0.14722125 0.24681911 -0.19519465 -0.23143974 0.32021928 0.31320125 -0.15300727 -0.18528298 0.3350548 0.28384203 0.4603116 0.2957623 0.232696 -0.3313675 0.45023844 0.45242074 0.21816686 0.18757248 -0.34852538 0.41796815 0.43176416 0.2436594 -0.2909155 -0.32672715 -0.27174684 0.42160708 0.19742174 0.40157354 0.1189148 0.027495356 -0.015922874 0.04709597 -0.05767964 -0.043436937 -0.08980899 -0.08989939 0.015997589 0.14489591 0.22566274 0.3307108 0.22576518 0.3341518 0.26607427 0.28239447 0.38224852 -0.037289474 0.35665768 0.28020245 0.037293036 0.11780855 -0.04985661 0.6827344 0.68183994 0.47496682 0.41950464 0.09324467 -0.050573647 0.028873771 0.35630852 0.7127751 0.7028273 0.64526105 0.5872501 0.03337857 -0.013875846 0.694249 0.66356194 0.44844717 0.39290127 0.59245193 0.50736284 0.17295867 0.05946141 0.28946334 0.435973 0.553548 0.5202892 0.4874771 0.6144473 0.5565139 0.49426436 0.22613125 0.31228825 0.32861656 0.27723908 0.17220555 0.5981114 0.623072 0.61468005 0.58503854 0.5244614 0.32929695 0.6156564 0.6036626 0.5722246 0.6085399 0.5787566 0.56392264 0.38447046 0.4755059 0.5232234 0.49868035 0.3937775 0.377809 0.4951232 0.43891114 0.33051947 0.4804151 0.45101047 0.45099634 0.3904125 0.1013253 0.58175546 0.58937836 0.5710552 0.5305879 0.5111712 -0.22657046 -0.15368348 -0.1435552 -0.09911974 -0.049602434 -0.08920283 -0.069805495 -0.041279785 -0.0124311745 0.115799546 0.10882857 -0.05825949 0.13091642 0.28751978 0.34270495 0.359416 -0.0807954 0.40186706 0.48397547 0.082255885 0.4715563 0.4755258 0.19407898 -0.29659557 -0.5382736 0.42024022 0.3071566 -0.54516643 -0.7925105 0.3230205 0.3711425 0.21828723 0.0941663 0.11344695 -0.09075276 -0.04939594 -0.056359135 0.20279787 0.44581598 -0.13539052 0.6191946 -0.10267383 0.42654306 0.47109574 0.15056804 0.39097202 0.20408896 0.38450152 0.24260075 0.2460478 0.27112135 0.33664805 0.2687323 0.29465023 0.31397668 0.25477302 0.22050516 0.57981426 0.1943188 0.00043643126 -0.062783904 -0.06392209 0.046669044 0.48136765 0.6763054 0.5740408 -0.06867331 0.012896955 -0.044153154 0.46457887 0.6307279 0.64923 0.63484645 0.46526402 0.44824445 0.4680373 0.42318788 0.38045317 0.051333383 -0.026860517 0.1791533 0.2652741 0.3433632 0.4483652 0.48509806 0.4753567 0.5300408 0.51147944 0.40342292 0.11050196 0.22295024 0.2022313 0.13913427 0.5738474 0.5882282 0.483845 0.23316398 0.22348179 0.3051416 0.31337422 0.2821714 0.5806248 0.596207 0.60397786 0.59310997 0.5302304 0.4539842 0.36984968 0.5451366 0.4865989 0.6232525 0.60071456 0.5680418 0.5318068 0.5923193 0.59245384 0.5689099 0.5181863 0.31238002 0.40157485 0.4958384 0.3445181 0.08668834 0.12894262 0.46407664 0.43135124 0.35758582 0.2847104 0.34909987 0.25549844 -0.2013194 0.5664958 0.58653104 -0.26878813 0.12350127 0.27948096 0.5393066 0.55678856 -0.18420829 -0.10283035 0.12780713 0.25263184 0.29400647 0.23969045 0.5207842 0.16574882 0.18458076 0.30417326 0.36432764 0.40496933 0.45867133 0.02821146 0.5144111 0.25095186 0.50515187 0.49185807 0.34581038 0.27966917 0.44801158 0.3951764 0.34982133 0.38460737 0.17741501 0.36