# vtk DataFile Version 2.0
Really cool data
ASCII
DATASET POLYDATA
POINTS 4563 float
-1.6212463 -9.051429 1.9891342
-1.6962774 -9.086708 2.6050467
-1.6084661 -9.029469 3.027745
-1.6908684 -8.617921 1.904312
-1.7896001 -8.551519 2.5079484
-1.69696 -8.483054 3.1229954
-1.692217 -7.820033 2.4270802
-1.6471093 -7.841303 3.1150935
-0.6615724 -10.168681 0.6448662
-0.81317925 -10.246869 1.3399464
-1.1662847 -9.780414 2.3891656
-0.81355226 -9.505783 0.59774387
-1.3524619 -9.296651 1.688061
-1.4254538 -9.404406 2.6658027
-1.3639556 -9.168704 3.170457
-0.9306251 -8.9864855 3.6504836
-1.0232052 -8.672772 0.9076821
-1.5178646 -8.380176 1.6177813
-1.4531662 -8.448205 3.4732876
-1.0190835 -8.489746 3.7855358
-0.71624744 -7.6160297 0.93151414
-1.23332 -7.600234 1.6278509
-1.5020355 -7.4183483 2.665125
-1.3887678 -7.614329 3.3862295
-1.0226576 -7.6980124 3.790131
-1.067738 -7.1880913 1.7937392
-1.2295747 -7.0387893 2.4876535
-0.995338 -6.9291344 3.36269
-0.16298316 -10.723877 0.7334037
-0.18254443 -10.7494135 1.2430408
-0.057208344 -10.2496395 0.10921663
-0.37691605 -10.3600235 0.5025281
-0.4949035 -10.551355 1.392572
-0.192566 -10.532943 1.9526942
-0.59159815 -9.707246 3.0632873
-0.26668614 -9.618362 0.044450223
-0.5444734 -9.447596 3.3506036
-0.6072163 -9.016145 3.6878755
-0.3257204 -8.302682 0.19992614
-0.57693154 -8.270782 3.9326043
0.05291663 -7.7970147 0.10335985
-0.32686895 -7.707237 3.9863384
-0.060970604 -7.0084963 0.8001119
-0.38504344 -6.6582875 1.546601
-0.62325674 -6.5416074 2.6161354
-0.3333846 -6.555489 3.2662024
-0.58390254 -7.0560923 3.831276
0.0974713 -6.2404895 1.7400601
-0.30619493 -6.3998613 2.7852764
0.87128437 -10.599695 0.13166511
0.48111463 -10.790509 0.58127844
0.3602222 -10.825885 1.4687117
0.56556255 -10.056811 -0.26728627
0.52368355 -10.274711 2.387364
0.008931193 -9.91712 2.8126554
0.90992254 -9.622992 -0.5729017
0.6707336 -9.634704 -0.4230615
0.09184942 -8.809027 3.7327363
0.35362154 -8.586785 -0.26647124
0.43655062 -8.3847685 3.7906196
0.45510256 -7.402724 0.114430666
-0.0028479584 -7.1987476 3.900495
1.002451 -6.9759326 -0.18593583
0.5546969 -6.5430117 0.66929835
0.76092803 -6.1325054 0.87563133
0.9028355 -5.7720995 1.8323002
0.452259 -6.06939 2.192254
1.2730561 -10.714882 0.66462886
1.4215329 -10.305088 -0.08815035
0.9557461 -10.42818 2.065891
2.353149 -9.978301 11.443862
1.4098054 -9.31462 -0.656983
1.4336389 -9.66297 -0.48008823
1.0426114 -9.363752 3.0784712
2.224985 -9.401761 10.586416
2.2126133 -9.5026865 11.495334
2.2187796 -9.093806 12.046978
1.7576079 -8.454282 -0.8110962
2.2160246 -8.237551 8.953761
1.9746641 -8.293837 9.625839
1.8989171 -8.357222 10.524028
2.1200118 -8.4480295 11.341425
1.844884 -7.3176804 -0.92320585
1.3593739 -7.159826 -0.5889646
2.2739072 -7.91323 8.751816
1.9368804 -7.4933577 9.590408
1.8123531 -7.7629347 10.392824
2.1787567 -7.451941 12.287687
2.1475186 -7.0673385 13.562634
2.340418 -7.0050797 15.143536
1.7570223 -6.8130984 -0.6768254
1.7376878 -6.491294 -0.44040677
1.4561521 -6.8344746 3.6278896
2.3267555 -6.2971416 8.844874
2.200226 -6.6982675 9.353242
1.9775496 -6.8721457 10.354211
2.1347225 -6.268028 11.813703
2.024443 -6.435408 12.506078
1.850765 -6.0830398 13.581175
1.7882249 -6.277966 14.381813
2.0218928 -6.13491 15.202887
1.3238829 -5.9515147 0.7021285
1.6383631 -5.505754 1.453055
1.2743629 -5.671618 2.2710223
1.4645027 -5.8563104 2.9798324
2.3372192 -5.782023 9.663828
2.3097641 -5.887061 10.368517
2.281307 -5.8559313 11.635032
2.3053951 -5.4260054 12.581253
1.8434376 -5.506516 13.785566
1.7762973 -5.533307 14.479336
1.9869165 -5.6145716 15.213548
2.0907855 -5.133412 1.4259696
1.9560516 -5.371952 2.1766279
2.1050034 -4.7473645 13.739483
2.1878166 -4.521994 14.472198
2.1244588 -4.963347 15.200176
2.3277326 -4.254054 14.312292
3.4264627 -14.97695 3.515135
3.3957396 -14.540667 3.4006746
3.4135725 -14.451766 4.3262773
3.4412637 -14.0307665 3.5754669
3.1040244 -10.786749 11.425627
1.8339173 -10.197958 -0.032998085
2.064127 -10.23992 0.35481372
2.905105 -10.174125 9.978879
2.7915912 -10.345069 10.619543
2.5262759 -10.181253 11.530305
2.8229113 -10.064809 12.387971
2.125293 -8.980106 -0.68069
2.2055938 -9.517875 -0.34200162
2.633089 -8.898958 8.804097
2.6411755 -9.476932 9.597091
2.460724 -9.7404375 12.048494
3.0416749 -9.281536 12.956099
3.0026937 -8.882332 14.342192
2.2898226 -8.066208 -1.0453812
2.7252462 -8.207224 3.2174702
2.8443453 -8.273579 8.122201
2.5199118 -8.540556 8.668364
2.4815836 -8.582279 12.407706
2.9085524 -8.587618 14.344109
2.9523492 -8.313256 14.843033
2.5343373 -7.4699783 -1.0620112
2.8727648 -7.7983913 7.939076
2.5264027 -7.6002254 14.566117
2.5673447 -7.546151 14.888338
2.6542852 -6.808106 -1.0165607
2.9533856 -6.504623 4.339849
2.6831858 -6.248907 8.520325
2.4690928 -6.6193504 15.464779
2.7127967 -6.2398996 -0.79830766
2.9506154 -5.95964 4.3572736
3.2250552 -5.784461 6.047921
2.9146452 -5.2213078 6.864487
2.8191123 -5.7104287 7.439759
2.7763686 -5.4440904 8.4837265
2.536342 -5.4697995 9.257911
2.7269864 -5.5820765 15.931304
2.7944286 -5.2067857 0.12382136
2.7392516 -4.953363 0.5322743
2.6531794 -4.818299 1.3935893
3.1721597 -4.5446143 2.4815633
3.2822306 -4.492949 3.1614277
3.4091017 -4.4984837 4.2646995
3.0896802 -4.6092405 6.7046266
3.1572132 -4.385434 7.3254824
2.8361487 -5.023466 8.473547
2.957095 -4.8153152 9.269653
3.017107 -4.9414763 10.181037
3.022449 -4.9673758 11.45004
2.787371 -4.8272443 12.612912
2.4540062 -4.353086 13.3979
2.6123035 -4.5899906 15.442131
2.9386413 -4.8042846 15.863565
3.3124688 -4.2581615 8.453212
2.68641 -4.0703135 13.7959
2.6726365 -4.0447216 14.5048485
2.8647602 -4.0662184 15.016183
3.211855 1.0710851 0.29002568
3.0809605 0.86375624 0.64905345
2.7716477 0.8614819 1.6035779
2.830438 0.9957839 2.2202466
3.2420068 1.1382071 2.9575257
3.2428007 1.3633503 0.2847135
2.910543 1.4484212 0.6516549
2.5938044 1.5976505 1.6081449
2.7046041 1.5025816 2.4341984
3.0073786 1.6259221 2.9041338
2.981548 2.1734648 0.77822924
2.6912189 2.207601 1.642371
2.7591574 2.3076181 2.2911093
3.0417068 2.3563871 2.803247
3.3179696 2.971984 0.8088155
3.198879 2.9768891 1.4730533
3.1721497 2.9509063 2.3431692
3.27633 2.952838 2.815532
4.2994123 -17.102512 11.6231985
4.345735 -17.227041 12.221659
4.428263 -16.91544 12.838374
4.171008 -15.80907 2.9340775
4.061768 -15.873838 3.4131114
4.1038103 -15.8690815 4.164266
4.3954167 -16.401459 10.709691
4.170488 -16.47288 11.560908
4.1867633 -16.368664 12.356516
4.3413 -16.461052 12.80358
4.0016837 -15.382492 2.7366283
3.6589289 -15.336724 3.5484128
3.7114103 -15.274327 4.293394
4.416274 -15.717851 10.755518
4.2243924 -15.5537 11.309435
4.1895843 -15.596555 12.356836
4.3552217 -15.837068 12.819591
4.2198153 -14.455433 2.2694082
3.7979436 -14.498657 2.7414782
3.4887624 -14.575725 3.3352354
3.4814587 -14.541287 4.644166
3.8272798 -14.30345 5.046878
4.174238 -13.3198 2.797013
3.5020747 -13.817104 3.8936098
3.6161158 -13.908933 4.556167
3.750073 -14.027874 4.888542
3.9046001 -13.264889 3.6654286
4.014889 -13.303695 4.376623
4.1072235 -10.710928 10.034956
3.6214173 -10.937286 10.62487
4.1863084 -10.79981 19.987259
4.2469063 -10.927086 20.574968
4.273314 -10.930399 21.248766
2.8981528 -9.69723 0.97730803
4.0785027 -10.194059 9.124812
3.661776 -10.355387 9.561457
3.405921 -10.399106 12.658775
4.231063 -9.709084 15.005432
4.242699 -10.308999 19.669205
4.05354 -10.396501 20.458408
4.219275 -10.501986 21.489492
4.3009458 -10.314522 21.84959
3.1875465 -8.886677 -0.29326993
3.6180143 -9.519311 8.834151
3.6196415 -9.54338 14.227549
3.6149337 -9.168045 15.323273
4.1294327 -9.812437 19.665586
4.0139084 -9.558598 20.798199
4.088358 -9.586597 21.244081
4.2626047 -9.456433 21.778805
3.067254 -8.447341 -0.7268697
3.898276 -8.445473 3.4781232
4.023378 -8.172032 3.8412037
3.5590768 -8.653934 7.8454657
4.3072715 -8.786433 20.648882
4.2746634 -8.84398 21.138712
3.266395 -7.220719 -1.0910009
3.8570266 -7.3336062 4.568096
3.8559752 -7.4263687 4.853825
4.031882 -7.442651 7.02755
4.1995454 -7.0308514 16.469427
3.2495306 -6.8065867 -0.94057107
3.7481236 -6.6499734 6.5523953
3.8273282 -5.9446435 -0.59104776
3.7883146 -5.728592 16.390245
3.6267626 -4.6827254 0.44727576
3.6738648 -4.3546224 4.6445956
3.4665534 -4.3688917 6.3246474
3.8023067 -4.5142937 9.907245
3.4733474 -4.706272 11.515893
3.6018825 -4.6630373 16.037193
3.706576 -4.333361 1.5888616
3.8757195 -3.8026235 2.8098307
3.8308163 -3.3773556 4.3770857
3.6713834 -3.444812 6.2752066
3.690765 -3.40894 7.0140195
3.785008 -4.0492744 12.977123
3.5757399 -3.8400698 13.785896
3.3036995 -3.7759988 14.48283
3.431751 -3.9973981 15.152591
3.9029927 -2.965029 4.616293
3.971883 -2.6699984 5.61323
3.9884605 -2.9062884 7.2696304
4.320281 -2.2220366 5.691664
3.6958761 0.10072282 1.4999958
3.72472 0.067174256 2.1250424
3.3981552 0.7702396 0.3363825
3.5400736 0.57794595 0.42770123
3.4900475 0.5064741 2.734731
3.6205869 1.6066704 0.029021949
3.3532128 1.5211025 3.190535
3.775527 2.3468611 0.099362135
3.6848578 2.7791576 3.3588955
4.1080737 3.2112198 0.1421988
3.6778123 3.3503118 0.65764785
3.450462 3.3622806 1.3676258
3.823069 3.3434238 3.2124338
4.170276 3.3718684 3.7624278
4.098538 3.9256892 0.66998315
3.8184314 3.9450352 1.334795
4.1849217 4.38325 2.0983725
4.250769 4.034454 3.56776
5.1052666 -17.740509 9.657657
5.020977 -17.9703 10.48288
4.910842 -18.12238 11.57621
4.9363236 -18.177427 12.44949
4.9907126 -17.988565 13.065042
5.199402 -17.346514 9.235089
4.911111 -17.347815 9.688237
4.705566 -17.471151 10.557473
4.505117 -17.637877 11.936944
4.5819874 -17.698011 12.449465
4.8712416 -17.406063 13.192946
4.6306596 -15.931859 2.7253432
4.462364 -16.13157 3.5053954
4.568052 -16.168142 4.284276
4.501947 -15.861371 4.9097595
5.270362 -15.864586 5.792904
5.228812 -16.426834 8.940703
4.674046 -16.367275 9.8891535
4.5316277 -16.518694 10.377965
4.8487673 -16.65017 13.361936
5.0817175 -16.784689 13.592746
4.605855 -15.293866 2.2471814
4.3347187 -15.556246 2.4712102
5.0570154 -15.650032 5.961727
5.1579714 -15.152403 8.753798
4.702185 -15.600434 9.774997
4.567867 -15.86297 10.188448
[...]
POINT_DATA 4563
SCALARS features_00 float 1
LOOKUP_TABLE default
0.82525504 0.8567528 0.8652876 0.82936144 0.8646563 0.88333845 0.8688326 0.90348226 0.7867137 0.79217833 0.8193926 0.76683724 0.8031601 0.8403493 0.8527112 0.8323417 0.7418995 0.8071706 0.881775 0.8589965 0.60591054 0.7563108 0.8830981 0.9146389 0.89949024 0.7200623 0.82457566 0.8986105 0.8016801 0.8022696 0.77201545 0.7945856 0.79684556 0.7792223 0.78620726 0.7603992 0.7849168 0.80601126 0.61067694 0.84225774 0.5079534 0.847456 0.4915095 0.54793763 0.70167017 0.76050365 0.8878595 0.47410616 0.6513604 0.7040286 0.7768049 0.79534304 0.6940454 0.7246891 0.7414396 0.6056831 0.6477126 0.7449104 0.6071137 0.7281639 0.47588572 0.8181689 0.47923845 0.44526902 0.41484785 0.38124937 0.43849543 0.7138654 0.60991573 0.7354597 0.43714857 0.5366848 0.5620267 0.5907837 0.4901119 0.40179947 0.31714028 0.5170086 0.46289283 0.4815763 0.43476233 0.34191796 0.5149933 0.5007001 0.45108 0.4293955 0.40005344 0.26508424 0.3511117 0.46285778 0.49421066 0.47808692 0.51177824 0.29392377 0.33062407 0.29798776 0.30517957 0.35357785 0.5069433 0.55771184 0.6485521 0.40375522 0.32715356 0.34838092 0.37079242 0.2691176 0.26262048 0.31304383 0.42776808 0.5822841 0.66612154 0.72249514 0.27983212 0.2566228 0.6236001 0.7163242 0.75367534 0.71277165 0.7817925 0.77832985 0.7278961 0.7439219 0.49649948 0.55653965 0.54227245 0.47514778 0.5108186 0.44093934 0.29833195 0.49216187 0.49603224 0.43140855 0.4819849 0.34717375 0.18511932 0.10184729 0.50600725 0.022574306 0.37386352 0.43305546 0.2529396 0.12434011 0.14799596 0.5032851 0.3718222 0.29033643 0.31790188 0.49285075 0.08156465 0.28836522 0.55810404 0.4664532 0.048139483 0.19579102 0.25160637 0.27258414 0.26474923 0.27327365 0.73442686 0.44824877 0.37649095 0.25411624 0.14380601 0.119651414 0.13733782 0.22032288 0.22692026 0.2655802 0.275498 0.2903028 0.3209086 0.4714809 0.61193246 0.7655652 0.75175226 0.24446812 0.6751688 0.73513955 0.7544527 0.7705888 0.80749726 0.8988538 0.83803225 0.74951077 0.7613071 0.8038267 0.84899116 0.7628605 0.7029587 0.77726877 0.7833754 0.7035167 0.64117396 0.6767665 0.67461014 0.6185203 0.5796949 0.57159775 0.5677265 0.53127587 0.7279204 0.7416495 0.7104129 0.48896563 0.5434778 0.539953 0.52160645 0.75169975 0.77770895 0.74599683 0.42808717 0.47743905 0.5153506 0.49568784 0.7326957 0.78765994 0.783617 0.7124988 0.6259005 0.75532806 0.7068719 0.65533483 0.61459965 0.6807318 0.5803706 0.38825172 0.45096135 0.62171686 0.70157385 0.7536537 0.45128602 0.33303285 0.3821816 0.22684231 -0.026297506 0.5801605 0.72189665 0.7959992 0.8093445 0.43851823 0.34704283 0.059333622 0.064001665 0.631021 0.7724855 0.7793485 0.76940906 0.4574796 -0.08800687 -0.05603028 0.27959612 0.67401767 0.6909983 0.47449476 0.08072679 0.032737322 0.09081224 0.44461828 0.48223555 0.14741243 0.42559183 0.58361846 0.36274534 0.12715973 0.19568051 0.284041 0.33771837 0.69552565 0.2532619 0.12870973 0.17590454 0.24260382 0.27417678 0.55287945 0.6815214 0.7298304 0.73640025 0.21823627 0.32770303 0.3996156 0.43590242 0.8981632 0.8954953 0.76630926 0.76442796 0.84895396 0.7154305 0.64547366 0.69052213 0.5269518 0.60178846 0.6168623 0.61702985 0.50986123 0.47698188 0.55972576 0.54784584 0.48429218 0.44458142 0.45019937 0.51336294 0.6040722 0.585998 0.52192295 0.42235172 0.461085 0.53422785 0.5932246 0.5711261 0.5053759 0.66258657 0.6848495 0.6248914 0.58952224 0.36812893 0.3995219 0.42861193 0.47234905 0.45637056 0.41592103 0.6559477 0.696769 0.3869626 0.27458504 0.35957354 0.399832 0.4252041 0.66349626 0.1509595 0.24189064 0.42056698 0.40633127 0.16998993 0.63282 0.031564064 -0.06270181 -0.04403361 0.23601474 0.34396842 0.2630245 0.1591964 0.44094902 0.095124036 0.11861576 0.61044085 0.6563356 0.32283202 0.3891354 -0.045598052 -0.08467745 0.5817725 0.65899086 0.7246641 0.74376386 0.0870627 0.044688012 0.1939362 -0.066513374 -0.09904205 0.10149606 0.41027975 0.49554998 0.7917067 0.3592312 0.1359881 0.04300411 0.18840739 0.0383837 0.44938737 0.7743901 0.2788169 -0.054934256 -0.15615317 0.11927957 0.62495846 0.6302831 0.65322685 0.6881707 0.55907893 0.5513132 0.4148989 0.2632195 0.34092003 0.25216845 0.26478776 0.60993946 0.58628356 0.28323033 0.17239055 0.30954847 0.5992451 0.63193613 0.6609137 0.14456326 0.5692962 0.52100676 0.5608851 0.5726832 0.7352611 0.8773736 0.67652345 0.6601404 0.5940794 0.4666674 0.56291544 0.43785948 0.5183165 0.5331819 0.48942387 0.44175944 0.42552474 0.47549218 0.4124376 0.3747827 0.6500305 0.69093984 0.7092198 0.49334598 0.5692052 0.37260166 0.41627666 0.4127422 0.49174494 0.4938143 0.41314074 0.49177808 0.44890782 0.40714085 0.55989456 0.569766 0.45339364 0.28685057 0.34796768 0.55697817 0.50466835 0.15136035 0.48411357 0.15604931 0.17296039 0.15943176 0.36557674 -0.05403141 -0.08497813 0.49774474 0.62367797 0.6383413 0.13146651 0.08286089 0.04538381 0.009240761 -0.081874944 -0.04484224 -0.07587747 0.015259864 0.21450612 0.67685914 0.6948315 0.211958 0.10448755 0.060058147 0.009075396 -0.08482416 -0.07197821 0.07189595 0.7283362 0.15238208 -0.24296239 0.7310816 0.64313257 -0.0024607778 0.38146946 0.15934838 0.15925868 0.23342347 0.12890914 0.14247572 0.075094946 0.030655116 0.25413725 0.24992116 0.25058323 0.3647192 0.18179736 0.39520454 0.54318035 0.4734362 0.5556805 0.5740851 0.5609211 0.72435504 0.85777617 0.57090306 0.5824836 0.5327283 0.57627773 0.34725586 0.49168432 0.32562643 0.49668562 0.39999634 0.33388126 0.2847468 0.4753069 0.39783326 0.3747565 0.3090083 0.21400802 0.5330612 0.44763625 0.38240254 0.3009064 0.4863128 0.663236 0.719484 0.59477997 0.7035315 0.714269 0.70403516 0.65449154 0.7094947 0.7125 0.69716334 0.20584014 0.23668404 0.3047245 0.27950504 0.37889543 0.17633535 0.44929343 0.32185382 0.10999978 0.30114102 0.120767206 0.42484128 0.49322358 0.07202916 0.4176244 0.090364404 -0.02353791 0.38552475 -0.010604046 0.29163134 0.0033887401 0.2519894 -0.09732994 0.18844774 0.311265 0.57603276 0.3124226 -0.2122087 -0.07984501 0.60948133 0.25028855 0.5332985 0.41075438 0.17907922 0.3082009 0.383453 0.13662623 -0.048261844 0.35941124 0.2550792 0.23624477 0.2113829 0.10371134 0.2288379 0.16658863 0.16158055 0.1300956 0.119752556 0.06676339 0.048691235 0.24044068 0.14602144 0.22613007 0.22863102 0.15426737 0.11175019 0.15294036 0.52853 0.50716585 0.5645485 0.5596632 0.5527965 0.08021436 0.5791765 0.57657444 -0.032606483 0.45494372 0.1258747 0.3584619 0.17935419 0.3791937 0.18290862 0.57991254 0.32028458 0.39433947 0.69636893 0.68456745 0.435569 0.35197088 0.72374296 0.53880614 0.67846084 0.69490266 0.6330216 0.6964618 0.67531335 0.6596097 0.6617702 0.64675653 0.18326202 0.6269276 0.55450505 0.17208834 0.22779801 0.6415853 0.6306981 0.5209521 0.35574916 0.16967721 0.22976479 0.5745544 0.18957704 0.0034302743 -0.14421567 -0.053069852 0.08313765 0.1059298 -0.22302178 0.13284442 0.101873316 0.10921534 0.40288872 0.23718764 0.1637569 0.07284461 0.07067506 -0.013355922 0.021956418 0.315914 -0.024390534 -0.05611954 0.27585077 0.11443926 -0.41977054 -0.23706907 0.080634296 0.2497743 0.24473426 0.18059558 -0.22501974 0.35931987 0.18695487 0.22736979 0.26481128 -0.54611146 0.23479465 0.19262642 0.35095388 0.30965513 -0.051639795 -0.030379243 0.0081579685 0.046026506 0.13124765 0.17062472 0.2431213 0.26645085 0.27693465 0.26054743 0.16141072 0.21521187 0.25626904 0.16844633 0.20206133 0.25696397 0.1932225 0.18576868 0.22536802 0.27429318 0.12898979 0.027785718 0.02487513 0.15429282 0.124654934 0.047887947 0.31179 0.13339403 0.4328168 0.21898857 0.17734236 0.19200468 0.087966844 0.5455846 0.5036403 0.21068677 0.2135436 0.20019253 0.17780456 0.107641675 0.6211568 0.55277085 0.20110592 0.18907876 0.12474793 0.10192472 0.05214369 0.16321841 0.051070675 0.14796452 -0.035289936 0.23927021 0.40724355 0.5400312 0.280829 0.3171566 0.5929409 0.3002623 0.6578196 0.6040979 0.50524783 0.52132094 0.58288175 0.5881175 0.55140716 0.606656 0.5963882 0.57559013 0.3909278 0.25541103 0.27451456 0.26044813 0.066112354 0.13696574 0.16566631 0.26676133 0.27245992 0.22512874 0.59061074 0.56833684 0.22501254 0.044570517 0.03369812 0.07047867 0.12393148 0.18237573 0.23438752 0.6144024 0.6302836 0.59447825 0.30216804 0.24067882 0.108431205 0.026358932 0.05970543 0.22150362 0.14467578 0.6166164 0.15992227 0.060982283 0.016251098 0.5870768 0.13135561 -0.26899645 0.0907314 0.078545704 0.083087236 -0.07667927 -0.10657789 0.10323321 0.32650644 0.29749042 0.21726328 0.35227832 0.0075085424 -0.0296623 0.2564895 -0.11740057 0.5199012 0.6048404 0.15879494 -0.15481612 0.3441015 0.5550939 0.60762495 0.59063387 0.477238 0.50263166 0.381959 0.4222989 0.7026457 0.5307009 0.22327517 0.10631139 0.29250646 0.6796698 0.66874886 0.5593457 0.38295954 -0.27641144 0.16880098 0.611337 -0.45598403 -0.21309106 -0.374188 0.41873744 -0.3283729 0.1672676 0.28884143 -0.050494708 0.031476833 0.06384177 0.03755766 0.27087682 0.27532208 0.285097 0.19089621 0.20128676 0.19670156 0.40298265 0.57884586 0.10449732 0.30978975 0.2293964 0.4406613 0.42197958 0.48241782 0.48292696 0.40534934 0.22478081 0.22308439 0.55078095 0.49354577 0.17063388 0.15860724 0.17257796 0.11316249 0.18682253 0.12504005 0.15832822 0.15540698 0.1487191 0.5245371 0.18111987 0.5281833 0.5341583 0.34585267 0.5115167 0.3772035 0.50137097 0.49972913 0.45554823 0.4994928 0.5659106 0.5523527 0.5356394 0.5483111 0.43848333 0.43815368 0.42195436 0.4217897 0.43213812 0.42596167 0.41518873 0.27294672 0.3842515 0.3986001 0.19090874 0.21512006 0.21298537 0.28622842 0.24019201 0.17175584 0.2521665 0.2343775 0.21482861 0.025295243 0.23664315 0.2216605 0.5149906 0.53327143 0.49926358 0.2959655 0.22418207 0.10843402 0.12988949 0.14733082 0.6373923 0.4989118 0.5605297 -0.03407652 0.07423137 0.59128785 0.6254722 0.49743095 0.5745668 -0.03302627 -0.08812791 0.3906117 0.045130663 0.16517268 0.18772186 0.14004129 -0.15280752 0.2552559 -0.05972369 0.21275131 0.18402927 0.375803 0.5039701 0.59508383 0.6192508 0.020918153 0.5796443 0.031622186 0.470669 0.5091055 0.08450571 0.39943504 0.4152801 0.70140326 0.69441867 0.6121372 0.40634346 0.159154 0.36426944 0.40153468 0.6740764 0.6965313 0.36504334 0.6219379 -0.36337173 -0.23901206 -0.19495124 -0.09537102 0.3565108 0.43592632 0.4187644 -0.26951265 -0.37820333 0.27976972 -0.25873226 0.5018443 0.18402371 0.22918883 -0.24073514 0.21267223 0.5832709 0.24691501 0.2600269 0.22875495 -0.21865448 -0.42313305 0.28914288 0.37839782 0.6406114 0.31907052 0.2570943 0.2488478 -0.21571268 0.41596034 0.7658639 0.6364715 0.51032686 0.2609079 0.22542386 0.712352 0.6028894 0.61428994 0.63937175 0.578642 0.1387839 0.6873456 0.65861404 0.6942054 0.12445386 0.055762082 0.14312145 0.118207544 0.18695265 0.13328114 0.18283951 0.1848159 0.2011395 0.1688298 0.14662293 0.11683137 -0.14540443 0.38895428 -0.08472416 0.4610247 0.43432713 0.4490592 0.4447071 0.32373086 0.49118847 0.5046373 0.46971333 0.47267944 0.8341639 0.85362935 0.8660857 0.84920037 0.89966905 0.9005636 0.7136013 0.7812513 0.8742664 0.8861009 0.42130107 0.40853363 0.37802505 0.6920498 0.7656936 0.81954575 0.43118027 0.4391212 0.4071336 0.37732413 0.39885014 0.4254856 0.079424314 0.13407876 0.110173084 0.17126212 0.19130045 0.2127696 0.20995466 0.0916892 0.2210179 0.20929793 0.6046145 0.6441045 0.73796177 0.48344204 0.41813663 0.3260491 0.18740693 0.1700821 0.5490013 0.6075785 0.69006664 0.72134966 0.44750762 0.45293534 -0.01442357 0.067530364 0.32852018 0.50344193 0.55258954 0.6305811 0.6808571 0.40935615 -0.08860134 0.40075478 0.49196938 0.5021916 0.6015191 0.34437376 0.12923008 0.1910699 0.14086941 0.127894 0.35201037 0.17038777 -0.10697379 0.1226618 0.19523042 0.1414735 0.104934424 0.107306905 0.14691271 0.106526315 0.21351057 -0.15772647 -0.060208336 -0.021914281 0.021764625 0.20217772 -0.19862512 -0.22055188 -0.33158064 0.10789773 -0.22535738 0.4303404 0.55403954 0.62831604 -0.3612436 -0.016440205 0.47385395 0.023575246 0.014578674 0.4352484 0.6687359 0.6475564 0.6219748 0.43189764 0.65838027 0.66452986 -0.5038464 -0.24291997 -0.25796738 0.40036216 0.41295213 0.61882925 -0.46433672 0.10221855 0.25767675 0.3143087 0.23914306 0.44462872 -0.32191917 0.33053148 0.22829293 0.28556457 0.16949645 0.10708831 0.06419179 -0.14909017 0.30137905 0.12732889 0.71333563 0.71140957 0.32778418 0.22547111 -0.16003603 -0.10171697 0.7571671 0.7805972 0.5291026 0.45515898 0.87367105 0.6349671 0.57999545 0.19876051 -0.023287885 0.82216614 0.8170962 0.77863246 0.74656063 0.6751609 0.2539342 0.23028305 0.26199532 0.22011764 0.09062493 0.25363076 0.20799473 0.13878348 0.28119355 0.09748587 0.30478406 0.19305766 0.07988343 0.27519712 0.19292915 -0.27610967 -0.31834495 0.08933073 0.09100875 -0.29894638 -0.26984125 0.20887074 -0.18566492 0.38628894 0.13205001 0.37234437 0.382451 0.23923321 0.38541663 0.35021123 0.35749477 0.32916927 0.7454715 0.7854018 0.8025775 0.71832716 0.77434516 0.8188014 0.8344808 0.8544238 0.51134443 0.60429573 0.8742299 0.88773835 0.4441845 0.5795642 0.8666844 0.9050466 0.40289825 0.41305625 0.3969037 0.33512935 0.2451131 0.026945539 0.39462224 0.7135812 0.7608705 0.83360624 0.33908406 0.3823497 0.025676295 0.6387967 0.6499293 0.22910666 0.34195554 0.0803998 0.09412822 0.14982222 0.25632423 0.18027002 0.1996564 0.01956297 0.19736457 0.11017868 0.71455115 -0.04879954 0.045056134 0.18508181 -0.028528407 0.63707894 0.749236 0.7479293 0.31611967 0.34202784 0.73940563 0.38423654 0.36266148 0.08257961 -0.11975324 0.70328313 0.34416026 -0.021324152 -0.046746776 0.56013346 0.3703158 0.41749847 0.084154196 0.3077386 0.3854588 0.30715975 0.056662146 0.38251382 0.49456662 0.22890559 -0.00022013858 0.40453428 0.25212866 -0.2301537 0.26600963 0.42287558 0.44532824 0.5998858 0.57535225 0.52919084 0.031807505 0.4379366 0.6211077 0.6252761 -0.34195498 -0.25461087 0.3865614 0.38525337 0.5575723 -0.15045123 0.19483408 0.35635307 0.28401077 0.1523164 0.3173173 0.45530242 -0.24403432 0.054711267 0.37001002 0.29077613 0.3244769 0.27389845 -0.012463238 -0.24507105 0.59537494 0.3435228 0.08053569 -0.22768396 0.76124275 0.74966925 0.40111595 0.36169684 0.15303239 0.7963805 0.5347318 -0.09199538 0.8740227 0.8196223 0.62447715 0.5862268 -0.035934936 0.9128673 0.9247755 0.871922 0.7944236 0.6701739 0.25990966 -0.10927989 0.27029377 0.048800383 0.17348927 0.28033447 0.2823758 0.13571881 0.22071236 0.30435127 0.124819115 0.37247607 0.08257646 0.07283859 0.3670041 0.33325475 0.2789857 -0.031138945 0.055718996 0.32735968 0.29588988 -0.2993883 0.1727789 -0.066990785 0.30206576 0.31771386 -0.00017630868 0.34910518 0.037966847 0.36100838 0.17571077 0.16811153 0.31480718 0.31707147 0.34337437 0.39290935 0.3492017 0.43481487 0.48458266 0.7081121 0.7523258 0.78056806 0.57602644 0.80630517 0.8355111 0.3309719 0.41884503 0.87886035 0.37020934 0.37070554 0.32067677 0.24536918 0.35856056 0.8698096 0.36079144 0.36182538 0.15553115 0.06639007 0.21083266 0.79761744 0.7140243 0.15963447 0.13208057 0.22432745 0.06205929 0.15241 0.631112 0.64827585 0.13100588 0.69099426 0.65153325 -0.010633763 0.7086496 0.26788718 0.3427885 0.29095882 0.23498774 0.45038992 0.40562534 0.22151817 0.48098463 0.4949239 0.51645887 0.6117481 0.49173707 0.60705435 0.6492754 0.4328292 0.55780053 0.59894437 0.32709593 0.48216388 0.5792833 0.22756965 0.18768042 0.06366063 -0.014583485 0.3504138 0.46248084 0.10121916 -0.10460612 -0.08395528 -0.36437577 0.38865978 0.43617776 0.42289597 -0.40784365 0.34043127 0.36842114 0.12801017 0.32447693 0.2463982 0.16669719 0.048511337 0.30761462 -0.22645059 0.1253853 0.1747261 0.14875208 0.3048752 0.05823698 -0.28445962 0.023923544 0.24587947 0.35981056 0.40282893 0.31542343 0.24911062 0.21358457 0.3263501 -0.1387498 -0.3022861 0.5418472 0.42939794 0.32249358 0.36800268 0.35578185 -0.041635565 -0.2679589 0.6354016 0.48765782 0.4562845 0.41058677 0.019859277 -0.2918892 0.69261533 0.60966873 0.52235883 0.51154053 0.46941122 0.14861347 0.7158607 0.69987625 0.69801986 0.6626889 0.5934098 0.55574554 0.2185287 0.8234148 0.82995045 0.7499854 0.6654404 0.22437191 0.24959919 0.24010572 0.22474387 0.25204146 0.31465983 0.2666015 0.31854045 0.31925878 0.24723001 0.35418528 0.11938822 0.1756235 0.37282956 0.35836124 0.051890433 0.32167253 0.28819218 -0.06306735 0.017366454 -0.015818678 0.18105033 0.023817822 -0.0105467215 0.25598192 0.0030719861 0.032919988 0.2835741 0.14510524 0.29960608 0.32803276 0.33834141 0.47963047 0.509649 0.5067541 0.5020504 0.5477052 0.50145686 0.6760005 0.74615896 0.39484322 0.5073775 0.74676925 0.80422705 0.054424353 0.16225949 0.83833206 0.3631117 0.36318254 0.29156676 0.7899778 0.3219488 0.3422753 0.65302527 0.7503526 0.21102995 0.671196 0.11675872 0.11260544 0.45716852 0.32883078 0.0640077 0.15503006 0.58039665 0.35660535 0.55181515 0.62546897 0.5938438 0.59037787 0.61840546 0.59426194 0.4200793 0.5183305 0.5608072 0.4951196 0.36825007 0.3044848 0.15374906 0.461805 0.42393297 0.5367692 0.6047367 0.50426877 0.64132 0.66190195 0.5039725 0.68443465 0.64043635 0.6726183 0.34236544 0.5887167 0.18980663 0.15096796 -0.048180193 -0.1264996 0.21362442 0.28299862 0.355011 0.400511 -0.07698061 -0.09897829 0.07206753 -0.031480365 -0.3656491 0.41252157 0.35571554 0.19442189 0.12209338 0.04771896 0.10434575 -0.005241573 0.22231671 0.122651115 -0.14269716 0.23864096 0.22375241 0.19831362 -0.0019211695 0.25169265 0.24029854 0.009776562 0.44958848 0.13671768 0.06326065 0.32263896 0.10306158 -0.21483925 -0.009738814 0.3177466 0.39009988 0.4406439 0.20528635 0.3361538 0.36093327 0.093568414 0.0113774855 -0.017736912 0.09066521 0.23698734 0.38016993 0.37691993 0.2909001 0.29042524 0.2968157 0.43406448 0.36769953 0.3518985 0.014110893 -0.1297778 0.50010306 0.42821008 0.39991647 0.4105391 0.43228674 0.43722913 0.063277364 0.053446203 -0.16637637 0.577894 0.5321369 0.525229 0.50719374 0.50863904 0.47508824 0.60119414 0.6176418 0.6494094 0.6018684 0.53864706 0.201088 0.22340342 0.09725292 0.19747749 0.28112844 0.33207786 0.2028018 0.3208598 0.27980387 0.29387826 0.31590188 0.31754333 0.2545691 0.3287418 0.2976597 0.22786856 0.14575014 0.20108052 0.019947894 0.13886091 0.041065723 0.19954646 0.30834198 0.16832574 0.40678602 0.14840621 0.47837794 0.48167375 0.4532147 0.4721943 0.47961646 0.43824363 0.4748626 0.23110476 0.35631895 0.3887372 0.5137744 0.7335254 0.10396055 0.1977897 0.2940581 0.30262023 0.27294648 0.11750891 0.2538082 0.1898357 0.61055344 0.5502061 0.08992765 0.6372522 0.62544763 0.105159074 0.37665075 0.45464182 0.5320647 0.63477504 0.43916804 0.45219544 0.6090857 0.33465266 0.22582111 0.3719148 0.33637792 0.23936519 0.39799768 0.53617597 0.4713661 0.42719838 0.6137036 0.62711 0.48960236 0.6860975 0.47721964 0.46634462 0.72294223 0.44782883 0.34913206 0.69153863 0.28335267 0.5916818 0.14107326 0.30347288 0.017838992 0.4284675 -0.06222792 0.14507116 0.3747977 0.41116348 -0.1506312 0.23449047 0.4440378 0.36214978 0.2010212 -0.18902898 0.021556599 -0.059228122 -0.15258498 -0.08831271 -0.13022068 -0.41356397 0.21882536 0.4527743 0.45197394 -0.036967423 0.08513355 0.18128589 0.42472053 0.40784472 0.1091622 0.30509764 0.2779247 0.4257512 0.38350412 0.15599878 0.39683908 0.37446365 0.08897111 0.112051256 0.31476882 0.06516942 0.26314294 0.11876765 0.32864213 0.13501887 0.2911159 0.17819321 0.19452736 0.16124938 0.20527045 0.1306096 0.29936218 0.29124266 0.11981438 0.29524428 0.29732817 0.29338422 0.23083034 0.19136569 0.30243143 0.20000139 0.11591053 0.26627034 0.10116734 0.16006775 -0.21954967 0.03726305 0.13102578 0.045527853 0.06622088 0.39435077 0.46029398 0.44780606 0.5497086 0.55001026 0.52583396 0.46066925 0.4639549 0.5805001 0.58170533 0.5660107 0.52397615 0.43059796 0.44772476 0.2151707 0.3467487 0.35481894 0.3657343 0.1790703 0.14034982 0.13945161 0.2027419 0.21958953 0.22479331 0.16553602 0.40052474 0.22608054 0.14363496 0.06558867 0.6290657 0.5964906 0.6378827 0.6398915 0.35247988 0.6206639 0.23641643 0.39638782 0.60005057 0.49751535 0.25420538 0.16773707 0.005327165 0.16633248 0.26638785 0.37659654 0.2946636 0.47591752 0.5329524 0.42270234 0.60525036 0.65178895 0.44360942 0.6811179 0.41379875 0.27921692 0.6877939 0.63415515 0.6843295 0.25159705 0.51578605 0.60015434