# vtk DataFile Version 2.0
Really cool data
ASCII
DATASET POLYDATA
POINTS 7522 float
6.3439946 15.088238 -19.95107
6.2764144 14.981156 -19.404003
6.3293033 15.028158 -18.877962
6.2678285 15.492909 -20.109104
6.1483555 15.452263 -19.407406
6.2058196 15.635718 -18.793644
6.3474813 16.22953 -20.2875
6.2025814 16.33263 -19.433613
6.2908554 16.268787 -18.817749
6.337086 16.945217 -19.369055
7.1727085 14.357752 -20.324331
7.1281233 14.126193 -19.323652
7.2527504 14.064982 -18.727291
7.0318646 15.121379 -20.966227
6.6885905 14.823732 -20.17907
6.5424147 14.651864 -19.433037
6.566984 14.881534 -18.580685
6.975291 14.737835 -18.228329
6.924416 15.576253 -20.986654
6.5390053 15.250019 -20.515251
6.438811 15.581465 -18.407358
6.8057156 15.5082655 -18.100754
6.9651394 16.020166 -21.167953
6.5123076 16.02166 -20.582163
6.5114403 16.474356 -18.57875
6.8731923 16.328747 -18.125187
6.5932183 16.990294 -20.276546
6.6506195 17.310492 -19.37791
6.8284526 17.174511 -18.726795
7.3667917 18.954435 -22.844667
7.347253 18.86206 -22.62942
7.0744343 19.032085 -21.644783
7.2447524 18.147676 -19.56343
7.3108516 19.478453 -22.988377
7.0862713 19.613575 -22.337664
6.973049 19.63452 -21.696766
7.1045384 19.804098 -20.985321
7.358317 20.007278 -22.843485
7.191905 20.198954 -22.154741
7.108705 20.19791 -21.528927
7.248751 20.255308 -20.983444
8.040012 13.346653 -18.915157
8.150219 13.26356 -18.559128
7.6364083 14.0876045 -20.151182
7.569178 13.782884 -19.231565
7.6732006 13.64404 -18.55901
7.8452396 13.891666 -17.931532
7.6513133 14.879667 -21.10718
7.346826 14.4809065 -20.457645
7.7730727 14.555147 -17.64758
7.9509983 15.06173 -17.312479
7.853388 15.2385025 -21.365995
7.46361 15.624565 -17.581966
7.9836316 15.2824 -17.285158
7.9229283 16.235123 -21.608309
7.7237062 16.047623 -21.455996
7.5248513 16.485157 -17.689342
8.190974 16.456728 -17.210442
8.136995 18.03403 -22.557806
8.230989 17.867619 -17.497856
8.243511 16.899054 -17.166647
7.710997 18.753435 -23.137009
7.4655237 18.76213 -22.802761
7.456807 18.48821 -19.641005
7.758336 18.268488 -18.401999
8.16444 18.507065 -17.799139
8.055617 19.40196 -23.628988
7.629419 19.480627 -23.282413
7.5353856 19.225592 -20.444258
7.8334904 19.532757 -19.786707
7.774329 20.227886 -23.074474
7.451501 20.520355 -22.398357
7.3779674 20.639824 -21.735392
7.5206237 20.495422 -20.699423
8.0262 20.712292 -19.738781
7.90444 20.800003 -22.813478
7.936325 20.956062 -22.367538
7.874518 21.129107 -21.37924
8.053257 21.274727 -20.770926
8.219934 21.270582 -20.02486
8.591678 13.227652 -19.29241
8.473914 13.130049 -18.351404
8.661205 13.290996 -17.849705
8.677529 13.601168 -19.925926
8.587691 13.559013 -17.679573
8.631025 13.879847 -17.384579
8.6128 14.55459 -20.813513
8.313344 14.700832 -17.466663
8.620642 14.647647 -17.19203
8.452813 15.835807 -21.68368
8.639977 15.737136 -16.883728
8.758248 16.49089 -21.704365
8.851183 16.274225 -16.859097
8.311596 16.882063 -17.242107
8.34533 18.943468 -23.688004
8.287992 18.541973 -23.363913
8.5709095 19.794283 -18.310566
8.907292 19.241966 -17.256233
9.290319 19.656504 -16.008738
9.240856 19.48765 -15.4401
9.286788 19.731462 -14.712633
8.529747 20.010904 -23.686407
8.91396 20.450045 -23.429926
8.989838 20.832409 -18.648533
9.190003 20.249472 -17.780973
9.213038 19.943056 -16.327896
9.273353 20.61451 -15.211119
9.288121 20.32193 -14.6696005
9.460036 20.475246 -13.724082
8.511205 21.035116 -22.87091
8.600175 21.4963 -19.486813
8.846113 21.469751 -18.876728
9.372557 21.126976 -17.168112
8.586516 21.831581 -20.421165
8.997692 22.02006 -19.651585
9.282781 13.053665 -18.567638
9.098831 13.164048 -18.029272
9.461894 13.511785 -19.831331
9.302985 13.517522 -17.585184
9.392088 14.0891695 -17.259104
10.286684 15.16491 -26.461906
10.304109 14.952674 -25.936483
9.346775 15.178449 -21.435682
9.252392 14.446442 -17.032717
10.259668 15.955377 -27.450012
10.087577 15.712335 -26.548697
10.213107 16.02454 -23.037277
9.90197 15.946448 -22.180033
10.262342 16.668509 -27.860321
10.04148 16.691452 -27.339127
9.886802 16.495584 -26.546808
9.979133 16.371058 -25.873987
10.435134 16.986668 -24.098576
10.35012 17.25236 -27.937675
10.077986 17.36619 -27.291357
9.924256 17.44512 -26.565168
9.975717 17.305086 -25.644695
9.912545 17.857237 -15.194759
10.113753 17.940145 -13.903831
10.23808 18.329502 -26.31191
9.737712 18.314816 -15.149921
9.764629 18.581354 -14.789458
9.883706 18.812681 -13.656643
10.136922 18.855625 -13.191602
9.67325 19.869062 -24.008514
9.6222 19.574877 -13.613969
9.935141 19.766203 -12.96955
9.27759 20.036638 -23.750198
9.509509 20.792057 -14.172703
9.63064 20.591423 -13.43955
9.872288 20.445904 -12.936369
9.9572315 21.051094 -23.785385
9.307516 21.195337 -23.122944
9.513058 21.530003 -17.460863
9.620141 21.251646 -16.646217
9.629015 21.166214 -15.768973
9.737917 21.245703 -14.639994
9.838517 21.131077 -13.53614
10.06869 21.014416 -12.944537
10.118013 21.975431 -22.975752
9.536306 22.145533 -22.434694
9.670996 22.546158 -20.082777
9.546798 22.416346 -19.286919
9.680672 22.286255 -18.591272
9.829608 22.280237 -17.732628
10.056276 22.047892 -16.781372
10.03325 21.691805 -15.414403
10.173102 21.638214 -13.652666
10.394799 22.933962 -23.681332
10.239766 23.078678 -22.484087
10.147536 22.69161 -21.72937
9.603515 22.680859 -20.498793
9.939031 22.651392 -19.596228
11.133722 8.957076 -27.102076
11.167959 8.732179 -26.495504
11.256008 8.929261 -25.694067
11.0966835 9.451557 -27.241436
10.938296 9.419981 -26.433098
11.181361 9.383858 -25.67357
11.38839 9.910262 -25.207308
11.233075 10.340478 -27.223318
11.070139 10.342977 -26.454441
11.257248 10.327124 -25.951557
10.338209 13.144388 -18.979654
10.934341 13.264314 -18.484392
10.973183 14.357722 -25.541704
10.051127 13.741392 -19.949606
9.978976 13.448574 -18.013327
10.93289 13.652727 -17.173483
10.904414 14.963147 -27.195375
10.552329 14.680424 -26.276405
10.803899 14.469392 -25.535172
10.805545 14.872784 -24.942438
10.992563 15.261166 -23.388657
11.100634 14.723316 -22.476503
10.825375 14.665787 -21.63132
10.430907 14.360627 -16.703001
11.139934 14.645851 -16.324808
10.772742 15.967225 -28.08125
10.589746 15.509978 -27.446682
10.580302 15.239669 -24.941692
10.576213 15.970226 -23.05338
10.536178 15.551518 -22.059261
10.780462 15.801055 -15.825992
11.088135 16.693106 -28.57504
10.65455 16.568815 -28.225721
11.122219 16.704441 -14.911793
10.893792 17.185244 -13.806259
10.799346 17.33061 -28.230894
10.532469 17.66959 -13.594994
10.547017 17.916977 -13.362622
10.985579 18.221107 -27.936148
10.5364 18.134068 -27.427975
10.526745 18.795292 -25.413542
10.670958 18.526623 -13.045711
10.852548 19.502031 -26.46379
10.663022 19.538132 -25.754677
10.336992 19.660683 -12.694354
10.680884 19.813719 -12.395945
11.219377 19.96738 -26.49689
10.465488 20.680296 -12.513785
10.9463415 21.400097 -24.945536
10.681003 21.15974 -24.333824
10.534762 21.244825 -12.7947235
10.947759 22.378405 -24.721292
10.524203 22.505606 -24.028814
10.77038 22.327425 -15.5805645
10.942188 22.322836 -14.320218
10.715364 21.91902 -13.60242
10.500035 21.626532 -13.17134
11.087459 23.505133 -24.960022
10.83317 23.602535 -24.521412
10.470404 22.89307 -21.110363
10.656995 22.81483 -20.953928
10.642874 22.864002 -19.7098
10.730972 22.777754 -17.483324
11.262631 22.832766 -15.884485
11.0840645 24.116676 -24.870401
10.974339 24.177523 -24.441896
10.753584 24.28083 -23.50857
10.731431 24.392756 -22.624704
11.185211 24.314417 -21.778019
11.306911 24.794706 -24.91206
11.259928 25.078804 -24.156565
11.016044 24.832363 -23.339931
11.071086 24.805227 -22.775982
11.432139 28.865698 -19.737425
11.442501 29.165216 -20.133883
11.42519 29.35972 -19.684391
12.411777 -1.0329754 -27.84482
12.356234 -0.3243149 -28.12341
12.328865 -0.5318602 -27.372623
12.325731 -0.12640105 -26.731672
12.426731 0.37809676 -28.204319
12.188829 0.48715693 -27.3916
12.239631 0.39229763 -26.665197
12.351894 0.7201805 -26.149294
12.3537035 1.1885548 -27.494986
12.341996 1.3714687 -26.625637
12.369848 1.2381126 -26.104364
12.177731 2.9275203 -18.162676
12.242918 2.8844876 -17.616112
12.281104 3.3544383 -18.764854
12.048835 3.466891 -18.275103
12.065685 3.5393806 -17.681576
12.324856 3.3107305 -17.201166
12.296717 4.2110634 -18.826916
12.089619 4.154577 -18.258585
12.123117 4.0917573 -17.716625
12.3295765 6.1765137 -19.678629
12.356358 5.538265 -18.398222
12.193755 7.26073 -25.507902
12.152836 6.778166 -20.034496
12.006338 6.684888 -19.417967
12.024544 6.8733172 -18.633131
12.184483 6.71072 -17.46417
12.393178 6.940827 -16.720724
11.745883 7.974639 -26.358795
11.814062 7.871289 -25.682678
12.219251 7.742046 -24.886168
12.037463 7.4437237 -20.236786
11.827927 7.471041 -19.41767
11.93579 7.6009574 -18.583218
12.097036 7.524345 -17.46744
12.314597 7.563907 -16.831572
11.842719 8.673345 -27.783064
11.512953 8.59743 -27.322638
11.52111 8.470181 -25.515186
11.865795 8.61347 -24.744648
12.04938 8.308355 -20.114107
11.998182 8.43917 -19.5054
11.999643 8.064553 -18.657969
12.29052 8.164937 -17.59951
12.2835245 7.8754225 -17.093887
12.439027 9.751224 -29.080414
11.662814 9.572381 -27.906548
11.713268 9.451947 -24.791317
12.061764 9.790014 -24.086649
12.150606 8.949374 -19.853786
12.374507 8.744983 -18.386301
11.738712 10.411443 -27.865343
11.394212 10.2271595 -27.56236
11.922959 10.5274 -24.987282
11.657782 11.0349865 -27.286423
11.922203 11.552444 -26.623674
11.7293 11.0922785 -25.823359
12.063961 10.877713 -25.113325
12.225092 12.262603 -18.57
11.548775 12.90416 -18.263561
11.476151 13.14433 -17.723196
12.025863 12.790815 -16.798412
11.618381 14.17148 -26.399714
12.013519 14.234433 -25.63192
11.678731 14.116273 -23.35759
12.024019 13.555738 -22.394922
11.8668785 13.496319 -19.789663
11.625625 13.837957 -16.480227
11.524791 14.132792 -16.252386
12.437359 13.904802 -13.028826
12.424362 13.760191 -12.572018
11.450529 15.327384 -27.839178
11.651277 14.702309 -27.260244
12.385698 14.865051 -15.10347
12.32733 14.914311 -13.237878
11.960977 16.133207 -28.548695
11.545256 15.860356 -28.291443
11.596122 16.613628 -28.632053
11.644005 16.241203 -28.519402
[...]
POINT_DATA 7522
SCALARS features_00 float 1
LOOKUP_TABLE default
0.71510196 0.73353744 0.7355469 0.71956307 0.74204695 0.72686195 0.71937096 0.7174369 0.6869856 0.63206434 0.6572189 0.6923585 0.69804835 0.623189 0.68797505 0.71724355 0.7197769 0.68348765 0.6298505 0.6831733 0.6935706 0.64069235 0.59873813 0.6946252 0.62289345 0.5617857 0.63437545 0.52533966 0.4826725 0.6138946 0.60597456 0.56383836 0.25378323 0.62300813 0.62634075 0.5831045 0.46410704 0.6198249 0.61247754 0.5552247 0.46327558 0.666329 0.65704566 0.64070463 0.6792873 0.6821898 0.6363743 0.5509044 0.6389984 0.58678114 0.5041792 0.4887386 0.5171098 0.48555577 0.37585628 0.45682865 0.44964328 0.40632188 0.37075493 0.2501285 0.36796808 0.5823633 0.59596825 0.19024357 0.22169772 0.14345562 0.5822031 0.60517377 0.3134651 0.21025452 0.58632517 0.6035916 0.5617615 0.41001117 0.2768577 0.5506334 0.5412879 0.47337675 0.37452954 0.30269718 0.6273775 0.62024975 0.5703673 0.6022757 0.5606764 0.5194898 0.46139026 0.51420784 0.46466386 0.31698865 0.3961976 0.14732206 0.34156308 0.36796385 0.5568709 0.5113948 0.06850419 -0.04177726 0.22620976 0.3422839 0.4463858 0.50360656 0.40469378 0.15929158 0.04679101 0.14845932 0.33508566 0.43385464 0.5585912 0.43760198 0.253631 0.20832212 0.098927796 0.28019932 0.23612082 0.5425775 0.52827585 0.53425854 0.45841056 0.398968 0.5956055 0.51512927 0.12808654 0.3849433 0.6561054 0.6133647 -0.12661543 -0.14049372 0.6451174 0.6410121 0.60180163 0.51898354 0.13601013 0.61639 0.60260546 0.5552268 0.4603908 0.39240023 0.39200863 0.45551586 0.43190864 0.45826343 0.47367692 0.44958234 0.18877646 0.5526085 0.5668857 0.3477732 0.49453992 0.58241737 0.6018393 0.09748793 0.26024467 0.12172176 0.13085884 0.2304512 0.40856302 0.5441811 0.5728762 0.14296925 0.22907309 0.18916371 0.20122586 0.19520962 0.15639555 0.12922266 0.2553364 0.48065257 0.22589329 0.22344373 0.20156856 0.18620065 0.17770953 0.60057807 0.59891427 0.5488523 0.5992961 0.6409983 0.5673417 0.5072697 0.5729535 0.6380204 0.5944395 0.37853312 0.20612966 0.3884229 0.3924701 0.3814433 0.12630625 0.59287894 0.5426717 0.40112558 0.26658204 -0.044040017 -0.060977913 -0.09279346 0.11467757 -0.033832803 0.62063205 0.6375998 0.29194677 -0.09801393 -0.14842695 -0.07615924 0.58565384 0.62510693 0.1727228 0.25599498 0.58695817 0.32729948 0.3344698 0.48649213 0.5210415 0.27240568 0.35857362 0.33305654 0.19331515 0.5171017 0.48106205 0.26892278 0.5553592 0.012916181 -0.02186495 0.51796573 0.16974774 0.16168034 0.14405847 0.26381683 0.39961806 0.47837627 0.35850668 0.35618013 0.17139615 0.16618967 0.12808312 0.14582929 0.03729698 0.43801653 0.43124455 0.39269888 0.32894725 0.234713 0.5067571 0.5042112 0.43185958 0.37788895 0.5611803 0.55864334 0.55849075 0.5935227 0.5661613 0.54387724 0.4854964 0.49613747 0.49571234 0.46963444 0.414999 0.42635262 0.39989322 0.38280696 0.572404 0.5672004 0.52863336 0.5428737 0.54514706 0.53679943 0.42445374 0.47063875 0.48692062 0.33772463 0.28224576 0.37987465 0.41074482 0.39879218 0.38965267 0.35395056 0.34671855 0.49123743 0.44319093 0.37294865 0.46301484 0.4556368 0.42470372 0.38753843 0.36309695 0.42372754 0.5287569 0.48896614 0.4077061 0.41521934 0.39327627 0.40617877 0.37595886 0.37185183 0.2812374 0.44281444 0.44748372 0.3491407 0.32563436 0.3301226 0.42080665 0.50779396 0.4239747 0.46945706 0.4498647 0.49927056 0.3914237 0.048367903 0.08647672 0.096280515 0.07358141 0.45581144 0.30527776 0.022105128 0.036322363 -0.045048133 0.011184856 -0.022888198 0.3823821 0.45853502 0.5365795 0.4793206 -0.11810736 0.26621312 0.4988172 0.5470481 0.54285294 0.54190505 0.4971895 0.5111019 0.19863941 0.13023482 0.39655137 0.41319817 0.27244687 0.34475303 0.29022223 0.3955871 0.23429316 0.3980143 0.12985589 0.3124959 0.24788232 0.25840306 0.39686856 0.051018905 0.09275922 0.10185647 0.08528191 0.50291014 0.49974632 0.15832603 0.17796257 0.5424563 0.5355222 0.47268775 0.3838349 0.20602235 0.19552574 0.5544444 0.52936316 0.53958607 0.52722526 0.5100145 0.5507556 0.5581442 0.554739 0.52008605 0.45988727 0.50128376 0.53777194 0.5540712 0.4775791 0.43563467 0.43375027 0.51605105 0.5433744 0.35261315 0.42462397 0.46045858 0.6699108 0.6654792 0.6798233 0.7127497 0.7743841 0.73242885 0.609763 0.6586574 0.7475459 0.77018297 0.6361215 0.70403016 0.640446 0.63500553 0.5624256 0.4677183 0.6265807 0.6297159 0.63874435 0.58091545 0.48217297 0.3731962 0.59664893 0.6006751 0.5886816 0.4718129 0.3653088 0.52001834 0.49250555 0.3562197 0.34013903 0.33678097 0.38596186 0.37470648 0.33768108 0.39252338 0.42727506 0.44101623 0.50799716 0.48525065 0.4532122 0.27853784 0.29979855 0.3152118 0.3251468 0.4038448 0.43953994 0.525971 0.5583656 0.5404262 0.48102826 0.19278039 0.21438852 0.26459533 0.3016675 0.32309154 0.373599 0.47961974 0.46034545 0.10960124 0.24618869 0.27070713 0.39479676 0.37006882 0.34449264 0.27436474 0.17467819 0.22603925 0.31354964 0.2822548 0.33975574 0.26166612 0.4068057 0.21988486 0.09768601 0.3484081 0.35392898 0.35584235 0.23530445 0.34637216 0.33264616 0.32830167 0.30282933 0.31097177 0.24268964 0.3506584 0.34613156 0.32883263 0.2573072 0.3399399 0.3020772 0.35010397 0.24264903 0.24609372 0.2419487 0.2759301 0.41527537 0.33334857 0.3506647 0.3020689 0.4213754 0.31795168 0.24515781 0.18955679 0.05505071 0.22481158 0.28582335 0.250512 0.27469534 0.43281716 0.39989102 0.3349375 0.25092155 0.09535487 0.13654318 0.082102284 0.40537077 0.3568571 0.31433553 -0.17681047 -0.11503973 -0.028281033 -0.08312929 0.046225537 0.091321506 0.5188137 0.2294215 0.28589267 -0.09702565 -0.119942315 0.008943841 -0.050682694 0.03964791 0.4051867 0.5116159 0.54857993 -0.029660152 0.037163317 0.03007643 -0.057472497 -0.046215303 0.48173454 0.5004075 0.45866445 0.33924222 0.38698357 0.42758465 0.4063613 0.27254373 0.26774165 0.4328392 -0.05508086 0.10202117 0.40618348 -0.060911328 0.3320138 0.3262698 0.071089625 0.29555008 0.13114655 0.15827933 0.20540988 0.17797644 0.13702196 0.12572178 0.08331781 0.06183064 0.15619057 0.040452592 0.18637782 -0.030381896 0.3706163 0.053879425 0.08275009 0.0068074763 0.4029634 0.024821253 0.116907865 0.15122661 0.091025405 0.48408297 0.4067035 0.11967979 0.22283837 0.21624568 0.18982118 0.16985546 0.11327513 0.5303092 0.5316429 0.5119474 0.23087701 0.22791755 0.17617849 0.44243586 0.5168897 0.46979994 0.3993035 0.04609926 0.4447736 0.49161926 0.42789072 0.41821516 0.4502949 0.1863549 0.31787497 0.3582764 0.42502236 0.34876403 0.25647748 0.533109 0.47022766 0.51748204 0.27089536 0.2669078 0.40743613 0.60829574 0.5792638 0.61316776 0.5963694 0.65571845 0.62724733 0.56946576 0.676718 0.67764616 0.69696665 0.6704614 0.55369544 0.37526503 0.5374944 0.59575504 0.72805953 0.7071644 0.6476902 0.4263345 0.60072017 0.6757456 0.71808743 0.6856626 0.64990383 0.7048408 0.57822216 0.49746263 0.62484556 0.63166314 0.62012684 0.47456926 0.45075196 0.24442308 0.6135707 0.6297637 0.35457176 0.59425807 0.17815119 0.19566263 0.21176529 0.66891205 0.67685235 0.5283023 0.46869424 0.31485438 0.37505025 0.35516906 0.30793107 0.38309276 0.40430844 0.55722696 0.62542903 0.32070398 0.43229353 0.43211335 0.43274328 0.45612192 0.42682225 0.33406436 0.19348654 0.45779073 0.31243598 0.1555683 0.1502915 0.37357527 0.3328049 0.1845298 0.32335898 0.18847327 0.14433663 0.19752225 0.28669804 0.3443805 0.34237525 0.114353985 0.47348848 0.34811345 0.16722487 0.11340521 0.46004158 0.083307214 0.2640856 0.02161772 0.09440158 0.2172399 0.41420636 0.39636305 0.18395476 0.13389808 0.43788788 0.39964235 0.23070176 0.12245661 0.4750179 0.42395532 0.13620853 0.111723356 0.46321166 0.13972287 -0.088746816 -0.012777716 0.4901651 0.551441 0.43509126 0.42287803 -0.12760809 0.13725117 0.34800014 0.5076761 0.56430995 0.56994545 0.3765688 0.34070367 0.22766566 0.013051599 -0.07642017 -0.09119636 0.31462166 0.55604655 0.5357317 -0.18746935 -0.24525866 -0.3915873 0.48015726 -0.00043462962 -0.16660494 0.32027912 0.2656201 0.24444042 -0.008988123 0.15183039 0.32617384 0.27937847 0.12021798 0.17166677 0.2026349 0.16293795 0.1666321 0.104623295 0.110954344 -0.010796621 -0.011223234 0.052591484 -0.056703802 0.2747019 0.18588595 0.14775348 0.36941206 -0.089513235 0.21916832 0.30985606 0.39911085 0.3692636 0.3592655 0.0026734993 0.05673699 0.12553176 0.22677842 0.38405877 0.40984946 0.45014632 0.41596228 0.37145162 0.4248012 0.01163964 0.044766903 0.086124994 0.41204816 0.45485154 0.3278054 0.46935433 -0.042699262 0.3099348 0.042100035 -0.047591455 0.19550833 -0.012463264 0.2917199 -0.05762689 -0.096241884 0.39042598 0.14600965 0.32445973 0.41102284 0.5048643 0.4370137 0.53562975 0.6599216 0.6577749 0.6130422 0.6948942 0.7058908 0.44245332 0.21822241 0.61276376 0.61454785 0.6984918 0.6710063 0.5813755 0.53156686 0.27544284 0.44424474 0.6576131 0.6330911 0.5984819 0.5038118 0.43798107 0.52080697 0.70337754 0.7266655 0.704386 0.7132915 0.4907926 0.50557625 0.56334627 0.5270926 0.41240567 0.369305 0.3213079 0.6136874 0.59722924 0.198935 0.15344986 0.60556144 0.0664082 0.7213341 0.7307425 0.7312585 0.5907942 0.07730608 0.605673 0.6950085 0.7062396 0.7085726 0.26797077 0.30134106 0.08854109 0.6406182 0.64712554 0.29896298 0.24521886 0.31815407 0.5052297 0.16881384 0.16363586 0.27198234 0.20523354 0.12498048 0.059573237 0.15172775 0.43737578 -0.27448258 0.029989034 0.4251008 -0.42798188 -0.4036367 -0.09980331 0.048891008 -0.017190982 0.39198536 0.42232707 -0.4018275 -0.29118398 0.049878556 0.40507296 0.07189119 0.4336176 0.10656137 0.114070915 0.4771226 0.0801935 0.46153674 0.15106517 0.49708438 0.561455 0.57058764 0.3695354 0.38795793 0.5591243 0.3512783 0.30013806 0.51197886 0.07205708 0.41629457 0.07857332 0.14996925 -0.016049482 0.020632062 0.10671727 0.13196145 0.18901232 0.14346346 0.18033484 0.18856275 0.15699153 0.18012767 0.17161891 0.10519434 0.04224739 -0.020756518 0.13127011 0.028590877 0.16193046 0.19716619 0.23073971 0.22006857 0.2351022 0.2722546 0.30741462 0.35582668 0.27820176 -0.01965192 0.46423054 0.42607686 0.058114804 -0.14587966 -0.0005723983 0.35943192 0.47862947 0.49236768 0.4545759 0.48366344 0.14737052 -0.10191821 -0.10071479 -0.12699938 0.09175737 -0.110385105 0.33948016 0.11118218 0.44699147 0.42701593 0.6015543 0.5072944 0.668903 0.59571004 0.63742185 0.64816165 0.6432271 0.20672248 0.31279033 0.67158735 0.65097517 0.62739646 0.6175475 0.56668884 0.49043238 0.4060972 0.6349693 0.74012727 0.7312461 0.6963922 0.73705864 0.7508671 0.75069237 0.68160963 0.7266233 0.7015365 0.6632695 0.6271835 0.60767907 0.5437951 0.54969895 0.56549066 0.50097215 0.3757283 0.5498855 0.1862163 0.57150066 0.67557275 0.71544886 0.74807507 0.74081236 0.39842972 0.011050243 0.059999354 0.02145227 0.26378077 0.7125869 0.36172307 -0.077291146 -0.0023708697 0.03252329 0.06346537 0.6492058 0.61384344 0.02358368 0.49597168 0.28156573 0.34604812 0.18404555 0.21590444 0.2407914 -0.77802557 0.008401267 0.04205686 0.32916906 -0.024863966 0.04971254 0.34239697 0.025620405 0.33639237 0.04490702 0.39872944 0.074955806 0.43961242 0.41432717 0.47848356 0.4906808 0.5332579 0.38223207 0.33101228 0.5281555 0.2819312 0.2241402 0.2993946 0.18257928 -0.014875117 0.014623782 0.05534565 0.1525238 0.13185298 0.11941326 0.09275076 0.096890636 0.15901203 0.15169442 0.0647252 0.17226863 0.1577614 0.16087435 -0.008131427 -0.13267067 0.06461143 -0.14748643 0.016194781 -0.06728694 0.10551042 0.26685113 0.1535997 0.34841466 0.30611768 0.09900515 0.40194133 0.13797654 -0.1346092 0.33014765 0.4652158 0.40423715 -0.050285146 -0.14914714 0.38477558 0.4859592 0.016434718 -0.09813361 0.023142247 -0.014026549 -0.17864455 -0.19784442 0.49987155 0.55077016 0.097684436 0.06564841 -0.0827058 0.49487936 0.545029 0.24661374 0.11943707 0.4997264 0.33068067 0.054869168 0.5177532 0.3626749 0.5734927 0.59135246 0.5464816 0.15848647 0.6715921 0.52778924 0.58530307 0.6092261 0.56252635 0.49092388 0.51970124 0.73505604 0.6975337 0.6511016 0.7197735 0.7454145 0.749137 0.77368164 0.77792335 0.7248062 0.7629328 0.76587754 0.7310298 0.7029512 0.5275668 0.6292367 0.4467624 0.4368937 0.3594699 0.44520342 0.41244838 0.03545755 -0.0007133931 0.19134104 0.19156262 0.22434293 0.094608605 0.26405156 0.59748 0.73088527 0.6516291 0.32137153 -0.1246511 -0.20310052 0.10957306 0.10711826 0.04905298 0.048767112 0.6518835 0.60685575 0.08446484 0.57920104 0.019531451 0.036881305 0.42534864 0.4896773 0.095822275 0.34322757 0.38405576 -0.029937526 0.24332297 0.11840077 0.13232204 0.21457557 0.19219197 0.10678859 0.20773831 0.2298105 0.21335192 0.3434213 0.37015605 0.36422217 0.27596217 0.30051804 0.36468396 -0.18350284 0.0050180703 0.275557 0.25901353 0.15330426 -0.09010743 0.056513786 0.061198413 0.08560542 0.119886495 0.00042258203 0.14322115 0.15410936 -0.031174228 0.18859896 0.25279614 -0.1198602 0.21302156 0.2524088 0.28264666 -0.37102416 0.19561297 0.30474943 0.37713274 0.19697902 0.39119142 -0.21149272 0.09676976 0.37518138 -0.10118078 0.15676402 -0.020671338 0.23431067 -0.026690051 -0.06304152 0.30284196 0.38951486 0.052847505 0.0020029992 -0.22416517 0.34206718 0.3881298 0.10000223 -0.24497087 0.07214266 0.37148118 0.51145136 0.50395966 0.19667864 0.05366785 0.051939197 0.5507271 0.552628 0.27535152 0.15103623 0.54423535 0.5444855 0.32623437 0.30531117 0.4571681 0.5081322 0.28567386 0.34232515 0.3636791 0.46673733 0.45418793 0.47744507 0.63940525 0.4477278 0.440723 0.3813133 0.69283223 0.5159254 0.48462507 0.48531958 0.5014403 0.38620096 0.41318232 0.52340734 0.6144657 0.68172044 0.72437835 0.6596451 0.7199871 0.7755137 0.78453875 0.7810395 0.72537154 0.75925636 0.76946336 0.721696 0.5043437 0.56468946 0.6458665 0.3911845 0.52373034 0.35588336 0.14125784 0.40731853 0.34969765 0.35520244 0.30138505 0.036141634 0.34065515 0.31667703 0.21669619 0.48912317 0.10371922 0.5220174 0.5389082 -0.010607131 0.52790374 -0.09813611 0.44713095 0.28278524 0.3586098 -0.10762829 0.23713733 0.2664311 0.036486268 0.14088677 -0.041546896 0.27850387 0.3085607 0.06661377 0.29798794 0.06984119 0.19342865 -0.16092062 -0.14376073 -0.3643235 0.10320587 -0.4042506 0.022686828 0.11903505 -0.040119305 0.19754902 0.4526683 0.49521387 0.48932168 0.4223135 0.4220879 0.030002289 -0.11054638 0.31817257 0.22779772 -0.0044823587 0.15692544 0.17191425 0.14834264 -0.027352259 -0.0086719245 0.13623133 0.18329248 -0.13686535 0.17520627 0.20422882 -0.14597923 -0.25084507 0.264279 -0.32629865 0.3160715 0.35252082 0.44986367 -0.0041918606 -0.079520404 0.39766258 0.6789323 0.6226654 0.40557647 0.14938696 -0.018081553 0.4910848 0.74009085 0.7037489 0.62893385 0.18314205 -0.088432685 0.40447038 0.45350644 0.7230381 0.59413207 -0.038627274 -0.03834048 0.14431813 0.3491921 0.09825762 0.14059311 0.19567722 0.091230884 0.22139114 0.1757159 0.21260852 0.24205223 0.0428946 0.18036565 0.387757 0.31773007 0.54178095 0.5326359 0.37049952 0.5371751 0.35722378 0.46806923 0.5183318 0.3071681 0.28907114 0.24452166 0.42617226 0.26611885 0.1440269 0.28772175 0.01063359 0.38442677 0.39251262 0.35541877 0.31178287 0.18611944 0.32718927 0.5783035 0.400556 0.43879902 0.5731862 0.6117202 0.6737778 0.7725618 0.78095925 0.7051674 0.75265074 0.77396965 0.7592844 0.69524395 0.4728358 0.60358274 0.69080734 0.5009005 0.43905485 0.2767665 0.4828301 0.4554407 0.42269218 0.34570014 0.39953995 0.4455366 0.42069143 0.37760395 0.27807024 0.06730643 0.37528813 0.3742174 0.10662651 0.09809431 0.23064591 0.42540422 0.46010244 0.4314719 -0.100186795 0.37761968 0.041794084 0.3150211 0.018562302 0.22364111 0.2640734 -0.13334142 0.15112966 -0.2690879 0.25917768 0.16782396 0.0040039048 0.30057094 0.25689536 0.23252176 0.38346973 0.3188765 0.21810755 0.48559216 -0.11838896 0.5769017 0.5175802 -0.26456523 0.5237602 0.44698012 0.24970244 -0.3346336 -0.19039625 0.16300544 0.39201736 0.45658693 0.43763927 0.3981573 0.18207395 -0.17786348 0.43567905 0.4981944 0.49179068 -0.5259865 -0.589934 0.450835 0.39710942 0.25990522 0.101724595 0.18236238 0.18824317 0.15659773 -0.030126527 -0.1004352 0.20881891 0.13283034 0.050863087 0.22892427 0.0017855708 -0.06782167 0.2671942 -0.10196339 -0.09337983 0.35516453 0.5782499 0.3921296 0.44769374 0.7170502 0.6862843 0.4635082 0.44710448 0.7431768 0.7520922 0.36366817 0.41345826 0.74029005 0.7409601 0.71187365 0.55945617 0.1748036 0.27830794 0.66449666 0.17766938 0.18037476 0.041986022 0.29025924 0.27888992 0.10291265 0.3319678 0.35035604 0.20616317 0.116008304 0.48017186 0.285978 0.5435182 0.35185266 0.5077342 0.5299871 0.34366488 0.40834546 0.45890296 0.49143058 0.31721795 0.26578322 0.3764001 0.2790575 0.23074806 0.2368815 0.21756539 0.05541716 -0.07154525 0.22077453 0.26471186 0.21899444 0.18758756 0.061084423 0.7470413 0.75182164 0.62814856 0.67068624 0.69321483 0.6240187 0.50208986 0.59860456 0.35596114 0.31368154 0.45102948 0.43717444 0.3936165 0.40494746 0.10255163 0.077608936 0.4003935 0.31651977 0.38493192 0.06770846 0.30968282 0.36309898 0.020759452 0.254457 0.34090704 0.052970737 0.31595233 0.08261428 0.30615455 0.026711378 0.24583739 0.27281618 0.14744778 0.16422296 0.21716487 0.14785394 0.10468955 0.2409783 0.34131068 0.29502416 0.054059133 0.41522476 -0.04346731 0.5180908 0.5089961 -0.03432942 0.5618629 0.5714403 -0.1902714 0.53375745 0.49430645 -0.3879436 0.034967404 0.16706428 0.3097083 0.4029628 0.4706719 0.42412746 0.36042753 0.2510452 0.43616575 0.43540344 0.2869591 -0.22153515 0.31748587 0.19911635 0.13175055 0.20436817 0.20519818 0.2471283 0.19171837 0.23488563 0.15024017 0.04849615 0.25327742 0.13393103 0.25783694 0.11008758 0.24929236 0.563493 0.33514068 0.63931143 0.37006438 0.7074461 0.25000083 0.347485 0.3371486 0.7026304 0.6981748 0.6275349 0.016666427 0.22215214 0.58998054 0.25310373 0.033427738 0.012220815 0.3075891 0.037681162 0.061178092 0.355928 0.024297042 0.34350586 0.2541069 -0.2856527 -0.07671058 0.43130234 0.14967038 0.5087863 0.23210365 0.51303387 0.32343787 0.43111074 0.48156506 0.31885663 0.22039413 0.2631874 0.36600244 0.28368363 0.24909067 0.14535077 0.17073393 0.21495503 0.17293948 0.14814039 0.057413682 -0.021292523 0.0001903139 0.039299946 0.15126953 0.19144253 0.19416678 0.017060906 0.5049348 0.5937424 0.3815413 0.49901336 0.06304532 0.007943941 0.23272857 0.53101146 -0.045598455 0.14228538 0.4624117 0.4974336 -0.023687724 -0.107948594 -0.18818766 -0.1788797 0.36891496 0.11776931 0.2256027 0.26739758 0.08586688 0.29574972 0.059412546 0.27903765 0.008806251 0.018328073 0.22096711 -0.025375538 0.00086614117 0.10689549 0.20401229 0.18305883 0.038603235 0.3218571 0.21993631 0.39067483 0.17037538 0.47232112 0.43620032 0.19281049 0.22445452 0.5022011 0.5072849 -0.039132856 0.054368015 0.15995875 0.20451248 0.31954342 0.4181586 0.38369977 0.28729326 0.32579607 0.22411007 0.27418554 0.06501672 0.07251679 -0.0046895966 0.35835493 0.56843936 0.6375395 0.17378864 0.37008405 0.6324804 0.7170717 0.3126118 0.27100262 0.6002892 0.6799357 0.71015286 0.7158923 0.3318493 0.27701396 0.17336854 0.5723151 0.62618685 0.66833675 0.3524722 0.3156814 0.5353646 0.37317914 0.30039775 0.23486884 -0.09948033 0.4067204 0.19582194 0.43229932 0.30513626 0.2636579 0.22079727 0.29422104 0.6180375 0.51337105 0.257135 0.2837072 0.62855256 0.55478954 0.510585 -0.037488215 0.36039084 0.0138300955 0.30482382 0.03109134 0.34603402 -0.2537708 0.28382322 0.20867264 0.07767826 0.3332608 -0.09013579 0.33761606 0.43613392 0.16186622 0.26691893 0.36626056 0.45316494 0.2883134 0.28666693 0.08746947 0.13831803 0.21322864 0.2712497 0.23307449 0.0032330826 0.10866859 0.11970459 0.10184128 0.06953651 0.022585899 0.020868652 0.03963041 0.015336622 0.031787306 0.089537114 0.122239456 0.1339708 0.5455018 0.60324925 0.6247865 0.23192015 -0.07317814 0.12134917 0.5974176 0.55376995 0.15281188 0.010715477 -0.049329456 -0.07224103 0.49182397 0.15131064 -0.07939497 -0.2205559 0.37862235 0.13851501 0.1964486 0.12241016 0.20776829 0.1000088 0.30216968 0.053742863 0.32440293 0.0230347 0.04324339 0.30527544 0.006656997 0.15863465 0.22854155 -0.016152505 -0.20538628 0.09191148 0.21542564 0.37262157 0.39009988 0.32842737 0.3459912 0.38158923 0.19559525 0.27343178 0.07905101 0.13274206 0.2231856 0.2953183 0.1493177 0.18665995 0.0035836175 0.0037335753 0.10850427