# vtk DataFile Version 2.0
Really cool data
ASCII
DATASET POLYDATA
POINTS 4444 float
-85.69103 69.06429 44.77162
-85.702934 69.11579 45.37257
-85.67198 69.68043 44.011303
-85.83265 69.67898 44.59261
-85.81499 69.623 45.39099
-85.65459 69.71281 45.953217
-85.65202 70.30659 44.042538
-85.78658 70.31866 44.65763
-85.79311 70.28691 45.25593
-85.686386 70.12838 45.834568
-84.75454 68.05322 43.79067
-85.05605 68.30206 44.390995
-84.985 68.30448 45.43537
-84.70187 68.94947 42.669144
-85.2282 68.83004 43.791466
-85.348915 68.62548 44.75161
-85.30335 68.72016 45.49626
-85.24103 68.989006 46.057293
-84.58169 69.30882 42.480583
-85.44916 69.83429 43.611343
-85.37428 69.573875 46.29079
-85.00845 70.098114 43.234123
-85.40528 70.45664 43.823128
-85.574104 70.61268 44.26632
-85.44706 70.57315 45.747746
-85.24923 70.3105 46.28957
-84.70535 71.15803 53.050823
-85.13963 70.83154 44.008533
-85.26072 70.90684 44.551777
-85.22638 70.87692 45.298912
-84.969986 70.73337 46.121464
-84.661446 71.76064 52.045166
-84.82789 71.56848 52.80143
-84.8858 71.73643 53.40453
-84.73156 71.73957 54.1298
-84.68251 72.550606 52.01934
-84.806946 72.50645 52.53453
-84.90366 72.36554 53.521183
-84.728645 72.273865 54.199318
-84.578354 72.98213 52.027077
-84.65092 72.953415 52.45723
-84.702736 72.90107 53.37611
-84.67336 86.99298 29.898947
-84.89928 87.915665 28.675562
-85.18624 87.93667 29.562193
-84.87636 87.581406 30.13116
-84.69562 88.52006 28.0523
-85.23278 88.630264 28.741041
-85.38955 88.49775 29.333193
-85.15989 88.67646 30.412327
-84.78706 88.49303 30.796513
-84.73477 89.39911 28.182966
-85.159645 89.328354 28.415403
-85.42382 89.52237 29.487589
-85.18916 89.7128 30.242245
-84.87213 89.512985 30.845633
-84.80206 90.51445 28.01705
-85.30557 90.437874 28.750244
-85.400826 90.66167 29.333532
-85.179726 90.415405 30.203386
-84.86569 91.07959 28.041658
-85.15217 91.33805 28.765099
-85.21572 91.30195 29.422003
-84.87689 91.2927 30.324884
-84.73659 90.96264 30.788525
-84.88133 92.02926 28.949673
-84.845726 92.12476 29.126007
-83.80925 67.10999 42.076714
-83.876595 66.9808 42.91046
-83.76222 66.79816 43.634644
-83.65296 67.73712 40.822273
-84.05618 67.89467 41.736935
-84.15114 67.779175 42.627415
-84.431206 67.82802 43.513588
-84.51643 67.813194 44.82858
-84.168396 67.69016 45.325577
-84.49445 68.19144 45.907642
-83.75621 68.69152 40.879665
-84.1171 68.54125 41.709263
-84.412254 68.29999 42.560787
-84.56311 68.75518 46.458477
-84.082726 69.10587 41.8052
-84.55736 69.42517 42.54207
-84.45333 69.71279 46.74202
-83.82269 70.19754 52.153507
-83.75206 70.13126 42.070362
-84.248215 70.50123 43.050064
-84.09789 70.431274 46.539715
-84.83512 70.196144 46.63416
-84.14003 70.730385 51.906624
-84.23655 70.641136 52.49837
-84.48456 71.04422 53.502846
-83.96976 71.05816 54.195896
-83.55373 71.99849 38.457153
-84.38477 71.01779 43.86741
-84.60482 71.16651 44.656513
-84.20772 71.20639 45.081493
-84.70514 70.82283 46.023487
-84.011856 71.8548 51.158497
-84.49011 71.30683 51.870518
-84.46391 71.635086 54.37495
-84.09425 71.84462 54.64419
-83.60583 72.65827 38.02653
-83.73169 72.64776 38.54774
-83.790054 72.94332 39.314713
-83.685486 72.74263 39.861294
-84.47588 72.62061 51.608322
-84.3651 72.490746 54.435253
-84.13163 72.34799 54.645985
-83.61939 73.17711 38.122158
-83.73611 73.43913 38.60659
-83.8026 73.488014 39.297375
-83.660286 73.42591 39.839916
-83.805595 73.25771 51.317383
-84.22651 73.18028 51.69402
-84.45048 73.2662 52.504936
-84.28064 73.35871 53.400818
-84.14854 73.07055 54.180935
-83.67259 74.002235 38.881252
-83.65244 73.98498 39.35002
-84.00473 73.688194 52.01947
-84.03138 73.68323 52.452374
-83.84178 73.83932 53.11555
-83.83394 86.06343 29.207455
-84.02438 85.958305 29.692223
-83.927124 85.77486 30.560354
-83.88533 85.97288 31.016108
-83.925446 86.46185 28.820723
-84.24389 86.474464 29.327309
-84.34602 86.401985 30.407944
-83.780136 86.56998 31.545076
-83.927864 87.71739 28.061203
-84.570274 87.662254 28.448313
-84.50794 87.57807 30.611378
-84.077805 87.68674 31.370476
-83.88305 87.793945 31.680199
-84.45787 88.706566 27.822273
-84.26462 88.53449 31.209173
-84.08616 89.32171 27.447138
-84.51137 89.16375 27.782288
-84.31167 89.55763 31.295809
-83.770454 89.28394 31.746086
-84.377144 90.474396 27.617094
-84.35075 90.524704 31.209923
-83.9546 91.722824 27.284685
-84.23191 91.62476 27.637236
-84.507256 91.59993 30.683596
-84.24877 91.29225 31.04663
-83.81087 92.482735 27.155807
-84.115845 92.61198 27.645212
-84.227875 92.80318 28.29584
-84.40187 92.60872 29.446638
-84.32029 92.18735 30.30354
-83.76097 92.94423 27.115644
-83.81815 93.34791 27.73041
-84.21357 93.1231 28.556662
-84.13792 93.309906 29.45304
-83.831184 93.41975 30.019949
-83.73414 93.810074 28.5288
-83.719925 93.82793 29.61572
-82.78892 66.295395 40.92424
-82.88743 66.2722 41.694763
-83.02205 66.17357 42.685715
-83.133316 66.2002 43.4183
-82.90041 66.302376 44.054855
-82.76602 66.825165 39.83064
-83.22242 66.99386 40.645733
-83.205185 66.52125 41.68981
-83.32292 66.4147 42.67686
-83.50878 66.4471 43.56286
-83.322235 66.64695 44.328144
-83.40049 67.16372 45.20128
-82.98447 67.58771 39.83118
-83.3316 67.50056 40.374733
-83.38644 67.872116 46.20921
-83.30176 68.26817 40.039078
-83.3968 68.81626 40.30134
-83.31667 68.45519 46.707058
-82.88668 69.0997 40.041706
-83.129364 69.25378 40.551712
-83.4375 69.967674 51.80888
-83.5507 70.10603 52.36213
-83.5696 70.28582 52.92156
-82.876595 71.22807 37.61949
-82.7323 70.88267 38.149014
-82.76326 71.02121 39.50115
-82.567085 70.25126 40.54011
-83.07704 70.36603 42.042664
-83.43321 70.27224 46.320934
-82.72459 70.55302 50.20083
-82.81353 70.23551 50.359707
-83.67255 70.56502 53.489834
-83.71709 70.89446 54.039455
-82.890236 71.742096 37.14066
-83.21384 71.7819 37.60976
-83.35158 71.72951 38.427704
-83.60769 71.0908 43.90017
-83.790855 71.09682 44.841656
-83.70075 71.2117 45.064888
-83.06024 71.06285 50.668064
-83.33273 71.32322 54.448055
-83.45386 71.738304 54.74017
-82.99076 72.54863 37.091972
-83.41713 72.64466 37.649014
-83.17848 72.61095 40.1926
-83.65772 72.639984 50.97126
-83.48806 72.44201 54.78223
-83.082634 73.060974 37.21427
-83.2588 73.432655 37.62084
-83.25037 73.50125 40.276104
-83.36205 72.83986 50.931164
-83.666725 73.45913 51.41428
-83.50451 73.38805 54.363995
-83.338844 73.13391 54.65358
-83.04722 74.56351 37.785366
-83.408615 74.3709 38.587227
-83.451164 74.24699 39.504585
-83.15365 74.09843 40.111183
-83.52483 73.720695 51.758274
-83.29801 74.08053 52.6749
-83.23835 74.095985 53.63504
-82.97518 74.012054 54.141586
-82.72461 75.55602 37.182777
-82.821335 75.52036 37.62817
-82.88672 75.35599 38.230194
-83.13588 74.68164 39.328625
-82.70465 75.953186 37.633224
-82.68186 75.94306 38.327957
-83.10941 85.32344 29.691765
-83.14613 85.206 30.583647
-83.09854 85.25004 30.879057
-83.19653 85.87083 28.840775
-83.51659 85.61758 29.50433
-83.40368 85.8143 31.384699
-82.916374 85.71735 31.770317
-83.19086 86.58489 28.23961
-83.50225 86.534935 28.499247
-83.28716 86.55539 31.895632
-83.580154 87.85269 27.776165
-83.1832 87.43949 32.00403
-83.44525 88.5716 27.421041
-83.5202 89.43115 31.787418
-83.39785 90.57308 27.134174
-83.50445 90.67805 31.569958
-83.03157 91.65609 26.802423
-83.52484 91.202774 31.397985
-83.37408 90.97421 31.55043
-83.29455 92.39559 26.705536
-83.32953 92.2099 30.965387
-83.22681 93.35056 26.908934
-83.4257 93.52798 30.325178
-83.07619 93.70426 27.094187
-83.24885 93.83604 27.602516
-83.25082 94.1088 28.53035
-83.31304 94.11847 29.428627
-83.24549 93.93321 30.033108
-81.80648 65.925934 39.061314
-81.85361 65.67129 39.52596
-82.148155 65.74559 40.43498
-82.67499 66.036156 41.41631
-81.85353 65.803154 42.234116
-82.46787 65.958496 43.459976
-82.36115 66.26193 44.404594
-82.080086 66.67145 38.97173
-82.435585 66.59599 39.64645
-82.58869 66.323654 40.323048
-82.56354 66.89454 45.149765
-82.04139 67.68803 38.858963
-82.36396 67.76881 46.580475
-81.962845 68.629425 38.80038
-81.95335 69.04594 50.664616
-81.867065 69.983475 38.59153
-82.11634 69.70549 51.295143
-82.540215 69.86694 52.51117
-82.85059 70.219 53.124916
-82.025734 71.05296 37.136684
-82.538956 71.06442 37.544857
-82.22941 70.3541 38.464375
-82.05179 70.54234 47.62109
-82.33168 70.47216 49.063892
-82.52095 71.58273 37.04042
-81.94406 71.2149 43.412342
-81.94468 71.44859 47.733833
-82.41317 71.18991 49.97827
-82.60314 71.54258 54.553337
-82.40285 72.10725 54.81181
-82.43354 72.45131 36.77429
-81.74366 72.09993 48.11679
-82.80192 72.5355 50.57327
-82.54068 72.69836 54.97001
-82.30846 73.524605 36.884888
-82.58869 73.53644 40.557545
-82.24927 73.26718 40.96204
-82.54789 72.851234 50.676006
-82.73857 73.58018 51.385303
-82.275826 73.46946 54.898926
-82.20376 74.176506 36.70412
-82.39671 74.34073 40.495693
-82.08256 74.06762 40.89799
-82.53329 74.101585 51.99416
-82.59602 74.49557 53.34383
-82.20423 74.35197 54.337814
-82.22281 74.04203 54.674812
-82.399605 75.3643 36.750824
-81.94188 75.76626 39.549232
-82.02055 74.884995 40.13668
-82.25445 74.60286 53.507614
-81.98901 74.582634 54.019577
-81.79559 77.233894 32.13074
-81.81563 77.13302 33.40302
-82.23229 76.3001 37.038254
-82.42243 76.51449 37.787888
-82.37426 76.54308 38.445637
-82.17711 76.24359 39.17235
-81.83057 76.64809 39.813725
-81.92874 77.71699 32.019684
-82.15085 77.69561 32.52769
-82.13507 77.68024 33.56645
-81.83883 77.52801 34.049973
-82.00943 76.88757 37.71386
-82.01101 77.22914 38.550453
-81.69614 77.203575 39.88103
-81.963844 78.1397 32.10554
-82.16193 78.34225 32.673702
-82.22295 78.41802 33.543594
-81.98818 78.38197 34.245804
-81.71679 77.68297 38.862206
-81.79821 78.94996 32.64352
-81.7851 79.23569 33.562794
-81.87569 79.09688 34.06234
-82.80348 85.16521 29.720493
-82.39155 84.8124 30.508177
-82.303955 84.80649 31.212154
-82.22762 86.05451 28.387167
-82.47051 85.77963 28.621365
-82.61455 85.472404 31.876043
-81.62225 85.75694 38.97338
-81.624825 85.76647 39.459934
-81.56669 85.83784 39.975384
-82.61501 86.51607 28.222641
-82.60501 86.669014 32.401268
-81.63607 86.485565 38.843094
-81.652374 86.463684 39.595245
[...]
POINT_DATA 4444
SCALARS features_00 float 1
LOOKUP_TABLE default
0.74789226 0.7936759 0.7307359 0.81471443 0.8649821 0.88712037 0.77844685 0.8565929 0.89246875 0.90391266 0.46646097 0.5534813 0.61235154 0.44926947 0.58984184 0.65037787 0.71017957 0.78976095 0.43253458 0.6758257 0.87785584 0.61911356 0.74127233 0.8135189 0.8970173 0.89290607 0.8236013 0.76006484 0.82589316 0.8721271 0.86713153 0.77267003 0.8430369 0.9167729 0.9254261 0.720876 0.77880883 0.9141685 0.92101836 0.6862837 0.7227771 0.8341049 0.6085386 0.56142455 0.62659544 0.60165626 0.5227091 0.57772255 0.6335002 0.5738927 0.5132432 0.52712494 0.5523375 0.65997905 0.578965 0.4930315 0.52075344 0.5979654 0.61655104 0.56803185 0.5337752 0.5745083 0.5831403 0.5380535 0.49230677 0.56427515 0.563764 0.37205637 0.3786316 0.38860476 0.34966242 0.35815465 0.38200438 0.41935977 0.47704804 0.44887766 0.56408525 0.28880206 0.3396342 0.39654887 0.73242295 0.3290358 0.44223982 0.87110543 0.5829628 0.34184036 0.5721952 0.7951308 0.8689225 0.6662919 0.6997487 0.83209467 0.82449245 0.57090735 0.6886074 0.770444 0.7490732 0.8456605 0.62443435 0.74225307 0.8879904 0.8299047 0.58492017 0.59080666 0.59565353 0.58120614 0.6648997 0.86572987 0.82496053 0.5613713 0.55587536 0.5615721 0.5263968 0.5661633 0.63129085 0.6905664 0.75986505 0.8214171 0.51975965 0.514701 0.62309194 0.64727616 0.67363834 0.5700225 0.5958271 0.6036601 0.57547307 0.5417415 0.5750718 0.6009327 0.5128915 0.49328673 0.5348125 0.5517059 0.4729761 0.441263 0.5088986 0.4504791 0.48453447 0.5073292 0.43453395 0.37908942 0.49324661 0.44140214 0.57597744 0.550267 0.49947524 0.45440358 0.6801952 0.6374927 0.613594 0.57126915 0.5334162 0.73985374 0.73620695 0.628219 0.6170031 0.60621387 0.72117114 0.6604806 0.37382013 0.37019187 0.37877977 0.3811074 0.36560246 0.37696937 0.37010232 0.3693589 0.37886813 0.38503775 0.37102142 0.3444604 0.35120735 0.35912448 0.37967044 0.30980128 0.25871894 0.46742988 0.20335785 0.20290521 0.5114456 0.5453723 0.59511554 0.5183117 0.44168255 0.29651 0.021774359 0.30704665 0.68774843 0.43443203 0.5181338 0.68815494 0.77838475 0.56298745 0.5704495 0.5444068 0.53242135 0.6237894 0.6203494 0.48240778 0.75111306 0.7588291 0.57761204 0.58338636 0.4976179 0.5390609 0.73869646 0.5540342 0.531103 0.4303301 0.49517688 0.55580235 0.7117277 0.6955082 0.44430202 0.47427085 0.46835414 0.39190418 0.56280595 0.622905 0.64513004 0.6235383 0.40362403 0.39803582 0.38447773 0.40843326 0.38737774 0.36908314 0.6037698 0.59915984 0.58390737 0.5581436 0.59259903 0.5452498 0.49762166 0.50655717 0.52274024 0.47208548 0.47203457 0.41526243 0.44518825 0.35027796 0.46508634 0.34919938 0.6028986 0.37254882 0.34019572 0.71778464 0.41255915 0.8132247 0.5807692 0.82370424 0.8041364 0.75258636 0.6897798 0.6411659 0.4496122 0.44357398 0.40261352 0.3711344 0.36145067 0.36459455 0.3306277 0.4186411 0.38978446 0.38514477 0.2860058 0.35016918 0.17393212 0.17821522 0.25713664 0.14136244 0.40086877 0.34399635 0.46668863 0.4048866 0.47442937 0.26708928 0.127432 0.12875922 0.5219992 -0.04416089 0.21434899 0.28491798 0.6287618 0.6052247 0.54579 0.20521809 0.3834949 0.6326283 0.48193836 0.2906013 0.18103012 0.31224167 0.41496336 0.58050084 0.41988173 0.21435009 0.13925768 0.4761771 0.5708605 0.5641108 0.5633012 0.407233 0.24962252 0.17239839 0.5357477 0.54615116 0.58996165 0.5766548 0.40894103 0.39265937 0.38211906 0.32287502 0.25235254 0.612389 0.6727407 0.6867976 0.59998214 0.39777118 0.39596325 0.24441084 0.6310741 0.6970635 0.7127042 0.64026105 0.3633362 0.6179421 0.5465452 0.53421617 0.6061298 0.60345215 0.54363704 0.50842476 0.5496626 0.4815294 0.42040062 0.4170827 0.4029656 0.48957342 0.37676787 0.4797147 0.46675617 0.4610812 0.31859863 0.48631313 0.36666992 0.29263294 0.2850914 0.31488004 0.18298115 0.39774042 0.1800442 0.56058955 0.7503666 0.7270702 0.7791853 0.43109742 0.7981796 0.7765405 0.7307943 0.6775131 0.61982334 0.63370013 0.6357281 0.6430743 0.63904333 0.49629715 0.47713172 0.4307601 0.39009595 0.34241092 0.6459167 0.6426524 0.48475677 0.4663322 0.43348786 0.35241193 0.3115865 0.29840332 0.268748 0.4937445 0.2505824 0.18325762 0.4138189 0.44433126 0.13533379 0.11984702 0.27872974 0.34874895 0.18921952 0.65435624 0.64350724 0.18748118 0.19571248 0.22642933 0.6701838 0.7110909 0.72099507 0.6980786 0.21103056 0.7307839 0.7618557 0.75335646 0.68969244 0.3697407 -0.18497619 0.16499418 0.76425564 0.73397255 0.6787907 0.33877403 -0.09901423 -0.027978837 0.24390149 0.16086943 -0.04588595 0.5018788 0.03682977 0.2861039 0.21210381 0.03107073 0.5161663 0.3371604 0.068224296 0.2103295 0.27297503 -0.049079463 0.54235214 0.52735007 0.3440515 0.28712544 0.30903262 0.23545617 0.07908831 0.048780903 0.20826067 0.3453463 0.056317218 0.5134761 0.42372262 0.49499243 0.5096984 0.3399913 0.15465899 0.27200657 0.4045807 0.42467216 0.53970385 0.2498132 0.18482685 0.49309486 0.55389273 0.38092697 0.15235525 0.5031254 0.56086046 0.18663064 0.42002764 0.24490443 0.2509715 0.2745965 0.3675391 0.25230503 0.28878528 0.3640533 0.3824246 0.34330532 0.23779702 0.34522554 0.35158288 0.322559 0.292626 0.2844381 0.2811103 0.2214669 0.5821976 0.5915195 0.3729826 0.21189447 0.3294611 0.28964603 0.19251883 0.5055056 0.3431256 0.30743986 0.37255603 0.3609116 0.3825879 0.3560344 0.4624179 0.25236604 0.39322352 0.43076557 0.44843787 0.38134915 0.30684498 0.16454016 0.40182823 0.4288723 0.47193015 0.46200138 0.45159444 0.13921987 0.38542137 0.38848752 0.40045744 0.3964848 0.3510995 0.21608275 0.13915655 0.27535748 0.09115172 0.50211847 0.18113677 0.57173085 0.31398636 0.6846421 0.5665795 0.659754 0.6472163 0.5480266 0.38691658 0.31867066 0.6117035 0.6180511 0.5645722 0.62333566 0.5864524 0.51294756 0.5135687 0.4991005 0.46515027 0.36202937 0.30210924 0.599398 0.62382185 0.63963485 0.59318775 0.5070063 0.5123569 0.2568664 0.22075042 0.21114473 0.6101124 0.6233635 0.62179756 0.48035604 0.4656739 0.48427933 0.09492712 0.32886183 0.3939972 0.416165 0.43676305 0.34375703 0.3377282 0.488548 0.33823532 0.29304814 0.26803356 0.5817653 0.57273984 0.5937093 0.5453205 0.59039783 0.6506476 0.6513696 0.5848022 0.52281296 0.07659078 0.4920791 0.7087183 0.54007745 0.025601206 0.58316576 0.7183466 0.73788834 0.6410539 0.5292644 0.18344629 0.16922104 0.68037105 0.63559604 0.5856635 0.42161828 0.15828048 0.103264764 0.010994766 0.20959437 0.11110082 0.43497005 0.33919978 0.3482925 0.22520787 0.17154936 0.13172887 0.09061818 -0.0003255438 0.4004408 -0.10782488 0.4681024 0.325924 0.3646044 0.39591897 0.109182306 0.38669395 0.15370381 0.13042898 0.360775 0.117573395 -0.308572 0.29179507 0.27627084 0.33749038 0.3342504 0.35009098 0.41432506 0.07357931 0.40685683 0.4198684 0.45744926 0.4734229 0.4428835 0.1820116 0.32272348 -0.0039220937 0.01185463 -0.06545247 0.4322164 0.38394207 0.5117322 0.46535715 0.4688093 0.47506177 0.4958369 0.4357557 -0.045495044 0.35676926 0.42895365 0.48568565 0.47054297 0.47794914 0.48490995 0.36326236 0.27164236 0.3323611 0.26295257 0.21204746 0.39005554 0.40546504 0.059069753 -0.046006832 0.14429404 0.35381305 0.20120414 0.03287804 -0.21785969 0.12053554 0.12022826 -0.18259366 0.183576 0.045723736 -0.024223141 -0.09551136 0.5257928 0.13411349 0.18106414 0.02095791 -0.05501723 0.101595804 0.1947714 0.28352052 0.42168182 0.42284268 0.2203508 0.15248966 0.12193205 0.21840069 0.35759196 0.38695168 0.37066066 0.17264149 0.10064693 0.30393118 0.35341275 0.39349148 0.4887548 0.16643089 0.07803923 0.35197407 0.35897845 0.3167987 0.2793291 0.33871275 0.39916247 0.4926749 0.57706743 0.27554065 0.35181332 0.31374863 0.30368492 0.29884267 0.27815506 0.23508789 0.2601654 -0.13132024 0.056893684 0.26307127 0.23940443 0.18184182 0.27459702 0.43774045 0.42670864 0.2718718 0.51925445 0.5195236 0.47039887 0.59202564 0.51518005 0.5845134 0.48913783 0.48393297 0.4584363 0.4782837 0.4703489 0.428691 0.37726206 0.4406441 0.4321627 0.40749568 0.32663834 0.40588772 0.411394 0.37086967 0.4084484 0.4123694 0.33465886 0.44518197 0.40743643 0.35026258 0.4490888 0.4170504 0.20926389 0.19512886 0.5091164 0.31168908 0.25682202 0.51170063 0.34322745 0.29931396 0.35664397 0.48931634 0.43891078 0.35679626 0.5786468 0.29023105 0.15631844 0.55543655 0.5486131 0.5643362 0.34572995 0.10228687 0.42154127 0.11048043 0.36884 0.42576686 0.42910928 0.52691364 0.12853973 0.16192652 0.41911745 0.4017409 -0.03664151 0.27921063 0.2956872 0.07708305 0.43764868 0.24286164 0.16043472 0.5278907 0.6573941 0.65586656 0.52940744 0.25338086 0.22328608 -0.05885677 0.69605756 0.64358497 0.18290338 -0.09751123 0.6509445 0.6096413 0.31234974 0.23621339 0.0338341 0.47424844 0.5364091 0.5968784 0.52395064 0.062987104 0.09022963 0.06735782 -0.10456739 0.1877727 0.30293903 0.17765817 0.09438346 0.37313262 0.38983178 0.35349685 0.14341651 0.20991135 0.32703775 0.269288 0.2115769 0.29506874 0.3255226 0.43595546 0.35449505 0.4516264 0.32037926 0.38194942 0.41869467 0.4139322 0.45581347 0.49384856 0.46105015 0.41757736 0.35690707 0.4378124 0.4648956 0.4818682 0.49905849 0.49719864 0.4712815 0.5591812 -0.040349234 0.42535692 0.3706842 0.4970705 0.5029129 0.49436146 0.56424874 0.5105753 -0.03502516 0.17358649 0.296192 0.56531477 0.5578889 0.506698 -0.23600663 -0.13826573 0.0995897 0.047812223 0.20510869 0.10257448 -0.23509817 -0.17233433 -0.1350525 0.07211038 0.0915827 0.12435362 0.26911718 0.44560814 0.5411303 0.61018676 0.36657703 0.19025666 0.62649035 0.6716826 0.36628443 0.5292875 0.6614613 0.6947433 0.28529936 0.21643934 0.18304402 0.24204934 0.3852821 0.4881778 0.64652646 0.27338815 0.17733963 0.12619433 0.19274975 0.18767068 0.14703614 0.19918206 0.15734747 0.16012195 0.2438092 0.35390225 0.24692164 0.25197875 0.466187 0.4899519 0.2660101 0.42507458 0.53483075 0.50256324 0.6786721 0.6690538 0.6258893 0.57188344 0.7079989 0.475299 0.4912024 0.48205808 0.44888413 0.33013654 0.37876594 0.4582373 0.3485913 0.23470393 0.18151847 0.36397082 0.36653876 0.23787579 0.42903566 0.41539258 0.19994038 0.16905415 0.44081864 0.43957376 0.35592407 0.4166235 0.47872573 0.47805527 0.10393685 0.38517383 0.42335606 0.4340858 0.6693336 0.66649306 0.517111 0.43543333 0.3610646 0.39653587 0.65841085 0.5798909 0.5290508 0.04950603 0.58480823 0.6402571 0.13846068 0.10492402 0.13124882 0.3182575 0.4490919 0.58381504 0.47493887 0.0375408 0.38133425 0.17364728 0.044511892 0.07811839 0.095046915 0.12548077 0.21394736 0.31072986 0.50240487 0.29784703 0.047402304 0.4317163 0.46826988 0.4439959 0.29651114 0.2668548 0.20864731 0.11498982 0.14154503 0.19325975 0.4268755 0.13406438 0.16896217 0.25927672 0.25976443 0.58053946 0.029588554 0.6953485 0.7466524 0.46539116 0.10864794 -0.08465906 0.77163327 0.55199873 0.10023507 -0.09713414 0.70363045 0.6810503 0.4840663 0.07697065 -0.006892614 -0.12592669 0.16127405 0.54181767 0.3420084 0.26069084 -0.025065957 0.08312657 0.3492813 0.22437699 0.20150782 0.18196693 0.1844173 0.22152457 0.14806849 0.18298864 0.18463567 0.15478593 0.2158402 0.172646 0.2360678 0.24783343 0.44321856 0.41456956 0.26854923 0.31667125 0.398889 0.44058657 0.41642758 0.3522392 0.29640716 0.4767521 0.43529782 0.5444904 0.55184 0.43052185 0.24671103 0.2387116 0.48795775 0.49470502 0.48385406 0.46346742 0.57151717 0.5706449 0.19624367 0.11509563 -0.25619584 0.22476962 0.47940814 0.48614585 0.47486058 0.57173115 0.56317717 0.08939658 0.5107406 0.26676714 0.121447265 0.09277982 0.3913899 0.5175487 0.2748348 0.62067664 0.5803021 0.44035774 0.39809275 0.6643378 0.62026304 0.46190014 0.6826148 -0.30830628 0.28486246 0.52101547 0.64056957 0.6780622 -0.41646957 -0.12982303 0.17506519 0.12954122 0.12676206 0.25764942 0.24173734 0.20802626 0.348301 0.44046932 0.31923318 0.18766853 0.18981044 0.44182125 0.26769397 0.4270324 0.22809985 0.5148539 0.30536315 0.4797842 0.5547223 0.53877515 0.6345234 0.70187175 0.65974396 0.5966096 0.7238278 0.7256872 0.70694256 0.37077796 0.47649887 0.5041989 0.50350326 0.35789496 0.3308527 0.3539979 0.123014435 0.3820246 0.34860975 0.1426824 0.40984833 0.18785809 0.37965095 0.4079181 0.44948244 0.38236833 0.42573434 0.43545812 0.6671252 0.4426239 0.73906386 0.45090055 0.75778353 0.71088564 0.19657353 0.6153587 0.68085325 0.72987723 0.7283972 0.63091505 -0.043511216 0.44334564 0.59608686 0.69968367 0.74578166 0.23531124 0.6049748 0.7114235 0.12737054 0.115760475 0.121246785 0.4204917 0.45934534 0.024557017 0.13446374 0.15291762 0.27159524 0.3395817 0.027545206 0.19483194 0.5247438 0.25153857 0.19477671 0.2912589 0.3993985 0.2335089 0.2293072 0.10167478 0.48899016 0.325254 0.24873711 0.35701078 0.43983483 0.6024357 0.66883445 0.3318891 0.3596586 0.031071067 0.12276207 0.122197814 0.28512025 0.52139854 0.61859053 0.69983983 0.7570354 0.43484992 0.35197866 0.07574404 0.027116943 -0.14067458 -0.0506877 0.7986554 -0.15502903 0.1118355 0.088131696 0.7269175 0.30705467 0.18179336 0.10638754 0.5851935 0.24326207 0.2414366 0.015705794 0.41542256 0.17672896 0.03920484 0.05104071 0.21972731 0.1633209 0.12987372 0.06949712 0.12284492 0.085279405 -0.23467414 0.11291186 0.22736344 0.06649512 0.07173556 0.15451905 0.27042437 0.16810691 0.39184806 0.37732717 0.21768808 0.41424346 0.5368187 0.50284207 0.038964577 0.38166416 0.45330292 0.44358838 0.54556227 0.036829907 0.438734 0.44103193 0.443354 0.5702897 0.025856595 0.020833556 0.51858747 0.13554363 0.18936095 0.46279162 0.49829274 0.39558238 0.5411159 0.4655937 0.45632985 0.5690905 0.5739314 0.47440034 0.47310537 0.6033635 0.5879972 0.47264957 0.45990813 0.4415785 0.56430626 0.5924541 0.42180315 0.3091362 -0.2123524 0.04871224 0.14787738 0.13038118 0.18061319 0.26707548 0.12466599 0.23871437 0.48430943 0.433248 0.29676867 0.29527098 0.2710394 0.23096782 0.4043553 0.47514942 0.55995536 0.56128097 0.24696967 0.29745013 0.5219276 0.52484673 0.5931503 0.46471778 0.5896757 0.66532505 0.7164975 0.739071 0.7064311 0.62697566 0.72804344 0.73820806 0.7242181 0.39435488 0.3787409 0.3862264 0.47469693 0.44116884 0.15068665 0.22995225 0.34195635 0.10254888 0.073369056 0.41286272 0.56538993 0.43781722 0.68181777 0.4122096 0.7495302 0.72333276 0.3102927 0.723394 0.7091998 0.6547473 0.8100421 0.63987345 0.75563145 0.7735921 0.7183696 0.7036593 0.67552894 0.59725046 0.52358484 0.35858223 0.813218 0.75596815 0.66705483 0.5109422 0.2381083 0.78586274 0.5820595 0.597301 0.33232933 0.27976003 0.23381403 0.62638986 0.042946845 0.72941244 0.31362396 -0.0007005334 0.53476167 0.48177353 0.41228873 0.12676205 0.18220262 0.18091728 0.17384349 0.67763776 0.18878604 0.14824143 0.41145158 0.29905063 0.21028128 0.5865103 -0.079131916 0.30419216 0.15340513 0.3056536 0.4102969 0.47752658 0.61717576 0.6826908 0.62678385 0.58077174 0.5140589 0.47430685 0.071461186 0.1253034 0.2582322 0.33175302 0.46535152 0.56584704 0.6124996 0.71401834 0.7739215 0.25268936 0.21174958 -0.21773952 0.09176403 0.3517639 0.5568408 0.63535595 0.7225312 0.19415313 0.15190186 0.33551636 0.4174387 0.623507 0.16920951 0.20135935 0.19585727 0.22808155 0.2805205 0.19945662 -0.03979308 0.026441403 0.12791887 0.15081726 -0.20224047 -0.085654415 0.06183842 0.07718372 -0.21013363 0.09890403 0.1423053 0.23289557 -0.07405712 -0.2145851 0.30172074 -0.053107176 0.24491549 0.38891566 0.42374268 0.092047185 0.33282214 0.48730457 0.11985628 0.3871491 0.25457397 0.490282 0.48295945 0.44611442 0.3542511 0.3134048 0.4786216 0.43685326 0.42320687 0.4965311 0.4703586 0.44467652 0.38079 0.45553103 0.4521048 0.44734663 0.42001414 0.4667237 0.38179365 0.12214982 0.49308807 0.17196149 0.18531364 0.12274931 0.1458579 0.25284374 0.276004 0.21952832 0.19213898 0.58410823 0.5254219 0.23502442 0.50132704 0.20743963 0.41694832 0.5818927 0.6163306 0.6075361 0.5347873 0.47032422 0.6864662 0.5605111 0.6962466 0.7331841 0.7146448 0.7413588 0.57364756 0.43139777 0.40379483 0.50212646 0.48840126 0.45066774 0.44292116 0.24962243 0.38468325 0.43557888 0.3184574 0.16611597 0.3773244 0.36141342 0.5733211 0.38059962 0.67496717 0.26784998 0.72091925 0.700415 0.7108871 0.7095525 0.40256864 0.5711651 0.79489785 0.71151996 0.67302346 0.63865006 0.78967035 0.672837 0.8024402 0.43176508 0.35980007 0.7972295 0.7400426 0.77169824 0.68251824 0.32850102 0.25900218 0.65756327 0.76758873 0.23096071 0.17705332 0.16974168 0.57711524 0.20219912 -0.016632095 0.4831131 0.80139613 0.21044703 0.48804018 0.8031831 0.12337339 0.1448449 0.63416123 0.6254126 -0.051410154 0.66939783 0.61961484 0.54370624 0.082606375 -0.1605419 -0.0021396875 0.60853666 0.55293965 0.5262201 0.16487703 0.3431378 0.44571024 0.5810807 0.11798966 0.41773567 0.35782793 0.35100514 0.43721652 0.15158854 0.032303363 0.13985792 -0.07688754 -0.0104576945 0.12512687 -0.0094623715 -0.043871567 -0.012483291 0.030497879 0.75995696 0.21206558 -0.26094663 0.74331534 0.8672547 0.24687387 0.012018237 -0.32522267 0.030966155 0.7410679 0.80288637 0.88055634 0.39458916 0.14153999 0.40614253 0.5548459 0.68699515 0.3687806 0.04618154 0.47109103 0.35122907 -0.06634991 0.1742149 0.0067230053 0.045272265 0.28601605 0.35463008 0.18152477 0.3839077 0.09426605 0.05782941 0.1347023 0.37911576 0.18436351 0.46112278 0.11321554 0.0731451 0.14468661 0.17554379 0.5152484 0.42109448 0.1544809 0.28494903 0.231063 0.46643764 0.5841309 0.6110786 0.5813536 0.653034 0.6783594 0.66571593 0.6406802 0.4760536 0.48521268 0.5862199 0.5128312 0.5049587 0.5070396 0.55202585 0.5433221 0.29460484 0.52117956 0.6216172 0.6135745 0.23777893 0.77293956 0.74184227 0.70667046 0.70368946 0.043415427 0.48437533 0.8488753 0.6738511 0.58926296 0.74617827 0.6971519 0.5664116 0.5503381 0.9075527 0.3928106 0.3508042 0.7314612 0.6228045 0.6422976 0.8288349 0.30690718 0.24228665 0.71392787 0.54566157 0.20240039 0.5533458 0.16602704 0.16182287 0.52762973 0.0966461 0.16861533 0.5720154 0.38157666 0.43913102 0.6611401 0.6702712 -0.06399052 -0.09289998 0.6834689 0.6373788 0.5058719 0.49319 0.19812775 0.057902873 0.0063070655 0.1385262 -0.100062326 0.6109491 0.5538453 0.14580971 0.3151737 0.33229646 0.13673937 0.33323422 0.114518054 0.098893955 0.08056143 0.035297304 -0.034741033 0.041162897 0.050214536 0.44080126 0.6704923 0.10064057 0.8278185 0.8467673 0.18845008 0.1652972 0.95211077 0.22672048 0.8333489 0.91450834 0.21871765 0.03633435 -0.15052822 -0.10949327 -0.009275578 0.7139379 0.79951775 0.88108003 0.075232804 0.025765806 0.22686547 0.3440219 0.45513862 0.5489721 0.6589768 -0.11053942 -0.11770016 0.015338846 0.13278377 0.06173385 0.28042558 0.15024394 0.18184349 0.24676083 0.09041092 -0.004101254 0.18098207 0.20119438 0.058548808 0.09024127 0.038931817 0.32106578 0.3036528 0.09554208 0.04035756 0.0029178709 0.43115324 0.10252416 0.3260583 0.30205896 0.27783918 0.21491903 0.51388085 0.6941308 0.7190813 0.6959454 0.67134345 0.63596207 0.57062656 0.55669665 0.52742386 0.5309168 0.5937067 0.38589415 0.14654437 0.6375006 0.2439413 0.26344007 0.14973888 0.74937177 0.7150419 0.6427303 0.85823286 0.8562574 0.76932573 0.6822473 0.6298074 0.8284333 0.45064908 0.3662576 0.22271387 0.56127775 0.27391773 0.3101547 0.21585277 0.24905066 0.41209042 0.38010725 0.18283305 0.18544237 0.090763114 0.1151563 0.048670948 0.15980698 0.37341005 0.26109976 0.09692539 0.057702713 -0.007623926 0.008729801 0.065553114 0.45220542 0.084886044 0.64876306 0.24054496 0.36539444 0.35678846 0.44321692 0.21127483 0.665323 0.65709853 0.5863475 0.5871227 0.15178142 0.31624582 0.08492538 -0.05097641 -0.099354364 -0.39114195 0.27876627 0.1835623 -0.25685322 -0.28053588 -0.36824983 0.30803332 0.29109845 0.10137485 0.24078965 0.092059515 0.07448651 -0.10385458 0.062423665 0.078138545 -0.080594145 -0.053251646 0.025325458 0.013180363 0.4137378 0.57553625 0.6551123 0.035134695 0.745596 0.82811826 0.07974335 0.97806215 0.1430124 0.9733522 0.17251793 0.14117831 -0.055512056 0.84072363 0.90261424 0.27374133 0.3392614 0.4782545 0.5950235 0.6856137 0.8096982 0.23589519 0.42349583 0.3556327 0.035992987 0.44698077 0.30585805 0.41250432 0.3364762 0.16347925 -0.045768186 0.22407159 -0.009721164 0.23536858 0.23529558 0.23434277 -0.10969833 -0.01057424 0.07411469 -0.08248385 0.116169706 0.11181768 0.062468313 -0.09572699 -0.06559208 0.11296458 0.12934372 0.13899636 0.1428228 0.22614604 0.31932157 0.33068562 0.32321024 0.25