# vtk DataFile Version 2.0
Really cool data
ASCII
DATASET POLYDATA
POINTS 4509 float
-85.6674 85.93107 22.833975
-85.65518 86.03176 23.292282
-85.65318 86.873436 22.096111
-85.81096 86.5928 22.650534
-85.90381 86.81644 23.40342
-85.72878 87.428406 22.155558
-85.89234 87.37923 22.668808
-85.94178 87.46479 23.38756
-85.71892 87.30914 23.995668
-85.587524 88.16314 22.3189
-85.9205 87.872925 23.105946
-85.01618 85.295685 22.68783
-84.99293 85.320786 23.281614
-85.07944 85.78246 21.931347
-85.40513 85.881996 22.38378
-85.30824 85.621445 23.324308
-85.06905 85.89099 23.994003
-84.94869 86.762436 20.984213
-85.50765 86.625626 21.80289
-85.57693 86.2368 23.718248
-85.28803 86.541504 24.223476
-85.06282 86.998184 24.640991
-85.03908 87.42851 20.855074
-85.36334 87.31766 21.599813
-85.310326 87.428406 24.417652
-85.10811 87.488045 24.593084
-84.668915 88.551155 20.6348
-85.331894 88.03541 21.560783
-85.528885 88.28677 22.446602
-85.12627 88.28695 24.225801
-84.8877 89.29106 21.709625
-85.15534 89.0916 23.241953
-84.71545 89.5795 24.180967
-84.88631 90.26638 23.420265
-84.7442 91.488174 21.124731
-85.12241 91.668236 22.012506
-84.96973 91.51105 22.603134
-84.76709 92.34957 20.970211
-85.14004 92.479294 22.554796
-84.82127 92.84526 23.912596
-84.73934 93.10926 21.16992
-84.88039 93.44232 21.483105
-85.35962 93.989 23.080372
-85.11981 93.27481 23.776312
-84.6716 93.56856 24.737803
-84.771225 94.30362 21.68318
-85.22113 94.42367 22.736504
-85.313354 94.562675 23.523905
-85.30977 94.17512 24.114672
-84.7476 94.85281 25.422483
-84.67501 95.58942 23.148373
-85.024445 95.17209 23.698547
-85.166214 95.59639 24.847218
-85.14436 95.609024 25.22231
-84.736084 95.88971 26.028849
-84.63761 95.86073 23.073584
-84.921425 96.34688 24.802063
-84.915085 96.298515 25.520834
-84.83973 96.06856 25.911127
-84.684494 96.762215 25.42859
-84.17318 85.271935 21.991842
-84.47951 85.11442 22.709019
-84.41359 85.24693 23.402609
-84.1945 85.367355 23.7876
-84.26139 86.121056 20.76929
-84.36103 85.65449 21.428083
-84.486244 85.76779 24.20757
-84.44911 86.633675 20.59299
-84.52143 86.5198 24.732609
-84.37054 87.655655 20.251905
-84.536804 87.35523 20.431849
-84.54703 87.37574 24.763762
-84.250626 88.131966 20.247393
-84.603806 88.474625 24.495928
-84.20875 87.933975 24.720263
-83.90858 89.032715 20.219938
-84.04227 89.57956 20.72653
-84.13648 89.54999 24.582521
-84.14411 90.650894 20.62848
-84.26846 90.53306 24.252594
-84.37208 91.01559 23.797688
-84.17008 92.2597 20.288197
-84.46548 92.54844 20.513641
-84.04416 92.51223 24.623867
-83.86367 93.03311 20.205088
-84.24134 93.53367 20.68391
-84.395134 93.93525 25.232515
-83.93944 93.99969 25.76394
-84.090385 94.5281 20.880917
-84.57306 94.70389 25.834051
-84.07301 94.85984 21.112593
-84.29226 94.95618 21.465038
-84.3541 95.61606 26.302338
-83.91832 96.10302 22.251625
-83.99883 96.52259 22.648022
-84.47048 96.56075 23.941366
-84.19758 96.40687 26.281412
-83.90932 96.77163 22.92592
-84.20696 96.994514 23.984451
-84.25877 97.097664 24.61294
-84.254944 97.09804 25.43356
-84.08302 96.92753 26.077873
-83.149185 85.3012 20.954813
-83.227905 85.22441 22.34084
-83.88121 85.183365 23.078762
-82.902916 85.82308 20.239803
-83.40842 85.82357 20.486368
-83.43461 85.692276 24.155209
-83.87551 86.21556 24.64252
-83.54115 86.31214 20.211796
-83.84804 86.68473 24.869566
-83.479385 87.68243 24.94815
-83.89864 88.20006 24.59207
-83.11282 89.66063 19.882866
-83.09692 89.79924 24.849197
-83.63864 91.919235 24.624577
-83.50174 92.57941 20.09941
-83.70842 93.11791 25.22695
-83.378815 93.595276 20.254889
-83.06627 94.17752 26.035124
-83.260254 94.191826 20.365093
-83.459206 94.442406 20.579674
-83.6693 94.72247 26.322638
-83.45066 95.07588 21.011707
-83.69068 95.43068 21.50657
-83.37652 95.60869 26.683226
-83.428604 96.307335 22.188034
-83.586555 96.56354 22.378769
-83.56538 96.685265 26.436659
-83.26447 96.219376 26.662287
-83.38085 96.97172 22.804245
-83.44093 97.31446 23.706627
-83.51088 97.44093 24.611198
-83.40425 97.46839 25.609034
-83.33838 97.15155 26.121235
-83.370735 97.55643 24.78009
-83.32952 97.54788 25.306797
-82.51099 85.32393 20.652351
-82.8309 85.071434 21.475784
-82.63139 85.19708 22.36378
-83.04808 85.388176 23.33649
-82.56351 85.81556 20.16864
-82.415115 85.47401 20.490986
-82.03947 86.62806 25.115591
-81.92206 87.34407 19.288898
-82.33425 87.33599 25.33402
-82.293564 88.373604 19.395323
-82.061775 88.023476 25.527235
-81.817184 88.18477 26.01473
-82.14204 89.27138 19.514406
-82.29547 90.601456 19.866203
-82.103485 91.503876 19.88175
-82.10249 91.59887 25.267242
-82.94187 93.8531 20.232693
-82.76664 93.688705 25.579485
-82.54968 94.30029 20.587816
-82.90865 94.739815 26.49882
-82.82167 95.088554 26.619892
-82.73325 94.88964 20.913721
-82.624405 95.6325 21.518414
-82.76042 95.516884 26.669037
-82.69442 96.23457 22.107328
-82.45317 96.65655 22.511282
-82.70275 96.54819 26.454756
-82.75402 96.91078 22.755789
-82.83291 97.27592 23.53946
-82.63528 97.41419 24.609821
-82.633415 97.40601 25.534058
-82.86595 97.2511 26.00201
-83.00811 97.53368 24.381245
-82.92875 97.537865 25.341433
-81.83834 85.3021 20.981735
-81.31346 85.75974 20.280272
-81.50911 85.49487 22.612055
-81.69094 85.596344 22.981705
-81.13357 86.26755 25.341473
-81.84642 86.246765 19.723562
-81.31316 86.63233 25.598406
-81.11893 86.72965 25.953957
-81.15853 87.587006 18.943697
-81.27965 87.53925 26.314896
-81.22744 88.40667 26.380655
-80.91135 89.25385 26.422993
-81.5694 90.653 19.774225
-81.63006 90.69614 25.657228
-81.27672 91.01299 25.676228
-81.70684 92.25586 20.190166
-81.82636 92.60721 25.273214
-82.06613 93.22326 20.324787
-81.70519 93.32149 20.536846
-81.86671 94.374 20.88895
-81.488 94.52725 21.348707
-81.84223 94.4488 25.612469
-81.808945 95.16106 21.683964
-81.38936 95.02201 22.265244
-81.7394 95.18481 25.91546
-82.11051 96.025696 22.194918
-81.91535 96.35181 22.672655
-81.51076 96.54565 23.836252
-81.61415 96.60959 24.348799
-81.574234 96.24351 25.097591
-82.05528 96.70133 22.952477
-81.98861 97.020096 23.639013
-82.15013 97.201996 24.737389
-82.19126 97.06213 25.490374
-79.826675 85.136086 20.122145
-80.42094 85.60519 21.222467
-80.599174 85.857925 21.85473
-80.057335 85.80405 24.621376
-80.30925 85.89969 25.257627
-80.19712 86.10886 25.706223
-79.69675 86.95139 14.914249
-79.96842 87.111824 15.32124
-79.802704 87.14104 16.895214
-80.38332 87.04732 18.650187
-80.34479 86.78898 26.262255
-79.86989 87.46424 14.829234
-80.18148 87.96551 26.655506
-79.72382 88.695 14.165804
-80.09532 88.72484 14.812493
-80.19563 88.63489 15.3325
-79.68318 89.30502 14.1308565
-79.91711 89.64765 14.572928
-80.280014 89.462555 15.5451975
-80.29451 89.45032 16.325882
-80.56632 89.336 26.571411
-79.85182 90.10441 14.755228
-79.97833 90.27705 15.45387
-79.94526 90.20751 16.205458
-80.798615 91.755844 20.293308
-80.590744 91.433105 25.907677
-80.78622 92.36717 20.692871
-79.66737 92.90206 25.6618
-80.600586 94.0616 23.84773
-81.301544 95.41762 22.587322
-81.07003 95.672226 24.422552
-81.24253 96.13232 23.451805
-81.376 96.390205 23.996801
-78.64906 85.08301 14.465755
-79.07383 85.154045 18.965036
-79.30166 85.007095 19.84566
-79.37202 85.04341 20.425001
-79.57173 85.229675 21.124
-78.76438 85.69615 13.807926
-79.13682 85.916336 14.57465
-78.84032 85.559944 16.278845
-79.24083 85.45492 18.791153
-79.809235 86.14847 22.88825
-79.91539 86.02185 23.872913
-79.57141 85.89287 24.32387
-79.525986 86.10473 25.413956
-79.93731 86.20189 25.7902
-78.89902 86.39527 13.630334
-79.4615 86.59184 14.423983
-79.60679 86.41009 15.944888
-79.557686 86.81302 26.163574
-79.22872 87.67513 13.742188
-79.470215 87.90938 26.628748
-78.71522 88.44918 13.186014
-78.91931 88.46868 13.41183
-79.64657 88.8592 26.599655
-79.09627 89.51425 13.75605
-79.377525 89.50431 26.639961
-79.244194 90.10132 14.068385
-79.42266 90.47942 14.623356
-79.33176 90.530846 16.382019
-79.25969 90.15998 16.765198
-79.40544 90.28742 19.02164
-79.59188 90.24056 19.232824
-79.106476 90.69386 14.651221
-79.445465 90.730576 15.443132
-79.36778 90.583824 16.329868
-79.34823 90.59382 19.271128
-79.517105 90.77987 20.331882
-79.16949 91.66225 27.10138
-78.8177 92.49368 27.159946
-79.74108 93.044685 22.865646
-79.229965 93.31582 26.709295
-78.92636 93.24744 27.087
-79.20614 93.989655 25.53845
-79.02127 94.36914 26.300545
-78.89779 94.766396 25.54577
-77.80774 84.29637 14.66735
-77.98546 84.3475 15.270801
-77.89746 84.985794 13.16416
-78.18039 84.78231 13.88641
-78.37308 84.77711 14.577842
-78.45152 84.87036 15.513446
-77.92148 84.82178 17.590378
-78.432655 84.959785 19.025269
-78.58048 84.79728 19.551264
-78.37952 84.69736 20.345547
-78.44811 85.13655 21.194855
-78.14509 85.51839 13.060366
-78.512375 85.40041 13.526892
-78.29556 86.07752 23.659012
-78.698814 86.12785 24.552488
-78.44499 86.40574 13.079809
-78.71474 87.16425 26.059933
-78.146286 87.333755 12.691192
-78.715546 87.70765 26.385523
-78.04017 88.23188 12.755114
-78.871956 88.64259 26.653126
-78.20508 89.364525 13.311946
-78.66675 89.460045 13.531199
-78.43829 90.33421 13.910272
-78.12284 90.17915 17.677505
-78.33722 90.64997 14.225187
-78.59869 90.80717 14.504024
-78.64831 90.904 15.287564
-78.51995 90.67977 16.041721
-78.645996 90.65803 20.617771
-78.30777 91.45175 21.752335
-78.05524 91.4774 27.700548
-78.11484 92.7132 27.55471
-78.37692 92.76017 27.647465
-78.71476 92.75111 23.026945
-77.78342 93.90219 27.876345
-77.656845 93.95983 32.719643
-77.70462 93.95867 33.19564
-77.92051 94.38062 27.8808
-77.86568 94.53764 32.743492
-77.76543 94.39086 33.356873
-77.64085 94.606705 33.889805
-78.60392 95.08014 24.890694
-77.82395 95.36948 32.577713
-77.76665 95.251816 33.45386
-77.6545 95.239815 33.787216
-77.66864 96.1895 25.410166
-77.720215 95.851265 25.984291
-77.60586 95.97344 32.630875
-77.25669 84.07612 13.72647
-77.15535 83.90094 14.24553
-77.44744 83.99632 15.533552
-76.94519 84.21716 17.410786
-77.16138 84.35636 18.36553
-77.37888 84.24783 19.529493
-77.00602 84.94277 12.455288
-77.428825 84.45885 13.248683
-77.38277 84.46151 17.3838
-77.46461 84.593124 20.418945
[...]
POINT_DATA 4509
SCALARS features_00 float 1
LOOKUP_TABLE default
0.78270894 0.8021325 0.6475874 0.7307985 0.7908248 0.61090213 0.671922 0.7543038 0.75824803 0.5697304 0.6863757 0.76435524 0.77320516 0.7150424 0.75324106 0.7941462 0.773772 0.56458515 0.6382589 0.8053932 0.75457597 0.63415474 0.5116464 0.56189334 0.6380589 0.57685864 0.39879665 0.50188637 0.5755673 0.51820606 0.39481044 0.54363215 0.32533485 0.2608729 0.44058692 0.41170067 0.31863979 0.46805775 0.43446335 0.3749877 0.486237 0.4934458 0.5194622 0.47000742 0.43639672 0.5118275 0.5345951 0.5698992 0.5604663 0.6767523 0.5952671 0.6204021 0.7297069 0.7567849 0.835459 0.60132873 0.7928287 0.83661044 0.8408094 0.85058314 0.66256297 0.71952957 0.7280712 0.71411395 0.5496039 0.623256 0.7285769 0.5348751 0.6160382 0.44122654 0.48843992 0.50215715 0.382646 0.39790374 0.38861984 0.27862605 0.26649484 0.2519207 0.30149654 0.16235836 0.16624564 0.45462283 0.4732601 0.24329433 0.49416092 0.5009698 0.48996472 0.52332544 0.51170826 0.6752565 0.5125989 0.5118408 0.8404341 0.55312973 0.6009326 0.72300684 0.89334834 0.6385395 0.72820854 0.7885637 0.84726846 0.88223517 0.49835962 0.5702664 0.6626508 0.4347747 0.48558563 0.5949478 0.5684783 0.4604815 0.47115338 0.2981367 0.31947094 0.2549547 0.11595394 0.065962 0.46275163 0.3232752 0.49707448 0.56278735 0.5005938 0.5078596 0.6833474 0.5068714 0.513752 0.86135244 0.5548127 0.5802973 0.90474164 0.91467106 0.63062394 0.7002515 0.74866855 0.81011325 0.85872686 0.75207484 0.78450835 0.42872536 0.49862152 0.4902767 0.54836607 0.41766816 0.42323565 0.36600348 0.2604134 0.308036 0.27421534 0.29394045 0.35387528 0.2710507 0.29405734 0.30076572 -0.0813519 0.48065862 0.4107746 0.4690556 0.6885487 0.7525069 0.48834604 0.49976608 0.8240729 0.5403588 0.5785279 0.89576864 0.6126439 0.67506933 0.70884216 0.7587486 0.81873953 0.71652263 0.7670746 0.37544465 0.33797106 0.21396293 0.23357448 0.5045355 0.37325263 0.49216777 0.50958186 0.17276812 0.48889026 0.4300524 0.34537017 0.19415547 0.019324915 -0.030950734 0.30306664 -0.015348434 0.39274415 0.36489815 0.43302226 0.4079421 0.59206927 0.4635546 0.4261244 0.7895669 0.5210999 0.55368733 0.6043344 0.63476825 0.6872499 0.5927038 0.6410732 0.687369 0.7329173 0.23278648 0.14335214 0.077597566 0.4210783 0.52033657 0.55682194 0.3756873 0.3648845 0.27237973 0.08345002 0.5699645 0.41080356 0.521199 0.52533144 0.5732298 0.584628 0.56962097 0.6496861 0.73740077 0.74685466 0.36241534 0.6928891 0.74921703 0.73123515 0.15300205 -0.030008418 0.20871578 0.25095502 0.34793997 0.4618556 0.5192637 0.5365691 0.5899811 0.37046677 0.23330015 0.2737848 0.27202064 0.19772744 0.39312747 0.37600726 0.28850672 0.19409186 0.09591428 0.2840085 0.38191718 0.5231919 0.5605935 0.4000309 0.38280517 0.33018202 0.5632566 0.43068138 0.49756104 0.39535314 0.42477804 0.43918812 0.5135788 0.33986005 0.58520174 0.6729351 0.6224196 0.5215066 0.19042674 0.14476001 0.66733384 0.7177677 0.6372812 0.18326831 0.0136099085 0.16587873 0.26290935 0.01935865 0.3156765 0.31224865 0.37658322 0.42295057 0.48963118 0.31729853 0.28385645 0.39067018 0.37042344 0.35430482 0.31436798 0.076852895 0.2311852 0.27880582 0.32671985 0.30208832 0.39255744 0.39131492 0.30901068 0.4328101 0.39656892 0.49113518 0.35355267 0.47138077 0.31268704 0.4133494 0.37616193 0.45691383 0.52360165 0.07856014 0.54663646 0.61265665 0.6434095 0.49661547 0.036705166 -0.047278747 0.22532485 0.29402 0.29549125 -0.13542913 0.34107018 0.76524985 0.8209066 0.3319519 0.8389077 0.8721719 0.9091686 0.5410929 0.8566201 0.90267324 0.91608286 0.57501215 0.52147806 0.831541 0.35177788 0.3162461 0.22171551 0.07103134 0.117352895 0.26065516 0.39713228 0.38195884 0.08835769 0.3260859 0.32639182 0.370229 0.38583687 0.28317726 0.4026698 0.33550027 0.33806205 0.4295048 0.44956794 0.28589305 0.42487168 0.40406072 0.21590264 0.2478415 0.33189964 0.24601108 0.059393544 0.41272414 0.1969966 0.20641696 0.16090655 0.14971523 0.14484829 -0.054756083 0.20211187 0.522773 0.55577916 0.62689054 0.7640223 0.3066768 0.64263624 0.6916281 0.8324913 0.88608223 0.362714 0.32813793 0.91299176 0.562208 0.38903558 0.65187883 0.7738508 0.9007719 0.91921985 0.64861643 0.6495298 0.597987 0.46320307 0.77696574 0.7893368 0.86563003 0.8952235 0.6870345 0.6533047 0.50110227 0.39770675 0.27308214 0.5162865 0.47680384 0.3991209 0.3175203 0.1435224 0.028852891 0.027512755 0.047543347 0.24808908 0.1821886 0.4398039 0.24271525 0.24687749 0.34418505 0.35061085 0.19326451 0.28616822 0.26899976 0.15088193 0.39041418 0.23883441 0.3631942 0.13444154 0.025099322 0.21290597 0.017723285 0.09075875 0.34164762 0.44936037 0.004409965 0.17456347 0.1755969 0.18291527 0.18301591 -0.031716377 0.14274773 0.08178006 0.554201 0.512637 0.2944308 -0.018328503 0.121877745 -0.03541921 0.44752783 0.5181708 0.6705792 0.7923166 0.023589225 0.8731265 0.88753855 0.87226033 0.55432343 0.1843984 0.8751465 0.8661073 0.6557634 0.44630474 0.22786494 0.31593436 0.51150507 0.64403814 0.84402573 0.869642 0.7192277 0.70081824 0.56484807 0.51109266 0.46947694 0.71297145 0.76776165 0.5868092 0.5297897 0.46949077 0.2959774 0.21686691 0.15072301 0.56145257 0.5696666 0.06333394 0.13812417 0.4889836 0.47850552 0.09703612 0.11978658 0.37216336 0.12609872 0.2804237 0.18737489 0.0926789 -0.00857798 0.21131106 0.2554816 0.18999384 0.29018962 0.043828525 0.074163474 0.3588157 0.41614163 0.17743 0.08545081 0.16747105 0.14236845 -0.08959807 -0.107321665 0.06732108 0.5393196 0.39627254 0.14037105 -0.082259245 0.024895338 -0.06405159 0.18611668 0.31282827 0.57678515 0.56015354 0.49273932 0.40153718 0.4458565 0.78557515 0.79070294 0.82499284 0.8059999 0.83139026 0.72591776 0.7905381 0.18545991 0.2989731 0.781142 0.81273234 0.77090216 0.7387186 0.69206935 0.44163734 0.51711804 0.6064508 0.52700824 0.509533 0.14577414 0.5787766 0.5448121 -0.010917868 0.08286139 0.13392568 0.18222004 0.5764219 0.19058894 0.50008553 0.012520924 -0.032065734 0.38707924 0.029459193 0.28414005 0.18636453 0.28427023 0.12401977 0.18347606 0.12930945 0.327844 0.07940799 0.06498634 0.061523605 0.41469902 0.08852834 0.03754858 0.0018802434 0.50067586 0.54202133 0.14638261 -0.13741836 0.02340779 0.17326656 0.5743962 0.5468701 0.40947354 0.34447086 0.28811467 0.25715998 -0.06268593 0.52027285 0.44411117 -0.026273482 0.73023176 0.7488712 0.74481744 0.49104965 0.36568695 0.6342329 0.7609161 0.76416403 0.42913032 0.510169 0.56531155 0.3535758 0.24848065 0.45739555 0.19888489 0.20959753 0.17250842 0.5360876 0.5413988 0.1789121 0.18919678 0.55648947 0.5239908 0.034949675 0.48001003 0.20537595 0.37262964 0.041118667 0.16106442 0.18853977 0.0005402714 0.1882456 0.18452942 0.24162325 0.20247626 0.17627378 0.23526415 0.26132467 -0.029238507 0.1552997 0.3037504 0.34848356 -0.29680637 -0.16623974 0.0697598 0.040234838 0.41924262 0.01402244 -0.06755894 -0.23094687 0.003946107 0.013020629 0.5101321 0.1756333 0.09911516 0.11440288 0.5210625 0.49884388 0.24797107 0.2780912 -0.19350256 0.13322717 0.4805013 0.15425152 0.2562913 0.2597933 -0.075118765 0.3809186 0.57481444 0.16869938 0.4829089 0.5576998 0.25827286 0.33669755 0.4011143 0.515714 0.37403065 0.372066 0.46963978 0.7077144 0.5461907 0.71271837 0.6962776 0.46590033 0.3877929 0.6130856 0.4862314 0.3488878 0.24965145 0.46360242 0.10535656 0.42327118 0.31794664 0.39669627 0.38348854 0.2642984 0.35429466 0.39956558 0.22209372 0.22121832 0.32126755 0.034050755 0.18505189 0.16415212 0.16400707 0.16450343 0.16125888 0.23477784 0.2248973 0.1582659 0.15335533 0.29985285 -0.26521972 0.034461647 0.36244404 -0.20882474 0.35131997 0.36575362 -0.24031368 0.12978859 0.27077413 0.019733533 -0.26812935 -0.27595982 0.17374972 0.3167181 0.13785641 0.18761946 0.12990806 -0.11523037 -0.23298118 -0.2724 0.25118983 0.28242472 0.40136683 0.35569087 0.20349175 -0.10331894 0.41850996 0.44518703 0.3590272 0.1987508 0.0015099533 -0.37952337 0.43276924 0.44444364 0.46211195 0.35710007 0.10277104 0.075836614 0.13699004 0.19855255 0.26261425 0.3760397 0.4173299 0.33325198 0.124491364 0.46799177 0.51212686 0.50382113 0.5591666 0.6412199 0.6333284 0.6210183 0.5173235 0.5895862 0.6448851 0.6727333 0.65730166 0.5362643 0.5807264 0.622904 0.6512414 0.6595273 0.8058332 0.779544 0.6950126 0.77663577 0.7376401 0.6251047 0.5132673 0.45028314 0.76081777 0.73454213 0.43821633 0.32499045 0.20382829 0.596745 0.19423878 0.12493475 0.028436922 0.32217294 0.43350506 -0.096188374 0.19908288 0.3141909 0.3895746 0.47537506 0.32284975 0.23820043 0.47131872 0.4299147 0.31979588 0.35526204 0.35879657 0.29444206 0.1308764 0.1364397 0.1464669 0.06173074 0.12873697 0.15633982 0.17935157 0.1634277 0.27725896 0.019531164 0.62503684 0.6129032 0.2984102 -0.20327826 0.08906502 0.12786448 0.5058954 0.57761884 0.5805762 0.19262628 -0.27134788 0.009120405 0.4834544 0.5769037 0.23105529 -0.0039016455 0.14699991 0.58526826 0.29790264 -0.28748417 0.16607918 0.33350664 0.34434134 0.14455469 -0.039559722 -0.1872231 0.35730162 0.31680202 0.30111808 -0.006562367 -0.053057596 0.030315116 0.114814 0.26367328 0.33993334 0.07143101 0.19156583 0.3381368 0.3650481 0.058569625 -0.06644992 0.27459526 0.3626619 0.41074622 0.54438025 0.44244796 0.63209736 0.62185305 0.35670447 0.44770396 0.5432851 0.5822224 0.6055846 0.6240402 0.611627 0.47542948 0.519395 0.54082745 0.83639026 0.8161123 0.7258295 0.6139213 0.81823564 0.82373273 0.54658234 0.3824402 0.8053626 0.30250955 0.7230573 0.21424551 0.15677205 0.06298026 0.6160757 0.030280806 0.08615434 0.30653578 0.39942324 0.45337152 0.29141572 0.49001878 0.49255553 -0.031159788 0.47760266 0.1365341 0.029054286 0.084206976 0.09394915 0.765887 0.7863407 0.7711544 0.14923123 0.60023695 0.7390046 0.73586214 0.72778463 0.06137503 -0.017708115 -0.039327785 -0.023910968 0.64772785 0.6541145 0.6699562 0.041791633 0.012784744 0.011884131 0.3749866 0.5842144 0.54057866 0.1295884 0.08820465 0.5638207 0.5367608 0.21346392 0.5836744 0.5529652 0.53862107 0.26141375 0.3161423 0.16814485 0.55060923 0.34516057 0.37336302 0.33554927 -0.2881418 -0.30393115 0.17762116 -0.09238939 0.22894257 -0.10652056 -0.060902115 0.07803623 0.18014766 0.47612244 0.0852496 0.49429387 0.2575739 0.54548347 0.5467496 0.34430978 0.38727224 0.39676598 0.47707766 0.55575037 0.3161396 0.33508712 0.34012917 0.90415114 0.86561143 0.7481866 0.64361334 0.8718206 0.8859513 0.52489185 0.34765786 0.81887054 0.25591046 0.17909007 0.06819153 0.10594136 0.15926394 0.30982548 0.33265147 0.41535854 0.40785033 0.46126184 0.2229824 0.40997633 0.3356598 0.26118737 0.26262572 0.12379715 0.24020988 0.039361417 0.29506502 0.24945447 0.7113869 0.78541446 0.8122521 0.7860309 -0.08105584 0.3825026 0.6039215 0.75219196 0.71963084 0.11510241 -0.12478587 -0.13304576 -0.11011468 0.09195534 0.6616004 0.6582978 -0.061056666 -0.117798686 0.5562054 0.111823395 0.5116861 0.20801312 0.5011806 0.5048549 0.27045938 0.32121497 0.2782447 0.42735273 0.34393838 0.31636256 -0.3506589 0.067391284 0.26119363 -0.13744004 -0.19244796 0.11151803 0.2979902 0.012443193 -0.00081025064 -0.035421528 0.34528422 0.29559222 -0.18518311 -0.07375621 0.034888793 0.054815363 0.07170722 0.3478672 0.33208603 -0.11860974 0.1295836 0.1352957 0.34419477 0.34457755 -0.039812893 0.26977006 0.1808299 0.39910907 0.39783758 0.37004417 0.32254606 0.3681162 0.40452564 0.3790112 0.31047428 0.2687669 0.2869891 0.3018958 0.29430008 0.8603102 0.7408487 0.85362977 0.8513394 0.6700781 0.4931717 0.80825627 0.808198 0.16957152 0.68565035 0.03046003 -0.048098344 0.12152869 0.1470342 0.20152746 0.2421551 0.34805077 0.36520684 0.33063972 0.3713436 0.40162092 0.18912624 0.32909068 0.30451354 0.17187756 0.2586032 0.113527164 0.30705595 0.7595873 0.7906036 -0.019409813 0.3218199 0.65430963 0.74644625 0.7787137 0.766556 0.29077557 0.7340173 0.72102344 -0.20333461 -0.12506786 -0.12239347 -0.15811263 0.015074037 0.62973195 0.47332746 0.08115369 0.45228457 0.2166004 0.24258709 0.22687763 0.24105626 -0.026050039 0.1913819 0.17138803 0.25915956 0.26998276 0.23781656 0.26591173 0.33508867 0.33874995 0.0673851 0.15419254 0.29206422 0.39924297 0.39820635 0.3706997 0.34265313 0.13094941 -0.052007534 0.24044836 0.3359133 0.30718243 0.3758307 0.41303024 0.4272799 0.41246778 0.35028398 0.30095398 0.21964197 -0.008396748 0.2387273 0.25180975 0.33030206 0.34622616 0.34425196 0.33859178 0.30115592 0.35001048 0.3889968 0.41920632 0.407634 0.2778256 0.1795228 0.17679237 0.18522531 0.23157486 0.30686858 0.34628868 0.34086764 0.3372924 0.34747827 0.36903596 0.1307027 0.31202978 0.32268715 0.44491524 0.43880248 0.26161072 0.4661349 0.45969188 0.43581071 0.36687225 0.27888757 0.23428807 0.24633262 0.45123196 0.3543315 0.3213653 0.23167393 0.69012284 0.7041292 0.28181905 0.1788749 0.14367864 0.17426911 0.11231199 0.1174691 0.13052443 0.13513365 0.13126577 0.5354762 0.14245276 0.109928906 0.38722116 0.40902066 0.57905626 0.45807815 0.29008996 0.4158873 -0.046737175 0.09663518 0.30520338 0.25676382 0.2997562 0.27759635 0.3182845 -0.025056962 0.31524995 0.618058 0.6908098 0.7048569 0.7088857 -0.12308901 0.26749024 0.6989106 0.64842725 -0.15389505 0.5965332 0.002915956 0.406249 -0.022028394 0.0011214018 0.33082947 0.018610701 0.22544414 0.08770095 0.24304748 0.26579958 0.251051 0.254012 0.34982115 0.29960114 0.2698527 0.40027204 0.3971433 0.3760386 0.33887765 0.40357172 0.41690576 0.40342122 0.38700432 0.3675961 0.41677564 0.42964238 0.38667163 0.3534105 0.28556323 0.15627782 0.42647788 0.43715099 0.30919388 0.2190415 0.33108717 0.30138394 0.31690794 0.3349945 0.33730227 0.270262 0.28547257 0.28398943 0.33818397 0.43398282 0.2712616 0.3256317 0.33674276 0.33382642 0.39491552 0.42252076 0.46405834 0.4642151 0.15962397 0.43964803 0.42049807 0.36789915 0.31323084 0.26084083 0.20642003 0.29905286 0.30736592 0.26752618 0.21531016 0.19237661 0.056663267 0.1801281 0.1907137 0.16719757 0.14559521 0.13741337 0.4168383 0.5358073 0.55538756 0.5231836 0.3160841 0.47304246 0.5453058 0.5535406 0.7068868 0.49249238 0.6469154 0.32046783 0.39932162 0.48044717 0.07804446 0.45469925 0.20800214 0.2959217 0.28077036 0.061861232 0.24107444 0.5908121 0.6270164 -0.13547294 -0.23932724 0.2515575 0.11020224 0.36523435 0.52736557 0.5887833 -0.4911671 -0.2649223 -0.13847959 0.04089362 0.04568374 0.21087343 0.07190281 0.15944108 0.16099814 0.20061761 -0.10615354 0.22733721 0.1458048 -0.01358337 -0.20371196 -0.24094859 0.10535835 0.19005644 0.38061237 0.4063486 -0.41618437 0.22537602 0.353297 0.39793038 0.41758358 0.35208243 0.30252296 0.39857274 0.4026424 0.39943847 0.4089511 0.40039432 0.4007228 0.42558047 0.40419364 0.3653059 0.31052965 0.43361127 0.40489247 0.25557303 0.23980889 0.27978355 0.3147292 0.14630848 0.14734082 0.43973553 0.4414327 0.42300802 0.33416304 0.32985514 0.28017277 0.28384644 0.15169396 0.16189739 0.11993129 0.36345002 0.41716582 0.43527347 0.3992427 0.09246038 0.40639228 0.41373962 0.22347835 0.41630214 0.38093385 0.36938056 0.26273322 0.18616877 0.4497961 0.47618625 0.497441 0.5195754 0.5528089 0.31513226 0.31890443 0.36768493 0.43171397 0.37882233 0.33091557 0.2639039 0.23630568 0.21045819 0.30578202 0.51202875 0.52008986 0.5444869 0.35070297 0.19582582 0.17119864 0.13040872 0.52072746 0.5596149 0.5817464 0.33339715 0.48563954 0.54914427 0.59501565 0.56044656 0.42258668 0.22145227 0.5760366 0.5724437 0.3450793 0.3917425 0.4660719 0.65861595 0.4010443 0.5345757 0.37399477 0.42340028 0.56237257 0.47986642 0.4276715 0.48912406 0.4488877 0.33627564 0.06925812 0.4826534 -0.09856201 -0.17701526 0.6299268 0.6157447 0.51834345 0.2876478 0.14086226 0.6795127 0.67839503 0.6136856 0.3620165 0.32317218 0.13603258 0.22236392 0.70288026 0.7011852 0.3930595 0.273475 0.08301027 0.028874263 -0.17786433 0.11365482 0.20832486 0.33177996 0.1592724 0.31380478 0.69077563 0.6365619 0.29811642 0.08965121 0.07792334 0.09602915 0.07435328 0.04370753 0.5290075 0.45366818 0.49873084 0.218604 0.18732491 0.22891898 0.23690757 0.09351236 -0.01682306 0.31924194 0.24188356 0.13881853 -0.042367417 -0.310468 0.41341102 0.45446542 0.49144086 0.3192201 0.0074860267 0.42018008 0.59593105 0.39206344 0.36539534 0.38516653 0.29717484 0.40200537 0.07230031 0.15564437 0.2274536 0.42067754 0.20800453 0.32236636 0.12682945 0.23003401 0.22353268 0.11733328 0.13284408 0.08066642 0.22325437 0.39650556 0.3811929 0.36870265 0.106735215 0.27629298 0.14510214 0.11725594 0.03378452 0.20456082 0.2985532 0.35988095 0.36713493 0.2341753 0.3347289 0.29473695 0.18759492 0.17780107 0.066479325 0.1999108 0.5261577 0.2615551 0.49611795 0.5600293 0.5881111 0.5886245 0.5706971 0.5896904 0.30841118 0.29793966 0.27788693 0.20945847 0.28190723 0.32598895 0.34106296 0.30060458 0.22491995 0.28668883 0.32177597 0.33914578 0.2330429 0.15790993 0.39201376 0.41791958 0.4222539 0.32159537 0.26815563 0.24165583 0.2075666 0.28270775 0.29106188 0.29157323 0.4299988 0.30739906 0.3619778 0.19348536 0.16451979 0.136465 0.2742224 0.41993594 0.52638996 0.56641555 0.25213358 0.26424444 0.5915279 0.5815253 0.5676646 0.5381137 -0.032272547 0.5514423 0.5401674 0.24050637 0.25428373 0.32362646 0.37771094 0.43513632 0.455909 -0.20826365 0.5260437 0.24350148 0.2702835 -0.15335989 -0.18576318 0.42718303 0.47097126 0.15847532 -0.14367731 0.039424986 0.610054 0.5102148 0.28678647 0.31826138 0.26287135 -0.16677256 -0.20726128 -0.0071210265 0.05576638 0.46861047 0.51805145 0.5722103 0.65389335 0.6482402 0.3233104 0.32442212 0.16690253 -0.12366207 -0.26109743 0.4604193 0.5465597 0.6626036 0.6988679 -0.26498577 0.45322084 0.70773923 0.68856084 0.6140783 0.48555896 0.1287289 0.123300165 0.22419408 0.35519665 0.5092846 0.63328487 0.59064275 0.089039564 0.26785922 0.5507324 0.559256 0.20848237 0.5763749 0.27116874 0.27844176 0.25634426 0.32921052 0.47918203 0.48175073 0.3929065 0.3455358 0.4678923 0.44561097 0.59138393 0.42034662 0.66690093 0.6403674 0.3434149 0.31919992 0.7069653 0.69039404 0.6263294 0.3174582 0.34766972 0.3144225 0.29117993 -0.05486294 -0.14364767 -0.15951928 -0.27433118 -0.07374048 0.26463607 0.64544487 0.0684301 -0.32125378 0.24957263 0.65094465 0.61183083 0.5333458 0.29177663 0.31117988 0.029205933 0.008513417 0.113337934 0.04868085 0.2832716 0.59108555 0.5493102 0.51564234 0.28854865 0.25727725 0.30189097 0.09899001 0.1432068 0.09313766 0.019330375 0.045974527 0.13964748 0.2742237 0.26773518 0.18416563 0.08779256 0.52180046 0.41414103 0.2839144 0.48118746 0.6023447 0.60670066 0.52531934 0.5613643 0.5889065 0.3441493 0.3688861 0.3902337 0.35929364 0.19124112 0.16143322 0.37491065 0.40898097 0.15972397 0.17701882 0.2669224 0.21200089 0.19635794 0.5256398 0.57936835 0.59525037 0.36313805 0.3802579 0.39125025 0.34142536 0.26559612 0.257625 0.122829154 0.35334697 0.48262212 0.53435254 0.354037 0.3525705 0.24533486 0.10746757 0.024539195 0.21314162 0.39170596 0.4888298 0.3146773 0.24682344 0.08603561 -0.043280877 0.20041864 0.17915036 0.09565443 0.05891248 0.31599256 0.27244753 0.23698476 0.13126096 0.09442636 0.10831572 0.35510588 0.3707816 0.5056777 0.224264 0.17720522 0.11924459 0.10838724 0.07260415 0.51236504 0.5316517 0.40154475 0.280224 0.13322571 0.38917345 0.023923486 0.5266811 0.5315152 0.37779987 -0.038282067 -0.30963683 0.52453464 -0.06821668 -0.12081566 0.3536434 -0.4521506 0.46359468 0.12876037 -0.22360861 -0.07736098 0.17673348 0.13697682 0.12469409 0.011475265 -0.05789022 -0.20489621 0.4829223 0.53174305 0.6300869 0.6579859 0.5975652 0.135812 -0.12518276 -0.1957572 -0.19937256 0.6474588 0.64459026 0.6591718 0.6963665 0.5318806 0.69772685 0.1125062 0.3598435 0.45508313 0.5027871 0.6193349 0.4730603 0.50601625 0.52961516 0.18841343 0.26340848 0.30056506 0.34690663 0.44796073 0.45072955 0.46947986 0.46343392 0.42242625 -0.021850556 0.44475588 0.566536 0.6344281 0.6680508 0.6885387 0.7056223 0.586542 -0.15178995 -0.1114738 -0.15531608 0.3011614 0.2979921 -0.0005329251 -0.003730217 0.2896751 0.3139338 0.30228052 0.5992932 0.08418791 0.04962591 -0.38856578 -0.40034845 0.31421864 0.31188676 0.61184955 0.6303424 0.63391197 0.5638206 0.048237555 -0.33707646 -0.15071048 -0.27665725 0.29222584 0.32374758 0.6025183 0.6713971 0.45488107 0.08541539 0.050658 -0.058788497 0.11432467 -0.17618564 -0.41107833 -0.046531096 0.038