# vtk DataFile Version 2.0
Really cool data
ASCII
DATASET POLYDATA
POINTS 4701 float
108.162285 -11.808426 110.59402
108.09642 -11.817177 111.50634
108.25412 -11.727899 112.06546
108.15315 -11.25723 109.9273
107.85532 -11.326544 110.57729
107.73461 -11.288347 111.49123
107.9723 -11.264173 112.14968
108.09267 -10.691002 109.955574
107.76873 -10.596419 110.62288
107.648315 -10.614205 111.54148
107.87927 -10.6522455 112.1377
107.99839 -10.028662 110.73579
107.91448 -9.996085 111.33307
108.01987 -10.130537 112.059715
108.4246 -5.185143 111.85085
108.4315 -5.5270076 112.0921
108.43942 -4.812513 111.78215
108.45359 -4.8879237 112.15186
108.806046 -11.902633 109.85458
108.62 -12.15338 110.51773
108.71247 -12.263779 111.2931
108.658165 -11.981103 112.14398
109.223015 -11.849766 112.89706
108.81845 -11.138901 109.353546
108.5779 -11.340316 109.609184
108.59667 -11.479147 112.57791
108.84594 -11.325332 112.82727
108.80738 -10.743461 109.39171
108.401695 -10.604442 109.67164
108.34185 -10.5121565 112.56459
108.63134 -10.628549 112.76863
108.90018 -9.9792385 109.761566
108.560394 -9.589291 111.77847
108.351395 -9.842027 112.197685
109.10889 -9.256782 112.06448
109.206116 -7.041211 111.276855
109.2454 -6.1092834 110.91931
108.75181 -6.1600156 111.72247
108.65532 -5.908671 112.45011
109.19811 -6.4114213 113.245384
108.81587 -5.297482 111.031136
108.52246 -5.340815 111.56047
108.556244 -5.553384 112.37204
108.957954 -5.782779 113.25483
109.40968 -5.1836696 114.034676
108.842735 -4.7072806 111.11706
108.613625 -4.5379267 111.56287
108.62719 -4.475558 112.339836
108.92999 -4.8761125 113.153206
109.43027 -4.313036 113.93874
108.880806 -4.0814066 111.79418
108.97658 -3.9911275 112.33853
109.01391 -4.08798 112.8252
109.83165 -12.751718 110.67041
109.92976 -12.714443 111.65077
109.905205 -12.626668 112.06517
109.969925 -11.996408 109.255035
109.672134 -12.042616 109.55881
109.47492 -12.485506 110.28418
109.4679 -12.317732 112.31885
109.84574 -12.05751 113.03861
109.637566 -11.357837 109.12166
109.76687 -11.422244 113.40587
109.93079 -11.119399 113.643005
109.48904 -10.740816 109.18059
109.622345 -10.626719 113.35829
109.742805 -9.778898 109.29607
109.428734 -9.475261 109.70875
109.78108 -9.831782 113.03158
109.974945 -8.591736 109.700714
109.564095 -8.343997 110.78357
109.97019 -8.19682 113.09485
110.22739 -7.6900415 109.98176
109.80039 -7.544459 110.59739
109.732925 -7.4112086 113.38071
110.12519 -7.4370317 113.75914
110.14371 -6.3276 110.340126
109.72387 -6.0897536 110.66594
110.10525 -6.1501484 114.57128
110.33509 -5.7377014 115.245255
109.98018 -5.4719434 110.37705
109.604904 -5.28279 110.501335
109.95424 -5.0965123 115.304276
110.15865 -4.8556237 116.36699
109.45537 -4.5636525 110.75382
109.62433 -4.387014 114.635086
109.74132 -4.3409166 115.512375
110.02391 -4.3719153 116.467384
110.27395 -4.2450666 116.9638
109.998024 -4.086874 110.96526
109.79617 -3.6868665 111.595215
109.66786 -3.405061 112.93425
109.57552 -3.9768088 114.529564
109.75134 -3.553112 115.42276
109.92281 -3.681805 116.37549
110.14558 -3.649945 116.84786
109.86385 -3.277033 112.81571
110.224655 -2.844792 113.97726
110.01363 -2.9456856 114.63956
110.09967 -2.7250054 115.55358
110.125786 -2.9671674 116.38159
110.40747 -2.1303117 115.96048
110.448105 -0.31010294 106.70024
110.45342 -0.14786297 106.99343
110.4366 0.506453 106.725624
110.468735 0.3207786 107.184975
110.63686 -12.758714 109.85979
110.68951 -13.0093355 110.55843
110.80733 -13.073616 110.99837
110.374176 -12.679467 112.0702
110.85029 -12.128003 109.0214
110.3848 -12.528831 109.628395
110.49593 -12.431081 112.61452
110.37137 -12.129359 113.14759
110.635864 -11.505502 108.806206
110.306564 -11.610979 113.563
110.59347 -11.221948 113.77712
110.80203 -10.618055 108.71011
110.92172 -9.552955 108.76311
110.927765 -8.946262 113.57738
110.680275 -8.664684 108.94829
110.9214 -7.8200655 109.09077
110.55217 -7.698561 109.43088
110.66819 -6.9804125 109.806206
111.0103 -6.256516 115.48823
111.18814 -6.0286174 115.92011
110.869835 -5.8169727 110.089516
110.58946 -5.436281 115.736916
110.68004 -5.2744427 116.44359
110.91695 -5.012652 116.95757
110.56289 -4.540441 110.67245
110.60677 -4.3752704 117.16907
110.55844 -3.6635213 117.233765
111.12767 -3.8179333 117.63969
111.254585 -1.7369393 108.24857
110.6044 -2.5981123 112.71692
110.6291 -2.8331926 117.04545
110.99035 -0.9913392 105.89637
110.7803 -1.0159906 106.40923
110.92308 -1.3288968 107.390785
110.92047 -1.1773481 108.676605
110.92886 -1.1236666 109.88558
111.26848 -1.4685591 110.0302
111.21991 -1.2605463 111.50273
111.33838 -1.2178338 112.181946
111.02438 -1.7236605 113.775154
111.036736 -1.3388937 114.48121
110.57981 -1.7361274 115.5536
110.6546 -1.8860351 116.17181
111.06905 -2.0374274 117.10002
111.097694 -0.18098393 105.307304
110.79433 -0.4031793 105.82537
110.60247 -0.650472 106.45591
110.59283 -0.20344363 107.50028
110.71646 -0.42296332 108.45832
111.14721 -0.89305633 110.55466
111.38642 -0.38858294 112.006714
110.999405 -1.2348666 114.68847
111.15838 -0.9206749 115.41803
111.06061 -1.19694 116.08014
111.200966 0.34234136 105.2102
110.75858 0.45032844 105.82461
110.568756 0.69985443 106.41648
110.58708 0.63456666 107.44665
110.7443 0.3905708 108.156624
110.97691 0.44393963 109.34228
111.24929 0.16815582 110.59656
110.99591 1.0746118 105.86239
110.778595 1.1760492 106.63289
110.76407 1.1786386 107.1983
111.035355 1.032449 108.09257
111.20078 0.9176895 109.370415
111.22346 1.6319468 106.86685
111.45443 9.867115 120.73881
111.37754 10.106552 121.03746
111.30918 10.841206 119.875755
111.352715 10.438013 120.3416
111.43713 10.540225 121.41699
111.38823 11.669258 119.11296
111.341934 11.529519 119.46247
111.32151 11.424699 120.53144
111.39412 11.303455 121.29248
111.44024 12.103837 119.47244
111.4123 12.127567 120.20126
111.43718 13.791108 112.99798
111.43678 13.7030525 113.45146
111.44949 14.169774 113.01817
111.43782 14.304222 113.34825
111.45984 -12.891141 109.80137
111.45195 -13.123319 110.36044
111.39993 -13.041535 111.48366
111.289894 -12.774717 112.21973
111.441284 -12.21691 109.06698
111.83233 -12.529144 112.658966
111.53916 -12.205778 113.05127
111.46894 -11.388821 108.66885
111.48848 -10.609345 108.630295
112.11198 -10.031563 113.99462
111.60783 -9.144593 108.64552
111.53418 -8.581204 108.67213
111.4846 -7.9129725 108.90544
112.15355 -7.4675593 114.79098
111.39004 -6.4616466 109.69823
111.640236 -6.2427464 116.088585
111.634544 -5.479982 110.001816
111.517044 -5.3005934 116.92852
111.96126 -4.3468237 117.45099
111.436455 -4.319794 117.587265
111.79693 -3.583825 110.861855
111.86692 -3.5088382 118.06782
111.498924 -1.645311 106.617805
111.975746 -1.9946651 107.69513
111.5397 -2.0348725 108.72536
111.55261 -2.2771196 110.49389
111.45991 -2.3002682 117.590004
111.86177 -2.5576293 118.15223
111.47012 -0.884167 105.33428
111.48298 -1.1381516 105.62579
111.6805 -1.6737019 117.46744
112.041985 -1.8128949 118.11082
111.68259 -0.38070542 104.94941
111.61056 -0.6030491 112.718796
111.43447 -1.1269205 113.99221
111.775635 -0.64323133 114.48486
111.67489 -1.0379959 116.40469
111.9938 -1.2481492 117.0935
111.689995 0.5114537 104.908226
111.463425 0.14624338 110.5301
111.78774 -0.08109376 112.74105
112.022 -0.086882934 113.27404
112.041046 -0.17162254 114.563896
111.7445 1.0623873 105.06465
111.420105 1.3548658 105.68986
111.68579 1.4335659 108.554886
111.81057 1.426172 109.49567
111.928925 1.0139189 110.46712
111.874855 0.6793102 110.86416
111.767784 1.7180929 105.9768
111.58196 1.7602856 106.525276
111.68531 1.7859088 107.27947
112.04834 9.244095 120.02381
112.04625 9.187839 120.81223
112.17748 9.279527 121.48852
112.07457 10.011939 118.55797
111.854935 9.84843 119.68356
111.70178 9.584614 120.77813
111.79314 9.685012 121.36144
112.13439 9.870935 122.06879
112.1156 10.77532 118.19671
111.873245 10.414309 118.77614
111.548134 10.4840355 119.53909
111.50941 10.613522 121.47031
111.90273 10.61047 122.19731
112.253784 11.362805 117.778465
111.59104 11.398499 118.82736
111.62249 11.559865 121.531685
111.99179 11.411386 122.26191
111.98753 12.76477 112.84831
111.73866 12.842425 113.53609
111.870964 12.912274 114.19555
111.633385 12.230783 118.98741
111.52847 12.387538 119.64253
111.57175 12.368244 120.13241
111.770386 11.974272 121.345505
112.05203 11.96428 122.043785
112.07521 13.6196 112.27189
111.695946 13.591401 112.69736
111.52038 13.303891 113.54271
111.71317 13.428466 114.17733
111.98245 12.906687 119.57069
112.10038 12.971953 120.02357
111.94574 14.314577 112.285324
111.6483 14.458835 112.71756
111.53365 14.619638 113.39087
111.80575 14.540228 114.18818
112.176216 14.894188 112.29247
111.91007 15.076702 112.82955
111.87008 15.149087 113.39993
111.886345 14.875772 113.96929
112.23433 -12.752497 109.85044
112.30335 -12.98277 110.45786
112.2794 -12.067336 109.19339
112.34873 -12.458023 109.54168
112.77513 -12.468402 112.48355
112.68908 -12.07081 113.470825
112.30926 -11.463435 108.89806
112.816185 -11.588384 114.060326
112.60746 -10.523183 108.738205
112.928024 -10.778085 114.51165
112.50509 -9.672852 108.77649
112.82394 -9.84293 114.79317
112.166504 -8.43695 108.78443
112.456474 -8.252817 114.62265
112.91105 -8.478699 115.31465
113.14121 -7.7155232 115.67494
112.76141 -6.5185986 109.60183
112.83442 -6.0719185 116.45445
112.5969 -5.45536 117.06719
112.04156 -4.546567 117.46478
112.63315 -4.020312 117.81323
112.91029 -2.7894602 108.85887
112.87347 -2.6042438 109.22073
112.773186 -3.281603 118.48448
112.98436 -3.0160422 118.64083
112.68252 -1.6604964 105.97461
112.29181 -1.8534689 106.34566
112.84597 -2.3342245 107.45713
112.49215 -2.4612975 108.92345
112.417885 -2.2502935 118.55497
112.609 -2.6195865 118.653076
113.31584 -1.1717492 102.923584
112.97131 -1.2795504 105.323524
112.96782 -1.8252403 118.64849
113.11596 -0.44811168 103.04307
112.7839 -0.08460578 103.58775
112.55261 -0.7259542 116.38591
112.73812 -1.2778478 118.27375
113.10567 0.33174223 102.932625
112.96372 0.051684372 103.378426
112.361946 0.552899 112.50082
112.466095 0.4610303 113.0323
[...]
POINT_DATA 4701
SCALARS features_00 float 1
LOOKUP_TABLE default
0.85264355 0.8463651 0.75455433 0.76657355 0.89872986 0.90998954 0.7950282 0.75604117 0.91073763 0.89594483 0.8052447 0.85127413 0.8530693 0.7831053 0.6115361 0.5876053 0.6146623 0.5826911 0.6977731 0.7731547 0.75048506 0.67773056 0.5751781 0.65047824 0.69648886 0.67207044 0.62927574 0.6233232 0.6755821 0.7087445 0.65591794 0.54696864 0.70907515 0.7180097 0.563408 0.37032318 0.48489055 0.5989243 0.53310406 0.3256178 0.614287 0.6250486 0.55054086 0.39924046 0.34096396 0.64435345 0.6321721 0.56136906 0.45683134 0.36559257 0.61622274 0.54617697 0.4855461 0.62725633 0.55393887 0.52589446 0.61072123 0.63276047 0.65676504 0.5621717 0.514371 0.5988457 0.5232458 0.4864372 0.5587643 0.49062058 0.42301288 0.39543623 0.39563185 0.25531203 0.21669525 0.01400499 0.19020711 0.17705923 0.11427671 0.054776475 0.23684146 0.35819304 0.23128748 0.33203584 0.35415527 0.46200386 0.4018256 0.48461974 0.59463185 0.37618148 0.45432377 0.51832896 0.5391016 0.5667516 0.60867244 0.3472892 0.36633754 0.4463808 0.5251197 0.5517095 0.3151719 0.22569957 0.3212802 0.41914997 0.50957924 0.4213596 0.6425189 0.6254534 0.66167724 0.62535137 0.6065862 0.59755296 0.5582765 0.47940516 0.5871362 0.6068313 0.45009458 0.46048915 0.5680027 0.4643526 0.40282393 0.4956636 0.41018122 -0.0033692867 0.3284732 0.27370936 0.22587205 0.17999119 0.24474886 0.31652766 0.19322595 0.39533427 0.44258457 0.4647318 0.3381924 0.52242154 0.55160546 0.5045351 0.41658998 0.06158001 0.53207994 0.6322942 0.6257864 0.54955244 0.48674393 0.40677088 0.37147373 0.211155 0.08402504 0.086371936 0.18966064 0.35097265 0.42647883 0.48424852 0.6485729 0.6730151 0.6465509 0.58331203 0.52064896 0.36639485 0.19679737 0.2179354 0.30275002 0.3874812 0.6412362 0.69350183 0.6850799 0.6123568 0.55528957 0.46559495 0.37305516 0.6963164 0.6828861 0.6427057 0.5750462 0.47212857 0.652662 0.59507275 0.62623155 0.57084286 0.5882951 0.666999 0.5555126 0.57062805 0.61287063 0.6599892 0.58796763 0.60406744 0.77947795 0.7746657 0.8105775 0.825167 0.58326674 0.57679987 0.46636087 0.39052838 0.57058305 0.306571 0.3207824 0.53360254 0.47319573 0.06643564 0.39795515 0.37278324 0.31717455 -0.11716898 0.16008024 0.2516178 0.14631484 0.4093815 0.41029757 0.45851177 -0.032087766 0.44525614 0.4699018 0.26944786 0.32024708 0.21107577 0.50546694 0.4881966 0.5804777 0.56103086 0.4793334 0.48329455 0.5395163 0.11973363 0.10898237 0.15456524 0.40744525 0.44766885 0.5499147 0.37580815 0.15789211 0.13856176 0.15469679 0.5838763 0.66165507 0.5337988 0.46095785 0.39770585 0.35209328 0.6106349 0.62528396 0.58941656 0.47751766 0.5454438 0.60603786 0.38940942 0.49674556 0.5788945 0.62707937 0.6653979 0.38694903 0.44686407 0.5305855 0.6733613 0.700081 0.35458145 0.5196102 0.67501473 0.7022228 0.69665134 0.6858376 0.6356265 0.5631985 0.5918229 0.59654355 0.652088 0.67883706 0.7339054 0.75521564 0.7364966 0.7217423 0.5408646 0.5230644 0.7847333 0.82305366 0.8497698 0.8544123 0.81085026 0.8604543 0.878065 0.8776921 0.5007515 0.47243702 0.4914838 0.48793674 0.22786663 0.1532279 0.4704291 0.14184734 0.40385145 0.13715899 0.3788592 0.053479075 0.3534814 -0.020166064 -0.011546332 -0.106495954 0.09359919 0.11102755 0.30543053 0.39509267 0.3299526 0.008164723 0.03465727 0.33359742 0.32200775 0.21825287 0.2895091 0.07962607 0.11007732 0.44735664 0.40138218 0.357334 0.14825626 0.40380585 0.37116906 0.33052492 0.36177024 0.43980953 0.40441203 0.3594678 0.20105168 0.1741265 0.21951592 0.44528562 0.45125812 0.39751703 0.20290102 0.16861741 0.4771127 0.48289225 0.4478583 0.4055656 0.27934858 0.28784728 0.48413748 0.5836216 0.23028758 0.30369484 0.6366837 0.21968634 0.27101886 0.6701743 0.66400826 0.5005195 0.41469318 0.505969 0.17440365 0.68854266 0.68318236 0.67861456 0.67717 0.14874843 0.65577716 0.69739777 0.3946259 0.45092416 0.45000178 0.7244319 0.7533697 0.7872766 0.82731783 0.87296486 0.86026955 0.79892325 0.8296332 0.24500255 0.20519322 0.35061818 0.31612313 0.20715709 0.17584515 0.15186766 0.3552205 0.327209 0.16074106 0.3276788 0.09013087 0.8113907 0.80297375 0.7782841 0.34810716 0.7206894 0.84221435 0.8500426 0.7884507 0.7486602 -0.026923856 0.74493074 0.7923681 0.83322453 0.7567278 0.73789346 0.20054331 -0.09748788 -0.2136499 0.7402037 0.76024187 0.70339227 0.70624006 -0.013966203 0.0019812658 0.023074059 0.19721499 0.18579186 -0.04601838 -0.009899683 0.052204847 0.23836821 0.16314209 0.034746096 0.061886385 0.32006922 0.36210683 0.32756138 0.15478864 0.39772606 0.3359477 0.4112324 0.26664037 0.4072401 0.39595926 0.42845744 0.408731 0.46316734 0.23232368 0.23121408 0.19120754 0.10508277 0.026100896 0.5260453 0.5681815 0.5460093 0.46421993 0.322844 0.27643207 0.2508346 0.24403045 0.31732205 0.24919653 0.26641506 0.20455632 0.117067665 0.5796095 0.21601576 0.29180032 0.29593498 0.21339312 0.14903326 0.12894136 0.31238508 0.15650947 0.19121335 0.25974864 0.25713623 0.18699926 0.18356703 0.26336914 0.53976464 0.42889017 0.2889929 0.11849559 0.13668376 0.21115898 0.2291049 0.30823514 0.33471042 0.53120553 0.5087059 0.38785678 0.0969602 0.21190195 0.33930603 0.42038321 0.5154974 0.44858572 0.15809087 0.19164103 0.44120544 0.11112695 0.13690948 0.4350741 0.14711379 0.52636445 0.4554512 0.0059566614 0.008641569 0.54972106 0.041941445 0.033954125 0.606125 0.320637 0.57868373 0.46314037 0.50260127 0.08875934 0.2945714 0.3065256 0.29135 0.31508493 0.5287179 0.58649194 0.5631138 0.28069955 0.27442312 0.6713104 0.7444661 0.7511366 0.6996896 0.7000289 0.73296463 0.76616156 0.38221937 0.27834934 0.36053312 0.35982996 0.34205675 0.15210786 0.18105337 0.28380707 0.31896356 0.2558094 0.17297126 0.18037012 0.27351943 0.09458913 0.7451333 0.6891454 0.30738798 -0.04163657 0.7802869 0.7562506 0.71959746 0.69278467 0.22581154 -0.14542994 -0.15018564 0.6935272 0.74890435 0.70920974 0.6779323 0.6973835 -0.06491024 -0.1127294 0.5685089 0.62421346 0.6465874 -0.045823738 -0.17930642 0.60537237 0.5056101 -0.06767738 -0.11229291 0.13148373 0.1228739 -0.09993243 -0.06119548 -0.1593033 -0.06879087 0.6307663 0.56794554 0.49401486 0.2099787 0.20475578 0.14587285 0.081984095 -0.06865195 -0.04056431 -0.014751818 -0.048601113 -0.051362075 0.65658283 0.5783601 0.51160175 0.2455785 0.06020481 0.6612487 0.59674644 0.50358534 -0.012692049 0.3404392 0.37595803 0.48495 0.5481532 0.5720911 0.36962208 -0.2815508 0.070327386 0.21064395 0.47651258 0.57961076 0.6238885 0.4312414 0.17758656 0.22040166 0.17568462 -0.043841116 -0.06797569 -0.05669637 -0.06306788 -0.12491715 0.0629967 0.21392083 0.38827038 0.60590696 0.6495796 0.47016865 0.5035093 0.41475475 0.14687191 0.197438 0.15520805 0.09218131 0.18713102 0.5476867 0.5701835 0.048595604 0.17995785 0.42871153 0.34284532 0.13908406 0.05062154 0.07231681 0.29283714 0.3569014 0.16521473 0.04013195 0.12026331 0.085627496 0.29366156 0.40899727 0.0011999458 -0.04068683 0.31576014 0.28247744 -0.27075368 -0.117868535 0.2549352 0.36033094 -0.046229526 -0.18781194 -0.1418261 0.33425254 0.27129078 0.12510054 -0.22431494 0.32623672 0.22423509 0.17761064 0.14904724 0.37265235 0.28164732 0.34799922 0.43233362 0.35283855 0.3971082 0.0070773335 0.35175008 0.51505196 0.563252 0.283014 0.29653063 0.38584998 0.40731853 0.6270549 0.3932382 0.38860887 0.68620956 0.71128917 0.71205556 0.68771446 0.37301812 0.36735559 0.23577332 0.33177084 0.30869395 0.18371147 0.09389563 0.15508756 0.21661079 0.03861495 0.21913667 -0.03910297 0.625741 0.61354625 0.2133963 -0.2109871 0.5806309 0.6386876 0.64880115 0.6333494 0.647385 0.64024156 -0.16238353 0.580143 0.30165985 0.35233754 0.16672175 0.047691956 -0.08134632 -0.13487533 0.2251482 0.6064681 0.5595311 0.38867384 0.26183134 0.15675725 0.13671419 0.09804602 0.07783441 -0.052897964 -0.4014961 -0.11764619 0.6936703 0.6358889 0.54854566 0.46056736 0.28728747 -0.070036486 -0.09043153 0.8261111 0.77639717 0.68860435 -0.055855475 -0.050536077 0.8787351 0.8325694 0.41429293 -0.04474771 -0.044059895 0.36683476 0.41089234 0.50311756 0.8899387 0.8318014 0.74712455 0.6624435 0.49264994 0.06609811 -0.11337379 -0.06812288 0.56792355 0.56675905 -0.15995649 0.6069584 0.6274917 0.26215786 0.3378411 0.117342085 -0.29462892 -0.52851766 0.65328836 0.6490232 0.46441028 0.33560914 0.0052420646 -0.18199669 0.59466946 0.5028229 0.5531478 0.27846575 0.45533502 0.4672466 0.1971394 0.2845015 -0.00452853 -0.07968437 0.24612486 -0.005974628 0.11976403 -0.30441913 -0.37428162 0.018616898 -0.002395562 -0.43250096 0.22848293 0.26033095 0.08826543 0.3126322 0.28481862 0.24855107 0.3019572 0.32418442 0.4425696 0.50377977 0.43675023 0.46972436 0.6269336 0.640179 0.5852027 0.55723405 0.44346648 0.4644938 0.46459138 0.47906464 0.49823868 0.68519974 0.65866256 0.30974656 0.30376777 0.26030958 0.15278794 0.09654179 0.19531383 0.121074066 0.08909616 0.12174781 0.035436623 0.111442804 -0.07346523 -0.105059296 0.044273347 -0.22611368 -0.11461426 0.5048144 0.53929985 0.56470793 0.54275686 0.40376785 0.376213 0.5619827 0.38154668 0.40039018 0.3627711 0.22688137 0.50588876 0.29132962 0.30337214 0.24016684 0.17618196 -0.027591432 0.5203106 0.03446082 0.13464084 -0.05817329 -0.13839637 -0.31971115 0.46850097 0.22911355 0.10695563 0.11441946 0.031832 -0.046673268 -0.08178752 -0.1186153 -0.13902923 -0.14406048 0.08795172 0.55490196 0.5627753 -0.24504119 -0.19779827 0.7353072 0.6618902 -0.25387612 0.09144954 0.22084843 0.35723054 0.8777317 -0.21143112 0.08978958 0.039610498 0.9230943 0.27539963 0.8987471 0.8486929 0.5262252 0.83709276 0.7779077 0.7174785 0.1705405 0.59223497 0.26872894 0.045667097 -0.022966137 0.6045629 0.30278498 0.4608429 0.10811067 0.020334817 0.5410971 0.568347 0.45053494 -0.025345556 0.46229625 0.48285747 0.1989427 0.14548227 0.05975181 0.08492961 0.36230975 0.32587546 0.44076264 0.31582403 0.14819354 0.20300388 0.20170736 0.19039658 0.31270468 0.16701518 0.03314446 0.20678753 0.044136893 0.24686837 0.23572469 0.23994353 0.33817837 0.32480562 0.32291573 0.44328436 0.356358 0.5129303 0.44644025 0.09827178 0.52071375 0.59540653 0.57579875 0.4888823 0.3696443 0.49148786 0.5583585 0.52911687 0.5195054 0.5290409 0.57553256 0.59366196 0.3158049 0.30030048 0.27824184 0.13438624 0.15446015 0.1909057 0.1490591 0.12394939 0.072791666 0.030415908 0.076216914 0.0006810576 0.06281518 0.22029097 0.27828813 0.059399113 -0.027389534 0.005231086 0.14130926 0.31741875 0.3212843 0.020141792 0.029687006 0.09759925 0.22889555 0.01603055 -0.2586729 -0.035771053 0.45517367 0.39561394 0.35697377 -0.06962485 0.4784441 0.4252066 0.4187673 0.3766107 0.30864614 -0.17100306 0.46098244 0.36165348 0.4079164 0.26875317 0.13838185 -0.0801788 0.4568852 0.22786635 0.45484668 0.045589015 0.06994681 0.4223092 0.3380509 0.3216749 0.14908372 0.3079085 0.5555435 0.38598 0.38076937 0.08500917 0.31223515 0.38292414 0.3803962 0.7178149 0.59361815 0.39764425 0.87498295 0.36062223 0.3937565 0.9725002 0.31749892 0.34823048 0.8847857 0.8269869 0.39331657 0.81873715 0.7507528 0.0608892 -0.8075701 0.52192104 0.30356473 0.32544088 -0.17199016 -0.6776153 -0.023669153 0.51868284 0.40112978 0.3962505 0.051615708 0.5398322 0.42036214 0.4222693 0.3726064 0.17689934 0.08715108 0.5121125 0.52755404 0.32460597 -0.035933077 0.3684567 0.466125 0.48873734 0.38870478 -0.09997043 0.5451007 0.49537593 0.14643769 0.5690069 0.4896115 0.18713142 0.50798684 0.2777111 0.46004516 0.42645866 0.21348096 0.2762917 0.28750095 0.4417333 0.28634292 0.25823414 0.2229588 0.4273811 0.44368508 0.21630706 0.48458174 0.38905197 0.1871717 -0.15207832 0.53542703 0.60339034 0.55941427 0.5694281 0.59467924 0.6353656 0.39970258 0.37981004 0.32752222 0.29769924 0.41207644 0.3941263 0.27901298 0.16660902 0.34456536 0.30831367 0.14096624 0.29387525 0.17966746 0.10100311 0.014713384 0.2853487 0.3340268 0.30627108 0.25263593 0.05131562 0.07265236 0.11947715 0.22065565 0.30750176 0.4050942 0.29669395 0.23928426 0.19406824 0.03535068 0.33623934 0.3844972 0.4454586 0.12408803 0.41199133 0.4308364 -0.04958935 0.36741254 -0.10291481 -0.051829796 0.3414628 0.364375 0.29679868 0.020090558 -0.2046436 0.4535305 0.28369737 0.3399161 0.4048748 0.22910628 -0.099859245 0.36690068 0.26735973 0.31691325 0.33583212 0.38118237 0.10920584 0.13890375 0.037687823 0.3094532 0.29389232 0.2746724 0.3400893 0.34719756 0.51078403 0.31304455 0.36206263 0.36517647 0.7386439 0.6026511 0.38552743 0.38418138 0.89310527 0.39669234 0.9013616 0.35572556 0.816749 0.7762922 0.13230167 0.76774216 0.6947328 0.2621477 0.30986306 0.42334756 0.08422346 0.42842776 0.49784282 0.45948374 0.17196882 0.1912261 0.5070539 0.504064 0.5137914 0.41907895 0.18865262 0.48759124 0.51990193 0.24376836 -0.04280447 -0.012280207 0.46021774 -0.13247825 0.63687295 0.60031915 0.5577233 0.5305823 0.34131336 0.5138898 0.35067344 0.48518962 0.4412877 0.3867501 0.3401264 0.302909 0.33232337 0.05608336 0.38287717 0.39061618 0.45513245 -0.12916502 0.5616473 0.5315187 0.6618608 0.62029755 0.59189385 0.59316206 0.6554305 0.646857 0.34568614 0.4681416 0.33526558 0.38187677 0.3900408 0.31380045 0.59173137 0.56964177 0.4714648 0.3726778 0.29351938 0.18745862 0.20700702 0.23445868 0.1278137 0.053097032 0.19391331 0.59055793 0.5310861 0.4305172 0.37900943 0.24079008 -0.044891275 0.0030589527 0.18514064 0.30144417 0.37704045 0.57313836 0.5098992 0.3875962 0.085409746 0.34899426 0.42757994 0.46243322 0.28898442 0.45308617 0.41427916 0.35506994 0.36975786 -0.25438175 0.2827857 0.2921188 0.2639619 0.037725907 0.25538594 0.2675421 -0.117112845 0.17239824 0.21804868 0.14968032 0.10240002 0.15120645 -0.10555811 0.018635094 0.32184684 0.31836477 0.25930887 0.34819543 0.36856425 0.7257571 0.38632354 0.7972537 0.717576 0.5126253 0.3572864 0.71342516 0.5922588 0.23208642 0.3287522 0.3523277 0.3017509 0.45851722 0.47902447 0.44850215 0.53574175 0.5387639 0.4505462 0.21426354 0.15005024 0.46699363 0.45707685 0.12737404 0.2297707 0.16611493 0.62177634 -0.05808664 0.6521795 -0.1277872 0.6359527 0.6242783 0.6269741 0.3165377 0.3641749 0.6050943 0.55405855 0.22677836 0.2998888 0.35655612 0.52289903 0.4641794 0.111773446 0.24262649 0.29768604 0.40992087 0.16615659 0.040612336 0.24327064 0.30527025 -0.08709562 0.00743723 0.45168072 0.04544992 -0.012780629 0.5630079 0.54118633 0.5281681 0.53920704 0.6025037 0.58699304 0.46627772 0.4077267 0.34388763 0.25729308 0.08125868 0.564745 0.5381 0.43266815 0.34970716 0.2539257 0.13316926 0.048051886 0.2295835 0.32252467 0.03313598 -0.00020333845 0.14982474 0.24500145 0.594659 -0.2884534 -0.029581355 0.06346224 0.1901708 0.27863777 0.35760042 0.5801405 0.42622656 0.44419327 0.556942 0.46482313 0.5111195 0.49444336 0.42292756 0.1768905 0.37296346 0.34649134 0.3235966 0.101572424 -0.08511403 0.20652649 0.21540338 0.16267733 -0.04136962 -0.0048819464 0.026914142 0.20680252 -0.2853091 -0.096137196 0.13621108 0.16030534 0.13848203 -0.45647433 -0.14446825 0.40193844 0.12545677 0.07667025 0.2796316 0.29216376 0.3424893 0.2654357 0.406157 0.35372666 0.3581229 0.33479556 0.40202138 0.26877868 0.29267228 0.26945955 0.14905469 -0.110799305 0.18860382 0.24711947 0.3651371 0.030883849 0.42169818 0.3553937 -0.07608035 0.34047985 0.3515554 -0.3790288 0.3028292 0.3495727 0.090491235 0.35030964 0.33078697 0.62072265 0.66156864 0.6623546 0.6801739 0.14932314 0.6691467 0.67755044 0.6303606 0.09311265 0.16937532 0.5853312 0.4480657 -0.217787 0.058758304 -0.0671887 0.033565097 -0.04606943 0.16187504 0.0683501 0.27211288 0.2386702 0.38528404 0.10691503 0.30007374 0.5103483 0.47928813 0.5476541 0.54540044 0.38636857 0.4036234 0.38168207 0.34191114 0.3429054 0.3437108 0.29999045 0.33000273 0.38611546 0.32964045 0.2933189 0.357782 0.3527652 0.33895746 0.26773933 0.23994817 0.28354758 0.2455014 0.27448 0.26126438 0.35416418 0.33207202 0.2624464 0.17213802 0.15428807 0.20885295 0.17180367 0.49698308 0.41574317 0.34451586 0.28853437 0.20210975 0.15103208 0.1149244 -0.09746427 0.07790002 0.02196157 0.099819094 -0.17238066 0.16085966 0.50454295 0.52750045 -0.20647472 0.062841296 0.007488791 0.21180826 0.2997319 0.37454194 0.49609724 0.5475756 0.38392884 0.3980552 0.4812703 0.48023403 0.3945024 0.3901053 0.44041258 0.36865944 0.45488465 0.36580706 0.05193441 0.23715895 0.18901643 0.14603998 -0.09507934 0.15884876 -0.023498118 -0.018777229 -0.10509418 0.10574219 0.032973886 0.087932564 0.041809842 0.3752132 0.40752923 0.110386826 0.12871337 0.06852924 0.38379842 0.41015172 0.40889576 0.07464832 -0.29075375 -0.2646805 0.031778645 0.39592582 0.07907126 0.33312607 0.28302717 0.3026879 0.40956482 0.34450722 0.36275744 0.490031 0.29173762 0.34233862 0.43441147 0.22204134 0.24520592 0.3903834 0.3511315 0.19104446 0.2102662 0.100234196 0.16818859 0.20787324 0.12996475 0.3183021 0.30644205 0.17460437 -0.16270815 -0.44619077 0.42685717 0.3973342 0.43890828 0.4357208 0.43316862 0.5777948 0.40708953 0.6692728 0.08019907 0.68625486 0.68604666 0.66254 0.6279202 0.59109914 0.5171529 0.35307056 0.14224917 -0.30469114 0.2663455 0.30851945 0.23274335 0.16110449 0.09765785 0.21378483 0.44501925 0.5300731 0.47039205 0.5516356 0.60939234 0.5817894 0.29826373 0.33053 0.36672845 0.34502047 0.32325315 0.28366974 0.27231577 0.24833745 0.3176861 0.34422767 0.38794762 0.37056327 0.32824802 0.27789626 0.24591175 0.31789482 0.32856655 0.28636065 0.25149933 0.200264 0.22486201 0.20315951 0.23526414 0.28198844 0.15475637 0.06294223 0.1376226 0.2763899 0.06484273 0.26018617 0.42539978 0.31992233 0.35712993 0.38331407 0.29479766 0.36887282 0.3484511 0.28535342 0.30948654 0.29231438 0.20848067 0.026267245 0.17442891 0.21361376 0.16726835 0.07022477 0.2964503 0.21808761 0.18206799 -0.08971638 0.09864968 0.10478292 0.27684468 0.23366362 0.2244297 0.11922392 0.11382714 0.13717572 0.024492208 0.3400771 0.39990076 0.027563795 0.41372365 0.39768028 0.005116809 0.36607778 0.33529574 0.22372776 0.4227988 0.24094133 0.26793095 0.5587541 0.44005674 0.3382637 0.61729836 0.31487906 0.5724901 0.27756315 0.4774688 0.46543553 0.19041148 0.23199445 0.41758585 0.38057128 0.27628395 -0.103011005 0.11929451 0.19674544 0.06515345 0.18690816 0.17157555 0.20524026 0.3782068 0.29250062 0.35557657 0.4872632 0.44290578 -0.11039053 0.37202907 0.036546923 0.4291165 -0.15623394 0.46490085 0.43796337 0.43389505 0.34325266 -0.43341327 -0.39540073 0.6093569 0.44014603 0.07379129 -0.4419667 -0.4282614 0.10483907 0.6688771 0.639202 0.568581 0.01622409 0.1881925 0.6256299 0.5651772 0.49739906 0.1738592 0.19242203 0.56147075 0.17806901 0.46374428 0.1750617 0.23655416 0.5112953 0.41806072 0.30686516 0.38497758 0.50041646 0.34778452 0.43739027 0.5726658 0.50641084 0.5832656 0.63229156 0.64294183 0.247708 0.1809898 0.12987429 0.16204461 0.19013159 0.29608974 0.30351245 0.25828975 0.25000453 0.22131695 0.20929688 0.2553329 0.18812265 0.23443621 0.15913123 0.63197887 0.68940866 0.15426588 0.22068842 0.1591828 0.11591942 0.56400406 0.6426363 0.7166105 0.1497634 0.12811828 0.07027149 -0.054756608 0.68652546 0.71196395 0.2748052 0.23143072 0.184625 0.41256747 0.30414635 0.017781466 0.23324707 0.36909238 0.23054543 0.28673476 0.24093458 0.14873515 0.19952592 0.18043084 0.056145027 0.0057734083 0.06296843 -0.032033015 0.3335987 0.30222633 0.260445 0.1582373 0.077871285 0.05502144 0.34262848 0.051920988 0.09074584 0.24351771 0.10078722 0.08176098 0.15233463 0.019166458 0.044278663 0.060739256 -0.02307257 0.34324843 0.03458259 0.3362738 0.28879702 0.40673286 0.25378087 0.5551857 0.50273 0.31492037 0.57537204 0.26064774 0.3460515 0.62330294 0.2772742 0.16110374 0.5887977 0.0983328 0.2063081 0.51809573 0.36439687 0.0961699 0.15406872 0.035446115 0.22211188 0.18728326 0.34509134 0.21385829 0.54406166 0.16143712 0.5628542 0.6036581 0.58405614 0.3517276 -0.013109662 0.32043725 0.53985995 0.076231286 0.3912965 0.07888752 -0.18595447 0.18007468 0.3416659 0.40707916 0.42118686 -0.21701854 0.15410706 0.16587088 0.23167753 -0.13127002 0.35799253 0.36586595 0.24304312 0.40789387 0.60585004 0.58360046 0.3596929 0.5432172 0.5224502 0.48789263 0.4208051 0.38015643 0.2776223 0.47947013 0.55808824 0.63437366 0.5939981 0.5179939 0.58495426 0.62871236 0.6507267 0.10672901 0.1313592 0.18836421 0.20785354 0.15931334 0.11167277 0.11312317 0