# vtk DataFile Version 2.0
Really cool data
ASCII
DATASET POLYDATA
POINTS 6259 float
117.47335 15.703723 111.8184
117.48308 15.776875 112.22408
117.34784 19.99839 104.52367
117.31125 20.009731 105.27743
117.34237 20.590948 104.147995
117.23016 20.536224 104.59062
117.22439 20.460184 105.33566
117.3981 20.518652 105.975105
117.302666 21.200495 104.64485
117.29889 21.037167 105.412766
118.31668 13.126284 111.00365
118.254745 13.124641 111.61794
118.29832 13.222838 112.06973
118.1085 13.74036 110.72909
118.05 13.527234 111.51078
118.19829 13.395213 112.05037
118.10085 14.633982 109.895195
117.88009 14.513668 110.48158
117.66942 14.742818 111.49582
117.76663 14.901917 112.282646
118.05154 15.015676 112.90093
117.93447 15.463342 109.7764
117.634155 15.464742 110.77313
117.526726 15.4183655 111.660706
117.634155 15.508689 112.42495
117.90009 15.668996 112.86233
118.11426 16.238358 109.7523
117.83194 16.315495 110.420975
117.63577 16.273283 111.45898
117.7071 16.24955 112.369736
117.95262 16.141722 112.85272
118.34996 17.30286 109.34843
118.40788 17.735188 110.17156
117.9623 16.886248 111.62235
117.98935 16.82701 112.252426
118.11825 18.997953 104.675644
117.837036 19.251232 105.341225
118.158745 19.24022 106.19578
118.44139 17.944468 109.693245
117.84097 19.764315 104.01416
117.57515 19.627453 104.60901
117.5541 19.519976 105.328285
117.80937 19.617846 106.289894
118.25215 19.522814 106.7724
117.707825 20.441622 103.83043
117.66998 20.33737 106.53945
118.080574 20.707605 107.01698
117.70324 21.195265 103.89308
117.48679 21.578226 104.6216
117.7549 21.362436 106.31622
118.310844 21.711897 106.87228
118.19185 22.29049 104.05537
117.81327 22.128279 104.587845
117.82357 22.148808 105.475426
118.049164 22.21539 106.08396
118.29106 23.187216 104.56629
118.16887 23.078415 105.330986
118.34509 22.917665 105.93196
119.451546 5.5586042 101.83654
119.444954 5.6540465 102.273445
119.424545 7.068873 96.77684
119.33468 6.860581 97.81183
119.41336 6.8547325 98.43637
119.30438 7.6377816 96.75859
119.16953 7.461467 97.64817
119.27494 7.4854436 98.343
119.44159 7.499547 98.990616
119.33815 8.393173 96.900894
119.17322 8.5201645 97.659615
119.23457 8.5097 98.325516
119.39224 8.299629 98.87996
119.317795 8.941442 97.489
119.250854 8.917674 98.05053
118.77168 12.871683 110.77518
118.74412 12.703476 111.57565
118.7413 12.953461 112.19963
119.08988 13.153451 112.63754
118.76119 13.8171625 109.78254
118.39989 13.491856 110.419815
118.50963 13.439483 112.51301
118.8149 13.584795 112.75509
118.83196 14.7109 109.13248
118.36038 14.666302 109.53507
118.64252 14.8608465 113.037445
118.62012 15.547443 108.909836
118.49893 15.646282 113.20424
119.22326 16.306822 108.12843
118.52441 16.365314 113.08179
118.69225 17.128565 108.36206
118.574295 17.726171 110.44183
118.78264 16.898672 112.80986
118.67604 19.03764 104.11521
118.83139 18.725048 104.590034
118.569595 18.705986 105.027626
118.66464 18.909243 109.02961
118.65022 18.480736 109.42077
118.747 17.968983 110.00106
118.66971 19.589748 103.64379
118.76142 19.243473 109.46613
118.730354 19.446598 110.27515
119.426865 19.710785 112.160774
118.79669 20.307875 103.41691
118.53094 20.369814 107.3334
118.83975 20.23629 109.49152
118.801796 20.08552 110.111664
119.249565 20.849539 112.37901
118.53752 21.103891 103.44925
118.55813 21.361433 107.30376
119.10535 21.303888 108.39232
119.21441 21.34271 109.182274
119.19098 21.44778 110.79642
119.18175 21.592443 111.56732
119.2737 21.587814 112.59737
119.38108 21.52692 112.92118
119.33688 22.981318 96.996155
119.201004 22.854002 97.806465
119.15556 22.839716 98.46057
119.40056 22.374163 99.36196
119.19546 21.877733 103.287796
118.9578 22.222736 103.648445
118.51288 22.536676 106.48308
118.56912 22.309143 106.82642
119.275505 22.346539 111.63153
119.27809 22.481602 112.44031
119.40491 22.443953 112.96087
119.22684 23.965128 96.85361
118.982086 23.546188 97.62445
118.91184 23.665535 98.40096
119.17421 23.212355 99.30844
118.8347 22.866468 103.93465
118.53076 23.488386 104.77745
118.49395 23.538994 105.32961
118.86632 23.351652 106.20436
118.90543 22.931465 106.705315
119.41616 22.93462 112.208084
119.21269 24.251385 96.935165
118.980896 24.434519 97.60981
118.93089 24.44353 98.39022
119.07962 24.38265 99.04007
119.10245 23.861427 104.623726
118.898094 23.829264 105.53654
119.18408 25.11223 97.78226
119.14857 25.129852 98.4405
119.32034 24.963604 99.12276
120.28758 3.6338859 100.847435
120.196846 3.7558734 101.40019
120.12449 4.0202346 102.47459
120.15517 4.445392 100.75193
119.4977 5.065881 101.97567
119.62812 4.866509 102.48551
120.00773 4.7635803 103.34188
120.230835 5.017119 103.86991
120.193474 6.0484514 96.389984
119.9474 6.0328074 97.51524
120.064476 5.8472714 98.62799
119.85921 5.6108627 100.735855
119.56703 5.244247 101.53208
119.517715 5.329916 102.70549
119.746254 5.369926 103.25187
120.172676 5.5607514 103.880356
120.22629 6.7852635 95.20339
119.97618 6.694158 95.64508
119.683945 6.625196 96.29239
119.637856 6.3905244 97.68554
119.450745 6.7464366 98.403145
119.89873 6.208627 100.74675
119.660355 6.5874095 101.64245
119.628426 6.4602547 102.38814
119.87332 6.3432627 103.195946
120.09048 6.128356 103.76319
120.15961 7.233951 95.12388
119.78599 7.4185743 95.6281
119.52292 7.3990793 99.12827
119.79189 7.284955 99.89091
119.90927 7.331398 101.44063
119.72314 7.006073 102.15195
120.181404 7.4030066 103.07508
119.89678 8.346794 95.78127
119.508446 8.212458 96.39993
119.61888 8.292957 99.368645
119.97887 8.463911 100.51827
119.97299 8.032025 101.49156
120.22832 8.182732 102.28187
119.803314 9.450219 96.7724
119.49342 9.259989 97.35415
119.67851 9.186615 98.59805
120.049164 9.068454 99.54339
120.31687 9.441742 100.164795
120.38243 10.623253 95.893906
120.3903 10.698223 96.70412
120.05071 10.035325 97.87886
120.22345 9.983321 98.268456
120.283226 9.674207 98.96338
120.460144 11.142186 95.735115
120.43378 11.46514 96.61263
120.42895 11.230873 97.00423
119.88802 12.42694 110.76051
119.58628 12.402964 111.45421
119.58604 12.910949 109.98732
119.5663 12.540172 110.54039
119.19354 12.549465 111.74826
119.47106 12.823415 112.39482
119.1755 13.125831 112.62105
119.80969 13.657913 109.35653
119.41364 13.579102 109.55453
119.24633 13.348848 112.78467
119.684944 14.830884 108.75892
119.37187 14.627039 113.101814
119.712296 16.008287 108.19362
119.462944 15.377668 108.50844
119.52345 15.650484 113.24783
119.61369 16.696268 107.821686
119.44024 16.311508 113.20536
119.8078 17.782269 107.27244
119.691185 17.270576 107.55667
119.50141 17.48925 112.48677
119.68522 17.030634 112.99663
119.43883 19.077684 103.992546
119.51266 18.668459 104.72044
119.46156 18.530848 105.1055
119.31231 18.747614 106.25337
120.000404 19.10817 112.78438
119.69376 19.517881 103.69524
119.57835 19.948687 112.85474
120.18379 21.19995 96.80358
120.14511 20.989492 97.5999
119.88111 21.211544 98.65841
120.13006 21.081924 99.68138
119.8519 20.660383 103.14165
119.68713 20.26468 113.13169
120.2785 21.766144 96.27294
119.92297 21.769257 96.7927
119.78758 21.498013 97.66872
119.6995 21.732882 98.49647
119.85964 21.599457 99.56603
120.21212 21.344149 100.41971
120.30811 21.52262 101.37233
119.206474 21.65131 103.40228
119.50047 21.600775 109.065544
119.680374 21.753998 113.3774
119.99657 21.721191 113.64619
120.25475 22.086948 96.153145
119.669334 22.657894 96.81341
119.57512 22.242508 97.41402
119.53181 22.479942 99.66539
119.76978 22.292784 100.52008
120.04559 22.46421 101.273506
120.04592 22.109268 102.5594
119.692444 22.50493 103.50739
119.82468 22.109173 108.54594
119.65701 21.971725 109.99212
119.66348 22.375132 110.61915
119.5798 22.587791 113.20389
120.01085 22.366873 113.75162
119.78388 23.739996 96.39328
119.48623 23.360443 96.718796
119.77823 23.58543 100.542984
120.33585 23.607916 101.35957
119.9149 23.148783 107.17694
120.1513 23.222038 110.68527
119.74517 23.247059 111.639244
119.808365 23.28591 112.56574
119.85245 23.011335 113.163704
119.94086 24.166441 96.30936
119.49739 24.305548 96.632835
119.582184 24.706459 99.637924
119.77787 24.340725 100.08104
120.13946 24.338913 100.79773
119.92334 23.97458 104.27168
119.73267 24.036003 105.02349
120.085655 24.491817 106.3556
119.9738 23.625679 111.940155
119.67454 25.069597 96.92805
119.58467 25.535294 97.59886
119.454865 25.51326 98.50455
119.61503 25.33552 99.18306
119.92486 24.788565 99.923676
120.1712 25.696688 104.72433
119.99552 25.908617 105.88312
120.41368 26.756372 91.02488
120.4166 26.655495 91.41033
120.14367 25.938389 96.965454
120.01893 26.013716 97.58474
120.12466 26.327242 98.1731
120.29508 26.084574 98.89778
120.26418 26.36536 104.97764
120.0964 26.411848 105.44493
120.11471 26.517189 106.50886
120.238655 26.554106 107.00304
120.41666 27.32639 90.972115
120.394714 27.238562 91.40522
120.35156 26.857424 97.35834
120.264435 26.900953 105.67846
120.19394 26.821344 106.40458
120.33512 26.787746 106.94834
121.14989 2.0228462 99.70785
121.08076 1.8083857 100.4321
121.08591 1.8261161 101.204094
120.85836 2.6275377 99.80921
120.65902 2.5954988 100.46188
120.82921 2.3773282 101.32963
120.85856 2.8605328 102.386795
121.12722 3.213273 103.22149
121.13653 3.780852 98.95993
120.79536 3.2791634 99.61506
120.50074 3.2805367 101.666695
120.49203 3.4424698 102.48311
120.78666 3.6532555 103.34188
120.9566 3.87233 103.69752
121.05585 5.1611805 97.73802
120.75608 4.7650986 104.06915
121.02076 6.0924444 95.30259
120.51401 6.003335 95.888565
120.66107 5.7574344 96.24637
120.397484 5.701777 97.43244
120.603065 5.5570416 104.20899
120.59428 6.5719957 95.13996
120.602425 6.336498 104.07616
120.59129 7.3933487 94.896866
120.46333 7.713992 103.22929
120.98594 7.2115064 104.00697
120.48211 8.490843 102.24111
120.682304 8.169393 103.05709
121.27246 10.22606 89.901985
121.18222 10.046689 90.60566
121.05086 10.041786 91.65688
121.075226 10.149017 92.359856
121.22844 10.160555 93.236725
120.69389 9.6558275 95.17533
120.75932 9.363663 101.313896
120.89554 8.895129 102.32837
121.15335 10.770939 89.87936
120.85849 10.690909 90.61277
120.697556 10.72679 91.56277
[...]
POINT_DATA 6259
SCALARS features_00 float 1
LOOKUP_TABLE default
0.6341603 0.66479003 0.7452369 0.71360505 0.74272704 0.7329773 0.7002868 0.6503284 0.7113055 0.6711015 0.7518869 0.7405893 0.71817875 0.7016215 0.72595596 0.711347 0.5873759 0.629159 0.6638875 0.68845415 0.69505554 0.54345876 0.57289416 0.6311928 0.6808579 0.69007266 0.46790773 0.4607797 0.5678407 0.6669957 0.6837404 0.2841713 0.22864252 0.5537286 0.65318483 0.73840344 0.7258762 0.6953755 0.17501569 0.77229756 0.7519047 0.72108066 0.67365456 0.63125324 0.75881886 0.6035949 0.4507389 0.70760846 0.6923837 0.504603 0.34088856 0.5827238 0.6491792 0.56507045 0.45918208 0.56547165 0.5329122 0.45459646 0.43562144 0.47930878 0.5422852 0.47984195 0.42441666 0.5373901 0.4955067 0.4509041 0.3832167 0.48071563 0.4545892 0.4250145 0.39501393 0.40041342 0.39473242 0.7685853 0.74806607 0.7209189 0.68337023 0.6137817 0.7068862 0.6838592 0.65710807 0.4749872 0.5479791 0.6730454 0.4554922 0.6760434 0.30550683 0.66316056 0.47424015 0.2168445 0.6274804 0.68096256 0.6054017 0.65153974 0.040755663 0.086222455 0.17144623 0.720487 0.018455705 0.076383 0.3302049 0.7160524 0.3683471 0.031697996 0.09168336 0.45074707 0.64097214 0.26161432 0.06885304 0.045397855 0.28781998 0.45641208 0.51742315 0.50926465 0.43833822 0.48533916 0.49491715 0.4002672 0.4172328 0.4471388 0.3732924 0.3140366 0.5068501 0.5569598 0.563627 0.4951974 0.5526054 0.5961059 0.50804806 0.4746493 0.5370343 0.50739646 0.38570958 0.3044905 0.55095047 0.5007792 0.5624566 0.58406687 0.5305481 0.4716205 0.4634448 0.50807047 0.5007 0.4510072 0.42410886 0.45222804 0.5294736 0.3666801 0.45802596 0.5122743 0.5780236 0.57668847 0.49956343 0.4589633 0.32551694 0.29822224 0.41042715 0.5283356 0.5705218 0.57418233 0.5310812 0.54908323 0.54945797 0.4722775 0.42290753 0.26723006 0.36679688 0.46337867 0.54575044 0.56318843 0.54306495 0.5659473 0.35837007 0.23329888 0.29998598 0.40728125 0.4584628 0.48568982 0.50356525 0.340577 0.25099152 0.29718015 0.35769683 0.2983608 0.34350404 0.32644373 0.28295338 0.25162804 0.2192327 0.21561287 0.21758747 0.21556675 0.23808 0.23231474 0.24688606 0.2280437 0.7263855 0.7536711 0.72586685 0.74788445 0.74533516 0.70096695 0.6836294 0.53750056 0.6039151 0.6572831 0.3465736 0.5879284 0.25019065 0.31669143 0.5670512 0.22461641 0.56877387 -0.0030956715 0.14277957 0.44516763 0.47421798 0.50449514 0.41632727 0.3988977 0.40337262 0.21212877 0.489457 0.37510675 0.2952779 0.3232013 0.35646075 0.33242434 0.550143 0.3995996 0.2753204 0.3224736 0.36090672 0.3855256 0.34244984 0.35834485 0.34484842 0.46628416 0.0491092 0.5096881 0.48835012 0.27299154 0.3836025 0.3969214 0.39470956 0.35892028 0.283094 0.005130619 0.30301893 0.032785065 0.19436082 0.3586591 0.5685387 0.54478866 0.40650812 0.43948147 0.38718837 0.31182218 0.055837378 0.38854814 0.50439215 0.5635562 0.5750384 0.3839722 0.4586444 0.4072407 0.38414598 0.3046561 0.34158778 0.39451432 0.30051368 0.49869853 0.41897753 0.44119275 0.44879323 0.40027553 0.35359317 0.24876547 0.4291534 0.70043856 0.68211496 0.31249103 0.37195563 0.37279528 0.35903347 0.40505236 0.45225167 0.50045097 0.5075085 0.7231034 0.7079996 0.30027074 0.5090555 0.5180206 0.52325904 0.48326385 0.52639866 0.5608028 0.45619506 0.47533733 0.5223695 0.5338658 0.56037176 0.23466322 0.39343527 0.47908923 0.5314798 0.56972647 0.56733364 0.26789057 0.55770355 0.4680577 0.49024117 0.4564824 0.41790932 0.55353266 0.49886745 0.5275023 0.50032806 0.42359477 0.44397452 0.33624837 0.3673559 0.5372833 0.50249016 0.41287926 0.3572749 0.3048589 0.19705297 0.26252735 0.29765737 0.57769424 0.56006515 0.4894352 0.40428764 0.31820112 0.17243546 0.20087212 0.20690717 0.21942568 0.6070831 0.60496724 0.54462135 0.41970864 0.2381048 0.25603753 0.21853335 0.19874223 0.68692386 0.7148149 0.6135665 0.6172445 0.55225706 0.36304817 0.14003918 0.24511188 0.2720459 0.27033284 0.6089479 0.6519661 0.7256832 0.64282227 0.55195045 0.5254924 0.46457794 0.24242191 0.576085 0.24582455 0.4775157 0.33885926 0.33268297 0.3113503 0.18443288 0.34149852 0.354294 0.33193037 0.09843375 0.13780864 0.020845056 0.20744884 0.1325056 0.23171976 0.26709563 0.28896755 0.32334498 0.3478195 0.1823296 0.25311857 0.29820606 0.32759696 0.32702142 0.15506956 0.36983883 0.6106103 0.15697552 0.17098513 0.26287404 0.6119908 0.22694673 0.5152232 0.27614558 -0.017659046 0.06072831 0.29710644 0.54942477 0.34042948 0.18796201 0.24306151 0.45320278 0.4452402 0.60814536 0.59583426 0.13168171 0.288616 0.20405608 0.6675706 0.67032444 0.65075654 0.6000563 0.34369028 0.16131718 0.1023571 0.20583278 0.336583 0.38450378 0.5090563 0.5293104 0.7112599 0.7301303 0.6930305 0.6298819 0.3684968 0.07926689 0.11605169 0.2701218 0.33011466 0.36928967 0.36386725 0.5008497 0.53105056 0.5415802 0.5378498 0.74973977 0.72192585 0.62252957 0.44047132 0.33477134 0.37975824 0.40716764 0.46288443 0.55032516 0.6624565 0.43071353 0.5251321 0.67162246 0.663772 0.62615156 0.67511225 0.65051293 0.6162026 0.69060445 0.6840335 0.6675124 0.6922784 0.695274 0.54001707 0.3826715 0.46293557 0.53134847 0.55427915 0.56015337 0.3500554 0.5433869 0.18642254 0.5593744 0.5416197 0.33272856 0.26212913 0.10382976 0.52763057 0.43126595 0.4090466 0.5162833 0.5088043 0.38660878 0.45123547 0.4853403 0.39646292 0.34552965 0.2955783 0.2844204 0.32189733 0.3069843 0.34070292 0.46116287 0.38477418 0.34345555 0.28813022 0.2396074 0.23668918 0.55235547 0.13871768 0.18067957 0.18951142 0.54965353 0.56786716 0.17787482 0.5203519 0.55565286 0.1951592 0.18830189 0.2548324 0.22509798 0.49508137 0.6195937 0.64862233 0.51107174 0.06817434 0.14909498 0.23045549 0.19863996 0.4702013 0.3840174 0.31259438 0.2940118 0.25260112 0.08392756 0.050347343 0.0761492 0.17238924 0.17451747 0.7676648 0.2826636 0.32550097 0.20443839 0.08552461 0.11470568 0.05689285 0.6609405 0.75254023 0.38999322 0.35518506 0.36111543 0.32399714 0.2019664 0.0899486 0.010260738 -0.047596097 0.6830069 0.37971026 0.35311773 0.13904049 0.08005521 -0.06350444 -0.054527342 0.31501043 0.30347186 0.023764193 0.110377505 0.050309487 0.030687638 0.009324744 0.1764474 0.19749263 0.26679757 0.1317951 0.12042157 0.103018254 -0.03474161 -0.05681497 0.6066209 0.6293489 0.6323519 0.16329603 0.13189983 0.12201811 0.19340898 0.20593137 0.07195711 -0.14911617 0.34542835 0.49747908 0.5808488 0.6379756 0.6412002 0.1869553 0.17735589 0.1616992 0.5775918 0.61056614 0.62825644 0.639253 0.18336855 0.19489804 0.5120058 0.58229655 0.1369287 0.17931966 0.16513827 -0.22767727 0.031821445 0.16196182 0.32209724 0.22811368 0.14160354 0.03114117 0.1985872 0.37807643 0.40709412 0.4876979 0.52275467 0.33010226 0.0020981878 0.056249365 0.26401636 0.11498438 0.10589328 0.3351392 0.6048936 0.27159303 0.60569894 0.5755366 0.6928042 0.1629767 0.43669894 0.3407227 0.5500617 0.57587373 0.59329855 0.7051556 0.25912604 0.34890458 0.48622596 0.46616346 0.49360645 0.51149476 0.5174416 0.53545296 0.64938074 0.6085992 0.5816437 0.5007825 0.35161144 0.5234466 0.5472741 0.5529959 0.52704835 0.503392 0.46591324 0.57381463 0.6121367 0.6159518 0.5615431 0.66190565 0.68351924 0.6785447 0.6548252 0.6665323 0.6803316 0.67026466 0.6152941 0.52799857 0.6493323 0.6754199 0.6008234 0.4716919 0.6388711 0.6786214 0.5897621 0.47316942 0.6168996 0.6632846 0.68606937 0.64948034 0.3667727 0.6681332 0.6677779 0.6518761 0.42813838 0.38015163 0.48100716 0.49197 0.34973305 0.5410058 0.017303891 0.4730836 0.5095879 0.053061984 0.45065632 0.43418655 0.2430971 0.48542815 0.32270616 0.35092792 0.440719 0.3662008 0.31279066 0.3553082 0.2487199 0.22793442 0.25608665 0.2454648 0.25389948 0.14278415 0.052572593 0.40329063 0.20724015 0.18066365 0.38546756 0.19770049 0.44805735 0.42294955 0.42550886 0.14578974 0.17808388 0.2679329 0.0006774068 0.75603706 0.4048262 -0.021231726 -0.06159108 -0.051716365 0.72443557 0.77743006 0.76480496 0.3292321 0.02314242 -0.061204955 -0.056684494 0.7344725 0.41883877 0.071634255 0.051323086 -0.120736256 -0.0611597 0.6166276 0.6321265 0.42073303 0.38989615 0.06711964 0.031386748 0.0688242 -0.12322584 -0.039960876 0.43517986 0.38256788 0.33507085 -0.06996575 -0.040980436 -0.012181729 -0.005720094 0.017115943 -0.0146739 0.43034965 0.5143427 0.45321083 0.51002824 0.36752793 0.26199394 0.17490494 0.014624201 0.03929028 0.026949309 -0.177214 -0.05571935 -0.017571805 0.35221025 0.5705723 0.14650089 0.085070245 0.3998821 0.5714869 0.15625004 0.18709789 0.59294033 0.14471595 0.1690274 0.2509759 0.42563677 0.51376355 0.5157057 -0.018397748 0.05030325 -0.31414407 0.04319997 0.18746081 0.33116752 0.3944316 0.3955902 0.21249059 0.23661327 0.46541947 0.43535745 0.337467 0.3652627 0.2012363 0.13719058 0.47348917 0.50149345 0.49777853 0.6234683 0.53228474 0.40358418 0.14576663 0.27243748 0.25247568 0.664948 0.64259285 0.57171893 0.45347458 0.33327502 0.39014965 0.6259124 0.6692672 0.68924546 0.6230589 0.5028671 0.4690119 0.45911324 0.43370584 0.44811937 0.47581667 0.5323814 0.5845517 0.66521263 0.6309524 0.5323951 0.55765676 0.51838946 0.43685275 0.5102178 0.4828856 0.45124525 0.43675935 0.43962076 0.5065594 0.50336933 0.57365936 0.643185 0.6375201 0.55302787 0.61864704 0.6213894 0.62778765 0.6171242 0.6576368 0.663066 0.6304176 0.5060962 0.5702312 0.61100674 0.45570093 0.34521 0.5557663 0.59442556 0.39404735 0.3237446 0.53575355 0.56275284 0.57959735 0.533082 0.58037335 0.31627816 0.025220715 0.17033583 0.45859924 0.5193695 0.5685969 0.47829068 0.5061311 -0.05502473 0.23921466 0.5180541 0.5881822 0.5473814 -0.07925914 -0.20527992 0.29673728 -0.021737956 0.21048558 0.28602105 0.35242984 0.23982719 0.16175713 0.30848047 0.21995956 0.21819818 0.30195594 0.7068096 0.7031568 0.6636292 0.22395793 0.30628568 0.6618451 0.65893203 0.5999992 0.4250936 0.24516666 0.18815935 0.19721684 0.5664699 0.546398 0.56881845 0.5632888 0.22914125 0.18639225 0.122990705 0.48604518 0.47054785 0.12954679 0.10111192 0.34126836 0.27325338 0.048931397 0.106431365 0.11623589 0.07244878 0.08676261 0.20061196 0.17998321 0.22431193 0.0050123893 0.14634117 0.19138259 -0.016927987 0.026829788 0.11119804 -0.11639855 -0.051268727 -0.035174087 0.5967554 0.7143028 0.7209443 0.2469948 -0.093270496 -0.13697575 -0.049405374 0.35672203 0.60661554 0.72501516 0.35308865 -0.039464943 0.0014468506 -0.2734692 0.70406187 0.6675036 0.33489048 0.03434713 -0.20403384 0.63904446 0.5902485 0.3297099 0.3503761 -0.05442188 0.3588661 0.35786694 0.36779228 -0.06584768 -0.038514093 -0.040311523 0.43270943 0.32189226 0.44991413 0.49908227 0.21446721 0.13602811 -0.09732761 0.4641866 0.45396146 0.44891796 0.49816483 0.5108221 0.52217996 0.46681672 0.27237472 0.37713987 0.42003086 0.12172149 0.5081495 0.12343292 0.20915878 0.14374301 0.28324658 0.3806463 -0.0031484105 0.07628153 0.050734922 -0.08996108 0.20618483 0.31286126 0.36107302 0.40848586 0.46439826 0.6707827 0.4523542 0.30154562 0.08209635 -0.09626009 -0.0026155948 0.13011435 0.30887115 0.40575227 0.45695886 0.4791435 0.44889516 0.4721133 0.5245246 0.55428946 0.26546875 0.436329 0.4433471 0.4492827 0.62960374 0.30279788 0.5634333 0.61019903 0.62567365 0.42849404 0.43119583 0.45419043 0.5034978 0.57479084 0.63472784 0.63093513 0.5866407 0.51617604 0.2487444 0.25797012 0.3659578 0.3070804 0.3644698 0.45595673 0.44324732 0.42219192 0.4141993 0.40717435 0.39288354 0.43818742 0.590329 0.35149115 0.57708514 0.6343846 0.639779 0.4908324 0.5265173 0.50944734 0.5342077 0.5267728 0.5574037 0.51346076 0.5163318 0.25619632 0.45507306 0.5194058 0.48012394 0.5595211 0.5710758 0.43323335 0.5720442 0.5134595 0.42099497 -0.08807373 0.396807 0.32366195 0.29310012 0.10915387 0.30368155 0.1697329 -0.27328452 -0.19810835 -0.011859529 0.25076938 -0.306687 0.03378399 0.039373808 0.16752547 0.046874873 0.06799559 0.7464672 0.7409797 0.7080764 0.73124635 0.73056585 0.6618101 0.56565154 0.06908415 0.13842961 0.6586188 0.6873309 0.23352885 0.058027208 -0.06925107 0.1384705 0.4816245 0.5530169 0.59812737 0.062483117 -0.33605593 -0.3894084 0.07874182 0.16425842 0.25578082 0.4076739 0.5123569 0.46666393 0.4088 0.14905247 0.22289279 0.22967692 0.42879516 0.49154103 0.52554655 0.5196351 0.37515926 0.32793394 0.09953304 0.11177708 0.45686913 0.4806731 0.48863187 0.2674104 0.23249176 0.101853214 0.10257059 0.06355196 0.058063034 0.031236254 -0.110895805 -0.08426553 0.1893644 0.330796 0.37902898 0.2812592 0.2626139 0.18196566 -0.01855462 0.010488763 -0.061831705 -0.046749145 -0.02881552 0.19911769 -0.085728124 0.2364177 0.19222437 0.15307589 0.06502359 0.12847163 0.04854195 0.07616112 -0.123766825 -0.13167062 -0.04718601 0.53410304 0.6465884 0.68862975 -0.16074519 0.11148819 0.1243961 0.08303927 -0.028577562 -0.1591927 0.63424766 0.619727 0.19657363 -0.073326826 -0.116926804 0.13229793 0.13170555 0.07624155 -0.20579809 0.61310565 0.2965095 -0.042077675 -0.06671962 0.10085218 0.04832543 0.0037398748 0.4763914 0.23450288 -0.076757714 -0.100762315 -0.3595988 0.27472833 0.31642103 -0.08554903 -0.14065881 -0.2151655 -0.4646403 -0.5343462 0.4045446 0.51070774 0.51594156 0.49709266 -0.06998708 -0.09413626 0.4074006 0.3886767 0.4604233 0.49935395 0.5186433 0.4929127 -0.026789792 0.3658924 0.3570159 0.36055794 0.14523917 0.26708168 0.086513154 0.33781275 0.47558177 0.7727984 0.7070261 0.60524446 0.32825017 0.051559184 0.01799656 -0.1337589 0.05746552 0.5324272 0.8202826 0.77494943 0.6846107 0.41883346 0.13047005 0.3617335 0.36362147 0.51682717 0.5964264 0.6651174 0.8420261 0.79420197 0.68722236 0.36822802 0.37189096 0.46548715 0.4913916 0.53360575 0.63728034 0.70621467 0.5567968 0.51619434 0.35722002 0.25060004 0.357185 0.40503013 0.43522048 0.56713676 0.54743505 0.22627044 0.42741245 0.58943737 0.57704556 0.27705163 0.10907939 0.044661723 -0.046363562 -0.15266058 0.36488885 0.4062932 0.4060616 0.37701523 0.33316228 0.5885813 0.56724596 0.4722709 0.3748364 0.5915642 0.8001499 0.8519532 0.7746912 0.8480917 0.8638789 0.38729537 0.42560107 0.4120894 0.3867953 0.40479884 0.39879516 0.11149563 0.46032435 0.28875133 0.32461494 0.48120973 0.50105804 0.51417214 0.26667958 0.3402991 0.099546336 0.14936043 0.24919882 0.13082993 -0.4634891 -0.36287504 -0.1765198 0.74352723 0.71798766 -0.18611565 -0.009942694 0.73358977 0.75655514 -0.11401234 0.14469002 0.6720808 0.69671524 0.24858499 -0.09144083 0.46813658 0.43144482 0.41845456 0.60440063 0.5734236 -0.21065481 0.42891753 0.43358707 0.5099754 0.5523714 0.56696427 0.53710353 0.3582546 0.47165644 0.5459609 0.551309 0.52731 0.37269157 0.0038021877 -0.10133243 -0.16151372 0.09825455 0.45198447 0.25879106 0.2738605 -0.029812053 0.043802842 0.04695268 0.28716034 0.17021777 0.27184275 0.22194868 -0.017620206 -0.12121244 0.0068904534 0.03573705 0.20877141 -0.12961695 0.056429423 0.5399338 -0.2290635 -0.08726148 0.36679924 0.4940002 0.14306186 -0.08462056 -0.059938163 0.005403368 0.16024208 -0.24010256 -0.14651555 -0.087978266 -0.15228234 -0.38237163 -0.036194414 0.3130951 0.46348444 0.2311266 -0.10675056 -0.157415 -0.29321483 0.3774253 0.46552968 0.4958862 0.491429 0.16238266 0.34560364 0.36072177 0.4137658 0.46240833 0.42022085 -0.1446023 0.32957542 0.32157862 0.24703243 -0.35497084 0.29098368 0.29878616 0.15015891 -0.11382967 0.6702409 0.50109494 0.12650228 0.4592428 0.46494126 0.7676506 0.7328054 0.6239922 0.5839597 0.8599117 0.102833115 0.23159748 0.22757718 0.13310388 0.6810963 0.8508998 -0.37165096 0.090508826 0.061234638 0.2677949 0.41089934 0.47435367 0.5171763 0.5902573 0.69459236 0.7108619 0.7727567 0.70444345 0.5777514 0.43239307 -0.14083213 0.5980819 0.56812704 0.31662655 0.15882093 0.36556315 -0.17973176 -0.17605244 -0.16289963 0.35316262 0.15251228 0.45185715 0.22377966 0.12296736 -0.07419719 -0.0865546 -0.07091709 0.36211497 0.3606261 0.33585832 0.2668519 0.5709992 0.55102533 0.45987093 0.35408908 0.14175618 0.65590066 0.7539803 0.7978431 0.8130413 0.8056395 0.6351526 0.78100836 0.8402927 0.85865724 0.8360365 0.6443863 0.8616594 0.6804358 0.77086854 0.7752576 0.18559787 0.30194342 0.27206162 -0.26999632 0.19826522 0.030314174 0.24246666 0.25051057 0.3565557 0.23589465 0.19281155 0.066308424 0.013261225 0.2786253 -0.007868513 0.06220692 0.45704064 0.64481485 0.73715234 0.8336731 0.16129564 -0.17325169 0.2783204 0.4394169 0.5888835 0.8364304 0.8580835 0.8484477 0.22678617 -0.30384725 0.43361932 0.5783451 0.7732739 0.83475924 0.1872258 -0.0005219281 -0.4832083 -0.40318993 -0.46330625 -0.22073883 -0.3461244 -0.06785518 0.7103751 0.71252936 0.71604055 0.5706527 0.48989743 -0.23838776 -0.0008610487 0.023444794 0.67423 0.6952838 0.2797589 -0.05612402 -0.05885677 -0.041659027 -0.27470252 0.35104042 0.3328222 0.3559087 0.6268282 -0.14165697 -0.14031446 -0.094352126 0.20615444 0.3749436 0.47846645 0.5450846 0.5568074 0.54063934 0.5434425 0.46654493 0.47469145 0.4176444 0.3539049 0.013304442 0.4264639 0.24147362 0.25513336 -0.2441033 0.17594713 0.27671343 -0.15027198 0.07131281 0.27832687 0.25250092 -0.041229844 0.28468505 0.07860533 -0.08873285 -0.37096113 0.3282891 0.011730231 -0.10092601 -0.06297025 -0.057708666 -0.11052037 -0.08508834 0.28556767 0.40797126 0.44227305 0.06254873 0.30434403 0.35596684 0.3961206 -0.048882335 0.35187754 0.30294314 0.3218963 0.32551056 0.29741803 0.30340385 0.3409436 0.33998358 0.6275476 0.46536866 0.47217414 0.75229347 0.5641783 0.5663214 0.8298243 0.027095653 0.0059933513 -0.05895947 -0.16129434 -0.12707908 0.2938897 0.6561127 0.84279406 -0.053783745 0.40262264 0.44949263 0.57473004 0.678462 0.6774026 0.7445195 0.6136509 -0.14579488 0.19367397 0.47507727 0.50188535 0.53444886 0.5636076 0.48025554 0.28658062 0.21687092 0.02197934 -0.107393906 -0.16736907 -0.23065552 -0.39600122 -0.1716519 0.11825584 0.26616767 0.29704118 0.33497602 0.21847908 0.030092452 0.008095486 0.26574457 0.31071782 0.30247256 0.3299109 0.316373 0.48675328 0.51669836 0.45566756 0.23914452 0.15045975 0.40995157 0.5929702 0.6830859 0.7311033 0.7461616 0.6338946 0.6927235 0.7631316 0.7710035 0.7686541 0.28868368 0.364838 0.52464193 0.777758 0.27537566 0.40988976 0.76848316 0.22953412 0.18817477 0.18405339 0.7545726 0.74651074 0.26536623 0.24099588 0.1881992 0.27426732 -0.14185399 -0.103727445 -0.07270236 0.31458902 0.27663282 0.044226646 0.057707112 0.052935507 0.29991663 0.24633397 0.10002576 0.07199865 -0.0044278353 0.23063746 0.36118835 0.42376837 -0.14157552 0.0646022 0.2691122 0.44938666 0.49458975 0.6109472 0.6799525 -0.009063877 0.27624607 0.70437527 0.77775705 0.79535913 0.15594326 0.18296805 0.827836 0.22676098 -0.08704636 0.24376509 0.38097996 0.41395426 0.78227437 0.8055068 0.23804362 0.21353287 0.06540927 -0.32272464 0.4345976 0.52954733 0.71596646 -0.32115594 -0.41422305 -0.31389165 0.67897046 0.5910693 0.45322728 0.39654475 0.34934497 -0.3269122 -0.39988852 0.005136125 0.6673637 0.66822404 -0.026506886 -0.025478706 -0.011839107 0.015548535 0.07585406 0.27757168 0.27368528 -0.12165727 0.6123563 0.60717964 0.38822526 0.358768 0.48464555 0.49837422 0.51878214 0.45015544 0.36880803 0.32414263 0.1621505 0.2635097 0.09384982 0.28647196 0.051161654 0.27945423 0.25683105 0.22022665 0.20777348 0.13603772 -0.07516278 0.28080407 -0.10774171 0.1419498 -0.073789835 -0.077121936 -0.05061858 0.13297626 0.16388828 -0.05804518 -0.103401884 0.22170122 0.30642268 0.32289323 0.2706288 0.31714118 0.26496112 0.33254775 0.19902574 0.34377947 0.17010528 0.3656552 0.47429308 0.40828535 0.6468438 0.5387031 0.7671658 0.7180573 0.57889426 0.6208153 0.77304816 0.05347293 0.20098057 0.2209276 0.3131964 0.32450932 0.4956637 0.53356683 0.58104414 0.60317665 0.6489308 0.72918856 0.5748656 0.48311532 0.15322906 0.24902347 0.2962385 0.4641239 0.4767865 0.54751563 0.44376287 0.36864102 0.030171942 -0.3351714 -0.37928903 -0.3498578 -0.16070181 -0.3315451 0.36817592 0.30791983 0.34480578 -0.082610376 -0.08273412 -0.013214853 -0.14923377 0.050723847 0.24236026 0.35032427 0.39537692 0.3817301 0.3621683 0.019921249 0.02040216 0.032793604 0.11225611 0.3537194 0.35365632 0.42395282 0.54251796 0.52712804 0.5419357 0.5705293 0.59842604 0.5857836 0.5495195 0.5176718 0.62940574 0.6767127 0.7030631 0.3763199 0.3559407 0.5012132 0.6992818 0.7147545 0.35231775 0.3560081 0.6995051 0.30335218 0.6919693 0.25562108 0.2571354 0.54565454 0.24716848