# vtk DataFile Version 2.0
Really cool data
ASCII
DATASET POLYDATA
POINTS 6334 float
117.38653 19.922272 104.67346
117.367874 19.899265 105.23403
117.42753 20.022364 106.02663
117.35256 20.706877 104.19234
117.30761 20.515364 104.46273
117.26424 20.44008 105.359436
117.42124 20.424381 106.001045
117.332756 21.11591 104.61138
117.322426 21.19238 105.222946
118.37956 13.097307 111.34147
118.351006 14.009661 110.02345
118.17312 13.879297 110.65168
118.182594 13.670936 111.439644
118.23765 13.618254 111.86199
118.16338 14.753769 109.821014
117.95644 14.563313 110.734924
117.79097 14.756318 111.587875
117.94085 14.852554 112.340126
118.239365 14.982845 112.79536
118.151215 15.351217 109.7394
117.86165 15.468778 110.73349
117.66723 15.311745 111.69186
117.81266 15.533431 112.385956
118.096405 15.492941 112.77624
117.99287 16.15263 110.42803
117.91803 16.325613 111.43254
117.96888 16.166662 112.32201
118.46734 17.094568 109.35642
118.419785 17.067837 110.196594
118.34065 16.946836 112.22923
118.17001 19.286741 104.17552
118.02634 19.140558 104.63951
117.86073 19.151525 105.60331
117.89471 19.22458 106.129875
117.916824 19.772947 103.99855
117.54767 19.73116 104.61092
117.4831 19.63127 105.244125
117.83952 19.612461 106.3333
117.6749 20.474068 103.9544
117.64168 20.554865 106.44378
118.33027 20.872992 107.35465
117.79571 21.160633 103.91489
117.509895 21.348587 104.461586
117.54576 21.400213 105.64369
117.76261 21.324339 106.20565
118.29793 21.81189 106.810776
117.84108 22.286549 104.84207
117.861694 22.457834 105.42273
118.28497 23.12159 104.733116
118.0695 22.974682 105.3084
118.184326 22.881573 106.004166
119.42668 7.016379 97.48125
119.42309 7.079942 98.01043
119.42014 7.407891 97.63606
119.342186 7.665576 98.464645
119.40187 8.095912 97.62147
119.39519 8.390871 98.41901
119.15885 12.399541 111.75693
119.03186 13.0575075 109.99241
118.84073 12.751835 110.755936
118.77018 12.737233 111.505714
118.89183 12.936204 112.080574
119.21216 13.9020195 109.37706
118.757675 13.857797 109.732605
118.65663 13.540365 112.28319
119.040504 13.813921 112.66634
118.839584 14.886673 109.055405
118.574326 14.261293 109.544136
118.63661 14.855255 112.92726
118.61063 15.360624 109.0549
118.49944 15.477926 113.01121
119.217865 16.74844 107.99965
118.68945 16.65213 108.7082
118.56249 16.260437 112.85698
119.030266 18.464527 105.08607
118.89732 17.542578 107.958176
118.66355 17.463648 108.60837
118.83452 17.689407 110.25961
118.913246 17.650333 111.26803
118.52809 16.935457 112.23687
118.69118 19.108278 104.05512
118.70741 18.81497 104.492584
118.35726 18.81031 105.61004
118.70103 19.141668 106.6599
119.01915 18.197838 107.73512
118.85717 18.633156 108.69307
118.73499 18.459463 109.26813
118.76189 18.477766 110.67862
119.044624 18.886938 113.097916
118.42336 19.669308 103.699104
118.791374 19.955368 108.09439
118.80276 19.35816 109.05964
118.78799 19.416609 110.78432
118.678055 19.650078 111.584404
118.706085 19.609262 112.389854
118.99617 19.626497 113.31361
118.37721 20.367512 103.55483
118.58701 20.604288 107.54612
118.916756 20.350403 110.41092
118.86823 20.398418 111.7395
118.813484 20.162642 112.576546
119.10179 20.290203 113.30349
118.52025 21.363047 103.63001
118.47011 21.666039 107.05811
119.1681 21.176554 111.46792
119.13956 21.055885 112.40632
119.26272 22.856565 97.908676
119.29311 22.666153 98.51049
119.203255 23.020878 99.573105
118.76268 21.930555 103.60113
118.38602 22.779491 106.40464
118.61452 22.352455 106.90486
119.29512 21.893644 108.1162
119.07831 23.750343 97.897766
118.9171 23.669771 98.53268
118.93438 23.819841 99.39756
119.2166 23.286594 99.94681
118.56122 23.185326 104.51411
118.45616 23.484488 105.35116
118.56276 23.043766 106.34256
119.07767 24.634832 97.83934
118.802635 24.478174 98.61539
118.82729 24.692728 99.342804
119.04856 24.504372 100.11738
118.72789 23.679348 105.59133
119.07161 25.121212 98.0469
119.01356 25.29188 98.53789
119.022354 25.265833 99.40568
119.16707 25.219557 99.99939
119.21444 25.755104 98.915764
119.27318 25.697197 99.567856
120.182594 4.1171975 101.8415
120.14591 4.2433267 102.58075
119.970024 4.654206 101.748436
119.882645 4.7561226 102.365036
120.11246 4.8166056 103.35699
120.152626 6.1033163 96.136795
120.021614 5.9523726 96.540794
119.98773 5.7260165 97.26317
120.07391 5.820464 98.29626
120.11989 5.7350817 100.61706
119.83751 5.5882645 101.6353
119.78219 5.51939 102.49792
119.97552 5.4219 103.26598
120.295074 5.390381 103.94011
120.075386 6.5013566 95.98805
119.69442 6.581954 96.62948
119.62973 6.4785113 97.113815
120.07096 6.7034245 99.352066
120.2794 6.7303557 100.32114
120.00724 6.459401 101.75137
119.90165 6.3825 102.583
120.20467 6.4786944 103.34108
119.85262 7.0214734 96.21804
119.69226 7.305226 96.566154
119.48051 7.4346924 98.571815
119.69845 7.729767 99.261444
120.2297 7.527099 101.685005
120.30778 7.659528 102.5185
120.35403 7.2143497 103.166595
120.12523 8.367263 96.24487
119.81988 8.483599 96.71056
119.52125 8.409304 97.51144
119.49215 8.412353 98.75616
119.68975 8.409423 99.126305
120.295074 8.385854 100.47256
120.428375 8.378193 101.442474
119.84259 8.897599 96.84925
119.67644 9.069355 97.63895
119.57095 8.924707 98.30765
119.80977 9.104633 98.887115
120.333786 10.617347 96.847725
120.364265 9.998126 97.514114
120.45019 11.436787 96.738335
120.4603 11.249236 97.01096
119.56034 12.287857 110.85538
119.49618 12.304884 111.387665
119.4385 12.819974 109.88782
119.42669 12.434693 110.5144
119.55992 12.73837 112.19423
119.59152 13.904743 109.11304
119.34552 13.305481 109.57638
119.61765 13.560898 112.75991
119.46016 14.738672 108.760475
119.64469 14.48299 113.00305
119.68632 15.82668 108.25464
119.69352 15.66281 108.53027
119.43081 16.627209 107.90679
120.008095 18.162308 106.93425
119.497856 17.509748 107.56995
119.94758 17.799292 113.169586
119.28031 19.007353 104.05013
119.249504 18.658882 104.49882
119.25629 18.590801 106.35819
119.2991 19.503916 103.68725
119.52955 19.636532 113.801094
120.22247 21.251385 98.98751
120.21426 21.08787 99.136375
119.58681 20.432533 103.26593
119.40013 20.65178 113.44303
119.51871 20.231133 113.76331
120.131256 21.915995 96.90289
119.83163 21.792532 97.65597
119.536995 22.201532 98.055916
119.88614 21.642622 99.28324
120.27886 21.402645 100.45554
120.39303 22.031963 101.45588
119.50973 21.371809 103.26133
119.526085 21.526249 110.67778
119.75162 21.73759 112.78261
119.72551 21.342049 113.26446
119.98678 21.048794 113.747795
119.79552 22.550232 96.945885
119.572 22.474306 97.34529
119.54289 22.321926 99.647766
119.719315 22.499165 100.1555
119.89557 22.832697 101.04961
120.291374 22.386414 103.11986
119.73264 22.576874 103.664055
119.846214 21.826818 110.028366
120.13105 22.346333 111.18758
119.86775 22.106632 112.442
120.09542 22.096067 113.16273
119.789154 23.445581 96.98783
119.420044 23.848782 97.353424
119.9987 23.742579 101.286575
119.434326 24.619019 97.46513
119.39893 24.356148 100.51331
119.90983 24.433418 100.95229
119.155624 23.837147 104.76606
120.33077 26.232838 91.92269
119.88413 25.271936 97.39021
119.52056 25.398079 97.71967
119.35219 25.608746 98.181335
119.48009 25.374357 100.28297
119.788765 25.152287 100.637245
120.14721 25.876875 105.823135
120.23139 25.458096 106.488754
120.179306 26.81338 91.81731
120.12522 26.74949 92.33857
119.99159 26.103357 97.96008
119.62408 26.071285 98.6655
119.69583 26.024197 99.35601
119.76685 25.90953 100.01653
120.35158 26.34707 105.18058
120.20414 26.191929 105.62755
120.15302 26.42907 106.530556
120.310905 26.615814 107.11774
120.17541 27.326168 91.73723
120.14725 27.392664 92.416565
120.26834 27.258324 92.97875
120.27408 26.889294 105.97315
120.31622 26.971745 106.51876
120.35265 26.882923 106.96388
120.280365 27.831059 92.49625
121.374954 1.7995952 101.35718
121.28476 2.1096509 102.087654
121.25906 2.6953483 100.14825
121.12834 2.5172172 100.79327
120.99025 2.4998643 101.34363
121.20041 2.744779 102.426056
121.26501 2.90828 103.01015
121.365746 3.3949058 99.675674
120.807396 3.4594922 100.59261
120.70952 3.4129517 101.50525
120.52731 3.6212666 102.443245
120.810715 3.7815974 103.4839
120.812515 5.1863027 96.89874
120.68184 5.144512 97.23523
120.72726 4.9066133 98.453476
120.51884 4.390064 103.60033
120.72832 4.6521 104.065994
120.4958 5.895196 96.029655
120.34409 5.523794 96.75985
120.43896 5.7315803 98.96154
120.54579 5.652949 104.15275
120.55051 6.592737 95.678055
120.38652 6.5445185 103.71789
120.75927 6.3398 104.09837
121.43672 6.302624 110.042206
120.80001 7.3644724 95.49491
120.66431 7.2524714 103.52257
121.119804 7.6361356 103.77956
120.48917 8.526099 96.04467
120.56948 8.264169 102.48058
120.81684 8.026775 103.17954
121.224304 10.084685 90.82518
121.16265 10.011538 91.32526
121.15309 10.118284 92.35739
121.1116 9.753197 95.03048
120.63991 9.76318 95.8651
120.41289 9.54918 99.49789
120.77775 9.516319 100.49823
120.9064 9.46888 101.2549
121.10392 8.869751 102.391045
121.15102 8.658677 102.85704
121.17906 10.798203 90.23577
121.06881 10.588704 90.71093
120.849724 10.735966 91.41058
120.95006 10.566515 92.3932
121.18735 10.58928 94.89406
120.73029 10.574111 95.683334
120.631805 10.014951 96.239975
120.506485 10.171558 97.25241
120.848656 10.666477 97.91344
121.10555 9.79218 101.17662
121.30139 11.250912 90.12145
120.92367 11.432909 90.76666
120.78723 11.266924 91.37991
120.83863 11.337779 92.33016
121.29705 11.461155 93.460075
121.166695 11.342812 94.6718
120.6636 11.325913 95.84159
120.5487 11.571023 96.52602
120.60329 11.61429 97.149666
120.9103 11.43182 97.98041
121.34727 10.945517 98.83209
120.61615 12.368341 110.459984
120.259514 12.2844 111.26149
121.334305 12.467771 90.13624
121.128334 12.53221 90.59241
121.02256 12.407264 91.41479
121.14865 12.260607 92.397964
121.43693 12.252897 94.65672
121.10064 12.348532 96.05957
120.70784 11.923126 96.513306
120.97154 12.196056 97.28664
120.30737 12.685132 109.71478
120.21989 12.720857 112.40479
120.74889 13.217014 112.60381
121.28577 13.036041 90.6041
121.20593 12.89129 91.39414
121.22488 12.8261595 96.61952
[...]
POINT_DATA 6334
SCALARS features_00 float 1
LOOKUP_TABLE default
0.71636045 0.6928479 0.6364405 0.72175837 0.7171301 0.67370665 0.6207471 0.68601465 0.6371576 0.75606036 0.5756253 0.6616015 0.71971667 0.7159788 0.5136754 0.6280626 0.66567814 0.6565424 0.64303696 0.4787358 0.5755836 0.64561987 0.63470393 0.6345074 0.4648546 0.5294702 0.60213685 0.30630702 0.28778845 0.48150304 0.71565217 0.7062688 0.6593694 0.6167181 0.7304386 0.72017705 0.6925949 0.5993028 0.7295168 0.5475572 0.37198144 0.7052574 0.6812736 0.57365555 0.5047326 0.40688628 0.5794299 0.5152348 0.52224064 0.50377625 0.4695343 0.49881378 0.45342195 0.4637486 0.40346897 0.42281646 0.38196963 0.7851553 0.6541579 0.756495 0.7803662 0.75005543 0.5001807 0.5458632 0.7036987 0.65371025 0.42475247 0.5017959 0.61765474 0.41508448 0.5945129 0.328509 0.36213455 0.54919195 0.58216065 0.2667338 0.2858003 0.19221298 0.23221578 0.46984076 0.6714883 0.6581154 0.6245856 0.46501896 0.17646366 0.1748296 0.16102208 0.13001418 0.45435244 0.70409656 0.18436417 0.06348927 0.17328662 0.30603155 0.41097957 0.49410978 0.71088636 0.34617418 0.2668475 0.4031027 0.46611628 0.49157923 0.6476668 0.38057947 0.4127878 0.4578489 0.47111398 0.46713668 0.49112105 0.5429672 0.4317617 0.37198758 0.19547823 0.52812874 0.56672746 0.60758984 0.5194744 0.52527165 0.478716 0.41065586 0.5341586 0.6162928 0.64250934 0.60897076 0.44161636 0.5332583 0.56706893 0.612136 0.5999958 0.5415231 0.5742723 0.4034772 0.4618675 0.4065312 0.47394 0.5342231 0.57577753 0.5737208 0.5466963 0.4827534 0.24819264 0.41216183 0.50015956 0.53651166 0.5446491 0.57476485 0.5679344 0.5529841 0.31723 0.23188531 0.38936424 0.463139 0.45402396 0.5556447 0.52495825 0.3988215 0.34460062 0.32873487 0.34782863 0.37824765 0.39434403 0.39102575 0.4022644 0.36407152 0.33742684 0.25262552 0.27602828 0.34135705 0.34095627 0.34717822 0.30121103 0.26673228 0.273364 0.28162616 0.28779703 0.79084873 0.79714143 0.6732779 0.76789695 0.7362728 0.47086853 0.5774432 0.60836387 0.40385866 0.5008438 0.36773807 0.37354562 0.32864437 0.14656465 0.25290415 0.3514813 0.57903945 0.5725217 0.37448442 0.5977414 0.48746884 0.32426336 0.31225675 0.6022698 0.47822285 0.48517242 0.34358627 0.364686 0.41866893 0.36398947 0.3070161 0.2893386 0.56159866 0.34289438 0.42454937 0.4386773 0.431972 0.38735718 0.4153352 0.40487838 0.39233434 0.43364397 0.21720327 0.38456625 0.16063279 0.293762 0.4015019 0.3900055 0.41420293 0.4749198 0.48691583 0.47110698 0.5702852 0.5077296 0.44168514 0.67489314 0.37835503 0.44640595 0.48815197 0.5624974 0.5186762 0.50306535 0.5569357 0.77844465 0.76780903 0.3609688 0.45819256 0.5036204 0.5203064 0.4937386 0.51443636 0.56855065 0.60468054 0.8169983 0.8070084 0.7454223 0.5585168 0.5884248 0.60852265 0.7915775 0.48520672 0.47444728 0.36382627 0.4248726 0.4416799 0.441605 0.45644796 0.24976423 0.34900862 0.40087926 0.428666 0.48280525 0.47322735 0.46811777 0.32779196 0.52082753 0.5440817 0.55878794 0.5425998 0.37011546 0.52504164 0.5594698 0.4336365 0.43472248 0.9124051 0.51760775 0.34560722 0.26413292 0.3415321 0.29877305 0.28703696 0.4992603 0.49063885 0.43281704 0.17298593 0.20601563 0.21367572 0.22354916 0.25091878 0.24668159 0.23895752 0.5360577 0.53633744 0.5428724 0.4633357 0.20399919 0.22313434 0.22547719 0.27143443 0.2840621 0.24879307 0.55744934 0.5865853 0.5628443 0.45166117 0.10412389 0.14777847 0.248054 0.27643156 0.292912 0.28978464 0.22121753 0.7444678 0.77915573 0.5852671 0.59281206 0.52247596 0.2834775 0.0704878 0.25078267 0.28060094 0.29521054 0.6866598 0.67305464 0.50286883 0.55661803 0.47069383 0.2628128 0.46790913 0.48123524 0.4041223 0.26268926 0.28656054 0.25836796 0.29401633 0.19786096 0.07724793 0.37162417 0.35185087 0.24049267 0.24251826 0.2507239 0.3515556 0.43072972 0.20965074 0.24451646 0.24589688 0.25588846 0.27188766 0.2702629 0.0818269 0.42533213 0.23918104 0.34552753 0.18746865 0.32520434 -0.07022899 0.026090406 0.35466644 0.20746572 0.30080643 0.20439604 -0.2979458 -0.09767693 -0.013967194 0.060249202 0.33244604 0.34497237 0.31323326 0.4174278 0.54016685 0.6106314 0.6120249 0.57857156 0.18775383 0.38349608 0.3777777 0.5370853 0.7549621 0.7255933 0.6457214 0.35279256 0.1404198 0.40021306 0.46160305 0.52186793 0.61595976 0.59974235 0.7964327 0.81522083 0.6486 0.39455932 0.17831497 0.25796747 0.28239143 0.33056265 0.47243938 0.5513029 0.59792554 0.63194895 0.631643 0.7329834 0.75733393 0.75372386 0.7132671 0.4121975 0.39188147 0.5583065 0.6139492 0.6795188 0.67456067 0.6264911 0.6086179 0.6161917 0.5957429 0.59983176 0.47821873 0.5083958 0.37648484 0.44065216 0.50934845 0.52720106 0.17139448 0.30740213 0.46352336 0.49248403 0.50637835 9.305775e-05 0.1879664 0.51389706 0.40455174 0.44985467 0.21936435 0.5366216 0.49772656 0.52369463 0.7897713 0.8541008 0.90529144 0.9024509 0.4933604 0.5201255 0.4468553 0.67611027 0.8686427 0.9171938 0.8919432 0.46579486 0.28517568 0.10721463 0.48903325 0.64327854 0.83143884 0.8701503 0.7928697 0.39930633 0.39292192 0.22828421 0.058026075 0.20397715 0.44815648 0.43829915 0.43574154 0.39178813 0.26868677 0.22308281 0.45776922 0.19341165 0.19609872 0.2408746 0.56458926 0.7245795 0.544363 -0.0375131 0.1874349 0.25523922 0.21862113 0.6398115 0.59863496 0.5197358 0.5300476 0.072349995 0.0011347756 0.010545836 0.17273247 0.23115076 0.42207518 0.4379856 0.2848695 0.20000915 0.072201714 0.06403867 0.0809051 0.24370483 0.15736699 0.32774585 0.31034443 0.24307424 0.2006115 0.08350009 0.22990908 0.040745147 0.7013111 0.39462018 0.35052395 0.2827789 0.18764578 0.12246232 0.06939097 0.09265263 0.6349729 0.35197118 0.2536522 0.18959513 0.12705484 0.1302707 0.21649885 0.15910414 0.1935231 0.091697626 0.24012952 0.17147253 0.2192006 0.20649084 0.2116125 0.22832459 0.22021063 0.5606018 0.6534506 0.65403986 0.09760334 0.117579065 0.090367265 0.22819228 0.18202244 0.154755 0.41400942 0.58586586 0.6645235 0.6607845 0.086043134 0.11124376 0.18060848 0.17266712 0.23169702 0.49017859 0.59043187 0.65493476 0.64363533 0.07883212 0.14118904 0.14859192 0.39897525 0.46491593 0.5546292 0.094689526 0.036150545 -0.19671172 -0.14869535 -0.052974805 0.033086233 0.20966367 0.26905194 0.42046356 0.2702303 0.21785429 0.26837665 0.30179232 0.06024506 0.17370251 0.28245834 0.4196985 0.3730046 -0.08576057 0.22363907 -0.032367855 0.28246543 0.4838209 0.5454289 0.0025013238 0.28500998 0.58983994 0.57844275 0.55129254 0.3245035 0.09708358 0.41021255 0.39432344 0.6366235 0.6012814 0.6765107 0.5965766 0.39793566 0.32873526 0.4668482 0.4949038 0.49533957 0.47510457 0.48402786 0.59833103 0.6050693 0.6085206 0.5968898 0.62674975 0.59107137 0.5724454 0.59100455 0.54084444 0.5780405 0.57430685 0.5100988 0.6071547 0.60502887 0.6015036 0.66585994 0.6572172 0.63826525 0.63405466 0.66926515 0.67206377 0.6421818 0.59007895 0.6208062 0.6720623 0.6533656 0.5985003 0.55424225 0.63622475 0.6620304 0.63229126 0.5710004 0.5414575 0.6469806 0.60975474 0.5615832 0.2544369 0.45486766 0.4741537 0.52504295 0.54067516 0.08284435 0.09007253 0.497796 0.22563559 0.41341382 0.7588945 0.80941314 0.35324425 0.68166065 0.69559646 0.7614793 0.8445057 0.86021495 0.3570981 0.5270086 0.62376267 0.8215858 0.7687398 0.29808757 5.6013465e-05 0.19097273 0.39621687 0.76573956 0.31109083 0.36975074 0.33478904 0.011932939 0.0058876052 0.33356372 0.50654286 0.54995555 0.63293594 0.27499467 0.35305843 0.12972498 0.011872195 0.07867513 0.33820838 0.5255223 0.40224642 0.062363967 0.39801306 0.17484078 0.4196906 0.48926523 0.20753203 0.14765207 0.52077997 0.4355163 0.20044129 0.40171766 0.47045773 0.2228334 0.39828643 0.3820573 0.055939794 0.0313636 0.22349276 0.13173756 0.6965964 0.69270456 0.31148374 -0.008358955 0.040947672 0.06673212 0.095112056 -0.20515165 0.4936459 0.5684183 0.7116462 0.7052312 0.3859881 0.4052319 0.05207713 0.066758074 0.09155685 0.045007966 0.44088972 0.5570092 0.6674579 0.35373974 0.3479064 0.10727338 0.095273346 0.08899421 -0.053272538 0.34638494 0.3366751 0.32515448 0.26790145 0.09859195 0.122483075 0.097644374 0.1325035 0.024092175 0.026149672 0.04571411 -0.0046604685 0.4520656 0.54701555 0.5181814 0.2749033 0.1845159 0.11439181 0.030774936 0.06722103 0.15749177 0.17950493 0.2067991 0.0023450032 -0.0070532374 0.054941 0.038324535 0.55957735 0.53721046 0.14946665 0.10047216 0.18100102 0.61970055 0.58890605 0.076260254 -0.09943591 0.29525638 0.5885482 0.5885204 0.038764507 0.10928012 0.37430233 0.37141567 0.53386855 0.06077966 0.08239534 0.12977979 0.29979378 0.34232464 0.37041205 0.4455259 -0.15482259 0.40755332 0.36840805 0.3701566 0.40940616 0.425569 0.49791944 0.33835542 0.11513655 0.115137324 0.05506128 0.40416038 0.4271469 0.3956332 0.5692303 0.5311611 0.48122606 0.28439373 0.63257205 0.626113 0.6103797 0.58040655 0.561132 0.27603775 0.3159067 0.58463883 0.6657238 0.6493217 0.61859393 0.5736557 0.5419777 0.40001795 0.40117705 0.4235328 0.5247115 0.5555152 0.67416185 0.6571151 0.5037902 0.4670295 0.49031025 0.480582 0.52016366 0.6002847 0.60445935 0.4256345 0.44753605 0.49987185 0.5075889 0.5977491 0.6065115 0.6122786 0.6072717 0.5876577 0.611254 0.6467856 0.64333797 0.6197299 0.65255904 0.6433307 0.5974356 0.52117455 0.58271194 0.64691806 0.48740798 0.53395563 0.50515825 0.53067625 0.573583 0.5942017 0.5732141 0.3648134 0.4739729 0.567293 0.5886901 0.5353968 0.60005504 0.25092766 0.27772364 0.4956994 0.45934534 0.48911548 0.49623585 0.24123712 0.4065107 0.014427297 0.3807808 0.4450678 -0.11236819 -0.117830455 -0.054190442 0.5066918 -0.033244293 -0.08097546 -0.08101578 0.2277242 0.079725474 0.67698824 0.7695414 0.25287127 0.29952034 -0.05474876 0.55184853 0.521434 0.6325704 0.7216313 0.7397959 0.6917989 0.66101056 0.23460242 0.74656916 0.7137665 0.63927644 0.5774106 0.5137366 0.51137435 0.29730174 0.24886923 0.2026391 0.15073544 0.09677949 0.67700875 0.4783452 0.46516708 0.374517 0.32122022 0.2930099 0.20173296 0.6454555 0.6198131 0.40864873 0.35331434 0.27260533 -0.07577458 0.26663673 0.33210394 0.44314706 0.4413032 0.26943204 0.22701907 0.03727983 -0.08979685 -0.10741176 -0.028381765 -0.082009494 0.1977798 0.06497704 -0.04234264 0.08701138 0.053910803 -0.050686456 0.14641185 0.32350552 0.16723631 0.13579008 -0.11694795 0.1419512 0.17274758 0.58721197 0.6293179 -0.0016928911 0.07217146 -0.27212447 0.27697033 0.6596334 0.65837383 0.16128807 0.041557167 0.6529036 0.2478028 0.06598214 -0.06705782 0.6295109 0.3063842 0.0007158518 0.30564135 0.3059607 -0.0055467486 0.05037923 -0.13357218 -0.11926006 0.4472127 0.43991953 0.28881955 0.096759275 0.1213252 -0.15813944 -0.06834387 -0.20366275 -0.13689905 0.50505066 0.46903926 0.43571526 0.21064192 0.52611864 0.40706232 0.40727687 0.38256672 0.016306177 0.53399104 -0.01237081 0.48786896 0.09967946 0.04755366 0.018338814 0.41735148 0.651263 0.6065903 0.19943953 0.0688254 0.099113256 -0.08140817 0.16994487 0.2345894 0.31765115 0.40399486 0.45862508 0.46151233 0.66210455 0.65265536 0.62819934 0.3576953 0.085283466 -0.31248438 0.36216262 0.354292 0.30187804 0.3915032 0.38965756 0.44365975 0.48493972 0.69354975 0.68436706 0.69961834 0.47433853 0.25083065 0.62094474 0.31525552 0.4022019 0.44593713 0.4856844 0.5180707 0.3389004 0.35504985 0.66315347 0.46747363 0.52606964 0.39358005 0.47895634 0.4820061 0.66021806 0.6685355 0.66366017 0.60867923 0.30438784 0.37127268 0.36498427 0.31391978 0.48397282 0.5224271 0.42531446 0.41567796 0.4044816 0.4552683 0.46250463 0.50790715 0.63862234 0.546948 0.5982121 0.59871304 0.57169986 0.57374924 0.6085057 0.60321677 0.63066447 0.6023871 0.51189816 0.48517007 0.5286111 0.39272183 0.33217895 0.4244557 0.43617225 0.30140054 0.52801037 0.5691844 0.56951916 0.35106885 0.43178564 0.3640693 0.48019347 0.576132 0.5820135 0.5546942 0.3893432 0.4723403 0.38000292 -0.035797805 0.56589043 0.52490866 0.46048462 0.30217227 0.012320109 0.1521782 0.41888434 0.36820406 0.17020512 0.1817906 0.16422151 0.32345438 0.23894173 0.25748414 -0.120433025 0.28445122 0.34282944 -0.046410616 0.23799291 0.05153365 0.092489116 0.7833421 0.72690195 0.07732344 -0.15091711 0.04849288 0.39764628 0.5845629 0.5677842 0.6608765 0.7569467 0.7412642 0.67159104 0.605849 0.13676819 0.5279921 0.5787375 0.68809676 0.677883 0.4837482 0.21846172 0.15300678 0.09107134 0.4678228 0.5818401 0.5379032 0.11413649 0.13585664 -0.2477439 0.48630375 0.45610002 0.38598132 0.41445038 0.35272014 0.27792162 -0.12793921 0.01924023 0.23915872 0.3424193 0.26156121 0.20526999 0.0071989223 -0.043562755 -0.012438223 -0.06495336 -0.07487315 0.06715788 0.11537841 0.042692475 0.1962148 0.004065603 -0.017827705 -0.13531299 0.022424532 -0.023552839 0.017369656 -0.26434994 0.09618755 0.15531704 0.12276577 0.08233181 -0.01789394 -0.13666415 -0.053004067 -0.12191921 0.41893184 0.5434813 0.57116264 -0.30361342 -0.094042525 0.17062277 0.18503772 0.19260879 0.146169 -0.31371692 0.20461293 0.585006 0.55219734 0.016283967 0.18852878 0.19471982 0.19652696 0.5777284 0.0602153 0.16362908 0.07640215 -0.031519935 0.154245 -0.09335247 0.063856214 -0.38493693 0.31476748 0.6304155 0.27208406 -0.023960657 -0.11432615 0.38427705 0.4133691 0.5829295 0.59315 0.5860094 0.29173326 -0.17184365 0.42421585 0.5082295 0.52190435 0.51159465 0.4733547 0.4409145 -0.16290417 -0.08936506 0.44022492 0.39843795 0.4338669 0.37051445 0.35007557 0.36836442 0.35305157 0.4314108 0.11665507 0.25674623 0.2883702 0.23272112 -0.13905492 0.39648327 0.5910785 0.25126648 0.18399957 0.019873604 0.034603313 0.44789472 0.6914071 0.65636015 0.61133194 0.06108541 -0.3631747 0.55456316 0.7138109 0.6847298 0.026326798 0.2221075 0.2843492 0.13174337 0.028138906 0.60190713 0.6311567 0.7528085 0.75600445 0.6842891 0.57801104 0.34432378 0.45228943 0.50366175 0.5559715 0.63663274 0.6554842 0.78454244 0.72379977 0.6252036 0.27639255 0.54312736 0.5546297 0.14235291 0.31408697 0.3464834 0.4267413 0.43071857 0.43091926 0.5610325 0.62468606 0.525091 0.11112922 0.10755638 0.10102483 0.4238826 0.4061959 0.41541797 0.40435237 0.37608892 0.37842262 0.6200638 0.63268733 0.60447156 0.4894951 0.5250619 0.562107 0.47196728 0.52183276 0.39001778 0.45103753 0.2097955 0.022770597 0.34025633 0.27649802 0.48925942 0.54005075 0.31881544 0.3194295 0.54476804 0.37114817 0.3129004 0.50086427 0.36648342 0.4155454 0.30500543 0.26438263 0.27835423 0.20780896 0.21773256 -0.18140227 -0.027732678 -0.029197037 -0.20010096 0.79795676 0.7282437 -0.07048232 -0.16360074 -0.15350959 -0.04065629 0.15133345 0.3410547 0.38425553 0.45076758 0.7259908 0.7882168 0.6089303 0.41173196 -0.15307733 0.44349593 0.6878909 0.21926309 0.2736148 0.6204059 0.0096037015 -0.41253334 0.29487726 0.42764294 0.5426231 0.42855352 0.42900017 0.45567262 0.37982154 -0.8205049 -0.32694522 0.36522663 0.37593096 0.3693499 0.26622277 -0.18778023 -0.060413107 0.25078657 0.29340369 0.24563932 0.0077797845 0.12178556 0.015721334 0.20518693 0.14497142 0.05437593 -0.3139985 -0.49419457 -0.35571343 -0.036838315 0.0120056365 0.109920286 0.35168955 0.2556659 -0.3052525 -0.22300628 -0.0948493 0.13498724 0.41894785 -0.17918645 -0.08896819 0.11639266 0.15006492 0.39024168 -0.030610539 -0.11406115 -0.027582958 -0.010975063 0.13903676 0.2430835 -0.007119186 -0.004317142 -0.11106534 -0.13181719 0.564003 0.6250356 0.59080195 -0.008324496 -0.017092321 -0.18325767 -0.31556436 0.07301195 0.3559298 0.5055655 0.5574758 0.59800535 -0.1568318 0.37652683 0.3759052 0.46036744 0.3989754 0.37858057 0.35000408 -0.37086082 0.3667099 0.26022243 0.6336658 0.41379848 0.7121529 0.6698248 -0.23645525 0.57945013 0.5683453 0.803204 -0.37833205 0.0074513536 0.09781066 0.023657922 0.09232372 0.6784748 0.6365783 0.84423494 0.3586172 0.627563 0.681674 0.7060229 0.7600858 0.6296499 0.44538411 0.1593146 -0.010973841 0.35815826 0.4897523 0.532904 0.58870715 0.5719882 0.4453017 -0.186212 -0.14457914 0.3723999 0.20196944 0.5040365 0.56849325 0.4081999 0.19681942 0.053274073 -0.28791207 0.0014358126 -0.042258486 -0.042299584 0.35519034 0.35241306 0.32067874 0.32202852 0.59881246 0.6100185 0.59101164 0.48150817 0.3114873 0.2791678 0.69436693 0.78840804 0.804156 0.60263926 0.7426026 0.8292273 0.854767 0.816404 0.7850039 0.8240508 0.848487 0.78239256 0.47142926 0.2551736 0.37908077 0.27263856 -0.024270076 0.30847734 -0.05519692 0.20090717 -0.022454351 0.18848936 0.26651117 0.05746925 0.13721478 0.4503095 0.11922945 0.115426056 -0.07102391 0.49012047 0.5461992 0.17555642 -0.25578523 0.6049262 0.5748056 0.1824807 0.15952823 0.40477893 0.5294659 0.5799891 0.61541045 0.5952207 0.16567044 -0.051236108 -0.24537683 0.42185307 0.61232185 0.59732425 -0.12547237 -0.28609633 0.4842596 0.76673764 -0.15875304 -0.1654701 -0.16589119 0.70173454 0.72699744 0.7101841 0.67097545 0.44750082 -0.30020052 -0.16396157 0.027200438 0.14724912 0.2957102 0.32797325 0.355377 0.6548277 0.68201005 0.043947227 -0.35074574 0.31630406 0.23865484 0.6338092 0.6125524 -0.0039062947 0.4283508 0.4534623 0.5867461 0.56108785 0.44802988 0.41637778 0.46927428 -0.65260595 0.3104962 0.29730037 -0.59536374 -0.1993444 -0.09795767 0.26847786 -0.05224353 -0.02045358 0.0045940056 0.28807235 0.21364008 0.13557307 -0.61959016 -0.104790166 -0.027975624 0.0760041 -0.19145098 -0.54387736 0.21758404 0.21525952 -0.033706643 -0.04653417 -0.067130744 -0.021173194 -0.0071164593 0.002112709 -0.17107405 -0.12865227 -0.17841636 -0.23991634 0.4596005 0.48663753 0.48740208 0.50279677 0.04404269 -0.065029874 -0.42402363 0.33744562 0.39407006 0.46120983 -0.17545682 0.34911323 0.3629621 0.394309 0.3581926 0.3494076 0.35794026 0.27487886 0.36530602 0.54917234 0.4253763 0.44173342 0.7108046 0.54071367 0.5344479 0.79074347 -0.34426373 -0.13042551 -0.1372565 0.65088737 0.806808 -0.08176151 0.28754526 0.6082663 0.658666 0.6914968 0.7682612 0.6448684 0.5181503 0.074548185 0.13795434 0.51127785 0.55523986 0.59659815 0.50269395 0.35095525 0.29945657 0.4696793 0.046963796 -0.18682562 -0.301019 -0.27507457 -0.28564295 -0.00280153 0.16307536 0.24061376 0.51935935 0.5452498 0.38933247 0.25174737 0.12403915 -0.10904351 0.025223268 0.21973132 0.25604773 0.27123252 0.34430245 0.3173284 0.58410245 0.5888431 0.55487454 0.10594006 0.26621115 0.26096293 0.11409121 0.30879778 0.3361895 0.32984853 0.33281285 0.69940555 0.72748244 0.5557263 0.6510658 0.7475997 0.7664932 0.7499019 0.5888784 0.7599977 0.44971856 0.72965324 0.007203304 0.60425264 0.2293267 0.14130704 0.079957984 -0.11514753 0.5505818 0.20896243 0.18297108 -0.06752669 0.2092001 0.24043728 0.16750622 -0.0013863146 0.35378563 -0.023182012 -0.14149801 -0.03360803 -0.19248621 0.0452962 0.3980345 0.41133192 0.46290693 0.4885313 0.078691535 -0.19938111 0.48128563 0.50221384 0.5182389 0.15506274 0.39093137 0.42529154 0.5589902 0.18878466 0.1833781 -0.3328199 0.5290946 0.20326112 0.1245956 0.07810776 -0.34645015 0.33486614 0.5692532 0.5230933 -0.29228047 -0.50686836 0.026049346 0.4204647 0.5049224 0.56317914 0.45424116 0.6768314 0.63708425 0.5487204 0.44549513 -0.14223629 0.11576029 0.21491984 0.64985293 0.64674747 0.6294092 -0.016423844 -0.12348279 -0.07620448 -0.103179626 -0.15981546 0.6309185 0.6256107 0.10798819 0.21098304 0.3870189 0.42829496 0.57844555 0.5604198 0.39890417 0.42764837 0.23875663 0.2521541 -0.54474694 0.20849812 0.012339532 0.022540374 0.1870891 0.22801837 0.003556652 0.12940833 0.04834707 0.13053048 -0.25285012 0.13390096 0.11359531 -0.14892781 -0.05867507 0.17139216 0.38423932 0.35419986 0.21426341 -0.1921406 0.2642414 0.36788362 0.35941753 0.32566768 0.295155 0.3185709 0.16174075 0.33116752 0.16023603 0.3373815 0.42198062 0.38480574 0.58593655 0.516745 0.43389988 0.6987121 -0.39654344 -0.1371508 0.5400543 0.56202006 0.73803866 -0.19331416 -0.33187014 -0.09001122 0.14372078 0.071557835 -0.12811062 0.36957693 0.56443226 0.6071694 0.63354766 0.6144358 0.46947578 0.07333063 0.20773289 0.1918981 0.40425217 0.514539 0.5408751 0.5633138 0.45540336 0.40907782 0.35391277 0.3087345 -0.07489367 -0.25583595 -0.1961163 -0.06508716 -0.22369723 0.3287717 0.5275994 0.46994382 0.08955765 -0.07621632 -0.15285505 0.23273963 0.2742138 0.30545807 0.38144785 0.37766427 0.13044065 0.19612607 0.28436378 0.33247924 0.37489665 0.16326088 0.26065907 0.3310995 0.26723543 0.4236635 0.30448943 0.38691303 0.4755531 0.44992858 0.