# vtk DataFile Version 2.0
Really cool data
ASCII
DATASET POLYDATA
POINTS 4706 float
108.29117 -11.809831 111.10249
108.22717 -11.837957 111.61299
108.24937 -11.804322 112.17758
108.20493 -11.269861 110.77898
107.94711 -11.280648 111.65981
108.069084 -11.423264 112.32386
108.267784 -11.263209 112.81142
108.24179 -10.665109 110.75179
107.96979 -10.63852 111.593994
108.0218 -10.745726 112.40295
108.228195 -10.645095 112.770645
108.35305 -10.176911 111.11405
108.19678 -10.130069 111.680016
108.30757 -10.114754 112.4385
109.10064 -12.541549 111.60333
108.99998 -11.898718 110.20369
108.66484 -12.045888 110.8136
108.702095 -12.234011 111.48737
108.61017 -12.032385 112.360245
108.93448 -11.906589 112.92464
108.77881 -11.300773 110.11067
108.47038 -11.433659 110.42769
108.64198 -11.366778 113.05804
108.766846 -10.641486 110.170654
108.461365 -10.676426 110.448105
108.60472 -10.662103 113.06938
108.66312 -10.053204 110.76472
108.46342 -9.842079 111.90737
108.53951 -10.031871 112.607414
108.494125 -10.198005 112.80838
109.41579 -7.5847983 112.72076
109.066414 -6.2277365 112.473305
108.994705 -6.1331334 113.27811
109.19199 -6.116764 113.8911
109.1484 -5.5477166 111.99858
108.785904 -5.328598 112.73678
108.74758 -5.2225804 113.43097
108.98965 -5.3012123 114.05646
109.16818 -4.5637646 112.08133
108.85251 -4.666907 112.716576
108.82401 -4.7144346 113.47384
109.003975 -4.737219 114.04644
109.289825 -3.9074936 112.80656
109.113075 -4.142731 113.4882
109.854774 -12.598388 110.64934
109.81198 -12.727764 111.44678
109.75879 -12.589716 112.38843
109.54725 -12.002283 110.088356
109.39115 -12.373623 110.759476
109.22562 -12.518358 111.48742
109.584595 -12.483672 112.37387
109.54854 -12.092394 113.05852
110.116325 -11.811252 113.7089
109.57208 -11.420104 109.744934
109.580185 -11.679265 113.487564
109.81462 -11.278942 113.804955
109.68491 -10.644752 109.70829
110.00439 -10.858594 113.89914
109.52822 -9.981138 110.087875
109.38434 -9.528186 110.76151
109.67824 -9.845605 113.209236
110.23113 -8.866929 110.16756
109.65924 -7.931991 112.36393
110.30771 -8.610923 113.215904
110.35662 -7.937769 110.74878
110.059006 -7.1659408 114.21562
110.03272 -6.831466 111.09133
109.7302 -6.005843 114.4205
109.72384 -5.6093187 111.30588
109.52831 -5.803341 111.58584
109.69653 -5.810204 114.48068
109.673386 -5.5520287 114.8265
110.291336 -4.9096656 116.486404
109.94569 -4.7575226 111.107445
109.87961 -4.3797755 115.50517
110.10215 -4.5250473 116.47274
110.26237 -4.2733517 117.00324
109.453705 -4.1282496 111.91377
109.63162 -3.7257466 112.629036
109.65104 -3.6423829 113.242584
109.76381 -3.9701674 114.75899
109.99156 -3.5907714 115.509026
110.11687 -3.6522686 116.42399
110.27 -3.8508005 116.995926
110.2911 -2.7249682 115.66871
110.30283 -2.9636831 116.430046
110.39261 -0.21556729 106.89165
110.43059 -0.29220086 107.54221
110.4153 0.23494764 106.97597
110.44117 0.42105967 107.31374
110.78691 -12.714476 110.07603
110.52551 -12.825311 110.50355
110.52789 -12.97706 111.38162
110.621796 -12.779037 112.57218
110.60044 -12.598825 112.8379
110.8538 -11.943204 109.398125
110.62362 -12.317666 109.75495
110.50456 -12.395343 113.21534
110.43278 -11.939418 113.74942
110.8843 -11.435392 109.19247
110.24044 -11.295854 109.461975
110.423065 -11.525805 113.9968
110.767555 -10.553012 109.20521
110.605225 -10.253338 109.429245
110.788605 -10.762478 114.2345
110.8976 -9.564118 109.214264
110.637955 -9.295745 109.38335
110.947 -8.808493 109.25389
110.642715 -8.614304 109.624
110.384125 -8.705242 113.375275
110.87091 -7.877402 109.75994
110.56211 -7.7472343 110.29916
110.87586 -7.736536 114.35881
110.943 -6.762823 115.04701
110.72243 -6.06429 110.62026
110.88286 -6.3733234 115.33291
110.61428 -5.4264092 110.697914
110.60017 -5.210681 116.68259
110.77235 -5.03973 117.04717
110.64297 -4.3950906 117.33986
110.939896 -4.3703384 117.58693
111.09044 -3.3877683 111.21004
110.58498 -3.6258223 117.31591
111.131386 -3.6352553 117.66289
111.168465 -1.6861889 107.22625
111.225624 -2.2066882 110.66427
110.674576 -3.1323557 111.978516
110.61622 -2.9580302 112.63651
110.535614 -2.5080843 115.43571
110.61619 -2.5017931 116.61882
110.85656 -2.6422946 117.19191
111.05127 -1.0919298 106.10754
110.77386 -1.0628159 106.5677
110.760826 -1.1616288 107.373375
110.860085 -0.9140877 108.69996
111.01134 -1.1029602 110.36092
111.3886 -1.4020665 112.51842
110.96891 -1.9558878 114.024826
110.83827 -2.0042934 114.82409
110.775085 -1.7448593 115.600784
110.92137 -1.6834075 116.20477
111.06801 -2.0352294 116.98372
110.87728 -0.5010073 106.01189
110.59556 -0.36464754 106.51078
110.577415 -0.6667722 107.473
110.669136 -0.3307771 108.31208
110.88954 -0.853012 109.77694
111.06869 -0.70417166 110.54986
111.26416 -0.39273655 111.24218
111.25536 -1.2675469 116.155655
110.958206 0.30363402 105.94617
110.59379 0.50722957 106.67435
110.549545 0.6956615 107.447235
110.630875 0.48664832 108.1709
111.01097 0.41230452 109.61139
111.2425 0.41667598 110.23224
111.37152 -0.0796253 111.03613
111.10511 0.9818717 106.14142
110.84527 0.9946978 106.69222
110.878265 1.1327727 107.38446
111.176636 1.2381445 108.307884
111.21159 0.8639911 109.53941
111.45727 10.590325 120.070145
111.406425 10.453247 120.75168
111.38213 10.630565 121.30236
111.37027 11.668439 119.60869
111.33122 11.314884 120.50764
111.41365 11.3492 121.33173
111.41333 12.123684 119.513054
111.37214 12.268253 119.995125
111.604965 -12.81377 109.94587
111.50219 -13.13825 110.593666
111.42652 -13.20483 111.47149
111.46289 -12.974616 112.12565
111.10704 -12.638198 113.00668
111.59105 -12.04649 109.31301
111.54046 -12.431141 109.609795
111.46211 -12.417729 113.27832
111.47939 -11.433837 109.09424
111.499306 -11.411134 114.20212
111.630264 -10.81035 109.00519
111.83455 -10.535968 114.38644
111.58534 -9.238637 108.976326
111.55869 -8.630623 109.02414
111.65106 -8.008441 109.19403
112.07436 -6.9106436 115.70567
111.89077 -6.630576 116.15065
111.35345 -6.4132085 115.392624
111.75382 -6.2812543 116.30376
111.81548 -5.8217015 117.04219
111.967545 -5.2853436 110.395584
111.53443 -5.221862 117.36483
111.57438 -4.4054413 117.77974
111.780685 -3.3356066 118.10459
111.59545 -1.6660588 106.212524
111.616356 -1.7534236 106.498314
111.4703 -1.8159618 107.83906
112.12082 -2.2825615 108.79967
111.47651 -2.6127944 111.01034
111.91205 -2.5580215 118.28844
112.285385 -2.4932003 118.671295
111.55248 -1.0867171 105.73297
111.27827 -1.5191631 106.33219
111.53136 -1.458196 112.81064
111.456276 -1.3545413 114.296196
111.57947 -2.1410818 117.6712
112.014534 -1.9434035 118.22108
111.63175 -0.40209717 105.33532
111.44722 -0.46212018 105.521614
111.82494 -0.26940137 112.61723
111.58838 -0.94611007 113.782074
111.77281 -0.74057305 114.16453
111.877556 -0.68869877 115.282036
111.51518 -1.1315621 116.2543
111.75878 -1.2263821 116.97465
111.71372 0.19748081 105.2763
111.37849 0.5994785 105.64275
111.71148 0.37451017 111.35145
111.948326 0.23420289 112.380486
112.121124 -0.1816076 113.2658
111.96728 0.86161363 105.30059
111.88124 1.2157167 105.77461
111.44601 1.4039328 106.551
111.4431 1.4911377 107.71481
111.67954 1.2350721 109.42649
111.96528 1.2953233 110.042694
112.09612 0.8660417 111.06013
111.66079 1.5462978 106.86195
111.842575 1.6339556 107.63605
112.09623 9.341124 120.67568
112.27954 10.05119 118.52926
111.805725 10.135203 119.80807
111.80653 9.740073 120.65291
111.644356 9.931414 121.27202
111.91498 9.985458 121.95311
112.26471 10.769457 118.08575
111.98502 10.600378 118.674385
111.605446 10.499475 119.955765
111.52364 10.316023 121.58702
111.86289 10.506521 122.16267
112.212654 10.936457 122.67654
111.75915 11.600309 118.69986
111.56308 11.488461 121.68918
111.83748 11.458905 122.196815
112.19863 11.508472 122.669754
112.24262 12.962408 112.99525
112.18228 12.742755 113.41636
112.1984 12.852515 114.11039
112.25462 12.092398 118.174545
111.743286 12.220481 118.85511
111.566895 12.36667 119.2651
111.55843 12.501308 120.28838
111.7938 12.318512 121.31722
112.15233 12.011192 122.40079
112.102394 13.711774 112.8644
111.918884 13.472703 113.45608
112.054756 13.470023 114.19778
111.90802 12.970892 119.60252
111.9335 12.918333 120.47511
112.07356 12.729943 121.25685
112.112175 14.435896 112.855736
111.953224 14.437077 113.42546
112.144485 14.266237 114.19312
112.225784 14.88185 112.964005
112.200935 14.97847 113.421005
112.25948 14.922755 113.948105
112.344284 -12.828911 110.1984
112.19393 -13.108805 110.60519
112.22106 -13.169517 111.43301
112.34865 -13.04215 112.005066
112.22102 -11.838487 109.320526
112.38328 -12.294055 109.695854
112.33039 -12.233666 113.35987
112.84143 -11.927595 113.95992
112.58902 -11.221405 109.14545
112.84752 -11.3140335 114.40314
112.14582 -10.44261 109.02027
112.3058 -9.472334 108.95797
113.052666 -9.481575 115.11435
112.239426 -8.82935 108.93753
112.90987 -8.65694 115.20404
112.56456 -7.677788 109.32891
112.29736 -6.786091 115.83957
112.13193 -6.979577 109.614265
112.549446 -6.1739078 116.82089
112.990456 -6.110342 109.96032
112.276535 -5.183124 117.495445
112.64789 -4.6041017 110.36585
112.18773 -4.6769753 117.760864
112.86856 -3.564918 110.14585
112.831436 -3.6416276 118.571754
112.62076 -3.0588071 118.81536
112.33661 -2.006198 106.81503
112.82482 -2.2725816 107.49088
113.04634 -2.299074 108.08378
112.65515 -2.5234318 118.83593
112.68352 -1.5579709 118.552635
112.95548 -2.0369406 118.9202
113.30517 -0.4035343 103.88842
112.245674 -0.4010014 105.148705
112.4492 -0.9746722 117.138916
112.549095 -1.298126 118.143196
112.95982 0.69526887 104.32693
112.38869 0.47896567 112.75985
112.58479 0.16507441 113.68146
112.47707 0.057491064 114.409225
113.14083 0.23741382 115.22722
113.251854 1.2813523 104.2545
113.086365 1.3388646 104.58034
112.34104 1.4371092 105.86841
112.29449 1.3216527 110.31547
112.55451 0.9051816 111.30265
113.273254 1.7459884 104.962685
112.44197 1.5872757 105.989914
112.32707 1.674203 106.60608
112.716774 9.053778 119.85109
112.34996 9.243331 120.47623
112.483765 9.277477 121.44962
112.85322 9.292341 121.97517
112.43346 9.9779825 118.22934
[...]
POINT_DATA 4706
SCALARS features_00 float 1
LOOKUP_TABLE default
0.8562213 0.8718456 0.8667974 0.8769735 0.93244326 0.9032668 0.851246 0.84529763 0.9107796 0.8861917 0.8415382 0.8222139 0.8646996 0.8199295 0.71491265 0.750424 0.79352033 0.7818378 0.79409987 0.7246077 0.77168536 0.82970643 0.7841685 0.7106427 0.7886208 0.75606656 0.7192762 0.7886145 0.755646 0.76460266 0.39018303 0.5643097 0.5451979 0.46098632 0.57214814 0.63269687 0.6005313 0.5165483 0.5630926 0.6135435 0.5869951 0.5226598 0.5080473 0.5272088 0.65769154 0.63595706 0.6118372 0.6885976 0.70173675 0.7047378 0.63607734 0.6174357 0.5238984 0.6515424 0.6035848 0.55774856 0.535964 0.5098016 0.4753766 0.48183924 0.41285545 0.2688342 0.35505787 0.16134463 0.20005007 0.19933172 0.26851672 0.3429848 0.40694237 0.45559967 0.36540544 0.36899883 0.44959992 0.4046036 0.41390008 0.46785325 0.49364546 0.4826524 0.4397316 0.399095 0.39067146 0.39357966 0.46570575 0.49553904 0.38005453 0.45290476 0.7028496 0.6593371 0.7018627 0.679618 0.6092593 0.6229358 0.5925266 0.51578295 0.50618684 0.56968296 0.60299903 0.49980405 0.48448294 0.5290908 0.55250055 0.47644866 0.44530487 0.42038286 0.40263566 0.38965493 0.3620349 0.36344454 0.3153129 0.14590786 0.31051952 0.2291122 0.061120242 0.16553284 0.2300221 0.22233182 0.2815626 0.42907685 0.45132858 0.49085206 0.47968948 0.18792272 0.5023333 0.4866007 0.58719885 0.08743669 0.20453921 0.15616146 0.34254974 0.44719633 0.47628477 0.67919195 0.68927187 0.6616032 0.5381695 0.23248276 0.06477272 0.11041495 0.24088024 0.32936293 0.38450402 0.44907856 0.7065419 0.7137028 0.6639222 0.57702005 0.32901376 0.2808575 0.27303177 0.35834956 0.70442414 0.7081473 0.663863 0.5968311 0.42206472 0.37284154 0.31504855 0.6560939 0.67438686 0.6421952 0.55798864 0.42905703 0.5757352 0.6285216 0.6667508 0.5954858 0.65067756 0.68857205 0.6007197 0.6263429 0.57982755 0.59962285 0.55407214 0.47303793 0.4402918 0.54604113 0.5653279 0.38952768 0.515025 0.35311115 0.46672136 0.20908403 0.4059857 0.3976301 0.394966 0.13317326 0.22076662 0.21055907 0.2625143 0.33367062 0.09448272 0.4035229 0.43362072 0.44631094 0.5478211 0.5188893 0.51052177 0.2981507 0.076223895 0.47066227 0.45553496 0.62242514 0.615858 0.058984444 0.15968403 0.48063946 0.4903068 0.61568385 0.6551494 0.1668033 0.12008238 0.14416783 0.24412744 0.3591733 0.43161207 0.58610046 0.6388768 0.32410508 0.23581904 0.13929516 0.505686 0.518122 0.59159875 0.57135904 0.4186378 0.36748698 0.34530103 0.5590498 0.52076733 0.5768693 0.37643802 0.51681376 0.590663 0.63700294 0.64778244 0.38444063 0.4491331 0.5550053 0.6627943 0.6574031 0.6275909 0.506493 0.6885607 0.6630086 0.62900734 0.66837084 0.6664159 0.69848746 0.47279292 0.5536056 0.5819706 0.6281449 0.68087655 0.63720834 0.794991 0.80070186 0.79476595 0.5623274 0.5962765 0.64250237 0.8671781 0.88764894 0.88021743 0.8644246 0.8709245 0.87517166 0.55289197 0.5698375 0.51093215 0.41835916 0.51272583 0.5231601 0.29010645 0.19419986 0.45849732 0.12548614 0.4358619 0.4100986 0.05014338 0.40163738 -0.050855473 0.2979406 0.15072736 0.23507977 0.2512838 0.024305275 0.32862362 -0.023590095 0.35794356 -0.072917685 0.33966604 0.4014873 0.3271799 0.22399461 0.19354185 0.4377272 0.4915131 0.45670712 0.2891174 0.4722387 0.40391085 0.49204832 0.35077044 0.225084 0.1535306 0.1711371 0.21736333 0.3706062 0.36110544 0.4373385 0.3435623 0.32356608 0.35859364 0.41744983 0.4401056 0.38947976 0.5388556 0.59839195 0.5673461 0.32507533 0.6012368 0.56388843 0.30975184 0.6234243 0.6017018 0.5006777 0.53791064 0.08179578 0.2816679 0.3553643 0.59980416 0.4804733 0.60665417 0.6193543 0.48403 0.3857985 0.6075177 0.59874463 0.6561128 0.6914661 0.7634878 0.45825386 0.46274385 0.49781632 0.8139328 0.8353087 0.79448736 0.38420263 0.42140678 0.81616485 0.8208225 0.8430653 0.3963094 0.22655453 0.16955267 0.45149726 0.4084696 0.17489266 0.12238785 0.0908933 0.416259 0.076897345 0.3469751 0.06994787 0.055580992 0.7066314 0.7099948 0.34736496 0.025162637 0.68564105 0.71401536 0.7090596 0.28305876 -0.035066225 0.67178357 0.6763467 0.6785488 0.16245206 0.60459816 0.1362002 -0.034507982 0.19467211 -0.051160596 -0.05298574 0.24289104 0.29354593 0.2641206 0.19219586 0.08050848 0.13144988 0.38306078 0.2957298 0.26851314 0.22872993 0.41860136 0.4073156 0.3353405 0.23702842 0.2828341 0.42064947 0.17012466 0.21864265 0.41380304 0.28535637 0.2640843 0.16301912 0.20946008 0.42898726 0.4041645 0.4038028 0.31923115 0.3259832 0.2777443 0.25515944 0.22694184 0.20730364 0.25135556 0.25148878 0.20432347 0.14730284 0.19518012 0.25245205 0.2651229 0.2394161 0.18275982 0.2591494 0.25007075 0.21337435 0.23239157 0.29397172 0.34933263 0.3641608 0.23816648 0.3241275 0.35750303 0.07271393 0.15600388 0.2629779 0.42794526 0.09576946 0.40649348 0.044363815 0.04790368 0.51934385 0.18702173 0.3329879 0.53642946 0.44755724 0.5137229 0.5167861 0.5580215 0.1872596 0.325537 0.7003031 0.31267524 0.7121842 0.7514455 0.75246406 0.73245054 0.7207033 0.7365906 0.324336 0.36310747 0.16741683 0.3263586 0.26928714 0.21865752 0.075214624 0.013464669 0.29489738 0.025047366 0.22254008 0.4729479 0.64185214 0.6691288 0.6942254 0.6821321 0.15078765 0.013376653 0.23966287 0.52077717 0.7024683 0.6844603 -0.039070167 -0.13343161 0.12516303 0.31078646 0.6428716 0.64944214 -0.06792249 0.010349095 0.19302875 0.4116289 0.5174167 0.5684445 0.53587437 -0.0572529 -0.2534681 -0.20688982 0.42345107 0.43230185 -0.08269257 -0.0811642 -0.21058962 0.23610368 0.14761059 0.070252 -0.044866912 -0.089039855 -0.0025616027 0.6398336 0.24860574 0.25567403 0.18554558 0.24009655 0.29299894 0.30603987 0.34017158 0.096818745 -0.17514224 0.4308104 0.55770767 0.34262267 -0.20041251 0.006174743 0.1351158 0.4612594 0.54511595 0.5796312 0.2826376 0.37477827 0.19232461 0.1834334 0.17133689 -0.15369533 0.11006739 0.17694452 0.076847 0.0061002 0.055887017 0.22161677 0.41703027 0.53252 0.5791693 0.37761524 0.44344333 0.44060987 0.38298762 0.31634444 -0.31752142 0.18621859 0.1543075 0.08587025 0.22865665 0.37531275 0.4565633 0.45018542 0.41765168 0.15463473 0.13653292 0.29685265 0.26423922 0.19444874 0.2103379 0.3280717 0.34382457 0.37569195 0.33228207 0.28757536 0.091619335 0.18881792 0.36954945 0.42276043 0.30432838 0.22966729 0.10786002 -0.037994813 -0.010529913 0.07784705 0.33020872 0.34289387 0.28741658 0.20490794 0.14352785 0.059286013 0.20631462 0.037186094 0.14451315 0.0121028125 -0.0073971003 -0.14342111 0.21966316 0.18481272 0.037499838 -0.060207084 -0.2487409 0.0070591588 0.315967 0.21032691 0.12132557 0.4118592 0.27854943 0.28454974 0.2115516 0.3220477 0.48833767 0.41716346 0.61874175 0.57400906 0.11414845 0.31915098 0.41744685 0.46915975 0.465021 0.6733745 0.70551395 0.66705084 0.47631976 0.69993365 0.69499606 0.6918017 0.34586307 0.21427076 0.36919838 0.35756698 0.16676977 0.25080827 0.060605586 0.04017178 0.022629354 0.10117712 0.040230006 -0.033508014 0.54104877 0.6073742 0.03906677 -0.11060446 -0.20870805 0.0066770315 0.4180676 0.62170345 0.64754117 0.64726245 -0.23628685 0.06856625 0.65463936 -0.18837428 0.5783942 0.5794648 -0.15541615 0.46157888 -0.14646102 0.07789538 0.08240191 0.1744504 0.4307183 0.38731664 -0.08371775 -0.054593913 0.5724259 0.48017007 0.32046896 0.22505724 0.15264799 0.13963659 0.067809395 0.022363123 -0.0909751 -0.052830048 -0.24892181 0.7013404 0.62980103 0.52479684 0.39371783 -0.024084017 -0.08026307 -0.10205394 0.8287908 0.749622 0.6634466 0.59266835 0.36709353 0.84075344 0.7671062 0.6889789 0.620611 0.21109661 0.06463036 0.42037523 0.5005547 0.82634157 0.7807175 0.6893595 0.6065239 0.4105605 0.16283587 -0.21107179 0.106431395 0.38950798 0.5439309 0.53062516 0.21994713 -0.1902226 0.58003664 0.5648633 0.2517693 -0.2942759 -0.46817553 0.5866127 0.59055406 0.30642194 0.3887124 0.36948872 -0.23106167 -0.37896284 -0.531427 -0.27407983 0.47517636 0.5373477 0.5545198 0.3939252 0.40508902 -0.0146753825 -0.14849311 0.3895016 0.44679624 0.49494296 0.20779401 0.19867516 0.18127257 0.28975716 0.25890642 0.1895732 0.08685732 0.1912875 0.23005077 0.19730152 0.2540127 0.23972243 0.2608812 0.2853611 0.23591918 0.31696737 0.40741545 0.46530357 0.4919606 0.58149344 0.084635146 0.086737595 0.4994654 0.50727725 0.627367 0.62005675 0.65847725 0.19553298 0.4235471 0.47370964 0.5170888 0.51878643 0.6456807 0.6531865 0.2770273 0.3149264 0.22340892 0.1821217 0.11917574 0.22184977 0.19218904 0.08322784 0.086204834 0.104854524 0.116864234 0.057489388 -0.027911648 -0.025178213 -0.08668651 -0.09757806 0.4190132 0.52534807 0.58425236 -0.11841895 -0.21742433 0.31619373 0.59755385 0.34936482 0.59011877 0.36962175 0.30461106 0.23392531 -0.24874237 -0.260617 0.493433 0.30659974 0.26189196 0.09718282 -0.2544502 0.42521554 0.14423649 0.15876272 0.3178702 0.15853068 0.13806595 0.07810308 -0.07646547 -0.121151716 -0.18396525 -0.09174204 0.02701708 0.045699567 0.23062734 0.65023154 0.552196 0.39701608 0.32108563 0.241256 0.016259748 -0.052155513 -0.027706642 -0.03915307 0.8003508 0.7341443 0.25212723 0.31853488 0.9080411 0.8771965 0.2337444 0.33626628 0.8958324 0.8696946 0.41175967 0.45142028 0.3641771 0.88693964 0.8461239 0.78835964 0.70182556 0.40173665 0.104423895 0.058687925 0.45355052 0.5821764 0.06645291 0.5200908 0.20231849 -0.03938797 0.5780655 0.23334038 0.28352198 0.5518907 0.26763898 -0.29079077 0.42427474 0.48304558 0.51532173 0.14966023 0.09709664 0.1995444 0.33359572 0.17220446 0.07019785 0.3222524 0.23485741 0.10354282 0.26781678 0.4122647 0.25132617 0.10961928 0.16910873 -0.0013162158 0.33893558 0.11236064 0.22494632 0.25244284 0.30455267 0.37250948 0.4225657 0.48457015 0.50101894 0.50166154 0.43979743 0.5334103 0.54879266 0.54597986 0.57999265 0.5842809 0.26289138 0.4296939 0.5538515 0.58006513 0.5681789 0.61009336 0.5979029 0.500429 0.5018495 0.59767413 0.062608875 0.15178113 0.1572446 0.12227687 0.057280045 0.080981895 0.11382942 0.04771658 0.000374116 0.044737455 0.05313026 0.017644644 0.061727427 0.14426148 0.24121729 -0.038945444 0.026895117 0.11065632 0.040883854 0.0034120828 0.20465305 0.50726396 0.5558102 -0.2554571 0.5469614 0.55673033 0.42624837 0.4302701 0.33243495 0.20940694 -0.13360685 -0.35862267 -0.377098 0.54473394 0.24826159 0.39930487 0.2747817 0.16241047 -0.023861105 -0.27820352 0.43281847 0.13533947 -0.116012156 0.40370744 0.05465862 0.16860098 0.30157298 0.3287558 0.20077358 0.07539652 -0.09100116 0.108787574 0.6686189 0.61171776 0.47877717 0.08083138 0.21110395 0.36200172 0.79623497 0.7400193 0.32339513 0.41130018 0.9227232 0.075961165 0.38592666 0.92745674 0.25461158 0.2863665 0.90085876 0.86200213 0.2825652 0.1308908 0.2830554 0.73857784 0.40415698 0.27372554 -0.26553544 -0.3909052 0.54114676 0.30047038 0.045702793 0.50710416 0.34659305 0.36248687 0.36156875 0.051776074 0.48482698 0.49918604 0.28211468 0.15449809 0.45892334 0.51068497 0.3738631 0.48605308 0.44780022 0.39852494 0.30307204 0.48961157 0.45142058 0.40588617 0.44787812 0.36614794 0.44914567 0.36573327 0.17107028 0.3917302 0.18802881 0.27218148 0.35015893 0.23273334 0.26825783 0.3828453 0.43992478 0.5136563 0.49897504 0.3452496 0.25890544 0.36559713 0.55197465 0.6227962 0.58121616 0.5036718 0.585814 0.63890004 0.64805925 0.26742953 0.36205864 0.3114889 0.100761876 0.16149987 0.043756537 0.09874926 0.29857653 -0.011926986 0.0012676734 -0.011919115 -0.01434483 0.02493491 0.055149414 0.19219844 0.29245296 0.044427052 0.04188195 0.009404741 0.120233186 0.18079662 0.28220397 0.35339823 0.11414106 0.30803856 0.37713492 0.2654016 -0.05912365 0.22696196 0.4089143 0.16803154 0.45982322 0.3225176 0.40183902 0.1730732 -0.13826841 0.35952857 0.2569402 -0.080413565 0.32266438 0.10847081 0.17046878 0.28918046 0.023015529 0.027692243 0.10086957 0.27469704 0.13515511 0.35109422 0.64747524 0.5518817 0.4615566 0.38633624 0.39695656 0.76604646 0.67609537 0.41720152 0.4018864 0.90209347 0.38632298 0.3896503 0.93533456 0.3284474 0.89648855 0.8672804 0.34697947 0.28760448 0.13723095 0.200162 0.8119297 0.69408476 0.4975475 0.35073674 0.20433258 0.30557215 0.34265462 0.46687695 0.4232177 0.4503438 0.48432928 0.4412871 0.49773076 0.07829971 0.44864228 0.4766934 0.50369346 0.3607491 -0.14586824 0.5376096 0.3462879 0.487848 0.525761 0.49320686 0.5581872 0.5311045 0.5111384 0.5502419 0.50293314 0.4181245 0.51253545 0.43584058 0.36275634 0.34664813 0.19492558 0.23027344 0.27049547 0.2323501 0.42245442 -0.023444682 -0.21441977 0.49328983 -0.12309092 0.5787993 0.5513238 0.53303874 0.56402886 0.6247213 0.58080757 0.5728559 0.61869097 0.6594508 0.32579958 0.3563351 0.32009205 0.21520999 0.54042137 0.46858937 0.39396307 0.20692796 0.18384504 0.5616485 0.47681093 0.39525127 0.3034883 0.018763896 -0.030632995 -0.008123554 0.11629943 0.21306197 0.3113358 0.36394036 0.5348223 0.46833223 0.37498564 0.25743392 -0.040396795 0.26809114 0.38205513 0.40608406 0.42014432 0.34372595 0.40797392 0.309965 0.22860062 0.37951884 0.3311666 0.29419822 -0.16065794 0.3065158 0.32110298 0.28530076 0.33039337 -0.09984215 0.28342155 0.21677396 0.108433366 0.12416869 0.013647769 -0.012299538 0.027880803 -0.0015493333 -0.024468958 0.2714611 0.33793804 0.5464187 0.35898373 0.3811589 0.6775516 0.5785806 0.37856352 0.74396235 0.6615377 0.3635369 0.8701188 0.73020375 0.32637376 0.33649966 0.8359027 0.70151424 0.34842312 0.18324333 0.09298008 0.27180403 0.40124136 0.43459028 0.43482012 0.35106617 0.38408762 0.48304355 0.5241394 0.34263524 0.5980168 -0.2590403 -0.14128949 -0.09533283 0.6110571 -0.36194968 -0.18519789 -0.027235076 0.3551029 0.48311037 0.6413949 0.31836247 0.58228 0.5825032 0.6222935 0.6027161 0.59903526 0.57143915 0.5301751 0.5581735 0.5281942 0.47708327 0.29870534 0.4685777 0.2315682 0.07987783 0.12429282 0.12794894 -0.23785922 0.31019396 -0.10813131 0.45431766 0.49489093 -0.020988293 0.5022036 0.6080544 0.58396643 0.51635635 0.6150248 0.6396985 0.6130214 0.65306365 0.4267785 0.124138884 0.52129155 0.51800066 0.4876092 0.4041447 0.31359214 0.10488685 0.2609269 0.29996997 0.29768404 -0.061430827 0.19268939 0.286244 0.5814278 0.5740924 0.23481758 0.18076378 -0.20397972 -0.095055684 0.045982916 0.18493116 0.3120132 0.32765576 0.35093638 0.6171175 0.006697405 0.33530784 0.36740345 0.59315217 0.54051954 0.38651115 0.48759365 0.39040416 0.3509617 0.30585653 0.16424805 0.30074552 0.102732435 0.22009495 0.05075994 0.2912319 0.22541805 0.24821004 0.25182658 0.2627664 -0.09489803 -0.27814204 0.14651679 0.16818269 -0.31196368 0.2481536 0.11164455 0.25422922 0.2832198 0.052918702 0.15687361 0.25118035 -0.041915238 0.30526856 0.36232015 0.3698097 0.35369486 0.5008023 0.316867 0.46732253 0.50068206 0.29461437 0.29190812 0.25570226 0.2662835 0.31422946 0.042721078 0.38487267 0.3748107 0.4400412 0.34052962 0.22213201 -0.1494678 0.4135605 0.35742053 0.6768574 0.71108365 -0.075412005 0.70455253 0.09719694 0.51056325 0.66858333 0.15255661 0.59076846 0.63813597 0.59967077 0.30599016 0.46197397 0.4905519 0.5755 0.53978497 0.44334733 0.14436948 -0.053917572 0.23986715 0.02733206 0.3481901 0.38638955 0.5161201 0.0804601 0.11789205 0.48024523 0.5694266 0.5518446 0.59997547 0.35508922 0.3765572 0.37834936 0.3882981 0.32930034 0.27187768 0.27244443 0.3552327 0.34871256 0.33581698 0.4164237 0.3953154 0.34165913 0.21177584 0.24109194 0.28895837 0.29140913 0.22822976 0.28506774 0.3838149 0.35900125 0.34403354 0.21904804 0.1786334 0.102840416 0.055264086 0.43534207 0.42587548 0.38944462 0.30593282 0.21716127 0.2671771 0.24979463 -0.007237211 -0.13346325 0.012562901 0.48373955 0.4849645 -0.026431505 0.13230789 -0.17898713 0.0076966323 0.15354659 0.29231825 0.34683728 0.48247442 0.54076993 -0.12526987 -0.3496085 -0.06251352 0.34836805 0.34534302 0.5989209 0.35848266 0.36142957 0.5386319 0.3559093 0.32220823 0.48183188 0.38341445 0.27987462 0.3111178 0.1980313 0.18063319 0.33462587 -0.1302199 0.006566949 0.14702967 0.12783712 0.07975234 0.12479282 0.37179947 0.3998438 0.14256921 -0.25134432 0.16559568 0.40405375 0.4113102 0.09983255 0.11813029 -0.493034 0.37123457 0.06831073 0.28026563 0.31772262 0.48025858 0.35873204 0.38116267 0.34047496 0.5235359 0.2900125 0.30704597 0.54267955 0.2620632 0.25761026 0.53246844 0.4597504 0.28933972 0.21588276 -0.08809906 0.07730824 0.16543579 0.14759338 0.3178321 0.18046781 -0.01501271 0.24938697 0.34461647 -0.28098774 0.19105577 0.3914212 0.3702203 0.10025891 0.4161324 0.4129558 0.52275336 0.646278 0.61298156 -0.12851658 -0.12478094 0.6863557 -0.16108027 0.6697116 0.6423399 -0.14122216 0.6177882 0.55594337 0.5185048 0.35000777 0.18793663 0.13634363 0.13045533 0.29026657 0.25515723 0.062196642 0.2683925 0.2234092 0.24642842 0.29450223 0.39842528 0.32388717 0.3499468 0.3573595 0.34869602 0.3272398 0.26503924 0.35016036 0.3775939 0.37129664 0.33993006 0.38737577 0.37466562 0.32033253 0.25363997 0.323159 0.26899818 0.28098667 0.40899953 0.2144323 0.2292588 -0.006262146 0.16317959 0.15224104 0.36164248 0.2855983 -0.26733825 -0.2404738 0.24578765 0.4425709 0.4239358 -0.21643576 -0.038548842 0.32608846 0.32674804 0.5284523 0.30178836 0.23015812 0.13265544 0.4833928 0.54360557 0.15301402 0.1555585 0.44144362 0.49199182 0.4920239 0.47126886 -0.39597273 0.18331537 0.38740322 0.46178734 0.21135333 -0.23040797 0.16951367 0.30422062 0.03315545 0.09068601 0.3720045 0.40041238 0.096582055 0.4026433 0.3279429 0.08506714 0.25482464 0.37140068 0.25966114 0.58873576 0.5242885 0.31011206 0.61195016 0.31610197 0.55073994 0.26882395 0.5611801 0.5598864 0.2009904 0.21983159 0.5429016 0.497375 0.3838721 0.080501415 0.1941505 -0.0015528202 0.16454445 0.21142003 -0.26215935 -0.053615987 0.16677277 0.30538982 0.3377236 0.18130758 -0.3113195 0.32452005 0.15757053 0.3917263 0.36236098 0.3677277 0.4060704 0.406891 0.1329997 0.6002528 0.46563053 0.4243294 -0.084807396 -0.04594007 0.65898633 0.6130171 0.5023359 0.33502847 -0.0720413 0.6338153 0.59340787 0.40971443 0.25391898 0.5283143 0.4726587 0.37595806 0.3815749 0.4699567 0.1630263 0.43972522 0.4173231 0.29860294 0.3945591 0.28473088 0.40019208 0.42455053 0.46455386 0.51270795 0.5644733 0.19510916 0.2012944 0.21898437 0.26775783 0.20935287 0.14619659 0.27760854 0.3096856 0.23690674 0.22752368 0.16708238 0.26288483 0.20944755 0.1238035 0.18183899 0.27597213 0.3191117 0.15404488 -0.018280372 0.1937027 0.023059353 0.22798237 0.124766685 0.07036937 0.05507747 -0.098759554 0.2410363 0.24214795 0.19006522 -0.08925968 0.2511693 0.19756764 0.27373925 0.26068574 0.3903097 0.37308532 0.2614971 0.16435876 0.016351264 0.39865887 0.48776785 0.5941222 0.49956912 0.09795662 0.11658588 0.3547932 0.41085443 0.1347603 0.28120595 0.05718107 -0.15438016 0.016976357 -0.010278877 0.16153538 0.30269074 0.36242852 0.03571243 -0.011175647 0.3430469 0.36282885 0.08229845 0.2326878 0.42172986 0.19551058 0.5602433 0.3431814 0.6012412 0.56849426 0.6149068 0.602398 0.14605065 0.5779443 0.56452453 0.5093672 0.29877126 0.48621663 0.3636597 0.119949915 0.21046512 0.17390758 0.20330264 0.41376284 0.1923112 0.54439867 0.5262477 0.42305595 0.328661 0.28611523 0.49671164 0.3051963 0.122068495 0.36171317 0.3498491 0.21893768 0.23935458 0.3211521 0.38337815 0.3921214 -0.007368464 -0.07417089 -0.18157408 0.09749206 0.1532052 -0.31921086 0.1106362 0.10107493 0.35702625 0.14571267 0.4468799 0.15186998 0.48143163 0.5131248 0.5200175 0.2639531 0.49650395 0.48063016 0.33002228 0.44343364 0.40922183 0.53867286 0.61617076 0.5462952 0.49937975 0.5544089 0.56831765 0.5925066 0.59643906 0.12863421 0.14788961 0.14858106 0.0750635 0.12526819 0.12685609 0.115270264 0.12650941 0.10862416 0.16047305 0.04181709 -0.07414231 0.016104994 0.19233777 0.048902288 0.011219414 0.23926423 0.23219353 0.18061915 0.4323616 0.5951261 0.630856 0.10714708 0.22295448 -0.024070188 0.073579445 0.43692392 0.6435147 0.6672195 0.109487265 -0.0025230013 0.032548048 0.17182486 0.6644532 0.6500257 0.6524832 0.2542037 0.24564049 -0.034709364 -0.18626788 0.5738106 0.56407386 0.36038017 0.35711536 0.074245535 0.34077743 0.2819949 -0.06463212 -0.0035233386 -0.23586653 0.4972939 0.523965 -0.05397351 0.36098003 0.37288713 0.4717615 0.47455418 -0.22137263 -0.0867012 0.040728066 0.31410158 0.29013285 0.04904384 0.19788948 0.23405516 0.22282073 0.08040261 0.040253416 -0.062574