# vtk DataFile Version 2.0
Really cool data
ASCII
DATASET POLYDATA
POINTS 10568 float
5.3545227 78.843056 89.78654
5.3288283 78.978 90.183846
5.2985706 79.514435 88.965515
5.1403065 79.656525 89.63195
5.209367 79.740265 90.4343
5.377377 79.542244 90.77371
5.3352385 80.21385 88.87802
5.1237664 80.39917 89.65828
5.207627 80.41908 90.34143
5.346985 80.284134 90.763794
5.3277135 80.92006 90.256134
6.061898 78.213165 88.93899
6.016229 77.93365 89.6092
6.0125475 77.934975 90.38984
6.1000085 78.14772 90.84877
6.068467 78.96828 88.22033
5.809468 78.73366 88.72439
5.631504 78.542946 89.294205
5.70666 78.45905 90.539825
5.8924417 78.70469 90.96331
5.9039955 79.56335 88.10844
5.56033 79.559326 88.450554
5.450273 79.425896 90.669266
5.8588533 79.62883 91.13839
5.944541 80.1306 88.07659
5.5740037 80.59155 88.65601
5.609089 80.33378 90.93093
6.2657294 81.08504 88.08066
5.822721 81.2144 88.707664
5.6031394 81.29991 89.473885
5.568986 81.12628 90.37443
5.761524 81.0907 90.73868
6.2537894 82.404434 88.88295
6.1316767 82.469635 89.36269
6.202091 82.13601 90.34783
6.3475513 82.83065 89.54071
6.3615603 82.75449 90.02841
6.3209033 105.9456 58.07421
6.2491226 105.833435 58.55118
6.1992626 105.88984 59.133347
6.2678137 106.45605 57.98609
6.0299463 106.55844 58.62804
6.019302 106.52083 59.33253
6.268197 106.41463 59.892952
6.3059607 107.33829 58.009464
6.028996 107.28659 58.71653
6.015487 107.30125 59.54439
6.3091893 107.53728 60.165306
6.4566903 107.72961 63.540356
6.4715943 107.66889 64.06221
6.3742437 108.42213 58.920647
6.304455 108.2914 59.370247
6.339728 107.96371 60.06429
6.786334 77.37947 89.77226
6.862454 77.3626 90.393875
6.644345 77.8557 88.96052
6.456156 77.559456 89.73304
6.4645343 77.573 90.40449
6.6701303 77.891174 91.036736
6.4783792 78.9179 88.05332
6.411021 78.50867 88.38352
6.616326 78.443855 91.33176
6.5046167 79.42787 87.82963
6.4254093 79.436386 91.37829
6.9466505 79.29134 91.582344
6.8085923 80.20169 87.61707
6.539622 80.539795 91.414215
6.809486 80.33303 91.58256
6.6288185 81.26325 87.84702
6.6329274 81.32067 91.18956
6.650883 82.23235 88.06159
6.461542 82.51377 88.63061
6.5696216 82.553215 90.47305
6.749528 82.2182 90.76756
7.155571 82.8835 88.123955
6.8507214 82.99076 88.654366
6.7191978 83.1502 89.47149
6.7633524 82.99545 90.14041
6.993692 105.284424 58.08386
6.784906 105.26332 58.536446
6.9382424 105.20527 59.03263
7.1453433 106.00575 57.268673
6.7676167 105.67518 57.84187
6.503393 105.491066 58.39004
6.6279416 105.59746 59.349518
7.03181 105.908264 60.151127
7.214301 106.28509 63.3667
7.183615 105.88245 64.57164
7.10269 106.0137 65.4472
7.2196994 105.979614 66.1609
7.03467 106.751305 57.162594
6.6612477 106.420494 57.526943
6.586301 106.39103 60.176582
7.2444677 106.4519 62.924717
6.9506783 106.583755 63.55711
6.7173753 106.81842 64.5318
6.8950267 106.59794 65.4684
7.0705853 106.56462 66.26262
7.2789307 106.775696 66.70554
7.113662 107.42863 57.13719
6.7170205 107.568184 57.548496
6.4677806 107.29133 60.50558
6.589583 107.69757 62.82144
6.5624275 107.35256 63.526146
6.584806 107.505646 64.51713
6.8160143 107.35726 65.40972
7.1089706 107.31268 66.28458
7.27607 107.001755 66.74938
7.259823 107.935486 57.13548
6.803019 108.22374 57.747066
6.5277395 108.509605 58.372543
6.514865 108.752014 59.074135
6.8274126 108.40604 61.26058
6.7755647 108.17072 62.76088
6.60658 108.23937 63.566982
6.763747 108.29984 64.44873
7.0220833 108.13639 65.27231
7.155402 107.813545 66.04791
7.1763425 109.39458 57.769745
6.801522 109.28538 58.55064
6.700135 109.31368 59.396904
6.8525114 109.17103 60.467888
7.0679574 109.46742 61.938747
7.2684016 109.22461 63.423992
7.147016 108.99342 64.21014
7.224054 108.840675 64.84163
7.2895765 109.98697 58.104927
7.2148023 110.01772 58.61174
7.10634 109.99254 59.372913
7.369674 110.36088 61.241802
7.46227 111.96958 62.728836
7.4628987 112.38341 62.577587
7.447743 112.486946 63.148563
7.46055 113.01368 62.33556
7.301317 77.24213 89.74063
7.4495826 77.25122 90.25045
7.474886 77.39237 90.83858
7.4694676 77.63799 88.862816
7.4230886 77.736626 91.04959
7.2593756 78.55646 91.446724
7.352744 79.7006 87.62432
7.4417734 79.61954 91.63281
7.6303844 80.419655 87.64212
7.825766 80.313675 91.82661
7.823735 81.17335 87.340935
7.27195 81.152534 91.49816
7.847009 82.6081 87.707664
7.411481 82.42457 90.91404
7.6530967 82.99989 88.14003
7.2026305 83.22042 88.723145
7.406278 83.43458 89.24537
7.587832 83.23166 90.27612
7.7345886 82.94494 90.72493
8.33698 96.977036 82.16714
8.307511 96.86574 82.75299
8.251992 97.00156 83.22907
8.237916 97.697334 81.799995
8.111004 97.54641 82.540634
8.189471 97.50766 83.54848
8.314406 97.60454 83.94831
8.237595 98.719475 81.03336
8.096987 98.71011 81.5979
8.028487 98.568535 82.42772
8.113826 98.28799 83.42285
8.319801 98.34316 84.01758
8.198763 100.18694 73.45777
8.30972 100.02909 74.365906
8.230603 99.194305 81.123535
8.193009 99.28721 81.54705
8.232122 99.312836 82.281944
8.3858595 99.06883 83.45349
8.323278 100.875244 72.284744
8.130377 100.66687 72.71658
8.002825 100.686485 73.44754
8.103462 100.525925 74.33081
8.336157 100.686646 75.22397
8.297667 101.29307 72.248856
8.044257 101.42015 72.72412
7.9542675 101.421936 73.39271
8.063306 101.26041 74.16241
8.47271 101.960014 75.73162
8.402012 102.09929 76.702286
8.309362 101.8017 77.76122
8.18557 102.119545 78.31208
8.222031 101.9998 72.76958
8.17203 102.01331 73.40088
8.153579 102.690575 76.938805
8.047497 102.51629 77.63443
8.0706415 102.70131 78.3122
8.338983 103.13182 76.54442
8.114017 103.32315 77.60809
8.154648 103.34191 78.3479
8.282578 103.25686 78.84632
7.3075566 105.29565 57.940907
7.3939433 105.1297 58.52571
7.4128833 105.21419 59.113182
7.91219 105.008644 64.533844
7.7965136 105.063774 65.34771
8.124275 104.866776 65.85538
8.376869 103.88432 76.89989
8.304966 103.8837 77.77614
8.342764 103.9428 78.30607
7.58696 105.953804 57.21313
7.4412546 105.630745 57.52084
7.2385335 105.465454 59.585636
7.376558 105.78927 60.071598
7.928373 106.30325 61.027485
8.184256 105.513855 62.767582
7.5754395 105.60637 63.66174
7.54017 105.37114 64.644806
7.686959 105.7352 66.39547
7.744632 105.968864 66.75067
7.77177 106.595665 56.810116
7.6004395 106.652405 66.93604
8.111815 107.163994 56.452656
7.7220216 107.36969 56.73891
7.639228 107.23318 66.97261
7.7636933 108.44879 56.883682
7.58123 108.546165 65.40885
7.532607 108.04275 66.310165
7.5475564 107.73572 66.73984
7.9828076 109.19958 57.0112
7.4612956 109.72797 57.559826
7.46344 109.25213 64.44934
8.024428 109.94174 57.27469
7.7875195 110.17918 57.689625
7.5371776 110.40802 58.484463
7.542411 110.41026 59.670418
7.4898777 110.59226 61.228634
7.9939046 111.050896 63.508595
8.19488 111.20737 72.652954
8.263355 111.04645 73.61472
8.345649 111.138885 74.28859
7.630679 111.026985 61.663967
7.6431217 111.07808 62.72382
7.7324204 111.46883 63.300068
7.934814 111.68957 63.946213
8.040581 111.83403 71.79557
7.8920555 111.715996 72.55342
7.866351 111.672325 73.20879
7.9886303 111.872444 74.45803
8.199263 111.86219 74.90452
8.142255 112.56599 61.256134
7.687873 112.41231 61.809006
7.515143 112.24119 62.169277
7.64591 112.45554 63.61049
7.7939825 112.38864 63.9779
7.9264936 112.38186 71.739525
7.792112 112.4941 72.57801
7.743322 112.53775 73.66994
7.856619 112.52057 74.430405
8.092268 112.622734 74.94696
7.8968043 113.36389 61.76687
7.699442 113.43303 62.444195
7.7206917 113.32436 63.373867
8.003256 113.1058 64.124016
8.092994 113.23556 71.99809
8.035711 113.129486 72.17473
7.9932632 113.297905 73.59594
8.011604 113.23604 74.42528
8.152162 113.08196 74.893166
8.022314 113.83583 61.9164
8.1106 114.07149 62.49744
8.062795 113.90535 63.221973
8.237167 77.396935 89.1172
8.191538 77.31192 89.68076
8.337825 77.23619 90.05749
8.154843 77.93368 88.32348
8.113726 77.67599 88.65537
8.51334 78.47897 87.90008
8.470007 78.492195 91.13003
9.166202 80.07847 81.09465
9.170861 80.09203 81.54577
9.240884 80.04765 82.00109
9.14486 79.21043 87.2418
8.557198 79.227585 91.325935
9.211467 81.06694 79.15684
9.124133 80.77361 79.68829
8.946196 80.68543 80.46521
8.944723 80.664925 81.330505
9.011114 80.755745 82.270386
9.150989 81.55761 79.02323
8.876584 81.50908 79.557915
8.692898 81.38585 80.554695
8.720144 81.57859 81.467514
8.884925 81.46636 82.30652
9.0664 81.3577 83.06496
8.896677 81.504524 87.017654
8.405069 81.15505 91.60508
9.137491 82.2666 79.08891
8.89836 82.4317 79.62941
8.712526 82.373856 80.40394
8.714095 82.4361 81.3038
8.864424 82.3652 82.41142
9.357309 82.98083 83.81439
8.570995 82.47327 87.60546
8.437112 82.60847 90.8018
9.148122 83.09259 79.65745
8.9762335 83.258026 80.622826
8.929224 83.48793 81.435
9.017738 83.36738 82.82459
9.205047 83.45547 83.70096
9.405373 83.35268 84.063126
8.238063 82.82504 87.85
8.273125 83.31457 88.58437
8.31212 83.25931 90.202095
9.213616 83.86263 80.85006
9.22898 84.12132 81.559685
9.332824 84.4841 82.97997
9.234208 84.33847 83.5957
9.411959 85.80283 95.12424
9.354928 85.82763 95.59339
9.373854 85.76389 96.16227
9.341014 86.87605 84.9487
9.184463 86.81658 85.57493
9.358948 86.81721 95.00766
9.290506 86.42622 95.40577
9.180744 86.61429 96.044136
9.3494625 86.59218 97.011375
9.268187 87.58455 84.933754
9.060336 87.56653 85.528755
9.140286 87.621414 86.21657
9.174291 87.54553 96.51686
9.248074 87.62648 97.49952
9.375646 87.756195 97.924644
9.143942 88.05266 85.54645
9.204128 88.134544 86.07813
9.188417 88.57687 95.70819
9.086673 88.356674 96.4834
9.056717 88.50068 97.15008
9.362347 90.04821 94.54399
9.1018505 89.45561 95.4433
8.912355 89.65604 96.371994
8.936997 89.95677 97.05374
9.31874 90.580185 94.01149
9.06785 90.83552 94.5975
8.997958 90.427895 95.46466
8.8379755 90.50883 96.7044
8.921276 90.4992 97.44117
9.261471 90.43911 98.08107
9.114332 91.46502 94.069275
8.941924 91.56894 94.52925
8.777075 91.82322 95.37369
8.677333 91.617935 96.39412
8.9833975 91.52172 97.3116
9.235654 91.7632 98.18265
9.191004 92.17678 94.053345
9.04313 92.25728 94.52827
8.6321125 92.625374 95.76405
8.6623335 92.409996 96.463844
8.901011 92.714386 97.291885
9.237242 92.571335 98.36304
[...]
POINT_DATA 10568
SCALARS features_00 float 1
LOOKUP_TABLE default
0.7981747 0.7794139 0.7692152 0.7858193 0.73672295 0.72609806 0.75646555 0.76209104 0.7177094 0.6957109 0.6974714 0.7315848 0.7790576 0.7986344 0.7888948 0.6727247 0.7287636 0.7803406 0.78843015 0.75763094 0.6653334 0.70797557 0.7363243 0.68675244 0.6507319 0.7154877 0.67226666 0.63214767 0.6923315 0.71406984 0.6764863 0.65072453 0.6706789 0.67875975 0.6622094 0.6918019 0.6909606 0.8311671 0.8458842 0.8325354 0.80595714 0.8245151 0.8097241 0.7857756 0.723281 0.7276028 0.6678051 0.54652977 0.4492876 0.47711033 0.5129047 0.48690557 0.46143484 0.7233764 0.7576207 0.681796 0.7497163 0.7814704 0.7813437 0.6186388 0.6540259 0.74985886 0.60269284 0.6715355 0.65592194 0.5663088 0.612671 0.60655165 0.5975225 0.6069453 0.62604666 0.6631546 0.67275226 0.6432346 0.6167297 0.66042256 0.6966046 0.70201385 0.83250386 0.83276004 0.7925075 0.7665442 0.82537127 0.8435563 0.7942588 0.66591716 0.4749707 0.53081965 0.5857349 0.595304 0.70861876 0.7711741 0.7353342 0.4255135 0.49366158 0.53990006 0.5855413 0.5912043 0.57890725 0.64183384 0.66291857 0.553347 0.38104087 0.47247 0.50571334 0.5448679 0.55784535 0.5695534 0.58606064 0.5839971 0.5369749 0.45003948 0.14079589 0.31971765 0.40321738 0.4440534 0.4852671 0.523148 0.46735567 0.44208843 0.360511 0.241316 0.06248361 0.24087113 0.3613912 0.4070511 0.399785 0.3819703 0.32677495 0.08555749 0.41679996 0.45887768 0.5002423 0.5165427 0.6878475 0.716738 0.74374175 0.6156967 0.75317025 0.7067055 0.49034244 0.60740024 0.4564975 0.5646888 0.4204264 0.58817697 0.50845224 0.6383816 0.5838434 0.65013856 0.7067436 0.7088434 0.6680223 0.5530609 0.604903 0.6566385 0.56924796 0.6444559 0.7098293 0.72077733 0.52924 0.60182893 0.68531615 0.73867935 0.73730195 0.5913829 0.48944116 0.55335176 0.60604924 0.6524837 0.6817522 0.5968391 0.62853086 0.62270033 0.5203654 0.35062942 0.5502557 0.5662295 0.5696186 0.5066199 0.22320978 0.27062303 0.3228014 0.40913165 0.4552044 0.44561684 0.34345526 0.3918745 0.447441 0.32637963 0.41623956 0.44786727 0.44300595 0.82108146 0.8012946 0.7421844 0.5181271 0.55682915 0.55502754 0.3535666 0.39938337 0.40911734 0.7510705 0.79315 0.7056011 0.62109846 0.2742891 0.3542356 0.46907765 0.5246023 0.5791339 0.57192796 0.6737884 0.5683994 0.6117364 0.6131234 0.53863645 0.53880227 0.41734993 0.4824232 0.50792634 0.46477368 0.42984092 0.30961847 0.37372708 0.3641116 0.34357446 0.25314453 0.10464973 0.32594872 0.5276342 0.44046456 0.4312244 0.19855854 0.2793063 0.39419952 0.4586699 0.6554723 0.6183219 0.5685837 0.5248187 0.4956677 0.36799753 0.39994246 0.40975106 0.5220906 0.53346103 0.6826701 0.6569401 0.61798275 0.57475686 0.5414913 0.49815822 0.55887973 0.5995461 0.6223304 0.58626974 0.5976995 0.5427712 0.54640913 0.5290328 0.52246594 0.55653715 0.5976982 0.570849 0.6158852 0.6165166 0.4825722 0.53966063 0.36699092 0.56354094 0.7278186 0.7059421 0.69304657 0.31907737 0.50638974 0.9112915 0.844648 0.7599672 0.68066883 0.64259875 0.9390183 0.8681679 0.7342136 0.61661917 0.5590614 0.49735707 0.2764499 0.5414542 0.93588734 0.8364359 0.71027625 0.5743576 0.46759552 0.35505852 0.41227013 0.6223525 0.75373805 0.60180885 0.49295372 0.43909606 0.37375093 0.33744845 0.49402606 0.5628613 0.6943767 0.5481154 0.45980445 0.39266437 0.38655138 0.3048124 0.30330598 0.28590116 0.5304492 0.6227324 0.24982151 0.28825986 0.25667453 0.22282743 0.5855285 0.65564114 0.6556814 0.22977442 0.26316983 0.27512136 0.64798075 0.6494963 0.19515866 0.23022142 0.24839692 0.28183764 0.2259889 0.24993666 0.25471964 0.33276737 0.34722573 0.30047664 0.28564623 0.25417393 0.21028106 0.39874917 0.41358918 0.42988718 0.3517533 0.28016633 0.27897698 0.43495739 0.45641392 0.48474124 0.40005022 0.3263356 0.30747497 0.34228218 0.45252055 0.48883253 0.43271726 0.36015946 0.32337934 0.34908205 0.42635617 0.42578515 0.33361754 0.31855574 0.50911176 0.58398855 0.6015557 0.38328496 0.4370536 0.5685302 0.63069403 0.6677813 0.31400055 0.40489185 0.49438012 0.71424174 0.7001617 0.40162665 0.35513768 0.15732835 0.315474 0.42471772 0.72069854 0.7104168 0.5648764 0.5853168 0.5166714 0.43597883 0.3392499 0.19793017 0.0847409 0.07934466 0.49116492 0.61652935 0.6335504 0.6707978 0.5927269 0.2375987 0.18962747 0.17099373 0.5271044 0.5465331 0.562086 0.4935341 0.34483752 0.22276002 0.32029068 0.37718424 0.26396134 0.39762396 0.31843567 0.33001563 0.21080104 0.4053634 0.5399619 0.555153 0.20691258 0.1536304 0.17464629 0.17673776 0.20522863 0.40384024 0.7846197 0.74021566 0.64858496 0.3061406 0.45672512 0.5310179 0.5520106 0.5504263 0.5034482 0.028985716 0.01025185 0.017904315 0.31602454 0.34235626 0.3769768 0.27624458 0.6953229 0.7474536 0.5028148 0.26192456 0.21188991 0.5177457 -0.0037610382 0.15471376 0.20532463 0.25667915 0.6163285 0.64730203 0.47354472 0.14535725 0.20051485 0.14341424 0.12503247 0.055810973 0.5897572 0.58133435 0.44790944 0.19238706 0.22647078 0.20627305 0.15392956 0.5492045 0.52524555 0.3715471 0.17253582 0.21089663 0.20524518 0.20597333 0.13678518 0.39964467 0.26365903 0.24356468 0.2938109 0.30036503 -0.02169694 0.5066353 0.53946847 0.43367764 0.42334056 0.2654163 0.20220888 0.15071167 0.43976575 0.59196204 0.5915737 0.4611774 0.12933491 0.12770227 0.17675334 0.21987426 0.5729182 0.62994444 0.4982797 0.39599398 0.33804464 0.61743605 0.51617694 0.57533133 0.4615744 0.4476879 0.476515 0.52624226 0.5552623 0.58190405 0.37825984 0.34570247 0.3603372 0.4688909 0.484211 0.4880872 0.4247337 0.2948825 0.39336413 0.30369452 0.5173932 0.5246564 0.54771376 0.5113954 0.47653574 0.36697626 0.5592388 0.585377 0.58813405 0.5483465 0.59437585 0.5964047 0.23587704 0.367752 0.32242107 0.7408608 0.29897213 0.83682996 0.7612761 0.73368573 0.70712787 0.3373955 0.9164891 0.87936556 0.59562945 0.2923171 0.28376442 0.97805417 0.25201344 0.2576579 0.96253926 0.32526648 0.24487951 0.21784654 0.8262084 0.73041725 0.27101597 0.6241199 0.48552465 0.6712025 0.54205066 0.4539845 0.38782653 0.3471281 0.16786823 0.24744293 0.29756802 0.27598917 0.36243123 0.51290935 0.5850069 0.4127105 0.3222696 0.2316298 0.33390018 0.2506608 0.23825471 0.22377197 0.2805004 0.27238327 0.25765038 0.35893154 0.4631969 0.5505432 0.5774624 0.5922762 0.27102977 0.3005065 0.308745 0.24818918 0.22293687 0.25505272 0.43735322 0.49719846 0.34652156 0.40768677 0.6035305 0.27212098 0.30087793 0.29705402 0.119871676 0.27724072 0.29674524 0.55427384 0.6211273 0.6096243 0.6019839 0.26346007 0.22798946 0.23969477 0.27498332 0.5548693 0.5370045 0.21295688 0.19479401 0.12919152 0.2964113 0.29163057 0.18753007 0.2296277 0.35410506 0.367662 0.32309198 0.394582 0.5536937 0.34629768 0.39733183 0.40061733 0.44419786 0.5623323 0.5554546 0.5209892 0.3961399 0.41497272 0.33187133 0.39643666 0.45118672 0.49321726 0.5335373 0.51352656 0.45013765 0.3600706 0.3546927 0.34311533 0.33608076 0.41132885 0.52458316 0.43337914 0.4492888 0.40017116 0.25678965 0.35115957 0.39522687 0.5341664 0.57173365 0.28896418 0.32324952 0.32386282 0.33417463 0.4332742 0.49833935 0.34231004 0.39530078 0.3896608 0.2899937 0.1817779 0.24349198 0.21513753 0.37522364 0.595744 0.60855585 0.32333782 0.777617 0.3327122 0.34000665 0.34501398 0.2640978 0.16998109 0.1506123 0.10766657 0.24872884 0.64836633 0.72928 0.775077 0.8500271 0.73378396 0.30331203 0.2623579 0.3020013 0.28631517 0.24069259 0.34396046 0.2712433 0.23582223 0.17968708 0.0187308 0.65971947 0.79381096 0.86394924 0.68905425 0.3694763 0.07686746 0.09535431 0.21774545 0.24976528 0.245538 0.375517 0.58130383 0.6324333 0.7425511 0.48970622 0.24341913 0.12216888 0.1917813 0.1559208 0.4736642 0.4088781 0.44464839 0.45432156 0.50052124 0.15492477 0.15474539 0.15062591 -0.012849167 0.10958542 0.15624796 0.32705203 0.019337017 0.018025864 0.25366688 0.536446 0.54438496 0.49520198 -0.034076076 0.083039545 0.22187185 0.19950008 0.33316237 0.41134068 0.032511517 0.20326042 0.093612336 0.20527092 0.66752887 0.66819036 0.5262591 0.23204212 0.101444215 0.1268685 -0.052635193 -0.090546526 -0.108334124 -0.06553221 0.01280167 0.10076299 0.20594311 0.16020438 0.30953306 0.61982894 0.6305219 0.021961346 -0.07176405 -0.026336662 -0.001283207 0.034935683 0.061156675 0.013067964 0.0022023246 0.4848455 0.48231736 0.4920079 0.5844972 0.54393065 0.023607 0.07140422 0.029970199 -0.041302744 0.4113474 0.5721672 0.55689764 0.5220532 0.048814066 0.08746815 0.09917302 0.11310302 0.08863887 0.52037334 0.5908271 0.5887429 0.018895468 0.18424878 0.15160753 0.065608025 0.1616327 0.35394812 0.40585512 0.23606361 0.13598995 0.15490997 0.31485453 0.27755255 0.4396286 0.48847884 0.31834757 0.27565825 0.24268799 0.26996517 0.33733055 0.50119483 0.5061001 0.32581663 0.26909122 0.37670225 0.392291 0.4336654 0.47424495 0.32060507 0.32614043 0.3624854 0.5031706 0.4566912 0.40215176 0.52690196 0.5459647 0.53917384 0.4650389 0.5569373 0.5841149 0.5856458 0.5742352 0.4375683 0.4615023 0.35812712 0.4079196 0.42448416 0.41989255 0.30379158 0.27570376 0.32945246 0.37566698 0.33177885 0.30885994 0.38586208 0.283548 0.31058884 0.32015142 0.22837552 0.17373404 0.2616341 0.22566131 0.18857741 0.1931747 0.013982297 0.27637523 0.26740614 0.2611029 0.73099136 0.7258707 0.25517625 0.29912245 0.23899072 -0.09142602 0.23939867 0.3190976 0.34362483 0.81800544 0.7411554 0.719134 0.7160268 0.7226397 0.104291335 0.4074741 0.37651104 0.89063114 0.8255017 0.5648923 0.32002726 0.07184245 0.14207403 0.3682808 0.9556303 0.27716494 0.26092494 0.1019891 0.31186375 0.93401563 0.10098301 0.3735429 0.46587446 0.53502285 0.8211392 0.6618492 0.0467451 -0.3713369 0.08784278 0.11838971 0.09744937 0.028345674 0.12445989 0.2046057 0.280163 0.39721888 0.5148449 0.5721544 0.61947113 0.5134813 0.052031226 0.12601365 0.15238523 0.15604036 0.23653482 0.25891343 0.6051053 0.6066022 0.41575313 0.29663548 0.099385306 0.18811387 0.58895254 0.026573852 0.20056613 0.1305286 0.23497355 0.524359 0.14942534 0.4263385 0.21882617 0.2517662 0.34728235 0.40813887 0.23002118 0.46528652 0.071198285 0.11037984 0.21490395 0.31784382 0.1818416 0.26019776 0.4875685 0.17662273 0.09127353 0.07550691 0.08849924 0.20761779 0.04027866 0.17833535 0.32633436 0.36969954 0.47752872 0.4366891 0.04370054 0.44796824 0.46621224 0.50408596 0.5273879 0.52457136 0.51032484 0.4190673 0.32931373 0.32801098 0.29348573 0.47981882 0.4866473 0.4868297 0.514163 0.54901934 0.5057826 0.46585557 0.35728014 0.38695443 0.37707716 0.32804847 0.16724399 0.33400595 0.50750977 0.53983223 0.4677977 0.49049276 0.3958401 0.28070462 0.21142063 0.355811 0.41450936 0.3783244 0.34172055 0.14507277 0.2742737 0.54689014 0.42109013 0.44788152 0.3068087 0.2637953 0.18300979 0.33727062 0.13280404 0.13643795 0.19910467 0.31839395 0.3629691 0.40265208 0.36655253 0.21286502 0.26146334 0.33138567 0.5503608 0.5576656 0.3392149 0.2426838 0.11075547 0.11307297 -8.5033476e-05 0.20159478 0.46442175 0.28587455 0.32456216 0.31725878 0.32834613 0.44816053 0.529032 0.69992864 0.6883444 0.25652173 0.17634135 0.05173973 0.06425164 0.018441038 0.36539477 0.68822753 0.6938071 0.008434966 -0.012027599 0.1145406 0.4631904 0.6662806 0.68849516 0.063035786 0.10556025 0.073622406 0.12618572 0.3422649 0.62066406 0.6259918 0.07552565 0.031491548 0.27637494 0.36361182 0.41696918 0.24370576 0.16037522 0.2750154 0.13120502 0.1522857 0.06274064 0.033284165 -0.049523823 0.5500211 -0.22566834 -0.04645686 -0.25393295 0.012759568 0.29623127 0.5179869 -0.14349642 -0.12779902 -0.19979902 0.11517608 0.35909396 0.56075764 0.06968713 0.10383761 0.17786194 -0.12329829 0.3867821 0.6069115 0.5038647 0.4955069 0.49021217 0.5822678 0.03088899 -0.051733017 0.10327641 0.54654366 0.53408486 0.35288823 0.004494354 0.2026399 0.36406216 0.49472386 0.5928276 0.5919273 0.5680344 0.35295954 -0.018376185 -0.097536296 -0.028560862 -0.040958494 0.502593 0.583657 0.32486182 0.22464266 -0.07590796 -0.019761672 0.2420621 0.0983354 0.24955228 0.05407739 0.09446624 0.1956706 0.13069609 0.2829033 0.17335272 0.13249019 0.12516458 0.115515865 0.118908636 0.2623316 0.19392192 0.098485276 0.28540316 0.2117644 0.24721825 0.25942332 0.3593504 0.41926676 0.38077307 0.35523117 0.4757976 0.41571176 0.3904961 0.48474032 0.5129292 0.43140152 0.4045248 0.5325801 0.55943584 0.5624009 0.5665988 0.5379667 0.4535432 0.5622263 0.42114222 0.49064618 0.5174483 0.5077862 0.30868226 0.413152 0.48157966 0.4912983 0.48916423 0.3880706 0.35057747 0.30818453 0.23176962 0.31373936 0.43745327 0.44617188 0.40680864 0.39490116 0.30906087 0.24824952 0.27218902 0.35139334 0.4241168 0.16094662 0.17986414 0.36416066 0.17855868 0.19732518 0.3144164 0.24181876 0.25139558 0.15459937 -0.08687779 -0.05911547 -0.034733295 0.20192069 0.18790255 0.710512 0.6583631 0.63154507 0.6340941 0.4978481 0.16005921 -0.09292066 0.26375315 0.28233585 0.22931065 0.79558337 0.69656193 0.5877774 0.10351938 -0.031862676 0.18049693 0.25092554 0.8436159 0.66333073 0.14694248 0.15286632 -0.20598729 -0.11728631 0.22814098 0.26549384 0.245097 0.12036537 0.79863846 0.12396927 0.023032464 -0.11649263 0.15309937 0.3361813 0.4514327 0.4970975 0.72421944 0.60965836 -0.5045354 -0.40807053 0.58060586 0.5862223 0.50644505 0.45236167 -0.22327828 -0.47503114 -0.040028363 0.5877552 0.2500998 -0.43329138 -0.27031565 0.050092246 0.522552 -0.06122358 0.08928847 -0.03547117 0.3853049 -0.011420831 0.3832497 0.051174708 0.32570505 0.16737983 0.15168343 -0.00018694997 0.03167376 0.084949866 0.08148302 0.19574445 0.45776033 0.4553733 0.4173924 0.110904254 0.12874529 0.19284332 0.2828539 0.38381502 0.30321285 0.18084194 0.058914237 7.215142e-05 0.4092572 0.4439261 0.43673605 0.37435147 0.31912577 0.13297531 0.17901981 0.2151372 0.08416209 0.08909591 0.09600232 0.28095853 0.36867768 0.02910349 0.44794706 0.46515405 0.46669808 0.4682188 0.23669545 0.15626934 0.1980029 0.2823866 0.29361206 0.26506156 0.04332842 0.07372741 0.09017476 0.121521235 0.2566436 0.06318674 0.4843217 0.46726114 0.46078607 0.3164063 0.18763122 0.06425509 0.14206019 0.23289344 0.50287914 0.44811955 0.18377775 -0.009739682 0.19419436 -0.07560703 0.07817538 0.1814357 0.5036518 0.48643517 0.34972632 0.43591863 0.02602224 0.14590031 0.025964223 0.21071966 0.2602607 0.24855365 0.5131665 0.49145764 0.1682104 -0.11171706 -0.13271147 0.2529439 0.26827556 0.31127533 0.5169567 0.5273443 0.5743678 0.35221428 -0.033282388 0.20732296 0.045572132 0.005145043 -0.13571323 0.22677977 0.37655413 0.3849051 0.39645198 0.36307526 0.5368116 -0.063250214 -0.20089382 -0.13321769 0.23617683 0.4096155 0.51634014 0.41717485 0.006679453 0.07269242 0.28414854 0.25381893 -0.01195323 0.13233079 0.15051228 0.11548715 0.31759548 0.342587 0.139004 0.15606925 0.4302104 0.4355372 0.16044344 0.09974576 0.060481466 0.07660339 0.47179535 0.46875787 0.2838587 0.12395062 -0.16467741 0.5077056 0.47051436 -0.28893387 0.21759239 0.5864221 0.55961037 0.49014142 0.47631323 -0.26900682 0.15743376 0.4487688 0.5922004 0.58932287 0.42607325 -0.011393456 -0.038933046 -0.1583024 0.34460545 0.2853043 -0.22996423 -0.19238469 -0.20555808 0.03953613 -0.05541254 0.3007387 0.2234776 -0.18460816 -0.14946504 -0.359111 -0.22573404 0.01548408 0.2307451 0.19270033 -0.005462939 0.06255816 0.12517211 0.21699446 0.17886561 0.107890256 0.13871968 -0.15090421 0.20121205 0.17720035 0.1168001 0.17495272 0.0054056495 0.32666224 0.2644468 0.36371693 0.14990713 0.36280978 0.47437185 0.4747659 0.4324618 0.34265125 0.38286018 0.36536568 0.37278977 0.5022159 0.5433669 0.53890175 0.41506118 0.44617012 0.4210003 0.33305013 0.4939818 0.5384679 0.51897025 0.46461028 0.53250647 0.3193923 0.4558379 0.52389556 0.18842348 0.3536437 0.52537715 0.50434756 0.20023409 0.47964174 0.42442834 0.90419173 0.37890708 0.3453654 0.29215735 0.1616256 0.4088039 0.39385146 0.40334308 0.27757224 0.3294326 0.10929668 0.12887838 0.18043414 0.15282638 0.12545401 0.03535619 0.07729056 -0.025627702 0.11003028 0.06277172 -0.06334077 -0.10833086 -0.058929488 0.14612716 0.5137166 0.36624545 0.46974683 0.10600522 -0.21336481 -0.08273806 -0.16757137 -0.06688748 0.005076036 0.5508217 0.45003465 0.12729624 0.042861488 -0.19802946 0.22376424 0.2591223 0.4852278 0.3251051 0.5311799 0.4325943 0.30211958 0.53877383 0.29151893 0.43299568 0.45643938 -0.0048407204 0.3267634 0.34609616 0.08178431 0.3037246 0.06879948 0.4828695 0.42685062 0.078764245 0.09481938 0.07506342 -0.020288676 -0.021603554 0.021415114 0.4948097 0.48435575 0.42461404 0.32274097 0.16506042 0.091266476 0.13039042 0.15474185 0.10581114 0.19325347 0.09999035 0.01165846 -0.028524756 0.4273833 0.23456393 0.102607414 0.09290337 0.16986722 0.17823677 0.17449106 -0.009480458 0.0951934 0.34335154 0.25637335 0.107543975 0.45182103 0.38335913 0.38084865 0.18127778 -0.048578143 0.17123926 0.18805428 0.13495803 0.46225455 0.44083 0.4005086 -0.11841003 0.19988966 0.1585634 0.46607995 0.41284293 0.43490344 0.11818872 0.4830899 0.45980957 0.28410435 0.2180858 0.1351314 -0.03358964 0.121115014 0.4798438 0.2973196 0.21944958 0.018542416 -0.02347073 -0.11770346 0.13310924 0.23823622 0.4959947 0.27099583 -0.40626144 0.13986364 0.04603991 0.35141182 0.505245 0.51266295 0.3347442 0.29585582 0.1904191 0.4121404 0.43015808 0.47998473 0.5413147 0.27123317 0.1338489 0.33005357 0.1129678 0.19146249 0.0945287 0.17893441 0.08497493 0.17393713 0.18520579 0.076095 0.04804623 0.057301715 -0.41183358 -0.24376914 0.09903959 0.16968417 -0.029989421 -0.052856654 -0.006327659 0.012745738 0.10820235 0.31698573 0.11778782 -0.008278836 0.027620416 0.43819153 0.5414897 0.43064815 0.008425202 0.4859318 0.44927317 0.6006312 0.59064305 0.5098868 0.53094643 0.55425286 -0.30801243 0.44356412 -0.0891294 -0.09429435 0.03975426 0.1034932 0.4145223 -0.19408308 -0.19881386 -0.09125645 -0.060794126 0.076703906 0.15310764 0.1742149 0.31239763 -0.048203826 0.09595197 0.14493304 0.17366621 0.3140846 0.28387016 -0.06422068 0.0006556697 0.17465809 0.20743209 0.3331691 0.29288384 0.22061953 0.11335446 0.2269677 0.3166305 0.25122547 0.14137809 -0.21019202 -0.23163143 0.14232871 0.36254376 -0.19531149 -0.08729984 0.13619386 0.3184653 0.19349584 0.19319968 0.24323456 0.24379851 0.3842463 0.44148362 0.35155636 0.2773672 0.21254908 0.21214646 0.40186882 0.45206982 0.44355857 0.409105 0.38972938 0.43608984 0.4291222 0.34211272 0.55371773 0.5945796 0.59706455 0.5907898 0.5408375 0.590281 0.6305119 0.58268857 0.54271424 0.5211899 0.57478714 0.6471032 0.58606565 0.5130589 0.5075428 0.5512965 0.60811937 0.26284373 0.3564131 0.43158937 0.10948117 0.19260502 0.45310682 0.7366056 0.76108843 0.706969 0.030341176 0.43054402 0.84331983 0.8695049 0.78089374 0.10891295 0.41248107 0.77932966 0.8645494 0.90604573 0.8570175 0.76099855 0.32636556 0.3255939 0.2392118 0.2938675 0.84338975 0.79767644 0.7731973 0.18612657 0.59391916 -0.108921975 0.18306234 0.07637644 -0.07576931 0.078429945 -0.33094952 0.076530054 -0.084792696 -0.2122154 0.043224454 0.013400659 0.33003742 0.377217 0.38938016 0.3987143 -0.10535343 0.014156523 0.43517458 0.4301648 0.4218993 -0.07018234 0.0014422312 0.46590304 0.46680203 0.4406548 0.16577749 0.118113786 0.15075496 0.45463747 0.43526605 0.11113213 0.37765092 0.38142845 0.44132513 -0.038297124 0.37396765 0.1296332 0.13921252 0.13957919 0.2892652 0.14059685 0.10278003 0.20404918 0.09629466 0.057567343 0.4963925 0.40740114 0.14589481 0.1540091 0.082678676 0.08254266 -0.121762514 -0.05666703 0.05140964 0.53245944 0.27503067 0.08850803 0.10375331 0.12966031 0.15052596 0.14426354 0.04718996 0.1612725 0.06267285 -0.058917075 -0.07569215 -0.26216972 -0.18620965 0.44529986 0.26468268 0.19438438 -0.004719287 0.10841513 0.22709353 0.2673961 0.15086271 0.20943491 0.39040503 0.26940662 0.22376916 0.2251134 0.29453912 0.29770237 0.17408983 0.23111275 0.21539941 0.4057951 0.44121766 0.42053422 0.34749275 0.27118778 0.25008717 0.24015915 0.2433077 0.13650998 0.13817118 0.26536134 0.20445192 0.12922382 -0.033887535 0.46839544 0.4123636 0.40955073 0.3964051 0.35335785 0.2691121 0.21506356 0.2260666 0.1570883 0.22547811 0.07535268 -0.104328364 0.50246465 0.36353844 0.34834224 0.3458293 0.13576365 0.120000824 0.5340286 0.29699194 0.20328821 0.13449942 0.111051574 0.2637108 0.35286474 0.56077456 0.5590372 -0.048064787 0.03152607