# vtk DataFile Version 2.0
Really cool data
ASCII
DATASET POLYDATA
POINTS 361 float
25.212389 89.30782 63.976982
25.161982 89.22404 64.7989
25.162981 89.28105 65.17135
25.309324 89.87951 63.230255
25.179674 89.633385 63.636284
24.92641 89.5799 64.71342
25.042465 89.65289 65.32303
25.29589 89.79953 65.79054
25.283474 90.24108 63.126472
24.96919 90.53196 63.840366
24.83431 90.272545 64.6524
25.044323 90.413605 65.40629
25.255798 90.595604 65.7819
24.90318 90.86126 64.6398
25.662344 89.13842 63.647297
25.514278 88.97388 64.68758
25.564001 89.06854 65.28584
25.758665 89.538376 63.054512
25.392467 89.372345 65.60767
25.630754 89.57926 65.883316
25.723976 90.204765 62.85297
25.560326 90.39745 66.07273
26.043198 91.467255 66.32723
25.534979 92.67583 64.43129
26.090696 93.9254 61.869194
25.72727 93.75049 63.586178
25.729029 93.480446 64.10825
26.388834 94.53626 61.439148
26.037243 94.218445 64.31554
26.261164 94.952156 62.21217
26.35222 88.81558 63.997154
26.220886 88.84509 64.57831
26.396406 89.06345 65.404564
26.059467 89.28375 65.7794
26.40559 89.74913 62.7916
26.513271 89.74275 66.03869
26.299818 90.6552 66.47547
26.786518 90.83074 66.65493
26.759611 91.47322 66.756836
26.435701 92.30701 66.34923
26.88361 91.99924 66.79997
26.50553 93.15861 65.578
26.85019 94.52015 60.886715
26.596952 94.24877 64.9863
26.777102 95.55217 61.14321
26.517447 95.272934 61.52087
26.594013 95.30417 63.756855
26.821766 95.09547 64.3338
27.236334 96.46116 60.981407
26.82175 96.2996 61.59792
26.789066 96.28872 62.3886
26.987267 96.18703 63.26198
27.077898 95.79249 63.778202
27.194275 96.79919 62.426086
26.86002 88.915825 64.47677
26.949968 89.51101 63.025124
27.632477 89.608604 63.905155
27.524363 89.667435 65.55062
28.350317 90.87816 60.2
28.010612 90.64414 60.96995
27.247852 90.87002 66.70639
28.385227 91.09926 60.209805
28.24113 91.72522 60.479263
27.455482 91.56848 66.785545
27.43682 91.992645 66.67555
27.514383 93.799675 60.508095
28.09089 94.87533 60.084267
27.746708 95.51372 60.31977
27.55382 95.87869 60.502193
27.577604 95.36329 64.35166
27.156912 94.837036 64.81198
27.49351 96.024635 60.569386
27.930138 97.15875 61.169426
27.62687 97.12304 61.578857
27.649752 97.09824 62.16585
27.928354 96.81004 63.0612
28.779049 89.29353 60.588604
28.455797 89.96495 60.17114
28.174707 90.170425 65.53372
28.635437 90.37906 64.97025
28.183714 91.33713 66.37601
29.006567 95.2503 59.62841
28.281256 96.188576 60.179092
28.141771 96.54377 63.388664
28.192228 96.250984 63.661728
28.217339 97.117584 60.937527
28.32267 97.29648 61.756798
28.372618 97.23441 62.111095
30.195091 87.98086 60.494263
30.121119 87.924355 61.185417
29.602686 88.48396 60.597416
29.86528 89.667145 59.37303
29.686485 90.78696 59.142517
29.929049 91.55658 59.16492
29.341206 93.47871 64.959175
29.571297 95.13679 59.414417
28.952454 97.22931 61.646843
30.63913 87.64949 60.60411
30.98317 88.206245 62.46631
31.051489 88.848694 63.180725
30.346447 90.06686 59.127575
30.593836 90.53582 59.012383
30.499079 91.316185 59.07492
30.401327 92.43438 59.61172
30.892141 93.619804 59.663
30.751781 95.26866 63.942924
30.29834 96.47053 60.0522
30.187943 97.12081 61.04493
31.191036 87.83081 60.207146
31.432695 87.913925 62.031616
31.342918 89.10209 63.3547
31.841242 94.04438 64.228386
31.247929 95.58749 59.400833
31.990728 95.97901 59.44645
31.212294 96.63618 60.02258
31.959616 96.01862 64.256454
31.416098 96.84554 59.907207
31.272009 97.55858 62.305668
33.45322 82.46654 61.325848
32.551765 88.8694 60.19009
33.06393 88.87376 64.04985
32.34981 89.824936 64.399925
32.40419 90.705894 64.58769
32.315685 91.13414 59.68017
32.250896 94.94151 59.443634
32.698124 95.372665 59.36601
32.850864 95.87831 64.845146
33.08616 96.71417 59.659595
32.88461 96.4816 64.88266
33.174828 97.37762 59.71544
32.850124 97.288864 64.63126
32.386036 97.70234 60.292995
32.689373 98.40247 61.021355
32.934414 98.331795 63.319233
32.726395 97.78959 64.18802
33.106194 98.69048 61.488094
34.404697 80.94492 60.08336
34.268764 80.7909 60.972256
34.165863 81.83526 60.129547
34.249763 81.181816 60.938972
33.678635 82.18377 61.762657
33.972958 82.80709 60.304115
33.60035 82.73782 60.883774
34.10636 82.87415 62.65324
33.723194 83.23318 60.553257
34.09301 83.34479 62.811058
34.28003 84.07711 60.125473
34.128235 84.51626 62.07294
34.237762 87.22335 62.48759
34.350395 86.945 63.225002
34.13226 87.582825 61.576027
34.20054 88.55202 64.694855
34.116817 88.90471 64.946175
33.328 89.616875 64.66205
33.000896 90.430145 59.959003
33.50161 91.01251 59.912838
33.507977 92.8932 60.18272
33.28324 93.35993 60.15419
33.35178 94.813286 59.7371
33.96616 96.1658 59.436184
33.512424 96.53972 65.00312
33.41907 97.749214 59.640926
33.82663 97.64127 64.52382
33.535603 97.24284 64.7947
33.365578 98.304596 60.21714
33.59222 98.371956 63.497135
33.726685 98.82478 60.807354
33.841587 98.98592 61.2383
33.371773 98.6035 62.579437
34.86378 80.26144 59.923836
34.80191 80.17607 60.505127
34.97782 80.06397 61.097466
35.09931 80.31442 61.737743
34.790043 80.88846 59.616222
34.719677 80.53118 61.510864
35.04914 80.91258 62.14861
34.9223 81.70298 59.294003
34.989597 81.73788 62.890686
34.87093 82.16641 62.995712
34.467236 83.3938 59.789307
34.94669 83.88658 63.26058
35.071 84.446365 59.772655
35.105892 88.973045 65.967186
34.432884 90.30532 60.075626
34.384018 91.7565 60.501106
34.346554 94.308525 63.77542
34.481976 96.665276 59.352993
34.416107 96.757324 64.918785
34.551197 97.235886 59.3578
34.61603 97.41062 64.46917
34.483074 97.15586 64.68944
34.568127 98.07698 59.699314
34.184143 97.81301 64.30327
34.416737 98.79847 60.678368
34.466415 98.949776 61.345123
35.69917 80.06667 59.72203
35.74674 79.73863 60.56677
35.77298 79.69982 61.11389
36.00695 80.65288 59.0821
35.973236 80.64699 62.48172
35.705532 81.532394 58.876797
35.789692 81.76833 63.307426
35.70146 82.36001 58.990047
36.01257 86.90009 66.40026
35.11633 90.499 60.24041
35.787952 91.09192 66.43832
35.863426 90.840355 66.62348
35.706055 92.14373 65.25129
34.95742 94.376434 61.347736
35.202576 96.66501 59.704376
35.216316 96.53449 64.22447
35.368107 97.51195 59.843586
35.478123 97.340485 63.524837
34.79675 97.03579 64.644714
35.178802 98.038956 60.035126
35.49415 98.32062 60.799828
35.248302 98.54573 61.72637
35.37074 98.39702 61.97391
34.93658 98.152466 63.003223
34.88912 98.75364 60.70951
34.962124 98.74505 61.403973
36.425987 79.9882 59.632072
36.560642 79.61278 60.63504
36.356186 80.093666 61.947094
36.425102 80.93835 58.892303
36.259743 80.74393 62.613422
36.35665 81.62932 58.725174
36.38348 83.01247 63.876656
36.883785 84.99837 59.966164
36.545937 86.07669 66.12028
36.41288 86.56268 66.47041
36.72049 86.6914 66.77415
36.852497 87.73417 67.07289
36.445053 88.15872 66.77843
36.401676 89.41029 66.8922
36.774456 90.25299 66.834496
36.463573 91.334724 66.41262
36.429325 90.82408 66.63939
36.721943 92.17903 62.926605
36.336357 92.0865 65.667946
36.24113 91.67315 66.13791
36.1141 92.56491 64.460846
35.95432 96.791 60.519497
35.70983 96.8887 63.352848
35.686295 97.27439 60.058937
35.983315 97.39948 60.61758
36.178024 97.61133 61.592373
35.913338 97.01822 62.48883
35.55031 97.08126 63.459442
35.753223 98.05226 60.736904
35.957035 97.98363 61.292904
37.093384 80.01842 59.790176
37.291866 79.87072 60.627895
37.28003 79.91146 61.16986
37.201958 80.77999 59.286346
37.66343 80.723816 59.709404
37.584415 81.052635 62.516037
37.26477 81.41205 59.104713
37.12215 81.42364 63.223083
37.438557 82.65714 63.96793
37.32396 83.44063 59.33742
37.699516 83.84111 59.507668
37.603016 83.84854 64.67634
37.557438 85.87656 66.089325
37.67734 86.41264 60.474194
37.33016 86.799324 66.914314
37.559998 87.49999 67.04337
37.35 88.738235 67.03737
37.472137 89.376526 67.06152
37.450706 90.00944 66.85006
37.528217 91.71268 63.021667
37.565094 91.33363 65.75343
37.2727 91.21219 66.243965
36.826653 92.40778 63.907963
37.702526 80.02087 60.627766
37.82095 80.16752 61.16264
38.071907 80.38403 60.940384
38.3364 80.66937 61.144547
37.979767 80.711845 62.07711
37.891483 81.19826 59.63228
38.771637 81.465836 62.562115
38.74501 81.81363 62.896797
38.452885 82.80038 59.72143
38.540424 82.844406 64.011894
38.550304 83.69463 59.84588
38.170586 83.42115 64.53379
38.300053 83.878426 64.63555
38.452503 84.11175 59.93439
38.567974 84.64925 64.980675
38.628265 85.38017 60.767914
38.11412 86.44703 60.82806
38.06942 86.96891 66.79019
38.321968 86.92762 61.28428
37.975224 88.83101 61.88455
38.510643 88.51727 66.93554
38.386997 89.30009 62.408646
38.42635 89.453705 66.852394
37.99694 90.53739 62.761105
38.353237 90.42575 66.28551
38.068317 89.95419 66.81614
37.952732 91.53228 64.14575
38.602535 90.6213 65.47188
37.764877 91.72223 63.857735
38.883114 81.06316 61.062557
39.11847 81.21941 61.617004
38.883 82.05399 60.09785
39.217358 81.723595 60.73001
39.122604 81.590645 62.248272
39.18273 82.218605 62.84013
39.172176 82.653694 60.29502
39.52843 82.397934 60.81519
38.91932 82.862175 63.82094
39.296204 83.126114 60.5623
39.475273 83.52581 63.59158
39.000584 83.702354 64.27852
39.436565 84.51319 61.510727
39.513332 84.08662 63.702156
39.278095 84.77564 64.55483
39.202145 85.065636 64.8143
38.796673 85.37307 61.153713
39.268696 85.811035 65.30882
38.825947 86.80819 66.251
38.93698 87.737885 62.16431
39.37649 87.51495 65.8453
38.772884 88.024315 66.650925
38.997253 88.25903 62.427174
39.332752 88.88425 66.22778
38.813194 88.47128 66.78572
39.45917 89.58113 64.15278
39.49446 89.707634 64.60988
39.19316 89.404526 66.25921
38.82065 90.40142 64.23571
39.242455 90.01484 65.365875
38.890446 89.96771 66.21452
39.61974 82.081894 61.126797
39.632236 81.93915 61.38664
39.67126 82.268555 61.03721
39.76139 82.52155 61.822716
39.697445 82.49379 62.18413
39.55898 83.33261 60.981335
39.65355 82.98667 61.35223
39.60953 83.554634 62.84303
39.577362 83.59582 63.291977
39.64904 84.41895 63.007156
39.6565 84.59581 63.559093
39.568657 84.89825 64.26902
39.761555 85.5117 64.30757
39.78347 86.66244 62.899464
39.8968 86.376434 63.684273
39.9679 86.90437 64.406395
39.768345 87.57932 63.12805
39.90341 87.382256 63.667175
39.920746 87.1682 64.13595
39.602825 87.687775 65.401024
39.69087 87.89544 63.13113
39.74069 87.91731 63.238335
39.80906 88.409256 64.9251
39.848824 88.93929 65.14192
39.63843 89.04492 63.953266
39.68414 89.521065 64.85118
39.647892 89.44107 65.16118
VERTICES 1 362
361 0 1 2 3 4 5 6 7 8 9 10 11 12 13 14 15 16 17 18 19 20 21 22 23 24 25 26 27 28 29 30 31 32 33 34 35 36 37 38 39 40 41 42 43 44 45 46 47 48 49 50 51 52 53 54 55 56 57 58 59 60 61 62 63 64 65 66 67 68 69 70 71 72 73 74 75 76 77 78 79 80 81 82 83 84 85 86 87 88 89 90 91 92 93 94 95 96 97 98 99 100 101 102 103 104 105 106 107 108 109 110 111 112 113 114 115 116 117 118 119 120 121 122 123 124 125 126 127 128 129 130 131 132 133 134 135 136 137 138 139 140 141 142 143 144 145 146 147 148 149 150 151 152 153 154 155 156 157 158 159 160 161 162 163 164 165 166 167 168 169 170 171 172 173 174 175 176 177 178 179 180 181 182 183 184 185 186 187 188 189 190 191 192 193 194 195 196 197 198 199 200 201 202 203 204 205 206 207 208 209 210 211 212 213 214 215 216 217 218 219 220 221 222 223 224 225 226 227 228 229 230 231 232 233 234 235 236 237 238 239 240 241 242 243 244 245 246 247 248 249 250 251 252 253 254 255 256 257 258 259 260 261 262 263 264 265 266 267 268 269 270 271 272 273 274 275 276 277 278 279 280 281 282 283 284 285 286 287 288 289 290 291 292 293 294 295 296 297 298 299 300 301 302 303 304 305 306 307 308 309 310 311 312 313 314 315 316 317 318 319 320 321 322 323 324 325 326 327 328 329 330 331 332 333 334 335 336 337 338 339 340 341 342 343 344 345 346 347 348 349 350 351 352 353 354 355 356 357 358 359 360
POINT_DATA 361
SCALARS features_00 float 1
LOOKUP_TABLE default
0.81978893 0.8180491 0.80436105 0.76945823 0.7960406 0.8022027 0.7857577 0.7674222 0.73007333 0.760877 0.7816826 0.75765777 0.7363784 0.76177275 0.8087002 0.82843393 0.80318356 0.7585822 0.7855849 0.76265085 0.68708086 0.72986513 0.59386176 0.45169824 0.43533194 0.43673706 0.42729154 0.46754098 0.4044093 0.544217 0.84819186 0.8403541 0.81058574 0.77531207 0.7365669 0.75590736 0.6689367 0.62903756 0.58550006 0.5485809 0.5677146 0.504093 0.4370005 0.37557605 0.5497132 0.5399934 0.38785982 0.3628354 0.70063424 0.71647716 0.7117907 0.5101969 0.41417176 0.6940199 0.85567796 0.80556476 0.81809795 0.79246247 0.41739976 0.27057296 0.6119491 0.4096614 0.3130653 0.5692471 0.5534139 0.33994186 0.3755477 0.46061605 0.54152536 0.33447215 0.3232279 0.57811856 0.71701705 0.73384285 0.69853926 0.5934012 0.4976436 0.48059952 0.7082814 0.6665472 0.62151927 0.37442663 0.5236927 0.520612 0.44707793 0.6828716 0.65623134 0.6337724 0.5209725 0.549871 0.54583836 0.5652344 0.4811278 0.41166264 0.06056586 0.33994374 0.57484055 0.5681432 0.33963755 0.064613685 0.47087798 0.41505784 0.36100078 0.26222578 0.14350854 0.1333535 0.40434894 0.39599073 0.5888225 0.4739348 0.03179483 0.13235894 0.3349792 0.34452003 0.3335492 0.2980762 0.33061263 0.39330223 0.5898476 0.4251867 0.02566053 0.07188501 0.0631545 0.16151708 0.26629794 0.31839824 0.36274314 0.4556747 0.4606409 0.535825 0.51104873 0.46013895 0.6136476 0.5924648 0.5560825 0.6374825 0.6886097 0.6776025 0.5939995 0.64960706 0.6456682 0.5262953 0.5421456 0.5889611 0.49676126 0.54731935 0.4732001 0.59389013 0.11316636 0.1371637 0.12752828 0.08514023 0.09279465 0.045058504 0.15072136 0.049497943 0.036465086 0.076162234 0.21394719 0.50478315 0.4866714 0.63110554 0.56136715 0.5361599 0.68299717 0.64501417 0.702242 0.6824971 0.6338177 0.8013681 0.7699357 0.7509711 0.6932851 0.76001835 0.69109416 0.62362623 0.68708247 0.5275229 0.50019175 0.50057316 0.4713838 0.50282526 0.32107577 0.06821962 0.04419511 0.47565764 0.6661156 0.5143388 0.7262943 0.5729122 0.55675185 0.7668221 0.5785295 0.7130238 0.6825394 0.8843748 0.8516189 0.7958658 0.8152363 0.6134005 0.7698157 0.49486542 0.66316766 0.4794106 0.06583353 0.4008296 0.40197724 0.47539264 0.33497918 0.68156445 0.53211737 0.7094739 0.60825586 0.5554304 0.71803814 0.6954708 0.66869724 0.6623632 0.6536449 0.7046784 0.6840309 0.8392564 0.8086231 0.7042018 0.7742263 0.5997263 0.7337623 0.4435146 0.3778447 0.505845 0.525906 0.5418061 0.54716146 0.5081219 0.46860388 0.474839 0.44068325 0.44787723 0.45169383 0.44943786 0.43817064 0.5562882 0.6399094 0.5968905 0.6970133 0.6756468 0.66765195 0.61156595 0.61483955 0.6918086 0.6778508 0.7641759 0.7126535 0.6645915 0.7449684 0.6901108 0.57379943 0.69622576 0.5268376 0.45409864 0.46658796 0.42141795 0.38620323 0.5067551 0.2454846 0.55314136 0.57542133 0.5446241 0.5354996 0.5187704 0.39445508 0.50441337 0.46139526 0.5162594 0.66742706 0.6279733 0.6284951 0.61977065 0.58527744 0.65154845 0.5828648 0.5462882 0.5120294 0.47536096 0.455732 0.43844098 0.42189005 0.4288643 0.37760055 0.3468262 0.26562345 0.5818455 0.24543034 0.2130787 0.6135262 0.30091012 0.61173344 0.3432503 0.5900705 0.57130414 0.44070518 0.57688427 0.42338023 0.6349443 0.63183504 0.56105995 0.60528684 0.6086185 0.5477537 0.5154415 0.55549634 0.47797036 0.4966057 0.43794313 0.42383656 0.47344494 0.4037196 0.38426661 0.37834612 0.33658138 0.40977618 0.559357 0.26587313 0.5778458 0.6180748 0.29467148 0.63498056 0.6268046 0.43349624 0.4928817 0.63550794 0.4476964 0.5691668 0.62666327 0.58509517 0.5979029 0.5710411 0.5774009 0.5752307 0.5019958 0.53831065 0.46381485 0.44203675 0.3667196 0.35718712 0.3756447 0.3854765 0.3678076 0.4053744 0.42947134 0.3875527 0.410838 0.42235923 0.5503126 0.3895179 0.39761293 0.5084551 0.5346501 0.4262439 0.5175996 0.5478021
SCALARS features_01 float 1
LOOKUP_TABLE default
0.16786006 0.16712981 0.16160157 0.14805587 0.15829039 0.1603472 0.15397334 0.14692144 0.1328108 0.14225046 0.15090276 0.14190611 0.13418974 0.14142543 0.16332799 0.17131609 0.16117337 0.14354262 0.15422228 0.1453835 0.11676087 0.13260104 0.088118225 0.036697444 0.036447607 0.0322535 0.029310104 0.04794782 0.026808528 0.06092428 0.17887613 0.1762388 0.16406478 0.15019527 0.13124171 0.14226414 0.111125104 0.09739595 0.084011026 0.07288875 0.0778295 0.055976883 0.04353473 0.023695527 0.07038083 0.06611118 0.029840114 0.024078371 0.11348361 0.11792228 0.114108555 0.059104208 0.036651105 0.11456051 0.18250273 0.15495662 0.16153345 0.1553338 0.040975466 0.015396718 0.091776066 0.039024346 0.019047704 0.07847192 0.071943134 0.025771333 0.03424163 0.051885564 0.07092725 0.02396533 0.01857517 0.08002602 0.11758521 0.12586063 0.11685984 0.08450457 0.05988181 0.055348996 0.12074138 0.10183115 0.089732796 0.03241623 0.062289827 0.06470636 0.04763423 0.1022333 0.100582555 0.09590879 0.06374046 0.06927037 0.069163494 0.07611475 0.055349432 0.041000497 -0.013276732 0.027451914 0.068957135 0.071954116 0.020894015 -0.02898406 0.053385064 0.041723393 0.031527217 0.016245127 -0.0015573321 -0.0075557483 0.017561117 0.00027113198 0.08072301 0.04174926 -0.0324295 -0.005292542 0.010894654 0.0062961653 -0.002599406 0.021907149 -0.0034140246 0.013489699 0.069128364 0.05072107 -0.0185875 -0.023470143 -0.020563403 0.0055346144 0.0049912147 0.01064927 0.03341422 0.033575527 0.052813925 0.05761538 0.06500099 0.032450993 0.08945451 0.08400872 0.07665483 0.100286365 0.110398374 0.1055431 0.07484751 0.09302888 0.08608387 0.05760211 0.058055304 0.081152275 0.047997802 0.07150765 0.04648228 0.07473507 -0.026840523 -0.020550424 -0.018689675 -0.014661207 -0.015394557 -0.014520347 0.0029513144 -0.0030219082 -0.00735802 -0.009668535 0.0009959405 0.05705057 0.057338037 0.0929497 0.07802397 0.07104981 0.11439363 0.103352614 0.12313048 0.115943074 0.098671235 0.15881163 0.1458452 0.13942151 0.118642054 0.14088081 0.115352236 0.094632 0.112449296 0.06837742 0.061286166 0.05538203 0.051531427 0.057351336 0.02065832 -0.005662388 -0.0095563615 0.053696554 0.110288456 0.06063736 0.13183324 0.07845906 0.07402296 0.14684102 0.082029484 0.12674971 0.115657285 0.19518556 0.1812182 0.15816486 0.16576366 0.09143912 0.14645334 0.05747665 0.10643694 0.05398174 -0.0052601397 0.036984902 0.037638903 0.04662135 0.015820386 0.1152417 0.062805496 0.12515281 0.09044538 0.07217301 0.1280517 0.12002652 0.11112966 0.10916237 0.106274545 0.12340461 0.11630768 0.17579883 0.16207561 0.12070706 0.1488372 0.08580349 0.1317676 0.03964229 0.023184005 0.05899777 0.06521598 0.06949319 0.071208194 0.059817914 0.049024507 0.050593685 0.044586916 0.045683414 0.0445041 0.045752436 0.04398077 0.05879414 0.10009714 0.08747417 0.12076233 0.112824395 0.110759936 0.093436964 0.09257052 0.11866126 0.114034966 0.14371052 0.12185328 0.10617924 0.13676658 0.11419083 0.07318791 0.11804909 0.058467194 0.034466743 0.048995934 0.035332933 0.012433407 0.05178491 0.008223902 0.07234552 0.07811585 0.069715925 0.06608463 0.06031454 0.03478318 0.054548025 0.048398964 0.055983055 0.10395856 0.09023701 0.08903698 0.08490952 0.076733835 0.10061973 0.07152527 0.05856498 0.06034078 0.032840367 0.042023584 0.020642018 0.0155628575 0.03459218 0.0067441156 0.01735357 0.0067144805 0.076636724 0.0037702245 0.00716568 0.0881634 0.018298127 0.08697731 0.024968848 0.07705718 0.07407534 0.040807936 0.07079615 0.03960144 0.08888603 0.08677946 0.07321525 0.08220645 0.07795454 0.054658666 0.060766287 0.06947659 0.03331986 0.05461322 0.021947887 0.016052678 0.036407035 0.01288354 0.006774542 0.0059424844 0.015455462 0.01364967 0.06132513 0.0072537437 0.06963559 0.08763126 0.014324425 0.09358304 0.09146309 0.044167437 0.05677152 0.09372745 0.04417359 0.0742195 0.08965584 0.076087765 0.07859759 0.07275278 0.06838728 0.06414821 0.05388929 0.061232943 0.032186825 0.02401029 0.012782892 0.0074732285 0.0057291677 0.0068206703 0.01742839 0.020213068 0.03099075 0.028890563 0.033091858 0.03355725 0.06253255 0.031009763 0.03263528 0.057553973 0.066193715 0.04153643 0.062763266 0.070386976
SCALARS features_02 float 1
LOOKUP_TABLE default
0.44138563 0.45994353 0.46494892 0.41553366 0.43117425 0.45683777 0.4661138 0.46920213 0.4185446 0.45152313 0.45696 0.46504912 0.46596432 0.46618629 0.42770737 0.45389694 0.46089435 0.39911953 0.46737605 0.46787 0.3924139 0.4686115 0.47082675 0.4863432 0.40560186 0.42771265 0.4478126 0.39609742 0.41965795 0.4010389 0.4331507 0.44651276 0.454077 0.45922694 0.37668455 0.4574741 0.4669252 0.4600172 0.4680527 0.48260486 0.47329512 0.47961026 0.38365883 0.42836443 0.39517888 0.3983785 0.40264064 0.401281 0.39339173 0.39807254 0.39914656 0.39753687 0.3944667 0.39840174 0.44237575 0.39310145 0.42263567 0.44017833 0.3422783 0.34185624 0.44862562 0.3410889 0.33941615 0.45265394 0.46017835 0.36154306 0.35717323 0.3734861 0.38199872 0.37525678 0.39340046 0.38460863 0.39587322 0.39903867 0.39794016 0.38313586 0.33674812 0.34046936 0.41793555 0.39292866 0.42104557 0.34233034 0.37174326 0.37227172 0.3655566 0.3918378 0.39618394 0.39248675 0.37242728 0.357092 0.35578236 0.3603692 0.33740216 0.31520575 0.35944557 0.33011132 0.3925519 0.37044287 0.278983 0.24976692 0.3524803 0.33166808 0.30545348 0.29224285 0.28131986 0.35561967 0.3695637 0.3890245 0.37261683 0.2799916 0.23228899 0.23367688 0.3354858 0.3573696 0.37800795 0.33829927 0.38263956 0.44236457 0.5279621 0.37717903 0.19739532 0.20498933 0.20236069 0.2585796 0.31114507 0.33513817 0.2904728 0.40566158 0.32808754 0.4265494 0.37669343 0.42728746 0.46427912 0.46552026 0.41144305 0.48745012 0.57246125 0.5671032 0.54946005 0.561526 0.52836424 0.5277194 0.5270573 0.49649942 0.51618683 0.4720094 0.49653035 0.4269513 0.2340462 0.21722007 0.29231644 0.26539117 0.28018275 0.23604488 0.27189803 0.2328417 0.25216517 0.26374134 0.3190298 0.39334387 0.3297013 0.43612957 0.40431777 0.37748486 0.4558183 0.46190947 0.4787071 0.48793817 0.4902262 0.5962066 0.59436667 0.59193575 0.57893646 0.5829413 0.5720487 0.56190765 0.56848156 0.541583 0.53004867 0.5212866 0.44556308 0.55295044 0.35516465 0.2148593 0.22678846 0.2717222 0.41927108 0.34798467 0.4356581 0.39821506 0.37766963 0.45393634 0.41945624 0.47870308 0.4873942 0.61252326 0.61312306 0.6054845 0.6067035 0.57167953 0.597383 0.54883456 0.59353566 0.36793497 0.19788572 0.37192774 0.37798762 0.33964866 0.39157766 0.43389118 0.3540855 0.45729482 0.43035346 0.37084797 0.46664378 0.4818679 0.48500293 0.48407248 0.47347242 0.47979116 0.48566878 0.60944456 0.6066982 0.5832722 0.601918 0.5641677 0.602199 0.45326048 0.4531556 0.38106593 0.385328 0.40157285 0.408834 0.39513254 0.39609563 0.40539137 0.3905404 0.39587188 0.34957898 0.36506778 0.37628874 0.332154 0.45549282 0.4126708 0.45803785 0.468563 0.4749592 0.44892973 0.4192623 0.4793702 0.48026037 0.59048635 0.58121336 0.5731341 0.5747874 0.5526238 0.50032055 0.56174946 0.4953606 0.41203803 0.50428 0.45736998 0.35799706 0.3920045 0.34647295 0.41609728 0.42306513 0.41782427 0.41865683 0.4177294 0.36440223 0.398602 0.4021836 0.34806713 0.55974627 0.54457915 0.5343055 0.5154743 0.5028244 0.53275585 0.44142038 0.4263016 0.46509662 0.38564748 0.42404497 0.36594775 0.3606702 0.41047084 0.36199656 0.36659306 0.33799362 0.4234214 0.31960258 0.30161127 0.43556416 0.3254422 0.43142763 0.35093278 0.4203847 0.42468238 0.38605383 0.41307038 0.37921888 0.4917234 0.46710512 0.4771825 0.47532997 0.44085094 0.4153118 0.44876158 0.4477139 0.38860244 0.4253229 0.3880467 0.37473103 0.37607068 0.3806587 0.37157515 0.37107706 0.36199337 0.3816695 0.41643035 0.324127 0.41787052 0.43560115 0.3285338 0.43347675 0.4371778 0.38497823 0.39828676 0.4332336 0.3902312 0.4170801 0.42818117 0.45202997 0.45024434 0.44688737 0.42658824 0.42168927 0.41069084 0.41913605 0.39357725 0.3896172 0.37551728 0.3743397 0.3737256 0.37498415 0.35968262 0.3744446 0.385538 0.36234623 0.37701088 0.38474616 0.41027534 0.3605474 0.3640609 0.40548575 0.41089597 0.38041532 0.40458027 0.41275328
SCALARS features_03 float 1
LOOKUP_TABLE default
0.04786244 0.051813252 0.052924745 0.042611573 0.04581441 0.051058467 0.053133797 0.054087292 0.04357191 0.050127637 0.050849345 0.052757744 0.053307313 0.052947436 0.044491556 0.050214004 0.05175081 0.038277667 0.053538445 0.05379835 0.037947003 0.054280914 0.055424426 0.05894995 0.037983246 0.044087626 0.04936898 0.036080264 0.042304367 0.03691301 0.0447373 0.04782999 0.049581405 0.05131403 0.032283157 0.051161118 0.054311607 0.052627977 0.05474014 0.058060452 0.055861425 0.056948163 0.03433838 0.04487913 0.036041103 0.036461823 0.03815693 0.038581874 0.035699677 0.036414046 0.036726855 0.036812775 0.036643673 0.0366529 0.046041444 0.03392903 0.039082013 0.045995872 0.02744472 0.024838384 0.049710557 0.02777933 0.028477391 0.050669376 0.05239405 0.031439412 0.030589402 0.03289868 0.034083042 0.033630945 0.037710927 0.034439456 0.035842292 0.036577724 0.03644439 0.03379831 0.021155298 0.024687799 0.040476054 0.032896925 0.042353746 0.027865393 0.03219997 0.03180447 0.030736713 0.03494891 0.03546291 0.03477176 0.020892084 0.0152440835 0.021264536 0.028563546 0.026847772 0.02409061 0.029056184 0.025829405 0.033869702 0.015802544 -0.0030760542 -0.0066129165 0.027916556 0.025431836 0.022302251 0.020983513 0.019458387 0.027368747 0.03046048 0.03221171 0.018396072 -0.008812874 -0.010982198 0.0135713285 0.026578004 0.030664466 0.03229229 0.028101165 0.03342902 0.040060595 0.06509758 0.022701606 -0.018368738 -0.012058282 -0.006620505 0.015297883 0.023846066 0.027824024 0.020380726 0.04041218 0.026612742 0.044550058 0.03519673 0.043385446 0.050948225 0.051859684 0.04143649 0.05630812 0.08165942 0.07974616 0.07416581 0.07779863 0.066023916 0.065773875 0.064367704 0.055719998 0.06022837 0.047460247 0.052689493 0.026631305 -0.027936421 -0.01386625 -0.04435079 0.001506634 0.006170744 -0.0033390243 0.015953403 0.011137287 0.014103008 0.016068708 0.025262896 0.038602028 0.025858525 0.046676047 0.039802533 0.034795932 0.050543617 0.051586304 0.055321213 0.057240665 0.057315823 0.08884327 0.08830946 0.08746922 0.08326845 0.08480116 0.08130585 0.07774246 0.08010949 0.07027426 0.06626769 0.063949436 0.03742318 0.06519785 0.027443822 0.005969276 0.00889777 0.006148835 0.043694332 0.027584612 0.04701926 0.03782998 0.03360401 0.050698675 0.042691283 0.055561587 0.057339977 0.093485825 0.09375769 0.09130879 0.091236666 0.07987388 0.08779475 0.07091266 0.08529389 0.031400945 0.0034435503 0.02896017 0.031027313 0.01709212 0.030877097 0.046296157 0.026681058 0.05133508 0.043313958 0.03177867 0.05337224 0.05637331 0.056954574 0.05666915 0.054069 0.055877667 0.05709674 0.0924404 0.09166304 0.08396107 0.08954661 0.077427596 0.088835895 0.045045227 0.044363048 0.03276242 0.034347136 0.037342634 0.03941411 0.036838412 0.036561932 0.037357245 0.03205071 0.03446686 0.019534511 0.023779236 0.02788225 0.01334695 0.049275286 0.03801953 0.051048703 0.052655898 0.053438436 0.04585771 0.04020796 0.05567444 0.055480924 0.086962454 0.0841815 0.081653595 0.082366206 0.07631179 0.06061491 0.07859037 0.058272526 0.037665237 0.062194146 0.050549902 0.025782228 0.033394456 0.025249917 0.03978143 0.04170295 0.04092311 0.040693976 0.039854947 0.027394375 0.034248456 0.03505322 0.019445667 0.0780305 0.07361018 0.07075787 0.065457195 0.061885256 0.07091936 0.045823477 0.041705348 0.0535294 0.031390544 0.042885404 0.027319353 0.025746882 0.03912323 0.025220735 0.028308246 0.024133062 0.04059888 0.021593597 0.020575391 0.043861046 0.024766328 0.042848043 0.028154377 0.03995126 0.041222382 0.031977236 0.038330715 0.030203853 0.058888264 0.05237018 0.056023218 0.054582506 0.045458917 0.03827355 0.04861091 0.047337685 0.031512834 0.042284627 0.029908422 0.02754336 0.029278835 0.027884245 0.025828809 0.02593643 0.027085908 0.028803695 0.037820093 0.023006108 0.038740322 0.043380316 0.024473973 0.043106373 0.04397901 0.03443579 0.03666167 0.043097798 0.03476233 0.039777007 0.041864783 0.04800163 0.04739365 0.04676473 0.04072587 0.039313316 0.037923634 0.039367273 0.031553186 0.03032269 0.027454365 0.02660711 0.02605767 0.026608909 0.025954641 0.027756399 0.031060448 0.028322248 0.030344138 0.031342406 0.037398 0.02871956 0.02932463 0.037351124 0.038779244 0.033537965 0.037790913 0.039244287
SCALARS features_04 float 1
LOOKUP_TABLE default