# vtk DataFile Version 2.0
Really cool data
ASCII
DATASET POLYDATA
POINTS 3007 float
2.3852434 19.05476 15.800516
2.3490655 18.70376 16.26317
2.193655 19.602894 16.5917
2.2741716 19.748583 17.222929
2.2721171 20.399166 16.070784
2.1589587 20.493258 16.480112
2.2695434 20.41797 17.228104
2.3571217 20.840704 16.18348
2.2545185 20.795128 16.37484
3.4644084 12.570396 18.563625
3.0611548 16.973232 15.707497
3.062783 17.021193 16.50024
3.055378 17.700228 15.047035
2.6687858 17.836908 15.689305
2.7313163 17.70678 16.503456
3.176297 17.422384 17.082117
3.012834 18.519833 15.031307
2.6168246 18.607796 15.446927
2.7118707 18.800543 17.34964
2.9691803 19.430786 15.183507
2.515018 19.618443 15.618989
2.5052495 19.62495 17.560764
2.9579732 19.636625 18.057295
3.0654018 20.289957 15.274337
2.6467342 20.441525 15.645043
2.4174206 20.609758 17.396172
2.8422172 20.377682 17.923893
2.9218097 20.993092 15.700641
2.5556595 21.126348 16.403233
2.702104 21.091515 17.28432
2.835618 20.830393 17.727365
3.2032447 21.598883 17.034788
4.376327 9.875897 18.774927
4.2475405 9.86301 19.326212
4.1905594 10.847032 17.804789
3.956117 10.853404 18.571499
4.0136366 10.353151 19.333935
4.114431 10.662592 20.48243
4.287613 11.044512 21.068512
3.9129453 11.623128 17.708109
3.640747 11.64268 18.521448
3.7070923 11.667422 19.521387
3.8340526 11.687363 20.284058
4.197855 11.588857 20.979395
3.6561534 12.214689 17.959385
3.5454423 12.906517 18.397398
3.6245244 12.61409 19.30999
3.8934858 12.399717 20.12508
4.197104 11.95177 21.007423
4.0287695 13.37312 17.606947
3.6278708 13.259452 18.407942
3.5956829 13.03155 18.97912
4.0196223 12.991376 19.99747
3.9060125 13.949351 18.155529
3.82131 16.01631 15.924658
3.6644294 17.004475 14.855829
3.39543 16.852386 15.277144
3.7077157 16.565533 17.20196
3.416307 17.590244 14.81795
3.9855778 17.672922 18.108534
3.4387956 18.428905 14.757503
3.6935074 18.97542 18.452177
3.6746855 19.246733 14.797458
3.4600217 19.472301 18.430891
3.7295208 19.63793 18.676498
3.5863676 20.445911 15.111723
3.3756847 20.326822 18.313091
3.9943218 21.112246 15.146266
3.351419 21.441706 15.756749
3.5260491 21.490093 17.636768
3.7347631 20.963255 18.32845
4.033261 21.788486 15.613922
3.6993654 21.90171 16.391722
3.6551113 21.827152 17.00535
5.0045843 9.149035 18.574247
4.909283 8.993447 19.596603
5.050604 9.111471 20.215757
4.9124656 9.84255 17.779957
4.671137 9.493426 18.621836
4.4286556 9.489079 19.444803
4.836828 9.571467 20.497469
4.9645967 9.790554 20.850197
4.366109 11.05651 17.321934
4.8237133 10.765727 21.328373
4.4474983 11.765757 16.926188
4.5325937 11.51364 21.368761
4.926117 11.362507 21.700497
4.3764014 12.100364 16.837599
4.553663 12.486167 21.13794
4.571846 13.524343 20.087841
4.6371546 16.104818 14.683231
4.5222507 15.135281 18.417574
4.7717614 15.466186 19.164652
4.5347123 16.429304 14.639014
4.2511396 17.17401 14.526536
4.615007 17.186367 18.252195
4.5982337 19.00509 18.852083
4.2010417 19.903893 14.881653
4.1912947 19.32081 18.856945
4.6188545 20.562864 14.856984
4.843283 20.209139 19.047085
4.4916396 21.274912 15.025832
4.8464675 21.845125 15.181095
4.7410593 21.976105 15.389954
4.656597 22.396433 16.503435
5.110091 22.627302 16.593985
5.6615114 9.069052 18.085436
5.497657 8.835819 18.588985
5.6278505 8.6391535 19.572563
5.575465 8.8375025 20.223078
5.729519 9.06589 20.706625
5.593825 9.495758 17.686562
5.472538 9.4931135 20.84785
5.512456 10.708451 16.93499
5.698357 10.4522505 21.389645
5.320007 10.981396 21.67485
5.372284 11.572352 21.742609
5.582484 12.8863 15.904056
5.6266465 13.71644 15.41462
5.394348 13.393142 15.717447
6.0630627 15.12855 14.343944
5.735897 15.7651825 14.205723
5.8531113 15.756446 20.781961
6.066642 15.13148 22.282206
5.480362 16.5938 14.137358
6.1028414 16.750574 21.015299
5.94893 16.364643 22.295708
6.3188057 16.50212 23.53467
5.9688168 17.050499 13.867096
5.9784727 17.779562 20.462473
6.0348935 17.060747 21.154116
5.9403906 17.378336 22.209076
6.335529 17.398975 23.408714
5.3160334 18.028399 14.36755
6.1241403 18.186745 20.190504
6.0057817 18.269121 21.466475
6.193854 18.391373 21.976505
5.127175 19.720268 14.693702
5.715572 19.314594 19.567492
6.363517 18.928947 21.471615
5.449578 20.693863 14.746722
5.4865785 20.545229 19.270065
5.180067 21.6418 14.8969555
6.210934 22.093359 21.344007
5.4500194 22.321503 15.283172
6.0097632 22.884409 21.21872
6.321921 22.708796 21.994152
5.9240866 23.052391 15.797119
5.827415 23.614464 17.680803
5.766096 23.87801 19.035206
5.9596834 23.246618 20.066093
6.129127 23.312618 21.417253
6.370423 23.486015 21.785812
5.9469085 23.782616 17.022617
5.8800616 24.528927 18.118376
5.8222275 24.281065 18.659334
6.065549 24.334772 19.60388
6.0981 24.059744 19.935059
6.3668227 24.310062 21.223618
6.077543 24.989174 18.719982
6.1278715 25.121986 19.115915
6.421316 25.08446 20.992926
6.222677 9.149639 18.001858
6.425624 8.899038 18.623037
6.374383 8.69647 19.4843
6.3012323 8.863768 20.247984
6.3554134 9.195276 20.671127
6.133976 9.473326 17.605734
5.991515 9.5767975 21.028994
6.17298 10.269468 17.164257
6.0755315 10.246988 21.320847
6.424313 11.873985 21.475985
6.440408 11.731983 21.707138
6.3985906 12.919659 21.502743
6.3624573 14.181341 14.927604
6.7798715 15.044605 14.252833
6.5573354 14.786857 14.58286
6.5338836 14.475207 22.695692
6.760981 14.805668 23.25566
6.838251 15.669773 13.90659
6.480022 15.256774 23.25372
7.102869 15.352718 23.831722
6.8086367 16.72493 13.607617
6.6937714 16.56498 23.989422
6.629034 17.354618 13.822601
6.4456844 17.223804 23.686607
6.6722345 17.340042 23.863623
6.794184 17.877583 14.090543
6.955669 18.01588 23.67579
6.7664833 17.83066 23.737457
6.8260975 19.320526 20.914612
7.1736956 20.68057 14.522375
7.191849 20.534101 21.203508
6.7127986 21.188137 14.682532
6.877358 21.266771 21.703463
6.683613 21.682602 21.827103
7.244626 21.92603 23.06193
6.653892 22.473688 15.000372
6.715244 22.809978 15.096633
6.611992 23.204752 15.594255
6.8447847 24.128056 16.600742
7.0198107 24.094986 22.359041
6.633582 24.775211 17.519817
6.621616 25.575665 18.838583
6.587082 25.69572 20.380669
6.732151 26.327065 19.656235
6.645272 25.961933 21.002285
7.326898 27.230959 18.164871
7.0553317 27.20887 18.600069
6.7493725 27.90215 19.132637
7.2880836 27.464748 23.631603
7.348258 27.472775 24.037386
7.221117 28.372635 18.210287
6.912758 28.709234 18.841618
6.7315106 28.387552 19.685944
6.830418 28.684538 21.18141
7.289962 28.077868 22.262552
7.2969484 28.823702 18.18589
6.9439507 29.025438 19.074118
6.811048 29.407734 19.789299
6.682932 29.43216 20.330566
6.7788277 29.60714 21.433886
6.94879 30.457626 19.971241
6.725734 30.256334 20.48514
6.8104043 30.407234 21.228363
7.101422 30.269894 22.119183
7.2137327 30.936718 20.061155
7.129956 31.082512 20.715372
7.332244 31.200357 21.75718
7.346718 31.029343 22.066477
6.8090024 8.871544 19.0347
6.8655043 8.961205 19.565983
6.9334803 9.0661 20.038708
7.240472 9.541629 18.573967
7.250918 9.866425 20.422615
7.8443456 11.049424 16.27566
7.419324 10.963476 16.401278
7.434599 11.470331 16.037193
7.4071674 12.511759 15.820794
7.451879 14.581695 14.667864
7.9723372 15.044134 24.215017
7.372751 15.526122 13.953932
7.499741 15.507932 24.057043
7.5043244 16.594643 13.6959505
7.567482 16.88304 24.414455
7.4450293 17.190027 13.747785
7.5284486 17.66181 24.250538
7.5062585 18.1268 23.965818
7.9782343 19.901428 14.771547
7.7665257 19.114918 23.099655
7.6951385 20.780766 14.262324
7.367316 20.348602 14.509031
7.5799694 21.346573 14.238473
7.897986 21.854006 14.201059
7.5314827 22.122297 14.499233
7.9934626 22.762432 23.974924
7.354027 22.773586 14.962518
7.898344 23.181543 23.77455
7.2455115 23.806734 16.14676
7.6412005 24.173676 16.729483
7.228926 25.198214 17.508497
7.6248083 25.747032 22.658318
7.699253 26.004171 23.425333
7.765966 26.387638 17.860786
7.635361 26.749393 24.328465
8.320778 27.032026 25.688038
8.329072 26.755362 25.939945
8.093316 27.607664 25.477674
8.3109455 27.324915 26.007515
8.139627 28.520765 17.395727
7.716695 28.476143 17.782137
8.227403 28.376411 25.516224
7.6185436 28.832462 17.980656
7.778132 29.63729 18.620895
7.868518 29.624872 23.226912
8.207622 29.375202 25.182371
8.374961 29.119478 26.006752
7.5568523 30.142775 18.933903
7.5122924 30.713814 22.27681
8.192941 30.057442 23.664919
8.408502 30.852673 25.728456
8.426965 30.471752 26.24136
8.454363 30.945633 28.082178
8.036342 30.785841 19.226913
7.7294316 31.22813 19.971395
7.4747705 31.403303 20.638756
7.8003864 31.277866 22.23826
8.359655 31.039267 24.940601
8.400595 31.62473 26.033781
8.380994 31.639978 27.463945
8.412041 31.7227 28.208117
8.036571 31.8599 21.148098
8.353934 32.871155 23.530216
8.359468 32.62652 24.387281
8.408463 31.953321 25.83941
8.415929 32.060646 26.081537
8.430015 33.203064 23.073372
8.393864 33.296394 23.55507
8.393415 33.219532 24.236544
8.318537 10.298995 17.779049
8.734553 10.350205 19.793364
8.513293 10.826239 16.660114
8.639675 11.303332 21.90962
8.196237 11.531411 16.146341
8.5476 12.508529 22.59175
7.8896537 14.792257 14.728576
8.430271 14.798915 24.231178
8.03767 15.572346 14.149336
8.566119 15.62754 14.605638
8.094263 16.523129 13.999714
7.885805 16.94834 13.771044
8.679099 16.981703 24.64843
8.475505 18.18054 14.662247
8.710012 19.45102 14.894475
9.098702 19.255947 24.570002
9.156885 19.653217 27.249249
9.154423 19.585083 28.465431
9.280144 19.831041 29.195389
8.414514 20.852932 14.215117
9.295924 20.59517 27.002197
9.165573 20.539646 27.631952
9.071365 20.523844 28.26892
9.292609 20.346945 29.36511
8.186771 21.516172 14.153334
8.3534355 21.7832 23.867918
9.144194 21.006323 28.414818
9.2759075 20.886175 29.244526
8.315326 22.040907 14.301117
8.525143 22.343643 14.550186
8.563294 22.57302 24.058765
8.410773 22.787672 14.7881775
8.4312315 23.096516 24.074213
8.180788 23.972101 16.790167
8.501787 25.373642 17.647429
9.018794 25.281652 25.08166
8.757085 25.943993 26.122772
8.479051 27.006504 17.488783
8.650839 26.498182 26.367006
9.159457 26.514763 27.035284
8.468379 27.441029 17.345793
8.512762 27.04726 26.3396
[...]
POINT_DATA 3007
SCALARS features_00 float 1
LOOKUP_TABLE default
0.6493323 0.67512965 0.7600215 0.7336966 0.7351957 0.7712438 0.7501549 0.7444402 0.7635126 0.48974228 0.57305455 0.5781681 0.5553985 0.59828514 0.6149402 0.53507185 0.55492175 0.5965872 0.6305847 0.5702884 0.6483823 0.6665076 0.5634469 0.5710461 0.65413165 0.7364502 0.64425415 0.64217806 0.7492323 0.74669 0.6977375 0.7296392 0.6533053 0.6950743 0.55116177 0.56338084 0.6310796 0.6542067 0.6070186 0.5198905 0.53350437 0.54624975 0.54599804 0.57563967 0.50107044 0.47113493 0.4843301 0.5083624 0.5536755 0.44054407 0.4433149 0.44744563 0.46245036 0.38502043 0.49681842 0.49428105 0.53116345 0.41167456 0.5127302 0.34738478 0.49804705 0.37835947 0.47423673 0.45412356 0.40292466 0.5046817 0.5406353 0.4726708 0.6053791 0.69617707 0.5558677 0.4949668 0.60698855 0.6737116 0.75676036 0.8392189 0.809248 0.62522733 0.70049727 0.76036537 0.7435348 0.6888776 0.52904034 0.6140134 0.4899573 0.58465415 0.5785403 0.49030596 0.5178325 0.38296393 0.3584429 0.07317357 -0.08958644 0.39084446 0.41235185 0.18041568 0.2236816 0.42473108 0.30253303 0.38990372 0.22309694 0.4204235 0.39639276 0.4093628 0.3961673 0.31070727 0.73765874 0.8094226 0.87881505 0.8198025 0.7617502 0.6562871 0.7142719 0.496868 0.5960375 0.5797273 0.5488322 0.24827719 0.20930533 0.2062437 0.37544703 0.4245072 0.168863 0.37397715 0.42637044 0.23312142 0.4017778 0.45496225 0.44999066 0.13954452 0.23766339 0.35490817 0.433605 0.3290656 0.0546416 0.19680879 0.27501556 0.26605988 -0.13830298 0.120107085 0.2990318 0.07157018 0.35361025 0.2703447 0.3463442 0.2753448 0.3094172 0.292959 0.3093095 0.25039104 0.23429032 0.2671458 0.27196503 0.29725954 0.30199957 0.2661592 0.20730346 0.20614573 0.2053644 0.24542844 0.21575479 0.17011496 0.6950544 0.7755687 0.82634884 0.7882678 0.73729026 0.6170379 0.68719137 0.47639853 0.59218943 0.4553388 0.45293492 0.36432147 0.29451346 0.43843365 0.3788314 0.28031793 0.32226855 0.49735177 0.37732455 0.35548216 0.50354314 0.42706758 0.45301646 0.43682536 0.4192439 0.35435307 0.3756976 0.39653766 -0.04341362 0.3688025 -0.07014459 0.35482517 0.23608372 0.2907799 0.34123692 0.33208668 0.31988734 0.30391884 0.3469158 0.21068144 0.31954572 0.2169478 0.16152002 0.13611242 0.14478508 0.40468076 0.37005794 0.33622774 0.15632275 0.16914895 0.3934184 0.38939604 0.3531676 0.37981087 0.19475958 0.4053456 0.4084463 0.45243442 0.46962672 0.45536143 0.5094968 0.52289724 0.5131029 0.3871807 0.50298715 0.52967227 0.46213758 0.41551644 0.7618864 0.74356806 0.71582735 0.57541144 0.5449716 0.28343123 0.28640378 0.26348427 0.26564217 0.42051739 0.29320565 0.5145285 0.3561591 0.5179547 0.39481205 0.46259236 0.35812777 0.32152477 0.3301173 0.20808098 0.40302062 0.354299 0.4293802 0.47429463 0.44042796 0.18232015 0.37836868 0.2112168 0.3544146 0.32182905 0.23089118 0.07685631 0.13202906 0.31059685 0.18132493 0.21269043 0.23743346 0.17190516 0.20639169 0.4125561 0.41285145 0.14069274 0.4131598 0.40886113 0.114005364 0.08397323 0.119333595 0.425851 0.35995334 0.02584257 0.13848905 0.13665143 0.23277214 0.37947124 0.43963653 0.4989233 0.32816058 0.10879074 0.182499 0.2359916 0.2587255 0.38486055 0.39118007 0.34203666 0.20206976 0.2162418 0.44622242 0.4738208 0.4642999 0.3145619 0.29801235 0.3267728 0.20068635 0.2685094 0.07776976 0.46548724 0.22274531 0.52823395 0.483057 0.50651133 0.4781357 0.2920276 0.18597841 0.15355356 -0.06304495 0.4879765 0.57742625 0.595088 0.44279033 0.35912514 0.4985197 0.5706972 0.60886896 0.47661653 0.13912621 0.56114036 0.60630876 0.51576483 0.53587717 0.05143321 0.5012367 0.048753712 0.2776353 0.09435193 0.18427023 0.2682572 0.3256315 0.26611197 0.2635149 0.34186673 0.23764172 0.24920042 0.3920449 0.39383933 0.12502334 0.1252844 0.026367553 0.18449369 0.23089723 0.20782614 0.21057212 0.25931007 0.28709918 0.31094074 0.30363277 0.33980656 0.30783242 0.28448504 0.31993878 0.47499368 0.6287645 0.47764534 0.5047004 0.51467264 0.41609585 0.29172325 0.3240763 0.38851142 0.52895707 0.6634625 0.7138225 0.51643676 0.54122615 0.5419805 0.39884794 0.2691017 0.5960298 0.6631607 0.70917845 0.5882408 0.6418171 0.6796711 0.3964839 0.45187876 0.38331044 0.41371477 0.3306917 0.34275842 0.28717247 0.36154976 0.19291238 0.3438503 0.5650531 0.4231894 0.57763785 0.27991286 0.018912368 0.07416362 0.33165824 0.23232445 0.5502523 0.58638185 0.6114443 0.60765135 0.6156695 0.615525 0.6181379 0.5416838 -0.2026338 -0.026000697 0.61459184 0.6256635 0.55625206 -0.22697386 0.45578435 0.54564154 0.476917 -0.20031722 -0.17648552 0.16146865 0.12108355 0.24525005 0.25132293 0.23869671 0.21377008 0.1404464 0.08757574 0.17965943 0.25208 0.4049672 0.56107867 0.5889149 0.6830354 0.41054845 0.7313229 0.5306759 0.55256927 0.4816512 0.38303083 0.20952548 0.18287618 0.7155428 0.73487914 0.5179753 0.3415453 0.39824697 0.59079385 0.6507402 0.6934179 0.71547985 0.49730474 0.5391953 0.4817679 0.5225443 0.60486513 0.5591018 0.43527746 0.46451962 0.4485122 0.4352982 0.60361844 0.41853786 0.5642735 0.6573734 0.6914716 0.43010974 0.6534629 0.66486377 0.608526 0.59892344 0.24870452 0.34256008 0.6122674 0.6205286 0.64098215 0.50608957 0.34051841 0.6350866 0.4846592 0.42754585 0.33865336 0.13700029 -0.1757679 0.03060197 -0.08612807 -0.15219727 0.09366602 0.092583045 -0.05989341 0.13546932 0.15022928 0.090313934 0.2009598 0.17484376 0.55814445 0.3942473 0.67351454 0.6364109 0.488568 0.23439926 0.3855587 0.5453331 0.4896952 0.3443308 0.18173437 0.5819411 0.48612136 0.43817663 0.11119749 0.31681228 0.71426666 0.39775127 0.44065452 0.36955184 0.21554068 0.15828489 0.1617891 0.72236586 0.34751686 0.2817049 0.25847727 0.35482776 0.66780156 0.6844359 0.483203 0.5766413 0.6135962 0.6544717 0.5943936 0.47384807 0.50060177 0.56822014 0.6082462 0.5939535 0.57104355 0.47843948 0.50723886 0.6189543 0.71301365 0.7402895 0.75877666 0.47457987 0.50907004 0.7505677 0.72874165 0.7057637 0.46084327 0.6302262 0.75250614 0.4754696 0.6805872 0.66177535 0.58208936 0.5963847 0.6229851 0.514343 0.6322945 0.3932076 0.2532387 0.6374783 0.6655704 -0.37931865 -0.16559353 -0.37950566 -0.13373813 0.16976318 -0.012659267 -0.12466559 0.4114445 0.22592747 0.090305075 0.16641137 0.54709625 0.092899136 0.6862951 0.058274545 0.06895531 0.71564806 0.68317926 0.633613 0.65419304 0.6135498 0.5188742 0.43657035 0.31170762 0.058372647 0.6233638 0.49851745 0.01093404 0.34508365 -0.008365452 0.6456885 0.24527666 0.19572806 0.20317017 0.34367803 0.6207093 0.6267586 0.35484257 0.46703768 0.5394508 0.6212857 0.62945104 0.59771395 0.60099554 0.5914785 0.5583767 0.5498425 0.5901582 0.5872258 0.5697792 0.5568429 0.6775786 0.75027764 0.52999794 0.55826825 0.5681891 0.46284527 0.4330055 0.72173005 0.7423518 0.7168988 0.53841025 0.5064424 0.70473886 0.68691075 0.60404027 0.7504938 0.71498895 -0.26931304 -0.25106934 0.7181382 0.089363635 -0.33071035 0.13454053 0.65340984 0.4604345 0.57685435 0.5887097 0.5652834 0.61665565 0.50896406 0.4410174 0.19563156 0.18260972 -0.46047634 0.046205364 -0.31589627 0.073671766 0.27549675 0.31460518 0.10045521 0.06878716 0.2865476 0.36246544 0.3890174 0.276238 0.19462848 0.05773598 0.28466782 0.3610728 0.40320426 0.4797858 0.33230674 0.032350063 0.17329004 0.40273654 0.6036962 0.5731186 0.05998261 0.05151994 0.67328864 0.6667174 0.7266321 0.32910818 0.6960276 0.50628734 0.6622176 0.6143386 0.5524185 0.579579 0.5188905 0.4632795 0.36617362 0.12279899 0.07656351 0.62771654 -0.08325668 0.013821334 0.31424794 0.6138181 0.61853004 0.35078847 0.4418491 0.5486745 0.6094014 0.6037065 0.5564213 0.544194 0.6495869 0.6766684 0.70412874 0.5370339 0.63739276 0.63266593 0.6780418 0.39760193 0.4578214 0.55752885 0.59212244 0.75711346 0.7744167 0.69038767 0.4479622 0.2920748 0.7055449 0.7321687 0.12705985 -0.21501662 0.09362344 0.16400722 0.6781981 0.34195706 0.3985644 0.51703143 0.6118135 0.5938381 0.494899 0.5651871 0.55503845 0.41881305 0.4894344 0.525032 0.4933779 0.3521668 0.24513014 0.34487468 0.21198738 -0.157644 -0.15631767 -0.05272666 0.35829043 -0.18359259 0.21554966 0.33200708 0.39708823 0.4326279 -0.0049037524 0.15165168 0.3685822 0.4308259 -0.08523815 0.42462063 0.4348907 0.21842429 0.42796922 0.4283811 0.4771876 0.40890318 0.42545563 0.57463956 0.28697476 0.39055908 0.6341487 0.023936795 0.23836555 0.6938783 0.17642543 0.68136936 0.6478009 0.6205143 0.5245135 0.5712866 0.44133344 0.34276837 0.19461338 0.065837055 0.0016413331 0.61759746 0.110522225 0.057645924 -0.013571806 -0.021227784 -0.06310589 -0.05386998 0.24664168 0.39338845 0.6200398 0.62176526 0.35142916 0.6112039 0.6100273 0.74001175 0.7382099 0.6733588 0.58593786 0.16572534 0.2634183 0.23414038 0.22579297 0.725773 0.4639448 0.42320424 0.06382544 0.08392278 0.27763295 0.1668426 0.67274684 0.69697726 -0.087938555 0.06611578 0.61875045 0.6199955 0.23254925 0.39144224 0.45524734 0.59865224 0.58353853 0.22461651 0.39851248 0.5519131 0.5186204 0.15070921 0.16850771 0.77195084 0.7936378 0.09534873 0.07819134 0.68201053 0.6979015 0.75409645 -0.09795549 0.70983404 0.3515545 0.37641096 0.38886458 0.096977174 0.44572383 -0.07285142 0.45423603 0.44209903 0.44203085 0.1584333 0.3733344 0.40499324 0.4191714 0.39264303 0.35942897 0.34995675 0.5253202 0.28099895 0.6358415 0.5877814 0.44106275 0.00026956946 0.29067397 0.5451073 0.54616416 0.22131391 0.6290225 0.09624043 0.048599645 -0.012158152 -0.021804469 0.53768957 0.63249695 0.6337911 -0.0020330884 -0.0075507313 0.0066235103 0.6985446 0.63472754 0.7045354 0.6882782 0.6190156 0.23177013 0.24279784 0.31595758 0.30271643 0.2525374 0.69910294 0.68173075 -0.054920793 0.18658426 0.6707682 -0.046964012 0.6143594 0.60403085 -0.064248264 0.79829204 0.84558725 0.8579466 0.8315654 0.33181778 -0.019260675 -0.004002556 0.76607394 0.8137455 0.81368387 0.111415856 0.02943486 0.60352385 0.75250936 0.7565516 0.021289505 0.053950474 0.16938458 0.42832893 0.615469 0.7342152 0.6848289 0.33651197 0.14871266 0.42629763 0.33111233 0.32138282 0.206566 0.31924438 0.25601044 0.28695893 0.26742083 0.3173948 0.31767574 0.1917305 0.08088863 0.23966199 0.28943157 0.14412935 0.18624434 -0.05756557 0.08033619 0.27631286 0.053666607 0.36574063 -0.033918753 0.3813784 0.042431712 0.026193969 0.017899789 0.49128616 0.38774663 0.21018437 0.03510317 0.53937745 0.44533938 0.18165076 0.6428496 0.26868668 0.32798934 0.66515505 0.042756207 0.16909139 0.27949193 0.35967773 0.26896772 0.69161034 0.5389878 0.2755288 0.2906714 0.22756459 0.19981617 0.05801601 0.80737424 0.83772457 0.80522954 0.63955796 0.47861034 0.06576922 0.7465707 0.7823808 0.8342109 0.81073207 0.76488936 0.3410697 -0.014523771 0.7411213 0.76831436 0.71864223 -0.037690394 -0.024302319 0.17185374 0.6483269 0.6847284 0.0013116747 0.008521929 0.16096912 0.1047969 0.020601287 0.5226672 0.5130723 0.0102788955 0.4157706 0.36454523 0.360609 0.33133632 0.17665073 0.2035061 0.2478725 0.21757312 0.12841193 0.23974964 0.29002446 0.31243438 -0.036968097 0.22703944 0.2917659 0.18563576 -0.28682873 -0.24575406 0.030342009 0.37603736 0.4337207 0.44455436 0.5266254 0.57270145 0.4288004 0.2509584 0.51524377 0.575638 0.59795487 0.5346331 0.33180144 0.21786931 0.21912603 0.29216298 0.35849518 0.36852854 0.48644882 0.34732878 0.33814666 0.3028222 0.7855194 0.8125309 0.7522018 0.7333344 0.4868068 0.22734389 0.7080486 0.7161633 0.70056653 0.43547016 0.64543486 0.6746232 0.3430252 0.59434325 0.17509899 0.13159409 0.15222979 0.024344563 0.09884162 0.18014714 0.16009468 0.12045774 -0.1897128 0.47841477 0.012813494 0.04021208 0.36953798 0.39683652 0.32790366 -0.011012316 0.303764 0.3682576 0.09049445 0.34289223 0.34028864 0.23145857 0.013097156 0.49347278 0.17087515 0.5800428 0.59251916 0.56577396 0.54869175 0.25629818 0.23648655 0.5901308 0.45123246 0.26428974 0.36928195 0.3015267 0.24901552 -0.14849825 0.0633405 0.26544672 -0.1032408 0.01814194 0.032442495 0.24049392 0.15093371 0.15451494 0.1138925 0.35161883 0.17222896 0.29536638 0.20636863 0.42513034 0.49066013 0.56236506 0.5219879 0.32640684 0.5703871 0.49798542 0.33499745 0.3106214 0.33218974 0.4757645 0.42240393 0.3470505 0.2913202 0.2982146 0.31184897 0.74115103 0.74180174 0.7626747 0.7433585 0.61220694 0.27754295 0.6418299 0.6808667 0.70712596 0.689222 0.6914629 0.5096047 0.6510056 0.675227 0.43007892 0.15813243 0.037108324 0.52992606 0.3158473 0.19311738 0.14436364 0.14520718 -0.009904873 -0.1245362 -0.110508546 0.38232613 0.07425745 -0.20531766 0.30270368 0.30733523 0.07105475 0.045984566 0.3001689 0.046115447 0.016461521 0.1197542 0.082938954 0.5282165 0.45577097 0.5851349 0.1652456 0.61376786 0.5651748 0.48389328 0.41768813 0.18223546 0.36806455 0.31280857 0.01304125 0.059498228 0.28258866 0.112422764 0.07806994 -0.023904381 -0.025077552 -0.02029454 0.15952677 0.076777846 0.22066641 0.17944363 0.1671427 0.19828583 0.19629347 0.29642075 0.21366598 0.31272784 0.2113721 0.19746888 0.19000782 0.4903788 0.44868666 0.4000196 0.28544968 0.57211685 0.4818697 0.40883788 0.3054411 0.2760074 0.5905388 0.58491856 0.6921953 0.18580031 0.3070555 0.6107652 0.5202015 0.26852953 -0.07991109 0.29034436 0.185486 0.1612994 -0.11251139 0.31577048 -0.118162185 0.20724474 0.0776861 0.115664735 -0.32851768 0.27468538 0.29923657 -0.03011238 0.20752952 0.10872842 0.11519289 0.08098819 0.008890746 0.16100886 0.3392887 0.18351825 0.512438 0.44114256 0.15643421 0.17353116 0.6211832 0.63053626 0.07262678 0.6786327 0.6514659 0.6284406 0.57868326 0.508232 0.4393267 0.34764913 0.33266345 0.29345012 0.15007247 0.030178905 0.24846523 0.22307143 0.13519001 0.26865566 0.20544752 0.26589817 0.20852761 0.17792699 0.18738829 0.2822696 0.25808078 0.35058743 0.18415017 0.13878897 0.18603842 0.17593038 0.16367051 0.41385794 0.51132214 0.46961153 0.12738992 0.5803008 0.43274552 0.096408166 0.11141321 0.008880913 0.039605726 -0.07909705 -0.2162999 0.036181718 0.11348258 -0.13130975 0.14113013 -0.20133185 0.5717666 0.6420612 -0.12894365 0.49084052 0.019015234 0.057898574 0.48751146 0.086609215 0.12096943 0.15204318 0.12626293 0.12498219 -0.030818777 0.15705374 0.21427426 0.61361104 0.53607625 0.24202675 0.6734216 0.6846035 0.16756713 0.621702 0.5835916 0.13891274 0.5515765 0.45011398 0.080031425 0.17512393 0.36609095 0.29035604 0.2663926 -0.030327141 0.3307447 0.3692416 0.23407803 0.34237352 0.40516835 0.33392978 0.45262527 0.5159425 0.28154418 0.15605429 0.48167953 0.29396483 0.32604635 0.0953113 0.15886275 0.17268293 0.17751174 0.36132354 0.3874243 0.17668867 0.49391413 0.5524354 0.61361563 0.54917663 0.53447795 0.5806436 0.6122184 0.014945596 0.0056200707 0.04221478 0.042191308 0.1056961 0.31072277 0.45566714 0.61280155 0.87721467 0.022938922 0.016108766 0.062590376 -0.014611676 0.034716982 0.1284866 0.006002061 0.792929 0.8132874 0.051779434 -0.25380284 0.80216455 0.71217465 0.033003043 0.51560163 0.65473247 0.07003699 0.34571448 0.05553594 0.03142575 0.22592507 0.22795048 0.23589942 0.53837 0.6594784 0.18040392 0.6809068 0.18844667 0.62531626 0.60648084 0.17053759 0.54749864 0.46058577 0.26508334 0.25960192 0.43248823 0.22547649 0.49286228 0.4899556 0.259054 0.5450781 0.29598403 0.513158 0.5402343 0.26016787 0.1683802 0.4200915 0.41669226 0.31547612 0.36430663 0.19757596 0.19018516 0.20548666 0.18322462 0.3835007 0.44440037 0.5000435 0.5640565 0.6137132 0.5710121 0.6494405 0.6831322 0.6690365 0.54327583 0.5514637 0.68618214 0.66233623 0.6243733 0.39577228 0.33968225 0.60704416 0.55166936 0.16875908 0.24357757 0.25574648 0.42117155 0.7815246 0.78332955 0.76811326 0.0835269 0.12015024 0.065186076 0.11505746 0.13306823 0.23918451 0.19123642 0.83402276 0.84015846 0.45222297 -0.06788239 -0.309423 -0.13018979 -0.07439167 0.15247756 0.49840745 0.5513176 0.6369152 0.82931894 0.8701006 0.8430464 0.5023014 -0.08616716 -0.32156834 0.5110228 0.6935319 0.8506955 0.8805245 0.73009974 0.7188679 -0.09063047 0.8801991 0.5595684 0.8387241 0.6807374 0.7495836 0.09011903 0.16822088 0.10077938 0.033764187 0.21544814 0.083952665 0.09749944 0.5927856 0.4508908 0.1297678 0.15158756 0.58672714 0.5214579 0.17962196 0.20263629 0.59010965 0.47863668 0.515566 0.2712176 0.25419745 0.09056417 -0.20984215 0.3160889 0.38754088 0.17913958 0.5174786 0.41473493 0.21271819 0.5292975 0.51144075 0.4149049 0.35151553 0.22996148 0.49416187 0.50837183 0.37547147 0.28875005 0.20107 0.15860912 0.16794793 0.43856594 0.18772312 0.28353247 -0.012775669 -0.011914929 0.12019996 0.20209064 0.2398855 0.24561316 0.3771873 0.30718088 0.48601395 0.5638082 0.5961339 0.58298576 0.62068903 0.6336653 0.599715 0.61923605 0.6566478 0.6501522 0.6224841 0.57718647 0.6255849 0.50315887 0.51511025 0.43544847 0.4042969 0.44928855 0.45559603 0.38165337 0.18601152 0.7020408 0.6538307 0.5697365 0.37776393 0.3042309 0.04021083 0.76173764 0.791713 0.39296812 0.2570529 -0.108861856 0.26988345 0.13509518 0.10331384 0.7646879 0.7508049 0.23437768 -0.063068174 0.09180549 0.111464515 0.61404467 0.7189039 0.8869317 0.6561295 0.51776004 0.47718364 0.49225897 0.8695228 0.90856147 0.9067288 0.5083252 0.33259517 0.7590046 0.8791584 0.8792417 0.8771409 -0.15639372 -0.10902543 0.37040552 0.57426274 0.7554941 0.7910942 0.92180467 -0.05690999 0.015556559 0.92809445 0.95099604 0.9277955 0.049447432 0.08110905 0.8855914 0.9340093 0.95936346 0.02518609 0.85609066 0.8984579 0.92365086 0.23758245 0.2519672 -0.21980684 0.31796592 0.24588907 0.29131466 0.48189682 0.4243563 0.42012858 0.5083448 0.47099292 0.46376112 0.47921592 0.4392494 0.45531434 0.39325124 0.27216992 0.2773825 0.37411013 0.31906784 0.28264847 0.19685647 0.2794698 0.25528103 0.06701509 -0.02659183 0.3073364 0.32610792 0.53558207 0.5954522 0.5251503 0.577194 0.59839594 0.5802234 0.51022816 0.48705506 0.616483 0.5796246 0.45187005 0.47883782 0.5023658 0.54705495 0.45323944 0.5053921 0.47327942 0.39763236 0.41000667 0.24314186 0.5178377 0.5382869 0.24996284 0.11806432 0.1797424 0.653365 0.16245976 0.06744043 0.07838566 0.44835606 0.08122646 0.23678844 -0.005028248 -0.09646509 0.8831996 0.8929501 0.8725731 -0.0090608895 0.81480026 0.8834716 0.91366684 0.8932668 0.094358966 0.0052644126 0.80234766 0.8406181 0.9441025 0.9060585 0.21161486 -0.10135978 0.79670787 0.8357214 0.8751059 0.4392133 -0.14621772 0.7496841 0.77401924 0.79915285 0.41363198 0.3531109 0.34364587 0.18584245 0.06406091 -0.07063474 0.220043 0.29209492 0.2981974 0.3031237 0.44834787 0.34486413 0.49080044 0.5076656 0.4185366 0.4763765 0.3687743 0.40761107 0.36526784 0.3668517 0.20465428 0.30807287 0.34333882 0.3071644 0.29270494 0.17635515 -0.1331314 0.22923283 0.35785037 0.32295266 0.27731264 0.059589285 -0.15951979 0.20239073 0.0844806 0.040379725 0.01643347 0.41797787 0.3841035 0.4871628 0.449746 0.5352218 0.6686852 0.6989927 0.45000455 0.6959586 0.7161883 0.70669454 0.55603147 0.6105633 0.67964387 0.709605 0.45349476 0.54231167 0.5617671 0.53857154 0.3970719 0.36308736 0.42603582 0.51655906 0.49275938 0.2894312 0.37175548 0.44596556 0.42388746 0.43527913 0.32381836 0.37464175 0.33809406 0.34620744 0.32932556 0.34391043 0.44922256 0.3699037 0.4657097 0.60879666 0.06693073 0.28164634 0.057413615 0.2905268 0.16986856 -0.0031210408 0.6469581 0.75607836 0.7686354 0.6955345 0.77492374 0.81825686 0.77971655 -0.1872687 0.64125246 0.72317195 0.84014523 0.13578191 0.71265566 0.71213883 0.80371916 0.41371906 0.13859919 0.66569304 0.6881938 0.6877031 0.44843698 0.4255548 0.36192667 0.075734064 0.08248229 -0.069643 0.120969735 0.21925385 0.2408373 0.2968288 0.34162447 0.4128715 0.3932802 0.38661742 0.38027206 0.36491752 0.32174852 0.24823959 0.28042573 0.3093506 0.3106289 0.20737913 -0.124721944 0.069368094 0.37785822 0.30996138 0.35120702 0.452475 0.4384141 0.37828445 0.113638856 0.44428593 0.37150985 0.097188 0.16877617 0.6473283 0.45548332 0.4976455 0.66278636 0.5166872 0.5514247 0.59315014 0.6704022 0.69459176 0.66552067 0.5428501 0.61385 0.6849997 0.3944373 0.4549781 0.48140636 0.4808643 0.36046314 0.38469774 0.40108633 0.35107964 0.44864064 0.4414853 0.30050147 0.3633 0.24012798 0.37733614 0.3229068 0.3098879 0.09724924 0.2900189 0.3133788 0.25752077 0.270516 0.34698364 0.2611801 0.34474742 0.2787927 0.3728193 0.056354456 0.16290624 0.5514173 0.5441016 0.5815573 0.14598203 0.07459974 0.0009498298 0.56