# vtk DataFile Version 2.0
Really cool data
ASCII
DATASET POLYDATA
POINTS 2903 float
2.4163134 34.008816 18.744127
2.4203076 33.98056 19.102207
2.3507214 34.489906 18.689209
2.353724 34.500072 19.265192
2.4177911 35.11652 18.61631
2.417412 35.084312 19.33915
2.9323108 33.32062 18.52824
3.0178206 33.295773 19.20007
2.8794785 33.88044 17.886438
2.6011302 33.7501 18.62387
2.7486389 33.70235 19.360538
2.8617191 33.98674 19.828033
3.151718 34.54923 17.199362
2.873767 34.661873 17.557367
2.5233128 34.374886 19.576159
2.7708712 34.36427 19.875315
2.7382784 35.282715 17.87466
2.57737 35.599106 18.734482
2.600914 35.522984 19.443789
2.9483023 35.30514 20.081703
3.0836272 36.271675 18.119835
2.7400837 36.030186 18.568722
2.7956703 36.40121 19.558037
3.0238132 36.506386 20.085379
3.192751 37.533314 19.621628
3.0867043 36.936306 20.078648
3.2067087 41.867847 15.93112
3.1522152 41.77821 16.373426
3.2102442 42.399784 15.752532
3.1900096 42.487755 16.511253
3.3295202 42.333916 17.127108
3.3333287 43.529694 15.690598
3.2729273 43.185688 16.347322
3.4218097 42.98086 16.9546
3.7857378 33.27008 17.742994
3.510883 33.10598 18.406277
3.7809787 32.999638 19.359951
3.6938128 33.47436 17.504417
3.6862462 33.69366 20.052097
3.6177704 34.87894 16.766294
3.3579757 34.67394 20.232586
3.833025 35.31541 16.668278
3.4557698 35.727 20.461115
3.5758305 35.98961 20.577793
3.392141 36.39119 20.522076
3.8827755 36.631924 20.76781
3.407305 37.15631 18.051722
3.5211039 37.284405 20.404375
3.8090396 37.148716 20.682734
4.2661557 38.64308 16.935038
4.085396 38.712 17.534128
3.642788 38.000427 19.753317
4.220511 38.4516 20.093304
4.2174344 39.313595 17.082842
4.230793 39.700603 17.489246
4.2595468 41.241566 14.106125
3.6192439 40.856373 16.309809
3.52276 40.99905 17.004559
3.506104 41.992355 14.812747
3.4675179 41.850594 17.478863
4.3050904 42.7244 13.106496
3.8929102 42.752354 13.605539
3.5212827 42.993973 14.373309
3.4563963 42.600132 17.305292
3.9769144 42.502903 18.017832
4.1427455 43.306225 13.183144
3.9559789 43.4984 13.566796
3.6069844 43.25248 14.355612
3.7325873 43.331757 17.373732
4.149003 43.22834 17.907537
4.1172113 44.129 13.770008
3.8044443 44.297703 14.591688
3.6342638 44.39253 15.35025
3.8020627 44.392094 16.367332
4.117777 44.17797 17.091543
4.1098022 44.87701 14.820865
4.1828012 45.156773 15.514363
4.1493506 45.062378 16.021214
5.4061465 31.722626 14.54137
5.410485 31.24339 16.55744
4.9275427 32.40846 18.8923
4.873055 33.131477 16.816645
4.854026 32.53039 18.616262
4.4214077 32.78672 19.29118
4.5697017 33.039986 19.991486
4.9465456 33.942665 16.196243
4.763331 33.93908 16.480646
4.755478 33.644035 20.363274
4.505136 34.243782 20.46543
4.540007 34.60414 20.56541
5.303394 36.191124 12.60594
4.5135436 35.88196 16.349422
4.4370384 35.752117 20.69581
5.3510876 37.00166 11.226468
5.075813 36.692844 12.031018
4.9230404 36.846092 12.523734
5.1376204 36.73094 13.325002
4.358962 36.5777 20.885849
5.1816545 37.605927 11.266805
4.9680533 37.42716 11.669654
4.656023 37.604725 12.537845
4.6926675 37.430798 13.017492
4.3196597 37.281597 20.776333
5.031358 38.27441 11.515864
4.591609 38.066692 12.524517
5.065447 38.441467 15.570276
4.7492805 38.369507 20.496344
4.5124507 37.858273 20.695683
5.2549205 39.58882 11.970009
4.9281974 39.0609 12.853039
4.8138533 39.002354 20.215708
4.999276 40.327877 19.427324
4.5821447 42.027336 13.01004
4.8779826 41.791008 18.82809
4.4711246 42.749996 12.899054
4.3886237 42.33326 18.450546
4.6055503 43.488285 12.879478
4.803686 43.434147 18.119156
4.766068 44.077072 13.099745
4.5386734 44.386353 13.553688
4.3379197 44.646545 14.231198
4.774112 44.320156 17.4004
4.4977202 43.922268 17.681126
4.712715 44.78543 14.008855
4.734234 45.171574 14.703196
4.5629234 45.364456 15.617297
4.4576707 45.09173 16.314257
4.5714602 44.88378 16.756227
6.3270497 24.022943 13.902474
6.4255986 23.912603 14.410751
6.3137116 24.327593 13.720064
6.2952895 24.477919 14.555845
6.393743 24.787376 15.103668
6.243769 25.424675 13.5620165
6.237643 25.194752 14.413208
6.4282494 25.174839 15.336566
6.480815 27.00638 11.0614395
6.3758955 27.206448 10.884507
6.4517484 27.42604 11.258702
6.2977667 28.297533 13.747628
6.0059714 29.63775 13.77726
6.0000668 29.35429 15.253645
6.082572 29.677938 16.743895
6.112755 31.114096 12.71969
5.7346463 30.81941 13.452963
5.542403 30.976542 14.276295
5.497538 30.872513 16.233591
5.6581025 30.873358 17.38523
6.2467475 31.642433 11.908041
5.740554 31.644611 12.977197
5.4809556 31.590906 13.593621
5.581956 31.598581 15.483281
5.5587187 31.480328 16.11612
5.5729074 31.479307 18.151484
5.529155 32.089996 19.428003
5.7161283 32.196854 12.988008
5.51884 32.141136 13.385656
5.7501836 32.973984 20.350187
5.896666 33.07057 13.595024
5.6062083 33.69481 20.543175
6.2195873 34.56855 13.280514
5.363616 34.60229 20.414713
6.061731 36.185062 11.414456
5.901245 37.018353 10.798521
5.6129246 36.465473 11.672658
5.5410976 36.38997 14.038222
5.058716 36.204388 20.687662
5.865246 37.556812 10.654092
5.7401757 37.264866 20.720385
5.7109094 38.462837 10.850953
5.9829907 38.363647 21.014906
5.922058 39.3773 11.161392
5.5229807 39.27115 11.519785
5.5060205 39.09012 20.52725
5.227641 38.924126 20.580746
5.6998434 39.994095 20.014719
6.0071855 41.114628 19.543491
5.8042617 42.428055 18.8225
5.378826 43.512424 12.670939
5.4411464 43.329617 18.334465
5.460059 44.27274 13.101366
5.179316 44.48398 13.328469
5.8100877 44.29067 17.31612
5.3352113 43.999905 17.780098
5.234196 44.80552 13.987855
5.4077287 45.1954 14.741348
5.363988 45.375683 15.579806
5.192466 45.29245 16.289572
5.451228 44.74967 17.003716
7.4579926 21.440365 5.605235
7.1066275 22.0391 7.1629686
7.308663 21.924458 8.565704
7.451096 21.974981 9.665999
7.2137914 22.451134 5.756849
6.921872 22.71143 6.57393
6.9546366 22.748695 7.6795473
7.069655 22.682665 8.407161
7.132562 22.743181 9.004043
7.259571 22.925352 12.975141
6.957094 23.212042 13.400252
7.0299563 23.227285 14.563351
7.1960278 23.255865 5.9539156
6.951232 23.232368 6.6956406
6.900278 23.25437 7.3374515
7.027214 23.493834 8.653974
7.0647807 23.446655 9.166199
6.657137 23.512205 13.6001835
6.631799 23.610542 14.374743
6.802075 23.896679 15.212518
7.161581 23.811321 6.736697
7.288471 24.4916 8.108092
7.2278843 24.6228 8.558016
6.4688244 24.185633 13.1352415
6.467641 24.177631 13.24338
6.6442523 24.673342 15.512065
6.8733563 24.954794 15.9486475
7.125716 25.741526 9.084984
6.963317 25.590172 10.548291
6.5641975 25.548904 15.69385
6.814019 25.713312 16.246538
7.2919784 25.643042 16.804644
7.18273 26.556509 8.798918
6.928925 26.366596 9.567448
6.5969763 26.6925 10.764283
6.6857843 26.678892 12.950759
6.67615 26.637825 16.243795
7.085661 26.429344 16.84207
7.317347 27.397316 8.153009
7.0477467 27.398664 8.748339
6.7705297 27.14274 9.807099
6.627992 27.653818 10.650203
6.4909916 27.7568 11.736926
6.621292 27.45535 15.229183
6.679042 27.416744 16.269045
7.12786 27.267897 16.738611
7.300874 28.246222 8.646495
7.3552594 28.578568 9.11746
6.648839 27.885433 10.519689
6.884856 28.343733 11.424299
6.628017 28.539993 12.542518
6.531913 28.293415 13.289958
7.0244856 28.022224 16.39325
6.9954844 29.40909 11.871258
6.48112 29.50062 17.013542
6.4291177 30.510794 12.057342
6.6948133 30.692415 18.40629
6.9912443 31.089844 19.108974
6.6835046 31.53655 11.275846
6.4380417 31.223969 12.004898
6.4323483 31.536247 19.240404
6.9039254 31.782068 19.73973
6.71087 32.121353 11.234987
6.7268744 32.21167 11.37382
6.60769 32.602413 20.178669
7.2157393 33.01439 11.420849
6.7447443 33.423183 12.667812
6.124594 33.72465 20.477942
7.0279126 36.19758 10.880629
5.910755 35.572197 20.238026
6.4211173 36.841267 20.765045
6.7876143 37.83119 21.21074
6.7536516 38.48902 21.244947
6.5804734 39.11832 20.983662
6.495154 40.519943 11.592738
6.240289 41.53428 19.359612
6.2685885 41.06237 19.55891
6.69184 43.6052 18.25472
6.089986 42.945786 18.617968
6.1972756 44.30354 13.769035
5.9551625 44.34376 17.153421
6.085681 44.915302 16.344456
8.301666 19.103708 4.01276
8.182019 19.823511 2.7444897
8.15545 19.677336 3.4838984
8.080588 19.83491 4.27178
8.1406355 19.763176 5.2167773
8.281218 20.426147 2.2012627
8.01803 20.587954 2.6333365
7.894425 20.587515 3.3318095
7.9062123 20.725262 4.5210357
7.799218 20.577978 5.407705
7.8939347 20.884508 9.670512
8.011646 20.739933 10.228986
8.314761 20.92205 11.547516
8.255047 20.997774 2.2247624
8.14602 21.236284 2.66223
7.8738003 21.353807 3.6405976
7.6610365 21.740059 4.820164
7.491479 21.387554 5.666085
7.4963846 21.346487 6.3774624
7.543634 21.757507 8.554005
7.6831484 21.349766 9.470218
7.7340555 21.428427 10.380697
7.877109 21.887669 11.393412
8.33104 21.60089 12.1979265
8.327789 22.02506 3.0536973
7.989351 22.2593 4.0761695
7.6244903 22.846119 4.909507
7.829338 22.589115 11.179042
7.538514 22.72507 13.584955
7.536362 22.866179 14.343876
7.734863 23.313705 15.316682
8.217122 22.95592 3.9843943
7.7482333 22.887335 4.995898
7.672508 23.261967 5.313597
7.5677967 23.45936 11.66347
7.274505 23.788713 15.514117
7.922999 23.84459 15.801215
8.300097 23.865938 5.0812488
7.577031 23.887035 6.0847936
7.418144 23.955929 6.4691224
7.591488 24.652555 10.863772
7.534648 24.91239 16.421858
7.350784 25.369019 16.59129
7.90958 25.56882 17.152906
8.094088 26.958155 7.3023443
7.729916 26.471582 17.30548
8.029722 27.83596 7.3714514
7.605937 27.468576 7.794712
7.3822055 27.186352 17.105074
7.8246984 28.09818 7.6537395
7.4430037 28.4551 8.293591
7.5403533 28.563301 9.176105
7.369554 28.66823 16.773695
8.074738 28.921898 7.9351735
8.145307 29.429943 8.574705
7.690789 30.708603 10.725872
7.3682714 31.250399 19.378399
7.170701 31.389496 19.479975
7.5808024 31.532576 19.638561
8.269771 32.85248 4.931584
8.20099 32.880463 5.4506173
8.239436 32.98028 9.814003
7.440298 32.229218 10.810264
7.7445817 32.685173 20.371279
7.8242297 33.058247 20.541843
8.219569 33.49902 4.694763
7.9913425 33.44147 5.401744
8.124455 33.504997 6.278361
8.196701 34.182106 5.0413
8.210183 34.56523 5.468581
7.8170257 35.077106 8.830839
8.110715 34.42265 9.3063755
8.008296 34.468502 10.581129
[...]
POINT_DATA 2903
SCALARS features_00 float 1
LOOKUP_TABLE default
0.7119231 0.7178715 0.69927627 0.70521224 0.67554736 0.68229437 0.6979778 0.69774455 0.6760546 0.71182495 0.71128947 0.6903847 0.5941752 0.6499158 0.6971631 0.67592096 0.636234 0.65340686 0.6598379 0.6189163 0.55438906 0.6177698 0.597129 0.5408212 0.49990684 0.5064327 0.46662453 0.46115395 0.51202226 0.51299256 0.5150331 0.6166009 0.5638446 0.5534251 0.58648735 0.65324575 0.6336016 0.57057226 0.6601308 0.48679525 0.6130037 0.45183873 0.5440451 0.51935375 0.51518065 0.47015366 0.42454118 0.46258008 0.45796347 -0.012951449 -0.012466982 0.43009132 0.35031787 0.013776287 0.026166808 0.42760545 0.31640124 0.38119394 0.5038959 0.5007944 0.5342277 0.5273431 0.5587988 0.5358077 0.53797174 0.5670397 0.5751784 0.5761199 0.5750039 0.54165983 0.5933182 0.631621 0.69428486 0.6725329 0.5943105 0.6608151 0.719604 0.71333605 0.24601108 0.19037999 0.41842133 0.28416616 0.43060023 0.543202 0.5421258 0.3490472 0.39865533 0.48490888 0.47287962 0.44288683 0.35738766 0.34378445 0.42754045 0.43921208 0.42466328 0.42045236 0.36361033 0.42472333 0.4652375 0.4574433 0.4501765 0.4126002 0.41895512 0.48217478 0.4711401 0.056367356 0.33941743 0.38219762 0.39868248 0.44708288 0.27636653 0.22676289 0.4601884 0.34138137 0.5327664 0.4856909 0.5642944 0.4669823 0.57880926 0.59054947 0.6125803 0.52058315 0.52416474 0.59827393 0.64213336 0.71680635 0.67477673 0.6108427 0.4216687 0.4394846 0.40724987 0.44633874 0.44705212 0.36364314 0.4193392 0.42404062 0.16177312 0.17102338 0.13406658 0.041459315 0.12081586 0.20660922 0.26180458 0.2259119 0.22028148 0.22080004 0.21570086 0.2542944 0.22817035 0.25260198 0.25616482 0.19684102 0.17186847 0.23475122 0.38330016 0.26064807 0.26670098 0.40132135 0.22680911 0.3740697 0.0154993385 0.3413707 0.33994293 0.40588364 0.39707357 0.24175166 0.3518391 0.4203609 0.33979207 0.41539752 0.36269367 0.3301314 0.4064626 0.28460732 0.28900462 0.25602466 0.26996338 0.31565368 0.54721636 0.3828618 0.55890155 0.57328045 0.4193738 0.429973 0.5726284 0.6159585 0.700251 0.6443629 0.5157429 0.32309958 0.35268858 0.26062816 0.26278332 0.34852207 0.36455172 0.31222737 0.26064464 0.23357905 0.2829265 0.36302003 0.4509077 0.32542145 0.34933037 0.32394198 0.22694117 0.19845004 0.3945587 0.43738818 0.46126318 0.31451714 0.17712769 0.13999273 0.3399507 0.35479063 0.44335365 0.42437428 0.14115936 0.17496416 0.3945616 0.39360952 0.41108778 0.24254908 0.20960164 0.19114602 0.096238226 0.37528205 0.39983144 0.3436849 0.30287468 0.22912258 0.17358527 0.089848414 0.32085127 0.3360657 0.37549466 0.32494307 0.29224476 0.17286423 0.09923464 0.021503787 0.016092926 0.28391376 0.008379839 0.19913435 0.15882474 0.32770118 0.33077565 0.19197804 0.21242476 0.30685803 0.31953686 0.19450742 0.20183375 0.32767272 0.12078124 0.17048696 0.3277859 0.15073726 0.2506199 0.30508703 0.42267781 0.45083597 0.4226382 0.1821045 0.2865716 0.27797 0.30475116 0.3073362 0.4703011 0.4152259 0.5203437 0.5246843 0.6335945 0.5617827 0.4661966 0.4087089 0.64967436 0.58958614 0.5145758 0.37343732 0.305607 0.37657294 0.41454172 0.4142451 0.5835532 0.5114846 0.4041974 0.31833628 0.3210621 0.3284307 0.26704946 0.3163185 0.3569291 0.33896104 0.35210907 0.37780702 0.2961821 0.28885725 0.23000023 0.32155222 0.4219164 0.46191415 0.24905562 0.28632498 0.27769825 0.110397846 0.46595228 0.42726144 0.21465755 0.27420995 0.28820807 0.07360521 0.4138695 0.41274798 0.4263484 0.27994633 0.4341426 0.30045828 0.34566718 0.39940768 0.3198935 0.3264963 0.2871061 0.3065385 0.28489548 0.23932523 0.096092895 0.34789127 0.33225745 0.35133833 0.5805062 0.55919945 -0.117139444 0.110554166 0.36302066 0.37742758 0.61948323 0.60280216 0.53610563 0.60745883 0.5620866 0.04574801 -0.044401973 -0.1931468 -0.13421595 0.5337058 0.37709376 0.06777207 0.2926726 0.10922675 0.101570666 0.13144626 0.4419806 0.16583787 0.48981255 0.14793357 0.15139872 0.50236255 0.4425232 0.50650114 0.46646494 0.5240773 0.18690185 0.33223796 0.31548026 0.38471675 0.3249274 0.5321113 0.5096173 0.4791714 0.7075422 0.67604244 0.54981387 0.5090262 0.4653656 0.71371293 0.6826241 0.29309833 0.42834988 0.43620175 0.4253378 0.68815106 0.43521953 0.41185194 0.37842017 0.59279096 0.47342947 0.3248855 0.48411584 0.25627822 0.2112199 0.3207733 0.169506 0.13569161 0.14926212 0.12957995 0.43997228 0.13381319 0.43916035 0.27417558 0.46029025 0.10481866 -0.06509484 -0.018859854 0.040038407 0.37875956 0.4993534 0.42134207 0.5823221 0.5774657 0.35757482 -0.11133092 -0.026424047 0.43791714 0.4463542 0.6213404 0.44751364 0.6334279 0.61915815 0.5531746 0.42007047 0.31225866 0.34913003 0.34233698 0.21071458 0.46231374 0.2356982 0.49431863 0.43101245 0.33940715 0.4871754 0.5180644 0.3528656 0.46310788 0.57413995 0.58953094 0.21705611 0.6370938 0.63056314 0.32579607 0.38866252 0.4521629 0.44957548 0.37793997 0.49647707 0.48281118 0.62269926 0.55580175 0.5140597 0.4596192 0.6654339 0.36127502 0.6990651 0.7007433 0.37101862 0.38793164 0.34132993 0.6916479 0.36063015 0.32799202 0.62792504 0.22598162 0.48110548 0.36442602 0.29255456 0.37965205 0.028366245 0.12499761 0.41657436 0.41127506 0.3719857 0.30387938 0.39712185 -0.085989505 0.24601498 -0.10837654 0.20229335 0.07784182 -0.14761576 0.31874278 0.19783258 0.4831937 0.5735729 0.49730402 0.6079875 0.50629044 0.630834 0.5036882 0.61023676 0.51334184 0.59836066 0.5444581 0.3991298 0.23024821 0.39437455 0.2986952 0.46859968 0.36833197 0.43046016 0.44764182 0.50509053 0.2694028 0.5962983 0.6613556 0.6867925 0.6767565 0.6147658 0.34204072 0.70385766 0.39353764 0.4554773 0.39300188 0.5136721 0.50169194 0.5003869 0.45605636 0.5419855 0.5301592 0.5176441 0.6338891 0.61682546 0.5644065 0.46731618 0.35490042 0.6066274 0.64687455 0.2939936 0.6382746 0.6329879 0.039604887 0.17127132 0.24318255 0.26411095 0.63068974 0.20404553 0.120972596 0.5560744 0.52499914 0.18656391 0.45132577 0.43252376 0.5856318 0.63431036 0.36575496 0.58911943 0.41559765 0.42694193 0.5021226 0.40247557 0.41766244 0.415991 0.39735752 0.38246855 0.33224297 0.18165322 0.43186134 0.4280157 0.41021395 0.36596283 0.3223235 0.24031034 -0.15063997 -0.14500041 0.4315647 0.40474784 0.34479833 0.29942307 0.11947442 -0.21702611 0.40924495 0.33265346 -0.012618395 -0.034427382 0.11646728 -0.29826087 0.46725142 0.39081678 0.17610136 0.52631605 0.51018417 0.51366127 0.65035725 0.5274691 0.6603862 0.6299779 0.57209116 0.16866763 0.26222005 0.3853218 0.113213055 0.50434273 0.6626401 0.7071511 0.7161746 0.71997744 0.6991664 0.48060519 0.4714327 0.53987384 0.57055205 0.5831679 0.56191504 0.53310615 0.48111805 0.5696778 0.5486892 0.6140168 0.6378906 0.6232245 0.44128364 0.6074065 0.61775523 0.56004584 0.5733157 0.050160673 -0.010057701 0.090242475 0.18885915 0.41675442 0.52645576 0.55577075 0.6298108 0.6491846 0.15300931 0.637699 0.1997501 0.61893016 0.6096135 0.32252514 0.28668633 0.58408755 0.57930326 0.3383233 0.37552068 0.5572011 0.38201484 0.54353666 0.41120672 0.41993517 -0.0066512497 0.43257537 -0.2583681 0.43946305 0.43596628 -0.40217742 0.41461176 0.3942641 0.35028684 0.18751127 0.03747417 -0.3574188 0.3755834 0.13090289 0.14947021 -0.3334763 -0.27629152 0.14568615 0.35262555 -0.24388131 0.46847034 0.5971501 0.6650983 0.63593364 0.57855964 0.50038826 0.6717212 0.50341874 0.3917402 0.1360678 0.54981834 0.43147057 0.486372 0.5334986 0.350396 -0.010116115 0.12838878 0.54400057 0.16245194 0.02644582 0.059071645 0.6414716 0.64680207 0.40530264 0.48570678 0.5283451 0.68957555 0.6554297 0.5295327 0.32560357 0.5299492 0.7065871 0.6733531 0.5457389 0.507546 0.5380962 0.5493355 0.54058707 0.54828674 0.5102167 0.5368715 0.5599249 0.5628944 0.56681204 0.5506177 0.5827073 0.6012112 0.5397264 -0.043311812 -0.07337174 0.47975397 -0.094386324 0.38055837 0.10144498 0.40820616 0.5212905 0.6492406 0.6548406 0.27569258 0.26379916 0.64113283 0.63355863 0.26386854 0.26150542 0.62682056 0.6212697 0.261473 0.2726704 0.5989697 0.58893585 0.271738 0.57245934 0.5752233 0.56401736 0.31316862 0.500092 0.423821 -0.3529237 -0.21026942 0.44408798 0.4436038 -0.4324332 0.3894447 -0.40840563 0.48484328 0.34267473 -0.35024178 0.5905282 0.59430283 0.56973296 0.13255632 -0.29002056 -0.26338562 0.6504647 0.65402484 0.6289937 0.38795027 0.5728347 0.41796184 0.61224055 0.5992496 0.65365016 0.55646026 0.49235517 0.7191813 -0.16321579 0.66076887 0.44020593 0.5943772 0.6056316 0.33675796 0.33702302 0.38365176 0.5047786 0.48998868 0.4286077 0.38592166 0.27092436 0.56598336 0.5726953 0.49256977 0.4345581 0.6352412 0.624523 0.56003773 0.44163418 0.49913326 0.47811598 0.52342165 0.5294043 0.527024 0.5730065 0.53038126 0.5560707 -0.122384086 -0.13104963 0.023214428 0.4820963 0.46806502 0.11254467 0.15068424 0.29224187 0.38378662 0.46803808 0.26945162 0.37690377 -0.010719091 0.5333432 0.6418334 0.2876794 0.60353935 0.6399956 0.25116736 0.6176871 0.21905454 0.59324074 0.5824497 0.17623946 0.57592297 0.5765524 0.1468355 0.5302836 0.5650733 0.2073184 0.37295255 0.51754075 0.42199433 0.023261666 0.59081364 0.6199163 0.31871313 0.072264984 0.18784663 -0.2644704 -0.27290672 0.6768081 0.66272545 0.63828504 0.56779194 0.2326005 0.07126914 -0.11076059 0.20411329 0.64984965 0.6402153 0.38730517 0.335516 0.16806208 0.7154919 0.45782816 0.22229482 -0.036726505 0.7104672 0.7608381 0.79553497 0.12851354 0.14726077 0.037117686 0.11552967 0.71603316 0.74991876 0.16480678 0.2374565 0.23146772 0.3608583 0.6135905 0.66503954 0.3558072 0.28351867 0.17097846 0.50661486 0.5548742 0.62841165 0.37759346 0.36353156 0.29684094 0.11159777 0.101843946 0.19820863 0.1617504 0.29606056 0.04652802 0.1478167 0.17408267 0.165658 0.24410796 0.1791699 0.27707905 0.5284722 0.24550167 0.18071142 0.41647792 0.556166 0.15485397 0.53157055 0.081650145 0.5738765 0.47515535 0.14582619 0.048981857 0.29732916 0.3870795 -0.032304917 0.0006512217 0.51990074 -0.021839812 0.55660903 0.5854948 0.08048439 0.14765264 0.14489083 -0.007398516 -0.041988373 -0.08308735 -0.124989316 -0.19867153 0.6174706 0.6617365 0.57369065 0.5172926 -0.0794203 0.62930703 0.59070694 0.04942228 0.62909275 0.7455631 0.77436423 0.1495145 0.8016023 0.15871626 0.8572365 0.17081033 0.18212965 0.068132184 0.78573596 0.25022304 0.22358273 0.18383026 0.47807592 0.6010413 0.6843057 0.7238887 0.7525866 0.58734167 0.6466244 0.20140639 0.2458483 0.41729245 0.44492438 0.43719512 0.19007686 0.18602465 0.22077084 0.26414752 0.38224897 0.39355478 0.3921926 0.29952678 0.2883978 0.15222007 0.1649036 0.34752727 0.37100232 0.062829286 0.0015951172 0.02536814 0.013397053 0.15267822 -0.0090139955 0.2317791 0.08280403 0.16572157 0.0119713545 0.13004476 0.08063988 0.15041849 0.27627704 0.34643853 0.2543669 0.33477813 0.38244203 0.43577272 -0.03761767 -0.015185118 -0.01858449 0.03868108 0.12509458 0.09917061 -0.010217935 0.08428738 0.49104458 0.44577026 -0.004183829 -0.082198635 0.1041217 0.14142463 -0.16284886 0.49778715 0.50566214 0.40608788 0.5760295 0.52657473 0.71871984 0.7818543 0.26737458 0.8214748 0.8349376 0.28377223 0.09834925 0.017293878 0.87195134 0.31411773 0.3655223 0.4895359 0.8101404 0.82818794 0.47783813 0.64939976 0.71206295 0.7475046 0.76879615 0.37250605 0.46301317 0.4873838 0.48950142 0.47434533 0.19999167 0.3048356 0.4736539 0.453062 0.1978508 0.22785017 0.19271554 0.14238492 0.42863393 0.39636835 0.20740636 0.37338692 0.3100986 0.016552867 0.016724125 -0.0066310614 0.06661561 0.08824995 0.082638174 0.1327753 0.13311121 0.30718702 0.33094162 0.7162131 0.5443463 0.3242489 0.69609135 0.7598629 0.7068267 0.010165587 0.19482242 0.37338167 -0.12053077 0.11210329 0.07551332 0.04308869 0.010675065 0.18798482 0.30338573 0.09365118 0.13056284 0.30835402 0.32443142 0.38690174 0.45117623 0.250525 -0.014376074 0.30005068 0.311175 0.27294356 0.8031424 0.8737265 0.83850855 0.87066424 0.35435748 0.23897825 0.21394907 0.2354749 0.24690527 0.80407095 0.89237 0.874923 0.87757736 0.4074763 0.36575377 0.7690768 0.8347359 0.824177 0.8371451 0.6877025 0.768319 0.78556824 0.43055984 0.47000176 0.46178442 0.31463292 0.4239693 0.48378855 0.4750769 0.45560426 0.12796885 0.12886818 0.43517992 0.414958 0.13158828 0.17270276 0.35857648 0.32026476 0.27446222 0.3639595 0.27755082 -0.009812204 0.002176404 0.20933448 0.085198164 0.2995336 0.15365195 0.29426718 0.3043822 0.38142985 0.45833462 0.29578775 0.36494207 0.46470252 0.16498722 0.102180615 0.3302151 0.49546412 0.16449592 0.17211618 0.1087725 0.1794517 0.2528689 0.29006484 0.7690966 0.7107537 0.57190514 0.2783255 0.27564412 0.8281212 0.24069801 0.8222023 0.10458183 0.01412344 0.6075971 -0.15363602 -0.18062061 0.11607908 0.15984617 0.33772495 0.3393814 0.28768665 0.07980978 -0.011192825 -0.15263969 0.17707348 0.42738336 0.27470732 0.33195108 0.327001 0.18588367 0.07983969 0.5656015 0.45004812 0.19430485 0.5875987 0.26665342 0.49708807 0.3188862 0.2801753 0.27665886 0.31287622 0.29414433 0.4421196 0.072815694 0.15368512 0.33244032 0.36524335 0.065821916 0.053580794 0.41650718 0.15580818 0.03129221 0.081589475 0.26146713 0.48178032 0.41369075 0.41929394 0.11391749 0.22808677 0.37599856 0.12530103 0.22024584 0.13909638 0.08941506 0.35591936 0.43756777 0.11886529 0.09439004 0.449564 0.5373433 0.53734046 0.5189047 0.022445735 0.08979947 0.59498405 0.4925705 0.22604229 0.7412827 0.6673627 0.21931669 0.79466426 0.052799102 0.13521013 0.7973435 -0.20023341 0.104785465 0.67115337 0.5609356 -0.14825201 0.2926951 0.30706018 0.4392869 0.30144975 0.27814347 0.21851666 0.12849402 0.14799741 0.45563737 0.26894307 0.2764267 0.28121912 0.2464962 0.22065875 0.1289852 0.56556404 0.28342882 0.51903045 0.5822116 0.26355717 0.29973987 0.40667278 0.44182733 0.38858658 0.3175727 0.26704443 0.46921423 0.089843355 0.092598796 0.227027 0.30635196 0.28407732 0.37392557 0.027966911 0.058470625 0.33096513 0.47078985 0.41859645 0.30942553 0.29696608 0.47491562 0.48833507 0.21067756 0.4133767 0.345778 -0.13543364 0.06864433 0.23038185 0.35854548 0.4040709 0.48213154 0.5786783 0.09085762 0.074719645 0.5750757 0.5991914 0.08692968 0.5418515 0.56653994 0.015105392 0.51503456 0.54584104 -0.025694903 0.4395395 0.556408 0.4686159 0.4419266 0.10692283 0.054775976 0.6784726 0.626488 0.04707469 0.6853076 0.035686467 0.7087394 -0.08977133 0.65549755 0.61417997 -0.15715256 0.3501621 0.3593452 0.29347718 0.015996404 0.4196198 0.42577028 0.45164186 0.2542692 0.15861073 0.22563592 0.24602732 0.18727964 0.27767166 0.29856682 0.2950583 0.11477674 0.15553334 0.2606978 0.27707723 0.35069245 0.53937393 0.5047318 0.45637012 0.1940599 0.43392327 0.47875804 0.4302634 0.3944196 0.12604246 0.17990446 0.21867414 0.36928338 0.4126889 0.3305937 0.33174223 0.46541262 0.43988943 0.29779965 0.4656048 0.24546708 0.4144792 0.3231725 -0.2924625 0.22862889 0.47603697 0.5047489 0.064070374 0.55230546 0.6233142 0.6204415 0.65947956 0.037950773 0.5924588 0.5359211 0.5668652 -0.08460133 -0.28631428 -0.33961493 0.5371262 0.50890577 0.5757716 0.6464641 0.6004249 0.65826464 0.61134225 0.040171698 0.60337704 0.47799566 0.24970475 -0.22178897 -0.08269526 0.08550596 0.29953387 0.18148531 0.018890433 0.10098281 0.14210488 0.07151858 -0.022977732 0.27115947 0.19922163 0.3113327 0.24724096 0.16346397 0.1352281 0.35999617 0.35218173 0.3174662 0.21137373 0.5590975 0.4617005 0.45108163 0.4181974 0.3287205 0.4098878 -0.11534395 0.23766069 0.3661254 0.335752 -0.14235441 0.31615433 0.38481283 0.26912326 0.31762868 0.4334606 0.25322348 0.4276687 0.078194916 0.37064958 0.00977549 0.27492875 0.17834224 0.23337874 0.4341054 0.004031725 0.7114483 -0.07733055 0.72214687 0.6589505 -0.049448907 0.5442953 0.6004287 0.2657823 0.482354 0.03605455 -0.029442014 -0.24649718 0.4628518 0.05378205 0.54060155 0.5341143 0.09429957 0.544069 0.4941874 0.10973892 -0.21145996 0.3280273 0.2568109 -0.12104617 0.38256398 0.70460016 0.7566953 0.25381118 0.29488775 -0.28731567 -0.12453769 0.66651124 0.84521365 0.80109453 0.32822967 0.22825158 0.1535911 0.21154284 0.23332578 0.18559194 0.40143985 0.81515455 0.8497913 0.3737005 0.3955074 0.36459827 0.29470593 0.617054 0.622432 0.70654035 0.7201351 0.6224817 0.488518 0.32001767 0.4488087 0.45810336 0.45924482 0.13102552 -0.18264562 0.29620922 0.38209888 0.4038208 0.33602977 0.39534914 0.4199527 0.47899067 0.4140955 0.35167503 0.06868407 -0.36361748 0.34772265 0.09155437 0.07761535 0.23719914 0.39895126 0.5769782 0.6689186 -0.08522344 0.7023994 -0.061259817 0.5911023 0.64416564 0.56621855 0.23890698 0.11586735 0.22164342 0.18180186 0.025948146 0.037268862 -0.02091242 0.056972384 0.08387203 0.07460935 0.2342572 0.39440548 0.40307236 0.4102729 0.3581257 -0.3212349 0.4819805 0.382914 0.29838774 0.6884798 0.7136622 -0.1332201 0.29898125 -0.22506589 0.1624042 0.7730367 0.39181203 0.10297952 0.47037137 0.36637685 0.4052015 0.33903277 0.8055346 0.78316474 0.3960836 0.38586664 0.3816358 0.3202568 0.168737 0.21359462 0.5969435 0.49880362 0.50638795 0.69736874 0.7238407 0.62104654 0.56211454 0.74275035 0.75830555 0.7219695 0.62418985 0.534012 0.60472226 0.6881411 0.6177547 0.7071915 0.6560566 0.6073586 0.56157243 0.6369275 0.6200934 0.5710007 0.45046073 0.48212326 0.44204378 0.028728887 0.5299315 0.3815877 -0.23813072 0.45711666 0.36287665 -0.33691207 -0.13628045 0.34147283 0.04986526 0.24633417 0.29780254 0.1929398 0.4624587 0.4672358 0.34847325 0.50417817 0.5254767 0.40200907 0.40649965 0.52781165 0.55791575 0.3459131 0.16755474 0.5352421 0.2850594 0.22262762 -0.40161318 0.11123136 -0.39437062 -0.2637584 0.23283055 0.13652307 -0.016805224 0.47225875 0.5255999 -0.05443085 0.5015204 0.27947387 0.38189897 0.20965336 0.4359938 0.16451332 0.41623208 0.42330003 0.3488264 0.39770246 0.30832076 0.431001 0.42593485 0.42991638 0.47413445 0.41922444 0.41518414 -0.33491144 0.6506139 0.3925789 0.70324033 0.4045155 0.67546487 0.41009688 0.40121463 0.19462433 0.4403199 0.44898978 0.62071866 0.40154666 0.47597787 0.4872742 0.4652706 0.6783935 0.38798887 0.5496588 0.54119873 0.5439057 0.71835357 0.4790547 0.7038784 0.66737145 0.5364598 0.7023712 0.6308534 0.5916941 0.72937834 0.6935028 0.6082638 0.5826482 0.5527233 0.73626876 0.7383045 0.5540786 0.6827371 0.46475542 0.48602384 0.57837903 0.17149669 0.524236 0.4716437 0.04879829 0.20708251 0.035032656 0.1428281 0.19732809 0.38182208 0.48500746 -0.043331243 0.27061877 0.34084097 0.2672971 0.30587572 0.46551782 0.41868198 0.36325318 0.52198404 0.42472106 0.5638566 0.38060552 0.5926287 0.29517782 0.15004039 0.09603387 -0.31239468 0.2184081 0.08885059 0.274027 0.25551665 0.42781973 0.37363175 0.25405517 0.47207415 0.4534542 0.20623952 0.45176247 0.46430123 -0.068248525 0.049090505 0.46109617 -0.09433022 0.45281643 0.45246166 -0.14722383 0.41517556 0.40801027 0.3904946 0.38839555 0.11598671 0.41781116 0.4014687 0.29855263 0.27265206 0.29920977 0.4866556 0.5569196 0.40221983 0.56319153 0.41126415 0.41896132 0.5607913 0.27415004 0.38363302 0.43374097 0.47018826 0.27132356 0.27267262 0.24271385 0.22042446 0.51257116 0.5784595 0.5719774 0.55240166 0.5178555 0.6198805 0.35762215 0.32210195 0.5677724 0.55966806 0.64218384 0.53465897 0.41464674 0.3742234 0.720502 0.70807403 0.6543164 0.61577463 0.5873353 0.72342896 0.72173977 0.5639961 0.51289237 0.7047119 0.6653874 0.3297161 0.6168508 0.48051447 0.3598134 0.49689275 0.2600917 0.3241164 0.105148464 0.23901689 0.28059804 0.3024317 0.15907472 0.28788656 0.28521514 0.46438766 0.36327803 0.32564652 0.4909585 0.42380708 0.51277936 0.40876082 0.39952564 0.53589493 0.30272627 0.30069262 0.16922256 0.13863145 0.13635768 -0.28670812 0.15591465 0.15486413 0.19593751 0.2803418 0.31862345 0.44194436 0.43267024 0.34190315 0.46046185 0.45482507 -0.0038700998 0.8218608 0.8303146 0.4591462 0.45570827 -0.20149164 0.84494734 0.8558738 0.85463166 0.4585231 -0.20154293 -0.24065928 -0.14017652 0.0051366184 0.8654479 0.8507379 0.4691343 0.4529137 -0.33280975 0.3922779 0.34097463 -0.25507748 0.30821598 0.2637898 0.07784552 0.081791 -0.065550946 0.14116742 0.2405792 0.3591004 0.38579223 0.4075622 -0.2564236 0.4166053 -0.028606746 0.45426932 0.33091682 0.42854542 0.46175063 0.43533912 0.2694786 0.24002439 0.48726326 0.56626546 0.5405621 0.5225832 0.5231312 0.32988262 0.3186832 0.58959424 0.5783952 0.5592565 0.48497647 0.