# vtk DataFile Version 2.0
Really cool data
ASCII
DATASET POLYDATA
POINTS 10404 float
-12.909678 25.11174 17.923174
-12.888755 24.896505 18.588861
-12.956175 25.098513 18.942879
-12.964654 25.552866 17.72238
-13.224039 25.645807 18.387604
-13.040378 25.5919 19.154783
-12.776945 26.312168 17.344986
-12.949009 26.356602 17.70973
-13.233055 26.329544 18.475813
-13.086076 26.368744 19.15154
-12.727956 27.33253 17.600323
-12.956007 27.458448 18.40123
-12.593259 27.82792 21.764788
-12.564644 27.673841 22.081587
-12.670986 27.968998 18.056976
-12.762177 27.953798 18.504356
-12.584778 28.445559 21.64724
-12.565746 28.076523 22.218824
-11.722584 24.342907 17.502132
-12.537236 24.88826 17.641449
-12.453967 24.561697 18.633503
-12.484267 24.80508 19.103342
-12.49866 25.578362 17.189474
-12.681507 25.417364 19.541126
-12.366904 26.475685 17.060349
-12.13617 26.990452 21.544384
-12.031663 26.948198 22.326275
-12.137289 27.377249 17.126234
-12.575761 27.376595 17.40426
-12.36428 27.639181 20.830013
-12.333887 27.618883 22.483429
-11.943304 27.672564 23.002167
-12.025501 27.82743 17.21262
-12.32792 28.188393 17.829966
-12.436384 28.298496 18.161848
-12.253169 28.607422 20.217373
-12.495789 28.756119 21.56289
-12.371866 28.397322 22.416594
-11.988725 28.310596 22.901876
-12.106181 28.587048 18.09092
-11.991838 28.5973 18.456902
-12.117565 29.253809 20.820766
-12.1558895 29.278503 21.522583
-12.054351 29.0458 22.319653
-11.822712 28.845324 22.695175
-11.763143 29.63864 20.919407
-11.843087 29.640265 21.44368
-10.801077 23.608637 16.932789
-11.601728 24.180162 17.796797
-11.585823 24.210081 18.415386
-10.993259 24.841621 16.047007
-11.340076 24.822624 16.474903
-11.77547 24.82178 19.367039
-11.11142 24.925257 19.93353
-10.950447 25.35499 15.934517
-11.535958 25.166891 16.53469
-11.147095 25.729376 20.57416
-10.873195 25.692904 22.175503
-10.897495 26.006044 23.128138
-11.135015 26.171326 16.27307
-11.358838 26.33544 16.584908
-11.57078 26.407015 22.285458
-11.05618 26.51592 23.245195
-11.532223 27.379942 16.805637
-11.41057 27.495523 23.284575
-11.589727 27.887617 17.107601
-11.647302 28.272432 17.49693
-11.544962 28.396053 23.113354
-11.320963 28.623371 17.998941
-11.567502 28.751774 18.445389
-11.352735 29.219837 20.059948
-11.678015 29.547787 20.493269
-11.50628 29.299936 22.512325
-11.472125 28.917324 22.82538
-11.514077 29.731241 20.898851
-11.374543 29.829773 21.495836
-11.383895 29.740063 21.974716
-9.757807 19.155378 17.85375
-9.8559885 19.120909 18.569738
-9.764588 19.154863 19.006533
-9.799516 19.79003 17.072271
-10.096357 19.748215 17.731901
-10.1155815 19.541954 18.547855
-9.891288 19.548159 19.25299
-9.9156065 20.532797 16.857721
-10.210114 20.520018 17.506933
-10.331845 20.328135 18.437513
-10.1073675 20.564495 19.450706
-9.993752 21.093496 19.831593
-10.259488 21.377909 17.845638
-10.325324 21.400574 18.2547
-10.325271 21.62899 19.357622
-9.855447 21.544966 20.109493
-10.246956 23.134226 16.970785
-10.614064 23.200628 17.24556
-10.358229 22.687954 18.456013
-10.150387 23.534765 15.968512
-10.534148 23.497292 16.693422
-10.042629 24.70707 15.395415
-10.4603615 24.71731 15.704848
-10.085605 24.658758 20.429256
-9.86944 25.25055 22.627476
-9.923682 25.513397 15.388258
-10.358074 25.373833 15.6329155
-10.407643 25.884663 23.461338
-10.078102 25.99946 23.735283
-10.336491 25.874949 15.726867
-10.413592 26.510046 23.75232
-10.328117 26.955988 16.342674
-10.5944 27.325777 16.663084
-10.201374 27.253643 23.78115
-10.855269 27.87094 17.08108
-10.438351 28.224173 17.847052
-10.776484 28.521091 18.66692
-10.527131 28.317694 23.374779
-10.64131 27.891308 23.602835
-10.825384 29.461893 22.55839
-10.719289 29.209358 22.836494
-10.524655 29.931612 20.581738
-10.389919 29.995367 21.453619
-10.549678 29.64683 22.250013
-8.910312 19.091911 16.719854
-9.12409 18.747929 17.62351
-9.526155 18.791853 18.495018
-9.239596 18.84124 19.262447
-8.7625265 19.457657 16.504791
-9.5852785 19.328592 19.44859
-9.218222 19.796432 19.933474
-9.533844 20.611216 20.118168
-8.93076 21.34353 15.86937
-9.433693 21.304253 16.48258
-9.534887 21.756548 20.343027
-9.084565 21.257145 20.723097
-8.736933 22.547808 21.562012
-9.236137 23.590101 15.332931
-9.479226 23.488295 15.467508
-9.603064 23.91651 19.961868
-8.828545 23.607357 22.442553
-9.3077755 24.318363 20.337059
-8.772347 24.23851 23.555374
-9.580103 25.388565 15.347764
-9.504263 25.944077 23.806171
-9.646931 26.00767 15.670686
-9.638836 26.48973 23.930063
-9.495779 26.835669 16.102228
-9.601181 27.365124 23.886086
-9.329302 28.05059 17.956532
-9.464228 28.095325 23.497015
-9.625609 28.340025 23.598858
-9.350562 29.111296 19.15544
-9.501043 29.549055 19.516136
-9.524249 29.882362 19.889116
-9.2731905 30.238924 20.672644
-9.561839 29.770584 22.07237
-7.6630363 13.131445 9.0524235
-7.66301 12.994681 9.449967
-7.645517 13.010661 10.193958
-7.7162137 13.592365 8.758919
-7.8554153 13.530831 9.447275
-7.729683 13.523048 10.300309
-7.588817 14.529841 7.896324
-7.7010775 14.456223 8.363402
-7.8293457 14.48564 9.455746
-7.7246413 14.253568 10.370941
-7.5646133 14.953927 7.8697286
-7.6793423 15.014388 8.448429
-7.657482 15.067663 9.483145
-7.551837 16.055511 13.963804
-7.6395397 16.034403 14.300999
-7.5865345 16.453747 13.417431
-7.6911907 16.42863 14.273028
-7.624131 17.292255 13.900477
-8.595863 18.256172 18.45295
-8.023332 18.140018 19.399822
-7.727133 18.110748 19.975504
-7.744439 18.564425 16.189566
-8.448509 18.619492 16.954702
-8.710274 18.463428 17.729464
-8.200652 18.673035 20.042841
-8.120734 20.078066 15.099353
-8.48963 19.340458 20.127258
-7.6280766 20.823782 12.175971
-7.6477714 20.662271 12.301905
-7.846282 20.978474 13.276346
-8.205569 20.406769 14.926445
-7.6691866 21.360548 12.144386
-7.8947444 21.53493 12.950795
-8.059859 21.374903 13.937823
-8.331849 21.667864 14.403081
-7.907562 21.391602 22.011072
-7.9096885 22.375763 12.841481
-8.145412 22.84212 23.460335
-7.724367 22.802292 23.930342
-7.7665763 23.113245 12.981065
-7.9787264 23.385422 13.355322
-8.532269 23.039986 14.483561
-8.112089 23.783724 24.2998
-8.442706 24.736835 14.774198
-8.139905 24.292889 24.318882
-7.8593435 24.195911 24.654837
-8.301747 25.394577 15.076657
-8.408112 25.868366 15.215523
-8.593215 26.404215 15.580227
-8.444971 26.674494 23.820713
-8.501663 26.814281 15.873111
-8.789737 27.077463 16.45103
-8.779992 27.69851 23.790567
-8.717561 28.439436 23.398388
-8.627209 29.583662 22.907787
-8.11317 29.08545 23.666157
-8.592104 30.003958 19.878454
-8.553989 30.313194 20.912601
-8.765157 30.222042 21.394838
-8.834891 30.053495 22.114346
-7.0339966 12.318041 9.708477
-6.845619 12.225364 10.251044
-7.0724087 13.272038 7.873949
-7.2470903 12.899986 8.688551
-7.4132047 12.649172 9.536567
-7.374822 12.714197 10.248423
-7.041456 13.135215 11.336269
-6.9334254 13.901915 7.161652
-7.3265696 13.817041 7.7259026
-7.4864874 13.366238 8.502413
-7.380636 13.503012 11.076312
-7.0409408 14.580074 7.0244546
-7.4308834 14.379318 7.58718
-7.4535837 14.111023 10.937986
-6.93704 14.635177 12.136635
-7.040925 15.223229 13.874366
-6.9737096 15.304638 14.8977785
-6.933399 15.260817 7.1030817
-7.3209186 15.191498 7.604144
-7.4534225 15.314181 8.516987
-7.4015164 15.450173 11.090099
-7.162927 15.5459175 12.5892515
-7.3888836 15.645264 13.554683
-7.2735786 16.09418 15.316743
-6.65154 16.060986 16.251425
-6.898028 15.864385 7.673632
-6.880317 16.056677 8.404552
-7.171303 16.165823 9.823372
-7.424987 16.903177 13.336467
-7.2627106 16.480762 15.434052
-7.057517 17.018032 15.829342
-7.147332 17.399656 18.630821
-6.7815027 17.188328 19.56987
-6.7648983 17.185884 20.130253
-6.9803114 17.200445 11.833996
-7.163735 17.618984 12.61527
-7.4204106 17.229952 13.277688
-7.0482836 17.576586 18.814232
-7.1460133 17.580143 19.759747
-7.2361903 17.857922 20.337646
-6.7607346 17.393635 20.970762
-6.8981395 18.926199 12.546919
-7.072716 18.128437 13.178886
-7.272425 18.474539 14.108463
-7.6241107 19.07535 15.759408
-7.2260947 18.797354 20.987038
-7.4258013 19.797373 14.1680565
-6.769482 19.319767 21.652693
-6.5480237 19.498379 22.467388
-7.33614 20.628689 11.881902
-7.5428934 20.26093 12.433559
-7.554058 20.757193 21.407059
-7.155377 20.920948 22.198046
-7.287707 21.462223 11.748407
-7.289755 21.511837 22.790882
-7.313766 21.743292 23.371632
-7.5601263 22.277496 12.245333
-7.502971 22.759022 12.384418
-7.3847413 22.820856 24.429789
-7.0830145 23.028673 24.72444
-7.633918 23.272882 24.493666
-7.1163816 23.656145 24.94807
-7.1432524 24.045315 13.103663
-7.2365704 24.269812 24.904905
-7.8220315 25.524221 14.983516
-7.3740706 25.057068 24.555342
-7.2329545 26.759672 23.938063
-7.265762 27.37851 16.832644
-7.755458 27.52392 23.881058
-7.4565163 28.514212 18.605255
-7.416591 28.407103 24.006248
-7.2756634 28.998571 18.9159
-7.2701874 29.402725 23.754341
-7.5882106 29.949696 19.727644
-7.773963 30.297985 20.560957
-7.6337395 30.404078 21.228281
-7.3520765 30.093943 23.22831
-7.475627 30.524632 21.248611
-7.245423 30.545752 22.4952
-5.627094 9.940416 11.55397
-5.7334905 9.93297 12.598584
-5.769363 9.857037 13.537186
-5.694811 9.930394 14.250647
-5.8416915 10.280305 11.879974
-5.9775085 10.412278 12.704311
-5.9723096 10.49793 13.57547
-5.715823 10.734963 14.505304
-6.690315 12.376101 9.136691
-6.5174494 12.140665 9.614814
-6.6573734 12.232113 10.043375
-6.161228 11.321109 11.762649
-6.1488795 11.402505 12.43273
-6.0464954 11.3715315 13.593469
-5.8752604 13.204661 7.041161
-6.354506 12.96205 7.809393
-6.5194488 12.51463 8.590778
-6.2467356 12.717443 12.036657
-6.067006 12.393614 13.483873
-6.189895 13.731229 6.839925
-6.5964994 13.418943 7.3606014
-5.7574296 13.526668 14.584768
-6.463428 14.647075 6.6915975
-6.495179 14.383814 13.665529
-6.543872 14.910273 14.101276
-6.16745 15.077156 15.673274
-5.789652 14.834398 16.495413
-5.913999 14.685226 17.550426
-5.935589 14.82833 18.47414
-5.662159 14.283837 19.428799
-5.7678733 15.019585 20.274752
-5.6808453 14.910912 21.140291
-6.3523006 15.335685 6.841391
-6.5594373 15.286636 15.412339
-6.1523867 16.055351 16.540543
[...]
POINT_DATA 10404
SCALARS features_00 float 1
LOOKUP_TABLE default
0.67897993 0.66656554 0.67301106 0.7026957 0.73312086 0.6911212 0.66050076 0.70935327 0.7602836 0.71032405 0.62782526 0.6338552 0.71384025 0.7145682 0.5887604 0.5552974 0.7341887 0.73554444 0.4918305 0.6251103 0.618955 0.5919003 0.6256884 0.57760763 0.59248686 0.592804 0.6510836 0.5771047 0.6118206 0.65107775 0.711972 0.6955203 0.5702869 0.5758197 0.5577679 0.56059206 0.7309076 0.735992 0.70907235 0.5413383 0.50119877 0.637588 0.7089881 0.7227539 0.70601034 0.61900395 0.67468655 0.30795905 0.47254974 0.49341565 0.40074378 0.44469 0.44437414 0.14088729 0.40557152 0.48262668 0.11590251 0.34461546 0.5306406 0.42880437 0.46479654 0.5405662 0.58973074 0.51659906 0.64639735 0.5396048 0.5392279 0.6674895 0.48202267 0.4651711 0.41838634 0.53271747 0.68071496 0.67283547 0.59206855 0.6336838 0.6546725 0.49701133 0.4921974 0.46210635 0.454112 0.51338744 0.5191109 0.4655299 0.38779372 0.46719116 0.5284797 0.46428102 0.38153255 0.37109601 0.42537433 0.40954927 0.27367604 0.17877956 0.18483055 0.17433792 0.30068892 0.2893427 0.3327257 0.36180034 -0.06617874 0.26013473 0.31312206 0.35277674 0.485894 0.46449083 0.34448388 0.5213391 0.34705135 0.40103343 0.47664937 0.46077648 0.38355693 0.35764068 0.52209985 0.5259648 0.60007787 0.5774105 0.4794922 0.5383379 0.57025814 0.33944926 0.43825108 0.45661354 0.3926015 0.28382522 0.42118365 0.35065034 0.33380616 0.09824129 0.17876178 0.169361 0.15080264 -0.008277 0.22102441 0.23173928 -0.08854611 0.13652372 -0.14313756 0.28533846 0.29080483 0.38484773 0.29057896 0.42862362 0.26997793 0.3978879 0.16834144 0.36324766 0.37810063 0.16760002 0.25250113 0.32466343 0.37968618 0.4708717 0.5636773 0.54946846 0.5186563 0.59387004 0.5728613 0.5180633 0.6503373 0.62284243 0.5708103 0.49507585 0.65438694 0.6132312 0.55226517 0.32931802 0.3298033 0.30157912 0.34398085 0.2733762 0.33838177 0.2022767 0.13701385 0.1029229 0.30898762 0.38111752 0.20621859 0.051455345 0.23973781 0.29208153 0.26566666 0.22015077 0.06305033 0.32911393 0.30579227 0.18708718 0.13748348 -0.0099567175 0.32147676 0.32850748 0.39977556 0.24928072 0.20284566 0.14775121 0.43968573 0.17280109 0.42924213 0.48019588 0.19546941 0.2123119 0.21688233 0.24343619 0.17709212 0.17968038 0.29930043 0.3157757 0.40522954 0.33601916 0.25449473 0.32215706 0.36446175 0.40326345 0.5025581 0.442622 0.56766844 0.53758025 0.53036606 0.50060993 0.29639477 0.647719 0.6274986 0.583275 0.37667155 0.70291984 0.6638714 0.38873878 0.102988526 0.24643604 0.19737837 0.6800606 0.6643793 0.59565127 0.32748583 0.20730093 0.28864574 0.22085175 0.022150286 0.6102965 0.533756 0.39826995 0.264442 0.21613507 0.108975455 0.044091262 0.040621582 0.06293204 0.11095339 0.1294789 0.22906181 0.058861554 0.08163716 0.0939157 0.109828144 -0.00079984963 0.10900329 0.020193692 0.05491127 0.08032651 -0.037590828 0.09039053 0.15715928 0.28635755 0.20080055 -0.08243836 -0.08883593 0.3253643 0.08233877 0.27269232 0.3319881 0.29918295 0.46830177 0.5137434 0.47386742 0.54270756 0.07668019 0.5400617 0.0877684 0.41313133 0.07093008 -0.14447422 0.22103104 -0.020633973 0.28368512 0.060375504 0.36084324 0.17968729 0.23435359 0.2594147 0.417283 0.248156 0.37131053 0.24424988 0.31832796 0.40311083 0.4380527 0.24250463 0.3111673 0.38317385 0.39222252 0.48551524 0.44332737 0.44453058 0.15395269 0.2236684 0.3100245 0.5244478 0.4929813 0.47203577 0.07737383 0.12276292 0.60546887 0.5677438 -0.11568535 0.68656707 0.07564398 0.16768269 0.0058956034 -0.06328588 -0.029172879 0.0017414149 0.11643122 0.15909451 0.20326728 0.6447135 0.09187578 -0.055492844 -0.07116924 -0.048998047 0.06546658 0.13768375 0.18089995 0.5941814 0.54403 0.48236412 -0.1725265 -0.04413931 0.08311568 0.16718449 0.21237388 0.3991225 0.2584501 0.08698411 0.17115802 0.22815599 0.30266213 -0.10368332 -0.07050158 0.18149918 0.2391449 0.31554216 0.36183262 0.2107878 0.053913835 0.29718226 0.35255677 0.23769316 0.26297295 0.26148385 0.51485085 0.5641775 0.12686959 0.6013043 0.026484946 0.58313787 0.019756436 0.036213554 0.38811707 0.5345701 0.18566482 0.21737108 0.061535206 0.3267095 0.3276457 0.28609705 0.108641565 0.23601834 0.33201396 0.29712898 0.16446008 0.13513121 0.06503718 0.3037956 0.051756613 0.33896092 0.025346935 0.11004831 0.36585265 0.361577 0.17154634 0.20675865 0.33548936 0.9337249 0.92302155 0.85743326 0.949526 0.9326242 0.8802222 0.9357505 0.9223896 0.8739003 0.6458945 0.66718936 0.25736496 0.2565527 0.25992593 0.31457746 0.3720762 0.3992139 0.6059148 0.6819091 0.69169366 0.24526215 0.2544622 0.24578798 0.32108745 0.4029598 0.43763274 0.4357681 0.5543909 0.6669473 0.6751877 0.05017063 0.2235887 0.34085417 0.4135935 0.6044493 0.60481155 0.29065716 0.3238508 -0.12539189 0.4929865 0.40463588 0.3608141 -0.04440963 -0.01910832 -0.0004213294 0.079863414 0.012951821 0.5429167 0.5416697 -0.066340804 0.021099804 0.16237436 0.56847644 -0.06545408 0.17801856 0.13092104 0.5471638 0.1802046 0.4755401 0.45518047 0.16258708 0.2003707 0.17612588 0.307147 0.3370418 0.10161485 -0.058171578 0.3684389 0.18354467 0.3728296 0.22935379 0.17680073 0.26341867 0.1672195 0.45234376 0.13097113 0.56023765 0.03901876 0.63800097 0.08520562 0.61156416 0.16712876 0.08517349 0.40483412 0.49966928 0.26880774 0.22793165 0.36751342 0.23936225 0.37712678 0.34267884 0.2843709 0.30453682 0.19958748 0.17194594 0.031171277 0.33637956 0.14379993 0.3508461 0.30962148 0.049127508 0.1868667 0.2446864 0.27969298 0.28169793 0.8524564 0.8685658 0.78352255 0.88112056 0.89755726 0.8844976 0.820013 0.76723003 0.9069926 0.93004394 0.8411591 0.79419696 0.89065385 0.9184522 0.89912677 0.83882797 0.79033184 0.8511046 0.86085296 0.8755766 0.8242471 0.73209333 0.7166439 0.77117205 0.75254977 0.45497012 0.60014856 0.66246396 0.68302906 0.5013163 0.64965826 0.71301734 0.70662665 0.43720073 0.6033244 0.6854468 0.6721609 0.32803884 0.5119757 0.53938985 0.5301119 0.12012035 0.20572156 0.37952995 0.11987792 0.122565076 0.55516243 0.16650125 0.1494358 0.20820971 0.4304089 0.5668502 0.62148094 0.6330519 0.5901856 0.23386106 0.22890791 0.3178159 0.3385651 0.373671 0.54407656 0.66473365 0.640012 0.16196728 0.20533292 0.38149312 0.040239334 0.27912816 0.6069056 0.035587087 0.17075157 0.2046782 -0.039751925 0.19720013 0.39298153 0.5406763 0.48823676 0.29386544 -0.13054961 -0.019507654 -0.00557746 0.4444046 0.3605444 0.50176954 0.45192522 0.4814687 0.044934433 -0.029977944 0.44201335 0.40605217 -0.020496592 0.4722226 0.39835596 0.05901075 -0.052339453 0.15310685 0.12613818 0.019692665 -0.14157052 0.3181692 0.0677658 -0.008158267 0.36711246 0.17812085 0.2863629 0.26801583 0.30826122 0.2374179 0.31235075 0.19701181 0.4770053 0.056927666 0.5472259 0.61818594 0.19867149 0.150614 0.3008456 0.41240412 0.40037817 0.20920002 0.42654708 0.36577678 0.26726055 0.33582908 0.2691409 0.21015365 0.25192901 0.18117069 0.15232225 0.012768671 0.030234307 0.028814007 0.18421416 0.32126468 0.21399947 0.3032543 0.32635123 0.7796619 0.7678696 0.74062896 0.7122502 0.62528014 0.79455566 0.82113683 0.6496308 0.81971276 0.7045357 0.8375863 0.6656575 0.7147663 0.6979656 0.6881844 0.7658889 0.80655426 0.7956629 0.7805078 0.6669713 0.77683306 0.7948705 0.7441299 0.7025841 0.873616 0.8886874 0.84656644 0.73721635 0.44495335 0.8402206 0.83404636 0.8088474 0.7355342 0.6092057 0.53599906 0.5161264 0.7241571 0.7165721 0.7210526 0.7139963 0.6804297 0.6144229 0.52020323 0.41430733 0.35915852 0.3093708 0.4950462 0.5580063 0.753126 0.7783965 0.7445129 0.7047548 0.53859484 0.47302654 0.3136461 0.38225687 0.48212773 0.6242552 0.6264528 0.7691757 0.79283786 0.7843449 0.53717506 0.52509695 0.4607521 0.35624987 0.65431595 0.4951567 0.35942507 0.57819223 0.5561062 0.18027236 0.47650608 0.41804025 0.09143638 0.09512642 0.26965848 0.10866965 0.09722158 0.11263536 0.11630106 -0.008091241 0.40901893 0.522607 0.46310455 0.17444825 0.13765876 0.07480048 0.2424593 0.33053982 0.4783389 0.5310836 0.5082851 0.13813591 0.29519516 0.1433526 0.5114737 0.12854123 -0.14341646 0.024369217 0.22959143 0.50645894 0.05458525 0.3867643 0.36327407 0.15746811 0.115452476 0.41645962 -0.0906516 0.0876335 0.19042398 0.37882468 0.057227813 0.21486907 0.3601041 0.34805378 0.09393771 0.26495588 0.43565485 0.5460312 0.2273966 0.3118419 0.5121405 0.59291077 0.14892054 0.47913253 0.5801839 0.03521904 -0.1385021 0.22259933 0.15389134 0.15371378 0.22659126 0.28147596 0.022229388 0.28920007 0.32188028 -0.1317606 0.30295175 0.2273493 -0.20505093 0.09936659 0.12350646 0.21097845 0.41596442 0.5088061 0.50224483 0.07482376 0.5637262 0.5566021 0.51691383 0.47214937 0.15927674 0.20464224 0.14657249 0.049427215 0.29643252 0.09063462 0.23300892 0.30099928 0.35609865 0.35290438 0.53969765 0.49989465 0.6802497 0.69497204 0.5945883 0.5355984 0.47197816 0.6920179 0.5406809 0.6671784 0.68996274 0.40144405 0.70998436 0.44065517 0.64609253 0.63135755 0.62590784 0.563442 0.6482685 0.6479353 0.57512164 0.28566784 0.7017501 0.62209743 0.53683925 0.40011308 0.37526524 0.71967494 0.64326954 0.57379 0.40265647 0.3877874 0.34646612 0.23814319 0.33979434 0.31193402 0.093358405 0.7140484 0.67692214 0.61740434 0.3378849 0.5253931 0.50749946 0.64097977 0.58313453 0.5983794 0.62072515 0.6321601 0.6024412 0.59626293 0.56200767 0.44489753 0.6988533 0.694649 0.6421508 0.6120474 0.572068 0.5614941 0.44244242 0.2514278 0.34401795 0.50733054 0.6415316 0.63786256 0.66698885 0.6814187 0.66961825 0.5656254 0.56133956 0.57883114 0.67823285 0.76083106 0.75271904 0.6249562 0.6328087 0.62823653 0.4995551 0.5043788 0.71207124 0.70037633 0.66641057 0.40138072 0.39653993 0.28416198 0.55201805 0.5644055 0.14349133 0.039502446 0.043094866 0.15799071 0.108183876 0.53709567 0.56004196 0.31737328 0.3073774 0.19256127 -0.008569062 0.006373957 0.222257 0.22021103 0.335268 0.30137515 0.30370748 0.34760645 0.37612617 0.7409824 0.359163 0.31880903 -0.17391591 0.03686588 0.33779788 0.16783515 0.16316086 0.35873836 0.7727281 0.75100243 0.32339674 0.26592195 0.2206421 -0.33204135 -0.36608946 0.034563553 0.15413591 0.76497066 0.15526827 -0.3739408 -0.2250559 0.23132798 -0.023139052 0.003041312 0.096507914 0.29546782 0.21547653 0.28523046 0.3648945 0.40267158 0.159785 0.17195208 0.53361696 0.5564728 0.19547412 0.62196475 0.25728154 0.15348673 0.5122011 0.56858176 0.26533055 0.18983379 0.05290917 0.3995248 0.42422184 0.4659307 0.2497655 0.17405932 0.040365353 0.004725341 0.15314808 -0.058550574 0.17008616 0.17279582 0.10718619 0.115784965 0.15712215 0.28964218 -0.21418118 0.15679532 0.07826132 0.1705701 0.19300659 0.26191297 0.08541548 0.54405475 0.032227647 0.5780685 0.63563085 0.1738503 0.6220918 0.5374806 0.26001474 0.1657798 0.28603816 0.2872487 0.30164656 0.25052533 0.32355794 0.3108046 0.5163568 0.4670328 0.36158627 0.47781575 0.43736124 0.41830242 0.58271205 0.54528433 0.4186045 0.42891982 0.43309456 0.6282579 0.58330846 0.2821262 0.167516 0.37312645 0.4134618 0.6093547 0.56837577 0.2075757 0.47369945 0.64241165 -0.05889815 0.03522897 0.10340476 0.08514344 0.50087965 0.5320132 0.5634288 0.5510385 0.47931004 0.568972 -0.0033525508 -0.07750196 0.0058723986 0.20609862 0.47923976 0.45966506 0.44033778 0.20734084 0.050014738 -0.0006963387 0.009309422 -0.23532292 0.49792686 0.4888323 0.38142598 0.39502835 0.26020455 0.4393419 0.5621356 0.51711315 0.37746233 0.35906464 0.33668187 0.29564682 0.41037554 0.49724573 0.51328254 0.5310951 0.6727079 0.5926024 0.52685165 0.49907598 0.53710115 0.41069284 0.31228453 0.26605743 0.14596125 0.4145499 0.6105108 0.5935357 0.54135793 0.5140437 0.39675683 0.076874085 0.24167559 0.30461633 0.41391236 0.4422844 0.6197549 0.47626433 0.53292733 0.44828534 0.4750796 0.4485426 0.48046672 0.5406921 0.5821657 0.5035473 0.3967682 0.37999082 0.5535203 0.5746731 0.6343181 0.49578053 0.41605243 0.4756771 0.2054748 0.31469962 0.5609025 0.55335796 0.13096106 0.104807615 0.45256764 0.5388194 0.5674922 0.5514353 0.5019342 0.04024005 0.20402423 0.049457394 0.15791512 0.15347996 0.2368207 0.32270804 0.40589565 0.44806063 0.41512203 0.5344903 0.5528301 0.5462826 0.5123319 0.63450813 0.61708033 0.5583879 0.2336366 0.18969071 0.15833959 0.19144846 0.19606157 0.17426422 0.16528091 0.34582663 0.4022409 0.4471185 0.45354152 0.503819 0.5199458 0.7474125 0.7070267 0.62154126 -0.43070847 -0.2657944 -0.075155795 0.38993958 0.41020185 0.6045824 0.54118717 0.81868565 0.8166996 0.7810648 0.69122875 -0.3534174 0.27348468 0.35320753 0.6427879 0.6672584 0.65359205 0.812134 0.80482113 0.7966561 0.72376955 0.5918386 0.20204772 0.14606969 -0.022790104 0.6611686 0.713735 0.7028674 0.63974774 0.77110845 0.76652586 0.67685413 -0.0029866323 0.7105417 0.15848862 0.034813575 0.13766816 0.19172306 0.24551015 0.17388797 0.36552304 0.14877608 0.42542726 0.43128592 0.24800575 0.56984097 0.3258267 0.5368053 0.3684079 0.3261935 0.30522692 0.32457986 0.3597413 0.31504104 0.24795768 0.09942058 0.291339 0.21049936 0.08982632 0.17670263 0.18907887 0.08233957 0.19063088 0.07846767 0.13716592 0.20355055 0.17510925 0.19886643 0.35546502 0.13493396 0.024600407 0.6664963 0.6949208 0.7027575 0.6221459 0.52508026 0.31098062 -0.120148405 0.13637291 0.15998313 0.5829242 0.39513847 0.02376569 0.24771565 0.2475998 0.30470264 0.48523736 0.31951508 0.31969127 0.54359645 0.530846 0.56175387 0.55916965 0.5268818 0.25258 0.1448656 0.08012516 0.56069297 0.52707064 0.4252779 0.42549682 0.39224714 0.3769801 0.49613667 0.51694447 0.46924028 0.45422137 0.43217635 0.27036628 0.452487 0.49479252 0.5054227 0.50812393 0.16406342 0.40156388 0.47845975 0.52984923 0.10169118 0.38507724 0.32694924 0.4146666 0.3986758 0.5959264 -0.036119677 0.02067599 0.20420523 -0.076192826 0.39608896 0.3944744 0.34625843 0.6200081 0.61174196 0.55450374 0.36993465 -0.07275999 0.4313879 0.27650255 0.57436323 0.5918875 0.554016 0.5083835 0.3564207 0.3011839 0.5421723 0.47743273 0.46449035 0.3208558 0.44463354 0.33551377 0.35428983 0.47914556 0.36068118 0.33104694 0.3418183 0.3517935 -0.13168308 0.39355838 0.29805088 0.49619433 0.35638666 0.60118747 0.6922894 0.71459085 0.3953008 0.44998243 0.19271612 0.060058422 -0.005999267 0.28958368 0.11666472 0.07852662 -0.07594076 -0.12809628 0.2169596 0.29721126 0.33408564 0.53584164 0.66612494 0.7426789 0.41240436 0.39506027 0.3010802 0.06836473 -0.012903854 0.3554207 0.2283785 0.43937215 0.595997 0.6932439 0.37294847 0.2727516 0.21260302 -0.03280072 0.08826034 0.10123459 0.32577544 0.035059243 0.4923035 0.5848477 0.28640395 0.25716043 0.32910448 0.35129464 0.02003812 0.16439511 0.15628742 0.28285497 0.09482629 0.25778592 0.22665392 0.09608129 0.12980023 0.18419084 0.12018916 -0.017478764 0.44555545 0.31581497 0.011714378 0.24384709 0.33049208 0.1690923 0.29052645 0.39253706 0.42073882 0.36615193 0.2627588 -0.016472735 0.063719936 -0.1479972 -0.24885279 0.08893531 0.04744643 0.028789017 0.13545178 0.3980843 0.3031101 0.46670032 0.5623733 0.490114 0.3830601 0.32100815 -0.15151328 0.36119485 0.39546087 0.4902388 0.75773907 0.7225874 0.3564915 0.28818753 0.5140942 0.47520325 0.33900547 0.4070487 0.7989565 0.11119322 0.21851236 0.2639372 0.24452026 0.50848484 0.5699116 0.56322956 0.77766824 0.78154266 -0.11395201 0.09634213 0.14209661 0.49155182 0.60558784 0.57228816 0.3850646 0.76012385 0.74918187 0.6829012 0.6267974 -0.0078741275 0.65413415 0.7213541 0.66467905 0.5573227 0.62812304 0.10920983 0.056961674 0.12424903 0.12419746 0.19120935 0.12035975 0.22261503 0.33830518 0.11257692 0.45408267 0.35036016 0.49293005 0.40577006 0.26259652 0.39762002 0.3475411 0.3789968 0.33533293 0.12605444 0.2082521 0.11774293 -0.15346523 0.07077527 0.085284434 0.110349655 0.18060242 0.13471961 0.21441688 0.16115244 0.20559345 0.5237677 0.18392351 -0.10995836 0.4364273 0.6546676 0.5680125 0.45192814 -0.024600066 0.21311626 0.29855448 0.51870006 0.6893845 0.62277514 -0.09277093 0.25704336 0.27843446 0.3097911 0.30673945 0.4591284 0.29793948 0.28661954 0.5590571 0.55142534 0.059056923 0.22724098 0.2867667 0.5691036 0.5672401 0.20150968 0.054142885 0.572581 0.5675849 0.54413223 0.4862942 0.32419625 0.38194638 0.36139816 0.3323741 0.28306305 0.38936722 0.50209486 0.54383063 0.4153881 0.38030502 0.50436515 0.4276476 0.23180693 0.4091857 0.18560427 -0.021532968 0.2529512 0.3137648 0.26191518 0.6340328 0.60770226 0.009606689 0.26780736 0.21126156 0.57061446 0.6083687 0.62622833 0.5754024 0.5572524 0.09666176 0.4925925 0.5305476 0.54155433 0.5172293 -0.03129116 0.22949556 0.10850724 0.1798699 0.21144009 0.22765493 0.42041412 0.48889625 0.4157893 0.29885203 0.18865718 0.06289573 0.26749122 0.22716375 0.238904 0.19881737 0.59101224 0.10285342 0.32493246 0.33089924 0.33474258 -0.058974758 0.016820058 0.18054163 0.31670523 0.6694062 0.70085835 0.7024699 0.10350712 0.327016 0.17997757 -0.15750381 -0.09569458 0.07747452 0.73819876 0.22732112 0.18458791 -0.005039908 0.029433709 -0.021125436 -0.17520571 0.18676855 0.76167315 0.23856938 0.097464874 0.06783439 -0.09231755 -0.060347088 0.052640177 0.108921684 0.63321483 0.19812547 0.09576028 -0.18154675 0.1717488 0.04084994 0.09155694 -0.023541912 0.09084283 0.3356058 0.13234973 0.03066925 -0.26739413 0.08741741 0.040773034 0.098858826 0.25557372 0.14135784 -0.05295992 0.031571507 -0.08804711 -0.04365345 0.030330881 -0.03286005 -0.05551249 0.018198326 0.34164917 0.41041458 0.39918703 0.28656188 0.056578524 -0.023501478 0.13332021 -0.19061661 0.16399764 0.18556143 0.045393586 0.5300355 0.5073651 0.220279 0.21153423 0.288618 0.26888505 0.27724823 0.09571447 0.34654832 0.6134951 0.24571833 0.25503418 0.34248608 0.32447597 0.27852303 0.1910786 0.24294627 0.27003565 0.67655146 0.17327273 0.044239152 0.29335576 0.19019952 0.1640647 0.7278906 -0.17375706 0.34579474 0.45284164 0.2904547 0.65350574 0.5497042 0.08613346 -0.14607835 0.34229758 0.5773069 0.65511084 0.5553868 0.45079118 0.34970897 0.17241362 0.17941307 0.1567722 -0.023952588 -0.37263656 -0.12132727 0.5842494 0.5495299 0.42301142 -0.19336969 -0.11203456 -0.19362518 -0.1767373 -0.016990615 0.06207727 0.26229128 0.21585733 0.34649438 0.3730265 0.16057615 0.2795526 0.35549617 0.05840211 0.07465792 0.2128091 0.18410215 0.053263232 0.09292665 0.06869557 -0.021433137 -0.11404422 0.41130412 0.18416636 0.02939576 0.025963068 0.43525237 0.3863828 -0.07601471 -0.100282565 0.18676193 0.5294392 0.51441336 0.44713295 0.2923647 -0.13049877 -0.187589 0.5542344 0.5217701 0.4528783 0.3460716 -0.31097546 -0.20179981 0.5740099 0.58752453 0.6010672 0.63876164 0.59672725 0.6532608 -0.24382272 0.515966 0.67394835 0.526746 0.34829777 0.36270157 0.23674686 0.2519689 0.56339085 0.56813407 0.23618023 0.23614702 0.5753012 0.56799877 -0.008457117 0.021182157 0.562567 0.5288945 0.4515326 0.3492029 0.31626245 0.18375295 0.11383373 0.40372714 0.41456705 0.37581378 0.34436724 0.34556383 0.3065777 0.21680796 0.36601272 0.107030615 -0.013795592 0.35080004 -0.11527754 0.07877714 0.20755735 0.19917618 0.20447275 0.20137659 0.56882584 0.6325475 0.6333524 0.21285954 0.16245684 0.5266733 0.57685757 0.5745326 0.23443082 0.2581131 0.30050787 0.4715644 0.5136784 0.07423677 0.25088492 0.28108826 0.36545047 0.15533231 0.27810287 0.6224772 0.6559429 0.14351168 0.18845773 0.3076425 0.67566 0.6899635 0.0032981634 0.2936828 0.2625468 -0.17018637 -0.4923064 -0.27524862 0.70821273 0.13941771 0.029879246 -0.2266897 0.1399173 -0.18179259 -0.22888882 0.6996119 0.014197521 -0.013359733 0.004876703 -0.0490119 -0.1497402 -0.12541656 -0.18235675 0.5324749 0.6394179 -0.0027189404 0.048792616 0.0035309494 -0.048165113 -0.11450687 -0.15540847 -0.100921825 -0.08094149 0.045003504 0.01971535 -0.014005845 -0.21415316 -0.4065234 -0.17479852 -0.14748526 -0.103266075 -0.08861743 0.22321546 0.21053356 0.14108588 -0.045736276 -0.09092687 -0.026843302 -0.05946014 -0.19763575 -0.20113549 -0.14279331 0.3671103 0.33482853 -0.28935716 -0.01850845 0.058026858 0.05686328 0.03776453 0.012721363 0.22448607 0.46414888 0.41726446 0.20030329 0.117091775 0.0067094937 0.28490445 0.2651182 0.50501424 0.19488725 0.32250023 0.21141031 0.25974125 0.57972145 0.011539949 -0.029155586 0.19436294 0.27630612 0.22200656 0.21679682 0.16825247 0.11882702 0.18445337 0.222325 0.6253582 -0.101405315 0.10329221 0.1887