# vtk DataFile Version 2.0
Really cool data
ASCII
DATASET POLYDATA
POINTS 8923 float
-26.584429 44.99225 -8.495588
-26.569345 45.04341 -7.6533766
-26.558012 45.64958 -8.894412
-26.643974 45.453793 -8.602688
-26.668062 45.717255 -7.896982
-26.557299 45.9369 -8.975144
-26.574305 45.972313 -8.343377
-26.703531 47.754887 -5.274562
-26.696978 47.798306 -4.5420847
-26.582075 47.74801 -4.0408893
-26.678095 48.59398 -5.960744
-26.768358 48.353107 -5.410723
-26.789083 48.454796 -4.730093
-26.61193 48.75511 -4.1536975
-26.62942 49.55562 -6.0473857
-26.70623 49.43261 -5.4051027
-26.705448 49.103046 -4.518591
-26.556343 50.345505 -5.5065093
-25.95664 44.280193 -9.014976
-25.93111 44.122025 -8.592933
-26.127396 44.305656 -7.612278
-26.128477 44.856716 -9.311573
-26.365032 44.645638 -8.544572
-26.336441 44.677055 -7.578874
-26.115707 44.800476 -6.824329
-25.678484 45.258385 -3.6577475
-25.996065 45.55228 -9.660713
-26.311592 45.530273 -9.344808
-26.443493 45.24358 -7.232149
-26.21073 45.184814 -6.837385
-25.913097 45.85539 -5.450786
-25.936728 45.759655 -3.3928
-25.803507 45.88048 -2.780741
-25.881582 46.130062 -9.637366
-26.136518 46.19014 -9.28895
-26.36188 46.621616 -8.367161
-26.190277 46.765068 -6.705494
-26.338717 46.840958 -5.8197107
-26.25594 46.442905 -4.266472
-26.275469 46.91704 -3.3795788
-26.0557 46.67767 -2.881259
-25.61015 46.297695 -2.1931956
-25.889109 46.9777 -9.034939
-25.98851 47.320568 -8.405584
-26.027582 47.87808 -6.998283
-26.246367 47.97093 -6.4139204
-26.501263 47.532806 -5.637459
-26.484077 47.229446 -4.5946774
-26.229815 47.846977 -3.4424374
-25.781887 47.310883 -2.4455132
-25.664341 47.34305 -2.1481886
-25.766008 48.42071 -7.824694
-26.08553 48.311207 -7.0483775
-26.559055 48.858246 -4.2501326
-26.342777 48.41908 -3.7125022
-25.873878 49.530624 -7.1043744
-26.35949 49.47238 -6.2963943
-26.56522 49.300236 -4.288034
-26.24727 49.31103 -3.8861732
-25.768127 48.966908 -3.0749733
-26.197107 50.546215 -6.4345837
-26.407976 50.44614 -5.5524344
-26.306456 50.373177 -4.747428
-25.917164 50.15515 -3.9113503
-25.741377 50.939217 -6.687499
-26.113705 51.016476 -6.1906686
-26.099699 51.120552 -5.641503
-25.853485 51.111084 -4.7721586
-24.737738 39.824966 -6.3254943
-24.846666 39.839565 -5.673608
-24.761017 39.815975 -4.689566
-24.890398 40.462368 -6.418871
-25.019897 40.560314 -5.5141373
-24.832445 40.30053 -4.3046618
-24.649006 40.482132 -3.812994
-25.021667 40.91746 -6.201364
-24.854994 41.303566 -5.7901654
-24.654848 41.384636 -4.44808
-25.12691 43.00533 0.7172869
-24.978642 43.09492 1.4841626
-25.127577 44.05619 -9.281756
-25.351513 43.77695 -8.743263
-25.443195 43.857662 -7.608168
-24.72093 44.228306 -5.7581987
-24.773998 44.31271 -3.7939394
-25.36736 43.671913 0.6416186
-25.262316 43.656475 1.3301947
-24.866507 43.717464 1.8532957
-25.571566 44.926888 -9.741359
-25.638733 44.525787 -9.508559
-25.661549 44.68539 -6.3661165
-25.10422 44.449287 -6.094338
-24.766668 44.627163 -4.450378
-25.228256 44.853302 -3.4487314
-25.40474 45.129364 -2.974746
-24.785213 44.49485 -0.4158101
-25.362812 44.2306 0.57543993
-25.238968 44.243805 1.2701769
-24.936592 44.168926 1.8042674
-25.39327 45.50562 -9.857872
-25.508614 45.542892 -2.5931692
-24.65437 44.84183 -0.3949994
-25.091925 44.842278 0.68600374
-24.95924 44.844078 1.2332054
-25.470589 46.21437 -9.735663
-25.677769 46.696598 -9.429488
-25.462034 46.450397 -1.9558975
-25.425035 46.856373 -9.410414
-25.429071 47.412964 -2.0844228
-24.97655 47.908493 -8.984715
-25.225958 48.457733 -8.3589115
-25.586924 48.204018 -2.731726
-24.829565 48.55264 -2.3342674
-25.194601 49.157734 -7.7243433
-25.290535 49.285 -2.8752418
-25.574514 50.514523 -6.9820724
-25.443016 50.1229 -3.5861294
-24.936405 51.375526 -6.991461
-25.354523 51.68669 -6.613374
-25.441402 51.44605 -4.726871
-25.156399 51.213837 -4.137758
-24.767193 52.05816 -6.7971525
-24.930498 52.43427 -6.269371
-25.078299 52.354984 -5.6491323
-25.104275 52.019173 -4.895427
-24.777912 52.683037 -6.027562
-24.773466 52.694855 -5.8107953
-23.800522 39.058014 -7.1942115
-24.05554 38.76832 -6.456237
-24.065369 38.61382 -5.6385436
-24.04101 38.731865 -4.31747
-24.059542 38.864906 -3.7731574
-24.045864 39.797413 -7.2615566
-24.437834 39.54582 -6.610565
-24.554737 39.370953 -5.466124
-24.366282 39.419353 -3.7526932
-24.105392 39.76906 -2.9729967
-23.626015 40.102463 2.730803
-23.57001 39.86884 3.7566876
-23.612713 39.75731 4.5628576
-23.558289 39.52791 5.160156
-24.404829 40.42893 -7.02531
-24.514072 40.395317 -3.4245627
-24.308714 40.084053 -3.1717882
-23.680777 40.581123 2.426103
-23.62292 40.361637 4.3062725
-23.561195 40.20572 5.312872
-23.87622 41.154728 -7.2502685
-24.29779 41.786846 -3.3294287
-23.965536 41.604053 -2.8519611
-23.983658 41.920776 -0.41392052
-23.939268 41.874195 1.3927556
-23.587618 41.495686 2.2424743
-23.901932 41.956146 -6.8284388
-24.030632 42.37321 -4.468333
-24.090229 41.919212 -3.0308032
-23.98258 42.472866 -1.0973629
-24.410215 42.293854 -0.136963
-24.408056 44.025326 -9.32214
-24.728039 43.621136 -8.7578945
-24.036154 43.96894 -6.124121
-23.84698 43.850582 -5.6618185
-24.549814 44.017406 -3.2407336
-24.589758 43.852093 2.166056
-24.749178 44.36798 -9.675227
-24.339506 44.605076 2.0431666
-24.618692 45.478695 -9.975102
-24.382488 45.340515 1.2624282
-24.021915 45.210007 1.8352703
-24.31962 46.73459 -9.982999
-23.854975 46.08519 0.10710491
-23.847965 45.96817 1.2658905
-24.433039 47.095177 -9.828513
-24.248322 47.51248 -9.571879
-24.494518 47.709015 -1.7211139
-23.953163 47.738228 -9.618896
-24.451254 48.350822 -2.0061157
-24.463837 49.361824 -2.4741201
-24.332262 49.04415 -2.1689725
-24.367895 50.142487 -2.8588843
-24.281265 51.432495 -3.6646774
-24.304163 52.344994 -6.905882
-24.508244 52.59837 -6.642999
-24.660759 52.598892 -5.2712836
-24.541712 52.282818 -4.674464
-23.908327 51.987595 -3.9328523
-23.999796 52.759846 -6.7255607
-24.358 52.82683 -6.349921
-24.386148 52.889416 -5.5924196
-24.204294 52.73363 -5.0223746
-22.66837 35.30259 -2.4089847
-22.657692 35.279274 -1.9997212
-22.656761 36.00931 -6.059964
-22.6592 36.022232 -5.709622
-22.629362 35.894615 -5.0084686
-22.873093 35.670742 -2.367742
-22.899763 35.7313 -1.7483084
-22.770391 35.92247 -1.1880629
-22.897161 36.6158 -6.2451816
-22.912315 36.466522 -5.8123775
-22.762451 36.315567 -4.734418
-23.047812 36.964973 -3.3350317
-23.08984 36.337543 -2.3094912
-23.019651 36.359276 -1.5134716
-22.783188 36.467278 -0.9752199
-22.974 37.818306 -7.1094904
-23.264948 37.68491 -6.3906527
-23.44295 37.86552 -5.5417633
-23.196526 37.6972 -4.6644034
-23.153988 37.280663 -2.3081467
-22.933466 37.18671 -1.6985558
-22.715446 37.37889 -0.6978153
-22.774689 38.37046 4.764601
-23.325266 38.847157 -7.4327483
-23.526999 38.5215 -3.2823365
-23.502249 38.550797 -2.7792962
-22.826172 38.616497 -0.9918876
-23.07554 38.86506 3.997742
-23.216007 38.90235 4.5285335
-23.24021 38.927708 5.300521
-22.79911 38.832645 6.2559376
-23.151691 39.380478 -7.739417
-23.568443 39.78216 -7.4483914
-22.563837 39.8387 -1.2806084
-22.591421 40.027836 -0.566706
-23.046392 39.96756 1.5925566
-23.303627 39.69511 2.5544252
-23.498056 39.269775 4.9065833
-23.451462 39.37211 5.395002
-22.82829 39.349724 6.4931674
-22.644955 39.29946 6.750346
-22.950321 40.05887 -8.011845
-23.078594 40.970345 -0.4047283
-23.241777 40.698723 0.7697149
-23.42839 40.394867 1.6796001
-23.475351 40.572544 4.2310505
-23.5153 40.40339 4.977712
-23.022831 40.498184 6.177685
-23.502508 41.568176 -0.43488592
-23.481684 41.50505 3.5573552
-23.342314 40.911175 4.495074
-23.274788 40.98066 5.6540604
-22.879429 41.922035 6.130135
-23.383537 42.798843 3.281928
-23.192251 42.730938 4.280503
-23.019083 42.82828 5.499336
-22.840195 42.549732 6.2746344
-23.593254 44.071354 -9.006048
-23.720156 43.691776 -8.315988
-22.914196 43.72832 3.5662856
-23.111214 43.37026 4.592206
-23.027538 43.64737 5.3742213
-22.828691 43.331287 6.255117
-23.373919 44.837605 -9.525213
-23.59926 44.446873 2.4182806
-23.495773 44.355316 2.878779
-23.064976 44.582813 4.558431
-22.963242 44.422825 5.4290276
-22.783257 44.110836 6.052598
-23.690916 45.70889 -9.938713
-22.945616 44.966267 3.6589274
-22.809273 45.10053 4.620327
-22.811275 44.90467 5.262478
-23.532417 46.479115 -10.016886
-23.535315 46.438923 0.64528584
-23.320412 46.36394 1.2465096
-23.6346 47.47366 -9.767997
-22.999184 49.402058 -7.9572353
-23.250824 49.341522 -2.099423
-23.517586 50.34702 -7.496137
-23.412088 50.50197 -2.657393
-23.50386 51.137794 -7.3340635
-23.625847 51.42526 -3.4509528
-23.475626 51.13362 -3.1191974
-23.485518 52.220444 -4.0964355
-23.483952 52.72472 -6.806056
-23.608257 53.03091 -6.235677
-23.44887 53.01555 -5.475441
-23.730595 52.81443 -4.955744
-21.78367 35.205475 -6.0309763
-21.924843 35.201946 -5.567691
-21.822874 35.17499 -4.5122323
-22.111664 35.114986 -3.0676389
-22.432484 35.158203 -2.2760398
-22.234905 35.086357 -1.441405
-21.992966 35.117855 -0.9257832
-22.0482 35.987026 -6.8563294
-22.296806 35.744694 -6.293804
-22.414137 35.698795 -5.5041103
-22.344126 35.94457 -4.6308928
-22.315414 35.568222 -3.3307295
-22.59179 35.356773 -2.5026608
-22.345022 35.6306 -0.8699504
-21.788786 35.55471 -0.312149
-21.82847 37.13575 -7.674138
-22.274864 36.456894 -6.9293547
-22.477047 36.698463 -0.40914726
-21.996134 36.743023 -0.052533984
-22.000805 37.641876 -7.765662
-22.335766 37.674877 -7.4458036
-22.297785 38.309044 4.014384
-22.27678 38.101486 4.722752
-21.910032 37.69684 5.705237
-22.10762 37.994823 6.4171515
-22.058283 38.246014 6.911113
-22.276794 38.701736 -8.031935
-22.661133 38.231113 -7.5152206
-22.352123 38.815155 -0.22713077
-22.271915 38.610207 2.9317212
-22.66898 38.709297 3.5997655
-22.507395 38.501385 6.5150366
-22.136116 38.738052 7.155114
-22.376123 39.692196 -8.183015
-22.300121 39.35278 7.1505823
-22.381603 40.14851 6.670278
-22.720758 41.33688 -7.667237
-22.541956 41.638412 6.279113
-22.418442 41.28135 6.647456
-22.38001 42.24473 -7.0012336
-22.62496 42.620388 6.635182
-22.230576 43.816345 -7.2463045
-22.082365 43.39465 7.0425067
-22.70596 44.73912 -9.018374
[...]
POINT_DATA 8923
SCALARS features_00 float 1
LOOKUP_TABLE default
0.70811343 0.59526104 0.6878964 0.6887404 0.57885545 0.6608964 0.6110685 0.38162908 0.38890296 0.38609177 0.39342666 0.40692586 0.41889012 0.41625834 0.4517307 0.46752477 0.44527492 0.5318091 0.77007806 0.7524817 0.5967288 0.75524867 0.7288079 0.59433407 0.4330246 0.26066738 0.70211536 0.7069762 0.49932563 0.41857743 0.21456012 0.34476757 0.3797161 0.634871 0.63442385 0.5303479 0.317244 0.29433098 0.330096 0.3946334 0.40881956 0.38800055 0.5084855 0.4341349 0.31667477 0.34101665 0.3567267 0.35738528 0.3900093 0.40430164 0.39503974 0.31443888 0.32327422 0.42368436 0.39200923 0.36269253 0.42699286 0.44387263 0.4130111 0.36669227 0.49635372 0.54171777 0.51695514 0.44155675 0.5069593 0.5551058 0.5858158 0.55039483 0.49325818 0.47673422 0.41703933 0.5222379 0.4916044 0.3987352 0.35475367 0.53975093 0.52421653 0.38303107 0.5050723 0.45780396 0.7516148 0.7550062 0.59534657 0.14737812 0.06703818 0.56117654 0.51942277 0.4528021 0.7472254 0.7670733 0.32315403 0.229573 0.09877569 0.19513297 0.27380228 0.5427317 0.5642604 0.5212876 0.46725136 0.6890451 0.33436534 0.52818346 0.5477948 0.5016459 0.6058645 0.54845166 0.3759698 0.5147134 0.38169718 0.37490097 0.3141149 0.36998886 0.3112573 0.26919273 0.33812547 0.43317258 0.3979749 0.51863754 0.5764741 0.5536946 0.48404253 0.5680884 0.6078686 0.6127287 0.5768535 0.620344 0.6230405 0.39567456 0.4137535 0.3779213 0.29636836 0.2701273 0.44366577 0.47132522 0.43821743 0.31952986 0.25428692 0.28479612 0.3748768 0.42296135 0.47087544 0.49646407 0.32842445 0.29735586 0.21630123 0.36136162 0.40809065 0.4928491 0.29096645 0.23470297 0.10433502 0.17544681 0.16903996 0.49581903 0.22841325 0.23510803 0.07226367 0.22159787 0.674021 0.7031508 0.1543087 0.026385609 0.031359572 0.3920832 0.72122633 0.38138637 0.6781054 0.4493073 0.36462292 0.52094895 0.39437735 0.3816421 0.48035067 0.39958623 0.27895832 0.34892988 0.27209127 0.27769613 0.25768286 0.3065217 0.4311044 0.5557333 0.5932519 0.6129327 0.5689473 0.4870243 0.5782223 0.609931 0.6216968 0.6032934 0.4721502 0.52649176 0.38352984 0.3622365 0.3188616 0.45821726 0.5277873 0.55563366 0.3592099 0.3358195 0.25918898 0.2218731 0.42279807 0.491187 0.5147625 0.32043082 0.3473212 0.30441839 0.20582333 0.29052374 0.35736686 0.38290164 0.5120817 0.34703374 0.17280327 0.12685792 0.097217344 0.44216067 0.4769362 0.5338019 0.570562 0.3452564 0.40761793 -0.13892862 -0.2181542 0.12575917 0.29484785 0.47876805 0.49565154 0.51684195 0.5252739 0.36104333 -0.12712556 -0.008224877 0.14179139 0.3349566 0.38113943 0.38005307 0.018226258 0.20436352 0.3030159 0.3285473 0.28834668 0.0738018 0.18333367 0.3079145 0.32363677 0.52668226 0.46955645 0.1464549 0.2743481 0.3778783 0.394757 0.57820475 0.24519528 0.15422696 0.34282035 0.4308485 0.45591092 0.6388073 0.25239658 0.3839817 0.4343899 0.5111494 0.31731778 0.2923719 0.373984 0.011915505 0.17303279 0.12889355 0.2969338 0.31013587 0.4004603 0.35992855 0.5029761 0.5298526 0.5853965 0.6021482 0.5979732 0.4524935 0.41636795 0.35269028 0.38637 0.4947095 0.5839576 0.6044986 0.4359844 0.42641813 0.3756931 0.30335665 0.33877158 0.45755994 0.5880573 0.57375145 0.3022616 0.39218324 0.49508542 0.44787148 0.26024032 0.28233188 0.4334311 0.4825374 0.50761074 0.56159455 0.5687226 0.24359027 0.2840041 0.08255847 0.33303767 0.4147017 0.58460367 0.56131357 0.29802686 0.5151995 0.42791402 0.34874988 0.29469916 0.30156028 0.19807643 0.33754548 0.07147162 0.4052779 0.42341697 0.48798242 0.47193173 0.48133624 0.37665597 0.44907296 0.48565793 0.17486206 0.1964936 0.3804963 0.44867426 -0.018655088 0.13272499 0.11162125 0.18377122 0.100499436 -0.12427275 0.0057482272 0.06962106 0.3007595 0.27238914 0.36879897 0.41612077 0.53406835 0.55887866 0.48729828 0.4705212 0.44822136 0.38862234 0.37462667 0.49166846 0.57478803 0.6020342 0.5544398 0.83756036 0.4239943 0.47064126 0.50651455 0.8132578 0.35230154 0.3688158 0.40815076 0.44616538 0.25432137 0.123917 0.35553104 0.43695542 0.49325922 0.4951161 0.18480617 0.22362962 0.5072817 0.48149383 0.13698018 0.3923 0.2710795 0.35206664 0.09352122 0.30590123 0.030049913 0.3895143 0.42557156 0.47544348 0.4697585 0.076098874 0.19799212 0.40547073 0.44973502 0.46057028 -0.020367196 0.054180425 -0.16923916 -0.1271503 0.054088794 0.36042818 0.50031036 0.39338523 0.2856889 0.58061165 0.56771725 0.43605536 0.35549116 0.3884378 0.6113289 0.57436806 0.5194713 0.3567401 0.92103374 0.44299072 0.40309253 0.34989366 0.8813364 0.90220726 0.8882501 0.4872918 0.47084945 0.45289257 0.38552326 0.3165077 0.50317657 0.51864666 0.81700563 0.85238117 0.8547008 0.82525814 0.4602208 0.47922194 0.49258706 0.7809042 0.79434234 0.7779285 0.7433481 0.37901062 0.08217357 0.3149132 0.3883059 0.72280145 0.722381 0.6958872 0.259304 0.102590784 0.1701316 0.39144093 0.3879503 0.30709022 0.028473958 0.089506626 0.21803182 0.34326023 0.33518952 0.27584797 0.0061798096 0.34600276 0.36319166 0.30117595 0.024476528 0.09160693 0.32914168 0.34274095 0.35547486 -0.029588193 0.19262022 0.25779575 0.25290704 0.30513856 0.24889937 -0.4106375 0.38071677 0.23915982 0.22823575 0.4262805 0.12596844 0.33243793 0.41155672 0.44556078 0.42354804 -0.123070195 -0.06604443 -0.017782513 0.007997125 -0.1473364 -0.15642597 -0.16733958 0.34887296 0.5618266 0.6224406 0.23498136 0.38299197 0.522555 0.6306073 0.6156322 0.58540404 0.44783092 0.407589 0.5752887 0.51407063 0.566064 0.61552954 0.5906775 0.8890086 0.93970066 0.9392623 0.8968226 0.7956306 0.8541807 0.9098011 0.8944464 0.85405743 0.48395616 0.45200455 0.44193602 0.25713313 0.15277788 0.22683021 0.7750481 0.79142016 0.47319394 0.24635652 0.29100886 0.3160005 0.70690686 0.5630096 0.37051523 0.39285365 0.041864537 0.17528994 0.2698242 0.22745961 0.433966 0.46041068 0.6356683 0.58340406 0.5732957 0.547561 0.31768188 0.25170866 0.4320256 0.424608 0.3179758 0.20492598 0.16087158 0.12244477 0.15729794 0.38207468 0.3774392 0.050849535 0.26033586 0.22592673 0.18906535 0.2512195 0.3151018 0.17637253 0.3143584 0.22784543 0.17835905 0.19180308 0.09833482 0.22577828 0.28569674 -0.2184231 0.13336106 0.25331408 -0.09076883 -0.10511531 0.22653209 0.2144132 0.21642205 0.23724662 0.26120785 0.36104327 0.29491967 0.25840616 0.25937957 0.22544725 -0.08831124 0.29921415 0.36062354 0.37600768 0.1120819 -0.14911515 -0.05065578 -0.11320265 -0.18006639 -0.16029656 0.031067781 -0.21268205 0.08393578 -0.21427324 0.5560507 0.24992459 0.61849695 0.42668366 0.39971602 0.4503923 0.35223326 0.6320363 0.6262547 0.6053661 0.5365386 0.3831511 0.4628014 0.46575966 0.5073968 0.4786306 0.5308131 0.5205908 0.54319364 0.566348 0.56089604 0.5346914 0.5383237 0.5621059 0.6362827 0.73242986 0.69091535 0.72301924 0.7671514 0.7734157 0.8815953 0.94526875 0.9377785 0.8971744 0.7429123 0.7865195 0.7089046 0.4647916 0.43845737 0.36996257 0.18073432 -0.14782834 -0.16210163 0.22176975 0.32402003 0.3149097 0.66798794 0.60766196 0.42921013 0.41951153 -0.10274659 0.051862177 -0.14932773 0.2960977 0.6255108 0.3365668 0.33940434 0.12750977 0.28421718 0.39438385 0.49052027 0.48294783 0.48397774 0.08701414 -0.009133995 0.11570701 0.45470577 0.27916592 0.25172734 0.067296475 0.07603739 0.37229782 0.3766011 0.00015731156 0.019990921 0.33151346 0.33162254 -0.008842014 0.2046401 0.5985117 0.1342932 0.15914899 -0.011880584 0.05268213 0.11668989 0.2207276 0.21633314 0.1509497 0.13804328 0.1152989 0.24521415 0.23533325 0.1754116 0.16268305 0.1893002 0.24678062 0.13550273 0.21144256 0.21919549 -0.034829423 0.12156712 0.21585415 0.1940149 0.17736308 -0.073227115 -0.16880733 -0.18601672 -0.1359379 -0.013819285 -0.025453672 0.04200562 0.13172677 0.366906 -0.01740706 0.21846275 0.22617377 0.30581832 0.49991757 0.13285096 0.28835124 0.5690985 0.5844906 0.20817253 0.58695227 0.57015413 0.54842484 0.38080966 0.2144883 0.50874704 0.5423395 0.5342153 0.5394331 0.54496545 0.55715424 0.71867174 0.689755 0.6214671 0.7177726 0.7862324 0.77576554 0.7341007 0.7801003 0.40529108 0.3519845 0.4179746 0.43902525 0.39777923 0.32890925 0.37558538 0.3940675 0.3379002 0.78456414 0.8570328 0.87491965 0.8195615 -0.07332434 0.2851958 0.26286343 0.6339443 0.7157022 0.6745366 0.11782507 -0.33646145 -0.2383583 0.14876246 0.018290661 -0.10723745 0.178947 0.2791165 0.22847717 0.61065674 0.4186743 0.30532813 -0.1827457 0.14864849 0.5510353 0.18698221 0.2089028 0.27157202 0.21653327 0.47986078 0.4903594 0.41760814 0.08143474 -0.020525396 -0.051288962 -0.10899846 0.1253273 0.46331316 0.115285695 0.43566954 0.4322003 -0.09101222 -0.040704917 0.3798932 0.5948072 0.5994134 0.4056567 0.35099113 -0.17949219 -0.06267112 0.31748542 0.5612594 0.61987054 0.62671125 0.5393137 0.3488871 0.20170182 0.17490451 0.5749891 0.57511735 0.51134205 0.14264494 0.10126133 0.11069367 0.453843 0.43987188 0.21858585 0.17164546 0.19743003 0.10285741 0.2024565 0.24447463 0.2237586 0.09320459 0.25255966 0.24275342 0.24308345 0.21000041 0.066431016 0.2729116 0.34720996 0.2800307 0.2699165 -0.14155689 -0.023096465 0.27643377 0.4061656 0.09530315 0.03699618 -0.026475407 -0.12116446 0.31285223 0.40782255 -0.15232478 0.24833018 0.17502709 0.26254785 0.40070277 0.23924753 0.52305794 0.18993232 0.1811172 0.5358282 0.52180296 0.40656006 0.41828966 0.508682 0.47232902 0.5149401 0.53086054 0.6323458 0.5260581 0.58557385 0.67761874 0.7539675 0.749311 0.7033738 0.77582395 0.2991765 0.2586593 0.35536548 0.36938018 0.38713366 0.3276639 0.23121598 0.28200692 0.22260886 0.28741813 0.32413995 0.21619692 0.58435184 0.19232573 0.18573111 0.19212535 0.12363757 0.103387 0.22455837 0.13712583 0.091412306 0.7639146 0.6289807 0.46672863 0.32956487 0.10733152 0.10587688 0.12617 0.083042115 -0.081249595 -0.050041422 -0.05621149 0.63622034 0.5894693 0.5654193 0.7644944 0.64306474 0.55884075 0.40708745 0.07127753 0.123193875 -0.34660164 0.021404393 -0.09171944 0.12902148 0.16642487 0.15896848 0.578953 0.6872233 0.5881338 0.05827711 0.077470794 0.5469339 0.28251958 0.17859694 0.40426245 0.1658573 0.40211087 0.16121656 -0.08230764 -0.13844913 0.48262817 0.45343688 0.182967 0.43382126 0.2553189 -0.06607359 0.3559199 0.4824611 0.44194397 0.29827917 0.45373797 0.099065386 0.19949768 0.47610375 0.4791388 0.13869481 0.37186006 0.36723912 0.35726815 0.11726804 0.17727572 0.26254785 0.28996855 0.13848129 0.18471554 0.21451557 0.3131284 0.22868162 0.24718395 0.39023983 0.4345988 0.26055485 0.2883269 0.29820153 0.15730354 0.060037725 0.42703086 0.4659841 0.3063143 0.2943706 0.25978807 0.13494468 0.061346352 0.03250377 0.09613247 0.36964634 0.4309718 0.47272328 0.29552737 0.28536052 0.25946754 -0.023778334 -0.07613329 -0.12154604 0.2931932 0.3526684 0.41013336 0.34057182 -0.098128706 -0.093812555 0.24626857 0.26928607 0.462248 0.43114144 0.29441777 0.31779182 0.34346986 0.3858467 0.11993454 0.23309311 0.33079594 0.26016584 0.36370027 0.42246366 0.4521252 0.44385225 0.5342355 0.48239812 0.5046377 0.5763112 0.67805886 0.69371533 0.23650989 0.2505713 0.23751116 0.26032612 0.2709546 0.22757609 0.19330025 0.21121806 0.33287755 0.33112884 0.08352547 0.23334637 0.21644413 0.2390899 0.26306033 0.24725774 0.29480344 0.31704292 0.31767362 0.1701138 0.22866632 0.24539207 0.1964882 0.6151718 0.58315766 0.4679016 0.25414044 0.15347363 0.15094128 0.21070153 0.27873507 0.6603417 0.15141189 0.13881256 -0.0076141767 0.1890517 0.28142494 0.57044244 0.48398298 0.3747353 0.716074 0.2913936 0.4661309 0.27636445 0.20651445 0.29382467 0.14158592 0.24202636 0.7223319 0.019608624 0.091304384 0.09109709 0.1716616 0.23660767 0.4120044 0.1756455 0.14891247 0.12242683 0.18872645 0.3944944 0.24084312 0.20989531 0.34296906 0.17375876 0.2945986 0.19806793 0.31134367 0.31763232 0.11525126 0.2860216 0.2739769 0.18828149 0.11132735 0.35154617 0.042879075 0.11007106 0.45884067 0.43581015 0.20644721 0.48897856 0.46608362 0.26530963 -0.11858918 -0.04596983 0.463212 0.48914933 0.2686062 0.28336376 0.27879032 0.28302944 0.31383124 -0.07967731 0.23706917 0.29115334 0.42496052 0.29072857 0.30334795 0.30436102 0.3618993 0.39390713 0.38341624 0.3811012 -0.04503239 0.18648788 0.09754295 0.15709303 0.26739138 0.35029832 0.39506924 0.42996573 -0.05653239 0.034622394 0.038525436 0.19699922 0.025617449 0.2457275 0.32047296 -0.03131995 0.26509875 -0.00075442344 0.3668869 0.08972553 0.36947912 0.39444357 0.38569495 0.22272328 0.27819487 0.2430556 0.12966384 0.29148912 0.40593755 0.37738568 0.37894166 0.3756927 0.44318467 0.2757483 0.43781182 0.4443004 0.49719295 0.18182883 0.20542482 0.19237426 0.18110019 0.17046943 0.19891492 0.23602132 0.21780759 0.20083717 0.34698403 0.3445591 0.112996094 0.17970991 0.25835365 0.26476437 0.2647044 0.31658664 0.3423171 0.3377053 0.25157014 0.24476153 0.21419555 0.27722576 0.21728078 0.22044179 0.28936037 0.5227668 0.49574876 0.40784717 0.25211915 0.33053342 0.36157304 0.5868665 0.3255272 0.35017192 0.6184242 0.6727357 0.5375122 0.3108228 0.30609384 0.5147642 0.57300115 0.016608924 0.071802825 0.1557128 0.5548065 0.50918794 0.26336062 0.26178512 0.24763747 0.2785826 0.11824858 0.23506159 0.15959816 0.12683864 0.13275903 0.17272232 0.18104403 0.080579534 0.056367178 0.28249064 0.17460619 0.063833825 0.3415166 0.18591629 0.052372348 0.35875216 0.22556408 0.19314377 0.19093676 0.15009734 0.2963338 0.0816248 0.037087735 0.3516838 0.35024682 -0.1455392 -0.071815714 0.40727568 0.06276113 0.4429031 0.06875953 0.16128722 -0.06594248 0.45797157 0.45690572 0.2715385 0.3344991 -0.073157325 0.44895333 0.32236093 0.32262814 0.33486855 0.4488807 0.4071224 0.022771724 0.3661682 0.36066592 0.37357175 0.40390706 0.45507318 0.473584 0.4589725 0.048582003 0.2925691 0.3280002 0.33237386 0.05237851 0.08907247 0.29020798 0.088246316 0.0646873 0.043932814 0.08123794 0.07113058 0.06555966 0.39597088 0.15367354 0.22221498 0.10931422 0.3556313 0.41141242 0.42658716 0.41691005 0.31886327 0.2807988 0.2719459 0.13288973 0.33045256 0.4764884 0.38988853 0.45174086 0.48287535 0.4873801 0.30448434 0.4284578 0.48076513 0.49069104 0.49864638 0.08595018 0.20625465 0.37698293 0.43828022 0.4760978 0.49629745 0.24690221 0.18395728 0.15790075 0.07910373 0.20507115 0.43796355 0.20644064 0.1813983 0.08173002 0.31393445 0.32614917 0.30556113 0.22241956 0.27553284 0.21341357 0.19593638 0.31364724 0.16399285 0.11803318 0.33805078 0.41619343 0.3806035 0.37146518 0.6733605 0.7044972 0.68661875 0.65215933 0.42585123 0.35569218 0.31824252 0.5568686 0.61548615 0.67819405 0.691572 0.6082125 0.49402773 0.28013298 0.46851537 0.52307653 0.54924655 0.055340827 0.07769753 0.08212446 0.059445202 0.25043666 0.37728846 0.018335387 0.23688741 0.1678338 0.19173634 0.19121641 0.08411372 0.039489698 -0.035897326 0.39704782 0.36446273 -0.010980969 -0.011669254 0.40747088 0.38740402 0.030017583 0.40894228 0.38226646 0.1457188 0.37676415 0.2941478 0.13016471 0.254801 0.27898762 0.3178706 0.33597356 0.36310846 0.3677358 -0.028650478 0.34428203 0.39101735 0.43226236 0.37546122 0.021538332 -0.04699877 -0.19685823 0.37056625 0.44756803 0.4086604 0.05823707 0.4934454 0.3850157 0.26855838 0.34047744 0.48374194 0.050469488 0.406435 0.35693416 0.37787947 0.41479677 0.45022744 0.4890374 0.49924356 0.53280485 0.07162689 0.110609844 0.32147452 0.37035543 0.41435403 0.4784999 0.5050747 0.5342566 0.10321005 0.16813815 0.31067365 0.12672283 0.034214377 0.01874039 0.25405145 -0.028983906 0.36779007 -0.035546526 -0.035761088 0.06166942 0.2177591 0.4190144 0.4214846 0.41432983 0.34081233 0.38643193 0.422033 0.47111562 0.46391532 0.1588618 0.25017864 0.41202497 0.48215622 0.4834283 0.48205853 0.025179677 0.13709705 0.493236 0.49548143 0.479015 0.30188507 0.20956656 0.07521249 0.49241674 0.47714016 0.29321095 0.2829584 0.4250626 0.45152348 0.24214138 0.33171898 0.36714417 0.3760459 0.23879492 0.20827076 0.045519046 0.0677678 0.18008824 0.17708135 0.2760583 -0.0015762262 0.324636 0.32140318 0.6556747 0.65763724 0.33342993 0.33422828 0.33901381 0.58021116 0.65870893 0.67197716 0.6556659 0.6188807 0.3350805 0.30343714 0.53930527 0.57600504 0.5250081 0.3565845 0.26773897 0.42640087 0.4527165 0.15082365 0.20790274 0.2704159 0.36968622 0.2529799 0.2448174 0.27145514 0.22023265 0.20835274 0.23090164 0.21092048 0.13451189 0.19855496 0.16088198 0.6403214 0.06690612 0.1401978 0.5353408 0.62776625 0.6717341 0.6822074 0.22251666 -0.034433417 0.5372129 0.5785991 0.6790639 0.37247196 -0.03823912 0.3191874 0.3685156 0.3962087 0.04539439 0.16017178 0.30757004 0.18380493 0.3195856 0.38343728 0.24921873 0.3684793 0.4253627 0.004684642 0.45147985 0.45845217 0.41569903 0.14620027 0.11674575 0.33794603 0.45603624 0.4097814 0.31405738 0.0725331 0.053097997 0.46976566 0.27170002 0.37176168 0.41013774 0.45526475 0.5539503 0.5686709 0.2890984 0.1707992 0.15776524 0.40052885 0.44322282 0.51192504 0.5491367 0.56854814 0.19946674 0.1825027 0.13851745 0.13052489 0.10190538 0.32853204 0.395801 0.4173207 0.118013605 0.058859594 -0.07048331 0.017329447 0.17212002 0.1825585 0.0018999279 0.0023581535 0.27728015 0.116703555 0.14177048 0.10931647 0.22672239 0.35284442 0.3670628 0.34555876 0.28241444 0.3202237 0.46310782 0.45539042 0.47276068 0.46545905 0.43415448 0.36783594 0.43655032 0.32109606 0.38470036 0.44874045 0.34889728 0.21525908 0.12412855 0.46822712 0.0040497407 0.47247374 0.42946336 0.27228415 0.30620867 0.20639476 0.42151427 0.26095927 0.39102933 0.42695513 0.15674321 0.24322802 0.032562114 0.0053489655 -0.0015498549 0.11365476 0.11781718 0.2387228 0.07528544 -0.07600631 0.24305722 0.63027453 0.63919026 0.6088861 0.2844471 0.27450496 0.24956167 0.5681725 0.62073934 0.6397979 0.6152478 0.57337177 0.28567654 0.23517768 0.22104725 0.4514246 0.51410174 0.2913398 0.3370645 0.400543 0.30195907 0.21366383 0.23099232 0.36826625 0.2646674 0.068217166 0.26684096 0.3698336 0.40173686 0.21257788 0.2274717 0.14953065 0.1791409 0.29000476 0.14659521 0.21452118 0.40715632 0.52694374 0.54664886 0.13148983 0.11142245 -0.004223466 0.10975226 0.3775875 0.56978416 0.62301576 0.62052375 0.079057485 0.08531894 0.49560565 0.66389716 0.6274069 0.026026398 -0.015774425 0.01866939 0.11474387 0.44748747 0.6804435 0.67012817 0.62519515 0.26031935 -0.18046704 0.21904519 0.5935104 0.6462059 0.6225071 0.25793913 0.23830368 0.18049918 0.18610883 0.044986475 0.13448615 0.15603678 0.14983082 0.19579315 0.20345494 0.23257011 0.1981408 0.18457717 0.2418307 0.3110062 0.2455107 0.3654875 0.23032007 0.42874134 0.42844915 0.43636733 0.2968185 0.16287377 0.5539845 0.5347251 0.23638222 -0.22022194 0.507015 0.40216622 0.3454423 0.26163813 0.1858427 0.28736383 0.41460407 0.57480484 0.58332133 0.5767843 0.3152324 0.34951046 0.007474184 -0.060893156 -0.3487264 0.46055833 0.58945405 0.39915335 0.37127292 0.28531158 0.18119073 0.0851401 0.068462126 0.06212285 0.4029762 0.43251193 0.19986245 0.3291683 0.3716864 0.18839684 0.18838754 0.17394592 0.20661211 0.26640925 0.20846571 0.1308566 0.27714235 0.30426764 0.27366957 0.21128465 0.5031059 0.4772886 0.4233032 0.35734093 0.25321096 0.33203328 0.36128914 0.49418148 0.5033122 0.4903009 0.25432813 0.2223455 0.44088894 0.3649248 0.33197498 0.40724224 0.31143355 0.25821298 0.15017045 0.313538 0.17634013 0.22826555 0.102075905 -0.0012412518 0.0018447414 -0.13605145 0.22870257 -0.092191584 -0.24616471 0.2246696 0.20539312 0.1292302 -0.019348763 0.6070129 0.6293639 0.6500909 0.6270497 0.20893066 0.24508944 0.56053966 0.5147953 0.45569557 0.18887609 0.167326 0.38595682 0.30610353 0.2528358 0.41070834 0.46285248 0.46765906 0.24247193 0.17803407 0.28152013 -0.08284542 0.14987078 0.37854308 0.09993455 0.33476415 0.398535 0.42656994 0.45568177 0.1446983 0.3269561 0.20486999 0.48408175 0.48160946 0.14335999 0.08026429 -0.3809437 -0.048453152 0.5565963 0.5190725 0.11732056 0.5785977 0.5732632 0.5779666 0.56413317 0.051000737 0.10684943 0.52041644 0.20703962 0.14388366 0.15097341 0.17783721 0.19736369 0.23702028 0.16228572 0.1572979 0.1951165 0.3200778 0.42600706 0.23403516 0.49895036 0.52956265 0.12720647 0.5365439 0.5551292 0.5960568 0.09958777 0.13596176 0.61703193 0.021182755 0.3166361 0.12534764 0.45244473 0.59218466 0.30573186 0.08589485 0.33625835 0.46544546 0.48139554 0.22888504 -0.7371934 0.5255977 0.740669 0.6470437 0.5469215 0.38032