# vtk DataFile Version 2.0
Really cool data
ASCII
DATASET POLYDATA
POINTS 1406 float
-9.530329 4.018582 -2.3705862
-8.805403 2.249348 -3.0981224
-8.765866 2.097286 -2.613148
-8.916049 2.2147458 -1.8041607
-8.614207 2.0445406 -0.9822459
-8.760264 2.6475434 -3.6866257
-8.917535 2.6125178 -3.3014421
-9.010631 2.4639332 -2.6741269
-9.081274 2.6477277 -1.6481942
-8.810283 2.5970905 -0.6901741
-9.1833315 3.5694215 -3.3770711
-9.443777 3.595409 -2.368645
-9.271251 3.3013244 -1.6182214
-8.623608 3.7703538 0.4789154
-8.676146 4.1364884 -3.8475764
-9.137999 4.3141656 -3.2533522
-9.348112 4.4584 -2.5937762
-9.358367 4.484664 -1.8627402
-9.000057 4.2062807 -0.83132225
-8.889301 4.695983 1.6472038
-8.745161 4.851105 2.5040524
-8.642533 5.0073223 2.9710345
-8.661049 4.960541 -3.5680068
-9.060927 5.0648336 -2.57405
-8.98121 4.988734 -1.408955
-9.011854 5.809687 1.4903768
-8.963853 5.614178 2.5531332
-8.75771 5.504563 2.982888
-8.649216 6.7046027 0.79792607
-9.001908 6.3277526 1.835224
-8.873049 6.3742933 2.3721385
-8.702002 6.0877585 2.984891
-8.811021 6.8617067 1.6334416
-8.423508 2.1151838 -3.052048
-8.237037 1.7944314 -2.3228712
-8.155328 1.6570129 -1.47438
-8.259131 1.7603825 -0.8328403
-8.067419 1.9769586 -0.18969598
-8.449592 2.7880986 -3.8653927
-8.353936 2.408028 -0.044775814
-7.966266 3.3250687 1.6754751
-8.610309 3.6452148 -3.9757028
-8.494756 4.044279 1.613447
-8.121406 4.0270877 2.4276032
-8.236243 4.4224815 -4.2160378
-8.604595 4.5403423 2.6326654
-8.292521 4.8496733 3.1629534
-8.137305 5.644497 -3.5206065
-8.521508 5.24471 0.26818228
-8.329824 5.4633694 3.3714619
-7.986728 5.3139877 3.6395617
-8.026629 6.0510373 -1.655583
-8.304981 6.0019207 0.211259
-8.211457 6.4993873 3.2485862
-8.295619 7.122246 0.7738739
-8.400392 7.4276032 1.6869996
-8.326085 7.2605433 2.2989748
-8.086213 6.8232374 3.1145601
-7.9976125 7.719563 1.5607415
-7.6821113 1.4477444 -1.2878993
-7.4951773 1.4197202 -0.87840325
-7.8320994 2.1169674 -3.3086786
-7.5144215 1.581112 -2.3224213
-7.8274903 1.53125 -1.4178854
-7.680567 1.6064461 -0.5782469
-7.819097 1.9469483 -0.11812951
-7.1327095 2.7077198 -4.0367985
-7.2971277 2.9828718 1.5083275
-7.6695614 3.951276 -4.5990195
-7.4613714 3.2963233 -4.4758277
-7.3351307 4.388958 -4.8078938
-7.585481 4.603719 3.492017
-6.8618054 4.7788405 3.9156675
-7.195317 5.2922516 -4.7967625
-7.563255 5.4385524 -4.4568725
-7.8023777 5.357432 3.7613342
-7.0902333 6.4736047 -4.281552
-7.546551 6.6547256 -3.4107902
-7.433336 6.3657246 3.8106062
-6.951627 7.497083 -3.4482515
-7.21785 7.555155 -0.4304535
-7.6493793 7.1793084 3.2579508
-7.0984254 6.9743667 3.948398
-7.307125 8.074942 0.59687483
-6.9075446 8.664852 2.178349
-6.828572 9.857172 1.6614089
-6.9645586 10.020076 -0.13934371
-7.0107374 10.47825 0.4979551
-6.849222 10.217363 1.3125322
-6.676447 11.165774 -0.088875994
-6.7344317 11.265168 0.42598093
-6.7152123 11.077918 1.074306
-6.5808973 12.000063 -0.1311773
-6.8593044 1.4095709 -0.9858351
-6.6730304 2.1736367 -3.2669032
-6.4194083 1.7257012 -2.232479
-7.0368524 1.595542 -0.37552312
-6.5394416 1.9685194 0.07221383
-6.810067 3.3925703 2.5463035
-6.672044 3.7614143 -4.798546
-6.665206 3.7276945 2.9866738
-6.616558 4.73752 4.051816
-6.564579 5.6459475 -4.8906856
-5.9942346 6.711075 -4.8614607
-6.5603833 6.547001 4.232527
-6.3447905 7.3101387 -4.2241607
-6.468264 7.2316737 3.9964652
-6.1998496 8.076134 -3.4204795
-6.473866 8.252792 -2.6340976
-5.950325 9.096961 -2.271039
-6.384507 9.759319 -1.1589857
-5.7014513 10.133824 -1.5166755
-6.327997 10.23903 1.9675465
-6.3577046 11.900925 -0.7498907
-6.532954 11.878298 -0.49480438
-6.556482 11.685212 0.79173565
-6.2975173 11.468255 1.4044698
-6.453225 11.013385 1.7437682
-5.9498506 12.384216 -0.99706924
-6.3313427 12.394371 -0.44683397
-6.4196486 12.30794 0.23715234
-6.0810747 12.116054 1.1839852
-6.018303 13.009284 -0.28203946
-6.0284395 12.997973 0.3303501
-5.5132723 13.766332 10.369786
-5.5237975 13.991536 10.151089
-5.738396 3.5178165 3.6661775
-5.3594513 3.647806 4.1042833
-5.3860016 4.7941046 4.6348853
-5.721308 5.798257 -4.9454536
-5.6274147 5.182836 4.597105
-5.367258 6.534855 -5.1159363
-5.7816133 6.734604 4.312419
-5.203415 6.0236835 4.68728
-5.286531 7.885672 -4.3012743
-5.528021 9.305053 -2.6330166
-5.5212364 8.827342 3.1669393
-5.3802743 10.091105 -2.0339859
-5.5185556 10.798346 -1.3762925
-5.2616935 10.415691 2.7721598
-4.5640097 10.798916 9.101652
-5.326201 11.721627 -1.5638568
-5.3755007 11.272499 2.408719
-4.8177304 11.83405 9.69578
-4.972078 11.929815 10.379419
-4.899146 12.003358 -1.6325008
-5.445378 12.231666 -1.3284011
-5.5884333 11.919482 1.9385059
-4.7404485 12.508022 8.614724
-5.171324 12.457021 9.734036
-5.3280244 12.622666 10.400661
-5.159609 12.680746 11.234478
-4.9185066 12.999375 12.094457
-5.3907194 12.993747 -0.9352071
-5.3471217 13.354463 -0.40522006
-5.554554 13.396494 0.094639555
-5.031058 13.469062 8.987662
-5.39845 13.513525 9.664268
-5.434196 13.588564 10.569235
-5.3387322 13.540495 11.063747
-4.859651 13.411298 12.354698
-4.6252465 13.694695 12.860439
-5.1748385 14.465838 9.633006
-5.3402357 14.3754015 10.314729
-5.162793 14.275909 11.262267
-4.8465066 14.409503 12.04395
-4.822819 14.747722 9.168698
-4.9175873 14.888371 9.6147785
-4.944503 14.921484 10.732403
-4.69639 15.104234 11.584323
-4.66693 14.872539 12.089879
-3.5988882 -0.0003901124 -7.1730957
-3.7210908 -0.08328649 -6.427017
-3.5934842 0.520054 -7.509391
-3.8063164 0.9930213 -6.6142197
-3.6363456 1.8102785 -7.9217854
-3.7860208 1.5612224 -7.574535
-4.1032577 2.0545065 -6.0309596
-3.8118203 2.1651874 -4.7550306
-4.3247485 1.6405575 0.19398578
-4.24175 2.0813036 1.3854663
-4.0050135 2.1850874 2.2723534
-3.777149 2.2158313 -7.546356
-4.352575 2.9071507 -4.7460284
-4.1273155 2.5056558 2.8747103
-3.8653996 3.0970078 -6.993247
-4.5044765 3.5003557 4.0317917
-4.463863 4.1393332 -5.356632
-4.100084 5.7394958 -6.131355
-4.028643 6.5798235 -5.9793844
-3.9986873 6.1647005 4.935
-4.044155 7.0928764 -5.8527575
-4.4482117 7.1303725 -5.5463386
-4.360987 7.1346016 4.526742
-3.794662 8.050047 9.325251
-4.24362 8.478352 -4.195898
-4.0590515 8.701974 9.418711
-3.9367394 8.867768 10.502729
-3.589951 8.246578 10.965743
-4.2007737 9.08593 -3.3666284
-4.2878957 9.637391 -2.4547417
-4.01529 9.433338 7.9717216
-4.432496 9.765692 8.699941
-4.3441873 9.583929 9.446168
-4.5621743 10.451868 -1.9402649
-4.068377 10.679575 7.759439
-4.4765377 10.840946 8.639414
-4.242439 10.192887 10.471624
-4.6389527 11.688172 -1.6017044
-4.000172 11.151356 7.698419
-4.4330835 11.424581 10.83072
-4.0025845 12.2814045 12.94011
-4.466608 12.131369 -1.6606243
-4.575318 12.459469 -1.425529
-4.0554967 12.368403 7.641346
-4.5499735 12.359832 12.422024
-4.1312222 12.854301 13.275198
-4.869962 13.342518 -0.6166192
-4.092269 13.525528 0.7369752
-4.2053714 13.594517 3.4239378
-3.6292062 13.750827 4.4630346
-4.1559196 13.202598 7.8572216
-4.258235 13.332133 13.21112
-4.2191873 13.601345 0.20744638
-4.131663 14.398079 2.5550923
-3.9466467 14.592184 3.6148453
-4.0792694 14.241701 8.169059
-4.537209 14.578617 12.494165
-4.268131 14.208438 13.042172
-3.8220775 15.083768 2.6091828
-3.7128196 15.14279 3.2263653
-4.1956167 14.903825 8.889157
-4.2079344 15.209749 9.264598
-4.305651 15.6030655 11.545967
-4.1467314 15.422077 12.304832
-3.833717 16.080984 11.620264
-3.841234 15.770048 12.512939
-3.0435197 -0.7398819 -7.3809857
-3.1648731 -1.1460278 -6.4131846
-3.116448 -1.1614524 -5.936684
-2.7447538 -0.56136394 -7.83972
-3.3457148 -0.48449713 -7.1045494
-3.4649804 -0.6723803 -6.5941715
-3.4849958 -0.43854547 -5.6625566
-3.0413265 -0.2632173 -4.984109
-3.149356 0.72857285 -8.118313
-3.4785845 0.24235742 -7.387855
-3.324998 0.16802296 -5.139512
-3.8355665 1.4484768 -0.4571909
-2.8741608 1.391143 -8.614577
-3.3365684 1.5269601 -8.3467
-3.0647187 1.8589809 -2.023805
-3.7653122 1.7745198 -1.5047612
-3.529285 1.6580073 0.5700894
-3.4404387 1.8839445 1.1937069
-3.360601 2.1909838 2.4657867
-2.9129093 2.2448752 -8.741913
-3.287294 2.164921 -8.33815
-3.6746583 2.9089344 3.5815732
-2.9773965 3.0738208 4.038372
-3.000114 3.1714618 -8.240548
-3.0392685 3.7482018 4.3901253
-2.9003694 4.020599 -7.7162323
-3.599864 4.182584 -6.956727
-2.9866815 5.268885 -6.833362
-3.137268 5.784539 7.1524205
-2.62896 5.470749 8.304562
-2.7594712 6.180659 9.721581
-2.9922278 6.2989554 -6.52752
-3.3890145 6.652872 -6.288329
-3.4172564 6.396579 6.2729855
-2.899332 6.6016297 7.6384525
-3.129157 6.743985 8.442417
-3.0836825 6.6779795 9.226149
-3.1318288 6.9306517 10.26371
-3.1384861 7.207481 10.838152
-3.5323129 7.2686634 -5.9099183
-3.5038893 6.994574 5.1522546
-3.259632 7.3934937 6.165647
-3.113572 7.89421 7.5869904
-3.409883 7.6733494 9.829359
-3.467887 7.703242 10.565929
-3.1990757 7.900923 11.396986
-3.2774312 7.6266575 -5.7231674
-2.839724 8.435398 5.3166804
-3.4513588 8.404209 11.39953
-3.0210326 8.50698 11.927555
-3.4396632 8.597942 -4.2055154
-3.5155318 8.785031 -3.5175803
-2.9763923 9.628386 4.074367
-3.4270694 9.904331 7.1823673
-2.640541 10.422076 5.756286
-3.0433986 11.55922 4.3341274
-2.9653974 11.257927 6.363007
-3.1826885 12.295339 13.2618475
-3.6161232 12.895034 13.614516
-3.4577873 13.341423 13.719982
-3.603905 14.143042 7.4892616
-3.2056837 14.77152 13.611843
-3.2704105 15.209698 1.860923
-3.3716476 15.517402 2.2654953
-3.3550396 15.339486 3.5419123
-2.8254724 15.028387 4.647026
-3.1243684 15.609813 2.1785522
-3.4065738 15.61901 2.6659384
-3.0628703 15.788661 3.1692019
-2.7326508 16.655203 9.899747
-3.1221886 16.351816 11.425303
-3.2870054 16.225508 12.233348
-2.643232 17.495266 8.649438
-2.389041 -1.6367693 -6.380002
-2.2473874 -1.6357514 -5.7219825
-1.9404812 -0.76706326 -8.197976
-2.6125872 -1.3936417 -6.8681784
-2.6162748 -1.5376468 -6.6940513
-2.4794257 -1.4179026 -5.4732914
-2.0580516 -1.1386191 -4.931446
-2.0878198 -0.10280836 -8.690562
-2.3260458 -0.2108231 -8.469426
-2.1516998 -0.6416366 -4.6358566
-2.0236154 -0.07589407 -4.3418856
-2.5768244 0.6609465 -8.675972
-2.019238 1.7868603 -9.044636
-2.6840675 1.6985154 -1.211109
-2.4117002 1.8506182 0.47650394
[...]
POINT_DATA 1406
SCALARS features_00 float 1
LOOKUP_TABLE default
0.64513624 0.6456336 0.62190354 0.6031381 0.5364907 0.66862094 0.67546296 0.6565989 0.6286105 0.5252311 0.6887888 0.6847733 0.6506223 0.42999494 0.6048395 0.6296787 0.61133754 0.5593647 0.47250462 0.5314429 0.5423285 0.54347533 0.5439573 0.5389284 0.41976914 0.57969105 0.5895716 0.5730494 0.44241917 0.5894486 0.6088989 0.59518516 0.54336154 0.6148447 0.57954186 0.54611844 0.51560503 0.46651173 0.6562617 0.45138508 0.36649108 0.635973 0.4560967 0.45020834 0.5365746 0.51249623 0.51562476 0.4564384 0.39880866 0.5493292 0.522909 0.25147676 0.3469325 0.57897395 0.38954943 0.48826545 0.54437697 0.5710056 0.41224653 0.5204965 0.49792624 0.5956067 0.55078864 0.5318444 0.48984587 0.4554087 0.6008198 0.3239369 0.52910435 0.5723096 0.46631345 0.46981204 0.44442365 0.3975613 0.4172541 0.51211303 0.32780832 0.3552189 0.49891764 0.26912317 0.1363211 0.5015125 0.4258852 0.21724063 0.2252618 0.3062508 0.38509363 0.38768435 0.34800643 0.46137622 0.44753635 0.4091081 0.54038334 0.46227455 0.576862 0.49961168 0.4478771 0.3603441 0.35520393 0.42668515 0.37450808 0.43321615 0.31600738 0.25396886 0.37196806 0.27944094 0.28183863 0.1953974 0.14570837 0.09067507 0.25510138 0.20116726 0.32268888 0.5484114 0.5434956 0.45748663 0.41336977 0.37595937 0.57803 0.59508485 0.5394848 0.46226904 0.6340934 0.59810317 0.51067007 0.5160986 0.34617823 0.3624844 0.3810023 0.23079851 0.34895018 0.22127347 0.22868852 0.17793022 0.25997493 0.079176076 0.19144094 0.13166736 0.29624885 0.27792674 0.26007065 0.38067362 0.3482197 0.338243 0.37910566 0.369398 0.4943199 0.389542 0.35576624 0.42697543 0.45947284 0.4701286 0.50690246 0.60909605 0.63686895 0.6262941 0.474139 0.49971724 0.5040309 0.49824458 0.51240647 0.5087097 0.5130553 0.51456946 0.49530065 0.48220086 0.48672068 0.49890316 0.47829902 0.44089884 0.45470035 0.5619494 0.6030067 0.51363266 0.45558706 0.48818785 0.46319568 0.38124186 0.2411058 0.22657034 0.21364656 0.21946982 0.47512075 0.26528877 0.21985865 0.46606883 0.2430586 0.2760306 0.21030807 0.24450245 -0.13099179 0.2697268 0.25209516 -0.08959226 0.24581628 0.20570059 0.27447522 0.31043065 0.3414298 0.08353118 0.020085886 0.24762015 0.2754431 0.28438514 0.1030063 0.20647141 0.2563472 0.25198162 0.27652505 0.19273803 0.31145602 0.40917036 0.3102266 0.42642263 0.24829376 0.49013758 0.45018667 0.5937139 0.32677144 0.37884676 0.39817023 0.34232008 0.48838893 0.41484407 0.39995044 0.41594845 0.38172168 0.4666846 0.48226553 0.40014863 0.41169876 0.41926184 0.4049167 0.38222903 0.39628893 0.31485102 0.35579532 0.6633973 0.7620112 0.8086927 0.66929543 0.63216007 0.6801556 0.7541063 0.8327433 0.53587115 0.5399871 0.7292055 0.27518994 0.56464696 0.5240946 0.23160261 0.27177653 0.24467622 0.22837052 0.21800217 0.5663184 0.5341625 0.21038315 0.19897225 0.5201053 0.15829259 0.40297157 0.3212432 0.22754845 0.07138332 0.08991381 0.16675381 0.25929093 0.27118146 -0.08448653 0.056694277 0.1293689 0.17507246 0.28307644 0.33864787 0.29285634 -0.21401528 -0.13736203 0.04780355 0.2694394 0.32103533 0.36676514 0.3072607 -0.2794415 0.35653484 0.36044872 0.14169632 0.049344648 -0.33385372 0.09704639 -0.26812047 -0.2214148 -0.08342148 0.19531545 0.34654045 0.35715395 0.24259564 0.38043046 0.32759997 0.3825651 0.41903555 0.3704898 0.3743857 0.40499413 0.41684976 0.14034413 0.2308141 0.27049634 0.22331293 0.85313475 0.85793567 0.7682396 0.7996042 0.8186227 0.8510934 0.8146267 0.72963715 0.7052927 0.80095255 0.76395583 0.6213354 0.6417116 0.2341235 0.2287071 0.21884876 0.21935666 0.21599597 0.5930787 0.21312477 0.20223819 0.5521217 0.5174643 0.29815188 0.05795069 0.091683716 0.18714735 0.27473882 0.10051997 0.13703209 0.26234657 0.36122167 0.2843739 0.37824595 0.26779252 0.35992733 0.3097185 -0.08134757 -0.022475155 0.0038901041 0.0073357187 0.09115827 0.12802334 0.3395257 0.51133066 0.27248842 0.3497671 0.19810066 0.47149986 0.4692812 0.39088607 0.3557519 0.31748453 0.4538383 0.43367156 0.32370204 0.2314701 0.51483625 0.50292444 0.35910323 0.34340668 0.27737582 0.3763786 0.40496266 0.3628996 0.4017728 0.4089378 0.45296645 0.5310124 0.834938 0.8586726 0.84711313 0.74508 0.79845935 0.83579576 0.80642486 0.73293424 0.7562914 0.7098058 0.68517745 0.06595117 0.042821232 0.18796733 0.112596795 0.19286731 0.21272351 0.21093677 0.61383986 0.19906867 0.1940949 0.5916009 0.5777372 0.5667161 0.56858885 0.3959928 0.48724598 0.4783916 0.49954507 0.50747514 0.33313146 0.3404299 0.21984492 0.219048 0.33111858 0.23327778 0.3600576 -0.061732404 -0.12006292 0.20249201 -0.019857239 -0.019730128 -0.033202715 0.224453 0.044277973 0.22147089 0.40606362 0.41930324 0.5210859 0.53672755 0.58911 0.16515093 0.2381558 0.59453845 0.6095096 0.31622726 0.19833988 0.5136231 0.57360935 0.5021037 0.47430563 0.45509523 0.44858474 0.5678394 0.6220006 0.48109207 0.5126493 0.6176591 0.6457977 0.83654 0.68716586 0.74379086 0.81490386 0.8140201 0.7929207 0.6948105 0.66819423 0.74481404 0.6597404 0.64737284 0.43507147 0.1097015 0.60484195 0.6165151 0.59812886 0.6325584 0.090898946 0.16898692 0.503725 0.573939 0.5404253 0.5278412 0.45553964 0.5068259 0.33890864 0.20574094 0.20892459 -0.059192203 0.5163433 -0.010555193 -0.017447032 0.5465305 0.06381853 -0.005503759 0.5778905 0.0908488 0.6128318 0.16893578 0.10973938 0.63899463 0.31432438 0.3090455 0.17202818 0.6793284 0.35564858 0.30706054 0.23162131 0.294926 0.24478802 0.651271 0.67673665 0.45094272 0.53247076 0.43439093 0.41968608 0.6282935 0.4228939 0.4319128 0.51371574 0.63274217 0.6952354 0.6826403 0.6677245 0.68088424 0.69342226 0.77869046 0.6423205 0.63062763 0.6234473 0.62017256 0.53536 0.6006985 0.46908605 -0.040733695 0.51119167 0.58331466 0.60443866 0.581908 0.6029402 0.02917856 -0.10112335 -0.17347753 0.12249379 0.32366157 0.54436874 0.5433208 0.4375489 0.35590637 0.38809693 0.12948564 0.27388573 -0.02213079 0.002417665 -0.04615288 0.24705997 -0.050239682 0.2793037 0.5085914 0.5526966 0.28495333 0.07317729 0.61092895 0.32997322 0.22334589 0.645819 0.50793433 0.46654147 0.33285925 0.26599666 0.6620565 0.52312225 0.4954136 0.40206373 0.29538128 0.236564 0.06553222 0.687069 0.5221769 0.28401297 0.34478942 0.6764952 0.42421705 0.4235522 0.40473494 0.56089675 0.5954914 0.4106858 0.57766706 0.43595922 0.3986799 0.37838316 0.38133794 0.6457141 0.42928365 0.51793957 0.62187386 0.67561746 0.6858095 0.6690788 0.59471226 0.5841207 0.15350002 0.494164 0.4772434 0.54338014 0.48119122 0.36901608 0.12366417 -0.10851053 -0.11030865 0.4951021 0.44410416 0.41425857 0.12316097 0.3650723 0.13503881 0.13554306 0.114516646 0.0024688928 0.08165798 0.16255449 0.32106763 0.54079926 0.5809506 0.30423257 0.35345703 0.6078876 0.6205139 0.4656882 0.39371368 0.6485903 0.52266383 0.52087563 0.62206763 0.55801743 0.5476035 0.6185561 0.5989518 0.56556904 0.48822844 0.45230517 0.2703208 0.10145044 0.31321868 0.5892385 0.6465633 0.6408512 0.6602091 0.49292535 0.46220067 0.45524532 0.44285783 0.3843156 0.4758029 0.6032468 0.68159866 0.48048857 0.47019416 0.46704385 0.44311506 0.47852015 0.28135917 0.48154855 0.45719588 0.38385618 0.45297813 0.38683054 0.4654403 0.4705085 0.54883397 0.595477 0.5553746 0.58965427 0.64307237 0.12183233 0.088035375 -0.042223625 0.1105536 0.14191538 0.20178634 0.21781757 0.443308 0.41522026 0.42393255 0.4070972 0.36150414 0.22995603 0.20137808 0.14982484 0.1723585 0.21992354 0.2715108 0.24344127 0.26685092 0.5949799 0.26885477 0.612287 0.6374309 0.35453042 0.31229532 0.6224499 0.62605697 0.5105901 0.5660378 0.5852654 0.562641 0.34165734 0.525378 0.61475223 0.3534669 0.69072783 0.70308745 0.4058919 0.48906448 0.49247113 0.4571175 0.38591355 0.21469563 0.762027 0.7671714 0.7551187 0.717924 0.48664182 0.47756538 0.46696442 0.48545074 0.32054788 0.27743053 0.49334753 0.462794 0.3611852 0.3873158 0.38862523 0.35156536 0.41031945 0.5105288 0.497984 0.49597263 0.25883466 0.21577713 0.11446017 0.14167853 0.04509753 0.11125989 0.2155587 0.13349679 0.36502105 0.4215464 0.37776345 0.26971713 0.2207867 0.22458708 0.3559875 0.2046772 0.31651253 0.2419166 0.23126644 0.08382186 0.23601972 0.50242966 0.26177558 0.41899782 0.59632075 0.5769703 0.42486262 0.3391382 0.46286684 0.5229207 0.5212607 0.11545489 0.25297627 0.58839476 0.6017759 0.3755827 0.06909692 0.109189495 0.66061056 0.71900356 0.56151795 0.4898921 0.48958766 0.40050033 0.38211918 0.23036711 0.7889034 0.8023525 0.78998226 0.74143654 0.4900726 0.4260051 0.3729036 0.30458963 0.27408132 0.79917896 0.48734766 0.46208236 0.8229228 0.7226503 0.8236879 0.608304 0.31563312 0.75562656 0.7337227 0.13925387 0.7102922 0.07691958 0.11565257 0.13746384 0.46917284 0.4346277 0.16380094 0.32155427 0.1750831 0.30847174 0.3337998 0.28695372 0.36491615 0.24921998 0.41685113 0.22360784 0.4294892 0.21271816 -0.26573855 0.32863483 0.22119795 -0.02855061 -0.27450442 0.3170347 -0.04050778 -0.019145757 0.52370614 0.5089561 0.017157093 0.21635455 0.1368128 0.18025672 0.59812057 0.1455495 0.47512555 0.1889287 0.2151653 0.21769506 0.2108876 0.12697951 0.63207096 0.6836978 0.4954824 0.49512896 0.46116647 0.17004043 0.21580145 0.7333536 0.7707008 0.75386345 0.6964793 0.86424536 0.8211754 0.72853065 0.8781207 0.6383526 0.79048115 0.028963134 0.5908152 0.6055974 0.6461363 0.012078365 0.49640322 0.35147431 0.4659676 0.28795582 0.31065962 -0.1386254 0.2527188 0.27982086 0.22834426 0.25543386 0.24554949 0.32072648 0.3991741 0.25121745 0.39472306 0.2219558 0.35792738 -0.25041777 -0.2767363 -0.26858816 0.15320575 -0.15241942 0.15429188 0.17214939 0.02809142 0.0045002997 0.34019893 -0.020712405 0.28141266 0.31002444 0.26746443 0.087817445 0.110590436 -0.0017874837 0.5247871 0.4136553 0.36024746 0.24042553 0.22232907 0.25027096 0.2663096 0.5648164 0.5590473 0.440642 0.4569766 0.44606858 0.40161997 0.2294775 0.61365247 0.5397202 0.46331984 0.65770745 0.6632467 0.66715896 0.87889045 0.8249438 0.78074074 0.72157604 0.8491223 0.8747637 0.71074486 0.6393707 0.51674914 0.6242559 0.6393055 0.6488086 0.57841223 -0.017592221 -0.004893668 0.61143863 0.56538355 0.45949602 0.55023694 0.37604988 0.0037777498 0.2514565 0.23220828 0.24074847 0.26255393 0.24509072 0.30529958 0.29842883 -0.25414947 -0.089184776 0.27603343 0.16006209 0.2194596 -0.109464385 0.29503775 0.46150944 -0.0070226416 -0.20125312 0.05867774 0.27458426 0.16742823 0.47360098 0.13855773 0.02460111 0.1331084 0.2852176 0.4354194 0.15835555 0.17694628 0.28358096 0.3249684 0.32665718 0.029155768 0.39702415 0.28594336 0.23025632 0.26925263 0.2741035 0.30532223 0.44659796 0.37633336 0.4143886 0.37826443 0.37270278 0.47031206 0.42595983 0.4109102 0.5431682 0.4599113 0.49983138 0.8438703 0.8222823 0.7814024 0.7546871 0.83007413 0.8233104 0.72603965 0.7148001 0.7667434 0.52619225 0.6122122 0.64974463 0.66098166 0.49500716 0.22654384 0.08064242 0.081940524 0.29437834 0.6359012 0.37151492 0.5647712 0.480047 0.19252925 0.02985797 0.23843768 -0.07040602 0.13972887 0.33031008 -0.09158851 -0.03159338 -0.058618143 0.16836973 0.38350713 -0.052129224 0.26375118 0.49419028 0.45254213 0.115437396 0.08931029 0.08613129 0.066631965 0.20635372 0.11942491 0.5435623 0.53162706 0.20148796 0.53671974 0.56710863 0.5345179 0.5587201 0.43045533 0.29373682 0.5193941 0.5115173 0.48462966 0.45190534 0.51477695 0.50284183 0.5818458 0.57731247 0.7037663 0.53591 0.5506558 0.58968985 0.5969894 0.8540293 0.9142778 0.84404755 0.9562739 0.7958773 0.7853029 0.7952914 0.78215396 0.75340843 0.77378833 0.7897854 0.78334236 0.7500632 0.59376395 0.6304874 0.6061608 0.7353388 0.7477703 0.119049594 0.1592274 0.4513833 0.54425347 0.59747183 0.26070115 0.14728624 0.5482725 0.5795708 0.54859364 -0.11264673 0.31782395 0.43713018 0.07381884 0.17077942 0.3929796 0.35115227 0.19367062 0.1382642 0.08032388 0.13763434 0.4048152 0.3840764 0.12862332 0.11222191 0.03018494 0.1961815 0.51545715 0.512184 0.12118375 0.19681326 0.121567294 0.55609703 0.5849738 0.46590906 0.43331587 0.2960439 0.5754341 0.5947207 0.52280205 0.28743386 0.38989502 0.5936353 0.59426445 0.559572 0.45514998 0.42849246 0.5462985 0.5731102 0.5979807 0.6098799 0.60668886 0.5907847 0.7047728 0.5889535 0.60465175 0.79653585 0.87458766 0.682248 0.9911734 0.99653053 0.8956566 0.82789767 1.0 0.4943698 0.034414247 0.16867167 0.19658613 0.17489399 0.18289697 0.35274142 0.4010098 0.33693194 0.62736523 0.58031523 0.31741762 0.2518348 0.26910624 0.62175965 0.23292804 0.21389973 0.19450858 0.3985753 0.20274897 0.18963648 0.33555004 0.3041835 0.06053642 0.029002458 0.17167495 0.20919329 0.16710028 0.07916796 0.16355076 0.20482327 0.063951954 0.21626846 0.21945095 0.3566794 0.28488123 0.0998993 0.15103526 0.14124517 0.21870065 0.34250757 0.46190858 0.29056615 0.25816017 0.25210935 0.5781918 0.58454937 0.532977 0.46781275 0.39464813 0.25546372 0.35373983 0.5973116 0.57959443 0.49309123 0.2794735 0.6160083 0.64643574 0.62158036 0.5956241 0.54664135 0.5423768 0.30360267 0.62404346 0.6499369 0.6353857 0.6166361 0.6021955 0.3652179 0.5997525 0.6265696 0.6246065 0.6164477 0.6086756 0.44311658 0.6256033 0.64929706 0.6594995 0.718133 0.8594084 0.8178077 0.9518134 0.9560514 0.95828795 0.87689996 0.23138452 0.2860825 0.6422152 0.60878545 0.52671224 0.3218242 0.14995469 0.35264885 0.21674836 0.2674172 0.20883815 0.6260588 0.64104325 0.13913327 0.57524526 0.5677135 0.12765938 0.1834132 0.45927083 0.5154282 0.36615717 0.21212992 0.23496114 0.23759279 0.40203935 0.44594383 0.39008498 0.30221555 0.31164232 0.2677524 0.2925227 0.41803324 0.32640946 0.26298097 0.44243404 0.3612547 0.36911044 0.38135093 0.38207978 0.3873714 0.31983805 0.44960418 0.3374708 0.57163864 0.3755424 0.6560529 0.5042498 0.51451457 0.74712956 0.5328382 0.61430955 0.7507177 0.7753894 0.8478676 0.79808897 0.75739896 0.8765019 0.9097053 0.9092018 0.8702185 0.43527296 0.3949241 0.6400254 0.622493 0.5579744 0.519019 0.5275384 0.35453516 0.64265263 0.6226986 0.52120376 0.41521698 0.269618 0.17452472 0.08966534 0.6065424 0.5972265 0.18026328 0.07013685 0.51082647 0.31706855 0.07120535 0.3054726 0.33196586 0.4326565 0.4651566 0.4134837 0.35078326 0.3846529 0.4117815 0.40887934 0.39297438 0.4449102 0.45135695 0.44297945 0.4136106 0.36688644 0.44317052 0.44256267 0.4347481 0.42750534 0.4301234 0.43336445 0.427093 0.4266628 0.41151834 0.40620962 0.42918858 0.4462598 0.45193905 0.41205817 0.5224923 0.35002053 0.39954078 0.6289841 0.39186427 0.7694606 0.4225008 0.80805206 0.59073293 0.7170863 0.8138232 0.8001359 0.77199364 0.81786674 0.84106266 0.8005084 0.7992877 0.6278626 0.6198989 0.64620394 0.5620161 0.5040592 0.5991144 0.64766467 0.39595568 0.3526119 0.65645635 0.4270509 0.36682445 0.59165394 0.5752092 0.5261818 0.48855877 0.4333566 0.5431944 0.46785802 0.43370703 0.42855892 0.42472124 0.43256164 0.42475742 0.5024215 0.49242827 0.5696141 0.4395755 0.5395214 0.5964532 0.61812073 0.6581091 0.49466833 0.5956222 0.64082026 0.6659685 0.73860425 0.6251994 0.689514 0.76803184 0.7906713 0.750298 0.78198576 0.8107963 0.8147596 0.8105682 0.8116686 0.66074246 0.6834528 0.6937225 0.6770003 0.72110313 0.7389785 0.7259859 0.6557296 0.7337463 0.73369795 0.6928123 0.61648667 0.6444198 0.6039895 0.5248134 0.67453635 0.6907604 0.71855825 0.7509229 0.7676628
SCALARS features_01 float 1
LOOKUP_TABLE default