# vtk DataFile Version 2.0
Really cool data
ASCII
DATASET POLYDATA
POINTS 6760 float
-6.6709385 5.2443657 16.545235
-6.6891956 5.2858267 17.437502
-6.7296205 5.803756 15.07614
-6.8103614 5.626917 15.5796385
-6.894701 5.6850147 16.407505
-6.8528643 5.72413 17.452
-6.6982427 5.6278915 18.041746
-6.798155 6.493773 15.035126
-6.9802465 6.4155416 15.598306
-7.037403 6.5263305 16.530964
-6.950507 6.391884 17.41113
-6.6772237 6.4663124 18.238403
-6.685304 7.04263 15.057854
-6.805879 7.194815 15.583693
-6.848563 7.3137703 16.540163
-6.7002053 7.35198 17.558376
-6.6092353 7.1658244 18.0133
-6.68931 7.7730346 16.632107
-6.175111 5.269128 15.096291
-6.2319846 5.084841 15.565368
-6.3562355 5.0532928 16.20396
-6.298576 5.00589 17.517412
-6.173244 5.0884976 18.191414
-6.430091 5.795873 14.858809
-6.57757 5.4328365 15.261172
-6.444792 5.5757937 18.381433
-6.2930803 5.597009 18.713543
-5.992954 6.561609 14.407803
-6.3464575 6.445238 14.639252
-6.5155554 6.485715 18.47553
-6.2845707 6.2039948 18.77907
-5.90556 7.0917945 14.404012
-6.159388 7.4027414 14.766077
-6.561528 7.700084 15.834702
-6.5210314 7.72675 17.7986
-6.253854 7.4979963 18.401012
-5.8684983 7.536504 18.700195
-5.993049 7.8891077 14.935069
-6.2161703 8.029757 15.555776
-6.2106104 8.38012 16.512735
-6.1709814 8.478811 17.54195
-6.0863967 8.132483 18.21271
-5.897046 8.910152 16.736433
-5.828984 9.021689 17.497908
-5.7528143 5.1500163 15.165307
-5.7460594 5.000063 15.411121
-5.62364 4.6912975 16.545847
-5.4326563 4.7525716 17.447819
-5.5558605 4.8161173 18.223827
-5.698202 5.5661254 14.691455
-4.829182 5.723131 20.90494
-4.7548575 5.536512 21.493986
-4.6802893 5.683228 22.029646
-5.6352525 6.5013824 14.377563
-5.284139 6.511534 19.532673
-4.9489737 6.6070337 20.866112
-4.901901 6.200616 21.567118
-4.7377453 6.1965823 22.068998
-5.4637413 7.2815566 14.385939
-5.652047 7.506972 14.516992
-5.5221944 7.2594447 19.283361
-4.727373 6.878772 21.453094
-5.468162 7.9980264 14.787764
-5.5978293 8.549366 15.715169
-5.566935 8.758545 18.606628
-5.340563 8.2768545 19.04055
-5.128255 9.0326605 15.97674
-5.256439 9.403663 16.764734
-5.493095 9.371882 17.309637
-5.61461 9.162548 18.055153
-4.830608 9.170139 19.221796
-4.803048 9.800219 17.03132
-5.1221437 9.667501 17.185236
-3.7792037 3.0924065 15.739429
-3.679184 2.9334486 16.332333
-3.6828012 3.4249995 15.2674885
-3.9024494 3.4276552 15.626258
-3.9949956 3.438963 16.06997
-4.4039073 5.071191 21.596113
-4.143631 4.975597 22.154
-4.9148655 5.4613485 14.939198
-4.727161 5.5167346 19.28979
-4.4244184 5.654246 22.377737
-4.0005326 5.5691633 22.831396
-4.454306 6.772862 14.461605
-4.435445 6.4041157 22.392933
-4.0461373 6.1422467 22.852678
-4.702043 7.24621 14.37636
-4.7956114 7.7481823 14.537441
-4.538034 7.2372656 20.728117
-4.132308 6.983372 22.161842
-4.63515 8.20034 14.822339
-4.442344 8.610503 20.070282
-3.8749847 8.203904 21.03355
-4.2445674 8.84964 15.301365
-4.658044 9.32818 15.935898
-4.434559 9.779524 19.544447
-4.243417 9.56949 20.644648
-3.670225 9.509775 21.52552
-3.8885899 9.822676 15.995554
-3.710624 10.345143 16.946896
-3.9014907 10.53418 18.082285
-4.1227293 10.321153 18.510078
-4.2666245 10.457841 19.647207
-4.1891394 10.57122 20.432388
-3.983696 10.440454 21.20334
-3.6591089 10.581862 21.747252
-3.7201874 11.188094 18.998228
-3.8535323 11.329837 19.581318
-3.9198737 11.22029 20.54887
-3.8193474 11.053894 21.19064
-3.5969741 19.009739 21.864944
-3.623263 19.713108 20.099056
-3.7374806 19.609468 20.633333
-3.69254 19.487614 21.489538
-3.5786977 19.696754 22.158035
-3.6033869 20.141554 19.900251
-3.7202659 20.255373 20.54017
-3.7379425 20.077229 21.373356
-3.6095917 20.168196 22.039013
-3.543546 20.992054 20.683025
-3.041983 2.3163407 15.812668
-3.025485 2.262833 16.371143
-2.824047 2.2792578 16.823889
-3.1609814 2.8774757 15.073818
-3.364578 2.6468644 15.600344
-3.3581405 2.5224628 16.482126
-3.1891596 2.833217 17.25697
-2.7851691 3.1735206 17.810368
-3.2386656 3.4450214 14.842407
-3.2668006 4.299278 20.311468
-3.2256746 4.303689 21.478142
-2.9002614 4.373982 22.099855
-3.2221386 4.492098 14.982502
-3.4782119 4.3718257 18.734587
-3.5979679 4.799097 19.74613
-3.6010692 4.490961 20.441235
-3.6640494 4.5239167 21.62334
-3.361821 4.6631002 22.419273
-3.4466295 5.065579 22.932709
-3.3826954 5.5961633 23.160622
-3.3028703 6.9779887 14.669101
-3.4241972 6.2551193 23.067675
-3.286425 7.1738434 14.502824
-2.9194887 7.5299892 22.27228
-3.5974507 6.920909 22.754257
-3.0491405 8.580201 14.946729
-3.2921615 9.12377 15.124122
-3.359575 9.188381 21.613283
-3.093827 9.723837 22.00558
-3.4026065 9.859075 15.808197
-3.3153641 10.424974 21.970016
-3.0753868 10.750714 16.702278
-3.4017227 11.408432 21.260607
-3.1680503 11.028601 21.8798
-3.3371289 11.842356 19.67705
-3.4577558 11.753484 20.460476
-3.3839407 11.630761 20.94236
-2.5909698 17.022734 17.744808
-2.66003 17.176218 19.969002
-2.776027 17.058098 20.54182
-2.6815257 16.846872 21.512737
-2.599812 17.469635 17.377722
-2.720942 17.442017 18.605188
-2.7934313 17.765503 19.197481
-3.0061426 17.655264 20.71229
-2.9713778 17.43119 21.528513
-2.752346 17.660458 22.171059
-2.6901956 18.281572 17.712414
-3.4801002 18.743582 20.588877
-3.4033947 18.503763 21.275509
-3.287021 18.776266 22.133642
-2.7231584 19.777931 18.116173
-3.016335 20.032501 18.829086
-3.4060612 19.625076 19.72624
-3.394785 19.555225 22.404127
-2.9184022 19.658426 22.960617
-3.2136858 20.635 19.092175
-3.417397 20.401466 19.630718
-3.514947 20.68452 21.582554
-3.2947643 20.356224 22.437849
-2.9670143 20.22512 22.834951
-3.2437003 21.686728 19.641562
-3.309662 21.376682 20.552696
-3.359494 21.073969 21.453598
-3.0016227 20.911503 22.341412
-2.8731256 23.024797 18.2079
-2.917604 22.525932 18.528887
-3.1030865 22.44097 19.41496
-2.8385842 23.46347 18.124424
-2.9669988 23.677273 18.675392
-3.0303276 23.750017 19.36907
-2.7337399 24.12482 18.084166
-2.834057 24.326967 18.706427
-2.8683448 24.327541 19.438557
-2.7475955 24.346346 19.999016
-2.6056569 24.83693 18.982025
-2.6650436 24.817455 19.562038
-2.3202193 2.3078406 15.132882
-2.4365547 2.1655579 15.507981
-2.5963204 2.0853138 16.593388
-2.1520753 2.175839 17.228565
-1.8747593 3.1161335 14.383017
-2.49728 2.776457 14.841389
-2.7293422 2.6376216 17.481075
-2.289532 2.8738234 18.266996
-1.9704224 2.9465694 19.440748
-1.9272078 3.0578756 20.647383
-1.9921485 3.465017 14.269688
-2.6196775 3.4289956 14.5568285
-2.0767584 3.3414912 20.43154
-2.3373387 3.7826862 21.011618
-2.5691075 4.223935 22.354324
-2.3392534 4.1754823 14.314358
-2.5507355 4.550733 22.804634
-2.474458 6.462713 14.323791
-2.4651508 6.0464544 23.262201
-2.4347878 7.797013 14.563146
-2.757097 7.3894463 22.624186
-2.4721675 8.359087 14.761854
-2.037137 8.359559 22.375315
-2.706868 9.3404455 15.099405
-2.2967012 9.791872 22.366602
-2.487342 10.018339 15.388472
-2.8546534 10.432869 22.198643
-2.395571 10.863697 16.068106
-2.5379074 10.986288 16.65807
-2.2617433 11.298434 17.259752
-2.4709787 11.095012 21.974657
-2.353155 11.609745 17.944382
-2.0552127 11.892354 18.843801
-2.591935 12.052936 19.535
-2.0533295 12.06941 20.461191
-2.3604732 11.800167 21.191004
-2.1809144 16.254684 17.147211
-1.9451673 15.941003 17.491629
-2.3253598 16.183445 18.087702
-1.795274 16.09145 19.203537
-1.8675599 16.208227 20.736015
-1.8717573 16.993704 15.957069
-2.3091023 16.852577 16.810877
-2.422448 16.631386 17.518595
-2.3834229 16.46695 18.175756
-2.2659714 16.802408 19.760313
-2.174337 16.48037 20.304
-2.4599965 16.634083 21.531065
-2.2551553 16.856525 22.070986
-1.6685834 17.876905 15.25895
-1.9336753 17.51122 15.791437
-2.4382415 17.631935 16.648273
-2.501168 17.151478 17.191198
-2.423446 17.204697 19.309456
-2.59302 17.649734 22.447266
-2.391783 18.086357 22.781826
-1.6885203 18.430225 15.10575
-2.0838437 18.491367 15.864331
-2.418052 18.751469 16.610321
-2.4865737 18.850853 22.964594
-1.651753 19.106182 15.313401
-1.9803979 19.365757 15.890234
-2.2803366 19.228077 16.40465
-2.470271 19.245214 17.305845
-2.5250785 19.672289 23.164022
-1.9090132 19.862822 16.164219
-1.9981514 20.17851 16.686382
-2.1273506 20.641533 17.789322
-2.4447653 20.29178 23.08697
-2.512329 21.33293 17.933928
-2.3431962 21.500769 22.406315
-2.3426476 21.078468 22.798046
-2.138327 22.378908 17.684761
-2.5542676 22.086224 18.38579
-2.4232597 22.725115 21.261059
-2.143149 21.961227 22.143621
-1.6583856 23.624884 17.04422
-2.5270512 23.47797 17.718967
-2.0393095 23.250868 21.236801
-2.2457032 24.451033 17.657068
-2.407631 24.400845 20.508253
-2.1400013 24.319016 20.851286
-1.8868432 25.246307 17.733871
-2.231936 25.121614 18.361916
-2.2908955 25.160196 19.551142
-2.178413 24.95749 20.218966
-1.7464387 25.694855 18.270082
-1.8648005 25.644539 19.111675
-1.6798164 2.2078912 15.036158
-1.3504932 1.8206656 15.685537
-1.3585981 1.8567722 16.430454
-1.1804199 1.9352678 17.077425
-1.527491 2.42165 18.504185
-0.9280095 2.0527463 20.563852
-0.934301 1.8872666 21.595425
-0.6382446 2.068872 22.545542
-1.3997089 2.973062 14.332602
-1.3985926 2.5703838 14.584399
-1.127382 2.4679437 19.94359
-1.3513578 2.4752784 20.80525
-1.4592407 2.6398861 21.286251
-1.2487775 2.8514125 22.27154
-1.4923494 3.5909555 14.102835
-1.5784674 3.310017 22.028378
-0.6088842 3.4331434 23.18842
-1.2834774 4.372452 14.047256
-1.6607441 4.4444327 22.59457
-1.8341576 4.311528 22.72634
-1.2325923 5.76113 14.070064
-1.0863675 5.311522 23.291994
-1.4506823 6.548996 14.159374
-1.5016893 6.2174587 23.16237
-1.4475533 7.1129146 14.31427
-1.6157516 7.5667 14.589742
-1.406529 9.172126 15.272759
-1.2041888 8.968438 15.475254
-1.5389215 9.849533 22.469017
-1.4806178 9.846688 22.553883
-1.2785994 9.848997 15.349403
-1.6381929 10.296417 15.565851
-1.3450165 10.505812 22.219584
-1.9699793 10.737923 15.785173
-1.946628 11.433953 21.571674
-1.9399621 11.1045 21.921907
-1.7389015 12.101468 19.892794
-1.2104459 12.085537 20.283354
-1.0217167 16.223845 15.947767
-1.2203751 15.985345 16.641378
-1.7055347 15.799649 17.190237
-1.6408577 15.747209 18.888689
-1.2718867 15.768059 19.47902
-1.4532156 15.9039545 20.807043
[...]
POINT_DATA 6760
SCALARS features_00 float 1
LOOKUP_TABLE default
0.6899688 0.64840966 0.79591215 0.7688826 0.7415279 0.65428823 0.60499096 0.81285703 0.8243956 0.76022583 0.6329458 0.5305474 0.7680189 0.75947213 0.6655985 0.5282577 0.49295107 0.59408236 0.72624874 0.6804861 0.65665364 0.61381876 0.57015 0.78971946 0.7568527 0.5659361 0.5258373 0.74390006 0.7877742 0.4964886 0.47561702 0.6900874 0.6945179 0.67055595 0.47499877 0.41489616 0.3561882 0.6333089 0.6240052 0.536997 0.46135634 0.4054419 0.47962624 0.43079618 0.660751 0.62109995 0.49958712 0.48980707 0.4869331 0.72700983 0.470714 0.56661564 0.617201 0.7096629 0.29283637 0.3328735 0.5235576 0.5818414 0.6179502 0.63158107 0.26756147 0.41001654 0.57291347 0.5239389 0.3253113 0.25139675 0.43866232 0.40267396 0.40034014 0.36719713 0.22283693 0.33237088 0.35766676 0.57880795 0.5390829 0.5584482 0.54000276 0.50093234 0.5811118 0.61690956 0.59386665 0.3279039 0.6459991 0.6620214 0.48608088 0.5874193 0.6334276 0.48768348 0.4803207 0.2025263 0.4888062 0.44723624 0.13776024 0.2027585 0.3983155 0.3922124 0.3094004 0.36441898 0.4140854 0.36773232 0.3020657 0.26487398 0.29142618 0.42096776 0.5045862 0.536172 0.5520866 0.42659003 0.5136553 0.581983 0.5966821 0.58320343 0.40064603 0.4737438 0.5478817 0.59075606 0.36092234 0.4469605 0.5323658 0.5800401 0.44078964 0.60938877 0.5552412 0.47693813 0.60490143 0.61047876 0.5400901 0.38461924 0.2144519 0.5696116 0.13092953 0.32624513 0.38418472 0.46273905 -0.016025595 0.12888487 0.22011301 0.45229858 0.5251317 0.6066148 0.62860817 0.25275758 0.5869489 0.24590257 0.27773127 0.5078708 0.26603165 0.32733262 0.3412212 0.3919263 0.38476336 0.50927174 0.3614776 0.63198483 0.5686525 0.5839462 0.63972235 0.6480156 0.37871394 0.32887393 0.38145918 0.48568153 0.3836173 0.32032412 0.28545418 0.41249225 0.5162002 0.5694063 0.32493275 0.45046967 0.52941805 0.6076052 0.16015525 0.18949884 0.33500102 0.6077467 0.62036777 0.21216759 0.3024599 0.55157876 0.5989019 0.6050602 0.29381967 0.42090487 0.5435031 0.5818116 0.36840588 0.3037802 0.32963422 0.42961967 0.48706648 0.5227269 0.5189176 0.56294006 0.5773092 0.5743196 0.5939722 0.58976054 0.5899255 0.6110854 0.51160216 0.37117875 0.5208648 0.5791531 0.3342906 0.1252921 -0.042097572 0.058317006 0.5113158 0.5538588 0.03259265 0.1327501 0.35129675 0.48204982 0.43357942 0.19404566 0.46637473 0.17904983 0.29090208 0.20021585 0.06383292 0.29830033 0.2935934 0.35514587 0.4586094 0.41302377 0.3832249 0.32592022 0.5217315 0.33085263 0.40267092 0.5437788 0.5821142 0.652223 0.44342184 0.4403495 0.38444826 0.33233052 0.38003376 0.47554135 0.44227332 0.4060942 0.37023744 0.3247058 0.35465556 0.4777508 0.511981 0.47806346 0.46491134 0.41736168 0.40802693 0.31059247 0.5624325 0.56596136 0.45784706 0.4164242 0.35648325 0.6107255 0.4058206 0.351386 0.32545686 0.2551753 0.61269945 0.28387466 0.2052535 0.09156186 0.5841955 0.11884041 0.46764007 0.52055347 0.22195427 0.22836211 0.3656707 0.3787449 0.37858403 0.40036812 0.3404226 0.52931225 0.53635246 0.482484 0.5804473 0.59943753 0.58318394 0.55374455 0.5988071 0.5861474 0.52904856 0.5003171 0.47197786 0.3512724 0.09033305 0.11408839 0.17683245 0.17338032 0.49210614 0.5021535 0.028299704 0.11587783 0.1459276 0.15063669 0.4610868 0.14248326 0.018546313 0.3403309 0.29738072 0.30428162 0.18182705 0.16661899 0.1556716 0.2226299 0.13319393 0.12719843 0.13974805 0.09049121 0.18138017 0.16033976 0.19960618 0.32520714 0.2860824 0.3973491 0.56942105 0.47977635 0.4625075 0.41267025 0.44314486 0.4347463 0.44964308 0.35801157 0.30258995 0.3533994 0.40759513 0.4734577 0.4910339 0.4836576 0.47453517 0.44568306 0.51083344 0.49002922 0.4753216 0.47807544 0.5294522 0.42434093 0.35760456 0.54699206 0.23838155 0.45807987 0.060025096 0.4200694 0.20269863 0.2665883 0.29641598 0.32107532 0.29108864 0.3780381 0.29990518 0.26086187 0.47112775 0.4151006 0.5199873 0.5615755 0.5551959 0.53879917 0.5044661 0.51791775 0.5641736 0.5869986 0.54868877 0.41904747 0.42345148 0.41108853 0.4089577 0.4072105 0.38719726 0.13527302 0.16756052 0.18148607 0.36918876 0.3737725 0.3516635 0.45651367 0.38791916 0.22904047 0.037180156 0.12587291 0.16585314 0.187808 0.14501137 0.16837578 0.22341105 0.31526834 0.38996276 0.4430889 0.41537344 0.12332812 0.26306075 0.3352165 0.4546307 0.35155028 0.09014523 0.21807523 0.37976354 0.46114558 0.21923427 -0.17724223 -0.07807383 0.13796239 0.08950852 0.13876365 -0.0070368648 0.04941234 -0.084885865 0.021149028 -0.088580914 -0.19992965 -0.106055915 -0.06823729 0.1382251 0.022396192 -0.12906456 0.29635033 0.06460656 0.24172881 0.3567525 0.31953374 0.33281806 0.38068014 0.36185724 0.2172626 0.30987817 0.3037973 0.19690819 0.15789622 0.38382325 0.34700322 0.26574683 0.32853332 0.5021472 0.42561868 0.33216968 0.51371014 0.4921432 0.26497295 0.33918262 0.32308346 0.39942503 0.3496096 0.44690758 0.4106259 0.25610054 0.31246525 0.4532159 0.43940216 0.30524442 0.23215719 0.38438532 0.4283135 0.3119923 0.4445722 0.43715793 0.48236668 0.48126718 0.5498068 0.4887382 0.49810797 0.4115864 0.43891037 0.45265734 0.45677882 0.3596154 0.41445416 0.43216133 0.42873037 0.42722845 0.05363629 -0.013545599 0.28448492 0.39460585 0.35757035 0.11133564 0.07730321 -0.0052369013 0.0842264 0.3473207 0.34182417 0.37206638 0.25457257 0.2520567 0.19947974 0.4083522 0.5052135 0.51693 0.5315781 0.48626757 0.51334023 0.065947294 -0.042264745 0.24767843 0.35209376 0.43866512 0.48058105 -0.2244163 -0.10316099 0.05757816 -0.15175164 0.002408158 0.13921338 -0.11563122 0.094359174 0.17304435 0.13241522 -0.11701138 0.03043019 0.13495898 0.16454916 0.12873106 0.019172706 0.030735418 -0.18125792 0.26276213 0.26136708 0.25612423 0.1977687 -0.027745664 -0.022539541 0.16274191 0.18216535 0.3293612 0.2838872 -0.0886015 0.30752084 0.37161466 0.32984734 0.28280312 0.09418317 0.13009804 0.16150115 0.18268955 0.16737907 -0.10770122 0.3374682 0.28868553 0.28874665 0.19956604 0.2485762 0.24291705 0.40548912 0.05351843 0.46120548 -0.061923116 0.57711256 0.55208886 0.46850535 0.39457172 0.61619097 0.60684824 0.51768327 0.24508616 0.6167117 0.6362828 0.6082696 0.10548492 0.20860493 0.60634375 0.3431705 0.24384093 -0.013132993 0.2349823 0.4193682 0.4399673 0.14964397 0.4696977 0.46036068 0.4418704 0.13614711 0.4821935 0.47640315 0.4442491 0.37504822 0.20421138 0.2698021 0.25310454 0.36025193 0.461182 0.47334975 0.4199099 0.46016258 0.47565806 0.43652374 0.46738234 0.48142722 0.4593252 0.4669569 0.39843816 0.45028424 0.50452423 0.55509394 0.5760059 0.33704934 0.40372407 0.4320082 0.48065796 0.5270052 0.5541799 0.09180348 0.13848804 0.28081173 0.4227547 0.49939972 0.083539225 0.062515944 -0.024279121 -0.057397097 -0.025022976 0.0005744919 0.38989696 0.08243379 -0.021223975 0.39353862 0.4684688 0.49039814 0.102732256 0.52465206 -0.020998046 -0.0668741 0.5102872 0.5180007 -0.13899183 -0.17299946 0.4197364 0.46390694 -0.22369663 -0.13779256 0.09611439 -0.10478319 -0.08937581 0.054114718 0.118124984 0.15115839 0.24338233 0.20299909 0.1827656 0.25972998 0.23075947 0.16555274 0.23128045 0.17553426 0.08244187 0.12117293 0.13818245 0.09134377 0.008905411 0.13969564 -0.31551975 -0.11372328 0.20789135 0.19113398 -0.041397627 -0.11354495 -0.5260717 -0.08126782 0.2832746 0.20653386 0.19385225 0.058228314 -0.027408512 -0.1419473 -0.135723 0.01508325 0.23065138 -0.003807146 -0.049418796 -0.13103928 0.204712 0.21114889 0.17699079 0.19693483 0.19465289 0.37743795 0.3429917 0.33273262 -0.29564664 0.10183525 0.14031096 0.45488137 0.5359168 0.49069905 0.3825457 0.248643 -0.034277033 -0.29530987 0.51242614 0.57314885 0.41902363 -0.15089896 0.49691838 0.5613806 0.17928419 -0.25546402 0.5563743 0.1260551 0.16989464 0.29301438 0.36711794 -0.19043702 0.42839196 0.43532306 0.13456501 0.43506068 0.4796427 0.4842316 -0.104965 0.46709496 0.39668697 0.098521315 0.08526845 0.15550114 0.14788099 0.053573724 0.08272888 0.28394887 0.31204462 0.12195557 0.51605594 0.55364007 0.58340806 0.550348 0.49183726 0.4417832 0.49565992 0.5125037 0.34003946 0.31849253 0.400003 0.4579572 0.51348215 0.536316 0.40697515 0.44057888 0.4949268 0.52282834 0.40787214 0.48640257 0.47524512 0.4264465 0.39303127 0.43602973 0.34368193 0.36568856 0.40248436 0.46042174 0.42466167 0.4413189 0.5266572 0.5598995 0.2622422 0.3613081 0.37838268 0.3415347 0.25540963 0.24593091 0.3402242 0.39567482 0.45029688 0.5229967 0.57159966 0.58759725 0.5797189 0.26968288 0.28511515 0.28301352 0.2122209 0.17744917 0.2278479 0.31516433 0.5661074 0.55156887 0.042162485 0.120244585 0.09776092 -0.1155726 0.47120512 0.09596242 0.36837214 0.07284714 0.3490414 -0.074728936 -0.06139955 0.45168126 0.20127782 0.018098637 0.49139538 0.22937311 0.19964555 0.41584024 0.4655758 0.22066268 0.1789135 0.03160382 0.39472908 0.07398354 0.054897323 0.034597352 0.14656457 0.08754836 0.10927438 0.20907953 0.11863543 0.26233852 0.14606635 0.12789845 0.09917231 0.22973962 0.19559959 0.026200257 0.042524442 -0.041020155 -0.20274705 -0.40699983 0.13104549 0.12277675 0.020508796 0.0279129 -0.031124078 -0.095043585 -0.33503357 0.15617031 0.05875987 0.17568621 0.16867867 0.043546 0.17615184 0.34672683 0.29365975 0.21459997 0.21547459 0.13762152 -0.07383569 -0.061079286 0.1951575 0.35756996 0.3052405 0.27799046 0.08292188 -0.24788396 0.2068119 0.28036335 0.34686792 0.058530398 0.6759455 0.3778 0.39828742 0.72989273 0.7864512 0.34819382 0.41209984 -0.016501147 0.28628802 0.47333103 0.5925928 0.72264373 0.7575076 0.42581344 0.3102784 0.17560616 0.43264037 0.5506419 0.6647004 0.1186275 0.26467305 0.34084752 0.40361398 0.49452737 0.35182387 0.2063649 0.27124262 0.38714084 0.38577223 0.06975253 0.3965841 0.42250872 0.37579072 0.17982884 0.020419251 0.095157266 0.053564966 0.28868937 0.19138606 0.5148176 0.4645335 0.449287 0.49003136 0.575287 0.60052884 0.5959756 0.6007552 0.8259682 0.8309344 0.7490444 0.7981416 0.82043135 0.7479093 0.54729515 0.664251 0.7141723 0.7250127 0.47955662 0.5452658 0.5473192 0.49260142 0.50394803 0.516384 0.51312387 0.4201892 0.4172615 0.52275044 0.42312402 0.18928723 0.4441154 0.124881975 0.08666818 0.15165976 0.3342699 0.060727887 0.051464234 0.26551372 0.22272672 0.15575355 0.26814747 -0.03224849 0.20695442 0.2500252 0.2568032 0.23020709 0.20365971 0.43374467 0.450527 0.5381577 0.5574827 0.015248716 0.025124263 0.11849525 0.21189475 0.004826799 0.08788817 0.20554723 0.25758493 0.25735527 0.23182382 0.16043925 0.11024602 0.36649394 0.58000624 0.5790228 0.52282465 0.48106134 0.18153244 0.07889025 0.11099713 0.15852845 0.18740927 0.19699252 0.13534346 0.100762844 0.23031119 0.19484949 0.5133407 0.5493464 0.51720977 0.101009704 0.061347097 0.03685023 -0.049782954 0.1667546 0.43003452 0.5677451 -0.10505053 -0.04196628 -0.05495526 0.25105938 0.15276836 -0.15951942 0.034926172 0.20154786 0.25641274 0.20662108 0.13914563 0.058587644 0.37577027 0.2548486 0.23763421 0.19489317 0.39854026 0.24549231 0.24374124 0.4006045 0.24534993 0.2340124 0.07807842 0.1975799 0.03584446 -0.05406294 0.07292439 0.047726415 0.13892506 0.13756648 0.19228299 0.09962987 0.14022346 0.1036453 0.1431614 0.10636361 0.11371283 -0.012695998 0.1624549 0.43184412 0.07487166 0.06810033 0.10821767 0.14626028 0.49903935 0.57306397 0.0069484115 0.029845692 0.2213873 0.44757402 0.57962656 0.19861087 0.13992806 0.042943344 0.22974756 0.46131122 0.5495939 0.34759504 0.26548755 0.15431266 0.17950657 0.104867086 0.13790552 0.23297721 0.46390554 0.37227392 0.31870946 0.19613041 0.16278015 0.46252728 0.44401473 0.3893965 0.39225507 0.33456546 0.7971684 0.8170123 0.20767505 0.24906766 0.8291468 0.25157803 0.8107031 0.27724907 0.6577786 0.749623 0.51720667 0.58489126 0.1268281 0.2538115 0.33633378 0.14606123 0.23950323 0.1252915 0.10472776 0.28796822 0.24027885 0.10167947 -0.16510867 -0.044571538 0.0217662 0.055850737 -0.10532521 0.29163843 0.10675031 0.13038254 0.19485614 0.4509582 0.5530555 0.60857046 0.55804163 0.5856292 0.60870767 0.61628723 0.8229814 0.8182498 0.7335216 0.75554013 0.7967287 0.646438 0.42154884 0.6423249 0.3775311 0.4037804 0.45164657 0.4045334 0.4175626 0.32033765 0.43858773 0.38065022 0.21981773 0.35644785 0.05723755 0.08538599 0.26022792 0.14787176 0.055232286 0.08501813 0.18809767 0.12924987 0.17243445 0.17056191 0.13527343 0.29030547 0.29845813 0.12358388 0.10926486 0.22382192 0.18289424 0.15568799 -0.07675931 0.36478403 0.47702435 0.4927343 0.41756213 0.41137147 0.34144777 0.05694841 0.23576255 0.550294 0.55330706 0.48646182 0.5007307 0.40322837 0.32739 0.09749341 0.5008003 0.510636 0.57573974 0.595891 0.4389171 0.29097062 0.07092037 0.06198275 0.3327687 0.7247549 0.7145699 0.64498353 0.63037646 0.58765113 0.5130242 0.105218396 0.09634597 0.002422385 -0.12570089 -0.2959972 0.28151044 0.745957 0.73387575 0.6364951 0.6169348 0.0673955 0.14390673 0.26145944 0.2300808 0.2593651 0.24085128 0.23908854 0.15040019 0.25087988 -0.024136752 0.24270225 0.2241061 0.026650928 0.13868071 0.038215734 0.046857733 -0.14764115 0.1810506 -0.005032152 0.21199378 0.049361542 0.0075904904 0.20677847 0.076444745 0.5000295 0.6170531 0.64288753 0.6666163 0.09073151 0.5238535 0.6230072 0.6387958 0.66832244 0.13055079 0.11451155 0.63152313 0.6774764 0.12280958 0.089246705 0.6517459 0.67595017 0.16454218 0.19600815 0.5245787 0.6397639 0.40425196 0.24676229 0.3249194 0.5647595 0.5994463 0.4837486 0.48505902 0.045424253 0.46193844 -0.137226 0.4766578 0.39839578 0.32841367 0.81087315 0.28567117 0.83568203 0.13738726 0.07600867 0.8131807 0.38036087 0.36344063 0.21561326 -0.11077252 0.7505865 0.4988498 0.4658255 0.5022594 0.6746863 0.5142379 0.49176374 0.43003467 0.20979 0.49791753 0.4700104 -0.008146435 0.035194714 0.056629516 -0.110088974 0.023073733 0.060744546 0.052311644 -0.05003518 -0.27318528 0.11986503 0.12209047 0.13688722 0.26827854 0.23715419 0.10025997 0.42466295 0.4006259 0.27434993 0.34233356 0.35488862 0.5090152 0.5620152 0.57064116 0.35843828 0.40493545 0.4359167 0.55929744 0.5859574 0.5965903 0.4011197 0.44117534 0.46385837 0.7996621 0.72991216 0.6215576 0.7331172 0.52543914 0.42454588 0.5163692 0.33922398 0.27461874 0.25435933 0.3109301 0.24628222 0.3386339 0.24337834 0.32316804 0.27962232 0.17034453 0.2710547 0.24066725 0.043978006 0.13742101 0.017917909 0.044617094 0.06351319 0.17707188 0.14991315 0.014545003 0.059637878 0.08989847 0.034520254 -0.019909337 0.2555752 0.24028365 -0.021933265 0.13635522 0.2559883 0.40920016 0.2743449 0.3278299 0.45192206 0.5806575 0.35142866 0.4564385 0.60877234 0.6717208 0.63312614 0.5692432 0.44872174 0.32991803 0.7053534 0.71593857 0.67969114 0.6725334 0.40500596 0.0243471 -0.08802834 0.20084 0.741766 0.7552737 0.74079263 0.69670326 0.5803487 0.56578016 0.51362187 0.42927063 0.084570274 0.75076455 0.74090457 0.7087426 0.20080036 0.14597468 0.21748112 0.21571118 0.16521098 0.21468402 0.21114798 0.114692435 0.118393764 0.23734346 0.24224102 0.25758854 0.25370145 0.2181469 0.03491573 0.10196827 0.10632541 0.5759615 -0.26817968 0.1612555 0.119283386 0.5862982 0.6023366 0.5872631 0.5765688 -0.023951977 -0.01974844 0.12332701 0.5820788 0.61332774 0.62665206 0.6479143 0.66646606 0.02722312 0.58352876 0.524543 0.5872731 0.59337926 0.65440583 0.67421335 0.68768954 0.08125524 0.07146609 0.63431954 0.6677592 0.43037128 0.47996396 0.584083 0.68264157 0.69605726 0.6917882 0.43472624 0.5748184 0.6814258 0.7287293 0.12915829 0.13992825 0.69194233 0.1345011 0.6653358 0.6729888 0.454588 0.38308737 0.55505013 0.65560734 0.44681734 0.40840894 0.41896597 0.049199432 0.31800604 0.30612546 0.40547442 0.56745803 0.77520156 0.0814756 0.8133824 0.16649932 0.13898681 0.7376528 0.26320395 0.36398482 0.6935159 0.40432578 0.44088274 0.6399668 0.6621982 0.49480364 0.50744337 0.13948762 0.47512686 0.47962284 0.46817362 0.34965748 0.05366525 0.1305774 0.45720097 -0.18905956 0.221278 -0.03455746 -0.072768375 -0.094514064 -0.1361393 -0.064329565 0.1080446 0.36251557 0.059672844 0.015489627 0.045128845 -0.10071038 0.003403455 0.055485032 0.12495607 0.12141298 0.26202554 0.3734892 0.22649185 0.459523 0.47998685 0.4801741 0.44357115 0.44503137 0.40227988 0.43106672 0.5131228 0.22969249 0.41823533 0.45151702 0.4717657 0.48473 0.36934036 0.43914172 0.458314 0.531579 0.5164864 0.59211826 0.6674321 0.4641154 0.39196712 0.3614298 0.30916634 0.4002058 0.24723968 0.2164062 0.21787536 0.26489475 0.21807939 0.20356189 0.202825 0.11006007 0.09759394 0.077467166 0.096893 0.017059272 0.08584029 0.07044901 0.06710913 0.13615398 0.19808532 -0.016213335 -0.12799007 0.007747501 0.064412154 0.095972285 0.19483034 0.20437947 0.104062125 0.034489345 0.08953619 -0.0034733303 0.042204175 -0.121649094 0.0727455 0.3341752 0.42261556 0.24308217 0.10856249 0.49085134 0.48700315 0.5127305 0.436129 0.53111327 0.56602454 0.5729996 0.62673837 0.24687472 -0.004045084 -0.42622405 0.5725915 0.6208099 0.48076707 0.42014712 0.37687278 0.15431464 -0.45231378 -0.40704826 0.6537663 0.68351674 0.6674981 0.6352157 0.038444534 0.123434655 0.14721245 0.13630366 0.15346485 0.08394107 0.21356928 0.19555622 -0.12309104 0.2142834 -0.012934081 0.13770224 0.024603486 -0.0006485954 0.5224061 0.54044825 0.5287994 0.47396582 0.03465544 -0.08645907 0.058986247 0.018538438 0.4826433 0.562989 0.5727843 0.56392205 0.5819348 -0.027619753 0.00022967532 0.4932392 0.53778124 0.65760386 0.03298943 0.40083367 0.44098377 0.69063973 0.08685802 0.57109296 0.323309 0.35607105 0.16010779 0.6094279 0.6576018 0.35924372 0.3470657 0.7740257 0.16703598 0.6459057 0.31968996 0.33463567 0.64648217 0.6546776 0.41284096 0.38308764 0.35113427 0.27635053 0.59448135 0.63281524 0.502862 0.44587433 0.40121666 0.3235475 0.334795 0.47921228 0.43606824 0.40714386 0.29581767 0.2568917 0.28311443 0.41582954 0.3982463 0.38664934 0.32271153 0.22712463 0.049953718 0.3884235 0.4113153 0.34613776 0.27697223 0.06516746 0.3239252 0.53888583 0.50779015 0.47210163 0.524279 0.099917725 0.64901674 0.6775061 0.5849435 0.6281776 0.64335895 0.67875767 0.25827968 0.57826006 0.6835275 0.7368129 0.8086336 0.79715335 0.7447872 0.35460973 0.8532058 0.83659863 0.4836012 0.48460174 0.4366508 0.41648 0.42647922 0.43539816 0.34633178 0.0713488 0.01064086 -0.079991385 -0.2790921 -0.03878832 0.03299185 0.41799968 0.52054036 0.25126043 0.1737398 0.0035806 0.055670083 0.32326475 0.5121753 0.54614383 0.2823897 0.23259214 0.119000286 0.22516654 0.25687686 0.41642267 0.32899684 0.3729214 0.50091076 0.55513966 0.5920179 0.3156899 0.25219768 0.1668792 0.41578132 0.37260833 0.31601933 0.2204093 0.48872787 0.33121106 0.319142 0.42438242 0.43083316 0.44845897 0.504875 0.42748517 0.7509548 0.78463817 0.7256229 0.8439733 0.85399 0.8054364 0.40351662 0.5082764 0.488728 0.4520768 0.32461274 0.42645293 0.22859645 0.34607652 0.08575006 0.06841485 0.10200852 0.056837562 0.096279785 0.07010527 0.111863166 0.10902613 0.08384622 0.08942141 0.12692639 0.1752484 0.1755131 0.10073042 0.14737666 0.18305293 0.20873827 0.18815494 0.091965094 -0.2428766 0.2003986 -0.07078991 0.09512452 0.06389029 0.021415696 -0.32147247 0.38796127 0.40201688 0.2742688 -0.053021125 -0.11929748 0.08067563 0.4418201 -0.06577061 0.15723324 0.13614388 0.4619959 -0.110178344 0.12844032 0.4629948 0.49702817 0.5580869 0.108855866 -0.3150074 0.49633908 0.537972 0.5604413 0.54138917 -0.022142017 -0.08595251 -0.13617004 -0.16413575 0.07129379 0.50564575 0.48469836 0.44201946 -0.090187356 -0.1701296 0.09196594 -0.28848064 0.033755537 0.103500895 -0.17719252 0.12544602 -0.31556508 0.10237632 -0.22141741 0.13854031 0.3392968 0.4413408 0.44345134 0.3973245 0.39836633 -0.088667825 0.3885873 0.37992907 0.36543706 0.010935448 -0.088395335 0.56387424 0.5678773 0.52318263 0.4830762 0.36304447 0.4293052 0.50790703 0.07682226 -0.050165527 0.5648105 0.5935022 0.56748104 0.43065965 0.30002767 0.6168158 0.42667606 0.50443894 0.5821484 0.5537771 0.32411844 0.27888653 0.15766093 0.48299474 0.37600264 0.47088474 0.37632638 0.08136683 0.22484554 0.58639765 0.614531 0.36433777 0.14746112 0.11753282 0.209185 0.124679364 0.87651825 0.59968805 0.47738352 0.49247903 0.34228414 0.20014662 0.10365451 0.26928824 0.5324476 0.58876324 0.48607486 0.32258394 0.2470735 0.21492848 0.040407516 0.17676498 0.4880646 0.46995252 0.08088835 0.4659