# vtk DataFile Version 2.0
Really cool data
ASCII
DATASET POLYDATA
POINTS 6252 float
35.407993 32.80066 51.98462
35.38857 32.789024 52.557377
35.415 32.72836 53.117695
35.37467 33.23687 51.850693
35.378365 33.452274 52.48908
35.410374 33.26467 53.135193
36.440983 12.996975 68.17518
36.426567 13.398696 68.02784
36.438995 13.389613 68.503204
36.443172 13.363737 68.934044
36.401585 13.924772 68.66262
36.26079 16.700853 61.671356
36.293156 16.634775 62.22908
36.28413 17.177536 61.66109
36.30881 17.239182 62.213444
36.253418 32.021713 50.673805
35.963593 31.917877 51.68752
35.87896 31.88167 52.51997
35.9907 31.908228 53.271835
36.018898 32.030308 53.74031
36.04205 32.54133 50.839428
35.647614 32.562355 51.60424
35.494957 32.464153 52.659676
35.629307 32.613297 53.469643
35.94579 32.700867 53.9587
35.8785 33.38022 51.118935
35.56281 33.39875 51.60463
35.490448 33.764503 52.760868
35.593533 33.426517 53.45659
35.9017 33.351124 53.919014
35.793247 34.027763 51.729755
35.62057 34.097263 52.57743
35.815727 34.121017 53.340023
36.02802 33.988163 53.806297
36.29066 34.981403 52.668182
36.309258 35.099926 53.200565
36.11643 36.78185 46.76229
36.22809 36.630074 47.47557
36.22776 36.862476 47.808334
36.27313 37.440216 46.204624
36.09434 37.328884 46.56897
36.075687 37.44682 47.357372
36.26262 37.339813 48.03838
36.25132 38.04192 46.68805
36.291058 38.15354 47.46339
36.23315 42.60421 48.575134
36.276237 42.713703 49.073326
36.172665 43.860207 47.257904
35.943424 43.667778 47.66789
35.82462 43.683964 48.664608
36.046135 43.63109 49.411076
36.25836 43.755104 49.929844
35.966652 44.425373 47.810486
35.858387 44.51818 48.468597
36.042572 44.37529 49.335644
36.263588 44.389885 49.808395
36.248703 45.003128 47.902225
36.186417 45.101475 48.455124
36.217896 44.9383 49.224503
37.44719 9.840916 66.64826
37.456623 10.481116 65.907074
37.34913 10.318044 66.459564
37.382923 10.761689 67.52615
37.271828 11.59303 66.55679
37.170956 11.588333 67.70784
37.15263 11.696709 68.35618
37.160522 11.981449 69.02822
36.609314 12.874691 67.7508
36.582096 12.647977 68.46969
36.675953 12.887678 69.16439
37.300724 12.357154 69.769196
36.956467 13.592888 67.13544
36.50622 13.340025 67.94468
36.494312 13.719552 68.16387
36.605156 13.696451 69.363815
37.012123 13.570614 69.986336
36.56925 14.026473 68.012245
36.559277 14.378094 68.64195
36.759544 14.491423 69.36942
37.331963 14.680484 70.38248
36.845726 16.034857 61.025925
36.669956 15.943831 61.6252
36.699856 15.947809 62.24866
36.962616 16.17458 62.87687
37.050743 15.003944 68.5341
37.047348 14.975373 69.28319
37.479324 15.925247 71.27701
37.235214 16.829357 60.155266
36.749203 16.558065 60.7904
36.47666 16.32394 61.37721
36.43967 16.603785 62.62119
36.725414 16.71846 62.904205
37.271782 16.724459 72.43283
37.23252 16.73682 73.37121
37.33795 16.842909 74.017395
37.217823 17.312565 60.119976
36.741943 17.433088 60.813828
36.494957 17.658443 61.603725
36.49712 17.446396 62.440235
36.792526 17.351175 62.843945
37.278088 17.288467 72.74512
37.25107 17.358686 73.65972
37.339043 17.318748 74.07851
37.05759 18.278156 60.71955
36.868523 18.277699 61.671722
36.91276 18.058151 62.336246
37.21359 17.816572 62.878475
37.381943 17.765047 73.64292
37.349796 20.121204 50.827385
37.273705 18.72307 61.60844
37.28707 20.736624 49.746647
37.22667 20.544142 50.378975
37.222607 20.64409 51.13948
37.1355 21.871553 48.983505
37.00145 21.580997 49.587414
36.921143 21.646332 50.228592
37.206127 21.258211 51.18557
37.30228 21.914865 56.667194
36.972168 22.565557 48.99405
36.801174 22.553097 49.46861
36.912437 22.470621 50.402107
37.10638 22.472923 50.915524
37.241436 22.516558 56.073112
37.083733 22.651085 56.539078
37.071438 22.817482 57.435318
37.278255 22.657072 58.164635
37.404278 22.991034 58.941498
37.056103 23.236095 48.936237
36.91621 23.304228 49.504158
37.00094 23.375198 50.11702
37.03968 23.495604 56.65819
36.999527 23.603168 57.54753
37.150517 23.694225 58.739838
37.236397 24.124102 49.49813
37.163303 24.087875 50.184433
37.231895 24.315205 56.981754
37.07583 24.433163 57.711468
37.059254 24.566118 58.6635
37.249435 24.60577 59.226463
37.342133 26.12068 45.761265
37.287807 26.029245 46.56316
37.45859 25.216572 50.911682
37.488277 25.340416 51.035267
37.242764 25.129787 57.971035
37.24355 25.237045 58.64589
37.29468 25.115295 59.02012
37.38159 26.702698 45.158775
37.098316 26.643242 45.736725
37.01643 26.61041 46.35231
37.118973 26.689756 46.91863
37.09828 27.313911 45.720566
36.97418 27.271769 46.40527
37.12543 27.37912 47.020706
37.23519 28.184513 45.798344
37.111893 28.061337 46.387238
37.271286 28.027374 47.141933
36.95036 31.101 49.882164
36.87458 30.90701 50.6588
36.76149 30.980158 51.395508
36.729416 30.967258 52.61035
36.896202 30.984137 52.93349
36.764877 31.578842 49.73885
36.95724 31.410475 53.584595
36.68264 31.94632 53.98614
37.103092 32.011932 49.35194
36.687984 32.432648 49.831635
36.456112 32.097805 50.261723
36.514973 32.7782 54.319626
36.888447 33.107655 49.894535
36.33872 33.420994 54.199432
37.4224 34.36953 44.90997
37.202374 34.997543 46.82446
37.094425 34.991665 47.21437
36.832664 34.120045 50.74694
36.754654 34.571804 51.36571
36.91906 34.61143 53.932835
36.57554 36.13766 46.198063
36.46042 35.806477 47.026295
36.613163 35.686768 52.935486
36.612705 35.41401 53.46224
36.81216 35.638973 53.77517
37.104248 36.788113 44.826084
36.615845 36.45762 45.761227
36.58496 36.772522 48.63286
37.28995 36.71865 49.651917
37.311153 36.46891 51.585945
36.699097 36.395412 52.792328
36.705963 36.457397 53.235947
37.054214 36.433605 53.86527
37.14147 37.429108 44.945488
36.64077 37.5199 45.641003
36.561325 37.73197 48.425358
36.852993 37.334774 49.23574
37.14547 37.455765 49.776
37.282932 37.4816 52.10325
37.1717 37.408623 52.828556
37.1258 37.081646 53.406406
37.18245 36.897247 53.738014
36.76713 38.001354 45.78393
36.55579 38.45806 46.753757
36.76195 38.695534 47.45496
36.89594 38.66124 48.6403
37.048916 38.84071 48.939976
37.02697 39.18858 46.69961
36.920807 39.089104 47.536873
37.155437 39.763134 48.44599
37.376175 40.049545 49.304443
37.263096 40.176117 46.86246
37.174133 40.4249 47.5429
37.12328 41.92503 46.988163
36.592403 41.748493 47.85484
36.78478 41.637722 48.81214
36.9289 41.710304 49.401325
36.716755 42.18241 47.31385
36.540848 42.323463 49.15969
36.945293 42.717842 50.125137
36.608208 43.55773 46.993595
36.771183 43.69741 50.30873
36.56284 44.29957 47.065586
36.56693 44.25496 50.125492
36.69151 44.878925 47.268745
36.587025 45.131897 47.615738
36.518456 45.46175 48.738194
36.63175 45.359806 49.27041
36.83107 45.037636 49.89725
37.012802 45.754593 47.993385
36.985077 45.818157 48.515705
36.68039 45.654606 48.978996
38.029606 9.184437 65.84588
38.024384 9.031451 66.56874
38.03325 9.193455 67.17241
38.229275 10.130607 64.17955
38.07216 9.8639765 64.78892
37.849796 9.508741 65.692505
37.64003 9.509509 66.428116
37.78518 9.565101 67.28908
38.08852 9.929017 68.01107
38.06476 10.922642 64.11492
37.827023 10.542655 64.86661
37.61239 10.368479 65.40776
37.575195 10.3477125 67.622314
37.719788 10.700801 68.24375
37.992554 11.247268 69.36283
38.37469 11.2179785 75.80103
38.36185 11.212372 76.076584
38.289486 11.241359 64.03653
37.714752 11.492815 64.892815
37.592426 11.183926 65.70999
37.631413 11.694839 69.200455
37.66679 12.1136265 70.13066
38.32559 11.724695 75.12697
38.217346 11.612972 75.724014
38.29237 11.596137 76.22945
38.231976 12.054282 64.23957
37.733498 12.336352 64.92283
37.645557 12.485316 65.24124
37.62703 13.014138 70.641426
38.126476 12.405078 70.97733
38.19679 12.32629 75.64997
38.24732 12.268912 76.230156
37.981953 13.349812 64.77071
37.490215 13.836246 70.69814
38.091354 13.575297 71.62827
38.102222 13.849476 71.869804
38.441795 13.481962 74.68255
38.446434 13.476437 75.35377
38.39454 12.91231 75.871925
38.01089 15.336096 60.44839
38.08033 15.3520565 62.723953
38.493927 14.932654 63.925175
38.162247 14.143726 65.637955
38.307526 14.476228 66.924614
37.528442 14.598717 67.3969
38.155396 14.944017 72.32737
38.117554 15.991349 54.897667
38.020756 15.906909 55.664547
38.15418 15.787156 56.195164
38.13498 16.151426 59.126072
37.993866 15.869933 59.648903
37.650963 15.711724 60.536156
37.4205 15.510065 61.261654
37.83965 14.939169 67.74673
37.60538 15.318975 68.53406
37.90392 15.682454 70.184044
37.614925 15.711696 71.86513
37.58558 15.96296 73.26492
38.17723 16.780207 54.231613
37.881523 16.64023 54.7601
37.70986 16.619005 55.50819
37.834232 16.560291 56.277622
38.21868 16.68629 58.469906
37.517616 16.686882 59.702484
37.706573 16.646132 63.26533
38.17451 16.478443 70.11041
37.691444 16.272043 70.615715
37.52578 16.628248 71.18413
37.498592 16.211245 72.694084
37.555183 16.789202 74.33304
37.917664 16.840837 74.66766
37.846077 17.22059 54.736637
37.739132 17.497868 55.50251
37.73279 17.39637 56.386314
37.99379 17.35477 58.567413
37.694214 17.283138 59.39738
37.53322 17.574785 63.166515
38.405624 17.899193 66.06938
38.236538 17.863064 67.62858
38.163197 17.86799 68.48747
38.15101 17.098984 70.41779
37.589336 17.428234 71.70911
37.620274 17.480568 74.30706
37.96018 17.307158 74.647316
38.07804 19.36203 50.601357
38.317303 18.184996 54.17478
38.13869 18.043657 54.418568
37.953415 18.463768 55.514664
37.989834 18.415651 56.315742
37.965683 17.939693 59.194145
37.855064 18.04832 59.399532
37.497055 18.621313 62.338634
37.630302 18.120478 62.947536
38.197403 18.144304 67.04694
38.063126 18.884735 67.80358
37.965054 18.679949 68.473495
38.233448 18.57633 69.354256
37.95578 17.880579 71.674965
37.838467 18.141214 72.66346
37.691498 18.09624 73.52533
37.96001 17.982634 74.31427
37.988518 20.044895 49.204338
37.881256 19.84065 49.60278
37.590717 19.799862 50.588234
37.49997 20.108513 51.40971
38.39646 19.34567 52.396545
38.376625 19.742956 53.757904
37.831528 20.073328 54.858185
38.0304 19.650393 55.932545
38.021736 19.485785 56.387985
38.248096 19.442823 57.432823
37.94151 19.24126 59.787224
37.519733 18.994396 60.861767
37.74879 19.156082 61.242023
37.745213 18.92073 61.986572
38.15251 19.36821 67.76775
[...]
POINT_DATA 6252
SCALARS features_00 float 1
LOOKUP_TABLE default
0.59903383 0.62295055 0.6368611 0.5872659 0.5984689 0.6121094 0.45798683 0.46356785 0.47044927 0.46674386 0.4741256 0.7417192 0.7549843 0.7460735 0.7392277 0.4998453 0.58557343 0.6316556 0.64080036 0.6393105 0.5051836 0.5724882 0.6308999 0.6449976 0.6380347 0.5251516 0.56773424 0.57793444 0.596074 0.5901112 0.55554324 0.55532277 0.5295371 0.5218776 0.45370445 0.45118558 0.5428668 0.4950535 0.4584699 0.5166613 0.5239887 0.48181212 0.41250283 0.46471506 0.43390125 0.5882096 0.59013635 0.6687703 0.71694416 0.76100546 0.7081552 0.6845394 0.74901193 0.7782961 0.76464725 0.7347088 0.74062705 0.7618172 0.7727947 0.62748146 0.5021376 0.55823886 0.4841498 0.39205056 0.39963 0.3889871 0.40174657 0.4415345 0.44250554 0.4561 0.42542383 0.40141392 0.4592719 0.4651702 0.47570395 0.44790655 0.45060918 0.46251166 0.4560412 0.28771633 0.53896976 0.6488497 0.6968181 0.6715843 0.38902766 0.37786353 0.26936978 0.42445123 0.5611387 0.6707226 0.7377459 0.7041826 0.49811196 0.57075965 0.5892842 0.4493479 0.6274364 0.7142712 0.7058069 0.67837775 0.5744817 0.619414 0.6183279 0.5881208 0.62808436 0.63207734 0.60858583 0.6269219 0.4577493 0.54716927 0.5226369 0.499362 0.43586835 0.5336933 0.55464584 0.5444053 0.42479867 0.26643062 0.5274687 0.5455829 0.5104539 0.43098933 0.30418766 0.35693997 0.43038833 0.41399443 0.4645577 0.47093385 0.4691136 0.42814887 0.44397622 0.52722895 0.5611427 0.33189923 0.32694027 0.46338123 0.5586438 0.5956494 0.57318646 0.45770127 0.47224718 0.3162458 0.32940388 0.5444399 0.56762826 0.56873095 0.4876498 0.53605175 0.55063665 0.54669833 0.6001532 0.6091032 0.58500314 0.600039 0.62072027 0.584749 0.43608212 0.5301274 0.5452848 0.5082363 0.4757011 0.41982764 0.47829974 0.5657997 0.37101132 0.40185052 0.4599716 0.6015492 0.36236385 0.5539234 0.38074464 0.20556559 0.20405406 0.42396653 0.4187488 0.4233318 0.49612463 0.4527972 0.42440668 0.44492003 0.44178092 0.39839026 0.50578487 0.34499633 0.1604417 0.29508847 0.43513593 0.45779276 0.46604824 0.41878033 0.48775262 0.34230483 0.2495346 0.14518487 0.4721408 0.5030669 0.49534458 0.488692 0.44370437 0.42137364 0.3859197 0.2937839 0.25280377 0.3115488 0.34005192 0.21635038 0.12210977 0.12099773 0.15573782 0.17532754 0.38983124 0.37978795 0.38687277 0.38350055 0.52085 0.53498226 0.50814337 0.6161318 0.66080785 0.68710905 0.6977904 0.71879786 0.7597502 0.7650676 0.73302925 0.7089224 0.7327044 0.75803745 0.6481884 0.72032166 0.71742296 0.36517566 0.45433563 0.59689957 0.6613016 0.68353933 0.5877181 0.31886536 0.40280822 0.4693997 0.55068594 0.43760195 0.3924044 0.87416506 0.8864312 0.28229222 0.32858118 0.4018845 0.3884889 0.41444367 0.8024094 0.8446711 0.8690479 0.21522596 0.24403805 0.24600905 0.364757 0.3270971 0.759578 0.78880715 0.08327126 0.31180435 0.14442007 0.080398604 0.49399492 0.5833905 0.68084466 0.18268201 0.28107733 -0.081673875 -0.015841417 0.111967385 0.31821537 0.12326367 0.5725779 0.5895789 0.548589 0.21507344 0.23183809 0.31310678 0.4093237 0.2533184 0.260522 0.120014295 0.3074392 0.4338706 0.47771955 0.5483544 0.5617957 0.5066463 0.19054869 0.341851 0.5286237 0.068785176 0.17195234 0.30703336 0.45297945 0.5818783 0.5760062 0.476407 0.41112953 0.3130164 0.21612349 0.3263974 0.55971885 0.2615466 0.30438584 0.2915369 0.1432422 0.4360968 0.6173767 0.60169363 0.41421264 0.27775952 0.3222916 0.207362 0.13269785 0.29487035 0.33413944 0.52191484 0.518235 0.35056376 0.49996477 0.49533886 0.45589867 0.42302835 0.57940745 0.62935126 0.61994624 0.47376338 0.4822637 0.45826 0.39397505 0.14171553 0.031629458 0.062176075 0.062135175 0.059478767 0.0065922365 0.3199296 0.4851335 0.43719456 0.4648592 0.5517516 0.6052121 0.6156286 0.4866332 0.5073321 0.37672657 0.2500252 0.085580945 0.111587256 0.10074839 0.15114607 0.035337217 0.5964279 0.6323962 0.6241046 0.4766497 0.05509951 0.16199702 0.19227143 0.17892407 0.21004063 0.33163083 0.42921755 0.48568317 0.2562105 0.13839783 -0.030531198 0.18994375 0.28654587 0.378106 0.47365147 0.42043126 0.27534986 0.3555651 0.52323484 0.49406493 0.016654134 0.26823023 0.26496446 0.3243885 0.30349797 0.26001394 0.4059143 0.55417925 0.53318405 0.31979915 0.33749318 0.42677417 0.41725188 0.115517214 0.18086255 0.2905498 0.36169207 0.38139898 0.39261848 0.45146635 0.54986644 0.53902966 0.51935035 0.456569 0.46478575 0.27463046 0.19850984 0.33115977 0.4298326 0.42066705 0.43755397 0.50963753 0.49588025 0.38306457 0.4889949 0.41845 0.4451376 0.43990588 0.41477472 0.41994098 0.5597338 0.57876825 0.5493997 0.43469507 0.425517 0.50366557 0.5127695 0.5123898 0.4191679 0.39775103 0.3950407 0.28813982 0.39823258 0.41818467 0.39499977 0.36155438 0.18538526 0.15551586 0.33665347 0.31982407 0.28488472 0.27487117 0.20509371 0.3208521 0.33008793 0.34460992 0.36329108 0.2636922 -0.07432621 0.2979258 0.3634944 0.40786585 0.3560117 0.09024252 0.0046979245 0.31241423 0.33422777 0.36413842 0.36790442 0.19244765 0.3904912 0.32496145 0.35492176 0.051709924 0.42788345 0.32629338 0.360744 0.46771312 0.5138484 0.4819013 0.3638257 0.19150417 0.47199753 0.50436765 0.16510648 0.27204138 0.20310473 0.06152633 -0.021062374 -0.003798291 0.17444044 0.043124996 0.24213064 0.04744187 0.39377278 0.53324497 0.49099654 0.6002965 0.53825146 0.61972964 0.67000026 0.69796324 0.6649225 0.7017033 0.71425486 0.51733756 0.6753749 0.7180524 0.69736385 0.33741724 0.42628512 0.60721314 0.31025225 0.29316828 0.81409043 0.86715114 0.8998464 0.9106581 0.20810214 0.38360637 0.7071476 0.7810093 0.87810683 0.89195764 -0.055398215 0.54280317 0.7850603 0.8013246 -0.03923448 -0.055527937 -0.05395039 -0.006451521 -0.048637513 0.42327002 0.64778423 0.69599557 0.4840837 0.49995643 -0.028135005 0.036022704 -0.05478897 -0.013569521 0.26404765 0.42590594 0.51191026 0.54643464 0.4913305 0.020014597 0.066816285 -0.10186107 -0.12007646 -0.12941623 0.37903324 0.38580894 0.036065407 0.0675683 -0.049651213 0.5073745 0.12880549 0.18349405 -0.020466104 0.15412441 0.56099904 0.40271264 0.29562527 0.028089672 0.28608805 0.38486126 0.4741182 0.5959393 0.58687055 0.41380394 0.4390855 0.27028444 0.2519817 0.35075957 0.45932397 0.5390808 0.40459353 0.241648 0.35004714 0.5091349 0.53440714 0.40656 -0.16626014 0.47241527 0.58947724 0.61742413 0.60005057 0.53877336 0.38217038 0.3514337 0.34512228 0.2204915 0.31043738 0.59468186 0.5740766 0.34018326 0.3078441 0.2974903 0.4223846 0.2870312 0.25403324 0.18944559 0.23537701 0.05093523 0.46909603 0.43084875 0.08638114 0.042442843 0.31662083 0.065670356 -0.15136555 0.47437552 0.44967848 0.27723867 0.035214033 -0.044011492 0.20058757 0.25075698 0.26763976 0.14713104 0.25555176 0.42817318 0.44866252 0.33851206 0.30402985 0.26715037 0.2009611 0.044344485 0.4411899 0.21889609 0.27609956 0.35138676 0.44540662 0.38176072 0.36877364 0.33019412 0.25976148 0.32988882 0.32661092 0.26875588 0.3870448 0.42617804 0.20847858 -0.041078813 0.44205064 0.3598913 0.41369146 0.31810474 0.1941542 -0.090562716 -0.045124907 0.41382298 0.33141488 0.15361862 0.33011103 0.3096531 0.31469023 0.29242522 0.3144824 0.30067357 0.38029766 0.3676659 0.25746757 -0.05397991 -0.0400642 0.05935316 0.13663836 0.2034669 0.23618972 0.1930984 0.29123595 0.2840155 0.21036625 0.031091128 0.15939383 0.06928481 0.17068486 0.3114215 0.3348339 0.31983772 0.3790566 0.39330092 0.18412015 0.26371932 0.37337604 0.5154388 0.54773015 0.5224407 0.29152563 0.13861448 0.2998842 0.636257 0.6545534 0.611352 0.51159745 0.34458548 0.6618234 0.67674756 0.62777054 0.27893072 0.27372563 0.2434715 0.65591615 0.63553524 0.6005838 0.26704302 0.37097064 0.32271895 0.4084924 0.25529116 0.3905616 0.40380073 0.10812841 -0.0133576095 -0.009818763 0.19775018 -0.02831664 0.059007227 0.06856078 -0.00031490996 0.17443521 0.099083304 0.07948745 0.3814435 0.21139485 0.13682023 0.13762634 0.4709834 0.18072593 0.5085444 0.50401014 0.6065711 0.54723865 0.6142871 0.65683407 0.3405908 0.38844037 0.41723686 0.61750907 0.6457727 0.5992406 0.5707762 0.4006979 0.38611752 0.31090218 0.28310695 0.29391316 0.48338765 0.5446352 0.7622754 0.8140719 0.41180122 0.39753807 0.31265393 0.24248336 0.16541305 0.25815722 0.097497284 0.756078 0.8119367 0.85819465 0.8819191 0.38382244 0.32818538 0.29315493 0.10472548 0.14839026 0.6828252 0.9063753 0.090140596 0.8199194 0.05977311 -0.020867757 0.6279772 0.67910916 0.40949365 0.42622125 0.39261186 -0.028602235 -0.0026608258 0.50642496 0.18641973 0.35569596 0.07950803 0.23177478 0.33689117 -0.0024093287 -0.06608651 0.07733582 0.28752747 0.3004564 0.031409793 0.5135235 0.22549263 -0.04113911 0.20634352 0.26976576 0.17218168 0.2500306 0.37940642 0.46778315 0.4703896 0.5710286 0.5320061 0.5066013 0.23106976 0.32937756 -0.07566421 0.3916358 0.5436977 0.5612502 0.52362144 0.45088333 0.5141606 0.49195546 0.44776678 0.38553602 0.3538213 0.21815175 -0.21431375 -0.17335972 0.56271744 0.53072476 0.39137423 0.42663485 0.40957096 0.25916022 0.113565296 0.029270932 0.25045052 0.3190245 0.34260738 0.26552787 0.14403926 -0.18764053 0.33084267 0.31475753 0.3223653 0.2868914 0.062421035 0.1083836 -0.06706641 0.31575418 0.27914777 0.326321 0.36355913 0.109659985 0.14692372 0.2837414 0.47862223 0.30863535 0.2678726 0.12778285 0.28365034 0.09325063 0.19916135 0.22102137 0.2531825 0.24658227 0.09210266 0.102389455 0.082590446 0.11455616 0.2584713 0.093210846 0.22981471 0.27878714 0.2184439 -0.06719199 0.24452543 0.3172874 0.3869886 0.2926761 0.1081464 0.2756474 0.44634226 0.42230368 0.3020373 0.118267916 0.21819265 0.53851515 0.564624 -0.11981 0.20941548 0.568917 0.6300911 0.5564897 0.497355 0.18008241 0.16364762 0.5472945 0.6066686 0.599473 0.5561047 0.24272123 0.50699306 0.49744317 0.17944491 0.20482701 0.27300274 0.18253624 -0.088061705 0.07489822 0.16861828 0.07003182 -0.1403726 0.08342465 0.16184032 0.32891846 0.40168315 0.28221187 0.4739756 0.5571264 0.4906932 0.42785776 0.40816024 0.5449273 0.62874013 0.6090447 0.5959758 0.4495336 0.3986162 0.48505145 0.59257776 0.5746554 0.63137907 0.59058607 0.5405909 0.5563756 0.57244915 0.36044455 0.36967486 0.3590696 0.32230008 0.33708352 0.35398307 0.36193413 0.49130163 0.37767965 0.383876 0.37122512 0.21382311 0.419864 0.7228607 0.7726422 0.39734697 0.19358438 0.082036465 0.030123025 0.111046575 0.63661814 0.66969496 0.78770643 0.8035685 0.3310237 0.3657943 0.8198687 0.26483053 0.7467282 0.16301121 0.22378388 0.5805377 0.36930054 0.37313157 0.33334452 0.28694987 0.23323995 -0.10204977 0.039664816 0.23116857 0.16495752 0.29811054 0.17730092 -0.07529418 0.21310005 0.23310888 0.06580944 0.3132433 0.08889872 0.39944968 0.33731386 0.67900574 0.67194605 0.5912493 0.19829737 0.11505392 0.24090579 0.4079353 0.43315628 0.59773076 0.61790717 0.60426 0.556616 0.24101898 0.31602728 0.481081 0.3991334 0.33192652 0.4327851 0.49710667 0.2365543 -0.12627679 -0.020811178 0.06591701 0.5025189 0.4681033 0.33007553 0.39552072 0.23856854 0.14198853 0.29153627 0.26165056 0.18834013 0.23321211 0.29452813 0.113135 0.21138984 0.3196407 0.28965163 0.38827235 -0.010400325 0.10104342 0.030363701 0.28343946 0.2292859 0.52826107 0.0064509064 0.05924946 0.21791473 -0.35986832 -0.044371154 0.096453495 -0.0017058464 0.04722354 -0.15195784 -0.10685743 -0.007661734 0.024214558 0.08089727 0.17301774 0.15804766 0.08942861 0.10529718 0.32827535 0.4045453 0.24948797 0.15049583 0.38176432 0.43799973 0.4997556 0.30076718 0.13142687 0.114880815 0.41772643 0.5024211 0.53717756 0.46339422 0.53217965 0.47354683 0.26595655 -0.11567368 0.0152567625 0.4742732 0.51876456 0.38081655 -0.0485735 0.027940288 0.42356247 0.48956245 0.42428923 -0.11623714 0.06219633 0.0650886 -0.10268531 -0.021820754 0.111520916 0.11377368 -0.14396156 0.17080122 0.48323405 0.45261973 0.59559023 0.5367926 0.67564 0.5636219 0.6688591 0.64495474 0.59675825 0.508009 0.44224447 0.13042 0.40372977 0.5082108 0.53929687 0.6044644 0.5532836 0.3588967 0.3806113 0.29916564 0.2872572 0.27754492 0.31163046 0.29344675 0.19495496 0.5476431 0.5179586 0.47488526 0.31235304 0.49967223 0.49811608 0.46305284 0.45698982 0.32705367 0.35358298 0.08436714 0.21866356 0.25250345 0.28145164 0.43324775 0.6211418 0.6856371 0.7177645 0.39034107 0.39927638 0.34148982 -0.0979711 0.68653053 0.17182213 0.59203374 0.01748661 -0.12044071 0.47048366 0.20719337 -0.2202715 -0.33391282 0.32097918 0.29928192 0.27917895 0.23549753 0.16519268 -0.054287735 -0.03864207 0.2828964 0.31648034 0.30709362 0.022077288 0.100710645 0.23442379 0.25557947 0.18719295 0.1687712 0.32736692 0.25517815 0.6760484 0.70979935 0.677971 0.5708051 0.5121267 0.028987896 0.2369099 0.38011992 0.60656965 0.41590652 0.0042170547 -0.13520508 0.13030179 0.07542948 0.16143894 0.1711112 0.2617668 0.41071695 0.4644693 0.09868336 -0.2342147 0.024259813 0.30681026 0.09095233 0.06262084 0.028654767 0.2142398 0.03274256 0.10323965 0.2529078 -0.020675112 0.31639627 0.3345494 -0.018337209 0.30673587 0.32630318 0.012802615 0.30075973 0.29647514 -0.17186144 -0.18208888 0.012465301 0.23800504 0.22665101 -0.2331557 -0.19221425 -0.16220684 0.015651293 0.018628046 0.11757982 -0.29722172 0.18861444 0.21139044 0.30149764 -0.06735355 0.36933944 0.38113713 -0.12734297 -0.044939026 0.4691788 0.44932276 0.09893128 0.5193478 0.52583516 0.56501687 0.56254977 0.3115359 0.01409347 0.34555137 0.5127627 0.5638244 0.28508344 0.12572117 0.11041548 0.36646998 -0.08577326 -0.27503082 -0.47712934 -0.4831934 0.15892094 0.29353082 0.2686615 0.07437271 0.15250258 0.33583045 0.2868619 0.20139992 0.19390446 0.15999742 0.14636458 -0.036623463 -0.3195405 0.17697756 0.24027202 0.339675 0.082468584 -0.1169904 -0.090184145 -0.00046278536 0.3097835 0.054526117 -0.1392626 0.086828575 -0.13387567 -0.14616935 0.294513 0.58210695 0.6907364 0.6096806 0.48668694 0.6931563 0.6934811 0.429894 0.5282772 0.64427656 0.61665726 0.15640445 0.5604125 0.53653336 0.37963977 0.22290353 0.2877162 0.35595042 0.37359503 0.3438106 0.558724 0.5405196 0.5082096 0.45011127 0.20195636 0.19394721 0.24321383 0.5404644 0.5791978 0.56427956 0.51187146 0.45709723 0.38750842 0.21425696 0.09924203 0.04876393 0.5077963 0.52214557 0.4041952 0.29667056 -0.07257113 0.29180604 0.316948 0.35767156 0.48891017 0.5945471 0.44422048 0.42675263 0.34451908 0.23414057 0.17240089 0.15814157 -0.06507604 -0.0018423647 0.57780826 0.58097917 0.31643057 0.20349543 0.24316621 0.18013772 0.17142172 0.064837106 0.50749665 -0.2160882 0.01446493 0.05806139 0.044291172 -0.21906531 -0.1704547 0.44758883 0.13141684 0.11245732 -0.14249581 0.013948873 -0.46226907 0.22939925 0.22725809 0.26481014 0.23285156 0.28932923 0.22997841 0.10840391 0.18696111 0.19318947 0.6472646 0.6661105 0.5600756 0.44748086 -0.26537123 -0.20231777 0.1142444 0.36114445 0.5646499 0.29907474 0.34074077 -0.08881366 0.111890055 0.1734781 0.067192 0.3681243 0.0726013 -0.10511574 -0.020659793 0.050172545 0.063254364 0.13540512 0.2376265 -0.03188912 -0.014975164 0.7179897 0.5092724 0.27825654 0.27500996 0.046666935 -0.030463317 -0.08002792 0.7442891 0.7142718 0.59832776 0.41462407 0.3172046 0.054960333 -0.07920796 0.748261 0.7152891 0.65591204 0.45873392 0.36025655 0.28001627 0.23596126 0.17031127 -0.039898094 0.73180646 0.71231663 0.66375923 0.5424353 0.39203775 0.27738345 -0.5163609 -0.052793212 0.72640646 0.7134558 0.675737 0.58037627 0.2668078 -0.05412589 0.199249 0.02894928 0.08200262 -0.058878466 0.22780499 0.3538323 0.33341503 0.5854957 0.5604124 0.269882 0.21789204 0.017205887 -0.10304043 0.41005862 0.3674724 0.5635607 0.25699472 0.2355795 0.0037826672 -0.09070601 0.46176112 0.22919191 0.26772794 0.28081566 -0.09050255 0.54660976 -0.004304081 0.022821382 0.106782734 0.47290337 0.556466 0.11166908 0.081515044 0.08988692 0.13427244 0.17091466 0.28489158 0.26627296 0.16999306 0.34752786 0.3298064 0.0838958 0.15439373 0.11607467 0.40885597 0.39942402 0.13791516 0.1499386 -0.010051414 -0.13147959 0.15565832 0.35848236 0.43055356 -0.15079956 -0.16316772 0.012108408 -0.13482109 0.6495664 -0.16356175 0.68007886 0.67743284 0.1049622 0.6657678 0.6178741 0.53633416 0.21852034 0.5764326 0.4847714 0.39843577 0.22374758 0.25965318 0.28072813 0.44949323 0.4348938 0.409799 0.30912834 0.24868283 0.26892027 0.2952001 0.3231672 0.3214959 0.29624635 0.6013438 0.5518408 0.49726248 0.49873835 0.46463844 0.41915956 0.3676376 0.27509785 0.27524045 0.24179633 0.24895217 0.162049 0.5270449 0.5400721 0.37226456 0.16488692 0.2093448 0.11490635 0.12111676 0.49222913 0.4774832 0.18075065 0.14766055 0.11558138 0.19876486 0.40240332 0.05801465 0.29282817 0.32543033 0.4470226 0.4924212 0.5215662 0.2802411 0.13681494 0.47053868 -0.0554265 -0.22809806 -0.07950477 -0.4607398 0.46608686 0.3571821 0.06360754 0.33240026 0.39813128 0.36227435 0.29580754 0.30652606 0.031282615 0.107814685 0.29334125 0.60716116 0.6082697 0.06581871 0.13227403 0.12313115 0.29742017 0.5092869 0.57607436 0.59823453 0.6105458 0.36808023 0.26155415 -0.046366565 0.060102858 0.10522971 0.07517089 0.5264754 0.57850283 0.6086024 0.44260556 -0.020034194 0.047824115 -0.33702487 -0.019087356 0.13893382 0.10468638 0.063804984 0.49383587 0.09065257 0.10492635 -0.01864472 0.05713489 0.121289596 0.12367338 0.6351038 0.33580947 0.46153453 -0.09702948 0.019168828 0.113064036 0.14418189 0.73131067 0.2538929 0.36444286 -0.044316694 -0.15876704 0.75544596 0.30409485 -0.11886319 0.09070334 0.19500329 0.18152598 0.7687267 0.3629162 0.34149408 0.33878043 0.29098246 0.069095515 -0.095250726 0.18175876 0.235919 0.259674 0.24795803 0.73670995 0.42711246 0.32700774 0.07634155 0.2080124 0.2577868 0.73180985 0.72315276 0.6617708 0.5518901 0.44873512 0.09523263 -0.12926723 0.053394295 0.22280028 0.71800363 0.69057405 0.64762944 -0.028119318 0.50400853 0.11749239 0.058725398 -0.007508997 0.5996546 0.57981354 0.53241396 0.4272441 0.12922311 0.07876948 0.029233515 0.23824298 0.62455547 0.60486704 0.55555904 0.48032025 0.3533616 0.6421833 0.6162174 0.5469761 0.36180347 0.174714 0.3772443 0.6284184 0.6078255 0.46112955 0.32384467 0.23388484 0.4434165 0.59818083 0.5664211 0.43612105 0.22425419 0.1744256 0.09891753 0.41738173 0.4655347 0.101752385 0.098248444 -0.07346101 0.21994402 0.29038942 0.0028648549 0.29933926 0.22134182 0.24082446 0.4110665 0.3947516 0.32915184 0.33855647 0.27339834 0.45978934 0.027654149 0.1233228 0.12960532 0.16023923 0.51298 0.5119947 0.11239345 0.39156157 -0.11375462 -0.15105629 0.60801214 0.7301868 0.60881597 0.45203912 0.61560094 0.7298392 0.79670125 0.75107074 0.65209866 0.6090262 0.6437938 0.79167145 0.8918468 0.8227754 0.6351725 0.29344234 0.67858934 0.7883558 0.8616729 0.89127505 0.33577228 0.2623816 0.2799657 0.35160762 0.3625099 0.3924352 0.40819687 0.4036295 0.4130817 0.60638595 0.43330616 0.41045934 0.38858986 0.36187476 0.3231314 0.3238518 0.33034033 0.3363114 0.30590692 0.25271693 0.2766809 0.28510997 0.25763524 0.69890314 0.66693556 0.5979651 0.48955637 0.29128683 0.22428742 0.16966105 0.077756435 0.096634634 0.66711015 0.6134248 0.12057449 0.15159827 0.52066505 0.15535805 -0.13356581 -0.032878775 0.024908153 0.3234614 -0.0038525462 0.16020817 0.2966788 0.39989316 0.35337478 0.049073685 -0.083153926 0.40267783 0.42151523 0.3828757 0.12466759 -0.020094614 0.3919859 0.40760756 -0.0182193 0.33583683 0.25257698 0.05255711 0.43269378 0.50342464 0.57415277 0.6010315 0.09482166 0.61741173 0.6222701 0.63441896 -0.065737925 0.6191664 0.6265171 0.057027385 -0.12395874 -0.36912385 -0.2514168 0.6277111 0.23376802 0.15966247 -0.26534873 0.08564482 -0.0010613222 -0.08114312 0.5758388 0.16892184 0.14611913 0.41264367 0.45969033 0.1560871 0.15380725 0.31255397 0.35487545 0.12924217 0.016890237 0.7068784 0.33355978 0.42098093 0.4024784 -0.043919444 0.042423155 0.19268057 0.7186207 0.34315383 0.40360266 0.41402197 0.37988758 -0.04067068 -0.1474765 0.25178686 0.19461223 0.7590749 0.336608 0.34622067 0.34460706 0.250722 0.20658022 0.7511417 0.3227395 0.09234906 0.13524705 0.24534473 0.7242482 0.6901718 0.63491327 0.52730083 0.24929865 0.1885031 0.11186372 0.057164542 -0.06393305 0.4604414 0.2514317 0.20050809 -0.10290328 -0.06266266 0.5689929 0.54798806 0.13934767 0.57575095 0.5989417 0.18544471 0.6063409 0.6332928 0.34605247 0.25393337 0.59235775 0.5966928 0.38302186 0.5656