# vtk DataFile Version 2.0
Really cool data
ASCII
DATASET POLYDATA
POINTS 7788 float
-9.632277 22.965681 44.761196
-9.609802 22.677624 45.188828
-9.617255 23.611624 43.99621
-9.707516 23.55024 44.570667
-9.725904 23.616978 45.50289
-9.693012 23.824276 45.90683
-9.6532345 24.676249 44.012222
-9.750363 24.561852 44.542274
-9.807097 24.494242 45.442066
-9.638792 24.504982 45.83153
-9.632713 24.962015 44.034298
-9.700608 25.018045 44.69297
-9.655963 24.967607 45.430367
-8.5495205 16.915268 41.44433
-8.529594 16.721132 42.48795
-8.9065 17.003668 55.576885
-8.754124 17.08046 56.447292
-8.610609 17.598373 40.898224
-8.740148 17.771635 41.583523
-8.712809 17.298117 42.227547
-8.525913 17.729446 42.88545
-8.690682 17.71173 54.20188
-9.06758 17.71807 54.85602
-9.179518 17.695066 55.40851
-8.953455 17.572063 56.39922
-8.733392 17.758448 56.966595
-8.652341 18.583063 40.95784
-8.77165 18.521948 41.569405
-8.630019 18.444271 42.246002
-9.014368 18.543997 54.7657
-9.213622 18.314167 55.440502
-9.035117 18.309614 56.21199
-8.770569 18.13686 56.754684
-8.585056 18.92922 40.98513
-8.628096 19.158943 41.529602
-8.812443 18.95405 54.84624
-8.892735 18.926363 55.5084
-8.804428 18.911417 56.129776
-8.591405 20.723764 44.53732
-8.59475 20.799227 45.63521
-8.844314 21.792242 43.69313
-9.150133 21.633106 44.949345
-9.188119 21.811432 45.68135
-8.99968 21.845205 46.263462
-8.713449 21.794123 46.713654
-8.680689 22.89241 42.769768
-9.1707 22.308746 43.823357
-9.484669 22.542963 45.355324
-9.235333 22.666077 46.28221
-8.750524 22.639545 46.870216
-8.811962 23.841156 42.58136
-9.28924 23.42588 46.272034
-8.889913 23.054483 46.667847
-9.020114 24.540571 42.797005
-9.447434 24.616955 43.523186
-9.344032 24.447996 46.178757
-8.954798 25.342718 42.93638
-9.255169 25.394505 43.61007
-9.435031 25.378403 44.730404
-9.419568 25.260756 45.466797
-9.176477 25.001654 46.040737
-8.755883 25.892334 43.01917
-8.905181 26.001352 43.62147
-8.95802 25.908052 44.5025
-7.663345 15.048152 40.796154
-7.7256136 14.813332 41.45169
-7.7438493 14.882792 42.364048
-7.8089466 15.591094 40.700687
-8.111572 16.038471 42.86098
-8.093369 16.183212 43.373775
-7.5355473 15.9924755 46.41056
-7.8247037 15.759243 54.792465
-8.122454 16.218958 55.4843
-7.874294 16.368235 56.444836
-7.8750253 16.687218 40.043877
-8.216135 16.944084 40.40384
-8.481106 16.768734 41.76134
-8.415665 16.489227 42.66947
-8.389523 17.046207 43.25934
-7.902074 16.725136 44.06558
-7.514867 16.239958 46.246994
-7.8520494 16.90593 53.13652
-8.149367 16.811365 53.832813
-8.403171 16.612244 54.54139
-8.535294 16.471313 55.363205
-8.285974 16.643814 56.524845
-8.176796 16.96132 56.994076
-8.023845 17.607307 39.901386
-8.452909 17.462147 40.511993
-8.5195 17.363712 43.000637
-7.637119 17.966234 44.624866
-7.7380652 17.874617 52.4456
-8.302485 17.164085 53.625538
-8.3092575 17.584652 57.15677
-8.098254 18.289852 39.981747
-8.493722 18.496838 40.492058
-8.060958 18.450201 43.350445
-7.710904 18.456854 44.525555
-7.6215878 18.591232 45.664658
-7.991942 18.228342 52.852905
-8.539415 18.50077 54.006416
-8.269559 18.305672 57.09317
-7.967431 19.105112 40.173096
-8.323242 19.182428 40.636223
-8.106108 19.99248 46.08562
-8.253274 19.25241 54.750828
-8.356232 19.374424 55.537403
-8.441387 19.060234 56.423084
-8.050109 18.934406 56.898804
-8.329382 20.68007 46.277534
-7.8410406 19.646704 55.76207
-7.8419747 21.509895 42.6995
-8.502584 21.242214 46.43448
-8.022548 21.522758 47.025547
-8.011568 22.67031 42.162895
-8.276848 22.110815 47.1327
-8.068308 23.59508 41.856426
-8.618201 23.456371 42.4152
-8.607948 23.407646 46.882248
-8.316052 24.439629 42.00396
-8.428317 24.675146 46.472908
-8.463864 24.630753 46.552357
-8.235862 25.197277 42.196114
-8.587594 25.642813 42.601006
-8.792565 25.557932 45.703213
-8.573475 25.23907 45.998035
-7.997252 25.724236 42.306572
-8.279427 26.123278 42.867176
-8.4329815 26.291197 43.538883
-8.392795 26.181393 44.339733
-8.324716 25.822433 45.211998
-6.966323 14.159669 40.707
-7.052346 13.857006 41.54735
-7.148505 13.885606 42.318203
-6.833104 13.664602 42.93627
-6.837984 13.902009 46.701817
-6.78393 13.916281 47.395805
-6.7891164 14.135839 48.05085
-7.108676 14.949736 39.99466
-7.324526 14.613706 40.570557
-7.519813 14.542376 41.227264
-7.475212 14.627578 42.363934
-6.7611995 14.953234 43.90877
-6.768489 14.507982 45.931904
-7.1062007 14.418163 46.93345
-7.151543 14.520203 47.33476
-6.9385686 14.662504 48.470592
-7.017103 15.097194 49.279476
-7.18554 15.448805 54.78047
-7.090383 15.4736395 55.09983
-7.2257676 15.502835 39.938976
-7.4174395 15.288735 43.34736
-7.026446 15.336795 45.668
-7.3597155 15.510981 46.320225
-7.2189136 15.659596 47.383965
-7.3641467 15.680612 48.49317
-6.8386464 15.697014 52.824505
-7.1497784 15.664756 53.886776
-7.599624 15.692576 54.569225
-7.4074473 15.672364 55.399006
-7.4650927 16.122705 56.257755
-7.3285775 16.742401 39.60056
-7.3926067 16.382168 45.711884
-7.4245543 16.40697 47.450813
-7.2774634 16.50776 48.30012
-7.139348 16.441782 49.18408
-6.85557 16.142282 50.03035
-6.977111 16.393316 51.84516
-7.0919547 16.431894 52.280987
-7.7080436 16.484688 56.669037
-7.604523 16.806633 57.002182
-7.0808544 17.572285 39.341866
-7.5975056 17.517145 39.56784
-7.33898 17.168154 46.743828
-7.47142 17.079565 47.164314
-7.113836 17.172672 48.489773
-6.7710443 17.467236 49.158833
-6.741826 17.328945 50.528976
-7.2748075 17.400621 51.817177
-7.5866237 17.498524 52.36888
-7.587139 17.602844 57.363365
-7.0490303 18.528496 39.26166
-7.5898366 18.547663 39.633347
-7.4512215 19.049246 46.401546
-7.1915274 18.467323 47.546734
-6.835574 18.14764 48.259075
-6.618585 18.156256 49.017334
-6.936409 18.324383 51.241657
-7.547162 18.497879 52.326164
-7.601776 18.305542 57.287052
-7.149584 19.301258 39.65438
-7.351633 19.621391 47.28768
-6.918 19.554523 48.598183
-7.3292265 19.148367 52.638557
-7.3533115 19.415483 53.4129
-7.7030396 19.411434 54.32804
-7.535747 19.453289 56.526634
-7.5221596 18.992392 56.969883
-6.875885 19.733269 39.735023
-6.8226967 20.452196 40.509953
-7.587746 19.62448 54.680214
-7.639797 19.729307 55.83269
-7.047392 21.910955 47.92858
-7.4329944 22.311546 41.770252
-7.2274404 22.34761 47.608685
-7.035944 23.21648 47.394257
-7.060767 24.507114 41.32129
-7.4548993 24.713829 41.478706
-6.9524856 24.857302 41.388695
-7.205193 25.185692 41.68979
-7.8835797 25.262833 45.970882
-7.5269465 25.892088 42.310665
-7.7243357 26.169092 42.781345
-7.6465507 26.370932 43.5201
-7.9366264 26.164381 44.554867
-7.508829 25.772543 45.042618
-6.7890363 28.106173 54.591583
-6.696763 28.07013 56.591476
-6.546128 27.92702 56.94092
-6.8484316 29.141773 52.92779
-7.194676 29.004774 53.88314
-7.194257 28.71721 54.741768
-7.16005 28.857025 55.310352
-6.848511 28.643726 56.391937
-6.794678 29.671467 52.15362
-6.9075108 29.524433 52.54205
-7.302602 29.72592 53.60755
-7.42216 29.544487 54.379444
-7.3223624 29.5278 55.532867
-7.0765305 29.672293 56.142258
-6.6894627 29.760838 56.703728
-6.8170214 30.442434 52.062943
-7.1164303 30.435251 52.691185
-7.296475 30.399868 53.553394
-7.3790674 30.44633 54.54514
-7.2574034 30.544155 55.356
-6.9802485 30.382122 56.059704
-6.844268 31.225712 52.75083
-6.986042 31.331154 53.444046
-7.085989 31.170341 54.378353
-6.923819 31.126856 55.37762
-6.723863 30.799002 56.10593
-6.7115474 31.834936 53.78134
-6.733552 31.767666 54.212452
-6.269049 13.327697 41.831722
-6.407418 13.29591 42.360508
-5.9690456 13.4046955 46.57102
-5.991625 13.342758 47.0752
-6.4460454 13.839462 40.890106
-6.546964 13.513475 41.555344
-5.982561 13.549354 43.51704
-6.21959 14.325384 44.36922
-6.293223 13.935005 46.034264
-6.3762946 13.586322 46.74702
-6.373573 13.570296 47.38762
-6.2895107 13.983132 48.386765
-6.2249126 14.20705 49.151466
-5.8179607 14.341447 49.819622
-6.490734 14.638812 39.92713
-6.5534215 14.59133 49.156677
-6.1887155 14.666867 49.97405
-6.085627 15.337902 51.872265
-6.1420364 15.267342 52.342056
-6.62576 15.3509245 53.937828
-6.41531 15.379905 54.18909
-6.4565835 15.35838 39.591515
-6.480491 15.544861 52.100464
-6.6512127 15.633874 55.549175
-6.5350237 16.078903 56.198418
-6.641914 16.475916 39.44896
-6.4346237 16.313484 39.577045
-6.365556 16.347624 56.57386
-6.9233265 16.815712 56.92028
-6.5193014 17.563566 39.191147
-6.8952546 17.574444 57.18465
-6.1185384 18.563139 38.87184
-6.774478 18.35907 57.073357
-6.1935143 19.29872 39.02598
-6.4755545 19.93263 49.20338
-6.627332 19.180164 51.72207
-6.1611824 19.546555 52.176674
-6.8084493 19.41094 56.42932
-6.8025 19.026758 56.759808
-6.1072626 19.77561 39.217255
-6.327191 20.141472 39.75476
-6.2433343 20.554516 49.89865
-5.8404374 20.658138 50.96951
-5.993756 19.830809 53.918453
-6.019848 19.857561 54.145245
-6.727916 19.699324 55.410576
-6.472 21.016298 49.31114
-5.786408 21.14944 50.901756
-6.3496127 22.295328 48.983276
-5.8684464 22.631575 50.61989
-5.8029356 22.800692 50.979465
-6.6468325 23.65897 41.203526
-6.4948554 23.278118 47.87182
-5.7880797 23.356108 49.11432
-5.8401084 23.253258 50.122795
-6.563138 24.473553 41.30416
-6.5727315 25.164095 41.66087
-6.6799297 25.581604 44.494293
-6.6767673 25.49108 44.803837
-6.9224463 25.6464 42.131622
-6.783387 25.873596 42.77394
-6.90812 26.080072 43.52071
-6.9246116 26.004906 44.017807
-7.0893555 25.634071 44.782066
-6.0700665 26.906103 56.62592
-5.629243 26.722885 57.763077
-6.2528152 28.03338 53.843567
-6.272977 27.803038 54.240517
-6.449141 27.3223 56.82525
-6.4198737 27.600735 57.121365
-5.8514037 27.591372 58.429646
-5.6361523 27.605385 59.007526
-6.5877976 29.309784 52.240063
-6.4607906 28.632187 53.28686
-6.4119897 28.395916 57.276703
-6.430879 29.361034 52.032543
-6.318996 29.487665 56.997604
-5.7898355 29.093796 58.056732
-6.512417 30.450117 51.76583
-6.5272408 30.666431 56.320595
-6.1613383 30.648685 56.69304
-6.399085 31.253428 52.143867
-6.364845 31.61483 52.491062
-6.4368296 31.42742 55.513676
-6.607845 31.00388 56.03597
-6.1565356 31.988033 52.744797
-6.228816 32.256264 53.489006
-6.267421 32.105797 54.31457
-6.4392705 31.771162 54.865723
[...]
POINT_DATA 7788
SCALARS features_00 float 1
LOOKUP_TABLE default
0.5518609 0.53061485 0.57679355 0.5999218 0.62381196 0.6406517 0.6630751 0.671582 0.69841623 0.70780957 0.6893028 0.7140546 0.7370016 0.4571774 0.3651145 0.8454056 0.88499963 0.50640714 0.46149063 0.39769876 0.34005913 0.66771066 0.80086136 0.8817719 0.92989594 0.955614 0.5068164 0.47193706 0.4180634 0.7935599 0.88611597 0.94038653 0.9639736 0.5040927 0.46190473 0.78196394 0.8585567 0.9142966 0.2995256 0.28792933 0.410254 0.4245302 0.4280859 0.40707386 0.36305255 0.44027832 0.45763278 0.51317304 0.48902327 0.4019221 0.5636446 0.57660055 0.47471982 0.6381043 0.6450037 0.6951143 0.70630175 0.7249191 0.75143766 0.7576459 0.73441046 0.7592768 0.78683543 0.80607307 0.5751316 0.5545057 0.46880907 0.5351547 0.34043482 0.28438467 0.27939776 0.61814475 0.70836824 0.7693657 0.5127809 0.5190963 0.4267205 0.34941337 0.2898786 0.16578718 0.22495207 0.4424498 0.5613106 0.6745427 0.74624133 0.8245828 0.88256097 0.52421975 0.5226985 0.32252654 0.020718712 0.382541 0.5399851 0.94626725 0.52836174 0.52120113 0.26190937 0.018506832 -0.10427979 0.44770506 0.65073425 0.97666067 0.52888936 0.51275986 0.08074069 0.72262496 0.8182589 0.9300411 0.9605378 0.2406478 0.81778497 0.3132133 0.32108983 0.2730771 0.4181044 0.31504592 0.5679554 0.50932306 0.45858932 0.6496138 0.6611794 0.6537282 0.6881754 0.7248117 0.7680707 0.74007905 0.7207644 0.77584743 0.82558787 0.85007906 0.7935951 0.6589105 0.6524957 0.6087941 0.5446551 0.43024075 0.46997815 0.48281243 0.614852 0.6322483 0.6113529 0.517349 0.2976869 0.37211072 0.46012253 0.4782847 0.48704487 0.44809645 0.5872405 0.61204016 0.5679195 0.33329034 0.2951614 0.34825656 0.3703113 0.38817677 0.42025822 0.50303143 0.58310956 0.6522729 0.7239492 0.48830578 0.13699894 0.23661298 0.2144724 0.20381637 0.22887334 0.29038873 0.3619097 0.78717756 0.8305386 0.47604126 0.5048509 0.10862504 0.13631791 0.11731343 0.04228323 0.025215 0.29659507 0.3651323 0.9299062 0.5087321 0.5251437 -0.08067351 -0.012537312 0.01808284 -0.015813854 0.21586755 0.36410236 0.9705198 0.5122739 -0.0422968 -0.050727457 0.39188012 0.50455004 0.6290226 0.9079273 0.94920903 0.48495802 0.40989885 0.6580608 0.81418204 0.11139168 0.42878938 0.20905384 0.1938386 0.6581334 0.664606 0.66324925 0.6745336 0.69837356 0.72269994 0.77462786 0.8395298 0.80563354 0.68160444 0.41116184 0.33152863 0.28295302 0.4966867 0.52631474 0.53530055 0.53044343 0.4084258 0.57413304 0.5611241 0.60877717 0.61991787 0.5503149 0.48652756 0.45519254 0.67120445 0.684639 0.68429923 0.6570698 0.5767708 0.5146482 0.7262518 0.7201861 0.6571362 0.57583773 0.5218568 0.70379776 0.6723851 0.59592825 0.5600166 0.3494352 0.40614343 0.6611441 0.6430799 0.34301382 0.1920633 0.33418012 0.40540558 0.44965243 0.44782794 0.3889699 0.26406863 0.63805664 0.42351675 0.28531122 0.24062668 0.32002914 0.49415368 0.5170295 0.5450484 0.3292403 0.6436249 0.69378173 0.45476902 0.45178914 0.70612776 0.7759465 0.44652826 0.8441137 0.48735195 0.87607336 0.496679 -0.03371897 0.22585317 0.20179848 0.8469658 0.8718029 0.4864294 0.45324475 0.02737584 -0.039545976 0.5024537 0.5524935 0.71145165 0.010043297 0.07733094 -0.0012083501 0.16439308 0.187845 0.60130906 0.078464985 0.12203774 0.17896417 0.6381919 0.63793635 0.5709884 0.54669034 0.6774322 0.7404225 0.7927849 0.7218579 0.61558247 0.21712846 0.16052748 0.27517074 0.24203089 0.23524939 0.23876998 0.20856507 0.21985722 0.4959529 0.38022137 0.28022346 0.48694807 0.40184334 0.2563117 0.64159346 0.5060293 0.47838676 0.6807674 0.70182335 0.54701275 0.52179873 0.7063515 0.70203245 0.6624621 0.61256206 0.51759875 0.48351628 0.36869395 0.33129704 0.38770446 0.6240667 0.55570304 0.29203415 0.06337324 0.021500655 0.38933513 0.34677812 0.5854125 0.050835624 0.07927314 0.42158327 0.5618872 0.60940677 0.6317647 0.41568184 0.6448943 0.6808467 0.409216 0.6464944 0.7066828 0.45557874 0.66533196 0.7270098 0.46636555 0.7140099 0.7084449 0.4672251 0.42430723 0.5897367 0.25885537 -0.049337547 0.38377255 0.08725196 0.17487322 0.3677149 0.4505207 0.45663637 0.22753964 0.37536028 0.38793916 0.5725565 0.5289748 0.25143456 -0.41278946 0.11382521 0.13496909 0.20209256 0.1919223 0.062549934 0.19299097 0.2822968 0.3018823 0.26137206 0.5942007 0.6225441 0.40639904 0.11272895 -0.015150756 0.23820901 0.25164387 -0.058140516 -0.045051478 0.1371772 0.1522173 0.22137176 0.26975122 0.23739138 0.51140624 0.06898929 0.2395352 0.22719607 0.47675467 0.609967 0.71930003 0.746313 0.22932956 0.2055079 0.25468302 0.35170373 0.44321293 0.7046507 0.7650974 0.7562983 0.4191656 0.62376344 0.6885309 0.74332476 0.7522736 0.5458156 0.6307819 0.65389097 0.6932552 0.5803977 0.42874646 0.42784655 0.61722934 0.6345404 0.5807046 0.6579291 0.6021304 0.5313808 0.5991081 0.6199269 0.6000791 0.39601475 0.15195733 0.03663868 0.04193364 0.2603734 0.45593473 0.44738585 0.28897226 0.28032163 0.13701448 0.048225008 0.3388 0.0088177435 0.31077945 0.39226097 0.462668 0.53070444 0.23569411 0.5330874 0.6090649 0.5792234 0.3862304 0.3539924 0.48258552 0.40322042 0.5877926 0.25164294 -0.105302826 0.4750226 0.47610733 0.22628564 -0.007395711 0.4759552 0.36639023 0.26388046 0.352224 0.13394934 0.2534374 0.15565659 0.17579761 -0.23707186 0.23584425 0.2853114 0.03069263 -0.030920967 -0.04337678 0.32562956 0.45683604 0.6125665 0.6862942 -0.08174457 -0.011164878 0.7150364 -0.009403564 -0.025691628 0.7008978 0.04212863 0.6881511 0.11014021 0.13974287 0.40886986 0.4768262 0.5660885 0.6930574 0.6977091 0.13992824 0.17240006 0.31005925 0.30151105 0.5117962 0.58474386 0.6307137 0.667207 0.5775286 0.4546348 0.47581953 0.35139573 0.5266546 0.50582767 0.087390386 0.03981585 0.13045114 -0.09221459 -0.086315356 -0.089392714 0.15568233 0.011100873 0.38781488 0.08529873 0.33835924 0.21241069 0.17049049 0.14831945 0.07152842 0.0037240237 0.030815303 0.33289346 0.3496892 0.15690054 -0.16262178 0.0944989 0.087678835 0.29490912 0.14212763 0.09098685 0.124355815 0.14574362 -0.25983572 0.17779621 0.19241107 0.065066844 -0.00048355758 0.2642318 0.09583509 0.06817218 0.012675855 0.16837555 0.072368294 -0.026913363 0.5551294 0.21553119 0.18455267 0.11808612 0.04560604 0.58908296 0.21624285 0.109097324 0.65509915 0.28092232 0.23681125 0.1433711 0.31536767 0.48462215 0.54486585 0.61106086 0.6452265 0.4981078 0.45139995 0.32166606 0.16659153 0.25710273 0.18105462 0.5613106 0.5959979 0.5883697 0.6210514 0.71025515 0.7685988 0.11839191 0.045763023 0.20202538 0.24125731 0.21346864 0.5704376 0.6594127 0.7201791 0.110107735 -0.054567173 0.4767784 0.5070019 0.6280374 0.023522481 -0.10818002 -0.17451724 0.28828368 0.32184947 -0.042436793 0.05088703 0.052749448 0.031220064 0.08780581 0.14289553 -0.076761276 0.22993904 0.22776332 0.17512332 0.2368491 -0.16397831 0.20518959 0.15760574 -0.31438765 0.07011764 0.20027037 0.0010283329 0.56218946 0.23073652 0.08124374 0.089764714 0.11548968 0.35038137 0.5198529 0.5948559 0.34450454 0.09089145 0.12598844 0.5598099 0.6284445 0.5146067 0.4100973 0.62918717 0.4226435 0.4316482 0.564225 0.6241555 0.32311732 0.44394657 0.5094065 0.23328394 0.30746025 -0.12841198 0.13151348 0.50457823 0.58175945 0.46653527 0.31728685 -0.0057283756 0.24034603 0.379502 0.48959243 0.5497195 0.59475946 0.5352648 0.5420555 0.041454896 0.6361462 0.6359527 0.6641288 0.6422765 0.5303137 0.42959848 0.7309779 0.74204004 0.7137452 0.5821581 0.74165595 0.83485395 0.8814825 0.5467568 0.35916626 0.38644695 0.33083314 0.42945626 0.5819727 0.7190107 0.8072413 0.8518238 -0.14654835 -0.0629972 0.29506934 0.3113209 0.21276627 0.071427554 0.1408013 0.737244 0.2840082 0.21713887 0.6102048 0.5925018 0.38141298 -0.056598395 -0.0038670916 0.11694367 -0.18963063 0.24787298 0.18111384 -0.15628518 -0.3704533 0.3416284 0.33516476 -0.3393516 0.35256177 0.26835126 -0.09449501 -0.07249178 0.045227922 0.107362315 0.124538794 -0.0015248694 0.233552 -0.029101986 -0.1368446 0.502844 0.58937943 0.60225534 0.602704 0.3089927 0.25137556 -0.065936565 -0.22107905 -0.1938003 0.4273585 0.6113725 0.6135999 0.42855752 0.3804413 0.65570503 0.6855218 0.56463814 0.73037374 0.547639 0.46763042 0.6860101 0.46021858 0.34895676 0.1686401 0.59768987 0.6592194 0.2248901 0.5587009 -0.21282157 -0.17528178 0.08031692 0.48632935 0.2653727 0.49078968 -0.18581526 0.010071397 0.16246465 0.23052299 0.32859206 0.398127 0.44747302 0.5521493 0.23483337 -0.05774261 0.6864511 0.7216339 0.46456403 0.7395022 0.7893238 0.8030281 0.74880517 0.6514157 0.53991544 0.80857456 0.5975877 0.56736046 0.53030026 0.8377 0.87036663 0.5721024 0.5927428 0.53947145 0.44547635 0.55410695 0.7111504 0.85155773 0.8914081 0.8938952 0.41194153 0.48643154 0.47368884 0.34215966 0.40040135 0.41922864 0.4014587 0.1570755 0.30409738 0.88792133 0.8897435 0.45103884 0.42098033 0.19320242 -0.22209877 -0.25368977 0.3260373 0.057820864 0.076157846 0.8057158 0.8164946 0.29119182 0.32844624 0.5127466 0.11991037 0.06617958 0.39306074 0.11102942 0.24853545 -0.04179916 -0.018741049 0.085047275 -0.11782587 0.3427927 -0.34102702 0.5081334 0.39350787 0.5209774 0.5442439 0.5637082 0.43255973 0.4033329 0.31672555 0.52881795 0.60340774 0.58870757 0.3193311 -0.019629933 0.43756384 0.5791547 0.56427896 -0.026022479 -0.059088744 0.1401405 -0.3852321 -0.16359706 0.24407473 0.5729326 0.5817977 0.5926615 0.34787238 -0.30475038 0.58932287 0.47291738 0.61911094 0.683836 0.53080666 0.72945213 0.5756207 0.55898446 0.7074003 0.5188711 0.47329402 0.6010684 0.63667953 0.40190548 0.44665423 0.54144293 0.19431233 0.20668216 0.21149787 0.2906999 0.3606876 0.21094695 0.34102094 -0.14011106 -0.11186449 0.13186356 0.09781295 0.24853608 0.3467133 0.38928556 0.5223808 0.33145344 0.65539074 0.4993423 0.7393981 0.7794509 0.7972827 0.75320286 0.6495701 0.55194855 0.80412424 0.60363925 0.5582011 0.5893625 0.59097683 0.5409209 0.5619428 0.7499943 0.8230795 0.8605921 0.5284405 0.5316048 0.50145036 0.45357686 0.41949856 0.43906367 0.6610308 0.8703376 0.87437356 0.40312332 0.28846735 0.4532904 0.13457142 0.2738392 0.8556311 0.19117528 0.28803653 0.037902698 0.16430514 0.5571516 0.16365203 0.0528369 0.124873996 0.18920353 0.039507624 0.03651678 0.12996604 -0.09657821 0.469446 0.33235788 0.24926767 -0.11333315 0.37272283 0.39227688 0.38549837 0.3748356 0.37954774 0.29884887 0.30728632 0.26373324 0.3032543 0.47893363 0.4894944 0.44665962 0.40874344 0.20788245 0.23463786 0.22694309 0.35103282 0.5236222 0.50675774 0.53956854 0.4627377 0.46864653 0.091418535 0.23382977 0.5062515 0.46524483 -0.077955626 0.051432204 0.21432944 0.48111764 -0.216953 -0.121383764 -0.1257604 0.30569744 0.19031698 -0.43591326 -0.24336888 -0.20897092 0.19130126 0.47969216 0.51261735 0.374835 0.36572936 0.49436247 0.43901393 0.5610037 0.6650585 0.5143441 0.59842026 0.6741851 0.5317545 0.5809034 0.68027186 0.500867 0.4625227 0.4762367 0.54425204 0.61687815 0.43443385 0.3911866 0.13718425 0.2840721 0.40974694 0.49198142 0.13722248 0.30013677 0.34662807 0.36786884 0.30301118 0.23718417 0.31880635 0.02569516 0.30918413 0.26950896 0.36413336 0.45126563 0.5422553 0.19738519 0.38334405 0.36497784 0.5893296 0.64922386 0.6653601 0.5689211 0.4897303 0.73623884 0.7486107 0.7221128 0.6399214 0.56234586 0.643909 0.63852775 0.66251516 0.5254297 0.54488415 0.5686322 0.61981684 0.611449 0.61055386 0.8177761 0.49971515 0.5418428 0.20070079 0.632347 0.76467776 0.8055155 0.80976105 0.3752986 0.35530522 0.3967524 0.31754345 0.12320622 0.03604395 0.08171588 0.71670556 0.7753115 0.23106314 0.2245722 0.60923153 0.71710956 0.31112137 0.22859073 0.56740355 0.27792722 0.2120826 0.055401742 0.016228676 -0.099836625 0.5566591 0.55081606 -0.09477672 0.52128816 0.5401055 0.53201 0.4918969 0.39718467 0.45508435 0.4030832 0.44821748 0.32863095 0.39883447 0.48828226 0.39869082 0.39540327 0.508644 0.5022537 0.33366263 0.47163582 0.39066535 0.22382857 -0.03248877 0.38025588 0.27145833 -0.048833635 0.19674578 0.22958288 0.2150073 0.32621634 0.38355768 0.36990017 0.35946614 0.5039164 0.43745476 0.41593617 0.45801947 0.43570867 0.5101338 0.443721 0.40513724 0.43020242 0.5236551 0.35587713 0.01952552 -0.10574112 0.18349732 0.39258584 0.06706958 0.057024762 0.15388604 -0.36721706 0.18716016 0.43977454 0.44186896 0.4201858 0.3210575 0.3761916 0.4043156 0.36901996 0.61093396 0.6157011 0.5723015 0.40760934 0.6054239 0.6568768 0.67780876 0.68865114 0.48340103 0.6491951 0.43341133 0.5321415 0.6257128 0.19877845 0.030962646 -0.09662531 -0.1194832 -0.029976428 0.008539885 0.60465205 0.621815 0.5400081 0.3325035 0.44810736 0.50195336 0.52594876 0.34680092 0.41045845 0.45799512 0.38074777 0.13310419 0.36603132 -0.065013684 0.5482912 0.5462177 0.3569249 0.51268 0.42753613 0.3863793 0.40677035 0.5027822 0.2623547 0.24952427 0.20368014 0.54373544 0.267187 0.2214581 0.53186715 0.5025517 0.4059963 0.22411577 0.42430836 0.19906646 0.19953348 0.06435837 0.21427289 0.11535765 0.20401047 0.08093906 0.21079275 0.26809344 0.09919493 0.29050294 0.31275946 0.1472923 0.09598755 0.30511403 0.31116608 0.1954223 0.100656785 0.2612871 0.072536945 0.19386792 -0.03238979 0.2740316 0.16420177 0.0077479333 -0.20513326 0.03478516 0.29523844 0.23165241 0.35959625 0.3797894 0.33402562 0.39632508 0.40000653 0.6300907 0.61734766 0.63762546 0.53553444 0.56596035 0.5530788 0.59618926 0.70246816 0.21378896 0.48872322 0.6582074 0.5920231 0.8056028 0.7443752 0.6895218 0.42667824 0.2362293 0.058370292 -0.017708153 -0.0776168 0.46019918 0.75060654 0.6748383 0.34545165 0.66131806 0.5460846 0.16584691 0.5953276 0.528993 0.038236752 0.5431545 0.49449724 0.029812139 0.5077727 0.4539101 -0.090432204 0.4235896 0.4842419 0.3788098 0.21968703 0.2827227 0.17112282 0.09916409 0.5335452 0.100313015 0.132903 0.15317327 0.54133654 0.17987671 0.17253701 0.53111684 0.49047118 0.3282643 0.1849312 0.09685166 0.16481586 0.18740498 0.10701051 0.13460362 0.1758011 0.10727059 0.1063842 0.0232945 -0.08170985 0.17412184 0.15149447 0.02090627 0.11790961 0.04965584 0.047403112 -0.015799344 0.043594956 0.05620131 0.100158155 0.1931739 0.23016793 0.26415592 0.28068265 -0.18021223 -0.008545038 0.11222249 0.16745503 0.26770347 0.2917156 0.2717265 -0.06902474 0.08627227 -0.025689589 0.03861064 0.30283847 0.31635362 0.33784044 0.5595164 0.84741354 0.8307019 0.7972894 0.49958456 0.45567828 0.5306717 0.6170787 0.795895 0.73360026 0.70755625 0.3403461 0.33820873 0.16338685 0.10845256 0.3518899 0.6118082 0.6029121 0.85415745 0.83029324 0.7651762 0.22324145 0.043475375 0.0074394345 0.1436891 0.009046152 0.43885618 0.8242744 0.740528 -0.017015003 0.67231137 0.57957953 -0.10683015 0.5425341 0.52551126 -0.19837907 -0.11453463 0.031937957 0.106334016 0.02491054 0.09760988 -0.009380043 0.10158934 0.10608321 0.49546462 0.12831347 0.16125888 0.5190251 0.16551459 0.45633757 0.13407408 0.05629646 0.05437565 0.1369131 0.09255111 0.061205093 0.048004728 0.023221992 0.0054309443 0.042173594 0.04893005 0.04389798 0.08796669 0.055650055 0.21551478 0.16999525 0.25748727 0.27073783 0.19602433 0.28589946 0.2618915 0.226926 0.14399382 -0.1332397 -0.070557795 -0.0055914866 0.06282646 0.11168893 0.14676473 0.07785354 0.1396018 0.29303887 0.8942375 0.83803004 0.8776905 0.8798041 0.8384097 0.6493518 0.7641736 0.20922442 0.46758315 0.667896 0.605199 0.93136084 0.8876528 0.75603735 0.6059469 0.33385918 0.04626838 0.1692998 0.4204701 0.9259666 0.10226274 0.85650927 -0.01767972 0.57323194 0.57883227 0.7174613 0.3710568 0.47636285 0.527544 0.642924 0.59860474 -0.13584857 -0.22033128 0.29908755 0.19705649 0.26694188 0.50964963 -0.39446676 0.11523397 0.06978916 -0.25165027 -0.17590675 0.11388033 -0.14467753 -0.11250921 0.12574893 0.14033255 0.1734463 0.16552868 -0.05992161 0.17798573 0.19433197 0.042802848 0.086069286 0.11207473 0.0975195 -0.016394407 -0.25818393 0.07506932 -0.25769544 -0.0024407897 -0.048123427 0.0019487739 0.0780803 0.0007416606 0.11835579 0.06742506 0.19067298 0.23189154 0.23753473 0.14064683 0.25473362 0.1562323 -0.12136916 -0.16519077 -0.011332862 -0.032115735 -0.022617798 0.1295651 0.022202523 0.14677958 0.29905617 0.2230191 0.35474634 0.44244248 0.47939777 0.4448843 0.89690924 0.89939755 0.79121405 0.8577663 0.8932686 0.9008619 0.88161904 0.5394699 0.470228 0.7169652 0.8101758 0.87566936 0.42795092 0.4603042 0.44791543 0.5329032 0.6919983 0.88210285 0.77591014 0.71696186 0.067009434 0.08670779 0.36012316 0.3866695 0.5765664 0.91629636 0.8950664 0.3607055 0.10623583 -0.06377101 0.21997292 0.53282106 0.5935867 0.57920647 0.52444845 0.83864546 0.8069345 0.074066095 0.37482455 0.45521915 0.57070816 0.52250695 0.4569347 0.7684375 0.7045107 -0.05976034 0.26824483 0.37366086 0.47806326 0.60814774 0.5624671 0.4612186 -0.31782612 0.26412016 0.26443726 -0.04963131 -0.26169506 -0.20204446 -0.064443566 0.08044244 0.010172841 0.1788978 0.20911095 0.2136255 0.17498204 0.07130068 0.13570164 0.15071492 0.024495343 0.17647937 -0.12582903 -0.019405026 0.12135133 0.08143447 0.011904128 -0.2218924 0.09070192 0.13616168 0.062871136 -0.22057556 0.14164771 0.13656473 -0.011186888 0.060336176 0.033440836 0.102772266 0.108172834 0.123758495 0.29716876 0.15914738 0.29389527 0.3466611 0.34804153 0.17610624 0.17063595 0.34260723 0.35420448 0.14685306 0.015249867 0.054873534 0.055905275 -0.05646844 0.035665035 0.25238055 0.15139446 0.40685478 0.19879697 0.24290393 0.31052375 0.3453881 0.49876732 0.48097444 0.40644965 0.4700739 0.4961031 0.8528352 0.87709075 0.8944926 0.59345996 0.57282174 0.7126944 0.7955821 0.8349087 0.8544779 0.7999662 0.565605 0.60019505 0.6062293 0.68936455 0.869974 0.8195349 0.7698127 0.2326067 0.35645902 0.36804235 0.44691867 0.5378921 0.54148144 0.49832916 0.8815711 0.87870574 0.8532312 0.76069915 0.62180996 0.05330358 0.09522693 -0.13126439 -0.008032053 0.2617974 0.20909247 0.4289952 0.5300164 0.46272042 0.42846036 0.8562165 0.8457664 0.7810495 -0.14259051 0.026068717 0.2503338 0.42764527 0.782948 0.7778536 0.6833868 0.43787092 -0.10864109 -0.27573085 -0.19394056 0.0025941804 0.3351547 0.49455428 0.3083226 -0.40803325 -0.19730112 0.23986883 0.16113584 0.06074857 0.13903931 0.17616059 0.12750258 0.21296714 0.14080253 0.1966843 0.18321434 0.13779879 0.14533237 0.26319993 0.1978389 0.07167657 0.30911356 0.22752735 0.14157495 0.20011774 0.16057712 0.2574727 0.21879905 0.18447623 0.2957292 0.19517355 0.28174853 0.17260791 0.060625166 -0.09116048 0.04605655 0.30543876 0.104436174 0.09518092 0.3633202 0.14245363 0.36771768 0.3658464 0.12610166 0.019422159 0.3249738 0.3705589 0.38448414 0.3763526 0.118925996 0.14165725 0.44564682 0.35765445 0.23040217 0.2564907 0.28661618 0.4747131 0.49234968 0.48165768 0.27025828 0.35260516 0.46182567 0.49730957 0.7702223 0.51104766 0.6203691 0.6659167 0.66203606 0.6665195 0.54530376 0.41393417 0.6008297 0.61483294 0.6073359 0.5000386 0.4649344 0.47719222 0.3143839 0.3155391 0.3558241 0.39438578 0.38720047 0.39879566 0.23491986 0.25950465 0.4124813 0.25996742 0.38093376 0.22111012 0.17747124 0.22041972 0.3965344 0.33990204 0.11860111 -0.15919465 0.2224949 0.28784811 -0.060785092 -0.054048173 0.20494919 0.16830647 -0.23322685 -0.18451943 -0.14625391 0.1678094 0.24313381 -0.23910052 -0.32557592 -0.32651907 -0.22660753 0.1600655 0.34500533 0.09575052 0.21939638 0.39707917 -0.060408376 0.2937616 0.15078183 0.21112953 0.13144732 0.21359083 0.2586962 0.16413458 0.1819166 0.3343162 0.107857436 0.15849712 0.34893334 0.3265426 0.19788215 0.318016 0.27687654 0.29746336 0.22280851 0.29289585 0.22541042 0.20750315 0.26962474 0.19674109 0.16705693 0.07955897 -0.04045374 -0.18330553 0.19117151 0.28797257 0.034791477 0.34653115 0.097157925 0.35187593 0.34840482 0.119820274 0.15979211 0.38118568 0.36583304 0.16703564 0.18445854 0.4265528 0.33634025 0.36573663 0.37214798 0.1932231 0.24890867 0.3258074 0.2465422 0.24682805 0.41566476 0.43867052 0.46318704 0.42525965 0.47196805 0.5994985 0.6671295 0.63211715 0.3548265 0.29262078 0.2743699 0.3253042 0.47257096 0.57086635 0.58892673 0.3904346 0.42680663 0.3461129 0.0053004473 0.18324253 0.12050824 0.14634967 0.3759449 0.33184487 0.3630432 -0.08699128 -0.1680404 -0.0136947185 -0.07308232 0.121268764 0.1743243 0.28585228 -0.15161248 -0.04283546 -0.07738885 -0.12532339 -0.21894008 0.13723193 0.20662218 0.1248