# vtk DataFile Version 2.0
Really cool data
ASCII
DATASET POLYDATA
POINTS 4760 float
32.36328 -11.920568 17.124746
32.22205 -12.071113 17.641163
32.136433 -11.970533 18.39386
32.249115 -11.341686 17.185572
31.962889 -11.426271 17.724726
31.880262 -11.346956 18.345123
32.15538 -11.293327 19.056026
32.291077 -10.979502 17.101168
32.068398 -10.708558 17.833654
31.989418 -10.78384 18.3582
32.176495 -10.735931 18.995562
32.311146 -10.247961 18.385595
33.245487 -12.730394 16.080908
33.163414 -12.880976 16.52765
32.844814 -12.775128 17.436995
32.8038 -12.63672 18.68563
33.10677 -12.288057 15.981387
32.714077 -12.2743845 16.64773
32.456955 -12.36787 17.6382
32.655098 -12.031035 19.24641
33.00715 -11.712865 16.028809
32.696888 -11.449356 16.46894
32.91082 -11.264501 19.947304
32.793163 -10.778056 16.741575
32.442513 -10.441653 17.401789
32.574203 -10.56664 19.516253
33.08502 -10.529529 20.160275
32.59366 -10.163377 17.689585
32.623684 -9.981994 18.462019
32.94477 -9.952647 19.470926
33.259228 -9.946918 20.019524
33.293083 -2.2786367 0.9838673
33.110394 -2.254959 1.5626227
33.08294 -2.0630577 2.312583
33.16102 -1.5350683 1.0474916
32.908207 -1.5209365 1.6501708
32.879215 -1.4775103 2.2931361
33.10952 -1.4483541 2.8713286
33.18643 -0.952638 1.2152545
33.03345 -0.81505096 1.730288
32.99394 -0.79601425 2.3391616
33.231674 -0.8016 2.9562328
33.3109 -0.36894187 1.9430246
33.26709 -0.27280262 2.4490833
34.376648 -15.856103 19.78106
34.321526 -15.846481 20.463032
34.458645 -15.760784 17.901972
34.051514 -15.117415 19.878716
34.019436 -15.049649 20.522537
34.31694 -15.330445 21.281284
34.37701 -13.841285 17.141577
34.21295 -14.262069 19.675337
34.29824 -14.665964 21.407938
33.74181 -12.944865 15.945641
33.625755 -13.224951 16.373867
33.74797 -13.371343 17.139679
33.44829 -13.1328535 18.645483
33.984646 -13.44801 19.733702
34.025776 -13.975813 20.228643
33.847794 -12.105358 15.378937
33.576298 -12.4535055 15.681285
34.079765 -11.452439 15.398042
33.565285 -11.575873 15.640404
33.4522 -11.415243 20.306479
33.91602 -10.953101 20.716736
33.677513 -10.622483 16.112396
33.383606 -10.466325 20.508883
33.801373 -10.501699 20.6998
33.30539 -10.240192 16.921825
33.447803 -9.49991 18.613853
33.39579 -9.62711 19.602863
33.677036 -9.811611 20.238232
34.026325 -9.886053 20.61405
34.074154 -9.250082 18.648256
33.839203 -9.333935 19.310863
33.815964 -2.830171 0.915908
33.718952 -2.9315002 1.5596447
33.67379 -2.7985995 2.1246316
33.99329 -2.246555 0.3645122
33.64998 -2.4484048 0.71833456
33.39762 -2.6674182 1.3928206
33.503574 -2.5062008 2.5238156
33.629143 -2.1385071 3.0305192
33.57783 -1.502712 0.638867
33.748047 -1.6048224 3.475852
34.08773 -1.0808325 3.8238811
33.66164 -0.83203554 0.9210869
33.60482 -0.38105452 1.4783231
33.524323 -0.6325271 3.2962794
34.23072 -0.13712399 4.2586985
34.01681 -0.21744782 1.264859
33.712914 -0.16108507 1.7698687
33.66234 0.0074906647 2.4453497
34.048134 0.23060504 3.3476415
34.342815 0.29578814 4.1443954
34.462444 8.815987 17.244383
34.40427 9.008346 17.936775
34.4276 9.298458 17.679104
34.441414 9.541717 18.173283
34.43018 10.59622 19.646063
34.462482 10.523265 20.039528
35.080593 -16.648785 18.033543
35.191597 -16.865715 18.863203
35.202793 -16.906582 19.651125
35.28666 -16.68703 20.839329
34.977768 -16.09696 17.207193
34.871243 -16.174873 17.629112
34.847546 -16.286505 18.359062
34.68337 -16.21941 19.415495
34.891586 -16.414389 20.555323
34.798336 -16.13313 21.19448
35.141735 -15.947389 21.941725
35.01817 -15.039088 16.528534
34.529705 -15.543373 17.481623
34.456837 -15.428143 21.46138
34.95728 -15.343206 22.11987
35.299675 -14.51237 15.758077
34.670948 -14.067036 16.469887
34.672543 -14.876188 17.192749
34.427017 -14.18752 21.367653
34.925144 -14.683832 22.102013
35.189568 -13.167231 15.229748
35.27843 -13.81057 15.418198
34.60269 -13.311473 20.465914
34.836422 -13.848942 21.57676
34.895565 -14.145617 21.923887
34.242466 -12.477177 15.402738
34.5112 -12.451233 20.387173
34.576485 -11.699065 15.340852
34.196716 -11.220066 15.451497
34.558598 -11.305439 20.690702
34.322876 -10.389335 20.762104
34.340088 -9.691276 20.300552
34.347195 -10.036839 20.710735
35.40606 -8.27238 14.872634
35.326973 -8.075044 15.674479
35.24035 -8.862331 17.229855
34.494846 -9.239602 19.31763
34.641678 -9.332902 19.858978
35.419224 -7.810402 14.924502
35.397118 -7.75643 15.459035
34.379738 -2.9738386 0.75633156
34.619225 -3.2499948 1.2450417
34.594128 -3.0841668 2.4035647
34.466755 -2.3578348 0.33262232
34.401787 -2.632596 0.45656568
34.729496 -2.2712758 3.558755
34.43423 -1.629544 0.3185225
35.33725 -1.4212359 5.290289
34.404068 -0.755836 0.69764113
34.519432 -0.19179095 1.1208615
34.809025 0.3235209 1.7875099
34.539505 0.39032868 2.367228
34.411213 0.60494125 3.5577297
34.477818 0.17897938 4.264569
35.30164 0.26771677 5.5055594
34.977333 0.92464435 2.9915433
34.68339 0.83202535 3.6221166
34.963737 0.74347305 4.362503
35.260773 7.2943664 17.541237
34.987755 7.908504 16.754744
34.87993 7.7643046 17.404001
34.985924 7.9500127 18.40768
35.14213 8.6739855 16.048874
34.722656 8.7195215 16.700787
34.58458 8.501103 17.55449
35.04943 9.013816 19.715631
35.08561 9.116148 20.343224
35.143406 9.361079 16.22268
34.8146 9.280498 16.588203
34.49086 9.186533 18.30709
34.678032 9.855028 20.297253
35.05408 9.840716 20.93334
35.09508 10.027472 16.783007
34.92989 10.292332 17.349028
34.555004 10.397649 18.786308
34.523586 10.741962 19.587473
34.698948 10.422855 20.586988
35.017044 10.593276 21.122084
34.958847 11.116999 18.969172
34.726063 11.184041 19.483536
34.818695 11.174012 20.37846
35.247196 11.019187 21.218964
35.2261 11.724335 20.373388
35.856846 -16.94523 17.921616
35.502346 -17.04988 18.862738
35.66719 -17.24376 19.579725
35.482132 -16.995987 20.448145
35.795277 -16.693396 21.39328
35.36321 -16.329891 17.036003
35.292515 -16.576853 17.566748
35.683983 -15.985682 22.175581
36.04932 -15.291435 15.806637
35.288155 -15.572394 16.440647
35.545536 -15.413043 22.439493
35.726627 -15.143903 22.56947
35.45389 -14.870203 22.452953
35.793842 -14.954481 22.573391
35.501392 -13.898109 22.028887
36.053947 -12.392862 14.721519
35.823997 -13.172852 21.659658
35.720345 -11.292476 15.042078
35.61446 -11.162518 20.721054
35.36925 -10.636839 20.676283
36.33313 -9.312286 14.08556
35.846428 -9.791903 20.126123
36.08144 -8.43428 13.830234
35.556656 -8.226518 14.534584
35.6317 -8.396105 16.57166
35.05395 -9.325309 19.589022
34.983593 -9.420551 19.86288
35.91614 -7.832522 14.085425
35.58566 -7.6073136 14.760985
35.552727 -7.3983874 15.486436
35.63492 -7.5368323 16.477507
35.68628 -7.4774985 17.635294
36.1067 -7.3997636 18.152988
36.05388 -7.049071 14.829107
35.904034 -6.9640927 15.622597
35.89125 -7.015612 16.54346
36.01349 -6.915878 17.217924
36.183495 -4.8879313 8.808651
36.30304 -4.1910124 7.2964797
35.988335 -4.2885685 8.616218
36.074886 -4.40224 9.261873
36.344357 -4.147375 9.848991
35.75224 -2.8427444 0.3756125
35.263527 -3.0865674 0.6290052
35.586487 -3.261544 2.512408
35.715622 -2.6983736 3.3961627
36.21203 -3.535987 7.0121346
35.963516 -3.4701 7.5796266
35.81532 -3.5539663 8.485637
36.075867 -3.7036 9.446318
35.54844 -2.4581008 0.28425664
36.003937 -2.1726866 5.1901755
35.789978 -2.4822326 7.4954047
35.838036 -2.5200768 8.445394
35.575527 -1.7783073 0.2554068
35.721905 -0.9820271 6.4719415
35.76914 -1.7392565 7.265457
35.944317 -1.7754014 8.653412
36.196682 -1.9588133 9.283251
35.40063 -0.67807436 0.7239057
36.12043 -0.46440452 7.482745
35.499622 -0.17967954 1.1815608
35.374687 0.27514613 1.6986773
35.479202 0.6056742 5.1382704
35.75608 -0.037257053 6.495428
36.43958 -0.046657242 7.7505717
36.419773 0.24366553 7.86665
35.785103 1.152702 2.7344968
35.59647 1.2205261 3.5021527
35.763157 1.3774651 4.2965155
36.289074 1.5750343 5.1254783
36.150578 1.0596031 6.15725
36.003716 1.5525081 3.7556274
35.94187 7.0211806 16.936634
35.476826 7.122619 17.65843
35.60439 7.1747923 18.172703
36.02033 7.2537713 18.833012
35.432774 7.9758162 15.956477
35.341248 7.430018 18.381302
35.57462 7.7211614 19.163567
36.074577 7.9996014 20.297215
35.76769 8.854253 15.569891
35.908623 8.334668 20.629337
35.655396 9.034137 20.970095
36.062336 9.025654 15.368505
35.53457 9.384565 15.889712
35.576454 9.583571 21.336618
35.75305 10.043359 21.707035
35.40401 10.562109 21.479364
35.71942 10.510305 21.747698
36.030243 10.799888 17.171982
35.561234 11.313349 21.29282
35.933475 11.062538 21.70991
35.93118 11.683209 18.694887
35.605526 12.002202 19.604145
35.639698 11.901707 20.491993
35.73792 11.685874 21.08451
37.39359 -18.258059 12.450958
37.382256 -18.343336 13.440597
37.34866 -17.991138 14.2267685
36.649418 -17.620869 19.451393
37.43594 -17.910501 12.131097
37.307358 -17.76957 12.737099
37.258396 -17.536581 13.71262
37.253304 -17.40259 14.298513
36.55973 -16.99346 17.365015
36.505653 -17.473974 20.493473
36.61417 -16.779707 21.512499
37.09403 -15.961088 4.8692975
37.03003 -16.066696 5.457321
37.281445 -16.407045 6.1617045
37.444393 -16.553555 6.9578524
37.302616 -16.554283 13.694284
36.974583 -16.38196 15.475442
36.371445 -16.107443 22.085703
37.046318 -15.192662 4.2617893
36.81942 -15.277741 4.849433
36.7906 -15.490807 5.301088
36.916252 -15.3792 6.2392254
37.22952 -15.23693 7.119748
37.442005 -16.063477 14.155003
37.15419 -15.48034 14.647847
36.214355 -15.594373 22.480963
36.10472 -15.181286 22.603424
37.036972 -14.257292 3.9660535
36.76042 -14.437503 4.581985
36.67298 -14.517996 5.492843
36.91132 -14.423353 6.2360888
37.372005 -14.647264 7.4195704
36.816498 -14.244474 14.347696
36.57232 -14.207597 14.634422
36.43526 -14.5528965 22.413692
36.168213 -14.817633 22.54486
36.99603 -13.575539 3.9541905
36.824703 -13.586502 4.444863
36.878956 -13.729688 5.412334
37.095383 -13.660553 6.2995462
37.371437 -13.773967 7.1262894
36.654224 -13.609971 14.495962
36.489956 -13.763757 22.06268
37.166653 -12.900766 3.904609
37.011166 -12.863204 4.6165204
37.016888 -12.984571 5.178458
37.303734 -12.988158 5.936157
36.511597 -12.498447 14.4823675
36.70612 -12.687454 21.162476
36.368828 -12.933494 21.698702
[...]
POINT_DATA 4760
SCALARS features_00 float 1
LOOKUP_TABLE default
0.6480714 0.6695459 0.72175014 0.6889338 0.7258822 0.76554585 0.785984 0.69185495 0.74441797 0.771549 0.78376985 0.756714 0.48814052 0.47662276 0.53287446 0.55447495 0.5422559 0.5825956 0.6226846 0.65704775 0.5858676 0.6275167 0.65879065 0.64599574 0.7052848 0.7476014 0.68318796 0.70812577 0.7351974 0.708543 0.6782214 0.9219929 0.9393643 0.91623247 0.9491032 0.94563407 0.90854377 0.84525794 0.8806284 0.85648656 0.82600236 0.7625091 0.77142704 0.73613024 0.4746673 0.57208395 0.303702 0.50842726 0.5892771 0.66834795 0.2349562 0.44333637 0.6425748 0.41639715 0.3867424 0.35300785 0.3633185 0.3746829 0.494031 0.4613711 0.48049828 0.45443892 0.53535295 0.5530056 0.56253135 0.552577 0.6529803 0.61684585 0.6065295 0.63878524 0.6629411 0.64862746 0.62368023 0.5264144 0.6181313 0.85751134 0.86333704 0.8628069 0.83744276 0.8805219 0.9007626 0.8649466 0.81738263 0.9221641 0.7476659 0.6157612 0.8385212 0.7621286 0.6966595 0.46827477 0.7074873 0.7160696 0.67852676 0.58018714 0.46971565 0.61925435 0.61031246 0.60981524 0.60423505 0.69085723 0.7247399 0.3277251 0.3515126 0.3987307 0.5412123 0.28009477 0.30427897 0.33274013 0.4100593 0.53545105 0.6401593 0.6573291 0.1812313 0.27543306 0.6799416 0.654062 0.14510971 0.19090107 0.21682182 0.5998902 0.6335584 0.20637439 0.16755886 0.4360632 0.5517118 0.5947945 0.39043146 0.33218786 0.35648224 0.43915123 0.44687432 0.5781439 0.6043493 0.59384197 0.52307636 0.47105145 0.3000258 0.5503379 0.57042253 0.5466847 0.50779843 0.8022895 0.79835135 0.7806002 0.7879128 0.7993338 0.6196828 0.83327484 0.33759773 0.76751876 0.65511715 0.5798566 0.5897364 0.50891733 0.44516277 0.29303765 0.512998 0.4771287 0.40574542 0.51827836 0.59130955 0.583469 0.5473993 0.5554605 0.6074346 0.6133817 0.5918293 0.6296238 0.57474554 0.5955925 0.598287 0.71137863 0.73439074 0.6140146 0.60963225 0.61722195 0.69837135 0.75835204 0.7727233 0.6850762 0.72122216 0.7718415 0.7882452 0.80499446 0.3147092 0.3393744 0.36561018 0.4595936 0.5867554 0.2869404 0.31428385 0.6154127 0.10603731 0.20155513 0.60202664 0.57553554 0.5898924 0.560204 0.5120448 0.081302956 0.31466585 0.111380115 0.2329107 0.40934396 0.3388489 0.33942693 0.511974 0.55218995 0.41025934 0.4835471 0.52441746 0.56089467 0.5547666 0.5186584 0.45929402 0.4495061 0.40946746 0.5501567 0.52807546 0.5001167 0.50336164 0.41297597 0.26362324 0.43283096 0.4238077 0.4122242 0.68599504 0.7060696 0.70639104 0.42134655 0.24110219 0.3933385 0.44546974 0.40774804 0.7091241 0.04902573 0.33634025 0.3558388 0.7050535 0.18718296 0.22431025 0.24489412 0.2532464 0.64125353 0.14691718 0.54478407 0.52946997 0.31795868 0.21592247 0.14294592 0.14324471 0.48257008 0.4598205 0.40431392 0.34529617 0.23927635 0.435655 0.4600338 0.47884086 0.44314688 0.3708297 0.5167544 0.4833817 0.42441386 0.39304125 0.4955833 0.46169403 0.61512184 0.45615563 0.5428647 0.70653355 0.7501638 0.77813303 0.77833354 0.45363188 0.80203307 0.79600155 0.64497304 0.8184463 0.82772493 0.8147434 0.4886928 0.48251447 0.44865423 0.29959482 0.45746094 0.45121288 0.42545146 0.3886235 0.24690174 0.3668368 0.49794698 0.30795813 0.32577857 0.3269981 0.33867568 0.2848387 0.104169145 0.56631374 0.4129564 0.43871325 0.40995768 0.4189005 0.3690492 0.15367211 -0.00819866 0.54628944 0.5412478 0.5418445 0.56571656 0.52798223 0.4406734 0.32821977 0.0050199255 0.03502681 0.47508377 0.51582444 0.5703431 0.59188914 0.53248787 0.39858413 0.327912 0.059550595 0.3991257 0.5619352 0.5856693 0.5466988 0.40774396 0.03591489 0.035202526 0.18259624 -0.038380794 -0.049963526 0.38534606 0.491212 0.52662593 0.25333384 0.377882 0.47436917 0.50114316 0.4308527 0.3491123 0.18145895 0.34804013 0.42396748 0.38849905 0.427584 0.47361583 0.39270046 0.27487126 0.2755993 0.49599868 0.50443906 0.5299719 0.5211171 0.4968016 0.38987872 0.08096249 0.37873784 0.3858583 0.38304788 0.73653364 0.4049294 0.6864091 0.68013525 -0.10286455 -0.06660262 0.025163114 0.3310172 0.6828758 -0.04822567 0.25344115 0.28990722 0.3487579 0.6747029 0.6500927 0.16315964 0.25174454 0.31554657 0.32935596 0.5978026 0.08527374 0.033999816 0.15076706 0.19107015 0.4605952 0.1618472 0.13457134 0.028382115 0.2470014 0.4605531 0.45133555 0.22510809 0.16492827 0.14254987 0.09174161 0.21010134 0.31218255 0.38731343 0.36677617 0.44709653 0.44287947 0.39250797 0.35787094 0.22482696 0.17730823 0.16282251 0.27975726 0.27516305 0.33732754 0.3827014 0.38793716 0.32341227 0.27452216 0.31934905 0.34622484 0.35903758 0.30707657 0.25249323 0.28090826 0.27716446 0.26711532 0.25463784 0.12893288 0.121483475 0.3280573 0.32890195 0.2727305 0.29925412 0.34332007 0.28086746 0.41246536 0.37882712 0.32910907 0.37403393 0.3814677 0.48046845 0.6970125 0.4312386 0.33909976 0.77906525 0.31840026 0.34040552 0.80079204 0.4013404 0.51745373 0.7441853 0.81502795 0.80070686 0.4198022 0.35546535 0.31890732 0.5072286 0.5299785 0.5111704 0.4717834 0.4580762 0.41320914 0.33035493 0.29358494 0.24701706 0.21442208 0.19679399 0.4840405 0.5022097 0.48853672 0.44941387 0.3965903 0.10691288 0.18401916 0.22224544 0.18703023 0.26317853 0.44915408 0.44131634 0.33679935 0.2874984 0.25107616 0.28265586 0.28744584 0.39811337 0.1683762 0.43686455 0.39658684 0.2909012 0.24109772 0.25628883 0.32347733 0.31183964 0.25950742 0.32213774 0.31903294 0.18578753 0.3139623 0.20407514 0.10954699 0.05664663 0.15246363 0.40201163 0.47058076 0.094952166 0.38498396 0.4913971 0.51600415 0.34055376 0.24737336 -0.0037497692 0.2788189 0.4955423 0.5160332 0.5665395 0.44344527 0.33248007 0.24764782 -0.015940674 0.071144015 0.49949268 -0.12340307 -0.1192867 -0.12920186 0.45089406 0.3875034 -0.12008048 0.09917459 -0.07626009 0.25552827 0.41019988 0.38810235 0.14328639 -0.037548423 0.486538 0.43089855 0.21506786 0.32639542 0.30302516 0.24233386 0.09958246 -0.09109753 0.5218666 0.453513 0.3125064 0.14807975 0.23065192 0.22585596 0.27517438 0.25600377 0.351758 0.06614762 0.024501652 0.07410104 0.18331455 0.24444452 0.34196147 0.38871038 0.3607363 0.37988234 0.27169412 -0.06803027 0.2416322 0.42164958 -0.080794565 0.7233274 0.7285997 0.7102894 0.5884774 -0.14430836 0.2677472 0.33392704 0.30673832 0.6865761 0.69902194 0.35756803 0.24827343 0.6528622 0.26214895 0.55231225 0.5165072 0.18771163 0.4374383 -0.036085207 0.28246135 0.28497735 0.42698023 0.42410892 0.1433616 -0.06141256 0.35530308 0.34217635 0.4454512 0.40484482 0.34593034 0.20618413 0.37097615 0.2413394 0.35251325 0.3569098 0.36183667 0.3780846 0.33709013 0.3304452 0.21825111 0.349098 0.3109718 0.299502 0.25848192 0.40540987 0.19703093 0.18256555 0.46886742 0.27521202 0.33037806 0.43292433 0.43703103 0.40220788 0.7120687 0.7739787 0.2941305 0.29865944 0.7730392 0.6515443 0.72303545 0.55410075 0.5462856 0.53715754 0.49990076 0.48706925 0.5213952 0.50206715 0.5144973 0.5026228 0.45905706 0.3995185 0.38100398 0.32938695 0.4565333 0.5233793 0.5421591 0.52716553 0.45190442 0.4655961 0.48588893 0.47517788 0.43464923 0.36684614 0.31375766 0.21595952 0.42756352 0.51626 0.4776061 0.12984991 0.37594247 0.41386774 0.47337872 0.47633952 0.20332935 0.1330222 0.06555443 0.38769636 0.37940928 0.06508871 0.13998029 0.18902875 0.18874143 0.29655087 0.41729808 0.45022416 0.20474961 -0.03237669 0.04329835 0.3173049 0.39719996 0.3984182 0.19407192 0.1608571 0.23802777 0.26997268 0.33697698 -0.09326896 0.016843665 0.21607786 -0.038339287 -0.19605584 0.35097826 -0.062576115 -0.03150074 -0.011649564 0.44721243 0.21757767 -0.020899618 -0.21209036 0.5620395 0.597391 -0.030952416 0.1330374 0.23540387 -0.18870325 0.0444206 0.3217163 0.5396646 0.58322656 0.43977475 0.36507183 0.3181562 0.17882906 0.10010059 0.021424651 -0.14992599 -0.07764502 0.23807906 0.36506715 0.51883173 0.5446024 0.533179 0.43295193 0.22947833 -0.08421103 0.56835926 0.5365462 0.31563017 0.12534583 0.0995758 0.098378524 0.54838294 0.4976517 0.43792224 0.2218257 -0.030716382 0.1701719 0.04012096 0.24100956 0.33581397 0.4402662 0.36576468 0.11537326 0.103722304 0.19744669 0.6098222 0.68265027 0.7591568 0.7655569 0.097511545 0.17423558 0.68452513 0.8019258 0.82220244 0.7957602 0.7178752 -0.24907349 0.25674206 0.61560845 0.70285326 0.8028999 0.8422246 0.8110592 0.6846197 0.656831 0.6258275 0.21669424 0.8029562 0.82930446 0.6168639 0.08398694 0.4930387 0.10144094 0.37838334 0.33047965 0.18496677 0.18670769 0.40000567 0.21023344 0.2840413 0.35537332 0.27164623 0.29818255 0.23169735 0.26521552 0.24540238 0.2760471 0.36955518 0.3341616 0.3203346 0.09252116 0.41406184 0.4368527 0.15510373 0.2819871 0.43064082 0.43895406 0.3968404 0.37457806 0.37744427 0.35099468 0.3267496 0.29601187 0.26233926 0.594168 0.3200343 0.5794432 0.5752976 0.5658262 0.5395679 0.5032331 0.58363307 0.57307947 0.47813648 0.45469442 0.5693782 0.43753248 0.41844022 0.374897 0.34509605 0.20420483 0.13885285 0.11485475 0.09931752 0.3910148 0.5105146 0.53689444 0.47570395 0.45013103 0.1430217 0.06116886 0.03327397 0.019718256 0.09412928 0.29174942 0.3416195 0.31598008 0.40194428 0.024855427 -0.041993417 -0.073850915 0.109417416 -0.09987805 0.10228531 0.29535693 0.2843565 0.34500656 0.26804036 0.25764194 0.22700167 0.4874619 0.40542385 0.07308692 0.5305957 0.43188363 -0.09941825 -0.15634015 0.47683638 0.31619897 0.15949151 0.049617514 0.05359035 0.2635906 0.16067669 -0.16537404 -0.03723149 0.09784774 0.40724993 0.48842624 0.56466806 -0.058129057 0.3417754 -0.19620986 0.5521286 0.6217044 0.6458659 0.33040985 0.2150763 0.04648295 0.61450535 0.6434475 0.43211123 0.42862374 0.55123776 0.5981035 0.48338145 0.51841795 0.088495046 0.3291714 0.4169265 0.49606892 0.4803679 0.52886397 -0.34511417 -0.25615633 0.42655563 0.39658207 -0.028152645 -0.19458427 -0.084622756 0.4832964 0.58824825 0.65697837 0.39415437 -0.035985976 -0.1789593 -0.22214939 -0.14366966 0.38728714 0.72846556 -0.020724863 -0.1640253 0.05362292 -0.13435188 -0.09438585 -0.1148482 0.3926399 0.7602351 -0.15766628 0.56808627 0.8269012 0.7861271 0.7140616 0.76761377 0.807374 0.76527107 -0.114785 0.23101239 0.12978828 -0.054832954 0.07646019 0.18469459 0.014876232 0.11505816 0.12104685 0.057962522 0.20495355 0.20534271 0.26585123 0.2651157 0.25602728 0.25617796 0.26634872 0.27434108 0.18346556 0.058030285 0.091548294 0.07536654 0.31538278 0.047629833 0.031604975 0.36873236 0.3337766 0.05370699 0.40121377 0.4055489 0.3775971 0.3595293 0.3548136 0.33731323 0.3760779 0.30974957 0.2862391 0.24825448 0.35114798 0.5613781 0.53451943 0.495368 0.56006086 0.57740116 0.5729594 0.46102965 0.40518516 0.5530439 0.5808356 0.3892048 0.117292956 0.5163734 0.33116502 0.1789538 0.114271544 0.080318645 0.16066459 0.18052788 0.12449386 0.33679062 0.4224794 0.5006925 0.42566654 0.5053249 0.3506131 0.30645403 0.20100218 0.102445915 0.07404822 0.19412552 0.23803172 0.44222963 0.38991863 0.29577908 0.122184455 0.499627 0.49881566 -0.004038118 0.5559728 -0.08244783 0.5267437 0.48113266 -0.12898706 0.4469828 0.37667084 0.59922206 0.6479034 0.107972026 0.13525441 0.051388368 -0.060747042 -0.25552487 0.6837536 0.71343213 0.11821954 0.21152367 0.008867633 0.6508906 0.6968852 0.38655502 0.5341393 0.61919117 0.41027412 0.39037174 0.4972983 0.4926617 0.40348107 -0.3526767 0.15913516 0.120412946 0.31069356 0.3686629 -0.35044956 -0.19967231 -0.17058909 0.83970237 0.82477117 0.28769046 0.23332661 -0.14965448 0.87641823 0.8779305 0.8694544 0.81798166 0.15038857 0.6832496 0.66901386 0.8482067 0.84538114 0.7806823 0.68683463 -0.15513285 -0.16635522 0.50714624 0.6935684 0.76361656 0.65088356 0.5735593 0.01186721 -0.13289794 0.46933717 0.68372315 0.708495 0.736512 0.6077964 0.5686892 -0.24922764 -0.17073119 0.14565459 -0.26011145 -0.06967573 0.027544057 -0.02027262 0.036226824 0.053438578 0.022933714 0.0772042 0.21127298 0.05385159 0.26946226 0.2845146 0.2777425 0.25949866 0.20451708 0.101594776 -0.1470052 0.16008382 0.34666955 0.08970249 0.23916563 0.36360717 0.36928 0.37178198 0.3614425 0.34247813 0.30940667 0.5228163 0.3501579 0.33381096 0.30740213 0.5092821 0.261622 0.26552975 0.28198323 0.54728603 0.5357613 0.46743518 0.40024874 0.5562865 0.32403642 0.2575639 0.3829632 0.44578886 0.3125923 0.26049197 0.23501086 0.3456059 0.18247786 0.17866479 0.16317672 0.20090134 0.20813668 0.47878742 0.13429642 0.23421082 0.25763535 0.34989893 0.3036694 0.45471233 0.010644063 -0.03918365 0.2795664 0.14391863 0.032095194 0.083108366 -0.26230264 0.1365319 0.18862219 0.034431018 -0.020014966 0.09921123 0.43518808 0.4000846 0.51080966 0.54287267 -0.1862585 0.43705583 0.5030413 -0.11702826 0.008237079 0.39956474 0.40790987 0.07319501 0.5211581 0.63934803 0.20173192 0.71053123 0.72065914 0.25521338 0.71599984 0.33852223 0.576995 0.65057945 0.36570686 0.4483917 0.51723796 0.2784869 0.39155614 0.7597773 0.75796163 0.30608976 -0.39070702 0.3247402 0.84421456 0.812423 0.77058613 0.7096061 0.6607406 0.1441328 0.47874057 0.8683077 0.6096023 0.52308893 -0.0477821 0.576928 0.83527166 0.5871019 0.5647646 0.76013637 0.7090655 0.5241325 -0.1082471 -0.15736653 0.44361436 0.58835524 0.56138825 0.62972546 0.62936294 0.54722583 0.5103645 0.07178177 0.5999815 0.60104346 0.5707381 0.5273807 0.07076368 0.19916852 -0.27697927 -0.20074742 0.3548101 0.29328716 -0.116793886 0.30797017 0.20861433 -0.011161968 -0.013472665 0.2504411 -0.028694943 0.2881322 -0.0052356943 0.29798377 0.2960384 0.2567384 0.19015351 0.25803182 0.27774057 0.07585207 -0.070965074 0.16988248 0.25412932 0.27761543 0.16294333 0.11223748 0.21524781 0.24292949 0.2521359 0.2603287 0.25205725 0.27976802 0.109025575 0.38333166 0.27274534 0.24204886 0.52004707 0.26958787 0.38980755 0.50571644 0.29027775 0.29892907 0.27638623 0.26612443 0.36407062 0.19655295 0.5478921 0.5846981 0.61478853 0.5688138 0.24467084 0.12355403 0.40214556 0.47149286 0.45836592 0.37473336 0.44661346 0.33426473 0.16463923 0.2822563 0.0063490123 0.07018012 0.038349576 0.09758563 0.38902342 0.44233012 0.62171274 0.67622864 0.212524 0.09397632 0.0977786 -0.05484367 -0.017855614 0.06771837 0.5186944 0.6256196 0.4426599 0.31082928 0.22321005 -0.019901715 -0.3575493 -0.21248175 0.12474265 0.41905755 0.60013705 0.21472585 -0.006647952 0.47119835 0.47509018 -0.10259471 0.38329616 -0.045680583 0.4203134 0.55219233 0.16267829 0.1100314 0.61324817 0.6838409 0.19501689 0.6746901 0.237511 0.56408775 0.6330832 0.29292825 0.5193471 0.27185065 0.412704 0.72184527 0.70429456 0.65078163 0.19503331 0.7936866 0.737949 0.63599074 0.49068075 0.23339415 0.8345964 0.44936377 -0.2270318 0.32940584 0.7765082 -0.13347942 -0.22200474 -0.28995985 0.6587112 -0.22701563 -0.31062526 0.14226125 0.4228388 0.45222285 0.57975817 0.2535504 -0.12578528 -0.2613002 0.56628776 0.56175137 0.42453307 0.29757723 -0.15261896 -0.3473703 -0.03433537 0.53716546 0.54444796 0.48003 0.39812094 -0.118276305 0.20683713 0.23319909 0.33188343 0.018621981 0.16459256 0.13431801 0.32994273 0.31877935 -0.24181488 -0.070221245 0.32278782 0.31580183 -0.27528185 -0.098193586 0.21064305 0.27593428 0.31647235 0.27632973 0.1367332 -0.0597012 -0.14515024 0.24561791 0.2795341 0.2745888 -0.15287495 0.28055996 0.27041927 0.2554641 0.3600122 0.26215658 0.27080548 0.33344972 0.3588787 0.33865243 0.2377439 0.25283635 0.26619735 0.43958855 0.39375862 0.28663117 0.30489993 0.29416052 0.24298549 0.618861 0.648155 0.66861707 0.6550603 0.64124435 0.5863912 0.4303537 0.08761913 0.0711517 0.12287893 0.49182037 0.55041933 0.6214775 0.67184806 0.6915704 0.65791965 0.6467992 0.11911438 -0.020430133 0.14499857 0.40328175 0.48579597 0.550902 0.61135274 0.41947478 0.17624754 0.002960205 0.40382102 0.60739565 0.35919166 0.39194614 0.1654021 0.14038146 0.0692372 0.13213162 0.11398562 0.70382476 0.49453124 0.46947408 0.08269806 -0.2834957 0.6913904 0.50935435 0.50530213 0.61584485 0.6410661 0.50471735 0.47460687 0.48997632 0.22077578 0.18849239 0.35867435 0.43244946 0.45687932 0.49001002 0.4971012 0.49280792 0.54720604 0.4413125 0.04919651 0.3129935 0.5203806 0.5951116 0.5808008 0.47936484 0.3087568 0.4825462 0.60037076 0.5427551 0.41565293 0.253472 0.5515349 0.4973765 0.35881865 0.21596506 0.5083848 0.17030317 0.44551963 0.491251 0.3277745 0.41989034 0.643741 0.13894182 0.15910953 0.6233289 0.5222582 0.68341905 0.07948856 0.7069898 0.25445908 0.18588331 0.49508107 -0.2473215 -0.31472084 0.2690488 0.46921864 -0.09831224 -0.07201278 -0.092386514 0.26664305 0.464236 0.49492684 0.0932221 0.103847794 0.2881255 -0.032375246 -0.29799014 0.28651255 0.2873053 0.5008869 0.43746516 0.398369 0.32992825 0.1512756 0.2597821 0.25274318 0.32989323 0.19957928 0.17647117 -0.005588636 -0.2105701 0.26299235 0.2606175 0.3965623 0.2988203 0.40735745 0.50451666 0.5609605 0.54904014 0.5379814 0.16010343 0.21921134 0.21957403 0.19593084 0.2053106 0.20688957 0.5584535 0.5493959 0.29293066 0.24473013 0.099641256 0.2867986 0.26710194 0.25118542 0.1411664 0.15699258 0.2388307 0.22001804 0.14405271 -0.2248699 -0.26071265 0.25124383 -0.18663518 0.25311923 0.27337587 0.24426189 0.23284641 0.33269262 0.29078418 0.31472048 0.39603996 0.34693897 0.36329666 0.3484424 0.38167137 0.24935299 0.288909 0.25588995 0.21264622 0.24943021 0.39659238 0.386905 0.30752623 0.2604868 0.35611317 0.33300787 0.6404832 0.6256771 0.559948 0.42595994 0.27995557 0.23649314 0.64641285 0.6741633 0.636426 0.65013355 0.64362717 0.55425113 0.016317863 0.07461724 0.49770054 0.5744002 0.62597394 0.672786 0.64640886 0.59036094 0.64341366 0.02975012 0.19096108 0.31849492 0.3868346 0.55788815 0.52171624 0.5272616 0.5335864 0.6217234 0.66320163 0.40046167 0.36818272 0.34022224 0.20912808 0.69839466 0.69968075 0.47837418 0.47278437 0.44713518 0.15095592 0.2906871 0.6922267 0.6939553 0.4887516 0.59404427 0.65984964 0.49396312 0.33006996 0.47085592 0.34951088 0.25843602 0.15179259 0.40545774 -0.35490155 0.47964567 0.50214595 0.57296395 -0.10384955 0.563833 0.56376624 -0.049447995 0.5784476 0.31237644 0.36883685 0.58746624 0.4349245 0.46501958 0.5530503 0.5629482 0.19443414 0.40925625 0.46297276 0.023686163 0.37745166 -0.051848933 -0.21899176 -0.43551502 -0.50698847 0.13545768 0.47675452 -0.14549573 -0.13033544 -0.29674155 0.4068021 -0.32093704 0.40197453 0.3255335 -0.05308988 0.19921234 0.41979104 0.42831075 -0.011905685 -0.337309 -0.25241026 0.26765174 0.40652752 0.4037032 0.025612704 0.109802976 0.10360646 0.09986316 0.26518738 0.3522027 0.33665276 0.4312182 0.1368863 0.029846877 0.4265082 0.53401387 0.5578934 0.5504564 0.51770806 0.25385538 0.23906974 0.31226337 0.5507385 0.54722524 0.23547176 0.2809841 -0.05787969 0.1978635 0.23175868 -0.24534139 -0.19994698 0.20636643 -0.11599994 0.1415502 0.18264005 0.10465065 0.35681322 0.36000568 0.40031618 0.3804118 0.34896463 0.23761414 0.41495007 0.28973544 0.10160144 0.41539672 0.46382722 0.43919307 0.36335397 0.48907012 0.43554133 0.37922174 0.35318968 0.41255066 0.33765763 0.31153688 0.6232282 0.585044 0.49482536 0.4348674 0.3225679 0.24643347 0.18750551 0.62037253 0.6403718 0.09600033 0.18003647 0.47404262 0.50615317 0.61226255 0.6366416 0.60740924 0.5988156 0.26348966 0.40130198 0.30766305 0.37694842 0.42209992 0.55717456 0.45011824 0.4475587 0.2964276 0.30767807 0.43149954 0.54411733 0.43855983 0.41120487 0.36241573 0.28982356 0.5710253 0.6499532 0.46827853 0.4541026 0.43889454 0.10076207 0.17152745 0.6688479 0.45806456 0.462514 -0.31482533 -0.5016075 -0.045754705 0.48154435 0.5770071 0.43379703 -0.3744362 -0.4738388 0.23423043 0.4010898 0.27839825 0.25660414 0.10500397 0.29658827 -0.24359836 0.47576648 0.4311328 0.4345851 0.0148884 -0.13483429 -0.105899416 0.4789019 0.5572285 -0.09572047 0.55866134 -0.0824943 0.552249 0.5516247 0.20178352 0.27825394 0.24402909 0.31516084 0.410349 -0.1781967 -0.09647994 0.31705615 0.3658434 0.26857316 -0.28542078 -0.4626739 0.25979993 0.34185815 -0.23535001 0.08859134 0.18837304 0.32345313 0.29678077 0.16984789 0.036219906 0.08154158 0.07917098 -0.22814095 -0.03722364 0.10056254 0.15749797 0.256241 -0.098715924 0.026464537 0.11602203 0.25029063 -0.047666408 0.05959159 0.32792035 -0.014411636 0.052295007 0.046141237 0.3379231 -0.0933105 0.03466031 0.14178176 0.2245605 0.15194048 0.20939374 0.057004634 -0.025141366 0.23296294 0.3022831 0.45322815 0.3875556 0.5065563 0.521906 0.47332823 0.2823940