# vtk DataFile Version 2.0
Really cool data
ASCII
DATASET POLYDATA
POINTS 7243 float
2.3421185 -4.162713 4.9191294
2.3420112 -4.2274733 5.367365
2.3347363 -3.5519705 4.7254567
2.2120194 -3.5073876 5.31176
2.344277 -3.5900424 5.835759
2.3161664 -2.7344756 4.783302
2.3683367 -2.2087712 5.323149
2.4304578 -1.8711096 4.7852435
2.39821 -1.7741762 5.2869544
2.3131304 -0.96520215 10.862707
2.352363 -0.9235742 11.278453
2.2511325 -0.46141598 10.665014
2.2432675 -0.5230718 11.344224
2.3970363 -0.1881282 12.099992
2.237844 0.24026135 10.604191
2.172177 0.3773165 11.464539
2.3402138 0.42506057 12.223307
2.2208853 1.2314305 10.952831
2.2486677 1.6131605 11.572771
2.217197 0.9995065 11.970247
2.3659308 2.1972032 11.6273775
2.8876088 -4.7932425 4.666129
2.807126 -4.8259964 5.409747
3.0440323 -4.849036 5.782936
2.8729527 -4.278589 4.170779
2.5524087 -4.254286 4.663287
2.5051198 -4.5248895 5.431762
2.7963998 -4.3086724 6.075812
2.8182125 -3.568789 3.9985075
2.5645864 -3.633292 6.0613194
2.999806 -2.930141 3.71673
2.5221062 -2.4318135 5.5261054
2.9895308 -2.385229 6.3461633
2.7965248 -1.6509128 10.850407
2.9403973 -1.6893749 11.2782755
3.1347284 -1.6029981 3.8672538
2.625957 -1.5727054 4.5149107
2.5331028 -1.3408884 5.42518
2.7971342 -1.6749899 6.1681943
2.720987 -1.2660605 10.209163
2.6289158 -1.2711058 10.545639
2.6462765 -1.3362098 11.396514
2.9711297 -1.2609872 12.185321
3.048213 -0.8646414 12.751398
3.183607 -1.2173711 3.984724
3.0267484 -1.0068879 4.4565783
2.7431173 -1.0345507 5.494966
2.8227284 -0.9864797 5.8853073
2.5424685 -0.10897876 9.9856615
2.6531205 -0.3729869 12.415129
3.0185251 -0.46360353 12.871203
2.9226594 1.0844216 8.603068
2.5345812 0.41448906 12.488962
2.981275 0.19486699 13.041143
3.1716177 2.0337162 7.2312694
3.0022829 1.6143748 7.7084565
2.7596228 1.7580777 8.31486
2.6660352 1.3604659 10.089501
2.5306566 1.1302158 12.5615225
3.1316361 1.5069982 13.140094
3.0884147 2.8449845 7.0824924
2.835908 2.5314867 7.673787
2.7533288 2.3906853 8.322797
2.7900171 2.1435416 9.406078
2.8743048 2.4235394 10.774424
2.5342424 2.3095403 11.283464
2.730174 2.533441 12.588681
2.852776 2.5661008 13.012591
3.2075207 3.035125 7.048707
2.992792 3.4056168 7.5333824
2.888196 3.1519098 8.581265
3.1694186 3.5346546 9.800856
2.7655487 3.526396 12.043687
2.7246346 3.760305 12.461146
2.9811788 3.6531653 13.299176
3.2491775 3.883416 13.698375
3.239791 4.174271 9.825404
3.102964 4.381002 10.854004
2.9599714 4.324853 11.611857
2.8973496 4.4506855 12.528542
3.058249 4.3855414 13.197908
3.259886 4.970364 11.772193
3.1826386 5.0031743 12.677282
3.233886 4.944913 12.993308
3.5144773 -5.140864 4.679256
3.6627223 -5.1631527 5.3763113
3.678464 -4.808812 5.9293704
4.097816 -3.884114 3.2900836
3.4935222 -4.3673286 3.7497792
3.503822 -4.5848894 6.1817894
3.7345345 -3.1166945 3.1691618
3.3546915 -3.1872942 6.502192
3.7978761 -2.4244807 2.9886007
3.3939695 -2.2931783 3.430877
4.0097494 -2.2701414 6.7292533
3.5516095 -1.8240776 10.345089
3.6016314 -1.9377851 11.563684
3.7290173 -1.8032014 12.255455
4.128452 -1.7381989 12.9346895
3.8994176 -1.558325 3.1113052
3.4136183 -1.7284199 3.6216445
4.0903254 -1.1483091 6.447362
3.7255464 -1.1309388 6.5880523
3.9291086 -1.1967926 9.498137
3.5450714 -1.3613575 12.664423
3.8225467 -1.1708361 13.177673
4.1137977 -0.90871537 13.764707
4.0785537 -0.5849299 3.4888346
3.4426703 -0.44993556 9.425609
3.6400304 -0.4626894 13.500809
4.041396 -0.5161725 13.827119
4.1746264 -0.15434702 3.988496
4.003736 -0.029268444 5.391129
3.4628575 0.1589659 13.527483
3.859875 0.3413914 13.777888
3.8463252 1.7242701 6.8017616
3.6374216 1.0736318 13.574939
3.7946591 0.97708744 13.608772
4.158739 3.0813584 5.627426
3.4912846 2.9323266 6.6711845
3.393136 2.4047246 13.555192
3.4507575 2.8199556 13.633392
3.9355867 3.6665351 5.6344686
3.553946 3.9098406 6.3483644
3.7347069 3.5759056 13.934817
4.2626524 4.159864 5.1021023
3.834472 4.237578 5.7032723
3.5423462 4.6255302 7.6003814
3.484909 4.4601717 9.743384
3.8127825 4.374844 13.83192
4.3719816 5.123406 4.8579106
3.8887796 5.2426796 5.8887105
3.7384 5.4227266 6.4962173
3.6892834 4.918244 7.8592567
3.796093 4.904605 8.611757
3.9526443 5.179013 9.754303
3.7324176 5.2594786 10.649191
3.8660595 5.577102 11.731389
3.6426406 5.374021 12.511716
3.6726127 5.140046 13.191519
4.0796623 4.8557177 13.673353
4.4103045 6.5143085 5.6805387
4.1628666 6.1614156 6.343845
3.9179308 5.8953037 6.9550858
4.15037 5.795317 10.853859
4.0314093 5.6591973 11.434321
4.6628966 -4.929026 3.9624703
4.3006473 -5.070148 5.477005
4.245216 -4.732248 5.9405255
4.3754244 -4.1967907 3.3534575
4.305298 -4.4348655 6.1226864
4.72463 -3.058531 2.7103882
4.7046757 -3.5747697 6.56178
4.8797297 -2.2431998 2.3470502
4.8421035 -1.9364948 10.116281
4.804909 -2.2206702 11.385506
4.5560074 -2.1005692 12.416861
4.6674905 -1.8570491 13.051677
4.8682947 -1.3006905 2.3878531
4.576118 -1.5775876 2.4881678
4.37935 -1.9309679 6.6714406
4.3521914 -1.3074584 9.718564
4.4834194 -1.2298286 13.594628
4.7269545 -1.0435376 13.87481
4.6194854 -1.0932779 2.7404215
4.531819 -0.49314624 3.4997206
4.6550326 -0.4570957 8.833562
4.670986 -0.4197519 14.161488
4.5524473 0.005752325 3.6663783
4.528119 0.46104047 14.1825285
5.278844 0.74978256 3.8580935
4.7993784 0.6523851 4.6960306
4.568598 1.1883053 13.929322
4.8490252 3.013187 5.075829
4.372519 2.444997 5.9518437
4.413274 2.7755604 14.057599
4.572809 3.3462272 5.1227584
4.44185 3.5409408 14.176714
4.8748546 4.575201 4.2265134
4.457032 4.455713 4.7923326
4.4526267 4.286035 14.0535145
5.0751987 5.1622887 4.1379914
4.6107583 5.415635 4.7038984
4.455052 5.3574595 13.184887
4.359858 4.7646384 13.778185
5.2585964 6.2589054 4.182764
4.7683187 6.2858834 4.7557626
4.4763336 6.472614 6.515389
4.906759 6.221995 8.358996
4.806356 6.0546494 9.489319
4.7847004 6.284949 10.355001
4.9740047 6.306807 11.761913
5.1564064 6.3173122 12.198485
4.9139743 7.1409774 4.9032354
4.724703 7.2400665 5.7181115
4.817393 7.218781 6.2334924
5.005957 6.8891907 7.0713778
5.239335 8.042476 5.1817255
5.355168 7.9997144 6.0741425
6.1895866 -11.869403 -1.1192062
6.1313214 -11.991178 -0.64561933
6.1322117 -11.980091 0.35148817
6.3726254 -11.977563 1.414593
6.233255 -11.078041 -1.7182541
6.041829 -11.349485 -1.3620383
5.8363795 -11.47259 -0.31355345
5.9113035 -11.340948 0.39582312
6.2277784 -11.400273 1.4316761
6.1359277 -10.406359 -1.8007888
5.8856735 -10.621682 -1.2196697
5.6733723 -10.419997 -0.8853722
5.874777 -10.068307 0.5566418
6.4187837 -10.527256 2.108765
6.2057 -9.552842 -1.9588448
5.961557 -9.596609 -1.4349074
5.730346 -9.934292 -0.46934676
6.0204635 -9.8611965 0.5119379
6.0825043 -9.640326 1.1210204
5.937022 -9.0484495 -1.2973192
5.861658 -9.110557 -0.4047724
6.407 -8.264078 0.48082864
6.3079195 -8.637714 0.9998952
6.3792806 -7.9066553 -0.5797253
6.462857 -8.011684 0.3988304
5.029342 -5.040443 4.8878846
5.58846 -4.7220597 5.052841
5.8410826 -3.7024186 3.0594244
4.9922967 -3.8574865 6.206161
6.0861993 -2.7898848 11.2530985
5.823223 -2.053001 8.18002
5.463198 -2.379774 9.915844
5.8120275 -2.3738778 12.399946
5.364639 -1.832049 13.213592
5.1861396 -1.6970981 2.2555048
5.7778034 -1.0878217 13.962183
5.77315 -0.33802265 14.453683
5.8972616 -0.1381781 14.646056
6.1143355 -0.16364148 2.3217964
5.524126 0.5588979 3.516184
5.870845 0.6033502 14.804006
5.9036455 1.4493834 3.7725194
5.9270434 1.6859756 4.384558
5.5600686 1.189036 14.560028
6.243171 3.9497573 3.1074135
5.481363 3.6729372 3.8037705
6.135882 4.566279 3.1324468
5.693149 4.6174793 3.5138867
5.1854105 4.1905317 14.059306
5.79834 5.401028 3.6740894
5.592444 5.069104 13.518664
5.7348533 6.211134 3.9023314
5.507271 6.369784 12.39382
5.6718354 7.467534 4.3758445
5.392301 7.349006 4.486988
5.881295 7.77775 8.235497
5.857296 6.6279507 9.545793
5.2686243 6.605929 10.654207
5.726809 6.737015 11.761717
5.5467834 6.575884 11.987207
5.578994 7.9970374 4.867099
5.559675 8.34223 5.5117903
5.7768035 8.641979 6.4489384
6.265224 8.820457 5.4394135
6.024456 9.0313635 7.2465487
6.379019 9.396509 8.467695
6.242877 10.493493 7.467421
6.363939 10.359333 8.258294
6.4169025 11.264202 6.842189
6.3874307 11.425856 7.303632
6.406456 11.269291 7.932358
6.8951654 -12.6426525 0.6607766
7.0581064 -12.72395 1.267514
6.8903756 -11.748436 -1.7246864
6.709789 -12.123879 -1.2590244
6.654556 -12.354902 -0.5793267
6.6565576 -12.391702 0.51365453
6.8349566 -12.414593 1.5619202
7.0114646 -12.134069 2.0883312
6.6059422 -11.426061 -1.7655133
6.428537 -11.660199 -1.5936192
6.819421 -11.424162 2.2604907
7.141255 -11.436161 2.6472218
6.6519313 -10.053041 -2.2929533
6.638285 -10.518342 2.2501192
6.6523886 -9.459522 -2.4298575
6.892514 -9.679734 2.4815428
7.297131 -9.585583 3.0578375
6.591582 -8.9861 -2.2218838
6.488044 -8.282581 -1.690959
6.6953955 -8.909827 2.1143377
7.3114715 -8.750718 2.9570878
6.8876944 -8.153727 -1.968258
6.463987 -7.9381294 -1.1943514
6.7715425 -7.1655354 0.76806396
6.6293964 -7.059371 1.4496539
7.158595 -7.7211123 2.4596353
7.3612385 -7.7631316 3.3017402
6.801109 -7.215231 -0.7808617
6.9049635 -6.4477806 0.6201688
6.8932166 -6.6363072 2.101105
7.284066 -5.275649 -0.68968135
6.9484234 -5.6410594 1.664362
6.911434 -5.927649 2.3743427
7.361655 -4.603831 -0.36503792
7.444965 -4.317875 0.040436476
7.101936 -3.8728585 7.8005886
7.107723 -3.8967776 9.400333
6.892094 -3.4211385 2.2596729
6.607058 -3.2138424 8.622176
6.8587637 -3.637045 9.9607525
6.814106 -3.0868046 11.426361
6.795052 -2.7688336 12.045576
6.4811015 -2.2499208 1.9958202
6.0612135 -1.9756881 12.929394
6.748985 -1.0723186 14.079443
6.532731 -0.7321626 1.9890298
6.717109 0.20544729 2.1782646
6.4760704 0.499771 15.01678
6.515494 0.914191 2.899317
6.5914464 1.1362677 15.046488
7.0641017 2.1851785 2.6107333
6.3666215 1.980752 14.488853
7.1735997 3.920964 2.1716874
6.6989417 3.6794708 2.6289105
7.0158825 4.2710285 2.318426
6.656272 4.5492687 2.6561544
5.993118 4.243309 13.882278
6.7927766 5.138063 2.8176277
6.8182654 5.265817 13.3358345
6.4595075 6.2615657 3.6103973
6.4046407 5.977943 12.926822
6.2148175 7.361625 4.137599
6.6011233 7.137915 10.425519
[...]
POINT_DATA 7243
SCALARS features_00 float 1
LOOKUP_TABLE default
0.8143734 0.8360028 0.753435 0.77293336 0.79315406 0.69207025 0.6842766 0.6394622 0.66163987 0.601333 0.589776 0.5826681 0.5777167 0.52758574 0.51960117 0.529333 0.4859642 0.42069283 0.42421326 0.47025573 0.38495868 0.8578307 0.8742658 0.86935914 0.7937588 0.8140633 0.8594938 0.85719097 0.7098665 0.8152683 0.6085956 0.7069946 0.7185599 0.60647804 0.5919286 0.506893 0.60318315 0.65068805 0.68468064 0.6053376 0.6110817 0.5901567 0.5408007 0.49204737 0.4880016 0.53520244 0.6501429 0.6846751 0.54682773 0.5071437 0.47111756 0.27588573 0.4598008 0.42703578 0.27905208 0.28647333 0.29032153 0.30007762 0.41949472 0.34864146 0.2886437 0.29805124 0.28648677 0.23566554 0.26874182 0.33582813 0.43505496 0.43328184 0.2902087 0.30111277 0.25869897 0.20217828 0.4466569 0.52570695 0.5842662 0.6074809 0.19981411 0.30984834 0.41483843 0.56855625 0.632692 0.45221215 0.58597744 0.6216226 0.89669096 0.8347718 0.81579494 0.5823648 0.7663446 0.81730384 0.52291715 0.81437147 0.4496212 0.48674214 0.68546003 0.56633526 0.5474166 0.5003293 0.4509535 0.4010837 0.46497422 0.65205324 0.661825 0.45223045 0.4896921 0.45685935 0.42737955 0.34918535 0.52164435 0.43481266 0.41736346 0.32814896 0.51309925 0.4057834 0.37831035 0.22482991 0.33128583 0.3323962 0.24563457 0.2655122 0.38350528 0.44793063 0.2632817 0.29516125 0.5583484 0.2889307 0.3043574 0.26825204 0.19532575 0.6226554 0.3535096 0.3817763 0.34955895 0.22016865 0.15858634 0.20226699 0.29433182 0.41283464 0.5363196 0.6190231 0.61367583 0.40487462 0.34484982 0.28174376 0.30313683 0.3686082 0.9206104 0.7608828 0.74253535 0.60790247 0.7247835 0.40050694 0.72983944 0.34548336 0.35207492 0.4252547 0.42434928 0.4166503 0.31294364 0.35272914 0.61902773 0.4022494 0.4207258 0.40330184 0.32952327 0.30851552 0.24321163 0.3879495 0.27428395 0.34613883 0.15313986 0.17420852 0.28082216 0.18376362 0.20648828 0.36152506 0.23767495 0.49675304 0.2790978 0.29640973 0.5602286 0.3043926 0.36305112 0.55613756 0.58422613 0.37134516 0.42551738 0.32254428 0.08896576 0.16882946 0.24612814 0.33648676 0.36802447 0.44927493 0.4068737 0.35828722 0.22667764 0.42853653 0.3700806 0.7527752 0.7791153 0.8048769 0.7828027 0.69180256 0.70765346 0.7531452 0.760806 0.73466516 0.64223194 0.6587236 0.6477988 0.5336815 0.5808801 0.5668807 0.5667567 0.57824534 0.49032897 0.436079 0.5097618 0.4596526 0.29161853 0.31883836 0.3396929 0.267417 0.79658693 0.65952003 0.3399592 0.64454347 0.23264089 -0.05161929 0.16353622 0.29488355 0.3670913 0.2930607 0.3236732 0.31821692 0.3030025 0.19056453 0.15512992 0.30870467 0.05012279 -0.052381054 0.29007494 0.22987467 0.20766631 0.2659365 0.26907042 0.4420382 0.29197732 0.41140923 0.32603708 0.34996235 0.38760906 0.41877776 0.034347847 0.10235925 0.23965819 0.24664971 0.29481044 0.41377348 0.40688357 0.30764207 0.3210927 0.22578456 0.2070767 0.39996412 0.33157593 0.48859096 0.4847409 0.43020976 0.8103492 0.80860853 0.738693 0.77021265 0.8054051 0.816306 0.8077208 0.79479325 0.7210562 0.73530376 0.7218102 0.7111863 0.6170457 0.578455 0.5450014 0.4513775 0.43433306 0.4952589 0.42562896 0.36254114 0.35667744 0.38225204 0.37614325 0.17284246 0.18298271 0.28273228 0.30371675 0.23130201 0.1300515 0.18422626 0.22223347 0.121099986 0.16808096 0.2755429 0.28713948 0.29058728 0.2875504 0.13200685 0.22717117 0.23729874 0.14638595 0.09501192 0.22436781 0.2776273 0.16874492 0.17058578 0.1497753 0.26247478 0.115500234 0.27497435 0.1386847 0.20921072 0.252855 0.22547227 0.26437643 0.2693249 0.25806916 0.2683541 0.20525193 0.2608557 0.33008093 0.3107138 -0.003208585 0.14909145 0.22896498 0.2627215 0.010292001 -0.1783451 0.22482581 0.29640424 0.42209578 0.21721973 0.45396137 0.49495533 0.4767197 0.4036069 0.29646552 0.5239345 0.5218754 0.45585263 0.37519634 0.5090651 0.51234394 0.78586197 0.78184986 0.79391706 0.76511025 0.7801022 0.7986659 0.7545146 0.729728 0.65619177 0.6992014 0.56311774 0.5164334 0.44426557 0.44705522 0.32863623 0.3494665 0.3646636 0.1816178 0.28178012 0.27092528 0.32504255 0.2522766 0.25688547 0.22882888 0.3355639 0.31507438 -0.0067820996 0.319276 0.27420905 0.25424716 0.20190321 0.32563692 0.33183855 0.098108925 0.35296047 0.12436807 0.27637252 0.20518276 0.17949688 0.27664697 0.19394022 0.16294834 0.18443719 0.055965483 0.0058520287 0.2349813 0.26891243 -0.11777926 -0.023675784 0.36115116 0.25831425 0.39626598 0.5239644 0.54062164 0.19468674 0.17551285 0.55273366 0.6351483 0.5878097 0.19653252 -0.18227877 -0.1820302 -0.11155525 0.46444136 0.5367961 0.6084646 0.63525105 0.13262044 -0.18677732 0.4121025 0.49638852 0.6203186 0.079892166 0.06603624 0.16915569 0.061870247 0.8387706 0.8054874 0.36840266 0.05418752 0.7518155 0.88614047 0.843912 0.84135467 0.46622503 0.22433354 0.13100602 0.550327 0.7245288 0.884518 0.86852396 0.8541613 0.4517351 0.45035297 0.42638958 0.0777532 0.6659608 0.84637773 0.8731247 0.37722662 0.39654604 0.31668618 0.47380292 0.448546 0.48329186 0.568826 0.61127007 0.5478555 0.4862525 0.6117713 0.63706154 0.59445566 0.59124506 0.61238736 0.58124256 0.58530366 0.5843332 0.5693578 0.75216734 0.7657722 0.7404167 0.7181194 0.7113141 0.751359 0.7669234 0.70634556 0.670921 0.697 0.60328007 0.54133254 0.4866055 0.3809946 0.49374497 0.47134858 0.39983836 0.3209797 0.53938264 0.5119122 0.27349323 0.32962632 0.30546534 0.37306312 0.35898203 0.2457363 0.27662796 0.25203955 0.20220885 0.5510522 0.37313008 0.3694323 0.26201382 0.33227196 0.3674544 0.54598844 0.35393965 0.1861238 0.3975247 0.12159028 0.27083534 0.26503652 0.15268175 0.11109342 0.1583543 0.09110721 0.13196632 0.10691692 0.16543378 0.22007364 0.28045532 0.18685539 0.32245722 0.36999255 0.24403366 0.47137913 0.46616364 0.17715207 0.101541474 -0.16957724 0.5521462 0.52265984 0.051064823 -0.18221162 0.5820267 0.5933665 0.049553894 0.038465172 -0.27864376 -0.1353298 0.11412242 0.11642462 0.057097737 0.23910539 0.029720219 -0.1283045 0.104092374 0.11544243 0.65589744 0.7384367 0.7667653 0.73535955 0.18515278 -0.13313061 0.33134413 0.45337427 0.8065164 0.80808234 0.34880632 0.40062988 0.48770514 0.84762126 0.33066884 0.49397063 0.603082 0.83721805 0.84792924 0.34707052 0.20744437 0.23677537 0.2213969 0.72738385 0.7719282 0.3005819 0.3075768 0.39416605 0.5438001 0.36006624 0.42254165 0.4949278 0.55290747 0.5051625 0.50303984 0.44530737 0.47715378 0.5335806 0.5313054 0.5192988 0.67404896 0.6984906 0.7262399 0.6322186 0.62996614 0.56107485 0.64132774 0.67791367 0.7009814 0.5006434 0.59396887 0.5148147 0.49609882 0.4637402 0.47020352 0.499201 0.54754364 0.09959951 0.53505325 0.33727953 0.34434146 0.3109277 0.6849654 0.71650517 0.4274899 0.4195201 0.20679876 0.12067293 0.3518845 0.5591264 0.61518514 0.6803498 0.68530416 0.316527 0.34004533 0.6047174 0.6491384 0.27988786 0.4949768 0.060461 0.27840436 0.060768306 0.18399549 0.108734615 0.25143874 0.2992109 0.035535946 0.32801467 0.153807 0.19527544 0.32527262 0.33065784 0.2671123 0.38044232 0.39504665 0.0686472 0.46252415 0.496147 0.04293432 0.096601315 -0.041296497 0.5062849 0.12101952 0.06225013 0.07109397 0.016095772 0.7556838 0.5989617 0.654614 0.71822095 0.13326806 -0.19378711 0.04897509 -0.015770322 0.05418984 0.75113845 -0.11528506 -0.18594888 -0.20528904 0.09959571 0.25251725 0.80779874 0.20292708 -0.016639732 0.24238664 0.789416 0.06948087 0.030866027 0.040852983 0.3837163 0.53678274 0.6865711 0.10995436 0.15188098 0.090193994 0.3161796 0.71198744 0.3732425 0.4677255 0.6438143 0.78853446 0.8623817 0.86632454 0.4240839 0.4537817 0.463768 0.38034946 0.25788915 0.4517121 0.5693211 0.6982229 0.8000853 0.85889506 0.463759 0.47735977 0.40511006 0.30385962 0.7037531 0.77724886 0.80675244 0.3723851 0.53422683 0.564095 0.46091586 0.50422144 0.29672885 0.011412442 0.08606993 0.34463477 0.39781845 0.44354337 0.4534052 0.3890382 0.32890594 0.4527225 0.45913863 0.19848987 0.4885422 0.04223022 -0.05947794 0.47639084 0.09091935 0.17886621 0.31694278 0.36878866 0.33400327 0.7078692 0.7711767 0.7685417 0.3802838 0.33390957 0.3286332 0.49266905 0.7447191 0.7549467 0.25199834 0.2616544 0.04927337 0.737147 0.22764435 0.21755965 0.56499296 0.3450621 -0.022258177 -0.053401783 0.13188195 0.039875068 0.34283414 -0.008224912 0.35610315 0.023024112 0.06649992 0.34514418 0.18429524 0.29819947 0.31140873 0.17949647 0.3359429 0.3887136 0.18290041 0.22326198 0.28546637 0.20366657 0.41819113 0.4807553 0.20690875 0.1923447 0.57871044 0.65564096 0.22022018 0.19237193 0.093837604 -0.11632629 0.71614903 -0.2410775 -0.18622114 0.637445 -0.10623285 -0.2793205 0.43046808 0.39382967 -0.0018817335 -0.087557584 0.25899723 0.44970512 0.30325207 0.26114437 0.043239243 -0.1436155 0.785888 0.3051892 -0.02141869 0.117228545 0.34535402 0.8422528 0.35836977 0.017506436 0.3442418 0.8301352 0.3597307 0.40232623 0.4150557 0.32668623 0.26561803 0.14713404 0.3706717 0.492204 0.6052241 0.7366879 0.78217864 0.79267216 0.3667897 0.3186446 0.5912391 0.68298435 0.71247625 0.43487433 0.45027706 0.47328353 0.4259144 0.43458784 0.23623228 0.22414185 0.41355652 -0.072995976 0.15647805 0.18177108 0.18610592 0.18422557 0.25452012 0.3427138 0.36905694 0.39194483 0.7706749 0.8184642 0.81910074 0.22618522 0.35394502 0.39757627 0.40836143 0.81239426 0.8003938 0.254346 0.18480304 0.298158 0.3556869 0.7783327 0.18872595 0.08747309 0.043797538 0.12814483 0.6519859 -0.016565561 0.11293113 0.013735488 0.42478243 0.42694023 0.46459335 -0.028608639 0.3965648 0.37351498 0.25090572 0.23802488 0.18363859 0.21827811 0.19572043 0.14862238 0.15967645 0.23685831 0.22786352 0.17847556 0.26183763 0.25593442 0.23852459 -0.15512328 0.22284168 -0.020005483 0.3033404 0.22386563 0.27719373 0.2097525 0.18980452 0.52560073 0.12617005 0.09538019 0.30637679 -0.045882598 0.23559561 -0.031568192 0.1645626 0.5796395 0.15282664 0.24963748 -0.15580094 0.7198936 0.21869484 0.24524567 0.009280026 0.7708539 0.32896626 0.18774647 0.029531334 0.07604118 0.21838348 0.321702 0.73356324 0.74458295 0.33182257 0.29635543 0.24217945 0.11545057 0.31934166 0.42246187 0.560771 0.6433856 0.6829169 0.2849216 0.27034882 0.41907766 0.39950165 0.4089194 0.27516168 -0.030164544 0.35783046 -0.0609253 -0.097385235 -0.21159753 -0.21506748 0.25332168 0.24904057 -0.07064021 0.34199423 0.2987001 0.6363189 0.80139583 0.81131554 0.11800796 0.30639347 0.33480644 0.42064837 0.7724966 0.78874016 0.78530073 0.06437462 0.3063071 0.25553605 0.16090044 0.6207958 0.6997453 0.7087045 0.06585566 0.042597055 0.021566657 0.15591887 0.5316791 -0.0020779222 -0.34190446 -0.16154045 0.7792554 0.827845 0.8271099 -0.02481243 -0.011721343 0.78420675 0.8255576 0.7993672 0.42271245 0.21663752 -0.10563873 0.63271964 0.6641213 0.7761956 0.74172854 0.4640032 0.4346286 -0.11327568 0.6207376 0.6309202 0.48511964 -0.26952273 0.46619928 0.5508349 0.43862534 0.2696993 0.37066638 0.18168822 0.23662707 0.03491735 0.3142779 -0.15067714 -0.120546535 0.30229062 -0.12808678 0.26413924 0.23991841 -0.09594025 0.29417032 0.41030347 0.18930897 0.14493434 0.43992823 0.49673682 0.16253304 0.46829617 0.1667338 0.3705929 0.3540172 0.13090315 0.084137425 0.06971966 0.10141698 0.04539455 0.016143844 0.13445356 -0.02157813 0.057485893 -0.037902497 0.41441134 0.013530549 0.08269647 0.15616025 0.6550292 0.23905739 -0.124253765 0.6351137 0.67340016 0.33859453 0.3030748 -0.0027314872 -0.16490477 0.27213162 0.44251454 0.53737265 0.5893835 0.63183606 0.29058686 0.2475675 0.17670825 0.020499155 0.2066099 0.22340597 0.4035434 0.46910816 0.54417694 0.21447216 0.31781423 0.09210973 -0.0070111454 -0.02077227 0.6142569 -0.06034033 0.61855507 0.42914754 -0.16605091 0.61068475 0.5190681 0.19484825 0.362581 0.38240117 0.61244416 0.5771913 0.4326189 0.3607387 0.39644033 0.3765798 0.0052266326 0.34712294 0.20357956 0.22878543 0.56052995 0.647804 0.10352966 0.0797208 0.21731997 0.24228358 0.10467633 0.30868053 -0.0034545362 0.088133946 0.22665392 -0.31001014 -0.06022935 0.103577465 0.5674243 0.71296847 0.77693915 0.7670262 0.07556225 -0.24441326 0.3926092 0.7604981 0.68845123 0.350807 0.24080592 -0.10271686 -0.2968285 0.28324363 0.62784475 0.4215296 0.30563655 0.5894747 0.46254778 0.41305065 0.3437904 0.1865257 0.04581449 0.5512007 0.56740034 0.43550873 0.38974005 0.31269097 0.4102608 0.5177166 0.27991235 0.28717855 0.1291264 -0.037741303 0.2357227 0.4649399 0.4694531 0.44503927 -0.1604462 0.4505719 0.42122746 -0.09967465 0.3775172 0.22427964 0.31237298 0.21908289 0.50783235 0.013418643 0.5265837 0.5440254 0.057133935 0.5142313 0.069052175 0.43136042 0.046545144 0.044930667 0.19026221 0.33289635 0.037898723 -0.010841786 -0.019380221 -0.00032684207 -0.030737419 -0.036522124 0.40530044 0.15230247 0.17198798 0.58527774 0.267395 -0.11309433 -0.06573326 0.16924344 0.34335208 0.48761886 0.547685 0.5861577 0.35253736 0.1282473 0.022638902 0.33726582 0.28662333 0.20644392 0.40191746 0.5229296 0.5734024 0.44571 0.5312027 0.5965152 0.6379142 0.6394045 0.49256778 0.5909265 0.6388074 0.6677363 0.59569216 0.49307624 0.36156136 0.2876919 -0.002121359 -0.01804556 0.6833174 0.6284112 0.47622442 0.040591598 0.020869177 0.6892529 0.65074503 -0.029523816 0.6942135 0.7155312 0.6611819 -0.07328335 0.7233046 0.7015574 0.58659 0.4189853 0.7315812 0.6465616 0.5570907 0.41194963 0.034252405 0.41427383 0.20495534 0.21935312 0.19895682 0.592474 0.11401977 0.14069977 0.17264113 0.102722004 0.20143496 0.36700433 0.20099282 0.46023044 0.478841 0.64880615 0.20831098 0.31823385 0.20084426 0.26327538 0.4621476 0.55977505 0.6439953 0.689628 -0.11005068 -0.21267408 0.58103067 0.55336666 0.53170204 -0.07645905 0.564589 0.53794837 0.53502977 0.50963104 0.49417555 0.5083339 0.36008507 0.51433945 0.45624107 0.11803072 0.51829666 0.5466252 -0.26348022 0.5155153 -0.097941354 0.47009453 0.21839583 0.40890247 0.33532447 0.22240126 0.52178174 0.09334089 0.5451247 0.5377301 -0.07321515 0.5026931 0.18662505 0.043300077 0.41511852 0.45061415 0.057928212 0.26972538 0.057616353 0.027497053 0.007314302 0.10921333 -0.03228808 -0.11310987 -0.08273758 -0.04079 0.0822718 0.17532495 0.44431987 0.15415114 0.32842794 0.4042378 0.5175869 0.25421575 0.1252212 0.23837009 0.4138756 0.30547467 0.33077186 0.32425147 0.27607775 0.2320154 0.60838073 0.5877117 0.25996035 0.23072141 0.3301047 0.6649438 0.65452504 0.47624668 0.5666555 0.6459135 0.6684923 0.65704906 0.6100928 0.5178839 0.45243937 0.02071824 -0.050631493 0.7189488 0.656353 -0.040819265 0.7454076 0.7320545 0.02490417 0.3484354 0.7466762 0.71551037 0.37284875 0.5006745 0.7417076 0.73272115 0.39755377 0.44131467 0.7595531 0.7650862 0.27622995 0.69073224 0.7743385 0.7707511 0.6995514 0.5949881 0.46172908 0.18912348 0.16428187 0.19666253 0.65345836 0.6724379 0.65074563 0.59805393 0.15922552 0.22139548 0.24963036 0.30348915 0.22219306 0.15038204 0.5138852 0.43418342 0.24267435 0.08385427 0.12487768 0.2739391 0.43390965 0.41644704 0.4725132 0.29620352 0.08355507 -0.16132204 0.5199415 0.5014328 0.6195044 0.47548258 0.4646938 0.33933192 0.41536617 0.47520518 0.21610442 0.4392919 0.4471651 -0.30150586 -0.20582397 0.44044366 0.42405283 -0.67665833 -0.57855684 0.32467425 0.55767024 0.51492196 0.25439033 -0.14574006 -0.34691608 0.17128067 0.56328 0.5771707 -0.33452645 -0.21572623 0.5686774 0.58872926 0.5393666 0.23655088 0.23891331 0.38410228 0.3074942 0.4636401 0.5174465 0.21252766 0.4885412 0.24922475 0.46788943 0.36272228 0.29631403 0.34816825 0.25761986 0.12710436 0.2286751 0.07623842 0.04130345 -0.034388885 0.059240818 -0.32240868 0.09399038 -0.10683903 0.12645273 -0.19508097 0.39165708 0.33765996 0.13093373 -0.039612934 0.48162404 0.44775668 0.4121269 0.14730982 0.052632816 0.56362367 0.53794 0.44231504 0.24527246 0.41563493 0.60295665 0.5641384 0.49168962 0.564195 0.69695085 0.7052988 0.70503175 0.22997954 0.6116351 0.59602815 0.7603649 0.76726925 0.75552464 0.25188154 0.37287855 0.49562907 0.5868771 0.6134498 0.6166792 0.23570311 0.6764102 0.5863148 0.31266254 0.14482851 0.14026318 0.1710312 0.7546668 0.74383575 0.7789581 0.094401196 0.36686018 0.46554917 0.76962495 0.52481884 0.52432287 0.75868225 0.7723868 0.5431603 0.76801944 0.78092915 0.5629338 0.6850573 0.6758312 0.7856954 0.78522545 0.71413106 0.5300859 0.09531247 0.45603827 0.34882426 0.6271094 0.6558455 0.66679835 0.63629925 0.31869653 0.31333718 0.36175257 0.36104992 0.38179907 0.1140441 0.12117395 0.14094932 0.5388353 0.31880733 0.14429034 0.13031851 0.022162965 0.058772776 0.20974196 0.3104184 0.71877325 0.6939486 0.4864846 0.26646507 -0.019617725 0.42846307 0.59874433 0.43897924 0.42991483 0.46771884 0.39919797 0.35580313 0.3479211 0.41199046 0.38721287 0.36686176 -0.329559 0.2919625 0.35031635 -0.24578553 -0.25629812 -0.020443693 0.10549746 0.56318885 0.48092312 0.3770796 -0.13679601 0.5628756 -0.58942914 -0.31599474 0.06979078 0.54281527 0.24155569 0.22032648 0.16481565 0.40038854 0.365751 0.43403596 0.41125596 0.25611255 0.40763733 0.4081782 0.27010885 0.40552056 0.3475549 0.01503513 -0.021522349 0.07522665 0.043365527 -0.008690044 0.022133326 0.1605667 -0.0674732 -0.10292481 -0.23381655 -0.47303647 0.17532 0.21529782 0.23183751 0.16310027 -0.008908153 0.31442255 0.26517025 0.22728238 0.1377538 0.041949697 -0.14726853 -0.14830622 -0.1995867 0.40455705 0.40138412 0.36308807 0.25154355 0.0044201687 -0.15669367 0.49236292 0.48650748 0.3208807 0.21568052 -0.08404603 -0.055763453 -0.23357016 0.5423786 -0.08213891 -0.15219799 0.069219634 0.13051793 0.564649 0.5926334 0.54602635 0.21819262 0.43740308 0.5945649 0.6703805 0.7319312 0.17633191 0.21943766 0.54443586 0.5290259 0.7406461 0.77838707 0.82045984 0.7969825 0.25667712 0.32651228 0.39216015 0.45337307 0.53631854 0.5797474 0.798148 0.8404833 0.86813045 0.8430399 0.31518546 0.2524639 0.6514584 0.052077416 0.16545261 0.80806917 0.77036357 0.7251693 -0.051631764 0.8220694 0.69923663 -0.041863628 0.123887934 0.4224915 0.51807326 0.8411629 0.75979185 0.5446747 0.5627904 0.78200674 0.80497515 0.763765 0.57863045 0.78638935 0.79003894 0.76717496 0.0970835 0.6592618 0.7686149 -0.010737328 0.4477666 0.44440562 0.52589464 0.5442647 0.6458099 0.62506616 0.32998547 0.35936493 0.41477245 0.42277443 0.4177683 0.41326326 0.08944334 0.29103237 0.41971713 0.5019686 0.26558673 0.5714526 0.49240643 0.33909458 0.21569502 0.15578383 0.030558705 -0.010453366 0.2164085 0.29910925 0.33806497 0.7409406 -0.15871823 0.39767703 0.40286443 0.6745476 0.40197545 0.5794723 0.44723916 0.34120214 0.38442186 0.36992908 0.233266 0.3159709 -0.09561843 0.3150164 0.2823868 -0.28637365 -0.32163796 -0.2304075 -0.2374976 0.2625904 -0.22635646 -0.3081142 0.33470836 0.39988017 -0.6328028 -0.03781022 -0.011980668 0.24182904 -0.11445077 0.11850925 0.15975192 0.27181324 0.35632122 0.09161762 0.41433036 0.18626392 0.44407618 -0.026746906 0.44471028 0.060127743 -0.012543172 0.15771437 0.16578779 0.05719401 0.23988703 0.24991277 0.24867915 0.1683835 0.129601 -0.2468651 0.27067015 0.33568394 0.32723975 0.30564836 0.29366 -0.00808879 -0.102068275 0.07163736 0.33397788 0.35830635 -0.3499665 0.028020047 0.4454497 0.22254889 0.43580097 0.49530157 0.11843371 0.36275303 0.59094834 0.5948986 0.16320062 0.4306157 0.7372079 0.7633475 0.22857153 0.24625263 0.2791569 0.32740474 0.34812877 0.43651828 0.81101596 0.8691702 0.90190524 0.8548199 0.8000151 0.53494203 0.50356907 0.4659025 0.49552906 0.45758283 0.3700288 0.29543582 0.28577262 0.0090146065 0.15867624 0.57359 0.0027637482 0.4787435 0.53463554 0.5687601 0.70987564 0.59912705 0.6014139 0.70028245 0.62407446 -0.054341502 -0.036668025 0.30627173 0.47417685 0.43370473 0.49789006 0.5209269 0.50185436 0.39431912 0.34127718 0.44704932 0.028530926 0.21720532 0.2985206 0.29817224 0.54989856 0.38126683 0.28466386 0.23729257 0.10521593 0.04779751 -0.2414654 0.13523975 0.27676904 0.2551668 0.5785321 0.522721 -0.013767641 0.36220935 0.6321482 0.36606932 0.37787187 0.41456068 0.2932923 0.3513802 0.2564898 0.17937246 -0.0467271 -0.2522723 0.25909165 -0.16039053 -0.05396676 0.021770146 -0.19250776 -0.20502335 -0.039047856 0.12658548 -0.08308699 0.16326486 0.15314867 0.2321867 -0.06393848 -0.1908334 0.37872916 -0.22041896 0.3463045 -0.0134454705 -0.08547315 0.01294487 0.074931316 0.22705898 0.20420088 0.17485148 0