# vtk DataFile Version 2.0
Really cool data
ASCII
DATASET POLYDATA
POINTS 7267 float
-15.746879 6.1375566 -9.012661
-15.793274 6.1473637 -8.611187
-15.892852 6.616004 -9.115388
-15.9809475 6.6266007 -8.62212
-15.798544 6.671743 -7.9127207
-15.859163 7.2827115 -9.2659235
-15.940037 7.4228673 -8.562177
-15.840618 7.2122626 -7.9928536
-15.760841 7.85561 -8.501038
-15.088983 6.223352 -9.642092
-15.352928 5.959638 -9.194966
-15.261056 5.7061524 -8.509149
-15.1839 5.7585196 -7.5732107
-14.859911 5.762906 -6.8902626
-15.358121 6.6548676 -9.77217
-15.598409 6.415405 -9.463057
-15.564878 6.3060384 -7.54393
-14.97992 6.573143 -6.684396
-14.739312 6.321675 -6.3465505
-15.396972 7.3088636 -9.824967
-15.490625 7.3759623 -7.5654664
-15.212924 7.2347813 -7.07801
-15.063659 8.19214 -9.812931
-15.263974 8.4636965 -9.316329
-15.438918 8.264971 -8.472972
-15.2201395 8.03415 -7.624955
-14.374944 5.292372 -8.232322
-14.399068 5.1813273 -7.5013523
-14.2632 5.2141895 -6.785067
-14.451643 5.8650103 -9.374489
-14.346328 5.530556 -8.718598
-14.370336 5.485399 -6.512548
-14.157671 5.7478104 -6.201364
-14.64835 6.8166924 -10.057167
-14.306069 6.44063 -6.1393795
-13.588025 7.65431 -13.571586
-14.593479 7.8200006 -10.219939
-14.513421 7.4717035 -6.582863
-14.205655 7.3818493 -6.2530074
-13.55793 8.243655 -14.166097
-13.554361 8.4752245 -13.64604
-13.885759 8.210582 -10.4871855
-14.227896 8.017714 -6.646486
-13.834847 8.256043 -6.3525386
-13.558079 9.605855 -11.709582
-14.297745 8.94525 -9.9441185
-14.317607 9.0334215 -9.216237
-14.284031 9.223031 -8.648376
-13.881065 9.0262375 -7.262631
-13.54908 10.875379 -11.177214
-13.618532 10.161553 -10.939983
-13.750632 11.615511 -12.497097
-13.767018 11.599735 -11.628988
-13.705577 12.328117 -12.4031315
-13.732252 12.272299 -11.653254
-13.636793 12.089769 -10.900012
-13.595153 12.815806 -11.916405
-13.624752 5.189848 -8.0642
-13.58998 5.055891 -7.561522
-13.576453 5.1553164 -6.7046547
-12.783685 5.9840665 -13.434249
-13.820561 5.6819854 -9.175302
-13.557614 5.6301627 -6.1895075
-12.773069 7.0622754 -14.869564
-13.015069 6.728857 -14.189648
-13.254663 6.703221 -13.600229
-13.585307 6.404239 -5.912817
-13.006676 7.598235 -14.9114685
-13.399972 7.660575 -14.450522
-13.553334 7.17777 -5.9537373
-13.068256 8.314329 -14.962419
-13.4333515 8.35702 -14.497632
-13.1399145 8.976885 -12.411652
-13.278308 9.088628 -11.817093
-13.2433815 8.270552 -6.070335
-13.023055 8.804023 -14.826484
-13.163585 9.08376 -14.372744
-13.432947 9.813773 -12.440704
-13.359686 9.261587 -11.037047
-13.29751 8.985455 -6.530509
-12.9469185 10.434782 -13.5180025
-13.540467 10.280524 -12.545916
-13.140943 9.946679 -8.699295
-13.321928 11.252035 -13.16209
-13.412142 12.360481 -12.998451
-13.551216 12.666679 -12.319477
-13.547506 12.470275 -11.311112
-13.314903 12.524193 -10.71052
-13.0721855 12.305291 -10.20915
-12.780062 12.866159 -13.589048
-13.315323 13.006901 -12.326385
-13.033687 13.261043 -11.555481
-13.148476 12.883654 -10.756379
-13.051461 5.422202 -8.658965
-12.903432 5.2327094 -7.650858
-13.033113 5.306405 -6.692287
-12.261982 6.0236063 -14.080595
-12.417436 5.7460337 -13.342414
-12.28957 5.6428037 -12.843498
-12.230916 6.1475058 -11.812686
-12.2296295 6.3769784 -10.363975
-12.426812 5.5526285 -8.294907
-12.945678 5.478523 -6.503236
-12.966947 5.7533755 -6.207715
-12.2588415 6.8744884 -14.914125
-12.402963 6.56597 -14.595909
-12.617545 6.7288523 -5.9205303
-12.435583 7.682893 -15.267179
-12.55398 7.5532703 -5.8506646
-12.206343 8.2560005 -15.403416
-12.513752 8.318585 -5.977784
-12.491658 8.903421 -6.202643
-12.125533 10.7703495 -14.254378
-12.413529 9.624405 -6.963014
-11.799652 11.594406 -15.18203
-12.376877 11.714664 -14.384039
-12.110923 11.215097 -9.077469
-11.893534 13.965618 -16.935429
-12.041499 13.755955 -16.31357
-11.850526 13.6051 -15.728444
-12.208629 13.467595 -14.18509
-12.556937 13.513508 -12.93009
-12.576842 13.284433 -10.576391
-12.089178 12.9148245 -9.855324
-11.699852 15.0892725 -21.878057
-11.78582 14.942932 -21.446434
-11.657635 14.695623 -20.98364
-11.919367 14.855412 -19.401016
-11.828766 14.511582 -18.892183
-12.264632 14.527065 -16.666197
-12.170361 14.623569 -15.716399
-12.408133 13.704799 -13.049027
-12.564638 13.698554 -12.234683
-12.308731 13.842373 -11.635481
-11.740579 15.662142 -22.090492
-12.033307 15.617082 -21.350018
-12.094884 15.697442 -20.622766
-12.1891775 15.550385 -19.46722
-12.18182 15.646864 -18.524946
-12.121762 15.588782 -17.454393
-12.228706 15.365309 -16.713501
-12.058582 15.254122 -15.659134
-11.828467 15.146461 -15.2485895
-11.716698 16.577618 -22.290216
-12.011479 16.473118 -21.586706
-12.123099 16.370197 -20.365187
-12.053279 16.707952 -19.922068
-12.171157 16.124382 -18.577114
-12.049196 16.165169 -17.75216
-12.035147 15.916783 -16.786615
-11.81113 16.06 -16.00625
-11.6670065 17.186823 -22.215906
-11.803236 17.355541 -21.388647
-11.793526 17.50655 -20.452866
-11.870183 17.33384 -19.838276
-11.713363 17.118725 -18.158146
-11.690293 17.087637 -17.774656
-11.629159 17.766973 -21.17948
-11.724665 5.4457836 -12.689116
-11.624437 5.911955 -14.182423
-11.607981 5.541705 -13.496257
-11.624831 6.3314104 -10.796125
-12.109631 5.5708895 -7.7386713
-11.954689 6.208347 -6.470295
-11.228389 6.7919474 -15.175111
-11.381666 6.5344644 -6.525997
-11.601293 6.738017 -6.2339993
-11.659567 7.7251377 -15.38159
-11.68526 7.433981 -6.0023165
-11.676512 8.677006 -15.445383
-11.899616 8.137709 -5.9697895
-11.253779 9.336686 -15.107483
-11.636243 9.283865 -6.674658
-10.802991 11.017855 -16.222347
-11.746532 9.759573 -6.8777685
-10.621241 11.529656 -16.843206
-11.165784 12.818697 -16.91288
-10.92353 12.482674 -8.373107
-10.74225 12.418781 -7.918361
-11.176637 14.319077 -21.280012
-11.271145 14.254768 -19.788292
-11.340756 14.006089 -18.212053
-11.29913 13.373456 -9.798607
-10.919924 13.046832 -8.721328
-10.664703 12.914233 -8.034602
-11.187252 14.812749 -22.065899
-11.469034 14.623231 -21.545906
-11.4838915 14.464543 -20.741043
-11.307603 14.386921 -13.258965
-10.999809 14.408985 -11.371923
-11.032951 14.314112 -10.995886
-10.9058695 13.905612 -9.854468
-11.089248 15.823413 -22.64773
-11.489452 15.465572 -22.284994
-11.236539 16.392624 -22.721031
-11.521007 16.583036 -22.523973
-11.613713 16.341328 -16.197382
-11.37932 16.417213 -15.877724
-10.961233 15.930985 -15.222481
-10.9958 17.34382 -22.85969
-11.42853 17.358458 -22.533852
-11.537693 17.62057 -19.87903
-11.2836685 17.460815 -17.423122
-11.182416 17.409431 -16.780962
-11.027231 17.776278 -22.672281
-11.105136 17.928793 -22.372515
-11.231087 18.066895 -21.641697
-11.071542 18.37066 -20.123505
-11.184844 18.20181 -19.683817
-11.2800045 17.950974 -18.884794
-10.92037 17.858707 -17.477217
-11.042575 17.654293 -16.834452
-10.000519 5.3442945 -12.934276
-10.292012 6.355256 -14.936395
-10.364013 6.039852 -14.47458
-10.939532 5.5723743 -12.595741
-10.346345 5.663541 -11.38815
-10.253676 5.809094 -9.246531
-10.925831 6.100438 -7.593208
-10.3127985 7.1754704 -15.49519
-10.943641 6.797083 -6.655665
-10.243568 7.706407 -15.655911
-10.44228 7.6060863 -6.566418
-11.038207 7.3559675 -6.3337865
-10.240087 8.26032 -15.686766
-10.693945 8.642365 -6.6061616
-10.282095 9.605731 -15.741353
-10.155012 9.434308 -6.987263
-9.67315 10.665146 -17.931236
-9.936418 10.60827 -17.210358
-9.8458185 11.476309 -18.179907
-10.517821 11.528041 -7.5114837
-10.413828 12.514364 -17.77523
-10.393328 12.58349 -7.2265716
-10.66428 14.294534 -21.531204
-10.427018 14.012057 -19.904093
-10.663503 13.796013 -19.194519
-10.429889 13.139702 -7.640281
-9.97213 13.021087 -6.733904
-10.577942 14.8194475 -22.171434
-10.436306 14.18035 -10.247707
-10.242576 14.002968 -8.908745
-10.356218 15.911565 -22.73113
-10.435691 15.33051 -22.505234
-10.080496 14.544889 -12.365914
-10.508624 16.591759 -22.922148
-10.620336 16.64272 -15.680553
-10.572702 17.447598 -22.886538
-10.585627 17.629513 -16.30759
-10.529475 17.188072 -15.7926
-10.129225 16.955473 -15.36811
-10.5767975 17.826485 -22.730164
-10.571723 18.117125 -22.307623
-10.592528 18.368101 -21.556616
-10.763097 18.484774 -19.777878
-10.424531 18.365885 -18.730675
-10.320464 18.134487 -17.139454
-10.352241 18.030394 -16.7487
-9.905541 17.832958 -16.028671
-10.352526 18.558752 -20.421555
-10.323835 18.637255 -19.646528
-8.663128 1.6616243 -13.416042
-8.710123 1.5727754 -12.696506
-8.655589 2.6072385 -13.900802
-8.813022 2.2239711 -13.528151
-8.832222 2.1164312 -12.771245
-8.655315 2.951461 -13.468007
-9.75502 5.2750287 -12.352656
-9.723979 5.5584445 -13.388349
-9.410758 5.9927244 -8.861296
-9.894285 7.001131 -15.478512
-10.090329 6.5104146 -7.9631677
-9.927638 7.201163 -7.255293
-9.663724 7.7877564 -15.624868
-8.86211 9.2249565 -16.65963
-9.753846 8.457964 -6.788394
-9.405187 9.994694 -7.0224485
-9.120893 10.816574 -18.674341
-9.369191 10.662739 -18.353027
-9.18384 11.137112 -6.4078264
-8.954446 11.836035 -18.87793
-9.436137 11.758523 -6.3258014
-9.59776 12.934967 -18.43484
-9.592838 12.899306 -6.423829
-9.166618 12.775097 -6.141616
-9.725368 14.129841 -20.08658
-9.689213 13.924228 -19.703423
-9.65884 13.244788 -6.539446
-9.415353 13.022863 -6.283418
-10.0170965 14.922539 -22.141779
-9.778212 14.665975 -21.47938
-9.95602 14.28425 -11.100003
-9.445186 14.440195 -9.37009
-9.628242 14.273189 -8.515047
-9.294036 14.235632 -7.2154994
-9.044018 14.235414 -6.6737237
-8.989021 13.838533 -6.2628326
-9.981944 15.860892 -22.604948
-9.736784 15.586707 -22.287174
-9.450464 14.82081 -12.368665
-9.7304125 14.614264 -11.968945
-9.310165 14.709736 -8.243664
-8.9600725 14.907603 -7.4780746
-8.737385 14.79897 -6.951557
-10.018476 16.57772 -22.81763
-9.645673 16.609003 -14.912824
-9.015419 15.62765 -13.9829
-10.102461 17.335783 -22.848251
-9.589048 17.501284 -22.435654
-9.34596 17.35924 -14.938399
-9.938429 17.971561 -22.303858
-9.663307 18.07123 -21.404503
-9.767988 18.440868 -20.660952
-9.077406 18.436142 -16.52527
-9.228089 18.262457 -15.502685
-9.31984 17.833576 -15.17642
-9.725546 18.619806 -19.976217
-9.791501 18.74724 -19.338694
-8.0050745 1.2512869 -13.929808
[...]
POINT_DATA 7267
SCALARS features_00 float 1
LOOKUP_TABLE default
0.8398969 0.85810363 0.8444365 0.8607987 0.8460549 0.8397048 0.84752893 0.82549417 0.8227268 0.77829397 0.8047099 0.8371831 0.89648724 0.88627684 0.8019612 0.82049704 0.84984386 0.7763254 0.8019943 0.7914248 0.7662319 0.7260474 0.6703358 0.7081436 0.76900303 0.7011385 0.7804456 0.8806105 0.9084848 0.71083903 0.73013145 0.8982036 0.86692363 0.74237216 0.7859026 0.51935273 0.61209404 0.65236497 0.65694535 0.50922513 0.37640393 0.24836512 0.59847 0.58536637 0.17531088 0.36109427 0.51692605 0.54996586 0.5511186 0.38869727 0.21333714 0.44023722 0.4412493 0.44735095 0.45235744 0.4414061 0.44951922 0.72153056 0.7858801 0.8665155 0.5342362 0.6060534 0.84901494 0.6205356 0.622893 0.60726833 0.77720904 0.62113917 0.611322 0.6729872 0.5781872 0.53867215 0.17994502 0.12618136 0.5851652 0.50605744 0.4001615 0.22944674 0.03774906 0.5370275 0.23936461 0.29724994 0.30697143 0.38869488 0.434272 0.44714344 0.450396 0.42826295 0.36780185 0.3973157 0.4421602 0.4351622 0.42315984 0.5905541 0.71448034 0.8008435 0.54854786 0.48869613 0.40587556 0.2430546 0.061857924 0.56862545 0.7874564 0.7741881 0.5781567 0.5884557 0.65509874 0.5788772 0.605914 0.52699065 0.568285 0.5406874 0.13380972 0.49565148 0.02914884 0.23506546 0.023061495 0.3444491 0.3490556 0.30141443 0.24841085 0.40903714 0.39030188 0.27958706 0.7871712 0.7164095 0.64400655 0.5003321 0.4386556 0.41489005 0.40484744 0.3957939 0.41994548 0.42332882 0.82618326 0.7184959 0.6256505 0.5228091 0.44555473 0.3857299 0.3992663 0.39884275 0.36661017 0.8677573 0.78508604 0.5998725 0.5261245 0.42555672 0.37115937 0.37436795 0.36032498 0.873402 0.7727324 0.5971445 0.5059234 0.37188977 0.35606295 0.727053 0.33347762 0.50098735 0.42336893 0.11501862 0.608977 0.5779525 0.45983654 0.47126025 0.5132119 0.46899825 0.51490456 0.41223973 0.5298356 0.2579427 0.47823998 0.039171018 0.45373234 0.12984696 0.16010255 0.24627483 0.30342317 0.66957694 0.49960375 0.26645908 0.24177243 0.24730515 0.3294881 0.80868435 0.72771716 0.6076958 0.32995352 0.2516058 0.23805243 0.20342518 0.885925 0.84875274 0.902724 0.8921106 0.3483693 0.3355122 0.30816972 0.9171901 0.9012241 0.51567996 0.33464587 0.31466126 0.9102863 0.890061 0.81085026 0.5563996 0.5006883 0.42260164 0.3190353 0.30874264 0.24264996 0.3338197 0.37022397 0.27784956 0.18807125 0.10479848 0.35536954 0.31904632 0.40487504 0.29461527 0.3478504 0.43093967 0.25497222 0.36271048 0.034995496 0.16384995 0.27163967 0.21598259 0.25972795 0.32900918 0.16716915 0.39576274 0.6985904 0.4638679 0.32825422 0.3891307 0.475607 0.8115896 0.15402459 0.2572188 0.8710598 0.8449131 0.18961407 0.9078725 0.30185568 0.9109049 0.28705275 0.28768507 0.28365254 0.9045105 0.87309206 0.78684175 0.5104961 0.3600393 0.27779642 0.28456166 0.27755302 0.58676636 0.4726595 0.7470994 0.82329535 0.6061957 0.69410944 0.78049725 0.59311277 0.17913087 0.24134892 0.08394332 0.26369658 0.21331128 0.26841033 0.20459759 0.052573115 0.18056133 0.104903735 0.26684868 0.28033087 0.33515477 0.18567918 0.46339554 0.09693989 0.50073993 0.50481427 0.39949107 0.2819552 0.49969137 0.5111496 0.75497633 0.62044835 0.09418133 0.23029216 0.3456882 0.49028766 0.5272375 0.5358591 0.8132179 0.73144835 0.071333185 0.09607524 0.3910156 0.47257707 0.51862746 0.87221164 0.25012878 0.050942272 0.8894565 0.84345925 0.28410918 0.85533214 0.75573254 0.61622787 0.3011361 0.3182511 0.3055032 0.47245204 0.35797608 0.69773126 0.7795564 0.84300053 0.88182783 0.6620606 0.75428104 0.8741212 0.9028268 0.55481696 0.581602 0.7968505 0.88355076 0.43989342 0.2576878 0.12454119 0.29691556 0.074392304 -0.15258631 -0.04752226 0.038048178 0.15842581 0.13699046 0.046287075 0.09242227 0.05147648 0.2409851 0.19025874 0.030473225 0.24785559 0.26255348 0.228136 0.25416547 0.14918058 0.45213586 0.07760649 0.49255413 0.24664232 -0.11895397 0.5421537 0.5107079 0.22447716 0.119664215 0.5555477 0.45202976 -0.022148237 0.026775762 0.3781196 0.46564892 0.5326557 0.68559116 0.5298207 0.79525864 0.6331858 0.36741674 0.36264166 0.41129577 0.32875305 0.39785838 0.38495177 0.45436716 0.44864336 0.7773926 0.6431864 0.74233806 0.8138929 0.84554625 0.51571417 0.5709486 0.79041106 0.44188595 0.40686363 0.68260646 0.34261915 0.36558414 0.23224021 0.20019616 0.21635562 -0.009746935 0.10573358 0.29740423 0.36492518 -0.31911185 -0.13168253 0.1863824 0.14937733 0.16003703 0.17067483 0.292127 0.077943794 0.06908075 0.3354959 0.4480468 0.5433548 0.5480139 0.17774792 -0.096091315 -0.024820268 0.23707524 0.35750264 0.45827574 0.5069983 0.5293713 0.34799382 0.30642006 0.3339315 0.3388767 0.36598402 0.47123224 0.39136702 0.37988538 0.5342951 0.51921076 0.4969 0.709656 0.5643581 0.65213406 0.7249993 0.73336685 0.427553 0.45936155 0.72791374 0.4143936 0.5968808 0.34433693 0.051639438 0.21391165 0.22442341 0.19700548 0.27146932 0.10019787 0.38641492 -0.022968993 -0.0833238 0.39379826 0.38978902 -0.048619315 0.32054955 -0.1321708 -0.04511649 0.39976677 0.28375888 0.11790398 0.14611374 0.22972274 0.11349355 0.04159687 0.32541883 0.011417516 -0.5848373 0.4905805 -0.054190967 -0.41240984 -0.41786802 -0.19613063 -0.04644712 -0.022402324 -0.043160502 0.30054033 0.31221023 0.19555484 0.18261288 0.28107253 0.41334337 0.28567636 0.29939297 0.23432931 0.31939217 0.46754876 0.41792583 0.33601937 0.4617316 0.5330998 0.45708787 0.50122213 0.37892383 0.54996943 0.5836157 0.5997487 0.5665772 0.5000361 0.42555624 0.4635511 0.4978635 0.55335605 0.6119597 0.64793015 0.39125243 0.42226386 0.42016405 0.32944912 0.35878193 -0.009773142 0.31666073 0.08998062 0.2790502 0.25296995 0.32043272 0.3860366 0.070748046 0.121996135 0.4033767 0.39229178 0.02746359 0.3792523 -0.13757181 0.19687633 0.1391647 -0.14187501 0.3399458 0.41231447 0.41432014 0.32042527 0.21163097 0.37677503 0.38629702 0.1496574 0.28487164 0.21741213 0.21868034 0.09993951 0.16237971 -0.05616622 0.18662304 0.006290376 -0.007090412 -0.701061 0.12016903 0.049198836 0.09754366 0.19027263 0.085881025 0.18103671 0.4792202 0.33592898 0.21928425 0.3287832 0.5390667 0.5367454 0.5555873 0.41426548 0.3179692 0.3769042 0.49045712 0.5499956 0.5851984 0.58961976 0.46470425 0.4928527 0.36629683 0.4769024 0.5724026 0.5934334 0.5353256 0.5678032 0.5952815 0.5495817 0.43947926 0.6044203 0.4149896 0.43885523 0.48810607 0.6179714 0.7078353 0.74378204 0.36570245 0.34341162 0.75073075 0.79499567 0.82179767 0.8252615 0.2771147 0.26661122 -0.022767048 -0.02607432 0.6861862 0.84808075 0.8441607 0.8367965 0.24693078 0.26729226 0.7403257 0.79147166 0.10919995 0.032799408 -0.051281452 -0.023432951 0.3294803 -0.11436601 -0.112545155 0.2878757 0.4040165 0.27980435 0.101361506 0.30339107 0.4161924 0.33868957 -0.008906178 0.28823292 0.2266275 0.10349245 0.16379227 0.09777091 -0.039224427 0.28867978 0.34920344 0.10103989 0.27854785 0.15308037 0.3680818 0.23378626 0.16192004 0.5504385 0.35774094 0.40202862 0.19559203 0.090517156 0.2302299 0.25852427 0.2906891 0.60761863 0.6011886 0.48106033 0.14997533 0.29274094 0.24099073 0.34146655 0.4757233 0.5810918 0.6107598 0.5480691 0.5611638 0.44688326 0.38898617 0.6160503 0.55100846 0.5060117 0.60494363 0.5998236 0.54783094 0.5007125 0.4907681 0.58686554 0.66539717 0.64675534 0.61444956 0.68530047 0.6826635 0.6589197 0.6455406 0.69254 0.6859541 0.66409636 0.6826657 0.67020917 0.51763344 0.6008132 0.61979556 0.62950706 0.40053198 0.24900837 0.6454977 0.6812376 0.7194176 0.21473457 0.34781224 0.28576645 0.34124723 0.17713347 0.7825222 0.19413024 0.21011403 0.7991406 0.7451941 0.21072787 0.7231856 0.7437844 0.73058987 0.7420939 0.7187236 0.66453373 0.0006602481 0.19673546 0.4894939 0.6753136 0.6649059 0.6203958 0.6072066 -0.0167455 0.20792112 0.51230735 0.4119133 0.22223848 -0.1390493 -0.1066269 0.06831154 0.381975 0.35873315 -0.18382683 -0.112089485 -0.18529347 0.11679591 0.07921663 0.3173144 0.12029949 0.075581 0.13979714 0.013294719 0.23462851 0.36053267 0.001540903 0.36052483 0.3724118 0.041748133 0.3172021 0.36771965 0.050739303 0.03693225 0.51073724 0.2545852 0.09278473 0.17098002 0.61683697 0.48856223 0.38869664 0.24827793 -0.10917844 -0.13090372 0.24140076 0.32174277 0.43106937 0.57662815 0.61743367 0.6305004 0.46673825 0.54346323 0.58187664 0.66183203 0.6645235 0.606506 0.67442095 0.65437925 0.5486056 0.49888277 0.44690752 0.633409 0.64732826 0.63646376 0.54377645 0.49121287 0.4779141 0.432158 0.616287 0.60439515 0.60858905 0.48237523 0.43208033 0.5535381 0.55077434 0.5224716 0.43705434 0.43168625 0.34267014 0.2919261 0.19806847 0.2312621 0.14453386 0.5128077 0.48311067 0.4097025 0.50534827 0.5895923 0.5769418 0.48254552 0.5631681 0.6166577 0.5558932 0.6072459 0.6377335 0.5790085 0.6194798 0.65385795 0.6332105 0.6075591 0.63400936 0.629296 0.59438074 0.51357436 0.5750326 0.60265565 0.43036863 0.50980705 0.5603677 0.6109336 0.59615326 0.3774702 0.35273424 0.25972122 0.33155036 0.62468004 0.6255989 0.15815397 0.0043173134 0.086952366 0.17742804 0.7002645 0.084663056 0.68760633 0.72991407 0.7736236 0.7999898 0.7610171 0.7090106 0.20712878 0.6566115 0.71171963 0.7318996 0.6862252 0.57202625 0.101679936 0.10310604 0.020401798 0.40947908 0.56440955 0.64003444 0.65563095 0.07176229 -0.010073274 -0.37609822 0.48356915 0.50625795 -0.32264856 0.35836658 0.39110053 -0.26158085 -0.015140187 -0.015455138 0.008646054 0.06665999 0.09623863 0.14654925 0.040275827 0.19602829 0.14378202 0.13635784 0.24367887 0.16680172 0.37711775 0.4037235 -0.038087253 0.417533 -0.003771957 0.3598852 0.40345886 0.006802473 0.021635734 0.31156167 0.43324938 0.03351161 0.08927243 -0.02226483 0.020137012 0.58078635 0.2676624 0.1520562 0.0071684197 -0.010221753 0.15733072 0.3255298 0.37853026 0.58920175 0.5969906 0.14805007 0.43952936 0.5101527 0.5573299 0.6303469 0.6399573 0.6117561 0.62755865 0.6420201 0.6258048 0.48906392 0.65064955 0.37489033 0.6403369 0.33273196 0.57153004 0.5611669 0.46488762 0.47615048 0.2673592 0.36496007 0.33311695 0.30972615 0.35234588 0.22969398 0.25379062 0.16258451 0.37438712 0.33907622 0.14236236 0.45952177 0.4206118 0.39131632 0.49537063 0.4867187 0.5902639 0.53838795 0.51844394 0.56274885 0.5769464 0.5706446 0.52591276 0.56647277 0.46449322 0.5367676 0.5738586 0.56593996 0.2750194 0.34425217 0.42346877 0.5216589 0.420827 0.4331562 0.319214 0.095452085 0.21906507 0.5079857 0.26197398 -0.040700413 0.5828282 0.37842697 0.2986119 0.17413497 0.17364846 0.589903 0.73809874 0.7870623 0.8389262 0.7190229 0.6692513 0.2848903 0.25969395 0.29524744 0.5335813 0.67485297 0.70683014 0.15948649 0.22239074 0.019496888 0.39834183 0.6458893 0.6458638 -0.25304264 -0.1692727 0.47489548 -0.19656979 0.32245696 0.2976531 -0.07798144 0.25470722 0.2222394 0.16527174 0.07632993 0.12511706 0.03421528 0.124037534 0.07257829 0.13961276 0.057731107 0.22302029 0.21286206 0.22549696 0.20841862 0.17084758 0.37980133 0.40869325 0.10964486 0.42321506 -0.040259525 0.41153467 -0.0050371485 0.34399444 0.01565676 0.3851912 0.043191582 -0.032512575 -0.19853462 0.539698 0.15363014 0.036078554 -0.048937865 0.06827068 0.2516503 0.54296243 0.5633201 0.3783886 0.28411332 0.24218851 0.19761556 0.40232813 0.4773449 0.5296399 0.60700995 0.58831054 0.5769228 0.6098316 0.6182269 0.34576046 0.60901594 0.34381908 0.23155198 0.2619102 0.27739453 0.22120865 0.20200141 0.29063356 0.2637161 0.06878038 0.26302642 0.28794163 0.33789408 0.549804 0.54959476 0.42537436 0.4851802 0.6123381 0.5906193 0.5807813 0.44635564 0.43485838 0.4672174 0.5221796 0.6327008 0.3618843 0.42177096 0.48945054 0.35294166 0.35494852 0.43322253 0.45936477 0.44843382 0.3558997 0.21970025 0.06439087 0.030992761 0.026644282 0.21707308 0.40790334 0.35214856 0.41732123 0.008544415 0.3841871 0.50276107 0.41705292 0.26510167 0.7257459 0.7592429 0.62288415 0.57017124 0.51659775 0.44999972 0.6721246 0.68185437 0.28708673 0.34989446 0.08677797 0.60350806 -0.14294194 0.46524045 -0.12111872 0.40589494 0.2732643 -0.0021385476 0.23139721 0.20792776 0.1078749 0.10371957 0.1153537 0.100737825 0.12640683 0.111477785 0.18684158 0.20761889 0.23243017 0.20857218 0.3384443 0.36006644 0.15598726 0.06964979 0.36968452 -0.09707102 -0.04615763 0.36370635 0.39432847 -0.040004 0.25933927 0.022578133 0.087417215 0.44475386 0.341241 -0.16034995 0.015994232 0.015341394 0.43632355 0.45212728 0.4802596 0.40032867 0.28977257 0.23882878 0.31014463 0.4079997 0.5209677 0.5098596 0.45216754 0.71465075 0.7057048 0.49052304 0.46294004 0.5697948 0.5963071 0.6244011 0.5589646 0.5147312 0.33054757 0.39717856 0.5226754 0.22708201 0.32684654 0.28226224 0.31077963 0.3062386 0.28380173 0.25430912 0.30090266 0.17716981 0.1583859 0.24989346 0.46723765 0.49396455 0.51623183 0.287599 0.51508886 0.5121392 0.5368835 0.5549269 0.22728269 0.23733386 0.5539458 0.5618993 0.15871155 0.11398586 0.3672835 0.52779627 0.578858 0.5599894 0.15217127 0.16743942 0.14856131 0.20008326 0.4081096 0.51917565 0.5282445 0.48330742 0.34091684 0.253937 0.27752322 0.27143827 0.23889555 0.26365823 0.15554728 0.38737917 0.3156537 0.15838394 0.08487764 0.04708504 0.19178142 0.2278428 0.27626565 0.23113135 0.28286213 0.50672925 0.45733958 0.29239237 0.31024632 0.6735725 0.63611746 0.48348725 0.3883655 0.47018784 0.16428709 0.27287123 0.63209426 0.64064944 0.335448 0.19109282 0.26002073 0.38601404 -0.11158709 0.11833434 0.5464603 -0.07485872 0.46798095 0.2731656 -0.15366836 0.194657 0.028285481 0.14560556 0.06452147 -0.009313881 0.04518377 0.09083155 0.11715111 0.19312756 0.1684601 0.18489274 0.23226193 0.17075999 0.07425588 0.30244386 0.5831282 0.28978387 0.61327934 0.59910417 -0.08292726 0.114665024 -0.0038614515 0.020159721 0.110574305 0.37335706 0.08082768 0.2206516 0.22329359 0.31994087 0.31117606 0.5058768 0.34651592 0.289765 0.28216937 0.3321242 0.3749256 0.57644916 0.54500866 0.44170663 0.3714583 0.7175536 0.7667724 0.7673224 0.64514524 0.7428477 0.7033334 0.3780201 0.543826 0.24178517 0.38510463 0.3553065 0.22803998 0.39215893 0.4378153 0.46854448 0.45226038 0.45553905 0.3448589 0.38707376 0.3259712 0.32604325 0.40043372 0.33024412 0.32753903 -0.074408635 0.4746567 0.5524376 0.6351998 0.17201816 0.55019397 0.58737886 0.6562324 0.18511184 0.5725159 0.5723308 0.14459085 0.111697465 0.120911 0.49478045 0.47609338 0.12695962 0.14626202 0.16165002 0.41902655 0.43881285 0.13364467 0.15173995 0.14974396 0.1748024 0.29524413 0.28926805 0.33059052 0.16969956 0.20509236 0.21387729 0.24472661 0.21380696 0.15731217 0.22602761 0.35883972 0.41335317 0.09606261 0.03369041 0.38091254 0.39832556 0.1934434 0.24084681 0.19667551 0.3433945 0.427214 0.3433925 0.24260932 0.16800636 0.3333944 0.4807177 0.295423 0.33370745 0.1957272 0.27501026 0.32494605 0.38537294 0.11573473 -0.04696577 -0.0149271265 0.01720965 0.14847961 0.29987222 0.34584618 0.4177594 0.29055613 0.32960477 -0.14361386 0.14863405 -0.19280927 0.07799025 -0.02998335 -0.10962336 0.046767846 0.21639287 -0.011199074 0.8376937 0.7386881 0.42147884 0.27702665 0.22461319 0.060575318 0.81447315 0.72449154 0.53440374 0.3615927 0.1412093 0.65010667 -0.05877933 0.14109635 0.18064192 0.19823016 0.1350903 0.09654132 0.088585086 0.1866142 0.56297016 0.5592272 0.5460809 0.53193194 0.044752866 -0.08949917 0.024096206 0.59684604 0.60163385 0.6075111 0.50203776 -0.06990975 -0.10523755 0.61282253 0.59870976 0.5764713 0.49287698 -0.052590113 -0.0007363185 0.57926524 0.5489358 0.47968826 0.25910383 0.37987965 0.15963194 0.26176682 0.4688952 0.6112523 0.37259343 0.30377215 0.19718242 0.28568703 0.33098847 0.39507115 0.43088764 0.40636748 0.5101946 0.4138335 0.76794827 0.75602365 0.7143602 0.6440137 0.67415094 0.21158974 0.5124449 0.5152643 0.4899544 0.32985872 0.5919788 0.25027338 0.6211382 0.13043149 0.6197134 0.38273382 0.45833242 0.57352567 0.4652052 0.5207813 0.43075502 0.48251635 0.4127041 0.36936942 0.36268097 0.41623086 0.35265103 0.35755175 0.760165 0.7682214 0.75496244 0.09091305 -0.043569118 0.47115505 0.7816416 0.7932612 0.77871466 0.7679908 0.7553835 0.06973161 0.3069508 0.52848893 0.6230819 0.70245445 0.8236642 0.8230366 0.7646165 0.7354617 0.7392298 0.16813016 0.705263 0.7531419 0.14354943 0.15961537 0.51916945 0.52393556 0.1672651 0.4427681 0.42125565 0.15010574 0.1447658 0.13135569 0.36149627 0.38814086 0.122049004 0.12273696 0.13352816 0.25110272 0.24038821 0.27829677 0.120930076 0.1825247 0.20249847 0.19554658 0.16559777 0.25128478 0.25527218 0.24618532 0.32727826 0.17256433 0.13652349 0.14171158 0.14110787 0.46172425 0.47262153 0.059914418 0.01999434 -0.058918633 0.4319092 0.44334626 0.2098723 0.19892423 0.14105387 0.09068312 0.040486924 -0.062009584 0.3825512 0.40831518 0.27860814 -0.057655208 0.0088458955 0.37461215 0.26943916 0.253494 0.26641378 0.13050869 -0.10054607 0.35466793 0.393152 0.089583404 -0.0698134 -0.020574246 0.03255588 0.046321586 0.099943064 0.14183235 0.1446786 -0.05408116 0.3755442 0.408405 0.30251735 0.27243793 0.07543777 0.19326143 0.28499645 0.3648532 0.32855403 -0.25906885 -0.008471206 0.17637512 0.2061589 0.11853092 -0.18507189 0.21133447 -0.19216321 0.9164843 0.8656627 0.73945606 0.45881808 0.27035177 0.19074586 -0.15368767 0.93473864 0.89136904 0.4442069 0.007051753 -0.0818097 0.90561354 0.834864 0.09232943 0.8364102 0.76582927 0.68916595 0.40299487 0.13779117 0.56799835 0.38933045 0.12068417 0.5162591 -0.043183282 0.5738158 -0.015559636 -0.08563814 -0.12625474 0.09097415 0.5963691 0.6008465 0.43793863 0.3390057 -0.15733942 0.56058556 0.539636 0.47100455 0.38416883 0.3435951 0.362962 0.30421793 0.09059742 -0.0012096316 0.24138127 0.37517735 0.5869974 0.37889653 0.29300046 0.2799438 0.2779386 0.36429423 0.403515 0.43963265 0.41873506 0.38944292 0.48242387 0.696506 0.7237787 0.697595 0.6502285 0.6746681 0.6639018 0.43973953 0.3066021 0.4334852 0.5686253 0.4868965 0.41700915 0.3015081 0.6139026 0.22687063 0.6421351 0.6576084 0.43125862 0.61466336 0.44836575 0.46156603 0.5669153 0.53923154 0.4784434 0.43324 0.4237762 0.5735497 0.65555537 0.7075876 0.7032441 0.6637479 0.62015176 0.7239175 0.7472848 0.7356595 0.70890725 0.41805062 0.4505669 0.7202796 0.7328173 0.7068557 0.16219813 0.28066352 0.491539 0.6631293 0.7354072 0.7950916 0.6852695 0.6588006 0.36623782 0.28938952 0.69726056 0.68701875 0.76495534 0.75444525 0.7278386 0.47981796 0.4404773 0.6983745 0.40024906 0.43053052 0.21546221 0.15071985 0.27451384 0.1270248 0.14014763 0.12032272 0.16122152 0.09232481 0.1511995 0.2935034 0.3380894 0.23280853 0.39647645 0.3461094 0.30776685 0.28627515 0.06274149 0.06129139 0.13442111 0.4636402 0.5328327 0.519948 0.5269341 0.45641598 0.41518986 0.3353696 0.3245979 0.3209922 -0.1561355 0.07547 0.49690345 0.51471865 0.4576358 0.49430814 0.45284995 -0.31641328 -0.39907324 0.4140906 0.43735722 0.4540686 0.3883144 0.27353796 0.035731692 0.015385397 0.05617215 0.059003726 0.034460038 0.084208794 0.023711734 -0.33959666 0.41268593 0.42372346 0.4374457 0.36809528 -0.01572252 -0.44983584 0.28752187 0.37394506 0.39493617 0.3698043 -0.24657588 -0.043317832 0.24321216 -0.18969631 0.092533454 -0.19707555 0.6922262 0.39045012 -0.19478048 0.8822063 0.81525075 0.6540748 -0.2580377 0.92083204 0.92976654 -0.23773053 0.9265338 0.8547001 0.7386501 -0.1417263 0.43983757 0.26047462 0.15081763 0.35302955 0.47837934 0.51919866 0.013845384 0.229913 0.57272494 0.57134944 -0.012656167 -0.3235445 0.35930616 0.5349767 0.48233134 0.4541983 0.25829244 -0.22264265 -0.27638373 -0.18886702 -0.04275168 0.3820899 0.4580888 0.35878146 0.30863243 0.19636443 -0.028994933 -0.09928245 0.09400916 0.020538501 0.08426182 0.104986325 0.39595783 0.39955902 0.23923534 0.147673 0.36185354 0.23955172 0.40171042 0.41022265 0.39689702 0.4290576 0.38804966 0.37201008 0.50506276 0.4961427 0.50056213 0.4636388 0.590406 0.3471837 0.13863213 0.46473986 0.38195246 0.5583631 0.5013393 0.3109651 0.5588542 0.23211527 0.6159462 0.62966263 0.17715389 0.40157065 0.61498976 0.42560786 0.5858634 0.56262666 0.40961492 0.47886562 0.43629664 0.36549696 0.4970791 0.52903044 0.59709895 0.65247434 0.6403301 0.056139827 0.24264112 0.5224085 0.4869485 0.6266887 0.34589714 0.17853275 -0.11658621 0.006423354 0.407389 0.48561335 0.64531004 -0.009584378 0.16607812 0.40203136 0.387906 0.60649073 0.6733558 0.529241 0.45441508 