# vtk DataFile Version 2.0
Really cool data
ASCII
DATASET POLYDATA
POINTS 4798 float
-27.774643 -15.823117 -17.873468
-27.787445 -15.986676 -17.325188
-27.788177 -15.900149 -16.799744
-27.833834 -15.35067 -18.241337
-28.043337 -15.505985 -17.419573
-27.925432 -15.44376 -16.705303
-27.668182 -15.072316 -16.048502
-27.694551 -14.685836 -18.774082
-27.860622 -14.567531 -18.37945
-28.092165 -14.563853 -17.475622
-27.943918 -14.62385 -16.507725
-27.820696 -14.660075 -16.163765
-27.761879 -13.782978 -18.169691
-27.872597 -13.885428 -17.43175
-27.86308 -13.887234 -16.708857
-27.652704 -13.931549 -16.04949
-27.52676 -7.9726663 -12.721861
-27.537333 -7.5347958 -12.618036
-27.210854 -16.152445 -18.118294
-27.408705 -16.230953 -17.485025
-27.283197 -16.151575 -16.679213
-27.149315 -15.847727 -16.031996
-27.308887 -15.185132 -18.842506
-27.547934 -15.628859 -18.449154
-27.339281 -15.348889 -15.896627
-26.855927 -15.036275 -15.238362
-27.33732 -14.501792 -19.015446
-27.425066 -14.590537 -15.682442
-27.094025 -14.239312 -15.181353
-27.281204 -13.762918 -18.860273
-27.493671 -13.601177 -18.409393
-27.469849 -13.676104 -15.731744
-27.019506 -13.792986 -15.143764
-27.11692 -13.160332 -18.158943
-26.997849 -12.64417 -17.676443
-27.369125 -12.863045 -16.681684
-27.088789 -12.797082 -15.6742525
-26.676607 -12.085361 -16.527748
-26.885223 -8.755374 -12.485467
-26.958138 -8.045929 -13.997675
-27.208675 -8.374656 -13.02041
-27.352858 -8.197487 -12.460358
-27.103008 -8.196514 -11.757611
-26.835083 -7.9684567 -11.3529005
-26.78975 -7.226189 -14.874345
-27.00172 -7.312044 -14.431954
-27.378853 -7.495177 -13.38464
-27.457796 -7.4618974 -12.386069
-27.21832 -7.5412 -11.792461
-26.834389 -7.636648 -11.318159
-26.761778 -6.745367 -14.879428
-26.92933 -6.626419 -14.467213
-27.122654 -6.572307 -13.30296
-27.198269 -6.7635856 -12.586576
-26.989965 -6.988468 -11.796274
-26.723358 -6.225584 -14.395336
-26.885996 -6.2961855 -13.312356
-26.436232 -15.81646 -18.909597
-26.539745 -16.43313 -18.203873
-26.70461 -16.42991 -16.676983
-26.244226 -16.121912 -15.56723
-26.022926 -15.830195 -14.90752
-26.206612 -15.300187 -14.819433
-25.907425 -14.703413 -19.587744
-26.646683 -14.720581 -19.354107
-26.289106 -14.677483 -14.633824
-25.849037 -14.852148 -14.448569
-25.879854 -13.740503 -19.377775
-26.249987 -13.504316 -14.741195
-25.898485 -14.003181 -14.454901
-26.532726 -13.253686 -18.916166
-26.636522 -12.670846 -18.390614
-26.276566 -12.704563 -14.895509
-26.074146 -11.714824 -17.278486
-26.551485 -12.001461 -16.894417
-26.597239 -11.993907 -15.892895
-26.422157 -8.807428 -13.817666
-26.15865 -9.129585 -13.142911
-26.480526 -9.003925 -12.566385
-26.1906 -9.020678 -11.585512
-25.889019 -8.806011 -10.946263
-26.668352 -7.7675133 -14.786811
-26.588982 -8.486441 -11.419178
-26.147495 -8.2907505 -10.928998
-26.298073 -7.096076 -15.276215
-26.389528 -7.6304846 -11.007608
-26.348356 -6.5723324 -15.134141
-26.449259 -6.5659013 -11.680411
-26.035524 -7.019304 -11.019667
-26.24665 -6.180483 -14.949633
-26.291485 -5.9096293 -14.374976
-26.36375 -5.908572 -13.485826
-26.107328 -5.9633245 -12.593969
-26.234 -6.2385345 -12.088444
-25.134962 -16.76063 -16.173737
-24.929066 -16.804209 -15.321761
-25.143698 -16.153898 -19.233215
-25.26381 -16.248228 -18.645342
-25.196413 -16.256496 -14.908335
-24.665924 -15.13798 -21.410618
-25.610933 -15.491422 -14.576385
-25.08616 -14.935744 -14.242549
-24.638542 -14.5257635 -21.537199
-25.072006 -14.425976 -20.454712
-25.825161 -14.593193 -14.403709
-24.673374 -13.964264 -20.911331
-24.83155 -13.561028 -20.35975
-25.303846 -13.651656 -14.314979
-24.691696 -12.406731 -19.958199
-24.896488 -12.3721895 -19.346685
-25.19444 -12.792179 -14.2689
-25.1256 -11.986445 -18.971573
-25.52331 -11.775634 -18.326418
-25.38247 -11.408326 -17.921873
-25.09243 -11.196599 -17.467295
-25.408653 -10.722404 -15.952478
-24.936373 -9.6865015 -11.859059
-25.570707 -9.274386 -13.02919
-25.33749 -9.324045 -11.330412
-25.32253 -9.021942 -10.792082
-25.105831 -8.755328 -15.008115
-25.628595 -8.357057 -10.502221
-25.343985 -8.258752 -10.327393
-25.182175 -7.415434 -15.427951
-25.613611 -7.694481 -10.514654
-25.247581 -7.6858954 -10.369881
-25.470417 -6.577254 -15.367883
-25.650867 -6.488185 -11.431414
-25.40458 -6.7417917 -11.007911
-25.556026 -6.0161986 -14.968636
-25.622164 -5.7063704 -14.357282
-25.40073 -5.6004524 -13.626858
-25.33447 -5.7960663 -12.524102
-25.338308 -6.1186123 -11.808565
-25.122469 -5.4787097 -13.286054
-24.18163 -17.700468 -16.548128
-23.747917 -18.236078 -15.455379
-23.80052 -17.955975 -14.949055
-23.853195 -16.732964 -21.323416
-23.812077 -16.902454 -20.36761
-23.964033 -17.169973 -17.806562
-24.214169 -17.570824 -15.319536
-23.75088 -17.167221 -14.50096
-23.81079 -16.278223 -22.01498
-24.178686 -16.04978 -21.589872
-24.624823 -15.98588 -14.502487
-23.67912 -15.284783 -22.674976
-23.940228 -15.369401 -22.299759
-24.536665 -15.496641 -14.349458
-24.158802 -14.640611 -22.000237
-24.458754 -14.367256 -21.59331
-24.152487 -14.01974 -14.169057
-24.053982 -14.0178385 -21.72316
-24.484337 -13.902426 -21.268524
-24.223227 -13.507248 -13.982915
-23.885874 -13.05458 -20.767202
-24.274395 -12.582751 -20.480661
-24.35274 -12.238155 -13.522058
-23.762732 -12.12827 -13.081515
-24.105713 -11.870948 -19.995436
-24.496227 -11.721206 -19.425842
-24.648033 -11.452489 -18.514965
-23.931759 -11.889397 -13.306559
-23.89676 -11.2695265 -19.334253
-23.958729 -11.230431 -18.376642
-24.60944 -10.900344 -17.315186
-24.470459 -10.486191 -16.315323
-24.376595 -10.742366 -13.699357
-24.230188 -10.6212435 -13.080566
-24.579117 -9.091993 -10.685469
-24.616045 -8.165539 -10.21199
-24.570484 -7.506073 -10.298809
-24.246191 -6.6488576 -15.543805
-24.612938 -6.477677 -15.470965
-24.743597 -7.058035 -10.611394
-24.748312 -6.2101493 -15.1901245
-24.451424 -5.6355567 -14.398684
-24.800966 -5.5850153 -13.562787
-24.316648 -5.6517606 -12.631206
-24.651447 -5.896287 -11.97986
-24.10476 -6.25351 -11.216756
-24.550367 -5.4878316 -14.078123
-23.300774 -18.600767 -16.07599
-23.052652 -18.69342 -15.599816
-23.015 -18.578287 -15.102178
-22.988466 -18.208254 -17.312107
-23.214787 -18.483955 -16.40833
-23.465464 -18.405466 -15.247945
-23.320745 -18.207714 -14.745713
-23.276024 -17.9241 -14.408918
-22.978317 -17.095144 -22.285461
-23.329094 -16.974499 -21.477821
-23.239454 -17.261883 -20.855644
-23.325447 -17.104277 -19.515036
-23.272787 -17.201216 -18.326965
-23.666325 -17.417675 -14.437796
-23.233534 -17.594618 -14.323187
-23.099443 -16.324785 -22.879671
-23.490377 -16.45373 -22.37462
-22.948713 -16.076939 -14.343218
-23.238174 -15.520687 -22.95483
-23.017902 -14.584517 -23.058542
-23.441088 -14.338065 -22.665712
-22.975954 -14.048388 -22.854921
-23.381647 -13.877442 -22.243658
-23.562693 -13.311002 -13.643374
-23.169794 -13.049511 -13.031868
-23.634565 -12.459348 -20.725533
-23.329382 -12.365101 -12.818367
-23.442873 -11.954724 -20.420712
-23.487495 -11.087059 -12.777536
-23.098394 -11.180761 -12.189736
-23.429008 -11.413994 -19.801126
-22.878315 -10.7527275 -18.41179
-23.713238 -10.6375675 -17.32771
-23.196547 -10.421272 -11.845221
-23.107225 -9.765264 -16.751314
-22.84576 -9.333054 -16.52252
-23.488867 -9.017453 -10.764316
-23.07186 -8.584332 -15.900826
-23.8999 -8.679776 -10.463956
-23.889168 -7.7100325 -10.396124
-23.88173 -6.499345 -15.37951
-23.106886 -6.7818 -10.740625
-23.540335 -5.971052 -14.92702
-23.542477 -5.702093 -14.368682
-23.8994 -5.4983516 -13.417891
-23.373343 -5.652864 -12.605603
-23.380766 -6.041203 -11.526238
-22.304787 -18.691698 -17.401741
-22.309555 -18.885527 -16.34076
-22.537807 -18.781803 -15.514721
-22.523212 -18.672243 -15.09747
-22.156397 -17.523027 -21.867619
-22.119947 -17.734337 -18.939508
-22.700031 -18.230957 -17.276627
-22.66212 -18.386866 -14.689988
-22.762291 -18.065948 -14.381973
-22.271011 -17.021774 -22.918509
-22.339037 -17.3649 -22.38245
-22.586855 -17.443995 -21.423693
-22.600431 -17.609528 -14.230806
-22.261898 -16.505838 -23.213436
-22.59162 -16.718327 -14.226284
-22.045544 -15.322909 -23.53637
-22.507263 -15.526389 -23.379927
-22.015173 -14.861145 -23.509861
-22.372427 -14.565129 -23.384315
-21.86356 -13.834093 -12.585077
-22.238947 -13.829753 -23.020443
-22.430988 -13.531078 -22.581394
-22.530142 -13.48061 -12.948212
-22.70309 -13.289746 -22.058123
-22.773039 -12.134905 -12.477295
-22.256577 -12.332255 -12.390582
-22.559397 -11.034873 -11.813746
-22.015404 -10.706499 -19.450209
-22.675112 -10.678701 -18.346989
-21.997156 -10.755946 -11.609443
-22.65758 -9.890077 -11.335026
-21.923283 -9.968674 -18.9451
-21.90203 -9.652734 -18.313242
-22.61324 -9.41529 -16.687082
-22.224564 -9.009511 -10.735931
-21.729908 -9.120486 -18.167542
-22.608683 -8.3840275 -15.834723
-22.108797 -7.7971816 -15.592013
-22.288086 -7.917917 -15.488699
-22.60723 -7.9218073 -10.415932
-22.923306 -6.630154 -15.125723
-22.360485 -6.7544312 -10.74217
-22.202854 -6.313397 -14.746904
-22.691923 -5.9849625 -14.343695
-22.75396 -5.733576 -13.527691
-22.378084 -5.6587358 -12.320925
-21.178 -18.771732 -17.905075
-21.34031 -18.969238 -17.255415
-21.634592 -19.031752 -16.49175
-21.65294 -18.82685 -15.484849
-21.855083 -18.725264 -15.229613
-21.834898 -17.526442 -21.861343
-21.171387 -18.486586 -18.296154
-21.39526 -18.291777 -14.887905
-21.73721 -17.081985 -22.873198
-21.745592 -17.429754 -22.258095
-21.59911 -17.395285 -21.794003
-21.600481 -17.317394 -19.897392
-21.290474 -17.218668 -14.291685
-21.630466 -16.305105 -23.223621
-21.461557 -16.84546 -14.295755
-21.674974 -15.2608185 -23.44282
-21.37574 -14.834263 -12.823269
-21.751055 -14.888313 -23.5303
-21.689264 -14.543845 -23.38934
-21.583357 -14.354011 -12.77386
-21.611357 -13.938204 -23.118778
-21.499592 -13.604102 -22.723875
-21.644459 -12.988209 -12.465121
-20.938654 -13.516301 -12.056783
-21.624443 -12.898503 -21.092495
-21.558355 -12.505606 -12.296948
-21.629845 -11.655289 -20.135641
-21.171597 -9.682451 -19.722088
-21.07949 -9.608029 -19.539984
-21.030052 -9.109902 -10.675567
-21.092356 -8.848266 -19.103523
[...]
POINT_DATA 4798
SCALARS features_00 float 1
LOOKUP_TABLE default
0.74315107 0.7289951 0.69232 0.74564797 0.7473655 0.6875204 0.5952089 0.6981893 0.73440576 0.76804614 0.6517298 0.6101219 0.6846857 0.7257327 0.6589489 0.587438 0.8314166 0.8487085 0.691397 0.70732963 0.6451128 0.5623853 0.6784073 0.7173288 0.560029 0.47271135 0.63597786 0.54079884 0.4835378 0.58097875 0.6250138 0.5628772 0.4850152 0.5318947 0.4818167 0.6131209 0.61491865 0.47886944 0.7550548 0.7816235 0.79202795 0.8127043 0.78154206 0.75408334 0.7626321 0.785679 0.8366631 0.8449497 0.8111022 0.75897384 0.7818835 0.7958622 0.84343207 0.8468275 0.80407476 0.7909451 0.81968874 0.61134285 0.5978863 0.58348036 0.42902598 0.37482506 0.3902887 0.41792476 0.5606302 0.38323748 0.32760525 0.30747643 0.3850954 0.31747574 0.41446793 0.38963938 0.46669543 0.312369 0.4206406 0.53530824 0.7256756 0.677066 0.7087041 0.66997325 0.65662503 0.7299826 0.72037077 0.6900964 0.7306963 0.7172046 0.76051646 0.74209595 0.69863117 0.7638049 0.7666464 0.74791014 0.6763878 0.7045225 0.3730797 0.35808617 0.2412146 0.26395226 0.32583177 0.3704195 0.32435223 0.24392919 0.3387177 0.19091189 0.31741202 0.23375045 0.19016254 0.21684748 0.22232944 0.22606015 0.12344668 0.21968664 0.22822692 0.19656865 0.15305701 0.16732538 0.39935726 0.552729 0.57452816 0.62030506 0.6024511 0.6688156 0.66396683 0.5988449 0.6770046 0.6628735 0.69028246 0.6399821 0.63490105 0.71580595 0.70866287 0.6282754 0.5597137 0.5745049 0.56251526 0.44691092 0.5166336 0.4988793 0.5679321 0.30565464 0.1951102 0.46405295 0.4088952 0.6551497 0.57611275 0.2763531 0.61401725 0.57176805 0.2285919 0.4500603 0.35236764 0.09358424 0.35619396 0.276603 0.065745175 0.2493821 0.22854972 0.021701103 0.042997368 0.21031952 0.19745615 0.15589108 0.043567296 0.14761692 0.0935541 0.076740146 -0.002379749 0.030701064 0.030013725 0.55779725 0.6369528 0.6178477 0.46035895 0.56605697 0.599255 0.61545277 0.57438236 0.54945236 0.45919186 0.49837196 0.5029192 0.5622066 0.51745594 0.53085935 0.53394204 0.4144374 0.5023128 0.5268324 0.51836747 0.49421638 0.7353363 0.6179812 0.48723495 0.16154636 0.17449728 0.4385314 0.461027 0.80452394 0.7154995 0.24932578 0.7199824 0.67619526 0.55399173 0.6282109 0.46072632 0.025774509 0.034682367 0.248166 0.041946616 0.22329503 0.07088713 0.05056364 0.1666971 -0.043909486 -0.058695607 0.046478644 -0.1930261 -0.17793274 0.33974308 -0.024526972 0.5189105 0.5716622 0.41742948 0.47156268 0.44944507 0.46775934 0.4542787 0.383327 0.4324709 0.46787968 0.5089108 0.52233744 0.52578455 0.7049117 0.29759753 0.43294728 0.5233839 0.50663775 0.86353445 0.7764425 0.60174465 0.46733332 0.9032854 0.34811532 0.79325306 0.79899454 0.7694756 0.74137986 0.05155667 0.70944756 0.6347239 0.044113755 0.4794019 0.045114726 0.04628376 0.019186944 0.035036564 -0.06902764 -0.028565666 0.047644235 0.010034744 -0.030818153 -0.18902579 0.109324545 0.020548284 -0.02175493 0.05756212 0.056233484 0.36485994 0.26225218 0.34791535 0.225408 0.34577292 0.3515473 0.27495453 0.41079596 0.4839043 0.4939942 0.47347844 0.49184155 0.7105335 0.3550933 0.46266365 0.8594979 0.78267276 0.6953049 0.26836476 0.35082147 0.8836885 0.29888517 0.7877232 0.00025197864 0.7721988 0.7543556 0.038623594 0.7329807 0.71597874 0.056477502 0.01648971 0.50705624 0.034717135 0.14315867 0.12395923 0.1355314 -0.020600088 0.1559411 0.006940484 -0.0635509 0.062168647 0.13545972 0.050492153 0.43794277 0.20730446 0.18839756 0.15763718 0.13520265 0.40916917 0.44009453 0.39446497 0.38898075 0.2802167 0.35332802 0.7655262 0.676062 0.1579661 0.07786547 0.86525714 0.71987534 0.61953735 0.39604574 0.019490048 0.7645302 0.73951906 -0.027360026 0.7345493 0.5196454 -0.0062009357 0.70827776 0.5058877 0.15345794 0.19173245 0.06547524 0.19113696 0.5183277 0.4032931 0.4913818 0.55024636 0.5715529 0.25501698 0.20058234 0.014813408 0.31895503 0.4583537 0.54083335 0.5969192 0.5788142 0.16259241 0.30714077 0.43562394 0.5219645 0.5793459 0.6008518 0.582432 -0.056439437 0.33210063 0.28072524 0.53220993 0.55501914 0.54941845 0.011891045 0.09442024 0.2477879 0.46125355 0.4496848 0.3884834 0.4957889 0.49723786 0.3482509 0.45097846 0.38981968 0.35046905 0.2551059 0.22143336 0.29796487 0.049228385 0.17975134 0.24599016 0.22631826 0.16836348 0.21212795 0.17281103 0.30461177 0.01655507 0.13296883 -0.00689115 0.39107513 -0.120048225 0.049107738 0.124289475 0.20028877 0.44937342 0.35920942 0.1980581 0.20034021 0.33582535 0.41392344 0.47060603 0.18932602 0.35022262 0.41713774 0.50014627 0.53221047 0.45506585 0.4349643 0.009988971 -0.19416863 0.14823708 0.26673168 0.55798125 0.4909673 0.43605226 0.38336754 0.14881149 0.30222163 0.5453925 0.536886 0.3791877 0.318501 0.21716033 0.201897 0.08281504 -0.09585691 -0.14345989 0.53502333 0.4525202 0.2986256 0.22086819 0.47392344 0.12330397 0.35841286 0.24495843 0.260293 0.44557357 0.42744803 0.43717015 0.36934686 0.27399272 0.41812718 0.49474558 0.46533722 0.37452412 0.7685284 0.79329145 0.6282976 0.7464522 0.79722226 0.81090003 0.8251199 0.61986154 0.6522703 0.7110243 0.8456656 0.8498827 0.8426697 0.69757915 0.81417894 0.85954905 0.8461178 0.6570086 0.666368 0.6184495 0.6199034 0.52427864 0.5198911 0.42906833 0.4769603 0.5091652 0.48396412 0.55126786 0.45894843 -0.0073577613 0.024408132 0.220653 0.23267812 0.22388306 0.16484916 0.2441466 0.21788827 0.19411913 0.13485529 0.172248 0.1303723 0.23208043 0.4172197 0.48216534 0.56687677 0.57235855 0.5734247 0.10668059 0.052282892 0.117620826 0.25950736 0.32681295 0.34639496 0.42118758 0.50359905 0.54336834 0.5525728 0.10608953 0.0038289279 0.051127404 0.20702863 0.25218832 0.26263928 0.33792466 0.3783555 0.44848108 0.14482635 -0.20836636 0.09600489 0.21769837 0.17233902 0.17228483 -0.023040706 0.1443767 0.023209449 0.3025123 0.1572539 0.25641972 0.23283884 0.15470628 0.17351162 0.1816153 0.29238552 0.34313333 0.43178633 0.4298847 0.0028778017 0.11659288 0.18511918 0.44292578 0.4455522 0.45636827 0.41023406 0.4415676 0.40576023 0.3837475 -0.1394416 0.4771055 0.2937943 0.27376926 0.1777861 -0.27073064 -0.012417985 0.48155186 0.20473412 0.1437268 0.33850023 0.15400177 0.080373734 0.2512155 0.37185308 0.32629678 0.24631983 0.33895206 0.42381257 0.13167587 0.09077074 0.18253972 0.2979519 0.456592 0.50389856 0.4404652 0.37931973 0.43799502 0.49124852 0.5254038 0.5265945 0.44813806 0.504004 0.522787 0.63239956 0.6680256 0.5226177 0.5662184 0.5940566 0.6260517 0.6977966 0.53981066 0.61243474 0.734511 0.78142476 0.79478586 0.5845262 0.61079144 0.6281964 0.6638502 0.710929 0.53159416 0.57940173 0.6758021 0.80893147 0.8163562 0.5987717 0.6114714 0.5845083 0.8459083 0.5874762 0.82787037 0.83534527 0.59212255 0.60272795 0.69624907 0.74646616 0.7698565 0.7391776 0.7623631 0.8266163 0.66754705 0.6962391 0.72547483 0.7527791 0.57558775 0.5915924 0.6224814 0.62325037 0.6713481 0.52016956 0.52470845 0.48851925 0.5805712 0.57377005 0.45425892 0.415283 0.38511646 0.38343978 0.31792518 0.3336526 0.3250418 0.19493832 0.46800724 0.35145244 0.3324365 0.15509099 0.55701613 0.3969732 0.3353952 0.5869928 0.56512016 0.4904917 0.29883203 0.23906744 0.28386012 0.32357135 0.35201883 0.5752086 0.5728614 0.3600962 0.16231053 0.12193561 0.2387982 0.2545943 0.24854743 0.23762357 0.4999629 0.3790915 0.19090378 -0.0582333 0.023511399 0.10078737 0.2402462 0.23451819 0.36706418 0.42097884 0.43399075 0.5069166 0.57067525 0.5789778 -0.017619953 0.016256124 0.596261 0.603542 0.58128524 0.1853961 0.57598656 0.5536277 0.2843224 0.3822338 0.47488314 0.48567942 0.16556656 0.17781119 0.25042152 0.3007326 0.34360218 -0.02737778 -0.08276952 0.27710477 0.13461927 0.057612058 0.0823347 -0.010625482 -0.035781592 0.06672162 0.37985256 -0.023090016 0.1095368 0.1495851 0.40213466 0.16598436 0.40729737 0.14596456 0.41224566 0.43352753 0.3843926 0.4643749 0.401057 0.4839189 0.50940865 -0.29841214 -0.15157571 -0.12677118 0.5638654 0.2563814 -0.13480644 -0.03362855 0.038193144 0.49863756 0.26841983 0.22201726 0.13738984 0.18377995 0.15354921 0.3807723 0.43159062 0.48303822 0.028296135 0.17569931 0.26552224 0.35875547 0.31362697 0.2861646 0.22758153 0.28496605 0.54411536 0.45052028 0.5027576 0.50649565 0.21319513 0.4250499 0.6258239 0.69100314 0.4498453 0.5276527 0.73574126 0.7694617 0.42731708 0.5914979 0.6839909 0.75994056 0.49087125 0.56352615 0.677894 0.7339487 0.7691364 0.43560764 0.8108663 0.53236836 0.55252224 0.5811112 0.6503873 0.70926076 0.50249547 0.83708525 0.53313756 0.57145464 0.82528186 0.59733963 0.5976765 0.5499772 0.5826416 0.6622486 0.7444016 0.5941539 0.5811427 0.55254483 0.52340823 0.7686782 0.81970596 0.8454902 0.8422592 0.655372 0.70574844 0.7724329 0.7035825 0.60043454 0.6404338 0.5565555 0.5512157 0.03247414 0.14027585 0.23178503 0.04577941 0.007601857 0.010242745 0.12874286 0.24821836 0.35762766 0.5140045 0.058570296 0.16347377 0.3077634 0.36526445 0.40020218 0.36069238 0.33633563 0.5514523 0.09094831 0.00029599294 0.17484556 0.36735055 0.30409226 0.2526301 0.5495186 0.06647856 0.23391423 0.22165048 0.5216383 0.5093302 0.43145242 -0.031485748 -0.09718066 -0.09097737 0.21523163 0.32334012 0.3534261 0.37979758 0.48040166 0.35195795 -0.017226316 0.317436 0.38553178 0.42519668 0.4600031 0.50907135 0.5293876 0.09982781 -0.0078002885 -0.03713914 0.5568585 0.5244191 0.09864165 0.52491486 0.4237042 0.20831317 0.25917354 0.28226572 0.30389556 0.17722465 0.20422918 0.19594066 0.23715045 0.258647 0.28230205 0.12627801 0.20558362 0.21756867 0.19220617 -0.22411744 -0.19726156 -0.01400803 -0.1859419 -0.0057461485 0.27823877 0.2885192 0.33015582 0.31018013 0.3411932 0.22118475 0.37581843 0.4214249 0.46654317 0.5061334 0.3350103 -0.20119488 0.33381677 0.32853583 -0.28069088 0.12060106 0.4117046 0.44325048 0.39447308 -0.08305067 -0.066908 -0.038263313 0.021493543 0.29347765 0.4962806 0.3315273 0.3243264 0.62063515 0.48486054 0.15022743 0.21018544 0.20572963 0.20120963 0.20694098 0.34328407 0.76303697 0.2206551 0.20468812 0.18911377 0.17216702 0.36448207 0.7986281 0.18994483 0.29039237 0.3285927 0.25762957 0.5968432 0.6717223 0.37627798 0.42519248 0.7598748 0.39846128 0.6301006 0.790697 0.41673148 0.4835688 0.5001385 0.5181917 0.587259 0.68071795 0.6999986 0.4227458 0.44453752 0.47323382 0.4920087 0.5705163 0.5850167 0.42610204 0.5848366 0.5714953 0.5270873 0.4899732 0.7773732 0.76822203 0.7242724 0.7684729 0.77995527 0.7438002 0.5967289 0.68555355 0.5010766 0.49757868 0.13492572 0.20862421 0.43545812 0.21964729 0.23137683 0.22783229 0.2222898 0.17036942 0.3149363 0.36012018 0.33305055 0.7193608 0.70000637 0.2978441 0.32945567 0.31350207 0.846038 0.7796043 0.73264164 0.51673007 0.46760532 0.2721574 0.22163334 0.8540134 0.86431676 0.8285092 0.4746915 0.2097483 0.9039017 0.8321013 0.7476859 0.43782717 0.109678656 0.24860184 0.4358631 0.32903016 0.32676393 0.3817584 0.3713061 0.42947173 0.46640027 0.18900678 0.4313928 0.227907 0.40213844 0.4334771 0.44348958 0.4581536 0.48267436 0.10981685 0.34288597 0.3720988 0.39019305 0.42006588 0.4461345 0.35060346 0.3965898 0.42133662 0.030479327 0.24798581 0.26159152 0.28027877 0.33806977 0.360287 0.20432726 0.19800125 0.24551985 0.27280536 0.1541733 -0.13958041 0.14064923 -0.12705755 0.12053764 0.17377874 0.11163665 0.322605 0.38508812 0.011564158 0.38163537 0.13449535 -0.39629662 0.4576698 0.3013601 -0.4212722 -0.4333306 -0.4293 -0.3411494 -0.23026794 -0.13434364 0.45605636 0.3270298 -0.33717602 0.31121162 -0.11581688 -0.028396081 0.009690147 0.0022881925 0.07802072 0.11094582 0.3113745 0.31036788 0.6963067 0.18151236 0.219386 0.20316587 0.14751981 0.023761578 0.01862239 0.037699223 0.13261178 0.1373567 0.09007254 0.33857608 0.71901345 0.19417064 0.12352584 0.020134024 0.014916852 0.040122822 0.09864919 0.086750574 0.3826132 0.6610353 0.15011354 0.05195389 0.022786453 0.10453828 0.6971303 0.38576546 0.3944652 0.50170577 0.60114515 0.41546232 0.38361406 0.39998415 0.41273627 0.51248646 0.50275576 0.49293968 0.48578045 0.48850024 0.40603697 0.60015976 0.6874495 0.6919675 0.7062646 0.44294816 0.5238758 0.38761884 0.45158917 0.28419423 0.41354132 0.18273844 0.22228253 0.21811008 0.25768307 0.2162588 0.20942634 0.17183456 0.11488937 0.3842379 0.23880684 0.3131281 0.31632844 0.7471113 0.7212328 0.6557224 0.08065134 0.2926225 0.2864914 0.8144698 0.79169893 0.25720698 0.16762109 0.93852544 0.7090253 0.6235033 0.094975114 0.2697272 0.3430468 0.9718544 0.9432534 0.8448006 0.75921476 0.16547683 0.3225829 0.564204 0.54747736 0.9180032 0.8421354 0.7960377 0.3030359 0.28661025 0.18789344 0.40463108 0.52070045 0.51487136 0.4904705 0.5233327 0.61188745 0.21953931 0.19701181 0.24979585 0.19514959 0.09762259 -0.046793014 0.36439568 0.4945572 0.5757285 0.6201711 0.0722197 0.45685172 0.5140548 0.022149317 -0.0003004521 0.3962711 0.38755578 0.30998507 0.32895255 0.35984942 -0.09935016 0.25662813 0.044820696 0.093566984 0.1655941 0.2280651 0.024966031 0.28394178 0.37257802 -0.013256043 -0.36646175 -0.09684049 0.30367845 0.038335234 0.24778947 0.18093573 0.3374736 -0.37314567 -0.21576473 0.23592833 0.31849515 -0.24658549 -0.34372422 -0.018266166 -0.14791678 0.08777268 0.07061404 0.19277771 0.19626677 0.15570773 0.16035187 0.26700482 0.371585 0.18455867 0.11107093 0.011940142 -0.059894465 0.31956294 0.47158366 0.12632026 0.014935125 0.20448092 0.8211943 0.33710086 0.34322017 0.40149444 0.45968655 0.19119713 0.16495898 0.1512705 0.6362876 0.77798986 0.35580385 0.3645497 0.36471137 0.36215812 0.23180391 0.22040883 0.30160156 0.46279424 0.30450076 0.22133628 0.3204328 0.39644212 0.26897246 0.4048227 0.35819992 0.2640622 0.6084464 0.3646648 0.42023635 0.59852594 0.34668082 0.08637525 0.18216461 0.2526463 0.22618222 0.23301056 0.2112095 0.21990232 0.23665649 0.1401417 0.59629554 0.5450955 0.767437 0.6812019 0.124736756 0.16335551 0.21321315 0.23384637 0.8794069 0.17665282 0.118374296 0.16184638 0.28981447 0.35716683 0.36920172 0.932404 0.9466503 0.108900994 0.21201801 0.29473096 0.33344594 0.37904036 0.35020155 0.94772446 0.5650238 0.41345707 0.21078487 0.32372653 0.555699 0.59771824 0.59068507 0.6161338 0.6705414 0.93949926 0.9412093 0.8653169 0.7676568 0.22464284 0.46424454 0.5117817 0.60329604 0.65404004 0.70033306 0.7498417 -0.29618707 -0.010121107 0.32567617 0.66787076 0.7529758 0.10620278 -0.25095224 0.5627237 0.67204016 0.44962302 0.5427177 0.35781336 0.42128634 0.3425063 0.29455072 0.44785482 0.42604715 0.3456697 0.20390777 0.30892387 0.36518103 0.39134473 0.30217618 -0.60682935 -0.210594 -0.06849879 0.22856659 0.37336284 0.42288923 0.43302423 0.08220306 -0.42909396 0.17864472 0.3623861 0.43366823 0.44789743 -0.059262797 -0.37867808 -0.1334514 0.048291057 0.055955797 0.18386553 0.83360445 0.776639 0.13696668 -0.05504392 0.8446382 0.84265566 -0.002384073 0.012840445 -0.001599465 0.03699556 0.16332656 0.2138033 0.20727561 0.18575981 0.8117348 0.83221984 0.80430955 0.7156919 -0.13843492 0.044484556 0.046783935 0.05067872 0.11030081 0.20334238 0.14634311 0.7574395 0.7546854 0.2302992 -0.08398349 0.16536275 0.18279293 0.104578435 0.17795055 0.12793115 0.012271941 0.19534333 0.61300755 0.79923093 0.8471819 0.21286839 0.1435819 0.12890118 0.85732234 0.89299643 0.2545899 0.8187011 0.89611065 0.25526014 0.26707304 0.20517123 0.30625543 0.28773522 0.059119433 0.20774484 0.8064721 0.4608394 0.47445488 0.56985843 0.42641917 0.05756657 0.23308638 0.37335235 0.6700194 0.6957799 0.6843817 0.7369491 0.82130873 0.29193822 0.31091344 0.82413036 0.8610581 0.8530625 0.8792134 0.43493402 0.4907375 0.3173892 0.30633497 0.3737496 0.276007 0.29532894 -0.016757283 0.046044722 0.24171653 0.32235155 0.3389474 0.32156816 0.24239598 0.2937855 0.2792372 0.23481277 0.45640275 0.33728442 0.08417393 0.58590627 0.72437644 0.6451663 -0.1759038 -0.0047176387 0.041310526 0.87045777 0.0077160113 -0.17793402 0.13092005 0.20579943 0.27331698 0.34535387 0.35204595 0.33420303 0.9139126 0.8797866 0.36549532 0.32252842 0.8882617 0.84897566 0.55135703 0.41215426 0.2673266 0.123788476 0.21781075 0.56639725 0.58895373 0.59649634 0.6435866 0.6954545 0.7264625 0.8921312 0.8094728 0.7350298 0.17485945 -0.14703377 0.37092566 0.7398902 0.7715715 0.14197078 0.11116424 -0.31460458 0.2533717 0.8285868 0.8041551 -0.07644653 0.6996279 0.50755745 0.4280644 0.41927898 0.5754331 0.53320014 0.46289808 0.53146935 0.47950202 0.37872708 0.47454244 0.40363497 -0.13120416 0.44065106 0.41574773 0.45385674 0.33021408 -0.531299 -0.48410964 -0.18646823 -0.045282215 0.4688478 0.45870346 0.3761338 0.20722955 -0.11774138 -0.008424923 0.37459505 0.17026551 -0.02632289 -0.27967542 -0.19406106 -0.29871595 -0.14923716 -0.29423124 0.8380648 0.8032998 0.78693986 0.6088691 0.3973401 0.044095576 0.08907272 0.12917939 0.13755235 0.8333635 0.75934696 0.17681722 0.16972095 0.75082237 0.7588999 0.029143566 0.06380835 0.052174095 0.07018996 0.10190341 0.20662108 0.71407115 0.71408945 0.7084935 0.60867995 -0.15142772 0.099867836 0.1392895 0.16850653 0.19463214 0.19629242 0.2035652 0.67322826 0.64475346 0.54126525 0.34949675 -0.0923312 0.21832302 0.45181167 0.55602825 0.69410396 0.83448553 0.8985003 0.2705723 -0.053672664 -0.15498464 0.13614136 0.91452944 0.07019886 0.09952906 0.29206514 0.9495388 0.078482136 0.3718481 0.35296512 0.5360871 0.13510743 -0.25794005 -0.18251774 0.8181075 0.88517135 0.13533258 0.33089215 0.4674815 0.4875438 0.49039298 0.65087616 0.6290231 0.06760732 0.30001712 0.65262026 0.7622615 0.7570814 0.80145824 0.823125 0.762821 0.1525709 0.880998 0.92202985 0.9452511 0.9111155 0.43865633 0.52087677 0.6008792 0.527189 0.92700815 0.9866511 1.0 0.5579324 0.5974988 0.1012568 0.29786155 0.34651935 0.38663155 0.23882851 0.25744432 -0.08453178 0.39139646 0.21829037 0.34682447 0.23830679 0.21109903 0.48797017 0.46780747 0.43998262 0.36619663 0.43210867 0.40341222 0.42215246 0.5974238 0.50006384 -0.4640411 0.24513689 0.36450887 0.69435763 0.6454676 -0.27990764 0.15763152 0.76211894 0.6946312 0.24915822 0.2911006 0.27870417 0.30257642 0.7991137 0.7222799 0.17786412 0.003932506 0.2499398 0.8129649 0.77019083 0.68406713 0.5160421 0.44856632 0.34603524 -0.24257362 0.14798933 0.43507308 0.49364835 0.66868734 0.7178385 -0.18882698 -0.1695807 0.44342464 0.3935331 0.40468818 0.48919523 0.6419118 0.73422384 0.7699542 -0.08679318 0.25642356 0.7983008 -0.12768346 0.78863895 -0.42704988 0.70855576 0.6189567 0.5059314 0.13233349 0.49649546 0.5085827 0.6311674 0.6288444 0.2848375 0.61528146 0.5651122 0.33088323 0.5830569 0.54038286 0.3787781 0.49913365 0.44544107 0.43239087 0.43859124 0.32149896 0.30423754 0.20996642 0.045667008 -0.050995648 0.1402086 -0.32485378 -0.51147234 -0.2409149 0.025428917 0.8151467 0.74986637 0.52088046 0.08770761 0.112068355 0.1473315 0.23060143 0.7593311 0.77203715 0.25048137 0.2877801 0.69818795 0.08284374 0.67842984 0.6872028 -0.39838248 0.010347063 0.0044797063 0.085044146 0.08985896 0.13606144 0.15474024 0.15931982 0.55167896 0.6557866 0.6741438 0.664353 -0.30649155 0.47409487 0.56539905 0.71574485 0.84809405 0.9181144 0.638092 0.601676 0.39759004 -0.005013585 -0.053873 -0.2203652 0.96230084 -0.05837501 -0.043087557 0.10993508 0.53188753 0.97156227 -0.014574762 -0.005064428 0.09215438 0.33330432 0.6542493 0.0398183 -0.113893844 0.91231096 0.31405687 0.46916443 0.70687866 0.41082954 -0.055680543 0.12412107 0.76848936 0.8375021 0.5043434 0.54687196 0.5484951 0.5073895 0.76846945 0.8333404 0.87805796 0.9133147 0.8309351 0.44405633 0.54380023 0.927006 1.0 1.0 0.98460734 0.56399846 0.60083133 0.60954446 0.19972445 0.27472758 0.3514977 0.36912924 0.23450309 0.18072045 0.17859235 0.54358214 0.48654395 0.20171721 0.15332071 0.046109542 0.5138015 0.50461245 0.4806248 0.4237887 0.35593942 0.28516582 -0.3786686 -0.35762694 0.39804024 0.44121605 0.39538324 0.55892956 0.43617946 -0.6685518 -0.079847254 0.36541283 0.37053478 0.6294232 0.57677007 0.4950111 -0.5210478 -0.5826162 -0.25776157 0.6684042 0.61355835 0.1895257 0.112797216 0.6682262 0.644256 0.5927445 0.45978346 0.34071544 0.13512768 0.18120323 0.10389806 0.2816268 0.6967034 0.665424 0.5417988 0.4317041 -0.3537157 0.19180351 0.25960246 -0.25539497 0.004306607 0.31726602 0.3530109 0.32693464 0.5383005 0.6785444 -0.22922936 -0.48234516 0.034597043 0.4949832 0.6294582