# vtk DataFile Version 2.0
Really cool data
ASCII
DATASET POLYDATA
POINTS 12343 float
37.41584 -11.358388 8.057227
37.40121 -11.459446 8.5538025
37.44202 -11.504838 9.131187
37.46138 -10.950154 7.969695
37.4503 -10.93386 8.669124
37.420307 -10.899613 9.00783
37.37102 3.0449777 20.716711
37.413433 3.0827022 21.081148
37.33008 3.5272164 20.647263
37.318962 3.6580722 21.278753
37.395737 4.322686 19.887184
37.31079 4.530562 20.645746
37.40948 4.845925 21.461754
37.460827 5.6124043 19.719307
37.49546 5.9154716 20.508087
37.36755 5.0149446 21.149967
38.335743 -14.392199 7.6481037
38.36697 -14.540058 8.194695
38.3958 -13.906958 7.1826215
38.307587 -13.610125 7.88177
38.283115 -13.554721 8.498408
37.78701 -12.133316 7.7684884
37.595547 -12.123214 8.492366
37.773144 -12.173686 9.392067
38.01671 -12.016758 10.000639
37.993217 -11.1963625 7.1196494
37.655586 -11.432639 7.659285
37.533504 -11.788011 8.240266
37.57569 -11.520645 9.435033
37.89115 -11.498425 10.047323
38.120674 -10.632753 7.0773244
37.683685 -10.654819 7.749915
37.58033 -10.559624 8.426965
37.663895 -10.690416 9.39458
37.964863 -10.786372 9.990252
38.198147 -9.829003 7.5307145
37.94572 -9.944749 8.430777
38.057896 -9.979819 9.296152
38.22709 -1.8907593 21.902905
38.203976 -1.9374899 22.447762
38.260624 -1.8063128 22.98047
38.26826 -1.2031294 21.162386
37.99604 -1.3881569 21.77775
37.95451 -1.4043729 22.446606
38.15588 -1.4604073 22.999393
38.178795 -0.17826954 20.602558
37.89665 -0.77931386 21.705078
37.859867 -0.7490749 22.392113
38.067337 -0.6028682 23.001896
38.208435 0.50643927 20.116629
37.982834 0.6413367 20.518938
37.897224 0.2694205 21.472595
38.020115 0.0042295903 22.3694
38.281406 0.08495268 22.962702
38.258095 1.3144877 20.100927
37.949036 1.5313576 20.719433
37.84217 1.5396975 21.083143
37.800903 2.6371224 20.029047
37.692024 2.6050804 20.587378
37.53054 3.104908 21.361032
37.79481 2.9865782 21.861183
38.297703 3.819583 2.647785
38.160656 3.88608 3.4146495
38.180397 3.9412043 4.217237
38.375416 3.9892404 4.908158
38.070076 3.6274173 19.051115
37.621635 3.6766179 19.607851
37.476585 3.2599514 20.364473
37.76446 3.4875853 22.057827
38.37978 4.097365 2.1993778
38.184887 4.507125 2.8833823
37.998184 4.5105314 3.518072
38.034485 4.5946155 4.313887
38.30491 4.504056 4.9840016
38.257214 5.1170154 18.292282
37.991013 4.72154 18.738997
37.521248 4.473382 19.450594
37.675793 4.253691 21.95156
38.11468 4.89535 26.010496
38.173706 4.87643 26.432268
38.29822 5.011603 27.459763
38.026478 5.386837 3.7091613
38.00969 5.219888 4.258397
37.969753 5.971541 18.271559
37.836643 5.6699467 18.485092
37.516872 5.412191 19.278282
37.62645 5.549115 21.450184
38.11695 5.5030975 25.761013
38.032825 5.4377975 26.542578
38.14843 5.5382814 27.319527
38.395214 5.557301 28.073032
38.386536 6.112017 3.773118
38.14035 6.4813523 18.124107
37.81582 6.495173 18.519476
37.582626 6.153675 21.35765
38.086723 6.3460584 22.19286
38.175106 6.1222653 25.859192
38.192455 6.2753267 26.39222
38.256634 6.2052984 27.437256
38.38888 6.189638 28.079105
38.39508 8.148207 4.544256
38.333076 8.059151 4.909759
38.134743 7.0765476 18.24052
37.855007 6.9546695 18.553839
37.799217 7.333666 19.519169
37.83963 7.221445 20.467422
38.037617 7.2932253 21.51884
38.105587 7.0748453 21.985958
38.4357 8.570216 3.8325288
38.27509 8.6833935 4.5945425
38.36577 8.562607 5.190752
38.172127 7.8077335 18.883892
38.310528 8.023002 20.004833
38.280758 7.8349314 21.074429
38.41529 9.319087 4.0630302
38.349827 9.311793 4.5633507
38.43413 9.62282 5.4557533
38.400856 9.862145 4.7504706
38.479897 10.043887 5.2618103
39.410805 -17.816483 6.9588404
39.367424 -17.408827 5.7647414
39.29916 -17.375378 6.4611664
39.347317 -17.488817 7.654909
39.369137 -16.835571 5.687356
39.392666 -16.28914 6.85886
39.241642 -16.34503 7.1918087
39.174747 -16.391344 8.001429
39.434616 -16.50603 12.849764
39.432686 -16.359188 13.26242
38.77184 -15.211173 7.0813017
38.69361 -15.2581 7.7554803
38.919083 -15.107997 8.573507
39.4528 -16.021511 12.848971
39.425507 -16.101627 13.28564
39.14931 -14.342618 6.3160357
38.750504 -14.479308 6.769718
38.506218 -14.6255865 8.294547
38.759705 -14.313005 9.008981
39.259636 -13.7768135 6.1173267
38.800785 -13.581403 6.7909374
38.526043 -13.465409 7.464042
38.614056 -13.313672 9.1831665
39.179493 -12.8652935 6.523633
38.54487 -12.203633 10.201702
38.640873 -11.43691 6.711618
38.412754 -11.457319 10.444044
38.94185 -11.220155 10.890301
39.312523 -9.943478 -1.325945
39.326584 -9.8812065 -0.72849286
38.626747 -10.649139 6.730922
38.52347 -10.584155 10.639663
38.85205 -10.426163 10.867642
39.223873 -9.435805 -1.4721713
39.004093 -9.26552 -0.57135916
38.984737 -8.986445 0.048328295
39.149204 -9.376787 6.2379656
38.730732 -9.523743 6.7642884
38.52185 -9.336698 9.355146
38.74412 -9.837446 10.235119
39.223312 -9.336699 10.784318
39.154858 -8.185184 -1.9889619
38.87595 -8.583623 -1.3084977
38.742695 -8.421158 -0.57338905
38.877148 -8.344304 0.14284495
39.013718 -8.739886 6.826821
38.718727 -9.01269 7.4918475
38.72439 -8.87404 8.416158
38.913273 -8.957938 9.528814
39.09918 -9.067121 10.094518
39.202038 -7.525382 -1.9629642
38.891655 -7.6638904 -1.4132726
38.753967 -7.7361712 -0.615359
39.019478 -7.7969522 0.32619983
39.251183 -8.215669 8.102423
39.28509 -7.0860043 -1.894114
39.05144 -6.9810743 -1.1782975
39.1319 -6.579843 -0.25835165
39.246548 -6.5513844 0.65947443
39.357494 -5.957548 0.028667968
39.32112 -5.1433334 0.94785106
39.302773 -5.349051 0.9584652
39.401695 -5.003005 0.49225354
39.4113 -4.780762 1.2551353
39.387894 -2.9762561 21.241447
39.179592 -2.979459 22.303991
39.176357 -2.7139802 23.149529
38.987503 -2.1431584 21.162325
38.74867 -2.242743 21.50934
38.635838 -2.3379197 22.381027
38.698215 -2.1580024 23.133587
38.957024 -1.882174 23.684345
38.5329 -1.3824244 21.029875
38.592884 -1.6333511 23.46409
38.923706 -1.5760225 23.826326
38.571125 0.04013045 20.047678
38.579594 -0.4918155 23.489737
38.94665 -0.8160057 23.84138
38.452255 0.47073027 19.957724
38.755886 -0.07778821 23.42162
39.1229 2.237839 2.8877456
39.19674 2.2251155 3.2768679
39.007713 1.5659292 19.43598
38.594112 1.7440597 19.728676
38.613167 1.6625888 22.48651
39.03324 2.9047327 1.8389906
38.71712 2.9277813 2.5308897
38.840603 2.6983159 3.4394696
38.711983 3.1220784 4.241144
39.128284 3.2723947 5.2552896
38.4454 2.8464804 19.127752
38.41197 2.3068156 19.471933
39.181995 3.3583999 1.374487
38.785183 3.6991882 1.77036
38.478127 3.4801822 2.557483
38.469376 3.5137918 3.807064
38.448277 3.572247 4.3952107
38.645187 3.954862 5.1519794
38.773712 3.4136248 18.683374
38.662106 3.3447568 22.512522
38.894257 3.874921 26.610199
38.989697 3.9764397 27.197706
39.226692 4.1700945 27.945673
38.555595 4.3848896 2.1055408
38.48454 4.576384 2.373614
38.65915 4.360056 5.444863
38.982548 4.711321 5.830044
38.919357 4.690946 18.177355
38.66514 4.1644835 18.45288
38.837803 4.713651 25.067972
38.462612 4.3685074 26.760147
38.42234 4.83989 27.371084
38.901123 4.793432 28.256742
39.19414 5.161759 29.054682
38.660625 5.000367 2.5518374
38.715343 5.49178 5.1964865
39.095448 5.1286793 5.8001313
38.4472 5.2698936 18.076653
38.522224 5.8806925 24.826897
38.595863 5.5539417 28.499788
38.889526 5.758275 29.022013
38.874966 6.139545 3.086687
39.203712 6.694798 3.5215433
39.023815 6.2384434 4.9127016
38.77506 6.472895 17.700815
38.574745 6.3237486 25.139366
38.482513 6.6108623 26.023865
38.511604 6.6336575 27.742727
38.59161 6.467632 28.549223
38.900864 6.439579 29.045454
38.797287 7.8371277 3.6770227
38.991795 7.4615774 5.242656
38.554058 7.402796 17.979458
38.56807 7.6295853 22.645294
38.973663 7.024924 25.470503
38.528435 6.721344 26.166845
38.818607 6.98948 27.609947
38.890327 6.9728503 28.490349
39.111946 6.9731836 28.913391
39.01566 8.402421 3.2020855
38.65988 8.266357 3.670044
38.510136 8.543806 5.430604
39.004578 8.734018 5.962064
39.420704 8.978226 16.074657
39.23951 8.8507185 16.550858
39.048473 8.878455 17.268915
38.619057 8.033066 20.543707
38.76655 8.1767 21.624374
39.032322 8.279551 22.55561
39.00105 8.084543 23.378468
39.114105 7.9258857 23.961214
38.9645 9.613279 3.2650561
38.635303 9.33127 3.790701
38.576244 9.680367 4.3044314
38.537365 9.704215 5.6624675
38.780727 9.546272 5.9983697
39.37965 9.042656 16.05477
39.212807 9.442844 16.525375
38.88314 9.383044 17.646704
39.041565 8.762497 18.81254
39.153233 8.6934185 21.55706
38.93083 10.254826 3.8984191
38.671608 10.294975 4.585388
38.634064 10.502362 5.516705
38.965466 10.461144 6.223019
39.16776 10.595468 16.839535
38.902725 10.486386 17.553415
39.05975 10.39199 18.263792
39.0526 11.09915 4.7726655
38.993767 11.1694355 5.5455856
39.100616 11.044216 6.1100225
39.21166 11.01115 17.011393
39.117504 11.094241 17.5622
39.234074 11.182044 18.10521
40.17859 -18.616531 6.5539093
40.16722 -18.716995 7.6086316
40.03248 -18.050043 5.130695
39.817085 -18.075808 5.624778
39.80929 -18.337234 6.58383
39.702595 -18.215672 7.515361
39.884777 -18.220112 8.24847
39.79906 -17.377434 5.0070653
39.517334 -17.518099 5.4869094
39.545494 -17.649466 8.294059
39.88821 -17.447096 9.090542
40.222633 -17.13193 11.461871
39.703827 -17.073278 12.642576
39.775436 -17.148682 13.320031
39.98637 -17.065279 13.879689
39.80983 -16.634867 4.9827914
39.480427 -16.865023 5.274381
39.8754 -16.224815 9.237606
40.420784 -16.77914 10.60299
39.80939 -16.56698 12.039649
39.536713 -16.621548 12.5990305
39.5485 -16.599558 13.513973
39.923714 -16.543016 14.050511
39.800705 -16.186878 5.2557707
39.620327 -16.061686 5.6001444
39.63139 -15.401041 9.313963
40.190292 -15.507489 10.365329
39.642685 -15.665004 12.645366
39.673546 -15.66773 13.41747
39.957478 -15.882015 14.00885
39.65468 -14.179289 9.607875
40.3496 -14.822648 10.648956
39.98554 -15.251748 13.324546
40.09113 -13.464258 5.311214
40.294704 -13.792092 11.022571
40.311375 -13.003518 5.0980606
39.53547 -12.148242 6.17807
40.09624 -12.044012 11.834224
40.076435 -10.765257 -1.3535984
40.0236 -10.808004 -0.7066949
40.2581 -11.030235 0.48695108
40.272285 -10.794093 1.1959547
39.53922 -11.171992 6.121997
[...]
POINT_DATA 12343
SCALARS features_00 float 1
LOOKUP_TABLE default
0.48542643 0.5024794 0.5170744 0.4989835 0.52689934 0.53581166 0.40040696 0.4043701 0.42706704 0.43244773 0.46219575 0.4461264 0.42161208 0.46605968 0.42838618 0.42726278 0.37413216 0.3559246 0.3655492 0.38460445 0.37305385 0.4192761 0.4586206 0.47565198 0.46131572 0.41570818 0.45246425 0.46854174 0.520085 0.49571922 0.43734533 0.49341977 0.5200254 0.5374075 0.50103533 0.45281467 0.49485835 0.48793876 0.5638248 0.5856552 0.5850718 0.5010402 0.58488864 0.6205029 0.6016224 0.46350017 0.59813887 0.63702506 0.611789 0.41207427 0.40846947 0.5102783 0.59948397 0.5524738 0.38652045 0.36299613 0.3533588 0.38848677 0.38162163 0.4019909 0.3564728 0.5184399 0.54711056 0.5441066 0.54368424 0.40954039 0.45121753 0.4149533 0.3813073 0.4803724 0.5144413 0.5499957 0.5681425 0.56453013 0.39322627 0.42616087 0.46586645 0.40911457 0.55998254 0.56486017 0.5931705 0.535449 0.5818708 0.42733413 0.44054264 0.4615159 0.3863224 0.5604105 0.588725 0.6184738 0.66902876 0.4292044 0.40778473 0.4358176 0.36533594 0.30827874 0.5398288 0.56125045 0.6392221 0.70583385 0.51300585 0.5493604 0.40026087 0.42103595 0.4356434 0.3630339 0.3047799 0.30050987 0.4230267 0.54219747 0.5983311 0.36070544 0.28098804 0.27732667 0.4988827 0.5571883 0.6744628 0.6004893 0.6790625 0.4904107 0.5276926 0.49138883 0.43367434 0.4822218 0.37730438 0.36380026 0.32505587 0.6189847 0.662068 0.35391986 0.35144573 0.28398633 0.5980438 0.6572049 0.27088302 0.3416562 0.342575 0.2711453 0.21629871 0.31533846 0.3713016 0.32317516 0.23693493 0.3652295 0.30751985 0.41154516 0.29772517 0.59989715 0.5244559 0.3651205 0.37775356 0.3152364 0.64914477 0.54876536 0.49365073 0.30308247 0.3707006 0.35405105 0.3521146 0.23635894 0.6422981 0.6543579 0.59038347 0.4935789 0.31234184 0.3572196 0.3127875 0.2579268 0.24245912 0.57652503 0.58778083 0.55890465 0.44859204 0.2269828 0.53577954 0.5185446 0.43709365 0.3547598 0.38357562 0.344186 0.33681828 0.3570409 0.3466431 0.48446178 0.5282419 0.51158726 0.45847538 0.5049043 0.5528811 0.54806876 0.5208205 0.4584376 0.5581405 0.52114016 0.40616143 0.5527541 0.51390815 0.39654747 0.50268495 0.37990475 0.35792106 0.31767207 0.35840383 0.30069137 0.41691202 0.47957894 0.43703187 0.46309552 0.4762055 0.34167385 0.3564574 0.36869222 0.44186226 0.5073271 0.5183555 0.51046693 0.53946626 0.26895887 0.08373615 0.4490249 0.4868287 0.53477603 0.44553113 0.4532768 0.5555308 0.5429085 0.2713632 0.3057487 0.4759221 0.5213791 0.5754024 0.6111505 0.7093147 0.40874338 0.5077007 0.5112021 0.36255413 0.48402494 0.7042451 0.7575079 0.25109783 0.19444726 0.4028799 0.3361159 0.44956455 0.4983464 0.68218064 0.7638485 0.7838669 0.2916351 0.51913357 0.3654548 0.26204598 0.35840115 0.4957868 0.66654456 0.76983917 0.77637196 0.26527372 0.35086256 0.62331784 0.6878427 0.61761 0.54761785 0.47705835 0.24765685 0.2396084 0.24560453 0.22528373 0.20162241 0.3956024 0.45673054 0.54022366 0.71344036 0.7567735 0.6254538 0.6402247 0.54886615 0.31797165 0.21362163 0.51961064 0.6093031 0.74897623 0.82055396 0.7083526 0.68716824 0.6302632 0.6834036 0.77629876 0.8154105 0.70707965 0.69756526 0.6747673 0.5086564 0.44599405 0.550856 0.5567822 0.52609116 0.46825796 0.43014207 0.53737026 0.5436322 0.40935886 0.3061906 0.42458618 0.6111458 0.6976352 0.75079495 0.47523952 0.4972666 0.14854135 0.09511545 0.4818259 0.586648 0.6913011 0.7494431 0.40793774 0.39007258 0.14908816 0.010184251 0.5205573 0.64721704 0.7153634 0.12688884 -0.0013113208 0.59871787 0.098787 -0.008511411 0.07944293 0.17148243 0.09602482 0.57635516 0.5111889 0.4320787 0.37012434 0.18382691 0.13815312 0.13804133 0.6883593 0.62058115 0.50237 0.42527843 0.3689602 0.22791871 0.21949136 0.20446561 0.17132996 0.71228814 0.7208221 0.35621417 0.11678539 0.20507532 0.16396588 0.6585095 0.66945183 0.281247 0.15921211 0.1808144 0.15835449 0.14305866 0.587962 0.5606436 0.3365818 0.26963744 0.28536195 0.26188248 0.247492 0.14827977 0.13456951 0.10882235 0.49340644 0.4857363 0.27570722 0.18537164 0.247121 0.18824369 0.13334018 0.41688943 0.39497077 0.26956183 0.380446 0.3891594 0.3659808 0.34852135 0.30336282 0.5278169 0.54844075 0.5428375 0.37581238 0.3912959 0.39654046 0.37136012 0.44687903 0.4815684 0.51834804 0.53393686 0.48673862 0.46735758 0.34597856 0.40980774 0.38387263 0.43802106 0.4791841 0.47501174 0.23781115 0.3342092 0.45160985 0.33394068 0.43987685 0.15967603 0.24336445 0.1837674 0.15729311 0.15434559 0.277642 0.30016246 0.28920048 0.32779247 0.3152277 0.28662145 0.26966467 0.11153526 0.32877982 0.35778213 0.47329915 0.2110345 0.085184045 0.17818415 0.2681381 0.30661497 0.53731704 0.16673982 0.013128767 0.113413945 0.3587185 0.45403314 0.47789985 0.27945706 0.56645256 0.5646288 0.21261367 0.6712351 0.28061527 0.50552154 0.21367297 0.7309283 0.38282704 0.30269068 0.041003667 0.12729391 0.42321527 0.36635104 0.21537209 0.7540722 0.73080397 0.4092474 0.30842552 0.18757293 0.077167004 0.38735425 0.4951916 0.53536105 0.33443537 0.211355 0.53784835 0.69593465 0.7398771 0.36825088 0.22604111 0.050878823 0.05630774 0.115140975 0.6869385 0.61618376 0.2052315 0.19692221 0.20148338 0.19978131 0.21041799 0.78055483 0.7534567 0.6656712 0.3423523 0.16932178 0.179503 0.21149436 0.21918379 0.40985665 0.41924363 0.43502107 0.8178621 0.7976069 0.6954074 0.70760053 0.49595046 0.5424451 0.67616785 0.7728057 0.8073654 0.79359144 0.6925286 0.69877315 0.70086014 0.67530626 0.60471916 0.6957238 0.7620594 0.7908466 0.6895338 0.691627 0.6770556 0.43540454 0.44030416 0.410033 0.37827784 0.506899 0.49597034 0.40454406 0.34176075 0.4913555 0.61098266 0.6593893 0.71044874 0.49540952 0.5279589 0.7478092 0.75190854 0.4297963 0.4372654 0.7770566 0.7742897 0.22269996 0.7159879 0.74175465 0.23735355 0.5824834 -0.008642336 -0.032019883 0.42279908 0.014377489 0.6096822 0.5614457 0.45431966 0.41548353 0.3655968 0.21050796 0.09286982 0.0426233 0.68086386 0.67547214 0.06272299 -0.17337567 0.6976541 0.16229644 -0.12880936 -0.06375867 0.15534478 0.14281161 0.6458512 0.122822605 0.2194933 0.13652423 0.13066411 0.08866534 0.55418366 0.0709026 0.041562524 0.09594083 0.11404434 0.077568114 0.4285822 -0.026785795 -0.036332168 0.20565312 0.10415171 0.062503844 0.047358803 0.022891048 -0.034980174 0.4003482 0.16917785 0.15772176 0.11669327 0.1396019 0.33216956 0.3653262 0.18651299 0.1736074 0.1962113 0.17289594 0.5336574 0.5639114 0.5336007 0.48753887 0.45694724 0.3408993 0.34016073 0.26296583 0.20468119 0.20206168 0.48699653 0.46442062 0.46132058 0.27926776 0.22945143 0.24820179 0.35727328 0.4520202 0.45391285 0.19746456 0.12545341 -0.12554951 0.35349593 0.22206551 0.3759423 0.40856785 -0.08695231 0.049125835 -0.15658098 -0.15713646 0.3493755 0.4448438 0.45773372 0.42985827 0.03218201 0.113064714 0.44618505 0.4922517 0.5280542 0.4912566 0.19091798 0.16757232 0.28115535 -0.045058273 0.048625395 0.18315521 -0.043618426 0.43285477 0.5091782 0.49110305 0.17119634 0.1587429 0.0020840187 0.07317134 0.31996065 0.13015562 0.13240334 0.15829876 0.53508806 0.32677898 0.061029464 0.11266297 0.55378413 0.12895852 0.028497552 0.5604076 0.44413632 0.2882191 0.19410469 0.5833627 0.17356618 0.605991 0.61275065 0.56987095 0.47368824 0.30137816 0.17098248 -0.05627334 0.4634536 0.14602618 0.59166116 0.573985 0.5363326 0.4524369 0.30252802 0.0817614 -0.0455299 0.60839456 0.6025349 0.48565918 0.4276243 0.2910943 0.5638815 0.10532534 0.61753756 0.6342119 0.4493103 0.42416623 0.3922224 0.58929396 0.6124916 0.6039808 0.14958562 0.12440201 0.4041054 0.38784903 0.5855526 0.6824276 0.6119044 0.6583157 0.16807143 0.1627327 0.16598348 0.4324276 0.4215058 0.35054642 0.7180456 0.65942824 0.35841578 0.4540063 0.4631921 0.45953172 0.30285 0.37642488 0.77459455 0.7580062 0.6649265 0.66290975 0.60058933 0.4700389 0.45851886 0.4513412 0.558099 0.6850673 0.7481198 0.782254 0.65064365 0.6681032 0.6657206 0.61954117 0.5289677 0.3696332 0.40784824 0.3285355 0.34438166 0.26251736 0.18188637 0.27557576 0.44249538 0.43933368 0.4160022 0.3633204 0.50235945 0.5560592 0.6269113 0.6773323 0.7289865 0.42036092 0.7483008 0.7094196 -0.03635423 0.5994953 0.07825194 0.4327637 0.39132392 0.36429587 0.14338069 -0.07733687 0.20676121 0.5036618 0.49816543 0.45815918 0.18196368 -0.031788066 0.21193399 0.34853125 0.3690821 0.6262949 0.5900272 0.08174357 0.2374654 0.3688323 0.400898 0.65860647 0.15520692 0.3218221 0.35695416 0.32484627 0.6308125 -0.08750959 0.23302951 0.25201347 0.5837293 0.5099475 0.032779384 -0.21802816 0.35331413 0.01695432 -0.030814461 -0.01364214 0.31504488 0.004522294 -0.0797925 -0.13673884 0.12206314 0.085090294 0.13378595 0.15935461 0.48666513 0.26932925 -0.28256136 -0.08202684 0.13746163 0.1340437 0.18685892 0.2166452 0.20423864 0.3871016 0.40406898 0.5223289 0.41662586 0.434008 0.3148694 -0.0043608844 0.15599503 0.1974021 0.1395629 0.20760082 0.23072127 0.25675955 0.2087553 0.481629 0.44338793 0.4471082 0.1588009 0.14982961 -0.07851094 -0.10044016 0.09098479 0.14724955 0.23953262 0.1485114 0.06670927 0.41840765 0.07975069 2.5860965e-05 -0.105518736 -0.03955847 -0.071783885 -0.06857167 0.17624979 0.25125462 0.30476457 0.2341642 -0.0510384 -0.18912831 -0.04922394 -0.025547974 -0.045068532 0.10642195 0.22274628 0.40032607 0.28518638 0.012166508 0.3258782 0.0881426 0.008045059 -0.13434646 -0.080254495 -0.062837735 0.031810075 0.2408673 0.47043622 0.28048092 -0.0740999 0.23664507 -0.039431244 -0.10459825 -0.1030446 0.10680265 0.07120712 0.32776177 0.38978493 0.49559933 0.45182854 0.063387975 0.1416692 0.03795612 0.22913301 0.4023332 0.37890047 0.41619724 0.13585368 0.07246514 0.16884395 0.57375914 0.4876805 0.4822602 0.29024988 0.31572026 0.17410423 0.15845522 0.61747086 0.5847419 0.45512602 0.5321104 0.1918432 0.62464297 0.38383633 0.18796422 0.45896146 0.580271 0.2186017 0.23234025 0.5082357 0.47442976 0.2515654 0.45522782 0.03171677 0.050687365 0.36989096 0.43711674 0.2692231 0.3962686 0.5015081 0.033018813 0.39338332 0.53852564 0.5831405 0.5354132 0.079209395 0.077461146 0.3886444 0.68161947 0.71016014 0.58659375 0.12094947 0.434994 0.42545807 0.31872588 0.7478558 0.62063986 0.58693504 0.31710047 0.44099355 0.39513588 0.5150429 0.7270711 0.7631018 0.60999584 0.61308455 0.62569416 0.5802932 0.50171936 0.69320285 0.712664 0.16794603 0.083639756 0.30978966 0.25731212 0.23836996 0.23861395 0.18858048 0.09818309 -0.026208948 0.2086069 0.33475316 0.45734325 0.38466924 0.51779795 0.61815476 0.3491312 0.62014395 0.65126014 0.6648987 0.7318307 0.7429729 0.27696767 0.6738748 0.53813154 0.65197873 0.7507031 0.7837467 0.110357694 0.61780536 0.48874536 0.6562049 0.79971576 0.85999423 0.82964057 0.008560739 0.45316595 0.41383648 0.5501113 0.76711065 0.86324537 0.8276305 -0.20774016 -0.07488191 0.22326261 0.50266796 0.70232576 0.8042832 0.813596 0.41790724 0.37492034 0.22408558 0.2860368 0.29461306 0.64933366 0.74804115 0.47550806 0.43189067 0.42675138 0.3155143 0.35043633 0.34020486 0.42039576 0.3741808 0.28977504 0.5762 0.3296555 0.25475278 0.5733763 -0.09887905 0.11187952 0.2059342 0.24933577 0.15291645 0.5351238 0.45568693 -0.24914876 -0.0024640607 0.057218134 0.052926034 0.08837061 0.15354468 0.25049978 0.27923223 0.005343495 -0.1680744 -0.16183962 0.14762034 0.25169134 0.28597522 0.03599755 -0.04878758 -0.08021229 0.2528913 0.22184218 -0.351354 0.08293514 -0.12923108 -0.29760453 0.38285148 0.67174685 -0.23070377 -0.35366783 -0.07584113 0.41887307 0.38658404 0.70105165 0.6700734 0.46268547 -0.17918162 -0.33024645 0.060120683 0.07694004 0.16019627 0.3697323 0.6849605 0.59767973 0.44396102 -0.017679803 0.041415825 -0.02397757 0.032598957 0.039992593 -0.04564409 0.32406893 0.61973625 0.53601307 0.2252765 0.15699817 0.2769977 0.2771346 0.2035644 -0.19833496 0.1920833 0.3672856 0.43862605 0.40792555 -0.20644921 0.22693469 0.33942452 0.26661265 0.32928723 0.33753973 0.13038625 0.08495369 0.16127343 0.44864914 0.0040079504 0.19880895 0.25939673 0.2655192 0.28048262 0.16286814 0.32127687 0.4535189 0.5942377 -0.09305018 0.19599612 0.48317394 0.613446 0.044435017 0.2815689 0.4465029 0.5764508 0.29127592 0.5046959 0.13123429 0.08901665 0.17021608 0.40596718 0.28643513 0.3829971 -0.024105046 0.10113961 0.1594702 0.38254365 0.51074666 0.43003142 0.0041158386 0.43745488 0.03704724 0.37612337 0.6849458 0.47501814 0.35676974 0.21821168 0.35034993 0.33201283 0.6191933 0.71513796 0.72697055 0.5544584 0.5591152 0.57118887 0.45046678 0.42586625 0.5533418 0.65501374 0.5947546 0.6138444 0.032459997 0.08464725 0.032419384 -0.10072167 0.07630278 0.12863083 -0.035958607 -0.1672472 -0.10344805 0.42105675 0.3260557 0.50328946 0.62719405 0.39611948 0.39862496 0.4825475 0.40120068 0.5142329 0.64903545 0.7131427 0.722884 0.39099294 0.42258856 0.52529734 0.3914424 0.5246606 0.7520207 0.76802534 0.3469712 0.347552 0.40855432 0.25191045 0.38269395 0.7880275 0.20618325 0.34572566 0.23561135 0.3459186 0.7922878 0.7595364 0.14692783 0.2088143 0.2170523 0.29224104 0.46576995 0.77703214 0.7627374 0.25799006 0.17611441 0.36495313 0.44644585 0.5732706 0.7042296 0.7497275 0.35984898 0.3414905 0.16972739 0.49108055 0.5358569 0.60700214 0.36899093 0.11937407 0.36396337 0.121259764 0.09856127 0.12098174 0.27762273 0.12449245 0.21139956 0.24261768 0.02910902 0.030278735 0.109123975 0.2430034 0.2762008 0.24922317 -0.10769193 0.25384977 0.20716617 0.17063642 -0.32989252 0.13387696 -0.15675697 -0.3671015 -0.34703696 0.7120929 0.68224704 0.37866047 0.26193455 0.70599306 0.7121862 0.6899178 0.69170576 0.06591986 -0.055994883 0.5907273 0.6093894 0.07167323 0.03276117 -0.06942689 0.16907653 0.53620005 0.57045174 0.5523205 0.5285987 0.14526755 0.4857903 0.42693782 0.40028483 0.17231517 -0.03334924 -0.036735788 0.36153346 0.11615484 -0.0032152347 -0.09433444 -0.036576107 0.28183672 0.4037165 0.46564704 0.011295843 0.037533525 0.1910524 0.07370493 0.46892893 0.51496476 0.4894358 -0.43954378 -0.10918476 -0.006729007 0.26054263 0.19968653 0.06394394 0.5059958 0.5148731 0.55591595 -0.31229013 0.2561307 0.25341868 0.30607277 0.31234893 -0.17520137 0.434897 0.44609666 0.35066038 0.33788213 0.21482192 0.36036545 0.41872114 -0.2019046 0.36714375 0.063698635 0.32239437 0.323205 0.11492534 0.18913975 -0.17874773 0.123443365 0.18177786 0.24109495 0.28396857 0.3100621 0.2947144 0.25956857 0.28549778 -0.05965454 0.22039041 0.32573295 0.24577257 0.394518 0.032221794 0.33150727 0.41316277 0.57807255 0.45555544 0.45464283 0.16460593 0.27757084 0.4973033 0.39417392 0.27968192 0.31200734 0.49496856 0.48602968 0.54822797 0.611622 0.576562 0.53686136 0.57384515 0.56732774 0.32907724 0.32090956 0.27784157 0.1143556 0.02422119 0.063925564 -0.033303026 0.033654273 -0.111866295 -0.07660696 0.01355698 -0.0354591 0.51034695 0.42502686 0.25055003 -0.026649611 -0.04977739 0.46557617 0.45923132 0.5376863 0.50920373 0.42973435 -0.09682912 0.33415234 0.47131172 0.46615884 0.466812 0.54573333 0.63583076 0.53203356 0.48920316 0.33182508 0.38576236 0.45373037 0.6575192 0.6792929 0.49991125 0.11029623 0.2521792 0.26122028 0.7010493 0.7064048 0.4164068 -0.12920669 0.13641018 0.20994505 0.21649395 0.7103392 0.32039016 -0.25702977 -0.020349078 0.099552274 0.14418669 0.7067597 0.7307875 0.11613423 0.104155175 0.112073615 0.7072736 -0.09881823 0.0131225325 -0.070970386 0.19839141 0.3593838 0.6602239 0.69976014 0.054322343 -0.19150645 0.0705115 0.010876805 0.038385846 0.3968954 0.4866125 0.5475857 0.58716714 0.14213246 0.055078313 0.047645815 0.083176754 0.23954318 0.16300385 0.08770227 0.1533047 0.23076478 0.23484448 0.18787736 0.15264013 0.15738559 0.13929543 0.03153491 0.16323301 0.15274517 0.09222795 -0.08864396 0.15759985 0.7117537 0.70523936 0.15956205 0.6976656 0.7082678 0.13020393 0.6624961 0.1030584 0.15390736 0.6013062 0.5668665 -0.028038688 0.008806407 0.50802994 0.5576503 0.45244864 0.09017483 -0.2838419 0.37937555 0.3293416 0.063585185 -0.14863005 -0.13454267 -0.12299886 -0.093800195 0.35567266 0.26308256 0.48967493 -0.099997655 -0.25290835 -0.22977066 -0.15449269 0.3066672 0.47263482 0.5936718 -0.28962785 -0.20323882 0.57828915 -0.031281993 0.09389571 0.15758888 0.5299202 -0.29154375 0.21515629 0.42976394 0.28554317 -0.40076637 -0.2899158 0.1279274 0.27872708 0.30953142 0.3353923 0.33534974 -0.34470806 0.304326 0.3809592 0.27403218 0.19191922 -0.40002406 0.30729347 0.3060509 0.23367274 0.01695708 0.3432834 -0.13082944 -0.27318442 0.40438047 0.020696275 0.058579057 0.35734153 0.37099662 0.4000302 0.43295422 0.4229344 0.08854888 0.21713847 0.18527454 0.16007724 0.48292243 0.48626867 0.44802663 0.22164637 0.24957174 0.107022464 0.2591138 0.47777152 0.50130296 0.49454322 0.29143077 0.49735978 0.45737618 0.3796972 0.4322942 0.4061703 0.46868688 0.48622632 0.5091092 0.53783673 0.51903224 0.37019974 0.39866173 0.25715372 0.23471127 0.18481132 0.34238112 0.37971255 0.24845874 0.23072447 0.16772613 0.10616689 0.16832428 0.28668475 0.31550783 0.31221125 0.33019787 0.37839884 0.41755655 0.4072179 0.3151553 0.035731733 0.050778672 0.16667329 0.22680426 0.22077525 0.1781043 0.14738728 0.18225232 0.26322603 0.28131288 0.29327843 0.30474123 0.34025624 0.33664876 0.3449357 0.22283055 0.16357914 0.03601309 0.0633752 0.17200385 0.20539829 0.26800227 0.20759515 0.2611353 0.2757734 0.27550602 0.35782033 0.41224307 0.055324007 -0.010766409 0.21458887 0.24106938 0.36100125 0.30868033 0.26263678 0.32569304 0.3481466 0.56779516 0.5347061 0.4874807 0.29562354 -0.16530396 0.056270815 0.24452785 0.29572025 0.32601202 0.33022475 0.42329746 0.40724036 0.5877702 0.54599106 0.21171416 0.24494942 0.15250236 0.2687078 0.6073179 0.21284625 0.58838344 0.53711116 -0.14733338 0.07231338 0.13224179 0.5747636 0.38759637 -0.55561405 -0.6527395 0.0071176887 0.046635088 0.09871024 0.083524995 0.06762321 0.09172807 0.57448924 0.25196415 0.25249073 -0.45902735 -0.13325293 0.023433663 0.03822347 0.032979585 0.047309056 0.61044174 -0.104353234 -0.17310254 -0.10709915 -0.19436483 0.04553736 0.6068133 -0.09216268 -0.009361364 -0.04770042 0.08104873 0.52003616 0.5909491 -0.24371925 0.012663975 0.033902846 0.15821633 0.53523624 0.58064795 0.34923214 -0.11848641 0.33720565 0.46610713 0.48972666 0.5272817 0.39955395 -0.017984904 0.58747995 0.13267654 0.073986426 0.5073235 0.121369556 0.26044485 0.14464748 0.13456132 0.3074926 0.1633197 0.13722637 0.70220345 0.6153257 0.1330144 0.6797824 0.6704221 0.12830357 0.65292454 0.631217 0.11583066 0.60393524 0.49640524 -0.049239077 0.024633564 0.4273352 0.46841085 0.46755555 0.41465354 -0.13380879 -0.19080034 -0.24467075 0.4550434 0.40303913 0.29342946 0.31171846 0.5560905 0.6059868 -0.08680991 0.6365124 0.64319146 0.5737391 0.6150079 -0.25258946 0.5084559 0.57140553 -0.25032082 -0.11662155 -0.057987675 0.41791075 0.103569776 -0.1817104 -0.031077787 0.086401895 0.2952706 0.33601815 0.26993713 0.2875016 0.2846419 0.22204436 0.272459 0.29870635 0.31628087 0.15789627 0.04982262 -0.107772835 0.39718 0.3573637 0.2944823 0.16696855 -0.058908433 0.2740802 0.26154634 0.33989328 0.42273965 0.45770893 0.44723746 0.768927 0.38936323 0.33174723 0.022307083 0.30944785 0.26821196 0.79832757 0.7611329 0.68350893 0.38149777 0.38599974 -0.07343067 -0.016512245 0.3629406 0.37297976 0.76193213 0.30986297 0.38714367 0.451853 0.22019108 0.15903309 0.2478704 0.36767304 0.39718443 0.4501893 0.49454793 0.35039675 0.1898931 0.46808958 0.49062955 0.47925174 0.40560776 0.31300384 0.24006516 0.4234572 0.4929809 0.48001146 0.39740324 0.34726298 0.3076657 0.4268756 0.47502384 0.48442522 0.3930321 0.24233264 0.20586656 0.2630453 0.22119439 0.16861203 0.094196014 0.26338693 0.39176396 0.40961438 0.40481162 0.21945295 0.26800054 0.22221112 0.16746327 0.39123118 0.36692744 0.39009625 0.46253288 0.19416362 0.35370344 0.3944763 0.47772592 0.40197408 0.46310258 0.45814273 0.07361274 0.04655573 0.12455824 0.39888537 0.47291297 0.4957266 0.31987453 0.42399436 0.42253578 0.4312297 0.24451053 0.3409917 0.5909191 0.5644257 0.26374084 0.19008075 0.15725052 0.32041523 0.6246891 0.16618685 0.039978497 0.30792826 0.3183971 0.6193446 -0.56514066 0.040440865 0.09165546 0.12956959 0.53236145 -0.48648235 -0.13228923 0.042999424 0.06298779 0.09247399 0.25255463 0.45435596 -0.011023704 0.2802