# vtk DataFile Version 2.0
Really cool data
ASCII
DATASET POLYDATA
POINTS 12523 float
3.3875778 -23.754387 44.46889
3.163617 -23.126572 43.753376
3.1081216 -23.19725 44.464413
3.2061417 -23.055023 44.909508
3.2739406 -22.580381 43.241333
3.034583 -22.634779 43.660046
2.9797115 -22.563692 44.33665
3.2149882 -22.254623 45.099483
3.1460419 -21.800564 43.717613
3.1575806 -21.682182 44.51857
3.176939 -21.810606 44.916763
3.433461 -20.795254 43.797016
3.337575 -21.103477 44.101566
4.2190366 -24.711891 44.932392
4.2416096 -24.70925 45.282085
3.8275008 -23.753855 43.685295
3.7655005 -24.120262 44.50998
3.968954 -24.332947 45.469345
4.1767507 -24.286673 45.945625
3.8316135 -23.077038 43.089203
3.451896 -23.27463 43.46416
3.527718 -23.42393 45.464733
3.8915284 -23.650665 45.983784
3.5885105 -22.669632 43.07368
4.186099 -22.494051 46.26083
3.7851136 -21.587877 42.943825
3.4657047 -21.493084 43.35139
3.523823 -21.482477 45.170654
3.9700599 -20.552515 43.053295
3.6763372 -20.524044 43.491623
3.6838324 -20.313122 44.384914
3.85116 -20.737255 45.126747
3.9910915 -19.967764 43.668777
3.973712 -19.981106 44.210842
4.6255794 -24.782328 44.72029
4.6441507 -24.915802 45.406223
4.7260313 -24.802006 45.896103
4.2249355 -23.6874 43.32341
4.46942 -24.206818 43.912506
4.427983 -24.57453 44.344917
4.7103753 -24.431568 46.28303
4.8851414 -23.98805 46.722694
4.1506176 -23.199415 43.0518
4.5085707 -23.36115 46.555786
4.712312 -23.36282 46.7613
4.5480995 -22.481127 42.799873
4.627802 -21.452187 42.69019
4.369201 -21.359606 46.107162
5.193602 -21.356546 46.82693
4.6231294 -20.496803 42.750908
4.4574213 -20.619114 45.808254
4.6196685 -19.927858 43.091827
4.6791544 -19.644144 43.448597
4.4902716 -19.640526 44.46277
4.8428855 -19.659828 45.111073
4.990046 -19.467466 43.776608
4.789194 -19.395409 44.264763
5.490143 -24.924557 44.799664
5.2437224 -25.08047 45.454933
5.282485 -24.772514 46.181236
5.464841 -24.178131 43.94135
5.3785357 -24.641817 46.515224
5.5624113 -24.031656 46.888287
5.187398 -23.156765 43.083874
5.6199026 -23.214956 47.279743
5.186144 -22.295185 42.835384
5.5047193 -22.583353 47.1733
6.018796 -22.011375 47.499413
5.6295166 -20.523897 42.79833
5.7718844 -20.357386 46.547062
5.932288 -21.07801 47.059303
5.3347697 -19.92815 43.07639
5.3616967 -19.71943 43.332188
5.7153473 -19.29137 43.81378
5.796993 -19.069592 44.596043
5.6315436 -19.159319 44.982765
5.998247 -24.851763 44.85569
6.777772 -24.972574 45.77753
6.2179003 -24.615509 46.71932
6.7419453 -24.66406 46.93672
6.2536225 -23.874897 43.93024
5.975561 -24.496185 44.317177
6.5113125 -23.158836 47.58802
6.978506 -21.429878 47.790314
6.0659585 -20.53914 42.931633
6.406543 -20.940655 47.385735
7.4826174 -20.529583 50.928825
7.444133 -20.52292 51.059536
6.696752 -19.973778 47.10433
6.5274167 -19.297846 43.855904
6.6514053 -19.021818 44.361088
6.7726064 -18.95734 45.30411
8.317371 -26.378029 45.899517
8.07538 -24.71715 44.71652
7.50242 -24.998892 45.78895
7.9172797 -25.394556 46.52047
7.8576894 -25.084597 47.37964
8.135427 -24.335644 48.17196
7.266449 -23.122494 48.00676
7.997918 -21.755144 50.835876
7.9438977 -21.620811 51.126915
8.038665 -21.921473 43.117268
8.082774 -21.10645 49.384216
7.551882 -21.02106 50.736965
7.789534 -21.251204 51.346775
8.018578 -21.18973 51.839252
7.2457356 -20.665457 43.255318
7.869339 -20.618078 48.283596
7.6361847 -20.631374 50.417225
7.598833 -20.632566 51.319405
8.012984 -20.446743 52.042736
7.6494827 -19.486004 43.851875
7.728145 -19.893831 50.91566
8.042606 -19.642054 51.328728
8.1140785 -19.706099 51.92832
7.4059625 -19.025055 44.599846
7.09372 -18.891155 45.19889
8.229742 -19.085508 51.18735
9.117343 -26.91212 45.11965
8.889348 -26.926918 45.561954
8.98567 -27.008133 46.38606
9.039086 -26.761667 47.022175
9.4572525 -26.033447 39.47235
9.232767 -25.750435 41.024178
8.87244 -25.979 44.945614
8.485762 -26.645191 46.26444
8.788465 -26.344938 47.141857
9.015161 -25.951479 47.8425
9.203575 -25.403332 39.73161
9.075869 -25.393076 40.295876
8.872131 -25.247631 41.346394
9.293918 -25.475647 42.299316
9.1706915 -25.350965 43.83317
8.50459 -25.401014 44.95782
8.349688 -24.852808 48.01365
9.429976 -24.07806 39.067474
9.162325 -24.729477 39.380486
8.715109 -24.31116 41.600426
8.9276085 -24.337626 43.40538
9.168497 -24.434763 49.17212
9.232167 -23.758692 39.693768
9.016279 -22.602676 42.40357
8.398175 -21.786726 51.405807
8.746943 -21.700888 51.731953
8.620626 -21.265568 52.152287
9.019785 -20.769003 43.0533
8.5011835 -20.362507 43.4591
8.5353985 -20.351671 52.46906
9.07791 -20.405066 52.76971
8.960376 -19.98203 43.325596
8.57736 -19.572311 52.40767
8.745804 -19.739983 52.64016
8.442423 -19.01173 45.00566
8.735433 -18.54516 45.62971
9.126004 -18.536077 48.69552
8.739352 -18.697107 49.625813
8.471409 -18.628086 50.733192
8.595354 -18.591684 51.55893
8.887256 -18.769022 52.183758
9.062652 -18.021708 45.692284
9.148938 -17.911505 46.329285
9.155139 -18.286993 47.550957
9.340382 -18.207207 48.694305
9.109176 -18.120659 50.769436
9.006903 -18.213867 51.52782
9.041791 -18.270359 51.846542
10.312714 -26.948898 37.251736
10.241899 -27.235508 38.357273
10.229993 -27.07496 39.343605
9.593315 -27.330154 45.708023
9.683181 -27.321898 46.44695
9.731897 -27.07643 47.011093
10.224725 -26.197498 37.002605
9.701339 -26.315525 38.62101
9.822766 -26.565245 39.48441
9.592131 -26.038223 40.534206
9.55617 -25.969988 41.396713
10.013365 -26.533102 43.96177
9.566837 -26.304607 44.346107
9.532751 -26.050198 48.219032
10.278635 -25.703356 36.780525
9.923793 -25.412746 37.741505
9.549778 -25.20905 38.36652
9.353001 -25.546783 42.023193
9.696478 -25.190992 49.25649
9.938308 -24.48649 37.863983
9.617817 -24.719103 38.39039
10.004753 -24.581644 50.118847
10.087345 -23.753345 37.885967
9.711315 -23.67692 38.558537
9.477468 -23.27976 39.77257
9.9379835 -23.065279 50.32901
10.029331 -22.852985 38.56968
9.820218 -22.827782 39.540283
9.913428 -22.31036 51.27052
9.418802 -21.666235 52.142326
10.307184 -22.091434 39.143356
9.415471 -21.342709 52.342575
9.720808 -20.962326 52.764988
10.089989 -20.764118 42.083824
9.758215 -20.834923 42.429142
9.413992 -20.323923 52.923714
9.4350395 -20.189968 42.996105
9.377956 -19.652925 43.701794
9.581823 -19.725796 52.942764
9.471781 -18.742327 44.69612
9.4522705 -18.687206 52.467945
9.519794 -18.102242 45.060284
9.807331 -17.59867 45.5124
9.576223 -17.52666 46.331142
9.61342 -17.648628 47.1462
10.089678 -17.582752 49.6991
9.613884 -17.933588 50.23803
9.52287 -17.937403 51.528095
9.523699 -18.23539 52.02748
10.130297 -17.23696 45.879734
10.065161 -17.072483 46.748913
10.13456 -17.070486 47.440346
11.183682 -28.244223 36.745586
10.916165 -28.136667 37.376633
11.135961 -28.146814 38.553036
11.05235 -27.563791 45.880753
10.966224 -27.073908 36.16305
10.82346 -27.445211 36.594894
10.595661 -27.670128 38.100487
10.463623 -27.204401 39.454002
11.013211 -27.16467 40.49809
10.758118 -27.053616 43.457657
10.207216 -27.206903 44.927326
10.544809 -27.457151 46.446175
10.4702425 -27.225817 46.975197
10.956115 -26.34631 36.08664
10.4957905 -26.113602 36.591034
11.155617 -26.557816 41.30824
10.482811 -26.225454 42.26803
10.650602 -26.299086 48.211906
10.725882 -25.838297 49.407753
10.82683 -25.493256 36.181767
10.561064 -25.62842 36.419014
10.36064 -25.628775 49.430855
10.876167 -24.997839 50.361237
11.060265 -25.093584 36.170143
10.564579 -24.90285 36.708786
10.496948 -24.594255 50.436493
10.971312 -24.345144 50.747574
10.682982 -24.183348 37.043926
10.696512 -23.524652 37.575886
11.137979 -23.605503 51.189312
10.891896 -22.28733 37.716206
10.167331 -21.875074 51.788963
11.02408 -21.51965 37.965668
10.806987 -21.374361 38.579548
10.545464 -21.689323 39.57267
11.277188 -21.021835 38.08054
11.047728 -21.026829 38.62968
11.020147 -20.991398 39.196297
10.7281475 -20.593435 42.091236
10.895833 -20.398346 42.33608
10.242931 -20.197153 53.091503
10.490876 -20.19198 42.708637
10.262721 -19.635582 43.51704
10.745528 -19.523956 52.86784
10.348929 -18.577417 52.36387
10.592233 -19.000446 52.64054
10.610004 -17.738613 45.19719
10.161583 -17.865278 50.3758
10.705077 -17.838951 51.22598
10.902938 -17.154074 45.68419
10.785438 -16.553516 46.970383
10.430414 -16.852083 47.46733
10.911078 -17.304451 49.63246
11.058486 -16.43343 47.356506
11.639884 -28.734211 36.844517
11.827304 -28.918928 37.40682
11.701377 -28.730938 38.154774
12.43618 -28.921133 40.874977
12.387993 -29.093603 41.595066
12.30974 -28.836992 42.238575
12.371109 -28.710789 44.39586
11.79492 -28.09723 35.829483
11.460229 -28.424593 36.5032
11.8455715 -28.572172 38.61252
11.8186655 -27.931099 40.123722
11.985549 -28.292217 41.400337
12.146808 -28.478933 42.496185
12.079669 -28.302677 43.46772
12.211446 -28.339027 45.704346
12.250211 -27.711126 46.29838
11.918848 -27.122868 35.259384
11.768866 -27.491283 35.401947
11.968016 -27.732735 42.62077
11.284419 -27.445406 45.468987
11.532596 -27.259918 46.89908
12.01462 -26.608353 35.18084
11.451725 -26.680338 35.64992
11.696492 -26.470562 48.482788
11.49761 -26.050762 49.40001
11.46193 -25.787275 35.70144
11.558076 -25.377655 50.27593
11.52248 -24.901274 50.660885
11.5997095 -24.949142 36.01014
11.796384 -24.432182 51.00684
11.49567 -23.241503 37.316166
11.509449 -23.464392 51.40425
11.83405 -23.242239 51.681572
11.777555 -22.493254 37.245712
11.4781275 -22.348896 37.58048
11.555158 -22.128298 52.215378
11.910429 -21.552261 37.233814
11.425718 -21.712824 37.479
11.822068 -20.80047 37.798454
11.506942 -20.654577 38.52412
11.664435 -20.651379 39.488956
11.364847 -20.697018 41.919647
12.11058 -20.39293 38.106544
11.936868 -20.396862 38.535698
11.99723 -20.368902 39.23435
11.441051 -20.245821 42.685665
10.915589 -19.281645 52.70619
11.34491 -18.571829 44.76617
11.286242 -18.830936 52.276615
11.720719 -17.866186 45.2821
11.7923355 -17.504642 50.79679
10.975435 -18.236052 51.853455
11.474663 -16.812454 46.1006
11.322862 -16.589764 46.289062
11.440341 -16.4089 46.874287
11.842077 -16.23942 48.396072
13.4665165 -38.578213 40.110306
13.440585 -38.44769 40.50487
13.436132 -38.45424 41.006123
[...]
POINT_DATA 12523
SCALARS features_00 float 1
LOOKUP_TABLE default
0.77004284 0.7907808 0.79241455 0.77999043 0.7961295 0.80420506 0.7957301 0.74093163 0.7900772 0.74543333 0.7267847 0.75197554 0.74240565 0.7233069 0.71020603 0.7495555 0.754815 0.7098592 0.6633641 0.749629 0.7727314 0.73594475 0.6720499 0.7769507 0.57802 0.8001952 0.7931787 0.6769664 0.77377117 0.7619721 0.71031344 0.66457176 0.7294953 0.70868397 0.7016398 0.6797103 0.64340633 0.7159314 0.7085341 0.7139895 0.6089625 0.5498277 0.72262144 0.55781347 0.52495635 0.72577393 0.78918916 0.5150943 0.34501728 0.7464645 0.57164794 0.70483476 0.673892 0.6543139 0.6121713 0.62432253 0.62038434 0.6339203 0.63426757 0.5838216 0.64338446 0.5485416 0.4857271 0.6548008 0.41769293 0.6974189 0.37760937 0.2765756 0.59275633 0.3149294 0.2600185 0.61845624 0.60430855 0.5345167 0.48721856 0.49055326 0.55904555 0.36067528 0.44410527 0.33361748 0.542001 0.5737819 0.32790482 0.14024554 0.49908257 0.19300613 0.66962683 0.68470687 0.17680211 0.42403093 0.38834554 0.3125132 0.37451938 0.022793196 0.2056315 0.27464136 0.22797084 0.20998563 0.24103379 0.6110544 0.6519964 0.029972449 0.3810778 0.64077806 0.6878905 0.697098 0.2372221 -0.035645306 0.5869884 0.7024808 0.7362813 0.21538766 0.6617983 0.6988911 0.7310512 0.24017842 0.25486246 0.6397828 0.36609206 0.41170686 0.4477453 0.40825853 0.34874067 0.21956359 0.23219445 0.4186039 0.36874515 0.29417062 0.38121563 0.33219585 0.20614012 0.07278111 -0.025599059 0.15565555 0.2294029 0.35986444 0.4046365 0.25079048 -0.031450287 0.23819745 0.3486318 0.050150514 0.6006958 0.57035196 0.65226066 0.1236783 0.11961782 0.7286582 0.7087616 0.091776766 0.7363775 0.7389487 0.09558099 0.19342077 0.25180343 0.34394944 0.52261764 0.62063134 0.68807256 0.27629054 0.2894085 0.2070748 0.24550249 0.46478266 0.5687864 0.60808957 0.44881117 0.35420442 0.22478235 0.43254825 0.41788653 0.38088888 0.40400773 0.39420283 0.27898088 0.23358127 0.16215588 0.10184142 0.1839307 0.29645514 0.37709445 0.37659866 0.38612056 0.11454471 0.30241358 0.3234102 0.36030653 0.29156008 0.3012909 0.33016616 0.30643645 0.16118643 0.34532714 0.32476866 0.25259846 0.49909312 0.403203 0.56156695 0.6019583 0.1477246 0.14791435 0.7099756 0.112220675 0.09487469 0.73555493 0.18674655 0.68917555 0.2667926 0.33496764 0.32083333 0.2582438 0.27873537 0.37589404 0.53225285 0.6060692 0.3542164 0.32031825 0.25968647 0.42868558 0.41952264 0.24271734 0.2081792 0.42385972 0.4458968 0.36212605 0.18851182 0.037931677 -0.09170551 0.33998713 0.30033854 0.28687987 0.39854115 0.393215 -0.010243461 -0.05628296 0.28995457 0.35034397 0.36529532 0.37406176 0.34556013 0.33779407 0.33742106 0.33373204 0.30406734 0.2987092 0.2761968 0.27022803 0.24751267 0.37357676 0.3104163 0.4499117 0.46025 0.39747292 0.46768212 0.46677727 0.445534 0.15267435 0.1431688 0.67379296 0.13215807 0.1124597 0.60778177 0.6144683 0.63083804 0.3733781 0.37952322 0.4564299 0.38688427 0.31013572 0.26443863 0.21565087 0.27053553 0.3875454 0.3478424 0.2755748 0.19242343 0.20570645 0.16159254 0.07618584 0.42835948 0.4143607 0.19041815 0.025084881 0.084140815 0.11105341 0.053517327 0.07773872 0.06020382 0.4340933 0.43809977 0.0095722955 0.15980634 0.08727394 0.40914205 0.4094953 0.22531086 0.32833058 0.3679073 0.33771306 0.3323845 0.30476305 0.31928688 0.24405108 0.2691821 0.29655814 0.3108272 0.35909474 0.3126907 0.43044248 0.4218651 0.47120833 0.4643709 0.40521967 0.09703821 0.47236496 0.46112806 0.42251635 0.08186255 0.5795858 0.25719768 0.50695324 0.32630473 0.23550123 0.5212697 0.34527335 0.32854572 0.29466853 0.2668624 0.73518157 0.72839475 0.71178186 0.7220487 0.7102455 0.4135551 0.3704138 0.35670102 0.2604459 0.30020326 0.32076904 0.27041215 0.33285338 0.46066135 0.39502093 0.36857772 0.33389914 0.20798075 0.20824245 0.22041024 0.20721245 0.15557897 0.20925453 0.2676504 0.27873066 0.48498327 0.43590075 0.19416946 0.26370436 0.5139799 0.48763537 0.4180228 0.28196827 0.30443522 0.3537861 0.2976641 0.27538165 0.20306802 0.31608164 0.35849616 0.34649378 0.38254753 0.42089254 0.44111636 0.50350773 0.50124186 -0.02298443 -0.106437825 -0.18317083 0.40272826 0.8207702 0.82117045 0.4972191 0.4510148 0.38460058 -0.04610784 0.8161404 0.82276297 0.12185219 0.78523564 0.78545415 0.8059966 0.17613845 0.2991432 0.3554904 0.41209954 0.4172549 0.35968328 0.5237197 0.5285139 0.49060398 0.45402116 0.43572932 0.54139477 0.53775805 0.72310734 0.694142 0.7411734 0.73685575 0.68732905 0.5870507 0.7229395 0.7342143 0.73524237 0.68154204 0.57750595 0.45898876 0.7074665 0.71622777 0.70715034 0.68446124 0.591604 0.7095031 0.69784856 0.6481696 0.538998 0.5021127 0.46007332 0.3306666 0.35351223 0.3295472 0.35101438 0.26772082 0.23365837 0.33369064 0.4033801 0.43918252 0.6337171 0.5267127 0.44385195 0.36544985 0.6325284 0.5309496 0.34220284 0.35035965 0.5622744 0.15067966 0.48430902 0.40785468 0.09928954 0.36179572 0.16889918 0.18964383 0.25428784 0.09539352 0.23268405 0.4219017 0.37902194 0.29397497 0.5237418 0.38738662 0.7611166 0.7768052 0.555235 0.56982315 -0.15564421 -0.21162313 0.4016673 0.8074937 0.78467745 0.5842943 0.55689025 0.49735665 0.3840515 0.23092154 0.14757589 -0.2339113 0.29096618 0.87670696 0.8051299 0.79423696 0.61618435 0.7579317 0.80091584 0.7962595 0.5162034 0.6156032 0.7151663 0.7422504 0.39061666 0.24953258 0.5436727 0.52302516 0.41132593 0.34967417 0.59355783 0.57960373 0.55605114 0.53367627 0.49609387 0.45438793 0.6135709 0.58164114 0.55964655 0.7235331 0.6881624 0.5716369 0.4425034 0.73116547 0.40342683 0.32239836 0.6901614 0.3327299 0.24928272 0.6649637 0.39469716 0.2820941 0.6222608 0.6951325 0.69025385 0.44483888 0.294051 0.65112174 0.670758 0.50482273 0.45114577 0.37071148 0.43177295 0.7236344 0.5847044 0.44241944 0.50772774 0.67975557 0.60714597 0.5881306 0.5324949 0.38439795 0.3846186 0.36247233 0.2822013 0.29643667 0.3602777 0.5252546 0.60613596 0.7208012 0.66519064 0.46063355 0.6633357 0.6641258 0.3232637 0.57950556 0.57049716 0.2525634 0.23987153 0.44501263 -0.05947953 0.2455426 0.021340843 0.023962894 0.05648309 0.17670816 0.2699556 0.537781 0.33138323 0.33321646 0.5978517 0.72152877 0.71500945 0.57722723 0.5879501 0.71428317 0.6494408 0.5918963 0.58758414 0.49752113 0.39538652 0.28326425 0.04864648 -0.11164076 0.35824087 0.7594685 -0.18472618 0.09394468 0.54634535 0.77657604 0.28380883 0.4336766 0.46025044 0.52839196 0.6367674 0.6876508 0.73473203 0.32211614 0.34007797 0.41648835 0.42213875 0.47147107 0.56589526 0.6264819 0.66622996 0.37774873 0.6915645 0.68346286 0.4748398 0.4283865 0.66442525 0.6252229 0.5742395 0.52215016 0.42781425 0.3915936 0.35132095 0.3458802 0.17416376 0.22254719 0.67396647 0.51553094 0.18830049 0.020004852 0.6093446 0.22892058 0.16365787 0.14876327 0.52203125 0.240898 0.21511286 0.54579115 0.23464619 0.5054933 0.22890091 0.19671503 0.09987759 0.45106715 0.5136977 0.558149 0.5227805 0.5496985 0.3722925 0.1724091 0.1357017 0.15657955 0.3458493 0.48341408 0.56571555 0.62733793 0.6470154 0.45725283 0.4081302 0.37023592 0.14118667 0.31500238 0.5036522 0.66226137 0.71045834 0.68123305 0.23249388 0.4418992 0.6848513 0.72063076 0.70481706 0.54762083 0.680251 0.5326939 0.69253373 0.6297541 0.56037366 0.48013696 0.3991524 0.22007465 0.29568136 0.2916733 0.2787089 0.20197332 0.2526953 0.51562524 0.7308625 0.6799938 0.5296771 0.38224787 0.6618395 0.7107601 0.2871676 0.6012375 0.5326719 0.24434827 0.46038294 0.52116835 -0.059287947 0.64511293 0.5632091 0.18272755 -0.13367493 -0.14346476 0.6574421 0.533605 0.25663748 -0.2053337 0.55406505 0.37926283 0.5091122 0.05409866 0.17424746 0.36852258 0.5190962 0.56013805 0.54843783 0.17945935 -0.10249016 -0.18147092 -0.37572786 -0.36360493 0.24901657 0.5605602 0.55023086 0.46240824 0.38017425 0.2714322 0.13171592 -0.06542308 -0.0580042 -0.031358138 0.70363474 0.47901845 0.23616947 0.48479623 0.57660997 0.6236278 0.35553536 0.36045888 0.42605567 0.44335508 0.7049186 0.37159538 0.33631313 0.73261225 0.7343651 0.56071347 0.46777272 0.41913474 0.7021153 0.6647487 0.6097797 0.5296756 0.6079861 0.5938764 0.5579835 0.56363916 0.5685419 0.5506499 0.48445976 0.48626375 0.45959592 0.4295053 0.52306676 0.54562545 0.5200028 0.4840734 0.39761525 0.39065307 0.3603761 0.2978808 0.5766232 0.50222343 0.49352193 0.4653638 0.5190029 0.48628744 0.3037939 0.27716562 0.26702935 0.26431605 0.6847393 0.67357254 0.64519906 0.50884295 0.37179863 0.11088574 0.15100132 0.77621305 0.7772316 0.71137774 0.60961694 -0.079374254 -0.07418101 -0.024022736 0.8067609 0.79856086 0.7366422 0.3187631 0.3259993 0.06985311 0.03199423 0.30350003 0.12902059 0.1496247 0.29698744 0.17179056 0.17421564 0.42726788 0.44046348 0.3662542 0.31178653 0.18804333 0.33090574 0.4320924 0.4919925 0.52356744 0.3626897 0.400883 0.34118176 0.07764782 0.5843547 0.58389485 0.38493788 0.2741192 0.3154379 0.08357545 0.6016818 0.55821633 0.17092751 0.1696329 0.6262717 0.1733743 0.17581978 0.22563688 0.37147692 0.44166347 0.5733559 0.60114646 0.23859158 0.602766 0.5461531 0.46621972 0.37423086 0.32833 0.16328204 0.20589238 0.24496023 0.20490362 0.42800748 0.6797421 0.59922516 0.50695777 0.3518807 0.083762914 0.024532303 0.4058769 0.6426512 -0.026779879 0.2304764 0.015909433 0.21740289 0.08033024 0.5792463 0.5422357 -0.077003404 0.6855298 -0.24315237 -0.19569266 0.7654653 0.7526345 -0.2819334 0.74744844 0.696575 0.6166945 0.13254887 -0.23947108 0.2781362 -0.32262355 -0.113641664 -0.041865103 -0.07820001 0.47295517 0.4021568 0.21020064 0.218819 0.12011422 0.18231705 0.50462 0.47724396 -0.013279654 0.21375245 -0.06435919 -0.09215757 0.3468052 0.29349202 0.6180541 0.32565558 0.29395384 0.1436013 0.18353939 0.30705 0.13511372 0.27767426 0.6950016 0.32563975 0.15188143 0.7375306 0.7257565 0.62726974 0.5621205 0.4289416 0.37447554 0.7042396 0.83450645 0.88650227 0.8487495 0.818727 0.84105587 0.94885516 0.9358072 0.8566052 0.8402531 0.9405232 0.9701406 0.91178644 0.87812805 0.9268603 0.59976816 0.62201375 0.61069393 0.5577111 0.47383696 0.48878604 0.47344774 0.4407751 0.39824063 0.3348388 0.54480624 0.5604311 0.57451004 0.47159088 0.40540594 0.3332234 0.4975261 0.4630797 0.43932262 0.41913748 0.36476722 0.2873759 0.25744474 0.48731554 0.36065555 0.29016733 0.67952025 0.5485556 0.50435686 0.37885284 0.306672 0.2565019 0.4444828 0.17706347 0.116530746 0.7368506 0.7047627 0.70123184 0.42217857 0.34274897 0.32428032 0.07198588 0.12932195 0.06878802 0.7609296 0.77358943 0.5470188 0.47540078 0.2627517 0.18307401 0.033722106 0.0513824 0.78211033 0.8094436 0.79873693 0.7324548 0.59326 0.333116 -0.013442218 0.794209 0.7777021 0.7069082 0.5326776 0.5170388 -0.07055648 0.56521016 0.4900068 0.0158799 0.4169148 0.5589092 0.3947985 0.237521 0.2344886 0.47181857 0.50231475 0.27055985 0.24880055 0.5051428 0.31457117 0.34214202 0.030819125 0.47843784 0.39976335 0.015906796 0.073191844 0.42101467 0.055025637 0.15031627 0.4524473 0.5034373 0.1252422 0.102257624 0.108226135 0.22065091 0.39638826 0.5300164 0.5640366 0.19325182 0.2126427 -0.10608749 0.19723691 0.40045744 0.5174331 0.60110855 0.51445395 0.35542592 0.22759655 -0.016272884 0.06897685 0.15429145 0.15898192 0.1118722 -0.32503253 -0.25574648 0.40604186 0.48458064 0.51998854 -0.18829712 -0.11676946 -0.10555894 0.117699735 -0.102285996 0.15310664 0.20117193 0.16692425 0.38982815 -0.07715662 0.3050446 0.34284377 0.3221923 0.7286403 0.65806985 -0.09640053 0.24375042 0.2780493 0.26382527 0.77778256 0.0016561374 0.13987032 0.25287792 0.32900253 0.33558214 0.7774296 0.7556466 0.6998978 0.52442694 0.38466343 -0.03835214 -0.008877017 -0.16060387 -0.12627444 0.0550837 0.19611411 0.2690936 0.31597084 0.3377607 0.7180263 0.66919595 0.5664897 0.28461134 0.03906439 0.004141666 -0.21594873 0.003647752 0.17499942 0.31121367 0.4146605 0.3146919 0.17870978 -0.028000148 0.02422538 0.013899483 0.34478125 0.4214065 -0.12656595 0.21656397 0.34381765 0.40556723 -0.10501583 -0.15038359 0.16202737 0.24006894 -0.10142441 0.40081078 0.166449 -0.0074024647 -0.0011950657 0.6497238 0.665607 0.57205135 0.3430791 0.24686496 -0.0003078645 0.1206984 0.111506805 0.07731382 0.06293773 0.69522953 0.56300735 0.5026517 0.7912034 0.7731845 0.7036855 0.7704035 0.8348215 0.7915546 0.72938776 0.6804534 0.7464242 0.8094394 0.74253035 0.70697385 0.7816745 0.8579848 0.80561316 0.8133688 0.8285078 0.8485163 0.8240573 0.4504627 0.42243987 0.3448476 0.15834285 0.5762322 0.59449065 0.5627898 0.54140276 0.454394 0.5082266 0.516865 0.50656986 0.27158344 0.18204027 0.12223174 0.12185907 0.52555615 0.53574395 0.34742016 0.5962258 0.20399119 0.115529746 0.16561338 0.73980755 0.70871913 0.10449418 -0.106111 0.12525344 0.19529389 0.75577044 0.15910253 -0.073930815 0.09832689 0.1963724 0.2270125 0.7513857 0.7581655 0.32642132 0.24898896 0.22123477 0.27017727 0.2105671 0.22457336 0.77451193 0.7657138 0.6146487 0.47641906 0.30847102 0.45733112 0.121407166 0.17032447 0.7600087 0.69797575 0.6145983 0.5893116 -0.05874193 0.6455659 0.61444235 -0.01259318 -0.051267132 0.24779117 0.41291082 0.4918732 0.29232407 0.06445739 0.12933184 0.38771513 0.08022392 0.30993548 0.07500425 -0.02241738 0.3381104 0.015452586 0.4197665 0.44574833 -0.053296 -0.043056495 0.50091684 0.534639 -0.061034437 0.5731325 0.56762314 -0.11747266 -0.049585365 0.6128191 0.6030134 0.06379116 0.109844886 -0.08039783 -0.47417676 -0.4130506 -0.20661634 0.061834738 0.2770556 0.32721588 0.53063756 0.60110396 -0.30091074 -0.23214957 -0.04894622 -0.4780345 -0.3879539 0.41836077 0.17049894 0.14849085 -0.044659957 0.05193334 0.18548031 0.34577394 0.24314748 0.18910241 0.09962891 0.35508996 0.50412506 0.31185645 0.35192564 0.3221537 0.30286703 0.24529904 0.31270933 0.7504054 0.21922696 0.23816743 0.3217708 0.36711657 0.36930874 0.8095869 0.19934024 0.35589242 0.4102928 0.44338432 0.7861293 0.7533342 0.20348261 -0.066178724 0.37011564 0.46085715 0.48721415 0.7270481 0.6491783 0.52272797 -0.05129292 -0.063111395 -0.061925188 -0.06293959 -0.051211365 0.44288278 0.4717642 -0.024378715 0.03255052 0.44110143 0.46149427 0.4572755 0.05512341 0.010865703 0.4244089 0.019247778 0.29564393 0.359173 0.15103741 -0.220672 0.15379916 -0.010891646 -0.24498007 -0.2232454 -0.094356894 0.18160732 0.44215542 0.17899805 0.0015813857 0.107167855 0.12736318 0.19298209 0.1693275 0.14165056 0.15944129 0.16754185 0.18819547 0.30767685 0.57871825 0.6816586 0.6323213 0.58429813 0.58362603 0.6221622 0.6775123 0.57284415 0.6534079 0.4121882 0.4300613 0.41707504 0.58263594 0.63210356 0.29088086 0.40610057 0.48028117 0.49763095 0.6798207 0.72589576 0.72173667 0.7689494 0.29265124 0.32085228 0.37977785 0.4992231 0.54700017 0.69991124 0.28694308 0.29193062 0.25611648 0.24002382 0.4197948 0.48833406 0.4805382 -0.050053235 -0.034037232 -0.015024632 0.031552978 0.38347155 0.35728347 0.32500473 0.46917456 0.33951333 0.063644126 0.037521146 0.0324763 0.28573632 0.22901416 0.6228672 0.0012196628 0.2899232 0.7096602 0.22075917 0.2714039 0.31603616 0.76812553 0.27478963 0.31195164 0.7620664 0.7493627 0.20557773 0.27253008 0.73461485 0.6525844 0.5776211 0.45497018 0.31888485 0.18353847 0.16078365 0.26861364 0.63355994 0.54272467 -0.3736334 -0.54093367 0.17944464 0.6287465 0.10787103 0.58439875 0.51211846 0.34686923 -0.08747465 0.23242396 0.25064898 -0.07034325 -0.07751525 0.19380559 0.22132348 -0.04635142 0.26591802 0.35167602 0.41488737 -0.10650451 0.45326293 -0.076755665 -0.06307352 0.49542123 0.51474094 -0.0589102 0.5575039 -0.13701636 0.5815667 -0.2694655 -0.35106432 0.46485665 0.5906946 -0.21276076 -0.29923853 -0.24010102 -0.311028 0.23899543 0.47555012 0.16976301 0.13730606 0.08671619 0.14727005 0.2553499 0.20077378 0.004902035 0.034309484 0.22121769 0.31813896 0.2842018 0.35727274 0.38308644 0.31412095 0.2798033 0.2989822 0.37386027 0.37811166 0.79252 0.37234887 0.36061582 0.39214993 0.8225664 0.4507594 0.45692617 0.7768671 0.7378755 0.20405032 -0.079518266 -0.123366416 -0.079874404 0.48465616 0.69381964 0.64753145 0.5465051 -0.04115912 0.0140475035 -0.029405102 -0.0463555 -0.07161433 -0.0636426 -0.033124097 -0.099015445 -0.10046339 0.47660583 0.45872897 0.06412935 0.45546764 0.4555074 0.13556582 0.412539 0.19888127 0.3681491 0.22674583 0.20913257 0.23805854 0.1856387 0.20913333 0.18323217 7.413328e-05 -0.3231471 -0.23089986 -0.17042176 0.14723478 -0.094019 -0.012494519 0.20801887 0.21099062 0.28891945 0.18030615 0.20419574 0.34656584 0.36047876 0.23926288 0.23323913 0.20647897 0.5800686 0.56602484 0.5326617 0.33527115 0.6286917 0.5688425 0.78784263 0.83256996 0.86522555 0.78335994 0.85106015 0.8612164 0.7708661 0.6996858 0.8077942 0.7214536 0.6841514 0.5954617 0.5826255 0.65919214 0.57642055 0.40651792 0.38524696 0.41348124 0.50467664 0.38923556 0.4131072 0.49005944 0.3477921 0.35895514 0.39401984 0.47233236 0.39353713 0.2586951 0.17608269 0.14003684 0.33210456 0.39233822 0.37656802 0.41062784 0.5252201 0.5872696 0.26927868 0.29116315 0.26254225 0.1667641 0.08318066 0.2880451 0.5889039 0.6017458 0.57796264 0.5873708 0.24804464 0.19018158 0.19758871 0.29423815 0.63650465 0.4644352 -0.040438898 -0.15804037 -0.19675466 -0.09572622 0.09432134 0.35739994 0.23327437 0.34439746 -0.06059011 -0.13683838 0.18604702 0.22176304 0.17922905 0.31929109 0.3230635 0.294833 0.37093523 0.22182491 -0.008305952 -0.11903767 0.071440525 0.31043616 0.2901089 0.41137075 0.2784661 0.31339955 0.67263794 0.3296419 0.76422846 0.6810249 0.33281407 0.7070135 0.48868513 0.33395508 0.39894128 0.20471539 0.17784983 0.15569364 0.10830423 0.29277906 -0.35297564 0.2569261 0.5341347 0.44165316 0.35220036 0.3292799 0.020341277 -0.20522322 0.5187532 -0.28125724 -0.1388857 -0.18854421 -0.020974157 0.107231334 0.16726266 0.29152995 0.36433625 0.04798529 -0.06296241 0.40432394 0.4742518 0.28203237 0.21615937 -0.0037349686 -0.072956316 0.49963903 0.3188998 0.30822667 0.225299 0.045079224 -0.102118604 -0.101745434 0.49081096 0.29349446 0.2987582 -0.03805487 -0.16487223 0.4942851 -0.016246155 0.17063484 0.20891866 0.0643805 -0.19872364 0.41126406 -0.02271898 -0.111154705 -0.14058065 -0.37519583 0.44032687 0.13236347 0.065058984 0.34399354 0.2948395 0.17406416 -0.06672718 0.08269263 0.1616606 0.1724449 0.20794335 0.2506859 0.38768807 0.4031694 0.54580677 0.39959538 0.371706 0.8054586 0.63279927 0.31804377 0.31171417 0.35012412 0.8174802 0.36611146 0.3854269 0.7559768 0.71373534 0.5863141 0.3953694 -0.062127955 -0.026361056 -0.08782987 -0.14274393 -0.2395471 0.42168733 0.68550944 0.6018531 0.51272905 0.03425306 0.030179277 -0.0038999543 -0.051005103 -0.070206955 0.43472445 0.05989762 0.42298484 0.15527813 0.33683366 0.00018481538 0.26162034 0.2497715 -0.25951147 0.047881335 0.221313 0.20242384 -0.008015469 -0.2874667 0.06264066 0.20104799 0.1456088 0.20124999 0.2931103 0.20611441 0.52144176 0.1887168 0.6232768 0.64220595 0.40390408 0.2948868 0.67824984 0.6958164 0.6700022 0.6231477 0.4844038 0.7514217 0.74419916 0.79542375 0.82792807 0.8196116 0.56141317 0.72569555 0.7377025 0.33010322 0.57376146 0.6163633 0.54518473 0.35886985 0.35398978 0.33411753 0.34809038 0.44163984 0.47442225 0.35806692 0.34550264 0.34536842 0.26172858 0.24991924 0.43892986 -0.04372578 0.24050501 0.34562838 0.39767623 0.4328233 0.44456172 0.31180683 0.33243257 0.10694286 -0.02095446 -0.077337325 0.46493793 0.452731 0.37795237 0.065988384 -0.022148257 -0.12044692 0.16648188 0.18540704 0.49064445 0.43408877 0.3774009 -0.065113425 -0.04983529 -0.11362582 0.4457836 0.47467372 0.3414357 0.36362222 -0.103013024 -0.031820446 -0.051484853 0.049270872 -0.056485876 0.23308559 0.20064119 0.33423138 -0.09516221 0.13198535 0.26961428 0.29832643 0.3028645 0.68972576 0.7036512 0.5688678 -0.15851848 -0.19248572 -0.18019207 0.17862013 0.30129802 0.25996435 0.72276103 0.7234067 0.46344143 0.09283253 -0.08275448 0.2451885 0.72821164 0.7101291 0.3194815 0.27675167 0.33369565 0.317416 0.04340215 0.28899473 0.13269827 0.1569359 0.18244046 0.16971944 0.102338895 -0.31395876 0.23367931 0.19392617 0.15565269 0.045918614 -0.62542623 -0.6800593 0.11589709 -0.38358065 0.035636418 -0.22069679 -0.37703076 -0.30131277 -0.34317246 -0.38919872 0.15367118 -0.04927906 -0.16801274 0.2763598 0.17203645 0.1561923 0.028197568 0.08368918 0.32264623 0.324