# vtk DataFile Version 2.0
Really cool data
ASCII
DATASET POLYDATA
POINTS 5943 float
-15.599576 43.936386 -4.506936
-15.5750265 44.3763 -5.0821123
-15.592006 44.41532 -4.7085195
-15.542743 44.880013 -4.802254
-14.870134 34.61767 4.6053295
-15.032405 34.879917 5.189782
-14.71825 34.748802 5.8724318
-15.0991535 35.61194 3.9595182
-15.354927 35.626972 4.734653
-15.190752 35.64488 5.523521
-14.775982 35.592632 6.313286
-15.130533 36.35288 3.9470906
-15.342716 36.35636 4.5524206
-15.281679 36.319103 5.1670194
-14.86792 36.340992 6.060155
-14.987517 36.89176 4.0554013
-15.119937 36.848576 4.447442
-15.050777 36.793274 5.2251573
-15.040418 42.980156 -5.219864
-15.16513 42.93083 -4.662992
-15.095626 42.93287 -4.0828495
-15.048439 43.80169 -5.745129
-15.288916 43.539276 -5.266257
-15.373979 43.419353 -4.572695
-15.269272 43.693363 -3.9150536
-14.908026 43.890205 -3.2547433
-14.989327 44.413727 -5.7932944
-15.336395 44.495518 -5.4772625
-15.436595 44.82568 -4.597818
-15.364339 44.470863 -3.9761407
-14.91258 44.864925 -5.776144
-15.223153 45.16429 -5.202473
-15.274516 45.220905 -4.734519
-14.948172 45.219715 -3.9290428
-14.839688 45.619778 -4.7007127
-13.733831 29.088202 8.662101
-13.660291 29.145325 9.423912
-13.731675 29.544281 7.770688
-13.827741 29.51037 8.513225
-13.67858 29.396929 9.4966955
-13.63096 30.637375 7.0197754
-13.681156 30.484268 7.4784474
-13.807808 30.345072 8.085184
-13.781772 30.03278 9.169891
-13.829996 33.29402 4.411578
-13.813549 33.608063 3.862957
-14.297512 33.834473 4.5797048
-13.979632 33.743614 5.885673
-14.080044 35.0356 3.3955576
-14.602624 34.605762 5.788157
-14.202323 34.62567 6.4292574
-13.86884 34.737247 6.8499146
-14.170165 35.500153 7.000419
-14.430931 36.518265 6.566701
-14.232201 36.345966 6.856598
-13.881465 38.01293 2.923827
-13.962241 37.909065 3.5818136
-14.039537 37.218987 5.468767
-14.289431 36.90737 6.2055593
-14.223692 39.027832 2.5691738
-14.2904825 38.924454 2.9837117
-13.752662 39.34786 1.1749957
-13.636532 39.455402 1.2846348
-14.184605 39.564976 3.3315277
-13.752655 39.900032 4.162521
-13.7626095 39.946575 1.4657556
-13.953124 40.509525 2.5668375
-13.997738 40.35271 3.3313186
-13.796956 40.225674 4.007806
-14.561308 42.385742 -4.9989376
-14.256474 42.26908 -4.7630873
-14.014873 41.947697 -3.3504865
-13.62365 40.973812 1.5359004
-14.608723 43.038918 -5.6701136
-14.489296 42.708164 -5.384723
-14.0863 42.35194 -2.2712188
-14.697879 43.680054 -5.889998
-14.524547 44.54632 -5.9489646
-14.59666 44.070225 -3.0553942
-13.78752 44.280457 -2.1839786
-14.439478 45.151054 -5.7447495
-14.11557 45.47973 -5.5413795
-14.320374 45.727383 -5.22453
-14.459022 45.82703 -4.5553203
-14.127135 45.93993 -3.945838
-13.686201 47.837933 5.114126
-13.677735 47.376957 5.7868304
-13.707981 47.682198 6.139264
-13.808609 48.794178 5.135307
-13.880044 48.235786 5.5978484
-13.729825 48.51486 6.4929037
-13.6952505 49.41542 4.951192
-13.8351965 49.761547 5.459953
-13.761268 49.432755 6.3077273
-13.699301 50.16793 5.638676
-13.663786 50.058815 6.0638
-12.776105 28.310234 7.9444556
-12.907834 28.243587 8.472754
-12.836155 28.2917 9.126861
-13.123537 29.040035 7.178484
-13.216506 28.770739 7.6585073
-13.350173 28.617622 8.590502
-13.290841 28.738655 9.442362
-13.077263 28.91894 9.876198
-12.976363 29.822239 6.3980985
-13.234003 29.706457 6.7664285
-13.425831 29.266293 7.2383165
-13.29346 29.426985 9.943376
-13.414557 30.665064 6.7697215
-13.469157 30.329317 9.469461
-13.219126 30.045607 9.931567
-13.607675 30.794704 8.5611315
-13.481602 30.687311 8.954314
-13.191654 32.9526 3.991362
-13.386988 32.96809 4.498728
-13.380641 33.105938 5.7119336
-13.54254 33.97269 3.3626873
-12.812898 33.69904 6.740287
-13.4842 34.341644 3.1104193
-13.521933 34.670345 6.909125
-12.763264 35.871044 1.5967449
-13.43927 35.133068 2.8750877
-13.390862 35.556515 7.3546786
-12.877481 36.846043 0.723183
-13.425407 36.273148 7.21342
-12.758763 38.014053 0.29382634
-13.490357 37.320847 5.403049
-13.2627 37.153732 6.136753
-13.473068 36.86934 6.844436
-12.696984 38.2175 -0.04311946
-12.943161 41.260315 -3.5234284
-13.39829 41.176003 -2.3787913
-13.2592125 40.879513 -1.3868754
-13.437581 40.357193 4.367458
-12.865978 40.59264 4.708589
-13.219695 42.120567 -5.1042814
-13.273775 41.70177 -4.080859
-13.54562 41.29745 2.368823
-13.92921 42.82573 -5.597954
-13.366467 42.209614 -0.49369812
-13.117427 42.096535 0.34883338
-12.754802 41.99044 2.8921165
-13.860005 43.49718 -5.978297
-13.573387 43.631565 -1.4487944
-13.457776 43.34537 -1.1473231
-13.501171 44.388622 -6.017614
-13.617963 44.404026 -1.9303744
-12.845142 44.20413 -0.870922
-13.3871 45.288452 -5.726742
-13.100861 45.703693 -5.511598
-13.3281555 46.035374 -5.0794697
-13.467047 46.261364 -4.54699
-13.378927 46.297638 -3.8233738
-12.968217 47.032364 5.0134
-13.359833 46.995968 5.6088
-13.3333435 47.151306 6.333647
-13.077538 47.284008 6.7384367
-13.530741 47.310883 5.3485446
-13.505058 47.531654 6.5109
-13.0310755 47.816776 7.172702
-13.295478 48.446583 7.114753
-12.917007 49.705677 4.422796
-13.487724 49.33417 4.658232
-13.249218 49.485085 7.036722
-13.309749 50.23885 4.9684057
-13.524517 50.39356 5.480721
-13.340437 50.342144 6.2114873
-12.933415 50.08182 7.0175486
-13.129711 50.591225 5.1418834
-13.05989 50.675476 5.4802465
-12.978128 50.62905 6.2045565
-11.834526 28.297441 6.9328012
-12.129346 27.99582 7.6842484
-12.297323 27.910522 8.535004
-12.37959 28.05143 9.142953
-12.15681 28.506577 6.940102
-12.536902 28.382288 7.2898073
-12.462642 28.886732 10.255345
-12.675545 29.86378 6.1941223
-12.516697 29.443434 6.4835978
-12.738658 29.469229 10.300783
-11.966453 29.294317 10.571881
-12.794215 30.410526 6.2161174
-12.6986475 30.270163 10.219196
-12.532114 31.00325 6.1275706
-12.675228 30.738417 9.753133
-12.235385 33.201313 3.4065032
-12.600007 33.227562 6.323715
-12.446562 34.585796 7.09405
-12.399174 35.766205 0.76073265
-12.409869 36.696564 0.07835445
-12.726854 36.089535 7.2146287
-12.670473 36.70047 6.7933073
-11.848272 38.847603 -0.9066119
-12.489485 39.78443 -1.579484
-12.579311 39.897476 4.8370194
-12.350572 40.69736 -2.5326605
-12.642422 40.15076 4.805967
-12.318097 42.12326 -5.3334436
-12.585473 41.696625 -4.7486677
-12.529451 41.110546 4.376162
-12.495543 42.86583 -5.697499
-12.375167 42.365204 -5.427148
-12.700378 43.721127 -5.8453274
-12.473751 43.165638 0.28708565
-12.98067 44.157185 -5.880864
-12.481432 44.52363 -0.4159667
-12.070741 44.72587 0.37000376
-11.7791605 44.6039 2.8724906
-12.552794 44.93388 -5.733409
-12.271416 45.356518 -5.4355855
-11.948128 45.440144 0.05058159
-12.635571 46.032578 -5.1137004
-12.407763 46.42561 -4.3935432
-12.536663 46.46542 -3.7612112
-11.62057 45.81585 0.9014561
-12.362524 47.01665 6.9872355
-12.651633 46.51977 -4.3375874
-12.589049 46.506878 -3.9822946
-12.318521 47.567062 7.5309896
-12.35046 47.988605 7.763367
-12.737567 48.34987 4.352862
-12.230313 48.72 8.030573
-12.736676 49.428783 4.3543262
-12.568564 49.55922 7.57175
-12.188581 49.44448 7.9345703
-12.774511 50.282875 4.6712027
-12.428046 50.19069 7.3030806
-12.0274 49.947254 7.867338
-12.477672 50.662075 5.087184
-12.585795 50.798412 5.5806575
-12.5472555 50.79449 6.275684
-11.042545 27.411247 7.831622
-11.089299 27.42584 8.502981
-11.347639 28.00834 7.0776463
-11.2342005 27.625969 7.5864496
-11.361792 27.55158 8.45376
-11.478013 27.758207 9.463185
-11.15643 27.907692 10.083598
-11.219019 28.609468 6.539304
-11.141679 28.348408 10.710991
-11.731536 29.702051 6.2317295
-10.977201 29.636198 11.2593
-10.9204 30.344746 11.223114
-10.945082 31.472382 9.6234455
-11.579911 30.959164 10.151393
-10.86555 33.265415 2.1537185
-11.642702 32.629425 3.7744324
-10.983756 33.60436 1.5372219
-11.671992 33.20904 7.207649
-10.933572 34.957897 -0.8777247
-10.749044 34.535954 -0.5075117
-11.371875 34.155155 7.2260413
-11.10538 35.224117 -0.8206723
-11.615993 34.986794 7.197692
-10.923332 36.161423 -1.0795408
-11.040136 38.06123 -1.1671076
-11.232036 38.69092 -1.3243699
-11.491928 40.03686 -2.2426562
-11.244271 40.660664 -3.1803062
-11.066812 40.836346 4.750837
-11.755824 41.981167 -5.1567736
-11.310482 41.165226 4.7543197
-11.958967 42.7574 -5.559187
-11.908648 42.455887 -5.461937
-11.553612 42.684303 3.3638089
-11.8183365 43.51111 -5.628421
-10.767342 43.273087 4.8420267
-11.896518 44.405426 -5.6398244
-11.3356285 44.756535 -5.185367
-11.375051 44.39447 3.5641375
-11.790645 45.39119 -5.212767
-11.258944 45.25435 4.8452096
-12.154076 46.01422 -5.0141106
-11.711966 46.02139 -4.507484
-12.001096 46.375603 -3.988185
-11.434164 46.424423 0.54162794
-11.242671 46.224186 1.7176651
-11.637991 46.6969 6.963286
-10.787046 47.267593 -0.75628126
-11.329504 46.849667 0.3031388
-11.3922 47.904675 8.250676
-11.606658 48.698654 8.355796
-11.477539 50.177883 7.939117
-10.773479 27.433895 7.9020996
-10.661147 27.42372 8.361015
-10.5238695 27.432377 9.136262
-10.644879 27.811253 7.1576095
-10.596374 27.562891 7.5288386
-10.263199 27.63489 10.229684
-10.623551 28.12166 10.848158
-10.009701 29.18619 6.0706515
-10.559943 28.509083 6.5763435
-10.347699 28.371193 11.135643
-10.225372 29.636696 11.727505
-10.144978 30.949522 4.0793066
-10.506261 30.512165 11.452793
-10.029942 30.517462 11.854766
-9.83069 31.461237 11.294871
-10.511744 32.821636 2.675309
-10.109309 32.355392 9.369281
-10.0456295 34.263245 -1.134806
-10.502742 34.127182 0.054983884
-10.459572 34.68505 -1.2441359
-10.8885565 35.411827 6.9804683
-10.315311 36.43477 -1.8907421
-10.359188 36.390335 6.030121
-10.8718195 35.973488 6.696077
-10.7786045 36.78458 5.247929
-10.524029 38.107914 -1.3247409
-10.440255 39.678024 -1.9847884
-10.263411 41.251038 -3.581984
-10.629911 40.689137 4.8913517
-9.733851 41.599518 6.615203
-9.727554 41.918156 6.7787805
-11.1302 42.99222 -5.268195
-10.236562 42.71482 6.475424
-9.981875 42.824448 6.9543495
-10.9270735 43.38114 -5.2740636
-10.298684 43.636368 6.3702197
-9.906742 43.15754 6.9145885
-10.877655 44.239456 -5.0390077
-10.65349 44.656536 -4.5933175
-10.997335 45.27427 -4.4654717
-10.362823 47.23885 -1.3483737
[...]
POINT_DATA 5943
SCALARS features_00 float 1
LOOKUP_TABLE default
0.84215033 0.87426025 0.8597568 0.8725567 0.6600177 0.69423175 0.6620612 0.6551797 0.70609546 0.7467303 0.7649486 0.5273484 0.6404861 0.72036207 0.7906991 0.47565427 0.5672133 0.70510435 0.82461727 0.8032681 0.7579614 0.87313104 0.858989 0.83359945 0.7878641 0.6663715 0.89427316 0.88877475 0.85940397 0.7951947 0.8961054 0.8867993 0.87352353 0.8073423 0.86309844 0.8024122 0.7966722 0.75191426 0.8189306 0.792294 0.65082514 0.7254349 0.8082255 0.80227673 0.5123979 0.47773558 0.5748209 0.55573636 0.485329 0.63927335 0.609467 0.60742915 0.7609288 0.7977143 0.8047799 0.23791605 0.223237 0.6990917 0.76175344 0.3894918 0.3719562 0.3855707 0.39666277 0.47586232 0.49929535 0.4356814 0.4970647 0.54746675 0.5376787 0.7174697 0.6534611 0.5093531 0.34581035 0.80116606 0.75337493 0.48616654 0.8595776 0.8892481 0.5741811 0.22856519 0.8786602 0.8386333 0.8374447 0.82384944 0.7339226 0.7426524 0.6889878 0.6890604 0.87047374 0.7913188 0.7704638 0.8212335 0.80632114 0.81997895 0.76851326 0.7623781 0.62267137 0.66555476 0.7035464 0.6280272 0.6652355 0.7454265 0.771931 0.74603146 0.5868256 0.62055814 0.6618918 0.747725 0.6083535 0.7544807 0.71216214 0.7894146 0.7687106 0.42151636 0.48014158 0.5413263 0.43566155 0.4715542 0.39659464 0.57642055 0.06953994 0.28001854 0.7151202 0.13815966 0.7676499 0.20700265 0.6559299 0.69910264 0.75326645 0.1771682 0.38225994 0.33536282 0.28120854 0.4763921 0.36688685 0.55480814 0.48536074 0.4144249 0.6888504 0.12689972 0.009885312 0.35707548 0.7631849 0.09300659 0.06589791 0.774055 0.14655738 -0.013525695 0.7559007 0.7129631 0.71517533 0.69818556 0.6339575 0.6443608 0.6377413 0.63510835 0.6117361 0.68867767 0.6578214 0.60204893 0.6584947 0.76884407 0.8092538 0.68955976 0.7689099 0.76019096 0.73702276 0.6688075 0.76129764 0.7526578 0.72964215 0.5157716 0.55513686 0.57928663 0.62556887 0.5375711 0.5752063 0.6634447 0.55489385 0.54964316 0.66511977 0.55366474 0.5580962 0.6172639 0.48698086 0.5983515 0.25740215 0.44047725 0.50749254 0.12323557 0.119326785 0.657108 0.6299684 -0.028534234 0.08356951 0.26607814 0.24139068 0.28677857 0.5145323 0.49501523 0.36486715 0.55469257 0.5321147 0.59650624 0.020387327 0.65893316 -0.025577538 0.023871109 -0.0732434 0.64744973 0.63643944 0.11294687 0.6661495 0.64851415 0.6015452 0.20694853 0.5256546 0.65547895 0.6314265 0.5355438 0.55412054 0.76588964 0.5505375 0.76094925 0.578311 0.5279232 0.74473464 0.5824394 0.49954635 0.70894897 0.71005666 0.69205976 0.49956802 0.49624446 0.49067953 0.5045592 0.5086503 0.5220771 0.5259392 0.44250342 0.5115644 0.45953614 0.40925255 0.36884326 0.23019639 0.39605343 0.089684345 0.110291794 0.12541056 0.37749985 0.33091673 0.327204 0.40680766 0.30687764 0.46918774 0.22025521 0.009196892 -0.037268534 0.12378204 0.33654377 0.2505084 0.4745819 0.25611603 0.52435005 0.5093029 -0.0023545846 0.53818834 -0.0146083385 0.57337683 0.5532304 -0.19351722 0.60589755 -0.13400146 0.6385635 0.61456984 0.60514235 0.32530844 0.28774965 0.4473734 0.5570843 0.4368071 0.51017004 0.49848038 0.43940276 0.48456526 0.48103824 0.48519868 0.45415235 0.4648124 0.48612118 0.47068164 0.2126826 0.38696116 0.44668418 0.32421476 0.02011194 0.31049567 0.26437578 0.23249401 0.084221676 0.16153671 0.43627623 0.33856648 0.40126595 0.34299216 0.22530696 0.20247093 0.28905287 0.22948016 -0.005478181 0.07596983 0.40796518 0.24239913 0.46323246 0.4794253 0.5001264 0.41499838 0.49063677 0.5088258 0.37805152 0.48505268 0.51378095 0.47765404 0.5225694 0.6255836 0.60841274 0.53555834 0.4912243 0.42370373 0.60907125 0.44805312 0.48529702 0.34653574 0.4685411 0.4435591 0.36990076 0.31487775 0.12837394 0.14387867 0.1244724 0.2172624 0.18060914 0.22883889 0.2357817 0.17432156 0.6471367 0.55496883 0.44071764 0.13293153 0.7412424 0.65910137 0.75375193 0.0988802 0.1170326 0.7909353 0.67227614 0.115518525 0.81573176 0.75664747 0.15833679 0.35164523 0.33805823 0.40826267 0.39714837 0.5205418 0.4105863 0.5341441 0.42291552 0.5306698 0.39060616 0.6049364 0.61633414 0.56580496 0.50255597 -0.05027972 0.32921714 0.3953211 0.19136313 0.19089258 0.41552323 0.3635397 0.3112432 0.41109905 0.19214483 0.21973215 0.19531015 0.21800336 0.33097696 0.3350121 0.1320694 0.15730312 0.5097532 0.18746684 0.17317261 0.052709386 0.2721077 0.26778993 0.56975365 0.6329261 0.7539083 0.69775593 0.5924097 0.45393094 0.33485898 0.049290493 0.040373847 0.36888564 0.58034754 0.64295995 0.7886393 0.7694731 0.0020882264 0.63654566 0.8132409 0.041403934 0.0066908672 0.84541345 0.08677086 0.87096775 0.1552445 0.3721643 0.38865265 0.45434672 0.5242252 0.37462276 0.43521953 -0.0068559647 0.5782366 0.38114753 0.54911906 0.32954934 0.47642148 0.48189726 0.1532767 0.43945563 0.44187152 -0.21418473 0.47401708 0.5286765 0.6003139 0.6404423 0.23017119 0.5891516 0.58593273 0.093390375 0.52549934 -0.2355353 0.34431076 0.30543965 0.55776787 0.47217706 0.319817 0.45661688 0.3983219 0.32948944 0.2524963 0.18135464 0.33505923 0.84806496 0.3059646 0.12588723 0.1770552 0.21896186 0.36921388 0.2712629 0.24125658 0.56672454 0.54000187 0.15067782 0.18105575 0.10953196 0.56741655 0.5474821 0.11552238 0.50662744 0.5747796 0.6286054 0.68709266 0.25668126 0.41144836 0.49338 0.62075996 0.6895132 0.75863564 0.75540036 0.72928905 0.65099466 0.4834293 0.2751343 0.37249655 0.39259017 0.46072832 0.37958103 0.37537092 0.50571495 0.5544051 0.6765963 0.7787596 0.7922473 0.7783284 0.52383006 0.56910324 0.6307516 0.74719834 0.80923486 0.8144251 0.78778654 0.6406021 0.67074966 0.72882736 0.7992663 0.8219055 0.853396 0.14183709 0.714888 0.78389716 0.86873496 0.83890605 0.13607901 0.8278293 0.35574734 0.028130833 -0.119287804 -0.11676885 -0.12469199 0.5170643 0.5677475 0.40484214 0.32218143 0.43692446 0.37569696 0.3050242 0.60070753 0.41879094 0.4271143 0.39960665 0.3471675 0.47286057 0.39580587 0.3568573 0.36400306 0.30421445 0.4224276 0.5059975 0.604405 0.5832272 0.67130905 0.6494228 0.6047691 0.62732553 0.5615432 0.55381745 0.6073426 0.54987615 0.6258217 0.61285996 0.25159466 0.5853465 0.5081043 0.42015767 0.3263088 0.12264769 0.13096787 0.12889096 0.30066544 0.626364 0.773975 0.8434179 0.73901266 0.78125477 0.8633758 0.90976894 0.8174969 0.8588592 0.9275805 0.9111486 0.8485341 0.88069844 0.9360132 0.8987655 0.43575698 0.40710175 0.36601764 0.36901322 0.4095237 0.39554608 0.33692122 0.3546103 0.32736027 0.17064905 0.299782 0.22375256 0.6360044 0.61036384 0.5428549 0.29324043 0.113166444 0.086246565 0.13003036 0.16721702 0.6284315 0.6347253 0.069379196 0.09159772 0.16566975 0.33525917 0.60358137 0.05016979 0.5182614 0.6052301 0.4656849 -0.013364941 0.09189007 0.6641364 0.7277521 0.45432085 -0.0073021855 0.014236182 0.80248153 0.74909425 0.70783955 0.4115804 0.15840411 0.16409573 0.36163223 0.45667654 0.8142221 0.7734734 0.76274836 0.32874906 0.11438693 0.4735961 0.5479499 0.8171483 0.8085696 0.78235364 0.7713288 0.6859871 0.4126162 0.6509023 0.6800607 0.70843786 0.8270937 0.8256995 0.8320974 0.7913555 0.7378496 0.60048926 0.38411915 0.29195967 0.72609615 0.7464975 0.80706286 0.8317424 0.8043301 0.64832807 0.4987708 0.41180182 0.34499863 0.7367413 0.38911295 0.25438195 0.6520943 0.6245756 0.6129096 0.6692109 0.25121203 0.6028389 0.29627156 0.49240667 0.4106469 -0.086921304 0.7112641 0.71714914 0.7150829 0.6844887 -0.11128209 0.644974 0.5795667 0.5093292 0.46958226 0.6120297 0.6589389 0.14284523 0.6413803 0.6265185 0.56943834 0.44910955 0.38847733 0.14800724 0.53635675 0.14540854 0.24262078 0.8399577 0.85456455 0.8954688 0.7691679 0.87177837 0.85074604 0.84436643 0.88233227 0.89959455 0.8329605 0.8195412 0.7422611 0.78725785 0.7911849 0.74253654 0.7404468 0.8129147 0.8422376 0.76133776 0.72902644 0.80494297 0.8610593 0.7153695 0.7620597 0.45026866 0.42602897 0.40809667 0.37553552 0.44997406 0.37707636 0.40272692 0.29226172 0.2558727 0.17561057 0.21176273 0.6053214 0.56831974 0.52674395 0.40930852 0.16700822 0.9275255 0.9055376 0.84965086 0.8304002 0.61348516 0.61004686 0.15571338 0.23731096 0.9819305 0.9436201 0.86810666 0.84281206 0.5943874 0.47161382 0.5156749 0.9670998 0.85961986 0.82896036 0.36157185 0.5763347 0.6411947 0.47739434 0.3782584 0.120281525 0.78330016 0.58299756 0.4978646 0.8263872 0.70113623 0.5094522 0.48547047 0.8162526 0.77545553 0.5194702 0.64456093 0.7139102 0.82986104 0.82259977 0.7226828 0.7378974 0.7678369 0.7932901 0.8392019 0.7450701 0.7557374 0.6867323 0.6828159 0.6813998 0.7145027 0.70205516 0.6933523 0.6056161 0.69967973 0.7043369 0.57839 0.69677776 0.5346268 0.55192125 0.71103513 0.7134839 0.6801797 -0.14659694 -0.041375555 0.6372831 0.5907167 0.5160396 0.6172868 0.67301846 0.67588407 0.6786134 0.65734214 0.54989713 0.25530395 0.35977238 0.59225965 0.17049783 0.18205737 0.8257822 0.8357063 0.8056499 0.7179153 0.80186033 0.829779 0.7797808 0.7846091 0.69691247 0.7421396 0.6387727 0.71476626 0.58740276 0.6617795 0.71818185 0.6672986 0.6658668 0.43982923 0.69650126 0.70958185 0.736796 0.6850786 0.64639086 0.6372527 0.6924261 0.6038534 0.5281513 0.5924429 0.585019 0.63516164 0.56634164 0.51019365 0.48771358 0.37376037 0.28730977 0.42782182 0.3834757 0.3355096 0.2866964 0.34590718 0.20461453 0.19568694 0.42308658 0.23083478 0.22549239 0.21845531 0.39769685 0.2320372 0.7822032 0.81113553 0.7624116 0.5625086 0.5058557 0.16533002 0.12641257 -0.039565336 0.8605952 0.89491546 0.8263968 0.80541533 0.7875932 0.56599283 0.529411 0.44721824 0.4016464 0.1819768 -0.016292112 0.8894184 0.92026603 0.810697 0.80116683 0.5140817 0.44376326 0.3782384 0.8068137 0.75369036 0.8093891 0.8089148 0.5697557 0.41834772 0.6946758 0.8541422 0.8226823 0.78714526 0.8026184 0.5599454 0.61333644 0.7292361 0.5526016 0.5591967 0.4307822 0.34244466 0.72029865 0.7486316 0.66271883 0.57510144 0.5385341 0.5135869 0.4735008 0.7482791 0.71511275 0.7001044 0.7995768 0.7080437 0.7111568 0.71107686 0.74983335 0.7391731 0.7387496 0.72862375 0.7262647 0.72062683 0.6801797 0.705848 0.7448219 0.73409116 0.6346295 0.67508554 0.7370871 0.7303596 0.5569615 0.6440096 0.70402026 0.72165835 0.5575274 0.6232512 0.6606148 0.6434301 0.13252273 0.58604634 0.6046257 0.01383359 -0.096330374 -0.08433085 0.03791741 0.5422398 0.5594009 0.123467915 0.6595286 0.39760992 0.5649953 0.6973015 0.2005126 0.7546228 0.3752088 0.7114228 0.70935094 0.5669118 0.64141273 0.6791675 0.68276125 0.74367344 0.6617193 0.5349786 0.66508913 0.7694175 0.8198384 0.79757905 0.59662557 0.77998644 0.78216463 0.41628808 0.4412358 0.6384434 0.707391 0.74442375 0.58577436 0.56348836 0.6315147 0.5355277 0.4361566 0.40845156 0.50919694 0.58322114 0.6148331 0.5055022 0.62210464 0.5659683 0.43232393 0.42587212 0.47277057 0.5263942 0.55762684 0.57495546 0.22549465 0.56706 0.5232989 0.55702853 0.5612761 0.57319283 0.19161418 0.47834235 0.060804546 0.055564523 0.2890609 0.21265979 0.18105555 0.15456957 0.014606044 -0.011725042 0.34880388 0.4474562 0.17574055 0.21545136 0.4488309 0.23131327 0.23052208 0.2590969 0.09179339 -0.15822704 0.7829909 0.67488647 0.71446556 0.6649226 0.07657136 -0.120672226 -0.0019289777 0.79596186 0.7213327 0.283942 0.06483857 0.81353533 0.48350942 0.52805465 0.470165 0.8219833 0.82524234 0.61433893 0.58351946 0.5764179 0.6182457 0.50104356 0.6173859 0.72595286 0.75176394 0.80621195 0.7405955 0.7736944 0.6742301 0.5625117 0.7575971 0.76886976 0.7073871 0.56789756 0.4996456 0.45440787 0.38433743 0.54501855 0.77717996 0.7900747 0.78727466 0.7465187 0.70089006 0.5326856 0.48034304 0.44556743 0.49848533 0.61546856 0.76871395 0.76805866 0.44628555 0.46392208 0.5271815 0.59472275 0.64940953 0.6222817 0.66057503 0.67257 0.15089962 0.3562814 0.559579 0.47870135 -0.12518421 -0.13629569 0.11719305 0.32945412 0.43532616 0.19492388 0.2185641 0.25457788 0.55806875 0.64811397 0.48730212 0.5955459 0.5763208 0.58035254 0.58461034 0.3515272 0.5243773 0.73630285 0.80273044 0.34922805 0.80337465 0.7781395 0.4092294 0.3452921 0.29682586 0.7529833 0.52174056 0.66802573 0.70542735 0.41263795 0.516451 0.5950259 0.55045074 0.39650694 0.40360972 0.27983683 0.24360064 0.51870394 0.57705367 0.5820159 0.31822878 0.3396627 0.26830962 0.3565252 0.47570747 0.5570685 0.5860057 0.5870763 0.5919822 0.18706405 0.23094141 0.34245884 0.59149575 0.029037148 -0.057698965 0.021871993 0.26559174 0.4534576 0.34615096 0.25616857 0.113004714 0.18549092 0.46682316 0.3203055 0.41009146 0.17091005 -0.19938913 0.14038362 0.091779485 0.7027156 0.64191604 0.57404774 0.5732635 0.12277056 0.67828214 0.7411449 0.20945242 0.8042817 0.8148718 0.3560773 0.28455713 0.2836286 0.31213954 0.8248147 0.68332267 0.66862 0.63456285 0.438457 0.35451612 0.23106395 0.07414797 0.39862254 0.4750534 0.76133806 0.80177534 0.8193064 0.7269112 0.75940937 0.76988316 0.5545066 0.45179087 0.3013198 0.18469915 -0.014513195 0.11097731 0.02400551 0.59703255 0.727808 0.7568463 0.7984845 0.8111477 0.85644376 0.7965279 0.49632955 -0.0070941034 0.006089395 0.1528501 0.79358447 0.8005533 0.8050775 0.23378187 0.23654115 0.3047961 0.43838328 0.41951346 0.43635064 0.3676279 -0.14675902 0.012064792 0.5951077 0.06329623 0.5183687 0.36089328 0.2206612 0.38593608 0.24839112 0.47120348 0.4984463 0.4828108 0.5100643 0.55155784 0.55234826 0.5488613 0.42068857 0.12609127 0.30538878 0.53918993 0.7341461 0.20279813 0.09448224 0.12630701 0.7089906 0.38334626 0.12324976 0.7023434 0.42905986 0.65518796 0.37145966 0.14013898 0.28094423 0.6215516 0.4267091 0.3470959 0.098465666 0.089834034 0.5606636 0.24348736 0.58871335 0.5829356 0.032747895 0.059179123 0.35661396 0.42212924 0.56025887 0.2681144 -0.07250553 0.49225214 0.43388698 0.22421122 -0.008246971 0.46250853 0.47568846 0.13956101 0.4357044 0.36732674 -0.11095731 0.3875864 0.5113689 0.052574936 0.5287355 0.67902994 0.21684551 0.76558197 0.2619299 0.21971813 0.80200946 0.8122984 0.26724243 0.06537433 0.009554118 0.17210627 0.2288635 0.267093 0.31612718 0.7273792 0.79275405 -0.02759146 -0.080956295 0.32048643 0.34372097 0.57363313 0.70104337 0.018479332 0.14036395 0.687924 0.6152084 0.041913003 0.21697557 0.6948367 0.5037188 0.23019356 0.71658057 0.85632837 0.8477236 0.15360466 0.77271664 0.24090761 0.19603498 0.28918177 0.36488643 0.3308204 0.39160395 0.53461266 0.5579372 0.5587394 0.537686 0.5496173 0.5102613 0.4856138 0.5802783 0.59555924 0.5448849 0.40686554 0.48182458 0.46635568 0.58950007 0.63991976 0.5901292 0.075250305 0.15282626 0.15316011 0.61562955 0.59328735 0.57171065 0.5590657 0.48772 0.33762696 0.50461566 0.5610323 0.7623908 0.67138946 0.61394215 0.55870914 0.4637047 0.32248104 0.4568733 0.53189445 0.8028008 0.7411306 0.5987783 0.525771 0.22548766 0.012029171 -0.12786926 -0.1600965 -0.15725607 -0.12952815 0.5044463 0.80442345 0.7647835 0.5828543 0.44920886 0.5235363 -0.111675896 -0.10835445 0.4869991 0.515348 0.21711619 0.3696611 0.4714295 0.5366751 -0.010564223 -0.008062126 0.025052276 0.04390405 -0.004016148 0.4602228 0.45329642 0.4067703 -0.13122813 0.29095662 0.12186332 0.30717924 0.44306505 0.56428707 -0.023796 0.6094879 0.6925102 0.7463226 -0.02914089 0.15026738 0.6984942 0.75952053 0.076832935 0.21140742 0.22669208 0.26075712 0.25562066 0.30112812 0.38388425 0.5624398 0.076313704 0.23262927 0.39672935 0.18802719 0.1754348 0.51996124 0.5970357 0.6762376 0.38640627 0.4191499 0.5948076 0.6642655 0.75044787 0.5760228 0.73431027 0.85078454 0.8710245 0.8230368 0.7994146 0.52742684 0.22914621 0.6829785 0.6312413 0.25213063 0.2822606 0.16908872 0.17070362 0.110716045 0.23916192 0.24080199 0.3589011 0.65300393 0.66942024 0.666031 0.5635457 0.54249525 0.5941177 0.55842996 0.5376992 0.5577221 0.48534065 0.5158673 0.48015252 0.38562903 0.4930138 0.57074684 0.5967815 0.5918439 0.43604213 0.38466623 0.4368694 0.5140664 0.5862949 0.5596583 0.5245774 0.5447655 0.48904634 0.055822983 0.56350785 0.5180831 0.5305666 0.51371485 0.39605397 0.4139607 0.4256993 0.4871248 0.50701785 0.47457623 0.43783098 0.62990844 0.576964 0.55043554 0.5191936 0.43961424 0.20647147 0.3541541 0.32487407 0.7738918 0.72161233 0.63931084 0.12666604 -0.22332978 0.36466795 0.82320076 0.82259035 0.08474505 -0.1052731 -0.18801038 -0.21355316 -0.19290818 0.34685588 0.37643194 0.82271945 0.78672886 0.7110665 0.20541295 0.39331836 0.4602778 -0.122768626 0.40135407 0.10746916 0.19329765 0.28030637 0.3060792 0.05063217 0.06173367 0.060443647 0.46570313 0.25673044 0.02460229 0.04451704 0.4372136 -0.11027488 0.33891693 -0.10081333 0.10960008 0.2753015 0.088930376 0.51355696 0.07305532 0.06370941 0.5812943 0.6329577 0.09688656 0.18457785 0.47859395 0.5531721 0.60890174 0.27752948 0.25439936 0.2942957 0.28484577 0.2929973 0.43905494 0.27245614 0.26790875 0.40722704 0.42579547 0.48185664 0.5884739 0.4836417 0.4561528 0.2911784 0.39507532 0.383446 0.5838572 0.68441784 0.67617106 0.6005132 0.18234538 0.74054545 0.80356455 0.74336815 0.8216352 0.8413222 0.85598075 0.80268157 0.73341995 0.7053369 0.5822147 0.33984154 0.11390331 0.17283298 0.15556994 0.7355999 0.7047805 0.6337595 0.7104945 0.71792024 0.59111804 0.52697134 0.44378218 0.48150796 0.46675888 0.4319116 0.37955832 0.5017161 0.5071795 0.51083374 0.510695 0.27135938 0.30901837 0.4995877 0.5255504 0.62217784 0.35817334 0.26603597 0.28666127 0.22000693 0.18902382 0.66415817 0.45990267 0.47780323 0.31100202 0.17477465 0.62017566 0.47803873 0.48227593 0.4530727 0.23310146 0.36306828 0.3808134 0.5479278 0.5249471 0.08720592 0.2799767 0.3010962 0.26540947 -0.7042974 -0.6691282 -0.34368223 0.23557615 0.2624655 0.73760253 0.6530993 -0.088861525 -0.13979214 -0.27655375 0.8027147 -0.21824163 -0.24132168 0.8146776 0.7814034 0.7068278 0.65734446 0.24639109 0.002563591 0.184048 0.22813478 0.24271792 -0.21625134 -0.24391107 0.08221334 0.114721976 0.067907855 0.10865028 0.19592133 0.2436679 0.06427278 0.050396033 0.13392042 0.2815875 0.09677389 0.33003652 0.40426505 0.10304161 0.1094075 0.45041794 0.4974179 0.14279144 0.48768854 0.2527503 0.44367316 0.50751203 0.29268524 0.31997132 0.27352187 0.25527656 0.24384311 0.29039383 0.31137925 0.23820463 0.2289357 0.21455291 0.42954934 0.43739808 0.45572892 0.46777895 0.61109185 0.6242549 0.4745769 0.3839942 0.42443442 0.69318247 0.7616717 0.64279306 0.5260001 0.81476176 0.6907612 -0.05945827 0.8225256 0.7564938 0.5433556 0.7435964 0.758993 0.7844464 0.32457197 0.6576822 0.24660155 0.18281884 0.18583572 0.14243965 0.69642675 0.65251213 0.5964471 0.66259503 0.58959883 0.4883452 0.45432156 0.38620138 0.42583147 0.44536757 0.46496674 0.42054147 0.40764156 0.34623936 0.2585497 0.5143074 0.57746446 0.6207061 0.1765881 0.49201518 0.6568335 0.6642591 0.3537634 0.20701723 0.065600306 0.6247324 0.39000577 0.352142 0.31392643 0.45331305 0.51148546 0.045023758 -0.25861567 0.35230288 0.6398043 0.5508169 0.2720896 0.7165129 0.26151636 0.7638341 0.7107823 0.43987757 0.14680293 0.16900755 0.33744094 0.15409498 0.17949016 0.091273025 -0.07944705 0.15528463 -0.163347 -0.20695615 -0.15528871 -0.15334979 -0.28785422 0.09549728 -0.014722727 0.23245926 0.36308572 0.3836865 0.38130233 0.42661953 0.16395316 0.26085657 0.3762363 0.31287366 0.3123393 0.28846493 0.22255903 0.20026249 0.17783758 0.16705045 0.2070561 0.2879318 0.20374203 0.45271736 0.460285 0.5357241 0.6679276 0.4098655 0.388163 0.41111863 0.71234787 0.78303444 0.17413428 0.02017434 0.8267618 0.6058929 0.24675852 0.1836361 0.80336046 0.56547636 0.74769086 0.35432786 0.17166801 0.19085225 0.59842134 0.15516464 0.17315933 0.39627263 0.4254433 0.4113379 0.38175878 0.59087217 0.4699906 0.45546645 0.42764133 0.42936742 0.5653598 0.5255009 0.48829883 0.45003814 0.45569834 0.4472012 0.42954144 0.43271095 0.41066465 0.24548706 0.25007245 0.42743036 0.3524991 0.4093389 -0.02799818 0.13533862 0.33644474 0.49121255 0.58255535 0.18866089 0.09998169 0.56289124 0.6383625 0.26286653 0.17883371 0.60299736 0.63008225 0.29392698 0.46919954 0.52756125 0.30455616 0.25071582 0.3600729 0.4035298 0.34475052 0.4811921 0.31852236 0.6342919 0.18938288 0.09700802 0.051452987 0.6051763 0.4583584 0.06530993 0.09569636 0.60231626 0.3415767 0.34376842 0.039337657 -0.0314034 0.10873356 0.5686357 0.38365138 0.04576137 0.11106258 0.021129921 0.16574343 -0.08404796 0.03203065 0.20127966 -0.0025022924 -0.006826671 0.08551027 0.1309388 0.2