# vtk DataFile Version 2.0
Really cool data
ASCII
DATASET POLYDATA
POINTS 5562 float
-16.555588 37.895702 6.828048
-16.551617 37.844437 7.107866
-16.60458 38.46825 6.6288795
-16.58817 38.378048 7.043635
-16.55384 38.978424 6.5964274
-15.791125 37.32458 6.2050104
-15.920467 37.11529 6.6038547
-15.947602 37.008057 7.3478713
-15.770709 36.858685 7.8889117
-16.052612 37.79017 5.9198494
-16.36981 37.664192 6.526029
-16.345957 37.626026 7.364333
-15.914344 37.663605 8.107451
-16.134945 38.494564 5.7868586
-16.443802 38.83711 6.216838
-16.421705 38.52502 7.4657316
-16.101427 38.33568 7.9371552
-15.727939 39.591984 5.3212647
-16.04625 39.32062 5.754313
-16.374987 39.222485 6.5157723
-16.143063 39.221657 7.3252797
-16.022707 38.972336 7.831567
-15.640097 40.178196 5.2568173
-15.779314 40.182915 5.693778
-15.799891 40.26598 6.4321113
-15.718321 40.008293 7.16596
-15.627942 40.749363 6.0879207
-14.571589 31.051702 16.787182
-14.718765 30.98718 18.560999
-14.65321 31.053267 19.017796
-14.600712 31.501007 16.655813
-14.8099575 31.406773 18.541857
-14.733984 31.33592 18.967339
-14.726788 33.24912 9.116929
-14.729648 33.26446 9.425822
-14.65272 32.17081 17.579304
-14.740701 32.169304 18.477392
-14.641571 32.07137 18.901814
-14.96605 33.777977 8.831502
-15.107241 33.759964 9.387283
-15.062229 34.033123 9.995681
-14.995512 34.794918 8.349279
-15.243938 34.581707 8.754662
-15.324701 34.324482 9.466833
-15.052871 34.616066 10.129629
-15.301647 35.02807 8.968589
-15.309348 35.02558 9.318588
-14.778713 35.476723 10.237212
-15.444677 37.15526 6.122641
-15.468816 36.788326 6.7325687
-14.829817 36.12684 9.426585
-15.3915205 37.709984 5.6703835
-15.6192045 37.26025 8.375937
-15.089006 37.590332 8.82683
-15.52683 38.594185 5.337182
-15.642652 38.33101 5.4948044
-15.084827 38.794262 8.496904
-15.219054 39.614685 5.008032
-15.618133 39.641075 7.657137
-15.568314 39.31429 7.8895802
-15.196405 40.289974 5.0075903
-15.492536 40.61133 5.494887
-15.525601 40.606636 6.454388
-15.142676 40.305172 7.4507732
-15.068875 39.926662 7.885519
-15.054054 40.82273 5.1616964
-15.187094 40.985283 5.6180477
-15.195386 41.028725 6.207411
-13.83206 30.198408 16.59316
-14.07557 30.259338 17.757727
-14.21608 30.335375 18.5333
-14.025067 30.36331 19.062056
-14.173975 30.779583 16.045023
-14.331635 30.670553 16.487534
-14.3103 30.47142 17.504547
-14.507466 30.595695 18.492819
-14.173912 30.727818 19.268953
-13.827869 31.23304 15.233784
-14.424971 31.44334 19.372976
-14.112801 31.35356 19.641567
-14.328431 33.114082 8.951851
-14.263661 32.947224 9.555457
-14.253916 33.072556 10.114803
-13.858343 32.22136 14.95748
-14.196854 32.0655 15.887347
-14.508928 32.499844 17.052736
-14.359524 32.628532 17.155382
-14.289871 32.3133 19.198711
-13.913588 31.915888 19.58871
-14.264373 33.71329 8.288119
-14.397148 33.47862 8.536974
-14.525499 33.307022 10.15824
-13.943659 33.29634 10.752499
-13.673489 33.23364 15.945047
-14.030563 32.873596 16.710554
-14.158137 33.16592 18.426071
-14.061111 33.033165 18.897131
-14.618043 34.167835 10.578611
-14.317255 34.908623 10.894492
-14.388123 35.950344 7.5614805
-13.897294 35.120495 11.098306
-14.348932 37.075195 6.185141
-14.789549 36.8177 6.424512
-14.240042 36.110126 10.299607
-14.254795 38.142002 5.271389
-14.701195 37.55395 5.687305
-14.425288 37.690624 9.046912
-14.551218 38.64764 5.085105
-14.127238 38.159412 9.063629
-14.360516 39.616962 4.760644
-14.760653 39.21238 8.5515995
-14.226216 39.09994 8.8150835
-14.561757 40.228657 4.754723
-14.539181 40.585953 7.616469
-14.30829 40.301373 7.911959
-14.49321 40.942623 5.0751224
-14.510556 41.2856 5.54604
-14.417731 41.348927 6.376445
-14.370464 41.064407 7.0987988
-13.519555 30.050573 16.467548
-13.369322 30.028578 17.55784
-13.662403 30.160625 18.60982
-13.497856 30.263632 18.923615
-13.0194235 30.491531 15.20336
-13.137934 30.635757 15.304221
-13.443829 30.600803 19.469683
-13.502247 30.96793 19.630743
-13.242605 31.698647 14.400488
-13.629295 31.513264 19.722815
-13.548474 32.96686 8.783497
-13.531603 32.67345 9.461938
-13.658802 32.764294 10.07212
-12.906737 32.680603 13.838395
-13.2857685 32.579987 19.53195
-13.2842455 32.41126 19.613205
-13.428464 33.488068 8.304125
-13.71877 33.312912 8.42456
-13.224987 33.540276 11.356437
-12.57462 33.73685 12.407691
-12.716565 33.225197 13.788225
-13.411715 33.38101 15.323157
-13.32034 33.584988 16.263718
-13.68622 33.47796 17.625595
-13.626338 33.390007 18.680492
-13.288761 33.100662 19.131386
-13.853878 34.188747 7.9460096
-13.367668 34.485203 11.484092
-12.784052 33.953503 15.179371
-13.399418 33.569096 17.672016
-13.340069 33.606464 18.137009
-13.402149 35.36234 11.29401
-12.967811 35.134598 11.808201
-13.826604 36.588108 6.8143315
-13.2635765 35.97677 11.222944
-13.646121 38.078854 5.3074226
-13.3779955 37.768463 5.722832
-13.595996 37.400105 9.843729
-13.508389 38.603786 9.192627
-13.444815 39.4623 4.85807
-13.200125 39.014812 9.130927
-13.712355 40.420803 4.7925897
-13.32775 40.437943 8.106572
-13.706596 41.014362 5.0647674
-13.671094 41.39202 5.577315
-13.3375025 41.45532 6.4439926
-13.287784 40.91805 7.7842665
-13.645658 41.5959 5.9469657
-13.592369 41.57814 6.215307
-12.082632 30.157005 14.834357
-11.980945 30.133217 15.93388
-12.457153 29.993887 16.679031
-12.191847 30.144608 17.76205
-12.4631405 30.263435 18.021854
-12.905264 30.375332 19.051172
-12.530335 30.628666 14.602401
-12.795902 30.696169 19.320126
-12.234309 31.775824 13.629279
-12.559116 31.77163 19.625847
-12.596169 33.05245 8.776404
-12.425057 32.702526 9.693533
-12.448177 32.711998 10.39524
-12.201932 32.963 11.902757
-11.969177 32.699463 12.935553
-12.915322 32.712254 19.368273
-12.62543 31.945591 19.633165
-13.010063 33.756977 8.094443
-12.193372 33.337 8.431694
-12.238099 33.404278 12.708011
-12.877731 33.35984 18.672844
-12.792554 33.160267 18.974802
-11.688415 34.641426 13.749494
-12.335166 33.983727 14.580309
-12.711258 33.874493 16.965128
-12.915991 35.79217 7.2858963
-12.831062 35.829403 7.486245
-12.337874 35.682728 12.378595
-11.780461 35.332657 13.151004
-11.9118595 35.93196 12.556049
-11.881187 35.807846 12.816865
-12.726217 37.85908 5.5452237
-12.444863 37.156246 10.514957
-12.332631 36.845104 10.861848
-12.162188 38.769836 5.372142
-12.22645 39.41375 9.164109
-12.62191 40.674984 5.273493
-12.701627 40.252567 8.546808
-12.2701025 40.211662 8.855652
-12.811249 40.855797 5.284507
-12.702497 41.15594 5.580199
-12.86579 41.37124 6.2399144
-12.182247 41.12849 7.2414074
-12.809982 40.900845 7.9809465
-11.441229 30.094675 14.604551
-11.5414 29.916838 15.434127
-11.432129 29.94025 16.362978
-11.99213 30.293081 18.229944
-11.188731 31.199974 13.16548
-11.620849 31.169962 13.307949
-11.953539 30.465271 18.563288
-12.033319 30.919598 19.122118
-11.114521 32.41458 10.380391
-11.052373 31.501345 12.0651865
-10.90984 31.316856 12.360848
-11.439078 31.22973 18.704714
-11.790503 31.437328 19.15342
-11.518514 32.931553 9.026483
-11.87338 32.73704 10.3737545
-11.6083355 32.512066 12.1755705
-11.507075 32.266 18.664282
-11.648448 33.989273 8.107457
-11.2648945 33.417915 8.399032
-11.64688 33.175377 18.123674
-12.002523 35.658035 7.631599
-11.37446 35.274006 13.457488
-11.403208 34.831875 15.42471
-11.194101 34.762386 16.481123
-10.919438 36.623215 6.294776
-11.3981905 36.353825 12.45515
-10.959956 38.093082 5.446232
-11.360734 37.638527 5.76001
-11.726545 36.91148 11.147619
-11.363724 38.893604 5.3344007
-11.31827 39.264168 9.372497
-10.582523 39.84328 19.043262
-10.594057 39.81654 19.534544
-10.58604 39.994232 19.93513
-11.901609 40.58013 5.6303463
-11.446467 40.37552 8.861882
-10.646058 40.273212 18.9589
-10.6451 40.295414 19.482834
-10.572169 40.141808 19.880638
-11.614315 41.013935 6.788207
-11.568577 40.82614 8.378899
-10.608284 30.28755 13.90244
-10.657641 29.968163 14.615361
-10.3730135 29.92125 15.778408
-10.725023 30.061872 16.493889
-10.25728 30.34158 16.882317
-10.469316 30.969149 12.494808
-10.501832 30.549414 13.24784
-10.466062 30.533474 17.342022
-10.724969 30.852495 17.800968
-9.970964 31.638176 11.299652
-10.565165 31.739988 11.410724
-11.208021 31.493067 18.53273
-10.258475 33.2014 8.923254
-10.71839 32.58837 9.997579
-10.068412 32.434208 10.375773
-10.248676 32.26106 17.826115
-10.655475 33.491837 8.649227
-10.061609 33.818974 17.643066
-10.130237 35.05946 7.8692875
-10.41936 34.23137 17.375084
-10.5483465 35.427647 15.184246
-10.291702 35.339092 16.42098
-10.227915 37.00347 5.8223114
-10.250551 38.068775 5.1526384
-10.532683 37.64176 5.606432
-10.491444 36.93924 10.798006
-10.34696 38.21996 5.205419
-10.12974 38.298935 9.753763
-9.650863 39.173443 17.857199
-9.927361 39.29235 20.094208
-10.792051 39.637875 9.079793
-9.984674 39.840794 18.003775
-10.331977 39.61704 18.687973
-10.449853 39.564835 19.631979
-10.288015 39.736176 20.089684
-10.50035 40.185856 5.642426
-10.078426 40.53883 8.442617
-10.510372 40.48563 18.688908
-10.511676 40.659977 19.692839
-10.320424 40.47151 20.101448
-10.0749445 40.64159 8.22406
-9.838179 40.964157 18.082624
-10.128063 41.148346 18.772467
-10.299243 41.041134 19.46827
-10.034075 41.16496 19.91367
-9.667012 41.77927 19.050447
-10.063665 30.320068 13.756621
-9.460481 30.313553 14.522033
-9.804487 30.157923 15.39094
-10.045449 30.165474 16.271538
-9.938206 30.737358 12.419994
-9.579029 30.578272 13.533542
-10.096773 30.516003 16.999926
-9.696558 32.06505 10.737087
-10.045319 33.05726 9.252557
-9.48481 32.183777 17.433773
-10.058546 32.58407 17.727306
-9.036729 33.433914 8.767819
-9.254948 33.25678 17.522917
-9.5642185 33.55918 17.614523
-8.952928 34.59972 7.76064
-9.824809 33.966385 17.60747
-9.426602 35.486366 16.308748
-8.918046 36.92512 4.8409047
-9.124454 36.376045 5.52233
-9.205644 37.712093 4.7145467
-8.638547 38.590244 2.0431328
-8.641757 38.808983 2.742125
-8.834124 38.61665 3.5709171
-8.817936 37.967705 14.33725
-8.983734 38.182575 15.410407
-9.167278 38.42179 16.507061
-9.373637 38.74705 17.328833
-9.324485 38.530193 18.44618
-9.313504 38.572582 19.252975
-9.411383 39.04165 20.129812
-8.599424 39.43655 2.9598799
[...]
POINT_DATA 5562
SCALARS features_00 float 1
LOOKUP_TABLE default
0.8426484 0.8304692 0.84581745 0.82423687 0.8229635 0.7684599 0.78666276 0.7909887 0.7143264 0.8089931 0.83727545 0.8149986 0.7181393 0.8277594 0.8385168 0.7730195 0.71226025 0.7762809 0.8006568 0.8087915 0.73869205 0.6806373 0.77883947 0.77805483 0.76177555 0.6980504 0.77711964 0.7646787 0.8777769 0.91108245 0.75647795 0.89558506 0.91741884 0.7587567 0.7643806 0.84620464 0.92684245 0.9381014 0.7671584 0.77803314 0.7578444 0.6910845 0.7550882 0.7708627 0.7098072 0.71649665 0.71332514 0.5262936 0.6959727 0.70510626 0.4152128 0.7052837 0.6381769 0.44567874 0.770687 0.7778054 0.48613125 0.76370525 0.6285882 0.5992031 0.7904686 0.79609704 0.76233876 0.61566925 0.531762 0.82006305 0.8159394 0.79820895 0.67711776 0.7865876 0.84715664 0.88211924 0.6714852 0.7105706 0.78278625 0.85465103 0.90701616 0.6000523 0.9335625 0.9439045 0.7243363 0.73494256 0.7260756 0.551929 0.6455244 0.70182157 0.6942135 0.9445708 0.9619427 0.6675461 0.70769596 0.73645514 0.6528266 0.49237347 0.59617984 0.83595824 0.8728236 0.684612 0.50628936 0.3732318 0.42010972 0.45465523 0.53934157 0.3493427 0.5284903 0.5664677 0.29633367 0.65031874 0.26942015 0.76950943 0.42695165 0.33845454 0.81274295 0.5434129 0.45752245 0.8393837 0.8376602 0.80657715 0.68767524 0.641594 0.72855395 0.8317228 0.8527353 0.5264313 0.5428693 0.90813905 0.94382846 0.45175254 0.97008455 0.63259387 0.6658956 0.6829331 0.31322655 0.9080149 0.92571855 0.5555459 0.6213377 0.45111382 0.18295729 0.2654263 0.43238485 0.45736048 0.6764292 0.7974664 0.84109807 0.53027904 0.40634474 0.31665397 0.66241515 0.72040385 0.33422998 0.28900477 0.3009053 0.27714568 0.3993004 0.30024353 0.15132919 0.20895708 0.64984614 0.24238953 0.80559826 0.40332466 0.7816261 0.7652731 0.6773194 0.50642383 0.74876994 0.724873 0.46484914 0.51378894 0.5567293 0.55691147 0.6481124 0.83208543 0.43117708 0.87591124 0.26496032 0.93601453 0.4839784 0.47686487 0.445482 0.18044096 0.08002179 0.85496104 0.9310913 0.4424066 0.399629 0.076829016 0.754418 0.77884686 0.0786565 0.24693927 0.42612746 0.14086866 0.1402542 0.17701933 0.09187647 0.14665401 0.119419195 0.18394151 0.14588797 0.20588133 0.18782258 0.26582438 0.6349505 0.34021088 0.31275654 0.66286314 0.65069795 0.64230984 0.5210906 0.45707455 0.45549804 0.5037958 0.47662273 0.5865727 0.3216092 0.3062408 0.6356016 0.751987 0.18272567 0.265547 0.29735106 0.5788346 0.7256049 0.3125505 0.30779403 0.17498922 0.59902906 0.26033422 0.25912723 0.54270023 0.084900774 0.04719144 0.13032505 0.35276428 -0.017243505 0.1162124 0.038529783 0.018137127 0.17489389 0.13115962 0.20309928 0.7406635 0.7676087 0.7798234 0.5362314 0.292396 0.74679923 0.7769995 0.7824226 0.5025041 0.32938057 0.440538 0.4895522 0.5072493 0.46433848 0.44225264 0.3356389 0.4044398 0.42118526 0.4280342 0.19830862 0.20081195 0.50835675 0.1139167 0.1892158 0.15574494 0.32748973 0.15982684 0.32019472 0.013043083 0.35191685 0.17636389 0.4088996 -0.023578465 0.03969881 -0.00075015426 -0.031549238 0.052185357 -0.18196678 0.5296439 0.7279976 0.2285663 0.6095325 0.7017312 0.756081 0.7669198 0.26186225 0.29306707 0.7311584 0.77894545 0.778249 0.30399147 0.6588071 0.74170625 0.7781637 0.78056884 0.7143507 0.46778178 0.50548327 0.52431655 0.48410094 0.34645438 0.47341558 0.4311177 0.16110185 0.10303307 0.37742603 0.31427982 0.06284955 0.34069988 0.3361706 0.08692812 0.33976397 0.47712845 -0.09559137 -0.04953269 -0.086361304 0.18919146 0.19494133 0.09840811 0.08566286 0.106812716 0.17967615 0.37132418 0.5934047 0.6493689 0.65397674 0.22510576 0.21366453 -0.15168366 0.1219779 0.16397981 0.25885382 0.4058812 0.72047806 0.6930655 0.1762832 -0.013772965 0.5322624 0.75174683 0.7298855 0.47699362 0.4775743 0.47611076 0.16246393 -0.03393818 0.60453117 0.66667855 0.7410557 0.48803192 0.15464948 0.25578386 0.5967872 0.62477803 0.6697896 0.69680107 0.5171658 0.5426009 0.42463908 0.41777128 0.4466108 0.49430072 0.5112921 0.14736992 0.16201721 0.49013025 0.47095716 0.12866159 0.13229382 0.39925575 0.52055687 0.09198871 0.50490606 0.47510773 0.50357014 0.5349196 0.061791986 0.09168312 0.37822926 0.43372357 0.21501932 0.14975493 -0.07228633 0.35594714 0.043580115 -0.078235164 -0.013326824 0.11147514 0.0954075 0.119283915 0.25186092 0.3536978 0.15565743 0.16030677 -0.34929526 -0.007999513 0.08809469 0.5133129 0.41243303 0.21727458 0.23965937 0.25068527 -0.33939537 -0.32134458 0.0162291 0.09461396 0.27498913 0.2891026 0.33094501 0.3767965 0.3375474 -0.1408914 -0.14441967 -0.15078603 0.0043637455 0.09020722 0.13253021 0.12869298 0.61726576 0.4488858 0.46402135 0.43342173 0.4408967 0.44714317 -0.15560317 0.07042006 -0.00055217 0.04688678 0.28227657 0.63505423 0.5363152 0.4645085 0.49783638 0.4937498 0.48762617 0.38363567 0.18891197 0.20931405 0.5193842 0.5304503 0.55594116 0.5937151 0.48244268 0.4808846 0.469586 0.13526715 0.21492788 0.3009043 0.41554832 0.44656533 0.5381825 0.5731503 0.3985003 0.42931414 0.5253422 0.5621828 0.59126467 0.4215032 0.41116703 0.42794025 0.48261407 0.53529423 0.5658787 0.42131564 0.41903102 0.42012385 0.47332847 0.70242405 0.7171811 0.7097374 0.6928959 0.7037611 0.70414114 0.7314575 0.7226536 0.7375519 0.74879885 0.69683266 0.71951365 0.6735183 0.65610313 0.61993754 0.6126738 0.61983484 0.55529404 0.5537014 0.5718672 0.37600595 0.41761148 0.28467697 0.35064393 0.34311256 0.7115096 0.7506113 0.77963257 0.6539434 0.6331734 0.5531701 0.50929415 0.5373837 0.5413975 0.13839017 0.061394956 0.076971285 0.07032479 0.25399297 0.4060071 0.7307542 0.7696035 0.8199227 0.64923906 0.6007284 0.51139605 0.4279157 0.2389442 0.46534345 0.5493387 0.5669614 0.54755026 0.08016947 0.10255418 -0.1345907 0.17822623 0.26742607 0.31658593 0.7405629 0.8138225 0.8690281 0.6015984 0.53545165 0.43703884 0.3709188 0.2702961 0.3526995 0.50896347 -0.008509614 0.16245499 0.059095033 0.52604663 0.46325034 0.33422908 0.14647269 0.019665256 0.1704166 0.38415393 0.35528484 0.24996835 0.0015916424 0.09374356 0.07439149 0.08654496 0.27138162 0.35624745 0.27862772 0.21850453 0.101601705 -0.07631309 -0.012073673 0.30170625 0.32760608 0.24939078 0.084564224 0.08232267 0.09091234 -0.025700219 -0.018325955 0.28995976 0.08655801 0.10909256 -0.16102663 -0.3360399 0.29793996 0.14984827 0.23732679 -0.04024996 -0.27651906 -0.23024344 -0.024305351 0.07067495 -0.046970047 0.4207125 0.31993276 0.2528791 -0.023108691 0.32255584 0.38512537 0.36080426 0.38955784 0.42236853 0.3523605 0.51391697 0.24047221 0.37301993 0.3665472 0.31800577 0.35427526 0.3543414 0.2386958 0.57963765 0.32827196 0.41315907 0.45269966 0.30870768 0.35157382 0.59089667 0.5835475 0.46851793 0.47988796 0.37107822 0.3890283 0.5002389 0.5628367 0.43005913 0.4096763 0.38230813 0.46682054 0.47372392 0.4129163 0.39569542 0.37094063 0.48364457 0.49778494 0.6294054 0.64554214 0.53463346 0.5838038 0.6111976 0.6104685 0.65352273 0.61262083 0.6591363 0.69038963 0.6833066 0.67817664 0.684039 0.71826327 0.629049 0.67171293 0.6536953 0.77699393 0.7756312 0.7570383 0.82359314 0.55733395 0.62224984 0.6072875 0.8383544 0.8571828 0.55043864 0.57447714 0.5215779 0.45288834 0.48835915 0.5069195 0.53424454 0.36695394 0.39657882 0.45870775 0.34624714 0.43212205 0.5697624 0.4538839 0.37605155 0.45308697 0.8370526 0.85481393 0.51168084 0.59838474 0.64159757 0.7123786 0.7718599 0.8004923 0.8199227 0.5404217 0.30055058 0.64612955 0.71332324 0.768641 0.7876898 0.7868848 0.625183 0.61399174 0.5484778 0.1403004 0.44023794 0.47547254 0.50382036 0.1226902 0.05313026 0.5869423 0.66899556 0.8114679 0.821429 0.5634768 0.63323855 0.20874794 0.16850856 0.5058386 0.39322352 0.06777676 0.08668882 -0.18820104 -0.19834524 -0.08847061 0.18888962 0.7102491 0.8973508 0.8806274 0.559639 0.1045832 -0.19479093 -0.055223346 -0.059311546 0.7649512 0.89121914 0.906502 0.4810071 0.5136357 -0.056981884 -0.1727413 -0.120292746 -0.09582978 -0.081428245 0.19684428 0.38384822 0.37318063 0.079470605 0.06121896 0.34444875 0.3342724 0.28667292 0.03435671 -0.08031456 0.34026545 0.36243436 0.23832545 0.1601044 0.09584778 -0.018313427 0.30333042 0.21216252 0.14489594 0.2085459 0.20689586 0.19114774 -0.27117723 -0.38512367 -0.05595635 0.08371101 0.22226349 0.21972492 0.17823635 -0.15940273 -0.24001223 -0.112693995 -0.08186424 -0.24428126 -0.0013478622 0.07953077 0.22450832 0.17986025 0.21188262 0.32229203 0.029301897 0.3892484 0.16312784 0.23353663 0.18959716 0.24327764 0.17867535 0.24212795 0.19112603 0.27507216 0.29225808 0.2867884 0.38356113 0.26192796 0.47101045 0.39189798 0.47674426 0.48178017 0.46470815 0.47273278 0.49797386 0.49398422 0.4340655 0.29346046 0.3493601 0.45767665 0.43617058 0.41436034 0.38960725 0.4647032 0.42979783 0.7051837 0.72167826 0.7200733 0.6565411 0.70458925 0.70443714 0.6857406 0.6656507 0.5897124 0.6234015 0.56298566 0.54116154 0.40364337 0.42140067 0.4589581 0.59424454 0.5202273 0.4721905 0.42471787 0.44653702 0.52394134 0.6050576 0.53786814 0.5415742 0.54190046 0.22050546 0.46100444 0.6622969 0.7928724 0.57814324 0.6151054 0.84012353 0.53891194 0.7855192 0.88515365 0.44870457 0.79325473 0.8192334 0.86943924 0.92633134 0.18704878 0.49135414 0.3153473 0.40955037 0.14799589 0.36125052 0.24167484 0.29270428 0.37115264 0.36623794 0.20865028 0.29725668 0.41294307 0.8359778 0.8903937 0.87923443 0.8550731 0.37058204 0.37434247 0.2515124 0.25314927 0.37898418 0.42577502 0.5108235 0.45786783 0.577552 0.6587578 0.81907535 0.48088223 0.34966305 0.35713735 0.3108431 0.10662052 0.5547649 0.46945846 0.7863611 0.77616763 0.53170574 0.5521869 0.41421825 0.4166894 0.427136 0.09818283 0.13696182 0.0442784 0.39037898 0.7980069 0.5182621 0.29597574 0.046210118 0.10828525 -0.0066162795 0.85043573 0.4482368 0.11898267 0.040097214 -0.13337263 -0.16095832 0.44856122 0.6019068 0.87138045 0.8795492 0.37501392 0.37032318 -0.09640028 -0.15246649 0.55255824 0.86133915 0.8862287 0.32817417 0.35490662 0.0069630966 0.15295275 0.21969287 0.37542737 0.29387838 0.3518609 0.3248942 0.1805626 0.18849514 0.17576307 -0.009143285 0.20306513 0.22480534 -0.5149328 -0.22940147 -0.0039085895 0.22813886 -0.10546831 -0.352103 0.35288766 -0.15063053 -0.08806925 0.19988817 0.1791842 -0.23337749 -0.09901909 0.16104469 0.3187595 0.30934358 0.2308431 0.13178718 0.15423971 0.20172293 0.024008214 -0.103948176 0.3091187 0.3370394 0.26968324 0.39792514 0.46154532 0.47928602 0.47365946 -0.029642448 0.30417863 0.45134977 0.46786708 0.44530284 0.38521487 0.32188928 0.36587092 0.42254984 0.48647827 0.5194072 0.45906913 0.479611 0.4576641 0.42600983 0.48108727 0.5107159 0.666722 0.6839014 0.6271265 0.6584171 0.70598257 0.6890833 0.6391184 0.59381855 0.3730376 0.414501 0.40986276 0.3394377 0.4663696 0.6445734 0.3682465 0.25890386 0.19531642 0.16878164 0.80001163 0.45420954 0.07005363 0.85135734 0.8757647 0.087905794 0.08597566 0.6628555 0.92023987 0.9063937 0.27060848 0.2961935 0.6612913 0.673891 0.7216697 0.9293736 -0.106839895 0.07362407 0.26674438 -0.020125013 0.16588998 0.18811582 0.29031384 0.36620867 0.04940951 0.079877205 0.070949756 0.33845118 0.74846494 0.82731485 0.8365524 0.8146298 0.2983278 0.3488032 0.3763191 0.3567101 0.004921913 -0.021608122 0.4070458 0.454076 0.5565955 0.7536037 0.22952639 0.03557577 -0.056907848 0.1163256 0.41894317 0.4704882 0.6990781 0.7426599 0.41844404 0.40750086 0.30972117 0.73890257 0.43183014 0.2513013 0.24820179 0.08757046 -0.11104928 0.77554893 0.40075624 0.44254833 0.039800916 -0.18254301 -0.11203559 -0.14188588 0.24081461 0.80594456 0.30800965 -0.33443534 -0.27402964 -0.07249203 0.28922117 -0.2496305 -0.14689666 0.24592492 0.16060978 0.2753404 0.52786267 0.44399238 0.32154205 0.2313853 0.24720585 0.23777103 0.50608855 0.3972473 0.31291744 0.17661554 0.2785956 0.14636372 0.10154566 0.15765059 -0.048484802 0.26968777 0.1805644 0.06049189 0.24818254 0.3626337 0.31356052 0.2897057 0.19154947 0.17752448 0.15396944 0.042492818 -0.08702211 0.03340552 0.097693846 0.26477486 0.36003265 0.37246406 0.34302682 0.32637113 0.20904747 0.18162236 0.14143354 0.19006588 0.22695088 0.24507059 0.10853526 0.1902026 0.07940075 0.25449628 0.2807706 0.24971819 0.37709722 0.34472123 0.43327838 0.41436344 0.14228308 0.5453254 0.5336336 0.7427818 0.80043626 0.8392252 0.2679697 0.3634106 0.41383588 0.4151371 0.35511595 0.37738314 0.4346515 0.50382316 0.55980265 0.61421 0.7020674 0.78318274 0.8718613 0.8966873 0.8840656 0.418202 0.41666222 0.43326926 0.5069469 0.58582395 0.71087915 0.8132792 0.9185762 0.9318305 0.87685645 0.718976 0.8597997 0.98033154 0.9315808 0.8799306 0.9568319 0.93874323 0.630409 0.63215065 0.5810358 0.610453 0.6554164 0.57668746 0.3988142 0.40093565 0.4679206 0.36705363 0.40257102 0.41634136 0.2942441 0.4638002 0.08606897 0.53571784 0.64106965 0.7450434 0.8073512 0.834226 0.06303789 0.10367853 0.8794539 -0.029435143 0.045762654 0.5409744 0.7576555 0.8841543 0.87996054 0.52962935 0.11763122 0.070965454 0.0089556165 -0.057580285 0.08595942 0.57213765 0.5163834 0.36536133 0.09000474 0.049245976 -0.06030908 0.100238755 0.14473931 0.55189717 0.42317867 0.19717133 0.064758755 0.0046663694 0.031190015 0.44391203 0.24286187 0.3157482 -0.0010338277 0.3125966 0.6704793 0.67362696 0.65775007 0.17356026 0.2894782 -0.095340066 0.2553934 0.42695367 0.5641223 0.59823424 0.6443416 -0.10712522 -0.094528295 -0.14266573 -0.04583624 0.3264171 0.4015474 0.41456348 0.5345932 0.3353246 0.30330214 0.22354637 0.3687368 0.37242848 0.3860957 -0.32661474 -0.04780113 -0.32295153 0.047333725 0.1632642 0.08668938 0.08902737 0.30937934 0.5351114 0.36236024 -0.12547094 -0.2579016 -0.2423474 -0.19841415 -0.36008188 -0.29137805 -0.22683084 -0.21384498 -0.21470705 0.048455372 0.17122231 -0.08620822 0.053049512 0.5540066 0.5399113 0.39420897 0.32440317 0.15055811 0.30333284 0.3191053 0.57388604 0.55853915 0.43021518 -0.047947302 0.29088673 0.33930337 0.3556298 0.5538003 0.55696046 0.520933 0.3365752 0.3449047 0.52258724 0.47799152 0.37077376 0.21823291 0.12833026 0.111243434 0.02494461 0.17319989 0.17938334 0.27793223 0.46119702 0.20354483 0.119654834 0.117551245 0.18710902 0.09299267 0.19462566 0.22414374 0.20319633 0.07789627 0.29695222 0.24384615 0.02211529 0.08821553 0.16027308 0.31376877 0.29105926 0.12808503 0.110361174 0.35563838 0.29523575 0.24088684 0.110316545 -0.08542803 0.17329103 0.3075882 0.39758098 0.40404367 0.37395528 0.3677032 0.3205528 0.37429476 0.21072343 0.07791376 0.4002712 0.40863362 0.4009236 0.37472826 0.33501247 0.32811317 0.24559718 0.422752 0.28825518 0.5894321 0.47275448 0.69676596 0.7687042 0.81080985 0.21939182 0.32574326 0.32777485 0.33009085 0.24835825 0.12507477 0.3216527 0.66225314 0.851917 0.36770326 0.37834316 0.36384523 0.46775398 0.56918025 0.6735201 0.76233125 0.5364716 0.61755776 0.8129822 0.56615156 0.64213574 0.821666 0.79014117 0.72362685 0.8355783 0.9431677 0.8882087 0.61097795 0.4790385 0.5464745 0.5986787 0.54930747 0.43297845 0.43594277 0.3210829 0.4000945 0.42483956 0.43485576 0.21923494 0.5052399 0.5355046 0.63786876 0.69238627 0.7783904 0.2088587 0.77336705 0.8119765 0.25762597 0.18003237 -0.0146491155 0.028505161 0.7638385 0.796232 0.84278226 0.16219667 0.1707086 0.8103577 0.84308237 0.5697957 0.57776386 0.5291761 0.59243107 0.5938839 -0.052805007 0.57807255 0.10663505 0.08594482 0.33568856 0.23520783 0.5601441 0.5275229 0.55863136 0.09642191 0.14716977 0.18453845 0.535683 0.4913904 0.4707455 0.45243868 -0.00035160407 0.1318324 0.28279233 0.40679082 0.4316268 0.3908824 0.40886298 0.004968405 0.04751023 -0.3475674 0.20578223 0.29379183 0.284813 0.25733534 0.20653701 0.40651995 0.2745708 0.15147434 -0.29485536 -0.4153029 -0.18100052 0.23476233 0.29091007 -0.04541249 -0.18926078 -0.02198264 -0.25027955 0.3690759 0.0421888 -0.116276376 0.4863028 0.4440168 0.36994803 -0.063751474 -0.1022029 0.003998 0.27215797 0.53647536 0.5222844 0.50640374 -0.0018504136 0.1434494 0.23003054 0.31864977 0.33808845 0.34629995 0.5565122 0.5555999 0.3584463 0.35654548 0.56131756 0.34810054 0.3662755 0.545068 0.51589316 0.20976995 0.23696105 0.3121804 0.5750526 0.53318435 0.38610715 0.1249103 0.19635835 0.5694437 0.42433125 0.37186146 0.2529837 0.024285669 0.02614608 0.010278046 0.26930514 0.2930287 0.02249664 0.12418974 0.30033308 0.33590028 0.36991775 0.12416564 0.20107263 0.24490532 0.14763066 0.39872482 0.4099385 0.38966638 0.31397262 0.28526524 0.39521447 0.41315767 0.3921954 0.3753159 0.36646414 0.19018337 0.11204511 0.36077166 0.36801708 0.33104867 0.20911613 0.2531024 0.50542724 0.4196141 0.39385337 0.3626676 0.3423764 0.14048132 0.34969267 0.3683206 0.061651435 0.13260692 0.5860714 0.5160974 0.18558908 0.26767004 0.27018097 0.19777775 0.12744674 0.71735775 0.5225902 0.80054104 0.32656246 0.33272755 0.22764497 0.49296302 0.65123206 0.84360635 0.8345147 0.50022024 0.7186532 0.7201073 0.7841057 0.84971666 0.5250065 0.5786075 0.6964109 0.68999916 0.5215505 0.5934856 0.771924 0.8949108 0.8451975 0.42709017 0.45998263 0.32097784 0.23221335 0.42394918 0.4477043 0.43504095 0.2895882 0.21722318 0.46923673 0.16264898 0.5177533 0.23575805 0.45039383 0.57340515 0.67391276 0.25173742 0.7002997 0.72938925 0.2191616 0.13997445 0.7429454 0.42263594 0.3612861 0.24756864 0.22020635 -0.20813228 0.019142076 0.5088093 0.49186283 0.3952916 -0.26375303 0.53038156 -0.24152657 -0.14317462 -0.12216194 0.42986625 -0.098257914 0.14929333 0.31188726 0.20984991 0.088797145 0.51487106 0.4297548 0.39318395 0.20463668 0.0996217 -0.008781508 0.15688163 0.25864255 0.26204976 0.25267577 0.25693226 0.38286346 0.37925354 0.32102472 0.15021402 -0.096103035 0.09583416 0.2599436 0.17973077 0.30742332 0.004231371 -0.008301362 -0.34857252 -0.04478281 0.23255394 0.31582466 0.2588453 -0.023857452 -0.037524827 0.037179857 0.44138283 0.35073552 0.22888352 0.39456528 0.49897587 0.45541164 0.36351734 0.36450928 0.52026725 0.37556413 0.41198596 0.5519647 0.5584778 0.4296045 0.61930966 0.58978486 0.27159375 0.3038236 0.70399684 0.64667535 0.19840588 0.6760897 0.6005275 0.4877522 0.06702802 0.5960439 0.49172664 0.40465623 0.26099804 0.28874403 0.32749477 0.3669787 0.06346297 0.18327777 0.2836708 0.16136065 0.37796003 0.39833483 0.3538905 0.35726002 0.3867498 0.11489639 0.28666365 0.27470824 0.29231325 0.2597204 0.34251934 0.40864635 0.4265023 0.44544223 0.39974314 0.35995683 0.21486458 0.4851946 0.16487677 0.18165857 0.19567567 0.17957506 0.08794081 0.0009327531 0.68584114 0.47708654 0.63413954 0.8322071 0.44244257 0.53809357 0.7216433 0.7800231 0.83769983 0.39853117 0.56612784 0.49756274 0.45934373 0.55289793 0.38350424 0.40618953 0.26414874 0.4236266 0.38387263 0.22005676 0.10028117 0.3872133 0.43966877 0.4475751 0.33742273 0.3048621 0.283656 0.2693435 0.26560888 0.32810336 0.39569497 0.25807112 0.34782112 0.20009968 0.22329879 0.118439935 0.29686427 0.2881539 0.102414414 0.43129814 0.34970683 0.34265524 0.4231702 -0.028381191 0.11094953 0.3243395 -0.012326967 0.031408243 -0.08375439 0.35292253 0.32623327 0.208945 -0.019593325 0.35679242 0.3342523 -0.09447648 0.3776881 0.3448323 0.28982323 -0.1634094 0.033627793 0.12206169 0.19628583 0.22836936 0.2029979 0.1981493 0.16427419 0.16495727 0.3768251 0.37021077 0.3287725 0.30550653 0.29171437 0.17521593 0.28241354 0.27876884 0.015877282 0.27578893 0.2509795 0.268627 0.23934555 0.374034 0.34633052 0.37022892 0.4708953 0.48626477 0.4607104 0.42794627 0.48350096 0.48489958 0.46009326 0.5177715 0.44480327 0.46830225 0.6574587 0.41970214 0.71463203 0.27675024 0.67259717 0.6600276 0.16680565 0.61776614 0.59897673 0.4788823 0.3302119 0.15177181 0.2496993 -0.28521577 0.17444196 0.21450862 0.24737826 0.27046105 0.27734247 0.18779477 -0.13124412 0.4543514 0.45160854 0.30196694 0.30580118 0.24574074 0.22062021 -0.08529886 0.45138034 0.42458305 0.43392915 0.12853923 0.23434298 0.21550351 0.20507975 0.20142382 0.0522914 0.09686583 0.116120264 0.44056684 0.44684213 0.46806103 0.22765057 0.23467329 0.16840506 0.25595412 0.2641732 0.1874755 0.068423465 0.065676615 0.066038474 0.32149893 0.5606283 0.5126457 0.63552344 0.705816 0.7718612 0.80078185 0.37344146 0.7581804 0.8000599 0.2687577 0.39170477 0.36240113 0.38973206 0.47394228 0.49198246 0.41193697 0.5560496 0.4878546 0.26802224 0.15088743 0.334771