# vtk DataFile Version 2.0
Really cool data
ASCII
DATASET POLYDATA
POINTS 5373 float
-0.74790925 89.09163 10.946322
-0.8616468 89.17483 11.491153
-1.0088172 89.86866 10.7540655
-1.1885384 89.801765 11.486128
-0.98374313 89.76863 12.184172
-0.78912735 90.497154 10.266065
-1.0685568 90.53717 10.762086
-1.2809255 90.49893 11.443309
-1.0992701 90.46132 12.109951
-0.91083384 91.12259 10.785437
-1.045998 91.14097 11.435773
-0.91643524 91.01507 12.203539
-0.74319077 91.653145 11.453473
0.037868947 88.032486 11.583325
0.004384488 88.22701 12.088523
-0.023666352 88.954994 10.101219
-0.21466607 88.68235 10.563549
-0.33896214 88.487686 11.564248
-0.3593957 88.770065 12.353113
-0.17352635 89.11006 12.696893
-0.19854954 89.65636 10.021207
-0.5732806 89.27589 10.432393
-0.53686523 89.502 12.543741
-0.05881223 89.69609 12.96982
-0.25471565 90.621216 9.935899
-0.6404437 90.75696 12.608735
-0.3665753 90.5138 12.861977
-0.062783346 91.334145 10.088874
-0.43789166 91.37544 10.413552
-0.35521138 91.45572 12.439589
-0.05815658 91.29388 12.806927
-0.24708204 91.80951 10.939028
-0.27290714 91.863976 11.466063
-0.1381353 91.84575 12.06422
1.2336835 82.16773 13.759763
1.3083471 82.19915 14.377326
1.2972846 82.61565 12.754575
1.0984985 82.55121 13.594893
1.1075096 82.64356 14.359724
1.3153418 82.75875 14.839302
1.2972527 83.34009 12.83078
1.05584 83.347084 13.673568
1.1301072 83.37269 14.406186
1.3029892 83.17138 14.812338
1.361342 83.88587 13.202508
0.93374866 87.44516 11.098764
0.7105417 88.24409 9.941927
0.69659114 87.90966 10.389495
0.57653445 87.69381 11.162605
0.47421482 88.740166 9.924134
0.9817903 88.28916 13.308107
0.65523434 89.59163 9.651843
0.5752423 89.475204 13.293375
0.5358914 90.47928 9.650063
0.6839003 90.09045 13.274896
0.36060503 91.243835 9.845355
0.48108503 91.82089 10.404823
0.47059745 92.081764 11.45348
0.5171302 91.972 12.295715
0.67319536 91.6647 12.814013
2.1799629 81.37123 12.651772
1.9731766 81.8359 12.011244
1.8853812 81.675095 12.506453
1.7272587 81.71596 13.516882
1.6982534 81.93272 14.362105
1.7146003 82.13997 14.724449
1.9509609 82.381516 11.7594595
1.5361178 82.478485 12.335779
1.6305947 82.61844 14.962551
1.8496202 83.039566 11.880673
1.5483732 83.50544 12.479
1.3995514 83.63636 14.674276
1.5095029 83.350815 14.908245
1.8076947 84.32743 12.681789
1.6868778 84.37483 13.181042
1.5060452 84.02725 14.350581
1.8148984 84.00212 14.863384
2.1646407 87.214355 10.325329
1.235673 87.91788 10.0684595
1.7851866 87.38895 10.399281
1.2901452 87.697426 12.562848
1.2707541 88.46686 9.754102
2.4676352 89.13184 16.219736
1.905389 89.67029 9.474279
1.4239987 89.66031 9.516717
2.151119 89.70288 14.277709
2.354168 89.80176 15.9661045
2.3550012 89.59567 16.512056
2.003754 90.11581 9.457399
1.4146287 90.70442 13.170203
2.4268796 90.3942 15.696805
2.3308291 90.02638 16.346327
1.0542176 91.4915 10.084193
1.7768638 91.28352 10.37066
1.2898146 91.27816 12.894244
1.2006197 91.81862 10.699466
1.2420568 91.95138 11.240668
1.0894951 91.73584 12.679292
2.5421095 81.38891 12.071284
2.6818693 81.28055 12.584383
2.3797917 81.37852 13.338974
2.483525 81.701904 11.7899275
2.2967868 81.76103 14.3491535
2.264362 82.09908 14.861718
2.6523051 82.50276 11.379819
2.309509 82.455215 11.497409
2.422985 82.61382 15.18281
2.652719 83.27908 11.384036
2.6024323 83.570366 15.3061495
3.081056 84.79292 11.520612
2.8254793 84.17748 15.225793
2.91829 86.29368 11.033945
2.6689796 85.17522 12.120104
2.4487453 85.319405 13.769795
2.7921836 85.63115 14.530094
2.7176142 84.8727 14.939502
2.7764268 86.65059 10.677801
2.4324188 87.18135 13.046572
2.7076287 87.65626 9.725826
2.570361 87.916504 13.48669
2.942102 87.3647 13.90848
2.6506772 88.51118 15.840754
2.6963747 88.73516 16.412413
2.8978822 88.99831 17.291903
2.8344812 89.47359 9.438532
2.4744442 89.7553 14.123625
2.629996 89.65009 17.137012
3.0446584 89.53927 17.720188
2.5763462 90.282776 9.509919
2.7041147 90.29053 15.02637
2.5231113 90.29792 15.114098
2.472396 90.54362 16.37956
2.7766876 90.52337 17.294472
2.979524 90.24486 17.731514
2.7324164 91.42868 10.999081
2.8880856 91.40775 11.742283
2.3868244 91.350685 12.471289
2.5015314 90.79102 13.421309
3.3279715 91.70094 14.651933
3.224023 91.488945 15.290016
2.9044945 91.14559 16.650848
3.0932722 91.05185 17.233139
3.4020998 91.75359 15.70414
3.1919467 81.40297 12.070106
3.1718545 81.29463 12.616634
3.3933225 81.35119 13.214815
3.1788952 81.68557 11.744894
3.6746461 81.64194 12.266638
3.275631 81.67571 14.137666
3.3202376 82.42729 11.419498
3.6967368 82.56133 11.489524
3.883295 82.3496 14.946276
3.4225583 83.54036 15.412112
3.4792233 84.6146 11.328078
4.041406 84.84823 15.683375
3.9050088 86.02603 10.584712
4.2187014 85.64945 16.064379
3.4911404 86.77607 9.90477
4.099417 86.80273 16.668764
4.4201026 87.00554 19.89024
3.3478699 87.93609 9.41696
3.682321 87.69862 9.550974
3.6320033 87.51313 15.518663
3.6276946 88.173065 17.625704
4.2271023 88.15697 17.990196
4.459145 87.378784 20.566534
3.42972 88.529526 9.310618
3.4671133 88.919716 17.914219
4.4471183 87.94383 20.366282
3.507303 89.490685 9.388396
3.4960868 89.94488 9.401817
3.369757 90.35462 9.71212
3.382271 90.70534 17.695238
3.5598717 90.8467 10.229335
3.40294 91.0644 10.393647
3.003557 91.50539 11.423739
3.6207936 91.20742 17.444244
3.4343305 90.789764 17.737532
3.5933769 92.10938 14.486309
3.5740871 92.11411 15.603825
3.8079216 92.20315 16.354565
3.8489122 91.90159 16.790564
4.1799 92.760544 14.919478
4.1329527 92.81257 15.645955
4.1450796 92.736855 15.986889
4.2274785 97.05718 4.2204456
4.245628 96.64289 4.525303
3.9217565 96.78548 5.264011
4.0943594 96.79408 6.1795897
4.3105187 97.6792 4.079209
3.9183805 97.57889 4.676269
3.636877 97.51344 5.584715
3.923121 97.53506 6.4499526
4.317969 97.471725 7.0575104
4.2208843 98.11527 4.256169
3.954485 98.37179 4.7786894
3.6501215 98.27584 5.4955745
3.7528195 98.37126 6.0965486
4.3632755 98.02023 7.1168733
4.051839 98.85272 5.029118
3.9481182 98.91602 5.618105
4.1101813 98.92108 6.133719
4.431765 100.74861 9.81161
4.2712584 114.294365 14.404561
4.1100583 114.76731 14.019167
4.0073147 114.75416 14.489774
4.1958566 114.70512 15.20211
4.119764 115.34845 13.768306
3.8728428 115.34187 14.493497
4.062968 115.46554 15.206274
4.04243 116.52862 13.720222
3.830568 116.639496 14.605086
4.1583085 116.74815 15.232258
3.9968693 117.444115 13.84415
3.9327757 117.51582 14.377711
4.0675216 117.36171 15.026145
4.133858 117.98871 14.0066
4.158083 118.047 14.501357
4.191381 117.88382 14.934251
4.5130677 81.756454 12.408823
4.856353 81.72814 13.126468
4.221019 81.82714 14.0915
4.368142 82.50771 11.61649
4.6181383 82.70045 15.231055
4.7247744 83.61801 11.178782
4.431458 83.25176 15.348393
4.8640566 83.67643 15.652364
4.649214 85.90395 9.88964
5.2284927 86.14792 18.522078
5.0441966 86.03958 19.355646
5.0157704 86.1536 20.522766
5.1108375 86.24887 20.813873
4.5717483 87.09822 9.203822
4.7623806 86.49527 9.45712
4.8184237 86.5517 17.51876
4.633047 86.63062 19.927528
4.6314697 86.765236 20.579618
4.8467712 86.86289 21.135035
4.9329886 87.831345 9.096183
4.595115 87.53361 18.254599
4.5131736 87.25299 20.755419
4.7882123 87.42376 21.175491
4.6697497 88.44528 18.883022
4.5646462 88.0214 20.427507
4.9001794 88.07474 21.068619
4.3593593 89.10638 9.216711
4.7330723 89.79826 18.34667
5.1859336 89.18049 20.566164
5.1386127 88.797844 20.841318
4.602135 90.21653 9.926604
5.2145195 89.92002 19.308353
4.279523 90.6596 10.237331
4.3844175 90.690346 10.494198
4.352409 90.832985 11.513818
4.413012 91.207375 12.641357
4.516226 91.32553 17.384062
4.5327973 91.75891 12.948217
4.755529 92.41867 13.7255335
4.3153524 92.60437 16.35977
4.449352 92.06608 16.850147
4.325398 92.885025 15.05574
4.7950234 93.05555 15.388789
4.5095725 92.696205 16.187607
4.9432497 96.06548 4.0063376
4.726432 95.95058 4.574016
4.700466 95.864746 5.3270626
4.8637986 95.88358 6.174896
5.095638 95.98204 7.0037646
4.9634957 96.40179 3.749576
4.4339013 96.35138 4.258559
4.407109 96.361145 6.3951936
4.6744537 96.69649 7.095495
4.6761317 97.53761 3.8239334
5.0864077 97.857254 8.103577
5.2277207 98.20703 9.035718
5.1807365 98.231415 3.9246354
4.6622343 98.25636 7.565623
4.9386826 98.79984 8.687543
5.1660714 98.73047 9.245832
4.5641437 98.95551 4.7403526
4.4950976 99.23573 5.464603
4.661779 99.83691 7.8383436
4.7416844 99.38444 8.537841
4.6631355 99.79841 9.356955
4.9403276 99.83464 10.202437
5.1493917 100.313614 6.678622
4.6852093 100.52053 8.484847
4.5306344 100.61029 9.38289
4.655071 100.538895 10.257986
4.9140005 100.72198 10.812797
5.1937327 101.02049 7.7019854
4.7948422 101.33187 8.682119
4.618829 101.37133 9.588177
4.7505655 101.28514 10.35829
5.1828527 101.465454 10.892275
5.2372627 102.13161 8.895595
5.0230207 102.04188 9.467991
5.1199803 102.05217 10.163381
4.6772423 114.09391 14.047254
4.705863 113.93152 14.483036
4.811143 114.03251 15.255698
4.549201 114.47073 13.755687
4.557006 114.43739 15.406874
4.7768846 114.7075 15.727682
4.646219 115.574265 13.301538
4.463708 115.1931 13.499353
4.768976 115.50879 15.792602
4.476986 116.63045 13.272354
4.952758 116.02059 15.939513
4.9454165 117.35949 13.005995
4.360832 117.662094 13.417307
4.4905057 117.54401 15.453639
4.977393 117.438034 15.761109
4.603458 118.22392 13.686455
4.4720345 118.36234 14.45316
4.7485185 118.3117 14.987891
5.0350494 118.7256 14.418105
5.090635 82.11461 11.996899
5.3143935 81.93873 12.560194
5.355988 81.78607 13.620049
5.3959885 81.94432 14.134567
5.0708365 82.236786 14.908568
5.3789935 82.49299 11.721618
5.401824 82.73771 15.289429
5.7594604 84.05006 16.077036
6.1960726 84.31184 17.448639
5.5751486 84.65287 10.173396
5.805622 84.79781 17.602562
5.9599576 85.40412 19.551304
5.7803397 85.505775 9.757952
5.4378066 85.54726 17.98686
5.574539 85.632835 19.354595
5.818277 85.72624 20.357553
5.4253483 86.239975 21.078934
5.359985 86.66829 9.177185
5.423573 86.69447 21.404375
5.552765 87.00898 21.58513
5.6961603 87.49151 8.9454975
5.5378118 87.52132 21.651035
5.4988747 88.41668 8.973657
5.5836015 88.41118 21.363216
5.576692 87.98206 21.64689
5.880113 89.387054 21.081196
[...]
POINT_DATA 5373
SCALARS features_00 float 1
LOOKUP_TABLE default
0.7613416 0.7910776 0.85588694 0.87166995 0.8305694 0.8746574 0.91803616 0.9396925 0.89827836 0.9351405 0.9502934 0.90819716 0.934868 0.67892504 0.6827172 0.66489375 0.67330724 0.7200129 0.7192962 0.7027731 0.7358737 0.74825656 0.76351535 0.7079332 0.8391509 0.8395301 0.77923715 0.88790727 0.91187537 0.859361 0.78689086 0.91579837 0.91472375 0.87699795 0.90650815 0.8545555 0.9011624 0.90112936 0.84410346 0.81488883 0.8098704 0.8325881 0.8040012 0.79575276 0.76037824 0.5189623 0.54823285 0.5383899 0.59134483 0.60344446 0.47699687 0.6283407 0.58006626 0.7386228 0.5981135 0.8401635 0.8680787 0.8657934 0.79960996 0.72245455 0.8483847 0.85544705 0.8876729 0.9181272 0.85273564 0.8265225 0.8359488 0.8844099 0.7929357 0.7649629 0.7451616 0.755034 0.7618834 0.65604156 0.6829797 0.7131249 0.67295015 0.29872668 0.46227616 0.36171484 0.49648055 0.49035817 0.4410239 0.48231423 0.5383989 0.12856129 0.4319829 0.4939803 0.5171832 0.48824003 0.4035441 0.48939157 0.7619051 0.59593135 0.6125437 0.74057686 0.7393745 0.680017 0.7931104 0.7729553 0.83727276 0.79900646 0.81983733 0.7806317 0.7501471 0.7930207 0.72015375 0.64353216 0.6200161 0.2844197 0.52662647 0.04871683 0.3898373 0.5176106 0.3097229 0.47099528 0.1731076 -0.010406744 0.3134704 0.06378055 -0.1874043 0.3376544 0.42372805 0.46562886 0.399357 0.13483779 0.5319368 0.50581926 0.46620008 0.294737 0.30347753 0.5078619 0.5594392 0.5402553 0.4170797 0.37370005 0.507186 0.13766669 0.42614275 0.45431393 0.53214496 0.5331704 0.48809916 0.694682 0.6838504 0.6438574 0.70100635 0.60713995 0.7014948 0.66373146 0.58833927 0.5413616 0.48271218 0.22748066 0.22686444 0.0796498 -0.04901347 0.21707746 0.04054837 0.503012 0.32426262 0.2899669 0.10734859 0.2397816 0.18742035 0.61310375 0.34588656 0.3927442 0.56596756 0.37502342 0.3892256 0.40711254 0.4890667 0.37067306 0.36562815 0.3423918 0.47454286 0.47590065 0.48647702 0.49122238 0.504391 0.5049007 0.5233658 0.50709045 0.50773466 0.6923127 0.7191439 0.7923701 0.67930675 0.67578703 0.74007034 0.79058003 0.632906 0.47433907 0.6740832 0.6878011 0.7180582 0.6667129 0.44655824 0.59931684 0.57889605 0.54547 0.6373061 0.79818296 0.76981854 0.8070328 0.83439666 0.7348203 0.81579566 0.8418588 0.77423346 0.84067464 0.78098476 0.799154 0.79583925 0.7757282 0.7847651 0.7752993 0.76351917 0.48560533 0.45929626 0.5533371 0.47141626 0.3909213 0.24684858 0.34326205 0.22508305 0.17708413 0.2611256 0.39407444 0.57359684 0.6036217 0.2361805 0.21527976 0.10159197 0.51327837 0.6128457 0.65933764 0.25066024 0.1672083 0.6360396 0.66326416 0.31455243 0.5744449 0.6374828 0.32805714 0.34296426 0.5063243 0.5573572 0.2866023 0.3985804 0.28553128 0.23407742 0.08225015 -0.07471202 0.40966022 -0.0003026072 0.27438137 0.5050353 0.49169594 0.52417624 0.5298934 0.5009197 0.66511357 0.7003068 0.7146809 0.6263535 0.5254684 0.6596589 0.69246566 0.6225696 0.48259482 0.64401823 0.27564853 0.24246301 0.5367546 0.32236034 0.2755303 0.2830441 0.5117544 0.39783674 0.39385766 0.3495948 0.45661387 0.45303327 0.14240937 0.5487195 0.6025554 0.60933745 0.6442448 0.50685203 0.6388774 0.6924703 0.70532537 0.7051724 0.6514906 0.6914046 0.70896757 0.761639 0.78700805 0.82469714 0.7375265 0.83210534 0.7871074 0.6699868 0.7012713 0.7003699 0.7032487 0.61581266 0.68286777 0.7772722 0.73977935 0.6881318 0.7611177 0.7550663 0.72843146 0.7022496 0.4032638 0.40289956 0.43943018 0.46192792 0.43880954 0.31050527 0.30231073 -0.03323255 0.025649175 0.051526975 0.13119598 0.3316727 0.14767219 0.20188685 0.34991068 0.47263196 0.60533154 0.21915376 0.6518111 0.65778893 0.24740091 0.650584 0.27005965 0.573053 0.6130228 0.48813212 0.23815507 0.340293 0.4363392 0.46616554 0.4725523 -0.13165268 0.20540272 0.00626494 0.07435846 0.43329206 0.39980674 0.32985958 0.5410178 0.51617956 0.6662178 0.5398784 0.48240918 0.6427557 0.6641548 0.65402746 0.47307917 0.4252565 0.64524955 0.6420982 0.3720373 0.61413103 0.6160077 0.228519 0.2742157 0.26966295 0.5546827 0.5053613 0.44667011 0.38771316 0.22814676 0.36704743 0.4062584 0.31280613 0.5759893 0.4231239 0.3794481 0.40289223 0.39571634 0.37261137 0.28946844 0.22682887 0.19915614 0.48630083 0.3085025 0.29271463 0.22749563 0.69492346 0.6739034 0.5509787 0.61427975 0.66149366 0.7029953 0.6921497 0.63620585 0.6605065 0.6299788 0.6382055 0.6867534 0.7124187 0.6614146 0.67739284 0.59037673 0.45307505 0.6160666 0.507591 0.60445046 0.6173887 0.65886426 0.6147399 0.63907814 0.67796576 0.48189378 0.41723993 0.46957493 0.46171546 0.42186835 0.3762148 0.43802226 0.4578781 0.40617126 0.37171185 0.33243018 0.4136446 0.4377283 0.4095816 0.32879525 0.6167991 0.37182912 0.3683439 0.37961984 0.2809865 0.25582343 0.23799703 0.25049576 0.2495095 0.26206836 0.35717362 0.3871488 -0.023327217 0.004985228 0.34568092 0.015421949 -0.10633886 -0.068546064 0.07952695 0.22452922 0.30021396 0.4442597 0.21300857 0.5284781 0.5237465 0.24773818 0.2808314 0.45113856 0.23864456 0.4459255 0.16538382 -0.00020097196 0.45638877 0.45209968 -0.25128013 0.17236884 0.38712138 0.42859453 -0.15770707 0.15471776 0.106476136 -0.04959464 0.07090948 0.24220091 0.52872217 0.40878436 0.47017738 0.587901 0.5908174 0.41419503 0.46446794 0.58086175 0.2865307 0.44270286 0.50203633 0.5331894 0.49133497 0.19527054 0.21100956 0.4083145 0.51438624 0.5452291 0.55444103 0.8622875 0.76673114 0.6050248 0.45992732 0.41494215 0.37120673 0.36674565 0.3323353 0.052884832 0.17286617 0.5642317 0.5542542 0.9352603 0.88446045 0.72645044 0.52874565 0.4297096 0.14491513 0.5338032 0.54502225 0.8971085 0.7711922 0.58201575 0.8731538 0.76185906 0.6822066 0.41413176 0.4167991 0.3469177 0.31277192 0.20397457 0.583043 0.5248672 0.30746952 0.28849718 0.26533234 0.4029007 0.5219487 0.64282167 0.5446564 0.58531594 0.6437423 0.5581155 0.5456495 0.6795583 0.48549908 0.39245766 0.32985204 0.41353765 0.40987825 0.53965205 0.3826932 0.46604428 0.5268376 0.4872344 0.5280336 0.5300411 0.5110074 0.3815123 0.4513169 0.4988725 0.5158609 0.6656554 0.754213 0.8094467 0.3661371 0.3757684 0.41743624 0.35708135 0.39759147 0.54637396 0.7460723 0.7980066 0.25134873 0.32039398 0.21113716 0.29224092 0.52966225 0.67789155 0.7211608 0.16424356 0.2445564 0.30260372 0.5295647 0.6289177 0.65200615 0.15625224 0.14300114 0.18839696 0.24034566 0.35839015 0.5300679 0.5853129 0.18045911 0.2146826 0.22835127 0.43992418 0.10738406 0.07790837 0.019453809 0.050513804 0.2154956 0.2307694 0.073938146 0.103368625 0.15353811 0.20387307 0.18759528 -0.1899725 -0.040070623 0.12510845 0.19380261 0.65985155 0.6477457 0.014466494 -0.17714822 0.69459796 0.61790645 0.11455039 0.11562618 0.05736611 0.13254067 0.3031474 0.17345399 0.39342895 0.32249865 0.4989738 0.21670683 0.30899996 0.15146098 0.3616473 0.045045346 0.40971845 0.41435084 0.12884864 0.09974473 0.027359474 0.004229024 0.16199246 0.3287031 0.1628849 0.07539772 0.04557725 0.083548054 -0.07653521 -0.09845585 -0.0026913583 0.37706667 0.35128707 0.21073273 0.23103148 0.40381986 0.07714829 -0.005153075 0.2078597 0.5026708 0.85097957 0.80185103 0.68808085 0.45909184 0.31113487 0.11286902 0.53845483 0.9224995 0.8843901 0.54082286 0.94981825 0.9151855 0.5054962 0.5075837 0.49459577 0.9801561 0.48011363 0.45727623 0.9217415 0.88391435 0.78890526 0.11142938 0.41824698 0.5879948 0.480146 0.36562884 0.32368562 0.36831367 0.3226574 0.30864704 0.26880673 0.3282933 0.43370068 0.58794147 0.49211594 0.4504943 0.44503814 0.50463015 0.6058657 0.5888908 0.6174717 0.59311545 0.2946468 0.32615036 0.2771036 0.3093106 0.23424211 0.42228684 0.3249475 0.3848139 0.3483742 0.38643813 0.46021152 0.4421022 0.505998 0.5272498 0.5353751 0.5252335 0.4837867 0.5299405 0.5318864 0.49446458 0.44391322 0.7607587 0.80698586 0.39386374 0.43632916 0.3298391 0.4120372 0.6115911 0.7362889 0.8198728 0.81372535 0.17531721 0.29125303 0.78871024 0.7907648 0.15105389 0.12923212 0.23746118 0.7048491 0.71362185 0.11831188 0.15743576 0.16200197 0.62781954 0.6436657 0.042653315 0.1513714 0.12774202 0.48246914 0.5453884 0.11770294 0.054712422 0.09243072 0.27500048 0.34939423 0.5347315 0.4553511 0.09328058 0.074747086 -0.06258212 0.09790834 0.25595027 0.66132855 0.600382 0.5113615 -0.09366455 0.23490117 0.7093631 0.676219 0.5471976 0.124687135 0.16370666 0.73042274 0.71017873 0.6637899 0.72038835 0.26652107 0.09523037 -0.24647558 0.55005807 0.6217607 0.56653583 0.62789524 0.03608755 0.53013766 0.59169436 0.24954668 -0.047070704 0.0064469874 0.26274973 0.10646672 0.16769843 0.16208807 -0.27585608 0.4844242 0.49647135 0.5118994 0.4640574 0.18502976 0.18000032 -0.08361931 0.42323062 -0.014441539 0.12477441 0.268698 0.458197 -0.1676325 0.3058917 0.28563392 0.3799402 -0.07050644 -0.077831134 -0.027188167 0.39845502 0.8430151 0.77420497 0.61751777 0.49835667 0.37440878 0.4713325 0.9137568 0.87130725 0.48489892 0.9875876 0.46586734 0.9637823 0.08031085 0.43179166 0.86803144 0.7929141 0.7250867 -0.01860495 0.17869473 0.64451826 0.5144402 0.45118922 0.36567357 0.3084846 0.27985728 0.28553128 0.29783857 0.15433085 0.2553293 0.35988986 0.4323039 0.558021 0.5448928 0.5612422 0.47893494 0.5794105 0.5988569 0.5919541 0.5622857 0.53077674 0.6163668 0.570236 0.5225136 0.6367655 0.5319466 0.11301004 0.08285568 0.27712357 0.48194122 0.43855572 -0.2141458 0.28334346 0.48564503 0.44734663 0.3806688 0.29797205 0.4989311 0.46802896 0.40590224 0.28094202 0.2919451 0.5223155 0.4947325 0.22154084 0.49571103 0.45660037 0.24423605 0.2758294 0.4002673 0.4705323 0.54129195 0.51568973 0.49581057 0.5179982 0.49980074 0.35498917 0.48503003 0.44996578 0.37947324 0.42112836 0.6120137 0.757934 0.7988566 0.11145604 0.2859472 0.8032073 0.7896063 0.13662824 0.09390304 0.7443633 0.13998571 0.6688311 0.11076954 0.09677631 0.55259866 0.6335617 0.03940358 0.5213129 -0.0052666143 -0.014248058 0.38731393 0.47546452 0.4165042 0.32478404 0.028005317 0.03930381 0.28791744 0.63153684 0.5690744 -0.27071843 0.26171178 0.7019106 0.6859065 0.67368066 0.6737248 0.43205357 0.5646392 0.3298859 0.64015514 -0.04647635 -0.07100817 0.6738754 -0.027649194 0.62380075 -0.026039172 0.15535486 0.26852575 0.50615543 0.565747 -0.0146608 -0.23406318 0.03462567 0.09908894 0.08543965 -0.4185487 -0.106088966 0.47210255 0.47930455 0.48189846 0.31389555 0.116353475 0.1487226 0.5025755 0.49133968 0.41002947 0.08643579 0.17096087 0.50122714 -0.1324434 -0.3509604 0.06789503 0.22987145 0.45738196 -0.4681189 -0.4270472 0.28190202 -0.19205393 0.30289167 0.7925034 0.7465668 0.60965985 0.33081752 -0.06339964 0.32525256 0.8692578 0.8205142 0.74217254 0.8898438 0.836122 0.29633048 0.36908072 0.8892447 0.833401 0.037007496 0.1450981 0.28690577 0.83887863 0.79339147 0.66540706 -0.08756544 0.03459797 0.63237 0.55943936 0.46081063 0.35924593 0.28961405 0.25507346 0.2570678 0.1851678 0.14389783 0.21204545 0.27261662 0.34185448 0.26835886 0.4095475 0.3929085 0.41798022 0.43159163 0.41567147 0.52177966 0.5158018 0.44097766 0.48069236 0.47844562 0.43601745 0.4696776 0.06376615 0.42264894 -0.093342364 0.45915228 0.41951403 -0.007789707 0.45200825 0.44311604 0.5617648 0.16913074 0.569188 0.53585005 0.19619855 0.5170461 0.5094668 0.5341759 0.5383779 0.528028 0.41705877 0.5476781 0.5593336 0.490368 0.5863644 0.37682858 0.37065426 0.39489377 0.36751178 0.1850756 0.39075434 0.3563637 0.61294377 0.7052239 0.7438934 0.22495846 0.17106652 0.11078639 0.72546077 0.73691666 0.17259303 0.19326794 0.6289649 0.6604019 0.13978481 0.1588685 0.5743654 0.598862 0.09635324 0.5144881 0.016373947 0.4338793 0.3593123 0.23664165 -0.14384337 0.32665968 0.50343776 0.37113217 0.21336538 0.580526 0.23289941 0.49470586 0.5900045 0.55210996 0.17343192 0.4498722 0.3639144 0.17298354 -0.07315742 0.62272733 0.0096156895 0.6558514 0.079303354 0.5963447 0.061068468 0.29152542 0.44148794 0.5037792 -0.0072128624 -0.24236809 0.034713868 0.08019385 0.1234476 0.42917427 0.4378147 0.40881732 0.060204737 -0.5243343 -0.35071075 -0.16754186 0.46046835 0.45269522 0.21762641 -0.57396233 0.488444 0.16534546 0.5045899 0.21312922 0.20230307 0.25277445 0.3546031 0.19678368 0.16806136 0.76234317 0.70799184 0.24588193 0.8321833 0.8147747 0.7205814 0.17840782 0.13869768 0.7731899 0.7106625 0.013036616 0.636977 0.58677256 0.4171502 0.360413 0.1910359 0.08249641 0.54580015 0.48400038 0.2698163 0.21968375 0.26967794 0.31994474 0.2955721 0.21657385 0.22132029 0.4936977 0.56902516 0.540559 0.4676115 0.36236292 0.5127747 0.4512674 0.41770613 0.39028394 0.41626856 0.36404634 0.37918523 0.38492998 0.4127941 0.4198513 0.42173398 0.086512044 0.3064231 0.35807514 0.34897128 0.38110766 0.2451386 0.21745381 0.44136393 0.37960416 0.2837747 0.2982409 0.2696929 0.16317326 0.48255375 0.45038152 0.21713176 0.19554955 0.6368047 0.20883583 0.59916425 0.23791093 0.54166883 0.5878384 0.5599543 0.4319773 0.6643207 0.6424675 0.63658726 0.6100224 0.540607 0.42116374 0.04510197 0.34846428 0.3491589 0.20814191 0.23821151 0.23378712 0.21340695 0.12064333 0.032208547 0.16447616 0.25115976 0.33613175 0.31325418 0.346434 0.595961 0.65180624 0.6926962 0.1753264 0.21273187 0.6504463 0.6768271 0.6185983 0.09304357 0.4930171 0.087214455 0.43428677 -0.03696779 0.27118596 0.5108895 0.39679098 0.19596788 0.13730635 0.18267041 -0.26848888 0.147506 0.36318374 0.23761316 0.25362274 0.31094542 0.30557585 0.05480584 0.15128502 0.12242545 0.37895963 0.42322063 0.06364055 0.5229118 0.061070137 0.068946436 0.5688329 0.08681775 0.5018797 0.08088467 0.3589586 0.42656517 0.08774017 0.24202842 0.42506757 0.3823614 0.39292902 0.14214242 -0.45469868 -0.21970302 -0.06795059 0.025434151 0.42564684 0.4069394 -0.8675612 0.45690733 -0.27253667 -0.024658622 0.3819168 0.13798721 0.3745624 0.21721391 0.2732065 0.3779764 0.095156685 0.45767492 0.06601466 0.66761357 0.5850297 -0.00046770275 0.047349386 0.67345387 0.030522436 0.47106534 0.12303628 0.26958 -0.11742153 0.060514737 0.1358259 0.12216276 -0.0034088716 0.3387129 0.3460386 0.33112308 0.2998271 0.57448566 0.54416037 0.4252582 0.28408384 0.5746808 0.57911193 0.2753597 0.5207685 0.33657256 0.23077032 0.27692282 0.28493124 0.20966299 0.29863054 0.09783748 0.43499374 0.4301145 0.53043187 0.49469748 0.3433469 0.33497253 0.33662263 0.14607506 0.21458746 0.5222567 0.32812 0.25884745 0.2682457 0.57789046 0.09514788 0.1528698 0.6219291 0.2963792 0.32115793 0.6733495 0.3702105 0.34769702 0.712209 0.7433394 0.72894895 0.69964445 0.43253767 0.39142597 0.3748302 0.20195132 0.19175994 0.015100248 0.022102594 0.17567495 0.20163701 0.2596864 0.27521196 0.54865706 0.62486976 0.21136545 0.036005393 0.107955776 0.22186615 0.55739254 0.6184964 0.2926637 0.48326153 0.55171365 0.27715757 0.2439284 0.18118055 0.58019245 0.55383766 0.4685012 0.33516166 0.20406537 0.58067185 0.5638017 0.47867483 0.32228398 0.05614297 -0.26569343 0.558575 0.5096727 0.006476596 0.3761357 0.003184095 0.26537588 0.04170026 -0.06318656 -0.028179951 -0.20362568 -0.03353288 -0.013844585 0.43025345 0.04345009 0.45368814 0.0565898 0.06303954 0.44827336 0.018651381 0.208528 0.30801263 0.3657193 -0.3722363 0.16768596 0.16990918 -0.0040290058 -0.3691165 -0.15606894 -0.04889508 0.02323859 0.07501213 0.39575106 0.3885063 -0.6216583 -0.30681884 -0.013301581 0.05357188 0.41163543 0.3669155 -0.078197174 0.34150714 -0.07023905 0.33162445 -0.000108763576 0.15209824 0.36609888 0.23937638 0.20648982 0.44176173 0.57109064 0.061101682 0.10866387 0.18716642 0.61852634 -0.05219157 0.0040312856 0.042846985 -0.018937372 -0.058619633 -0.034738988 0.37268344 0.33439606 0.25340885 0.12832956 0.12058749 0.12270142 0.14522251 0.07184289 0.38482898 0.37206647 0.37553763 0.34912157 0.48761976 0.40809485 0.23457403 0.33402392 0.13483661 0.11675879 0.56528425 0.58468324 0.13789819 0.16417974 0.46062094 0.39590687 0.32213172 0.030094877 0.023358807 0.21717192 -0.053953394 0.5608368 0.6058995 0.5782005 0.25567755 0.3789413 0.5104727 0.23892128 0.3582737 0.26527578 0.559505 0.50249755 0.2957766 0.5501306 0.21861888 0.27985743 0.49186105 0.4533249 0.1466767 0.558005 0.22925165 0.7257646 0.2870692 0.77083766 0.3115272 0.32143337 0.30266476 0.30618042 0.7697387 0.7366308 0.6195413 0.4324006 0.5934802 0.59361166 0.3948382 0.37689084 0.55423486 0.4936137 0.08939414 0.17299525 0.26389992 0.11734995 0.0024443492 0.07425846 0.31045458 0.30419427 0.2728221 0.19837831 0.026347034 0.305329 0.30800134 0.2834183 0.2725966 0.23783012 0.57907116 0.56248677 0.5449584 0.23179507 -0.35001135 0.5920627 0.5646621 0.27841616 0.29383668 -0.32427907 0.606225 0.59963715 0.7091393 0.5957725 0.0026005507 0.5205972 0.5153761 0.29541293 0.38183683 0.006051883 0.16396546 0.24603361 0.120444864 0.009912051 -0.025316361 0.6655463 0.6416461 0.25501174 0.7138768 0.7018534 0.6779189 -0.017155152 0.7772561 0.7469155 0.77654815 -0.019315608 0.032932647 0.113954455 0.3391172 0.82683575 0.8405448 0.816069 0.10544483 0.8655504 0.87743974 0.8390777 -0.052606072 0.30632937 -0.4493752 -0.3325925 0.009529062 0.27744305 -0.23186642 -0.4248318 -0.26931584 -0.19948344 0.12769754 -0.117289886 -0.010647994 0.030629039 0.01879993 0.3381461 0.35806784 0.083381675 0.05110731 0.45146465 0.43232286 -0.04020739 0.53073925 0.20166844 0.5267233 0.5501286 0.60715544 0.18537407 0.44634327 0.4989993 0.5484119 0.61735535 0.0016342625 0.016615517 0.46239412 0.5013155 0.59902835 0.16096787 0.2060881 0.155548 0.04765393 -0.03158986 0.515119 0.535604 0.4169692 0.30449796 0.1487402 0.12090404 0.11116159 0.10499941 0.47698647 0.44127983 0.26248318 0.50771 0.46756315 0.47503543 0.13666394 0.19337213 0.6487551 0.5081557 0.078454085 0.15425186 0.12380135 0.18091619 0.17882472 0.5161622 0.15927811 0.20991191 0.22039004 0.44942027 0.19504163 0.23805481 0.34422183 0.3940361 0.21566306 0.2944519 0.44045168 0.49849072 0.339531 0.15101945 0.26513982 0.48941562 0.59714043 0.63764966 0.2960894 0.25092855 0.20162088 0.4292894 0.5735171 0.6774304 0.7334793 0.55760413 0.5551796 0.52260506 0.29203275 0.265942 0.6200595 0.72193444 0.80022943 0.8562546 0.50894755 0.4538705 0.29227838 0.42574555 0.9001622 0.8957424 0.91294074 0.36368388 0.53385216 0.53086275 0.36760336 0.41450298 0.5041681 0.4100554 0.4918358 0.35803872 0.45468488 0.3679227 0.11110085 0.06324855 0.56045985 0.14434691 0.1482823 0.6372764 0.47650462 0.16984673 0.23378536 0.19756103 0.6492615 0.5310992 0.4483267 0.38153315 0.3417623 0.72596896 0.626008 0.5760187 0.62781346 0.6461549 0.6492388 0.3996906 0.59846807 0.6276979 0.6399249 0.6278746 0.15717903 0.4652608 0.5803974 0.22701941 -0.081693776 0.34570363 0.30502307 0.2955485 0.18165636 0.1136948 0.31941354 0.30639046 -0.28895554 0.13375998 0.28048632 0.29555285 0.29294336 0.20760907 0.07820385 0.55587065 0.52327704 0.47014704 -0.24194969 0.5923639 0.58492196 -0.3285281 0.7197846 0.81837785 0.88531166 0.577899 0.6353628 0.76140785 0.8560046 0.8838333 0.5838832 0.20418237 0.30630356 0.547617 0.6614429 0.7531502 0.76127803 0.5735065 0.53347874 0.5591904 0.6822322 0.44911122 0.29786652 0.40790057 0.5224813 0.2533115 -0.0772693 0.053705424 0.13087691 0.24785984 0.3563196 0.6709129 0.6218337 0.43617317 -0.30614632 0.08896017 0.12389521 0.20429449 0.69409865 0.683805 0.6306358 0.57133764 -0.24128205 -0.09324139 0.7078909 0.706977 0.6722029 0.52638113 -0.05235997 0.0045195 0.744981 0.5342041 -0.05461088 0.79378414 0.8207584 0.65710545 -0.12253882 -0.14715104 -0.19777222 0.87020576 0.8553878 0.77723193 -0.11953029 -0.09821022 0.89215815 0.8998984 0.8894777 -0.056600228 0.15578842 0.010332641 0.15028036 0.18881029 0.0567754 0.09651379 0.46310017 0.40663397 -0.011309691 -0.024499182 0.5119358 0.50391674 0.0013273656 0.29141545 0.49115866 0.50399804 0.4528479 0.554719 0.5390438 0.2461532 0.41878724 0.4901692 0.5420597 0.49526834 0.5854175 0.20602685 0.38884804 0.54064965 0.49123022 0.5986825 -0.15976198 0.17174232 0.34593803 0.41506812 0.60792816 0.6248052 0.4354518 0.37231272 0.30719438 0.2850666 0.26795584 0.19851589 -0.1334568 0.29078275 0.33891904 0.60246074 0.5810089 0.52564645 0.45377046 0.37243372 0.24300933 0.17130858 0.035537206 0.47853243 0.2330944 -0.01507052 -0.1698249 -0.17365102 -0.28993115 -0.12928927 0.49021214 0.51161206 0.52765405 0.5124143 0.41219044 0.05016883 0.18897527 0.67504 0.15329288 0.6949847