# vtk DataFile Version 2.0
Really cool data
ASCII
DATASET POLYDATA
POINTS 5321 float
2.3925037 99.789154 13.109588
2.3471565 99.6016 13.497233
2.2808776 99.60668 13.945929
2.3557324 100.10361 13.085494
2.290012 100.4068 13.64172
2.3657584 100.625854 14.103397
2.3839877 100.937195 13.789318
2.4237983 101.03148 13.947282
2.8860638 98.97224 13.080937
2.734 98.968864 13.498942
2.8287823 98.96781 14.24262
3.1387348 99.03845 14.934557
3.0463123 99.76325 12.364056
2.709623 99.62027 12.751557
2.5728936 99.42265 14.326887
3.0746484 99.677635 15.279885
3.2791445 99.98354 15.707243
3.160785 100.26304 12.220212
2.714333 100.395515 12.692671
2.5013418 100.54856 14.521461
3.0777574 100.36332 15.318734
3.3084166 100.01838 15.748184
2.833196 101.133545 12.883721
2.652085 101.38084 13.54754
2.71237 101.35078 14.2638445
2.9460912 101.210594 14.757402
3.1201322 101.66741 13.096188
2.983281 101.72171 13.611605
2.9799204 101.77766 14.122807
3.4313462 107.72688 -3.0136085
3.3103871 109.00168 -4.008186
3.3237305 108.575836 -3.4151862
3.3777306 109.025955 -2.6219096
3.1674044 109.5712 -4.029429
3.0626326 109.70697 -3.5240457
3.1976242 109.60345 -2.8286994
3.2662697 110.36422 -4.2703085
3.138616 110.31148 -3.5448854
3.211889 110.18668 -2.9688892
3.3262439 110.77336 -3.9797955
3.8408334 98.46557 13.781627
3.9694357 98.33841 14.241862
3.5531204 98.867065 12.846047
3.4604206 98.59663 13.449868
3.3658824 98.562675 14.124426
3.8160734 99.02185 15.653319
4.0349655 99.05844 15.91578
3.6230698 99.74782 12.137269
3.314571 99.285034 12.413625
3.400195 99.3848 15.562929
3.749597 99.84034 16.103676
3.5639622 100.56355 12.105214
3.5019143 100.0801 15.908963
3.6036258 101.14484 12.328751
3.3326178 101.06531 12.420796
3.2772522 101.59388 14.71219
3.4795644 101.257645 15.360398
4.019237 101.09703 15.950747
3.6579797 101.71613 12.921924
3.287499 101.90607 13.4920025
4.0105877 102.191795 14.502452
3.4661098 101.772026 14.876831
4.138441 106.11867 -3.2288241
4.085394 106.09225 -2.6360197
4.270527 105.92558 -1.697386
4.3812404 106.15034 -0.6444018
4.109596 106.82196 -3.9628577
3.9286234 106.583755 -3.4043689
3.6870732 106.820465 -2.6960454
4.036726 106.53247 -1.4875635
3.9391499 107.033005 -0.90862656
4.1777964 106.858154 0.021959439
3.8659644 107.34349 -3.9530537
3.516832 107.465164 -3.266292
3.7697778 107.57274 -1.7020206
4.0069733 107.51912 -0.19623771
4.181796 107.741554 0.48413754
4.3608546 107.47406 1.5185723
3.8879042 109.026955 -4.989107
3.7362778 108.63924 -4.43346
3.4799187 108.974915 -2.232745
3.8093984 108.20643 -1.7649097
4.1918063 108.6015 -0.27561617
4.1423445 108.17326 0.17144445
3.9077978 109.64194 -5.293775
3.5234876 109.66362 -2.4414346
3.9679263 109.16594 -1.722655
4.202093 110.40665 -5.8155837
3.827907 110.455956 -5.236818
3.6414702 110.73736 -4.512571
3.5021682 110.50832 -2.7143483
4.103803 110.366425 -2.1973655
4.1104903 111.07896 -5.1533594
3.6718688 111.03942 -4.3505507
3.7384884 111.26352 -3.6005516
3.7893639 111.018036 -2.8084083
4.517448 98.36841 13.732583
4.6504545 98.261375 14.387024
4.8255496 98.22391 15.078667
4.2920237 99.1448 12.347143
4.3538365 98.95481 12.734284
4.43166 98.54388 13.334951
4.3578353 98.56885 15.298766
4.366422 98.95173 15.934041
4.2829194 99.67015 12.11382
4.7800856 99.310555 12.511423
4.6145396 100.02747 16.539993
4.326853 100.42515 11.963598
5.143619 100.815445 16.802225
4.7314324 101.53191 16.202255
4.60125 101.67191 12.745058
4.4516206 102.00287 13.493034
4.9035163 102.49654 15.615247
4.8634434 102.25433 15.818495
5.3688927 103.64763 0.5111205
5.332732 104.011986 1.3519456
5.001322 102.74172 15.264906
5.0776014 104.98916 -1.1622362
5.0790277 104.789 -0.6420274
5.1440334 104.75804 0.1776773
5.321312 104.112526 1.4992032
5.427727 104.63099 11.259785
4.454541 106.02235 -3.4315457
4.577933 105.64479 -2.4302359
4.5579634 105.75353 -0.68955696
4.7082076 105.74535 0.85643685
5.1486 105.62942 2.0807035
5.326559 106.134705 2.8939288
5.4299073 104.89014 11.405957
4.4556847 106.50059 -4.0339704
4.7259245 106.17211 0.83319145
4.626902 106.49758 1.2056192
4.8677673 106.655426 2.448631
5.188598 106.55249 3.0287952
4.4639482 107.6263 -4.6421194
4.5735345 107.20224 -4.473732
4.523021 107.7172 1.7014092
4.5818367 107.39158 2.2305098
5.1296635 107.395065 3.2818692
4.62273 109.10144 -5.7929993
4.396178 108.908226 -5.1661015
4.6195536 108.61175 1.4370884
4.753794 108.51134 2.3598409
5.216304 108.402306 3.4196262
4.681803 109.77446 -6.0996203
4.6035633 109.42404 -0.47358495
4.7446117 109.29257 -0.0104796365
4.9059997 109.18337 1.4002136
5.2966337 109.211105 2.9336393
4.6038885 110.67201 -6.0240574
5.122741 110.067444 -0.80572426
5.2858176 110.02076 1.7407598
5.344327 110.32473 2.0502372
5.3421707 110.7568 7.5544844
5.397627 110.80496 7.9795146
5.289646 112.14683 -12.183713
5.2630196 112.215935 -11.636489
4.8543406 111.43815 -5.7229614
4.5178547 111.278305 -5.5096374
4.4399047 111.615776 -4.3092856
4.7429843 111.648445 -2.6860645
5.298442 111.32677 -1.4973447
5.3883114 111.33135 7.022207
5.3752413 111.3702 7.4420953
5.3794756 111.26888 7.9107304
5.1627283 112.65636 -12.296158
5.1055737 112.52473 -11.6432705
5.23109 112.79333 -10.812189
5.1165104 112.0468 -4.8106737
4.826434 112.302185 -4.382968
4.6157036 112.10779 -3.6676693
4.9825354 112.110634 -2.6794508
5.333852 113.04948 -12.715456
5.1123323 113.26867 -12.251947
4.988855 113.446106 -11.582375
5.16732 113.54526 -10.679835
5.413117 113.81201 -10.042884
5.276166 113.03824 -3.6092925
5.163032 112.79734 -2.9948804
5.26442 114.27491 -12.045937
5.1810946 114.33221 -11.38909
5.2027884 114.38184 -10.620837
5.345383 114.4348 -10.121954
5.3403983 114.92068 -11.597868
5.3450665 114.962326 -10.540625
5.2104383 98.350105 13.800539
5.3187923 98.22619 14.301727
5.3135757 98.79161 13.138422
5.453876 98.61675 13.530844
5.380314 98.48744 15.414748
5.44183 99.18544 16.228027
5.093774 99.99632 12.26109
5.3326983 99.336555 16.481134
5.6384625 99.83719 16.914003
5.8174253 100.58461 17.197561
5.9051495 101.16236 12.438988
6.06366 102.91778 0.0025401562
5.802784 102.98936 0.56170744
5.9923263 102.950066 1.4504424
6.042844 103.05828 1.8532841
6.1130757 102.985115 10.506027
6.10054 102.4313 12.115824
5.561715 102.20206 16.34109
6.006377 103.48833 -0.70347905
5.5936275 103.57568 -0.13732216
5.5262227 103.426834 0.49836865
5.5812755 103.58087 1.5507286
5.7830334 103.722565 2.0225413
5.9642076 103.98232 10.210159
6.1670256 103.637794 12.547907
5.6522803 102.95007 15.31945
5.7294774 102.641335 16.06784
5.5696306 104.903 -1.8317919
6.125827 104.36417 -1.4976984
5.4447713 104.264435 -0.29710346
5.8162966 104.191574 2.2131898
6.134489 104.543976 9.924131
5.600979 104.593895 10.716744
5.486772 104.713326 11.76235
5.472992 106.21813 -4.078198
5.652531 105.70422 -3.288966
5.4385653 105.9195 2.7225735
6.1279016 105.43785 10.144833
5.660947 105.24799 11.043416
5.6943493 105.32815 11.459332
5.788456 105.15877 12.1266165
5.5838904 106.35067 -4.105048
5.7269306 106.32748 3.4215033
6.055054 106.80342 4.063239
6.1957974 105.75171 10.566358
6.0988283 105.675224 11.886589
5.839279 107.722946 -4.7618017
5.4617996 107.31612 3.5795457
5.8954377 107.74317 4.558208
6.2759733 107.849014 5.180808
5.7049675 108.9253 -5.553949
5.7557263 108.42986 4.0886016
6.362197 108.6495 5.5490823
6.2690535 109.2002 6.9245076
5.508146 109.82406 2.5930393
5.9320006 109.15703 3.8383067
6.22727 109.35637 5.4903617
5.6076813 110.18767 7.0217795
5.64597 110.06857 7.5493956
5.9219494 110.11642 8.164046
6.2304745 111.21217 -11.433048
6.28025 111.02128 -10.663169
5.489324 110.48465 -6.346287
5.5999975 110.036194 0.534038
5.460282 110.75448 1.42488
5.5466323 110.291664 2.7733328
5.85661 110.62949 3.0711663
6.177187 110.289566 3.925659
6.1553693 110.90625 5.5256386
5.5211463 110.57778 6.897603
5.68682 110.62926 8.238065
6.0495477 110.70136 8.681266
5.7431912 112.048225 -12.848939
5.565418 111.968445 -12.322409
5.656417 111.73356 -11.372307
6.338084 111.5996 -9.555887
5.238684 111.173065 -6.0715346
6.006617 110.83481 0.76816803
5.6555142 111.04224 1.5764378
5.8634634 111.25223 2.2335713
5.878933 110.885185 2.9514725
6.026508 111.20839 6.0119324
5.5452514 111.54297 6.6932926
5.496192 111.71274 7.7085924
5.717697 111.403336 8.2840185
6.033306 111.23458 8.61651
5.580075 112.6389 -12.936585
5.3877053 112.3042 -12.468833
5.537428 112.53093 -10.5336075
6.136311 112.73809 -9.654121
5.755229 112.095535 -5.446855
5.689836 112.17378 -1.7354925
6.2766466 112.48442 5.7287664
5.876051 112.31077 6.6477714
5.8274736 112.217415 7.4164753
5.9462514 111.91489 8.160548
6.3127046 114.06098 -15.868194
6.352986 113.83716 -15.486911
5.705839 113.40366 -13.082504
5.61306 113.6726 -9.783943
5.7634544 113.13353 -4.516176
5.548421 113.29741 -3.5208266
5.8189754 113.283325 -2.55789
6.2388935 113.15342 -1.3972217
6.245722 112.77716 6.545022
6.2345514 112.784584 7.0337114
6.375229 114.53251 -15.988783
6.2762213 114.38459 -15.56727
6.4356976 114.66396 -14.919841
5.962734 114.02198 -12.95349
5.543317 114.45312 -12.371419
5.5768695 114.52186 -9.775675
5.9570417 114.637924 -9.354908
6.033959 113.802376 -3.5316105
6.193392 113.81803 -2.522073
6.4073024 114.89086 -15.507034
5.741072 115.14879 -12.14504
5.5528345 115.22864 -11.490944
5.608524 115.416794 -10.630784
6.217469 115.45528 -9.455768
6.2110157 115.07869 -9.186903
5.909023 115.79798 -11.351102
6.0001116 115.84551 -10.604811
5.8909464 98.40495 14.203497
6.321696 98.640175 14.398066
6.110089 99.55693 12.969863
6.2530394 100.69263 12.619399
6.5682564 100.81362 17.493511
6.7854075 102.37827 0.5968217
6.913956 102.44653 1.4543213
6.7402034 102.35663 11.276678
6.98839 101.352196 17.471998
7.1461453 102.944885 -1.1121888
6.672641 102.77831 -0.46451336
6.39448 102.586975 0.5975357
6.5504065 102.61819 1.5054977
6.7516146 102.86472 2.1672952
6.81559 103.04653 9.905142
6.464618 102.6692 10.912916
6.949273 102.63635 16.853466
6.8846636 103.45041 -1.3336
6.430411 103.3976 2.52783
6.8630695 103.79727 2.8258913
7.138376 103.131355 16.349602
6.847302 104.256004 2.9022496
6.9755483 104.59458 9.120482
6.4749317 104.51371 9.607597
[...]
POINT_DATA 5321
SCALARS features_00 float 1
LOOKUP_TABLE default
0.94498265 0.9487309 0.92395234 0.92640203 0.88512635 0.823554 0.82274055 0.7998911 0.93052614 0.94578457 0.9048438 0.7864002 0.9260489 0.9455291 0.8928448 0.73224926 0.6810245 0.9159051 0.91185606 0.7864249 0.7143656 0.67487 0.8530041 0.79722273 0.7417718 0.70395255 0.79663205 0.7627978 0.72452354 0.4742205 0.56193286 0.50483716 0.44030258 0.61062187 0.5714489 0.49072883 0.6218973 0.5813586 0.51845634 0.5822103 0.75467896 0.74093294 0.8390121 0.82785165 0.83895195 0.69033706 0.67034864 0.88436866 0.8965299 0.69423765 0.631867 0.8938115 0.64811385 0.8508005 0.86383164 0.66542697 0.6326583 0.5867934 0.78051835 0.7496582 0.5985549 0.6280206 0.5162022 0.46907458 0.34737492 0.25636387 0.51829743 0.51645553 0.47129208 0.3451679 0.28170422 0.25672942 0.5026581 0.48994625 0.33808914 0.25847036 0.26236767 0.2919743 0.5506931 0.51121956 0.37498552 0.29971108 0.20600784 0.24516988 0.63132584 0.41703612 0.26032442 0.5947628 0.60795414 0.5810032 0.46813172 0.32024288 0.5234145 0.544925 0.5116587 0.4552716 0.66504526 0.6735428 0.7052905 0.75467813 0.7187357 0.67630816 0.7342547 0.67780006 0.78812325 0.66391575 0.5964532 0.81909645 0.5208011 0.47778624 0.7839242 0.698274 0.38659066 0.40442136 0.46177644 0.44428796 0.3436373 0.27273482 0.27872196 0.30327854 0.42647058 0.51809305 0.5201179 0.4227162 0.25040597 0.24241684 0.24176085 0.22830631 0.506459 0.5155916 0.246633 0.2660102 0.2804441 0.24672204 0.45881435 0.47649407 0.3030752 0.31606224 0.27695194 0.54705226 0.5098825 0.24781911 0.3016052 0.27383468 0.61183393 0.10426355 0.115635745 0.2044591 0.24229136 0.5507536 0.019359924 0.2108409 0.21556628 0.7115581 0.7336266 0.47734964 0.5005498 0.46835476 0.49338484 0.4527669 0.3147344 0.13027386 0.7236302 0.74968624 0.7541137 0.5076313 0.5291513 0.5459515 0.39501944 0.38653463 0.38555288 0.26758075 0.49176955 0.5379475 0.5805682 0.557343 0.49818778 0.26093507 0.24183598 0.52969205 0.5504089 0.53059304 0.49792653 0.5143042 0.50260556 0.5991049 0.6117375 0.5659417 0.55252177 0.7001673 0.6359422 0.63121444 0.617299 0.53373903 0.47773764 0.35313022 0.49994683 0.5291694 0.5632496 0.5564308 0.47056824 0.17913775 0.343532 0.4049059 0.42616773 0.4877193 0.51080453 0.48271233 0.6022675 0.7189697 0.23985139 0.29685146 0.28529498 0.29875463 0.3480282 0.4061611 0.53866315 0.52803016 0.50221467 0.41113237 0.41051397 0.22568744 0.52132064 0.50638187 0.48814023 0.46087635 0.39169946 0.19411004 0.16666211 0.49141484 0.45537466 0.3217787 0.24662173 0.14169891 0.03098885 0.38639164 0.18548097 0.022305379 0.27585 0.22470543 0.1728001 0.117083445 0.5845887 0.6192833 0.6592977 0.33612925 0.31949797 0.53016746 0.11940823 0.18070471 0.21307658 0.1891851 0.09710395 0.42323557 0.6297299 0.72417283 0.7173641 0.41787368 0.4443475 0.4530431 0.33053792 0.46056858 0.111899555 0.17095953 0.16413629 0.17537802 0.59348 0.70805687 0.75808185 0.7512953 0.7351081 0.4584313 0.47205615 0.50644124 0.42471486 0.35543382 0.15698273 0.670799 0.71945953 0.7434242 0.741724 0.6482564 0.57890755 0.43710607 0.46704268 0.26560247 0.21709701 0.15268484 0.10240481 0.7087214 0.7172517 0.67524886 0.638989 0.5636213 0.3906254 0.4735772 0.4650361 0.42020792 0.15866809 0.114642955 0.6414559 0.4464783 0.49352723 0.4825258 0.40860325 0.39533508 0.44705042 0.4557485 0.53175795 0.4587552 0.45754093 0.3594122 0.37126338 0.5360395 0.5496551 0.22908562 0.33406666 0.44879174 0.47870946 0.546142 0.56590784 0.5420583 0.42259336 0.32354957 0.26469988 0.41740906 0.49824786 0.4311781 0.19116892 0.36760324 0.41758725 0.52119935 0.21620314 0.20907265 0.27157712 0.14946863 0.42100272 0.42462337 0.1520946 0.05196725 0.0882523 0.3377346 0.45879441 0.39164096 0.41430622 0.35506767 0.49103057 0.4802612 0.35908052 0.37524092 0.4556074 0.46049988 0.4704423 0.1239989 0.28099212 0.4324477 0.42370024 0.30209154 0.29221898 0.56642604 0.31108302 0.3017488 0.28382358 0.11519568 0.6883873 0.1274068 0.36286816 0.70372784 0.59012324 0.44060373 0.31948245 0.3121815 0.22584498 0.115798384 0.71665514 0.7010801 0.6992904 0.6555401 0.64795065 0.5968914 0.31648383 0.11181096 0.059224773 0.128785 0.34820843 0.6763183 0.69251114 0.69541323 0.6924545 0.6864248 0.6874274 0.42174405 0.31769544 0.1348483 0.1261025 0.09501164 0.082521416 0.045747433 0.4428812 0.48056084 0.68985176 0.6813172 0.62871027 0.51256585 0.3023221 0.33146507 0.114358686 0.089740165 0.4306132 0.51414174 0.5725335 0.5756418 0.59409225 0.41143686 0.32034704 0.24326634 0.47695798 0.5700063 0.6083246 0.6175953 0.39532387 0.38719916 0.5783998 0.6234964 0.62857854 0.42306632 0.67256933 0.7623251 0.32951623 0.40019003 0.5298905 0.65775836 0.76111186 0.39692736 0.59921885 0.66576475 0.71602297 0.63815814 0.69603395 0.30150688 0.30829695 0.36627996 0.54256827 0.3355248 0.3850683 0.43681574 0.24013732 0.43933958 0.4931501 0.2738473 0.14722219 0.36648196 0.44724578 0.45816708 0.45010382 0.46758693 0.5009243 0.5081459 0.2100502 0.44556156 0.44849664 0.4694382 0.40920317 0.24695787 0.24845147 0.16727954 0.42130876 0.2723509 0.40609002 0.18510666 0.1497095 0.1454867 0.053012468 0.23365448 0.25146866 0.16107912 0.17980199 0.15261051 0.17794517 -0.026250318 0.014260545 0.30083144 0.44962147 0.43817994 0.011442515 0.2319575 0.29378018 0.34431392 0.23314673 0.39052504 -0.028170213 0.06647074 0.15616867 0.48089883 0.15293822 0.1180361 0.15722483 0.59317434 0.5615971 0.6206575 0.6014327 0.61501026 -0.117495775 0.20840874 0.43596 0.6592983 0.664994 0.6326958 0.6655317 0.12596142 0.41541994 0.6289798 0.62391376 0.1344952 -0.039820194 0.08970556 0.04572468 0.20191869 0.55215096 0.57793266 0.5485863 0.48143828 0.36890486 -0.10445571 0.043375127 0.081056654 0.068135746 0.6120186 0.31957442 0.33252135 0.31013274 0.2849908 0.049589872 0.040182937 0.27861437 0.52841306 0.6000289 0.6370574 0.6431196 0.2976278 0.294073 0.6125535 0.6386697 0.66456014 0.66340244 0.5318121 0.61855245 0.6713455 0.33123428 0.3048787 0.30686173 0.54231185 0.61810434 0.7266319 0.81709445 0.35166848 0.33234096 0.320985 0.31473255 0.35461682 0.7941576 0.87189424 0.33410764 0.32688522 0.32078442 0.32067323 0.8214129 0.83907956 0.25733718 0.34596422 0.37127227 0.73246443 0.7968997 0.40964007 0.42297584 0.6922845 0.7246765 0.7693497 0.4042544 0.29838553 0.2298162 0.21681648 0.69925445 0.7676401 0.7784969 0.29592553 0.24967806 0.25062764 0.29720303 0.27647996 0.29475376 0.5221018 0.35575294 0.557597 0.5017809 0.49891424 0.09267971 0.10116775 0.3541873 0.49737582 0.50753284 0.007921405 0.45231494 0.46983403 -0.047695205 -0.025962563 0.42139322 0.38755593 0.44616264 0.4461565 0.45343986 0.46801618 -0.046209488 -0.07909289 0.16737491 0.44080853 0.4469282 0.4486012 0.40232432 0.23180291 0.22428206 0.17466487 0.1601075 0.14739905 0.42227936 0.2489934 0.23727174 0.1483906 0.13284262 0.15827113 0.24014609 -0.10892907 -0.08949121 0.0745769 0.13784115 0.26714987 0.2095288 -0.13637514 0.3288752 0.37396348 0.2490161 0.0781759 0.20756014 0.28647745 0.29868266 -0.23122938 0.18223691 0.36383712 0.32141685 0.1560333 0.07417526 0.2424109 -0.052683853 0.18240604 0.6419315 0.40435165 0.32319996 0.25296357 0.18291692 0.30839407 0.56598485 0.6587322 0.7345135 0.30193728 0.26782146 0.5444246 0.58761096 0.75971055 0.7834157 0.2023498 0.51347256 0.67175305 0.7371856 0.42892063 0.35908946 0.54764926 0.5404705 0.49296227 -0.16768926 0.58739096 0.5081069 0.5248313 0.58035076 0.4457012 0.5690622 0.47362274 0.50238234 0.45830822 0.41919392 -0.06074343 0.54417485 0.44918668 0.17357478 0.00774486 0.0595618 0.03008384 0.009158295 0.28006575 0.57180506 0.26107997 0.22194113 0.113384604 0.274436 0.069267906 0.5379478 0.6086073 0.68522 0.6851809 0.26079547 0.4675904 0.66024935 0.6538133 0.61921906 0.6728306 0.6931571 0.7045318 0.63243186 0.70643187 0.73052335 0.7026614 0.7272185 0.7372935 0.40958318 0.51272905 0.5698107 0.6646396 0.35954738 0.3296695 0.2739858 0.463818 0.77696323 0.83972824 0.37483412 0.37974852 0.35436094 0.89247453 0.33642927 0.8338057 0.61848307 0.7706794 0.6484357 0.5299624 -0.011198841 0.14078903 0.7801799 0.770929 0.12505014 0.33275425 0.7493763 0.79177654 0.78769386 0.43771672 0.45011783 0.46038628 0.04656093 0.14933333 0.4697229 0.4102502 0.020411117 0.3359265 0.4438339 0.4457261 0.45670748 0.4798215 0.43872333 0.13180663 0.0727473 0.23984557 0.27629495 0.43252707 0.42771763 0.40341264 0.36478284 0.20567685 0.1412848 0.12927817 0.20001881 0.38524213 0.15396553 0.2184577 0.21808389 0.1555033 0.15781638 0.24724072 0.071165465 0.107325785 0.13620237 0.27393788 0.27968612 -0.18020733 -0.11429851 0.23180448 0.16358182 0.24416569 0.0047867745 0.5953771 0.57099 0.5183786 0.3255462 0.1222785 0.19487955 0.59265345 0.47132188 0.40902817 0.15557708 -0.20489673 0.5826197 0.0949312 0.7283962 0.6961888 0.381945 0.4028514 0.77842414 0.19050375 0.46500272 0.31285247 0.4757465 0.6112041 0.7234783 0.8016449 0.18796593 -0.17334284 0.12120549 0.48737735 0.48786592 0.5630832 0.3832428 0.42571917 0.48375034 0.48728365 0.50255626 0.5314994 0.5417427 0.3246639 0.53092694 0.49155915 0.37327284 0.504092 0.4671422 0.3973909 0.25215816 0.15115198 0.4801041 0.044260442 0.062284313 0.4478434 0.6917476 0.6040427 0.6142514 0.42751312 0.03926401 0.59676313 0.7052133 0.734113 0.724198 0.46668547 0.5963268 0.6556101 0.6312511 0.6762277 0.706666 0.6922711 0.6541491 0.66572416 0.31615815 0.35568172 0.337668 0.85428697 0.85256904 0.68484044 0.6241142 0.5139335 0.7170383 0.77999246 0.70669746 0.6244283 0.6989664 0.7404437 0.76314044 0.7227864 0.744542 0.74567413 0.6587908 -0.25395203 0.42613792 0.6866624 0.7484951 0.75397015 0.13877623 0.21293208 0.41280377 0.111273006 0.43511692 0.09045783 0.100138724 0.31914344 0.15921392 0.16786726 0.44634432 0.47631204 0.48357576 0.45619667 0.14043331 0.33584434 0.40921688 0.3959813 0.431063 0.39118743 0.17672616 0.12202718 0.2903772 0.33822465 0.26033884 0.34687722 0.20876026 -0.39321595 0.18629941 0.0017311499 -0.052486602 0.1458159 0.15454616 0.24583843 0.22598535 0.061541576 -0.07513874 0.07787164 0.7243189 0.7050303 0.6158469 0.22716445 -0.03685034 0.69805205 0.66529524 0.57443404 0.47761288 0.42048472 0.058937427 0.107432455 0.067824155 0.13553667 0.21531565 0.7239514 0.019256204 0.46550965 0.65867364 0.5619422 0.48084527 0.6603656 0.43415982 0.71434593 0.2861502 0.27033317 0.34417024 0.41656157 0.3059462 0.39414826 0.72104466 0.7910808 0.35666704 0.40537113 0.5143304 0.6330766 0.4320033 0.49839273 -0.1395396 0.5363278 0.54681903 -0.033808976 0.554388 0.21809682 0.51894855 0.4655968 0.42756718 0.133106 0.28817862 0.3441922 0.37909922 0.36963028 0.31799954 -0.07224454 -0.054883957 0.012685984 0.16276532 0.5794165 0.6190151 0.7033969 0.2717625 0.3765003 0.56110394 0.45438027 0.55678046 0.64373696 0.6420201 0.55529195 0.6140967 0.62688756 0.7881172 0.7850783 0.66381204 0.73814046 0.7811115 0.76962066 0.7542008 0.69345087 0.8279233 0.7900007 0.7591969 0.74923325 0.75777507 0.7190922 0.17392391 0.25651956 0.28037247 0.7938161 0.2671191 0.1535953 0.8013537 0.72901505 0.6674143 0.5326383 0.41983947 0.7306739 0.7994223 0.76937544 0.77925783 0.6737225 0.6754304 0.77207124 0.7119357 0.35161608 0.6214263 0.77138126 0.71189964 -0.04484728 0.29974014 0.29209214 0.38980553 0.44193166 0.17060693 0.17526758 0.17901134 0.446837 0.44039494 0.4686057 0.45261532 0.15364501 0.17527753 0.45542562 0.48885226 0.3374233 0.39659065 0.45068544 0.1351776 0.42121136 0.46484563 0.26683003 0.28362677 -0.2502469 0.12093558 0.054581583 0.16461745 0.39937133 -0.18192568 0.12930197 0.15659612 -0.19248873 0.06881951 0.15138026 0.76143014 0.7243232 -0.18244396 0.79833305 0.79640764 0.5275334 -0.065369286 0.03868677 0.017626267 0.7488854 0.1899395 0.6594732 0.51392305 0.6409662 0.37620866 0.19154991 0.21247157 0.23411047 0.6874784 -0.05199286 0.14787357 0.28567496 0.2993404 0.4119888 0.4897453 0.379614 -0.009278744 0.45551914 -0.10077314 0.5260231 0.5316354 -0.13019735 -0.26076752 0.5580316 0.4507608 0.42675227 0.22942361 0.4061576 0.39632487 0.35224152 -0.26072285 0.003952261 0.2371687 0.30051056 0.2847353 0.36354578 0.4976873 0.5268787 0.57691765 0.5407385 0.5305947 0.56054384 0.5870496 0.60011506 0.7421127 0.79018056 0.78228116 0.54407924 0.57407516 0.77831805 0.77044123 0.5187244 0.7368265 0.68267703 0.17107473 0.1806716 0.18405738 0.17931738 0.8025851 0.7304484 0.61215705 0.8192072 0.8125508 0.81490517 0.7912774 0.76086354 -0.03898593 0.7294693 0.020448267 -0.10769637 0.21848513 0.11972851 0.05957494 0.38746524 0.16509223 0.5647057 0.17062019 0.17963924 0.22092359 0.24480522 0.67094624 0.21471557 0.13573474 -0.07250662 0.6151743 0.39675215 0.3628382 0.116542734 0.24348962 0.31330732 0.48829806 0.54774904 0.22825786 0.19682984 0.13970368 0.0067332555 0.0860834 0.41519785 0.15231434 0.006269753 0.07392734 0.4796458 0.46303314 0.42034334 0.11599167 -0.061300658 -0.15009539 0.7855723 0.7662436 0.75253814 0.68443125 0.16200072 0.792174 0.7752 0.69687057 0.5325836 0.46092272 0.2290251 0.06914309 0.12557743 -0.01844488 -0.03915284 0.17681393 0.28845564 0.3140766 0.08385209 0.007362917 0.34599784 -0.14174873 0.47558713 -0.48988414 -0.1605964 0.5184145 -0.28498542 -0.099856764 0.47725767 0.41486812 0.052704453 0.072634615 0.0036268681 0.3761711 0.39829051 0.39235127 0.41115892 0.3947966 0.3721423 0.20504712 0.056127537 -0.28990984 -0.28009692 0.14796838 0.19918653 0.1276967 0.07718848 0.34044433 0.38593724 0.43126845 0.4255866 0.40205756 0.08444744 -0.2852464 -0.30842385 -0.010151155 0.20889783 0.23481914 0.2028265 0.15326469 0.22802167 0.2626949 0.27418235 0.40667528 0.48805946 0.5155935 0.45507616 0.1384638 0.3332095 -0.16407913 0.29014128 0.2106168 0.16938077 0.19606432 0.28766662 0.31718922 0.29846686 0.36526626 0.5282962 0.5660457 0.5182774 0.45012647 0.23011611 0.29624325 0.32324746 0.42844945 0.3343537 0.2719122 0.24245593 0.29726243 0.34401947 0.35541153 0.31278673 0.47471178 0.51414394 0.5120901 0.3414158 0.3629315 0.3661491 0.41708404 0.38440603 0.6219568 0.765797 0.7922149 0.4663086 0.76615655 0.48112762 0.6669676 0.15768445 0.48774856 0.1839959 0.21413463 0.76657116 0.8139125 0.79438484 0.74077 -0.018325992 0.80209655 0.74625623 0.00015041232 -0.0005983263 0.74351597 0.5144639 0.33459753 0.14099994 0.107416876 0.0729053 0.0064273775 -0.04071325 0.20775117 0.18280661 0.30609512 0.33618203 0.16558605 0.25492093 0.68400925 0.36222076 0.3215806 0.1340677 0.20527488 0.22424705 0.27628148 0.76422083 0.3866312 0.37606993 0.28257656 0.06985333 0.063453235 0.029969627 0.12881373 0.74609005 0.0778096 0.05665908 0.027877409 0.58837366 0.5220259 0.6829478 0.66039634 -0.0671012 0.47518453 0.50535756 0.19336778 0.18542816 0.16638501 -0.009019583 0.023074457 -0.14812815 -0.17538834 0.5095965 0.5162365 0.1756523 0.19065188 -0.1845923 0.00052856654 0.7217412 0.6918788 0.6640631 0.4873108 0.18796283 0.6963471 0.6719104 0.5188345 0.67638564 0.10007038 0.15140834 0.57099867 0.029325545 0.16728123 0.44316533 0.121820144 0.15136963 0.2892693 -0.12194182 -0.032106288 0.12675995 0.07920189 -0.030608485 0.04127883 0.061469227 0.17972954 0.15770222 0.04435429 0.09644629 -0.004262794 -0.0007150769 0.38098633 0.34892797 -0.13981217 0.048574798 0.16534501 0.17561851 0.4042012 0.36839706 -0.03757351 0.02745156 0.08754869 0.13857405 0.14590314 0.11025541 0.10650886 0.24036738 0.12691186 0.36976573 0.34637308 -0.020367038 0.027888576 0.08065028 0.112046994 0.13306916 0.1360751 0.12065478 0.08874392 -0.018369995 0.23915121 0.33772957 0.35738105 0.32151473 0.22750163 0.33325619 0.37418276 0.39176184 0.3745616 0.33241543 0.010907993 -0.0074925497 0.045250036 0.08930483 0.13916184 0.18854433 0.15452223 0.104822055 0.27879256 0.32352024 0.19004638 0.33613372 0.40775943 0.4303997 0.03410115 -0.26571593 0.057254065 0.10729089 0.20770976 0.23668864 0.18319865 0.24960214 0.33141747 0.31604236 0.44906512 0.48913532 0.15476824 -0.15334117 -0.13829064 0.08630513 0.23876095 0.20265543 0.15119055 -0.09974387 0.082324445 0.17801169 0.12020466 0.2684883 0.3246508 0.37110507 0.46350482 0.51835775 0.5390669 0.18680306 0.20636535 -0.0052646995 -0.01700189 0.28838122 0.34029084 0.22761804 0.098807454 0.1324893 0.24848376 0.025625624 0.13759732 0.39716285 0.431075 0.4192352 0.3140214 0.510756 0.55428755 0.5577846 0.35929787 0.37024868 0.33642513 0.28812292 0.1254804 0.29227412 0.31480157 0.05005502 0.11465088 0.29518446 0.44750893 0.36413544 0.33907482 0.25758043 0.3862237 0.4234844 0.41953933 0.36631608 0.19043948 0.16425444 0.37223107 0.46915847 0.490607 0.48649216 0.47611618 0.33590382 0.50258076 0.54497707 0.5384192 0.51686394 0.4878821 0.63123786 0.7479938 0.36791578 0.41182244 0.6811086 0.33169273 0.53643036 0.19122377 0.4271555 0.18814081 0.19353291 0.18719131 0.16837619 0.71094316 0.5819538 0.5432173 0.7367865 0.6022419 0.5321205 0.119630754 0.58424604 0.47356522 0.3570708 0.14993626 0.17149693 0.4261206 0.37391633 0.19235355 0.16485044 0.072512224 0.46565938 0.52766895 0.13599004 0.28669143 0.4220091 0.45821407 0.5758179 0.6117512 0.36894545 0.36768705 0.305029 0.22726603 0.05456885 0.07486217 -0.09504189 0.08448231 0.3623113 0.4504334 0.6137104 0.7259158 0.7802291 0.17507851 0.265391 0.17877293 0.076722935 0.081068 0.5625397 0.7198501 0.73421043 0.11520128 0.7532271 0.72191596 0.78420484 0.21126524 0.10065952 -0.089542985 -0.13125211 0.4812803 0.4933449 0.49524397 0.42463872 0.1532124 0.19558871 0.20536721 0.1551718 0.1455555 -0.12585759 0.50017226 0.38750535 0.029604398 0.1581646 0.07699628 0.084079966 0.58458996 0.5788691 0.32877436 0.000745289 0.09400768 0.09200096 0.6124166 0.54410386 0.33680543 0.13350753 0.13254695 0.09655095 0.42556524 0.42900178 0.16089533 0.34968567 0.1353757 0.1684189 0.2614386 -0.15124682 -0.098994665 0.035070702 0.054118384 -0.12339513 -0.1417442 -0.06520633 -0.07108485 -0.046018593 0.0077896044 0.08733162 -0.074412346 -0.17666261 0.01303114 0.12642275 0.07622291 0.17717738 0.048954487 0.08680424 0.03487973 0.012714446 0.26470733 0.18103859 0.13083208 -0.05491309 -0.074871175 0.2756529 0.15515761 0.07386701 -0.052593477 -0.058120824 0.3330937 0.31122127 0.029719323 0.19730818 0.3523181 0.38605076 0.0038810968 0.42398748 0.40740794 0.17516899 0.22623381 -0.0902839 0.47827622 -0.00075448677 0.081634216 0.5348036 0.20476207 0.15878439 0.08617103 0.056408398 0.14395443 0.11049961 0.21447475 0.054911137 0.01858924 -0.10047664 0.43083423 0.55890334 0.57103515 0.17642002 0.19668621 0.17777492 0.27888852 0.19843525 -0.041745268 0.055238362 -0.06698039 0.07319751 0.25740153 0.12667453 0.3834381 0.5233775 0.5557114 0.56251705 0.31647792 0.33830035 0.32492223 -0.00892676 0.18663476 0.22388074 0.21243139 0.14533505 0.24609178 0.29342693 0.30102396 0.20317593 0.28413188 0.26556462 0.25977796 0.50128114 0.5250908 0.5617192 0.5482483 0.5359638 0.44456756 0.3370632 0.3398773 0.565652 0.55694735 0.52182156 0.41017982 0.35730767 0.36758208 0.29823726 0.3484893 -0.037729237 0.2565768 0.056698862 0.29224518 0.40008134 0.3202445 0.36260176 0.36561656 0.37876362 0.21650738 0.25974762 0.2759884 0.27956632 0.32654053 0.26978374 0.023728967 0.10298122 0.5315645 0.60464305 0.13556334 0.22178417 0.09300372 0.019312195 0.6237661 0.6381951 0.23289013 0.21798874 0.095219105 -0.07771456 0.12411975 0.19904731 0.23070738 0.22748041 0.4233515 0.4582258 0.15799707 0.029464036 0.14827149 0.18927445 0.1931334 -0.021869093 0.18614796 0.38800845 0.06434607 0.1275756 0.18491839 0.09438813 0.11130425 -0.020718984 0.1036928 0.009840138 0.092270374 0.10513373 0.14841461 0.274642 0.0501379 0.33264863 0.35213318 0.33110547 0.09650427 0.22206184 0.3857228 0.44515675 0.4633206 -0.3395164 -0.4877082 -0.35979557 -0.09901751 0.17346206 0.30510077 0.35149547 0.510029 0.49333054 0.3915457 -0.2588449 -0.118284255 0.027727097 0.22430985 0.31651032 0.5040573 0.4930277 0.42370513 -0.23211342 0.0021002889 0.19858709 0.41048962 0.48595762 0.5013063 -0.047588263 -0.2754946 -0.1873151 -0.05502586 -0.15513176 0.030744597 0.1603023 0.23834364 0.4652171 0.33497763 -0.119183116 -0.17538968 -0.28422248 -0.040472783 -0.20807257 0.2669017 0.19339435 0.35458902 0.10188452 0.33036226 0.2611021 0.22921641 0.52932096 0.6001868 0.24272376 0.34453955 0.4176057 0.55099