# vtk DataFile Version 2.0
Really cool data
ASCII
DATASET POLYDATA
POINTS 5062 float
-12.689365 39.169277 24.719406
-12.775138 39.14682 25.462715
-12.901607 39.67623 24.78429
-13.001748 39.639233 25.392012
-12.890282 39.85661 26.06913
-12.809848 40.490593 24.58855
-13.080374 40.33284 25.529512
-12.857322 40.412716 26.25817
-12.762198 41.45126 24.796469
-12.950604 41.52737 25.604
-12.84056 41.550705 26.196161
-12.731962 42.150864 25.000092
-12.7705345 42.2651 25.560825
-12.699473 42.17177 26.233288
-11.516114 37.023518 23.173178
-11.5178385 37.091293 22.745468
-12.075464 38.94512 24.313553
-12.607786 38.975742 24.837503
-12.364445 38.812935 25.73649
-12.217115 38.926105 26.228865
-12.647494 39.817802 24.334217
-12.516331 39.495968 26.467537
-12.115271 39.650112 26.897766
-12.346092 40.33596 24.19216
-12.098744 40.76748 27.25683
-11.770708 41.016277 27.668228
-12.432407 41.414787 24.332945
-12.47515 41.61597 24.504414
-12.328755 41.581314 27.017765
-11.7338085 41.543022 27.77085
-11.975839 42.1714 24.227367
-12.436382 42.346054 24.74843
-12.524964 42.38502 26.32289
-12.0273075 42.366276 27.055508
-12.136321 42.86034 24.877583
-12.363787 42.936214 25.683117
-12.172792 43.011757 26.086273
-10.577202 29.160185 20.942862
-10.592021 29.101662 21.276175
-10.618594 29.51262 20.640697
-10.68712 29.550123 21.354568
-10.582209 29.831852 22.20635
-10.6571 30.127085 20.770247
-10.708596 30.308067 21.584295
-10.629273 30.355871 22.442467
-10.56761 30.547762 23.094389
-10.592356 31.013186 22.31653
-10.552396 31.010344 23.244055
-10.900117 36.063953 21.664623
-10.99586 36.02765 22.296331
-10.975495 36.00841 23.091722
-11.032983 36.630814 21.669283
-11.338145 36.61362 22.776096
-11.409194 36.913673 23.220713
-10.890184 36.883377 24.160412
-11.080141 37.392334 21.834274
-11.344668 37.291786 22.50132
-11.47545 37.31557 23.061481
-11.25 37.520977 24.024881
-11.065867 38.23966 25.40204
-10.6868105 37.997025 21.570282
-11.033587 38.75873 22.970118
-11.6745205 38.589417 26.243773
-11.277603 38.93781 26.913794
-11.623466 39.565643 27.175074
-11.081973 40.0821 27.720066
-10.898549 40.59302 23.65614
-11.698968 40.23502 27.469885
-11.067946 40.916615 28.189579
-11.099557 41.552013 28.278042
-11.18867 42.077065 28.142437
-11.5658045 42.930824 24.47358
-11.733503 43.404602 25.45321
-11.013844 43.281776 27.547579
-10.77461 43.39617 27.813597
-10.999368 43.901295 26.431562
-10.799118 46.719284 20.67246
-11.024839 46.791466 21.519835
-10.8681135 46.75226 22.448584
-10.746426 47.505924 20.166714
-11.089232 47.425453 20.763805
-11.218879 47.533752 21.66164
-11.107873 47.60138 22.327044
-10.77028 47.630188 22.97042
-11.090933 48.18988 20.71756
-11.178572 48.236267 21.772654
-10.918127 48.830746 23.130703
-10.880255 49.69656 20.197308
-11.218067 49.470432 20.714476
-11.428649 49.5156 21.731667
-11.30438 49.47773 22.529541
-10.834559 49.547085 23.189827
-10.763394 50.28387 20.271418
-10.981631 50.3198 20.70821
-11.283807 50.163074 21.500792
-11.105643 50.26028 22.418262
-10.872625 50.127872 22.98046
-10.786345 50.707405 21.075525
-10.878524 50.80224 21.335457
-10.862084 50.69028 22.170506
-10.023436 28.978142 20.07643
-10.2573395 28.890053 20.657137
-10.141885 28.746859 21.305117
-10.057429 29.033697 22.367561
-9.902297 29.170246 23.144182
-10.18845 29.493502 19.938112
-10.512945 29.26117 20.489807
-10.414751 29.501879 22.399899
-10.142133 29.645912 23.280315
-9.949231 29.92418 23.88571
-9.6547985 30.234772 19.085506
-10.178534 30.551285 20.061604
-10.52955 30.776297 21.115803
-10.364367 30.428902 23.426294
-9.901406 30.536625 24.044971
-9.780429 31.829674 16.58107
-9.9821615 31.526922 17.407803
-10.18569 32.019863 18.087442
-10.117379 31.5188 19.128923
-10.150048 31.28264 20.588343
-10.437239 31.339272 21.827497
-10.403994 31.222313 23.365726
-10.162929 31.180286 23.695406
-9.856409 32.479595 16.73585
-10.205275 32.493546 17.489328
-10.16376 32.611748 18.574383
-9.855262 32.59062 20.044136
-9.861089 32.67071 21.66828
-10.036335 32.243095 22.158913
-10.014735 32.034286 23.47967
-9.834755 33.365704 17.002035
-10.134351 33.269733 17.488708
-10.225865 33.23189 18.251701
-9.792238 33.41232 19.131536
-9.583046 33.189045 21.252453
-9.766109 33.340088 22.605074
-9.782121 33.942307 17.601694
-9.722865 35.126873 21.437523
-10.396509 35.72333 21.215696
-10.491527 35.45455 22.840979
-10.547198 35.47482 23.418587
-10.066951 35.712925 24.10994
-10.527925 36.534363 21.111551
-10.579377 36.977684 21.12726
-10.585429 37.690872 21.444454
-10.480174 37.268448 24.685673
-10.861335 38.2063 26.077667
-9.700159 38.723236 21.135235
-10.44629 38.32164 21.600328
-10.880067 38.56795 26.61867
-10.372914 38.923626 26.905617
-10.047487 38.809402 21.56334
-10.310593 39.29707 22.30036
-10.474405 39.752228 27.515568
-10.314457 40.063446 27.890045
-10.698576 40.828083 28.35208
-10.334128 41.019997 28.578518
-9.541782 41.928925 21.239357
-9.539269 41.66556 22.893656
-10.054959 41.40619 23.455246
-10.411785 41.607384 28.680067
-9.531207 42.222954 19.692257
-10.178205 42.190166 28.822905
-10.219745 43.243877 23.829142
-10.328618 43.525574 28.497707
-9.98229 43.584496 28.89328
-10.075232 44.414066 25.350323
-10.398203 44.31009 26.440317
-10.3523245 44.178555 27.797565
-9.987266 44.349686 28.391582
-9.804571 44.265648 28.891548
-10.434686 46.132675 20.835993
-10.619515 46.142292 21.674805
-10.324939 46.017544 22.473104
-9.982397 46.0804 22.961336
-9.750869 44.767616 26.968079
-9.804865 44.77123 27.81671
-10.215714 46.74931 19.952301
-10.504972 46.36052 20.49603
-10.18183 46.634975 23.181839
-9.918499 46.865204 23.646994
-10.258054 47.427853 19.804123
-10.019336 47.937202 23.802351
-10.31872 48.72533 19.867832
-10.399735 48.84958 23.513954
-9.86526 48.256138 23.77546
-10.42602 49.623543 19.92269
-10.0944195 49.469704 23.774948
-10.418625 50.22025 20.083294
-10.439051 50.33295 23.1471
-10.386603 50.91039 20.812607
-10.29166 51.212646 21.619078
-10.237499 51.088787 22.246004
-10.352805 50.69491 22.918226
-9.323479 28.362244 20.83846
-9.344626 28.365704 21.521875
-9.034882 28.384039 22.100178
-9.455005 28.863373 19.855696
-9.746299 28.492441 20.828424
-9.6600685 28.463163 21.63485
-9.256164 28.64319 22.637024
-9.34468 28.931425 23.340647
-8.997425 29.197052 24.041481
-8.835895 30.137512 16.894732
-9.000151 30.18977 17.706007
-9.460712 29.390167 19.447357
-9.325334 29.57047 24.138062
-9.041657 30.904335 16.016277
-9.342841 30.809946 16.569668
-9.473301 30.799099 17.349463
-9.432311 30.51374 24.353258
-9.157775 31.600952 15.838463
-9.283707 31.35165 24.492092
-9.26827 32.360012 15.991418
-9.20408 32.215187 24.16361
-9.116239 33.201775 16.180786
-9.428713 33.18892 16.49943
-9.358363 33.80567 16.879002
-9.397934 34.184994 17.465729
-9.466901 34.290627 19.50931
-9.498626 34.136436 23.417072
-9.404782 34.91971 23.75217
-8.72747 35.54232 19.093044
-8.864964 35.3988 19.460941
-9.417976 35.298073 24.265406
-9.1905155 36.485184 25.223343
-8.937431 37.49946 20.377436
-9.181502 37.894638 20.693018
-9.425213 37.509415 25.405447
-8.877592 38.041653 26.699402
-9.113695 38.888966 20.575161
-8.849091 40.064655 19.863337
-8.971319 39.421806 20.89836
-9.491292 39.825493 27.754581
-9.107859 40.97743 19.371532
-8.891474 40.366543 20.26281
-9.551904 40.08728 21.73478
-8.988849 41.63027 18.800795
-9.444751 41.849316 19.522902
-9.461997 41.55728 28.839666
-8.945514 42.30915 18.823616
-9.41037 42.296295 19.4296
-9.357112 42.57518 20.605362
-9.501613 42.183273 21.047152
-9.405284 42.792187 29.136225
-8.873716 43.611942 19.518955
-9.431856 43.15177 21.41305
-9.387992 43.555172 29.307041
-9.051334 43.52688 29.563404
-8.710246 44.37586 19.695662
-8.9798355 44.641773 20.991596
-9.21136 44.890938 22.870962
-9.279579 44.32795 29.214012
-9.044246 46.012695 20.003101
-9.049136 45.53297 24.029839
-9.30474 45.05572 25.360178
-9.400479 45.015835 27.788383
-8.983691 45.090916 28.642986
-9.097856 44.886074 28.852015
-9.420929 46.602848 19.804733
-9.287725 47.32173 19.687145
-9.417397 48.365135 19.610466
-9.146412 48.77603 24.493305
-8.904945 48.381668 24.797623
-9.538518 49.508095 19.739874
-9.721161 50.22399 20.001675
-9.379159 50.227974 23.527937
-9.605483 50.876923 20.462347
-9.475737 51.418808 21.523466
-9.520701 51.398514 22.19016
-9.569226 50.987278 22.93854
-9.313123 51.53325 21.772404
-8.702857 28.414034 20.12442
-8.527831 28.278038 20.662933
-8.61171 28.302294 21.44273
-8.930117 28.463573 22.35647
-8.030486 28.81769 19.199322
-8.543165 28.602083 19.896732
-8.550139 28.587986 22.63235
-8.670364 28.762947 23.407
-8.524792 29.103298 23.960379
-8.481788 30.3664 16.08094
-8.337003 30.114887 16.48018
-8.35658 29.562237 18.87666
-8.801048 29.651344 24.366465
-8.508918 30.763422 15.738216
-8.57308 30.646616 24.70759
-8.457782 31.81863 15.291649
-8.67287 31.597403 15.483998
-8.697604 31.376223 24.627893
-7.618456 32.136234 28.222345
-8.5678 32.031155 15.338171
-8.621555 32.69481 15.426908
-7.7608137 32.5563 27.714447
-7.867253 32.731846 28.551132
-7.8218617 32.945343 29.375895
-8.24437 33.358246 15.800463
-8.147912 33.7725 28.777323
-7.996406 33.46757 29.38543
-7.7691393 33.503582 29.74565
-8.150127 33.712303 16.122871
-8.585292 34.250034 16.938993
-8.315168 34.34509 24.897266
-7.729249 34.776676 27.715635
-7.9918585 34.26264 28.41105
-7.860639 34.2668 29.528343
-7.7164054 34.252827 29.779285
-7.798529 35.21664 26.621506
-7.820038 35.351994 28.77819
-7.6586432 35.170006 29.356642
-8.362017 35.75804 18.76093
-8.427781 36.2861 19.726723
-7.8686256 37.8561 19.32394
-8.1706085 38.69278 19.807806
-7.7965546 38.603035 27.656185
-7.9645934 39.907074 18.9872
-8.457398 39.40276 19.908712
-8.730135 39.887894 27.509579
-8.23029 40.35171 18.978104
-8.272064 41.613865 18.23866
-8.694952 41.444103 18.494804
-8.627926 41.606255 28.692192
-8.362556 42.227715 18.32379
-8.285343 42.845036 29.6911
-8.123654 43.522564 18.803864
-8.313288 43.63559 29.841373
-8.042107 44.47692 19.212362
-8.671113 44.539787 29.430174
-8.435267 44.274143 29.720942
-8.363425 45.25808 28.683321
-8.066025 45.30028 29.318775
-7.9405603 45.86969 27.742199
[...]
POINT_DATA 5062
SCALARS features_00 float 1
LOOKUP_TABLE default
0.6145165 0.67214864 0.66008985 0.7006675 0.70621717 0.6495352 0.7227672 0.69827616 0.63311744 0.6800585 0.6722833 0.62820256 0.6486288 0.6423231 0.4751603 0.48885298 0.47774786 0.6050682 0.62419426 0.5985388 0.5984136 0.6370796 0.5476358 0.54906607 0.51267385 0.4514383 0.55621576 0.58014065 0.57016397 0.44747514 0.4871416 0.5971285 0.61953986 0.53125364 0.5806277 0.6147604 0.5802113 0.66407967 0.6684054 0.63171375 0.64005435 0.61896193 0.56597954 0.56382275 0.5746416 0.5705172 0.49084324 0.53068256 0.50647295 0.5085278 0.48244023 0.49662668 0.49682522 0.47501665 0.38003084 0.4616369 0.48419756 0.47018534 0.3822409 0.3291112 0.33701465 0.2962953 0.4984644 0.43967223 0.4683504 0.40049723 0.10640204 0.45477974 0.3934837 0.3981919 0.4187376 0.4869916 0.5335164 0.42298895 0.42134345 0.34311655 0.6211861 0.60052806 0.5129669 0.644768 0.64505816 0.6200818 0.56751573 0.4923549 0.6910494 0.65546083 0.5375922 0.71064043 0.7329216 0.7549341 0.67660356 0.5898274 0.7395768 0.7584761 0.7708014 0.73670375 0.66839576 0.7792528 0.78366965 0.7633643 0.6337681 0.66503453 0.6704953 0.6658567 0.66548216 0.6122556 0.6485386 0.6470661 0.644775 0.63306355 0.43625408 0.48870277 0.47353256 0.5857272 0.5868703 0.63773406 0.537606 0.44913453 0.2954462 0.32161427 0.41249263 0.5135741 0.5281482 0.61025333 0.55266166 0.39265093 0.15584607 0.17688781 0.30210882 0.43883914 0.5711695 0.5520925 0.4733993 0.3036266 0.051515993 0.16869606 0.5018263 0.30769807 0.45784023 0.456961 0.40544087 0.2791312 0.43436354 0.402843 0.35285014 0.21089494 0.3138064 0.10062536 0.2650851 0.37366945 0.30821496 0.1614432 0.12994963 0.35583246 0.34292054 0.37126338 0.3546438 0.13222252 -0.14106889 -0.053583436 0.3757121 0.37113893 0.38905638 0.17874281 0.43446046 0.42680752 0.19100927 0.26397482 0.39084083 0.40934938 0.41550055 0.57363486 0.55329686 0.41523796 0.30535504 0.2813336 0.3633004 0.57417405 0.5957734 0.38089675 0.3292941 0.59129107 0.3901621 0.63652784 0.46988422 0.39042324 0.6789547 0.4715798 0.71778935 0.6396211 0.7684213 0.77339333 0.750605 0.6890375 0.611007 0.6023523 0.56295335 0.58025694 0.6460798 0.6324126 0.60096145 0.6447784 0.66065973 0.50647026 0.3768081 0.5203178 0.66679585 0.65352595 0.6132065 0.50139046 0.5985408 0.6709622 0.5286263 0.65558165 0.40588886 0.603021 0.59350294 0.5324218 0.46751875 0.23595613 0.039363176 0.11130573 0.14058676 0.11119498 0.12724458 0.08642186 -0.0071395785 0.04760821 0.03481949 -0.034582496 -0.033518746 0.12283325 -0.03021833 0.26096752 0.34391198 0.13792767 -0.021674749 0.4223281 0.38221723 0.33642 0.44591445 0.40367454 0.25863576 0.17394695 0.36056802 0.3584341 0.1244192 0.3884064 0.35557115 0.23248047 0.14535666 0.009906642 0.3939007 0.25498483 -0.107086636 0.037637353 0.33141342 0.3397998 0.36377317 0.43276453 0.41616112 0.4631578 0.31972468 0.24526118 0.5630133 0.6773206 0.4915821 0.725122 0.71890306 0.69888645 0.64668983 0.6961734 0.52811646 0.536536 0.53660715 0.5556861 0.3463847 0.4894434 0.52386343 0.58124214 0.6162307 0.6175586 0.5452735 0.3044386 0.6678532 0.6505896 0.60320735 0.67365885 0.6743082 0.5072715 0.5999559 0.67878914 0.66872936 0.5662216 0.6459677 0.6935173 0.57410055 0.62657094 0.6776477 0.69227844 0.4845872 0.42735228 -0.2251028 0.41790366 0.5657892 0.63063693 0.63456106 -0.0026460555 0.5117085 0.5393084 0.0829055 -0.051132895 -0.03760302 -0.06928351 -0.040030308 0.13875532 -0.005898528 0.13318248 0.24283552 0.38330036 0.40369815 0.2719853 0.41396433 0.2514646 0.32524782 0.30180314 0.20547844 0.35291642 0.33208725 0.29137653 0.28094357 0.18674278 0.21061444 0.27701515 0.3727911 0.13167198 0.04304624 0.26898763 0.25637022 0.16881138 0.23436198 0.63873076 0.6428421 0.5462514 0.36397523 0.44430676 0.485192 0.46801442 0.28611854 0.33519685 0.42474085 0.49330023 0.2768686 0.4800064 0.6196566 0.59772074 0.55181515 0.5650195 0.61409795 0.5156998 0.5521635 0.5820942 0.63535655 0.6104779 0.6361573 0.6595988 0.6861731 0.7093264 0.5705838 0.61874837 0.6664132 0.47841817 -0.026173174 0.696339 0.4902916 0.56130004 0.62187266 0.6494535 0.65399146 0.2977748 0.30300796 0.61687297 0.5388638 0.5969311 0.6113082 0.25769925 0.122735225 0.5398357 0.50746346 0.5488732 0.5979694 0.09804009 0.28819913 0.40040034 0.1506456 0.056317896 0.035696357 0.04091133 0.05066637 0.20042756 0.30672598 0.33587533 0.2247596 0.2681321 0.23610573 0.23032545 0.21735665 0.26088473 0.023935165 0.2639869 -0.0900383 0.20956329 0.2417123 0.2720192 0.14193968 0.053424466 0.15104532 0.20049642 0.14143474 0.03025576 0.035772696 0.058547102 0.0097077135 0.24294168 0.46134552 0.16896117 0.85618913 0.81787264 0.18414089 0.27005348 0.32740363 0.2281051 0.34580237 0.21114646 0.12221162 0.27716023 0.309821 0.52033985 0.37950242 0.51084757 0.5354774 0.55087864 0.46540105 0.5962043 0.5746308 0.6011301 0.32613942 0.50750804 0.5233118 0.5717751 0.5992692 0.5902868 0.6879528 0.464145 0.5072765 0.62201536 0.37171322 0.69555587 0.45025605 0.57331055 0.5572984 0.16712575 0.6031716 0.30886522 0.3605898 0.4754936 0.58533895 0.56769526 0.4836993 0.42339295 0.5134625 0.6073439 0.59317946 0.56656426 0.19944613 0.2782792 0.33177093 0.39603662 0.48312134 0.5391345 0.5777459 0.1871426 0.06590947 0.45083082 0.0865681 0.052090816 0.026153289 -0.011272848 0.094947346 0.110766046 0.21510477 0.21852525 0.24182138 0.26331565 0.18436456 0.2487684 0.15090898 0.23042674 -0.06846289 0.2531553 0.23396997 0.25647187 -0.012982376 0.14964515 0.19584295 0.26008087 0.046474997 0.0385492 -0.029859602 0.0008700602 -0.10738222 -0.0690086 0.048336998 0.06230185 -0.022362046 0.38445058 0.28573456 0.30660674 0.33922398 0.37174892 0.94462335 0.9441446 0.85014474 0.7375503 0.9224177 0.89732385 0.80298215 0.6738975 0.5925724 0.8677553 0.82883227 0.76582634 0.6975095 0.5969465 0.75313294 0.6757841 0.6721417 0.39042586 -0.3003272 0.089102715 0.14379764 0.39024585 -0.03816423 0.03966228 0.17065498 0.4502295 0.13893518 0.4627303 0.5039385 0.5247706 0.2489223 0.54322803 0.55400616 0.20684034 0.23646381 0.5018738 0.5029602 0.5310104 0.5937833 0.37102312 0.34362495 0.2683664 0.101794824 0.5679763 0.40055513 0.38777605 0.33397812 0.49486342 0.049166232 0.0038586147 0.5527028 0.39723757 0.37048844 0.25129732 0.5333513 0.47070298 0.31714082 0.26292297 0.20051731 0.32290697 0.24187773 0.34990376 0.53697515 0.057483096 0.16075231 0.33426827 0.44481108 0.21177691 0.037204187 0.010623291 0.15830903 -0.006601557 0.23935904 0.24576005 -0.017455563 0.25355732 0.2531145 0.25152808 0.26668286 0.067462 0.2733654 0.28263995 0.11193226 0.072609484 0.2260698 0.048042245 -0.173392 0.1965049 0.24116574 -0.16310912 0.075913675 0.105236515 0.2740527 -0.19950971 0.03261689 0.35548207 0.07186623 -0.062934965 -0.0044722874 0.40924793 0.43240678 0.43602192 -0.03402427 -0.08345604 0.4393554 0.4184253 0.26078406 0.61083174 0.6627396 0.6360961 0.37669873 0.3987139 0.43539524 0.48656636 0.72223437 0.6920489 0.43835723 0.47860107 0.8907386 0.8469752 0.7779513 0.8931581 0.94343245 0.7242127 0.6006485 0.80050886 0.85495853 0.52664 0.7641369 0.78203106 0.5230056 0.4421677 0.70254755 0.65685827 0.51764184 0.55877817 0.54304695 0.5336034 0.37238082 0.46776503 0.3050179 0.37301826 0.35014224 0.3112355 0.26335526 0.113095164 0.37048113 0.39692378 0.35616437 0.25773844 0.024577199 0.22270508 -0.03608617 0.4016476 0.43932772 0.40223932 0.29162693 -0.029763367 -0.08688429 0.18759526 0.28341442 0.37767765 0.41312683 0.37918705 0.33234283 0.14309314 -0.3224998 0.22692324 0.15352923 0.2994544 0.38729352 0.34209907 0.2945542 -0.049759604 0.055161692 0.3999516 0.20818332 0.19609274 0.020137131 0.25020096 0.4757797 0.2643718 0.21293885 0.45940408 0.43624526 0.33267295 0.3338325 0.31283787 0.055354085 0.33162564 0.41072124 0.37017402 0.38382417 0.41332176 0.07603711 0.3415653 0.38615838 0.43848026 -0.072238386 0.3610301 0.3318506 0.21165204 0.13496616 0.18335113 0.30083442 0.18433607 0.10506128 0.21763712 0.2529465 0.35426313 0.12876207 0.25856176 0.20791018 0.04229817 0.28597707 0.35223117 0.28194332 0.054686096 0.38586864 0.38506633 0.29486468 0.031553403 0.049320363 -0.04372175 0.10526842 0.00960806 0.20841303 -0.03309514 -0.05113594 0.2429027 0.23177005 0.08911901 0.24100798 0.14406498 0.28167 0.15979718 0.10062381 0.1845392 0.2531127 0.1021002 0.07834616 0.053678133 0.16685128 0.157003 0.30588233 0.32280278 -0.0384624 0.16449526 0.3571906 0.3595164 0.014115863 0.013975933 0.40904054 0.4455828 0.2645734 0.50870776 0.589661 0.5673175 0.70926034 0.7356874 0.67662036 0.58049303 0.43486995 0.45465094 0.49360222 0.58403605 0.61190104 0.7440958 0.7157334 0.8423338 0.8465544 0.83938044 0.73890465 0.75477564 0.8097259 0.5425985 0.7513565 0.7049937 0.31741658 0.5943222 0.21477516 0.044227827 0.48833603 0.42608452 0.26359037 0.18517853 0.0037398748 0.38402772 0.24748021 0.23270483 0.21737479 0.1818447 0.31121162 0.106399566 0.2373706 0.26513815 0.21871552 0.25780922 -0.005939603 0.06948449 0.25789818 0.35489714 0.35983974 0.27820826 0.2104013 -0.016395025 0.18068627 0.29377612 0.3625499 0.072507665 0.19272587 0.18830216 0.080317885 0.22819877 0.22018386 0.1991666 0.06224223 0.077996545 0.08008554 0.21333393 0.20146336 0.2277996 0.18995972 0.27539295 0.2357082 0.24844047 0.1700876 0.20913014 0.24205793 0.12492291 0.15761572 0.18853737 0.42579246 0.31889158 0.28364033 0.14370069 -0.35254085 0.5111588 0.48731405 0.42188874 -0.008394748 -0.105798066 0.08749757 0.5371618 0.512454 0.42691022 0.35952553 0.18764691 0.116797805 0.015961569 0.2431048 0.011424333 0.15569475 0.5441136 0.49051118 0.3996369 0.31257814 0.24605645 0.19586128 0.1798047 0.10218944 0.04561601 0.0965712 0.4202156 0.3150442 0.3099101 0.18939285 0.100360386 -0.0059429407 -0.024942018 0.35137683 -0.07622233 0.39890042 0.39059317 0.27821076 0.13414258 0.39277983 0.36856 0.08885044 0.39597216 0.24709867 0.14577492 0.19791518 0.41937467 0.31009576 0.38754702 0.15371972 0.16409248 0.26344657 0.17689587 0.21479887 0.17239398 0.04341951 0.15597165 0.10228419 0.13573214 0.26053458 0.20116654 0.20858154 0.35226476 0.14472486 0.20667481 0.41316035 0.5518017 0.5941781 0.6184001 0.6989589 0.3408469 0.3987015 0.54803675 0.6210027 0.64895135 0.6567663 0.7270548 0.74124134 0.7200191 0.6373643 0.780017 0.7618145 0.77696896 0.6693718 0.724028 0.68060446 0.63379323 0.6794836 0.60406053 0.12885642 0.006342817 0.036367305 0.10634811 0.1534252 0.362547 0.050185204 0.086124055 0.282129 0.13199049 0.12931973 0.22860214 0.11120011 0.05866109 0.036323413 -0.27544498 -0.25407413 0.27905643 -0.11000067 0.1482363 0.18308027 -0.18076359 -0.05019745 0.057553146 0.15012583 0.16688848 0.09248893 0.19721687 0.081950516 0.15060668 0.017801419 0.039061204 0.04162524 0.16977468 0.22641918 0.09270339 0.116484426 0.19134896 0.19494534 0.13736562 -0.17511554 0.0753348 0.05258876 0.38080055 0.33938158 0.05236715 0.14829925 0.03700051 0.064764425 0.4847511 0.47845554 0.09462822 0.025404053 0.5494305 0.5453495 -0.17044693 0.11584376 0.5622146 0.55251807 0.15235262 -0.32711926 -0.319705 -0.38074714 0.09935562 0.04641284 0.52721316 0.49744284 0.43283132 0.31807753 0.2323845 0.1895175 0.10836844 0.25459224 0.02781746 0.3445055 0.3196534 0.25799266 0.25943077 0.31563097 -0.14199097 0.36891258 0.27840042 0.34238648 0.3684037 0.41710258 0.45388806 0.34000483 0.34030908 0.31865823 0.45307803 0.4814829 0.30837974 0.22333261 0.44674712 0.4711712 0.38458997 0.44440234 0.21388012 0.018725004 0.22272809 0.1973339 0.21362671 0.09221253 0.08901331 0.20442402 0.10889311 0.24403581 0.23327957 0.1591308 0.31406116 0.22834653 0.44250548 0.5813221 0.5933794 0.24836494 0.650744 0.6347922 0.67900586 0.41813225 0.36215314 0.48769945 0.62038577 0.65499836 0.7071537 0.712698 0.67898226 0.6726109 0.69733715 0.6925061 0.67947567 0.60380936 0.674404 0.64920676 0.6272912 0.24885234 0.006558381 0.06416493 -0.01190275 0.06313467 0.22830786 0.27638084 0.29116255 0.21921141 0.27406538 0.25173163 0.14227754 0.1923117 0.19600394 0.19636336 0.11015143 0.128614 0.08464239 0.053681258 -0.13920784 0.10269109 0.15005957 -0.03403087 -0.14736491 0.115549035 0.13003373 0.13410392 0.13327605 -0.09387324 0.11737787 0.16120377 0.10829529 0.106333144 0.033033106 -0.07183924 0.05923175 0.015857846 0.06663579 -0.0887348 -0.33855528 -0.50933266 0.2885032 0.16145246 0.021725237 -0.4691493 -0.43315077 -0.18031004 -0.117456555 -0.043817535 0.4970283 0.3905484 0.094418794 0.072287574 -0.05025012 0.033788227 0.54163694 0.08732118 0.56160975 0.22759056 0.18171924 0.05618292 0.057240147 0.04504058 0.5231725 -0.03236614 0.006075233 0.44752163 0.39212775 0.36364192 0.29914021 0.24358201 0.17874208 0.11898457 -0.04848185 -0.074528076 0.15197538 -0.16408446 -0.083794475 0.3877958 0.35993737 0.33754683 0.27958027 0.25078064 0.19640636 0.3387569 0.30842227 0.30462316 0.3739581 0.46165073 0.3295978 0.35745022 0.48938382 0.34224513 0.29616287 0.4626599 0.1624911 0.37016094 0.41328543 0.18693508 0.19108568 0.23776942 0.22171739 0.08797682 0.070106246 0.22343616 0.091706514 0.10698661 0.103230245 0.24761835 0.37340185 0.54708767 0.029656451 0.096033365 0.5527279 0.59503686 0.18067008 0.597334 0.631232 0.65531325 0.68329746 0.5842135 0.39575356 0.5688703 0.6153725 0.6355705 0.6874168 0.6838917 0.6930411 0.65399474 0.68764806 0.697837 0.70363903 0.7046553 0.5255616 0.53720635 0.6643666 0.61041975 0.50712705 0.44025987 0.39435056 0.4649809 0.43150187 0.48393813 0.28892446 0.41586086 0.2881505 0.29865116 0.15460569 0.28991482 0.2732366 0.20233938 0.15496667 0.21318206 0.11430666 0.083623886 0.0063175894 -0.050247848 -0.042217754 -0.10780734 0.16730458 0.17185801 -0.0090487525 0.2503722 -0.06775731 0.13362756 0.10841078 -0.019360147 0.51457804 0.15592095 0.1976351 -0.05527141 0.5435957 0.30941504 0.4340914 -0.0040655253 -0.031651683 -0.26906055 -0.40539107 -0.24464801 0.06021895 0.020502537 -0.3116476 -0.11802665 0.2650268 0.06379756 0.021943629 0.4753948 0.072964326 0.059162542 0.05313331 0.51520336 0.22042021 0.19994453 0.16526301 0.068449736 -0.03702022 -0.16049445 0.3817561 0.3915757 0.13425079 -0.043830927 0.055178843 -0.050107315 -0.4170195 0.39926207 0.40861204 0.4049125 0.37345263 0.36817855 0.32557076 0.15444355 0.11360346 0.21801406 -0.36140797 0.14696917 0.43098062 0.41211188 0.37952146 0.3446582 0.21044566 0.3197725 0.27036864 0.33588254 0.32732114 0.38001412 0.042071223 0.21571761 0.15257113 0.25654903 0.24997027 0.061032273 0.23746423 0.2455284 0.055028476 -0.12171041 -0.25176403 -0.21006261 0.16642708 -0.04454446 0.44687182 0.22608879 0.04847867 0.31327257 0.55667 0.36245283 0.36931098 0.6299798 0.65620345 0.6056981 0.5095277 0.5357716 0.6689087 0.6854576 0.59340775 0.65045726 0.6756079 0.6860167 0.58242935 0.62188077 0.7130661 0.7237345 0.53812265 0.5448729 0.50257593 0.4321193 0.45907938 0.6802087 0.63342524 0.52534795 0.37773034 0.5463848 0.49416435 0.31264368 0.28822434 0.2695042 0.25467187 0.23811753 0.046810795 0.11556178 0.4662863 0.43524635 0.2872511 0.19416684 0.11184371 0.189244 0.16917992 0.5115705 0.4205657 0.20975377 0.11659552 0.14100024 0.49609897 0.38106865 0.26992255 0.21226715 0.046625987 0.39046532 0.2215258 0.1397429 -0.17420232 -0.2695496 -0.34077406 0.13387194 0.27753544 0.30096072 -0.0853984 -0.066896066 0.29553062 0.24230075 0.2213211 0.00092656165 0.29271716 0.26465836 0.29896852 0.47670555 0.6024031 0.6261562 0.27805457 0.22650099 0.6144327 0.61754584 0.2444116 0.22551695 0.5830569 0.116938084 0.14916937 0.4414457 0.061799675 0.0018096566 -0.33500236 0.28011364 0.0395502 -0.0030741245 -0.27763164 -0.18704742 -0.11805778 -0.025125936 -0.011468604 -0.08999412 0.041958094 -0.03633656 0.39942992 0.5167701 0.6815718 0.73587 0.33250123 0.044129323 0.00018284842 -0.025378864 0.26620114 0.52967525 0.6611428 0.7586162 -0.10865837 0.13415095 -0.19675536 0.6458986 0.7714484 0.38669914 -0.016832028 0.45847368 0.6643947 0.40808898 0.31972906 0.12477628 -0.4720347 -0.43762532 -0.38602233 0.5388078 0.4547803 0.4610834 0.4483683 0.41887736 0.3813302 0.36335027 0.14671804 0.18082733 0.18333496 0.07864165 0.012059882 -0.21572724 -0.35499656 0.20775872 0.15161769 0.119094536 0.13223858 0.16780055 0.16804786 0.21464948 0.26449955 0.23328047 0.2900381 0.2518895 0.29233593 0.29016107 0.18090868 0.2346465 0.3113537 0.28164476 0.11724567 0.24904335 0.30955774 -0.14485352 -0.06833032 0.0191206 0.43262702 0.47788256 0.4675088 0.34678558 0.005752638 -0.13308248 0.14976966 0.53563607 0.5509292 0.612198 0.51888657 0.6584413 0.6477978 0.6272857 0.653275 0.67570627 0.5280109 0.47205913 0.42015946 0.5125035 0.56670016 0.6056541 0.6697324 0.7075331 0.5455228 0.5502298 0.53675926 0.37063295 0.19027302 0.6904223 0.66993195 0.52238643 0.52027404 0.46883896 0.16755684 0.1353829 0.08924773 0.13002014 0.046183374 -0.11190319 0.2320645 0.4613312 0.3385056 0.2585338 0.25219047 0.49309605 0.48839918 0.13466208 0.17966947 0.4714092 0.05233638 0.2729668 0.30558378 0.29533523 0.3126255 0.21796206 0.23503648 0.31037635 0.29034555 0.27581313 0.30287388 0.59607816 0.6327145 0.30031705 0.63098246 0.24853438 0.56953675 0.5860877 0.17970909 0.06547797 -0.36030024 0.30648217 0.04526928 -0.09722541 -0.14310922 -0.114984974 -0.07347186 -0.11692068 -0.05185598 0.28551948 0.17786752 0.29148507 0.57589257 0.6866788 0.7606412 0.18235189 -0.24880558 -0.05096977 -0.09619689 0.7852138 0.7786808 0.16977721 -0.017283231 -0.04349786 -0.4019084 0.76592934 0.04995565 0.019841969 0.024835005 -0.40935576 0.70613945 0.38414598 0.43272632 0.16966765 -0.2379131 -0.005398698 -0.0748326 -0.4769022 -0.31151098 -0.27255592 0.63223666 0.6624119 0.4622687 0.4479745 0.41000235 0.3964154 0.38238794 0.15056925 0.1311488 -0.07183622 -0.08534382 -0.032885358 -0.17760769 -0.4002826 -0.49095547 -0.41167372 0.5968722 0.5565426 0.571006 0.3978271 0.018433392 -0.00022174418 0.6108353 0.6100849 0.653458 0.2607237 0.63675797 0.23160252 0.275562 0.38864917 0.27044994 0.36149684 0.42994446 0.29609698 0.371319 0.3057196 0.2804831 0.2885995 0.3455363 0.25110593 0.1583558 0.19579428 0.19913733 0.27110028 0.32303333 0.25716949 0.25007418 0.14122187 0.43720725 0.53372145 0.4996438 0.0010673329 0.14441359 0.13050394 0.10513009 0.02601558 0.055155776 0.5160364 0.5796912 0.18446161 0.21160395 0.22236305 0.1903118 0.2285141 0.53548133 0.4820971 0.49935403 0.5618893 0.60636175 0.6399493 0.54093206 0.553174 0.54541343 0.34975713 0.05685657 0.3191877 0.40798903 0.5375848 0.54429114 0.593752 0.57748705 0.52001554 0.06794728 0.23356691 0.5026645 0.44859457 0.2220362 0.2371934 0.38670802 0.139833 -0.15856084 -0.010454804 0.08012344 0.15455934 0.18607952 0.062476076 0.032864872 0.19029401 0.24361789 0.42966145 0.39664567 0.30196628 0.42441857 0.20593563 0.30210137 0.2990989 0.17476521 0.27690744 0.08415336 0.30870867 0.18020111 0.19388522 0.2911573 0.25949204 0.16403913 0.2883588 0.2962979 -0.07651067 0.44575328 0.5983972 0.6226996 0.31621706 0.61128956 0.33164015 0.15486857 0.041862752 0.042950995 0.14402583 0.13235629 0.060554124 -0.23895068 -0.05234809 -0.12244148 -0.16215295 -0.13038899 0.17429546 -0.10878049 -0.12611169 0.20451522 0.3862396 0.19319542 -0.023607925 -0.04703513 -0.051061466 0.601864 0.70504117 0.7548305 0.15039493 -0.113776304 -0.3099803 0.73119783 0.748032 0.15695292 -0.14269754 -0.5548693 0.70869166 0.7291471 0.094970435 -0.37490556 -0.44035035 0.08972566 0.07269625 -0.42227143 0.71227276 0.3441779 0.14796537 0.16663855 -0.064741954 -0.06328625 -0.023426354 0.27140135 0.14194569 0.1111698 0.021688953 -0.34926394 -0.3279788 0.6476507 0.6849941 0.45330733 0.49367404 0.42054963 0.40001658 0.27378193 0.2945197 0.33502084 0.28663963 0.33103555 0.22710603 -0.08296138 0.05803141 -0.10453833 -0.40544295 -0.41850206 0.5350597 0.574563 0.6538675 0.4692514 0.012926448 -0.4986112 0.4969536 0.5811436 0.6539621 0.6621549 0.6438782 0.40176493 0.59926605 0.5463599 0.59520346 0.6226589 0.64975345 0.6677663 0.1942544 0.104870826 0.44773632 0.65616107 0.6439804 0.65473974 0.6885319 0.49584803 0.5863693 0.63913804 0.66850936 0.22857887 0.18405111 0.55021983 0.5645108 0.6871974 0.7082747 0.7437688 0.73197144 0.61716 0.58673346 0.6298536 0.25972855 0.20974262 0.6080412 0.7310753 0.7679193 0.730