# vtk DataFile Version 2.0
Really cool data
ASCII
DATASET POLYDATA
POINTS 5111 float
-19.548525 39.523727 17.016768
-19.587133 39.735107 17.453749
-19.576248 40.126488 18.817896
-19.613739 40.44051 16.683262
-19.745813 40.571022 17.57096
-19.728306 40.52154 18.721317
-19.58473 40.820625 19.305433
-19.738188 41.14882 17.593044
-19.823296 41.560783 18.53422
-19.668482 41.505615 19.27638
-19.711771 41.906517 18.466894
-19.595581 42.002842 19.39892
-19.559387 43.627872 20.809582
-19.520866 43.574036 21.518215
-19.533333 44.16891 20.813082
-19.510597 44.144936 21.173773
-19.69342 49.098366 5.826
-19.670383 49.02239 6.349917
-19.638285 49.622787 5.2824335
-19.765461 49.492153 5.7664223
-19.79322 49.53985 6.3402214
-19.649351 49.33755 6.7611756
-19.697382 50.17796 5.613555
-19.743753 50.24595 6.3213015
-19.85285 50.77484 16.751669
-19.959427 50.899693 17.337397
-19.832771 51.086376 17.806936
-19.775335 51.44229 15.971019
-20.058249 51.453396 16.695923
-20.068651 51.404503 17.38579
-19.869112 51.80102 17.933489
-19.880304 52.248848 16.711685
-19.942362 52.086227 17.535458
-19.612585 52.88683 18.21476
-19.634792 52.912846 17.154451
-19.856058 54.180264 18.682814
-19.702606 54.048313 19.2273
-19.694183 55.019394 17.809809
-19.881353 54.673485 18.420214
-20.025599 54.82021 19.377508
-19.8632 54.926273 20.123281
-19.78065 55.697 17.957172
-19.98936 55.647087 18.598362
-20.138119 55.537514 19.402056
-19.950588 55.61248 20.255642
-19.69517 55.48049 20.772186
-19.658638 56.3825 17.927946
-19.930593 56.27255 18.703522
-19.971405 56.36375 19.555
-19.951529 56.23122 20.014296
-19.66519 56.903114 18.460552
-19.770716 56.801296 19.394768
-19.655725 56.773563 20.0471
-18.599411 32.110134 19.153812
-18.689732 32.001637 19.622198
-18.691391 32.10324 20.470264
-18.75301 32.828743 18.769245
-18.917425 32.607857 19.623623
-18.860443 32.515648 20.35376
-18.737612 32.628864 20.875008
-18.582226 33.710773 14.947966
-18.625294 33.803745 15.351056
-18.734596 33.796143 18.082798
-18.974459 33.506924 19.547752
-18.917746 33.28879 20.318262
-18.688137 33.217106 21.035719
-18.614773 34.238125 14.7636385
-18.67252 34.689823 15.521719
-18.756002 34.503105 16.31398
-18.874401 34.571987 17.417332
-18.712221 34.09687 19.887682
-18.695969 35.548744 16.100714
-18.906097 35.090637 16.623823
-18.898577 35.190086 17.413454
-18.966696 36.264206 17.160965
-19.09028 37.416584 16.61473
-18.992296 37.727367 17.681261
-18.990578 38.30187 16.092442
-19.146355 38.191612 16.557806
-19.187891 39.14437 17.759539
-19.185997 39.74452 16.027693
-19.358427 39.626396 16.229702
-19.403944 39.394547 17.629038
-19.482208 39.88965 18.635736
-19.417625 40.123043 19.252249
-18.84348 40.07353 19.952509
-19.099852 40.411083 15.766362
-19.43793 40.682846 16.337902
-19.485119 40.642834 19.395329
-19.088892 40.424564 19.813644
-18.994158 41.16776 15.89972
-19.387901 41.27532 16.594213
-19.44361 41.440983 17.488426
-19.500834 41.623146 19.542019
-18.967207 41.41258 20.415304
-18.764322 41.814606 20.866467
-19.551819 41.982616 17.995794
-19.489357 42.238567 18.49936
-19.289873 42.585125 19.337912
-19.396183 42.816 21.267426
-19.24493 43.33311 20.09644
-19.411627 43.132057 20.522556
-19.45588 43.233334 21.514471
-19.327518 43.614708 22.336462
-18.96061 43.799435 23.05884
-18.990978 44.40253 19.82277
-19.42696 44.42013 20.830818
-19.405834 44.668236 21.418283
-19.254595 44.379585 22.563227
-18.94449 44.442963 23.255
-18.707762 44.34962 23.630579
-19.26301 44.831467 20.896904
-19.111206 45.10076 21.509315
-18.941551 45.14627 22.695913
-18.844662 44.983486 23.179857
-18.915113 48.379158 5.8786654
-18.935007 48.312977 6.498797
-19.147966 49.029583 5.2057824
-19.317379 48.83086 5.6205235
-19.42132 48.686832 6.3781357
-19.2169 48.834778 7.058529
-18.698975 48.901806 7.812418
-18.52153 48.632362 15.977595
-19.298111 49.536194 5.092044
-19.613783 49.39558 5.3396387
-19.340002 49.462193 7.2375975
-18.887835 50.18269 15.6419115
-19.477888 50.322056 16.838932
-19.284718 50.33238 5.0276647
-19.512358 50.333965 5.306434
-19.25212 50.411205 7.17312
-19.447254 50.701622 16.08623
-19.223717 50.80256 18.111603
-18.977798 51.10784 18.621113
-18.982782 51.31105 5.032633
-19.384314 50.994267 5.555054
-19.100845 51.486897 6.45037
-19.13033 51.80091 14.933104
-19.445707 51.577522 15.561915
-19.471016 51.46619 18.353292
-18.721699 52.035748 5.116665
-18.727474 52.308014 14.657055
-19.419247 52.19588 15.794141
-19.232073 52.148544 18.72868
-18.559988 53.272873 5.761845
-19.303679 53.031406 16.625923
-19.38182 53.62655 19.204432
-18.864964 53.872295 20.930166
-18.824984 54.80974 1.9731005
-18.852106 54.606445 2.4106233
-19.019915 54.561565 3.7294822
-19.026865 54.630993 4.677175
-18.924007 54.73593 5.1193185
-18.811932 54.72003 9.797778
-18.746872 54.59875 10.503036
-18.609135 54.98807 11.048777
-19.045616 54.953697 21.47906
-18.726212 54.81531 22.136065
-18.83273 55.43574 1.7214057
-19.207747 55.527107 2.5618505
-19.373774 55.491734 3.7082312
-19.34824 55.692726 4.602759
-19.2634 55.74247 5.114395
-18.696592 55.2845 9.020153
-18.877296 55.368824 9.563367
-18.868988 55.498066 10.464485
-18.694489 55.64611 10.878078
-19.180218 55.931004 17.090784
-19.579077 55.222168 17.782614
-19.378654 55.344944 21.124475
-18.741253 55.464684 21.920738
-18.760866 56.33435 1.8833613
-19.087154 56.39329 2.6206043
-19.326223 56.450745 3.6963131
-19.380314 56.466717 4.5641823
-19.20748 56.473465 5.172997
-18.65848 56.146175 5.976508
-18.76125 56.286892 9.036418
-18.73331 56.3043 9.607224
-18.711872 56.313393 10.277223
-19.094526 56.546146 16.838865
-19.510408 56.71742 17.6511
-19.594381 56.632973 20.443659
-19.08224 56.533405 21.156118
-18.62305 56.285286 22.213274
-18.835114 57.039352 2.7844603
-19.009151 57.13864 3.602088
-19.075296 57.20959 4.448838
-18.977383 57.049034 5.1765466
-18.532654 57.47331 9.037493
-18.656082 56.899757 10.217237
-19.083456 57.245094 17.024017
-19.31549 57.08571 17.545546
-19.26704 57.329517 18.356361
-19.431782 57.10734 19.428192
-19.122017 57.08968 20.355602
-18.815695 56.956993 21.34513
-18.87459 57.747086 17.394897
-18.96249 57.73108 18.113068
-18.766676 57.578754 19.464275
-17.68573 31.218344 15.18867
-17.953451 31.138966 19.644604
-18.088629 31.27638 20.404005
-17.928787 31.284742 20.776222
-17.709929 31.516531 14.878062
-17.857212 31.512796 15.30902
-17.87652 31.74247 16.251904
-17.745703 31.67582 17.980047
-18.167978 31.786457 18.81319
-18.340494 31.442135 19.71016
-18.38506 31.593386 20.476364
-18.208689 31.844337 21.133295
-18.056858 32.21326 21.733164
-17.645638 33.075584 12.9616165
-18.052267 32.799473 13.966156
-18.126574 32.53859 14.520647
-18.34687 32.785393 15.707168
-18.208113 32.742237 16.477575
-18.18268 32.21199 17.857141
-18.306677 32.565258 21.603985
-17.98154 32.755325 22.238745
-17.870771 33.44069 13.150745
-18.05402 33.19176 13.783862
-18.463793 33.532772 14.338595
-18.484314 33.415016 15.520452
-18.468084 33.52665 16.537664
-18.421907 33.405384 21.402016
-18.061306 33.592773 22.35724
-17.752487 33.73983 22.841297
-17.770205 34.068287 13.048097
-18.353886 34.07091 13.838685
-18.519814 34.080124 14.324841
-18.42008 34.544228 19.64736
-18.013027 34.410446 21.725048
-18.003426 34.184464 22.094133
-17.790499 33.933784 22.738169
-17.7826 35.096523 13.299275
-18.385967 34.981995 14.548272
-18.476444 35.57153 15.572853
-18.454187 35.675373 18.217485
-17.872555 34.983547 21.213186
-18.466211 36.105198 15.605789
-18.49309 36.68864 18.082458
-17.794289 37.090927 24.8665
-17.702534 37.106693 25.589567
-17.92956 37.559155 15.052086
-17.689245 37.05833 18.923403
-17.780582 37.45582 24.669268
-17.927383 37.722523 25.444656
-17.723051 37.74085 26.130617
-18.357073 38.871567 19.319769
-18.304914 39.064816 24.806969
-18.242111 38.617126 25.408113
-17.971222 38.497936 26.1078
-17.670952 38.872856 26.805794
-18.035343 39.919838 15.221315
-18.546806 39.364555 15.590758
-18.001127 39.326393 23.772823
-18.404669 39.608265 24.73225
-18.368988 39.529472 25.36825
-18.007833 39.528492 26.335901
-17.691423 39.567135 26.827131
-18.043911 41.161938 21.129827
-18.18673 40.20414 24.72263
-18.225838 40.21747 25.464886
-17.796982 40.168903 26.36394
-17.67014 39.912685 26.743309
-18.572117 41.558502 15.903851
-18.388447 41.64929 21.520964
-17.79564 40.911064 24.88418
-17.75067 40.773663 25.592897
-18.481216 41.77746 16.172037
-17.834658 42.458637 17.191721
-18.565388 43.180614 23.040665
-18.572256 43.970085 23.56062
-18.289438 44.019913 23.727737
-17.8535 44.39043 18.122347
-18.072338 44.573956 18.598866
-18.680048 44.585506 23.61017
-18.446684 44.553547 23.720953
-18.404705 45.214035 19.659782
-18.494432 45.401993 20.305782
-18.639376 45.51845 22.324724
-18.39734 45.23794 23.34522
-18.137682 45.032345 23.68666
-17.798798 47.01216 15.037648
-17.99806 46.743332 15.72003
-17.835758 46.66421 18.202066
-18.165188 45.797104 19.70452
-18.322012 45.684586 21.25372
-18.102232 45.650894 22.62672
-18.25044 48.14419 5.886447
-18.232418 47.898212 6.6873045
-18.191036 47.97107 7.4224095
-17.813515 48.04753 8.037494
-17.93113 47.677635 14.921289
-18.225903 47.419075 15.493053
-18.339254 47.56991 16.308455
-18.141703 47.713364 17.213646
-18.638943 48.944862 4.993969
-18.661016 48.524284 5.4797363
-18.636877 48.565166 7.548784
-18.360407 48.749733 8.02742
-18.100922 48.415504 15.072826
-18.373169 48.5133 15.656904
-18.330418 48.480576 17.178238
-18.548239 49.47812 4.6967263
-18.306181 49.541252 8.17607
-18.193241 50.10824 15.174398
-18.347029 49.125885 15.440004
-18.765352 50.31207 17.817383
-18.324799 50.459587 4.2564325
-18.658047 50.17454 4.534058
-18.554064 50.380184 14.919272
-18.164682 51.44078 4.1951976
-18.457163 51.73965 4.5488143
-18.099874 51.7076 8.091997
-17.693378 51.6743 9.626978
-17.587793 51.54677 10.361271
-18.58431 51.801094 14.273821
-18.507843 51.604362 18.929138
-18.372076 52.41514 4.875469
-17.933094 52.662 7.465661
-17.895811 52.785557 10.516372
-18.201792 52.159626 14.202905
-17.944927 53.143505 21.050777
-18.62619 54.303516 2.7365816
-18.44577 54.053936 3.6444547
-18.028898 53.479057 6.856732
[...]
POINT_DATA 5111
SCALARS features_00 float 1
LOOKUP_TABLE default
0.3899113 0.41496915 0.4217272 0.46579543 0.47217023 0.4402445 0.38891137 0.48564178 0.4341976 0.3713585 0.4196317 0.3257797 0.33867985 0.42902505 0.38781404 0.43835115 0.74488616 0.76072127 0.69561714 0.72569346 0.73629487 0.74528813 0.66339445 0.68984514 0.6165978 0.6284208 0.59272027 0.57097167 0.62875473 0.6168511 0.55693793 0.5897974 0.5640389 0.36651242 0.46055463 0.3480959 0.35548308 0.42363173 0.42413962 0.4913175 0.48854858 0.49124405 0.5110145 0.5329045 0.5039506 0.45878273 0.49956244 0.5133718 0.5136942 0.5036097 0.49647033 0.48726618 0.45892736 0.46749043 0.5011223 0.5218701 0.39888924 0.5049688 0.5271158 0.5243256 0.28866315 0.2681334 0.21944842 0.4611028 0.5102087 0.5092232 0.2730977 0.23570785 0.21689963 0.17851815 0.39774084 0.20951952 0.2044775 0.1814459 0.19697331 0.20488223 0.21076354 0.26741403 0.2648123 0.33414444 0.41163403 0.4019071 0.37246075 0.41405886 0.3743934 0.22793144 0.45895278 0.47983015 0.37607753 0.29107794 0.46895128 0.49252582 0.48793 0.34059262 0.26557854 0.24690142 0.44475538 0.3702442 0.2511259 0.3047961 0.24828209 0.27924412 0.3866138 0.6050458 0.69789106 0.33078498 0.41333452 0.5266755 0.6952988 0.7263734 0.73435926 0.45956445 0.5788351 0.7378657 0.73170984 0.7549422 0.77477443 0.70236564 0.73978764 0.77006626 0.7467818 0.65366054 0.2345126 0.6786169 0.71089125 0.7029655 0.2843675 0.55554914 0.6154149 0.63231635 0.6443645 0.50026774 0.5408617 0.4843551 0.51913285 0.55840933 0.46818423 0.42757195 0.51227534 0.5304601 0.43293262 0.3142348 0.51546144 0.44077694 0.07940437 0.4694543 0.2503122 0.39225873 0.6466204 0.61275434 0.53191686 0.41846088 0.37276268 0.4043756 0.38493568 0.37580782 0.38319218 0.35942712 0.6945626 0.7036742 0.6081662 0.5206243 0.47526413 0.39842427 0.41270286 0.4075151 0.39273036 0.46823502 0.44605884 0.42149824 0.36955374 0.7167665 0.72406065 0.6459678 0.55795604 0.5038585 0.38681185 0.35656732 0.37131667 0.3782581 0.4974861 0.50145215 0.4533165 0.42640176 0.38732308 0.681281 0.64270777 0.56727093 0.5064636 0.27361163 0.33766225 0.5003837 0.50102496 0.48065484 0.45243257 0.4063059 0.41439122 0.47606194 0.46051723 0.38045812 0.3430481 0.47412556 0.4997142 0.4960068 0.35316396 0.33580565 0.28248656 0.29323864 0.43018085 0.49348903 0.5108819 0.5155809 0.5248101 0.36300278 0.3486004 0.34506768 0.29681367 0.2359752 0.27214947 0.5264424 0.53761613 0.3563429 0.34568816 0.31959942 0.27946392 0.2195704 0.5041901 0.5196657 0.51489055 0.345743 0.32180756 0.2999076 0.26141137 0.40354627 0.45476943 0.49968177 0.27620503 0.24669114 0.21085837 0.12003219 0.25653833 0.17717136 0.17193934 0.4535345 0.5343116 0.050465595 -0.012097023 0.42600963 0.5296682 0.59215355 0.17558363 0.6100231 0.59636784 0.62932765 0.7352669 0.35014647 0.34618992 0.45576593 0.66667384 0.69409466 0.7425634 0.7940587 0.14776763 0.6699066 0.7060721 0.76389855 0.8003299 0.39878953 0.23077461 0.6503394 0.7088436 0.37561917 0.20930451 0.6473986 0.7091056 0.69574106 0.041553736 0.24326986 0.7374995 0.73275924 0.39651185 0.4567214 0.71368396 0.7253779 0.7235409 0.2685037 0.3002093 0.14135794 0.33711582 0.555006 0.6829627 0.7393445 0.77632815 0.7463981 0.6935292 0.2520754 0.28250736 0.32277036 0.28114778 0.6681761 0.71736956 0.7028372 0.63143885 0.20942122 0.23360033 0.22030456 0.6245146 0.50248873 0.15983492 0.16084155 0.50050545 0.5545274 0.5896659 0.24751982 0.48756325 0.47378287 0.07184436 0.024055634 0.034602147 0.30023617 0.37416694 0.360448 0.040342495 0.07807511 0.22085398 0.2531921 0.5497006 0.4310903 -0.025372356 0.25200295 0.2780352 0.30662674 0.3606832 0.37406453 0.39396083 0.63740563 0.60389847 0.57130224 0.22054683 -0.009290487 0.27900738 0.36201578 0.3550712 0.34202147 0.17307347 0.36044687 0.38399386 0.41193604 0.6669501 0.67210174 0.35978377 0.36204416 0.37723503 0.40037602 0.6760579 0.69487464 0.24321902 0.35096085 0.4783711 0.49127802 0.40108702 0.40947035 0.41524822 0.6539131 0.66407096 0.6564927 0.43945184 0.38214356 0.20522752 0.2809676 0.2787517 0.27686113 0.4877927 0.40016976 0.42438015 0.4298163 0.62734014 0.6141106 0.4912885 0.19727354 0.2082147 0.23975237 0.46052113 0.42812294 0.3659895 0.33562696 0.35697252 0.35951945 0.19542645 0.1798521 0.24636455 0.32354778 0.32880926 0.16932826 0.28640798 0.3394569 0.37612268 0.3869968 0.39421397 0.41660345 0.42038718 0.47195894 0.5088906 0.32972234 0.3228433 0.27101278 0.405962 0.44619668 0.46458882 0.48285222 0.3683787 0.3649354 0.35109925 0.4932329 0.49399382 0.35984686 0.36620155 0.51284957 0.50900847 0.33772483 0.35751155 0.50339663 0.28337115 0.34249306 0.35786295 0.14495578 -0.014352947 0.50344956 0.47796732 0.16782202 0.014625777 -0.036247205 0.054449175 0.18244065 0.5271447 0.59728914 0.5798007 0.5438905 0.3783282 0.065574676 -0.028365776 0.04476135 0.61789614 0.66188645 0.6178584 0.6049166 0.5643774 0.42146784 0.24168314 0.08534938 -0.20547028 -0.117398985 0.6676711 0.7633946 0.5828016 0.54382443 0.481667 0.113973826 0.8252336 0.8228692 0.49310818 0.36555344 0.06780706 0.7586061 0.8399091 0.050047055 0.48012185 0.6218867 0.6956656 0.7893073 0.13022608 -0.05525307 0.695017 0.65882826 0.70586693 0.1983457 0.23454979 0.35469958 0.5475587 0.6879989 0.7012522 0.7575794 0.7529603 0.7050451 0.2036016 0.25193107 0.1081928 0.5942917 0.5761749 0.18970908 0.14403257 0.15290777 0.13083185 0.47224542 0.53017044 0.3880795 0.15656035 0.12293541 0.0526007 -0.055608243 0.42961708 0.054035418 0.11777195 0.36561096 0.036320824 0.03520535 -0.1205038 0.16344775 0.052046828 0.070779786 0.077014595 0.015479371 -0.110841416 0.123305336 0.16767657 0.32426578 0.37883756 0.07852222 0.1033455 0.16525379 0.39347434 0.43428093 0.598663 0.5261906 0.09206344 0.42199558 0.48890078 0.6197648 0.22994865 0.00085133314 0.4442023 0.5012979 0.62162733 0.38808596 0.49384665 0.5181988 0.60746056 0.62416077 0.17828414 0.22821416 0.4725942 0.504915 0.60841864 0.6064962 0.5687011 0.16598557 0.36788902 0.26700616 0.34590495 0.41773662 0.28282773 0.2708124 0.30294693 0.30621585 0.3096755 0.2917902 0.2718322 0.25102362 0.19105485 0.37730372 0.26690972 0.18230951 0.4491313 0.47066712 0.5128936 0.48162434 0.49756664 0.5958305 0.6217242 0.61097807 0.5984332 0.5874509 0.6271447 0.6336334 0.64399004 0.64204645 0.62024415 0.25339252 0.29438084 0.31298512 0.28232902 0.2769118 0.23779093 0.4001269 0.4008084 0.38125622 0.35001808 0.40414 0.3615276 0.36400664 0.41252 0.2568456 0.38042638 0.18030576 0.30518514 0.3228201 0.30126542 0.34894323 0.57058877 0.4852199 0.43912497 0.6189717 0.6455312 0.5951046 0.5709902 0.68379825 0.6209787 0.7623482 0.7668965 0.589831 0.563556 0.80487216 0.484545 0.42667648 0.28724992 0.23278034 0.14830653 0.8330654 0.80646604 0.36690372 0.22533512 0.7963132 0.8264725 -0.14501862 0.6131319 -0.099284455 0.5783113 -0.058342643 -0.056584403 0.62266433 0.1264527 0.6424918 0.61000353 0.12476895 0.29848456 0.62070394 0.6912618 0.70801246 0.57889825 -0.034394577 0.007311158 0.5326807 0.07064962 0.06439146 0.024366215 0.02594414 0.028383356 0.3266343 0.40024647 0.080510974 0.2911358 -0.116571754 -0.26909798 -0.022061002 0.4610138 0.2428793 0.31792763 0.4065565 0.41063195 0.14344256 -0.10200171 0.4665861 0.5446371 0.5351604 0.58822465 0.27612144 0.57337046 0.59013534 0.40859222 0.38586688 -0.1458532 0.55585706 0.5528316 0.49888027 0.5177611 0.5575557 0.54655945 0.47511768 0.24643931 0.37430495 0.4611407 0.46069998 0.34758997 0.2962859 0.3393238 0.35119087 0.3399912 0.27906424 0.34981823 0.37209585 0.3839787 0.3626536 0.1358226 0.2137419 0.4236194 0.360709 0.4729864 0.50573075 0.4651791 0.5174554 0.5783372 0.5272296 0.62963843 0.6386908 0.64494175 0.6465807 0.61384594 0.635082 0.6429988 0.6457134 0.2630484 0.17566535 0.2658592 0.29420316 0.3004574 0.21822305 0.46245927 0.4375887 0.32198262 0.2153539 0.18787006 0.40487048 0.3951497 0.2934448 0.29689834 0.28721386 0.24891454 0.20270336 0.39865288 0.370259 0.4772691 0.5175115 0.6175989 0.5776387 0.61486906 0.5756343 0.6551198 0.72909856 0.54737103 0.66872084 0.7540113 0.5041571 0.43916428 0.76780796 0.74260294 0.7770723 0.37566823 0.2548298 0.2023746 0.009693079 0.68149644 0.12169033 0.09282137 -0.2537766 -0.1380178 -0.13503823 -0.10355216 0.4275564 -0.023058422 0.069453344 0.5956271 0.55382454 -0.19068941 -0.14015605 0.09439541 0.3740548 0.50953805 0.22934206 0.16533533 0.6891414 0.5918888 0.35936224 0.19461444 -0.27240697 -0.3380163 0.7598796 0.7027919 0.55069566 0.3141621 0.012264401 0.15763913 0.17481564 0.61729467 0.24606594 0.36396182 0.4455307 0.5542966 0.61249024 0.30061215 0.6248881 0.6445819 0.561328 0.61256886 0.30545664 0.49711582 0.42601228 0.26192677 0.39981803 0.4493993 0.16056022 0.11602458 0.35387066 0.24584694 0.29234454 0.1631849 0.3868529 0.31670672 0.35358882 0.37415755 0.38316184 0.36712107 0.31296888 0.35728565 0.35695064 0.04791105 0.23459569 0.31878078 0.5190644 0.47068715 0.62875617 0.55645335 0.6373409 0.6274295 0.62746966 0.60100484 0.5715536 0.22191356 0.104715995 0.17799817 0.49958777 0.49114013 0.4119871 0.2698422 0.38830978 0.44399863 0.44979107 0.29996866 0.428281 0.32481387 0.26581192 0.44811544 0.3722971 0.29907224 0.5096171 0.38857472 0.48394963 0.51900184 0.5294605 0.45187736 0.5199748 0.46321583 0.4547698 0.52246726 0.45078743 0.41995573 0.58655596 0.33027238 0.59794194 0.2925408 0.123982236 -0.12401657 0.14072269 0.072596475 0.041620318 -0.037148036 0.044926215 -0.23833843 -0.14110224 -0.19860233 -0.1493141 -0.21441168 -0.14467889 0.39914623 0.49131015 -0.15037376 -0.13896878 -0.18247476 0.22676964 0.3593113 0.6482868 0.5185677 0.48198116 0.14693263 0.16122355 0.77567375 0.7028345 0.57289344 0.4728623 0.78850526 0.07114914 0.71051794 0.26885843 0.50714403 0.3993678 0.56017935 0.6313697 0.29039508 0.659431 0.11913412 -0.08281446 0.6589766 -0.13767157 0.57174385 0.61936164 -0.13711718 -0.14752063 0.4757158 0.530924 0.13926862 0.123456344 0.36079273 0.4339708 0.24131216 0.27573755 0.27477086 0.25043494 0.360861 0.35548759 0.29602385 0.33333728 0.32520992 0.21366031 0.09244626 0.31671745 0.36573943 0.36432856 0.34032613 0.22686727 0.41328353 0.2991954 0.55539143 0.5043249 0.44192478 0.57948256 0.5501108 0.7980994 0.82373667 0.6506301 0.7262809 0.78637266 0.70592 0.5031225 0.52773005 0.18938234 0.24133413 0.24198541 0.24070318 0.44479468 0.50762194 0.46888733 0.33305973 0.54573846 0.47220585 0.5800854 0.34361508 0.44184986 0.20141152 0.4265991 0.38137692 0.4540905 0.26639882 0.47715643 0.28762853 0.356452 0.34586278 0.29593503 0.38865754 0.26316106 0.28259903 0.31994584 0.19475602 0.23304945 0.33520114 0.23575225 0.1949279 0.28223217 0.087297626 0.24492228 0.1636724 0.10863352 -0.018243663 -0.0043611303 0.005491106 -0.36790958 0.014280088 0.4566468 -0.11359158 -0.14972115 -0.1886394 0.3342044 0.24880788 -0.16062143 -0.14063685 0.3736748 0.4467379 -0.07625413 -0.1908507 -0.14413235 0.53767234 -0.0011724755 -0.08531493 0.5658809 0.6307682 0.5048895 0.39732027 0.31590587 -0.060622543 0.27726054 0.7383575 0.6525579 0.2398906 -0.032267198 0.06723911 0.74135923 0.10984874 0.14754796 0.6563742 0.22150302 0.4353077 0.5123789 0.27147153 0.6064019 0.18752256 0.61809504 -0.093796566 0.58416754 0.60179305 0.50464666 0.55120265 0.20738854 0.43033952 0.25085956 0.15266569 0.33694878 0.3080044 -0.34053022 0.21675277 0.26823184 0.29911038 0.26482612 0.38748422 -0.15539633 0.41066822 0.40678737 0.3962756 0.32931125 -0.014724914 -0.05500002 0.437607 0.43217877 0.38222343 0.23257962 0.2366102 0.41737235 0.32725406 0.7438115 0.82479376 0.87341976 0.83978105 0.6235602 0.6162765 0.7430942 0.46332154 0.48311502 0.16675097 0.58587456 0.6204006 0.389319 -0.0115134325 0.6389897 0.6471277 0.2665848 0.6352203 0.5505456 0.32423255 0.070289955 0.3920477 0.33889413 0.10235317 0.39877412 0.24239318 0.18130887 0.05496058 0.18690015 0.25463822 0.08599001 0.098851606 0.22820619 0.2816653 0.18903384 0.44851235 0.25702918 0.20802283 0.3185211 0.5142113 0.4114614 0.53723896 0.53199583 0.4626462 0.33028188 -0.12821296 0.21249685 0.4607345 0.05418575 -0.179758 0.44018358 0.04415641 0.5073397 -0.066559754 -0.043435566 -0.03810128 0.5469923 0.5413673 0.44836646 0.36535946 0.46751744 0.6129106 0.5120648 0.03316593 0.16743442 0.5424222 0.24772193 0.19367748 0.33228558 0.5136817 0.34765747 0.41141656 0.13492551 0.19191381 0.50139236 0.54693925 0.5523228 0.57559764 0.6847663 0.68991816 -0.09462729 0.5708277 0.5907993 0.69343865 0.68850017 0.63890785 -0.0022949055 0.18278426 0.4103135 0.5333593 0.55410635 0.6695593 0.64325285 0.58546644 0.17645395 0.10556066 0.26822543 0.05730569 0.07219478 0.31806058 0.060910832 0.39436224 -0.11508806 0.41345865 0.42898783 -0.06317912 -0.10366395 0.24269044 0.32764363 0.4409896 0.44727406 0.16980377 -0.048557226 0.43472576 0.39751527 0.26397428 0.26766592 -0.0002880767 0.2810728 0.28391582 0.24902031 0.82012546 0.92042243 0.9115598 0.8433944 0.6331651 0.66675967 0.7708125 0.6804564 0.45891482 0.52686584 0.45250225 0.37799558 0.17313905 0.5874364 0.62463665 0.16234833 0.50331795 0.654737 0.62915313 0.6312642 0.57466984 -0.013565189 0.3908501 0.4936841 -0.07797651 0.29763016 0.10181818 0.17214502 0.24167112 0.017377257 0.0458173 0.12174556 0.12972218 0.18293828 0.1584679 0.31692111 0.25997913 0.21422502 0.36252728 0.35709533 0.41984323 0.42515683 0.28777528 0.1584767 0.35789275 0.4002829 0.4656245 0.45309797 0.2866271 0.39722246 0.44434983 0.31969035 0.3143794 0.313729 0.1996023 0.29903072 0.3273841 -0.075362526 0.3759127 0.20015979 0.22660832 0.25543946 0.2443157 0.122937165 0.4878493 0.5233289 0.5547792 0.39677015 0.6330552 0.5063178 0.057177994 0.40178606 0.50531816 0.67311585 0.6710834 0.48063225 0.5374467 0.6828029 0.6829616 0.27409106 0.6311033 0.64787406 0.6290186 0.50012577 0.30688846 0.605085 0.60102427 0.5843213 0.54833287 0.26059413 0.24932657 0.32967764 0.219026 0.351933 0.29532245 0.35836232 0.35809815 0.28223413 -0.04992235 0.3859884 0.46906716 0.54288 0.40290543 0.39851546 -0.14423856 -0.008220211 0.23342611 0.31818402 0.49496543 0.41644764 0.40181196 0.27217057 0.30149174 0.2964993 0.25873172 0.20004365 0.19644883 0.3025828 0.28782904 0.28626305 0.87216306 0.89081883 0.86341715 0.80593574 0.813535 0.8626716 0.7980491 0.7196182 0.64212453 0.5546914 0.4924717 0.5324751 0.5825787 0.34496856 0.6193826 0.4598527 0.120056994 0.5043845 0.56320596 0.62048113 0.6394278 0.4492654 0.421133 -0.035374686 0.5976349 0.6187358 0.6083778 -0.118426636 0.49639255 0.5391848 0.11400604 0.40791732 0.4405733 0.31156707 -0.15646333 0.21462232 -0.062013075 -0.01757557 -0.14082722 0.0014730245 -0.0057162717 -0.01804708 0.2985837 0.030996144 0.36681408 0.35436946 -0.09642709 0.42312187 0.30586362 0.31834453 0.45521995 0.34471053 0.43739864 0.3251609 0.41518578 0.42082965 0.2922954 0.118658975 0.35402983 0.34702995 -0.09903073 0.2028799 0.33618012 0.17938913 0.2289469 0.28401175 -0.07528378 0.20245959 0.4523133 0.61158264 0.6797264 0.69729507 0.6144584 -0.04211479 0.62156165 0.60308003 0.19158295 0.49333903 0.5037829 0.22072187 0.31954393 0.63782847 0.124385126 0.34046167 0.6012364 0.5703227 0.5689434 0.5517241 0.55795324 0.48347414 0.31598216 0.11146903 0.029543996 0.33715612 0.10823175 0.5133489 0.23672584 0.611417 0.5974178 0.2103477 -0.1636724 -0.09976827 0.20451586 0.39400017 0.45609596 0.58588576 0.62977153 0.28144434 0.28721654 0.40472403 0.2904783 0.18827286 0.29702967 0.29531896 0.2757489 0.26652488 0.7841227 0.7789779 0.7676564 0.6773499 0.6909144 0.6487806 0.57579494 0.6511409 0.3180404 0.44304174 0.4543959 0.44917268 0.62290156 0.5626658 0.5956435 0.119427055 0.5371245 0.39869043 0.43598342 0.308929 0.011383548 0.26570415 0.3382643 0.40825605 0.4688148 0.12536463 0.3329245 0.40246326 0.41020823 0.012975663 0.2881313 0.38076392 -0.054460213 -0.06383878 0.02460797 0.012738237 -0.028346717 -0.00064766407 0.012008976 -0.016386673 -0.03363134 0.05987147 0.055412572 -0.0070152376 0.3166563 0.38407713 0.18771623 0.19010374 0.45907068 0.4449563 0.24833044 0.47073647 0.47434878 0.28310603 0.46473882 0.4677355 0.27598262 0.24721491 0.42423463 0.44348365 0.26275003 0.35579556 0.36657327 0.15705985 0.33721203 0.3581323 0.2727704 -0.003656786 0.24664126 -0.01688721 0.5236382 0.66969585 0.7290523 0.74062955 -0.06920766 0.706919 0.07102985 0.07810802 0.37594393 0.5175019 0.2457134 0.13310912 0.5268367 0.31172088 0.38739675 0.50177944 0.479833 0.43260106 0.1826626 -0.06532361 -0.13120316 0.38974595 0.39910996 -0.17650308 -0.10566593 -0.049619067 0.3443617 -0.16272572 0.5445151 0.08938111 0.042320058 0.632436 0.6108366 0.11095237 0.5135018 0.6369382 0.641358 0.12567218 0.004979335 -0.0357853 0.17593515 0.23658738 0.2773759 0.30025446 0.30302685 0.29967427 0.66305614 0.60725236 0.67152345 0.67919624 0.5941849 0.47099435 0.389189 0.654334 0.54297984 0.35707283 0.30946407 0.21367295 0.13189614 0.27711907 -0.048894793 0.15689209 0.17040539 0.16124618 0.08051686 0.14199054 0.1863434 0.21968499 0.13790758 -0.0012031645 -0.012691274 0.07970212 0.31201267 0.31347466 0.045984343 0.2740347 -0.010444451 0.014897363 0.19845456 0.06538391 0.028733213 0.033452544 0.051151425 0.107415095 -0.047753613 0.2004416 0.17658196 -0.18218556 0.1980834 -0.18377957 -0.11832663 0.19700241 0.401753 0.2200306 0.2911498 0.3874687 0.44138414 0.16574138 -0.14203204 0.14016654 0.32599705 0.14333074 0.40925527 0.53822064 0.35199338 0.32137007 0.20165192 0.44866168 0.52066696 0.36253744 0.36179087 0.18930453 0.34564665 0.36001933 0.317223 0.070694484 0.2284326 0.04192818 0.573195 0.66470134 0.07061766 0.16265683 0.39655146 0.6740855 0.7132683 0.53875506 0.65730035 0.67923117 0.80800986 0.7632545 0.72202647 0.03459861 -0.031025536 0.4983969 0.8119587 0.7594842 0.6614337 0.100108564 0.13686912 0.26169598 0.79368985 0.7633481 0.4181757 0.14532755 0.76716053 0.39060876 0.19677636 0.3153208 0.418503 0.28179514 0.23351827 0.33715034 0.2776124 -0.24165411 -0.23779052 0.35114384 -0.20224212 -0.23197678 0.35014898 0.085186005 0.54072374 0.5251935 0.15473653 0.4954235 0.57436025 0.21639496 0.3327769 0.3232837 0.6041533 0.60085225 0.21877182 0.19038484 0.09752522 0.21160479 0.26932085 0.32041413 0.2328783 -0.0036535002 0.064436205 0.3227354 0.09402327 0.26571876 0.33898672 0.3578816 0.26930228 0.3613693 0.3709147 0.6549617 0.5896484 0.5235208 0.67918265 0.6194378 0.5740349 0.5305333 0.5395327 0.59145916 0.5454025 0.4804714 0.44308615 0.48526597 0.37849382 0.32324302 0.31670952 0.3571679 0.05637254 0.1350972 0.22760972 0.27199334 0.26542208 0.07236247 0.016008839 0.0040138094 0.1635116 0.29347807 0.30411416 0.2801277 0.053215574 0.09920215 -0.022221744 -0.12956098 0.29709837 0.32601494 0.30517644 0.044639513 -0.076392725 0.25661942 0.10636157 0.19562313 0.20870312 0.056685302 0.08237679 0.09555585 0.023219045 0.102706596 0.10798203 0.027295463 -0.022826128 0.1476173 -0.10676715 0.10461829 0.430322 -0.11200504 0.5378664 0.49727702 0.06379968 0.5739802 0.34431756 0.5722803 0.33249182 0.31783646 0.3931912 0.27274364 0.066593386 0.10056442 0.089004494 0.16341275 0.06807012 0.75599444 0.7186532 0.6000515 0.43353122 -0.14956611 0.10273635 0.82432246 0.80795944 -0.06659764 0.85146916 0.8255482 0.27224335 0.042607717 0.029373161 0.81438315 0.79986274 -0.027518332 0.76132023 0.7234491 0.46955627 0.20054547 0.14832662 -0.22971335 -0.10922661 0.20990977 0.33841398 0.18670556 0.13188812 0.095223315 -0.04280372 -0.2277531 0.30393338 0.019049212 0.04555572 -0.14384115 0.3983459 0.4738825 0.20094448 0.24488734 0.23119822 0.19867834 0.35882488 0.3669648 0.21510373 0.14397721 0.07143805 -0.025220476 0.38648856 0.13921285 0.18554488 0.37253264 0.3929928 0.39707822 0.25858504 0.35126668 0.40226242 0.40631562 0.39911425 0.5585127 0.54502016 0.506936 0.5044129 0.48469287 0.49078345 0.55214787 0.49601954 0.47999924 0.43400165 0.08086434 0.02750419 0.14372087 0.58119226 0.56880534 0.52989566 0.44208023 0.37742406 0.07950595 0.5379015 0.4821747 0.4298755 0.4458844 0.32113415 0.06766495 0.26766562 0.1442819 0.07975209 0.019097542 0.067136824 0.078507334 0.0037938766 0.012323782 -0.017649105 -0.01256299 -0.11349994 -0.045690212 0.3484222 0.43796813 0.45725518 0.5669525 0.58571285 0.09983858 -0.04816325 0.57553065 0.46588117 0.55