# vtk DataFile Version 2.0
Really cool data
ASCII
DATASET POLYDATA
POINTS 5550 float
5.4622455 -25.21317 136.64058
5.4758077 -24.715141 136.6181
6.403247 -31.203403 130.74402
6.404056 -31.336115 131.29431
6.3890867 -30.763561 130.895
6.3867435 -30.75029 131.31337
6.282835 -27.88809 136.68024
6.1994348 -27.842854 137.34892
6.264859 -26.985218 136.02748
6.014127 -27.278988 136.69736
5.8899736 -27.201494 137.52495
6.090701 -27.214216 138.22751
5.974307 -26.230196 135.96234
5.765149 -26.458918 136.53937
5.698798 -26.333923 137.52286
5.95161 -26.572212 138.22473
6.261527 -26.307964 138.68001
5.8221254 -25.315113 135.75774
5.580674 -25.368483 136.42073
5.5814347 -25.372364 137.3188
5.8321233 -25.442434 138.09784
6.1695223 -25.016142 138.69453
6.0488806 -24.68835 135.25829
5.739416 -24.52215 135.85135
5.5367174 -24.653341 136.5153
5.5954127 -24.625633 137.38002
5.909405 -24.738724 138.15245
6.305738 -24.695864 138.76036
5.9743595 -24.028452 135.58458
5.8098845 -23.824764 136.55226
5.7460175 -24.001497 137.28537
6.1356077 -23.823921 138.15498
6.1850114 -23.254028 136.75688
7.1416874 -35.942345 132.88275
6.936495 -35.94508 133.61972
7.007871 -36.195328 134.56998
6.98129 -36.19437 135.62245
7.018295 -35.99022 136.23647
7.2437983 -35.42008 132.07156
6.901618 -35.36695 132.79485
6.7137685 -35.40979 133.54198
6.6100893 -35.47381 134.56683
6.625039 -35.497787 135.59012
6.9150357 -35.493008 136.3361
7.1704693 -35.321964 136.66486
6.7538867 -34.748356 132.8542
6.608989 -34.68311 133.51831
6.585005 -34.67136 134.52802
6.667768 -34.77911 135.48743
7.0049167 -34.936825 136.35678
7.3135314 -32.997078 129.99628
7.1862426 -32.83914 130.64206
7.147801 -33.019108 131.33524
6.9839373 -33.782738 132.63167
6.813498 -33.887123 133.42557
7.1667438 -33.455235 134.57603
6.997664 -33.861446 134.94539
7.2245746 -31.921036 129.12009
7.0935245 -32.261513 129.76881
6.757049 -32.12933 130.45232
6.781387 -32.13858 131.73074
7.234762 -33.09393 133.50366
7.2038083 -31.373829 129.00891
6.8246365 -31.398071 129.69495
6.546039 -31.51286 130.56638
6.5134563 -31.471714 131.6655
6.6912675 -31.222977 132.0044
7.1244035 -30.79782 129.13678
6.9197555 -30.721226 129.60374
6.5318165 -30.513744 130.69548
6.5125656 -30.394505 131.59871
6.776744 -30.56635 132.06325
6.643629 -30.176903 130.72253
6.6266704 -30.114784 131.35698
7.3288136 -29.41441 135.63252
7.186357 -29.323748 136.46487
6.8292923 -28.433535 136.78989
6.612988 -28.231258 137.48943
6.501532 -28.009752 138.04768
6.9057484 -27.834873 138.75226
6.3868856 -26.951632 135.78873
6.5657225 -27.59305 138.50648
6.570534 -27.114311 138.75342
6.4826646 -26.57582 138.81152
7.3302546 -25.280024 131.91222
7.437103 -25.572613 132.10992
7.3533883 -24.964859 133.38861
6.855734 -25.67234 139.07397
7.3043394 -24.259363 131.60263
7.2390776 -24.813349 132.5301
6.8302755 -24.53765 134.59712
6.6005735 -24.486265 139.02806
7.2089596 -22.916475 129.8015
7.0753937 -23.13491 130.4019
7.2177715 -23.76407 131.9753
7.394357 -23.94096 133.18114
7.117877 -23.489836 134.97276
6.6660614 -23.422695 135.55383
6.727008 -23.838829 139.0638
7.1474867 -22.545101 129.75647
7.05753 -22.435743 130.55179
7.1404815 -22.486872 131.07573
6.6149406 -22.511608 136.6926
6.503287 -23.077755 138.17776
7.169619 -22.0658 129.78342
7.1982627 -21.737736 130.57944
7.250921 -21.924925 131.16057
7.080341 -21.486185 136.72572
6.8981967 -21.709625 137.40956
7.0827394 -21.658504 138.26167
7.28537 -20.470865 137.75488
7.2784996 -20.936563 138.3326
7.4253983 -20.036001 137.46028
8.061609 -36.552162 133.01587
7.895403 -36.64824 133.62553
7.8507123 -36.81351 134.37909
7.714846 -36.75782 135.39914
7.7266994 -36.59155 136.05557
8.111853 -35.728596 131.08722
7.7357717 -35.8728 131.96327
7.536579 -36.156322 132.67363
7.4360847 -36.39656 133.44566
7.3468504 -36.569035 134.54778
7.36578 -36.56629 135.35112
7.61302 -36.294624 136.36674
7.6445136 -35.933083 136.66162
7.8617525 -35.200306 130.69008
7.431021 -35.393253 131.61629
7.5134673 -35.42781 136.77907
7.9872975 -34.24662 129.86584
7.7041655 -34.252247 130.31116
7.6458807 -34.946396 136.81616
8.054043 -32.94486 128.70401
7.9001045 -33.508568 129.29823
7.5115285 -33.55261 135.34827
8.186447 -32.090473 128.34673
7.8102894 -32.285824 128.72649
8.098789 -32.872925 134.73198
8.16049 -33.227467 135.1248
8.101567 -31.412024 128.24844
7.498845 -31.463211 128.67378
7.8571973 -31.126749 132.98209
8.107827 -30.639824 136.24353
8.009535 -30.761013 128.32527
7.7773285 -30.625736 128.49767
8.186463 -30.647701 133.13615
8.313365 -30.589762 134.42928
7.474125 -30.03501 135.71065
7.612204 -30.099028 136.35645
7.4017487 -30.249714 129.18195
7.685479 -29.84066 129.35721
7.8024793 -29.543903 134.67862
7.530381 -29.34005 135.27824
7.8448114 -29.479342 138.17369
8.140928 -29.194513 138.95114
7.594039 -29.31558 130.78723
8.160088 -28.897633 133.8885
7.915192 -28.584894 139.04372
8.432598 -27.440012 128.4243
8.216622 -27.007483 131.37186
8.216708 -27.505304 132.1727
8.080862 -27.440413 133.56769
7.856637 -27.975647 134.79568
8.403554 -26.55857 128.66174
8.316981 -26.51896 130.77347
7.715968 -26.086496 132.01451
7.8160768 -26.500462 132.25565
7.775097 -26.599344 133.9396
7.468242 -26.557192 139.28696
7.8145747 -25.245008 131.10005
7.5962825 -25.654787 131.51338
8.242811 -24.163895 129.71101
7.3877254 -24.936739 139.52278
8.003948 -23.185688 128.90923
7.4987526 -23.056698 129.39948
7.527239 -24.05608 133.93483
7.4908934 -23.827854 134.6442
8.385304 -22.147892 128.08272
7.800232 -22.520012 128.83249
7.595468 -22.213413 135.49367
8.008152 -22.910032 140.13962
8.004545 -21.716501 128.77034
7.4606338 -21.749012 129.44955
8.052534 -21.58104 132.27228
7.631051 -21.230381 129.98302
7.868397 -20.842876 130.56967
7.630617 -20.497932 136.72185
7.712386 -20.220875 138.7313
7.766038 -20.504753 139.17099
8.236406 -20.768496 140.0868
7.766884 -19.89698 136.95084
7.772091 -19.60397 137.55338
7.722326 -19.769314 138.35704
8.096703 -19.776476 139.19164
8.272468 -18.060688 127.92094
8.129505 -18.222443 128.52354
8.446568 -18.57314 130.01378
8.109948 -19.230007 137.51906
8.046455 -19.225634 137.97491
8.236552 -19.297281 138.83609
8.253646 -17.552294 127.93971
8.0471115 -17.466223 128.55708
8.075622 -17.629587 129.37898
8.354913 -16.804312 128.2078
8.123868 -16.598085 128.74248
8.035087 -16.39123 129.54674
8.181228 -16.396832 130.52744
8.423525 -16.76533 131.21524
8.28143 -16.010574 128.85867
8.167715 -15.915004 129.62431
8.290137 -15.852912 130.24976
8.354632 -16.115068 130.79713
8.50946 -36.798553 133.77046
8.644783 -37.069016 134.70457
8.57146 -37.057087 135.39767
8.641605 -36.812416 136.06111
8.404817 -35.783756 130.90219
8.640976 -35.997414 131.42096
8.356711 -36.379158 132.52222
8.371477 -36.44724 136.41931
8.422424 -36.15501 136.66899
8.630565 -34.98895 129.9459
8.366528 -35.482887 130.4791
8.378419 -35.559597 136.81453
9.07001 -33.966896 128.80276
8.315716 -34.815018 136.72638
8.643473 -32.92244 128.36748
8.410467 -33.767654 135.85332
8.627714 -32.30468 128.10579
8.559726 -32.934204 135.2004
8.645149 -31.39485 127.9611
8.7213125 -31.054625 136.19235
8.885263 -30.939585 136.87143
8.520226 -30.513124 128.31346
8.884387 -30.575365 137.82597
8.669877 -30.129414 138.42624
8.717791 -29.798014 138.93349
8.764631 -29.339968 139.24126
8.958681 -28.185171 127.4673
8.907448 -28.145311 139.73476
9.042179 -27.350697 127.01642
8.632933 -27.101402 127.67493
8.583766 -27.748602 128.54205
8.594501 -26.98764 130.72385
8.826383 -27.504486 139.82341
9.229191 -26.610504 126.72466
8.699332 -26.643688 127.54046
8.529181 -26.544117 129.67657
8.735632 -26.074705 127.81009
8.700847 -25.68808 128.71716
9.450599 -24.992682 126.82524
9.260213 -24.524506 127.86537
8.458227 -24.793318 129.34268
8.640327 -24.67269 139.85603
9.266186 -24.197912 141.07439
9.002953 -23.330938 127.47869
9.104143 -22.950953 141.7576
9.233573 -22.453674 126.67401
8.715868 -22.175314 141.26132
9.302564 -22.332539 142.16698
9.447562 -21.402636 125.57351
9.378517 -21.528757 126.34372
8.748538 -21.735855 128.13226
8.460032 -21.88771 133.26137
8.714931 -21.567251 141.1873
8.845204 -20.790243 128.7602
8.607177 -20.292145 129.49759
8.842558 -21.213991 132.32411
8.6220875 -20.439772 140.5331
8.823053 -20.782974 141.12476
8.486838 -19.18113 129.45285
8.651507 -20.19907 130.64642
8.460774 -19.645432 136.52687
8.634462 -19.51996 139.5834
8.856279 -20.01907 140.34692
9.19228 -20.091595 140.97691
8.384762 -18.153793 127.695114
8.708345 -18.259445 130.42973
9.324753 -18.786123 131.41457
9.052064 -18.214624 131.85701
8.340832 -19.30323 137.04796
8.587425 -18.964628 137.79488
8.717827 -19.004381 138.41301
8.8621235 -19.20863 139.22986
8.46412 -17.452425 127.77323
8.678061 -17.374893 131.7752
8.819672 -17.050726 131.98859
8.641342 -16.56652 128.05824
8.823496 -16.19136 131.67128
9.012531 -16.86077 132.20438
8.879505 -16.223757 128.04965
8.6309185 -15.579772 128.80148
8.407237 -15.460903 129.39372
8.51535 -15.497877 130.32318
8.809136 -15.753998 131.1503
9.16326 -15.839718 131.92322
9.020618 -15.222913 128.9025
8.811095 -15.1690035 129.43336
8.808865 -15.263308 130.36581
9.125766 -15.193328 130.99974
9.336553 -36.785755 133.58789
9.331738 -37.111637 134.64598
9.481386 -37.100044 135.48457
9.398342 -36.883736 135.99611
10.462273 -36.194912 123.30844
9.785295 -35.857506 131.0699
9.276121 -36.042908 131.68208
9.827001 -36.372177 132.44453
9.443139 -36.596367 136.28348
10.471463 -35.64894 123.52989
10.453692 -35.430386 124.04786
8.98225 -35.128098 136.77444
10.0084095 -34.075283 136.24628
9.378404 -33.67393 128.43643
10.024157 -32.282066 127.248
9.952356 -32.589733 136.28748
10.162726 -31.93713 137.17578
9.415664 -30.840023 138.31427
10.148424 -30.809052 139.2453
10.0681095 -30.221529 127.451355
9.690724 -30.157692 139.41429
9.963265 -29.927595 139.75148
10.037379 -29.21831 139.94902
9.732857 -28.15776 126.74409
10.0415535 -27.176365 126.09027
9.412502 -27.613895 126.64196
10.2791195 -27.445402 141.98804
10.149761 -27.262266 142.29456
10.238686 -27.032988 142.93336
9.985195 -26.025776 141.38622
9.998145 -26.545593 142.52055
[...]
POINT_DATA 5550
SCALARS features_00 float 1
LOOKUP_TABLE default
0.49204147 0.48594287 0.4800483 0.46230412 0.4895508 0.4767548 0.38635743 0.45724538 0.38398442 0.45368624 0.5014674 0.48848972 0.4340338 0.48434183 0.5154798 0.48608887 0.44453186 0.42691037 0.48266238 0.4994104 0.46945238 0.41790193 0.3611411 0.43039435 0.48004138 0.4889077 0.45553216 0.40375987 0.37392378 0.45279607 0.47737324 0.4368944 0.41166294 0.502744 0.56070423 0.6603495 0.80185515 0.8115135 0.44622532 0.5107583 0.5703188 0.6954365 0.83004594 0.81845903 0.7904627 0.502515 0.5645514 0.6813755 0.8190667 0.8036634 0.39741307 0.39028662 0.31414926 0.39097893 0.52320576 0.50877696 0.5985192 0.43504703 0.440901 0.4515737 0.3886026 0.40247017 0.44920886 0.48332542 0.47528875 0.44131148 0.41709945 0.47362062 0.49908787 0.50121915 0.46659833 0.42966092 0.506743 0.4805941 0.19954605 0.24803269 0.32783693 0.42065603 0.45882928 0.4093995 0.33498257 0.45396858 0.43837255 0.4326254 0.125323 0.114868656 0.109133676 0.3643207 0.18831122 0.12612285 0.14895573 0.36078006 0.38569266 0.36332357 0.19951338 0.058989294 0.17898011 0.28782004 0.33307025 0.40725422 0.4123909 0.4022659 0.32210034 0.3791751 0.41195312 0.4139424 0.41784805 0.3159824 0.32529944 0.32846212 0.45605305 0.41719002 0.49619275 0.47055775 0.5258379 0.6037117 0.7370827 0.7776075 0.42062384 0.43802023 0.4723145 0.5260469 0.6376674 0.7510409 0.7888768 0.77968377 0.39091015 0.40487635 0.7680572 0.35397303 0.36326241 0.7233671 0.348464 0.34935224 0.51974356 0.3528549 0.3866185 0.38070416 0.4361639 0.3754802 0.4232881 0.0826772 0.2787347 0.3972004 0.4204852 0.019657198 -0.0024196282 0.2234831 0.27234682 0.47511923 0.4606147 0.08894003 0.15933631 0.27671698 0.22616266 0.47540617 -0.039289884 0.27787608 0.22836022 0.0332702 0.022568032 -0.02048022 0.02046856 0.15954465 0.020624716 0.08228273 0.06843307 0.032017775 0.31644532 0.10593565 0.09789607 0.14597622 0.25772524 0.26819098 0.3524145 0.044204503 0.109242804 0.18523063 0.33097565 0.25613445 0.13816516 0.31290233 0.3897189 0.29694638 0.3798018 0.3482814 0.42969957 0.4942107 0.453853 0.4102467 0.51328224 0.5469223 0.53538144 0.5155105 0.59042394 0.5181087 0.28328624 0.57822 0.57663906 0.56288326 0.6162012 0.575579 0.5504528 0.6423624 0.6345928 0.63455963 0.568177 0.51212484 0.67756915 0.66015106 0.62329894 0.569207 0.5204032 0.62391007 0.69116795 0.7217499 0.4178483 0.4113835 0.43690234 0.75312877 0.74185133 0.38874632 0.41628256 0.70413166 0.24880272 0.64989704 0.28614664 0.4813088 0.29266012 0.33437794 0.30977178 0.18604165 0.18169755 0.34489122 0.16485487 0.16767135 0.15854171 0.15994993 0.29468957 0.17650403 0.30440408 0.28704774 0.215991 0.007348898 0.20073396 0.27561647 0.2671821 0.021670278 0.20298979 0.08461331 0.11991443 0.033085182 0.005652325 0.017188422 0.068518475 0.01385662 0.2726047 0.06854568 0.34937447 0.3725243 0.2576289 0.1461663 0.15019673 0.02330602 0.40350252 0.20300245 0.18230546 0.15366927 0.44247743 0.44242716 0.19400649 0.13482301 0.5433197 0.51207614 0.46965995 0.47207016 0.60321057 0.35082167 0.25927976 0.3379341 0.5798528 0.5916635 0.5836332 0.5402407 0.6215131 0.4430973 0.46963012 0.6617346 0.5376052 0.47845435 0.695326 0.71410716 0.6949914 0.6337625 0.57246226 0.54997563 0.75050974 0.72276366 0.6458212 0.6069368 0.4452996 0.5533155 0.603174 0.64422846 0.6675155 0.28726813 0.36385337 0.3129564 0.6484453 0.61111236 0.5615027 0.6084787 0.17099185 0.18594916 0.17308033 -0.21011911 -0.07970388 0.10646738 0.07366909 0.1106697 0.09846927 0.08119878 0.055878542 0.25088754 0.25199646 0.28696138 0.1510275 0.2033439 0.2615993 0.14559646 0.22144869 0.30636868 0.40977412 0.18861806 0.167155 0.15561485 0.17161985 0.09026107 0.096578054 0.07019847 0.12368028 0.12978475 0.3742274 0.31690836 0.1998386 0.069879465 0.25527295 0.24107969 0.7243904 0.5554377 0.41046703 0.3789683 0.26645443 0.367926 0.40008765 0.8411596 0.78564024 0.66198295 0.5131011 0.51667696 0.082675576 0.4545375 0.42035317 0.8595742 0.8319572 0.7480965 0.64601 0.52908355 0.47562206 0.25748298 -0.2754749 0.48659405 0.47603834 0.81184393 0.7699487 0.6675707 0.22993305 0.20482911 0.482278 0.4889018 0.66985095 0.24561152 0.5502125 0.55730814 0.50424564 0.50632834 0.7022984 0.40793034 0.71833384 0.5180626 0.475958 0.74423766 0.57694566 0.5538347 0.7664317 0.7642597 0.7055235 0.61135644 0.58093125 0.6912557 0.69859385 0.6905376 0.6652706 0.3004 0.436993 0.4971036 0.57700783 0.6734439 0.6897564 0.69268095 0.6702304 0.6087568 0.5137166 0.22944723 0.28418675 0.2724358 0.28967297 0.4241354 0.54698443 0.62039196 0.63965607 0.6164608 0.5460157 0.5330408 0.45010453 0.00029876828 0.21662965 0.19252492 0.52654755 0.48279133 0.46765634 0.41362953 0.09085873 -0.005513102 0.032864153 0.2530637 0.39103404 0.3475693 0.31125963 0.30356088 -0.07461777 0.0045678765 -0.1580857 0.23780338 0.14308572 -0.021733604 0.011864008 0.17575367 0.057185434 0.09162011 0.16052862 0.09091811 0.12763022 0.05206316 0.06461885 0.14084281 -0.042767245 0.34484354 0.5013863 0.5591401 0.22872533 0.31257308 0.41676345 0.55791545 0.59928846 0.19484605 0.45284784 0.5508151 0.575686 0.06756465 0.23028399 0.3687284 0.4331414 0.5215596 0.27261338 0.06478785 0.14106713 0.45373946 0.3765955 0.3350581 0.8286178 0.7624272 0.51168525 0.37671602 0.8612719 0.45061478 0.87818533 0.8530798 0.5475955 0.4856962 0.8826153 0.83919287 0.75164866 0.6479998 0.5660678 0.057538185 -0.0436501 0.2700318 0.36830187 0.48229116 0.75906837 0.64158064 0.091022715 0.08060183 0.351932 0.40844983 0.38640758 0.27614224 0.66135573 0.34051234 0.6322239 0.5244769 0.48352444 0.67425203 0.6942138 0.68528426 0.593141 0.54708487 0.6650848 0.64439857 0.68805116 0.6911531 0.66279924 0.64094174 0.58237416 0.43616807 0.6554418 0.4074902 0.15845345 0.13577393 0.14819375 0.17653085 0.58813566 0.5899545 0.15339456 0.013105184 -0.0038138926 0.005969353 -0.017754897 -0.080896065 0.151989 0.31021225 0.38090903 0.36523825 0.5284547 0.4871531 0.020820145 -0.00438039 0.31973866 0.47727877 0.41196555 -0.05287245 0.28673148 0.24623871 0.20509095 0.10906093 0.12247165 -0.20461532 0.20273367 0.2099216 0.21504766 0.12322957 0.1377414 0.5562053 0.53936505 0.054038733 0.13373238 0.7659617 0.27982277 0.25300354 0.51954615 0.57425374 0.8765851 0.8384111 0.5883038 0.5570438 0.85174084 0.5681436 0.53740215 0.4731274 0.54850435 0.22489418 0.3673647 0.8028221 0.40011477 0.48058838 0.4732707 0.84362686 0.84099376 0.47786248 0.5086033 0.56584626 0.63309467 0.85582376 0.8773755 0.39344785 0.60277355 0.6406382 0.7004067 0.90334135 0.8776255 0.7121689 0.42896524 -0.10909029 -0.3019058 0.16511452 0.19849262 0.2996269 0.275185 0.5860396 0.6619552 0.74822485 0.8343127 0.76195943 0.5842413 0.10126552 0.10094737 0.0852842 0.5914612 0.5042787 0.15608034 0.12484883 0.5619558 0.24470006 0.536553 0.53502524 0.4883813 0.46850997 0.39504695 0.3339904 0.5786358 0.5508972 0.57105815 0.5027925 0.49661195 0.56237876 0.65935063 0.5282519 0.48233834 0.6132266 -0.009722734 0.029152822 -0.021458331 0.08385826 0.055516437 0.36903882 0.4199685 0.5563587 0.0027356297 -0.103935584 -0.21647832 0.02352357 0.4158044 0.40267235 0.3901986 0.5165092 0.32908142 0.46889704 0.39940694 0.08137242 0.19222456 0.31172627 0.343681 0.25175712 0.30912107 0.31804982 0.30109552 -0.041300528 0.19278267 0.265971 0.50447166 0.41412914 -0.030430127 0.17757657 -0.014887154 0.6955216 0.6125058 0.5084168 0.13184123 -0.25771034 0.058778904 0.19297032 0.82636714 0.7139896 0.22841541 -0.17131904 0.33172864 0.4927147 0.95003486 0.9013829 0.70761746 0.2579545 0.5129277 0.94611394 0.80999535 0.13799301 0.43837 0.93383664 0.8623656 0.5440757 0.54175055 0.11385724 0.052123226 0.75751233 0.6896084 0.00030227005 0.24956991 0.29354718 0.7707145 0.29298833 0.34943125 0.48649055 0.44415838 0.8421204 0.82015127 0.47164136 0.65448296 0.84903985 0.8460214 0.009651769 0.15869349 0.19147004 0.42048508 0.5184808 0.7861167 0.88974804 0.8576472 0.755275 0.6495577 0.5249089 0.47777638 0.013371572 0.005670195 0.03908823 0.49459636 0.54319555 0.64498043 0.7949414 0.829502 0.83456874 0.83156776 0.62320447 -0.25640756 0.55556875 0.6903987 0.8100066 0.8451053 0.84604406 0.25940016 0.2165109 0.20764813 0.82270914 0.40678918 0.28332654 0.28020054 0.41546375 0.44104615 0.4117089 0.4295258 0.3808087 0.3624779 0.45039034 0.27579212 0.60981417 0.05167784 0.1945281 0.2586205 0.24770185 0.57239234 0.180924 0.2491926 0.070340656 0.16689968 0.32696444 0.44747096 0.43481836 0.5209404 -0.07552157 -0.051658347 -0.04694637 0.4134497 0.39823228 0.45886287 0.33316046 0.45518088 0.16154039 0.25927955 0.32689258 0.32468125 0.32412902 0.40735683 0.2753631 0.5173507 0.4489581 0.16872337 0.05288451 0.729363 0.6309581 0.0014890507 0.86216533 0.27537936 0.9774079 0.3765645 1.0 0.645998 0.24910828 0.010291383 -0.115015745 0.088203914 0.34611052 0.13352177 0.1942358 0.7833959 0.7825413 0.48357204 0.80247825 0.7828408 -0.2525044 -0.2225658 -0.03698034 0.6138737 0.82921386 0.81168604 0.7153413 0.4650886 -0.17908683 -0.24948838 0.35604286 0.7540789 0.85820425 0.816893 0.70380855 0.6032762 0.5331062 -0.24590836 -0.3501122 0.41594124 0.4672348 0.8209988 -0.09435 0.56556684 0.651981 0.8446311 0.83743304 0.31723785 0.26477912 0.72546864 0.8056993 0.8348093 0.31738144 0.37988442 0.34602836 0.35102487 0.32922465 0.3356931 0.31430137 0.33051163 0.71292436 0.65504026 0.5808704 0.6876704 0.5870465 0.4986165 0.2806148 0.6142593 0.51774156 0.44387078 0.14530846 -0.04397644 -0.011213135 -0.0014894262 0.16145334 0.20576054 0.25778657 0.34927785 0.3378724 0.3092615 -0.04972975 0.29782474 0.28224188 0.26574445 0.17368056 0.1232928 0.20378971 0.39079797 0.40878934 0.40765512 0.06841441 0.4031451 0.37957382 0.3718536 -0.44946378 0.31334823 0.2984373 0.21480429 0.3056107 0.31787613 0.15293896 0.28598177 0.29069796 0.35241872 0.14128752 0.769568 -0.012870692 0.9083939 0.057748497 0.9780308 -0.009694705 0.98621213 0.8904556 0.48273134 -0.01753512 0.05665627 0.205014 0.38317195 0.8326882 0.7694879 0.75669676 -0.21592237 -0.19578661 0.16065146 0.3439396 0.10716607 0.30275086 -0.09676435 -0.6099069 0.2955426 0.6484659 0.492751 0.43749958 0.100858144 -0.08800888 0.44337434 0.6795676 0.5722632 0.487042 0.3016689 -0.40131137 -0.36938298 -0.29152632 0.6146879 0.61151814 0.5963687 0.5397749 -0.16309313 -0.1750155 0.30418783 0.04542882 -0.062893644 0.3040862 0.3801179 0.7792939 0.061684042 -0.023988262 0.14106572 0.10710238 0.5400186 0.6094383 0.8071075 0.8024007 -0.041124836 0.008040812 0.3134878 0.7111807 0.7801453 0.8030139 0.22136419 0.19464754 0.26302922 0.26376095 0.37874633 0.38707355 0.30828542 0.7040504 0.6915115 0.6379179 0.5648005 0.72086895 0.7321054 0.54191524 0.46126425 0.715379 0.03162673 0.00336181 0.2239348 0.26164228 0.31896144 0.5166747 0.6620611 0.6220239 0.26407787 0.0045821816 0.31824738 0.2930877 0.13518822 0.2145307 0.49388617 0.50025266 0.4560346 0.1695336 0.30174643 0.42372745 0.33537394 0.34691313 0.3112738 0.04488011 0.17516041 0.298204 0.20276949 0.058263928 -0.24989355 -0.40030628 0.3015433 -0.14906102 0.5093585 -0.22944449 -0.025063612 0.37272644 0.43392938 0.3080797 0.24527566 0.20891654 0.34787762 0.11206032 0.8264383 0.7051232 0.88124084 0.7608783 -0.003420271 -0.008163124 0.9142859 0.782382 -0.031509764 0.075111635 0.29946414 0.4112549 0.48184133 0.788464 0.6563972 0.4700161 0.30240765 0.05753898 0.4268725 0.4719965 0.5570526 -0.17550968 0.5165241 -0.41984332 0.31566367 0.48364022 -0.051167563 0.13823791 -0.44168162 -0.5103163 -0.19826224 0.7065317 -0.12986222 0.011489861 0.61573774 0.6845256 0.5592126 0.35835165 -0.07818477 0.18530916 0.29004267 0.7185924 0.32770288 0.1698896 0.01758372 0.21829328 0.09026537 0.5240684 0.77133584 0.7639618 -0.006124614 -0.022028882 0.22333613 0.2337243 0.67820054 0.741627 0.7762685 0.16509515 0.21400122 0.35072637 0.6473559 0.5942161 0.55132943 0.45608747 0.66111326 0.6411154 0.59252596 0.48914337 0.35817105 0.6274503 0.6572238 0.31095743 0.61313665 0.63716614 -0.079399675 -0.06713873 0.065918036 0.18800163 0.23772632 0.2708099 0.47391045 0.5374783 0.5297557 0.57865536 0.20768878 0.097842336 0.20872016 0.4932933 0.4304528 0.5339484 0.50640124 0.35262746 0.2530706 0.40977633 0.13020146 0.099624015 0.13433921 0.18101826 0.26960623 0.17760873 0.3974939 0.5870906 0.6019708 0.5770533 0.4500513 0.38098657 0.13231671 -0.010812366 0.5150385 0.53565204 0.47929186 0.33958054 0.23746336 0.34793139 0.5653212 0.5673399 0.24651477 0.5760498 -0.13267528 0.2093141 0.22686554 0.13977875 -0.03074394 0.20670949 0.16397375 0.3249088 0.0462455 0.51750255 0.5261141 0.58829 0.349447 0.05373794 0.0028743073 0.0054433793 0.49664235 0.57366186 0.22805011 0.05977923 -0.030704718 -0.06451826 0.56820166 0.6670232 -0.06463313 0.6535804 -0.4364638 0.5626384 0.61916804 0.20746782 -0.07967099 0.42630547 0.67063236 0.59889233 -0.048235573 -0.2710938 0.044047646 0.56961405 -0.1250616 0.17764333 0.37373757 0.6903986 0.71841955 0.47816896 0.2362164 0.085927464 -0.09939799 0.49465045 0.63958955 0.7235272 0.75708926 0.74835616 -0.025466703 -0.012346551 -0.12797727 0.02785328 0.6799443 0.7455819 0.7653067 0.63777447 0.60064214 0.5007461 0.34332344 0.6125754 0.56843424 0.13435104 0.08138744 0.2565024 0.38099495 0.40029222 0.51230156 -0.11493086 -0.1166115 0.08424918 -0.037610997 0.18594594 0.41696912 0.48094618 0.524486 0.48915863 0.48690057 -0.034397777 0.08538748 0.03153575 0.42367458 0.37309647 0.4616598 0.33132708 0.37823793 0.0482057 0.5379513 0.5708513 0.63709915 0.29304832 -0.26237777 0.4439627 0.64368397 0.61839867 0.525028 0.49210107 -0.07971495 0.53852177 0.46326238 0.5592413 0.533443 0.36752325 0.5776134 0.3162971 0.54317045 0.36805874 -0.12818623 0.26677474 0.21881646 0.21212655 0.07070446 0.06157057 0.6730151 0.6858407 0.00876767 0.007027479 0.0023283586 0.67335975 0.7810932 -0.014256861 -0.008172445 -0.013242774 0.77177644 0.80630183 -0.02512446 0.70935655 0.7793134 0.6838546 0.31610113 0.54764235 0.5921188 0.42292506 0.41161388 0.67859006 -0.18543537 0.044473566 0.44898263 0.6518848 -0.047512114 -0.023896426 0.1436974 0.18164076 0.70238507 0.5185753 0.39465797 -0.0813229 -0.08996779 0.004765466 0.1931769 0.1911544 0.5626486 0.7307097 -0.20455958 -0.21325509 -0.10779174 -0.023207992 0.014092118 0.73572004 0.7237132 0.75904095 0.7947507 0.72615397 0.72994745 0.7241292 0.7086221 0.75233036 0.79422677 0.7957467 0.70905495 0.6983813 0.70110625 0.70281094 0.7187812 0.750426 0.7782762 0.65386605 0.6507611 0.6342131 0.66699624 0.7170272 0.7287066 0.59183663 0.5251799 0.59031934 0.59347713 0.51559466 0.27028477 0.543957 0.051167727 0.28828347 0.49585587 0.13648377 0.247976 0.36793432 0.3487401 0.04817678 0.04820719 0.084052004 0.23057054 0.25314158 0.47122395 0.19775516 -0.05288361 0.03186994 0.045269534 0.11023241 0.26896542 0.30998605 0.42645785 0.4520129 -0.07732131 0.42109203 0.37976536 0.37974912 0.34480786 0.16790909 0.26614887 0.21627069 0.489219 0.5678077 0.63615215 0.44254458 0.58105665 0.64094293 0.63735145 0.5450007 -0.02662921 0.54666334 0.47152963 0.5591711 0.37892103 0.4032869 0.5694233 0.2941233 0.54435956 0.4596856 0.34919035 0.29225492 0.09154159 0.26494202 0.060537416 0.055965975 -0.09259652 -0.16659646 0.1558904 0.59638983 0.68048906 0.7586725 -0.019771025 -0.008974887 -0.06109788 -0.12033504 0.2185475 0.7885146 0.84061563 0.014759198 0.8387183 0.012360349 0.8059072 -0.11177777 0.73348224 0.7771877 -0.049025614 -0.06584993 0.32765517 0.48028246 0.5554293 0.3106218 0.6010171 -0.031462267 0.13040613 0.18002239 0.19547117 0.13290605 -0.028699309 -0.025540642 0.04684809 0.1787757 0.19532165 0.17086779 0.12643464 0.01587917 0.062915646 0.10415196 0.08598435 -0.02345784 -0.1654718 0.007978708 0.043946862 0.05238799 0.105446346 -0.05202029 0.02263147 0.067661226 0.67014706 0.73009884 0.72954684 0.7057753 0.6425793 0.71525985 0.79872143 0.73134255 0.82851666 0.70326585 0.7880809 0.6517306 0.7447456 0.5683216 0.52259874 0.6692353 0.27571428 0.36891723 0.071793884 -0.30778527 0.4870202 0.12950955 0.22802997 0.3416059 0.37477952 0.3617114 0.13050674 0.38208818 0.30849975 -0.018534368 0.06350647 0.098393835 0.07860793 0.057834983 0.08677546 0.09373472 0.057074055 0.22376928 0.31681702 0.3459698 0.32402658 0.34867024 0.1589719 0.33416802 0.22469309 -0.020391356 0.49292505 -0.34301728 -0.26862577 0.4003252 0.53900933 0.612063 0.53092265 -0.2547415 0.24758661 0.48038715 0.48887864 0.4770807 0.5232061 0.34837323 0.39519268 0.5380415 0.4902233 0.20363103 0.27443177 0.4149413 0.3471194 0.22024092 0.30783352 0.27252162 0.10125983 0.067192376 0.018342197 -0.14204492 -0.4021538 0.17215398 0.067613006 0.073679164 0.06039735 -0.18221827 -0.2112276 0.6928899 0.75526285 -0.0025032684 -0.05963897 -0.2067879 -0.12228726 0.1768462 0.63437486 0.78854185 0.83597004 0.004960373 0.7921943 0.8354315 0.83726823 0.74720263 0.8021361 0.82300097 0.7134728 0.7677752 -0.075513385 -0.16543199 0.33301538 0.41909745 0.26114696 0.42879742 0.42150068 0.18319863 0.34530872 0.42158967 0.42091864 0.18565229 -0.006931782 0.12320888 0.18208034 0.18303375 0.24620235 0.39975297 0.2265295 0.12705873 0.046963364 -0.0017687976 0.33710986 0.24829948 0.13529113 0.12941872 0.0942607 -0.016601045 0.09270886 0.40244746 0.38428867 0.13434827 0.5301643 0.5053101 0.3277906 0.23604459 0.602821 0.59250104 0.54224324 0.49571925 0.65498537 0.6972958 0.67289615 0.5978091 0.6306095 0.608395 0.64959556 0.71820647 0.70642745 0.5644174 0.6955489 0.770948 0.8294176 0.71227884 0.81855464 0.65957487 0.7565404 0.73560226 0.59424984 0.69504976 0.3835448 0.6761488 0.1950024 0.3231532 0.19924918 0.2133109 0.18937531 0.14476061 0.23757502 0.21782637 0.18408217 0.61474717 0.5635146 0.45982495 0.33577114 0.29752147 0.61939216 0.5922853 0.44842938 0.35837203 0.62799156 0.59133416 0.5066051 0.4542352 0.42125922 0.4631896 0.54479146 0.5533452 0.50927395 0.4901824 0.5109752 0.5610506 0.5595901 0.53600943 0.56012833 0.5627073 0.83539534 0.8687478 0.80164146 0.72887444 0.6672045 0.5706117 0.56995815 0.40150028 0.46554977 0.3955552 0.0017749891 0.27922916 0.2878373 0.07264284 0.057786413 0.014191464 0.22794239 0.17281324 0.20978597 0.28523344 0.26397958 0.075195305 0.17610186 0.1316706 0.09050117 0.05049862 0.049911086 -0.26884282 -0.007965438 0.02951714 -0.037451 0.20384526 0.056953277 0.18172416 0.094390824 -0.008152463 0.088216364 -0.26701912 0.110001355 0.11560547 -0.09486372 -0.032481838 0.33636093 0.43854266 0.25238773 0.30513898 0.3995342 0.3099575 0.014967322 0.19534932 0.30781835 0.29508516 0.122866265 0.30039698 0.29845238 0.28628853 0.23147312 0.14958847 0.084491864 0.09445109 0.12101745 0.0041605495 0.00804634 0.09384047 -0.013474874 0.0628681 0.019799516 -0.37153897 -0.47665545 -0.5357098 0.716366 0.09869863 -0.13812806 0.20849961 0.66049564 0.2315355 0.1945463 0.16167167 0.19955866 0.23623164 0.25084797 -0.09938208 -0.022704843 -0.1771864 -0.2764144 0.53626424 0.3632046 -0.09235123 -0.29430103 0.5598435 0.5106578 0.32692987 0.10028471 -0.027048431 -0.16585693 0.5296519 0.5279752 0.40021533 0.18276101 0.0002271384 0.07472131 0.16270591 0.3924109 0.4606092 0.48123348 0.21303019 0.04633671 0.3115721 0.0450314 0.08725005 0.43239903 0.4301464 0.4058627 0.045134783 0.43371648 0.43253767 0.4242496 0.52990335 0.6264433 0.4225105 0.5524482 0.6181146 0.73263043 0.7056235 0.7287235 0.6462494 0.7457463 0.8407475 0.8017689 0.684414 0.6838398 0.6882194 0.7339185 0.6565273 0.5768745 0.6771369 0.49530476 0.6091107 0.4956988 0.5837376 0.5858005 0.5094936 0.18631619 0.18430574 0.64013886 0.25813323 0.2925943 0.44416285 0.44825563 0.6307318 0.628235 0.3410924 0.40379658 0.4319203 0.6216001 0.6272787 0.27409738 0.40088722 0.60500634 0.35576874 0.46280044 0.49966687 0.50503063 0.5112536 0.5100219 0.5275203 0.48574513 0.5237585 0.54053986 0.534237 0.42433387 0.45350057 0.49947283 0.46294713 0.9362227 0.91130877 0.8559749 0.83578765 0.89055955 0.7955763 0.7130807 0.5460361 0.6348845 0.43646455 0.3370977 0.5362634 0.4946284 0.23326185 0.08905423 0.22245303 0.39736378 0.46695393 0.43581998 0.29604408 0.2739296 0.10055779 0.10462979 0.32895735 0.31602383 0.21929854 0.16841282 0.26607984 0.26975062 0.12788771 -0.015324287 0.10660191 0.33107716 0.2917482 0.0284