# vtk DataFile Version 2.0
Really cool data
ASCII
DATASET POLYDATA
POINTS 5619 float
13.3062 -25.815681 120.91767
13.254153 -25.831963 121.30437
13.139249 -25.87678 122.59029
13.255087 -25.928394 123.172585
13.21965 -25.386269 120.59241
13.015371 -25.176916 121.365036
12.98413 -25.53185 122.32991
13.015986 -25.106846 123.16217
13.2624445 -25.199371 123.784424
13.269155 -24.7138 120.202644
13.1666765 -24.567926 120.56625
12.958222 -24.489037 121.74079
12.971466 -24.499367 122.709076
13.138783 -24.234121 123.15713
13.228305 -23.719666 121.61961
13.050897 -24.021603 122.36566
14.105928 -26.581688 123.37887
14.090244 -25.979788 120.00184
13.65869 -26.007885 120.63571
13.491152 -26.255533 121.87492
13.484314 -26.242758 122.743576
13.640094 -26.207642 123.45834
14.013032 -26.128162 124.02736
13.815028 -25.466177 119.93555
13.572912 -25.18556 124.431076
14.228016 -25.014757 125.72498
13.666253 -24.648445 119.94327
13.9481 -24.474028 125.41171
14.131202 -24.703068 125.73634
13.705176 -23.69571 120.110695
13.481675 -23.720278 120.482506
13.472537 -23.430347 121.46616
13.503571 -23.601164 123.26088
13.659989 -23.6246 124.28016
13.854164 -23.59833 125.04399
14.278965 -23.66905 125.85267
14.189276 -21.871063 118.7416
14.3528185 -22.476124 119.21738
14.084846 -22.707514 120.41523
13.746608 -22.698488 121.34279
13.628771 -22.969944 122.53175
13.935993 -22.80859 123.712234
14.094029 -22.7851 124.56001
14.226941 -22.892647 125.251434
14.416637 -21.60428 118.081696
14.240194 -21.388739 118.52325
14.203332 -21.402386 119.23499
14.20896 -22.29543 120.92881
14.289633 -20.905125 118.608864
14.246665 -20.971277 119.26182
15.408807 -26.977224 119.624344
15.071311 -27.014656 120.60153
14.330909 -26.672152 122.547295
14.989497 -26.235325 119.51905
14.8430395 -26.405794 120.562546
14.337825 -26.481176 121.66826
14.651728 -26.086653 124.4111
14.738378 -25.428473 125.8661
14.780436 -24.49721 126.254234
14.983873 -22.667004 118.240845
14.736365 -23.652197 126.22532
15.235974 -21.94931 116.97772
15.020057 -22.12546 117.4322
14.463569 -22.161682 118.3708
14.499343 -22.654144 125.39204
14.598851 -23.039263 125.94178
15.008443 -21.279575 117.02205
14.669365 -21.264858 117.522095
14.861427 -21.708021 121.5144
15.07567 -21.55722 122.0585
14.843597 -22.284721 124.18062
14.718556 -22.3998 125.04436
15.057397 -20.623117 117.211494
14.885835 -20.459026 117.68996
14.507525 -20.514198 118.45043
14.531687 -20.37217 119.01583
14.892625 -20.22892 118.06699
14.896255 -20.086456 118.657295
15.0026655 -20.088774 119.221115
15.184882 -11.966267 117.50714
15.159961 -11.950094 118.3019
15.155685 -11.442549 117.037575
14.957787 -11.508058 117.64522
14.912624 -11.365707 118.16943
15.292303 -11.20857 119.42372
15.207917 -10.762438 117.076355
15.077229 -10.621089 117.63936
15.044428 -10.709015 118.42999
15.26095 -10.675521 119.22838
15.434814 -10.937042 119.8062
15.263528 -10.251982 117.633316
15.271243 -10.204237 118.29247
15.977064 -27.811789 119.6823
15.901111 -27.886887 120.957375
16.281355 -28.23931 121.422226
16.237986 -27.981024 122.485405
15.991543 -27.333475 118.983475
15.629417 -27.384838 119.6199
15.502573 -27.380873 120.08911
15.485968 -27.044779 121.5613
15.313884 -27.049068 122.554016
15.889552 -26.595984 118.75673
15.244317 -26.372728 124.57103
15.602413 -26.103369 125.98556
15.663561 -25.829666 118.97371
16.165207 -24.137287 126.93115
15.716444 -22.662373 117.80993
15.663382 -23.135283 118.53696
15.508289 -23.468489 126.555244
15.72137 -22.153662 116.81359
15.405986 -22.997635 126.33953
15.83648 -21.466377 116.305756
15.515076 -21.547735 116.5291
15.925217 -21.467514 124.380356
15.8526125 -21.05205 116.29574
15.636093 -20.708126 116.583786
15.454048 -20.399405 120.14832
15.386561 -21.25774 120.869125
15.5360365 -21.360018 122.735794
15.489562 -20.296795 116.95039
15.417489 -19.95604 117.602066
16.137709 -19.585428 118.47464
15.979638 -19.578857 119.25861
16.36399 -15.835696 111.510704
16.376047 -15.764186 112.04581
16.389215 -15.740111 108.84084
16.183502 -15.59504 109.79913
16.199722 -15.450371 110.56695
16.060217 -15.211465 111.79425
16.177855 -15.289897 112.397415
16.310837 -15.232193 112.95724
16.201574 -14.207165 109.06028
15.981834 -14.421774 110.26722
15.949611 -14.583802 111.69186
16.084755 -14.627198 112.611565
16.269156 -14.462272 113.25089
16.34781 -14.114343 114.08303
16.194166 -13.371612 108.87017
15.734088 -13.176416 109.579926
15.702205 -13.404003 110.378365
15.859603 -13.37015 111.0922
16.256033 -13.587398 112.34567
16.242464 -13.696311 113.70896
16.31692 -13.872732 114.35156
16.112526 -12.614372 117.7132
15.985248 -12.450074 109.026085
15.6670475 -12.451241 109.58396
15.718163 -12.37077 110.321205
16.093801 -12.675448 111.31274
16.39447 -12.3609085 115.60903
16.345762 -12.439233 116.3778
15.389801 -12.230339 117.79701
15.607692 -12.318151 118.368256
15.740582 -12.010915 119.333496
15.862178 -11.7133875 119.91218
16.002478 -11.936734 109.17952
15.917297 -11.778703 109.61762
15.959946 -11.796645 110.291115
16.097574 -11.936243 110.84632
16.049768 -11.543569 115.987236
15.453649 -11.180143 116.60031
15.523212 -11.531242 119.71715
15.831427 -11.2070265 120.242615
16.008774 -10.692273 115.65466
15.453963 -10.5418825 116.80614
15.489193 -10.3071375 119.49255
15.774967 -10.60572 120.147285
16.168571 -10.84421 120.534294
15.996775 -10.106352 116.067986
16.03429 -9.826281 116.560455
15.65289 -9.812842 117.68013
15.636882 -9.835667 118.39022
15.869072 -9.796079 119.20306
15.941263 -10.14512 119.989685
16.10965 -9.364608 118.448586
16.785336 -28.57581 120.587296
16.847237 -27.877123 118.8272
16.652761 -28.182264 119.64692
16.684963 -28.549093 120.50228
16.430727 -28.389168 121.46408
16.937508 -27.857618 124.06015
16.922226 -27.590624 125.398705
16.77495 -27.190683 118.38478
16.661615 -27.362501 118.52141
16.32991 -27.559929 123.25746
16.948263 -27.440708 125.798965
16.556377 -27.007345 126.06466
16.77695 -26.547762 118.32471
16.418987 -26.80494 118.51188
16.449762 -26.470058 126.48519
16.994823 -25.927168 126.73995
16.266964 -25.644323 126.52585
16.522964 -24.30466 127.047585
16.793098 -22.636457 117.28154
16.17241 -23.40113 126.75984
17.213327 -21.991302 100.90485
17.223835 -22.017607 101.3551
17.30777 -21.939894 101.97146
16.193369 -22.006174 116.37303
16.468594 -22.24896 116.68537
17.322336 -21.34318 100.094444
17.04888 -21.383215 100.76038
16.999659 -21.482862 101.39301
17.21687 -21.157167 102.262794
16.320627 -21.599754 116.22909
16.47442 -21.827545 125.47461
16.858616 -22.232864 126.384155
16.949764 -20.357504 100.7133
16.817808 -20.315075 101.304504
16.972519 -20.374811 102.25552
16.31305 -20.433979 116.45358
16.550365 -20.977076 123.16585
17.045261 -20.258892 124.56239
17.26612 -19.728628 100.24324
17.016874 -19.403145 100.697014
16.786802 -19.577137 101.50229
16.936539 -19.569847 102.25666
17.207218 -18.818264 106.90101
17.07785 -19.061266 107.69718
17.18135 -19.170353 108.430084
17.142832 -18.802803 109.20501
16.61496 -20.350122 116.64625
16.597046 -19.699305 117.58563
16.367235 -19.678093 120.170074
17.399313 -19.679905 123.47633
17.313269 -19.058784 100.248024
17.215693 -18.757423 100.67503
16.93617 -18.90226 101.537094
17.281153 -18.450964 102.61655
17.485294 -18.58023 103.64039
17.01351 -18.165848 106.812164
16.935097 -18.630098 107.45429
16.66019 -18.180168 108.45944
16.915337 -18.182371 109.30179
16.617714 -19.310648 119.55684
17.380287 -19.038008 123.31219
17.126583 -17.25023 104.57378
16.762712 -17.056574 106.475075
16.61859 -17.361301 107.466446
16.633417 -17.605234 108.56068
16.575893 -17.230497 109.17284
16.835922 -16.908756 110.005516
17.378042 -16.722141 104.16799
17.221449 -16.66216 104.50286
17.124151 -16.600998 105.21342
16.786566 -16.543818 106.57415
16.61705 -16.386305 107.47611
16.69369 -16.363382 110.4833
16.728441 -16.061268 112.25574
16.689522 -15.858095 112.8786
17.175436 -15.446874 106.64571
16.733559 -15.402773 107.73511
16.517202 -15.450356 108.64338
16.616003 -15.450959 113.30624
17.261593 -15.261078 114.69552
17.293116 -14.991115 115.15608
17.244905 -15.004488 107.54152
16.745468 -14.7733135 108.42263
16.61953 -14.523349 114.61601
16.713024 -14.216293 115.2563
17.062447 -13.979 116.00409
16.774025 -14.013642 108.45424
17.19608 -13.564189 116.39973
16.380373 -12.695962 117.1614
16.523024 -12.649489 118.25347
17.276037 -11.94066 100.691536
17.297537 -11.966804 101.56524
16.559425 -12.640373 108.63008
16.507128 -12.611788 112.998856
16.399769 -11.835544 120.20681
17.202852 -11.458776 100.67968
17.135962 -11.292588 101.30197
17.203644 -11.525924 101.8364
16.473532 -11.913091 108.85752
16.276035 -11.508662 109.338806
16.45621 -12.130525 111.275986
16.598417 -11.786085 113.6864
16.370869 -11.385339 120.41902
16.645908 -11.110219 120.55188
17.279448 -10.775348 100.662796
17.210714 -10.598298 101.31952
17.362722 -10.777371 101.993225
16.577057 -11.29194 109.66467
16.577723 -11.279548 110.16525
16.93526 -10.55657 113.753006
16.896437 -10.33874 114.20761
16.533855 -10.469655 120.47227
16.449125 -10.720673 120.57064
17.381248 -10.154574 101.36815
17.041988 -9.564812 114.94374
16.57776 -9.473057 115.7911
16.402956 -9.442411 118.78927
16.422083 -9.599897 119.58591
16.366934 -10.064177 120.18167
16.950127 -9.025396 115.82834
17.074715 -8.738696 116.58482
16.409363 -9.260661 117.44742
16.803673 -9.086338 118.57882
16.971325 -9.242464 119.109474
17.766687 -28.707788 119.8483
17.43683 -28.779173 120.674614
17.354698 -28.911009 121.795784
17.591015 -28.920082 122.02251
17.973307 -28.732647 123.19715
17.589949 -28.02554 118.73259
17.520782 -28.408978 119.39863
17.440775 -27.93379 124.84336
17.588667 -27.349356 118.33183
17.375355 -27.638235 118.48428
17.740187 -27.614477 126.27586
18.030455 -27.247839 126.940025
17.485079 -26.644358 118.22292
17.210749 -25.788004 118.29132
18.002682 -22.594645 100.75227
17.954063 -22.61759 101.34659
17.165276 -23.362644 118.36816
17.893158 -22.095127 100.06055
17.637325 -22.3061 100.69938
17.529232 -22.307829 101.44414
17.797112 -22.323637 101.94249
17.091282 -22.122149 116.73504
[...]
POINT_DATA 5619
SCALARS features_00 float 1
LOOKUP_TABLE default
0.5085522 0.5262474 0.5533242 0.5389819 0.5346209 0.5745884 0.5760665 0.5659188 0.55310893 0.52915275 0.5307973 0.5454324 0.5370909 0.50195456 0.44784153 0.48453063 0.40754795 0.4094122 0.45390382 0.4825543 0.50041664 0.49196506 0.4659725 0.4649039 0.5416098 0.49028584 0.48754126 0.51506084 0.50549567 0.36008668 0.4059108 0.40773785 0.42918366 0.46016023 0.4885223 0.5173553 0.5475529 0.43078843 0.2854736 0.3373604 0.35617408 0.37193477 0.42394602 0.47077245 0.6533985 0.6098916 0.50315106 0.28789908 0.62434345 0.530618 0.42875227 0.3288013 0.3702795 0.38065267 0.3501869 0.37209186 0.40324536 0.45327145 0.4853454 0.6077125 0.5081124 0.7600205 0.71350753 0.5988395 0.45816857 0.49858296 0.7820177 0.7221447 0.1999073 0.15424766 0.3163134 0.41082045 0.7711981 0.71577924 0.6500426 0.5868384 0.677086 0.61610043 0.5353402 0.6763035 0.78804773 0.6448282 0.72792315 0.8010475 0.8583658 0.617134 0.67504704 0.7842198 0.83659375 0.8476342 0.62977594 0.70505786 0.47785372 0.3330805 0.30780745 0.20597892 0.5363585 0.45245624 0.38843685 0.26524466 0.22988015 0.5286537 0.28930104 0.35842687 0.44198012 0.4193071 0.6334764 0.5290282 0.44734162 0.7420316 0.44419572 0.81617177 0.80957544 0.18401307 0.8347616 0.8380101 0.36885107 0.21655338 0.08764812 0.80701333 0.7211644 0.6110545 0.49325457 0.28349522 0.3171138 0.24080762 0.2694281 0.25123495 0.30592728 0.32520354 0.33008373 0.31255686 0.34326518 0.3038566 0.31040716 0.31815237 0.30755708 0.45246154 0.5654826 0.520136 0.42569482 0.2686311 0.28388768 0.27671403 0.51563 0.6318693 0.66489506 0.6596936 0.46748808 0.31074163 0.41634852 0.66524494 0.70620805 0.8192761 0.8249401 0.6844864 0.6965452 0.6802563 0.6175366 0.50045943 0.56841624 0.84462917 0.8372674 0.39417177 0.5563859 0.8179115 0.8368958 0.831733 0.4077976 0.4434902 0.5744889 0.6629684 0.7381258 0.82149696 0.5915139 0.40928864 0.54611284 0.51587415 0.41725636 0.30963624 0.12624422 0.15174125 0.53713465 0.5465945 0.1498283 0.16621508 0.22721553 0.5108725 0.5436576 0.27338836 0.25144395 0.35539126 0.40039983 0.5777978 0.38416368 0.6555102 0.6265844 0.57553923 0.7608262 0.69728017 0.72515285 0.69961834 0.6581248 0.5876868 0.792775 0.3145213 0.3563875 0.67105746 0.6694769 0.60714847 0.8457117 0.013692558 0.25603664 0.59182703 0.5708618 0.58470964 0.5423577 0.32621053 0.3893844 0.3947147 0.38106734 0.8319905 0.790113 0.33046883 0.3049354 0.5319994 0.5136676 0.5314059 0.40268004 0.21278095 0.34372073 0.3963244 0.4106484 0.3693813 0.40681535 0.41931707 0.21101916 0.29133466 0.3819131 0.38235694 0.32398283 0.25085488 0.14336607 0.16450958 0.21498822 0.2523228 0.25786036 0.21685876 0.3115746 0.32807076 0.15745737 0.16289693 0.20076147 0.3280955 0.29245076 0.28141627 0.117426515 0.1666167 0.29719943 0.2601411 0.24587658 0.23016483 0.23170134 0.4237082 0.4959607 0.8566787 0.77706563 0.51755667 0.18073794 0.7944745 0.8880113 0.8472215 0.7746701 0.63368976 0.67816293 0.5092628 0.19977696 0.8128066 0.80780995 0.901096 0.8524295 0.7659258 0.63787645 0.6231393 0.24031323 0.23147981 0.81739867 0.82256395 0.8325739 0.23933205 0.3143736 0.61652386 0.7372987 0.8145336 0.31689823 0.37185174 0.4632671 0.5240133 0.60215247 0.45617515 0.3900432 0.30317265 0.28664008 0.14151512 0.5198154 0.51494044 0.10635787 0.49594462 0.52058715 0.14188102 0.19910696 0.46699524 0.40962064 0.6203198 0.59106493 0.32488075 0.6811378 0.6426443 0.601597 0.5547312 0.64759946 0.33028597 0.719711 0.5237878 0.42688638 0.75602126 0.72759706 0.272079 0.6333109 0.6429297 0.38192695 0.20264441 0.33429807 0.34284386 0.33953917 0.75191426 0.55105954 0.010255471 0.15087573 0.26384568 0.3577075 0.37995344 0.37407944 0.49400765 0.48300457 0.47704095 0.49715298 0.20309475 0.12675394 0.13940305 0.34812307 0.27565655 0.47615778 0.41929078 0.5197118 0.54881895 0.5636408 0.4211123 0.44241682 0.3824965 0.24357085 0.5167156 0.58143353 0.27702987 0.27898434 0.121645555 0.2926519 0.28257543 0.0694583 0.05341318 0.0732477 0.109674074 0.21306765 0.79293704 0.6971998 0.63032687 0.058469024 0.24469389 0.3496919 0.85841715 0.8139605 0.71212006 0.5577903 0.6726161 0.89750534 0.5552286 0.21401094 0.7761247 0.91541976 0.9057826 0.7102543 0.57196856 0.34449494 0.4438551 0.09755143 0.78290915 0.85675454 0.7983191 0.7277248 0.76131034 0.28578556 0.34117892 0.42797768 0.36027908 0.38306043 0.37509224 0.26400295 0.3229943 0.28870368 0.13302329 0.014663018 0.029943429 0.24423921 0.4852205 0.4649671 0.049307253 0.2735511 0.3568204 0.47007877 0.47169942 0.38189825 0.44704127 0.41806278 0.34389275 0.4090776 0.48340243 0.28027546 0.48210067 -0.113541484 0.60059106 0.5708137 0.50051486 0.6427059 0.4858976 0.3930152 0.2644621 0.37788287 0.63674337 0.37073418 0.5501931 0.3790553 0.591763 -0.10554877 0.11729248 0.26452717 0.31569594 0.3313841 0.3095663 0.28869873 0.5016414 0.3869257 0.4576755 0.5015919 0.10656172 0.3088798 0.27803892 0.47223824 0.17270993 0.54953444 0.5403206 0.2147269 0.5955912 0.6154767 0.28467184 0.3028808 0.62333304 0.6152104 0.651255 0.6334542 0.22865646 0.14270347 -0.046406947 0.18198784 0.27524927 0.6978868 0.19417173 0.022121929 0.19690748 0.7149823 -0.07698913 -0.057883687 0.2444873 0.8292233 0.25190827 9.6321106e-05 0.5979365 0.8552979 0.48253638 0.06455581 0.10800268 0.87937057 0.33655363 0.19137318 0.23680755 0.15037797 0.038378112 0.7483556 0.85870004 0.8266033 0.77617407 0.61565655 0.52837384 0.39928442 0.71165633 0.72645104 0.65415406 0.5728508 0.22336724 0.3210312 0.3760934 0.31656864 0.33856672 0.36266673 0.31842828 0.32992825 0.34369794 0.25696546 0.237685 0.0078666285 0.27900535 0.27518606 0.047313176 0.448702 0.32965595 0.4512061 0.3088665 0.6049561 -0.0022620335 0.5061854 0.5379226 0.40596503 0.46686596 0.034925014 0.55346584 0.21480486 0.217708 0.2354609 0.26538512 0.48280382 0.1679565 0.2901656 0.25195816 0.29441184 0.53736705 0.24165228 0.21243866 0.14883609 0.25499994 0.60804224 0.58653355 0.14718878 0.32818925 0.63432276 0.20404398 -0.052534714 -0.1913417 0.72711337 0.72558117 0.6752509 0.21301429 0.7317933 -0.009375185 0.2447868 0.43854916 0.19050781 0.6348407 0.03980215 0.7181511 0.17696863 0.7518691 0.21832141 0.16829263 -0.04538192 -0.07576595 0.75494397 0.6786628 0.27538747 0.2989903 -0.006464366 0.6985431 0.64515865 0.5709361 0.45967427 0.22427145 0.2730044 0.29627764 0.27947205 0.3116027 0.055387966 0.22558525 0.047383934 0.04579846 0.482974 0.61682403 0.63579214 0.039884537 0.69034195 0.6679963 0.21793753 0.53878164 0.66079855 0.65069544 0.21676193 0.080832675 0.22270672 0.13684596 0.073922016 0.2481474 0.30677947 0.33264056 0.19393238 0.39484265 0.42478725 0.05792957 0.19706252 0.21552926 0.23372862 0.2433366 0.18910187 0.0921994 0.3868384 0.2136252 0.0034828037 0.48377392 0.06434472 0.591035 0.59563017 0.00062156096 0.18689714 0.2968468 0.51315415 0.6420503 -0.18329458 0.455654 0.63870823 0.74274987 0.74732256 0.7268708 -0.07058047 0.1154466 -0.10922822 0.3056417 0.31572872 0.23084465 0.25599906 0.1586438 0.055722695 0.49476933 0.2645595 0.6215872 0.60798997 0.29979706 0.32375038 0.31214166 0.2807608 0.10436675 0.13213938 0.5648105 0.6018097 0.632635 0.6085558 0.3114316 0.3519799 0.21141867 0.6108148 0.23089749 0.23678288 0.2427591 0.69309235 0.7853509 0.2367099 0.23625302 0.4570095 0.7500628 0.78182024 0.42524743 0.43753716 0.43333367 0.19616964 0.3222425 0.41074753 0.42833018 0.43731326 0.027912423 0.22894725 0.4066468 0.40401754 0.35724065 0.04987634 0.103942595 0.56868863 0.24463782 0.6554162 2.66321e-05 0.74178743 0.6408893 0.570517 0.1925022 0.12380856 0.72662723 0.6485788 0.6651118 0.6575279 0.58915824 0.47619826 0.4133027 0.27032387 0.5235619 0.65904224 0.64770496 0.67024934 0.63464797 0.5729592 0.45078766 0.013964105 0.4400069 0.47219926 0.2553261 0.47573987 0.6240553 0.6254967 0.6332694 0.53707045 0.12504812 0.103326574 0.22742179 0.3552566 0.4316109 -0.309259 0.0645055 0.1778156 0.2004013 0.22824875 0.09468226 -0.025400802 0.2651963 0.30167437 0.23257753 0.23707877 0.23100704 0.15608345 0.32400072 0.3373735 0.096242055 0.07251498 0.3309057 0.33707392 0.007922407 0.26195976 0.3213329 0.007359177 0.018015206 0.42907703 0.47898763 -0.041570418 0.29653886 0.20295574 0.5644865 0.5577849 -0.16945511 0.15710935 0.27387467 0.64902365 0.6605971 0.65157163 0.009818047 -0.2046212 -0.2010481 0.69514585 0.7163399 0.084305465 -0.13460316 0.22742212 0.2521242 0.18383598 0.13178039 0.2407602 0.04001176 0.31201974 0.34882432 0.5349858 0.45472968 0.39663994 0.2679908 0.12317118 -0.093827054 0.5869035 0.4978215 0.50375617 0.46302742 0.4721843 0.45292503 0.6419062 0.28668407 0.30367023 0.74145496 0.28527585 0.3161701 0.43655246 0.5975976 0.76518756 0.789109 0.76409364 0.63540953 0.7566253 0.30763087 0.40220094 0.42882767 0.4258244 0.090928555 0.20102116 0.4359145 0.46106064 -0.009956829 0.06366537 0.4629259 0.3936113 0.12962694 0.42208844 0.47235888 0.42137492 0.42653757 0.35555536 0.5332615 0.292626 0.6962113 0.109961055 0.72311926 0.592821 0.6236471 0.611833 0.5523546 0.48219508 0.7566952 0.59773576 0.6106576 0.6191567 0.37464058 0.584345 0.5309495 0.57284486 0.27017027 -0.028992185 0.61003506 0.6946913 0.7272804 0.60134405 0.6150858 0.1937462 -0.07383184 0.42657995 0.51616466 0.51674104 -0.3840988 -0.31053147 0.30136073 0.5592621 0.39204758 0.12393173 0.22330613 0.24020484 0.39039087 0.42232335 0.41913113 0.18694973 0.08742351 0.1830816 0.3459843 -0.09268968 0.032482505 -0.011508465 0.46044528 3.1851232e-05 -0.07177532 0.056582913 0.09020108 0.49053228 0.58588254 0.1036239 0.6227248 0.1820438 -0.03408815 0.24594593 0.2795347 0.19702949 0.23456025 0.1973258 0.14969681 -0.0870529 0.043486953 0.13135368 0.11805375 0.09778258 -0.0694453 0.1333538 0.2728009 0.23585504 0.5110928 0.54189324 0.30914977 0.2653974 0.39994067 0.18155807 0.5757835 0.46741468 0.48340005 0.4856515 0.44930178 0.38543943 0.11843198 0.2653075 0.6365026 0.32270238 0.33788186 0.73700166 0.7167747 0.3218087 0.5526345 0.6520935 0.7505457 0.777043 0.751654 0.6751119 0.7454264 0.28020692 0.3993536 0.38213694 0.13747345 0.19743189 0.3986956 0.41440248 0.4256993 0.05685574 0.1388277 0.4679501 0.50870425 0.036326066 0.55738455 0.46504763 0.3046824 0.12877953 0.5961414 0.46695173 0.44284904 0.45579678 0.46955347 0.44511795 0.35589975 0.6176258 0.0931533 0.63025904 0.67096114 0.55808043 0.52621675 0.51895845 0.49079418 0.60728854 0.6414608 0.5988308 -0.07894692 0.10257028 0.6329638 0.6823089 0.5773717 0.5634495 0.37042612 0.46389574 0.5857676 0.49184594 -0.25367188 -0.010290824 0.13543193 0.41146946 0.5587741 0.5921557 0.17506489 0.46218938 0.36281633 0.5303258 0.4635958 0.2550985 0.38538405 0.036890656 -0.22140309 0.28493458 0.1279019 0.108380586 0.2940542 0.33734593 0.39488506 -0.06383982 -0.15765202 0.010969538 0.10992932 0.3553654 0.04610174 0.049201224 0.23360322 0.127736 -0.006286651 0.07437656 0.2913009 0.11809885 0.057947535 0.039504826 0.14045419 0.033036068 0.2421674 0.13648531 0.31170377 0.13386433 0.17542547 -0.22514823 0.10755028 -0.0032776892 0.41151989 0.4426067 0.47139183 0.54589534 0.39425743 0.3356852 0.31999397 0.18009369 0.013791261 0.52590144 0.57311004 0.4067945 0.4343197 0.46900412 0.39796427 0.13682967 0.22470105 0.5481827 0.60693765 0.6600106 0.30194765 0.30379602 0.38702884 0.51137644 0.5973215 0.68971586 0.69617987 0.68332183 0.3368694 0.53145754 0.6459068 0.722635 0.7525625 0.6503 0.63926804 0.63662267 0.62032115 0.59887266 0.66762626 0.67274755 0.6669417 0.6309678 0.60827553 0.6751344 0.67987454 0.6769031 0.63031304 0.61094964 0.18992771 0.30389932 0.3603418 0.19109604 0.18381056 0.38234308 0.46135807 0.4795536 0.5131631 0.21094376 0.6270448 0.47232187 0.45450026 0.34993795 0.6705619 0.46724594 0.47565427 0.65217793 0.44925737 0.507333 0.33620587 0.21765423 0.40279758 -0.031718638 0.07421372 0.22422236 0.3484416 0.46823955 0.583868 0.4804876 0.44110608 0.34256473 0.3891158 0.3398103 0.23297653 0.47611237 0.55601823 0.62173057 0.5566946 0.0376072 0.036580212 -0.008435495 0.24932355 0.4042269 0.5127717 0.5344541 0.52519923 0.43461427 0.54392064 0.43437243 0.0142520815 0.5526257 0.41034648 0.31897476 0.11971195 0.06599418 0.007900275 0.51517063 0.25582737 0.2646539 0.16669083 0.12745008 0.007761894 -0.009251526 0.34131044 0.09875722 0.2446023 0.33271813 0.27946806 0.2007805 0.15483597 0.15974465 0.048110627 0.5592686 0.22705673 0.17108616 0.02370897 0.54005915 0.2442912 0.21679476 -0.0929905 0.15832005 0.06411078 0.05894196 0.07660577 0.23946512 0.2514919 0.12308609 0.28940555 0.14155948 0.12623169 0.22724679 0.1956726 -0.0315905 0.19322017 0.5499431 0.41898388 0.11640085 -0.13930286 0.09934527 0.018935958 0.59568894 0.6050352 0.54002535 0.5181727 -0.045340016 -0.03235818 0.33669028 0.37984377 0.6218369 0.60237706 0.57052445 0.5119748 0.025225885 0.1422925 0.15251371 0.3903434 0.45009017 0.51612496 0.57545596 0.53972304 0.34056196 0.6412271 0.58892936 0.6014602 0.5179858 0.58062327 0.52718234 0.6354369 0.63224196 0.6178195 0.5862615 0.577206 0.5638487 0.65093553 0.66446793 0.59461415 0.5703883 0.63861114 0.65010977 0.6064579 0.5862646 0.567677 0.5462086 0.6314478 0.64575523 0.5951748 0.53587407 0.2593364 0.38118935 0.33453456 0.24593207 0.4012889 0.27030337 0.44331053 0.49559054 0.14559655 0.524417 0.58413625 0.7079729 0.88585794 0.4442979 0.33769345 0.72400904 0.743262 0.8712548 0.90017915 0.47072664 0.3119681 0.67124736 0.66064155 0.85551775 0.89564145 0.4631584 0.047830462 0.57148075 0.82090354 0.88350743 0.26667422 0.24409154 0.43991923 0.4059803 0.31866336 0.29002678 0.24039388 0.12889579 -0.077398114 -0.4769162 0.45474035 0.5105031 0.49242008 0.031679496 0.11999068 -0.01636639 0.4306894 -0.016715467 0.4163003 0.07847963 0.11489494 0.46586567 0.051049575 0.3776918 0.3538146 0.12696603 0.12584955 0.282003 0.3006336 0.22451529 0.18481815 0.11650883 0.16591598 0.22154862 0.38948977 0.5134786 -0.0006189812 -0.055374183 0.08735694 0.15823959 0.54969835 0.2222316 0.16303349 -0.048547342 0.06733329 0.6385672 0.2867136 0.2459054 -0.10796681 -0.075132325 0.15038721 0.22096585 0.45529062 0.54781055 0.6132649 0.31252933 0.28901976 0.23778504 -0.06157404 0.08758037 0.026755735 0.17335387 0.090600446 0.12193784 -0.31958127 -0.053729646 -0.1227463 -0.1767136 0.36764842 0.28205895 -0.15006676 -0.07944201 -0.02515217 0.4893132 -0.07466689 -0.12954642 0.18716554 0.38067055 0.5431999 0.565629 0.30815163 -0.07686539 -0.09458354 0.07723415 0.028631516 0.20590706 0.5867717 0.6158929 0.42206985 0.3525968 0.25184724 0.6086516 0.4910548 0.42272764 0.5428057 0.4112223 0.4657165 0.5108454 0.52389055 0.5020826 0.5054196 0.5282405 0.45296705 0.6126864 0.45283931 0.60525656 0.52712846 0.5874975 0.54182005 0.5853993 0.3433329 0.51181215 0.3142879 0.2926743 0.30274707 0.32125792 0.45495087 0.28540877 0.5313652 0.6367968 0.65760684 0.71229035 0.6611726 0.8410738 0.9021654 0.90132236 0.88528204 0.30111697 0.72635305 0.623649 0.6745374 0.9058939 0.88668925 0.47621185 0.42956048 0.2366138 0.5192692 0.6659211 0.47936523 0.5263838 0.89075613 0.5110564 0.12918942 0.44043627 0.8703635 0.5328571 0.52497 0.1205474 0.2442574 0.10297694 0.2648742 0.3176424 0.2363312 0.20184554 -0.2703129 0.29847306 0.41917673 0.12425318 0.39884248 0.40548497 0.36688602 0.18670548 0.19377343 0.13297893 0.3780927 -0.05151391 0.34919894 0.13935281 0.11982222 0.13771555 0.1884724 0.18865156 0.18808466 0.23673038 0.35897332 0.17397495 0.14714743 0.2924848 0.41069937 -0.07602064 0.28015345 0.17708768 0.2149584 0.53081244 0.13592508 0.31041527 0.65302587 0.58901834 0.16414335 0.14990644 0.052595783 0.6589582 0.6427568 0.29579923 0.29463217 0.07157255 0.113990486 0.2665707 0.3856113 0.5832008 0.6390631 0.30976817 0.07538364 0.30086708 0.2825799 -0.3857491 0.20687424 0.063344866 -0.08031016 -0.042115487 -0.12971509 -0.17529598 -0.19175689 -0.201924 -0.17031445 0.069663666 0.004189849 0.06922975 -0.16243856 -0.1835753 -0.2244247 -0.23861796 -0.27174327 0.162597 0.137222 -0.074832216 0.008003751 -0.0025477614 0.013590593 0.4279118 0.45213208 0.2263861 0.054159828 0.4538466 0.38937932 0.3200765 -0.20115173 0.4958556 0.48695174 0.25769255 0.31051686 0.5042725 0.5606214 0.08775993 0.13180543 0.20768125 0.34912762 0.36804134 0.39301968 0.40192512 0.5130758 0.58272696 0.20285228 0.2304164 0.5292194 0.42086187 0.1949704 0.25239074 0.25010216 0.25625384 0.19400361 0.26816595 0.27240843 0.5105995 0.4059393 0.50223243 0.5106698 0.47235078 0.270414 0.3721965 0.48701063 0.26822156 0.51153046 0.30388427 0.43445203 0.43705684 0.43092787 0.39930898 0.0502003 0.18774062 0.17743129 0.24482155 0.14604373 0.24267384 0.16178244 0.06880884 0.2807913 0.28010362 0.24567057 0.52816534 0.5552345 0.09365189 0.53275204 0.62163925 0.9399061 0.13657722 0.5594986 0.62771964 0.6936109 0.8471401 0.87701786 0.83194995 0.31027585 0.21750131 0.40837413 0.56489706 0.650218 0.7011865 0.45653373 0.4976324 0.8456464 0.5110441 0.46856678 0.42135528 0.27736545 0.14876989 0.12762015 0.40531301 0.8367342 0.5657264 0.18824397 0.1456198 0.3756985 0.77012265 0.6162256 0.18634109 0.16828299 0.15059835 -0.16742845 0.4896792 0.6765199 0.387037 0.29642725 0.19545358 0.18079272 0.16410142 0.6946682 0.615499 0.1273487 0.030809522 0.29250073 0.33331388 0.37433818 0.30504704 0.34338486 0.1349404 0.15480572 0.15278092 0.22663367 0.3835026 0.38934788 0.16320291 0.14900275 0.31791005 0.38532394 -0.08159487 0.387762 0.3673866 0.14593045 0.4805765 0.51952016 0.32282954 0.017737359 0.6567101 0.2100529 0.27927315 0.6552423 0.67645514 0.29302657 0.17156205 0.283432 0.5031818 0.60842204 0.29798543 0.30574656 0.112897694 0.2889754 0.22823682 -0.019241631 0.062430006 -0.12664078 0.12746195 -0.43354753 -0.27437213 0.18877278 -0.10835339 0.10960509 -0.08683256 -0.029170536 0.17111108 -0.030418247 -0.22148389 0.21670824 0.14578718 0.15290362 0.050905548 0.29488653 0.39875722 0.4631989 0.15206888 -0.03993638 0.50549835 0.5231559 0.6198362 0.3209704 -0.0795971 0.15103582 0.38510665 0.71812034 0.36628544 0.103757486 0.39247262 0.4362027 0.39129257 0.6068336 0.77126825 0.7987766 0.4127934 0.2126657 0.31253374 0.29909128 0.43839306 0.5166134 0.49857965 0.4387815 0.25850028 0.27089435 0.31813693 0.35631207 0.45920336 0.43352807 0.3905684 0.29975086 0.28120056 0.254479 0.4788919 0.38293108 0.4466738 0.42663443 0.19427198 0.38723975 0.20073889 0.40473726 0.14734356 0.23204973 0.118680306 0.28510517 0.14232287 0.037340134 0.21444517 0.10558471 0.1963741 0.19742586 0.21839814 0.32518852 0.2915301 0.270639 0.48804915 0.320456 0.44792134 0.5418775 0.24269761 0.44952852 0.504249 0.8864218 0.8126228 0.8096964 0.080194555 0.107624345 0.7520869 0.14865766 0.6689266 0.60732615 0.57625467 0.66041183 0.5406876 0.13884881 0.5312892 0.7197324 0.6879057 0.50762254 0.36605835 0.2897409 -0.2739765 0.17016841 0.6800196 0.601994 0.5063344 0.31353977 0.31661975 0.2839897 -0.0783588 -0.055023387 -0.28011033 -0.09269674 0.5768987 0.37290633 0.37022263 0.29538277 0.2755546 0.052875716 0.46707883 0.43751007 0.4269007 0.27924815 0.14419082 0.31950608 0.16165276 0.15218979 0.2827891 0.48115528 0.4872018 0.48220852 0.013238519 0.2926363 0.38451576 0.13705516 0.16386487 0.30754262 0.14051436 0.45926327 0.45674786 0.43386847 0.36642468 -0.005635932 0.37266654 0.4167803 0.12144992 0.39427167 0.5522264 0.051275518 0.33384025 0.4066712 0.6431311 0.66421425 0.20427619 0.3111534 0.09627562 -0.030239109 0.117125876 0.12159541 0.6669666 0.6845908 0.2641984 0.15156887 0.2045212 0.16761519 0.21991436 0.2689271 0.017823286 0.08565552 0.1692568 0.18464184 0.21674421 -0.059074253 0.028413566 0.17690232 0.004270911 -0.49367857 -0.25384942 0.21024878 -0.5406916 -0.38309836 0.18168674 0.13157275 0.11241324 0.097316876 -0.25432202 -0.2368012 -0.130448 0.15465803 0.12296904 0.14415823 0.27511698 0.35642013 0.45499706 0.09827763 0.31327546 0.39227897 0.4800771 0.6189858 0.58535886 0.19799045 -0.18296503 0.70418036 0.7260177 0.012400061 0.74710643 0.82691884 0.2982126 0.27542314 0.6421871 0.48392516 0.5509952 0.80638945 0.845492 0.84427035 0.38981566 0.57763785 0.7035573 0.16099586 0.5108293 0.44834298 0.42234915 0.48770344 0.51370144 0.57914585 0.52792054 0.29561716 0.4599239 0.62585306 0.65760684 0.39783034