# vtk DataFile Version 2.0
Really cool data
ASCII
DATASET POLYDATA
POINTS 6294 float
-40.82032 -3.0537224 -17.006662
-41.088593 -3.2019842 -16.317657
-41.198574 -3.1704228 -15.473939
-41.010067 -3.0692399 -14.837701
-40.851345 -2.5062776 -17.074598
-41.25285 -2.5121536 -16.269995
-41.327625 -2.5498943 -15.511131
-41.154232 -2.6230257 -14.875481
-40.807465 -1.9509311 -16.978935
-40.951485 -1.637954 -16.376663
-41.07694 -1.715934 -15.50683
-40.960392 -1.9650836 -14.894154
-40.706146 -1.1283956 -15.699459
-40.17226 -3.8242607 -16.86526
-40.492435 -3.7841198 -16.68578
-40.191372 -4.189539 -15.419935
-39.991646 -3.9041862 -14.427645
-40.011295 -2.9996717 -17.648954
-40.283455 -3.1503644 -17.390463
-40.57704 -3.267882 -14.550646
-40.20097 -3.3931017 -14.316105
-40.000263 -2.4916031 -17.647472
-40.501675 -2.6425967 -17.41488
-40.64973 -2.3449788 -14.433156
-40.175934 -2.6223571 -14.177005
-40.11541 -2.153675 -17.570717
-40.406345 -1.7505748 -17.158463
-40.397137 -1.6124136 -14.6778145
-40.42769 -2.1230645 -14.313829
-40.451744 -1.2976487 -16.80394
-40.229897 -0.93811107 -16.284853
-40.149067 -0.8287244 -15.752145
-40.154663 -1.0945432 -15.054074
-39.614517 -4.6658125 -15.888911
-39.488274 -4.762224 -14.942694
-39.206364 -4.3783417 -16.88831
-39.02593 -4.5562196 -14.402816
-39.440468 -3.2742295 -17.656033
-39.702915 -3.429662 -14.049549
-39.6086 -2.6566374 -17.757835
-39.293056 -1.6216203 -17.450161
-39.878433 -1.5175308 -14.554223
-39.50288 -1.1687827 -17.003326
-39.546803 -0.75132644 -16.290308
-39.500797 -0.70690954 -15.629032
-39.65039 -0.8860851 -15.035528
-37.77417 -5.93568 -17.015072
-38.54066 -5.2654257 -16.4306
-38.30892 -5.474151 -15.032317
-38.165302 -4.374224 -14.060325
-38.280914 -3.6827912 -17.93777
-38.16355 -3.6883798 -13.6872635
-38.269165 -2.6714106 -17.945646
-38.30429 -2.4127922 -13.697819
-37.93454 -2.1920457 -17.924519
-38.742233 -1.4170096 -17.302935
-38.915173 -1.394161 -14.557249
-38.946934 -1.6175705 -14.324558
-38.63808 -1.3480442 -17.241013
-38.380707 -0.89563334 -16.57562
-38.710415 -0.8648227 -15.385061
-36.669994 -8.134386 -17.036264
-36.84426 -8.094233 -16.273565
-36.861256 -8.112647 -15.873348
-36.701862 -8.058846 -14.822124
-36.87965 -7.601647 -17.128845
-37.135685 -7.3308716 -16.592623
-36.882202 -7.644743 -15.041678
-36.72105 -6.799542 -17.742212
-37.350254 -6.4772263 -17.028513
-37.569946 -6.293425 -16.442226
-36.877403 -6.242353 -14.460249
-37.009422 -5.6846614 -17.887806
-37.464985 -5.7870364 -17.551805
-37.453182 -4.3353305 -17.852678
-37.26832 -3.4776707 -18.231503
-37.62962 -2.7644193 -18.145288
-37.365906 -2.0321937 -17.833214
-37.560593 -1.4734297 -17.369911
-37.94306 -2.2208126 -13.725792
-37.43114 -0.8536405 -16.271118
-37.287086 -1.3112851 -15.007448
-35.962334 -8.7347765 -17.023045
-35.96203 -8.887728 -16.49775
-36.19903 -8.827366 -15.574343
-36.033886 -8.828131 -14.825583
-35.938892 -8.092341 -17.822954
-36.278885 -8.232334 -17.382431
-36.49838 -8.608834 -15.578298
-36.399006 -8.422701 -14.77057
-35.977875 -8.207359 -14.211857
-36.258472 -7.3887157 -17.928099
-36.49099 -7.6330605 -17.61718
-36.191933 -7.688214 -14.087038
-36.156216 -6.2755246 -18.080948
-36.804585 -3.509086 -13.87205
-36.59094 -1.9237667 -17.545156
-36.910133 -2.1265378 -14.3188
-36.74263 -1.0817941 -16.47082
-36.453766 -1.2653612 -15.490956
-35.48611 -8.724359 -17.262026
-35.59479 -8.947823 -16.614914
-35.512596 -9.1074295 -15.450937
-35.435013 -8.932341 -14.679603
-35.62394 -8.742487 -14.357633
-35.646946 -8.274877 -17.810146
-35.363937 -8.275936 -14.093144
-35.592846 -7.8462596 -18.029213
-35.41751 -7.7383337 -13.93473
-35.510223 -6.346668 -13.763885
-35.676346 -4.571128 -18.093044
-35.446507 -3.4192379 -17.925165
-35.74159 -3.2266145 -13.957019
-34.52732 -0.20114592 -10.308034
-34.54416 0.6084613 -10.218748
-34.565983 0.43106723 -10.061817
-34.54758 0.9257635 -10.663265
-35.06097 -8.62709 -17.457764
-34.491264 -8.746036 -16.282537
-34.804226 -8.978697 -15.676241
-34.99365 -8.932004 -14.785048
-34.829155 -8.484882 -17.543726
-34.49997 -8.471875 -14.547938
-34.56049 -8.19161 -14.261487
-34.58183 -7.3044724 -13.949329
-34.077034 -6.1635203 -13.71174
-34.29067 -5.5128975 -18.291416
-34.049385 -5.125662 -13.7738695
-34.25721 -3.7392714 -14.478163
-34.37534 -2.3072064 -16.774467
-33.755653 -1.2077436 -11.374977
-34.091427 -0.92304444 -10.623641
-34.019226 -0.7878914 -9.7588625
-33.694347 -0.26533735 -12.25016
-34.21235 -0.33781043 -9.610368
-34.010345 -0.17773598 -9.267241
-33.89757 0.082835644 -12.241287
-34.259037 0.67985654 -9.593826
-33.969795 0.3508525 -9.232787
-34.057266 1.454565 -11.391293
-34.30233 1.3382652 -10.500874
-34.054695 1.2219218 -9.755671
-33.919106 1.7537689 -11.023022
-33.87934 1.798176 -10.523024
-34.251484 -8.14191 -17.231129
-33.97642 -8.306628 -15.515079
-34.17566 -8.248053 -14.852664
-33.5918 -6.913336 -13.973797
-33.17523 -6.4645586 -13.8609
-33.13637 -5.843792 -18.471016
-33.69107 -5.692369 -13.786515
-33.900425 -4.3488927 -18.194971
-32.997303 -5.07569 -13.717381
-32.893875 -1.9896882 -12.539084
-33.24213 -1.8925998 -14.123368
-32.896492 -1.4476216 -10.373804
-33.083767 -1.3146737 -10.057969
-32.93402 -1.1165018 -14.653247
-33.427948 -0.18180446 -9.07683
-33.04518 0.70775956 -13.042516
-33.45234 0.3775939 -8.969821
-33.571075 1.294856 -12.102889
-33.504505 1.5290494 -9.512983
-33.33643 1.1544803 -9.1353035
-33.198532 1.7359741 -12.0054245
-33.373055 1.9350151 -11.407148
-33.49529 1.9916049 -10.461509
-33.3892 1.7655302 -9.823874
-32.49567 -7.263852 -17.162884
-32.29902 -7.3913097 -15.298045
-32.428837 -6.793439 -14.072882
-31.749866 -5.9530487 -19.137083
-32.571617 -6.624553 -18.252903
-32.594364 -6.3362546 -13.789799
-32.66861 -5.800194 -13.632107
-32.114803 -3.7922955 -13.98642
-32.6131 -2.8246424 -17.426304
-32.316357 -1.8734688 -10.567655
-32.246258 -1.2205029 -9.645114
-32.577545 -0.75219196 -9.281596
-32.208347 -1.1707987 -16.628872
-32.287888 -0.2692529 -15.547911
-32.59097 -0.20079003 -9.065445
-32.555126 0.6348927 -13.666207
-32.51482 0.6394106 -8.908808
-32.196926 0.84911895 -13.909113
-31.911402 1.46643 -13.607839
-32.667023 1.6540365 -12.563598
-32.642952 1.5791032 -9.361581
-32.66225 1.2070549 -9.063926
-32.26799 1.8434954 -13.031089
-32.038227 2.152048 -12.431367
-32.76822 2.110207 -10.602038
-32.681606 1.8851445 -9.779718
-31.24184 -7.825767 -18.202763
-31.18534 -7.1930876 -19.053083
-31.30383 -6.717325 -14.502083
-31.11546 -6.5407014 -19.367807
-31.759243 -6.3584113 -14.0462055
-30.814867 -5.394908 -20.0978
-31.16509 -5.5580406 -19.505445
-30.736603 -3.1064506 -23.935566
-30.762623 -3.9138927 -19.865932
-31.445805 -2.8873549 -13.069363
-30.784946 -2.4479413 -24.135246
-31.140442 -2.4947922 -23.276178
-31.089584 -2.5299113 -22.55402
-30.93939 -2.7037828 -22.219221
-31.3176 -1.8344649 -10.47275
-31.688147 -1.6779741 -10.069324
-30.774958 -1.933873 -24.053263
-31.004488 -1.7946078 -23.47767
-31.18235 -1.93678 -22.813059
-31.547539 -1.303369 -9.822544
-30.686811 -0.9041934 -22.718739
-31.230146 -0.8056481 -16.716646
-31.526386 -0.82505476 -9.610696
-31.996025 -0.026746206 -9.144042
-31.76053 0.52024156 -15.347282
-31.94558 0.4712487 -9.093125
-31.222086 1.6050814 -10.437424
-31.646637 1.4732862 -9.701282
-31.973124 1.1304526 -9.198617
-31.449972 2.052115 -13.045847
-31.36228 2.2601693 -12.348867
-31.668905 2.2360978 -11.682653
-31.65918 1.8527784 -10.232974
-30.07234 -7.781333 -19.234966
-30.36743 -8.087693 -17.650515
-30.29981 -7.945289 -16.527206
-30.733501 -7.6715255 -15.896782
-30.123045 -7.0763974 -19.72822
-30.51854 -7.4430184 -19.0163
-30.46665 -7.478021 -15.633335
-30.646646 -7.090067 -15.172055
-30.307346 -6.5176578 -19.853853
-30.743376 -6.5500717 -14.745441
-29.995014 -5.221671 -20.593536
-30.576086 -4.416185 -14.171384
-30.15455 -2.8863983 -24.69771
-30.276932 -3.2635558 -24.312988
-30.618723 -3.3689637 -23.365002
-30.561922 -3.025337 -22.091326
-30.4452 -3.732656 -20.100014
-30.225878 -2.5828857 -24.730785
-30.435648 -2.5798523 -24.518543
-30.592033 -2.5996325 -19.202766
-30.37021 -1.8132421 -24.395964
-30.18651 -1.5654333 -19.560413
-30.36628 -2.082274 -18.814684
-30.721481 -1.1052204 -10.153013
-30.4441 -1.129025 -23.77487
-30.645496 -1.1148725 -23.46378
-30.505064 -0.6390363 -22.695364
-30.39493 -1.0265467 -18.483364
-30.713724 -0.568216 -9.981751
-29.72255 0.031683534 -23.131353
-30.298626 -0.2447713 -22.222454
-30.135279 0.3425951 -21.283497
-30.148743 0.14002506 -20.637636
-30.07518 0.13756984 -19.911476
-29.724573 0.36585754 -18.470312
-30.869896 0.37140584 -9.813657
-29.734474 1.42034 -20.44962
-30.342125 1.6021106 -10.543396
-30.668188 1.3867376 -10.254339
-30.704248 2.0120077 -13.301926
-30.988102 2.2671103 -12.091607
-30.44884 2.1019213 -11.629623
-30.263533 1.7241384 -10.72653
-29.64013 3.9149523 -20.980219
-29.53333 3.4133992 -20.686117
-29.539476 3.9897048 -19.329542
-29.536692 4.1937976 -21.05571
-29.61602 4.2438536 -20.092455
-29.568092 4.5256143 -19.308926
-29.637896 4.3033524 -18.430565
-29.650784 4.8671055 -18.052294
-29.587774 5.2541447 -18.459469
-29.543879 5.2859883 -17.97336
-29.22233 -7.847073 -19.73331
-29.11749 -8.228642 -19.29327
-29.378593 -8.359156 -18.540411
-29.103952 -8.444976 -17.812529
-29.226673 -8.089206 -16.768435
-29.395672 -7.3262234 -19.977327
-29.671677 -7.2370377 -15.705218
-29.51946 -6.450393 -15.443274
-29.663933 -6.299331 -15.209089
-29.394236 -5.2426233 -20.548777
-29.807743 -5.531602 -20.526405
-29.394238 -5.423894 -15.011723
-29.521574 -3.6022651 -24.346754
-29.588322 -3.7637973 -23.818861
-29.946863 -3.7374368 -13.715738
-29.698507 -2.4211252 -24.968674
-29.487967 -2.522642 -12.89181
-29.689898 -1.7878734 -11.772388
-29.512722 -1.8103613 -24.888794
-29.844088 -1.0859699 -10.918844
-28.852098 -1.1042638 -24.864235
-29.53771 -0.6067602 -24.108334
-29.5079 -0.16318819 -10.839014
-29.323156 0.49572667 -22.931128
-29.70382 0.5271932 -10.655087
-29.173239 1.0748916 -22.09918
-29.470499 1.2807697 -20.834204
-29.811285 1.3258594 -14.228528
-29.333818 1.4392143 -13.564059
-29.4841 1.3685081 -11.617665
[...]
POINT_DATA 6294
SCALARS features_00 float 1
LOOKUP_TABLE default
0.7552016 0.89673525 0.91436636 0.7955445 0.7839621 0.96076167 0.96416545 0.8391663 0.82681316 0.9573438 0.96024466 0.8654994 0.9325546 0.6618761 0.7195323 0.73982865 0.68518007 0.6582927 0.68525016 0.7483791 0.71743333 0.67688465 0.73178136 0.8079362 0.7483049 0.7030407 0.7859744 0.8337192 0.79930425 0.86328495 0.8977078 0.8837403 0.8404906 0.62499076 0.6072196 0.52170783 0.5898345 0.58687425 0.6547015 0.6247376 0.6574592 0.7872476 0.75893986 0.8287308 0.8161998 0.8012433 0.27379984 0.37583715 0.46996945 0.53651977 0.44398642 0.63025993 0.5042444 0.62392825 0.5042304 0.61457974 0.6912505 0.69055176 0.6101663 0.6703869 0.73213154 0.58262825 0.6342711 0.6814374 0.73460233 0.48764676 0.45635647 0.66936094 0.38446283 0.33001 0.2931915 0.45044625 0.2903638 0.28776187 0.35306215 0.42391706 0.4631034 0.4797489 0.5300666 0.5686575 0.6478454 0.6169317 0.6878296 0.75045186 0.8064458 0.8112204 0.5987259 0.6063279 0.77503514 0.7799662 0.7592821 0.47202232 0.50760996 0.6947918 0.33807576 0.47500587 0.4778779 0.51034236 0.60813606 0.60787475 0.695446 0.7616602 0.8598523 0.81905264 0.7970086 0.63303167 0.734535 0.5668038 0.64297336 0.3955902 0.27525547 0.30254558 0.34403566 0.84110683 0.83310956 0.84255874 0.79779303 0.6913536 0.78583074 0.8465942 0.81158817 0.67577815 0.7168651 0.65934366 0.45452523 0.28628486 0.19037464 0.21152437 0.12635446 0.19627175 0.7974775 0.8592508 0.8687141 0.60839427 0.8675 0.8756209 0.60641587 0.8576294 0.87629026 0.6953749 0.8078512 0.8463185 0.7452965 0.7958363 0.62594616 0.68863076 0.65621686 0.31111825 0.27812406 0.17393279 0.25120425 0.15257649 0.18348739 0.47499558 0.19522077 0.69099355 0.7421968 0.33231372 0.8743274 0.41305435 0.88670146 0.5624641 0.85366565 0.87651706 0.55915993 0.6564975 0.7835082 0.8326485 0.32337588 0.26851156 0.29381034 0.21138574 0.25332212 0.26987022 0.23761092 0.077562496 -0.090637 0.5570985 0.6433011 0.7340368 0.032731898 0.25457266 0.79568565 0.32633716 0.84417385 0.32211703 0.40662754 0.4727472 0.82588625 0.84898245 0.45504954 0.5281712 0.74548733 0.8019484 0.42889228 0.33876258 0.25520715 0.30135357 0.25201774 0.368211 0.29393986 0.67819524 0.36031568 0.063557014 0.66567343 0.7026571 0.7219216 0.7116362 0.51013416 0.5714431 0.6422912 0.6527828 0.6690874 0.59335756 0.4698891 -0.020354517 0.6136668 0.73477674 0.16385297 0.76987964 0.6112368 0.7023251 0.7750334 0.5311388 0.5867101 0.6288979 0.6545217 0.5381583 0.62763315 0.45604146 0.29961836 0.42984828 0.45538187 0.29299554 0.26294315 0.37161016 0.22098273 0.41360667 0.14161985 0.64499974 0.66297793 0.70326644 0.6901285 0.37722197 0.6374676 0.65434486 0.030660534 0.60114276 0.0067920797 -0.020060714 0.546087 0.54407054 0.5490278 0.4175729 -0.045682102 0.58540606 0.3418483 0.309226 0.16607085 0.08746447 0.060486007 0.019780949 0.64050347 0.06379953 0.5545045 0.5632659 0.5911357 0.6152291 0.58023846 0.5593009 0.3651066 0.2802315 0.25054333 0.40033758 0.2923602 0.27236277 0.2657544 0.29447687 0.29913825 0.31393164 0.61801183 0.66431284 0.6716857 0.6629114 0.5546269 0.5328225 0.30711782 0.226654 0.20912702 0.37494382 0.39755374 0.14660664 0.6029401 0.61510235 0.13938463 0.578402 0.2255735 0.35062218 0.5142626 0.49358833 0.38067776 0.42336655 0.5403758 0.28433287 0.5270475 0.22643527 0.10571217 0.48975968 0.54396737 0.5606309 0.53638065 0.2065317 0.17196846 0.59047306 0.5552954 0.5551025 0.5344077 0.39908284 0.27789146 0.3110544 0.5538803 0.49453792 0.35890833 0.27531037 0.2634079 0.28818202 0.50139177 0.32291576 0.2919486 0.2976914 0.32955918 0.33138788 0.34776658 0.37438568 0.4379381 0.5806879 0.4094066 0.42510518 0.45568714 0.5231275 0.711908 0.68623203 0.6626054 0.6944952 0.720529 0.65825427 0.62531143 0.5962091 0.401711 0.2996634 0.15770297 0.14086166 0.23417152 -0.02891472 0.09239171 0.3706041 0.12935609 0.33606052 0.34491467 0.37153885 0.3384734 0.32911336 0.37790948 0.4235868 0.2579041 0.23789445 0.5031148 0.51501715 0.18401736 0.46150723 0.56498086 0.5542943 0.32003322 0.46859336 0.41486508 0.5382479 0.549776 0.5499598 0.5332158 0.65580595 0.7008481 0.42734265 0.41821754 0.65911126 0.70462775 0.39507675 0.5478445 0.66080135 0.40702012 0.43982893 0.5627596 0.5613244 0.5971215 0.6334622 0.59326494 0.54870915 0.6020863 0.6197357 0.60339826 0.71416795 0.7430175 0.69080675 0.6381497 0.6640419 0.68872064 0.55843663 0.5352663 0.3631727 0.2935182 0.09147354 0.036398407 0.41544518 0.42627442 -0.33515784 -0.0030335374 0.23515263 -0.042784005 0.22483389 0.31975812 0.3258785 0.23754162 0.22211528 0.22581808 0.32694507 0.383206 0.411416 0.42516798 0.46188754 0.70804393 0.3776642 0.38392457 0.726706 0.369884 0.36553472 0.7109536 0.7233458 0.3363558 0.2526044 0.68969584 0.18881118 0.51489097 0.49997824 0.5379375 0.5011457 0.54816335 0.58316517 0.5837574 0.47247747 0.5248475 0.5480421 0.53317416 0.72596735 0.772894 0.68248904 0.6519394 0.6544544 0.27731976 0.77646244 0.7228645 0.485663 0.82791024 0.75735676 0.04211443 -0.09133379 0.6641257 -0.07657947 0.5802454 0.4483033 0.044388272 0.41938844 0.024096265 0.08589828 0.20641492 0.25402826 0.27623034 0.33119684 0.33377868 0.40136403 0.38020277 0.33789748 0.66794014 0.29538584 0.68814504 0.35107905 0.73684335 0.7101872 0.37772673 0.26364914 0.45216006 0.38485995 0.47456384 0.4986803 0.4116516 0.39863306 0.4171406 0.45649105 0.48819187 0.4686053 0.45878136 0.38433152 0.40709043 0.47031757 0.4052269 0.31219643 0.38393503 0.43797207 0.5070787 0.44200122 0.51625645 0.54181033 0.4861959 0.53494334 0.84240234 0.8771508 0.83037966 0.76946914 0.5585518 0.4560662 0.9381146 0.8997884 0.11656451 0.12596828 0.097014144 0.104502276 0.8962536 0.70527315 0.5757965 0.05412075 0.08943485 0.61844283 0.5729378 0.108907565 0.052436046 0.1974661 0.038004562 0.24544822 0.2798881 -0.08977527 0.29038453 0.30514604 0.40688264 0.28821185 0.10585589 0.54820645 0.5948 0.2675622 0.063535094 0.5963363 0.6446769 0.09477081 0.6404348 0.103852406 0.40088812 0.40648752 0.3105014 0.38543415 0.42360651 0.42493463 0.37083977 0.46929303 0.5048108 0.3442251 0.5475936 0.57090473 0.3610606 0.4329561 0.58016443 0.60346323 0.44986224 0.5210544 0.56966126 0.6023378 0.6101917 0.58738685 0.6131033 0.61088395 0.8930005 0.84958893 0.7436799 0.9482366 0.9205663 0.54040354 0.45661056 0.3435983 0.9434122 0.08650964 -0.0157336 0.15528417 0.24342781 0.29169253 0.87423885 0.77424467 0.7067848 0.10052504 0.6413746 0.5836043 0.54523903 0.12451129 0.54185325 0.31222776 0.15941231 0.21553677 0.121144585 0.15549825 0.21271208 0.23693544 0.2655433 0.04489032 0.26834822 0.20308946 0.09232491 0.4211442 -0.0013375655 -0.030996904 0.47551644 0.5414064 -0.10262331 0.53961134 0.5730474 0.17227086 0.15774588 0.14869618 0.29194716 0.2763796 0.39546722 0.36911395 0.27616817 0.49632382 0.09564626 0.55986285 0.030585099 0.60793906 0.29952404 0.6082894 0.6070194 0.47226247 0.5883805 0.6395471 0.61211365 0.6040256 0.55988973 0.6350591 0.63882744 0.62697697 0.89526355 0.8488563 0.7581332 0.9443856 0.91995215 0.87736917 0.65013146 0.52163374 0.41322064 0.3623217 0.27797467 0.92521846 0.09994155 0.12929185 0.22633088 0.8361766 0.76808816 0.28013906 0.19282715 0.7700368 0.6997011 0.6540733 0.12598698 0.5733244 0.14184141 0.1875311 0.1462918 0.15119532 0.12391238 0.16851932 0.2104228 0.198262 0.254352 0.25927204 0.043767177 0.03538467 -0.0569887 0.08038479 0.054755017 0.25804374 0.3834448 0.40337366 0.5816994 0.5769316 0.34364283 0.56097305 0.18076321 0.12640114 0.35863826 0.15828349 0.29618913 0.35395658 0.41438162 0.03303206 -0.0049694628 0.507846 0.021585211 0.58987457 -0.0079386495 0.60106725 0.1874055 0.41101328 0.6044927 0.60150504 0.5961625 0.59585595 0.60251063 0.5899562 0.8370231 0.90304327 0.85137534 0.7843299 0.67377925 0.2586098 0.31145772 0.3551901 0.8495988 0.86961067 0.7964602 0.70419645 0.6161318 0.5331993 0.0282586 0.19119297 0.3949387 0.42301494 0.82504237 0.76766837 0.70309603 0.2839876 0.69891405 0.63262784 0.5717348 0.22167131 0.43598017 0.33022857 0.22580555 0.1319406 0.1710608 0.17085828 0.14399034 0.27229717 0.1692099 0.31035766 0.36315262 0.36174703 0.36163753 0.23665786 0.055592902 0.038016714 0.13813773 -0.0074540824 0.065666586 0.12952158 0.55810404 0.46882915 0.47313625 0.4426165 0.574528 0.5672246 0.23477323 0.169373 0.43939275 0.116290614 0.31601894 0.11409803 0.20856506 0.056957655 0.0070543475 0.2655141 0.30745235 0.008534224 0.35818425 0.121765874 0.10174348 0.45597887 0.1474897 0.12559347 0.5098995 0.16137005 0.12166476 0.0105884 -0.053384304 0.545979 0.106725894 0.06890048 -0.021455042 0.5628705 0.51847327 0.5451193 0.16837603 0.17949693 0.13505693 0.33261746 0.16628754 0.17359747 0.18588275 0.33787096 0.39245462 0.41123766 0.4118312 0.27638525 0.3310939 0.39027628 0.38856497 0.38725948 0.38685468 0.29355037 0.3349303 0.38775527 0.3750364 0.3383332 0.34492892 0.3538523 0.39602685 0.3783389 0.31498545 0.3846375 0.3908293 0.34788007 0.28627408 0.38270822 0.32719862 0.37001556 0.47344 0.5078882 0.49743658 0.7751163 0.55273086 0.5392486 0.52753305 0.47305846 0.42291653 0.7197642 0.62182 0.52048963 0.4944454 0.48338827 0.5367162 0.470127 0.31817138 0.21034893 0.25199315 0.11324833 0.22786179 0.123722255 0.038733672 0.0132476315 0.087673336 -0.06607263 0.2968176 0.37180138 0.36726773 0.015675291 0.39156353 -0.078780174 0.3952694 0.055087026 0.13749495 0.4753766 0.5610174 0.5439472 0.47773665 0.4476264 0.40396917 0.5737258 0.5825959 0.3156872 0.45187956 0.16888773 0.08280908 0.19045684 0.07436643 0.05154429 0.28917414 0.104274094 0.132697 0.3183317 0.3751643 0.36236662 0.43430337 0.17455825 0.15636256 0.42595094 0.14840046 0.13086516 0.4126259 0.512792 0.13758363 0.1099634 0.08092885 0.13555577 0.13578089 0.13433185 0.17221835 0.2486615 0.15589404 0.17289935 0.22317202 0.21208642 0.21433237 0.17633784 0.16625673 0.17007443 0.1658293 0.10815595 0.27650684 0.40679145 0.4510498 0.4678742 0.25091085 0.23994257 0.18685347 0.42936522 0.45135164 0.46722186 0.28446668 0.27410212 0.2638323 0.39793044 0.41392642 0.42932153 0.29816806 0.27831155 0.344849 0.28928143 0.31836888 0.21818095 0.32274598 0.24443692 0.15342417 0.41173756 0.41035885 0.38915434 0.3264465 0.20886031 0.12826379 0.4305514 0.42523628 0.39601326 0.321913 0.42699564 0.41439533 0.53825384 0.51870704 0.5028677 0.5040535 0.5416107 0.5331999 0.56256807 0.51442933 0.6040646 0.46590325 0.25282896 0.29531783 0.2333987 -0.07640927 -0.026598327 0.34656867 0.2922431 0.011069939 0.027035467 0.38254887 0.347812 0.27882156 0.11587619 0.17816837 0.014373466 0.14159152 0.19924429 0.25456226 0.028342858 0.19655785 0.31198943 0.24967611 0.3075797 0.24654974 0.21843353 0.2128907 0.46115655 0.39741763 0.48939997 0.5044302 -0.10524825 -0.06330952 0.22204241 0.048163638 -0.005626723 -0.029441625 0.23662272 0.6196884 0.5619739 0.4775637 0.29489088 0.19892903 -0.06829029 0.0012885481 0.31442133 0.64239955 0.60867846 0.54011554 0.4097165 0.23363893 0.044656344 0.11452129 0.6572302 0.5801283 0.13871232 0.17289484 0.16981876 0.21522817 0.021219255 0.1592605 0.1520988 0.13010934 0.12491219 0.24828881 0.12375316 0.21559864 0.11916438 0.15898658 0.13178149 0.16239876 0.46614188 0.21336941 0.4400827 0.47069234 0.277834 0.29070777 0.44901916 0.5137309 0.611948 0.32382038 0.56112355 0.609373 0.29246423 0.39527354 0.537218 0.57374835 0.14064018 0.18521112 0.30874717 0.39304844 0.4992689 0.39658207 0.40371627 0.19015121 0.13585576 0.17402577 0.23129411 0.4301076 0.43427712 0.27658388 0.16936183 0.15561897 0.18956482 0.43566248 0.43820184 0.41186 0.3265442 0.52529263 0.5003103 0.5138707 0.54186696 0.52792907 0.49610052 0.5101296 0.50438166 0.51780903 0.6017794 0.6103001 0.40799618 0.4519851 0.35491022 0.4344609 0.29792982 0.3237921 0.3695978 -0.04296437 0.1289706 0.22288388 0.27707666 -0.3777268 0.044029705 0.13989162 -0.4124803 0.085953444 0.0032229125 0.1410032 0.1580937 -0.10308905 0.23987564 0.24259844 -0.062473953 0.033928007 0.27837038 0.30582315 0.30176425 0.18154296 0.25991258 0.31482217 0.30944115 0.21471778 0.17100416 0.17278814 0.13810943 0.22719985 0.2423067 0.25886586 0.26525527 0.54174984 0.14347406 0.14160593 0.16763858 0.4942506 0.5262536 0.5453279 0.50236017 0.47985017 0.31039146 0.17945026 0.082529515 0.08599601 0.12523296 0.14152837 0.40579987 0.4318747 0.41907188 0.43964255 0.35496634 0.11784722 0.07364531 0.13151368 0.17554726 0.2249105 0.1889584 0.16593963 0.102024615 -0.37965158 0.030689403 0.15023163 0.2723997 0.32126778 0.12623817 0.124668814 0.11604622 0.13340332 -0.18400142 -0.10827736 0.4049092 0.43447793 0.57523066 0.46204355 0.3551607 0.15616667 0.5122103 0.51180613 0.5154991 0.67688674 0.64137614 0.5771408 0.3729285 0.5282574 0.53029907 0.7210595 0.69445777 -0.3261243 0.7333458 0.7276157 0.69956577 0.5897286 0.44624048 0.15642099 0.13123092 -0.303242 0.72893417 0.6065232 0.14775151 -0.019910224 0.09681861 0.108154856 0.1500348 0.06348993 0.08408339 0.09123644 0.08430427 0.08795817 0.20072022 0.2875355 0.33641338 0.18254595 0.37986195 0.4863566 0.5654205 0.2509285 0.55465984 0.64163625 0.2507663 0.27585354 0.6443115 0.6466224 0.2306147 0.5649955 0.6114334 0.42758113 0.49072093 0.32468414 0.2773794 0.3177253 0.40328932 0.34965852 0.4099923 0.2049258 0.37145483 0.42819875 0.18532717 0.23447865 0.27350867 0.21004409 0.52596164 0.5130837 0.4884139 0.45053506 0.59662336 0.5270533 0.5215184 0.4670416 0.49250877 0.54116946 0.56296307 0.56616163 0.5323137 0.4713127 0.37779933 0.4596576 0.5037892 0.5201048 0.43290663 0.41825038 0.4343807 0.29457465 -0.05595126 0.23975289 -0.022107027 -0.004673533 0.18356729 -0.010808304 -0.030966312 0.028111398 0.031609893 0.09873137 0.15979856 -0.06567897 0.21795413 0.19626991 -0.10129494 -0.09851477 0.25778854 0.32772744 0.35915077 0.32180002 0.34637666 0.34246904 0.028139047 0.27229926 0.26848307 0.28878292 0.46691996 0.51616865 0.51332736 -0.03909363 0.005508378 0.07563594 0.18233934 0.18477815 0.19291955 0.46946585 0.536662 0.520916 0.34526157 0.22631532 0.015146339 0.044042088 0.07157955 0.0803737 -0.13965215 -0.05568548 0.102377884 0.10915118 0.07976417 0.34845558 0.2388582 0.05758355 0.119866535 0.15341751 0.1686778 0.14124002 0.14436148 -0.03406862 -0.17345957 0.09185607 0.16867456 0.23066013 0.32430878 0.31034228 0.25299832 0.43822542 0.38173386 0.101514116 -0.13347064 0.45083135 0.44256163 0.38778824 0.6665319 0.68136376 0.4798383 -0.19606374 -0.20694819 0.50317216 0.5178369 0.5121524 0.5152124 0.7237426 0.739686 0.7399055 0.6517768 -0.19655088 0.38798213 0.44787553 0.5203039 0.5405537 0.5733692 0.57119185 0.72493875 0.75726974 0.7514786 0.712759 0.56748515 0.73843825 0.6957614 0.7073749 -0.11540753 0.67085874 0.64192265 -0.04962802 -0.09742483 -0.044849716 0.048287068 -0.022995781 -0.0014832951 0.090249315 0.0064515546 -0.022362372 -0.074111 -0.1447831 0.014053887 0.1979185 0.012516148 0.086204335 0.2749226 0.34494427 0.5152765 0.5968115 0.07609102 0.13219137 0.6801295 0.7039827 0.18984315 0.6691084 0.54441226 0.45272106 0.48632175 0.22300883 0.36478406 0.30341336 0.21539652 0.27823058 0.3102424 0.23270416 0.16753104 0.15415487 0.06431118 0.059020314 0.59646297 0.6006886 0.5851897 0.5040323 0.6093943 0.57717294 0.5550337 0.41654795 0.51197404 -0.11070137 0.42314792 -0.06562974 0.3189251 -0.028908722 0.24910752 0.46312833 -0.011242896 0.15722081 0.13359238 0.47225088 0.47487396 0.45231885 -0.0036214218 0.47298396 0.46270686 0.44804746 0.3826865 0.0123558715 0.072324015 0.40422028 0.00044226646 0.13300218 0.25257033 0.2800001 -0.12638113 0.34246874 0.3399329 -0.1386002 0.35746 0.34079206 0.31350356 -0.19527352 -0.090003714 0.24122459 0.3711271 0.41538465 0.3995272 0.32153285 -0.090478666 0.15174662 0.16921526 0.574623 0.4272833 0.2972948 0.2174752 0.32525676 0.09457995 -0.07505463 -0.008939784 0.06954512 0.069789015 0.07308616 0.6175814 0.5013069 0.3580747 0.13886712 0.010580152 0.599511 0.26829854 0.059497662 -0.22185098 0.18528876 0.15364376 0.49688923 0.51123667 0.5415597 0.35786766 -0.23292151 0.32672942 0.43342686 0.5444013 0.6233237 0.6397277 0.6004188 0.29460976 -0.24873282 -0.2924457 0.17477365 0.3112638 0.6894382 0.7149291 0.660344 0.5977071 -0.24434677 -0.24436404 0.3234605 0.40939665 0.55340934 0.61761296 0.6741922 0.7237593 0.6694362 0.63886213 0.41442275 0.49586397 0.5168049 0.49971747 0.51837957 0.6838547 0.7220577 0.69903386 0.63811713 0.59269047 0.5782253 -0.16294515 0.66615415 0.6749372 0.58615935 0.46539414 0.24954751 0.15913782 -0.09876993 -0.07197879 -0.09297988 -0.053584624 -0.058033403 -0.12163693 -0.10505505 -0.021214688 0.065955795 0.022710055 0.06819096 0.20884524 0.32638663 0.470535 0.6571591 0.74059737 0.0512541 0.72441053 0.011697615 0.5871602 -0.0683525 -0.03814683 0.42662895 0.34401178 0.24385054 0.11893712 0.0891959 0.09062293 0.16113745 0.17670554 0.16328257 0.096212216 0.008802749 -0.026955962 -0.017012537 0.006640982 0.27235967 0.38301784 0.43604904 0.5886703 0.5741957 0.5549514 0.6248783 0.5602958 0.5761541 0.5695491 0.5471743 0.53797126 0.20909089 0.25116915 0.47780225 0.4515533 0.39494497 0.2798465 0.037627913 0.32755613 0.3703878 0.38205618 0.38162675 0.20309083 0.44871292 0.44330367 0.30709153 0.055257827 0.41226092 0.4566567 0.40941077 0.3328632 -0.1574199 -0.17374617 0.36845618 0.43799746 0.0028150603 0.021630615 -0.26568326 -0.019103203 0.2698564 0.41846782 0.39993066 0.32286394 -0.04803644 -0.007414151 0.12891713 0.22769564 -0.07687873 -0.2317698 0.25850743 -0.3029003 0.2848298 0.26037675 0.26481628 0.08520798 0.1479392 -0.024564505 -0.12440995 -0.55762935 0.28237748 0.28185648 0.66845703 0.66382205 0.36644918 0.35603678 0.17124832 0.16626528 0.22426698 -0.077053666 -0.1910603 0.1954917 0.26029843 0.81698847 0.7679858 0.60786366 -0.018351298 0.11401859 0.15689023 0.10264125 0.81058073 0.7618452 0.6643356 -0.04130966 0.2799457 0.3549486 0.7846106 0.7470163 0.6103337 0.050415065 0.16837117 0.39656788 0.4279523 0.48430812 0.4920346 0.5889368 0.4461505 0.14464352 0.0026109964 0.54466075 0.5279235 -0.28915116 -0.29611158 0.18909791 0.47674853 0.60163474 0.5578313 0.16160126 -0.2691081 -0.22261739 0.28200355 0.44077978 0.59090555 0.5272276 0.39880645 0.4432614 0.46996742 0.58371633 0.5624887 0.5598923 0.4656989 -0.12206796 -0.12841043 0.39982408 0.45803756 0.615442 0.6413022 0.6206677 0.5557798 0.41764334 0.26508576 0.2240678 0.07301607 -0.06588938 -0.060598116 -0.12402067 -0.11141103 -0.09402895 -0.078092545 -0.032730304 -0.075940154 -0.11562556 0.6506578 0.07110559 -0.003660988 -0.20224889 0.5549525 0.67667824 0.7508831 0.8055875 0.09898008 0.08132052 -0.48697838 0.7337844 0.77686304 0.82185507 0.82460606 0.08679384 0.054975044 0.27922598 0.61023545 0.7131167 0.7853782 0.803061 0.81998724 0.07684259 0.05312892 0.75164926 -0.120828375 0.6190392 -0.10673633 0.5732399 0.25967237 0.2338198 -0.34215987 0.35379517 0.33351684 0.3248096 0.23785721 0.22490458 -0.10455993 0.18904239 0.39402783 0.37651783 0.33247572 0.20885846 0.4078405 0.42578304 0.40411133 0.11324625 0.4422532 0.4600358 0.4328131 0.36629465 0.10957703 0.12828483 0.13727108 0.16962674 0.2001647 0.17741187 0.0839141 0.22712523 0.46946764 0.37517482 0.2789077 0.54354596 0.6133517 0.54341805 0.44742608 0.7255316 0.6893543 0.68814635 0.6857996 0.6284679 0.763204 0.8071279 0.83629084 0.7789198 0.5038645 0.53073215 0.55908614 0.55014336 0.4805697 0.4829002 0.30898094 0.30235666 0.28685257 0.2751928 0.24746865 0.43048882 0.31896248 0.38510996 0.25652003 0.3285224 0.3127448 0.3393238 0.27666345 0.3473092 0.3300331 0.2671759 0.21715033 -0.1545507 0.34796774 0.26959836 0.098509654 0.35793126 0.17435071 0.12918487 -0.08357285 -0.00342012 0.043754574 0.14899291 0.086968906 0.053057358 0.11806169 -0.11414853 -0.14294466 0.14192018 0.13519156 0.10966978 0.047394633 -0.22772232 -0.22479309 -0.21855009 -0.16137037 -0.42469326 0.21805754 0.24880123 -0.09466961 -0.16098909 -0.22877729 -0.43618375 0.26043937 0.2626008 0.7924474 0.5631789 0.21907623 -0.22621036 -0.3790161 0.266597 0.21949139 0.88728917 0.81911445 -0.35032898 0.06522096 0.21099548 0.8685921 0.3168486 0.35438928 0.82487845 0.7341106 0.43679577 0.44278508 0.6827371 0.325551 0.48071685 -0.0715257 0.48466858 -0.2784203 0.23194493 0.47448245