# vtk DataFile Version 2.0
Really cool data
ASCII
DATASET POLYDATA
POINTS 6334 float
-43.788574 -14.989897 -10.867937
-44.037006 -15.030514 -10.293493
-44.073784 -15.103827 -9.713166
-43.84791 -15.161461 -9.0516205
-43.99279 -14.36065 -10.8716345
-44.26151 -14.486713 -10.38312
-44.33163 -14.467565 -9.6538725
-43.974674 -14.397907 -8.768753
-44.057766 -13.740934 -10.823616
-44.23319 -13.619118 -10.4335165
-44.339977 -13.703367 -9.546432
-44.116764 -13.521718 -8.783749
-43.733917 -12.639807 -10.8876095
-44.01717 -12.703186 -10.218783
-44.1373 -12.6362 -9.470333
-43.9529 -12.501287 -8.757774
-43.75952 -12.894455 -8.218959
-43.764957 -11.761631 -10.190426
-43.853027 -11.6661 -9.351322
-43.787174 -11.820685 -8.672618
-43.608257 -11.808673 -8.233641
-43.601524 -11.117055 -9.171414
-42.519604 -18.86676 -13.87548
-42.827023 -15.959159 -10.032379
-42.977474 -16.19853 -9.732114
-43.082783 -15.941597 -8.602452
-43.459984 -15.290919 -10.850248
-43.49647 -15.599417 -10.172736
-43.54963 -15.643375 -9.20904
-43.369553 -15.523977 -8.539046
-43.008713 -15.258422 -7.9991155
-43.324303 -14.384002 -11.380213
-43.242756 -14.125226 -7.813963
-43.448116 -13.23615 -11.324225
-43.15775 -13.471468 -7.7423925
-42.804142 -12.981257 -7.3296943
-42.920967 -12.175972 -11.969777
-43.483906 -12.540459 -11.339231
-43.343475 -12.698653 -7.809936
-42.902805 -11.616276 -11.918055
-43.285835 -11.63296 -11.286026
-43.512047 -11.389329 -10.602293
-43.469124 -11.214137 -9.754283
-43.54232 -11.422813 -8.427191
-43.35664 -11.827378 -7.87897
-42.942463 -10.758519 -11.349962
-43.265896 -10.596729 -10.533741
-43.38041 -10.67166 -9.471728
-43.46209 -11.11664 -8.566233
-42.537292 -10.262519 -6.1730537
-42.721615 -9.619469 -10.93076
-42.89709 -9.498829 -10.380473
-42.948837 -9.552609 -9.771748
-42.646267 -9.853103 -8.612276
-42.7511 -9.111782 -9.812006
-41.643295 -22.815489 0.77500606
-41.71221 -22.6729 1.5884527
-41.81031 -21.985027 0.06612566
-42.0989 -22.097551 0.5943292
-42.069817 -22.1977 1.3954233
-41.927967 -22.061846 1.947982
-42.00412 -21.4657 0.15960097
-42.235752 -21.458061 0.702178
-42.31472 -21.582455 1.3953475
-42.00322 -21.582088 2.0134737
-41.701717 -19.924452 -15.016344
-41.837784 -20.140215 -14.114319
-42.01791 -20.088432 -13.260405
-41.920498 -20.151558 -12.437991
-41.7377 -20.240255 -12.055299
-41.761703 -20.985792 0.06606369
-42.087017 -20.939054 0.7056808
-42.135372 -20.910824 1.4016237
-41.96682 -20.951218 1.8973064
-41.91413 -19.258999 -15.140647
-42.25404 -19.22437 -14.456306
-42.31994 -19.374603 -13.46227
-42.283607 -19.432558 -12.712172
-42.03047 -19.375956 -11.706859
-41.89917 -19.137253 -10.856212
-41.640053 -18.975113 -9.721713
-42.094196 -18.427402 -15.0766945
-42.38562 -18.404448 -14.392004
-42.42797 -18.503365 -13.7248535
-42.290443 -18.501879 -12.645888
-41.705666 -18.055567 -9.818739
-42.005722 -17.901638 -15.016232
-42.308815 -17.91634 -14.315935
-41.99524 -17.363499 -13.563681
-42.114174 -17.689564 -10.871471
-42.088726 -17.251108 -9.576481
-42.32783 -16.77396 -8.897313
-41.62366 -16.927773 -12.487884
-42.182583 -16.707396 -10.009605
-42.463436 -16.42965 -8.375252
-42.021255 -16.29337 -7.80367
-41.86725 -15.478373 -11.48629
-42.537003 -14.489481 -7.447093
-42.126324 -14.262161 -7.0656176
-41.741062 -13.333657 -13.081783
-42.390285 -13.265382 -11.997934
-42.016243 -13.129376 -6.717822
-41.854614 -12.766103 -5.8998632
-41.772354 -12.369697 -13.429029
-42.364872 -12.448847 -6.4728713
-41.893192 -12.475187 -5.268777
-41.956795 -11.974907 -4.818026
-41.8839 -11.666598 -13.127594
-42.231735 -11.377274 -12.505147
-42.352676 -11.86467 -6.9240403
-42.460194 -11.463511 -5.191131
-42.272633 -11.294897 -4.6272073
-41.873337 -11.554505 -4.060385
-41.68866 -10.948798 -2.638255
-41.606125 -10.970412 -1.9828017
-42.448063 -10.70454 -11.936902
-42.306572 -10.289781 -6.91148
-42.493908 -10.63404 -5.2511225
-42.45769 -10.567095 -4.930828
-41.847008 -10.40872 -3.5427928
-41.705334 -10.573065 -2.550289
-41.622646 -10.440492 -1.7923594
-41.965416 -9.781312 -11.681545
-42.447247 -9.563075 -11.203229
-42.403812 -9.981667 -7.267187
-42.476116 -9.9724455 -6.207618
-42.29125 -9.555756 -5.7670255
-42.122757 -9.827078 -4.8451505
-41.661705 -9.684181 -2.4315202
-41.59795 -9.767774 -1.8496405
-42.29533 -9.017555 -10.912919
-42.327225 -8.754258 -10.456494
-42.315655 -8.640853 -9.69243
-41.872734 -8.736127 -8.395396
-41.929993 -8.836969 -7.3388133
-41.991264 -8.728406 -6.5471177
-41.92078 -8.670969 -5.8733025
-41.910828 -9.220248 -5.0772333
-41.919674 -8.390989 -10.125089
-41.696003 -8.339666 -6.25886
-40.78806 -23.745731 0.25494537
-40.816067 -23.161898 -1.1737738
-41.17913 -23.120188 -0.46821034
-41.306625 -23.132992 0.306618
-41.469734 -22.928148 1.3444731
-41.01769 -22.707775 2.2622776
-40.856705 -22.108057 -1.9809881
-40.981056 -22.424198 -1.2789965
-41.367714 -22.249662 2.346389
-40.904037 -22.164757 2.7617283
-40.688286 -20.791885 -20.82752
-40.825474 -20.96793 -20.306232
-40.976994 -20.942068 -19.58911
-40.71192 -20.951979 -18.82226
-40.680992 -20.906502 -16.962189
-40.86616 -21.183855 -16.08753
-41.04002 -21.107298 -15.253699
-41.01375 -21.01555 -14.528041
-40.958717 -21.01789 -13.749262
-41.20031 -20.69413 -12.980091
-40.81765 -20.62618 -11.310094
-41.178722 -21.930029 -1.0838226
-41.592342 -21.786785 2.4245157
-41.097332 -21.417513 2.7658062
-40.8726 -20.23302 -20.83735
-41.06419 -20.451473 -20.31492
-41.150673 -20.422897 -19.660032
-41.07842 -20.315363 -18.954735
-40.741837 -20.58317 -17.114174
-41.058495 -20.466787 -16.45458
-41.283985 -20.44337 -15.582358
-41.380222 -20.470171 -14.790563
-41.594837 -20.500782 -13.181567
-41.590096 -20.459438 -12.595335
-41.345528 -20.328857 -11.711094
-41.208584 -20.188147 -10.642716
-41.175083 -19.840368 -9.534367
-40.87818 -20.057526 -9.204365
-40.564007 -20.699099 -1.8576175
-41.25307 -20.9153 -0.4128698
-41.690228 -20.705963 0.3905307
-41.717335 -20.591347 1.7844701
-41.23525 -20.743734 2.3189023
-40.94761 -20.954275 2.7210152
-40.724285 -19.697956 -21.013338
-41.092125 -19.708855 -20.27547
-41.138245 -19.64374 -19.668316
-41.009167 -19.434744 -19.118639
-40.587643 -19.418447 -17.518364
-41.1719 -19.132797 -16.302626
-41.480347 -19.441618 -15.708832
-41.42568 -19.576338 -10.17741
-41.316296 -19.50495 -9.454699
-41.011894 -19.375093 -8.757532
-40.78262 -18.828518 -4.9422555
-40.71062 -19.339193 -4.3809586
-40.76889 -19.067387 -3.7655818
-40.669456 -19.256657 -2.5445204
-41.51042 -20.299896 0.94905716
-41.37376 -20.290913 1.4079471
-41.02721 -20.323061 1.9531267
-40.69257 -19.140463 -20.85301
-40.846287 -19.0046 -20.315697
-40.87866 -18.950441 -19.717648
-41.499752 -18.96053 -15.844984
-41.657642 -18.208693 -15.48805
-41.39214 -18.435257 -9.029384
-40.843964 -18.593706 -5.25516
-41.14911 -18.266493 -4.6028423
-41.178066 -18.132727 -3.877208
-40.82359 -18.192808 -2.9275236
-41.377743 -17.732204 -15.3060055
-41.40039 -17.532393 -8.579462
-41.023327 -17.415047 -8.061843
-41.260563 -17.631252 -4.373481
-41.10207 -17.650293 -3.4067855
-40.81306 -17.799437 -2.9315062
-41.70027 -17.222635 -14.553364
-41.1363 -16.58619 -13.771313
-41.777363 -16.556673 -8.021552
-41.158447 -16.402348 -6.0678506
-41.18871 -16.412432 -5.3181734
-41.065872 -16.46628 -4.2170887
-41.15569 -16.805243 -3.891541
-40.78451 -17.102806 -2.9880464
-41.24733 -15.626687 -12.732207
-41.53165 -15.221217 -7.0272765
-40.96986 -15.407487 -4.854266
-41.25333 -14.036264 -12.9988575
-40.992104 -15.007399 -5.713992
-41.107563 -13.1913595 -14.114947
-41.451443 -13.554703 -13.375773
-41.271717 -12.941356 -5.08258
-41.071434 -12.681155 -14.141882
-41.417583 -12.653043 -5.277833
-41.297005 -12.163807 -4.3308825
-41.396072 -11.961304 -4.089931
-40.90017 -11.840088 -2.6228225
-40.8753 -11.763214 -1.5314026
-41.061863 -11.699666 -14.063497
-41.460773 -11.621456 -13.642693
-41.54076 -11.550903 -3.6122344
-41.46884 -11.254733 -2.288004
-41.251488 -11.230438 -1.5346625
-40.911495 -11.283629 -1.0577304
-40.81004 -10.986394 -13.764517
-41.17253 -10.819074 -13.054231
-41.48599 -10.429092 -1.4597923
-41.001385 -10.649492 -0.85824156
-41.16147 -9.682415 -12.020048
-41.4257 -9.521999 -3.456467
-41.45224 -9.338106 -2.1686068
-41.406662 -9.598689 -1.5401499
-41.11335 -9.698831 -0.9750266
-41.652824 -8.802392 -11.239367
-41.649498 -8.38582 -6.737521
-41.5728 -8.431766 -5.4706984
-41.3726 -9.133681 -3.2448742
-41.223125 -9.020533 -2.5572064
-40.937733 -8.907911 -1.5728602
-40.85545 -9.063737 -1.0242958
-40.8803 -8.122242 -11.010249
-41.427876 -8.119898 -10.189324
-41.0716 -7.7496743 -9.510505
-40.95732 -7.9259477 -8.569232
-41.467663 -8.195735 -6.592272
-41.452145 -8.196026 -5.824786
-40.6277 -0.9785012 -10.06773
-40.617065 -1.0028577 -9.674312
-40.635834 -0.5118617 -10.2138
-40.647095 -0.54185236 -9.630368
-40.568485 -0.059345737 -10.108672
-40.591892 -0.1260309 -9.657881
-39.707798 -26.804813 -3.0056505
-39.78251 -26.90791 -2.7546139
-39.680794 -27.015436 -1.7975075
-39.863194 -26.356615 -3.1121314
-40.013172 -26.432655 -2.4480972
-39.962402 -26.44278 -1.8481544
-39.957813 -25.574562 -3.2583764
-40.1169 -25.843094 -2.2852068
-39.865826 -25.176569 -1.6659619
-39.691162 -25.143522 -0.66836226
-39.93173 -24.202335 -4.0859046
-40.144108 -24.368082 -3.492686
-40.11787 -24.482481 -2.3282356
-40.59937 -23.695116 -0.81837595
-40.38588 -23.828444 0.5588166
-39.866974 -23.633171 -4.4743814
-40.283073 -23.617624 -3.5230534
-40.4601 -23.541779 1.4119284
-40.540203 -22.944794 2.2700238
-39.941696 -21.704403 -20.46004
-39.879555 -21.93486 -19.47017
-39.760036 -22.186321 -18.153423
-39.85726 -22.352644 -17.289543
-40.17368 -21.96382 -16.440796
-40.286457 -22.015854 -15.6118
-39.91183 -22.023443 -14.727302
-40.017715 -22.652266 -4.0477962
-40.434055 -22.43913 -2.8362377
-40.34238 -22.202246 2.9995382
-39.881203 -20.924316 -21.737255
-40.35556 -20.998049 -21.016766
-40.501434 -21.284815 -20.327442
-40.60601 -21.352867 -19.857632
-40.279636 -21.464493 -18.805693
-40.161354 -21.29191 -17.396082
-40.495285 -21.287176 -16.716425
-40.559162 -21.384546 -14.351307
[...]
POINT_DATA 6334
SCALARS features_00 float 1
LOOKUP_TABLE default
0.5398054 0.5654309 0.5559147 0.5243683 0.5494821 0.5950228 0.6225108 0.5614599 0.52280897 0.5579145 0.61346424 0.5232757 0.40776372 0.46817118 0.47491574 0.42680693 0.38619715 0.39883906 0.39072835 0.3750556 0.3343836 0.3500123 0.5289111 0.37376446 0.3511972 0.36873904 0.49629992 0.48303846 0.44996822 0.4344825 0.38595223 0.41941816 0.32944316 0.37827703 0.26166117 0.15511653 0.27120355 0.3518351 0.286668 0.2727339 0.33360767 0.3745032 0.37425637 0.3197266 0.29090783 0.32592428 0.37093502 0.3401802 0.29986387 0.32605332 0.36690205 0.37998098 0.35561737 0.21374825 0.36099932 0.6702098 0.77095413 0.6383469 0.7636799 0.8546293 0.88224417 0.7056602 0.83957386 0.9252976 0.9313135 0.40816674 0.40268117 0.38429725 0.3265257 0.2977906 0.69445026 0.84456134 0.9180558 0.9264251 0.46325302 0.49747762 0.48184437 0.4329266 0.33635268 0.2874204 0.26515287 0.49097836 0.52411807 0.53690904 0.48055002 0.17441227 0.46286994 0.50756073 0.4328639 0.1454899 0.15070195 0.2190442 0.19153692 0.19347386 0.26304206 0.21897174 0.103791334 0.21740487 0.06662708 0.2033812 0.22728544 0.030029057 0.114683524 0.26173604 0.11224618 0.1705369 0.19627397 0.2515405 0.23519602 0.17936662 0.27472866 0.2718427 0.22970524 0.435566 0.51232344 0.26432383 0.26003504 0.36385256 0.36546227 0.38430515 0.48053557 0.5684982 0.277389 0.34664726 0.22627 0.3279901 0.3414829 0.3477952 0.5254412 0.57204074 0.35666102 0.3634141 0.333906 0.21990633 0.2672794 0.31997004 0.34286365 0.33915868 0.32689926 0.32293725 0.42666584 0.28489268 0.43251145 0.5451603 0.7033 0.78284 0.18796436 0.31712526 0.8444454 0.85890985 0.5460988 0.52267486 0.47878402 0.3267939 0.19126792 0.23277315 0.27538556 0.27965805 0.25303063 0.25559318 0.25788608 0.35589337 0.8976282 0.90244716 0.60241383 0.59888923 0.5720277 0.47565237 0.20182991 0.24538037 0.31828025 0.34852672 0.30920517 0.28452298 0.27739754 0.32812035 0.36311466 0.391199 0.19496775 0.5142688 0.7575361 0.8753264 0.86637175 0.8832437 0.61302483 0.64813554 0.6182437 0.52516556 0.19654289 0.29430595 0.38221997 0.32876348 0.33330244 0.34883702 0.37227228 0.3502832 0.38656986 0.28322276 0.7615402 0.7662927 0.77020085 0.62397456 0.6290896 0.5807101 0.38944072 0.42580384 0.23231128 0.39170894 0.43778017 0.4286322 0.34644368 0.3571154 0.16384892 0.15023775 0.4363436 0.38468334 0.33537287 0.38119227 0.14830899 0.19028571 0.07967312 0.2612895 0.34748468 0.37395462 0.32233766 -0.09213831 0.052181378 0.20481679 0.087624 -0.07967956 0.21297519 0.17885815 0.09837036 0.23895448 0.13876455 0.15757099 0.17806873 0.3385432 0.4968869 0.23423903 0.24662074 0.24838936 0.4492759 0.54395616 0.57542104 0.15498234 0.16013524 0.5997441 0.63578093 0.14369501 0.41564023 0.5409577 0.59107476 0.63646924 0.29782394 0.29792416 0.35596418 0.42479938 0.49443138 0.55470616 0.5976351 0.24456511 0.28045917 0.19801359 0.19360515 0.29470992 0.3328637 0.8039837 0.78567225 0.8357499 0.82225394 0.85790825 0.84828925 0.5833325 0.58636594 0.5983669 0.55361354 0.5558309 0.5587683 0.5018172 0.5058718 0.40740252 0.3475047 0.46054316 0.42161876 0.29171947 0.25953388 0.4057599 0.4507218 0.3612556 0.6131842 0.7672265 0.36063942 0.25197822 0.13658738 0.12903279 0.17432912 0.19270812 0.11359694 0.34694973 0.1372951 0.85513616 0.4688113 0.50067264 0.45458078 0.4174167 0.23588938 0.14429244 0.18571565 0.20869726 0.1767154 0.20438892 0.27974877 0.34017476 0.13510102 0.8914628 0.47338724 0.53802943 0.25537813 0.31531727 0.4110967 0.13162206 0.15756457 0.8121752 0.86748457 0.50517595 0.5767182 0.17000431 0.33785364 0.13884601 0.4656472 0.66060734 0.70857126 0.5608046 0.5898576 0.47709715 0.30500925 0.36326274 0.31564078 0.14848259 0.5219737 0.51449174 0.48201787 0.3733942 -0.06699252 0.010600127 0.2069355 0.2792411 0.094909586 0.27243704 0.20941073 -0.17856495 -0.13649544 0.20860127 0.09220355 0.042193964 0.16704977 0.11889195 0.16828598 0.016775236 0.18066597 0.31943175 0.42401624 0.4744164 0.17994367 0.56263554 0.1321802 0.670728 0.640875 -0.021870539 0.02662595 0.4706214 0.5118966 0.6001775 0.12889147 0.16422181 0.1875561 0.21662496 0.2377127 0.27632654 0.23407736 0.31383526 0.46049672 0.5700095 0.5237614 0.43044266 0.15641215 0.16652505 0.19473824 0.6009102 0.58018976 0.5250024 0.40488166 0.5699491 0.5300635 0.43899778 0.7201425 0.6095141 0.54070914 0.77030957 0.7851273 0.7463474 0.69060844 0.80928373 0.8348083 0.8048006 0.75974417 0.85182476 0.8713039 0.86628854 0.83535504 0.90402174 0.9035078 0.62219393 0.6352551 0.6557139 0.58314466 0.60086304 0.6103652 0.6254128 0.63328266 0.6163378 0.5515789 0.5606527 0.5795125 0.6044527 0.47345746 0.55843556 0.26764297 0.4775264 0.48160785 0.12546866 0.13247716 0.14701113 0.17229263 0.22631374 0.23910478 0.45684305 0.7484536 0.7705351 0.26630723 0.19135198 0.20200455 0.1535355 0.12474575 0.05757376 0.39359477 0.80209255 0.36697018 0.09427272 0.04596068 0.13341126 0.19126955 0.32291225 0.17427574 0.8299899 0.42281264 0.3502509 0.21016249 0.19847175 0.777588 0.43917543 0.22617722 0.10792813 0.20373556 0.21446194 0.53681445 0.44939226 0.4560063 0.22738501 0.4765395 0.44149214 0.4261704 0.06538309 -0.11409727 0.026913472 0.37575984 -0.181395 -0.22168168 -0.14662743 -0.08762229 0.13537782 0.013175081 -0.061948307 0.081582814 0.04740101 0.08484022 0.11856019 -0.4338936 0.10312085 0.13448052 0.2283248 0.20235616 0.2796441 0.12437457 0.45873177 0.10546155 0.48723286 -0.012707833 -0.029983137 0.51982266 0.012907311 0.52434343 0.47191864 0.3410351 0.14973943 0.35665938 0.5702155 0.13501313 0.19070686 0.21657102 0.30991393 0.35968596 0.3912321 0.62215036 0.6312161 0.6295701 0.55007285 0.28353846 0.52396154 0.43684494 0.24659023 0.33195364 0.5582661 0.46235448 0.4927123 0.35971147 0.7149452 0.57793784 0.42529646 0.6484034 0.75772035 0.7232473 0.5885056 0.81127304 0.8342428 0.8836808 0.9314806 0.91761744 0.6315072 0.65706664 0.6677439 0.6571938 0.6275427 0.58587956 0.6068575 0.62934774 0.6206605 0.5997158 0.47333091 0.509546 0.5952363 0.57820547 0.23250538 0.44544834 0.4960661 0.13652492 0.20636444 0.26358378 0.29674518 0.3039829 0.28786445 0.4348424 0.0722236 0.08455399 0.1103916 0.2706095 0.23103938 0.3901272 0.10688567 0.18205224 0.12535635 0.29117897 0.5763831 0.74725664 -0.116257735 0.1005197 0.22650099 0.5849933 0.7171662 0.17412415 0.005319625 0.36920175 0.46111584 0.6744083 0.096123755 0.24577966 -0.22637577 0.09270924 0.58388263 0.11619508 0.312582 0.32004416 0.3718887 -0.025794521 -0.027512934 0.35252178 -0.07652746 -0.1867555 0.009876758 -0.2027222 -0.07286144 -0.09460366 0.0045442176 0.0035170931 0.1723797 -0.070864975 0.011019912 0.27926317 0.39093417 0.025242444 0.038764853 0.050231673 0.3317946 0.44180506 0.061119176 0.07412148 0.052968975 0.24676564 0.23296355 0.39935657 0.41163012 0.37910128 0.81360894 0.84634286 0.45107046 0.0787898 0.070833236 0.14002678 0.27424788 0.35585064 0.3612424 0.76582015 0.8551425 0.870762 0.9003091 0.5489774 0.013878316 0.83957577 0.8794879 0.9036984 0.5084401 0.5074973 0.09090763 0.18854246 0.59544545 0.77930135 0.35053644 0.24406669 0.2578261 0.25348422 0.62602156 0.7272545 0.8570884 0.8802371 0.13334708 0.3653881 0.25443923 0.63268006 0.8043599 0.9181911 0.91578305 0.40151137 0.36619395 0.24448624 0.83023286 0.90474224 0.92911136 0.54568213 0.6813551 0.727868 0.817951 0.6176441 0.7899357 0.87635416 0.8864391 0.8630749 0.6082014 0.62036926 0.63362825 0.62418324 0.6211545 0.52087677 0.57069886 0.6094406 0.58551145 0.45250198 0.4906968 0.5679542 0.18609458 0.25138542 0.2665048 0.26288673 0.40014693 0.48685527 0.15119281 0.052609824 0.058224455 0.050406933 0.28232497 0.32412708 0.16117084 0.09853105 0.053820435 0.030519601 0.056567658 0.3007274 -0.06570664 0.22604552 0.20977661 0.16057113 0.036374003 0.0045350343 -0.067174606 0.14203075 0.23666933 0.22076797 -0.08858527 -0.068941236 -0.1544862 0.42854494 0.22219276 0.2136667 0.14737228 -0.04757668 0.13059847 0.11535001 0.20616382 0.20337495 0.16200337 0.04062196 0.08160716 0.19898623 0.19050542 0.16651115 0.03364943 0.38119555 0.18013734 0.10754498 0.41520014 0.12813807 0.11293649 0.062385313 0.07687706 0.045276914 -0.07828268 -0.17716992 0.03678764 0.072919905 0.07808713 0.07425748 -0.011644192 -0.21022193 -0.06019374 0.19847971 0.0588852 0.07651779 0.06143023 -0.068013616 0.20073518 0.42602813 -0.027700257 -0.109599605 -0.16208261 -0.13012153 0.438932 0.4940691 0.04954009 -0.104437016 -0.07398316 0.47222793 0.48804057 0.14552392 0.13508514 0.037492633 -0.07194653 0.44337213 0.46268392 0.17315233 0.20835838 0.23744631 0.21584839 -0.00059768 0.16469868 0.23871294 0.2674013 0.30040073 -0.11041055 0.20707512 0.22585982 0.27981064 0.325748 0.09225651 0.21952899 0.6783824 0.7310796 0.7749867 0.19932841 -0.103296176 -0.17186151 0.206812 0.78679794 0.8405025 0.3182265 -0.065207615 -0.0345404 -0.032789268 0.0012908354 0.19417539 0.5844573 0.89072335 0.8505955 0.36141306 -0.056557357 0.5886718 0.7067039 0.88892233 0.90804636 0.22379172 0.25097173 0.33688867 0.43323606 0.26717275 0.33447087 0.17918634 0.19158262 0.1879175 0.73561764 0.80708015 0.8649621 0.8862202 0.26262957 0.31526104 0.45517397 0.6816211 0.7693987 0.10619473 0.23365577 0.1655075 0.31983715 0.42653415 0.8141545 0.78470206 0.23408723 0.17736965 0.4675601 0.5370698 0.884104 0.8322439 0.20156766 0.19257098 0.30712593 0.7015053 0.7949554 0.8705948 0.8774767 0.41514507 0.17897384 0.25242293 0.7079035 0.77620655 0.80054873 0.8283732 0.62868 0.7120609 0.7744961 0.81237715 0.77953374 0.65272015 0.633421 0.5604399 0.6659607 0.6266261 0.55510926 0.37212437 0.64441603 0.66387653 0.6304459 0.5095024 0.38604528 0.2723364 0.5370947 0.5776289 0.52948606 0.5833269 0.6170402 0.55904627 0.42389327 0.37840822 0.44970155 0.47787023 0.4749248 0.59214175 0.27632117 -0.09310345 0.07969175 0.09526111 0.10312191 0.420908 0.536872 0.503041 0.17128102 0.052257806 -0.097664714 -0.079106584 -0.10086137 0.11035805 0.18768445 0.18588191 0.36919847 0.16564211 0.1235403 0.15778875 0.16083804 0.055027172 0.21455161 0.20028657 0.15692116 -0.10424475 -0.09312349 0.25859222 0.2411603 0.22765487 -0.04819134 -0.073613435 -0.116142154 0.21626085 0.22633223 -0.08702983 -0.13850214 -0.160155 -0.09563385 0.2183485 -0.16302572 -0.07822437 0.0034756064 -0.45259577 0.24745747 0.17970479 0.29700738 0.33941633 0.17610982 0.19835997 0.36083078 0.35990182 0.17770433 0.15081578 0.41971874 0.40396708 0.45286483 0.44043028 0.08918588 0.51345617 0.49344745 0.33675712 0.09584061 0.05431545 0.4744791 0.5243162 0.5317346 0.42897016 0.2224358 0.0153995715 -0.0031522824 0.49933535 0.5008906 0.52442133 0.5335549 0.44028234 0.22893101 0.047353365 -0.07531918 0.05881319 0.027858779 0.47642767 0.3083128 0.113079816 0.43528914 0.030771509 0.1436183 0.16892794 -0.15658942 0.38829818 0.56409216 0.055917643 0.19447629 0.2898571 0.24524294 -0.16862263 -0.033476457 0.67240775 0.7333118 0.12850788 0.16936392 0.21491802 0.22816493 -0.18762788 0.1790319 0.77842915 0.7935363 0.0504978 0.12888007 0.18471274 0.127327 -0.12665617 -0.24449429 -0.22523886 -0.050638426 0.06743981 0.81142366 0.047827236 -0.009078445 0.029827498 0.054345503 0.13942242 0.4057168 0.8600105 0.819192 0.17613411 0.12187003 0.4298269 0.1657678 0.11298545 0.12583533 0.045769833 0.5466785 0.64968675 0.7631023 0.8466716 0.863373 0.11408544 0.19246547 0.62670135 0.05181091 0.13366723 0.29159796 0.6731164 0.10716493 0.2204899 0.3128558 0.37348902 0.36511832 0.7156838 0.78016007 0.21333134 0.27437946 0.37830257 0.5088517 0.43619555 0.7705364 0.3517926 0.31055456 0.371627 0.455279 0.5221901 0.6741853 0.72911066 0.7703825 0.77885276 0.42831814 0.39256206 0.35323888 0.34772307 0.3481711 0.3697973 0.44563985 0.58499134 0.59956115 0.6349299 0.3518277 0.40797642 0.6365433 0.62425137 0.5359784 0.35544205 0.3973174 0.405823 0.41537178 0.38829774 0.65036416 0.65206766 0.34859633 0.3748359 0.3603254 0.63648903 0.13662192 0.28092232 0.25250643 0.31940502 0.33365643 0.47008783 0.5243117 0.515482 -0.03390062 0.22079681 0.25266263 0.27959 0.3892201 0.44897652 0.5022702 0.52321094 -0.08202011 -0.14162844 -0.054539956 0.06512974 0.23403177 0.25528774 0.29103822 0.45507306 0.2485081 0.13303746 0.17155373 -0.06477443 0.16079083 0.196493 0.20607656 0.31700206 0.46350533 0.3772349 0.24952774 0.17181067 0.06514744 0.104095735 0.2272129 0.37831694 0.33592287 0.2697205 -0.05242964 -0.06725531 0.0022659302 0.28884014 0.26706073 -0.12296328 -0.15058097 -0.16847205 0.19295914 -0.14062557 -0.025475748 -0.0035419166 0.1640455 0.13774739 0.15875658 -0.003540203 0.27407128 0.10947828 0.007499784 0.30810398 0.31967288 0.09198107 0.35670334 0.11393545 0.11888141 0.3310688 0.44346112 0.45902255 0.48044425 0.44167078 0.48149186 0.4566469 0.48909014 0.50501823 0.4840687 0.49071252 0.5026395 0.41025943 0.19583008 -0.017743379 -0.022702264 0.46315914 0.4620632 -0.115761 -0.16163325 -0.0031284383 0.26794338 0.37166405 -0.19923311 -0.03824555 -0.2682954 0.3232112 0.46101183 0.4165076 0.14079013 -0.13069841 -0.16097033 0.03466145 0.0865625 -0.21173206 0.6521587 0.45655733 0.42067072 -0.15796176 -0.11321193 0.18500684 -0.12211454 0.64793706 0.72723377 0.4436721 0.38548225 -0.12280598 0.19862543 0.1621732 -0.15088534 -0.39430693 -0.40942276 -0.14057206 0.6888819 0.7341637 0.32640746 0.23737067 0.15110493 0.05009594 -0.016822202 -0.0329957 -0.30208105 -0.21282914 -0.124928296 0.054951176 0.38636824 0.77226526 0.7440846 0.2845177 0.20924276 0.13721898 0.008375749 0.0018332079 -0.03571418 -0.016191691 -0.13572162 0.54257727 0.53882253 0.6523968 0.79814875 0.7738192 0.25063613 0.3554293 0.01677844 0.11088382 0.246934 0.4113724 0.40329668 0.28430045 0.5155548 0.102704085 0.46015188 0.44634312 0.31977767 0.5164293 0.24279806 0.28286076 0.5973465 0.46508414 0.30308428 0.6273413 0.32999265 0.2906974 0.5726279 0.5995246 0.5212082 0.54946464 0.58891994 0.6141534 0.66651154 0.67968094 0.3104816 0.31500855 0.259691 0.47184336 0.54640746 0.5926732 0.6761986 0.2547598 0.34061062 0.30782261 0.34077954 0.44092745 0.5411477 0.28965652 0.35579073 0.36279476 0.46093726 0.3402234 0.31110492 0.39272207 0.39898682 0.40039727 0.3940461 0.48034436 0.5464709 0.3835216 0.355886 0.3858773 0.42760733 0.45017183 0.606017 0.293077 0.26915967 0.363397 0.39635313 0.4141147 0.37511393 0.5794194 -0.17399 0.22626995 0.3001123 0.32626635 0.33778334 0.3141725 0.47979116 0.105192326 -0.16947371 0.29073596 0.27299142 0.23635182 0.18923299 0.39724886 0.46720058 0.41996825 0.18442574 -0.20672838 0.26639262 0.40355706 0.5398071 0.5004101 0.36761165 0.25122505 0.08018224 0.043412745 0.16528787 -0.047108278 0.21023697 0.53822947 0.49431533 0.10680189 -0.030070499 0.12308329 0.48111516 0.44727275 -0.09343499 -0.206226 0.06317978 0.37056577 0.3017723 -0.030741729 0.15701818 -0.039199874 -0.058207497 -0.3005161 0.09850722 0.10335783 0.064223014 -0.17879367 0.21039999 -0.030185226 0.02423508 0.2641009 -0.011291418 0.24072117 0.30804715 -0.013944953 0.3004319 0.23642 0.10146337 0.33559144 0.40470392 0.46341252 0.3252463 0.49657813 0.39618367 0.49753207 0.40870702 0.4663095 0.16133669 -0.02023238 -0.22806525 0.2965615 -0.050798267 0.35448188 0.5051784 0.3952222 -0.16949916 0.06295796 -0.005647853 -0.218061 0.42178714 0.58118314 0.51548386 -0.025123365 0.094711244 -0.15823027 0.43870914 0.5519701 0.5711618 0.50149757 0.1669204 -0.0920005 -0.17101023 0.6162294 0.476265 0.19105187 -0.057620868 0.6193453 0.68728423 0.41031146 0.23710787 -0.25543278 -0.041817524 0.39666745 0.37912613 0.29420447 0.08353789 0.10442971 0.43850714 0.36657068 0.1536941 0.5776977 0.48576784 0.465148 0.30758575 0.6201214 0.4977088 0.46494132 0.48267174 0.3193372 0.24829559 0.19202057 0.6251224 0.54598 0.544909 0.5718547 0.46907645 0.442722 0.5386027 0.16362879 0.1494811 0.041415196 0.6223376 0.5776651 0.59315425 0.5510587 0.25276402 0.35996664 0.49932572 0.6004847 0.623844 0.20093651 0.22666588 0.34560183 0.4493087 0.21529397 0.18453018 0.30271745 0.32030967 0.2724197 0.2433972 0.22481158 0.27656627 0.3383617 0.3964741 0.44324058 0.4914666 0.5206411 0.446634 0.3006581 0.28698647 0.37857974 0.44314486 0.47869775 0.47355163 0.3970878 0.17099996 0.010595266 0.26290148 0.39491832 0.38255656 0.3830776 0.40558043 0.4054693 0.32470334 0.28549808 0.3162501 0.36711788 0.29125118 0.36452582 0.21340232 0.2574266 0.31414962 0.3274577 0.5132185 0.43709093 0.29296005 0.21897794 0.17459357 -0.27570003 0.2617019 0.21944432 0.20004983 0.5342685 0.5364901 0.11924241 0.06781797 0.11378854 0.15429428 0.5373733 0.54207647 -0.011256386 -0.253519 -0.16649269 0.09362495 0.51611495 0.4924186 -0.15860987 0.07416292 0.47262728 0.39497417 -0.22170748 -0.26966506 0.0029188842 0.3097357 0.21527097 0.08573498 0.15471415 0.03366174 0.18049188 -0.022283286 0.16489412 0.13840446 0.051695116 0.112981506 0.2569586 0.2651214 0.184242 -0.13315141 0.2907337 0.25006527 0.2383787 0.2940317 0.2236358 0.33052492 0.4379398 0.2550034 0.20431945 0.3989999 0.20158924 0.23808762 0.428783 0.14965211 0.2866539 0.11487607 0.48097903 0.59840274 0.55312 0.2908299 0.6333195 0.08966035 -0.18213472 0.35426545 0.44464797 0.6250528 0.4774769 0.5406266 0.5596812 0.14952445 0.36700687 0.3761931 0.43845582 0.20373948 0.112910524 -0.07474962 0.23658921 0.36343122 0.35916895 0.29116574 0.14395933 0.039718464 0.08826561 0.42890733 0.45994222 0.32983217 0.15277036 0.5765225 0.48633617 0.5121453 0.38192752 0.3170599 0.15104803 0.5890721 0.5344865 0.5419911 0.2002259 0.0019655796 -0.020205129 0.62740517 0.5594434 0.56658804 0.4644622 0.42164123 0.6289596 0.58168936 0.6157478 0.56951463 0.5099323 0.48964214 0.10014188 0.6056432 0.61690944 0.17681916 0.48568547 0.59676707 0.67946815 0.6038624 0.50228083 0.53912663 0.68063354 0.6485293 0.60738504 0.18794468 0.050204586 0.1846633 0.15848918 0.011846628 0.010174168 0.2976128 0.39870226 0.49376568 0.5763067 0.61530703 0.25318795 0.012210794 0.5321611 0.5680158 0.60330355 0.439898 0.4615142 0.31146586 0.41935015 0.4424848 0.37198973 0.42770636 0.32909238 0.30426234 -0.09321989 0.26451683 0.31547004 0.3747298 0.39550218 0.29805022 0.4870245 0.4343036 -0.0013574362 -0.380179 0.07585715 0.51515126 0.5055245 0.010635987 0.5224732 -0.114399984 0.061564967 0.5167135 -0.64044565 -0.0044333246 0.47149307 0.19177985 0.061551664 0.10986972 0.061304085 0.047003165 0.08535339 0.1791737 0.051962174 0.27521223 0.06810193 0.31430715 0.30542243 0.009174159 0.344857 0.32103413 0.038445655 0.31218946 0.20553435 0.206699 0.1399509 0.21715477 0.055861056 0.1040007 0.017274454 -0.2537799 0.4776457 0.4087231 -0.037230875 0.5506884 -0.15175946 0.09632801 0.63934946 0.0122132 -0.17229 0.61594373 0.07263967 -0.10450983 0.24725924 0.5474906 0.11160487 0.026199795 0.086975664 0.3632346 0.17674166 0.1769894 0.14699829 -0.0846728 0.32885402 0.24717669 0.2911802 0.20850366 0.44783002 0.3147242 0.1674405 0.5485343 0.3689409 0.016362349 -0.12162088 0.5755657 0.577566 0.579148 0.43345803 -0.20272736 0.5821984 0.59295774 0.53389657 0.50942576 0.4500637 0.1392445 0.008023381 0.57661337 0.6050215 0.6059618 0.5620109 0.5393374 0.14645492 0.5718584 0.584041 0.27453965 0.5712579 0.58223426 0.5578118 0.83185405 0.8319021 0.76914126 0.692969 0.6635168 0.89096 0.821753 0.75327915 0.72477186 0.2597084 0.24131368 0.20624565 0.24622312 0.20559515 0.10475437 0.12766844 0.1652353 0.19993365 0.006573025 0.07804165 0.12369825 0.52470994 0.6037921 0.6499574 0.06710836 0.08893134 -0.056503635 0.07570246 0.090653025 0.21368632 0.32194152 0.47749174 0.59601897 0.6526845 0.66798913 0.64995503 0.42955863 0.3128786 0.33143592 0.012354828 0.40714645 0.36669594 0.42043197 0.08915526 0.16417676 0.42976838 0.33555716 0.41942504 0.26483446 0.48984432 0.44340152 0.50184107 -0.07742889 -0.03732636 0.49329764 0.43999833 0.09400773 0.26558894 0.34300566 0.14933188 0.13694802 0.026644273 0.12130822 -0.014513889 0.12291422 0.080071285 0.1403746 0.23743305 0.17827223 0.3352869 0.15804596 0.36975637 0.0646794 0.34424576 -0.03679924 0.26688802 0.20202087 -0.06699406 0.064988814 0.13848743 -0.140208 0.3574295 0.2980667 -0.07781473 0.4340179 0.017460793 0.53238857 -0.25046754 0.19075248 0.50939274 -0.09574724 -0.13227117 0.18767597 0.47412163 0.28007182 0.0822