# vtk DataFile Version 2.0
Really cool data
ASCII
DATASET POLYDATA
POINTS 12674 float
-31.721664 -5.0832148 35.039845
-31.948792 -5.171302 35.611965
-32.005806 -5.048472 36.410362
-31.916946 -4.932855 36.932453
-31.910221 -4.403202 34.99986
-32.175957 -4.4943333 35.660248
-32.24949 -4.3662844 36.43551
-31.998573 -4.4023085 36.977596
-31.864899 -3.785487 34.995667
-32.114353 -3.6513038 35.68562
-32.151436 -3.6860757 36.32976
-31.99503 -3.8735318 36.946747
-31.854311 -3.0857446 35.6677
-31.83203 -3.1748922 36.35913
-31.545898 32.842667 27.49965
-31.54114 33.110588 27.611366
-31.531807 33.257473 28.032501
-30.729904 -6.6975346 35.130394
-31.001963 -6.730608 35.692226
-30.906952 -6.7799196 36.429527
-30.9008 -5.807989 34.20752
-30.929077 -6.4226108 34.926342
-31.232626 -6.3264494 35.55563
-31.171755 -6.359524 36.500046
-30.877626 -6.6435194 36.81938
-30.908752 -5.191982 33.871857
-31.496614 -5.2187457 34.719704
-31.691534 -5.036789 37.093216
-31.014774 -4.4206247 33.89894
-31.48732 -4.4250116 34.49625
-31.614946 -3.4479103 34.815857
-31.498827 -3.6186423 37.210564
-31.275482 -2.8345718 34.948532
-31.404043 -2.6932876 35.526386
-31.450075 -2.916382 36.408886
-31.211267 -2.9653134 36.746246
-30.56884 1.8356519 35.345394
-30.54935 2.9857652 33.14631
-30.621729 2.8095791 33.8039
-30.73597 2.8649597 34.534718
-30.61236 2.2584076 35.161674
-30.716684 3.5905867 33.640625
-30.768242 3.4900315 34.447506
-30.687502 3.2273643 35.09154
-30.57789 3.9892457 33.104103
-30.671593 4.3422046 33.629723
-30.752462 4.548766 34.534782
-30.612064 4.428512 35.01344
-30.613617 5.086735 34.035076
-30.605902 5.082305 34.464115
-30.57324 4.996424 35.130783
-30.910353 32.148872 26.967941
-31.121725 32.108868 27.598032
-31.063765 32.20013 28.32286
-31.170837 32.665337 26.89467
-31.430595 32.58638 27.436296
-31.371225 32.666195 28.240881
-30.90561 32.737156 29.079697
-31.092447 33.349983 26.809351
-31.443146 33.422268 27.524628
-31.369661 33.306053 28.428976
-30.955557 33.409454 29.255524
-31.041761 33.897663 27.031998
-31.136349 34.06231 27.571884
-31.070004 34.18773 28.406775
-30.745152 34.440693 29.169544
-30.698708 34.957584 28.35378
-30.63669 34.93486 29.113375
-29.585747 -8.898683 31.115715
-29.621979 -8.960439 31.499256
-29.616253 -8.860179 31.929916
-29.62363 -8.424743 31.047918
-29.715797 -8.479109 31.437382
-29.673407 -8.72105 31.898672
-29.89001 -7.9886775 38.718273
-29.8716 -8.108838 39.544106
-29.781507 -8.033358 40.045624
-29.661713 -7.8992496 31.686424
-30.444738 -7.091421 35.6747
-30.471764 -7.1278796 36.176468
-30.117401 -7.4978995 38.637497
-30.229748 -7.335467 39.552578
-29.90937 -7.431693 40.2339
-30.622276 -5.805228 33.75899
-30.117487 -6.497458 34.33513
-30.351198 -6.777175 38.925575
-30.289938 -6.743136 39.383442
-29.985939 -6.7937593 40.24517
-29.66022 -6.593884 40.69449
-30.33748 -5.631971 33.568714
-29.985254 -5.9562197 38.458904
-30.198347 -6.121318 38.984684
-30.103905 -4.7010107 33.041733
-30.741951 -4.80241 37.48315
-29.970736 -4.022136 33.12475
-30.476315 -3.8145878 33.538094
-30.225721 -3.7055714 37.271908
-29.771248 -3.1974738 33.463516
-30.66791 -2.6020553 34.778976
-30.002356 -2.5317767 36.128277
-30.083178 -2.3104095 35.550232
-29.8496 0.44656062 33.844997
-29.862837 0.52402985 34.617603
-29.759565 0.8349831 35.42323
-29.686165 1.1222283 36.540874
-30.13996 1.5426886 33.578766
-30.352657 1.5787205 34.42604
-30.305536 1.8340889 35.776127
-30.104015 1.7164959 36.18748
-29.57876 1.3953054 36.919357
-30.262424 2.7616196 32.782883
-30.484804 2.5535536 33.603573
-30.140892 2.4683204 36.33865
-29.541115 2.6073794 38.097183
-29.918043 3.4791212 32.347736
-30.345327 3.549045 32.775173
-30.488016 3.2845294 35.699856
-29.904333 3.5419695 36.286884
-29.548477 3.665028 38.8281
-30.20116 4.2113676 32.809204
-30.521523 4.6983905 35.078785
-29.954237 4.715279 35.817356
-29.560886 4.2098103 38.67187
-29.534447 4.408135 39.026196
-29.97802 5.1159363 33.18092
-30.292849 5.2748113 33.704
-30.35119 5.528862 34.541935
-30.39098 5.196132 35.16825
-29.799974 5.333307 35.85596
-30.035192 5.764805 33.957924
-30.068302 5.844093 34.525593
-29.93031 5.8420544 35.08503
-29.640823 26.14061 39.402054
-29.740728 26.670244 38.763657
-29.984322 26.90686 39.570614
-29.787191 26.811771 40.176342
-29.99934 27.580984 38.644035
-30.141113 27.523733 39.59941
-29.938381 27.538616 40.12517
-29.668802 29.004068 37.213238
-29.837923 28.778118 37.89508
-30.02416 28.396284 38.685894
-30.130518 28.321331 39.392437
-29.85079 28.279928 40.225655
-29.894278 29.591253 37.698868
-30.044096 29.503658 38.459393
-29.938541 29.30274 39.164894
-29.641817 29.379284 39.84071
-29.610722 30.221893 37.155186
-29.782745 30.366373 37.772423
-29.78057 30.461452 38.44501
-29.7446 30.380861 39.025005
-30.689184 32.19324 26.683237
-30.646215 31.843636 27.704258
-30.48176 31.872986 28.285929
-30.24705 32.18887 29.237167
-29.610256 30.733932 38.79537
-30.338573 32.75373 26.18236
-30.295525 32.542522 29.515324
-30.222036 33.020153 30.175589
-30.042315 33.404224 25.951809
-30.573738 33.801567 26.47456
-30.563587 33.86627 30.017056
-29.7434 33.764763 30.791153
-29.989508 34.20556 26.203426
-30.410744 34.309124 26.653511
-30.228941 34.38911 30.078703
-29.93535 34.860603 26.637732
-30.423674 35.049294 27.478052
-30.391212 35.56374 28.789898
-30.22021 35.61732 29.4549
-29.956556 35.379738 30.105068
-29.835955 36.184605 27.805449
-30.010864 36.405098 28.722551
-29.915823 36.13034 29.510258
-28.816862 -9.600846 30.942144
-28.911943 -9.747971 31.51239
-28.823305 -9.015109 30.24364
-29.143269 -9.175853 30.755785
-29.27014 -9.369427 31.487526
-29.039537 -9.285362 32.44589
-28.776749 -9.007692 32.900784
-29.152437 -8.6749115 38.81074
-29.151634 -8.740012 39.53725
-28.887602 -8.699738 40.21247
-28.938063 -8.412499 30.177767
-29.330976 -8.435228 30.60628
-28.68769 -8.547125 33.131542
-28.888771 -7.7321258 36.90348
-29.068193 -8.386365 38.082325
-29.516502 -8.493025 39.583694
-29.36632 -8.300699 40.25869
-29.148714 -8.051547 40.67544
-28.744564 -7.772765 30.113632
-29.1982 -7.6079674 30.81802
-29.551075 -7.6267195 31.528496
-29.551031 -7.1102386 34.876312
-29.445417 -7.322214 35.63999
-29.626568 -7.6132336 40.60686
-29.32927 -7.3584886 40.82399
-29.160177 -6.3111854 32.870266
-29.580484 -6.44 40.648834
-29.31549 -6.653528 40.925087
-28.90641 -5.64277 32.520687
-29.31153 -5.720826 40.505344
-28.969273 -5.7653847 41.09349
-29.335869 -4.361 32.6883
-28.918705 -4.5503616 39.45962
-29.028042 -4.723971 40.22697
-28.708458 -4.469758 41.427837
-29.007109 -3.4730666 38.058437
-29.006783 -3.4893014 39.40286
-28.88329 -3.3062258 40.44611
-28.778818 -3.3084424 40.90348
-28.97534 -2.6842546 33.523254
-29.561731 -2.579515 34.30148
-28.864971 -2.7047877 37.22323
-28.80258 -2.451634 38.41192
-28.898186 -2.8244302 40.27006
-28.75868 -2.9865737 40.80226
-28.691786 -1.5275141 37.815956
-28.748627 -2.2573318 39.731026
-29.219786 -0.049022287 32.862175
-29.27372 -0.29601604 33.247917
-28.784906 -0.71527183 34.356895
-28.88842 -0.058565453 37.408455
-29.304708 0.7132985 32.601063
-29.328508 0.8927396 36.67486
-29.168108 0.6955872 37.374226
-29.337132 1.8753328 32.301643
-29.681152 1.9453166 32.54178
-29.473698 1.456102 36.947483
-29.354033 1.8479873 38.041714
-29.5609 2.342918 32.31849
-29.329317 2.817477 38.69149
-29.162893 2.9328475 39.56989
-28.834 2.8237743 40.12052
-29.266323 3.5462942 32.135605
-29.352667 3.488281 39.52666
-28.901234 3.475368 40.356373
-29.381622 4.3702254 32.322006
-29.408562 4.692009 36.41117
-29.309042 4.3943753 37.13316
-29.43509 4.4869494 38.723984
-29.373646 4.415985 39.353207
-28.991817 4.343821 40.18556
-29.300852 5.0840235 32.82644
-29.279964 5.2892785 36.323948
-28.871418 5.201658 37.582817
-29.043032 5.2401614 38.773445
-29.053112 5.121976 39.446106
-28.737917 5.2172136 40.068344
-29.431248 5.9679327 33.804268
-29.466578 6.1826134 34.528984
-29.394855 6.079126 35.249172
-29.573256 5.7318087 35.732224
-28.605894 5.8045316 39.55027
-28.873451 26.263222 37.943188
-29.259132 26.06482 38.659504
-29.352535 25.870068 39.346096
-29.309898 25.955753 40.021748
-29.01326 26.85644 24.765388
-29.060448 26.914606 25.38955
-28.860472 26.976704 25.974894
-28.760126 26.837244 37.1534
-29.229439 26.867777 37.708527
-29.534758 26.37091 38.63281
-29.385372 26.65155 40.565235
-29.10449 26.584433 40.82517
-28.686466 28.028645 23.06215
-28.928825 27.630148 23.788055
-29.267456 27.492184 24.719263
-29.284128 27.4502 25.392693
-29.034458 27.584885 26.052792
-29.033533 27.641018 37.108475
-29.57364 27.336823 37.92959
-29.499098 27.314129 40.62816
-29.17529 27.369175 40.927444
-28.879854 28.436914 23.525856
-29.154274 28.276012 24.423779
-29.23444 28.401123 25.433079
-29.042213 28.237852 26.07922
-29.15055 28.529892 36.84225
-29.63422 28.195107 40.569523
-28.76221 28.975876 23.785646
-28.9078 29.152918 24.577293
-28.965603 29.01074 25.588707
-28.736422 29.118496 26.028912
-28.949236 29.61558 36.27971
-29.352644 29.756378 36.64927
-29.307621 29.17599 40.145447
-29.057716 30.213194 36.364525
-29.331913 30.3553 36.777752
-29.397114 30.722164 37.21484
-29.487127 30.385902 39.483692
-29.15691 30.335163 39.795975
-29.43779 32.011337 26.764467
-29.60799 31.695124 27.90863
-29.52357 31.817316 28.166346
-29.077105 31.853643 29.136889
-29.372147 32.242443 29.938803
-28.954088 31.473677 37.672836
-29.151192 31.265574 38.43906
-29.16154 30.892027 39.281868
-29.549694 32.79419 25.907658
-29.582685 32.715225 30.409353
-28.764576 32.71376 31.040318
-28.721859 33.01173 33.33482
-28.68691 33.15276 34.23644
-28.715244 33.024033 35.019753
-29.415022 33.485622 25.700857
-28.926025 33.650776 32.688084
-28.979576 34.016907 34.005302
-28.926062 33.593307 34.373432
-28.82257 33.736267 35.372505
-29.448492 34.164932 25.915594
-29.134743 34.50719 31.90022
-29.0297 34.373657 32.793762
-29.057682 34.2989 33.563297
-29.097715 34.53349 34.470276
-28.887695 34.556446 35.16629
-29.404423 34.881306 26.301682
-29.601742 35.06675 26.5032
-28.908638 35.44963 31.310295
-28.820452 35.274708 32.559185
-28.907633 35.196407 33.781693
[...]
POINT_DATA 12674
SCALARS features_00 float 1
LOOKUP_TABLE default
0.58063674 0.6582385 0.7175431 0.7073463 0.6553855 0.74188817 0.78048354 0.753298 0.69841635 0.77194107 0.7876781 0.7653277 0.7622541 0.7662608 0.8119328 0.7895331 0.7518764 0.45622534 0.45555136 0.40974706 0.45779437 0.46996737 0.49053872 0.46997252 0.3754258 0.44650954 0.52662456 0.6590619 0.46968967 0.5561143 0.67698956 0.7050965 0.68469894 0.725453 0.7235919 0.6808721 0.34467945 0.5280198 0.50786006 0.48577088 0.39788824 0.5635147 0.52815044 0.47276294 0.5950192 0.60474056 0.5620835 0.5131036 0.60340124 0.57580745 0.5148686 0.8604064 0.82883775 0.7790543 0.83151644 0.82613426 0.7821264 0.69621384 0.7582457 0.757643 0.7151945 0.6294644 0.681888 0.6610855 0.587062 0.4687872 0.45483136 0.40356708 0.68877196 0.6895946 0.671782 0.6770272 0.6805975 0.6697615 0.6071313 0.6429682 0.6293428 0.6148301 0.40123978 0.36737862 0.5906618 0.62935126 0.6090257 0.41146818 0.42235872 0.564006 0.57558393 0.55810046 0.5196077 0.3778759 0.302516 0.4264291 0.32118317 0.49777293 0.30706778 0.4160537 0.40433216 0.2925797 0.616822 0.547938 0.6176462 0.3590463 0.3290476 0.25401825 0.15039518 0.4394487 0.4001335 0.29623276 0.23814675 0.11113531 0.5057241 0.49515736 0.27301443 0.24523695 0.50998026 0.55481577 0.4176028 0.33461857 0.42155927 0.60309976 0.51035124 0.41137284 0.38498318 0.44010758 0.6371658 0.62443256 0.565855 0.5104399 0.4224641 0.6017375 0.5575799 0.5073097 0.5807435 0.56370324 0.62029946 0.56552166 0.60228765 0.61644185 0.57009363 0.47693643 0.5378843 0.59275615 0.5887755 0.52954566 0.53307617 0.5528505 0.53118026 0.47113842 0.47444105 0.52163416 0.52612925 0.5005661 0.8659824 0.80438113 0.7205883 0.5852168 0.50075084 0.7702731 0.57557636 0.5119081 0.60303015 0.6267622 0.4947278 0.34415215 0.5002201 0.5425014 0.3824618 0.41530138 0.46449372 0.34249038 0.29180014 0.25050506 0.30389515 0.29059544 0.2380082 0.6560726 0.6593653 0.6656338 0.6797513 0.6806917 0.62422395 0.5279398 0.54471654 0.59225345 0.5866203 0.672823 0.67778677 0.45351577 0.15094723 0.42103755 0.6235708 0.6194236 0.59836555 0.6180664 0.5916868 0.56954086 0.35121864 0.27089202 0.6037172 0.5756947 0.13620909 0.49796557 0.5054761 0.12945403 0.39015934 0.3666765 0.1991509 0.25601137 0.31339353 0.3357999 0.005253285 0.22197801 0.3073745 0.33253604 0.05391738 0.35087183 -0.060954176 0.053720336 0.2820061 0.32359457 -0.04855901 0.2231749 0.26306155 0.23915641 0.16868642 -0.03793273 0.326062 0.1059493 0.0062297545 0.3439839 0.41403478 0.10693236 0.13258334 0.4055139 0.38205475 0.48098093 0.49308532 0.4439729 0.49979705 0.5304566 0.5528619 0.29670352 0.19557719 0.388972 0.485228 0.54241085 0.5993084 0.31852317 0.20757285 0.3944701 0.4891549 0.5357002 0.5729808 0.517872 0.46277434 0.42951286 0.50346965 0.41532964 0.47937042 0.5469179 0.5382017 0.72141767 0.7597269 0.77598214 0.38054037 0.4327982 0.51432824 0.4796664 0.40353912 0.4938478 0.6276715 0.78488064 0.8115659 0.8267851 0.38976324 0.4815938 0.4865493 0.41683486 0.56070375 0.72503185 0.8179374 0.83383083 0.39479706 0.48886794 0.54510725 0.6059723 0.7402586 0.74692285 0.3640108 0.4224977 0.43943003 0.37305608 0.42190957 0.44959545 0.45834088 0.40683907 0.832764 0.60880435 0.5674028 0.42790663 0.35951713 0.40341407 0.46719447 0.44022936 0.6719742 0.36441275 0.05425006 0.19118387 0.26226932 0.27934346 0.51299834 0.21683127 0.3624204 0.33703732 0.4353036 0.44348493 0.115369186 0.2782813 0.35387737 0.46269727 0.5182705 0.35021016 0.34867463 0.035645843 0.20353529 0.42833745 0.5097457 0.5169445 0.3611588 0.32250178 0.28864866 0.05504415 0.49712604 0.38058496 0.27681804 0.21413925 0.05033309 0.40752238 0.3755292 0.38494104 0.34835154 0.1734549 0.45260164 0.4575621 0.46431774 0.4894274 0.48837328 0.4897754 0.5706514 0.5937691 0.58212095 0.57391614 0.6168348 0.63687307 0.37320143 0.28560567 0.45848846 0.5604012 0.55484486 0.5732984 0.6128839 0.30937907 0.23160824 0.57388586 0.5573908 0.5670631 0.55533135 0.489554 0.36288828 0.116637684 0.008715492 0.39284378 0.48982525 0.45306134 0.3299122 0.075703934 0.4120428 0.5572374 0.511861 0.02635356 0.36372423 0.38619852 0.58431625 0.524476 0.39717674 0.24934636 -0.20350921 0.30201846 0.34325048 0.49083644 0.33104146 -0.16492924 -0.07406257 0.05411037 0.14513773 0.27316886 0.29994747 0.1742529 -0.049789697 -0.040029258 0.3338665 0.37934595 0.14823414 0.42646044 0.44117835 0.31882972 0.5128278 0.54395306 0.51730436 0.46032485 0.5425236 0.52671325 0.39800793 0.36641365 0.2633416 0.29990304 0.2220031 0.41835585 0.4985469 0.525814 0.520521 0.23043449 0.29463696 0.8675846 0.8928218 0.85629237 0.78310776 0.82927036 0.85975635 0.80625606 0.69027925 0.728747 0.66927207 0.61703724 0.5743702 0.3122485 0.38967362 0.41189027 0.32567954 0.4110384 0.60144967 0.6495818 0.6704185 0.3605179 0.37907767 0.41511863 0.18618678 0.35419235 0.5662735 0.65655434 0.693701 0.73090136 0.32211617 0.37231678 0.34325594 0.4064392 0.8000401 0.7836336 0.22834292 0.3204319 0.21530974 0.07240204 0.4220044 0.8142358 0.24707127 0.34026355 0.31419158 0.3781246 0.39678627 0.3696257 0.4326408 0.48378706 0.66127235 0.27736917 0.22822988 0.19618836 0.22605932 0.33294326 0.48160073 0.4897328 0.37022072 0.36652878 0.36876053 0.4518804 0.1745817 0.112630695 0.13956673 -0.07808478 0.30757916 0.29268065 0.42466384 0.48354018 0.536513 0.3649896 0.30205008 -0.086657375 -0.110577315 -0.012878779 0.01052317 0.14598829 0.22952834 0.39316756 0.43681705 -0.006764345 0.12501608 0.121087246 0.11600451 0.26903588 0.28150767 0.20966718 0.34874374 0.43690062 0.2927162 0.48704314 0.41894665 0.36606097 -0.013604833 -0.0077906884 0.30511007 0.44475573 0.45200217 0.38680324 0.45285282 0.018893037 0.4710095 0.44726044 0.26421657 0.4749604 0.47017 0.5207491 0.5484793 0.5939818 0.50407904 0.51241314 0.52294284 0.5379913 0.5816344 0.64680403 0.6458757 0.5439306 0.55246097 0.56606996 0.62993777 0.65983784 0.53269744 0.5017525 0.46269864 0.39866853 0.24384874 0.53569406 0.5489214 0.17694288 0.12870823 0.19284788 0.38598198 0.43680602 0.38741177 0.543629 0.06574826 -0.088275015 0.3878346 0.31619024 0.5085865 0.49320498 0.32686093 0.4380359 0.48126048 0.51385856 0.44179976 0.19932215 0.48018205 0.53550285 0.52954024 0.44292012 0.49135196 0.5949167 0.40895978 0.4724239 0.6279043 0.3215065 0.37164125 0.5954839 0.52360785 0.30021775 0.19194898 0.37148088 0.21498436 0.023283336 -0.12751205 0.1695195 0.10946992 0.116222024 -0.0065421686 -0.028178982 0.3958989 0.42101812 0.31911984 0.040920038 0.34413758 0.65754235 0.57181805 0.34750244 0.68283 0.59140956 0.440152 0.23665915 0.09725933 0.44406706 0.58839476 0.37819523 0.2637204 0.1899016 0.41197896 0.49995488 0.48546153 0.17499134 0.18425429 0.17882806 0.15657385 0.17248788 0.25923413 0.33955908 0.42624992 0.4799354 0.87248945 0.8530267 0.86410266 0.8913153 0.84829545 0.76882124 0.74381757 0.6664213 0.5723467 0.5106232 0.47036237 0.5857478 0.5391114 0.47184485 0.37146872 0.30820912 0.44849205 0.4636141 0.5037133 0.4591443 0.44207063 0.5363364 0.19488332 0.23329474 0.215384 0.3527447 0.30360782 0.6309837 0.70269537 0.096505694 0.27413926 0.69159895 0.014612898 0.20574182 0.2944088 0.3047036 0.30157888 0.26271927 -0.030287612 0.4063726 0.19573814 0.27818996 0.636918 0.6484753 0.2784364 0.29789662 0.30154938 0.24570133 0.46583283 0.23386163 0.30287555 0.28986058 0.28213555 0.117593646 0.0859731 0.4565996 0.45679694 0.2400214 0.23318276 0.11021673 0.41073695 0.39034498 0.029456556 -0.04771635 0.07345563 0.30601388 0.33920115 0.34880483 0.37608534 0.14530164 0.23146056 0.26323205 -0.032746203 -0.101964116 0.19847074 0.27643815 0.3334244 0.16251484 0.25372747 0.44363862 0.29324552 0.47144407 0.05081986 0.49401373 0.4141166 0.67154086 0.5295703 0.5245984 0.593285 0.7325244 0.7228166 0.5793038 0.5559603 0.63691103 0.58891004 0.56946 0.5803857 0.62661266 0.6715443 0.655177 0.58187103 0.593423 0.61266327 0.37280852 0.3048906 0.33055934 0.4183867 0.44185823 -0.025306752 0.12025022 0.5132314 0.47093984 0.06200947 0.2037079 0.36689737 0.3791262 0.3321751 0.48599693 0.46999794 0.45028746 0.26162344 0.40226293 0.45208 0.30895674 0.42906028 0.52598035 0.27489588 0.568072 0.56191564 0.5539217 0.6377382 0.43617883 0.62743556 0.32208264 0.57379234 0.08405153 0.41878814 -0.18234411 0.22309849 -0.14991109 -0.0705784 0.28693956 0.0426821 0.06790063 0.022628777 0.67177665 0.53370416 0.20959236 0.022757448 0.76820034 0.7106859 0.23563729 0.7120135 0.7343776 0.76999605 0.718688 0.3292756 0.7790568 0.81609416 0.81564724 0.71368396 0.6539631 0.56166846 0.4373599 0.7961321 0.8378272 0.85188556 0.561531 0.50368226 0.4151074 0.275325 0.20488556 0.18658632 0.19141862 0.18660778 0.17278212 0.16367185 0.28627998 0.34056985 0.410801 0.8121755 0.82926816 0.19594097 0.19612314 0.81559145 0.8249839 0.7976924 0.74059683 0.78998744 0.7274372 0.5428357 0.62263197 0.5969582 0.6254802 0.65411156 0.6547472 0.57040215 0.5066503 0.40373248 0.43383318 0.5675684 0.6112352 0.6345304 0.5583882 0.44771284 0.0872221 0.45234162 0.47501522 0.33661908 0.4684784 0.038908467 0.2613408 0.508942 0.5589105 -0.11467391 -0.09649555 -0.03133265 0.1163522 0.3486519 0.5779535 0.2417999 0.17740859 -0.056901634 0.1468675 0.09021196 0.2194708 0.33848786 0.13442446 0.118538424 0.07420774 0.3963729 0.3805524 0.17605591 0.19316366 0.16994356 0.06844888 0.41288024 0.3683596 0.19855082 0.21134633 0.21199463 0.115189694 0.17972209 0.37605044 0.2862901 0.22020078 -0.3024941 0.29421195 0.26041538 -0.10029308 0.19670445 0.28939462 0.26963595 0.06467171 0.28091535 0.25494662 0.39659578 0.10051769 0.18513033 0.2819697 0.30472568 0.2567081 0.41190422 0.08049052 -0.008012218 0.47312957 0.4919247 0.4281645 0.33457267 0.4778186 0.112066 0.5747242 0.6566314 0.6224294 0.5778879 0.4558705 0.5619155 0.4868388 0.3276006 0.6787615 0.7317804 0.7317889 0.681848 0.6301442 0.65964353 0.5990838 0.72713304 0.777895 0.7627922 0.7190983 0.6784378 0.63323206 0.5886953 0.6418791 0.6662199 0.64948153 0.7597512 0.58768773 0.6012924 0.61576843 0.47383764 0.51120317 0.14766212 0.14461184 0.3306373 0.24496347 0.15271468 0.10233528 -0.01002422 0.37357047 0.08544705 0.15827018 0.38457206 0.30387396 0.2917181 0.4027694 0.26519907 0.23250335 0.23064037 0.36152887 0.407717 0.524129 0.28154793 0.24363407 0.583424 0.3391374 0.50305307 0.46517664 0.36416698 0.47906953 0.14515933 0.34975457 -0.14352986 -0.11386732 0.0124919005 0.15842482 0.041662008 0.07724672 0.21442842 0.03864289 0.08881502 0.09636817 0.081297316 0.08078182 0.7614099 0.7263454 0.031313624 0.5305966 0.52778804 0.80241513 -0.017088756 0.576661 0.61669993 0.66490114 0.64027214 0.8040768 -0.023093522 0.020042911 0.4649923 0.76470613 0.75311875 0.7096583 0.62897456 0.028575331 0.2179135 0.1793077 0.039531395 0.7255378 0.84730196 0.8351966 0.60966796 0.56208 0.48353374 0.3581134 0.18033284 0.17971905 0.17984892 0.16040373 0.14156269 0.15773125 0.015101507 0.17141882 0.26642555 0.2633568 0.34837872 0.68736017 0.7465735 0.79807067 0.8147665 0.4808746 0.427261 0.35528117 0.14410552 0.18110651 0.19906831 0.40641785 0.65813446 0.7409352 0.72857535 0.70662105 0.698543 0.72078216 0.6120613 0.58505845 0.539711 0.5108892 0.48720765 0.34961396 0.5961027 0.6095073 0.5642607 0.525578 0.5016537 0.17115147 0.33808446 0.09320602 0.30509862 0.39788926 0.4853797 0.5318001 0.53563404 0.30683202 0.06509021 0.37499627 0.5364604 0.5773541 0.5696939 0.23386884 0.3508976 0.20499873 -0.1482462 -0.14615025 -0.1543728 0.44575948 0.5664166 0.58200836 0.5787697 0.15673281 0.26925027 0.07399255 -0.17230347 0.54259455 0.5583812 0.17930731 0.11550123 0.053643472 -0.050788406 -0.012383927 0.043040052 -0.08307991 0.13662541 0.21140996 0.19147184 0.12685488 -0.044498812 -0.06378801 0.27291012 0.16406599 0.2693161 0.15462536 0.26967815 0.31795615 0.22573075 0.2484629 0.31435052 0.25917408 0.22434106 0.2505974 0.21841307 0.25314054 -0.17473407 0.067727596 0.28685847 0.30487946 -0.27672088 -0.036655243 0.21094939 0.1708388 -0.048599213 -0.34707713 0.21907103 0.19266872 0.091277346 -0.08163826 0.21941675 0.15900657 0.3547975 -0.0102612525 0.28951642 0.33384907 0.48924834 -0.023305513 0.16394058 0.049130127 0.4149368 0.42133224 0.58651495 0.3588578 0.22953543 0.2859192 0.23178576 0.49035525 0.6172174 0.5849971 0.6396271 0.68382984 0.6068093 0.5250525 0.694806 0.72580016 0.67933416 0.7064667 0.7085221 0.6455536 0.6204443 0.63484454 0.65268236 0.7424152 0.76879966 0.72069085 0.6812235 0.6071925 0.6134008 0.55121154 0.56478596 0.5335565 0.4933961 0.5065302 0.5643163 0.5452699 0.42463607 0.34239924 0.46351916 0.40204787 0.22886553 0.27622455 0.20997411 0.18219551 0.30670756 0.009057507 0.14930823 0.16031444 0.23532966 0.23129092 0.20268422 0.1941734 0.21309802 0.24881214 0.47754785 0.1070105 0.48830765 0.28309214 0.2427522 0.3802134 0.42646873 0.126271 0.2063745 0.07056717 -0.05102951 0.063419156 0.06655278 0.100037016 -0.061789837 0.07790981 0.30488274 0.5494309 0.061532862 0.2974159 0.31988776 0.42116678 0.53550506 0.7571149 -0.09455936 0.0957323 0.57190573 0.5991534 0.7655245 0.64432067 0.6749795 -0.0622503 0.7890153 0.5974766 0.5492383 0.08785057 -0.0031958395 -0.0059922766 0.03508559 0.17053273 0.2750718 0.7869016 0.5120807 0.4788529 0.46666324 0.39583743 0.2973203 0.16466802 0.40154612 0.46051753 0.48989043 0.5339557 0.43173525 0.48285592 0.62656033 0.7185366 0.47506762 0.42786977 0.29530472 0.5601435 0.5832157 0.59877205 0.59146345 0.63786733 0.6460351 0.5608175 0.5154742 0.5838054 0.60911703 0.5038596 0.55966425 0.5823849 0.47070915 0.5099728 0.41042614 0.4104879 0.35304496 0.5441774 0.47311687 0.27916214 0.032784224 0.064248055 0.041657068 0.4817023 0.3742109 0.27664554 0.26484948 0.19020984 -0.017685443 0.121797204 0.23957431 0.28302127 0.43094546 0.5040113 0.45842695 0.34761462 0.3628044 0.39917743 0.20746133 0.18924454 0.20123716 0.21439077 0.060630113 0.49902704 0.4254762 0.31137145 0.24192584 0.19190542 0.1904315 0.14389935 0.09127487 0.07823884 0.5532719 0.49188858 0.4272877 0.10781167 0.15478978 0.1679517 0.16953483 0.14422348 0.05458222 0.5532675 0.5115702 0.4244124 0.4113915 0.16937958 0.15704042 0.041301273 0.04782337 0.109206416 0.16441272 0.40502492 0.51773936 0.5390122 0.43991807 0.37204474 0.23052657 0.1902144 -0.3850351 -0.27639976 -0.049030166 -0.059619106 0.377125 0.280082 0.23573552 -0.17499948 -0.14233574 -0.30041015 0.30927163 0.28307983 0.39236063 0.36525983 0.16124442 0.3803873 0.35098892 0.14249471 0.34074807 0.273881 0.034777444 0.086171106 0.26478353 0.3025895 0.1334633 0.1080622 0.32784387 0.35032088 0.33144784 0.20255195 -0.12376001 0.030178405 -0.012299197 -0.38484114 0.033981815 -0.20605403 0.10791555 0.13914075 0.2323953 -0.15653619 0.51929265 0.17035982 0.37563884 0.5856606 0.6009973 0.110896975 0.19341303 0.36796767 0.39434657 0.24076502 0.49195272 0.65101206 0.6927407 0.42409176 0.5205076 0.33226004 0.41456205 0.5238167 0.61551476 0.5591216 0.50222325 0.7070509 0.7181902 0.6562201 0.5514784 0.61092234 0.6727683 0.695892 0.6451469 0.5967156 0.5039544 0.5508474 0.51283085 0.3953393 0.4232667 0.47339672 0.3372156 0.4031559 0.3410347 0.27924377 0.14101715 0.12617604 -0.017367378 0.16929187 -0.009419419 0.059828676 -0.080617785 -0.038866475 -0.16136871 0.17006522 -0.037729368 0.08350916 -0.07827391 0.22367242 -0.067209706 -0.07487239 -0.013669737 -0.17341194 -0.05089577 0.4417398 0.029060079 -0.093194745 0.40390408 0.5224447 -0.10483823 -0.14648189 0.036617145 0.14200415 0.48586845 0.1703291 0.13626516 0.44848317 0.61693597 0.42467216 0.4778337 0.662151 0.5873221 0.611897 0.6820483 0.58826524 0.55610573 0.0067276806 -0.036892343 -0.06872382 -0.057027254 -0.057916082 -0.11634688 -0.14995736 0.7310267 0.5275182 0.509427 0.48909917 0.18689872 0.46543264 0.30943716 0.37639156 0.5891011 0.6693032 0.7376283 0.50114703 0.49070284 0.46220827 0.32076213 0.6029069 0.5505536 0.66639435 0.6816305 0.658225 0.4566771 0.3666116 0.43046138 0.530902 0.58140427 0.602404 0.23222658 0.17540745 0.35616815 0.4894573 0.6179702 0.61280596 0.256729 0.27766812 0.24637575 0.15246338 0.056747004 0.12666038 0.3588465 0.5790348 0.58802426 0.24841838 0.263934 0.22766042 0.14964324 0.05007258 0.36248678 0.37826374 0.4493358 0.48770896 0.51740456 0.21165508 0.19022003 0.17022178 0.043349158 -0.0124680195 -0.042757675 0.3480993 0.3823402 0.40138048 0.37375933 0.34863532 0.33139887 0.29064548 0.18207967 0.030895531 0.19438942 -0.08841121 0.08703995 0.07443521 -0.026196972 0.10755649 0.12918033 0.30876344 0.31719184 0.3124407 0.32413512 0.31554663 0.25789353 0.27990848 0.2792849 -0.0030273795 -0.108591706 0.17053011 -0.04987355 0.30498812 0.25757885 0.1882838 0.5108446 0.18108082 0.16605285 0.15612012 0.65744907 0.63096315 0.58199173 0.44158262 0.107180566 0.06345317 0.4014112 0.17232528 0.17733432 0.39569345 0.67560256 0.6322867 0.54024434 0.31295434 0.04397231 0.23053877 0.16643359 0.15345255 0.46746317 0.6500008 0.60654664 0.54254264 -0.3284006 -0.097966984 0.4397862 0.43788645 0.57841885 0.52586 0.4778248 -0.5333697 -0.40525323 -0.19572711 0.037543252 0.4914195 0.44969523 0.4033222 -0.35819048 -0.3380876 0.018063039 0.40909198 0.09774789 0.40641814 0.107775085 0.37992445 0.12528594 0.33217895 0.24055992 0.11582388 0.146735 0.21574467 0.284653 0.07724476 0.133542 0.289774 0.32349056 0.23529816 -0.016346239 0.052507006 0.30679914 0.26001236 0.15710835 0.010517458 -0.17581338 -0.20933926 -0.07139404 -0.03660039 -0.20584734 -0.15061902 -0.07819167 0.053722173 0.07593977 0.22450191 0.17051022 0.60516524 0.45858502 0.13675703 0.20647004 0.26307142 0.29034472 0.6591892 0.68219376 0.59830177 0.3534267 0.36462826 0.5406636 0.45853916 0.6181268 0.5926864 0.59579736 0.5413563 0.49191964 0.6059313 0.5486425 0.46457362 0.44377714 0.49481052 0.49912176 0.46973306 0.4352628 0.42271668 0.41809946 0.44429648 0.384502 0.4413735 0.35294107 0.31410545 0.2513569 0.14566404 0.027122576 0.16786113 -0.12464152 -0.09707211 0.19627722 -0.17247528 0.27194306 -0.154968 0.22458988 -0.16594413 -0.20557441 0.07513245 0.021973863 0.028026596 -0.05869044 -0.20591554 -0.043875046 0.050809193 0.070550084 0.08817771 -0.0362771 0.07975689 0.022755895 -0.08948617 0.51987404 0.59264475 0.6238693 -0.16543156 -0.11012387 -0.056185625 0.32431847 0.46749964 0.5715635 0.61591434 -0.18573852 -0.067955956 0.22803178 0.41198403 0.5594827 0.58752334 0.41547716 -0.09518006 0.29099324 0.3655628 0.5714364 0.46278435 0.4146152 0.560964 0.4977867 0.5156952 0.5082965 0.4606408 -0.15853259 -0.121911615 -0.10281813 -0.06847321 0.6545087 0.4938714 0.4936657 0.15577227 0.0867867 0.29424754 0.6128592 0.48928463 0.48606795 0.4695843 0.39012983 0.60326177 0.3288321 0.6473025 0.6986784 0.71344095 0.6506196 0.21599826 0.1473391 0.14906684 0.20343797 0.2893408 0.009881955 0.0623589 0.28212103 0.33989933 0.46372265 0.21028177 0.19170217 0.16171251 0.07692361 -0.029651314 0.2313472 0.5241767 0.53086305 0.18498988 0.2142162 0.23527104 0.17838866 0.10421122 0.0073861107 0.58764887 0.2150059 0.5494163 0.09147349 0.23008993 0.47294384 0.430655 0.40111625 0.37484676 0.27032727 -0.018469885 0.38639376 0.41269994 0.42103404 0.39989358 0.34245726 0.30579793 0.20690122 0.05203824 -0.18163703 -0.27782285 -0.14623508 0.26971886 0.45313436 0.5323549 0.563688 0.33456054 -0.21302815 0.013391655 0.07448231 0.56198746 0.49903738 0.34724373 0.117124364 0.12362847 0.1780256 0.16650599 0.13509084 -0.04734099 0.34243467 0.49294028 0.5560755 0.5649009 0.21086347 0.024267636 0.019703515 0.13014692 0.3997786 0.4261583 0.63711536 0.6395675 0.60582614 0.4932425 0.38741782 0.24856713 0.37739563 0.09530059 0.084980726 0.09622484 0.32183233 0.44370198 0.46399254 0.6683178 0.6765538 0.06381844 0.107676625 -0.096690096 0.23176302 0.6500699 0.63119566 -0.065482736 -0.101045996 0.09462887 0.1776669 0.60518783 0.56800234 0.47809163 0.45887807 0.018007105 0.37365863 0.37074316 0.07108195 0.30922127 0.35497552 0.06975352 0.32885236 0.22438702 0.13219872 0.29155397 0.14133851 0.20901169 0.23007861 0.28060475 0.027592435 0.2527905 0.26288858 0.22033265 0.101767614 0.04516512 -0.2278845 -0.23303522 -0.07130383 -0.06420778 -0.19181275 -0.086637035 -0.13240783 -0.08331801 0.042090386 -0.20755115 -0.08677218 -0.04825814 0.206268