# vtk DataFile Version 2.0
Really cool data
ASCII
DATASET POLYDATA
POINTS 12589 float
8.251844 4.0588636 33.546482
8.255819 4.1663055 34.08189
8.231362 5.192645 31.035099
8.309856 4.96739 31.287613
8.021011 4.705156 32.551735
7.8079147 4.7513514 33.561604
7.9855804 4.6713247 34.362785
8.22087 4.847663 34.96861
8.267331 5.7939897 30.644445
7.986076 5.627323 31.421556
7.7016387 5.4787836 32.792065
7.604965 5.5839763 33.547825
7.721375 5.5710173 34.279858
8.149604 5.4426565 35.08282
8.164043 6.451984 30.740625
8.016458 6.5767736 31.352608
7.810084 6.2663836 32.659958
7.7052836 6.2310166 33.61573
7.867486 6.291967 34.417675
8.267542 6.5190883 35.17771
8.340567 6.8798456 30.568943
8.123427 6.923431 31.290157
8.014378 6.944594 33.747227
8.334532 6.9258046 34.125515
9.177905 3.1709852 32.77551
9.118976 3.5807161 31.670618
8.703611 3.724877 32.41663
8.667029 3.729232 33.501183
8.668942 3.9188964 34.414825
8.89104 4.052066 34.96684
8.5994835 4.925266 30.867153
8.476188 4.415201 31.646545
8.603937 4.6612287 35.26928
9.079982 5.1457458 35.795795
8.807103 5.7875133 29.994064
8.555326 5.605882 30.355627
8.510793 5.6598825 35.556973
8.876362 5.8508215 36.02184
9.288415 6.658131 29.329855
8.810518 6.4727583 29.88754
8.506375 6.5268564 35.65464
8.835977 6.5270905 36.028996
8.9893265 7.2101817 29.808569
8.599019 7.384463 30.495342
8.423611 7.25179 31.90873
8.627642 7.6166344 34.60163
8.641257 7.2573023 35.385277
9.07182 7.238333 36.126137
9.221275 7.934719 29.841194
9.175496 7.864344 30.591864
8.980242 7.9190826 31.824501
8.925386 8.8066635 33.482944
9.085379 8.428837 35.19795
9.323811 9.366232 32.002308
9.087684 9.635577 32.845917
8.859188 9.616934 33.782505
8.915451 9.617043 34.40796
9.177707 9.767925 34.96346
9.300285 10.464372 33.04683
9.141658 10.56612 33.661503
9.125206 10.353361 34.416725
9.311668 10.397203 34.777668
9.24903 10.8202095 33.87986
9.254833 10.751079 34.38733
9.38499 33.939625 27.970245
9.392228 33.792587 28.480627
9.412074 34.477936 27.865335
9.316215 34.43141 28.520687
9.407447 34.504932 29.05595
9.374522 34.967415 28.660774
9.365427 35.013298 29.040207
9.958882 3.2024417 31.166092
10.095573 2.730282 31.73908
9.738474 2.7941306 32.206306
9.698898 3.0676408 33.484684
9.435326 3.664478 34.74731
9.720839 4.7403297 29.998627
9.801055 5.957767 29.288319
9.642124 5.653176 29.460604
9.555672 5.797677 36.277584
9.717172 6.703614 28.996056
9.419911 6.4755235 36.517197
9.710913 6.4934916 36.615543
9.901639 7.4700875 28.74458
9.571243 7.3151765 36.386482
9.936259 8.185869 28.959766
9.631242 8.29783 29.589724
9.474743 8.575105 30.711327
9.457896 7.9067216 36.009865
10.118956 9.303931 29.613049
9.8063345 9.315409 30.55551
9.561305 9.575314 32.270386
9.4979515 9.65221 35.24438
10.166705 10.021454 30.154005
10.019297 10.202241 31.073326
9.810283 10.566027 31.729546
9.415693 10.559953 34.732555
9.680967 10.247675 35.175846
9.918209 11.228626 32.472977
9.627111 11.145279 33.511658
9.701644 11.167072 34.335175
10.198453 11.663377 32.424072
9.985398 33.124058 27.567825
9.752616 33.163506 28.404966
9.893069 33.223972 29.048155
9.872109 33.50943 27.171572
9.608763 33.599655 27.73086
9.5629015 33.421375 28.416206
9.709779 33.709415 29.214014
10.211825 33.66925 29.829275
9.925216 34.403034 27.066471
9.567514 34.550762 27.648129
9.623421 34.495045 29.528511
9.940717 34.70418 29.846365
10.129692 35.280437 27.049206
9.749238 35.21186 27.792116
9.562343 35.48664 28.740437
9.634108 35.275463 29.312387
9.966648 35.195675 29.783037
10.118291 35.826576 27.762491
9.932591 35.866657 28.644423
10.01497 35.83153 29.160294
11.335827 1.9358621 29.146202
11.2998705 1.9103435 29.497925
10.906947 1.9941478 31.463139
10.613853 2.1903498 32.38516
10.695838 2.3654277 33.257187
11.373416 2.1783516 29.066114
11.119295 2.4147258 29.618996
10.5878105 2.6846251 30.710472
11.12588 2.7057323 34.215855
11.315284 3.621547 28.82686
10.531189 4.0104275 30.195808
10.661895 3.3017905 30.440247
11.094556 4.932795 29.036283
10.764085 5.898653 28.940174
10.1713505 5.906719 36.485195
10.109499 6.092461 36.551304
10.489777 7.045415 28.39715
10.454917 6.625426 28.539474
10.53496 6.284199 36.459026
10.354931 6.6896167 36.583004
10.6628065 7.453882 28.356619
10.234732 7.281279 28.51588
10.051701 7.28193 36.60265
10.949846 8.452839 28.388357
10.689054 8.384659 28.542923
10.649943 8.90274 28.883724
10.540657 9.678341 35.55173
10.941464 10.119233 29.071295
10.937576 10.481157 29.572273
10.338694 10.530092 35.44028
10.601295 10.129471 35.517365
10.515593 11.291014 30.931171
10.420864 11.3097 31.221762
11.140232 11.938912 30.868755
10.807913 11.987838 31.685467
10.89218 12.045732 32.49629
10.735703 12.062422 33.415398
10.412202 11.685434 34.496838
10.723928 32.42564 28.740736
10.628747 33.138332 26.984575
10.887906 32.614532 27.427889
10.353912 32.70953 28.306267
10.711117 33.731068 30.153713
11.192614 34.465385 26.020277
10.324013 34.32935 26.771244
10.509323 34.424133 30.131508
11.099473 35.348232 26.155884
10.65375 35.441273 26.643269
10.560379 35.392857 29.958258
10.909286 36.048904 26.801373
10.736719 36.24978 27.527622
10.639499 36.276 28.368265
10.5457115 36.018013 29.28728
10.459652 35.780796 29.695093
11.098678 36.586304 27.916882
11.963438 1.2508137 28.90991
12.057532 1.0274075 29.421656
11.814509 1.2703327 30.930943
12.2614565 0.66234744 34.1391
12.311259 0.9450892 34.993427
12.214875 1.9058568 28.122261
11.865691 1.6169548 28.66838
11.660699 1.4159316 29.36347
11.521232 1.6175117 30.314377
11.5130205 1.5665162 31.88339
11.424119 1.5673356 32.76892
12.150349 1.5427346 35.088642
11.937231 2.7933173 28.096552
11.684443 2.59245 28.461966
11.4651 2.3753324 34.115997
11.927516 3.6232471 27.956161
12.162204 4.2696624 27.616196
11.242082 6.069065 28.524063
11.130923 6.9743032 28.380573
11.626892 8.556059 28.33973
11.886831 9.430059 35.606606
11.575019 10.282804 28.73587
11.252251 10.359506 35.6002
11.426317 10.698089 29.099556
11.712512 11.329815 29.883272
11.357376 11.541457 30.28815
11.631436 11.078217 35.467346
11.788018 11.953382 30.256767
11.663493 12.35454 30.713726
11.540884 12.479198 31.262852
11.593086 12.271474 34.7586
12.302176 13.26705 30.818848
11.775775 12.932842 31.451109
12.260402 13.615046 35.83866
12.1599045 13.814544 36.64401
12.328942 13.792645 37.16616
12.435837 14.202207 35.655933
12.299431 14.410586 36.522835
12.334173 14.145389 37.0229
12.439866 28.812204 29.824478
12.321195 29.728136 28.44886
12.125742 29.564745 29.297
12.335829 29.399408 30.109549
12.2712965 30.410358 28.353006
11.956036 30.605087 29.380327
12.216817 30.53612 30.654123
11.9986925 32.214916 26.44428
12.0838785 31.549612 27.353725
12.046314 31.747723 28.17916
11.752087 31.805279 28.950342
11.854774 33.05902 25.861475
11.572783 32.74427 26.335302
11.627933 34.445854 25.758244
11.321812 34.558968 30.364601
11.544311 35.33386 25.926105
11.869602 35.267174 30.265486
11.608088 36.10679 26.267038
11.447204 36.37947 26.657288
11.888495 36.560604 29.459698
11.764175 36.681206 27.021162
11.753658 36.80505 27.537933
11.679466 36.75714 28.527199
13.173515 -0.86473846 34.796413
13.317063 -0.812651 35.436337
12.947073 0.41790587 29.421028
12.9535265 -0.42437404 34.44357
12.951145 -0.20586525 35.638958
13.22771 -0.08324516 36.28109
13.359117 0.22489285 41.011745
13.253499 0.2866497 42.336334
12.941279 1.1320479 28.210192
12.758835 0.7996786 28.773155
12.610882 0.69177055 29.489502
12.591701 0.79197204 30.42038
12.688934 0.92745006 31.087395
12.335521 0.788584 32.63428
12.4504795 0.41364443 34.257736
12.531574 0.80748385 35.50863
13.066194 0.5375618 36.369484
13.397299 0.5500281 40.324753
13.058921 0.6862782 41.768196
12.994964 0.75427246 42.624073
13.150528 0.79901755 43.230957
13.254383 1.1529427 43.734146
12.748932 1.6205715 27.990656
12.354587 1.3055049 28.343391
12.431483 1.8494012 35.493607
13.350525 1.6035802 39.96329
13.067879 1.6168413 40.903015
12.859637 1.4719915 41.765705
12.760931 1.5169483 42.57534
12.935323 1.5409752 43.35343
13.189195 1.633278 43.8282
13.13614 2.8056107 27.301931
12.333323 2.7086794 27.873352
13.016321 2.588602 35.81041
13.323166 2.3909898 40.508476
12.98378 2.4481783 41.669716
12.8606415 2.257642 42.640774
13.021981 2.355503 43.285408
13.236557 2.2019527 43.78287
12.948162 3.2720864 27.33241
12.45627 3.5977552 27.516672
12.461331 3.5427225 35.505684
13.373748 3.1955223 40.895473
13.224163 3.1676097 41.622364
13.229247 3.1987276 42.48108
13.1153555 2.8522174 42.957726
12.878692 4.4108872 27.21918
12.41282 4.313149 27.464062
12.933346 5.321905 27.359346
13.323655 5.9216948 36.53336
13.000197 8.629827 36.297947
12.410588 9.333998 35.68806
13.21643 11.427121 27.69684
12.880205 11.538132 28.39312
12.963745 11.919257 36.392735
13.391644 12.387546 27.462543
12.625605 12.718197 35.537426
12.697576 12.594397 36.14297
12.596325 12.939196 37.16587
13.138902 12.984655 38.137653
12.420497 13.042376 30.217667
12.77451 13.165351 30.28018
12.448111 13.373906 33.028538
12.521854 13.575663 37.4715
12.916719 13.605043 37.931217
13.286385 13.936235 29.85111
13.042376 14.018847 31.012733
12.851294 14.226588 31.700472
12.887293 14.451359 32.31025
13.048507 14.116507 32.977947
12.661418 14.386707 34.812553
12.482707 14.411493 35.78834
12.592131 14.44238 37.34937
13.078426 14.314317 37.94638
13.231522 15.045422 32.286137
13.072956 14.942492 34.614952
12.89509 15.2321 35.60553
12.732075 15.159661 36.516315
12.968017 15.169539 37.22748
13.174605 14.974985 37.67209
13.185225 15.706148 36.630272
13.198412 15.662985 36.885338
13.310056 27.11832 30.422482
13.327399 27.136187 31.107168
12.89998 28.011349 29.637732
12.944329 27.862171 30.189415
13.02101 27.803106 31.249655
13.313705 27.798925 32.378635
13.421305 27.727839 32.88167
13.429691 28.513329 17.011368
13.422377 28.448484 17.361837
13.466338 28.5342 17.94784
13.344438 29.084866 22.469189
13.056621 28.945442 27.97299
12.71132 28.75937 28.730345
12.5356455 28.794582 29.872639
12.542685 28.985773 30.88867
12.7572775 28.572002 31.324318
12.991577 28.597616 32.297863
13.363506 28.389778 32.973026
13.17342 29.515392 21.602821
[...]
POINT_DATA 12589
SCALARS features_00 float 1
LOOKUP_TABLE default
0.49365628 0.5227455 0.44162315 0.42329773 0.4918744 0.56828773 0.57066196 0.5680654 0.4658975 0.46812356 0.5328836 0.5704069 0.57803667 0.5712379 0.46519813 0.45365593 0.4795115 0.5210563 0.5363873 0.53789777 0.4441656 0.4230733 0.43023074 0.4483866 0.33088896 0.3144319 0.38137132 0.43303546 0.48551774 0.49586868 0.3912742 0.3845975 0.5449996 0.53882295 0.42800748 0.44116476 0.5705036 0.5767541 0.41840208 0.45073318 0.55863243 0.57038087 0.43389475 0.39651555 0.33484635 0.40035865 0.501126 0.55440295 0.37785256 0.31565934 0.21376267 0.32398888 0.39926726 0.19669479 0.3282516 0.42069897 0.4439366 0.45370072 0.3938818 0.44310942 0.47003067 0.4758591 0.45710975 0.4753669 0.713768 0.71912503 0.7273158 0.7454941 0.75277245 0.7575668 0.75922394 0.24380603 0.24364369 0.2670841 0.28653908 0.3932289 0.2632705 0.3317538 0.32672095 0.5642516 0.38069612 0.56837845 0.56985766 0.39360285 0.56199425 0.3963276 0.36820194 0.2220558 0.49724385 0.3008079 0.20573899 0.24450713 0.43379515 0.22679016 0.21317875 0.2579686 0.4790127 0.45949033 0.3293867 0.42983687 0.4695933 0.30659613 0.6025342 0.65885437 0.6908997 0.6404047 0.68203616 0.690578 0.7297997 0.72467494 0.6740011 0.71936595 0.74631685 0.7285905 0.65845895 0.7300701 0.7541258 0.7523785 0.7267673 0.69952875 0.73650527 0.7328085 0.42366976 0.39433634 0.21524966 0.22010577 0.21036972 0.40748906 0.32235703 0.22519554 0.1604938 0.25507274 0.16794649 0.1975653 0.14390427 0.24630356 0.53529316 0.5539577 0.34532565 0.3192072 0.4989217 0.53113204 0.36255652 0.3710814 0.54758275 0.38037595 0.38897958 0.36589497 0.34002298 0.24779284 0.20890202 0.44144326 0.37005633 0.19914106 0.21416691 0.15024406 0.19856581 0.24866977 0.34746486 0.46339482 0.44798946 0.48997352 0.3588451 0.5317444 0.663878 0.51892966 0.6259865 0.6759559 0.5198379 0.58674026 0.67308664 0.55467784 0.6053049 0.650102 0.6881679 0.6930962 0.5506197 0.53018844 0.51404357 0.28519133 0.3301893 0.33815405 0.50370365 0.5093 0.47239769 0.34791738 0.18116435 0.17977795 0.27924988 0.40784907 0.4139917 0.18015663 0.3091528 0.24889259 0.21163154 0.29432482 0.3215239 0.08865673 0.14743401 0.26329857 0.1375103 0.12242238 0.14635378 0.2501757 0.114508666 0.118207365 0.12464343 0.16161855 0.114399 0.115950614 0.49391016 0.55457187 0.564651 0.51537716 0.58661675 0.5847269 0.29894042 0.24894696 0.28740367 0.2922494 0.16324121 0.20486215 0.2900651 0.14740011 0.0765303 0.08964978 0.112015285 0.30948314 0.26463753 0.46265045 0.51915383 0.45825976 0.42268193 0.4361161 0.46429685 0.5066904 0.42196494 0.4344309 0.47632807 0.51755965 0.5197482 0.5381427 0.4896031 0.45879078 0.44502568 0.610857 0.6802621 0.5670756 0.57174 0.53473437 0.4009293 0.24531822 0.17755021 0.38572568 0.35622287 0.34871268 0.5431966 0.69069713 0.7455261 0.74023354 0.7337235 0.5371383 0.5562345 0.24585806 0.4048416 0.52482325 0.6738503 0.7531652 0.75127375 0.7245233 0.39031285 0.42131278 0.09857623 0.3856838 0.5464045 0.67170215 0.67657447 0.6772022 0.35457373 0.32923198 0.052518904 0.38995004 0.48333228 0.54928946 0.6061609 0.26490304 0.2569409 0.17208257 -0.06580209 -0.2185461 -0.05320766 0.2961725 0.1867619 0.34415823 0.38871866 0.39091203 0.4391534 0.49090332 0.48401752 0.11028108 0.12127405 0.13212556 0.54488444 0.53010297 0.16581011 0.17432603 0.19828585 0.2028869 0.15768218 0.34234 0.53967476 0.5888047 0.55762243 0.19949362 0.24201614 0.49314016 0.5909761 0.576756 0.5635049 0.5269853 0.5357386 0.28568414 0.3139122 0.29411596 0.29180926 0.32594514 0.39353645 0.4270342 0.6282004 0.57980716 0.46317875 0.32457837 0.28747594 0.30639112 0.29883888 0.30677205 0.3312958 0.3897105 0.43256974 0.29410958 0.34142166 0.333434 0.20419219 0.33885074 0.3889445 0.41231632 0.19242582 0.22787973 0.30738345 -0.05443217 0.10342493 0.36410835 0.55293655 0.17406896 0.1877208 0.21092367 0.22217393 0.2636138 0.009802347 0.6343021 0.60261446 0.5617284 0.3045422 0.24754289 0.22679272 0.6580424 0.65104896 0.61707824 0.52141017 0.47519237 0.44714183 0.35314938 0.23501417 0.6076605 0.57164043 0.5439056 0.48471096 0.45940828 0.1014725 0.22340211 0.16855893 0.21553597 0.3014326 0.27213705 0.3266765 0.28223437 0.36011654 0.47366422 0.5331173 0.5484921 0.53325915 0.5146519 0.44328254 0.34501886 0.5042578 0.5620941 0.60390747 0.6102065 0.6138029 0.5378113 0.5352894 0.12809974 0.17787412 0.21151862 0.41550356 0.40043893 0.6870478 0.6832899 0.45776254 0.51293904 0.0025274903 0.15975846 0.68163955 0.39070982 0.056387573 0.10935391 0.28922316 0.6026138 0.624077 0.32127494 -0.06056382 -0.3508195 0.23148227 0.43801486 0.5188596 0.26784664 -0.16936804 -0.19565475 0.17819515 0.3691314 0.4090966 0.46494293 0.41543192 0.13037819 -0.037913993 -0.025098532 0.036488026 0.361831 0.044153374 0.019527389 0.114559546 0.12298155 0.0022378433 0.14588259 -0.2706948 0.23452252 0.15917154 0.23138466 0.3000369 0.32930997 0.34071547 0.2912916 0.37601823 0.4059843 0.4205682 0.38575107 0.41419 0.4098649 0.4584905 0.46037006 0.4636462 0.44894692 0.24064426 0.5037478 0.4746483 0.27650973 0.18986082 0.19461498 0.5315426 0.49245083 0.21163954 0.21573497 0.1803101 0.11018108 0.5163072 0.5248066 0.17448471 0.071816646 0.10207401 0.46600652 0.47123197 0.14900106 0.17689751 0.24891117 0.29335082 0.35136306 0.24278301 0.23183419 0.26268122 0.32914752 0.3908763 0.4334842 0.7660762 0.7393974 0.63016236 0.53204757 0.2303076 0.13789332 0.1780379 0.2786706 0.24098663 0.41385925 0.45162466 0.48223984 0.75242054 0.7021137 0.6187388 0.41952348 0.24301392 0.16861725 0.19868529 0.3012719 0.28556415 0.4447502 0.45829925 0.69245154 0.6135568 0.22635841 0.16679256 0.23708647 0.29831263 0.25218487 0.39554918 0.36716777 0.27325577 0.06976399 -0.108073734 0.28354865 0.6758344 0.63293946 0.4969006 0.20980158 0.21028182 0.6930777 0.6753754 0.057733197 0.69996315 0.6831033 0.050159566 0.6617351 0.62017 0.44984567 0.11768341 0.19038528 0.6070023 0.60455406 0.6228404 0.6101123 0.14092033 0.173515 0.30955955 0.18760033 0.20941758 0.1975542 0.3605544 0.4906633 0.16510303 0.17289525 0.22815359 0.2543334 0.18740636 0.56601834 0.38613617 0.46531102 0.5243252 0.54771364 0.49089742 0.5098969 0.55792 0.55811095 0.48160294 0.24003012 0.32349467 0.22623329 0.4067053 0.49585727 0.5595323 0.5321144 0.51361394 0.49674255 0.4708935 0.46126834 0.34697038 0.5482474 0.5603811 0.44417605 0.5869515 0.39638758 0.44628012 0.35841268 -0.2094943 0.35402274 0.26311707 -0.21550857 0.38091314 0.32307553 0.09372538 0.06849634 0.25188404 0.33881828 0.3769214 0.008201472 0.024502374 0.06946659 0.13303973 -0.004248623 0.13752002 0.153977 0.011282714 0.11985353 0.12996939 0.3488344 0.1975529 0.06885489 0.05321817 0.31222278 0.27774888 0.17626417 0.27838418 0.38957632 0.42123297 0.41756 0.41077042 0.4628358 0.44700962 0.4314436 0.22199917 0.45704573 0.20492195 0.20079161 0.44620058 0.43020943 0.023020193 0.062582836 0.10970156 0.3359326 0.38077265 0.072301134 0.066590704 0.07596897 0.35032824 0.3485148 0.3577608 0.35432583 0.011101896 0.16609599 0.2755615 0.0636483 0.07157703 0.17651708 0.250414 0.35338864 0.38890764 0.76968634 0.71913147 0.4043918 0.039096177 0.13659868 0.42455077 0.44969484 0.77683425 0.78810203 0.1796802 0.19637403 0.16721202 0.48626792 0.70322454 0.7361034 0.21356599 0.18503506 0.47363386 0.6501668 0.6471783 0.09862088 0.08017018 0.31047478 0.13179162 0.6833591 0.011616282 0.7082937 0.7136123 0.71218044 0.06727248 0.7097304 0.62393117 0.1588637 0.15576631 0.5841492 0.600452 0.599814 0.60147446 0.5814705 0.29936135 0.17289883 0.5009588 0.18076113 0.11754575 0.08413937 0.49111933 0.5885439 0.5867003 0.44818982 0.58618313 0.36303994 0.3545108 0.4808883 0.5000247 0.15869094 0.43805042 0.45769662 0.4044415 0.4217582 0.41419643 0.33025223 0.30386674 0.34810126 0.4223624 0.40468794 0.45205754 0.4103575 0.41992533 0.5176231 0.5737457 0.38837907 0.5606281 0.58948034 0.32569647 0.29431972 0.46076292 0.25820038 0.15886459 0.22700992 0.22150747 -0.014368363 -0.08008916 0.06577122 0.05984209 0.3067823 0.16888276 0.05957832 0.022940543 0.47830808 0.3957268 0.045984123 0.012384513 0.4814825 0.37557253 -0.004310131 0.45019937 0.38372707 0.21949917 0.38264513 0.31947184 0.35532284 0.36045265 0.393434 0.27947342 0.39715844 0.14705098 0.12118436 0.26337728 0.24570346 0.03294717 0.17342502 0.11293918 0.041974053 0.12013709 0.14181502 0.10120701 0.07476188 0.10392842 0.1527973 0.123439826 0.13033894 0.14688376 0.14643699 0.090445176 0.35189438 0.37243244 0.35313952 0.12814367 0.26844305 0.30665195 0.23644578 0.27249795 0.31738895 0.28321454 0.21898897 0.34294492 0.30948436 0.28016746 0.27252537 0.18597566 0.14224279 -0.07668461 0.06465511 0.20872158 0.31878155 0.25848997 0.018019464 -0.051363245 -0.063972406 -0.003978282 -0.03745373 -0.033586554 -0.08407646 0.17799726 0.06687954 0.058649622 -0.046777412 0.012229003 0.08127388 0.031786032 -0.026438896 0.21552439 0.19247736 0.0021011233 0.04072103 0.031607 0.102880195 0.78019047 0.6987437 0.46128246 -0.028606042 -0.17822854 0.033556595 0.37088117 0.37608856 0.744105 0.78646564 0.009142106 -0.22304833 0.46925575 0.6561736 0.68504584 -0.52467376 -0.45028725 0.44095787 0.59011346 -0.017188188 0.3365042 0.50036407 0.00042397156 0.61620665 0.0049816296 0.58671623 0.65506506 0.67373824 0.5858965 0.6342162 0.6949819 0.7434238 0.69309855 0.6791477 0.07702125 0.07105218 0.6388829 0.6866646 0.71802497 0.5784439 0.54284257 0.15081401 0.09348833 0.61185 0.6547277 0.54644704 0.5652036 0.537751 0.5070485 0.031860545 0.39355505 0.55733573 0.5390085 0.22530684 0.2017187 0.1376918 0.085194305 0.587754 0.13393636 0.09487857 0.11098806 0.5212898 0.5747844 0.58552885 0.26573077 0.19988893 0.24899885 0.24258168 0.24061403 0.17110126 0.17697594 0.37170142 0.31345612 0.17330894 0.36724204 0.4057346 0.37100995 0.36921954 0.4501215 0.5187974 0.39651906 0.56540346 0.3909933 0.5736921 0.5569774 0.3506711 0.2901972 0.36620057 0.51711106 0.28477094 0.050723873 0.260263 0.3294201 -0.051985797 0.0014090929 0.33841252 0.24330625 -0.0024724174 0.45763212 0.38716012 -0.0024013482 0.012310073 0.4975928 0.4875524 0.49314272 0.4575268 -0.104577824 0.17083651 0.14235233 0.24801907 0.08736986 0.29212877 0.27268848 0.11377528 -0.17265224 0.102804765 -0.30196032 -0.031464215 0.0051530395 -0.1401068 -0.07500683 -0.048031747 0.33147824 0.341253 0.32437366 -0.19940253 -0.05726686 0.20455939 0.19384557 0.33804005 0.3695477 0.38009298 0.31528887 0.276358 -0.06587854 0.021686502 0.04640776 0.15669563 0.21520633 0.19392091 0.27694643 0.3113042 0.3555231 0.2581416 0.016724277 0.0097818505 -0.010257982 -0.006951228 0.09009801 0.026122421 0.16611432 0.18117258 0.27307504 0.22232153 0.06678391 -0.080072656 -0.09202328 -0.048494693 -0.019910362 0.20783225 0.09325945 0.10843982 0.19283397 0.058733664 -0.053044934 -0.09541991 -0.100257196 -0.053898327 0.1912683 0.08020705 0.51408964 0.08509678 0.073550545 -0.06817122 0.060587127 0.08525705 0.06768946 -0.02586295 0.055151105 0.038504742 0.7176391 0.6135062 0.27697197 0.61741376 0.47992224 -0.039417036 0.4915697 0.44939494 0.2199415 0.4734944 0.5582125 0.681478 0.56466234 0.50858474 0.019897535 0.49369377 0.6422335 0.72688067 0.787691 0.85335577 0.86059594 0.87304235 0.6031446 0.5977828 0.20282564 0.7774149 0.8427992 0.91523916 0.9361135 0.9258474 0.59549606 0.45736596 0.04657553 0.74090123 0.79928267 0.9642538 0.95322704 0.53827035 0.44342202 0.018200276 0.35634214 0.56188905 0.6127271 0.6548997 0.7154466 0.49420965 0.45867598 0.4030563 0.28235638 0.48079568 0.23332036 0.5132088 0.27291018 0.49978715 0.5523703 0.29635608 0.16699594 0.45730183 0.5493151 0.4185988 0.52092004 0.54575634 0.48199317 0.35201997 0.4226117 0.42691946 0.13424021 -0.1945973 -0.010208723 0.34855673 0.36000007 0.36568463 -0.019522587 0.23396532 0.3732035 0.3864483 0.2855186 0.43613198 0.4554466 0.3220212 0.28054917 0.53200525 0.37156516 0.34852618 0.53057617 0.50409186 0.27395603 0.45348263 0.28299284 -0.13820021 -0.17532846 0.17897442 0.26876467 0.19346759 -0.026574137 0.32107046 0.25430393 0.05762019 0.0003771577 0.40338802 0.052206587 0.06173446 0.46055806 0.47047842 0.053952947 0.05624316 0.46310052 0.4610165 -0.14347258 -0.012451906 0.40858468 0.4221585 -0.21327391 0.26792777 -0.11368751 -0.20807792 -0.34988523 -0.058663093 0.07394517 0.013062077 0.036805216 0.010575877 -0.1813029 -0.25543958 0.2851032 0.17499477 -0.2047821 0.28291345 0.31380948 0.3076768 0.2094113 0.124369636 0.12412414 0.040982142 0.039247077 -0.09079117 0.104118936 0.07806134 0.22679175 0.28627238 0.32112628 0.21808383 0.17156184 -0.14935425 0.14955337 0.1240755 0.5292934 0.5382495 0.5189662 0.24385096 0.13297951 0.07412798 0.48066503 0.4913282 0.46353182 0.43297997 0.40807647 0.33829796 -0.008986201 0.01842947 0.3939988 0.4095792 0.4677527 0.496839 0.4707017 0.08562578 0.04984584 0.018663557 0.37090793 0.45756823 0.50228626 0.49882805 0.42148432 0.24360555 0.15259276 0.09695663 0.083356015 0.372204 0.406222 0.47891235 0.48166832 0.39318955 0.31020564 0.36962986 0.20788842 0.07763225 0.088254035 0.44216996 0.4623621 0.39378333 0.50765955 0.42174268 0.101413526 0.080999866 0.10668816 -0.07798789 -0.31407785 0.46461946 0.45552966 -0.19171107 0.42808378 0.42307663 -0.04596369 0.10712412 0.36500025 0.50786096 0.6772158 0.71012205 0.6077375 0.67544234 0.71408784 0.4757045 0.42789355 0.7821878 0.6875992 0.7351043 0.76761657 0.8129351 0.78497374 0.51067764 0.4298188 0.849468 0.82888234 0.8042912 0.8488276 0.9090121 0.8726999 0.4398756 0.40273368 0.3370751 0.15590984 0.01610782 0.80918956 0.9449167 0.9589499 0.9254043 0.8557484 0.39204332 0.31823927 0.31682932 0.32586187 0.050546974 0.14423901 0.5963732 0.9267575 0.8898339 0.21650912 0.4553423 0.2123738 0.31170177 0.38495505 0.48162475 0.27052805 0.45508716 0.4665837 0.27909547 0.33918226 0.33378324 0.3780329 0.403741 0.40501118 0.41987658 0.3946485 0.5389369 0.59557736 0.62277275 0.6613107 0.45590252 0.5203043 0.55855054 -0.1969117 0.09623179 0.47486562 0.27133334 0.29226187 0.31277663 0.33307385 0.34791103 0.032789186 0.35973972 0.33276498 0.22721374 0.18305981 -0.0058220774 -0.15695855 -0.22122012 0.41341156 0.27973858 0.23855719 0.45306423 0.21832219 0.2015984 0.19040895 0.19543809 0.44380268 0.006932996 0.08248188 0.062344857 0.39455557 0.53678167 0.13810083 -0.16156444 0.43948528 0.4848936 0.28781277 0.2259312 0.0038069598 -0.065570936 0.40324914 0.36698228 0.052755833 0.008445282 0.40792394 0.03693364 0.03581761 0.3990285 -0.09407659 -0.00022896752 0.37945488 0.35410827 -0.25702736 -0.25214982 0.06701347 -0.26281646 -0.1780557 -0.23228621 -0.028238395 -0.11334439 -0.014320845 -0.10915639 0.14216447 0.21391594 -0.048310604 0.30392218 0.26799896 0.17877364 -0.0055702664 0.039602358 -0.035326943 0.15628637 0.32207185 0.2966191 0.26473877 0.25683948 0.25216278 0.24234757 0.17959422 0.05150799 0.0098326765 -0.098359406 0.0034275139 -0.4082241 0.097572915 0.22137833 0.5627414 0.32961744 0.29174817 0.2783338 0.26704502 0.2701481 0.12626377 0.058212943 -0.013746668 0.023433149 0.42919052 0.5580722 0.5498824 0.5094148 0.29485264 0.2955929 0.1926081 0.2849383 0.23304327 0.016449273 0.2649693 0.46047646 0.5267886 0.5472969 0.5059819 0.4307455 0.3571091 0.28889647 0.07765358 0.180749 0.19696395 0.16713548 0.25470898 0.30877912 0.44943357 0.554763 0.6195163 0.6564987 0.22432083 0.021749087 0.32945254 0.4244757 0.44905305 0.33553553 0.27602234 0.17397934 0.10652414 0.12698556 0.21676393 0.30404967 0.46220046 0.59495974 0.6250259 0.70581496 0.089665666 0.09996142 -0.01590893 0.017639207 0.36714506 0.37536675 0.37130946 0.122404724 0.10606946 0.15768558 0.18042074 0.25114495 0.36017382 0.5074684 0.6188201 0.73176205 0.17031254 0.013691649 0.36898458 0.34687066 0.35052517 0.20801996 0.13460176 0.073154755 0.15423319 0.31819645 0.5285966 0.5715698 0.35543376 0.29993212 0.10885315 0.10649063 0.3352993 0.35154408 0.37305444 0.24114929 0.16375126 0.458071 0.13264436 0.17957798 0.2978991 0.3672685 0.370181 0.42526543 0.3640687 0.2809587 0.2128948 0.59446156 0.16249907 0.18052429 0.33498484 0.3897183 0.32847536 0.22364734 0.21882638 0.59743774 0.5567037 0.027926814 0.13089767 0.3890556 0.38339275 -0.22598483 -0.2566532 0.40397096 -0.09313962 -0.03798014 0.16651748 0.37245402 0.52089673 0.56254625 0.6277845 0.42143175 0.36100125 0.23211125 0.09478976 0.4557982 0.6282741 0.47045234 0.43763596 0.63839203 0.67502266 0.6620568 0.4051341 0.3713677 0.32188156 0.118653595 0.71711206 0.5981267 0.5635466 0.7170665 0.7092861 0.40281582 0.3755105 0.33122146 0.23915684 0.0026804358 0.78405464 0.7374206 0.7750947 0.71726567 0.37989402 0.3567736 -0.02705761 0.74553156 0.79154515 0.8727586 0.79791546 0.75293374 0.070464365 0.11249801 0.38094872 0.88274086 0.8600712 0.81628597 0.2673542 0.30530336 0.2237421 0.23051953 0.3335372 0.3378771 0.27484864 0.26579615 0.35760581 0.28179154 0.42614043 0.43393138 0.5098955 0.4252246 0.44358763 0.4812399 0.4897712 0.47714558 0.5173556 0.65060294 0.6740993 0.5256245 0.57770395 0.6210005 0.6805885 0.70433843 0.32330912 0.48584256 0.6780249 0.6978766 0.4320643 0.41667822 0.47798318 0.4905358 0.28722337 0.36037594 -0.14606696 -0.10619574 -0.06600702 0.13819933 0.26765692 0.2939468 0.09524512 -0.067940205 0.28052714 0.27658343 0.26293147 0.1519548 -0.008140832 -0.13440013 0.24828961 0.31128258 0.15782729 0.09598435 0.31408823 0.14891663 0.046730675 0.31799778 0.4489128 -0.06724411 0.5072549 0.5196824 0.048788235 -0.03658819 0.61805856 0.07932786 0.20628099 0.55600524 0.6408046 0.69116056 0.1460148 -0.15605351 -0.014581224 0.3072146 0.5140704 0.6100502 0.3178525 0.25847343 -0.04958295 -0.09055981 0.36946684 -0.019863449 0.0055017527 0.07226224 0.3325328 -0.013697237 0.115823984 0.18703254 0.29081425 0.25608754 -0.24605119 -0.075618036 -0.02715531 0.18842259 -0.012287743 -0.23579761 -0.21640727 -0.2179293 -0.113824874 0.007239382 0.077412315 -0.060021732 0.11320228 0.08315057 0.09232175 0.06480454 -0.0044275858 0.24002591 0.1938694 0.40710595 0.42664862 0.43183115 0.41355687 0.20814317 0.13236618 0.0031049848 -0.051341273 -0.09229627 0.28685784 0.3847037 0.36602142 0.372356 0.4030672 0.2908384 0.27397656 0.25463003 0.21717447 -0.2500491 -0.04687562 0.25375953 0.48296332 0.53882456 0.5135738 0.3188272 0.34655216 0.2901288 0.2783768 0.14559218 0.31523898 0.29927665 -0.33248755 -0.22057313 -0.11831057 -0.05039409 0.51872224 0.46193102 0.42366174 0.26883224 0.3173174 0.22787648 0.20519677 0.28883672 0.37349966 0.5507373 0.5854676 0.63531464 0.30034563 0.2832681 -0.084278144 -0.2381462 -0.17344083 -0.045726568 0.29720062 0.33434993 0.28551933 0.13320921 0.19393837 0.4819752 0.6170473 0.6990528 0.7747023 0.23662165 0.25085402 0.010446683 -0.031376146 -0.18879366 0.03193748 0.27569008 0.7327903 0.80508775 0.06882546 0.022354223 -0.01424209 0.29991034 0.37276065 0.75824356 0.8394757 0.21221827 0.015646014 0.35813633 0.38870555 0.08012454 0.104667045 0.3918612 0.46790153 0.6183001 0.74323124 0.8265778 0.4023158 0.28386974 0.15346305 0.36857456 0.3068258 0.12944323 0.339845 0.41141647 0.60841703 0.5526365 0.20672241 0.18903397 0.29371387 0.28229916 0.24599528 0.21882607 0.19786616 0.5972979 0.2213232 0.20204291 0.23225646 0.23925155 0.5820296 0.17919095 0.21485384 0.22073454 0.23998861 0.25804487 0.25029537 0.24389601 0.5261966 0.0019410849 -0.0056443065 0.13919495 0.23208678 0.28392518 0.15128791 -0.20473848 0.04670518 0.011790597 0.125871 0.15695311 0.31808493 0.5949458 0.0018821098 0.2679631 0.52453953 0.34648827 0.3243863 0.6148579 0.014257684 0.39469612 0.5458475 0.421765 0.6667708 0.029832944 0.04233794 -0.4399882 -0.2535881 0.6014981 0.62127554 0.68542004 0.67221355 0.095757075 0.0049842447 -0.40155256 -0.1556055 0.68290615 0.61806667 0.6419667 0.6394931 0.21229689 0.13011366 -0.250563 0.042525448 -0.19367495 -0.14445762 0.2801511 0.7644378 0.75345963 0.68619543 0.665437 0.23399737 0.10776675 0.015479013 -0.18782672 0.04065279 0.1925087 0.22383282 0.23767143 0.34097832 0.2250979 0.26787454 0.15651618 0.44322887 0.44680387 0.43771678 0.4777124 0.5110972 0.6680653 0.53428376 0.54169303 0.6878408 0.6687292 0.6475066 0.698586 0.7195995 0.5866686 0.61167467 0.6304881 0.70780814 0.7341205 0.71799004 