# vtk DataFile Version 2.0
Really cool data
ASCII
DATASET POLYDATA
POINTS 7488 float
2.4718628 9.542129 35.691917
2.4840245 9.30523 36.09651
3.1525202 7.949169 35.97123
3.1683114 7.8010263 36.64255
3.1829166 7.9247227 37.19164
2.9567535 8.999312 35.008896
2.7345262 8.802907 35.553467
2.7133787 8.79844 36.510643
3.0554936 8.525304 37.459694
3.2351255 8.57941 37.910625
2.8573525 9.575434 34.8943
2.5574057 9.571331 35.38525
2.5956507 9.461859 36.377293
2.902011 9.379904 37.21702
3.261119 9.491142 37.91381
2.9870849 10.148887 34.933342
2.6908925 10.168401 35.48469
2.8228412 10.218475 36.225563
3.2691107 10.071338 37.49107
3.168693 10.630778 35.440376
3.0023363 10.635415 35.974895
3.7529457 7.3024554 36.108795
3.76466 7.186922 36.482937
3.7935495 7.3541255 37.363342
3.8347702 7.7480907 35.371967
3.4226148 7.444549 36.53935
3.4504817 7.743134 37.457096
3.6754766 7.683894 37.745636
3.4470162 8.907032 34.72476
3.5027637 8.797317 38.135464
4.127405 8.708934 38.674397
3.7736738 9.425272 34.43091
3.3665528 9.554738 34.556297
3.5479958 9.541395 38.17468
4.0753994 9.505308 38.732513
3.476676 10.185166 34.704254
3.5814376 10.325198 37.469337
3.6740751 10.053749 38.00618
3.990315 10.691223 35.13914
3.4074337 10.737883 35.678047
3.5225751 10.717287 36.3449
4.117991 10.693435 37.372456
5.1173134 6.3354287 35.439262
4.755223 6.737173 35.47137
4.6248055 6.767518 36.34073
5.2813888 6.6024547 37.64607
5.183742 6.931701 38.7754
4.9242005 7.302925 34.85102
4.5073214 7.630695 38.592617
4.7249913 8.600914 34.36606
4.3370724 8.510729 34.648605
4.9149923 8.254255 39.445286
4.0991664 9.52244 34.409412
4.919057 9.578441 39.19258
5.186192 9.165205 40.0108
4.257857 10.070817 34.570503
4.295088 9.858543 38.55615
4.4535146 10.632424 35.13153
4.2960544 10.874724 35.639683
4.9975533 14.783091 43.811375
4.8783836 14.794612 44.295826
5.0458765 14.928274 45.11627
5.048992 15.333733 43.19049
4.8251143 15.570315 43.652946
4.684953 15.626359 44.494457
4.957214 15.536145 45.260483
5.268106 15.756523 45.82582
4.8803635 16.2348 43.837288
4.813765 16.392868 44.550518
4.9686923 16.36406 45.212997
5.1171074 16.814867 43.87967
5.129323 17.01544 44.67978
5.163129 17.001602 44.99003
6.3486648 4.999878 38.422726
6.203607 5.8416085 33.850067
6.2308226 5.7020173 34.18771
5.369048 6.209301 35.531242
6.023709 6.107336 36.70166
5.8780856 6.0359297 38.499306
6.042622 5.8043184 39.5289
6.2358623 5.6247516 40.226646
6.3329387 6.6025877 33.172543
5.9610667 6.674167 33.658287
5.573764 6.929461 39.534184
6.0126095 6.5801635 40.55802
6.3308053 7.115681 33.12779
5.9433017 7.4358807 33.58903
5.8385572 7.343739 40.63704
6.3443947 7.295745 41.41582
5.7704287 8.305188 33.907032
6.211393 8.31956 41.427204
5.1073055 9.540762 34.501663
6.410934 9.25171 42.460567
6.4033823 9.499072 43.599457
5.350711 10.167902 34.957058
5.2181354 10.534846 35.526573
6.475687 10.031633 42.9225
6.468949 10.915479 44.164368
5.375736 10.844367 36.15756
6.2102623 11.3769865 37.84113
6.0066333 11.578607 38.4182
6.106472 11.818021 39.272617
6.3596654 11.454863 40.204323
6.18952 12.481073 37.842194
6.0901594 12.880338 38.809692
5.977518 12.51425 39.20816
6.2313557 12.057795 39.90773
6.4371214 13.039689 45.012028
6.3407273 13.036052 60.07639
6.35511 13.031192 60.478043
6.1133103 13.390411 38.501957
6.356386 14.090343 42.712917
5.5317807 14.189107 43.807594
5.6336727 14.146083 45.12358
6.2841673 13.558465 59.828884
6.185171 13.601963 60.346016
6.308681 13.42075 60.892296
6.3955007 14.9292755 37.415417
6.1481576 14.609532 38.229557
6.1449375 14.339311 39.468117
6.3292146 14.480354 39.9347
6.026669 14.574382 42.753647
5.3473654 14.40985 43.42165
5.416943 14.5959015 45.422386
6.2526846 14.978661 46.39146
6.4314904 14.926699 59.033684
6.267447 14.551026 59.536007
6.2161865 14.409476 60.312664
6.3406115 14.0438175 60.921978
6.3377347 15.499277 37.468422
6.212427 15.02484 38.490086
5.458938 15.660115 45.906334
6.2937155 15.383732 59.68832
6.326509 15.399294 60.213707
5.8656883 16.415947 42.715748
5.436161 16.764929 45.634
5.4313936 16.664263 45.713737
6.173193 17.076921 52.916687
6.0596094 17.137516 53.446213
6.2482057 17.243063 54.171906
6.4261947 15.822208 59.773296
6.386316 15.93721 59.985252
5.9629903 17.074041 43.030094
5.6155815 17.223257 43.911625
5.5496283 17.38313 44.694103
5.5698547 17.191534 45.265465
5.9660587 17.041513 45.786495
6.0147343 17.605879 52.7436
5.762599 17.681425 53.46033
5.8922124 17.738388 54.06944
6.2007337 17.62288 43.600037
6.084551 17.660973 44.391273
5.9870334 18.334105 52.794514
5.761097 18.31116 53.541733
5.9681373 18.339552 54.173798
6.241672 19.694468 38.97937
6.2809143 19.757593 39.463177
6.4063034 20.004791 39.973576
6.069565 18.75262 52.956436
6.124167 18.95792 53.56245
6.2541676 18.911339 54.17351
6.235823 20.579725 38.7016
6.2241173 20.526175 39.45451
6.378304 20.300121 39.966766
6.3071914 21.118053 38.784725
6.307162 21.01354 39.410976
6.971787 4.1156507 37.919136
6.989979 3.9162426 38.531017
7.0320373 3.9388878 39.49047
7.149949 4.1255484 40.25568
6.9858027 5.292567 33.64321
6.5870404 5.3132424 34.279747
7.2615457 4.729293 36.57909
6.5148425 4.6212773 38.044144
6.6177998 4.495103 38.574184
6.559277 4.596188 39.527367
6.7197185 4.8318872 40.334663
7.166707 4.550167 41.15338
6.785383 5.9921217 32.971706
6.6368194 5.6284595 33.45546
6.4989514 5.432397 34.27458
6.3155837 5.6960382 36.89009
6.77841 5.3608184 41.198788
7.1359057 5.763203 41.82237
7.1255875 6.756628 32.38311
6.8318357 6.660168 32.65759
6.698894 6.475851 41.540806
6.961588 6.8647375 42.140278
7.0790567 7.361653 32.365746
6.7906327 7.330949 32.6162
6.53407 7.8495326 42.178314
7.094536 7.7216067 43.31036
6.8288345 8.167758 33.018833
6.6091795 8.640394 42.569546
6.7234383 8.534264 43.573128
6.9478993 8.585527 44.32894
7.35767 8.669106 46.999943
7.2629557 8.531289 47.7912
7.2571006 8.636083 48.436275
7.362381 8.937046 49.14087
6.5483675 9.367628 42.369385
6.521083 9.209009 43.595413
6.6986303 9.492262 44.38417
6.8345633 9.780422 44.85783
7.0515137 9.236338 47.60766
7.0743074 9.334219 48.5019
7.267219 9.504127 49.194553
5.985995 10.1620035 35.01093
6.701904 10.531008 35.56177
6.6209803 10.737723 43.071877
6.5616317 10.544502 44.422302
6.86934 10.599111 45.42333
7.150593 10.902776 46.294704
7.2054253 10.457148 47.8909
7.1272984 10.361222 48.815453
7.270198 10.473495 49.363113
6.68753 10.7024975 35.65428
6.8893657 11.523846 41.07985
7.003059 11.307039 42.55458
6.6596293 11.27269 43.502632
6.522728 11.439878 44.53415
6.703377 11.226823 45.175884
7.162524 11.3977 46.144653
7.1330147 12.131853 59.925156
7.06299 12.187133 60.38865
6.813099 12.689878 41.064205
7.2444487 12.653295 42.850224
6.5001273 12.203252 44.083553
6.535969 12.111674 44.53818
6.6210265 12.00974 45.449226
6.915023 12.830779 47.58519
7.3299074 12.365388 48.336475
7.0766187 13.066594 49.197144
7.187895 12.519835 59.171543
6.5505013 12.844914 59.75644
6.612295 12.639525 60.451096
6.787333 12.810108 61.137325
7.1936636 13.122917 61.640617
6.463929 13.747951 40.25475
6.7542076 13.5436735 42.449654
6.619652 13.695571 47.00698
6.562668 13.45428 47.44673
6.5787525 13.518288 48.36877
6.9497275 13.418938 49.127007
7.039909 13.504465 58.84198
6.4296284 13.262083 59.567165
6.8079 13.703356 61.585976
7.0763907 13.512748 61.75206
7.2198415 14.292958 36.113796
6.7989902 14.933046 36.657192
6.769778 14.73264 40.275276
6.6786447 14.545638 42.009712
6.55098 13.999809 47.723648
6.6739464 14.372584 48.233772
6.9055986 14.201796 48.951744
6.7668 14.623584 58.761616
6.5854073 14.501765 61.099564
6.898537 15.726869 36.07046
6.6647024 15.078942 36.763966
6.623788 15.460009 39.103455
7.313288 15.564763 41.50464
6.4450192 15.56103 46.475536
6.790361 15.363542 47.551285
7.294245 15.385264 48.84438
6.7120714 15.452278 58.791435
6.4567537 15.702955 59.356655
6.516553 15.609432 60.48944
6.863945 15.350495 61.09259
6.7288756 16.502447 36.449753
6.6107674 16.420486 38.369858
6.548217 15.85049 39.04109
6.9391675 16.200335 41.78775
6.5739636 16.30976 46.580086
7.2066574 16.67716 46.732414
7.336796 15.826945 48.178173
6.9596453 16.910332 52.029106
6.7748437 16.741781 52.603455
6.631091 16.710337 53.41785
6.4058547 17.012114 53.928623
7.033955 16.0297 58.85707
6.624634 16.05701 59.55575
6.7496343 16.167479 60.153378
7.0453725 16.057398 60.872845
7.261906 17.908842 33.1495
6.890369 17.718534 33.8139
6.564175 17.713137 34.78
6.7185197 17.575428 35.58312
6.707292 17.175041 37.523857
6.8005824 17.350842 38.205914
6.6511116 17.17516 42.505882
6.3094335 17.574772 43.307003
6.263107 17.438057 45.524338
6.6477814 17.235508 45.984795
6.6769133 17.67161 51.8992
6.8981047 18.006474 55.08766
7.1582456 16.613089 59.890778
7.2051563 18.635754 32.90166
6.830526 18.482563 33.697533
6.642957 18.580751 34.55954
6.863974 18.72807 35.823383
6.9818683 18.36999 36.611366
6.953559 18.988548 37.75109
6.700232 18.878328 38.550613
6.8767653 18.900936 39.58966
6.506483 17.788069 43.746708
6.45229 17.931726 44.414673
6.8348727 17.990814 45.3329
6.8114085 18.268488 51.87962
6.525668 18.770407 54.66446
6.816799 18.495052 55.03055
7.205433 19.341438 32.91914
7.00399 19.33963 33.471657
6.814134 19.392532 35.313713
6.8887105 19.469131 36.079033
6.784165 19.55515 37.82604
6.623405 19.206753 38.450443
6.6274753 19.338318 39.7999
6.7771177 19.703453 40.18196
6.948473 18.737349 52.05434
6.6258826 19.03482 52.579063
6.4882255 19.282135 53.528725
6.6614547 19.258413 54.37703
6.973729 19.125078 54.907616
7.2314506 20.372911 33.63692
6.9732585 19.864399 34.45049
7.0905714 20.593052 35.606594
7.023632 20.475132 36.80438
6.7736626 20.38728 37.618256
6.7306314 20.45748 40.285515
7.175316 20.080172 40.59193
7.1167903 19.693148 53.076134
7.17144 19.832672 53.501244
7.184322 19.890976 54.34936
7.3520837 20.880997 33.673965
7.295375 20.909925 34.185608
7.207754 21.405336 36.547337
6.8129315 21.23333 37.73185
6.655882 21.574976 38.516453
6.5916767 21.657288 39.291218
6.8172064 21.304258 40.059574
7.0112624 21.832731 38.006226
7.0032563 22.107872 38.733974
6.9822764 22.01255 39.36705
7.242738 21.827301 40.075203
[...]
POINT_DATA 7488
SCALARS features_00 float 1
LOOKUP_TABLE default
0.9270319 0.8611906 0.6441157 0.59553707 0.5871829 0.8793663 0.85410947 0.74542063 0.61632407 0.5620632 0.93580735 0.9451504 0.83254826 0.687743 0.574705 0.94868827 0.9560746 0.8824104 0.6515368 0.93678904 0.9102817 0.46854204 0.45316222 0.46161336 0.5673596 0.52139485 0.5336125 0.49401885 0.7959219 0.5233784 0.42812252 0.7895969 0.8672838 0.5289599 0.44576436 0.89536726 0.6319495 0.5348828 0.8054427 0.9036797 0.8431902 0.5816558 0.25994676 0.33504745 0.3198406 0.20776606 0.19243953 0.39345405 0.34880346 0.5364941 0.6032067 0.2647115 0.74634016 0.28242528 0.17258108 0.7487446 0.41786844 0.6884167 0.723737 0.59745544 0.6383651 0.6119758 0.620608 0.7237449 0.7317689 0.6478352 0.5399522 0.72400117 0.6987549 0.63664526 0.63041854 0.61338437 0.59935963 0.2726428 0.4804616 0.42277697 0.22501984 0.15291177 0.16808102 0.23617631 0.28177524 0.54124844 0.49760747 0.15431264 0.18088605 0.5268682 0.46219784 0.12084436 0.12563111 0.3532021 0.06327488 0.5471026 0.18596026 0.23123585 0.4766112 0.4749931 0.20050271 0.18809612 0.39420384 0.06023629 0.11178122 0.14505962 0.07996325 0.1286374 0.19187336 0.17895824 0.14903109 0.024149157 0.6274756 0.63815933 0.21370803 0.1772036 0.41110635 0.37294516 0.64625084 0.6605642 0.6567261 0.25166073 0.26419193 0.22528118 0.19718042 0.31589487 0.45266977 0.4767607 0.284453 0.676259 0.6758946 0.6786307 0.67582715 0.25051832 0.26382783 0.5066465 0.66342807 0.6468619 0.49453598 0.5247069 0.5186963 0.82017195 0.84135914 0.81072295 0.6503062 0.6387432 0.45459682 0.54220295 0.546474 0.52946204 0.43488574 0.9029392 0.9220141 0.8943796 0.44678634 0.48109916 0.90323067 0.90550196 0.851403 0.5271288 0.56878525 0.6102288 0.82595253 0.7788869 0.74752986 0.5709343 0.6368057 0.63868403 0.5948721 0.650515 0.30909866 0.39787525 0.46742925 0.49974865 0.49064133 0.38511902 0.10139953 0.27662444 0.34878972 0.39424443 0.40665257 0.48787177 0.55024225 0.5205375 0.39105862 0.1163084 0.35880423 0.31569308 0.5627073 0.5597042 0.20256223 0.16443452 0.5501458 0.5441891 0.14816466 0.23160207 0.47266567 0.19568807 0.24406052 0.267597 0.41659218 0.512949 0.49509168 0.4241724 0.17436862 0.23659185 0.24852946 0.23131019 0.43842232 0.4311968 0.37339297 0.3032431 0.17358176 0.17408179 0.20020032 0.15973459 0.08245605 0.25485787 0.2954834 0.24278502 0.16297409 -0.08419271 0.011755288 0.15664558 0.14998008 0.13888139 0.07174765 0.5639424 0.5920511 -0.047244497 -0.085524246 0.09994763 0.110312864 0.07992257 0.22457445 0.21934661 0.22272423 0.52320784 0.5972457 0.61776876 0.63143927 0.60829073 0.17528981 -0.022924181 0.17218804 0.24779545 0.3341859 0.2598708 0.5554197 0.6134939 0.6405819 0.6166756 0.009800269 0.14389953 0.08393326 0.1468357 0.30792296 0.32633758 0.3141151 0.67189157 0.6731519 0.102528706 0.17010403 0.21832457 0.08726463 0.2776826 0.16611673 0.25312898 0.67253375 0.65870905 0.61439204 0.5897999 0.16161636 0.1826765 0.19983031 0.26376894 0.26059222 0.17685121 0.18241082 0.6659975 0.6737737 0.6771122 0.75459373 0.62854636 0.63984525 0.60931134 0.5304458 0.43090194 0.40354657 0.31354275 0.16116397 0.08008078 0.039837994 0.33564976 0.4215836 0.41976178 0.31814927 0.7660183 0.6925732 0.59307975 0.456617 0.43509626 0.3701375 0.15449621 0.03203701 0.16745391 0.32581085 0.4405262 0.4196512 0.43949825 0.38103926 0.72999877 0.70368195 0.6726047 0.43931413 0.42201763 0.23354486 0.13613603 0.30386242 0.3757808 0.5187626 0.5576064 0.67157024 0.7087915 0.70620096 0.6591145 0.61327446 0.32960045 0.3214574 0.19331336 0.23628429 0.37118262 0.639234 0.56675416 0.6089739 0.5985358 0.57929784 0.26479462 0.23204947 0.29194885 0.4482292 0.54751974 0.62895215 0.66240585 0.46162432 0.53707814 0.613649 0.6357529 0.6733943 0.7251196 0.7592199 0.7717608 0.6839933 0.759364 0.825618 0.82532537 0.79166186 0.8432931 0.85250175 0.84253836 0.76749134 0.80255175 0.83588326 0.4492187 0.5035025 0.29085815 0.39602375 0.49471116 0.5435995 0.56542003 0.5296074 0.5028304 0.4847492 0.40523064 0.13395157 0.08764699 0.48702025 0.5330166 0.54132307 0.3692628 0.5596529 0.5589577 0.19792935 0.6724218 0.54860103 0.53794813 0.21128583 0.13787845 0.5369 0.5557521 0.52611256 0.6136366 0.62429214 0.500693 0.39522517 0.163907 0.2576991 0.4750833 0.41030753 0.30673945 0.4653557 0.56277764 0.5767762 0.58015245 0.16735889 0.33697885 0.25673717 0.37782848 0.44902712 0.45642906 0.17645822 0.13995647 0.12002573 0.065998346 0.3818534 0.50347155 0.53631496 0.57541245 0.006720312 -0.07711518 0.13282838 0.06781797 0.37962186 0.56027627 0.32546163 0.26745728 -0.06434049 0.17490679 0.4138507 0.49267453 0.53856444 0.35664824 0.22655264 -0.027952248 -0.057395093 0.20771939 0.16223517 0.60546714 0.49083287 0.2339878 -0.018964294 0.23126385 0.07586608 0.46253878 0.415501 0.63868356 0.46316522 0.18231983 -0.1499515 0.14739883 0.19281507 0.19645767 0.5427556 0.5663469 0.47771478 0.5446411 0.52183634 0.5571029 0.43882665 0.4143337 0.21021566 0.013993688 -0.016083747 0.20353252 0.17603587 0.2034196 0.6240188 0.6611498 0.60292685 0.46175945 0.5639893 0.5331167 0.41949442 0.44647172 0.45872593 0.25914243 0.32189256 0.33405656 0.36771476 0.3386458 0.26001683 0.62401456 0.53913146 0.51726973 0.44951367 0.45138675 0.45237094 0.31843764 0.32861924 0.33999676 0.53132856 0.5485233 0.52271485 0.475587 0.36153495 0.3385605 0.51957834 0.5198097 0.5195142 0.5131577 0.4807125 0.20747235 0.14786321 0.16728014 0.60201025 0.54664385 0.43631554 0.46839693 0.4437572 0.25722906 0.035768367 0.16384724 0.29258353 0.58896995 0.5716262 0.5578766 0.520247 0.44546217 0.30509102 0.32941163 0.36624098 0.44727826 0.57512236 0.55428636 0.52189475 0.48396528 0.63454306 0.68250245 0.6707367 0.6214683 0.5574099 0.5249146 0.4863471 0.48822647 0.50352246 0.6334568 0.6932256 0.72774374 0.7111478 0.6776625 0.45869616 0.45868927 0.5272194 0.61299527 0.7698363 0.7841044 0.6367723 0.8162273 0.64321536 0.7104757 0.7679068 0.79507464 0.81291676 0.71235174 0.7356459 0.5239957 0.5613601 0.40333825 0.4385565 0.26387048 0.51208246 0.58191276 0.52826196 0.3968168 0.39180398 0.4567637 0.78036183 0.519679 0.5186618 0.68045664 0.7426902 0.7827729 0.7641103 0.52381873 0.16015007 0.14657205 0.57802224 0.6899766 0.7465085 0.70127237 0.6652785 0.5374324 0.04788451 0.37408137 0.52999157 0.58217394 0.5354347 0.33262256 0.33684304 0.41852182 0.470307 0.47329295 0.6118909 0.62519014 0.62952614 0.5995021 0.31726012 0.3891917 0.4646728 0.47736183 0.44320756 0.49788654 0.5357959 0.47688517 0.44628057 0.4186366 0.45621395 0.53667045 0.52177835 0.46664944 0.5096775 0.105843455 0.38761097 0.3564296 0.3721263 0.35958266 0.40601516 0.41546413 0.5836544 0.7628963 0.5579932 0.4429782 0.32487184 -0.036485903 0.03395673 -0.042881817 0.22537413 0.2590135 0.63118017 0.7509229 0.79437375 0.53065073 0.40963316 0.30869558 -0.041049913 0.0023991466 0.19876213 0.47503313 0.40412903 0.58910984 0.6833904 0.53751194 0.4269855 -0.153525 -0.26059282 0.20876265 0.5412516 0.445929 0.122642845 0.04535404 -0.27950102 -0.26952562 -0.124356195 -0.10829331 0.3915134 0.3596119 0.54900336 0.44621176 -0.33093637 0.22034746 0.21874246 0.16587111 0.44763535 0.304342 0.42508644 0.3921451 0.37644067 0.29819506 0.23955664 0.41837803 0.4047271 0.40765566 0.39605206 0.3496278 0.3750546 -0.4274589 0.17852981 0.19521086 0.20437405 0.5607339 0.4385595 0.24813126 0.30350116 0.37962925 0.31767288 0.2588925 0.25360227 0.26619017 0.4319101 0.38066295 0.269918 0.36206582 0.39506006 0.3893237 0.44029874 0.41265616 0.3332358 0.33984685 0.28536046 0.36742106 0.3203733 0.39234042 0.4137431 0.45468467 0.180338 0.21498859 0.35668793 0.53791773 0.53533876 0.1136929 0.37221783 0.5936524 0.49544024 0.47339365 0.5543384 0.5630585 0.44890028 0.44610307 0.57536125 0.54138947 0.5383859 0.5270999 0.44627923 0.3221146 0.4523733 0.6199349 0.4779008 0.4227181 0.4108209 0.45733684 0.47210133 0.45506072 0.353068 0.42838663 0.64191294 0.3912623 0.387058 0.40811998 0.45662397 0.4485139 0.53653735 0.70420253 0.52964544 0.6482886 0.7414886 0.74792135 0.58003944 0.5526412 0.47567457 0.66416454 0.7341032 0.5985317 0.609614 0.60627985 0.5432475 0.434496 0.43337357 0.48479667 0.5084813 0.5714599 0.5801117 0.60799384 0.55352414 0.47854155 0.4820801 0.51138335 0.5369161 0.5723237 0.5374165 0.47564512 0.5177536 0.7894821 0.79486966 0.67802703 0.7160742 0.6330751 0.52707124 0.5493359 0.36453784 0.45599428 0.55573845 0.523418 0.33321756 0.40322873 0.3463923 0.71571124 0.7539235 0.7388 0.44627327 0.42123005 0.14873211 0.63259226 0.7280015 0.7371913 0.6591072 0.45942077 0.15726776 0.1419123 0.28917497 0.5261087 0.6476899 0.48764873 0.43780655 0.019418284 0.24732013 0.41824895 0.4917359 0.44640237 0.118352935 0.22727188 0.33904868 0.4063868 0.42517924 0.29097667 0.5730688 0.532427 0.46476305 0.39883333 0.24955796 0.2845919 0.44761884 0.03554324 0.33895314 0.22934636 0.19274239 0.1916858 0.5853294 0.698963 0.7481254 0.5180462 0.20809828 -0.061286736 -0.04644327 -0.0194363 0.12882082 0.13880041 0.74941117 0.7801373 0.761048 0.5348426 0.1960825 0.13548379 0.22126275 -0.05338963 -0.09363377 0.020028278 -0.045578927 0.79896426 0.5112622 0.5609411 -0.060268067 -0.15833142 0.044457808 0.14709227 0.20550561 0.39277267 0.578969 0.6902193 0.7554647 0.5583193 -0.058232266 0.18515855 0.26273885 0.47097042 0.5724078 0.5627258 -0.1761211 -0.09897423 -0.029473685 -0.038095217 -0.26125854 0.17201507 0.32852867 0.3632341 0.5173243 -0.098001935 -0.028422868 0.36367545 0.22844425 0.18517846 0.10089479 0.09292754 0.061415933 0.19285049 0.12726392 0.27549443 0.21178973 0.18626213 0.16118474 0.16768582 0.16828698 0.11259548 0.27603948 -0.09412986 0.07330663 0.10621926 0.2471337 0.30873686 0.27787256 0.19105484 0.091122285 0.22443624 0.05349587 0.11861493 0.112675145 0.2697904 0.11075084 0.2628955 0.29753703 0.101388104 -0.3985077 0.23774447 0.022022814 0.14558929 0.12717849 0.044736985 0.05523345 0.058031514 0.36413315 0.06075473 0.016425287 -0.0029212907 0.45746982 -0.21641801 -0.08422881 -0.049982376 0.4831418 0.36203846 0.42050165 0.4243235 0.33444497 0.36158136 0.51281095 0.22004846 0.42740947 0.23615111 0.3069408 0.37812495 0.530425 0.18200183 0.46080226 0.29638284 0.4973879 0.45782408 0.401016 0.41018754 0.40524283 0.3672567 0.36183816 0.39697126 0.43938616 0.42918652 0.35068804 0.47888753 0.4486556 0.3291541 0.40553313 0.36115992 0.35386866 0.38114876 0.41380233 0.39866486 0.56161755 0.5569466 0.5560105 0.4756087 0.4271894 0.3061128 0.37263763 0.46421027 0.51716626 0.4477735 0.65107137 0.56225455 0.58654356 0.35178214 0.40823442 0.5199475 0.4884681 0.4583114 0.52212507 0.41182196 0.480699 0.50872225 0.48786128 0.52126753 0.46525306 0.39074633 0.42760667 0.45289922 0.50403786 0.4094864 0.367459 0.46083936 0.52041405 0.5576985 0.54135555 0.5378236 0.46584576 0.42828307 0.45903015 0.41987944 0.5160568 0.5550598 0.56262594 0.7932091 0.83395815 0.83047915 0.78570366 0.55595225 0.699764 0.41874844 0.3175893 0.5128588 0.5001585 0.40862483 0.29721802 0.28239268 0.34423792 0.26155043 0.22401045 0.27819136 0.64055717 0.6776509 0.65486336 0.34647715 0.14249471 0.07184672 0.08380833 0.14919454 0.16311221 0.2496374 0.51520884 0.5871601 0.5674175 0.60241234 0.2760168 0.1409155 0.1343107 0.10033863 0.14675452 0.06851868 0.10883055 0.13510323 0.13437092 0.23673287 0.53128576 0.10977942 0.27052307 0.2509126 0.10647563 0.39262855 0.18030716 -0.088601016 0.58576727 0.19198924 -0.11116604 -0.331807 0.67818475 0.7158154 0.4784107 -0.062534556 0.73328054 0.7310265 0.4900599 0.7337552 0.7343527 0.4706233 0.73773754 0.44269976 0.46570212 0.5933197 0.48875138 0.4802502 0.054695867 0.17522879 0.29415882 0.33239293 0.40722802 -0.17447844 0.013342932 0.20521614 0.17259876 0.079938166 -0.11836362 0.025030851 -0.050647072 -0.59180045 0.1563661 -0.05498255 0.035755638 -0.22181132 -0.016611293 0.21731994 0.14084342 0.055647932 -0.09983449 -0.12581953 -0.010667466 -0.05533792 -0.070571765 0.020149065 0.1884301 0.26447156 -0.2740309 -0.25860038 -0.1833984 0.03460779 0.07407877 -0.25939548 -0.1992571 -0.13939634 0.1366232 0.22040704 0.03380312 0.15851493 -0.2917303 -0.19013113 -0.14781894 0.046676606 -0.020085244 -0.11200641 -0.17492807 0.34796154 0.19037059 0.028526653 0.048375964 0.084430784 0.115528174 0.15357529 0.08794792 -0.025541367 0.18113765 0.24341413 0.18784508 0.43849617 0.49521324 0.5030662 0.5108312 0.37487414 -0.47932467 -0.3222472 0.3006122 0.186729 0.064669624 0.05721332 0.035473384 0.015543231 -0.043711305 0.18167447 0.2923348 0.30138004 0.26838374 0.5170915 0.57214123 0.60320234 0.5738964 0.42134517 -0.039197132 -0.2974875 0.24154149 0.020854827 -0.01213555 -0.04499433 0.032578096 0.1445804 0.35586697 0.29772827 0.2552757 0.42129734 0.49361393 0.57375085 0.5896374 0.5833751 0.48214373 0.2831093 0.29072964 -0.14567553 0.23476665 -0.034942646 -0.05259172 0.06494127 0.10223805 0.29310971 0.30663413 0.25139448 0.43145233 0.49345464 0.5178653 0.52228975 0.48202372 0.49158716 0.19464763 -0.099883124 -0.022615336 0.13087529 0.22333065 0.14074883 0.46704575 0.41954333 0.21278176 -0.05313337 -0.16413608 0.41396922 0.33654588 0.15984897 0.20611608 0.35711163 0.16778424 0.3841301 0.37509713 0.35892618 0.37592095 0.3985771 0.24819018 0.044611335 -0.16806027 0.45375133 0.48894912 0.3404565 0.30344656 0.2039648 0.34107736 0.24923117 0.3777972 0.38746357 0.39858848 0.07965769 0.01036855 -0.053475052 0.4089749 0.3170435 0.27918354 0.25794876 0.20985125 0.024968293 -0.13276345 0.36785078 0.3685926 0.27478826 0.31725773 0.15646707 0.31285965 0.43068883 0.4535361 0.5167158 0.34750593 0.33644927 0.33047724 0.25758857 0.24586071 0.2913618 0.43731546 0.4983005 0.5352213 0.54357505 0.48673046 0.23286736 0.29040194 0.4723247 0.5062655 0.49568868 0.32421944 0.23347288 0.23471653 0.52128816 0.50569415 0.6545736 0.6610993 0.65840435 0.70232105 0.7187084 0.70249367 0.79453266 0.8004271 0.7861639 0.74758244 0.5839567 0.6232394 0.6351172 0.5645951 0.691203 0.6027845 0.45909908 0.5641527 0.6040454 0.59755623 0.54602087 0.39251846 0.2453309 0.31831652 0.3677368 0.42175475 0.39476335 0.46924892 0.25639817 0.12526435 0.20910054 0.158898 0.21805903 0.2808277 0.30848935 0.27263033 0.3278551 0.4836772 0.5207306 0.23674214 -0.012633011 0.08312884 0.101899125 0.114982 0.2080051 0.06820919 0.16956967 0.1350843 0.21174425 0.25019968 0.36402634 0.40280285 0.10294083 0.055838674 0.16169937 0.12665673 0.038392335 0.3943381 0.08294953 -0.13755006 0.06374762 0.22878343 0.12285794 0.097869396 -0.064129144 0.5994479 0.26452768 0.66767144 0.37173772 0.6614369 0.6804315 0.3600792 0.65151435 0.6807033 0.3693681 0.6391889 0.3490102 0.6139186 0.34069413 0.30218613 0.08712894 0.19473267 -0.08537587 -0.016606733 -0.19004205 -0.6265512 -0.52633244 -0.067206964 -0.088816725 -0.105718896 0.043289162 -0.10767868 -0.26967502 -0.34690642 -0.26786098 0.031267095 0.1273925 0.12801996 -0.16699588 0.0020633638 -0.053399503 -0.15259595 0.016164847 -0.040281072 -0.05060022 0.16058367 -0.125386 -0.022517055 -0.0026512705 0.06478062 0.053876325 0.018544927 0.1012381 0.115469724 0.76586646 0.8039126 0.81743443 0.17345193 -0.14733182 -0.11757942 -0.045110226 -0.007818148 0.03247162 0.06360521 0.22914854 0.36565 0.7474251 0.7987187 0.82933 0.2517779 -0.1753083 -0.017087173 -6.2253326e-05 0.028333597 0.048647128 0.04541193 0.21837708 0.17305657 0.27392587 0.49052694 0.40371627 0.7467736 0.7829128 0.8256049 0.36921227 0.30225104 -0.32564765 -0.29282337 -0.08879134 -0.038380373 -0.016302131 -0.045708347 -0.026272666 0.15355203 0.5178681 0.773915 0.43636048 -0.25646695 -0.2071494 -0.19756787 -0.20033799 -0.17347038 -0.11022023 -0.03601516 -0.043429106 0.17511413 0.10442822 0.11582235 0.29469338 0.3682459 0.4488514 0.42853183 0.4583734 0.44935745 0.43828696 -0.22881597 -0.17627144 -0.1868175 -0.21022731 -0.18421677 -0.10836552 -0.05081514 0.11030418 0.1270537 0.36688477 0.42004406 0.43561926 0.42593542 0.39993438 0.24963222 0.09538846 -0.034404606 -0.15776691 -0.15995073 -0.3314904 0.074491635 0.26447982 -0.21109933 -0.28415862 0.13290493 0.43025643 0.39934418 0.38352615 0.36400378 0.03917147 -0.16200545 -0.19434774 0.1322312 0.20734455 0.3799422 0.38170314 0.38544494 0.3902669 0.038681045 -0.10828306 -0.16693182 0.37633622 0.29674187 0.22518823 0.30728522 0.34143546 0.12697355 0.19479865 0.3608303 0.40356693 0.12948233 -0.001505617 0.10963313 0.12483236 0.10731237 0.21035317 0.3074325 0.40110677 0.4182889 0.4389149 0.2635071 9.730086e-05 0.086535126 0.14924875 0.11042422 0.028822213 0.029165715 0.12835324 0.17790148 0.17210758 0.19691366 0.2567234 0.37664664 0.4214027 0.4307515 0.42209524 0.39763033 0.27470362 0.25783372 0.49031654 0.5041437 0.3883522 0.6409018 0.6514384 0.6025219 0.58068085 0.6966454 0.73757935 0.74496377 0.722739 0.6710346 0.7656841 0.78889966 0.7666371 0.7147933 0.5155711 0.54072666 0.7237104 0.70409966 0.44990572 0.535224 0.58435416 0.6145169 0.5925777 0.6207627 0.64430904 0.6205405 0.5347452 0.49188656 0.35896075 0.40321153 0.56801724 0.46001065 0.39971644 0.502821 0.41687948 0.37274975 0.3030947 0.24355002 0.36344847 0.23302129 0.033278067 0.014207527 0.06267486 0.313452 0.13457775 0.21672243 0.23084968 0.23861744 0.2226386 0.20439564 -0.1092187 -0.071887776 0.06646019 0.07691513 0.21999344 0.13912132 0.3129283 0.27541077 0.08290083 0.21613373 0.5542851 0.44080794 -0.078580245 -0.103980795 -0.17081851 0.20261322 0.4965343 0.40268564 0.35615012 0.46086723 0.58491737 0.5467516 0.13187653 0.5094324 0.22211097 0.09786436 0.40025675 0.44792178 0.17022362 0.43448246 0.06027982 0.35456908 0.15709728 -0.07442472 -0.084738374 0.30657512 -0.12101084 -0.6525137 -0.7864127 -0.124826096 0.084672466 -0.6468168 -0.5406494 -0.077127434 0.14021015 0.23330712 -0.1042607 -0.28895512 0.022402007 0.16701043 0.11035505 0.044134438 0.07620268 0.6223792 0.7430673 0.79074764 0.8012794 0.14474598 -0.002954062 0.7021684 0.8020814 0.81801385 0.81871796 0.15737022 0.10598631 0.68425333 0.832703 0.8346671 0.17001973 0.66051054 0.82917154 0.8418952 0.23731539 0.027920023 0.35238338 0.6554331 0.7571085 0.79297286 0.3488712 0.3007099 -0.158081 -0.016019307 -0.08954346 0.32843232 0.19682983 0.6488867 0.7392899 0.7711121 0.36764398 -0.33357316 -0.24666165 -0.075332865 0.18665758 0.32802778 0.38565552 0.36267427 -0.42075288 -0.31623927 0.30368698 0.41253722 0.41714674 0.40241158 0.34291226 0.36902717 0.13524829 -0.3294779 0.34802973 0.35963726 0.3429441 0.26750797 -0.25658196 0.01935672 0.35417363 0.35655314 0.34573278 0.13851057 0.29680297 0.1943036 0.34369618 0.45476973 0.33126423 0.37860587 0.48104537 0.34147292 0.36065337 -0.098800614 -0.07424982 0.40685773 0.48723325 0.32197183 0.2968896 0.27784193 0.29821694 0.269954 0.13993639 -0.011161014 0.25706252 0.3913758 0.22987135 0.14358473 0.28476796 0.44408855 0.5096875 0.45831102 0.6486088 0.6251835 0.49649823 0.7726915 0.8345574 0.784457 0.70910966 0.4379601 0.4983693 0.51397747 0.7049651 0.65228057 0.60749567 0.5086493 0.3494431 0.45968592 0.5509316 0.5289588 0.52682096 0.53179616 0.6302701 0.5999967 0.5357455 0.38053763 0.46855056 0.41654092 0.40308696 0.42534727 0.4264639 0.5097807 0.48317438 0.071424544 0.305945 0.26442504 0.0089636 0.45776337 0.22854038 0.24310732 0.16899098 0.29079443 0.286684 -0.008617289 -0.028233267 0.03269422 0.052183352 0.06808396 0.07498572 0.3092334 0.32312608 0.10055985 0.11589006 0.5407742 0.3921501 0.017972542 0.095233805 0.5990649 -0.08369823 -0.072472066 -0.009717494 0.5815995 0.19227244 0.50546485 0.24066049 0.24410607 0.37626028 -0.1750668 0.29624775 0.35404897 0.015369745 0.30753517 0.2762577 -0.02254692 0.31087306 -0.12896305 0.1465472 0.16287585 -0.009863719 0.48633993 0.33599305 0.23947904 0.52988666 0.47101045 -0.8474978 0.20416039 0.28553522 0.28343683 0.26389796 0.07986825 0.7370245 0.75040096 0.14718957 0.7720003 0.7987617 0.1846522 0.8241837 0.18451087 -0.012383804 0.8385673 0.14650595 0.067312576 0.8021394 0.80165815 0.18460204 0.1637182 0.6562964 0.7571046 0.7910298 0.7990062 0.22863647 -0.13013664 0.000883847 0.058155276 0.30300105 0.6808336 0.7590599 0.78004897 0.2769351 0.21329257 -0.16976407 0.14011627 0.37946656 0.3679596 0.30837208 0.27961046 -0.22075525 -0.09742238 -0.