# vtk DataFile Version 2.0
Really cool data
ASCII
DATASET POLYDATA
POINTS 2150 float
15.30169 -2.896977 40.043247
15.256389 -2.9679322 40.58869
15.275491 -2.955012 41.018024
15.269008 -2.518654 39.855587
15.102435 -2.3802557 40.537376
15.197491 -2.3456936 41.227573
15.283633 -1.7330091 40.004864
15.186968 -1.5456773 40.57218
15.253847 -1.5595216 41.321384
15.3921 -1.9391773 41.74824
15.330956 -1.0995419 40.71633
15.378409 -1.0710261 41.174057
16.428854 -7.2940016 48.937695
16.323256 -6.0936046 47.967545
16.14575 -6.25638 48.514065
16.01611 -6.1870527 49.362125
16.27393 -6.28823 50.317997
16.19879 -5.552043 48.0009
15.996223 -5.510247 48.64622
15.936223 -5.4606934 49.36766
16.119528 -5.235834 50.444347
16.350714 -5.4808245 50.822296
16.304039 -3.8688807 39.902
16.116518 -3.7738483 40.819847
16.025585 -3.7336268 41.278267
16.21292 -5.01069 48.167507
16.18262 -4.6843195 48.697803
16.059185 -4.5054607 49.570015
16.139791 -4.53816 50.30812
16.310629 -4.7868066 50.763382
16.079124 -3.1330967 39.180225
15.6830015 -3.2103097 39.81419
15.637134 -3.4469213 40.27058
15.721192 -3.278478 41.54619
15.853675 -3.0313516 41.99667
16.282999 -4.0774226 49.529343
16.25305 -4.109988 50.27313
15.867201 -2.4037857 39.22055
15.471929 -2.5461066 39.548286
15.722115 -2.4728775 42.06995
16.15517 -1.4491065 39.25882
15.591714 -1.4795325 39.757397
15.464441 -1.2779272 41.63108
15.705024 -1.6144974 42.01722
15.848024 -1.0565653 39.832733
15.8125105 -0.66746956 40.63027
15.72313 -0.81813544 41.34123
15.806873 -1.095708 41.851578
16.090553 -0.40751007 40.704304
17.225685 -11.24731 48.88075
17.269266 -11.325683 49.389328
17.044294 -10.672977 48.888298
16.97446 -10.377854 49.394222
17.195038 -10.508603 50.117435
17.329895 -9.444413 48.258747
16.992584 -8.88112 48.910862
16.918638 -9.069091 49.461277
16.995333 -9.239936 50.098705
17.192781 -8.718657 48.12655
16.689745 -7.995478 48.625637
16.632933 -8.070056 49.362106
17.16584 -8.127504 50.865166
16.947002 -7.329293 48.03976
16.562662 -7.183932 48.364204
16.684946 -7.7148476 49.73293
16.598286 -7.4783683 50.344032
16.977446 -7.16646 51.210316
16.829117 -6.5686345 47.638763
16.932676 -6.488134 51.339596
16.656986 -5.334235 47.55481
16.661375 -5.6421747 51.078205
17.20371 -5.9939823 51.671864
17.333 -4.5641646 38.836018
17.016962 -4.4902544 39.172615
16.775635 -4.422094 39.99844
16.78085 -4.9089856 47.65646
16.437607 -4.4381337 48.411297
16.586836 -4.527217 50.925453
16.987402 -3.379947 38.572605
16.242748 -3.5753047 41.71242
16.737925 -3.4563599 42.081257
16.796017 -4.0194893 48.81657
16.556635 -3.8328485 49.661232
16.609303 -3.775926 50.299347
16.813963 -4.011587 50.842644
16.823458 -2.2212734 38.75672
16.506151 -2.4669592 42.504314
16.814365 -1.7255744 38.713566
16.703775 -1.8292413 42.414097
16.813284 -2.0742617 42.56519
16.63629 -1.012569 39.184402
16.625002 -0.7861296 39.53814
16.198338 -0.4947216 40.500927
16.559992 -0.5468861 41.582664
16.617113 -0.8486681 41.939087
16.886003 -0.3533399 39.953087
16.40615 -0.36263928 40.71251
16.613144 -0.35721898 41.096897
17.963842 -11.983542 46.97206
18.046913 -12.43769 47.591988
17.985802 -11.842264 50.11619
17.892815 -11.30458 46.95077
17.698677 -11.611456 47.83483
17.513596 -11.465312 48.529102
17.900883 -11.411184 50.419247
18.011435 -10.940611 47.081654
17.682886 -10.717886 47.846035
17.384754 -10.767614 50.31102
17.950207 -9.98014 50.939774
17.750051 -9.259386 51.35243
17.586634 -8.451648 51.286602
17.937529 -8.683433 51.67169
17.518787 -7.1441474 47.50835
17.693007 -7.3495803 51.750694
17.64573 -6.421686 47.3734
17.317698 -6.4184437 47.474396
17.566284 -6.626804 51.828346
18.157173 -5.317898 38.107124
17.76416 -5.0822697 38.767788
17.517204 -4.9646325 39.63882
18.086811 -5.0715523 40.518913
17.57679 -4.7755604 40.897472
17.341215 -4.3075657 41.146805
17.29048 -4.9523125 47.45157
17.25664 -4.575373 51.2702
18.199705 -3.8528082 37.265083
17.79223 -3.603874 37.68743
17.177671 -3.037181 42.383137
17.18818 -4.287082 48.129734
17.500748 -3.9495378 48.757744
17.380152 -3.6332662 49.50979
17.46615 -3.60979 50.338062
17.443167 -3.9023597 50.84327
17.19195 -2.6670463 42.49574
17.14734 -2.6947405 42.522366
17.400688 -1.6114793 38.519325
17.494312 -0.82026374 38.855934
17.605848 -0.49068022 39.265354
17.271442 -0.89598787 42.03157
17.39373 -0.34017417 39.797382
17.317057 -0.30833048 40.423485
17.277584 -0.30924377 41.10837
18.385906 1.0603993 55.730625
18.415018 0.9350145 56.21783
18.378633 1.5085571 55.595795
18.36992 1.5503981 56.305946
18.387661 2.246215 55.558777
18.417097 2.5609875 56.017426
19.402342 -17.271252 50.824097
19.313787 -16.575932 50.124172
19.172329 -16.376585 50.564083
19.219885 -16.308939 51.378822
19.37679 -16.35355 51.859005
19.155268 -15.546817 49.33925
18.895264 -15.471401 50.737953
19.02981 -15.579434 51.36945
18.996223 -14.3762 47.85129
19.019985 -14.307386 48.318134
18.847897 -14.7515545 49.70207
18.725645 -14.498674 50.60491
18.901836 -14.49383 51.250694
19.37122 -13.074312 45.650154
19.046991 -13.699472 47.3474
18.591867 -13.333936 48.364872
18.857983 -13.848682 50.624866
19.154139 -13.458329 51.109623
19.235811 -12.052046 45.208458
18.576752 -12.198803 46.149193
19.35556 -11.72746 44.916767
18.862906 -11.635524 45.636936
18.464556 -11.009561 50.856865
19.179628 -9.952371 36.649857
19.123161 -10.201758 37.56814
18.859705 -10.03315 38.56406
19.108515 -10.0830555 39.23436
19.300291 -10.523389 45.278507
18.414215 -10.855391 46.41006
18.70243 -10.525263 51.19112
19.133204 -8.997038 35.165794
18.958126 -8.943864 35.61
18.812119 -9.190277 36.679768
18.803669 -9.553392 37.426117
18.621994 -9.4789915 38.40415
18.756649 -9.310027 39.26155
19.158936 -9.456182 39.923256
19.192596 -9.754337 46.03454
18.758125 -9.063853 51.99386
19.368765 -8.023253 33.40994
19.075829 -8.257581 34.74195
18.696318 -8.3944 35.85064
18.643124 -8.429689 36.45341
18.6968 -8.504244 37.71194
18.691172 -8.242637 39.052624
19.103487 -8.616674 40.287437
18.478136 -8.210569 47.229313
18.624437 -8.510864 52.064484
19.316753 -7.1123395 32.70309
19.226854 -7.4555125 33.367214
18.809872 -7.884002 35.158
18.690231 -7.7523355 35.64974
18.911106 -7.3619056 40.158577
19.192297 -7.2836504 40.80284
19.386137 -6.352281 32.541313
19.231958 -6.185153 34.177563
18.976189 -6.646878 35.956085
18.918118 -6.5919423 37.51516
18.688236 -6.023124 40.10263
19.169527 -6.497439 41.272133
18.612486 -6.3134255 47.203533
18.175611 -6.896473 51.951046
19.352594 -5.737243 33.744484
19.29017 -5.684399 34.36005
19.130861 -5.089564 42.50476
19.267298 -5.0705805 43.023197
18.192907 -5.818366 47.262707
18.30816 -5.8925586 51.806858
19.27873 -4.863126 34.47453
19.16409 -4.1857924 35.789814
18.762775 -4.046935 42.59826
18.91845 -4.3288884 42.77658
19.251621 -5.2374344 47.216965
18.221327 -4.877923 47.6541
18.876022 -4.6113577 51.09874
19.307606 -3.8422446 35.54879
18.445383 -3.6688294 42.20897
19.314133 -3.4171252 43.41664
18.260164 -3.9880147 48.739952
17.860954 -3.5510352 49.96627
18.027903 -3.7097647 50.148144
18.772936 -2.6302903 37.0915
18.582418 -2.268331 42.376987
18.648436 -1.3259828 42.084194
18.474876 -1.1499131 38.290623
18.349318 -0.71991074 38.878345
18.290913 -0.59718096 41.57973
18.405294 -0.8280371 41.81616
19.193384 0.30948624 55.02633
18.8641 0.30820546 55.410053
19.141455 0.26624125 56.598732
18.446476 -0.258091 39.943474
18.397844 -0.30286515 40.472874
18.139696 -0.31060058 40.948967
18.915558 0.9764636 54.72447
18.81248 0.42035788 55.61775
18.726746 0.64707017 56.388893
18.864532 0.87048805 57.08388
19.163555 1.7017534 54.08943
18.759441 1.7200683 54.69328
18.546156 1.3149883 56.716396
18.692144 1.5235637 57.145454
19.077898 1.6371328 57.879253
19.002144 2.4022202 54.245186
18.75889 2.511712 54.710293
18.510845 2.4466133 55.43522
18.60868 2.6002996 56.58408
19.19445 2.2330375 58.06342
19.323357 3.0421677 54.107006
18.83809 2.955449 54.86322
18.7012 3.0965564 55.482822
18.755272 3.078398 56.156372
19.023932 2.910297 56.96481
19.217169 3.6518736 55.158257
20.039646 -17.79334 49.898304
19.915897 -18.081615 50.59884
19.899145 -18.08118 51.3697
20.185509 -18.119076 52.007824
20.070389 -17.083902 44.843605
20.060356 -17.186493 45.4711
19.587444 -17.644272 50.61527
19.579601 -17.461006 51.56121
19.93707 -17.466955 52.16319
20.234085 -17.239944 52.67274
20.180916 -16.174847 44.02777
19.970495 -16.605152 44.596916
19.795645 -16.598526 45.511196
19.936014 -16.583826 46.119713
19.84098 -16.204435 49.040836
19.520903 -16.197533 49.432568
19.677776 -16.621485 52.172726
20.095959 -16.224901 52.78238
20.257898 -15.681613 43.648438
19.834606 -15.4848995 44.601658
19.726942 -16.003563 45.485493
19.533703 -14.973301 47.970985
19.408453 -15.726267 49.09621
19.646654 -15.344438 52.295803
20.242704 -15.351866 52.766483
20.015629 -14.56662 43.74692
19.669546 -14.581204 44.55258
19.615482 -14.347938 52.083805
20.007214 -13.321507 43.891872
19.737286 -13.605564 44.485447
19.452774 -13.362352 51.404083
20.149971 -12.887305 44.022194
20.091639 -10.95668 36.759823
19.68426 -10.798778 37.13874
19.968727 -10.830896 39.104828
19.391275 -11.235 45.083973
20.040026 -11.084008 52.10811
19.73315 -10.10068 35.97265
19.589127 -10.392729 36.55187
19.421427 -10.651621 37.489723
19.370836 -10.560258 38.76288
19.425968 -10.266618 39.468304
19.536165 -10.728495 44.934772
20.221895 -8.652156 32.828197
20.007278 -8.96613 33.687145
19.929546 -9.34472 34.76266
19.450888 -9.673738 35.760784
19.459816 -9.488737 40.262928
19.865246 -9.209513 52.356712
20.126984 -8.001438 32.106552
19.663404 -8.009543 32.78443
19.585827 -8.291116 33.38149
19.56153 -8.53956 34.308384
19.405365 -8.391753 40.609535
19.919092 -8.748403 40.85493
20.082825 -8.541445 52.943073
20.124552 -6.8535595 31.098497
19.938507 -7.290726 31.684553
19.250668 -7.292108 47.033993
19.900558 -7.343898 52.501816
20.02588 -6.3040366 31.031946
19.69304 -6.4225745 31.566874
19.544222 -6.6483946 42.070835
20.06545 -5.762516 31.016235
19.746931 -5.762135 31.56551
19.692747 -5.48478 32.340626
19.683445 -5.254633 43.582756
19.815113 -5.3671203 45.432503
[...]
POINT_DATA 2150
SCALARS features_00 float 1
LOOKUP_TABLE default
0.76864946 0.8008728 0.83491504 0.8007165 0.86800814 0.906901 0.851157 0.88503194 0.91029954 0.93390745 0.8622861 0.8773843 0.45688713 0.63395166 0.6072273 0.6188446 0.5750306 0.6975976 0.7203823 0.7508584 0.72461975 0.65452886 0.5520693 0.632183 0.6839112 0.7513461 0.7989706 0.8392323 0.8136375 0.75721467 0.6264624 0.6830231 0.6846658 0.8029382 0.83572304 0.86949277 0.85300624 0.7257974 0.7642188 0.9063158 0.7128323 0.8059832 0.9011257 0.93051374 0.7634975 0.8020271 0.8505862 0.88529706 0.7681242 0.34767163 0.408058 0.3331568 0.37870649 0.4155433 0.26431212 0.31747103 0.3427321 0.37110764 0.29707024 0.37491816 0.36893794 0.36432767 0.46077582 0.48813856 0.4044575 0.4399663 0.41040096 0.55365723 0.4652124 0.66475344 0.5999363 0.4872789 0.34271944 0.38491014 0.43300456 0.6873996 0.7865781 0.77251184 0.4655518 0.7053702 0.6229633 0.8170717 0.879035 0.8751102 0.84410936 0.59659827 0.775912 0.60046315 0.81744564 0.7525383 0.6420628 0.65899503 0.7495884 0.76321495 0.80972123 0.6482795 0.7333024 0.725309 0.24848685 0.25681517 0.37351745 0.24596068 0.26413113 0.30789727 0.39531714 0.24027368 0.2442808 0.4162262 0.32564995 0.26342222 0.2907974 0.21737319 0.4186492 0.3137228 0.46053097 0.5122459 0.38771096 0.20095098 0.25661746 0.2835397 0.18792059 0.31023198 0.40909886 0.61452764 0.7238884 0.1974392 0.29474506 0.5614578 0.7143847 0.7703071 0.85015196 0.872488 0.8426682 0.59116316 0.5994162 0.49860054 0.5503514 0.5658314 0.71277833 0.6038903 0.6329639 0.65962034 0.6100054 0.6174362 0.6146951 0.63850635 0.6098876 0.6259327 0.65615964 0.504714 0.51700693 0.57230747 0.5991291 0.3043285 0.47526282 0.51108766 0.064064026 0.10660832 0.33089703 0.44003394 0.45384836 0.16866176 0.13653699 0.1755602 0.3871113 0.36151809 0.15403032 0.2188069 0.1424171 0.189167 0.3232559 0.33589637 0.40561497 0.4581515 0.44510296 0.16272879 0.23619531 0.26975635 0.28174192 0.29328555 0.32775742 0.38170347 0.4422135 0.39847225 0.35178784 0.1230301 0.13529791 0.35804492 0.28618044 0.2930027 0.29718494 0.35781175 0.33593267 0.22888258 0.2204941 0.14165276 0.48421502 0.382399 0.2832634 0.27395207 0.113402896 0.05273886 0.4882512 0.27485803 0.21946867 0.07930068 -3.6641955e-05 0.0025268644 0.27640676 0.28971583 0.28478482 0.20542014 -0.0025218576 -0.023118831 0.37255073 0.42176217 0.14582275 0.049548324 0.04718566 0.0051189214 0.047282204 0.44068682 0.5393591 0.051787853 0.19143808 0.026425004 0.6626039 0.848672 0.8210367 0.12230583 0.3298914 0.43849427 0.33237004 0.45060152 0.5851978 0.54364395 0.5300602 0.56528634 0.56417465 0.50473547 0.5580929 0.6108823 0.54667014 0.57641125 0.5955663 0.6297226 0.48147863 0.5559454 0.64316654 0.67611146 0.69080174 0.4766996 0.5267156 0.5938609 0.65677047 0.6858248 0.41317394 0.51428115 0.56331474 0.60414135 0.6621695 0.487033 0.73832357 0.8249036 0.8403454 0.84447455 0.6406406 0.6500095 0.7170512 0.7400496 0.7786819 0.77496105 0.55650634 0.6061506 0.6014236 0.5593314 0.28597695 0.39045817 0.652445 0.654048 0.5174198 0.5154109 0.53059256 0.03080707 0.27488092 0.53329116 0.59804255 0.4401328 0.3792178 0.44438475 0.23920885 0.21926004 0.3526108 0.17998558 0.34372965 0.37174925 0.43884197 0.15608674 0.10960916 0.29844305 0.32781684 0.40080386 0.462286 0.43477887 0.1347735 0.416287 0.3371022 0.2690513 0.29495835 0.30969048 0.07607894 0.5064782 0.43341392 0.3594082 0.29547244 0.15691769 0.1299238 0.12635498 0.6409402 0.5843575 0.16260467 0.07603004 0.6545613 0.61304975 0.022010444 0.647987 0.5911985 0.45766234 -0.018839195 -0.09538351 -0.057493314 0.5725555 0.38383406 0.18758123 -0.12508303 0.14487667 0.05971189 -0.04394889 -0.068329565 0.011846261 0.026707739 0.010750696 -0.019279018 -0.111020505 -0.07754405 0.09615663 0.016062096 0.4595548 -0.013744436 0.3722362 0.59629756 0.3081209 0.40840375 0.6197604 0.6170231 0.29051143 0.6512322 0.630911 0.26532435 0.31044906 0.58744514 0.6208927 0.6527878 0.21669394 0.21527793 0.37619123 0.506431 0.5255113 0.55836767 0.63693786 0.67150676 0.68717337 0.6966566 0.71643776 0.72771317 0.7334931 0.74427176 0.8711009 0.86213076 0.6838782 0.70134103 0.8421644 0.88501084 0.8698501 0.853322 0.84743 0.5960325 0.6574671 0.6753545 0.6604647 0.48227406 0.8164847 0.5130843 0.5755421 0.2573713 0.7289783 0.46761033 0.684862 0.44195423 0.3004649 0.33578122 0.36000443 0.25529885 0.29284275 0.32725725 0.3941788 0.38026127 0.35025787 0.2785294 0.43332952 0.3776922 0.30151433 -0.0066789538 -0.27277583 -0.26711792 0.2662961 0.26066953 0.5156059 -0.287847 -0.15313904 -0.122781605 0.61290383 -0.1264245 -0.36756843 0.19199057 0.39115703 0.4319352 0.6516634 0.18842214 0.40823 0.45218253 0.47670737 0.65912735 0.1420221 0.49551976 0.50254035 0.6367923 0.32398093 0.002169028 0.27475858 0.34828076 0.5101333 0.3094024 -0.09577198 -0.15397328 -0.15827207 -0.06280331 0.21608245 0.00847251 0.17074265 0.2767919 0.29528302 0.024484113 -0.11725634 0.060419746 0.23839533 0.063314274 -0.15122873 0.10069771 0.08004564 0.005041972 0.47153318 0.15148549 -0.16798745 -0.19273575 0.0801797 0.0067077726 0.41859698 0.56640637 0.49062258 0.20842482 0.21545066 0.1716207 0.09535324 0.0056885714 -0.01879295 0.13986765 0.51609874 0.54828453 0.23460364 0.2071553 0.13384365 0.0858001 0.17300376 0.5688797 0.617877 0.19631745 0.5946095 0.6194769 0.18057647 0.3166005 0.37134427 0.20268376 0.29257828 0.2969278 0.50760067 0.27907702 0.49596456 0.6001383 0.65441275 0.6375223 0.613443 0.6504601 0.6401608 0.6316648 0.6245495 0.63508946 0.63179696 0.63768077 0.6846612 0.7083185 0.6229025 0.6626581 0.7200326 0.73197484 0.6573603 0.7053509 0.74509674 0.77273744 0.7802005 0.7157389 0.7519872 0.78565276 0.86418176 0.85644627 0.8533623 0.7076969 0.7016636 0.7543864 0.8170559 0.83197105 0.8536926 0.8501898 0.5283717 0.63224983 0.6432592 0.8315213 0.4752198 0.5312562 0.7597499 0.43902308 0.7217659 0.42627567 0.65029955 0.34515938 0.32781345 0.31906492 0.14475393 0.018196419 0.29121292 0.32370722 0.3021364 -0.14993045 0.3247941 0.32306284 0.46814913 0.4365158 0.31154668 0.5276244 0.510653 0.28470948 0.57361823 0.44000602 0.47320148 0.5811366 0.6113428 0.48398417 0.48538774 0.5821619 0.5818845 0.49430656 0.48951143 0.49644536 0.4629321 0.088265225 0.47178715 0.03194923 -0.19417375 -0.07532937 -0.021226255 -0.1508725 -0.14892156 0.016631214 -0.0059904233 -0.14484923 0.3846112 0.04453176 0.13996617 0.21009254 -0.07999803 -0.064295754 -0.13779515 -0.12014988 -0.015389748 0.058189787 0.06841135 -0.015978869 0.48795366 0.1953956 0.20722428 0.1819201 0.0013254173 -0.0026044995 -0.0045866277 -0.058462314 0.06593558 -0.0018223226 -0.04289766 0.55937505 0.19661722 0.19985141 0.12819844 0.019535296 -0.019329421 0.01433371 0.035100337 0.003573481 0.06706532 0.16033947 0.33404905 0.33906198 0.36861205 0.5835478 0.3253497 0.35361463 0.39484128 0.38904494 0.50917953 0.32965726 0.3745802 0.1611307 0.3730154 0.45768496 0.13303389 0.16687214 0.2145633 0.47325453 0.26454642 0.32615623 0.4778902 0.63984364 0.6108925 0.65974593 0.6643392 0.6447692 0.5836791 0.47243243 0.64542496 0.6676254 0.6566411 0.6394049 0.605116 0.6169605 0.6734767 0.59631586 0.5553686 0.7179791 0.5965507 0.7703943 0.6041394 0.70377904 0.7648839 0.80414927 0.80471766 0.57114667 0.5485622 0.5155985 0.6547996 0.70208204 0.8068298 0.82116765 0.5676687 0.41058677 0.49563727 0.5089737 0.6686071 0.77075785 0.807752 0.4597497 0.7359028 0.3921731 0.43156022 0.68161505 0.3695802 0.64074117 0.36560786 0.35212976 0.22050127 0.11335073 0.33732367 0.070579 -0.0064206272 0.23655057 0.21952741 0.27570015 0.29438454 0.35571828 0.31421128 0.2986549 0.51486295 0.46890885 0.3215679 0.4300028 0.5360363 0.48288214 0.49317425 0.53472406 0.5545795 0.48729512 0.52703667 0.49851662 0.46693695 0.47312725 0.45837986 0.4584508 0.16423997 0.50323105 0.4140877 0.24050796 0.14431134 0.4449293 0.42266443 0.19757843 0.29285252 0.37656072 0.2734993 0.37091714 0.41068763 0.035632484 -0.107921734 -0.025746603 0.16402 0.10335074 0.1862034 0.054755967 0.040398564 0.47394985 0.48379374 0.32368264 0.12004787 -0.035402738 -0.012823636 0.055289753 0.11592423 0.33843 0.30085346 0.44489568 0.57588565 0.5844882 0.4426297 0.11796067 0.19723238 0.17514345 0.08833121 0.07603083 0.094764195 0.112593606 0.08936232 0.13245134 0.32168657 0.12065987 0.37927943 0.6705302 0.635241 0.5776208 0.4659094 0.16018024 0.22410005 0.28996837 0.2994925 0.28311145 0.16977657 0.23160906 0.20364791 -0.15693715 0.50653803 0.71174616 0.6727499 0.6495682 0.3081113 0.33897138 0.32253134 0.29858354 0.22857466 0.6483783 -0.09600532 0.1541177 0.613539 0.58732694 0.7249243 0.31308523 0.28508598 0.6340245 0.2739005 0.50157416 0.6754129 0.6540298 0.59949815 0.6222074 0.15551779 0.6692416 0.68045104 0.5754197 0.5432045 0.6835159 0.39225432 0.72399163 0.45023602 0.6127111 0.606188 0.6959137 0.736828 0.47667813 0.4307403 0.4172221 0.48153192 0.33864647 0.4032518 0.34915286 0.20064312 0.31823513 0.4379666 0.6013737 0.6582116 0.42343175 0.5862632 0.39813292 0.3403077 0.2611581 0.37569338 0.35788482 0.36031407 0.27058023 0.16791898 -0.022457615 -0.033975057 0.3603758 0.36632365 0.3614689 -0.04821299 0.3231007 0.00913921 0.25682384 0.052797746 0.011484909 0.2329952 0.47759154 0.37931758 -0.086650684 0.28472158 0.38405964 0.5240122 0.46729192 0.48402923 0.51893085 0.5151881 0.48501855 0.49284887 0.4184069 0.45638365 0.565223 0.55110896 0.5682155 0.52973306 0.5168736 0.063908875 0.4224967 0.34026912 0.5017616 -0.15165073 0.15851766 0.3655811 0.5793404 0.53391737 -0.06923592 0.6359161 0.06405072 -0.021238428 0.10097667 0.7083144 0.6915765 0.090697154 0.104321495 0.25565264 0.11673846 0.55934286 0.7528889 0.7515137 0.7192409 0.3162858 0.13649267 0.51474464 0.5450965 0.6175996 0.59958166 0.7584865 0.75249004 0.71947426 0.3815506 0.34903222 0.31925237 0.31072864 0.30513215 0.2723569 0.54499894 0.032447383 0.65881526 0.6458093 0.3545063 0.3284852 0.3159336 0.3131404 0.33822984 0.20769158 0.66430414 0.2973733 0.3516965 0.34047574 0.6146491 0.41858128 0.47804072 0.47522423 0.54157925 0.27674872 0.27171245 0.29252362 0.24582168 0.25296977 0.23430279 0.22856851 0.20338142 0.31050968 0.27395165 0.2928788 0.28563106 0.3598753 0.3557055 0.32736015 0.19032502 0.3326371 0.33901113 0.34695882 0.269818 0.21208811 0.00045475364 -0.0016642436 0.06889215 0.18834499 -0.13464136 0.15323235 0.18502682 0.29833686 0.36338693 0.4641204 0.37637365 0.457294 0.4854798 0.45562 0.40058297 0.25607803 0.15707335 0.5570293 0.52962315 0.5733899 -0.08140242 0.5824472 0.50606114 0.44727033 0.37980625 0.09698044 0.08349765 0.5063612 0.08909441 0.5507927 0.5485158 0.6301927 0.52736896 0.72744584 0.014899395 0.16003926 0.7597448 0.7684868 0.57413304 0.6039241 0.7658084 0.759996 0.7423737 0.4147721 0.18493623 0.20453635 0.5179001 0.6037695 0.63306224 0.404048 0.36260062 0.33489153 0.304798 0.26336163 0.1992979 0.24406853 0.40324003 0.35753664 0.3714374 0.37856737 0.3546937 0.31756786 0.40186918 0.37521556 0.36414567 0.26742962 0.29294208 0.51979136 0.29772753 0.37016577 0.43799856 0.44568396 0.4424628 0.16592713 0.23916359 0.2943591 0.36584836 0.34603918 0.034581132 0.21731555 0.38197482 0.22815844 0.36729228 0.35048562 0.34441057 0.33299 0.2957682 0.175736 0.29146886 0.29357457 0.30625877 0.1569182 -0.007135406 0.07625471 -0.04743436 0.112489805 0.077957526 0.25905585 -0.18748043 0.33501366 0.42194283 0.2959203 0.22876559 0.42676556 0.5485059 0.5056049 0.55308175 0.5188172 0.5605029 0.541615 0.32343596 0.45921582 0.47047976 0.52670354 0.56649005 0.41498768 0.5290506 0.49413002 0.17223784 0.5262212 0.2141858 0.5790236 0.4322452 0.68242884 0.36768636 0.7215214 0.6748489 0.5422157 -0.28730094 -0.302486 0.26503643 0.7484758 0.7362623 0.7212603 0.41370803 -0.34601796 0.24814075 0.40688795 0.41065758 0.44931623 0.43633476 0.4184941 0.33189437 0.20742044 0.09902844 0.16128054 0.4244314 0.40974846 0.399154 0.37513328 0.2949706 0.30340743 0.35715723 0.28600773 0.43399113 0.3156302 0.2948721 0.07569699 0.3357314 0.42452216 0.41624635 0.42908627 0.27995306 0.39786345 0.40971768 0.35538343 0.31402937 0.28771186 0.26397568 0.25925872 0.31140757 0.3392874 0.22395352 0.1480107 0.2200139 0.0014814734 0.06354141 0.41229528 0.36518323 -0.07585182 0.058085926 0.30905998 0.04730183 0.22720544 0.29593575 0.26969633 0.11029807 -0.053494066 0.4694482 0.36024982 0.3166967 0.41520378 0.57587373 0.399494 0.1528607 0.61439604 0.6415057 0.3681174 0.58940357 -0.01970027 -0.15309075 0.11670145 0.22513868 0.4928415 -0.008098606 0.14519332 0.49853426 0.5490142 0.48388907 0.4472599 0.22441174 0.6497147 0.5518886 0.045719635 0.13422614 0.40286103 0.45011687 0.29320508 0.45346373 0.41649085 0.30038732 0.42178044 0.41594976 0.40434527 0.35652286 0.29382774 0.29505566 0.19609682 0.21476257 0.107034475 0.09514007 0.28380734 0.3127827 0.1619174 0.43513846 0.54966855 0.5245223 0.44491324 0.31578118 0.35941535 0.18180647 0.4025476 0.446181 0.4231366 0.3823561 0.25148576 0.3321498 0.3492261 0.14346787 -0.28876403 -0.19313353 0.05932051 -0.054316644 0.3946157 0.1806693 0.15812394 -0.14303574 0.4329969 0.4145407 -0.21843797 0.4190218 -0.017434426 0.04676135 0.21232715 0.32442352 0.339055 0.049207475 0.2671724 0.0019282605 0.22582652 0.31098157 0.424596 0.53795874 0.6413859 0.6589099 0.09321642 -0.26591155 0.66317266 0.2825786 0.20839117 -0.124747545 -0.11433153 0.12371769 0.56702965 0.6292099 0.3777584 0.30389985 -0.1315826 0.40794712 0.43154055 0.40458345 0.38990068 0.3803191 0.1488337 0.45626166 0.44115627 0.4608194 0.20440532 0.33045238 0.4351449 0.34154332 0.3649741 0.40658838 0.38095462 0.33710206 0.36291742 0.4024611 0.3976284 0.38294852 0.42226142 0.3691181 0.19646604 0.2309978 0.07148141 0.064110056 0.2737608 0.43660647 0.5211963 0.5749074 0.6097573 0.61567694 0.35846698 0.42574927 0.47149524 0.5860104 0.3136889 0.48165947 0.23041472 0.12157119 0.36841476 0.2744516 0.23233104 -0.21130088 -0.17116727 -0.09888122 0.42596543 -0.19510312 -0.11045435 -0.048914675 -0.02685312 0.043220785 0.2769419 0.38013393 0.2577444 0.29569244 0.34643734 0.3372087 0.34631497 0.33710194 -0.035467736 0.29660296 0.20785 0.5600827 0.64033496 -0.05974417 0.66379285 -0.20397645 0.29878163 0.6383952 0.65246916 0.16550256 0.28215668 0.39005655 0.5392621 0.63070667 0.31385905 0.23153071 0.043399014 -0.0231395 -0.088758014 -0.31748408 -0.3326765 -0.24617855 0.030528802 0.05585441 0.10000129 0.0742666 0.13155355 0.14883374 0.60545903 0.27975878 0.5620258 0.3417467 0.2998798 0.5823731 0.52791494 0.3125726 0.14513667 0.50972974 0.51562333 0.18251379 0.18503681 0.2099626 0.24123307 0.24048764 0.5440562 0.5885334 0.6205057 0.43713623 0.5161774 0.5762893 0.614347 0.61508596 0.42118776 0.48939723 0.5438919 0.28188533 0.22829479 0.0824948 0.356934 0.26389942 0.26556644 0.015181616 0.35231578 0.3941366 0.3736536 0.3611192 -0.12727252 -0.5478009 -0.11248084 -0.02279878 0.0063262098 0.28566745 0.38389727 0.37171805 0.306941 -0.51191187 -0.48245537 0.35404325 0.27175415 0.34051898 0.31519 0.347579 0.3412597 -0.038325597 0.32788184 0.3741017 0.20201558 0.5084177 0.050786115 -0.0172906 0.6463672 -0.048275948 0.03579429 0.2342571 0.625556 0.6461705 0.2256819 0.14405054 0.26942936 0.39102453 0.51780385 0.6071799 0.63865644 0.050323904 0.15903279 0.53204685 0.6017921 0.03402119 0.113455474 0.0017525703 -0.030255057 -0.06381667 -0.3018488 -0.33616403 0.025138464 0.029898928 0.059268326 0.2294298 0.4217747 0.04362032 0.6526464 0.68391526 0.17089438 0.657588 0.23404025 0.18211825 0.6371315 0.65273094 0.17852682 0.16722867 0.1327805 0.03627418 0.24905276 0.4947555 0.5948938 0.62478805 0.19834745 0.23485151 0.26368842 0.23908463 0.17248268 0.5796305 0.55393237 0.54478955 0.54848796 0.4312857 0.48718044 0.39990854 0.45803946 0.22137167 0.21931198 0.3028825 0.21932638 0.20923913 0.29118803 0.28113237 0.2560436 0.047707174 0.01734418 0.31119567 0.4355317 0.46382913 0.31092831 -0.48129448 0.085222304 0.28319317 0.2923176 0.1302503 0.018054504 0.052354693 0.38551846 0.2759961 0.24711117 0.2665646 0.22658601 0.3279419 0.303235 0.19156393 0.3443655 0.33384413 0.14900875 0.33263427 0.32730103 0.34830782 0.2915708 0.3036709 0.31001583 0.24944755 0.2182123 0.23078685 0.12339278 0.27234238 0.5809307 0.1418112 0.09224258 0.31957173 0.18902208 0.14620712 0.3526199 0.32708925 0.39053094 0.6127025 0.17426366 0.21705301 0.36778247 0.34026206 0.26757354 0.042196706 -0.02083482 0.06798904 0.30902064 0.30528226 0.27254227 0.2500974 0.25181097 0.02857824 0.0038662083 0.11230391 -0.050475575 0.026166871 0.038179405 -0.4201662 0.07381703 0.033096544 0.054618232 0.10487728 0.101206794 0.28592163 0.5525602 0.70046544 0.047348335 0.15603495 0.7601085 0.74474233 0.13185531 0.7554599 0.72326005 0.10895388 0.05424031 0.27567685 0.5247807 0.6838919 0.701946 0.6985749 0.21593006 0.25505596 0.4526837 0.53388363 0.67327935 0.6696539 0.29060754 0.30635583 0.31670213 0.28873548 0.21685481 0.5106299 0.3021574 0.23819418 0.21410225 0.20651525 0.19618534 0.051544946 0.38902295 0.34024402 0.20719838 0.1013662 0.07898767 0.37410572 0.4658727 0.5598294 0.53680706 0.37228838 0.34609884 0.3134901 0.2515942 -0.052406147 -0.22008896 0.27251738 0.35417834 0.29166505 0.47300124 0.44597325 0.28975475 0.3051146 0.33920658 0.31895941 0.34292036 0.3420595 0.43136513 0.3125754 0.5238081 0.002652239 -0.123072095 -0.12168725 0.58984363 0.19295153 0.15431926 0.27095863 -0.12378883 0.19412898 0.47609043 0.14056426 0.27604207 0.1868223 0.14631715 0.25054348 0.29179096 0.17106205 0.21418327 0.38058144 0.3722748 0.40241253 0.3926165 0.33854252 0.24751844 -0.08419846 0.35534596 0.39672035 0.38895655 0.29990387 0.32226154 -0.3367666 0.1727684 0.22482768 0.3155442 0.3005424 0.24392518 0.1495076 -0.0941662 0.018689558 0.13095585 0.1490633 0.17050534 0.16264658 0.11059972 0.023320131 0.057199657 -0.33817813 0.6403036 0.7004437 0.06242863 0.05322639 0.7282673 0.75790834 0.7653611 0.02343842 0.7014901 0.759115 0.7676025 0.76947176 0.14071251 0.28534058 0.7085521 0.7329861 0.73469424 0.25629044 0.2905539 0.3356892 0.29705814 0.3266516 0.34998226 0.4824992 0.5281324 0.5711999 0.190078 0.19119829 0.17580277 0.6035127 0.4007166 0.3872253 0.09630832 0.033355974 0.25927198 0.4241072 0.58077526 0.5727533 0.36896455 0.33506224 0.2900461 0.17057109 0.15520263 0.13307124 0.09858655 0.11491263 0.5799292 0.03315448 0.53160834 0.44582248 0.38282526 0.39166415 0.3336435 0.2877105 0.086826205 0.34999835 0.3746214 0.2948269 0.36852777 0.38419116 0.4282478 0.3621873 0.37229356 0.5090114 0.30637187 0.12011671 0.13168734 0.0041319914 -0.20823197 0.60607713 0.24245366 0.22529384 -0.11680642 0.27732423 0.29985213 0.26583835 0.17300856 0.6304658 0.15760046 0.02092002 0.29392084 0.5754538 0.604416 0.34328943 0.350052 0.3058359 0.35048425 0.22258756 0.3862288 0.38429517 0.2907706 0.27283826 0.25722915 -0.0963907 0.3465594 0.35907003 0.31658107 0.3098991 0.25405848 0.18751341 0.15244952 0.1426369 0.27444258 0.19079293 0.18344371 0.27901822 0.05643723 0.25862065 0.18656555 0.121934004 0.28423816 0.21239036 0.3626856 0.29032677 0.3523684 0.3827714 0.37172627 0.32604516 0.5529238 0.565258 0.5694009 0.5550411 0.47898966 0.42241848 0.26426426 0.1841441 0.10400656 0.09087176 0.44395953 0.54325557 0.56881666 0.5709319 0.5647741 0.52014 0.4734631 0.38026577 0.32471722 0.12177888 0.14032774 0.11919286 0.34947303 0.39287236 0.31576267 0.13523236 0.1395244 0.12361993 0.4229771 0.39577234 0.39735043 0.387232 0.5298357 0.49675873 0.38823867 0.37200168 0.3090756 0.004685931 -0.25273857 0.024813779 0.5957272 0.33802444 0.3091935 0.2931871 0.29548526 0.22993398 0.16870706 0.21985684 0.092534386 0.22395343 0.69493675 0.27092415 0.19129771 0.30730245 0.20282954 0.6775707 0.13894159 0.13798213 0.30746672 0.34109002 0.57138366 0.6292073 0.6333716 0.1641216 0.21065769 0.4994633 0.25335184 0.2743222 0.26621452 0.21993867 0.2055315 0.18877262 0.47381955 0.48949227 0.4329551 0.47039652 0.33401477 0.35478327 0.232147 0.30236635 0.2509959 0.24553935 0.22836195 0.31783703 0.2814934 0.37365204 0.3638101 0.34819013 0.33176792 0.362266 0.3890974 0.49838302 0.4849622 0.4274121 0.3425294 0.28877348 0.23901203 0.2076212 0.50319284 0.52304983 0.5509036 0.52322185 0.496