# vtk DataFile Version 2.0
Really cool data
ASCII
DATASET POLYDATA
POINTS 5825 float
1.1567302 -26.863312 41.1241
1.2221702 -27.300919 41.772778
1.1807884 -27.211887 42.275116
0.9809575 -26.543058 41.75355
1.0767053 -26.528595 42.37122
1.2890896 -26.381111 42.829525
1.194545 -25.447926 40.96524
1.0253701 -25.644108 41.61993
1.1444323 -25.706377 42.334015
1.3084548 -24.913736 40.89941
1.2893097 -24.878605 41.622902
1.3750496 -24.745129 41.94421
2.3101752 -28.449045 36.58332
2.2427952 -28.441786 37.007282
1.5663794 -27.60358 41.63976
1.7938634 -27.694378 42.236588
2.3268971 -27.51788 36.154896
2.1986969 -27.875628 36.504856
2.1512127 -27.538515 37.218517
1.5499245 -27.4878 42.402824
1.5681133 -27.094137 42.831974
2.2933002 -26.640354 36.687073
1.7116337 -26.39616 43.155743
2.3883824 -25.940216 36.729446
2.2561328 -26.022137 37.17696
1.8294073 -25.555902 43.275925
1.8018422 -24.928354 40.162712
1.5352328 -24.731941 40.84975
1.5340772 -24.51148 41.35248
1.6553674 -24.589125 42.45356
2.0619578 -24.633797 43.255077
1.8392793 -24.291983 40.947384
1.8918186 -24.228994 41.431488
2.026331 -24.202702 42.556133
2.9365618 -28.872807 36.04116
2.7873747 -28.924593 36.469646
2.6991503 -28.962961 37.30277
2.9829266 -28.917646 38.130722
2.8290203 -28.285872 35.762978
2.6293411 -28.121029 38.45844
2.6207657 -27.888084 41.754383
2.1924465 -27.70318 42.42795
2.7394755 -27.546827 35.7433
2.8770206 -27.539104 42.690605
2.3239682 -27.031836 43.127728
2.864445 -26.528141 35.731804
2.342326 -26.26168 43.46586
2.4848354 -25.917452 43.621155
2.8662004 -25.8694 35.977722
2.694093 -25.414352 36.66869
2.5354059 -25.395674 43.73735
2.797732 -25.18096 36.751328
2.8386154 -24.936602 38.001278
2.943593 -24.537521 38.980907
2.4174833 -24.432241 43.45065
2.617115 -24.677927 43.695347
3.002749 -24.257391 39.64004
2.3515134 -24.049088 41.08698
2.6446233 -23.944746 41.67711
2.678963 -23.90577 42.442104
2.625818 -24.158272 43.197746
3.2774339 8.077433 23.791471
3.2284398 8.12173 24.307665
3.368789 8.635962 23.23421
3.1260362 8.591848 23.722212
3.0713024 8.596701 24.426123
3.2412505 8.688952 24.970116
3.3883448 9.20276 23.233313
3.1810496 9.296043 23.812462
3.1316085 9.260542 24.37906
3.309905 9.298081 24.951115
3.328971 9.778151 23.914507
3.3723388 9.816985 24.325668
3.8141022 -28.966084 35.7945
3.4820406 -29.29649 36.483845
3.8506634 -29.402075 37.739998
3.4927967 -29.275396 37.982273
3.7131808 -27.94076 35.421192
3.696762 -28.558762 35.589283
3.9915857 -28.004795 39.789036
3.5267656 -27.783031 42.060997
3.3194575 -27.570763 35.453564
3.7392693 -27.56157 42.574337
3.2720952 -27.291286 42.879124
3.528979 -26.48307 35.269142
3.1550865 -26.185644 43.550236
3.0211813 -25.959612 43.6719
3.9423141 -25.7286 35.220856
3.5486107 -25.510801 35.505585
3.4384809 -25.214033 43.78294
3.980046 -25.118484 35.645916
3.8364038 -24.704212 36.41066
3.7049327 -24.634325 43.58915
3.165809 -24.558922 43.713985
3.779808 -24.092598 38.590763
3.2951903 -23.916496 42.611057
3.3512087 -24.127335 43.23528
4.0774727 7.3187814 23.746874
4.0098987 7.371155 24.41177
3.955331 7.890653 23.000595
3.672202 7.7342625 23.589767
3.5945938 7.680515 24.408054
3.7153873 7.9495306 25.089806
4.216312 8.143788 25.892925
3.6033454 8.668889 23.007566
3.392997 8.215909 23.37875
3.621926 8.491186 25.403193
4.205784 8.625697 26.046675
4.478103 8.623207 40.947376
4.486021 8.605161 41.098858
3.8633428 9.333445 22.85954
3.4313793 9.600333 23.559435
3.643175 9.251471 25.443403
4.161588 9.329253 26.048248
4.117971 9.931604 22.92204
3.791852 10.045922 23.732021
3.7566104 10.098535 24.45137
3.690579 9.833521 25.05209
4.274194 -29.151173 36.008755
4.2746606 -29.39767 36.72155
4.1658416 -29.442694 37.647495
4.7885437 -28.933575 38.471348
4.0748835 -28.290232 35.425846
4.5937343 -28.457321 39.39771
4.1213317 -28.019567 41.375313
4.3125277 -27.661186 42.489025
4.576799 -27.155111 42.796494
4.790373 -26.651953 42.97506
4.353792 -25.655602 35.277157
3.992578 -25.665577 43.543133
3.862638 -25.293736 43.679554
4.3473988 -24.885723 35.808884
4.5615325 -24.576437 36.51548
4.3375134 -24.240646 37.01129
5.0420647 -23.858475 37.59838
4.28245 -24.04134 38.452744
4.5257864 -23.979641 40.26256
4.562942 -23.949724 41.359814
5.476152 4.681533 35.386696
5.4579906 5.934076 34.278522
5.4010973 5.281646 35.13631
4.568214 7.185049 23.545803
4.410472 7.1735263 24.31743
4.688212 7.330265 25.077894
5.441366 6.602455 34.393826
5.440586 6.241325 34.95807
5.436944 6.428233 38.685543
5.178767 6.7378006 39.73416
5.1641474 7.2426467 41.094715
4.535498 7.653565 22.892054
4.5911865 7.5017357 25.447443
4.850573 7.868397 26.216549
5.3652625 7.3106356 38.643463
4.7410913 8.000694 39.99538
4.7255144 7.79145 40.43993
4.9764156 7.7443094 41.539047
5.0385914 8.011641 41.88708
4.836575 8.806049 22.418085
4.4623165 8.45901 22.541397
4.6393347 8.723361 26.48829
4.9467583 8.47546 26.600672
4.859102 8.559849 39.92945
4.565309 8.708017 40.614765
4.602688 8.548335 41.36522
4.9967303 8.584148 41.99811
4.756588 9.395137 22.373642
4.44177 9.418947 22.54242
4.6891346 9.401283 26.450016
4.995071 9.737388 26.577929
5.0496135 9.227367 40.107124
4.7611995 9.198681 40.646523
4.8178935 9.332552 41.36326
5.076131 9.231997 41.99386
4.537566 10.076016 22.869253
4.4227004 10.38579 23.460592
4.440636 10.418515 25.365114
4.5495043 10.042512 26.171703
5.0075684 9.619554 40.947445
5.20786 9.749083 41.431465
4.547641 10.695115 24.771885
4.638797 10.618803 25.169895
5.14433 -28.95252 36.0795
4.8941755 -29.118193 38.290615
5.046299 -28.641941 39.32035
5.1252403 -28.442495 39.672394
5.376846 -27.383091 35.27558
5.5240874 -26.540253 35.186096
5.933054 -26.04064 35.19769
5.806891 -25.169369 35.618603
5.45038 -24.395979 41.886288
5.457533 -24.223963 36.64594
5.6912 -23.848814 37.63811
5.6157036 -24.059813 41.788925
6.0396457 -23.43521 40.161934
6.456887 0.74602616 38.8723
6.3650436 1.062741 39.404575
6.440182 1.4914591 38.86187
6.408446 1.5138913 39.675137
6.4298453 1.4871792 39.977592
6.355269 3.1016588 37.79922
6.359344 2.191486 38.432266
5.934314 4.099592 34.932175
6.058357 3.8145626 35.428864
6.0186815 3.8182948 36.467922
5.898812 3.8693738 37.5671
6.29347 4.983501 32.99355
5.948702 4.770826 33.834026
5.677862 4.7195315 34.81281
5.506623 4.7197247 35.348934
5.547015 4.921985 36.204323
5.693817 4.9560046 37.74056
5.8238854 4.643857 38.2588
6.2115602 5.290688 32.914875
5.7674375 5.21737 33.842007
5.523385 5.2502117 34.455345
5.51495 5.2827024 35.575947
5.581185 5.513966 36.20544
5.7431126 5.3880663 37.701626
5.526678 6.0852184 38.76357
5.704072 5.5709147 39.193214
5.7700033 6.092499 40.381016
5.252697 7.121117 23.619488
5.3360643 7.1128426 24.384035
6.1882114 6.207376 32.57301
5.6199136 6.5556936 33.690258
5.515897 6.1396403 34.943363
5.9758496 6.5521255 36.08876
5.5348926 6.546252 40.615845
5.7111535 7.259172 41.882965
5.6195655 7.596413 22.95626
6.2708106 7.4081373 32.93667
5.834775 7.2854786 33.63519
5.8333015 7.4220366 34.45761
6.0855346 7.4072933 35.22029
6.141108 7.236655 36.521748
5.513858 7.4241443 38.40797
5.371318 7.3561125 41.508656
5.6287427 7.965899 42.37648
5.130209 8.670756 22.452618
5.401372 8.637002 26.831121
6.249398 8.567134 38.17055
5.437925 8.71647 42.505127
5.904146 8.745601 42.829987
5.3961887 9.264894 22.489174
5.4006047 9.545235 26.789104
6.08122 9.040759 39.10045
5.389706 9.502196 40.093952
5.6199303 9.561161 42.477695
5.9518466 9.395034 42.85138
5.121557 10.16792 22.87441
6.1464043 10.702745 26.710941
5.877771 9.765423 40.152737
5.615288 9.87983 40.631676
5.6706185 10.037473 41.4817
5.760629 9.934099 42.21039
6.1498 9.842867 42.8194
5.3693748 10.919141 24.539865
5.489914 10.951764 25.50121
5.771458 10.880639 26.09229
5.9485826 -28.83997 37.021946
6.193308 -28.76941 37.448734
6.6773243 -27.871107 35.732243
6.823701 -27.811497 40.763813
6.714534 -26.923878 35.259365
6.456216 -27.256641 41.940964
6.4533134 -26.535263 35.141293
6.1692863 -25.916054 35.212994
6.5081663 -25.437067 35.43865
7.174347 -25.512104 42.86435
6.273005 -25.072107 35.764503
5.973826 -24.124569 36.811726
6.4035506 -23.966944 37.555515
6.4234586 -23.784586 38.117977
6.367397 -23.614288 41.228775
6.692574 -23.928381 41.886066
6.5233946 -23.439272 40.38078
7.2715917 -0.85467803 38.768246
7.18328 -0.85470533 39.45834
7.2247887 -0.83140475 39.907677
7.2236686 -0.32252717 37.86012
6.9977117 -0.39249143 38.576233
6.929914 -0.3823862 39.60538
7.153969 -0.31829625 40.209557
7.1865597 0.5899397 36.84137
6.873802 0.55752957 37.610878
6.694703 0.58448815 38.452538
6.5872016 0.384883 39.284073
6.851388 0.58403975 40.345066
7.121126 0.89134955 40.739098
7.201931 2.2202005 28.639273
7.0951867 1.3617402 36.648064
6.659927 1.3880341 37.67061
6.632477 1.3836933 40.202805
7.0498695 1.406962 40.790295
7.0089154 2.87781 28.009771
6.811074 2.7632506 28.547588
6.9442935 2.7101893 29.362268
7.1500955 2.8378599 29.923914
7.1023145 2.8520672 34.974144
6.8539367 2.9028459 35.429028
6.9929442 2.2210443 36.719227
6.5988774 2.234806 37.24664
6.729769 2.2182953 40.13047
6.9390903 2.0476139 40.6731
7.0272017 3.3798413 27.903448
6.6276984 3.2706037 28.547712
6.6702843 3.48614 29.344458
7.0365715 4.022308 33.08753
6.6526484 4.0788727 33.49291
6.5186114 3.5235827 35.04733
6.9986033 3.2724714 39.4539
6.902352 4.016652 28.241295
6.8027773 4.1979456 28.695713
6.798483 4.6188593 29.703176
6.9956713 4.560913 32.373627
6.526861 5.2127366 40.01942
7.2254424 5.2752647 28.94442
6.9257417 5.3480973 29.78244
6.963955 5.127752 30.897314
6.295988 5.6313825 40.486126
6.5908613 5.7905273 40.828484
7.201477 7.227693 16.855034
7.147515 7.0964465 17.48308
5.9601874 7.3531194 23.386736
6.724316 7.0711985 24.605623
6.5165176 7.1782737 24.987753
6.918028 6.4129825 31.952732
6.7760034 6.8851757 42.149746
7.0567775 7.6185226 16.815517
6.879494 7.57368 17.414345
7.013214 7.5012517 18.06089
5.998802 8.141216 22.957016
6.177719 7.631597 26.407648
6.428873 8.189327 26.748652
6.8251505 7.4285736 32.142704
6.539695 7.8502765 32.503582
6.699134 7.5713935 36.762184
6.642252 7.398643 42.50034
6.70597 7.974166 42.835217
7.304984 8.324114 16.236988
[...]
POINT_DATA 5825
SCALARS features_00 float 1
LOOKUP_TABLE default
0.7874901 0.8196602 0.8355977 0.8373019 0.8631237 0.8784387 0.613255 0.73090285 0.8436851 0.5556941 0.62813926 0.6549449 0.7648277 0.7699214 0.7738912 0.7679758 0.6985002 0.7282969 0.6879426 0.8050951 0.8231536 0.61368805 0.8521687 0.5684887 0.5326882 0.88571316 0.43831095 0.5342996 0.58567196 0.7376461 0.87846565 0.51622254 0.57750595 0.74446976 0.7494707 0.77137244 0.77652615 0.67373765 0.73231745 0.67071944 0.5623213 0.7074443 0.70202494 0.60884094 0.74136496 0.6238712 0.7869091 0.7928884 0.5860531 0.5480091 0.8170996 0.5338683 0.40242207 0.2949769 0.8675594 0.85313034 0.32318476 0.5004322 0.5961571 0.7270709 0.84111226 0.90211153 0.89146006 0.9025952 0.8991852 0.8870408 0.8550477 0.8801279 0.8724481 0.8618102 0.82523805 0.8392129 0.8192569 0.7241854 0.75992954 0.6351863 0.62777376 0.68567824 0.7171613 0.25111273 0.44420162 0.6921834 0.47831744 0.57140434 0.62475 0.6894971 0.73351336 0.5549274 0.5733799 0.7875132 0.5390558 0.51293695 0.8001471 0.8399457 0.3414815 0.7120085 0.8048428 0.859892 0.83765006 0.913284 0.89354783 0.86458147 0.82629204 0.70034987 0.9023523 0.9082401 0.79287946 0.667686 0.82100224 0.8262194 0.872509 0.8565256 0.765295 0.6655916 0.8406832 0.8077763 0.77347136 0.76974726 0.7101581 0.7125413 0.60967374 0.3892284 0.6814389 0.23836659 0.27340266 0.39031637 0.42859176 0.45247626 0.52489454 0.6702553 0.73713225 0.5041765 0.45793426 0.42231855 0.36159146 0.35070345 0.26140678 0.2767729 0.29896507 0.37593994 0.32720143 0.8309915 0.8094518 0.7612621 0.39418036 0.3522023 0.33869568 0.4927254 0.6377676 0.90644646 0.7422508 0.6082644 0.43608624 0.6962099 0.7101915 0.73797274 0.7841378 0.86552227 0.89470196 0.58896285 0.5547329 0.7246398 0.80506074 0.83274305 0.8550738 0.8444476 0.8543693 0.5831852 0.5509435 0.7400335 0.80869997 0.8624564 0.90303016 0.8123247 0.7711442 0.68024284 0.63402826 0.82334757 0.87132424 0.66046816 0.6490421 0.67487633 0.41137487 0.2103129 0.13208878 0.57881254 0.50715077 0.4846748 0.47416627 0.25078586 0.41764456 0.33832416 0.23123868 0.20089625 0.52893275 0.60070133 0.46864498 0.61792916 0.6562381 0.15100251 0.3360041 0.28714743 0.25865486 0.1887144 0.105392836 0.32632446 0.3310297 0.31723422 0.30168217 0.2601437 0.09521282 0.09911553 0.3482598 0.35829198 0.34712052 0.30858675 0.28803444 0.11778193 0.32493612 0.32681903 0.44009775 0.72267807 0.6831679 0.3589015 0.42223504 0.35208613 0.31352162 0.49615315 0.64344573 0.73060644 0.37454563 0.43334812 0.402906 0.3232329 0.22567502 0.41461468 0.6535789 0.781187 0.8632443 0.5092189 0.3262415 0.8840493 0.89464295 0.79028827 0.49940822 0.4697043 0.7048863 0.9580795 0.9665767 0.7404481 0.46152505 0.6554041 0.7590207 0.88115215 0.9599205 0.9899547 0.49109864 0.5148605 0.51968426 0.55274826 0.45903933 0.5796283 0.10753165 0.49617714 0.13852286 0.47613305 0.4749287 0.45656928 0.39369792 0.4559668 0.39520395 0.32744265 0.26066047 0.18808298 0.20038895 0.1957542 0.68108016 0.7464459 0.7923496 0.5308839 0.6099529 0.7264185 0.79755557 0.35028782 0.3897343 0.4790126 0.6299553 0.7438078 0.7599572 0.6546065 0.24785374 0.3112498 0.68741894 0.7286094 0.6723224 0.6871031 0.65866995 0.5685343 0.16386913 0.16174792 0.1598172 0.1876605 0.64031416 0.6877334 0.67438734 0.6999605 0.6672039 0.18412986 0.25360107 0.23862915 0.4987494 0.61779946 0.5719969 0.4291458 0.18479097 0.32447875 0.2860738 0.24456131 0.1765116 0.40691245 0.42987046 0.7779138 0.7746185 0.59230685 0.42066887 0.5362787 0.20042792 0.56177723 0.7764374 0.78472805 0.77471626 0.6809788 0.55015135 0.4560595 0.24854247 0.33059227 0.11151871 0.6474 0.72586596 0.73009485 0.7227795 0.7839052 0.6734524 0.33689308 0.28893954 0.38539562 0.4320241 0.4109385 0.16293249 0.8607001 0.63373697 0.6979019 0.6392275 0.35188726 0.38867834 0.42517072 0.420145 0.26068816 0.9457729 0.5921682 0.6178369 0.6097306 0.31360438 0.6083211 0.7400166 0.92605114 0.96788764 0.9759475 0.21359518 0.23752388 0.30449858 0.21616592 0.39886475 0.43627685 0.44033077 0.4522919 0.36118773 0.43031967 0.44266933 0.46543077 0.39430213 0.48642302 0.10485007 0.16989443 0.45315722 0.43690538 0.4224856 0.2790783 0.20784241 0.21154976 0.21259107 0.7410226 0.7895676 0.5165566 0.63311183 0.69798 0.78411454 0.84293383 0.4076923 0.44839132 0.8376781 0.8341224 0.31347927 0.37297362 0.7884115 0.63742685 0.6258478 0.5914264 0.43045074 0.19407965 0.7398833 0.601591 0.14011489 0.65960276 0.6880038 0.6316459 0.18960212 0.10546554 0.17903589 0.48469192 0.778878 0.7735485 0.7661942 0.7437335 0.3450625 -0.015890162 0.014091466 0.5384574 0.766961 0.67535126 0.097547084 -0.17876557 0.030240666 0.5943955 0.6681291 0.6979487 0.49839866 -0.24727473 -0.16654915 0.02195885 0.26256168 0.26200992 0.8012092 0.64365035 0.61096334 0.48268723 -0.08937234 0.3797568 0.41909546 0.38676754 0.1609628 0.18214333 0.88304627 0.54222864 0.5730573 0.53437406 0.5183952 0.039495435 0.0339707 0.033694595 0.4236616 0.6415615 0.8833457 0.9251053 0.9305633 0.5311166 0.5459331 0.50719297 0.032425933 0.07285699 0.12477024 0.019989043 0.047033057 0.07373907 0.35294393 0.43438554 0.45582423 0.151499 0.22846949 0.20624043 0.4785936 0.45516184 0.21392485 0.22932163 0.33385426 0.4592194 0.47566748 0.46998063 0.49680978 0.21269274 0.21237949 0.29974437 0.37592083 0.42532495 0.4412157 0.4419378 0.52038735 0.61133033 0.63127387 0.35028714 0.38156158 0.38922936 0.34645605 0.6172966 0.33800846 0.21778454 0.41524205 0.23394364 0.18918256 0.23010492 0.24430917 0.6228458 0.69831896 0.7864721 0.45939732 0.5256004 0.59862316 0.8226683 0.8366766 0.8387465 0.3632145 0.4138091 0.48204225 0.8168265 0.311455 0.7828986 0.51790255 0.53547287 0.14234385 0.20008102 0.6888011 0.5126135 0.09327111 0.024164386 0.53400123 0.3199563 0.019621067 0.031979732 0.03760162 0.013625365 0.47931415 0.7732129 -0.032997776 -0.024550032 -0.004669573 0.051510975 0.085356735 0.4690967 0.73062915 0.770301 0.63687366 0.63706046 -0.102437094 -0.01939755 -0.09232195 0.051570643 -0.13777182 -0.27253413 -0.26418322 0.50177133 0.7527554 -0.05877769 -0.31161204 -0.23677218 0.5532896 0.6115548 0.67675024 0.38454914 0.6007345 0.74177825 0.5972783 0.34648305 -0.0076117516 0.13694139 0.09939586 0.1870948 0.82999676 0.815676 0.49750277 0.31475914 -0.19117633 -0.09341338 0.79677415 0.8731513 0.45991775 0.4931004 0.4367952 0.41103983 -0.051582176 -0.02000111 0.14208631 0.43291003 0.43214852 0.41099697 0.32510728 -0.079735205 -0.040742204 0.36387306 0.29378438 0.37610918 0.49811435 0.5262929 0.50114703 0.4228566 0.40915078 0.4340819 0.35593355 0.46244222 0.5253534 0.5481464 0.5509821 0.23157576 0.4036592 0.37857783 0.4466169 0.5409277 0.6520386 0.25219434 0.21261805 0.18267599 0.37299827 0.4669599 0.6915244 0.6940272 0.25240725 0.21375734 0.19737881 0.20555595 0.23828349 0.25584534 0.34399903 0.5330943 0.6468979 0.696372 0.24806733 0.27733472 0.23063819 0.27655393 0.41746044 0.5418984 0.6554277 0.67839634 0.19407484 0.20686859 0.14611739 0.08750764 0.26229122 0.2720109 0.13772646 0.12647867 0.38020647 0.18715094 0.14331412 0.41037774 0.23486081 0.26039082 0.27260512 0.31961697 0.5488064 0.59246635 0.68100214 0.7489601 0.5194877 0.42474756 0.50711465 0.54076 0.68808675 0.76259875 0.80669236 0.80317366 0.6140851 0.5939872 0.45009023 0.5028634 0.41204742 0.35706502 0.38857576 0.7628771 0.7556143 0.54704374 0.55282944 0.5205329 0.3770782 0.40050963 0.2565518 0.20441005 0.24153182 0.6849344 0.73826694 0.47667116 0.43662703 0.20138785 -0.15933044 -0.24118043 0.0207856 0.54436886 0.6304215 0.5414984 0.2931178 0.41509128 0.56402636 0.5083871 0.03721165 0.04875925 -0.043948233 0.6016401 0.0600302 0.031326376 0.02920895 -0.0041991295 0.0019170623 0.013093602 -0.042150438 0.018755624 0.20881298 0.7063592 0.7046497 0.42638868 0.6630898 0.6413245 0.5593313 0.5304589 0.6056329 0.13288555 -0.012936294 0.030172713 0.45512772 -0.0723225 -0.064529635 0.15987565 -0.14150791 0.28175616 0.16324393 0.05544858 -0.023331422 -0.24184045 -0.13889852 0.28743377 0.36487842 0.40977734 0.42114377 0.38971442 0.2809986 -0.0795894 -0.14324202 -0.15728356 0.27134597 0.4266274 0.42110813 0.3774169 -0.03605225 0.07183253 0.2987489 0.1363184 0.60543877 0.26075727 0.6665999 0.2717426 0.25753295 0.13560876 0.6584287 0.6336363 0.21241328 0.21526882 0.1493386 -0.02005542 0.32753092 0.5191494 0.5979319 0.6269828 0.20413049 0.08640091 0.008642763 0.16199262 0.20705381 0.27326083 0.36575755 0.4686134 0.53424865 0.38674763 0.34335497 0.3294574 0.28650698 0.47889963 0.45337424 0.41020918 0.39290914 0.54895526 0.5377637 0.485309 0.59227896 0.1852668 0.47638977 0.48936528 0.4060982 0.4939142 0.49884477 0.5154964 0.44266245 0.48807752 0.5451623 0.43697476 0.36612558 0.25928262 0.32247096 0.49690527 0.4799319 0.56204796 0.65604496 0.62239325 0.6284126 0.51618916 0.52019787 0.48487425 0.39041197 0.46045434 0.50971717 0.5794025 0.6534307 0.61097383 0.63142425 0.63040805 0.53943586 0.36074826 0.44409043 0.38486734 0.21602787 0.32511312 0.27651215 0.7096288 0.51776016 0.49329513 0.4489473 0.54460645 0.5617263 0.45731884 0.2923934 0.23004633 0.24591039 0.5323583 0.4952153 0.4496297 0.37692434 0.32045478 0.3516116 0.38396412 0.3745103 0.23529369 0.20864867 0.27124745 0.54983765 0.51295435 0.45859784 0.35546476 -0.0060690455 -0.006930921 -0.016949832 0.0019922704 0.12431708 0.2062152 0.074364096 0.041910328 0.52091765 0.5555496 0.24442217 -0.0025235508 0.010614306 0.024313416 -0.019303102 0.5240313 0.5679455 0.37195635 0.03912421 -0.094243325 0.5233238 0.4695087 0.606979 0.5321202 0.5369275 -0.05957496 -0.26648185 0.3501045 0.30800405 -0.31619772 0.019318767 0.13994649 0.31586385 0.38899708 0.090060145 -0.03630274 -0.2948979 -0.23610039 -0.1590099 -0.6808907 -0.3383423 0.048314966 0.27352047 0.35747626 0.4080355 0.4181382 0.35168555 0.21554774 -0.17911611 0.36517906 0.3941552 0.10490159 0.58342624 0.17326427 0.52477086 0.2307154 0.5655513 0.5493649 0.20807946 0.22806486 0.5131997 0.56282294 0.14524396 0.17697744 0.36036956 0.45168173 0.4941916 0.25006527 0.16016158 0.11784101 0.2755673 0.3016917 0.48648483 0.41728356 0.29034764 0.2728883 0.59922814 0.59220004 0.41829386 0.32150248 0.68460363 0.6740767 0.6400318 0.5737597 0.45439345 0.73003566 0.7183687 0.6882621 0.602236 0.5630965 0.45980108 0.43254972 0.45984846 0.458243 0.19417801 0.4609949 0.48132104 0.5014836 0.49496648 0.4718749 0.5541382 0.52094346 0.46602648 0.46770528 0.5820186 0.4169594 0.58977586 0.5630522 0.5266805 0.43393195 0.12822586 0.4228502 0.92742205 0.8434489 0.7980267 0.8330531 0.7689911 0.6753292 0.5652963 0.59787536 0.6276668 0.67843604 0.76295763 0.813895 0.4624409 0.5314333 0.6619102 0.7926714 0.8278712 0.45755455 0.5788721 0.6610285 0.76263493 0.48877275 0.46422818 0.4454478 0.41813836 0.4841246 0.53404987 0.5166587 0.48393172 0.47230503 0.4506393 0.42261797 0.39510584 0.5431516 0.49999264 0.48051694 0.5602714 0.24916333 0.12902734 0.24305339 0.38527262 0.10455133 0.043577917 0.1450426 0.07819926 0.5642791 0.53819644 0.49214947 0.42872623 0.48505318 0.2553076 0.20347589 -0.034077477 0.07977125 0.4960399 0.33295596 -0.012279525 0.16246939 0.2823708 0.46771938 0.5112206 0.26367334 0.44268256 0.068405755 0.14569119 0.47407848 0.06316518 0.45288062 0.47122815 0.04993619 0.3255089 0.26877192 -0.3654208 0.38248533 0.23361291 -0.5523001 0.40179434 0.29822186 -0.06596249 -0.66130006 0.36332262 0.42627192 0.31868237 0.323113 0.24156335 0.3673787 0.42576322 0.376008 0.29037228 0.17031443 0.3688174 0.08790367 0.29590172 0.1954181 0.47715873 0.15472104 0.1885154 0.46888927 0.49241766 0.16717136 0.44915012 0.4282542 0.17246889 0.24078178 0.28546616 0.30046028 0.4529578 0.22738269 0.65148556 0.3553861 0.29330572 0.71869624 0.49600428 0.43437195 0.73926586 0.74881345 0.7187148 0.64422303 0.5954418 0.50411934 0.7546375 0.7423783 0.7143279 0.67178077 0.5668787 0.57782 0.45424032 0.334937 0.45411152 0.45271254 0.41369373 0.4718936 0.5410999 0.45665038 0.56948453 0.43089938 0.5892634 0.3737108 0.34731907 0.60345435 0.5892831 0.27804968 0.55216527 0.50882816 0.44023156 0.0040193573 0.20178759 0.44445342 0.3602279 0.47246432 0.43621075 0.3099452 0.89780176 0.87042874 0.8931991 0.9398448 0.85647005 0.7555597 0.6755678 0.757684 0.75336874 0.66904736 0.49361402 0.52551746 0.56588995 0.712951 0.8080872 0.4159966 0.38731873 0.40212184 0.8377976 0.8252814 0.29974738 0.40584058 0.82461977 0.8458674 0.41762617 0.5409504 0.66243184 0.77831364 0.45869493 0.47207892 0.45917708 0.4615702 0.48911822 0.46730033 0.46125853 0.48630446 0.48761976 0.2965976 0.28834653 0.44845358 0.36662835 0.38793665 0.39410257 0.3920638 0.5162608 0.4903909 0.45054197 0.39606556 0.2440225 0.0708722 0.29114395 0.37539557 0.55825245 0.5432665 0.50804436 0.43102008 0.3403828 0.070409514 0.28579587 0.35350943 0.28397268 0.3392474 0.6794823 0.5067215 0.5402491 0.07612911 -0.035280652 0.0004910128 -0.021365881 0.045483835 0.6166569 0.64707065 0.4492122 0.45555425 0.4950543 0.47357523 0.42577857 0.42578351 0.3033375 0.42802885 0.19416809 0.22827715 0.4383645 0.44268596 0.19237332 0.42738718 0.05853321 -0.3476814 -0.1758023 0.12584914 0.06915464 0.2532576 0.31348598 0.38340992 0.27527043 0.40724134 0.31381047 0.43859398 0.41524386 0.4262821 0.4270885 0.39864817 0.16357514 0.4384006 0.24179316 0.16814207 0.0015230328 -0.10741401 0.4444276 0.43522495 0.43531054 0.08759496 -0.2584125 -0.17144512 -0.3197329 0.16205427 0.12091213 -0.08212957 0.15824166 -0.024498224 0.0030107498 0.0970487 0.36923596 0.021679655 0.15719728 0.07760742 0.06723725 0.07259722 0.078347445 0.60546327 0.33176434 0.64086163 0.4807598 0.4569378 0.7021061 0.7369702 0.6413017 0.56566274 0.7468691 0.76231027 0.7547095 0.6956988 0.68700635 0.6879344 0.62546015 0.6367094 0.6381477 0.67492336 0.60442257 0.60944986 0.5962782 0.59958816 0.59639585 0.57356906 0.46796423 0.44046205 0.42943245 0.42754608 0.18167354 0.50125384 0.5785311 0.34119385 0.6035964 0.6082133 0.21982782 0.22948082 0.4879002 0.1896354 0.40376025 0.08056706 0.5315986 0.21055782 0.10015541 0.5374679 0.32606703 0.24914145 0.73094285 0.7632923 0.77149636 0.43983838 0.47140658 0.7101052 0.73188394 0.6953589 0.4080678 0.46027058 0.49738222 0.521348 0.5711069 0.6745008 0.6661687 0.7105597 0.33083963 0.41045108 0.45219958 0.5188743 0.5517746 0.58831364 0.60233414 0.5079123 0.77251816 0.79490435 0.33651567 0.4132192 0.49076387 0.5244537 0.5844048 0.41027004 0.7544311 0.7946425 0.35917446 0.42073655 0.44216335 0.548206 0.83097506 0.5163665 0.490771 0.4146211 0.33648986 0.622769 0.5306108 0.3661791 0.2432686 0.4176032 0.5098458 0.8066858 0.83188003 0.5895559 0.56551254 0.5288109 0.62374973 0.46927464 0.34291244 0.18781891 0.5054567 0.58443224 0.6178383 0.60688084 0.35464868 0.40910387 0.38678515 0.33704793 0.40877992 0.44727898 0.44047642 0.3763711 0.32844704 0.4517608 0.3918259 0.33923152 0.4374947 0.3534382 0.21879908 0.18314251 0.058590658 0.30273277 0.1647759 0.35948378 0.34876943 0.32634482 0.5030432 0.45510548 0.47064957 0.42420095 0.07605244 0.057648193 0.29359716 0.49170205 0.5184986 0.33312 -0.26329526 0.07833492 -0.24772145 0.30138767 0.49900073 0.7016053 0.7279525 0.49855244 0.0523631 -0.19664437 -0.089230865 0.695871 0.66892284 0.4555329 0.58104104 0.42853963 0.4189738 0.4368587 0.31140223 0.44685575 0.19050743 0.43526232 0.081153974 -0.019417077 -0.21694784 0.0077189505 0.107085176 0.14935024 0.32049605 0.17830154 0.29151005 0.4057247 0.36158198 0.37571734 0.5000942 0.44558895 0.5241399 0.4526231 0.5350986 0.46852952 0.43205813 0.45572886 0.46859008 0.06252475 -0.50375926 -0.264592 -0.21102588 0.37803036 0.44679496 0.44202545 0.43670532 -0.069888525 -0.110424206 -0.22487341 -0.116725974 0.10405338 0.2026463 0.046912182 -0.1397124 0.41945475 0.34034237 0.10813843 -0.070622586 0.4842022 0.47066772 0.5053226 0.28012317 0.10105549 0.64969146 0.509858 0.32247347 0.19199874 -0.02102063 0.29133686 0.70676297 0.6017057 0.533675 0.34656897 -0.023508517 -0.05807914 0.045007937 -0.065077364 0.63234115 0.046516657 0.039679646 0.36465514 0.5734633 0.44332486 0.6557436 0.675676 0.6150312 0.5536189 0.7769462 0.7723197 0.7165799 0.7245982 0.71108097 0.7119262 0.63308954 0.65365565 0.66507816 0.6945096 0.6762804 0.6154341 0.56813765 0.31894743 0.38542804 0.3204059 0.49765912 0.60223323 0.28308174 0.29973802 0.24974999 0.49709308 0.4839263 0.17115605 0.42948157 0.07436787 0.1324723 0.10735375 0.34313706 0.23519593 0.17598963 0.44721693 0.44763723 0.65901935 0.6544694 0.6666672 0.35470772 0.4931051 0.54341733 0.5276497 0.57620174 0.569757 0.6146294 0.65522754 0.6478646 0.32299274 0.5348835 0.58817214 0.60745955 0.6420393 0.6615539 0.3001057 0.6003796 0.6132206 0.6940645 0.26358056 0.5914932 0.6103296 0.5018474 0.38984874 0.7069812 0.75829804 0.2881855 0.34772795 0.40454555 0.5647235 0.6160941 0.7759907 0.43799692 0.4911877 0.37293625 0.36053535 0.6818794 0.5472876 0.61772287 0.58432746 0.44966155 0.41311198 0.37515885 0.6497678 0.617687 0.39648247 0.64259493 0.650985 0.64212203 0.57079184 0.4859975 0.44469512 0.614446 0.51981306 0.41199744 0.21430388 0.670187 0.65012807 0.5814076 0.34449965 0.40813714 0.37464607 0.3612398 0.19486073 0.25311273 0.30460858 0.32226902 0.32714093 0.35553437 0.34447116 0.23481748 0.2414368 0.3318407 0.28111994 0.30519423 0.28070346 0.20996965 0.33777928 0.28615493 0.25442114 0.0016734051 0.26487797 0.29613042 -0.25425076 0.26071247 0.33202022 -0.24097595 -0.26265073 0.3049525 0.2384933 0.38403872 0.3955434 0.37366205 0.29711783 -0.21965846 -0.22884059 0.1535838 0.13711648 0.41177168 0.029207584 -0.28027427 0.1639845 0.502401 0.63447875 0.73031473 0.7252227 0.45756233 -0.5149469 -0.15702718 0.11926277 0.7126904 0.6841101 0.43192157 -0.33094418 -0.2207337 0.64389884 0.42286187 0.49756724 0.42764288 0.36774096 0.4326989 0.38874483 0.2701741 0.058366567 0.015982226 0.14440331 0.36739573 0.31846243 0.43814576 0.38893038 0.45455122 0.5583292 0.51572746 0.4976104 0.6026978 0.58043134 0.5025314 0.52381533 0.6045836 0.56950027 -0.6014238 0.21703172 0.48431134 0.4832723 0.53719294 0.4793299 0.32115838 -0.43549007 0.45341766 0.47283202 0.48412758 -0.34720954 -0.35141888 0.29213727 -0.2729952 0.39956126 0.500844 0.5605014 0.6347828 0.4538815 0.56290865 0.72666013 0.7561077 0.55601525 0.51895785 -0.20773248 -0.02043879 -0.0031974167 -0.12378031 0.06695433 0.25151026 0.45290312 0.5492567 0.7868676 0.74261594 0.63973904 0.60273266 -0.09403962 -0.0020984113 0.4136799 0.759365 0.030454285 -0.026119389 0.16300239 0.08635338 0.47724527 0.35832566 0.36741936 0.53545725 0.7172017 0.70382494 0.5997643 0.45687622 0.7621088 0.7733398 0.69160193 0.7597257 0.79013973 0.7550099 0.72712386 0.69252646 0.66585946 0.5499989 0.5831124 0.45714265 0.39621884 0.2542188 0.25227848 0.33271754 0.4326326 0.33401003 0.5433129 0.09589579 0.1307542 0.17992969 0.5131638 0.55373704 0.46691576 0.49335313 0.5127382 0.5560571 0.59375095 0.6324231 0.28835225 0.6113826 0.36692935 0.6306007 0.24387205 0.6242523 0.31183216 0.25426406 0.64822364 0.21902311 0.25946438 0.616977 0.50367457 0.41934937 0.67494166 0.25241417 0.539935 0.5822825 0.5214474 0.7315549 0.621387 0.6167512 0.38865054 0.62791044 0.6432356 0.46370685 0.5492407 0.49051583 0.44977027 0.42147094 0.56256825 -0.07305394 0.49093214 0.49016634 0.48762584 0.50233 0.5717615 0.6029099 0.65727484 0.59271914 0.50936925 0.51848507 0.27251792 -0.3011309 0.020400763 0.18863925 0.45127788 0.43625796 0.19448753 0.2547502 0.07438419 -0.18198699 0.13762878 0.24897844 0.38026643 0.34194517 0.16184059 0.21288857 -0.09704779 0.2955816 0.29720473 0.23059466 0.24834788 0.24013813 0.24130347 0.18996672 -0.096375406 -0.106368884 0.10642108 -0.08958119 0.092082396 -0.12620582 -0.1301915 -0.1522452 -0.021548405 0.2624287 0.12778209 0.027077317 -0.18443525 -0.13824084 -0.19431213 0.052364796 0.29744977 0.3258278 -0.1806549 -0.20584464 -0.15923068 0.07891214 0.06608957 0.2955654 0.004926447 0.6592016 0.70663345 0.7198873 -0.23691383 -0.17436242 0.53267443 0.6992278 0.6795836 0.35685286 0.6566151 0.34107196 0.2921389 0.5257844 0.29580328 0.44516432 0.16697918 0.087544605 0.19743958 0.15623036 0.077760145 0.2550635 0.14574161 0.34483737 0.39447457 0.4087793 0.4800045 0.43739498 0.4121307 0.