# vtk DataFile Version 2.0
Really cool data
ASCII
DATASET POLYDATA
POINTS 8482 float
-15.756893 -7.783523 15.2188225
-15.922469 -7.878441 15.815925
-15.935706 -7.9041843 16.314253
-15.738382 -7.781338 17.122984
-15.57354 -6.967827 -0.4410865
-15.705312 -6.9255257 0.12587164
-15.800196 -7.234806 15.017513
-16.165276 -7.328134 15.7346945
-16.192156 -7.3780084 16.336575
-15.8747425 -7.374458 17.172808
-15.876156 -6.2704945 -0.20329282
-15.832557 -6.3078227 0.4779561
-15.615407 -6.343725 1.204923
-15.874619 -6.751304 15.1466055
-16.13857 -6.694278 15.734975
-16.192478 -6.736446 16.392574
-15.919709 -6.692753 17.099682
-15.674456 -5.782286 -0.7885009
-15.831204 -5.5365233 -0.33708188
-15.861865 -5.7012453 0.56102043
-15.671518 -5.6628723 1.1963997
-15.759513 -6.190437 15.534742
-15.820423 -6.107361 16.482697
-15.740445 -6.2057114 16.892452
-15.730219 -5.060347 -0.24199703
-15.653956 -4.941939 0.3210647
-15.618771 -4.959296 0.9955195
-14.766923 -8.639851 0.18067095
-14.945608 -8.166545 -0.82343614
-14.949611 -8.256646 -0.43861294
-14.962977 -8.280689 0.2551496
-14.757578 -8.128455 0.97707117
-14.94384 -7.8410997 14.166031
-15.208128 -8.06613 14.825619
-15.380403 -8.233066 15.50459
-15.472653 -8.274875 16.398779
-15.192686 -8.118379 17.294443
-14.899331 -7.869183 18.03528
-15.173801 -7.321023 -1.0698065
-15.202549 -7.641501 -0.7353512
-15.377242 -7.663943 0.35604027
-15.131631 -7.185514 1.4041791
-14.939766 -7.44537 13.934028
-15.54773 -7.2471595 14.612617
-15.56037 -7.455864 17.651947
-15.141971 -7.3996353 18.201187
-14.777996 -7.143039 18.687483
-14.640601 -6.380614 -2.0286682
-15.428415 -6.465507 1.5673432
-15.066293 -6.5920253 1.8701503
-14.884476 -6.814765 13.857006
-15.1952 -6.637616 14.40068
-15.560483 -6.377676 17.568966
-15.168451 -6.6446605 18.293772
-14.812259 -6.678579 18.6947
-14.885937 -5.500783 -1.6461257
-15.554892 -5.9632854 -1.0632795
-15.499813 -5.4570985 1.5925106
-14.757657 -5.485323 2.9531565
-14.736776 -4.910589 4.4189653
-14.753745 -4.900127 5.2420807
-14.825372 -6.005512 14.591639
-15.273811 -5.743742 16.530699
-15.141573 -5.9193363 17.54993
-14.962369 -6.1130204 18.157692
-15.552513 -5.0698795 -0.7975123
-15.200269 -4.508115 -0.29234776
-15.380114 -4.5151753 0.54524845
-14.797798 -4.4082837 5.3090563
-15.151563 -4.2052526 0.030686997
-15.165312 -4.17483 0.6859878
-14.791144 -4.2483544 1.5844538
-14.749015 -3.4266067 3.6323578
-15.038739 -3.401387 4.6613207
-15.029433 -3.2593925 5.511376
-14.868905 -3.1975281 5.982615
-14.684166 -2.389133 4.0492887
-14.985585 -2.4556768 4.8506403
-15.001171 -2.52764 5.4470468
-14.783907 -2.6531448 6.0347524
-14.782438 -2.1206682 4.734692
-14.840987 -2.139365 5.3882813
-14.763929 -2.2219882 5.7925353
-14.191218 -8.694413 -0.8316212
-14.376875 -8.756409 -0.26712537
-14.281184 -8.793631 0.21175826
-14.33895 -8.583056 14.804834
-14.538899 -8.665987 15.7178135
-14.444994 -8.657352 16.466198
-14.0566225 -8.578006 17.108122
-14.035364 -8.040346 -1.9182141
-14.47473 -8.318462 0.95300925
-13.920957 -7.7898107 1.7792097
-14.361526 -7.9730372 13.824718
-14.474385 -8.396125 14.525238
-14.476285 -8.379345 17.430914
-14.470599 -8.072397 18.099993
-14.365274 -7.120797 1.897405
-14.058664 -7.0475183 13.318331
-14.561329 -7.627724 13.608039
-14.432038 -7.385843 18.757113
-13.974359 -6.8000956 -2.803783
-14.550241 -5.9324656 2.5410347
-14.00574 -6.02578 4.688486
-13.85299 -5.8587284 5.3539987
-14.449234 -6.7473087 13.542227
-14.5653515 -6.6361246 18.801186
-14.377689 -5.862419 -2.1065853
-14.28284 -5.323022 5.525848
-13.9193535 -5.1252136 6.3539147
-14.44495 -5.925883 14.226762
-14.718417 -5.5003395 15.6574545
-14.555848 -5.5792856 17.665691
-14.523203 -5.9429555 18.357876
-14.135245 -4.897346 -1.9854627
-14.415405 -4.294191 6.21877
-13.877232 -4.37575 7.0385556
-14.010283 -5.1936035 14.848851
-14.318767 -5.1916666 16.767706
-14.313614 -5.3198595 17.366447
-13.852673 -5.33365 17.957119
-13.633251 -3.600515 -2.628177
-14.386619 -3.710478 -1.0391892
-14.332124 -3.4127655 -0.51362514
-14.403614 -3.607655 0.65216357
-14.505633 -3.4734483 1.5286531
-14.487898 -3.8825214 6.348928
-14.262099 -3.2703383 6.822167
-13.665219 -2.9325192 13.6491785
-13.774314 -2.8653069 14.832497
-13.578163 -2.5556035 -3.4054158
-13.892778 -2.8737307 -0.076450996
-13.950537 -3.0130584 0.3954566
-14.346551 -2.6472511 3.6195002
-14.487616 -2.5771635 6.2626524
-13.624473 -2.2779725 13.166773
-13.915615 -2.2136965 13.764285
-13.943949 -2.14694 14.45667
-13.751498 -2.4474788 15.101752
-14.442095 -2.1650972 4.1132555
-14.410748 -1.8522294 4.7181344
-14.465046 -1.8396244 5.373683
-14.289374 -2.0168293 5.924162
-13.7784 -1.735745 13.50787
-13.859821 -1.5743735 14.429751
-13.819457 -1.8337374 14.962194
-13.712147 -1.261848 13.826086
-13.733607 -1.2457465 14.366974
-13.408878 -8.96627 -0.3849081
-13.636853 -8.920869 0.2635182
-13.760961 -8.691893 14.763606
-13.653303 -8.722354 15.547188
-13.809816 -8.790316 16.031876
-13.430795 -8.658624 17.107437
-13.584825 -8.43092 1.3354883
-13.7604475 -8.176338 13.732124
-13.449515 -8.146534 18.211035
-13.058036 -7.1476784 3.3908186
-13.038555 -7.1633625 4.515451
-13.697494 -7.3947635 13.287264
-13.900989 -7.3846817 18.864153
-13.392734 -6.5215144 4.854496
-13.404719 -6.144083 5.717415
-13.555434 -5.78843 5.9384065
-13.107975 -6.302229 13.251981
-13.454942 -6.5803185 19.011007
-12.833669 -4.8414187 -4.3756504
-13.295823 -5.310782 13.812829
-12.956827 -5.5270243 18.696106
-12.895167 -3.9141345 -5.7795944
-12.927048 -4.1279306 -5.44359
-13.096558 -4.0401297 -4.878381
-13.411706 -4.612844 -2.8444872
-13.372484 -4.3416405 7.537966
-13.073642 -4.484478 7.655541
-13.64292 -5.0810356 17.682306
-12.71501 -4.8102174 18.374653
-12.912793 -3.3652117 -5.8935523
-13.180959 -3.5373824 -5.2552185
-13.496454 -3.30879 -3.8503463
-13.612585 -3.2257853 7.334842
-13.043183 -3.659182 7.86422
-13.116372 -3.0950902 12.601711
-13.292914 -3.6440597 15.370378
-13.135133 -3.3865955 15.969178
-12.886294 -4.16375 16.933992
-12.838955 -2.9103217 -5.8188543
-12.747338 -2.656892 -5.68732
-13.4524 -2.6189246 -4.048917
-13.418765 -2.420733 -1.8297552
-13.2952385 -2.730138 1.5493942
-13.432858 -2.8521056 7.260506
-12.709843 -2.1169596 12.263425
-13.35972 -2.5182245 12.879889
-13.4858465 -2.346086 15.33784
-12.832786 -2.277635 -5.070703
-12.972608 -1.9476529 -4.3034606
-13.226261 -1.7785797 -3.4196723
-13.263737 -1.7497609 -2.8034425
-13.316528 -2.0550094 -1.4335353
-12.991462 -1.7330331 -0.77724457
-12.72223 -1.946137 0.66179925
-13.556546 -2.2754898 3.1636336
-13.3787985 -2.0351887 3.68855
-13.783505 -1.5942178 4.7902684
-13.651268 -1.6124591 5.3883796
-13.497854 -1.8512464 6.0680614
-13.313892 -1.6352313 12.909148
-13.358385 -1.4157525 15.253343
-12.766314 -1.3303816 -3.6215723
-12.755497 -0.9983413 12.8793335
-13.2927885 -0.9477614 13.698665
-13.301499 -0.89349896 14.497053
-13.208199 -1.01613 15.012659
-11.564789 -11.788397 7.240128
-11.658513 -11.386703 6.9865785
-11.616193 -11.5388365 7.489912
-11.639454 -11.021415 7.931321
-11.635563 -10.663082 6.9360166
-11.669666 -10.65786 7.475115
-11.637176 -10.826702 7.8227134
-11.768545 -8.8923855 -7.032398
-11.896513 -8.996837 -6.442339
-11.723829 -9.09402 -5.3085856
-12.635286 -8.627863 -1.8838866
-12.638463 -8.819421 -0.60390145
-11.619371 -10.161661 7.2962465
-12.441405 -8.741956 14.789087
-12.319184 -8.859792 15.512275
-12.493666 -8.550668 16.874432
-12.689137 -8.668466 17.079456
-12.04578 -8.304395 -6.942542
-12.295632 -8.2967 -6.38675
-12.2226515 -8.461876 -5.443976
-12.63159 -8.163738 -2.4730504
-12.454604 -8.466439 1.290376
-12.250619 -8.03738 1.980946
-12.537556 -7.6434627 3.8418205
-12.160149 -7.842901 4.2856936
-12.106282 -8.309 13.845353
-12.960506 -8.445173 17.758392
-12.685511 -8.127084 18.134909
-11.914735 -7.8702745 -7.111314
-12.205591 -7.380405 -6.2036524
-12.334522 -7.7698016 -5.0451703
-11.780508 -7.333759 5.9649773
-11.993032 -7.2765326 12.9226885
-12.498143 -7.173352 19.219053
-12.13863 -6.8405533 -5.954592
-12.376413 -6.247217 6.362552
-12.070273 -6.7041335 12.852937
-12.53961 -6.075772 19.184267
-11.641694 -6.52219 20.63462
-12.72427 -5.1355042 7.399363
-11.949127 -5.076211 7.7333713
-11.73472 -5.043583 12.340058
-12.302722 -5.3081794 12.795252
-12.521177 -5.557853 19.137451
-11.641054 -5.297319 20.557095
-12.179795 -4.096396 -6.3774347
-12.18944 -4.2737617 7.943031
-12.029953 -4.2361126 12.281134
-12.367952 -4.4607797 19.197641
-12.16107 -4.761909 19.718027
-11.927939 -3.6193326 -6.5978575
-12.363029 -3.5585153 -6.332782
-12.227082 -3.8797102 7.963177
-12.034044 -2.981673 11.734954
-12.484612 -3.3565722 17.175156
-12.460832 -3.7030852 18.617825
-12.170787 -3.5750952 19.246952
-11.753419 -3.56957 19.740158
-12.453332 -2.7170188 -6.0018997
-12.438282 -2.3810127 -5.6991825
-12.788121 -2.6677482 7.4023166
-12.628632 -2.8820968 7.640683
-12.288722 -2.439603 11.932427
-12.27133 -2.7121024 16.577948
-12.163097 -2.558972 17.487425
-12.098596 -2.712933 18.50203
-11.882083 -2.6124842 19.165987
-12.218436 -2.276037 -5.7853823
-12.487958 -2.212999 -5.419763
-12.514162 -1.6897309 -4.388266
-12.568588 -1.4703834 -1.4113141
-12.15459 -1.9723494 2.906591
-12.925351 -1.7267834 4.727839
-12.343217 -2.0474968 6.7007337
-12.305954 -2.3054285 7.041489
-12.045558 -1.3552538 11.91822
-11.904709 -2.17655 17.778393
-11.728666 -1.8022596 18.027992
-12.285212 -1.2947276 -4.1123757
-12.226454 -1.0341747 -3.475275
-12.220718 -0.85794556 -2.5737455
-12.114667 -1.0231224 -1.532676
-12.000844 -0.8608326 -0.4051203
-12.203939 -1.0076146 0.22620036
-12.166296 -0.5293875 12.681754
-12.578131 -0.45431647 14.000555
-12.41932 -0.4906456 14.623602
-12.4307 -0.7256435 15.252055
-12.226303 -0.17806776 13.586076
-12.517178 -0.3746538 14.265424
-10.72225 -11.800275 -3.167104
-10.760751 -11.952552 -2.4760895
-10.814878 -11.809911 -1.8289294
-11.1632595 -12.100846 6.907955
-11.230772 -12.120785 7.4609056
-11.128395 -12.064046 7.9058337
-10.813174 -11.158953 -3.2922654
-10.931367 -11.670334 -2.7182813
-10.935348 -11.073422 -1.7376584
-11.107795 -11.1868725 6.2164373
[...]
POINT_DATA 8482
SCALARS features_00 float 1
LOOKUP_TABLE default
0.752994 0.80323744 0.8267127 0.81128925 0.6017815 0.6053364 0.7490949 0.8265023 0.8545132 0.82035565 0.5823984 0.58679277 0.5655663 0.7624072 0.8291504 0.84768546 0.7942079 0.54449904 0.5427264 0.5598384 0.5478414 0.7762193 0.75313604 0.7296099 0.4987201 0.48989916 0.49223 0.5741838 0.58262944 0.58936775 0.5860265 0.5539464 0.67167276 0.698699 0.73186934 0.77175575 0.7499001 0.7273154 0.5873181 0.59736276 0.60390776 0.54678935 0.6620949 0.70917785 0.7833608 0.7458575 0.69471383 0.41333747 0.5295491 0.47708696 0.6297105 0.6628401 0.70645595 0.6964272 0.6514196 0.39394683 0.53808516 0.51575106 0.2821526 0.3508288 0.43600917 0.61951035 0.6230172 0.59029186 0.59264904 0.47754267 0.397413 0.41638803 0.53490543 0.35149693 0.34640345 0.3197103 0.5142503 0.6621641 0.6562071 0.65392876 0.61397713 0.66672623 0.6778301 0.6766118 0.667011 0.6868471 0.68715745 0.5350514 0.55896646 0.5463207 0.61763513 0.6272306 0.6027212 0.55210024 0.54920024 0.5330714 0.3947595 0.6348807 0.64215016 0.6415608 0.6788982 0.41725838 0.5587324 0.6372384 0.6741993 0.3538828 0.343917 0.24056646 0.3146332 0.58426225 0.61414975 0.2973945 0.39048064 0.4630134 0.56369793 0.60612345 0.46973717 0.504545 0.2481434 0.563409 0.586951 0.4679355 0.3817575 0.40098837 0.30916208 0.27790198 0.27001315 0.22023751 0.2222956 0.16378723 0.60907066 0.6488984 0.5803997 0.49468738 0.47254395 0.14000265 0.15038207 0.52509123 0.6714506 0.6046607 0.6411112 0.61406827 0.49704766 0.6108041 0.6473775 0.6769531 0.6752919 0.64124393 0.6272925 0.56993437 0.6331259 0.6204972 0.48488808 0.49692747 0.52946234 0.47733903 0.48730364 0.46516007 0.41840744 0.5864296 0.56412315 0.04106778 0.10573429 0.53693247 0.63112503 0.19730023 0.28646547 0.34783614 0.33757445 0.44901788 0.34500098 0.35066098 0.21579689 0.64854306 0.60419863 0.54561573 0.15983358 0.5910083 0.5643911 0.21021162 0.10810199 0.6679363 0.6170801 0.44642705 0.65195334 0.6279272 0.42868274 0.1781964 0.1054337 -0.0362711 0.6555909 0.63826466 0.524145 0.2739659 0.035743974 0.64494765 0.47738647 0.5455428 0.42812926 0.5729916 0.5287534 0.49852437 0.45885122 0.21870372 0.15975088 0.10206175 0.35821843 0.46441698 0.6148392 0.6423634 0.63502145 0.58934176 0.5132847 0.501969 0.54389715 0.5905037 0.5656924 0.5270362 0.7465564 0.6974492 0.7249552 0.661182 0.624902 0.62842226 0.6399934 0.616945 0.5972552 0.5160537 0.2708182 0.38015556 0.5644237 0.3221493 0.28537166 0.30712268 0.3501234 0.6184812 0.60507697 0.58540994 0.23025936 0.21367048 0.026057702 0.00015560538 0.014712006 0.33387965 0.43797123 0.4407906 0.6155704 0.58513606 0.55894464 0.105593204 0.3143412 0.3236312 0.5056321 0.2861277 0.16651933 0.1695132 0.054967582 0.48736942 0.43597823 0.016935563 0.08936356 0.14394385 0.12150162 0.63097537 0.5252831 0.08786235 0.14067943 0.11958255 0.6560577 0.66826576 0.55471194 0.256751 0.078634344 0.19862922 0.24818876 0.25007626 0.65816903 0.6235194 0.60617024 0.6105483 0.38044286 0.10000467 0.22448677 0.3327177 0.37645128 0.61876094 0.5940145 0.5272467 0.26842326 0.05286742 0.5266995 0.4911018 0.49184328 0.40760118 0.3197894 0.3735334 0.5121471 0.4966405 0.44924462 0.30042106 0.22276959 0.17210573 0.4267828 0.43744773 0.3946522 0.36793607 0.36247134 0.41077536 0.4759373 0.48400748 0.4745341 0.8019785 0.7944741 0.7856381 0.41521853 0.46490222 0.40860003 0.67730063 0.7204754 0.7473278 0.7183275 0.60464954 0.5911843 0.32196486 0.5998444 0.61599547 0.6309781 0.6734202 0.64182127 0.588376 0.54314995 -0.11530143 0.105487235 -0.118065074 -0.1812827 0.17072803 0.46772736 0.53045446 0.43099853 0.19996232 0.1897445 0.14634357 0.28643346 0.6522597 0.635292 -0.013371848 -0.15635923 0.28660262 0.18472518 0.24453291 0.04033333 0.2953475 0.34043217 0.38139063 0.40411237 0.37038094 0.6027988 0.13766736 -0.011038333 0.39239442 0.47849894 0.48318803 0.4570351 -0.0487987 0.04393488 0.069092825 0.2961844 0.42705318 0.52244836 0.5239963 0.52035856 0.48924178 0.30437297 0.45636746 0.52215135 0.5331316 0.537627 0.61989915 0.6117405 0.3690536 -0.0063232556 0.14410232 0.0824617 0.3572516 0.6523206 0.28603643 0.14664915 0.656461 0.6487802 -0.0699451 0.39330894 0.38731533 0.6160548 0.5597873 0.5251635 0.3745709 0.22313453 0.22156571 0.40958774 0.41260624 0.5085559 0.47914487 0.39441928 0.24318302 0.17984655 0.12996607 0.046114504 0.24437475 0.3581018 0.24326141 0.20328139 0.17344269 0.25193435 0.24785936 0.27932525 0.30105639 0.29554385 0.25797182 0.3040929 0.36145395 0.3884526 0.3402144 0.3226043 0.3666929 0.474643 0.49160337 0.45480216 0.42857388 0.40342274 0.3612678 0.38921818 0.42056388 0.4498875 0.51657224 0.5258982 0.770857 0.44613945 0.4430563 0.43813765 0.4042561 0.39242792 0.37741753 0.2815549 0.49331832 0.50530684 0.49840772 0.81669194 0.7971692 0.7753224 0.719365 0.41272324 0.3377716 0.33269137 0.35022417 0.3047055 0.19209215 0.4481889 0.45716488 0.29592112 0.6443843 0.68899316 0.29234594 0.20792365 0.22000572 0.6620371 0.6327003 0.48849934 -0.08097862 -0.045628335 0.49033076 -0.10363873 -0.04497528 0.021579862 0.170825 0.69347525 -0.1725542 -0.18074171 0.2628746 0.14560524 0.11454407 0.06317816 -0.0019314848 0.09168084 0.010129474 0.14227588 0.21206646 0.24674469 0.27781963 0.20712829 0.6954671 0.09397766 0.0059206337 0.08412877 0.15084131 0.37076575 0.30215484 0.6700082 0.5920521 0.04171833 -0.019030273 -0.10664462 -0.031613767 0.45134526 0.43308467 -0.12021773 -0.2462739 0.5274406 -0.085868694 0.5306021 0.5317718 -0.20417342 0.21897554 0.30823788 0.38516417 0.50464904 0.5043488 0.64783394 0.63306826 -0.22221777 0.22725272 0.65360594 0.6357381 0.11286822 0.016094938 0.36711526 0.5249692 0.5130844 0.06579109 -0.13811493 0.11739486 0.16652434 0.39227366 0.35497397 0.4288739 0.45094573 0.34382123 0.218144 0.16933322 0.020163633 0.11884749 0.22560032 0.1987373 0.18817972 0.32473415 0.22817828 0.20944822 0.09616748 0.21787561 0.2554397 0.16476417 0.2093383 0.20736715 0.1914395 0.17512734 0.3487913 0.24977317 0.30873215 0.27174777 0.12681212 0.1867277 0.28400904 0.3398451 0.42437416 0.45280078 0.39284444 0.40181804 0.37424964 0.26282823 0.3728416 0.4576254 0.4950652 0.47169468 0.42778772 0.3924123 0.304326 0.49770027 0.44987935 0.43767798 0.37899566 0.5285555 0.5466931 0.5282794 0.44037718 0.43115032 0.19901466 0.1532349 0.47039586 0.5016602 0.39639384 0.2921128 0.640569 0.6518003 0.6607659 0.390652 0.20260742 0.09343171 0.17224576 0.250168 0.22201526 0.16177465 0.030250201 0.31682712 0.4687847 0.2291678 0.19954836 0.18706512 0.10283266 0.1895077 0.25929695 0.6724471 0.6414666 0.50251174 -0.046009414 -0.1449484 0.09415724 0.047912464 0.10863046 0.12519105 0.105033845 0.05039923 -0.2249007 0.040407162 0.053030305 0.16978402 0.25281644 0.70183396 0.1235881 0.12836613 0.051695187 -0.03950709 0.0060296524 0.028482882 0.07327775 0.12529388 0.71112263 0.71049535 -0.06836173 0.2641505 0.6600524 -0.1728495 -0.15533754 -0.27360907 -0.22891201 0.48923856 -0.49950343 0.55007267 0.50350493 -0.3225841 0.25452995 0.40078747 -0.23262851 -0.025587946 -0.02156867 0.09777912 0.19744381 0.5749774 0.47266042 0.20677373 0.4599312 0.3898577 0.3769796 0.27087754 0.15413499 -0.06126039 0.25340524 0.18809079 0.13688539 0.0527165 -0.059573065 0.16906878 0.16863988 0.11527954 0.35661793 0.22303808 0.27689144 0.2658047 0.2080267 0.11752291 0.17381774 0.14384468 0.0854709 0.27317852 0.3438604 0.3864803 0.47527063 0.42890477 0.29294354 0.3500449 0.3119552 0.25389752 0.42343038 0.4897095 0.48466498 0.32659245 0.2524703 0.22461855 0.38573736 0.40880007 0.3555286 0.39369825 0.40540272 0.28495336 0.2712705 0.13706943 0.19642979 0.38036412 0.44219458 0.44845843 0.41172653 0.4343338 0.36940512 0.33733314 0.50373834 0.527513 0.55135536 0.506613 0.41454378 0.3075952 0.40180582 0.114254445 0.13125898 0.20360884 0.20809284 0.41587198 0.46612525 0.27419573 0.47554535 0.4765126 0.507108 0.17516924 0.24981007 0.26611817 0.015828405 -0.0030417657 -0.049304992 0.32613754 0.10343818 0.07409098 0.06650863 0.08798878 0.087925375 0.14335331 0.31722668 0.36058587 0.3953655 0.5937096 0.47721118 0.47741348 0.05070902 0.06262764 0.065930806 0.10535504 0.13831045 0.15037474 0.26886472 0.3512755 0.43463656 0.48189634 0.62407553 -0.021377565 0.1065325 0.2780405 0.44908094 0.48134297 0.49062037 0.6321183 0.49916324 0.6230643 0.36092559 0.5044124 0.25635105 0.41263068 0.32884434 0.70395327 0.7168944 0.71421456 0.18361054 0.7503907 0.7599375 0.74444586 0.36551318 -0.11072863 -0.040553257 -0.0103612505 0.02205078 0.75326276 0.77880704 0.79211426 0.773517 0.055839203 -0.077119395 0.0020576823 0.08530104 0.7519386 0.775481 0.7546084 0.2238099 0.08163273 0.66756207 0.70239997 0.7007122 -0.019143421 -0.005430877 -0.07565619 -0.08320743 0.3234266 -0.013041902 0.072216116 0.30147034 0.34956288 0.417651 0.38745886 0.42923996 0.19527295 0.11005017 0.40082556 0.46026438 0.5926206 0.5661969 0.27282745 0.63425386 0.61021954 0.36372495 0.35161632 0.2891569 0.21018055 0.3356109 0.36814293 0.30407438 0.27570143 0.1418755 0.18238722 0.21822175 0.2962591 0.2904179 0.27015966 0.34802806 0.35209823 0.29735506 0.3344021 0.30669343 0.3549998 0.48056808 0.48980063 0.47147036 0.4425401 0.2751928 0.15077391 0.14764531 0.18068448 0.25982374 0.44443184 0.45969146 0.15152334 0.053085975 0.1474673 0.38927415 0.189295 0.13657221 0.23680936 0.3754114 0.3943953 0.29197508 0.17285538 0.11104621 0.13201118 0.13220447 0.14457531 -0.14844862 0.45043066 0.49992192 0.4730984 0.38197282 0.06632025 -0.018936686 0.52707 0.53810227 0.5043857 0.44508055 -0.2147375 -0.16146486 0.52312577 0.5572682 0.5725838 0.5106761 0.5160368 0.5361366 0.53715634 -0.05463005 0.462892 0.19103464 0.1515605 0.5874624 0.60708195 0.6821731 -0.054638177 0.64667 0.67362714 0.20886514 0.031001896 0.5185587 0.6968515 0.64688027 0.28179032 0.15288539 0.09126926 0.14679387 0.5118768 0.7066833 0.6650375 -0.13542563 0.009461172 0.15412617 0.14684789 0.19169039 0.23042014 0.24952327 0.60971355 0.6220124 0.65837896 0.66737276 -0.020192176 0.029015059 0.16735241 0.23199892 0.27366966 0.28909573 0.5989885 0.61503595 0.624969 -0.100036725 0.07625826 0.046401188 0.2647017 -0.13076934 0.3446905 0.29909372 0.35383165 0.321311 0.29300833 0.44362643 -0.035996627 0.39804375 0.61399055 0.6184168 0.263134 0.14221449 0.14636539 0.18002035 0.18561728 0.64677155 0.65337765 0.6311004 0.588704 0.6585138 0.65266407 0.8484374 0.88308215 0.8906597 0.86760825 0.9093758 0.8818523 0.867522 0.8883929 0.87419665 0.36132723 0.32580608 0.27144653 0.14835626 0.12793052 0.184129 0.23046887 0.21126042 0.292055 0.25270367 0.24388061 0.2449969 0.14898461 0.19787186 0.13948488 0.0009086877 0.13441037 0.20469931 0.26603538 0.08335096 0.13869251 0.27615398 0.44990742 0.42327487 0.39170903 0.29329666 0.23064175 0.25346196 0.3149694 0.32473198 0.26430544 0.2150871 0.27995577 0.38460577 0.40279394 0.41997433 0.37892854 0.23536225 0.05983437 0.048392802 0.06730965 0.23008648 0.2843288 0.23661032 0.20746498 0.15742487 0.08035301 0.1162785 0.43162286 0.44349968 0.027774166 0.04795531 -0.07154114 -0.16558291 0.089726485 0.5014397 0.5041398 0.37065977 0.25069308 -0.2677886 -0.16502045 0.5553556 0.54707444 0.4372689 0.38776398 0.6054802 0.58355606 0.5663526 0.43072784 0.37650734 0.48006576 0.5528722 0.35146773 -0.10174182 -0.16499011 0.42189583 0.16736913 0.24034342 0.43769383 0.36634904 0.48307765 0.34666488 0.39627022 0.52668536 0.5448224 0.1422748 0.5728967 0.012934521 0.27706927 0.59640235 -0.15455888 0.29692787 0.29157522 0.46331245 0.5518333 0.11249581 0.037016127 0.03449919 -0.09794885 0.26931384 -0.13913497 0.13246311 0.19226098 0.16907929 0.42099413 0.34287202 0.3958235 0.2896088 0.43924147 -0.1083097 -0.108501464 -0.032618724 0.113726 0.445219 0.599066 0.10345971 0.06164949 0.036519952 0.16430664 0.6415689 0.6569934 0.55848986 0.22891684 0.29046127 0.28084457 0.24804145 0.061330084 0.6572211 0.6486719 0.61221087 0.30112296 0.29158562 0.28907335 0.64820147 0.81834733 0.8707593 0.7889557 0.6349795 0.77172875 0.8655143 0.7432662 0.8340212 0.85313225 0.8533993 0.7796463 0.840711 0.8449327 0.8336931 0.8156482 0.79309326 0.25800058 0.62750673 0.50023955 0.24275318 0.3198826 0.13274552 0.17359698 0.17920078 0.536463 0.13931204 0.07604197 0.20295076 0.17252675 0.037186846 0.08020133 0.27210164 0.3408653 0.5363076 0.0051835477 0.3210086 0.4775266 0.51405 0.29789025 0.30737725 0.38021675 0.16802505 0.24190256 0.29323733 0.324483 0.2811116 0.32558757 0.29581967 0.23019795 0.172052 0.0709661 0.025778918 0.38145703 0.32845515 0.35707763 0.24914354 0.22029984 0.11265579 -0.0011148565 0.08324454 0.18939984 0.20173007 0.25639963 0.034126814 0.0008316152 -0.010700072 0.106991924 0.41310763 0.29453385 0.2882684 -0.16438475 -0.07312508 0.44956332 0.2513414 0.54743147 0.52121365 0.2921231 0.27887055 0.57071066 0.30680674 0.2957369 0.47155958 0.51578647 0.54269576 0.32285318 -0.22438842 0.3008072 0.09813191 0.27559632 0.35461283 0.33582795 0.49265808 0.42950052 0.47029507 0.50255966 0.46245283 -0.008718699 0.45835614 0.17961961 0.3323512 0.37043613 -0.11072505 -0.07717814 0.15819855 0.16167276 0.21704388 0.36551696 0.38514745 0.43199804 0.42018807 -0.105327815 0.514798 0.3688722 0.37418294 0.3123166 0.16164303 0.13516067 0.5634314 0.5037304 0.43123934 0.39827746 0.518002 0.20633915 0.57772934 0.49816042 0.43980956 0.40034056 0.5645211 0.6115116 0.5661388 0.006074041 -0.028305896 0.6710212 0.59333193 0.6089574 0.5701405 0.30288213 0.27846506 0.2434723 -0.036786087 0.20754379 0.77452767 0.7509441 0.78612804 0.2667341 0.8723248 0.45658386 0.6137798 0.8081484 0.8246335 0.66485095 0.72440434 0.786268 0.7541678 0.78556323 0.7221242 0.727858 0.74145734 0.37423113 0.67873883 0.6934393 0.6763877 0.58605945 0.30535656 0.29557538 0.20640925 0.61075675 0.68827456 0.66716945 0.56800455 0.41716826 0.09659724 0.22334796 0.14389472 0.5786265 0.5895395 0.5081456 0.1364621 0.15703326 0.5639682 0.631619 0.6565 0.32919934 0.17450178 0.24306282 0.57919997 0.61726385 0.6331713 0.10371232 0.5804174 0.5742899 0.28536534 0.25851268 0.14385661 0.11367037 -0.059371307 -0.16274257 0.4340666 0.4420671 0.22581945 0.23189966 0.26567194 0.24426942 0.07019771 0.040983718 0.01916438 0.11134276 0.18930651 -0.056935973 0.39823323 0.2747557 0.20827784 0.105456136 0.28275335 0.33651274 0.34969664 0.3369736 0.3550514 0.49420124 0.31883237 0.43088314 0.5211559 0.31340885 0.30013403 0.14091869 0.21837577 0.65402865 0.67260075 0.6867405 0.69764173 0.50736785 0.29189062 0.6579685 0.6934251 0.5252238 0.53294617 0.2016066 0.51761025 0.5155284 0.452174 0.36373988 0.07818886 0.36301425 0.25244027 0.11436533 0.16721164 0.21691641 -0.15339619 -0.02336657 -0.020332754 0.10869135 0.45090675 0.43982983 0.28589773 -0.05429718 0.39422742 0.22459236 0.3433059 0.38591716 0.4448622 0.4520691 0.34370947 0.09270032 0.5387459 0.37825394 0.35869247 0.47273925 0.14998968 0.62235534 0.41166162 0.39296693 0.52051497 0.5424626 0.5498027 0.71458906 0.6364442 0.5760934 0.47196668 0.43366075 0.40143397 0.5548171 0.560116 0.5502307 0.3176698 0.3114301 0.14008942 0.8197653 0.55621964 0.52992475 0.26381025 0.24306631 0.16298074 0.061544135 0.2443353 0.85587823 0.2894508 0.74885404 0.7900647 0.52656657 0.58492607 0.5964645 0.6461711 0.70653707 0.6260565 0.6215791 0.58451015 0.5604243 0.44580817 0.39880764 0.54372144 0.45154744 0.4540707 0.63316995 0.6254514 0.610303 0.5305797 0.10029108 0.19944966 0.2759198 0.37319344 0.31230587 0.24168272 0.63154507 0.17123756 0.17239632 0.48364857 0.17863435 0.17239492 0.43822035 0.57869256 0.68211913 0.6824674 0.68155205 0.41941923 0.6638565 0.66182035 -0.11585286 0.25347745 0.6098447 0.1312687 0.07358789 0.1991254 0.028602675 0.48396218 0.30391234 0.2876619 0.23708682 0.03454797 0.12885201 0.41449258 0.18078248 0.2054741 0.35971868 0.31981856 0.27934873 0.115376174 0.32837996 0.4196059 0.4159047 0.4402005 0.40785247 0.24574667 0.19151826 0.5118474 0.19054015 0.5107103 0.65461445 0.64787155 0.46959937 0.39190826 0.6921381 0.68029773 0.5196181 0.5214491 0.69015 0.68927574 0.53421915 0.54125416 0.2613422 0.40594906 0.6261905 0.5338974 0.526861 0.4090389 -0.0380706 -0.00240618 0.13827829 0.2095006 0.3104093 0.27866837 -0.04163466 -0.16542417 0.40958667 0.29788655 0.06135739 0.026004978 0.025593914 0.44420782 0.07956803 0.4220784 0.4432093 0.44566223 0.44368142 0.3348099 0.37227103 0.029759377 0.3282026 0.45593864 0.14089331 0.64866084 0.39073044 0.3663167 0.4858622 0.5097631 0.4745906 0.65409666 0.69849443 0.71604156 0.4783079 0.4537244 0.41260666 0.52524364 0.52786356 0.21784583 0.25364336 0.7810576 0.8402599 0.63675 0.5625367 0.4898718 0.25796628 0.1895371 0.14520767 0.07187861 0.8027085 0.072928205 0.11994255 0.6934569 0.7713944 0.28643787 0.44348294 0.4828061 0.45517975 0.6124422 0.6468674 0.6417298 0.44185814 0.40464717 0.40879288 0.47363865 0.60192025 0.5868742 0.52290493 0.44508645 0.46707797 0.51048374 0.291282 0.18518375 0.071416646 0.2768617 0.41481352 0.28813946 0.4823114 0.26031005 0.2204961 0.42323035 0.20147389 0.15876158 0.2817318 0.5583583 0.6723727 0.67074907 0.67005265 0.65657413 -0.15003432 0.6219642 0.19877157 0.21184373 0.21212807 0.17383492 0.059614092 -0.039598696 -0.104120865 0.520258 0.29567495 0.348482 0.39641356 0.3848707 0.21318458 0.056680128 0.06990385 0.4261984 0.24294719 0.2613972 0.372344 0.31925595 0.30802244 0.18234086 0.16251986 0.28115144 0.4400031 0.3819419 0.04755992 0.457358 0.45777196 0.43404928 0.39606664 0.3184153 0.29745075 0.27589977 0.48774436 0.569766 0.12630415 0.09904648 -0.12014154 0.5372236 0.60745907 0.40701744 -0.12550282 0.63962555 0.5182756 0.48937708 0.42777017 0.64203286 0.5436842 0.5461893 0.51861227 0.30294222 0.6385921 -0.18699232 -0.07940599 0.05271001 0.1386554 0.3238468 0.20634873 0.32497934 -0.28926486 0.14586084 0.22610486 0.35521346 0.3205755 0.10780684 0.086124785 0.16656056 0.26963055 0.40370125 0.4201504 0.4118286 0.38272095 0.35154992 0.43344438 0.42174363 0.31921026 0.4353253 0.44243807 0.40883532 0.33649206 0.07379182 0.389988 0.504622 0.6341822 0.94440836 0.479344 0.25214934 0.5739666 0.6492291 0.88014495 0.70816314 0.63048744 0.5768018 0.48772687 0.2631707 0.6234491 0.70692706 0.80817676 0.720292 0.23398408 0.15674785 0.10350369 0.51184803 0.5901742 0.67974603 0.1861603 0.37303206 0.4215405 0.46780378 0.6640518 0.68710256 0.67637527 0.3492038 0.30865154 0.20506072 0.49937594 0.6069951 0.6514137 0.59187853 0.35948366 0.363882 0.1465306 0.49560535 0.43767565 0.26284888 0.3008607 0.23235704 0.24865411 0.19011846 0.12815048 0.2616576 0.48576415 0.56824195 0.6286862 0.6392456 0.14350086 0.6201868 0.33626586 0.3538817 0.3612091 -0.075053595 -0.09372304 0.5896149 0.25796235 0.26574135 0.2150281 0.02664002 -0.18231043 -0.14368343 0.54309 0.33051157 0.3783519 0.45046306 0.4380231 0.35465032 0.05694844 0.48335403 0.23098956 0.3176844 0.45389062 0.32449123 0.25783274 0.2503151 -0.0683134 0.12795538 0.21952859 0.34047982 0.41707146 0.36240673 0.3080481 -0.48818994 0.41846555 0.39815074 -0.4037844 0.31674606 0.29393497 0.25037694 0.08584348 0.12890324 0.32348207 0.27062863 0.22320595 0.396977 -0.23021126 0.33361745 0.46997762 0.5083655 0.030978534 0.06258756 0.26644677 0.006523695 0.19615217 0.33556032 0.34037107 0.35686606 -0.04574977 -0.2993651 0.18602082 0.18012571 0.085997 0.3551278 0.066664256 0.103821635 0.076054476 -0.035010576 0.21558799 0.28913742 0.3721308 0.27105504 0.3663305 0.34000957 0.41305646 0.41027117 0.392806 0.373314 -0.06624654 -0.005746439 0.77041084 0.50845134 -0.028532464 0.96409047 0.91334987 0.5785762 0.5476574 0.0969464 0.0893598 0.45690507 0.5042886 0.96613187 0.909533 0.7621286 0.68557143 0.61922276 0.4801745 0.57596135 0.8581098 0.8012271 0.20419386 0.14670822 0.1591654 0.4261794 0.46517488 0.28865704 0.29038247 0.33537793 0.3761989 0.6956154 0.6979337 0.39873502 0.41089988 0.4417972 0.34370968 0.2862162 0.6631509 0.6742657 0.654655 0.5878142 0.2829552 0.3458597 0.091017164 0.47294956 0.20567721 0.23179063 0.060297877 0.081979275 0.09044617 0.083158255 0.2207232 0.37010723 0.48104393 0.45675924 0.43165714 -0.20647824 0.115968615 0.18839827 0.13167542 0.20243575 0.39330983 0.48615152 0.5531971 0.5663068 0.41992843 0.41167