# vtk DataFile Version 2.0
Really cool data
ASCII
DATASET POLYDATA
POINTS 7016 float
25.26238 -20.945185 64.06297
25.227451 -21.030144 64.40178
25.212746 -20.918018 65.06539
25.138197 -20.423437 63.99751
25.018572 -20.465698 64.528366
25.152224 -20.373838 65.41409
25.351692 -20.20308 65.84914
25.164358 -19.755505 63.990936
25.046993 -19.733498 64.4664
25.174814 -19.583445 65.35849
25.289532 -19.920471 65.80536
25.28353 -19.138035 64.00319
25.272884 -19.014938 64.50178
25.278177 -19.140476 65.37293
25.39565 -11.232055 64.46514
25.415186 -11.228894 64.9974
25.470257 -10.886886 63.97017
25.315218 -10.567382 64.62036
25.308928 -10.292021 65.376015
25.383186 -10.213441 66.20428
25.403656 -10.030218 64.531715
25.387981 -9.682023 65.52523
25.430452 -9.770419 66.250046
26.15301 -21.610008 63.899544
25.871582 -21.593245 64.6647
26.0709 -21.639723 64.99621
25.917202 -20.865385 63.35207
25.66785 -21.121468 63.811237
25.562065 -21.3834 64.5005
25.69376 -21.26 65.35332
25.858692 -20.975674 65.95311
25.810034 -20.363092 63.25607
25.555258 -20.515654 63.580265
25.434196 -20.751762 65.6434
25.76736 -20.412197 66.22659
26.253515 -19.16692 63.06829
25.612345 -19.619707 63.45505
25.659887 -19.693647 66.13279
26.155508 -19.768904 66.57204
25.81741 -18.754425 63.72022
25.733208 -18.606104 65.398445
25.849249 -19.0126 66.075134
26.048424 -18.16682 65.181496
26.454237 -16.000101 56.66478
26.468786 -16.230152 57.37704
26.400665 -15.541043 58.556908
26.47663 -15.102573 59.945774
26.339346 -14.814361 58.97483
26.425089 -14.451257 60.460636
26.327429 -13.0501 73.877655
26.258333 -13.054716 74.50428
26.318127 -13.070983 74.87625
25.941853 -12.121037 64.293816
25.688992 -11.756724 65.0384
26.046566 -11.855797 66.56303
26.246464 -12.404579 73.82114
26.149168 -12.57142 74.527176
26.287516 -12.342624 75.08317
26.118494 -10.822411 58.726963
26.08868 -10.893089 59.350063
26.19751 -11.555917 62.924458
25.566772 -11.072553 63.72628
25.501646 -11.509036 64.42634
25.611115 -11.181195 66.5452
25.989353 -11.322914 67.25034
26.289303 -11.855988 73.894455
26.259624 -11.730374 74.45152
26.252039 -11.847132 74.9655
26.467644 -10.888167 79.55836
26.451176 -10.999306 80.04803
26.091717 -10.14878 58.20045
25.94069 -10.302858 58.53124
25.818048 -10.342098 59.27932
26.412714 -10.365377 62.0125
25.950682 -10.122829 62.991856
25.489895 -10.254334 64.1358
25.525806 -10.570605 66.707115
25.820068 -10.539733 67.242935
26.424997 -11.184512 74.1067
26.443966 -10.510626 79.70449
26.440119 -10.548179 80.061554
26.298803 -9.386589 58.028492
25.912945 -9.550952 58.718716
25.81194 -9.6916065 59.33648
26.024027 -9.56253 60.12948
26.415323 -9.425419 62.652473
25.708622 -10.006325 63.680923
25.55036 -9.72639 64.627556
25.533268 -9.321479 65.71919
25.542418 -9.610445 66.43393
25.88082 -9.587889 67.089836
26.288263 -9.224046 58.227203
26.100239 -9.132808 58.6802
26.178041 -8.791616 59.601646
26.27646 -8.862327 60.323795
26.207205 -9.116334 63.749027
25.83443 -8.705991 65.51535
25.874706 -8.708901 66.30404
26.112196 -8.747152 66.90165
26.178223 -8.240851 65.61481
26.11631 -8.256549 66.117065
26.69566 -21.710707 63.80493
26.804478 -21.927937 64.66173
26.819202 -21.824036 65.25811
27.004763 -21.630869 65.72375
26.244497 -21.016472 63.29921
26.399952 -21.48671 63.662663
26.527533 -21.013083 66.20584
26.939302 -20.408957 62.749058
26.435204 -20.604605 66.46109
26.571941 -20.21259 66.657005
26.701862 -19.41146 62.898064
26.668901 -19.78295 66.658295
27.13509 -18.436876 62.45195
27.36213 -16.889566 54.46298
27.078907 -17.074825 55.634113
26.87639 -17.08905 56.602234
26.86369 -17.069777 57.36419
27.250532 -16.795002 58.456497
27.288635 -16.944895 59.05008
27.234919 -17.369251 62.44406
26.58968 -17.535973 65.24949
27.30414 -16.278337 54.186703
27.01751 -16.294981 54.72969
26.651932 -16.220055 55.721806
26.589209 -16.35063 56.386993
26.582897 -16.549032 57.146145
26.469572 -15.884132 58.673832
27.009785 -15.931077 60.56582
27.224798 -16.525356 62.066406
27.01199 -16.712225 63.522106
26.894619 -16.95542 65.189705
27.207748 -15.566076 54.18749
26.954885 -15.595244 54.617485
26.590021 -15.649177 55.78594
26.577694 -15.749394 59.242107
26.605835 -15.407371 61.563183
27.044579 -15.675503 63.502098
27.1727 -15.875887 64.47936
26.94282 -14.602321 55.623478
26.654602 -14.260743 57.033695
26.706688 -14.149723 60.915726
26.71598 -14.910548 62.188934
26.910156 -13.621947 73.94342
26.946777 -13.739077 74.5467
26.897793 -13.68729 74.97458
26.764013 -13.795801 56.67151
26.90251 -13.321828 59.58408
26.712112 -13.930722 60.77779
26.767998 -13.721614 61.518116
27.255884 -13.596263 63.277145
27.277927 -13.412928 64.259636
27.175688 -12.911243 65.4991
26.749744 -13.297594 73.60086
26.54967 -13.436454 74.5414
26.646265 -13.285397 75.16118
26.712284 -11.97134 61.832874
26.612244 -12.877642 62.256138
26.498552 -12.329022 65.34036
26.314922 -12.08628 66.63982
26.487246 -12.094752 67.03063
26.913202 -12.194443 72.93409
26.539568 -12.691222 73.37758
26.46833 -12.840186 75.365036
27.35234 -12.354098 79.09958
27.379242 -12.494531 79.77299
27.18131 -12.112411 80.07803
27.025034 -11.461144 60.810627
26.664154 -11.339618 62.139584
26.30445 -11.498822 67.46738
26.468615 -11.377318 67.68052
26.789968 -11.470872 73.09333
26.59581 -11.291885 73.5108
26.537445 -11.55449 75.107895
27.211044 -11.572457 78.785446
26.544065 -11.081751 79.730286
26.707949 -11.139049 80.39401
27.15146 -11.29749 80.81581
26.687511 -10.210154 57.706337
26.507683 -10.574697 60.667824
27.077257 -10.7082 73.11018
26.743746 -10.780696 73.68842
26.625141 -10.860594 74.37443
26.826704 -10.741082 75.118515
27.351278 -10.128242 77.94682
26.650774 -10.308233 79.0259
26.499937 -10.482181 79.415695
26.603453 -10.459526 80.32518
26.929024 -10.516896 80.78919
26.798899 -9.5394945 57.646656
26.31947 -9.236304 67.31405
26.659788 -10.042007 67.70037
27.025608 -10.186358 73.68766
27.013805 -10.227179 74.343765
27.275679 -9.521254 78.20108
26.890696 -9.297867 78.946106
26.66412 -9.560377 79.48813
26.822947 -9.780524 80.3578
26.976343 -9.973261 80.73727
26.798456 -8.917147 57.99452
26.61828 -8.687105 58.502216
26.46029 -8.534571 59.58437
26.536194 -8.460754 60.49316
26.61762 -8.370971 60.932106
26.8429 -8.837112 62.00259
26.50788 -8.68161 64.34503
26.714262 -8.426013 67.14273
27.159672 -8.650684 78.85349
27.047234 -8.634218 79.35338
27.17463 -8.897364 80.17006
27.054724 -8.330319 58.656136
26.927649 -8.027595 59.771336
27.131104 -7.8560514 60.33869
26.894093 -8.301061 61.248306
26.563875 -8.002097 66.32829
26.43219 -8.3069315 66.79302
27.331587 -8.154776 79.49185
27.698605 -21.926123 63.73077
27.580578 -22.120216 64.59176
27.65807 -21.946735 65.321724
27.62152 -21.301458 62.95325
27.798277 -21.300344 66.120094
27.597221 -20.607332 62.425568
27.096378 -20.290705 66.73031
28.081732 -17.794888 54.954205
27.721941 -17.65409 55.92985
27.661972 -17.671259 56.491898
27.799679 -17.76891 57.717796
28.384974 -18.380829 59.03919
27.411757 -18.201685 62.545383
27.231352 -18.796633 66.65296
27.968792 -17.071508 54.062275
27.621864 -17.226322 54.570095
27.37154 -17.39878 56.038006
27.767952 -17.121382 59.543907
27.327375 -17.866755 66.30672
28.008053 -17.928173 66.75874
27.684416 -16.422073 53.918583
27.6016 -16.135075 66.154274
28.260681 -16.706139 67.00247
27.722914 -15.418473 53.824055
27.947489 -15.954205 66.50419
27.693598 -15.046676 54.048637
27.76315 -14.569631 54.40414
27.841805 -14.343403 65.86225
27.793013 -14.58606 66.82861
27.905521 -14.469074 67.36855
27.519808 -13.911877 74.48273
27.727486 -13.650747 75.44026
27.64254 -13.730458 64.88917
27.979107 -12.99871 67.34056
28.381687 -13.643703 68.60177
27.679844 -13.043282 72.89086
27.2641 -13.474155 73.38977
27.258005 -13.41573 75.47911
27.520355 -13.257449 75.7411
27.659649 -12.734355 79.032745
27.941034 -13.099485 79.813965
27.993587 -12.9934225 80.23205
27.832537 -13.178897 56.102932
27.735308 -12.785753 56.801815
27.899336 -12.613025 67.33961
27.453814 -12.663951 72.82335
27.794937 -12.532747 75.97946
27.82656 -12.511673 78.811806
27.673075 -12.49086 80.422134
27.909248 -12.3058405 80.78631
27.068333 -11.194841 67.786865
27.261122 -11.460532 72.64794
27.63525 -11.320093 81.00613
27.003618 -10.602204 67.80984
27.65305 -10.406798 72.79809
27.778826 -10.156303 77.67981
27.622404 -10.604356 81.09367
27.422987 -9.531455 57.377544
27.070011 -9.632509 67.73531
27.422728 -9.805703 73.76994
27.877747 -9.618783 74.590385
27.857922 -9.7212925 75.00932
27.712105 -9.812645 80.98043
27.531157 -9.142463 57.410427
27.408035 -8.827562 57.70314
27.29537 -8.496841 63.888454
27.696535 -8.662371 77.98761
27.410185 -8.384038 78.5909
27.738626 -8.72827 80.42358
27.80952 -9.059685 80.65626
28.06243 -8.106812 58.239998
27.96334 -7.7559714 58.89195
27.750921 -7.6245766 59.200565
27.302969 -7.8197145 60.716755
28.114147 -7.6200786 61.764034
27.302225 -8.404257 62.446243
28.27862 -7.1345687 64.54175
27.887459 -7.5125346 65.92675
27.58151 -8.056042 78.722046
27.762121 -7.859217 79.51784
27.719112 -8.139542 79.976105
28.15459 -7.3060718 60.216072
27.891823 -6.274774 64.80536
28.142847 -7.1000276 65.85882
28.301176 -5.473965 63.576035
27.93361 -5.7794905 64.331764
27.885021 -5.678241 65.52759
28.041538 -5.2493424 66.50542
28.351994 -5.429303 67.155495
28.359266 -4.983108 63.760365
28.139318 -4.7879057 64.38051
27.959826 -4.1668177 65.487274
28.014025 -4.500695 66.41942
28.276371 -4.649822 67.14273
28.23245 -3.5775297 64.70753
28.045372 -3.459486 65.5871
28.118484 -3.613201 66.28743
28.370846 -3.5251634 66.83217
28.290705 -2.702294 64.76544
28.208773 -2.6953473 65.401
28.346773 -2.5698273 66.146675
29.23266 -21.848043 61.662148
28.141052 -22.021734 63.773064
28.378288 -22.13034 64.548996
28.321342 -22.024881 65.16526
28.078335 -21.753992 65.77517
28.379246 -20.87045 61.796207
28.835974 -21.45612 62.205524
28.27601 -21.120867 66.298874
28.71942 -20.203682 61.53107
28.877312 -20.249352 67.105545
29.287184 -19.2282 58.05485
29.070635 -19.545341 58.82997
28.47631 -19.38784 67.152626
28.468002 -17.761862 54.627373
28.624008 -17.945244 56.43965
[...]
POINT_DATA 7016
SCALARS features_00 float 1
LOOKUP_TABLE default
0.78578454 0.81884956 0.85957444 0.785247 0.84755516 0.8461945 0.797277 0.77048695 0.83368516 0.81558746 0.7920797 0.7378869 0.7841083 0.7728714 0.42186758 0.46939662 0.38162756 0.44125664 0.49553156 0.5709728 0.43374237 0.5045917 0.5663352 0.712369 0.79086345 0.79234254 0.6641865 0.7394669 0.80302083 0.8307569 0.7848161 0.647845 0.7104588 0.8267796 0.7555885 0.4829052 0.6511646 0.7309316 0.67404306 0.57872 0.66296154 0.65800494 0.5587387 0.43637687 0.35192436 0.2268386 0.19620578 0.20740816 0.17078891 0.7697512 0.7486663 0.7292814 0.34301603 0.45212924 0.4985826 0.76303375 0.7622546 0.73967046 0.59391284 0.5029297 0.20661232 0.3563846 0.40973666 0.6048577 0.60763127 0.71315765 0.69980234 0.7059592 0.68854845 0.72194016 0.6419889 0.64491224 0.59965384 0.18855879 0.31427103 0.40125898 0.6423564 0.6846527 0.641122 0.70698535 0.72347945 0.6334722 0.6450125 0.6215943 0.5211209 0.249926 0.36464688 0.43873325 0.51652884 0.5807104 0.6384331 0.63481677 0.634539 0.5586816 0.44266793 0.3254366 0.48663366 0.53666663 0.5647949 0.43129697 0.47885734 0.66074884 0.7032241 0.7127607 0.6878551 0.6302382 0.6664616 0.7236376 0.46772248 0.7047237 0.66064537 0.41874832 0.6150892 0.18767248 0.66676617 0.5621655 0.44509715 0.36038378 0.25179923 0.21490538 0.082303345 0.29859182 0.6900558 0.6498532 0.55382985 0.4795521 0.38587812 0.22928861 0.15919472 0.069088675 0.1393069 0.10593338 0.67792124 0.6505493 0.53881335 0.20430319 0.13657612 0.031538032 -0.0055659413 0.56653184 0.47906637 0.112505086 0.077361405 0.6735345 0.6122512 0.6016111 0.57720256 0.08011633 0.0981105 0.022857709 0.016544156 0.008253612 0.10679131 0.74604595 0.6945377 0.66175437 -0.04186717 -0.009352968 0.3313204 0.41741443 0.393076 0.7439852 0.7796301 0.69971895 0.6860878 0.7209674 0.7405174 6.22794e-05 0.07426256 0.5360037 0.51784945 0.6712166 0.6531422 0.65489864 0.64685994 0.7028787 0.73885465 0.7688451 0.59315085 0.2687665 0.59077334 0.6050619 0.599578 0.5405741 0.57117885 0.652633 0.6825347 0.73342294 0.7545018 0.59544706 0.62028205 0.6384351 0.5503216 0.54096496 0.6033435 0.6807357 0.72047687 0.7599541 0.7655591 0.6019577 0.6026137 0.53096604 0.38752347 0.31700554 0.2285068 0.34871894 0.4992466 0.70540315 0.7539959 0.78264236 0.5691289 0.46618575 0.39071316 0.27757645 0.41746157 0.49676347 0.7737092 0.55815303 0.61847305 0.6004151 0.4585241 0.56524396 0.36492524 0.6014545 0.59866124 0.49132377 0.41318512 0.27654815 0.10043036 0.13640705 0.44815496 0.68640506 0.6560993 0.49823678 0.17304772 0.28087664 0.15220827 0.7044195 0.04532996 0.05563741 0.69315046 0.06658338 0.66588193 0.62085223 -0.054781526 0.0997576 0.18673907 0.5188618 0.46096307 -0.08584015 0.122089945 0.23592046 0.66754067 0.68322146 0.5397568 0.4880409 0.6772531 0.69745445 0.70857203 0.50159067 0.44625744 0.10734222 0.7099197 0.50280166 0.6489407 0.7402888 0.7417542 0.42970103 0.65253556 0.77745306 0.5408995 0.54448307 0.51980776 0.76577264 0.5416216 0.5670304 0.49071664 0.40130097 0.36697423 0.74636817 0.5573687 0.5671522 0.113418326 0.6138921 0.6938897 0.7346326 0.7225403 0.5265923 0.5126204 0.50080305 0.34605622 0.2531933 0.17197245 0.139076 0.11330061 0.7248288 0.76482 0.7548671 0.4286493 0.23761626 0.051000237 0.21202807 0.26961794 0.27652264 0.28036958 0.23767665 0.24327728 0.3102029 0.44580007 0.3624491 0.32061666 0.4348341 0.5222207 0.48576313 0.4593855 0.52241063 0.5794599 0.5919808 0.31837782 0.5108001 0.5463257 0.5446657 0.5444615 0.26969618 0.32104224 0.50786287 0.21984665 0.46287587 0.120291576 0.16444889 0.39335227 0.62192357 0.3675661 0.17189622 0.6764947 0.6505965 0.053876087 0.73233485 0.16365208 0.7333315 0.7037292 0.25258496 0.3730643 0.32951367 0.38501918 0.69373244 0.6531849 0.27571744 0.2947424 0.37539294 0.37368673 0.25470176 0.57605565 0.24712442 0.485462 0.569651 0.6393887 0.67544854 0.6858884 0.42823935 0.14692074 0.18294081 0.6987144 0.06357203 0.7004684 0.2313678 0.43667763 0.6898171 0.5208671 0.42464107 0.31590182 0.6023713 0.5260623 0.5272875 0.01193545 -0.15397139 0.2570825 0.17145544 0.6193353 0.6673037 0.50630045 0.49618906 0.3182304 -0.0887802 0.6954971 0.70524746 0.6718708 0.48806256 0.47250825 0.39565685 0.1544094 0.09122429 -0.050281383 0.13139579 0.2039572 0.2336624 0.15056941 0.37738648 0.3966482 0.4164605 0.21610062 0.30803514 0.26569927 0.4234413 0.46401572 0.45507824 0.34759074 0.43529895 0.44187003 0.44023597 0.47496253 0.47538602 0.45385575 0.51617795 0.6032879 0.53247225 0.5694972 0.6350368 0.6332831 0.6082632 0.6323981 0.64092135 0.32127774 0.3275923 0.32086423 0.3768593 0.47533354 0.25861454 0.28647763 0.43885112 0.4395219 0.25438794 0.40628356 0.6082119 0.49516934 0.15690096 0.7000315 0.6401634 0.117643714 0.17229837 0.7529041 0.7265508 0.15381232 0.19420528 0.4720319 0.44965982 0.4467001 0.36943147 0.7515005 0.22468051 0.38262448 0.3411559 0.70873064 0.69260144 0.6383302 0.5888412 0.3741818 0.6230296 0.64178336 0.6500913 0.3679633 0.08271702 0.39683908 0.6463154 0.44465625 0.5997759 0.42486593 -0.24408257 -0.25376412 0.32548678 0.53139126 0.47469366 -0.2842362 -0.26624152 -0.26037776 0.19903912 0.48284888 0.501122 -0.1273371 0.12894727 0.05045859 0.49238718 0.5172277 0.48940158 -0.12676139 -0.12472615 0.045271892 -0.07274586 0.108965896 0.47735208 0.61049545 0.5527108 0.4837544 0.4703021 0.4015311 -0.019670233 0.03322299 0.22748205 0.24908534 0.1956917 0.5391054 0.02657046 0.029417232 0.11374234 0.26769325 0.3513326 0.48269677 0.5281805 0.59908897 0.11607586 0.30269402 0.50709045 0.5485005 0.27000976 0.3666102 0.4573144 0.49217603 0.489908 0.48848957 0.5011786 0.5624243 0.32671338 0.51644456 0.5308194 0.5185353 0.51390433 0.5419384 0.59351563 0.5878316 0.59548306 0.58466256 0.3374328 0.37562433 0.37965873 0.35378277 0.27069587 0.2738967 0.26160175 0.15994164 0.13984066 0.70198846 0.60989684 0.46857873 0.47211564 0.46070135 0.7643649 0.7404512 0.16937825 0.34456587 0.46461278 0.44048798 0.40446258 0.7685205 0.27230713 0.09672482 0.74304926 0.7281623 0.25087303 0.11948677 0.19135566 0.34007844 0.67829704 0.6315694 0.19302103 0.16820745 0.5446557 0.58299977 0.24428898 0.5468701 0.44169694 0.2775936 0.40486628 0.36637852 0.38993904 0.45584148 -0.180875 0.4231521 0.48048258 0.4775317 -0.030851144 0.07852425 0.24361736 0.4694969 0.49253857 0.46954587 0.46846327 0.59266114 0.52196944 0.49654222 0.5640449 0.45378917 0.3503788 0.17186098 0.07669168 0.5147861 0.5369069 0.5503178 0.2486184 0.39513677 0.52527344 0.52645665 0.5141766 0.48904085 0.38895804 0.48282433 0.4720983 0.5027047 0.51514167 0.5268034 0.5110757 0.40705347 0.40402788 0.38174224 0.40623778 0.35103834 0.2708811 0.29238203 0.24817851 0.19557825 0.19194628 0.193951 0.12456358 0.09211621 0.06572399 0.5364656 0.09910182 0.43506998 0.38479537 0.7075881 0.65202034 0.36560923 0.03504709 0.25077933 0.37187603 0.24580425 0.76727974 0.6646875 0.16179729 0.76263964 0.6355381 0.25917274 -0.4174033 0.7337074 0.35756612 -0.12161568 0.33373973 -0.097704455 0.32048374 0.22054628 0.3349982 0.30717215 0.3393666 0.3705837 0.15973382 0.27243927 0.3400597 0.12769842 0.48959374 0.4580425 0.5347247 0.4541301 0.40118057 0.5214697 0.47793669 0.45167008 0.43339965 0.45841604 0.3290635 0.06666854 0.2292723 0.44291264 0.46541145 0.43023443 0.07090504 0.23297799 0.29369783 0.40182722 0.42001566 0.44991776 0.2271536 0.27545005 0.3465744 0.37809741 0.4024827 0.39566308 0.37760204 0.3615505 0.39407068 0.38099068 0.33106223 0.16057241 0.26129806 0.23319066 0.2626434 0.22387521 0.2002384 0.36355597 0.29812703 0.1336865 0.07993044 0.33829656 0.061108984 0.03519392 0.0010140389 0.059473127 0.34129378 0.32707614 0.11938065 -0.1245656 -0.042685613 0.6254417 -0.29967713 -0.46735293 0.18878724 0.23835239 -0.20735292 0.23735279 -0.20585026 -0.17097245 0.13140148 0.25747684 0.024827236 0.24276614 -0.01242961 -0.05843243 0.28824422 0.014563649 0.28115293 0.051792137 -0.22528441 -0.13542496 0.2329748 -0.008212687 0.4959941 0.42678708 0.50324535 0.33926463 0.4972884 0.35486203 0.33172876 0.48042923 0.44282055 0.2680072 0.014653691 0.29319957 0.33471173 0.3517165 0.36144784 0.36707073 0.349918 0.09786303 0.05645493 -0.012250023 0.3644539 0.37319267 0.28286594 0.26622868 0.19838081 0.13859011 0.119078726 0.32709068 0.32577273 0.32965124 0.29149315 0.3269361 0.37349284 0.34674317 0.46768105 0.13518979 0.28237465 0.010055421 0.058693554 0.13749939 0.4697218 0.22304988 0.1378268 0.39915797 0.08891676 0.24149354 0.29546198 0.3625084 0.39143062 0.053177953 0.17537381 0.22395872 0.2950316 0.3741364 0.4936596 0.53817034 0.34596574 -0.16593152 -0.1696778 0.41226265 0.5192119 0.3099808 0.3243931 0.16574141 0.28873748 0.25687075 -0.28199175 0.18236688 -0.24725941 -0.11217938 0.08972451 0.20419368 -0.2572646 0.24508305 0.219477 -0.083757654 0.24012718 0.42777357 -0.011444021 0.43440896 0.20927408 0.4552728 0.35504335 0.2716865 0.21463044 0.30649173 -0.19321805 0.19259223 0.28471267 0.30335355 0.31754678 0.2862831 0.29751754 0.1188785 -0.024369273 0.106841326 0.36316139 0.37053847 0.36771062 0.3432209 0.2889502 0.4397103 0.42586637 0.39595938 0.4898814 0.52580833 0.53651553 0.50324917 0.054005086 0.03686872 -0.052535124 -0.06517353 0.49081635 0.03865099 0.17526174 0.2084087 0.2849657 0.31676126 0.42055544 0.27393138 0.27174956 0.30635956 0.3272465 0.34994423 0.41987714 0.52575016 0.56461364 0.39475772 0.51606756 0.56568944 0.5839169 0.35733852 0.5718603 0.31604925 0.2844288 0.48458305 0.35588205 0.24072495 0.2699492 0.2982537 0.47309625 0.14062712 0.1887348 -0.36491525 0.08313319 0.3451383 -0.33552596 0.04517506 0.060224734 -0.10522164 0.082801335 0.10032775 0.09863022 -0.032474797 -0.0031029936 0.053230394 -0.029638475 0.16833171 0.06412588 0.17864358 0.19135563 0.21721025 0.05438807 -0.17470342 -0.19271326 0.1293968 0.23822302 0.24926496 0.18341176 0.15596281 -0.10027267 -0.124122515 0.29104543 0.31658 0.017422978 0.31998074 0.3775258 0.27413672 0.44187427 0.5280255 0.51107967 0.42833424 0.4070642 0.58552945 0.5374674 0.5104783 0.3619639 -0.073369205 0.13738923 0.17900068 0.1702184 0.20093906 0.5359353 0.54305553 -0.07846306 -0.19378257 0.51476014 -0.18206061 0.029638074 0.32045344 0.35472602 0.35357523 0.33963656 0.33295527 0.34972388 0.362253 0.46167296 0.32409698 0.37121937 0.46591154 0.53887373 0.57816994 0.36602584 0.58928823 0.5921658 0.30738527 0.57076263 0.2782983 0.27014703 0.51023996 0.51091903 0.23318751 0.40555686 0.44465885 0.34294656 0.55543995 0.2544372 0.6146753 0.58107126 0.618144 0.48600006 0.39161205 -0.21536565 0.1860925 -0.07009397 0.069879636 0.14272755 0.21261592 0.15971014 0.18757613 0.09339132 0.08399601 -0.0652539 0.069873825 -0.058638643 0.086321466 -0.0009863228 0.11609647 0.043529004 0.12065513 0.118698575 0.024707805 -0.07024458 -0.0043492764 0.12905492 0.2067362 -0.1094319 -0.07987202 -0.003154397 0.21283472 0.3096491 0.23210984 0.2659133 0.33242255 0.35719392 0.25885463 0.37992316 0.53036845 0.5067759 0.44667956 0.7187237 0.6476464 0.5815171 0.13440165 0.22708231 0.27539816 0.29539388 0.46997982 0.38662285 0.23521762 -0.003984697 0.2101409 0.26976788 0.27587068 0.53501314 0.5327792 0.49910355 0.24864617 0.49047232 0.51066786 0.15075 0.30414522 0.3726483 0.38537773 0.36842078 0.37320316 0.35666886 0.46213293 0.4265845 0.35291904 0.36847627 0.42580107 0.533532 0.5717554 0.33763927 0.59035236 0.592667 0.5722525 0.21498525 0.5396073 0.48634467 0.41118956 0.578159 0.43659744 0.3468994 0.61257994 0.23241656 0.64437824 0.29482317 0.63178235 0.32707947 0.494933 0.24237418 0.31830823 0.12578252 0.15674248 0.16346881 0.1556239 0.13055766 0.096495606 0.08897768 -0.10557192 -0.1740631 -0.031390157 0.036130786 -0.095019914 -0.16697747 0.12701991 0.13809143 0.06284 0.17662457 0.1555488 0.33977258 0.19776377 -0.08690422 -0.10254179 0.3232298 0.39865166 0.39846653 0.24045092 0.30370042 0.2612915 0.38129812 0.42034173 0.5332913 0.55390763 0.4549205 0.61221766 0.736353 0.71735334 0.61135274 0.16071555 0.25594446 0.14776257 0.083164126 0.059158042 0.26455942 0.25698185 0.4926272 0.45300198 0.3570646 0.25890508 0.47017655 0.34267175 0.4194073 0.4154113 0.40301472 0.4163435 0.19769004 0.1873075 0.4212243 0.40600112 0.33730012 0.33280367 0.51724917 0.57243484 0.6150888 0.59961903 0.21089518 0.6022155 0.11723034 0.51999366 0.18775953 0.4625846 0.36834407 0.30877006 0.31244525 0.5845674 0.26106188 0.6136335 0.59825146 0.33608043 0.58085227 0.35596305 0.49234462 0.39946148 0.32935953 0.24124151 0.13150972 0.17336103 0.09757476 0.093721524 0.09585444 0.1038585 0.061073385 0.04444599 -0.087582625 -0.18886097 -0.07043552 -0.26225108 0.037833475 0.13259912 0.154392 0.16957906 0.17793155 0.19017692 -0.21381752 0.11298703 0.29559433 0.2079109 0.28256398 -0.15759273 0.24763879 0.28222072 0.35844326 0.35816762 0.33817276 0.5152252 0.5715886 0.36093056 0.60388607 0.66995376 0.72606766 0.6631992 0.12470561 0.17748958 0.40962303 0.20135048 0.09290646 0.091782585 0.24502292 0.24325877 0.21269004 0.21975237 0.24548405 0.2420206 0.29587638 0.17220172 0.38002825 0.25856918 0.45576805 0.46027392 0.45512995 0.62608385 0.63354015 0.08950431 0.39373505 0.32176182 0.57504475 0.64719987 0.63805294 0.05659821 0.039541665 0.29516116 0.29268593 0.46415022 0.59152985 0.59313214 0.53452635 0.14375739 0.41579187 0.4440853 0.46439895 0.30855384 -0.10464902 0.20640317 0.3424357 0.25232247 0.4542447 0.27879915 0.2910048 0.50813043 0.34969914 0.47275305 0.37363136 0.4261168 0.3933447 0.34101418 0.30922803 0.1344902 0.2026483 -0.03633543 0.07976502 0.08659073 0.06432797 0.06866667 -0.027280089 -0.015862167 -0.24357882 -0.042279094 -0.40872562 -0.15137334 0.037350334 0.06448801 -0.025371276 0.1488474 0.16415021 0.30600843 0.2148554 0.24995485 0.2584799 0.28204763 0.22773898 0.0852219 0.17581578 0.30245724 0.24837233 0.1314437 0.15584877 -0.15638795 0.11044172 0.2850691 0.30367357 0.23532262 0.48794448 0.5350286 0.062122107 0.6033844 0.6382425 0.6286216 0.56575376 0.32146603 0.4976814 0.5130699 0.51140463 0.48483175 0.07278994 0.36385804 0.44520682 0.34987324 0.41063535 0.25909835 0.09262769 0.2939812 0.29876038 0.2126947 0.31877854 0.15323323 0.30411655 0.11016217 0.3276861 -0.29186141 -0.2886525 0.42332643 0.06308015 0.04684721 0.12067498 0.06149897 0.28234515 0.38081187 0.32263172 -0.13485141 -0.026386313 0.27419344 0.30132225 0.42495117 0.3898546 0.3636624 0.43515402 0.38601062 0.3767516 0.41123658 0.3861399 0.32460093 0.12111285 0.2181941 0.37561333 0.112102374 0.44082987 0.056263465 0.08231029 0.4876956 0.059701893 0.5281886 0.4067439 0.5185329 0.44287494 0.25688374 0.17686607 0.22253448 0.3110122 0.2631038 0.24485153 0.3397458 0.2859329 0.28196424 0.34024835 0.32310224 0.24181466 0.2929658 0.28501648 0.23987797 0.18444203 -0.10447271 -0.02940024 0.1042901 0.16971453 0.095707975 0.21066004 -0.013257664 0.092206374 0.12171829 0.033334896 0.13129936 0.055838984 0.119727515 0.20689836 0.049056113 0.27852178 0.3629877 0.37541282 0.3137241 0.44090536 0.45744905 0.49761522 0.55424833 0.59492403 0.62823504 0.62095404 0.4388426 0.47866303 0.55089486 0.55138904 0.44534543 0.27716386 0.34334704 0.36699373 0.34913456 0.16839683 0.37356806 0.09472994 0.36909068 0.076975346 -0.00298094 0.3347432 -0.39629543 -0.3938284 -0.29026195 0.35778356 0.34330764 -0.048835754 0.18012673 -0.038905323 -0.045706794 0.0959776 0.10176863 0.27900118 0.23787344 -0.075293064 0.16068432 0.3441068 0.24065489 -0.15151407 0.13262928 0.28027678 0.35164854 0.32138765 0.31230414 0.0123447105 0.4785899 0.18795107 0.5495607 0.4609869 0.13892826 0.5331472 0.10727931 0.55653846 0.5355369 0.062217936 0.5550166 0.5513656 0.071823984 0.5450002 0.5200751 0.15013522 0.1634962 0.43650407 0.18852004 0.15698296 0.2849364 0.20369795 0.34202713 0.24072331 0.33932513 0.3220444 0.24723735 0.31327462 0.2644949 0.11964248 -0.066881016 0.047200546 0.18603897 0.2774276 -0.053380422 -0.072727606 0.09535635 0.04888396 0.025158964 -0.088131174 0.011924494 0.1584849 0.19936842 0.19003156 0.055438172 0.21294005 0.34419376 0.4686504 0.43549362 0.293595 0.25853568 0.23745334 0.4187398 0.50039107 0.51788586 0.4915166 0.45105207 0.48312384 0.5358423 0.6889316 0.7371866 0.79662037 0.7664474 0.5839704 0.6372391 0.6997029 0.6795865 0.5248486 0.6106322 0.49114734 0.356758 0.365416 0.40191692 0.39649898 0.17180815 0.4049653 0.3684011 0.2961018 -0.32596055 0.28634 0.38569498 0.41306907 0.40200126 0.3983352 0.31535253 0.09068112 0.21828964 0.08111652 0.12652436 0.090048894 0.083399214 0.05211798 0.086137004 0.11774719 -0.24248055 0.1864211 0.011454616 0.1172792 0.044989437 0.036027968 0.25170887 0.5500889 0.30914396 0.611686 0.23075014 0.6184465 0.109099045 0.597846 0.052268725 0.5634148 0.55559003 0.05382894 0.54288685 0.45396996 0.17305133 0.1251471 0.22220504 0.11068453 0.2545606 0.10161016 0.29356426 0.29389307 0.2614392 0.22224309 -0.2628977 0.009897232 0.183965 0.2454572 0.12723865 -0.07946611 0.28729242 0.43453848 0.27432278 -0.083621986 0.025723705 0.22087839 0.38488334 0.447604 0.30341667 0.2640252 -0.015784642 0.057585627 0.35382706 0.36289752 0.36646038 0.19676729 0.15681252 0.47303104 0.3989252 0.36715555 0.42731947 0.4015687 0.35315856 0.19977133 0.17795198 0.40122896 0.46426594 0.52147526 0.51942986 0.42442173 0.49478024 0.5169314 0.47375897 0.40483788 0.43509007 0.48290265 0.72602594 0.8073964 0.891818 0.83741313 0.56610507 0.6326354 0.7803291 0.77282333 0.46053717 0.5454 0.7190514 0.7257761 0.3373218 0.5733297 0.38483348 0.38036668 0.40713224 0.4214718 0.26235202 0.42195216 0.14559312 0.340139 -0.2292398 0.31391525 0.2803829 -0.034042373 0.10631184 0.38928264 0.41164798 0.41491067 0.18306327 0.12787272 0.39800534 -0.1066408 0.27723414 0.17431061 0.20932917 0.2886176 0.018584281 0.7089609 0.21105649 -0.079512805 0.17489266 -0.16009238 -0.145419 0.00037562847 0.21761383 0.22878684 0.4124293 0.31747064 0.2617607 0.61129624 0.57262635 0.21730904 0.62790215 0.5790607 0.12806995 0.59643435 0.56946826 0.03801702 0.5355365 0.047398996 0.14075679 0.4402505 0.30041337 0.23881939 0.116365686 0.17517415 0.04774921 0.21601057 0.24630955 0.18195143 0.21044554 0.17850168 0.4112926 0.44326904 0.13478853 -0.06846215 0.5391372 0.1541307 0.114538446 -0.14843246 0.08457257 0.2981641 0.42029947 0.5323039 0.57942176 0.2570803 0.2608479 0.3054794 0.18259726 0.18745416 0.30234194 0.44281098 0.533712 0.26817614 0.29870635 0.40897608 0.29391178 0.35016614 0.26683024 0.3020027 0.46724808 0.28455442 0.3945187 0.47805688 0.4380526 0.23150635 0.2876263 0.39038336 0.45680323 0.5026387 0.49510074 0.43370008 0.7193533 0.79637694 0.87912595 0.84160787 0.6289162 0.7120323 0.8223671 0.7922736 0.42206228 0.5049066 0.77192783 0.74046755 0.19150408 0.2895551 0.66271526 0.18151167 0.51442826 0.4082067 0.33338085 0.2470153 0.3918742 0.40756807 -0.04166302 0.30256414 0.30002862 -0.20354205 0.032036692 0.26095268 0.30691686 0.18484873 0.12989712 0.30493262 0.3568011 0.3646353 -0.14605145 0.3459346 0.23068962 -0.008247722 0.25606778 0.8305471 0.2988823 0.50248307 0.60688436 0.75601625 0.86032605 0.8590244 0.35399905 0.29912215 0.06937599 0.55740565 0.8828157 0.8521486 0.34631735 -0.040837124 0.31655055 0.5377865 0.74807596 0.810869 0.3056129 -0.12503281 0.35371536 0.40177408 0.463569 0.26422688 -0.28478748 0.32674876 0.02972512 -0.25007206 0.0930309 0.12031984 -0.04679082 -0.16828944 -0.01005695 0.064004734 0.17850462 0.3279943 0.067022175 0.14669248 0.4894302 0.41857287 0.24821708 0.1916956 0.5286765 0.37736678 0.078608066 0.4740646 0.32514182 0.03659885 0.17696041 0.34335524 0.20224789 0.30272198 0.33309656 0.04402223 0.31056973 0.33529058 0.08479706 0.28507292 0.101038896 0.15293536 0.15185878 0.12017539 0.2070618 0.13033116 0.45881575 0.4907086 0.54844564 0.5591307 0.20703164 0.20022014 0.63780487 0.61727494 0.25695753 0.25850815 0.5108483 0.6335386 0.71398973 0.24884678 0.15187886 0.6128696 0.6956017 0.20825386 0.21574357 0.31171894 0.20197262 0.2872247 0.2769469 0.039184723 0.32425696 0.34234303 0.43939728 0.42381743 0.33656377 0.3027541 -0.11115934 0.7596712 0.8195066 0.6447077 0.6896744 0.81830704 0.8051989 0.79058653 0.4456765 0.57862616 0.6851099 0.7698233 0.74261355 0.23392792 0.27154872 0.6453545 0.