# vtk DataFile Version 2.0
Really cool data
ASCII
DATASET POLYDATA
POINTS 10944 float
5.3112903 -6.854214 83.028046
5.3126254 -6.991565 83.62096
5.3458824 -6.927926 84.08888
5.225017 -6.420002 82.8307
5.0929394 -6.391392 83.55201
5.1908813 -6.3816004 84.36365
5.367451 -6.321545 84.98263
5.2830367 -4.9726896 78.41772
5.104 -5.061348 79.49837
5.2147493 -5.1832395 80.314766
5.2030506 -5.5161366 82.67594
5.0104184 -5.468114 83.64008
5.098328 -5.4677052 84.210556
5.317973 -5.6266413 85.0025
5.2010045 -4.377526 78.15056
4.952019 -4.378692 78.66681
4.8405643 -4.3744154 79.31401
5.0040708 -4.5801854 80.27578
5.1182137 -4.9038167 83.5127
5.295444 -4.9749155 84.3816
5.1948743 -3.7509096 78.15485
4.9799767 -3.769228 78.65877
4.8709135 -3.814917 79.4586
5.0978327 -3.8243058 80.43823
5.2038393 -3.1233637 78.69848
5.1553 -3.1646414 79.45245
5.259632 -3.2557836 80.057945
6.108376 -7.6446 83.443634
6.2192254 -7.6776886 84.57836
5.774841 -6.8732386 82.30749
5.7254634 -7.1986456 82.74563
5.6689515 -7.3494453 83.394875
5.7058196 -7.2131405 84.49231
5.7537704 -7.0544252 85.24999
6.080366 -7.049617 85.917656
6.134555 -5.7684712 78.41959
5.902043 -5.9267898 79.695366
5.9046693 -5.697542 80.23614
5.4988203 -6.795789 82.589325
5.6756554 -6.412057 85.585495
5.962239 -6.563629 86.05364
5.894709 -4.9746284 77.92051
5.5012674 -5.282887 78.66915
5.58026 -4.8983107 81.20739
5.690607 -5.589475 85.51758
6.0431075 -5.801999 86.09666
6.287468 -3.9946954 77.10225
5.701446 -4.3322287 77.73523
5.774234 -4.465375 81.66796
5.415264 -4.430621 83.07729
5.4758573 -4.4038734 83.58768
5.6421185 -4.48253 84.41316
6.094843 -4.709792 85.43509
6.291341 -5.040464 85.841545
5.559248 -3.7002008 77.80378
6.010533 -4.0242963 81.68767
6.117437 -4.0319357 82.37423
5.673173 -4.259739 83.60561
6.1086063 -4.0850625 84.497246
6.1561036 -4.134418 84.93969
5.6322308 -2.7258244 78.613655
5.585611 -2.6070914 79.55859
5.438997 -3.1100187 80.12005
5.920184 -3.1337261 80.96725
6.0899734 -2.119593 78.804436
6.1683307 -2.0306156 79.34165
6.2375326 -2.015298 80.13078
7.4096203 -10.261705 77.78043
7.4510226 -10.135374 78.01771
7.471273 -10.045946 78.08601
6.8466954 -7.7710032 83.059654
6.7679768 -7.891769 83.65117
6.7591577 -8.001462 84.61947
6.9420037 -7.864801 85.49502
6.309724 -7.5343738 82.665215
6.6300645 -7.44959 85.98738
6.9939203 -6.865258 86.69742
6.5844774 -5.9898324 78.7635
6.3446636 -5.8188577 80.40162
6.577468 -5.431684 77.83573
6.7777514 -5.601307 86.74304
7.412309 -5.57608 87.85991
6.863179 -4.1653013 76.59387
6.7772703 -4.5251703 86.51035
7.236432 -4.6760106 87.14343
7.2134695 -3.3408537 75.91788
6.5388184 -3.4092174 76.792076
6.7504826 -3.3702955 82.62857
7.1382427 -3.4340706 84.53813
6.544977 -4.0088854 85.317566
6.9596243 -3.8667192 86.161156
6.7684975 -2.9186394 76.727104
6.7526975 -2.4932733 81.59718
7.0023646 -2.9205418 82.37515
6.8671865 -3.3965168 84.241165
6.630707 -2.1102197 77.86575
6.6551332 -1.7907995 78.38759
6.5353518 -1.7213296 79.51423
6.361531 -1.8589656 79.98723
7.1772275 -1.9436725 81.32115
7.071869 -1.4266629 78.911705
6.835814 -1.3962172 79.46705
8.380167 -19.057901 78.099976
8.378216 -19.118044 78.5608
8.359314 -19.040068 79.14014
8.379614 -18.40244 77.92104
8.3109 -18.660425 78.41341
8.393949 -18.490707 79.54899
8.38714 -17.85134 77.947205
8.268999 -17.917814 78.696945
8.371028 -17.357565 79.21509
8.315356 -16.247879 78.762146
8.272724 -16.354185 79.41986
8.421718 -16.531683 80.08153
8.416644 -15.520127 78.7505
8.301308 -15.621775 79.17542
8.480094 -14.525883 79.940575
8.231881 -12.949735 78.218056
8.211953 -12.076075 77.43773
8.062789 -12.204539 79.043915
8.393586 -12.844616 79.88631
8.377008 -12.023386 87.94515
8.307524 -12.070639 88.50835
8.386489 -12.016874 89.10441
7.988915 -11.26144 77.13846
7.705389 -11.209144 77.58978
7.7126207 -11.431037 78.39027
7.917192 -11.378497 79.21056
8.307182 -11.822494 88.00496
8.152334 -11.341291 88.64987
8.256696 -11.328267 89.399055
8.394404 -11.355618 89.79719
7.9069395 -10.35601 76.92787
7.5939794 -10.484382 77.43736
7.509624 -10.72886 78.42644
7.8093843 -10.56197 79.28877
8.279783 -10.722744 87.56418
8.125813 -10.603828 88.5407
8.211469 -10.595069 89.19897
7.9095864 -9.771352 77.0083
7.5711966 -9.748561 77.556786
7.6593237 -9.497801 78.416504
7.9784493 -9.093061 79.80791
8.343816 -9.660285 88.85431
8.350254 -9.714905 89.23474
7.814584 -8.935523 78.66428
7.414953 -7.639939 82.99787
7.950169 -8.335082 84.74892
7.521331 -7.8327665 85.95525
8.272079 -8.283824 87.79192
8.152323 -8.318672 88.66021
8.320809 -8.55106 89.03071
8.337618 -7.954605 78.415436
8.262625 -7.8870516 79.46959
7.7877684 -7.5658584 86.412415
8.087998 -7.368071 87.79051
8.278065 -7.7245574 88.30679
7.9938674 -7.049583 89.774574
7.201364 -5.8991203 78.4966
8.424047 -6.670782 79.43776
7.841495 -6.6788535 88.58454
7.993629 -6.6477804 89.5739
8.138261 -6.5440254 90.033516
8.2943 -4.921199 75.057556
7.8661737 -4.8804636 75.670204
7.768421 -5.182623 76.57432
7.4591594 -5.154361 77.466965
7.7229543 -5.531377 88.267
8.092064 -5.110156 89.069405
8.413718 -5.641438 90.45972
8.049898 -4.0567923 74.90826
7.6522665 -4.11716 75.69234
7.534379 -4.3296103 87.56662
7.8090386 -4.357849 88.62655
8.033547 -4.642379 89.3496
8.358424 -3.970907 92.82865
8.381704 -3.9669044 92.97296
8.352543 -3.1460114 74.226
8.1033945 -3.5800784 74.78525
7.6293926 -3.42837 75.48678
7.9822793 -3.7300956 87.77761
8.176401 -3.9714422 88.80603
8.345617 -3.8052616 89.81032
8.43591 -3.2180862 91.65002
8.263921 -3.412705 92.60349
8.299775 -3.3557343 93.36415
8.370903 -3.1433218 93.772736
7.9706335 -2.8469608 74.77824
7.470568 -2.7431495 75.75915
7.392858 -2.73667 82.79169
7.747284 -2.5865362 83.11506
8.1321945 -2.8139088 84.86751
7.310377 -3.4056013 85.02471
8.287424 -2.535058 92.760506
8.309294 -2.7667353 93.3691
8.40631 -2.793132 93.803055
8.416301 -1.4163418 73.65399
8.227506 -1.3376374 74.149345
7.7976427 -1.6206511 75.69768
7.7030683 -1.6705856 81.40714
7.83657 -1.8559963 82.40014
8.375536 -2.0906816 92.80657
8.241563 -1.1251192 74.733665
7.690137 -1.2802893 77.728035
7.7651234 -1.3271282 78.79811
7.3351274 -1.2850072 79.38184
7.3430567 -1.42003 80.09051
9.384016 -26.352299 87.66692
9.392742 -26.292326 88.119156
9.360777 -25.686111 87.58579
9.353331 -25.469753 88.2548
9.428124 -24.301775 88.07917
9.450902 -24.417048 88.334274
9.456806 -23.973341 88.1311
8.965421 -19.832922 77.94717
8.879621 -19.899366 78.46587
8.983751 -19.976036 79.15669
9.257725 -19.837236 80.21561
9.079063 -19.098701 77.29764
8.759192 -19.364538 77.76967
8.562404 -19.541561 78.418045
8.608404 -19.314766 79.43223
8.943487 -19.34412 80.25071
9.168479 -19.266756 80.86401
8.957861 -18.484457 77.24159
8.598277 -18.574602 77.589584
8.496164 -18.514404 79.46749
8.724772 -18.558304 80.3904
9.101321 -18.606567 81.024345
9.007614 -17.589846 77.2461
8.628686 -17.67161 77.619545
8.572001 -17.731186 79.71686
8.612013 -17.427546 80.34807
9.07528 -17.450462 81.22156
8.788086 -16.630188 77.73414
8.476401 -16.343521 78.3065
8.559604 -16.31649 80.44254
9.0848055 -16.729107 81.24326
8.920398 -15.767099 77.79251
8.58467 -15.769424 78.27838
8.631332 -15.284059 80.38034
9.115911 -15.67375 81.168976
8.6989155 -14.259498 78.60204
8.547052 -14.139187 80.429924
8.895429 -14.212299 81.58816
9.074657 -14.364227 81.99456
8.986682 -12.94527 77.19314
8.49315 -12.9303255 77.8145
8.504742 -13.296026 78.85715
8.503862 -13.933463 79.17433
8.594489 -13.764304 80.52546
8.675889 -13.46817 81.16859
9.02578 -13.640978 81.944664
9.069214 -12.685999 87.58065
8.931955 -12.800379 88.505844
9.012877 -12.710211 89.042435
8.615433 -12.276912 77.070076
8.875999 -12.155256 80.54119
8.998036 -12.746218 81.22761
8.814848 -12.089009 87.22495
8.686151 -12.35345 87.71396
8.599421 -12.449045 88.61219
8.745721 -12.379579 89.3008
8.885946 -12.041352 89.90965
8.699067 -11.404528 76.68373
8.61611 -11.750071 80.35897
9.03044 -11.064955 86.431305
8.491908 -11.616879 89.732735
8.663452 -11.4598255 90.01711
8.759035 -10.455593 76.39041
8.466427 -10.626695 76.5436
8.996092 -10.234353 86.37281
8.505929 -10.264628 89.739075
8.887869 -10.48252 90.25856
8.678972 -9.957108 76.32156
8.671018 -9.532216 76.55875
8.445637 -9.563964 80.44691
9.134785 -9.247273 86.329056
8.613535 -9.569037 89.60844
8.948822 -9.508593 90.0318
7.9413395 -7.5936112 83.131195
8.418443 -7.9247084 83.871796
8.190511 -7.942133 85.92408
8.798615 -8.301841 90.34161
9.016961 -7.943514 90.6496
8.54097 -7.993202 77.55261
9.055881 -7.4946556 81.51656
8.477762 -7.3791857 82.779305
8.6353855 -7.4718633 90.58725
8.87439 -7.3742247 90.68541
9.300863 -5.815309 74.88516
8.643842 -5.874485 77.49884
8.481085 -6.374536 90.50009
9.106741 -6.309699 90.74836
8.8702755 -5.3473997 74.81533
8.711918 -5.586975 75.26165
8.915141 -4.734624 92.37993
9.249281 -4.931632 93.05875
8.819977 -4.3648014 74.08944
8.625307 -4.467581 74.42864
8.650023 -4.155877 91.7963
8.650036 -4.3035803 92.642265
8.8167715 -4.284816 93.43587
9.000456 -4.0335293 93.90668
9.019727 -2.9938564 73.59067
8.445422 -3.4869576 88.30851
8.5640135 -3.4209456 90.65631
8.49869 -3.1512804 91.59681
8.746798 -3.4066103 94.064224
8.931381 -2.2227354 73.086
8.644513 -2.1174798 73.35977
8.534366 -2.8258152 85.1419
9.052679 -2.9894152 86.96051
8.629006 -3.1519713 87.45373
8.838416 -2.649132 89.47395
8.807172 -2.4120345 90.62051
8.532438 -2.6464853 91.218544
8.47728 -2.3276012 93.56236
8.674472 -2.8191683 94.06374
8.75775 -1.4008596 73.0172
8.524997 -1.7561673 73.38916
8.552332 -1.4473917 82.36197
8.7425 -1.7104255 83.15448
8.978265 -2.0440671 90.20601
9.0531025 -1.263835 91.45259
8.497917 -1.9310172 92.48194
8.790186 -1.4571128 93.24863
8.942479 -1.9026695 94.13022
8.918501 -0.78720707 72.99355
8.627331 -0.6801344 73.767586
8.832717 -0.74698734 78.62829
8.703491 -1.0650723 79.25498
8.792536 -1.1197915 80.25652
9.116366 -1.0464925 81.29498
9.205136 -1.030611 82.73271
9.004403 -0.4637316 92.28521
9.155865 -0.5704757 93.318565
9.321739 -1.0780452 94.34319
9.176107 0.46427685 73.00879
9.0056505 0.51623625 73.82264
8.981654 0.75063413 74.11911
8.873131 -0.1888102 76.08758
[...]
POINT_DATA 10944
SCALARS features_00 float 1
LOOKUP_TABLE default
0.5740192 0.5926137 0.606165 0.5583401 0.59961164 0.6144589 0.59597945 0.6116925 0.68557674 0.6162496 0.47932976 0.5605581 0.56435335 0.545501 0.6050445 0.67446923 0.6994852 0.62886286 0.45378396 0.48373222 0.6180153 0.670406 0.66471565 0.5408844 0.61886936 0.5814406 0.5186167 0.5713826 0.580146 0.4946925 0.55014396 0.57850224 0.60185426 0.5912553 0.5508547 0.49032128 0.5778722 0.54633033 0.5406208 0.5630905 0.5296079 0.4871518 0.60845304 0.47014952 0.49317098 0.45176792 0.35955703 0.5077836 0.32033187 0.32354614 0.34849137 0.39529133 0.38824508 0.37850446 0.5490047 0.25727603 0.19199014 0.31099838 0.3139686 0.33622152 0.53556323 0.47318143 0.47996765 0.33193785 0.40360868 0.38824242 0.3589748 0.5156357 0.49553016 0.48713055 0.5119476 0.52994645 0.54041874 0.49202958 0.52796036 0.5006054 0.36130917 0.44157678 0.44517827 0.3765512 0.30815396 0.13784136 0.24546908 0.26284218 0.1880908 0.18033153 0.2910934 0.13939655 0.16958892 0.2998338 0.23363423 0.28339794 0.21617982 0.14099512 0.17020094 0.4197272 0.34939983 0.3430767 0.3489313 0.22433218 0.3030551 0.30657712 0.6720742 0.6548822 0.59700567 0.6226597 0.62670565 0.509477 0.5639117 0.5366028 0.4589135 0.41314733 0.38515204 0.3508536 0.3377505 0.33011937 0.21135157 0.36656064 0.5007096 0.3344559 0.21099585 0.57365537 0.5766779 0.56750166 0.542455 0.53037006 0.47105426 0.3618414 0.57460177 0.54739237 0.52404046 0.50442445 0.5518973 0.5385127 0.4684769 0.3665994 0.5221845 0.46619514 0.45958954 0.5388988 0.51413596 0.44525814 0.34438068 0.32526937 0.35141647 0.41686866 0.4133019 0.43311524 0.41500127 0.08461586 0.2007561 0.23915818 0.34838894 0.22468919 0.3003609 0.044512384 0.14809397 0.30205226 0.2681337 -0.13322084 0.20964584 0.29377463 0.3108414 0.17912501 0.19218361 0.18412404 0.22768386 0.14883976 0.16914427 0.22135113 0.17524494 0.18726462 0.16678949 0.15634622 0.13845134 0.53350866 0.5362866 0.17436196 0.1720374 0.17517073 0.18711619 0.15700294 0.10671607 0.3949744 0.5022259 0.521757 0.5169574 0.18862778 0.17672941 0.10667468 0.082455665 0.06864248 0.18208596 0.45095986 0.4909101 0.49900693 0.26942524 0.26440915 0.263733 0.19309 0.12627561 0.4209658 0.26985937 0.2423651 0.23572214 0.26215196 0.25678355 0.6878692 0.6620872 0.6157592 0.5909078 0.587665 0.5855251 0.5997851 0.7258898 0.7147943 0.67031825 0.5373835 0.68048716 0.6999914 0.6906335 0.5910456 0.50126046 0.408733 0.6220063 0.6430992 0.5193537 0.43690306 0.3720038 0.51709634 0.54597867 0.4382397 0.37817845 0.31074166 0.45454302 0.43878222 0.30990624 0.25641233 0.37913114 0.3827831 0.25645936 0.20211378 0.21341972 0.20100437 0.19058144 0.167279 0.36689353 0.4007256 0.23748106 0.17913455 0.19932474 0.20037168 0.19236474 0.5000628 0.5386789 0.5416905 0.47166526 0.15738858 0.1694051 0.51262504 0.548865 0.56720644 0.5577826 0.5263715 0.505912 0.1733379 0.33624262 0.52523243 0.4889297 0.5059581 0.5338726 0.24878244 0.4086423 0.38075832 0.50390255 0.49620336 0.18288922 0.19514187 0.33738685 0.31170115 0.30513433 0.29163796 0.2812068 0.27558532 0.28293547 0.41985795 -0.3786822 0.024166882 0.31266132 0.31538612 0.14827284 0.048314277 0.31947285 0.3244616 0.1597109 0.1585615 0.4935165 0.5106741 0.15269916 0.16623656 0.4352496 0.5311589 0.5360428 0.53189313 0.15422562 0.19374916 0.16894835 0.381083 0.52393895 0.22569779 0.23915774 0.017246678 0.091719136 0.16526869 0.14521943 0.19799095 0.2857362 0.46242422 0.49780288 0.27403656 0.25992492 0.14287795 0.09909472 0.18612221 0.2993 0.38996196 0.393325 0.42529672 0.29198834 0.28565612 0.014499553 0.082363665 0.08693796 0.10993853 0.13178138 0.39972508 0.3830969 0.35945457 0.34974498 0.3641761 0.40463567 0.28069416 0.43632185 0.3881564 0.4148392 0.47051847 0.5443479 0.56294775 0.5776605 0.64066416 0.64721316 0.60848606 0.67637295 0.7698 0.78795487 0.7590488 0.7693014 0.7504442 0.72063494 0.7392223 0.728176 0.65244216 0.6486926 0.6642794 0.6416941 0.5852072 0.56331235 0.51466835 0.56997335 0.5738222 0.56946445 0.5375972 0.54543865 0.6042881 0.6236381 0.6138985 0.54108256 0.58701426 0.61299956 0.594007 0.55730045 0.5580785 0.73805094 0.73621887 0.66417253 0.49209362 0.39204264 0.70060277 0.72733957 0.33911818 0.5869014 0.2535544 0.46623495 0.21470734 0.3864704 0.37403902 0.17517795 0.1739512 0.22227015 0.115102604 0.09189888 0.20955083 0.13635135 0.104982704 0.14440586 0.17669195 0.15414314 0.11652906 0.36942434 0.4586296 0.489469 0.098799475 0.13847835 0.27879536 0.41896182 0.46225005 0.4239738 0.019315965 -0.0038420334 0.27438444 0.3396991 0.32463568 -0.042294983 -0.01590322 0.23891637 0.2397692 0.35191122 0.26729792 0.39246553 0.15791088 0.13847071 0.2547087 0.22798188 0.39681387 -0.20798877 -0.26779562 0.24113418 0.026190907 0.25405094 -0.2810698 0.15583462 0.3064209 0.14043587 0.14421102 0.1781053 0.11759398 0.08750127 0.5208137 0.51040006 0.45651868 0.17322534 -0.02420272 0.09954582 0.39747554 0.21381544 0.22909158 0.03108245 0.014788043 0.21479134 0.23458269 0.2856093 -0.086909615 0.005741447 0.080578364 0.10289557 0.08804737 0.16544934 0.35391498 0.35943073 0.36688638 0.33067364 0.34323165 0.048474267 0.38489068 0.42862725 0.45919436 0.42308664 0.38657793 0.37974662 0.44364405 0.4832719 0.45125085 0.45374167 0.43241143 0.46022952 0.5175941 0.5901853 0.6626339 0.6827061 0.6174792 0.6754832 0.7039146 0.7099867 0.74309814 0.73934114 0.80122733 0.8042394 0.7631073 0.8608217 0.83536804 0.77758765 0.80493 0.7203804 0.7632278 0.75434947 0.7246815 0.68841684 0.72248703 0.6575406 0.58824635 0.6631324 0.7198966 0.53807926 0.64487153 0.42964897 0.5347246 0.45237672 0.38056776 0.48288327 0.47510552 0.4394375 0.5213175 0.5125723 0.36419863 0.4631588 0.52607864 0.5194088 0.50489426 0.5944729 0.5397821 0.30896118 0.24835481 0.33728823 0.5332049 0.21847758 0.257375 0.1468581 0.31694484 0.07748525 0.032700818 0.29727972 0.30418494 0.37977618 0.16395187 0.08044673 0.08807002 0.23042572 0.27781904 -0.00636621 0.08851633 0.08222926 0.26885748 0.09792167 0.26266852 0.23346566 0.27041343 0.09660223 0.043306008 0.17938995 0.1738714 0.17475289 0.17070636 0.13647969 0.19288895 0.28039065 -0.16344368 0.13848236 0.1549618 0.036715865 -0.2300785 0.18051931 0.11033102 0.10422055 0.05550854 0.19710661 0.31524462 0.116371654 0.063651666 0.36506197 0.20845358 0.20090783 0.09136708 0.39040777 0.45183724 0.289482 0.27600348 0.47907758 0.26261044 0.23572978 0.20533934 0.3536526 0.31919068 0.14848521 0.14130631 0.2942629 0.15382662 0.14320216 -0.22391942 -0.0955785 0.29595214 0.2515879 -0.1173615 -0.07143915 -0.020629145 0.0890699 -0.034130372 -0.025628384 0.13359849 0.36001253 0.33337045 0.35443282 -0.017589927 -0.0053298417 0.06090697 0.3854168 0.3980124 0.3798657 0.37136966 0.31955722 0.37230742 0.43044335 0.3967741 0.39479 0.37160307 0.37438157 0.5386794 0.63863325 0.558908 0.6829878 0.72038317 0.70828253 0.68700653 0.7195103 0.59349835 0.557849 0.66449475 0.6761225 0.6746322 0.632945 0.5378514 0.7563782 0.79528886 0.6974741 0.5872077 0.853899 0.8696356 0.73000634 0.598678 0.8137839 0.8057507 0.6949734 0.6140547 0.66015035 0.6479368 0.6719121 0.7101369 0.62267745 0.67124474 0.58713996 0.497235 0.620347 0.38840926 0.50444067 0.31129807 0.21896106 0.30002004 0.3562957 0.25629264 0.4147771 0.44963872 0.4757261 0.36645752 0.34252253 0.26641917 0.46085462 0.4476 0.25476742 0.40535188 0.21265326 0.31829363 0.18838885 0.33264905 0.38201302 0.20800638 0.28566432 0.23669937 0.23140655 0.2711767 0.27541012 0.065922044 0.36103213 0.41174108 0.13131414 0.38836753 0.44272417 0.45322266 0.4880424 0.2773937 0.03801857 0.117100775 0.26934958 0.37930143 0.4503963 0.5587173 0.64362663 0.050991632 0.19509661 0.22121742 0.38636908 0.46140778 0.68282086 0.7370359 0.10388184 0.090064585 0.059667714 -0.10538508 0.013061568 0.19187531 0.34323806 0.373958 0.64727145 0.7034363 0.003095746 -0.022855729 0.09952813 0.06423652 -0.19113562 -0.078231335 -0.05898574 0.0019520819 0.13437544 0.24742286 0.3551042 0.5257869 -0.049170375 0.07198289 -0.00021341443 -0.023366362 0.032289393 0.23733126 0.3100099 0.022064395 0.041321717 0.20450097 0.28602368 0.088896535 0.20095423 0.2336047 0.019445285 0.15484244 0.20965654 0.024075242 0.044340093 0.03159955 0.013880695 0.49010718 0.4223471 0.077529095 0.088466324 0.016301699 0.51776046 0.3856062 0.044871762 0.43376148 0.3845768 0.34533736 0.3279528 0.41426796 0.4201291 0.38891605 0.36618978 0.29624254 0.41959572 0.41455162 0.39189604 0.2586419 0.23755555 0.20748909 0.3474083 0.34254116 0.35657105 0.12496935 0.29886708 0.2963622 0.29077232 0.27553767 0.1593742 0.0338073 0.13311718 0.1236314 -0.13633662 0.35022196 0.28807387 0.2774961 0.21718365 0.076467834 0.09079176 0.053718183 -0.07608377 0.18337253 0.12928995 -0.009296566 0.41587052 0.38207364 0.13532539 0.120726585 0.1713727 0.22051126 0.20572999 0.17949177 0.32524395 0.3620777 0.27697635 0.2937367 0.36561197 0.420917 0.47406095 0.48604593 0.26472652 0.50398886 0.5346054 0.6683264 0.66888607 0.64390624 0.634498 0.7612269 0.799643 0.7482743 0.7161734 0.7593841 0.728045 0.6721103 0.63696826 0.57579935 0.5729307 0.5950441 0.6109363 0.5937778 0.56327796 0.6708 0.61730844 0.5113779 0.43184948 0.44959295 0.4451809 0.5085739 0.53544307 0.6397337 0.58533335 0.50348145 0.39534235 0.33908546 0.35191315 0.46474853 0.5711832 0.4972278 0.4168833 0.34314948 0.30401194 0.40538278 0.35925773 0.338124 0.54364944 0.42392924 0.41132286 0.4127965 0.34840974 0.33919546 0.612939 0.5842477 0.47435737 0.42376325 0.38180232 0.688064 0.46174228 0.40877485 0.7722757 0.40480283 0.41999498 0.40515655 0.38945264 0.7612108 0.7079102 0.4752684 0.3871694 0.42443502 0.42632067 0.40806955 0.3701716 0.6522026 0.629325 0.5126238 0.39588565 0.41055986 0.39861542 0.52360696 0.41534352 0.58880395 0.5799389 0.46318045 0.256418 0.24285114 0.23535648 0.23853415 0.28459653 0.29628533 0.21431558 0.24114043 0.32522812 0.37597293 0.3636523 0.04632187 0.12310167 0.34140363 0.112538114 0.21835761 0.11688048 0.06660828 0.5240457 0.43577033 0.37370494 0.1700518 0.0057986733 0.029490672 0.19131947 0.5358559 0.45672575 0.3954861 -0.1773525 0.2168553 0.0692353 0.32370713 0.37081426 0.43155292 0.4620312 0.29161137 0.06948185 0.11453131 -0.048742846 -0.0063789487 0.4758626 0.5309499 0.012292339 -0.15816619 -0.06681514 0.6548402 0.73546904 0.08602665 -0.30532438 -0.17888552 -0.056189477 0.75418127 0.17926206 -0.09003153 -0.2669699 -0.12440332 0.7260692 0.7468349 0.16788897 0.5662702 0.6838423 0.23833072 0.21578053 0.47711897 0.2374855 0.324894 0.029974792 0.22352368 0.24679531 0.12961395 0.19959626 -0.118617766 0.039059732 0.5267048 0.49998873 0.44898587 -0.097910985 -0.13779725 0.54563224 0.5400405 0.5024713 0.4110561 0.1566562 0.5314771 0.535961 -0.23707318 0.30958194 0.3321954 0.45904684 -0.2462474 0.25288832 0.33651128 0.3448059 0.37565276 0.34375125 0.3695159 -0.23489302 0.0015680939 0.29487574 0.26410517 0.35141253 0.3210048 0.13171746 0.25978878 0.28428125 0.23494883 0.24182338 0.29206306 0.22000267 0.142271 0.27822545 0.2577615 0.31193495 0.14262946 0.058510005 0.3000964 0.08875932 0.09705447 0.12411139 0.109087445 0.09346504 0.044592693 0.12687647 0.24085858 0.2314891 0.122049764 -0.1804084 0.25715578 0.27119642 0.27304077 0.36151278 0.42479658 0.47783357 0.407618 0.095189884 0.29956397 0.26227888 0.2916495 0.24360569 0.25266296 0.48023498 0.50719005 0.53583765 0.50416327 0.3817761 0.35907814 0.7384378 0.7895366 0.75517166 0.6512986 0.5924136 0.5912692 0.6329733 0.5894285 0.6919855 0.6493317 0.56618977 0.5748767 0.73607826 0.7090283 0.5159803 0.5154682 0.68008196 0.6924569 0.4334256 0.45976225 0.32398838 0.3130449 0.58411324 0.5659156 0.33980563 0.3606549 0.34979284 0.33614138 0.30277836 0.45982704 0.4752425 0.45991707 0.30443636 0.4044441 0.37511158 0.36565506 0.323661 0.4259172 0.38220996 0.3073358 0.26574603 0.43353835 0.13072869 0.33149314 0.22369829 0.2674442 0.2227557 0.2575057 0.3081558 0.15408435 0.6768185 0.2096193 0.27595097 0.29194415 0.26201618 0.23603454 0.36600998 0.37246194 0.3921317 0.32462165 0.27980262 0.6551776 0.59862447 0.28593272 0.24564019 0.23518446 0.34277648 0.41798806 0.3258025 0.25935173 0.58808213 0.49046558 0.3979293 0.3693932 0.29445684 0.21723399 0.19162196 0.34861392 0.39923835 0.38921314 0.39082566 0.35305136 0.24079022 0.25593898 0.29852304 0.35676467 0.32169354 0.2598316 0.21531177 0.3469808 0.43258885 0.1403042 0.15502074 0.2363458 0.33375585 0.41886264 0.5136001 0.16665153 0.17868362 0.21000455 0.29813945 0.34613413 0.43786168 0.16437033 0.1580445 0.17274874 0.19673517 0.26773444 0.101489335 0.08768841 0.047406122 -0.083068386 -0.16604671 -0.035301432 -0.1312426 0.16868356 0.1456781 0.1872563 0.07664214 0.36498627 0.40110508 0.1736337 0.20551875 0.36727637 0.13889678 0.15895188 0.19237071 -0.019381687 0.22746307 0.24365179 0.23683469 0.25200602 0.21479037 0.15241665 0.10541347 0.19851014 0.22006083 0.11093417 0.51307136 0.42349824 0.3350016 0.15648572 -0.06505554 0.10587938 -0.33559623 -0.048136577 0.034440696 0.6073058 0.560238 0.48027506 -0.113887385 -0.38042277 -0.111497484 0.090620786 0.24309991 0.61149186 0.57636774 -0.33606192 -0.12314653 0.3611759 0.3972296 0.5872842 0.54428077 -0.30546048 -0.14791663 -0.14306384 0.5153103 0.12081706 -0.22104461 0.6320315 0.7084145 0.03333453 0.7490638 0.7509463 0.23464106 0.17494658 0.7315843 0.74603033 0.34166452 0.6987612 0.50485694 0.37831223 0.42193884 0.6005934 0.5000922 0.43339926 0.3575837 0.43635142 0.32779026 0.04309863 0.20020655 -0.049301513 0.12505168 0.06144334 0.5289582 0.49906254 0.38097805 -0.19035716 -0.0712665 -0.08170819 0.5370805 0.5365317 0.16570917 -0.39210945 0.4668532 0.6933278 0.78823316 0.53603095 0.23987597 0.22131872 0.28545973 0.24435744 0.10812875 0.20804058 0.5211554 0.6903492 0.8121126 0.48798656 -0.23811972 0.18123397 0.25478896 0.0899169 0.13516742 0.243847 0.49967083 0.6743023 0.72621965 0.74648607 0.33644116 -0.22912309 -0.24179041 0.10876809 0.65657246 0.6881274 0.7122004 0.5086678 0.5879995 0.66850084 0.14127162 0.19147745 0.36920536 0.25223088 0.35162905 0.40464184 0.4853559 0.28575206 0.11788069 0.17217308 0.52613497 0.13143113 -0.19656532 -0.05684937 0.040319927 -0.017224796 0.06610334 0.22201389 0.19759102 0.19051722 0.29642296 0.044512264 0.069362715 0.15605414 0.32066116 0.3869744 0.23263136 0.2510683 0.23920172 0.42851347 0.4036882 0.4009924 0.44721448 0.44838887 0.45245975 0.44555718 0.49454176 0.52310085 0.5213737 0.5160018 0.65631473 0.71521986 0.6723064 0.57903326 0.53833795 0.3650388 0.5178181 0.53087205 0.65476257 0.5693939 0.42210114 0.5556864 0.7132551 0.66963905 0.52772826 0.45376644 0.4657333 0.3642609 0.35584682 0.30488688 0.30128887 0.5323082 0.36687556 0.36113095 0.25841862 0.4292809 0.21659018 0.32620135 0.25763974 0.3081788 0.14301607 0.19770855 0.30859858 0.35168368 0.098310225 0.18304652 0.18441966 0.17477313 0.1151978 0.39298302 0.17094073 0.21096948 0.1266416 0.070478454 0.22576635 0.15475512 0.4763916 0.23532559 0.19650133 0.4496131 0.21818852 0.21024188 0.20893528 0.22220413 0.29907525 0.21043482 0.14913963 0.1827923 0.035632167 0.08786454 0.4379481 0.5249831 0.6544016 0.35386404 0.3104422 0.1815181 0.21021399 0.20385753 0.22742939 -0.012528775 0.0037182942 0.029287986 0.24342945 0.3334169 0.512925 0.6600909 0.69266737 0.11588829 0.08638051 0.09805235 0.12939149 0.05532706 0.10328469 0.58836544 0.6587163 0.033544198 0.046875156 0.13685474 0.15738082 0.5195855 0.58249843 0.09238545 0.15926206 0.16217236 0.14510678 0.20295821 0.3032836 0.46170273 0.14394532 0.1299853 0.13215007 0.18176539 0.16681354 0.02204638 0.012497216 -0.103139296 0.010519505 0.055895284 0.09555594 0.08594394 0.032686558 0.40170836 0.12352357 0.14342447 0.4380842 0.45862627 0.51765984 0.5103596 0.46770275 0.14278996 0.15778835 0.42179072 0.43366355 0.52776647 0.5455938 0.4895106 0.100407496 0.36116278 0.48313367 0.49896976 0.42323124 0.17465816 0.23893656 0.24550001 0.29398242 0.18955238 0.2053114 0.25875604 0.14711924 0.1394647 -0.021734715 0.116041094 0.19799599 -0.25976 0.062009096 0.057900384 0.53205097 0.509982 0.10307094 0.06275594 0.57422614 0.6024995 0.06626716 0.5613641 0.5930383 -0.38474113 0.23326224 0.35482302 0.5391332 0.41256696 0.31754437 0.5454697 0.01869148 0.7191217 0.27108487 0.71743864 0.43405122 0.41002077 0.6410302 0.53583455 0.5828501 0.5357174 0.5038933 0.3241211 0.48080382 0.32275182 0.12906316 -1.996383e-05 0.11757368 0.16438553 -0.23165011 0.09256543 0.135164 0.51313424 0.43277776 0.2533579 0.092974946 0.104169056 -0.26100993 0.060578648 0.043332074 0.540135 0.6558107 0.8139638 0.51944613 -0.39205015 -0.33218312 -0.20219807 -0.0711095 0.01973784 0.061094113 0.14347243 0.031198548 0.0652606 0.08302294 0.13549411 0.20900017 0.55238533 0.7019797 0.8195058 0.8829951 0.520072 -0.1386136 -0.36095458 -0.29037362 -0.072685175 0.098423526 0.21521978 0.16038811 0.14752775 0.05194121 0.10087103 0.8486878 0.88154733 0.45660466 -0.3250799 0.1255161 0.77625674 0.8291762 -0.28100455 0.13356759 0.71987605 -0.6927285 0.56960493 0.6541804 0.67458045 0.093070164 0.09038092 0.3458411 0.13645351 0.42738044 0.1722008 0.53024936 0.4936055 0.35995504 0.3848697 0.060901023 -0.012831137 0.22333592 0.60402817 0.6250262 0.5933254 0.46307698 0.45988375 0.41314366 0.35709652 -0.039845735 -0.10898842 0.18032685 0.1404863 0.48069105 0.4190839 0.37441 0.2986564 -0.0487744 0.05280774 -0.0075402483 0.25786954 0.22864544 0.07531905 0.24416828 0.22149336 0.24260908 0.22388306 0.5265757 0.42473853 0.3140689 0.39083076 0.40989304 0.6113224 0.60024905 0.5845171 0.47523788 0.5144899 0.57484835 0.5794444 0.54999954 0.54065424 0.5855471 0.62458 0.6442144 0.63300467 0.5307846 0.49234444 0.45468065 0.33193678 0.4168464 0.47578514 0.5932719 0.51830685 0.4528036 0.08322819 0.5321967 0.47964907 0.4762597 0.30584848 0.13080224 0.04557415 0.4662909 0.47702858 0.47166002 0.45920616 0.31920472 0.1789419 -0.10287245 0.4150094 0.45561057 0.3338423 0.18472831 0.11326135 0.1600942 -0.022335023 0.3494589 0.2880628 0.17193563 0.28474784 0.24183632 0.17434569 0.023565855 -0.014933199 0.26552522 0.109268166 0.081752375 0.19087966 0.1242277 0.24920459 0.042374343 0.5690899 0.63752955 0.6777073 0.4756353 0.32659036 0.05095712 0.05955856 0.6664392 0.6220308 0.53501153 0.5411631 0.48469174 0.39262566 0.03188041 0.6393315 0.596999 -0.011395037 0.010829456 0.5287884 -0.034353536 0.029396893 0.4794613 0.43133 0.03849846 0.020404922 -0.018439248 0.35184726 0.03999533 0.40838304 0.3617608 0.37963402 0.31263745 0.30267966 0.0997028 0.40981477 0.40635574 0.48167002 0.47007316 0.38598835 0.25700343 0.43605745 0.39130628 0.46724176 0.290191 0.0056435205 0.3444581 0.28386512 0.3794781 0.44385046 0.10582116 -0.007961437 0.18974192 0.17442349 0.19010592 0.035054974 0.02898242 0.12996176 0.10116043 0.11303266 0.020139873 0.015705138 0.054878473 0.40192997 0.05783683 0.5562639 0.057449996 0.08050509 0.5078144 0.49168384 0.10526627 0.42524594 0.21673802 0.2785108 0.13758901 0.21254355 0.4908601 -0.040548153 0.4139546 0.5101367 0.63846546 0.27969232 0.5373422 0.6078328 0.4967978 0.61680657 0.5668215 0.183491 0.46327683 0.540719 0.19619022 0.5253406 0.48002344 0.21962646 0.22250754 0.2582289 0.31196654 0.1990728 0.22704896 0.2705102 0.24653766 0.3006251 0.26018643 0.1806216 0.14445941 0.10957897 0.15430103 0.18932934 -0.028483797 0.0055807694 0.039408416 -0.03639859 0.21770161 0.27320668 0.63456583 0.8394835 0.88403785 0.3148088 0.02270921 0.05351825 0.8948493 0.49048063 0.48685837 0.35849887 -0.1350874 -0.38262445 -0.11972774 -0.5778669 0.89598215 0.47392762 0.4768585 0.4524958 0.22050826 -0.55077815 -0.48948902 -0.5042667 0.82800514 0.43820202 0.22290665 -0.5492022 -0.4866516 0.71913767 0.2839858 0.15935066 0.47906274 0.6046535 0.6525523 0.12303836 0.20077258 0.23101357 0.10544885 0.1092754 0.4216288 0.20762992 0.55769604 0.52465147 0.39851603 0.039701805 0.15472312 0.5189229 0.63924 0.66322434 0.6247437 0.5660683 0.4752388 0.498069 0.16611713 0.15397882 0.64311826 0.6674576 0.5208635 0.50387365 0.4136785 0.3720572 0.32632402 0.28327286 0.12760134 0.16244139 0.1667109 0.19076274 -0.15246147 0.21693635 0.20953324 0.52412796 0.5039574 0.42761356 0.38135576 0