# vtk DataFile Version 2.0
Really cool data
ASCII
DATASET POLYDATA
POINTS 11022 float
-8.703062 31.732975 24.10894
-8.716969 31.66068 24.700697
-8.621174 31.744072 25.351322
-8.578564 32.40811 23.884262
-8.688055 32.492416 24.575983
-8.644751 32.45865 25.16492
-7.7581706 29.24523 24.807919
-7.5999165 29.19723 25.686266
-7.681128 29.680855 23.940794
-8.036789 29.914759 24.268011
-8.047339 29.790789 25.399595
-7.5921893 29.33608 26.441248
-7.638512 29.873272 26.985655
-7.8731055 31.135033 22.876715
-8.095531 30.68131 23.616451
-8.374641 30.62546 24.450144
-8.327999 30.727604 25.264448
-8.031401 30.867933 26.486813
-7.6898293 30.554935 27.156816
-7.758852 32.00469 22.115381
-7.917507 31.7557 22.447716
-8.333476 31.64103 23.312174
-8.504202 31.152216 25.476738
-8.370285 31.81485 25.789246
-7.809958 31.1837 26.815964
-7.776823 32.45165 22.133442
-8.068821 32.553608 22.58695
-8.377247 32.67272 23.575981
-8.475918 32.443336 25.415691
-8.021749 32.376762 25.977337
-7.809892 33.000996 22.278137
-7.8893847 33.453026 22.774681
-8.162632 33.355083 23.654781
-8.330745 33.13 24.478146
-8.23326 33.046017 25.216064
-7.79148 32.922825 25.877605
-7.6999626 33.739006 22.80506
-7.839088 33.760983 23.346333
-7.824205 33.66747 24.381107
-6.9091926 27.968569 25.756824
-6.8269796 27.694202 27.10702
-7.2867556 29.282282 23.878275
-7.08993 28.639282 24.889978
-7.379957 29.13423 26.686007
-7.0122 29.085567 27.870466
-7.054495 29.540565 23.507248
-7.4099526 29.513025 27.138477
-6.7998414 29.415216 28.29199
-7.0764284 31.069857 22.222565
-7.2855825 30.698175 22.771135
-6.6622825 30.160162 28.394869
-7.2736354 31.705345 21.94735
-7.298655 32.421402 21.848604
-7.451431 32.63637 26.40261
-7.3449554 31.897999 26.952702
-7.4431663 33.25029 22.153423
-7.5435143 33.59591 22.424952
-7.677825 33.271133 25.614195
-7.4515405 33.249973 25.823168
-6.844069 32.78822 26.75057
-7.141685 33.77043 22.272385
-7.3366656 33.920403 22.71507
-7.414887 34.09396 23.417217
-7.228964 33.866997 24.471737
-7.356299 33.73235 25.000982
-5.6768174 23.083263 23.792646
-5.7165284 23.08465 24.32022
-5.6874056 23.949768 23.089863
-5.807563 23.629438 23.646393
-5.888992 23.544327 24.393461
-5.730096 23.806686 25.137514
-5.811408 24.386988 23.373095
-5.82845 24.284405 25.214867
-5.7446213 25.078772 23.560076
-5.8515763 25.869732 26.713797
-6.0680943 25.991692 27.463015
-5.857624 25.734093 27.929129
-6.0448084 27.24299 25.489527
-6.198703 26.454346 27.014418
-6.3353477 26.5273 27.35341
-6.0889125 26.503157 28.201889
-5.9483757 27.104465 28.706806
-6.469825 27.626345 25.521248
-6.498916 27.41502 27.44651
-6.3246756 27.746216 28.330923
-5.8998194 27.297186 28.730623
-6.4179945 28.91037 23.839434
-6.6713142 28.385445 24.717905
-6.225541 28.76633 29.070541
-6.573593 29.96195 23.080338
-6.345265 29.30401 29.042568
-5.7996173 29.57985 29.953281
-6.5132923 31.137936 22.164337
-6.536375 30.605341 22.755033
-6.5537825 30.732933 28.185776
-5.657558 30.24623 29.95316
-6.688097 31.770174 21.797749
-5.6115065 31.755299 28.846798
-6.529414 32.439423 21.727003
-6.044285 32.668644 27.535252
-6.1169977 32.387943 28.078314
-6.630948 33.192146 21.922813
-6.460586 32.978916 26.485838
-5.8704977 33.204964 27.544792
-5.5622854 33.489315 28.875074
-6.786284 33.82513 22.27755
-6.6074986 33.99868 22.603188
-6.723747 34.235973 23.305885
-6.1594515 34.169353 24.172543
-6.3251743 33.914513 25.424023
-4.9577675 22.47282 24.102629
-5.0188804 22.923815 23.041487
-5.309646 22.745329 23.73334
-5.3016906 22.741364 24.402214
-5.3208823 22.953842 24.909952
-4.942335 23.953535 22.173698
-5.228573 23.544636 22.694452
-5.5893793 23.259653 23.381168
-5.3670936 23.454012 25.32084
-4.9450684 24.788519 22.120466
-5.395999 24.076763 22.714508
-5.345746 24.616209 25.8505
-5.2026734 25.073513 27.574537
-5.157984 25.29684 28.198122
-4.734806 25.19831 28.839153
-4.8344088 25.24107 22.025421
-5.576919 25.523394 27.730247
-5.458194 25.658178 28.248537
-4.771908 25.355288 28.948433
-4.897549 26.107428 22.286146
-5.4463854 25.939783 24.376297
-5.0447073 26.625452 29.310463
-5.587601 27.899502 24.644274
-5.3950353 27.50112 29.33105
-5.340056 28.439613 29.788021
-5.476039 29.730177 23.339472
-5.3191953 29.571339 30.472132
-5.135853 29.81624 30.717325
-5.6881776 30.782516 22.768456
-5.429893 30.607285 30.40631
-5.0685396 30.300983 30.859222
-5.8174963 31.59614 22.112965
-5.3161826 31.40217 22.551971
-4.993232 31.546078 30.429005
-5.6336527 32.47238 22.027094
-5.157149 31.963074 30.031887
-5.827899 33.151955 22.140564
-5.499151 33.4424 22.549034
-5.427818 33.740517 28.379953
-5.2906513 33.561413 29.252567
-4.908326 33.34015 29.951326
-5.813431 33.82086 22.72053
-5.806997 33.979412 23.373951
-5.4302316 33.783485 24.15863
-5.4525847 33.90948 25.417957
-5.3769646 33.86232 26.348125
-5.1691947 34.353256 28.51395
-5.0176444 34.096325 29.264189
-4.7064695 34.066208 29.822432
-4.726486 34.76387 28.781168
-4.5033913 22.424364 23.89937
-4.748956 22.384436 24.100403
-4.2103186 23.24953 22.02939
-4.663963 22.874052 22.795061
-4.560227 22.552431 23.512022
-4.558786 22.536823 24.581268
-4.607568 22.756413 24.932291
-3.857051 23.962448 21.426807
-4.2273064 23.679682 21.758177
-3.8516643 24.265465 27.68038
-3.8862305 24.147947 28.379784
-3.8974724 24.29046 28.891457
-3.9551864 24.512161 21.364594
-4.4131503 24.165663 21.666187
-4.4458666 24.684212 26.737347
-4.450991 24.624681 27.696274
-4.360951 24.544237 28.574545
-4.0743117 24.73223 29.218386
-3.987772 25.161049 21.492983
-4.466687 25.398026 29.280867
-3.9957492 25.228664 29.653316
-4.36554 26.345497 21.935003
-4.2316184 26.709986 29.72425
-4.1006975 27.072546 22.041733
-4.534796 27.177351 22.441143
-4.280028 27.65134 29.962816
-5.1109776 29.869007 23.262672
-4.360671 29.691727 23.95898
-4.314942 29.504719 30.902264
-4.8054385 30.909203 23.264929
-5.133887 31.330973 22.736546
-4.686395 31.54311 23.304897
-3.7685678 32.03952 34.745926
-3.5881488 32.034153 35.512234
-5.231879 32.64892 22.309286
-4.847735 32.545506 22.892204
-4.507084 32.560787 23.818766
-4.1256156 32.491802 31.089552
-3.6188517 32.252415 33.976097
-3.670347 32.581383 34.696728
-3.6662164 32.38998 35.17769
-5.2539983 33.143597 22.518044
-4.550589 33.475437 30.235655
-3.621526 32.870197 35.017685
-4.7234635 34.01812 24.940367
-4.5634665 34.309574 29.677416
-4.551697 34.109116 29.970108
-4.3237514 35.14752 27.614939
-4.577779 34.936703 28.447678
-4.4520087 34.72444 29.300812
-4.1554704 36.011948 26.59251
-3.9986284 36.479477 27.270525
-3.627058 36.87731 28.063292
-3.6772833 37.274284 26.01691
-3.9311094 37.453926 26.670338
-3.8115056 37.585556 27.275705
-3.761775 37.990707 26.770079
-3.6692858 37.99635 27.217909
-3.3964562 23.182507 21.819727
-3.574809 22.912302 22.400557
-4.0139074 22.518284 23.505743
-3.829253 22.685509 24.661417
-3.8411458 22.759972 24.944086
-2.9302654 23.345871 27.57432
-3.2704325 23.784418 21.386768
-3.3118932 23.500824 21.549013
-3.4666114 23.687199 27.276705
-3.466615 23.950676 28.55598
-3.2084556 24.148464 29.163597
-3.5145893 24.621777 21.30608
-3.4293222 24.471247 29.48328
-3.4366572 24.943401 29.757053
-3.4423945 25.278875 21.381596
-3.3767555 25.425705 29.96647
-3.3252506 26.07775 21.469042
-3.4642613 26.400286 21.639687
-3.1323402 26.360863 30.028156
-3.4581711 27.211485 21.98553
-3.581518 27.289665 30.093027
-3.75137 27.651619 22.415195
-3.2947783 29.658905 24.145067
-3.285774 29.829407 31.171574
-2.7401538 30.251434 34.534924
-2.6200511 30.193623 35.698105
-3.3754005 30.249205 24.498901
-3.4769309 30.557041 31.436749
-3.0463638 30.665514 32.719025
-3.2990847 31.11115 33.43145
-2.982222 30.577736 34.5091
-2.8324404 30.790815 36.08242
-3.3301883 31.70752 32.231464
-3.2951736 31.432795 33.503963
-3.4120555 31.631804 35.555336
-3.0960596 31.582355 36.086105
-3.3997521 32.38874 33.651566
-3.5124462 32.542595 35.44916
-3.1771104 32.39771 35.98331
-3.9486027 33.044697 24.683737
-2.8477037 33.411613 32.078392
-2.7345505 33.492336 33.709187
-3.338469 33.19783 34.588253
-3.298326 33.095463 35.293648
-2.9793882 32.976635 35.91582
-3.375035 34.296116 25.133375
-3.7088704 33.92829 30.620949
-2.9496837 33.70895 34.283924
-3.1590147 36.04847 28.718287
-3.0978801 37.119713 25.365046
-3.571621 37.604492 25.941736
-3.2650857 37.509026 28.297304
-2.6537585 36.975334 29.117935
-3.179976 38.046516 25.87497
-3.4793413 38.452637 26.88425
-3.3442748 38.4139 27.38272
-2.9799466 38.351387 28.033485
-2.781472 38.893597 26.71494
-2.9925437 38.84098 27.155222
-2.759658 23.166523 21.935625
-2.719162 23.104784 22.280396
-2.795685 23.238504 25.929737
-2.487846 22.92493 26.679209
-2.0384574 22.861544 27.412804
-2.5345445 23.206825 28.018068
-2.7290766 23.649727 21.608196
-2.7618146 24.29081 29.470493
-2.5266612 24.518787 21.399862
-2.4021614 24.43718 29.591505
-2.5890045 24.881466 29.8666
-2.9835658 25.306293 21.360655
-2.5813277 26.258188 21.641699
-2.8724966 26.634975 30.03999
-2.5845456 27.342194 22.128666
-2.474994 27.625359 30.144064
-2.3659449 28.170061 22.835018
-2.6427014 28.548733 30.46921
-2.317486 29.306236 23.371798
-2.5035086 29.328856 23.612698
-2.2693045 30.002024 33.442844
-1.8287779 29.925741 34.473385
-2.287892 29.924362 35.52492
-2.1406288 30.043976 36.44384
-1.7707449 29.896105 36.856102
-2.473911 30.71055 36.57605
-1.8311298 30.796446 37.36438
-2.3753245 31.762604 24.906624
-2.217191 31.496248 37.062183
-2.5810757 32.247948 36.480732
-1.998894 32.32723 37.072105
-2.648076 33.782253 24.960106
-2.5525582 33.62524 35.646477
-2.2704322 33.328224 36.117115
-1.8259796 32.82721 36.891438
-2.2288938 34.5095 30.23261
-2.109479 34.29927 30.797974
-2.282182 33.73126 32.528385
-2.4764593 33.81693 33.870186
-2.3957338 34.026646 34.683502
-2.325709 33.912754 35.331825
-2.312978 33.730373 35.79722
-2.5491343 35.24291 29.233189
-2.508921 36.644215 25.009626
-2.3913572 36.567924 29.362608
-2.2270358 37.5581 25.17929
-2.4534817 37.420685 29.270563
-1.7864871 37.628387 29.771568
-2.0620553 38.00927 25.201132
-2.3904138 38.439175 25.69693
-2.1424572 38.362663 29.147947
-2.3834333 39.317635 27.38699
-2.1260147 39.442196 28.081554
[...]
POINT_DATA 11022
SCALARS features_00 float 1
LOOKUP_TABLE default
0.6811515 0.6240326 0.552693 0.718434 0.6518972 0.5857463 0.45173457 0.4000636 0.5122968 0.5413451 0.47234672 0.35838524 0.34372747 0.69378555 0.62482685 0.6030906 0.52533984 0.41558942 0.33378944 0.8026233 0.77291787 0.7284812 0.5195379 0.49805313 0.37485033 0.80423784 0.7709949 0.7390417 0.5497801 0.45679256 0.7887801 0.7642487 0.7329308 0.66548026 0.56988823 0.4561184 0.770028 0.7473512 0.6725594 0.3139432 0.32544672 0.46432152 0.36944288 0.32783994 0.25973383 0.4967035 0.31485015 0.2445916 0.7191524 0.6455146 0.23794582 0.79956675 0.8290124 0.3554321 0.2878434 0.80240893 0.79042256 0.48139247 0.4363284 0.24785973 0.8068694 0.7849812 0.75571895 0.65041274 0.5525107 0.7102922 0.70521903 0.6598329 0.6924697 0.6933266 0.5918942 0.6320361 0.49543726 0.58647346 0.2140879 0.29495406 0.30758274 0.17592995 0.29487038 0.3229132 0.34607267 0.35186258 0.25742063 0.3263736 0.31665003 0.34586084 0.40625465 0.32352304 0.22667652 0.53495896 0.20806019 0.21929288 0.6982468 0.59728825 0.22590448 0.23890838 0.81852484 0.18381071 0.89333427 0.11035985 0.1088914 0.87078285 0.26620808 0.12765801 0.19739535 0.8316382 0.82981867 0.7877446 0.66164565 0.45554626 0.6846084 0.69759953 0.7059729 0.68973947 0.65624934 0.6347331 0.6717459 0.7020641 0.57041276 0.5835092 0.6427292 0.22142726 0.24410054 0.3088177 0.3563639 0.55072904 0.27837506 0.32158834 0.3634618 0.49532926 0.36825386 0.3784026 0.16969517 0.32904583 0.24962509 0.38871452 0.24090475 0.2554087 0.52061045 0.25927207 0.27637017 0.69956076 0.5824051 0.22596735 0.8030746 0.21581444 0.87001085 0.80761516 0.18278816 0.21399716 0.22703612 0.82829845 0.7507793 0.5985702 0.45839134 0.23360986 0.18702985 0.21287823 0.22512884 0.19789669 0.66254574 0.6728481 0.62617844 0.68683493 0.6843228 0.62205327 0.58436775 0.58695495 0.61401 0.2948127 0.3416828 0.37081867 0.5678089 0.60375184 0.18071672 0.27588314 0.34560478 0.39040715 0.52388465 0.3929597 0.41714194 0.4550423 0.37351066 0.3892262 0.3862003 0.26386428 0.31174517 -0.0846851 0.20466143 0.37375218 0.542521 0.46935886 0.5569769 0.58114284 0.7315313 0.61663866 0.4926683 0.16002549 0.56534475 0.5832242 0.58447504 0.75614274 0.2298758 0.58930445 0.41807258 0.21341366 0.22112551 0.1097619 0.17902033 0.20133945 0.3630451 0.37460363 0.31382498 0.54802066 0.50642 0.4536785 0.4962637 0.45707715 0.556378 0.5698019 0.6373874 0.4854057 0.4489014 0.25534678 0.55931216 0.5613512 0.25309116 0.34906578 0.37829924 0.5414916 0.39877704 0.41345438 0.48749858 0.41296688 0.41684812 0.401581 0.3345809 0.32823992 0.24660647 0.27419984 -0.13205521 0.103176266 0.41934 0.46904826 -0.1420349 0.16964085 0.21895649 0.40989313 0.48776385 0.56459737 0.18427926 0.45160434 0.58146346 0.5947993 0.544274 0.58992624 0.5799339 0.1291109 -0.031927504 0.44430298 0.5821647 0.58816576 0.5658003 -0.15583812 0.15464473 0.53476566 0.123406336 0.5020146 0.54672915 0.32297683 0.18622443 0.5494215 0.46965012 0.4142606 0.33384845 0.40858862 0.38489538 0.4614119 0.41768628 0.08110875 0.12673357 0.15853325 0.2663269 0.5067842 0.380225 0.48089615 0.36785704 0.38244188 0.45127746 0.34827393 0.2748224 0.22780678 0.0921812 0.0776008 0.000927262 -0.011518985 -0.035245474 0.30715513 0.26299334 0.38763905 0.42114598 0.3443561 0.5151702 0.42441007 -0.12890427 0.51248753 0.5453875 0.47377998 -0.30180433 0.53696775 0.5011734 0.44840237 -0.11671919 -0.19530317 -0.016507767 0.41446832 0.5081365 0.5130958 0.50344485 -0.04672779 0.31578723 0.09822298 0.36740816 0.19245456 0.10122063 0.37397793 0.5079408 0.1779839 0.22014585 0.17194529 0.18672927 0.71976507 0.5390284 0.20874795 0.07498837 0.7069364 0.6822283 0.5841018 0.6762212 0.6210227 0.5397092 0.3834723 0.24389465 0.36933345 0.37592924 0.04692752 0.10033347 0.27564093 0.21826524 0.36541456 0.28396356 0.20886931 0.24294439 0.21672949 0.11213915 0.18173367 -0.046659242 0.2509731 0.3006743 0.036024373 -0.15472496 0.15775748 0.15041989 0.23113325 0.24040127 0.27678466 0.032871965 -0.2463952 0.12273822 0.15389937 0.21460506 0.23239934 0.026626628 -0.03503382 0.23540294 0.28660497 0.40650535 0.53228676 0.40414196 0.35696286 0.5866988 0.5840705 0.38266003 0.42741722 0.41726214 0.5314108 0.52963704 0.19673452 -0.31220496 -0.16257787 0.37635761 0.39796636 0.39839524 0.019686878 -0.27925935 -0.16655526 0.21229312 0.23019987 0.108092934 0.09483379 0.036572628 0.020343006 0.09774385 0.08184323 0.042981762 0.027433716 0.72978514 0.6976936 0.050177198 0.04761137 0.73334324 0.71906567 0.1332081 0.04583644 0.02866647 0.04128429 0.70445323 0.66599154 0.5645871 0.51329505 0.29114544 0.17059797 0.7134297 0.6116854 0.57065815 0.47810018 0.36515564 0.72141457 0.75110996 0.75891775 0.70007277 0.7500848 0.81303877 0.8310555 0.7215475 0.80389285 0.83763766 0.8060726 0.67690575 0.73753417 0.66594404 0.36389434 0.08660698 0.34028715 0.38796532 0.4048363 0.51456505 0.4901883 0.3979219 0.25708643 0.119733155 0.20943007 0.370885 0.3868488 0.38232934 0.44534087 0.29853833 0.27578214 0.17313111 0.16341539 0.09333573 0.37539628 0.29240474 0.35708854 -0.051489107 0.20584868 0.2531232 0.32397398 0.33213225 0.31494117 -0.052083008 -0.30749932 -0.34159997 -0.010720804 -0.013198867 0.077575296 0.17881702 0.029178537 -0.030142859 -0.27829823 -0.15087372 -0.08892173 0.12364632 -0.020514049 0.19884793 0.42917603 0.51376283 0.33483258 0.51497054 0.5895227 0.5380619 0.47309226 0.2851653 0.5370578 0.5791587 0.27943027 0.5860383 0.53418803 0.2288099 0.25166133 0.33432317 0.1941412 0.084004566 0.07311736 0.059321262 0.5867807 0.6293675 0.2952717 0.14646734 0.44306785 0.58458483 0.63551885 0.53127193 0.46844977 0.05145309 0.47951013 0.58867884 0.62744164 0.63269335 0.054608103 0.048659235 0.34500074 0.5224396 0.7196901 0.029778097 0.054573037 0.083016336 0.64701915 0.114595145 0.037351944 0.088451594 0.68279684 0.6800077 0.6551783 0.57956034 0.51387763 0.43207645 0.31561893 0.2356121 0.6529149 0.70237327 0.6490994 0.6330876 0.49866086 0.42874044 0.33407778 0.6103249 0.6806517 0.6360196 0.5829721 0.615744 0.74369335 0.5049345 0.70519936 0.675866 0.5412305 0.45899624 0.33408457 0.4709919 0.44461074 0.48131102 0.4655874 0.46752402 0.44113135 0.40053177 0.3504307 0.38505813 0.37719205 0.4032218 0.56847715 0.5353726 0.43138647 0.2811003 0.0712703 0.40515566 0.36091673 0.5530924 0.53759897 0.16986938 0.10283038 0.3447765 0.48909655 0.5259861 0.27290535 0.41756374 0.43958724 0.44080466 0.3768704 0.2242972 0.3692455 0.43104884 0.44739574 0.44339672 0.26246548 0.1948052 0.2057547 0.29300353 0.3515686 0.4349394 0.45998055 0.45340392 0.105080076 0.17662793 0.24960813 0.31363457 0.43322152 0.47210294 -0.019861437 0.07984747 0.20944886 0.2454525 0.44174308 0.41667718 0.1602128 0.26419744 -0.20129243 -0.07593101 -0.18615408 0.2744563 0.4520598 -0.23611498 0.40556598 0.5631035 0.5934961 0.40083155 0.6019901 0.6220623 0.43644023 0.5640593 0.61101574 0.62558025 0.5543887 0.1819551 0.3716182 0.46579665 0.5497974 0.08129539 0.47833294 0.43584234 0.2971523 -0.018570557 0.23405513 -0.12372823 0.43399763 0.632028 0.24040782 -0.113271095 0.65453243 0.64659846 0.6322554 0.55450964 0.5230802 0.3715007 0.60575676 0.65006375 0.6080901 0.58314174 0.5214355 0.6259297 0.19097374 0.4417521 0.552608 0.44108123 0.6685344 0.24951284 0.6494465 0.1240651 0.22168776 0.34480456 0.37805378 0.5949907 0.6169144 0.60422146 0.5441177 0.45479792 0.22526285 0.40086418 0.41677168 0.5640308 0.07071916 0.24672577 0.359326 0.4188671 0.41875765 0.5479092 0.57830536 0.41771567 0.4247222 0.4635624 0.5167145 0.4888456 0.41805518 0.30835864 0.12049043 0.5662775 0.26227963 0.4080913 0.4575233 0.5465872 0.32935822 0.5046828 0.5704469 0.35939652 0.26726457 0.16897653 0.35922748 0.24286969 0.24832737 0.24591292 0.23962057 0.53905517 0.5555693 0.541031 0.5251919 0.52450085 0.49137956 0.47473437 0.45982122 0.4614845 0.41973734 0.4282146 0.29046303 0.27182153 0.583385 0.5859299 0.40817693 0.37629402 0.065302104 0.18227094 0.2813353 0.4384699 0.54805756 0.5713457 0.19903494 0.36581698 0.3950286 0.43195343 0.43379292 0.5228617 0.21032195 0.35682026 0.40709817 0.43461198 0.43424574 0.4106176 0.37485415 0.20283051 0.19681796 0.24069983 0.39291316 0.42815256 0.4062433 0.30020544 0.27690354 0.20042786 0.20169723 0.24806885 0.43253165 0.40845686 0.17590438 0.1774582 0.1823587 0.43611532 0.1003657 0.13709314 0.15963827 0.37874183 0.2926994 -0.030173969 0.065072626 0.31836438 -0.046613805 -0.39521778 -0.57337344 -0.017585795 -0.13088904 -0.4399988 -0.34614584 0.5092822 -0.08686396 0.5904598 0.2987859 0.62209994 0.3599733 0.60644466 0.61880606 0.37541896 0.087952025 0.19560724 0.32522094 0.5093295 0.55762404 0.4468199 -0.12942056 0.0617693 0.44128105 0.36442724 0.42304498 0.64425546 0.65467054 0.65150183 -0.46284112 0.57464325 0.6069566 0.63677037 0.65688473 0.6137513 0.4512896 -0.27368093 0.64929736 0.63795865 0.60162723 0.6344379 0.50826263 0.42380446 0.63458455 0.6338229 0.58935016 0.6040979 0.40177888 0.34317976 0.3292079 0.5985172 0.4131807 0.58927983 0.5435699 0.33544713 0.2661559 0.46623456 0.26834306 0.29774624 0.2549945 0.336846 0.49621528 0.35911804 0.24782594 0.4524782 0.5282781 0.41224438 0.18516508 0.23268592 0.4099931 0.43941754 0.47599775 0.051944923 0.42977363 0.39382 0.35470232 0.48966873 0.4920197 0.3479457 0.2400888 0.1068108 0.027040532 0.057547625 0.33260456 0.4155265 0.41923082 0.48518717 0.4251838 0.46146905 0.07274975 0.45368418 0.2925352 0.41719544 0.19533376 0.23190455 0.3542639 0.39488947 0.21713357 0.21274583 0.2881173 0.31951064 0.33821958 0.2183989 0.18830125 0.20374279 0.24524847 0.61860204 0.60740685 0.5736532 0.5817419 0.61602545 0.6622101 0.6148925 0.577747 0.6919533 0.6819311 0.69059265 0.5994209 0.5901966 0.65567523 0.6359402 0.64707255 0.6045166 0.5951816 0.5265179 0.5119378 0.5468253 0.5473314 0.4856496 0.46183896 0.50076663 0.47845268 0.4345026 0.4439963 0.3172793 0.21321763 0.31950966 0.15665725 0.1555887 0.4443611 0.47573927 0.5857315 0.57339126 0.42198676 0.055678412 0.06910956 0.382578 0.44068962 0.47215056 0.46735546 0.57358444 0.55777085 0.14918631 0.2592459 0.4193842 0.41668493 0.5009304 0.5537816 0.10613862 0.1855897 0.37670493 0.3483712 0.4205369 0.1483071 0.14374422 0.37731186 0.34745088 0.25960556 0.18297921 0.16842441 0.3636834 0.3546548 0.1956428 0.12622347 0.11942653 0.30025768 0.37120736 0.07105394 0.05655746 0.09108625 0.25527844 0.030221071 -0.16533713 -0.06691532 8.893665e-05 0.28805923 0.2481331 0.01738359 -0.5193156 0.023459509 0.017161682 0.541471 0.5817017 0.23184356 0.5668182 0.5721569 0.27123383 -0.18801144 0.0118921995 0.3846858 0.4487644 0.55513054 0.26329517 -0.26482272 -0.15681706 -0.39427862 0.67161286 0.68182886 0.6961944 -0.00044028647 0.07238722 0.14153123 0.37507236 0.65272945 0.6631094 0.6692077 0.5365977 0.5201343 0.20331901 0.12510793 0.44959334 0.5793563 0.62820804 0.45102328 0.41271943 0.21544082 0.23514587 0.6169915 0.52553296 0.40017897 0.34733924 0.34642813 0.2503014 0.60929984 0.47758934 0.28804785 0.3314634 0.21694356 0.4291307 0.5261901 0.29716122 0.23252231 0.24526164 0.26581535 0.30894852 0.4186174 0.40077424 0.17429024 0.318155 0.0999729 0.21242955 0.27320993 0.3724603 0.341059 0.3360499 0.3716089 0.34356695 0.3712476 0.4288615 0.3999579 0.24942261 0.36981955 0.37148887 0.42135966 0.4129628 0.53351915 0.44298726 0.06557828 0.006500963 -0.045165733 0.27651018 0.3003128 0.3585813 0.5932256 0.28308418 0.3587243 0.3480053 0.58568823 0.7027197 0.7439444 0.1687765 0.14765577 0.17186873 0.20350976 0.28160992 0.3349548 0.664407 0.7672956 0.8552896 0.8427487 -0.022010773 0.10219967 0.15783997 0.22265267 0.3049791 0.7168586 0.8455785 0.9038856 0.8963057 0.24940509 0.4224417 0.3413748 0.38071957 0.3697721 0.51899844 0.59592706 0.48801553 0.5140664 0.5533658 0.5247033 0.45679104 0.53001654 0.54675996 0.542772 0.5091902 0.55010176 0.50674915 0.5164407 0.56236553 0.5593734 0.6316057 0.8035282 0.88017523 0.6450373 0.6672452 0.7998291 0.8871583 0.9211364 0.6879019 0.8533031 0.46109438 0.45906776 0.4739794 0.35762918 0.4345008 0.3729468 0.4390185 0.4330817 0.4160819 0.41359767 0.2195874 0.3814929 0.41642737 0.12637116 0.22966766 0.3465712 0.41839442 0.46247947 0.4566042 0.2460176 0.4627119 0.40063423 0.5570049 0.5159438 0.3925444 -0.13473722 -0.018358052 0.14893684 -0.10563177 0.36704087 0.5348607 -0.16445261 0.13277522 0.14176208 0.0032123392 0.3254794 0.28053755 0.010567794 0.024009455 0.32287133 0.27407333 0.24060762 0.104173966 0.32786903 0.1921669 0.12524039 0.09963167 0.03997735 0.3264171 0.075429335 0.003284812 -0.035665646 0.008612439 0.21697693 0.13741454 0.17919505 -0.599819 -0.23817524 -0.08913301 0.0038622525 0.34072158 -0.025448577 0.40975484 -0.066114604 0.5039783 0.011740223 0.50923914 0.51695675 0.08840908 -0.2298385 0.1657038 0.2670879 0.44678774 0.034876086 -0.44618106 0.67342675 0.69941396 0.71498215 0.67724645 0.13606706 0.08043429 0.16346264 0.64828974 0.45891047 0.31915307 0.21498218 0.16686743 0.38143706 0.6018678 0.37734175 0.31305647 0.30222493 0.25203624 0.25761 0.53835297 0.5750427 0.3534361 0.3719107 0.24875306 0.53962266 0.43306756 0.38805574 0.35867038 0.16488576 0.36073643 0.13549122 0.28286552 0.3693133 0.49897352 0.3981583 0.37989098 0.32242337 0.19780234 0.20812576 -0.051635686 0.2076 0.2994863 0.25915855 0.17886974 0.3349657 0.20274937 0.3136326 0.44463873 0.41049027 0.38901752 0.28288114 0.23675811 0.34538576 0.24511357 0.33789402 0.56984806 0.58160603 0.5364851 0.08494364 -0.12993306 -0.10243188 0.23390377 0.7028848 0.7189036 0.6855887 0.65576303 0.54710555 0.46877712 0.20258379 0.15872294 0.18795042 0.029893577 0.2682072 0.27863482 0.7210702 0.70258427 0.6652416 0.5890136 0.21724801 0.31478533 0.4058499 0.4002964 0.32141736 0.29486993 0.69669205 0.6755 0.40325987 0.4655824 0.66009414 0.3699173 0.3287292 0.50746256 0.6255484 0.77583325 -0.095076725 0.06097708 0.14463799 0.21543151 0.7391093 0.8596667 0.9225967 0.8612132 0.4434509 0.15371345 0.080830626 0.05280509 0.80144143 0.91142833 0.9320165 0.8909891 0.46095273 0.2708739 0.14335266 -0.016148075 0.45339248 0.16562353 0.4508941 0.33087534 0.38622642 0.46890432 0.47200987 0.23398384 0.49615422 0.43721908 0.4846836 0.4602954 0.49151748 0.4994099 0.5399268 0.5307248 0.4699802 0.44168824 0.7435577 0.7742817 0.57691216 0.5708381 0.5959854 0.91583866 0.65454817 0.65433556 0.93570006 0.67646176 0.6869273 0.7250799 0.7963407 0.8528391 0.8736224 0.7286358 0.740739 0.78075254 0.8266735 0.30278745 0.37564927 0.28870526 0.29310602 0.2870803 0.2684699 0.068459705 -0.0753323 0.0022806078 -0.026545502 -0.119596004 0.1575155 0.17633452 0.20982525 0.31487072 0.40665448 0.08978535 -0.14181371 -0.14296933 -0.008167647 0.11700603 0.43083328 0.4059221 -0.23144619 -0.07238161 0.03149697 0.022608042 -0.025235603 -0.10623065 -0.010265462 0.13949925 0.37695986 -0.39263803 0.11092347 0.12058225 0.09724757 -0.12210235 -0.124653414 0.33632892 0.30128384 0.16311847 -0.004864052 -0.28136933 0.14671168 0.14846684 -0.25153136 0.22197999 0.4719009 0.5495232 0.42407283 -0.013262533 0.055021107 0.10947969 0.04406616 -0.117560625 0.66532135 0.70220816 0.79832065 0.17296395 -0.14806424 0.011355154 0.0024302863 -0.23435843 -0.23530488 0.26106182 0.79246885 0.86577284 0.87728006 -0.13611205 -0.17624265 -0.05724308 -0.10640352 0.15262008 0.09446657 0.6254245 0.70256853 0.79430604 0.8442081 0.49879366 0.47118378 -0.17553195 -0.027590841 0.6881298 0.76064956 0.7902477 0.45223624 0.42240864 -0.25312495 -0.15349208 -0.0423246 0.38501775 -0.1252608 -0.5298512 -0.06627073 -0.13003725 0.22797972 -0.115072936 0.38095635 -0.36618593 -0.34460527 0.3512304 0.18918145 0.0836969 -0.42598438 -0.11101765 0.31682977 0.24614301 0.19165766 0.057177458 -0.26962912 -0.4269839 -0.26203352 0.32557502 0.2762912 -0.0452555 -0.090946406 -0.24532647 0.5437041 0.5456373 0.66391385 0.65756434 0.5837583 0.040062793 -0.07850358 0.5200543 0.55269647 -0.099160254 0.11975771 0.15289299 0.40595394 0.20343927 0.021261841 0.1152167 0.13405201 0.19523068 -0.15058717 -0.05961494 0.4664694 0.36685163 0.36088338 0.100067995 0.19120151 0.43026903 0.33237416 0.2867284 -0.16714501 0.25748217 0.13072911 -0.048483945 0.055400122 0.20298381 0.048377655 -0.034467287 0.2640064 0.2639786 0.25235388 0.16931936 0.46316096 0.4126361 0.2470862 0.038094535 -0.00061957166 0.6180713 -0.17398559 0.2760931 0.16362937 0.15250152 0.7050011 0.38021472 0.076443136 0.38220516 0.17500813 0.7307786 0.42236793 0.21011832 0.19959496 0.4136355 0.11677335 0.690441 0.6523518 0.62977195 0.3508869 0.36817914 0.33901355 0.05555663 0.55534166 0.62407017 0.5873413 0.63366944 0.7125446 0.7631889 0.38214085 -0.0013292059 0.7156825 0.80143 0.9420067 0.91248536 0.83677846 0.42025888 0.008947022 0.024630055 0.4370854 0.06424536 0.10129599 0.116090894 0.124084 0.22693035 0.37175077 0.24130915 0.23667932 0.3668314 0.27730703 0.4194128 0.4238017 0.3826142 0.4728017 0.50566554 0.38721544 0.53841084 0.55086935 0.5980008 0.60004175 0.673794 0.48941475 0.56024647 0.37477568 0.651803 0.47302228 0.690059 0.7891424 0.82376003 0.82001334 0.63677573 0.8542938 0.6775913 0.8581693 0.71327883 0.73944795 0.7337383 0.77360374 0.8146919 0.3554096 0.20989624 0.3595147 0.3405379 0.43672588 0.41033265 0.3536598 0.24974799 0.077431306 0.026213411 0.11821316 0.32604942 0.34731033 0.2728742 0.27856886 0.33274794 0.3966313 0.44381535 0.4718055 0.4273756 0.27861443 0.02909125 -0.029315494 0.18498462 0.21189329 0.31254068 0.39320612 0.47765324 -0.041167207 0.023557425 0.07378683 0.06242597 0.5203174 0.3618586 -0.14564705 -0.12546471 0.05557177 0.32386422 0.475572 0.38590765 -0.15566587 -0.2330373 -0.24384779 0.31958008 0.18936317 0.2943229 0.10708906 -0.21067038 -0.16297835 -0.16850525 0.20204368 0.11870879 0.40537375 0.26312938 -0.037193038 0.03034287 0.17530444 0.43917307 0.5719956 0.63948876 0.24147739 -0.057284385 -0.04629293 -0.09701702 0.72758687 0.8080629 0.09681933 0.8589359 0.55839527 0.5218688 0.46766195 0.2670947 0.38025784 0.3991525 0.84533453 0.85549736 0.5850993 0.5559342 0.46836644 0.29654297 -0.25090897 -0.5774478 0.4863357 0.62013626 0.72521394 0.7976538 0.53016245 0.49479604 0.36177444 -0.27534217 -0.22883748 0.42022502 0.41281867 0.34858638 0.29306772 0.06018488 0.15419246 0.3915007 0.3267553 0.2545642 0.1384298 0.22654378 0.32414874 0.3020668 0.10443359 -0.22616714 -0.28058666 0.27382442 0.06623119 -0.20537235 0.26224035 0.114352345 -0.06597601 -0.12616795 -0.2842061 0.30138117 0.29735905 0.22224134 0.13897012 -0.0043574134 -0.11755099 0.29554367 0.27165294 0.29759502 0.31424958 -0.40049005 -0.22817989 0.41607392 0.6019045 0.5929576 0.18044464 0.30301836 -0.06381897 -0.21177712 0.015705016 0.56301564 0.5479625 0.50163805 0.22218622 0.28037554 -0.14590359 -0.1774122 -0.119663045 0.3059311 0.4044791 0.50402653 0.5406868 0.54099387 0.49213344 0.40452754 0.28704244 -0.21495993 -0.07234852 -0.011478469 0.35698804 0.4793529 0.5272594 0.53654015 0.23529473 0.078914925 -0.21168065 0.14447092 0.11055375 0.2588947 0.44420427 0.4952523 -0.004034087 0.06205458 0.03289432 0.09785227 0.09635004 0.4129566 0.4453293 0.41840053 0.3051375 0.20912075 0.2625206 -0.17694026 -0.16679487 0.014340432 0.012072638 0.082200535 0.07115012 0.16092682 -0.13253206 -0.13674925 -0.10504783 0.1873211 -0.029426742 0.11360079 -0.034700185 0.06501634 -0.059869796 0.06716022 -0.11404052 -0.011211559 0.023947664 -0.080526166 0.38769197 0.008080117 0.11928124 -0.024154127 0.58817804 -0.025580034 0.0057755644 0.33134237 0.0507171 0.6628222 -0.039923407 0.457546 0.39877644 0.09758276 0.7058972 0.7162113 0.6517559 0.41440225 -0.06123721 0.15310702 0.46895382 0.4454781 0.09488474 0.6651347 0.5600992 0.04131574 0.15773602 0.47117156 0.40936375 0.40839344 0.21576166 0.39416784 0.29895273 0.27951843 0.36911744 0.39253104 0.63259774 0.72076935 0.5975454 0.70022357 0.391594 0.56829447 0.69173276 0.71737283 0.7793354 0.8430891 0.8176965 0.7723922 0.23943993 0.1892024 0.25037804 0.53712314 0.69280446 0.16247952 0.30770865 0.11714879 0.14940143 0.15957798 0.16814835 0.3966693 0.26361376 0.23155025 0.32333112 0.5718514 0.2844537 0.6534239 0.5462198 0.5205214 0.65205646 0.6217418 0.5453095 0.72645485 0.6878721 0.719