# vtk DataFile Version 2.0
Really cool data
ASCII
DATASET POLYDATA
POINTS 10829 float
-27.740389 61.841118 49.904552
-27.835611 61.810604 50.43084
-27.791801 61.885914 50.96226
-27.803825 62.445686 49.768497
-27.990292 62.364532 50.457703
-27.887861 62.614113 51.184334
-27.801723 63.42141 49.853954
-28.036097 63.46535 50.619762
-27.975327 63.509827 51.230488
-27.70658 63.651333 51.69155
-27.651346 64.108795 49.990284
-27.84533 64.20144 50.561928
-27.806145 64.2843 51.225704
-27.145824 61.2209 49.84784
-27.344755 61.203083 50.500244
-27.154568 61.184467 50.99093
-27.053204 61.976227 49.148426
-27.438192 61.636505 49.66577
-27.348623 61.669605 51.306633
-27.151985 61.88822 51.606495
-27.215458 62.64993 49.097176
-27.516869 62.591454 49.39461
-27.572222 62.231197 51.502003
-27.244904 62.43187 51.751606
-27.229212 63.600708 49.184868
-27.57721 63.390186 49.501797
-27.384586 63.591984 51.89437
-26.853579 63.927975 49.041615
-27.349922 64.23763 49.726433
-27.535917 64.54188 50.36198
-27.4437 64.551834 51.47064
-27.235588 64.219444 51.807335
-27.021408 64.65137 49.760216
-27.254614 64.80834 50.61776
-27.310883 64.68365 51.351635
-26.406631 61.09818 49.731632
-26.637678 60.93117 50.445095
-26.27957 61.789013 48.85572
-26.525444 61.891003 51.739166
-25.987825 62.92541 48.2029
-26.511593 62.4773 48.61791
-26.458405 62.715412 52.094975
-26.058456 63.322323 48.181633
-26.571419 63.383167 48.57611
-26.407986 63.595642 52.095093
-26.173044 64.11256 48.59246
-26.478464 64.62667 49.39733
-26.674274 64.361404 51.875145
-25.976965 64.66286 49.024677
-26.403088 64.82141 49.63841
-26.762753 64.99125 50.48395
-26.517666 64.86152 51.27192
-26.734816 64.64218 51.675022
-24.532234 51.937237 56.356567
-24.5809 52.5369 55.718636
-24.602123 52.560333 56.342236
-24.551504 53.023457 55.83144
-24.575815 53.15631 56.306103
-25.51294 60.953686 50.99205
-25.178152 61.496773 48.76188
-25.077623 61.879066 52.237812
-25.336802 62.678837 47.992992
-25.106485 62.698982 52.210728
-25.357298 63.46423 47.954784
-25.400805 63.318573 51.978626
-25.52533 63.977867 48.202927
-25.765718 64.36341 48.53229
-25.551214 64.07085 51.786167
-25.408667 64.83505 48.953545
-25.370049 65.19903 49.836006
-25.5016 65.14831 50.407505
-25.419981 65.035515 50.885906
-23.7954 50.164574 55.829212
-23.822048 50.10858 56.574238
-23.737362 50.15604 57.231434
-23.78825 50.71068 54.96031
-23.987667 50.575336 55.596844
-24.129877 50.656002 56.496952
-23.916542 50.546566 57.27506
-23.748407 50.670933 57.705696
-24.041313 51.61741 54.998104
-24.358902 51.60381 55.655518
-24.371916 51.44037 56.47798
-24.155478 51.48855 57.261436
-23.8133 51.45168 57.780144
-23.940104 52.38955 54.794537
-24.433613 52.561504 55.43034
-24.479252 52.777348 56.734978
-24.343111 52.54241 57.067364
-23.856564 52.26363 57.76344
-24.191324 53.471237 55.21153
-24.432991 53.312565 55.743702
-24.458017 53.212 56.557423
-24.194511 53.308838 57.19511
-23.539057 54.383965 51.97996
-23.553642 54.48338 52.151443
-24.14201 53.95319 55.494595
-23.803799 54.472675 56.652164
-24.029665 54.07967 57.009674
-23.824091 55.038677 55.682816
-23.68231 54.86828 56.444626
-23.705023 56.02491 56.418705
-23.774244 56.470135 57.20551
-23.6781 56.92982 59.28141
-23.557592 57.84509 54.981365
-23.630932 57.893585 55.16147
-23.849613 57.13509 56.59005
-24.005022 57.55829 57.502228
-24.138325 57.548935 58.463726
-23.941874 57.50579 59.097485
-23.525816 58.089344 53.42659
-23.730381 58.150402 56.574207
-24.093132 58.14561 57.788273
-24.050295 58.62986 58.62648
-23.92509 58.60379 59.156708
-23.989214 60.407433 50.046173
-24.26004 60.42201 50.251644
-23.601109 59.285828 53.120026
-23.575855 59.686527 54.217987
-23.86214 59.740032 57.959904
-23.929588 59.417023 58.528706
-23.832481 59.34202 59.11428
-24.28238 61.268715 48.57602
-24.136957 60.493263 49.753372
-24.837252 60.64761 50.083256
-24.314419 60.810776 51.424202
-23.797445 60.595013 53.466305
-23.679873 60.25365 54.11386
-23.734976 60.20576 58.101185
-23.791225 60.183815 58.58525
-23.719662 59.990337 59.128605
-24.154617 62.719574 47.721996
-24.202242 62.586735 52.416016
-23.982004 62.687805 52.6189
-24.220186 63.452904 47.816353
-24.398153 63.042698 52.307014
-24.072859 64.513954 51.307323
-24.510283 64.126045 51.793247
-24.64058 64.80566 48.815884
-24.413664 65.1194 49.525208
-24.456861 65.09756 50.689934
-24.666487 64.74412 51.16564
-22.507479 40.700798 31.731764
-22.886915 50.120018 54.346478
-23.147837 50.002403 54.79649
-23.256546 49.801426 55.53178
-23.297806 49.72898 56.57444
-23.305668 49.892185 57.29812
-23.182884 50.107746 57.757965
-23.114729 50.557743 54.294125
-23.440681 50.478386 54.653885
-23.366886 50.67258 57.983925
-23.56951 51.231297 54.53446
-23.334684 51.945248 58.203484
-22.609095 52.90666 43.717922
-22.583057 52.87753 44.111324
-23.31669 52.462425 58.25895
-22.673727 53.5653 43.596573
-22.663296 53.571213 44.1728
-22.956789 53.754417 51.11848
-23.19589 53.73479 51.59141
-23.31595 53.650017 52.332897
-23.266928 53.258305 58.197052
-22.77941 53.17424 58.721603
-22.594963 53.943348 43.122574
-22.615799 54.253693 43.617706
-22.591349 54.109203 44.36336
-23.014734 54.60164 50.864063
-23.34812 54.839687 51.490685
-23.036077 54.61613 58.597084
-22.59555 55.921898 19.512615
-22.576414 56.092678 20.502378
-22.991217 55.22427 50.9288
-23.358469 55.401344 51.793644
-23.393913 55.067726 53.854507
-22.606768 56.65189 19.043982
-22.686626 56.489555 19.479311
-22.64817 56.661743 20.422638
-22.792717 56.021294 51.157555
-22.980808 56.431873 51.788177
-23.16318 56.34125 52.367813
-23.378242 57.00321 53.96718
-23.319168 56.08029 55.406666
-23.216879 56.757298 59.77172
-22.578972 56.95865 19.044174
-22.63249 57.153473 19.510437
-22.6072 57.169415 20.348373
-22.94706 57.37918 52.362305
-23.404085 57.375618 53.397835
-23.347107 57.10182 54.4997
-23.50205 57.730644 55.135124
-23.092373 57.83833 60.13508
-22.629333 58.12227 69.99908
-22.566338 58.65279 45.860172
-23.069632 58.299892 52.30581
-23.412325 58.38385 55.46981
-23.415375 58.395073 59.893253
-22.587616 58.252357 69.504326
-23.330193 59.99506 51.710228
-23.183016 59.831394 52.286816
-23.4837 59.49554 53.162067
-23.40101 59.23562 56.92539
-22.993631 59.589935 60.03431
-22.554039 58.948013 69.17233
-22.706968 59.494816 70.58575
-22.58566 59.949997 71.36731
-23.811863 60.706528 49.14172
-23.09652 60.575943 57.49598
-23.559418 60.506245 58.8472
-23.32305 60.33013 59.35889
-23.191586 59.882847 59.826965
-22.689825 60.445168 70.47301
-22.777214 60.430565 71.031525
-22.697433 62.00812 46.706974
-23.615282 61.514397 48.201263
-23.133007 61.619106 54.14839
-23.23404 60.816143 58.128494
-23.192585 60.788254 58.45909
-22.638363 61.067314 70.47434
-22.601393 61.216267 71.19382
-22.743551 62.760994 46.488483
-22.643984 63.86704 45.95417
-23.347408 62.9934 52.879025
-23.063404 64.351036 46.578083
-23.193827 64.507065 51.644016
-22.905495 63.97985 52.52255
-22.799358 64.88011 46.598026
-23.30977 64.80635 47.782593
-23.58095 64.88746 48.621742
-23.59709 65.1504 49.74894
-23.502731 65.028694 50.46927
-21.663515 39.30282 31.870571
-21.958448 40.04839 30.971127
-22.063143 39.92898 31.477484
-22.005657 39.894547 32.349358
-21.698301 39.799915 33.062325
-22.098265 40.59999 30.842676
-22.366032 40.52734 31.502361
-22.328947 40.671097 32.36609
-21.920303 40.71389 33.187977
-22.147686 41.29824 30.904743
-22.413279 41.177727 31.560537
-22.358082 41.40772 32.308365
-22.004784 41.34718 33.18259
-22.125639 42.02296 31.750824
-22.090284 42.035797 32.44799
-21.857645 42.00799 33.07948
-22.476988 50.084354 54.277733
-22.555544 49.83091 54.62807
-22.498629 49.561295 55.46401
-22.647964 49.611176 56.596806
-22.619545 49.791428 57.306023
-22.637186 50.201015 57.868584
-21.765621 51.170322 42.753704
-21.806273 51.051006 43.408234
-21.83801 51.2142 43.88457
-22.51963 50.60424 54.017567
-22.671732 50.58905 58.106907
-21.674583 51.916367 33.689293
-21.684948 51.965954 34.299614
-21.969543 51.6496 42.714462
-22.100443 51.595512 43.504196
-21.988075 51.778595 44.307655
-21.859184 52.17304 44.940178
-22.611927 51.27017 53.96791
-22.614254 51.39108 58.357376
-21.766209 52.931072 33.189407
-21.808754 52.416664 33.607643
-21.82215 52.575607 34.355824
-21.59311 52.19332 34.996582
-21.75874 52.554264 42.316647
-22.128088 52.577057 42.733246
-22.383572 52.533314 43.327393
-22.35052 52.54353 44.261547
-21.858292 52.50953 45.20466
-22.347424 52.868225 51.77853
-22.265793 52.636997 53.57687
-21.597061 54.128483 19.135408
-21.883556 53.76598 32.97107
-21.961195 53.45843 33.676544
-21.899523 53.416252 34.393692
-21.646318 53.52856 35.16227
-22.399408 53.497986 42.959183
-22.485086 53.478252 44.68596
-22.235512 53.51226 45.11618
-21.747772 53.782406 45.895958
-22.502895 53.882523 50.674458
-22.197403 53.640217 59.09714
-21.847914 54.807606 18.84728
-21.830545 54.61915 20.27445
-21.713198 55.20433 21.017828
-21.878277 54.527485 32.910297
-22.03249 54.521664 33.46658
-21.970737 54.48835 34.23213
-21.736176 54.494293 34.917553
-22.273909 54.298004 42.937595
-22.530437 54.378445 43.499447
-22.490974 54.41472 44.41879
-21.903326 54.25611 45.573517
-22.371695 54.537983 50.367374
-22.056358 55.839333 18.185858
-22.266573 55.820942 18.639257
-22.407349 55.58961 19.74553
-22.370987 55.716904 20.491236
-22.096262 55.70401 21.03091
-21.720089 55.05464 32.900837
-21.839918 55.223633 33.519073
-21.778477 55.34642 34.21906
-21.657642 56.1297 41.526287
-21.832834 54.986008 42.70136
-22.272526 54.977886 43.62364
-22.305073 54.85859 44.39006
-22.622719 55.34876 50.50451
-22.622541 55.546795 59.31335
-22.445644 55.949715 59.896793
-22.059391 56.536934 18.268139
-22.387756 56.581806 18.643848
-22.281975 56.60597 21.141344
-21.59335 55.80941 33.927464
-21.84436 56.83482 40.87143
-22.123024 56.806995 41.69494
-21.984825 56.51409 42.669052
-21.885815 56.729115 43.31836
-22.27306 56.45516 50.84049
-22.261732 56.487457 60.31301
-22.069565 57.203064 70.48259
-21.934418 57.071754 18.319258
-22.33771 57.211067 18.839455
-22.455137 57.46906 19.5038
-22.415476 57.464413 20.446743
[...]
POINT_DATA 10829
SCALARS features_00 float 1
LOOKUP_TABLE default
0.861904 0.9018215 0.8954172 0.83075964 0.92519367 0.93492585 0.7912158 0.9556006 0.9999488 0.9592694 0.77618825 0.89743155 0.9575722 0.8255943 0.8709805 0.8432056 0.71559525 0.8231106 0.85159755 0.8097935 0.67654264 0.7404626 0.86998427 0.82323563 0.64467084 0.7125046 0.8978578 0.610768 0.70782924 0.83447623 0.9317871 0.8918211 0.6890378 0.84805876 0.91615045 0.712131 0.7832649 0.62250507 0.7198708 0.52871203 0.5966553 0.6563251 0.53353393 0.57820374 0.675806 0.5594298 0.61938715 0.7857962 0.5705354 0.6376147 0.7791774 0.79552394 0.8187486 0.534516 0.46448946 0.47029045 0.42124102 0.4146304 0.55137163 0.4670067 0.40043157 0.47943872 0.35786247 0.48553103 0.421515 0.5085797 0.5360936 0.52007747 0.53395206 0.5832709 0.61824465 0.5885679 0.76980126 0.7947736 0.7796161 0.6628326 0.70850074 0.7228403 0.7398425 0.71940666 0.5767197 0.5731152 0.60695314 0.6174353 0.62699306 0.45682693 0.45654634 0.46024907 0.49392655 0.52478725 0.34543258 0.38972604 0.41566014 0.43804294 0.4589485 0.43379724 0.29715323 0.27784067 0.35944968 0.10212607 0.17713931 -0.026099574 0.0685408 0.41348606 0.017447649 0.01804709 0.041717682 0.24482012 0.4346418 0.47216278 0.043185033 0.14100339 0.3698405 0.5012938 0.5210177 0.17602995 0.2058298 0.08536876 0.12656681 0.5443965 0.5510982 0.5701248 0.26965663 0.24143937 0.36572433 0.15696827 0.2226784 0.2007677 0.58689094 0.6030464 0.6092038 0.35953003 0.20373648 0.15326996 0.38277078 0.2426073 0.26998964 0.31483924 0.4672097 0.46689186 0.389051 0.40699273 0.7778338 0.6227951 0.6755473 0.78282154 0.8328506 0.7942115 0.75923467 0.59966546 0.64619756 0.7102059 0.5863386 0.55397123 0.56595707 0.5622642 0.47850382 0.50438404 0.51190317 0.5129133 0.5019078 0.44742602 0.3880503 0.3232931 0.4432335 0.4433052 0.47340822 0.48657745 0.4536267 0.18840481 0.7384919 0.8551027 0.43448317 0.3811766 0.092879236 0.72905105 0.7707548 0.8910091 0.3332737 0.25408813 0.21808039 0.06704816 -0.01773261 0.33212394 0.7451924 0.8089924 0.90625685 0.12808149 0.06431886 0.04142961 0.018800266 0.42543948 0.54153466 0.25849706 0.042711496 0.024691634 0.49657732 0.533533 -0.13219078 -0.028641164 0.09688953 0.36870435 0.58930594 0.52379996 0.62120134 0.72798514 0.18183231 0.5233461 0.61314803 0.62515926 0.6168786 0.6408959 0.7003725 -0.015234262 0.13507915 0.18670857 0.5849198 0.5924682 0.6523148 0.72373414 0.11649186 0.22990155 0.090414956 0.27139136 0.10617335 0.119666375 0.27864307 0.2450332 0.30196807 0.32315448 0.23077758 0.6783525 0.699829 0.7277989 0.69496137 0.6213348 0.68979645 0.76434994 0.74649 0.6516527 0.6790886 0.7738272 0.72256947 0.62129 0.67377406 0.59995496 0.5341899 0.59755003 0.641562 0.7775214 0.82396084 0.7681654 0.72118056 0.76205605 0.74329805 0.68650234 0.5449099 0.68860674 0.5057665 0.51282734 0.72661424 0.6909236 0.6017622 0.52907336 0.46762222 0.596998 0.5399892 0.52381563 0.5311648 0.49951133 0.5782746 0.60413766 0.60862225 0.5749791 0.5061664 0.28973317 0.06766435 0.4409424 0.57291013 0.5808368 0.55282754 0.4827577 0.47635347 0.5160161 0.50085115 0.4078313 0.51793075 0.20058379 0.55207425 0.5846496 0.662601 0.53331864 0.5549133 0.52751744 0.45157188 0.3695047 0.4211905 0.44593427 0.3869282 0.49564704 0.59203476 0.6222922 0.7361475 0.79882395 0.7692217 0.48871383 0.4983098 0.45310664 0.21526025 0.22374666 0.33037698 0.38732463 0.4250033 0.15598373 0.1588268 0.63486993 0.67991376 0.8889418 0.42659682 0.26072586 0.26653236 0.18147643 0.122118026 0.2789109 0.16501375 0.457473 0.6564467 0.7294498 0.825016 0.92915744 0.9181824 0.25549656 0.29197013 0.29311478 0.15900427 0.12605986 0.1995995 0.24640508 0.18597719 0.15252727 0.49217045 0.49014968 0.52983654 0.5368957 0.7694504 0.85502726 0.92943984 0.91825444 0.25704527 0.28390414 0.3022799 0.23753569 0.212998 0.25807795 0.2205028 0.016795263 0.37250897 0.4807287 0.8036407 0.21752048 0.25582042 0.22608732 0.2114734 0.24794397 0.25896636 0.20277704 0.10971418 -0.10688566 -0.1530505 0.47801596 0.7818481 0.7984405 0.17509153 0.20562792 0.19336954 0.14225897 0.14799285 0.13156885 -0.12132925 -0.22768243 0.5712166 0.4329335 0.5406946 0.8215264 0.8163781 0.14569958 0.049669497 0.23130623 0.4704551 0.5386181 0.5598694 0.53465873 0.6656736 0.74089766 0.78202546 0.021483645 0.2385767 0.27494496 0.6742373 0.72945625 0.16947703 0.19499265 0.23415515 0.28341556 0.25311357 0.040686786 0.12572737 0.1944339 0.2507736 0.27299854 0.12563922 0.05235844 0.26183596 0.2761926 0.28538164 0.2600666 0.15935513 0.6499473 0.656984 0.61763 0.5561104 0.5588055 0.6539432 0.6886455 0.64231914 0.5980927 0.55188143 0.5600544 0.61976147 0.5327022 0.46659988 0.49866086 0.5385768 0.49683052 0.44329253 0.28289956 0.4746801 0.46118486 0.40650257 0.3714146 0.407781 0.42888197 0.40328717 0.36747584 0.55014646 0.5687034 0.6002779 0.4942255 0.3076626 0.59336007 0.62186044 0.62479466 0.49994454 0.35100353 0.6127831 0.6305814 0.60707057 0.49440607 0.3446687 0.60733557 0.75003684 0.74490523 0.6089882 0.72335786 0.7237222 0.66028756 0.424698 0.4793393 0.4743244 0.4439588 0.7102394 0.764066 0.7554662 0.70470595 0.5897582 0.49074933 0.5033039 0.5553198 0.40729153 0.49497014 0.4959384 0.4851715 0.40281597 0.6577767 0.58566344 0.5250033 0.46600854 0.13192493 0.4043761 0.27647376 0.27275813 0.27183157 0.43736663 0.47852254 0.38494763 0.6157987 0.46319872 0.43620247 0.33027366 0.41298336 0.32649386 0.38328573 0.46009183 0.50765824 0.422045 0.27886564 0.44361472 0.12596431 0.4415343 0.4804528 0.537622 0.5747113 0.41875497 0.47002718 0.30358696 0.25473246 0.13531682 0.12924272 0.2944161 0.09529728 0.48046654 0.13665265 0.49574006 0.5278754 0.6965196 0.5789473 0.33464134 0.442716 0.44848037 0.3429405 0.3508903 0.16255295 0.15913294 0.21777096 0.38671654 0.37646022 0.48136705 0.5723635 0.7343648 0.7544484 0.37711114 0.39128006 0.35774136 0.19882455 0.118526 0.2083244 0.2441105 0.03159637 0.15345153 0.18774745 0.14123152 0.32719272 0.41435778 0.41570616 0.4571978 0.608292 0.68061066 0.8007586 0.7551582 0.3342287 0.31187797 0.26335812 0.104381025 0.18982346 0.14709696 0.28961515 0.75189644 0.86046445 0.8975998 0.84439605 0.33463755 0.33272952 0.06334928 0.12160296 0.7348558 0.19929394 0.36852828 0.28329584 0.3145995 0.78144586 -0.0027750414 0.14192463 0.39760494 0.73345894 0.042536393 0.1078338 0.10385226 0.2660159 0.456889 0.42333987 0.40304786 0.42961258 0.72615707 0.6711235 0.19175482 0.14631867 0.010984559 0.23652446 0.20224695 0.46125016 0.5772121 0.608575 0.71846575 0.7222211 0.24667493 0.22078481 0.119217806 -0.09316808 0.29648313 0.3038153 0.29462945 0.2850182 0.20594513 0.077981845 0.13868432 0.29682112 0.30704635 0.1962676 0.15542842 0.18257393 0.114755414 0.07993959 0.29088998 0.26433128 0.28113022 0.27519578 0.28663856 0.1939281 0.12780423 0.13675332 0.32001665 0.34356406 0.30471125 0.27879232 0.58909535 0.57571304 0.5851296 0.5478226 0.49273276 0.50129837 0.57782036 0.5046898 0.4309373 0.42247885 0.3713225 0.38407594 0.15398034 0.3091758 0.32078168 0.37830424 0.1399588 0.46935067 0.47263283 0.15909186 0.059890524 0.51717997 0.5462873 0.15091622 0.10523442 0.573365 0.25993985 0.51118934 0.5762334 0.58252424 0.38821933 0.43182054 0.42765868 0.43055677 0.43613157 0.43951935 0.3700058 0.3362303 0.24474913 0.72916794 0.7285861 0.7056606 0.37436253 0.31102505 0.26526833 0.20780072 0.39625502 0.3683877 0.31487426 0.43651587 0.42245468 0.41548526 0.64380956 0.713035 0.64362764 0.58968437 0.5050539 0.5309138 0.44106627 0.39950976 0.25378 0.35164058 0.39718968 0.32014668 0.23108539 0.42947283 0.3693031 0.29186478 0.41921502 0.36860162 0.29427233 0.5745176 0.43785828 0.3857304 0.36986786 0.33526933 0.273699 0.30610043 0.39456758 0.29412043 0.26577753 0.21459231 0.22572939 0.22372505 0.34036475 0.4430046 0.43818706 0.38060054 0.29854774 0.35002825 0.23190477 0.29471344 0.3757438 0.48845863 0.4395473 0.41505945 0.364554 0.24731052 0.21023159 -0.115576416 0.04258133 0.056137398 0.34421235 0.50150335 0.50569934 0.3681453 0.2994497 0.15089339 0.114894755 0.0030975193 -0.057967648 -0.02918917 0.43124282 0.50874645 0.50353825 0.3922567 0.40262467 0.50083816 0.26312932 0.011919368 -0.15939848 0.029570224 0.028664915 0.33561444 0.4406066 0.40055496 0.44056043 0.5354674 0.319286 -0.046291754 -0.0928751 -0.031043142 -0.19562718 -0.29250422 0.2794046 0.33361006 0.39713246 0.4239543 0.51504827 0.6193539 0.6306275 0.3033036 0.2481345 0.14899996 -0.13029593 0.029051311 -0.1656633 0.14496222 0.62367713 0.68514395 0.75089896 0.7622359 0.7014811 0.3036775 0.3335088 0.31631595 0.24480495 0.073699206 0.03671492 -0.14464664 -0.36753666 0.18449455 0.63959765 0.29890692 0.19509724 0.031202469 0.0980188 0.054845273 0.18646722 0.13374233 0.18396218 0.1424348 0.10500637 0.64515406 0.29473066 0.25885677 0.18988958 0.08717237 -0.0011857711 0.23273298 0.4300245 0.6215257 0.6627377 0.32216504 0.31189054 0.23247227 0.1428151 0.23712999 0.20982455 0.44902706 0.47808826 0.4973868 0.57825786 0.67310405 0.6347824 0.29394346 0.31654322 0.31598198 0.6376599 0.3370748 0.35747194 0.2854331 0.10498888 0.25233427 0.30301303 0.31652606 0.27523804 0.096928865 0.06378116 0.31444648 0.3027685 0.178977 0.11372213 0.078002214 0.403246 0.36688393 0.35553104 0.25779247 0.20547852 0.12828945 0.5120809 0.5066239 0.5128359 0.48041707 0.641878 0.62453794 0.7943009 0.544277 0.69990474 0.8418441 0.89960647 0.90434813 0.50617194 0.51642674 0.44166294 0.473606 0.80756253 0.8983344 0.93590814 0.9332854 0.43542725 0.7853193 0.8488813 0.9133571 0.921757 0.34851763 0.6660268 0.8014046 0.85641706 0.09883002 0.29404616 0.20026726 0.26415583 0.18788014 0.12747172 0.35843503 0.05548483 0.065340705 0.4650742 0.03316012 0.3135889 0.46713012 0.1350877 0.02931573 0.37917775 0.38359806 0.3787413 0.37033653 0.37691534 0.15750872 0.10010353 0.05410259 0.39707527 0.42291963 0.40033254 0.41701978 0.45197105 0.49229342 0.17968471 0.1618197 0.43477762 0.44256896 0.4611668 0.4927507 0.5205289 0.34359437 -0.048273727 0.65966374 0.66825354 0.59918916 0.6367315 0.6109375 0.553795 0.35734004 0.3603341 0.3212027 0.2987377 0.26697725 0.11701103 0.39164317 0.43061256 0.45242965 0.45535177 0.47377193 0.43471086 0.42708108 0.13401204 0.20530921 0.25022945 0.32292628 0.24187621 0.62962794 0.6482682 0.5471252 0.43757665 0.40629327 0.6067204 0.5966904 0.3011108 0.17567231 0.23725203 0.26740164 0.2831442 0.38112342 0.08905163 -0.07282893 0.2892683 0.38025707 0.43550003 0.31483296 0.26401296 0.20191774 0.21364409 0.2740664 0.41244295 0.4178275 0.116032206 0.21849585 0.4323392 0.19227836 -0.09137773 0.19755858 0.16581717 0.21683672 0.44132254 0.4463683 0.37579477 0.25885078 0.40976653 0.42584488 0.07979428 -0.20399588 0.093272895 0.5608765 0.6044752 0.59114945 0.45299911 0.44535157 0.33523002 0.41355097 0.3747104 0.33721972 -0.14835262 0.014030151 0.22955965 0.47547442 0.49579155 0.51335144 0.55672026 0.5546202 0.5153242 0.30831274 0.22531608 0.19305071 0.10768228 0.5314138 0.35769022 0.29264453 0.24825603 0.14475903 0.30049068 0.42980415 0.46187878 0.378834 0.1644561 0.25703138 0.5597073 0.5261317 0.61563456 0.21548912 0.2625883 0.27161142 0.28917688 0.098603934 0.22023998 0.17251754 0.09038396 0.087968126 0.21312341 0.5066289 0.55632687 0.2331169 0.28320354 0.14062847 0.42147213 0.50586647 0.5586067 0.30928093 0.3475675 0.37000433 0.2780122 0.5859788 0.370678 0.3700449 0.2724322 0.3188743 0.6201894 0.6413965 0.66462886 0.6509044 0.24464759 0.25307 0.298631 0.31433365 0.1565744 0.2627131 -0.0148784015 0.3009111 0.07021759 0.048865423 0.020096123 0.0070233466 0.42446882 0.13003798 0.6247641 0.47502315 0.35066736 0.23183745 0.69882005 0.72176206 0.66560066 0.58181584 0.37877434 0.451817 0.5597687 0.71685255 0.8151686 0.8423856 0.36183095 0.5242328 0.8655826 0.8594897 0.35436904 0.12653878 0.22134086 0.8894403 0.8513599 0.12945825 0.21834406 0.44275713 0.5051282 0.8818396 0.851688 0.33812568 0.582001 0.69685113 0.8081958 0.8524983 0.015156634 0.18009321 0.14317778 -0.035169765 0.47638816 0.41753128 0.2778863 0.5218647 0.49561077 0.4678045 0.39106676 0.26535445 -0.001143992 0.09585633 0.4800421 0.5282731 0.5561079 0.45326224 0.3242392 -0.020310361 0.4127549 0.46900997 0.46592426 0.4123751 0.35506928 0.2650897 0.1698865 0.38072225 0.2603638 0.24714985 0.352736 0.35168442 0.32334757 -0.009215525 -0.026088249 0.15399274 0.32946903 -0.16332234 -0.05564351 -0.1238691 0.2802685 0.2922379 0.18564485 0.18766317 0.2507037 0.52589285 0.5117402 -0.23406678 -0.2953562 0.65922594 0.6486714 0.54955626 0.42463478 0.25356236 0.29052588 0.32578227 0.0033251047 0.43256992 0.033307634 0.20507792 0.14484671 0.55984116 0.5015082 0.39889947 0.3586681 0.28854707 0.63645864 0.32144365 0.20622166 0.19792709 0.2501691 0.28235352 0.3240193 0.27397266 0.3227179 0.38732955 0.0988097 -0.12441385 -0.049257763 0.07083475 0.27982542 0.3022112 0.27696323 0.5132141 0.23547274 0.25104138 0.35506153 -0.0937708 0.018334687 0.15311134 0.13338208 0.3585931 0.39018315 0.060408823 0.046910986 0.20280261 0.44748998 -0.24343489 0.36668482 0.10713624 0.16574705 0.6174135 0.66127384 0.6632122 0.6404332 0.59351546 0.46985945 0.47152594 -0.13602515 0.28773326 0.22771502 -0.025039576 0.12657182 0.27387846 0.23382299 0.5457831 0.5582825 0.5545391 0.46314907 0.45836696 0.45897022 0.22082955 -0.04772 0.07518769 -0.06120389 0.5143732 0.2509922 0.025468454 -0.07345965 -0.09014629 0.29336578 0.35886356 0.16785556 0.14314029 0.38070348 0.39514163 0.3440132 0.21554193 0.26512593 0.41223365 0.29682982 0.2892915 0.45963514 0.2848991 0.24002461 0.10173235 0.21547845 0.46782762 0.0968516 0.12053558 0.13601469 0.2423209 0.334909 0.4950143 0.29239535 0.21983966 0.6056585 0.58690697 0.32622853 0.35461158 0.33210418 0.23633239 0.26895443 0.25854138 0.6978826 0.7094172 0.7426243 0.72741705 0.007158611 0.045239236 0.010830279 0.21775545 0.2804548 0.1296365 0.06661593 -0.04974138 0.012157898 -0.04202904 0.44894665 0.12348789 0.56703013 0.6299375 0.29793575 0.2539529 0.7251198 0.7391638 0.65337265 0.57112825 0.49719352 0.7358705 0.680462 0.61815774 0.51023763 0.59847474 0.27679294 0.3659956 0.42555135 0.5229367 0.61752665 0.7279146 0.7741234 0.36555046 0.3458953 0.32284823 0.28128403 0.7998849 0.8154936 0.32837853 0.30587196 0.25616106 0.8100536 0.2389502 0.8013394 0.81742185 0.11252208 0.71110666 0.7976415 -0.005842602 -0.07841997 0.253857 0.48435897 0.4017564 0.4003089 0.38970837 0.265125 -0.0030107722 0.019776095 0.46636194 0.430174 0.40616083 0.38060564 0.33882138 0.066981256 0.47722504 0.49767774 0.05723045 0.03321906 0.3075784 0.41264653 -0.004218243 0.5984837 0.6129333 0.3321069 0.20295165 0.09515816 0.03280689 0.022179376 0.58699745 0.6061569 0.06504109 0.05126173 -0.05749452 0.27524507 0.07671747 -0.0032884404 0.54422694 0.04359106 -0.0732316 0.32611814 0.049605314 0.01616712 -0.08446747 -0.039396532 -0.061569072 -0.0061144084 0.38606995 0.005427975 0.2737707 0.26532763 0.24795116 0.14253947 -0.04336851 0.66732293 0.6408121 0.54552364 0.44362146 0.18963453 0.43844682 0.39162284 0.07434011 0.1455389 0.046454832 0.14904849 0.6204455 0.6492276 0.4861536 0.3805371 0.21704377 0.21799092 0.16977149 0.20783812 0.05469698 -0.13189721 -0.07307656 0.046718825 0.0078155175 0.19387022 0.24498467 0.2668559 0.26945004 0.30760938 0.14159314 0.46584392 0.26091188 0.23671782 0.20754047 0.2831662 0.2567041 0.26287568 -0.049821462 -0.10287763 0.30183178 0.25925392 0.13135728 0.39647415 0.38015497 -0.16839357 -0.18219467 -0.10548625 0.1278966 -0.017718188 0.6681855 0.6555613 0.64974713 0.6489097 0.6009877 0.46566877 0.4541998 0.46004495 -0.14573747 -0.17784005 -0.08876038 -0.09046263 -0.105829015 0.040704265 0.13174832 0.19814606 0.26046413 0.60605145 0.5734397 0.54003704 0.43695047 0.4410385 0.40623328 0.32342744 0.12449156 -0.010117263 -0.064464554 -0.0662625 -0.069692686 0.16157372 0.13902833 0.06781307 0.52277464 0.09962605 0.14009085 0.0450857 0.007856794 0.18436918 0.08851814 0.01641459 0.3921157 0.30794075 0.17382036 0.10810709 0.23451318 0.36656865 0.38741112 0.41651303 0.38401136 0.26070875 0.20486474 0.22699878 0.30588037 0.2875967 0.3496878 0.32128894 0.24717873 0.27693862 0.47350782 0.48125958 0.35627759 0.33081025 0.23899168 0.012161847 0.15751737 0.14197876 0.37625372 0.32908493 0.3784899 0.36941648 0.2921399 0.53022695 0.5060185 0.19174564 0.17621517 0.4653335 0.3892588 0.47684878 0.6337846 0.68811965 0.6609905 0.59214425 0.25086218 0.2519237 0.20276865 0.7214087 0.7451253 0.73186654 0.0015642345 -0.0013365708 -0.15691867 -0.032687195 -0.050638713 -0.08781973 -0.05444422 -0.056496672 0.3926405 0.61287475 0.33483386 0.7205899 0.7292744 0.6047841 0.55691886 0.5014001 0.7260738 0.66449964 0.62839353 0.5039569 0.39006174 0.33858943 0.28501314 0.28035933 0.35440826 0.49863696 0.5598881 0.64204264 0.71101314 0.40092975 0.3900058 0.34778136 0.72557926 0.7727897 0.393368 0.3649541 0.7462738 0.7705597 0.26455307 0.36721912 0.7674522 0.1844437 0.62074274 0.7254894 0.44230306 0.416001 0.22858775 0.06875202 -0.024277397 0.4360589 0.44318277 -0.020880131 0.4570115 0.45126727 0.41211218 -0.0017997976 0.45240122 0.52446055 0.573737 0.34441683 0.36924058 -0.15938419 0.5241478 0.6016749 0.5837604 0.4395943 0.6137365 0.59938204 -0.031728532 -0.05394793 0.2579444 0.5698798 -0.04007142 0.22089583 -0.0032822713 -0.017517194 0.4332927 0.33862782 0.27661145 0.17164698 0.07599847 -0.034880098 -0.11480239 -0.086978264 0.14334308 -0.060675535 -0.08107789 -0.09276684 0.23110482 0.24193843 -0.16740267 -0.3436634 -0.30930904 0.578359 0.12018643 -0.27691853 -0.23745012 0.016230175 0.06933876 0.053885072 -0.08076632 0.6051113 0.5412761 0.4887604 0.36132112 0.21258989 0.20575932 0.11718842 -0.07699912 0.2524144 0.2509037 0.45387495 0.45679387 0.37988192 0.29661644 0.26404554 0.3027869 0.2910685 0.32249716 0.26957142 0.19195738 0.22851592 0.23329294 0.31153026 0.13906229 0.20236537 0.41392076 0.4414608 0.13210608 -0.01786232 -0.060610168 0.101824805 0.6406447 0.62908167 0.5919594 0.60328686 0.46395594 -0.24208315 -0.15702745 0.53109497 0.52428615 0.40146002 0.41180888 0.398044 0.39347178 0.3594295 0.29053637 0.25348818 -0.107434794 -0.031086847 -0.03362359 0.120806895 0.44072685 0.2809005 -0.012163207 -0.06645014 0.18492761 0.18428306 0.368527 0.3455001 0.35170093 0.3839205 0.12773696 0.05541291 0.14852855 0.17376596 0.13534264 -0.09248471 0.27037844 0.39915392 0.4006875 0.4017395 0.34755832 0.21123613 0.16982011 0.18944651 0.2673184 0.28538832 0.312196 0.37732026 0.4489479 0.32450742 0.341791 0.14757937 0.44498447 0.50563693 0.34750977 0.31672275 0.17888781 0.46326876 0.6150673 0.59637535 0.61283493 0.58747256 0.54887265 0.25584474 0.062033296 0.2116574 0.1831323 0.52972436 0.5457667 0.56017643 0.69208896 0.67006385 0.6479097 0.16112584 0.16776574 0.091549106 0.016189702 0.09392798 0.16319762 0.7139591 0.16682322 -0.07446556 -0.22605702 -0.21784641 -0.008167848 -0.03843548 0.18369877 0.09464206 -0.23104288 -0.30563846 -0.013484836 -0.083840065 0.0082654655 0.012251489 0.35979784 0.105531484 0.62225556 0.41344506 0.67989147 0.6236534 0.5629263 0.384186 0.325182 0.2931901 0.28973663 0.31708443 0.31775165 0.45741725 0.50442517 0.57192385 0.43944246 0.40471637 0.38339478 0.6148583 0.6728453 0.42843878 0.4494112 0.66993797 0.37763658 0.41863587 0.66110516 0.31284922 0.1899781 0.4429112 0.42833972 0.37698808 0.1129583 -0.13683401 0.4413951 -0.27121797 -0.2654209 -0.18341644 0.4039469 0.39617115 0.36008796 0.36546656 0.40803766 0.014766034 0.4290579 0.24522175 0.5092474 0.033948835 0.08291964 0.56144476 -0.06644434 0.5366752 0.5365444 0.38693646 0.28837448 0.20153901 0.05402692 -0.122692615 0.4103192 0.3580864 0.37048435 0.116475284 -0.054757413 -0.1204409 -0.24105236 -0.28125358 -0.14261657 0.013074845 -0.0120200515 0.19893643 0.24881765 -0.19992504 -0.3514499 -0.4134729 -0.43451905 -0.034466915 -0.12545595 0.20661837 0.105665356 0.34432054 0.34077093 0.30500787 0.28228447 0.33101127 0.34042656 0.2313048 0.20231122 0.17477392 0.18448865 0.32364792 0.25992018 0.27460188 0.29397196 0.3096245 0.35777035 0.2654495 0.16096725 0.09699487 -0.030453242 0.0619869 0.18171315 0.09201115 0.17231646 0.13964716 0.5714677 0.56992555 0.42061794 -0.038005624 