# vtk DataFile Version 2.0
Really cool data
ASCII
DATASET POLYDATA
POINTS 5549 float
-6.5333085 34.49926 15.908507
-6.5639095 34.59574 16.403856
-6.540365 35.30727 16.016537
-6.5605764 35.30026 16.454596
-6.5274143 44.1137 14.91114
-6.5928874 44.023937 15.473506
-6.800548 44.8008 15.025318
-6.927071 44.831604 15.607455
-6.936904 44.953213 16.369982
-6.7653613 45.049522 16.832327
-6.8204436 45.609234 14.837612
-7.110511 45.515903 15.638065
-7.0956016 45.603085 16.238527
-6.8183765 45.61937 17.146055
-6.891829 46.334663 15.036334
-7.0053573 46.489937 15.519494
-6.9999866 46.33995 16.42462
-6.765682 46.277096 17.213877
-6.7054195 46.8809 15.107073
-6.775174 47.124146 15.735547
-6.860497 46.983707 16.28549
-5.8262234 33.339188 15.707648
-5.781955 33.232716 16.349617
-5.8242517 33.34341 17.14745
-5.883707 33.752377 15.047849
-6.2222695 33.808495 15.668872
-6.3019514 33.786633 16.291546
-6.109729 33.85302 17.287697
-5.7588654 33.69525 17.727985
-6.0220313 34.378815 14.9290085
-6.383981 34.456074 15.51076
-6.492459 34.546066 16.612608
-6.2807384 34.544834 17.308538
-5.99438 34.62868 17.951109
-5.847132 35.34953 14.901468
-6.2724466 35.419693 15.565194
-6.429158 35.654503 16.47066
-6.396948 35.462635 17.197453
-5.8427277 35.692017 18.395456
-5.7544365 35.950157 24.54826
-5.8788486 35.960842 25.3924
-5.598552 35.701805 26.080982
-6.1122007 36.2716 15.8480015
-6.2471175 36.2981 16.516413
-6.2561483 36.293655 17.286865
-5.9191236 36.25308 18.237686
-5.983948 36.61225 24.717123
-6.0129676 36.535866 25.17639
-5.5750947 36.979725 26.23453
-5.660422 36.97363 15.614349
-6.0144863 36.883236 16.583477
-5.891097 37.044586 17.327091
-5.7931957 37.01661 17.84763
-5.981911 37.218304 24.702374
-6.0192122 37.21085 25.260899
-5.808494 37.614597 26.215376
-5.6793804 38.335682 24.790222
-5.762689 38.567375 25.3954
-5.7084208 38.628403 26.398973
-5.675205 39.122463 25.726364
-5.691388 39.09802 26.169058
-5.576558 40.949368 9.573205
-5.684088 40.833904 10.261082
-5.7161493 41.55278 9.653296
-5.8177023 41.718212 10.4117775
-5.7390776 41.72608 10.842927
-5.6946936 42.15846 9.752109
-5.7562256 42.184303 10.254992
-5.8475127 43.067062 13.74529
-5.9600115 42.901962 14.697945
-5.87041 42.8593 14.978835
-6.0871997 43.735245 13.711075
-6.3729334 43.651485 14.69841
-6.2560663 43.68351 15.509811
-6.268128 43.94253 16.282204
-5.789891 44.033173 16.873272
-5.662288 44.278084 13.087863
-6.207276 44.620445 13.804259
-6.526137 44.14472 14.465895
-6.1020846 44.451687 17.128063
-5.798321 44.95622 17.982986
-6.187578 45.343357 13.834557
-6.5209074 45.86023 17.63357
-6.1804824 45.768257 18.093307
-6.120902 46.219555 13.997805
-6.4524565 46.65 14.562263
-6.2104716 46.404404 18.239506
-5.8235555 46.564045 18.658566
-6.3373995 47.163498 14.875858
-6.4513226 47.426373 15.526523
-6.348646 47.532642 16.554873
-6.3426228 47.23579 17.198296
-5.9258747 47.1807 18.25467
-6.043752 47.65089 15.436895
-6.0999517 47.767296 16.186571
-5.844131 47.763947 17.205273
-4.7269077 27.827936 22.824486
-4.8003707 27.68217 23.512474
-4.818906 27.945436 24.195103
-4.8214035 28.507877 22.820576
-4.9749804 28.49719 23.493883
-4.7837987 28.382166 24.466352
-4.8427734 29.842829 22.593159
-4.9519086 29.29233 23.477161
-4.8908052 29.153603 24.09694
-4.612989 30.485931 21.697445
-4.9687963 30.706974 22.584646
-4.763517 30.362144 23.633188
-4.7413726 31.22676 26.739212
-4.645953 31.101385 21.7567
-4.8896346 31.178219 22.530586
-4.647507 31.552725 24.246061
-5.04633 31.88676 25.640785
-5.077422 31.704426 26.464062
-5.0240183 31.832579 27.03026
-5.337167 33.09804 15.666956
-5.5284195 33.081406 16.536678
-5.214515 33.058334 17.225758
-4.681691 32.450542 23.583632
-4.834018 32.385807 24.412416
-5.1915307 32.545544 25.605675
-4.9771204 32.47847 27.088058
-4.725411 33.65038 12.585446
-4.64578 33.27324 13.264742
-5.2753744 33.713417 14.63122
-5.558647 33.408794 17.608786
-5.4629683 33.786106 17.99527
-5.045792 33.482395 25.540394
-4.9796877 33.010105 26.881495
-4.6587696 34.23713 11.9589
-5.0184975 34.588497 12.821893
-5.1750016 34.46717 13.557141
-5.2560463 34.465 18.41535
-5.0312147 35.234207 19.782974
-4.693392 34.480602 24.414158
-4.8726487 34.352467 25.832254
-4.6195316 34.24182 26.362429
-4.706835 34.9903 12.122052
-4.9314866 35.302227 12.683119
-5.1362157 35.454327 13.427767
-5.410468 35.507584 18.76833
-5.1048083 35.816635 20.404413
-5.5389366 35.4749 25.354885
-4.8473682 35.95623 13.609173
-5.3898315 36.64873 19.464258
-5.1442413 36.521854 20.739601
-4.9960027 37.031635 22.337175
-5.5144954 36.63635 26.610186
-5.305723 36.599014 26.795063
-5.195139 36.905575 15.0157995
-5.2435703 37.509644 15.761357
-5.6226277 37.21459 16.215286
-5.4621205 37.581295 17.26705
-5.0077643 37.75054 19.323065
-5.0005393 37.666016 27.474007
-4.7312045 37.813828 27.708637
-4.8151865 38.907043 9.956344
-4.889408 39.032444 10.37356
-4.735333 38.807262 10.958542
-5.213061 37.6717 16.736221
-4.78362 38.06987 17.872519
-4.806712 38.03755 18.281494
-4.915547 38.05373 19.493872
-4.8482523 38.402702 20.179441
-5.413598 38.434853 23.662127
-5.2273335 38.611706 27.213453
-4.8338127 38.357796 27.708345
-4.8767743 39.698753 9.21524
-5.070755 39.67932 9.608244
-5.0586424 39.340946 10.395356
-4.918166 39.442467 11.336799
-4.8257236 40.034725 11.796152
-4.6559196 39.61012 21.669369
-4.8490906 39.111755 22.293646
-5.1242867 39.466537 23.677221
-5.4135966 39.24551 24.932129
-5.4967084 39.5139 25.752357
-5.390558 39.45605 26.381039
-5.140395 39.19861 27.08458
-5.1355987 40.698704 9.037515
-5.410461 40.845695 9.367677
-5.47839 40.532703 10.787208
-5.470602 41.066193 11.036433
-4.793057 40.102467 22.19217
-4.9754896 40.166252 23.022652
-5.112865 40.604717 23.777452
-5.1174397 40.108177 24.385935
-5.3151026 39.780663 25.55533
-4.876845 39.9676 26.440832
-4.8163567 39.859707 26.827782
-5.178587 41.549923 8.910608
-5.5376134 41.20631 9.373691
-5.3029065 41.099995 11.192609
-5.271231 42.183716 14.546492
-4.910486 42.14795 15.584296
-4.754618 41.166428 22.774855
-4.9746804 41.0305 23.554928
-4.667508 41.591476 24.148676
-5.05722 42.232056 9.01407
-5.4122715 42.368435 9.473919
-5.564319 42.536343 10.4374485
-5.587882 42.348568 10.794515
-5.2477856 42.792324 13.50217
-5.530399 42.492176 14.744389
-5.459101 42.577618 15.25828
-5.206372 42.852924 16.211237
-4.6143174 41.833305 24.152323
-5.241689 42.758026 9.74491
-5.3465343 42.832207 10.130307
-5.501365 43.32814 13.067873
-4.9946795 44.182312 17.633387
-5.307644 44.576237 12.911189
-5.5939803 44.699463 17.9182
-5.2728233 45.664345 13.164665
-5.495839 45.237923 18.473894
-5.2961826 45.60051 18.707449
-5.192394 46.55429 13.348456
-5.500387 46.417095 13.532426
-5.4712644 46.599667 18.80173
-5.358615 47.00091 13.879293
-5.810848 47.49915 14.737701
-5.417681 47.465183 18.4435
-5.279747 47.140686 18.741312
-5.2222886 47.713085 14.861495
-5.526481 47.910957 15.670541
-5.355911 48.097664 16.642626
-5.3578644 47.949303 17.503345
-5.2507334 47.750473 18.150692
-3.924759 27.096424 22.261688
-4.170948 26.885347 22.746689
-4.248333 26.791763 23.433441
-4.1125774 26.885744 24.395533
-4.095384 27.594831 22.025923
-4.57575 27.59852 22.557308
-4.4197655 27.370665 24.533611
-4.1652064 27.620935 25.077984
-3.6985366 28.745264 21.252497
-4.0062885 28.57428 21.610645
-4.0156417 28.686625 25.335663
-3.7466056 29.583918 21.05577
-4.375319 29.525087 21.673498
-4.417614 28.963339 24.970472
-3.7049675 29.207436 25.750742
-4.1542754 30.250801 21.271828
-4.250356 30.878 25.562721
-4.2999444 30.857573 27.659876
-3.8943515 30.789206 28.335371
-3.8330936 32.314373 13.312875
-4.1526675 31.485046 21.359152
-4.4058433 31.218597 27.752382
-4.1667066 31.565922 28.24604
-3.793674 31.164268 28.65661
-4.1288996 33.012325 11.87596
-4.2293406 32.885975 12.6096945
-4.285106 32.70161 13.634277
-4.2192335 32.84782 14.405458
-4.3798757 32.855373 15.749004
-4.644814 32.885853 16.567825
-4.4105096 33.226097 17.649355
-4.172255 32.304775 22.43841
-4.447278 32.763752 23.299639
-4.05298 32.2137 28.203836
-3.8298705 33.726067 10.677392
-4.3098216 33.601345 11.720112
-4.466286 33.249165 12.254544
-3.8834472 33.878407 22.337706
-4.403169 33.017895 23.305243
-4.360063 33.309113 27.395235
-3.8951359 34.518665 10.792279
-4.4638934 34.46977 11.702787
-4.4791965 35.054058 20.617691
-4.1522703 35.190105 21.786396
-3.9690685 35.144108 11.018275
-4.18822 35.182106 11.484093
-4.5851374 35.69442 27.052513
-3.8895319 36.14212 11.859385
-4.2740498 36.0731 12.367863
-4.1983805 36.702145 27.384527
-4.059055 38.355736 9.772864
-4.234304 38.281857 10.6085415
-3.9367998 38.136444 11.235817
-3.5649338 37.79273 12.246796
-4.5415306 36.89718 14.5872135
-4.3214407 37.791496 27.888746
-4.2057343 38.84342 9.202931
-4.3309646 38.68359 9.499088
-3.8800383 38.859074 12.275792
-3.76259 38.71258 13.720458
-3.950555 38.497673 14.592141
-4.5326414 38.42688 19.036636
-4.4449587 38.6546 19.125193
-4.395543 38.52514 27.89259
-4.3838844 39.554955 8.87079
-4.072023 39.30967 12.735843
-3.77704 39.640125 14.236879
-3.9623725 39.54582 16.226496
-3.855309 38.834282 17.453491
-3.8295634 38.81915 18.809847
-4.268031 38.905216 19.84247
-4.579869 39.456573 27.396696
-4.261398 39.09799 27.753296
-3.967424 40.684174 8.299799
-4.4734464 40.453716 8.594609
-4.38185 41.13508 13.004302
-3.913829 40.323715 14.567809
-3.9940846 40.284653 15.579005
-3.8819826 41.022564 16.013628
-4.2222013 40.183872 21.318813
-4.4981947 40.463142 25.460264
-4.504957 40.19479 26.558031
-4.288645 39.956593 27.006027
-4.3446693 41.238247 8.342108
-4.6276445 41.48692 8.487394
-4.230292 41.37968 14.374614
-4.198711 41.420563 15.814675
-3.6003256 41.946606 19.206127
-3.692716 40.99916 20.722971
-4.077028 41.483135 21.83866
-4.5484343 41.215775 22.521076
-4.376379 41.779137 24.35853
-3.8993697 41.655956 25.046692
-4.061353 42.33601 8.349016
-4.330085 42.35316 8.566472
-4.5276446 42.627094 11.72122
-3.6011558 42.248432 21.255049
-4.2536235 42.17367 22.841095
-4.2750416 42.547085 23.652647
-4.2663856 42.223526 24.353348
-3.757355 41.82819 25.179049
-4.219627 42.776516 8.950888
-4.479205 43.050217 9.728034
[...]
POINT_DATA 5549
SCALARS features_00 float 1
LOOKUP_TABLE default
0.5980443 0.6026398 0.5360619 0.5462859 0.46733135 0.46295404 0.5326811 0.55103385 0.57165843 0.56882393 0.6022061 0.6203165 0.6389284 0.6216147 0.63645804 0.6563277 0.6873545 0.6910795 0.6204699 0.64005375 0.67184913 0.5761882 0.5989597 0.60959953 0.54103947 0.6128109 0.6372491 0.6206607 0.589092 0.52895844 0.5820302 0.6082833 0.59172595 0.5357204 0.43943226 0.49925148 0.51646686 0.5315392 0.43281078 0.31939307 0.39685318 0.3844859 0.45275772 0.46714187 0.47156045 0.43118414 0.39429885 0.43526864 0.5164317 0.39726794 0.4204469 0.38067764 0.35459343 0.40217113 0.45999983 0.5399505 0.3564128 0.41111863 0.56282806 0.43658602 0.50840634 0.7033856 0.66155106 0.7406349 0.7076854 0.6552775 0.74583596 0.72303796 0.39717484 0.3597864 0.3437677 0.4486686 0.42818093 0.41644296 0.4377318 0.39644232 0.48523402 0.50420207 0.4680802 0.46398142 0.49911773 0.547876 0.6312402 0.6116315 0.5519445 0.5888902 0.67358553 0.65181255 0.58045447 0.6055915 0.6358923 0.6953938 0.67829037 0.5652826 0.59085023 0.63526404 0.610096 0.6307556 0.5855882 0.54869306 0.5459251 0.53360206 0.43410587 0.45054153 0.45167333 0.4175247 0.3565634 0.27982348 0.49244425 0.37871075 0.32399204 0.19273168 0.3399558 0.46784174 0.5448558 0.48946956 0.56474763 0.52172744 0.1626724 0.16507399 0.29953128 0.5409145 0.39813253 0.38810328 0.43346635 0.5752808 0.5433453 0.25149363 0.48229134 0.3814625 0.36212036 0.36397284 0.4515381 0.22062206 0.10066248 0.30034885 0.3623305 0.3362261 0.31223112 0.30286893 0.36098808 0.16122353 0.3441183 0.22574948 0.29999378 0.18468802 0.1008114 0.51767427 0.54064935 0.32034153 0.31420648 0.38451618 0.2828863 0.112547494 0.6886624 0.71345544 0.53355545 0.5025792 0.38800406 0.27494496 0.07645762 0.07353175 0.059354175 -0.0016910806 0.232153 0.6951685 0.7407048 0.60308623 0.6035351 0.525393 0.3608506 0.27685398 0.058461428 0.14535163 0.21860082 0.32070243 0.43389824 0.53988504 0.6669935 0.67171454 0.6946554 0.5743986 0.57344383 0.15925092 0.21938388 0.27588943 0.26658592 0.39956403 0.53753996 0.60860276 0.7379253 0.7272475 0.5261465 0.22376357 0.12381582 0.27645814 0.31727654 0.4071629 0.75183886 0.75446635 0.69758534 0.65221703 0.32634607 0.28859335 0.26921865 0.22900538 0.44337758 0.73619455 0.71414495 0.3881322 0.35794654 0.48840263 0.4556659 0.46381718 0.53436077 0.57483035 0.45327976 0.4845292 0.6202705 0.48858947 0.5306888 0.6346395 0.6063508 0.48340976 0.52221787 0.5587611 0.6241033 0.62843823 0.5473096 0.6043055 0.6711011 0.6892239 0.53215015 0.60279846 0.6389861 0.5982591 0.40713173 0.4577626 0.46203583 0.3882212 0.4411617 0.43764964 0.33285874 0.40054515 0.30805597 0.639886 0.76059204 0.3342964 0.33302417 0.6693579 0.75571954 0.7911208 0.39547765 0.38692787 0.3447623 0.28763044 0.291865 0.3936422 0.3913763 0.20439631 0.13953435 0.73374355 0.3591778 0.39760166 0.40276793 -0.022357516 0.1098583 0.517066 0.32658917 0.36538684 0.104141146 -0.1313514 0.29981655 0.31376642 0.4998092 0.19822598 0.1960041 0.5891802 0.47942522 0.42158836 0.24027103 -0.11122789 0.12924492 0.7110827 0.50665617 0.514341 0.013776913 -0.25594234 -0.26331842 0.0010426864 -0.027625062 0.74963224 0.5527061 -0.07409625 -0.17896943 -0.179755 -0.095745176 -0.07183802 -0.08804298 0.7081387 0.73980534 0.5667429 0.6027626 -0.09000301 -0.113223016 -0.13224603 -0.1569481 0.02985842 0.3637731 0.5535644 0.6482801 0.6569717 0.6971111 -0.055459924 -0.078120485 -0.17279379 -0.0094806105 0.1609876 0.24655135 0.45181894 0.45231038 0.67677456 0.69860876 0.44971848 0.14479503 0.38614932 0.51667064 0.51637405 0.48709178 0.683156 0.67927825 0.652127 0.17920005 0.5272186 0.5610362 0.5868011 0.39429608 0.35285914 0.46942198 0.40609705 0.46225852 0.41683668 0.40913665 0.4585995 0.5739863 0.5306816 0.4266429 0.45422298 0.5031912 0.6079127 0.58185124 0.51312137 0.5702385 0.65446043 0.6409256 0.6400621 0.48601615 0.5535184 0.67606866 0.65535927 0.6384039 0.46245503 0.6102233 0.5774845 0.3672367 0.60421765 0.61226165 0.5557576 0.3783902 0.4482593 0.72794557 0.5880142 0.6161016 0.5836252 0.33870578 0.7596002 0.77626157 0.53719014 0.3476345 0.29278198 0.09914614 0.7784512 0.30909857 0.363133 0.3715235 0.22127856 0.18413183 0.12793063 0.13850813 0.020094324 0.7152648 0.75185716 0.3246951 0.35842854 -0.056417957 0.6059959 0.24729832 0.39452642 0.18894312 0.41356218 0.09936442 0.56163216 0.33882943 -0.15797226 -0.22548625 0.6656568 0.4149624 0.7067269 0.41620946 0.42677268 0.6715635 0.70166546 0.48294544 -0.19528201 -0.2712819 0.52873236 0.63188964 0.627504 -0.24415177 -0.1944857 0.64620906 0.6490607 -0.22823542 0.056997016 0.14829703 0.5866946 0.6307833 0.5845859 0.4504107 0.25059354 0.48699775 0.60106933 0.60870206 0.6023947 0.6056492 0.045659903 0.11053504 0.29269463 0.2969138 0.29197255 0.47165322 0.42670617 0.5638877 0.51198864 0.5038936 0.6041397 0.582648 0.6104579 0.6097195 0.59242034 0.39980888 0.45547965 0.59293854 0.43754375 0.3819703 0.35948318 0.5728314 0.48726425 0.509693 0.525259 0.44952053 0.32466465 0.49731573 0.33724314 0.51576006 0.5754763 0.46381938 0.3177806 0.31085825 0.6145833 0.64926684 0.5258498 0.5521599 0.47950995 -0.12468904 -0.049149483 -0.03672027 0.6946094 0.73754644 0.46116328 0.47097486 0.5064155 0.17250162 0.21774012 0.2088407 -0.02885737 0.73919904 -0.15141726 -0.32590652 0.6666176 0.7045958 -0.030374933 0.57471883 -0.046187676 0.13483413 0.3145404 -0.040156383 0.30155942 0.042550296 0.41499832 0.21524438 0.17397097 0.5034563 0.57881117 0.2929796 0.5563231 0.62476635 0.3432001 0.326687 0.5896305 0.64318264 0.48426485 0.44387603 0.5383495 0.5054094 0.44225594 0.5628005 0.57583606 0.5214075 0.59293777 0.5891688 0.59080553 -0.1383695 -0.20377542 -0.092260286 -0.07339995 0.34949103 0.5510037 0.5978965 -0.028990919 -0.09112206 -0.032593537 -0.095824756 -0.08892718 0.2631994 0.60420775 0.5045881 0.5687779 0.56255215 0.60907006 0.57473737 0.6147348 0.40525305 0.5324287 0.5695605 0.57281125 0.38976273 0.36060098 0.34984058 0.33297956 0.2422759 0.55197805 0.40953338 0.41813356 0.41483456 0.38774723 0.35325557 0.31957918 0.2555161 0.24459428 0.22236279 0.45276207 0.42553222 0.45024297 0.22682548 0.18228818 0.14871402 0.21691062 0.24526645 0.22523527 0.075277336 0.3249774 0.43817267 0.49152508 0.17560478 0.028114332 0.18665868 0.20649843 0.1805697 0.19355614 0.46571544 0.46890116 -0.044163007 0.09768891 0.12628448 -0.058615275 -0.04661011 -0.047580186 -0.045738455 -0.15584654 0.60941136 0.67325926 0.3285806 0.2995991 0.60384834 0.6732354 0.0393247 -0.053240146 0.5926213 0.6353251 0.2741717 0.18120074 0.074885644 -0.052954577 0.42565012 0.31506872 0.26720977 0.1789079 0.02491229 -0.049615175 0.25374728 0.2558538 0.13872345 0.043386195 -0.029612068 0.32452962 0.07582294 0.28580353 0.3956131 0.20208609 0.31543177 0.44968906 0.26963523 0.24427643 0.31219497 0.2657095 0.28694445 0.46217537 0.48721105 0.5105072 0.58565575 0.5515095 0.34968948 0.42324513 0.4696285 0.52166903 0.5841074 0.61413884 0.5635826 0.2634606 0.5096081 0.4340124 0.49167222 0.5886611 0.6266484 0.61428535 0.53549874 0.55506825 0.5429386 0.5829079 0.39012975 0.46043545 0.5043083 0.0018522306 0.018957004 -0.04842899 -0.08720002 -0.18621488 0.39889705 -0.06421068 -0.05912248 -0.15298724 0.2662508 0.4480927 0.45278925 0.38403648 0.2974005 0.09286299 0.025924925 0.047236435 0.07751934 0.123243384 0.38243482 0.50919914 0.43840718 0.43397737 0.38508093 0.13465634 0.11655314 0.33222944 0.501214 0.53015494 0.3874287 0.37963647 0.30510688 0.15717468 0.12028908 0.12745725 0.2699365 0.4173439 0.5887271 0.127343 0.31681836 0.5760832 0.6253781 0.62206686 0.5870342 0.57675076 0.6147045 0.38749412 0.3053549 0.45270342 0.45716137 0.4080003 0.4112141 0.36912987 0.3327521 0.32210794 0.32873577 0.3074951 0.15825471 0.40610456 0.41073987 0.38146806 0.4050976 0.26814544 0.26010287 0.26828843 0.26395518 -0.109136954 0.021557383 0.37877217 0.33766142 0.3924883 0.2594669 0.22298345 0.18443191 -0.14086667 0.28527758 0.34255284 0.3841809 0.1290045 -0.15902862 -0.27410734 0.14077376 -0.07616178 0.12169188 0.40323368 0.5039019 0.30128193 0.32583225 0.5124663 0.33108953 0.40425542 0.50676745 0.44877076 0.35494468 0.2522337 0.38154596 0.4656777 0.45214874 0.36891586 0.34679776 0.23990948 -0.23489022 -0.21277711 -0.06093031 0.27244693 0.11390777 -0.2139947 -0.008082464 -0.1461799 0.005614694 0.05303797 0.039015803 0.2036345 0.22080904 0.37147665 0.3788932 0.18158603 0.2026815 0.2652485 0.37707672 0.4415505 0.46725178 0.4250983 0.2319192 0.37105688 0.30495012 0.40062493 0.43961003 0.44883102 0.39026934 0.42116264 -0.041818604 0.3970648 0.4757622 0.3296535 0.34532565 0.44541562 0.5172048 -5.06714e-05 0.28303778 0.36457342 0.5152492 0.44856462 0.3592682 -0.078959614 -0.05197005 0.07369066 0.23985353 0.54069203 0.4778128 0.36491585 0.16438666 0.07413621 -0.095975935 0.12754554 0.51624286 0.45965007 0.30550244 0.27517033 0.34243652 0.16281807 -0.0628839 0.058756568 0.13477693 0.34046462 0.25359258 0.3318078 0.37836957 0.28156707 0.36521387 0.26346654 0.33430284 0.43127775 0.27853516 0.32244033 0.28803545 0.1673807 0.08076148 0.08635651 0.10500137 0.18863899 0.56197846 0.5222833 0.13305837 0.140396 0.42345545 0.5131165 0.54378235 0.54377675 0.17323028 0.19085072 0.23468147 0.40221283 0.4618433 0.5035311 0.39833775 0.40061164 0.3327387 0.27511853 0.33050004 0.31539857 0.2993723 0.32880095 0.37798026 0.33947697 0.36000693 0.3917827 0.3167965 0.33020532 0.3217842 0.29426515 0.21172017 0.19654934 0.29875928 0.33806187 0.26449028 0.2606994 0.20462233 0.12749179 0.029878067 0.24680835 0.32135525 0.304914 0.20388748 0.12753652 -0.03445749 -0.20928031 -0.23410451 0.19422327 -0.1884762 -0.23577225 0.2887146 0.019794919 0.1122258 0.11118138 0.40484267 0.26045695 0.29236668 0.43230307 0.43840683 0.45758772 -0.24282053 0.45358145 0.42596132 -0.2290384 0.37422848 -0.23412023 0.16350503 -0.23249221 -0.1518998 0.33842513 0.3338864 0.27490392 0.18010361 -0.3114442 0.33090317 0.27567053 0.17900905 0.05284196 0.13001564 0.23798749 0.26662692 0.2888048 0.3019068 0.09556584 0.028020406 0.12016369 0.22537598 0.060772493 0.03184944 0.08336632 -0.14564386 0.25596663 0.21921523 0.21260121 0.30241567 -0.038021855 0.21879247 0.36742422 0.3115298 0.2968981 0.24178189 0.27530506 0.4971046 0.45996714 0.3491383 0.22752921 0.38743332 -0.38111347 -0.26022193 -0.13054895 0.056202747 0.23307934 0.5588809 0.52780825 0.28809232 0.20823392 -0.24469344 -0.0262252 0.6100911 0.57174444 0.14302355 0.18279812 0.10058571 0.63210213 0.5716404 0.5080672 0.40820783 0.22485107 0.29027966 0.2054897 0.113720626 0.10016899 0.63909453 0.60923743 0.51082456 0.39959118 0.3429895 0.6748934 0.5900299 0.39634293 0.39694345 0.2288104 0.45012158 0.35452825 0.044814423 0.43994454 0.055062246 0.1377739 0.49338126 0.4715789 0.44011763 0.15586454 0.15133926 0.20768096 0.19917949 0.18365367 0.20353751 0.24208757 0.33608037 0.39276627 0.44455978 0.24833664 0.2583141 0.29362956 0.23438832 0.31219813 0.4458784 0.46845773 0.5434855 0.5488012 0.347085 0.25449982 0.21905051 0.22914258 0.2690506 0.29774806 0.29321772 0.31597874 0.37295556 0.43372798 0.48673022 0.39144778 0.26934248 0.3168434 0.28967234 0.2843762 0.20484805 0.123381376 0.18030833 0.21002997 0.22513671 0.23579775 0.18865666 0.0356506 0.19408122 0.22868057 0.041497774 0.26256144 0.22543842 0.2690232 0.17520404 0.12969376 0.34063902 0.33861667 0.3171115 0.39686835 0.4039732 -0.13152172 0.41419244 0.4344325 0.32021493 -0.25743112 0.07516281 0.3443873 0.3254657 0.27569243 0.20204452 -0.025429696 -0.3299443 -0.25336298 0.3397739 0.33466107 0.06615715 -0.33427048 -0.360902 0.31474605 0.3244614 -0.055626065 -0.41223112 -0.32864767 0.28012443 -0.09749511 -0.11534858 0.20422566 0.03176879 -0.085170016 -0.21307859 -0.3593833 0.25634104 0.23218438 -0.020191304 0.47500303 0.39736447 0.5814358 0.55714583 -0.33513334 -0.080570996 0.6547079 0.6219705 0.015304148 -0.17517762 0.006603524 0.7274707 0.6880909 -0.016324993 0.051102284 0.7529019 0.71772635 0.6795459 0.24943116 0.208467 0.768224 0.74539113 0.72252524 0.34692276 0.39782518 0.42455056 0.43573412 0.4008583 0.07201209 0.44080806 0.44633102 0.37973535 0.079411834 0.37698144 0.4264483 0.24705446 0.2545686 0.38359904 0.49121425 0.3066955 0.29520452 0.27876186 0.6145917 0.49259466 0.4055049 0.38901123 0.31726518 0.29020298 0.64019775 0.5760093 0.62239134 0.65594596 0.11923408 0.46921337 0.5252407 0.58508575 0.62128353 0.6030786 0.14913346 0.11674005 0.10688351 0.25408703 0.3751835 0.18616909 0.21573022 0.11035151 0.33163387 0.13271245 0.1477073 0.091220275 0.14041692 0.21676162 0.19429524 -0.091949895 0.18506396 0.270665 0.25535274 0.31176198 0.32078457 0.2810275 0.33056322 0.19487007 0.21064194 0.43475217 0.33827636 0.39923793 0.37309995 0.21093358 0.28880996 0.37520903 -0.065216176 0.31855267 -0.044202972 0.31821507 -0.41890374 0.3090469 0.3141861 -0.0440531 -0.40981418 -0.40431523 0.27082175 -0.106695674 -0.6683204 -0.37161002 0.106306665 -0.11579218 -0.32518286 0.15047471 -0.203011 -0.056850716 0.23863046 0.19157289 0.3880989 0.28999162 0.07210215 0.41808355 -0.18151915 -0.008263089 0.5614168 0.51164865 -0.03782689 0.682922 -0.043782383 0.7893423 0.0064601153 0.81832886 0.79142725 0.24654433 0.80179775 0.7767414 0.38799644 0.3682541 0.78086036 0.7338754 0.42492476 0.41470036 0.42451298 0.39973465 0.39814845 0.41084266 0.43587297 0.3673969 0.30913386 0.39786196 0.102100454 0.6580513 0.26302692 0.19838838 0.7403406 0.68663394 0.34024763 0.30280355 0.2848284 0.24473394 0.78424764 0.74518085 0.6719227 0.60381347 0.48149496 0.35068423 0.78873384 0.722426 0.6977154 0.46221668 0.36211926 0.5274764 0.5869486 0.66696984 0.68947905 0.30194545 0.34167337 0.50040865 0.49823248 0.49588013 0.6655928 0.63126504 0.15880018 -0.0026938058 0.4099104 0.45232433 0.4278399 0.3113491 0.2997351 0.49416438 0.49915522 0.1608813 0.08439472 0.23561633 0.1554734 0.23284578 0.18385595 0.24493912 -0.216111 0.21954754 0.26155442 0.3148917 0.26772293 0.29611534 0.33065712 0.27953374 0.32218736 0.30433863 0.37616482 0.38782626 0.38434988 0.3891208 0.405941 0.16442768 0.39523014 0.0022633485 0.06686612 0.03855585 0.015702102 0.10146423 0.018654663 0.15004887 0.15389472 -0.16095643 0.23169711 -0.54153776 -0.30143908 -0.025081828 0.02406003 0.06515482 0.018968226 0.13453808 -0.005315356 0.280397 0.21645588 0.24586287 0.3506789 0.22320175 0.42522335 0.070193306 0.17495467 0.5939651 0.5123656 0.70719314 0.028165214 0.7879175 0.119735576 0.8168005 0.7513607 0.10805539 0.7649236 0.70891166 0.5945572 0.3781585 0.72710264 0.4008686 0.37434107 0.26597142 0.29561567 0.11101131 0.025748054 0.7775177 0.16476558 0.8347037 0.30982184 0.2563353 0.22046807 0.85491824 0.83909917 0.6164841 0.54310656 0.33544335 0.8309634 0.7736918 0.68127465 0.515669 0.5200722 0.4874802 0.49698132 0.50144815 0.49795848 0.45989013 0.4658175 0.44438487 0.35466823 0.48587155 0.53737026 0.6417905 0.6887993 0.3666698 0.48428005 0.5304557 0.5252701 0.46338975 0.39359778 0.45027846 0.67310673 0.6438763 0.3854723 0.45264113 0.4400276 0.2462369 0.5285996 -0.23560403 -0.19519334 0.16865243 -0.36296678 0.285578 0.17785065 0.22708118 0.3180722 0.24047634 0.2602488 0.26083842 0.30832672 0.08524276 0.2798418 0.32970634 0.34516397 0.16773005 0.2879724 0.36486417 0.37260568 0.21952939 0.023739712 0.32097906 0.23213151 0.109537035 0.078168295 -0.004601448 0.054666363 0.07323128 0.12885717 0.11483002 0.014219863 -0.10352817 -0.039702103 0.06653027 0.025870573 0.0068685636 0.007856771 0.13624501 -0.011444969 0.19292414 0.23000395 0.28312877 0.21675253 0.42952004 0.34061736 0.17742091 0.52694064 0.06694214 0.7035601 0.625016 0.7422823 0.6571828 0.19115487 0.7616192 0.6760857 0.4681114 0.29115483 0.13733572 0.16624917 0.18558301 0.69858205 0.5521639 0.49787724 0.117586896 0.1323746 0.044693217 0.04743077 0.20700346 0.20876661 0.10813816 0.2852866 0.32171366 0.30748838 0.032129355 0.113654315 0.21497236 0.6701352 0.8534511 0.3585017 0.2616352 0.8607929 0.8457689 0.6775801 0.54315877 0.8400683 0.8028823 0.7094929 0.50913167 0.53098935 0.55054283 0.53308004 0.44312218 0.4945491 0.50670063 0.48798633 0.39368603 0.41991055 0.46026644 0.30516785 0.2563069 0.5138526 0.47702605 0.40532088 0.50304496 0.5921039 0.66974425 0.24042642 0.08427027 0.52152365 0.5412805 0.4089824 0.28200212 0.11802393 0.36944866 0.41862044 0.5771307 0.6469766 0.17658773 0.113827154 -0.04630218 0.3668891 0.46964064 0.46004045 0.5472348 -0.032944478 -0.016306084 -0.0857041 0.29689473 0.29827672 0.05154779 0.08517486 0.08677388 0.104747996 0.08500611 0.14341202 0.11883771 -0.21521112 0.02236981 0.18526906 0.26661748 0.19567987 0.050199866 -0.05116555 0.31830823 0.14328505 0.01717168 0.11755638 0.02672588 -0.1674145 -0.1387054 0.20967485 0.11816224 0.076715246 0.18230689 0.24797894 0.152878 0.052942596 0.16617104 0.22641724 0.22257343 0.17406736 -0.035388157 0.0819875 0.1980417 0.3075955 0.075828254 0.12085527 0.23840305 0.13485745 0.20150807 0.18357354 0.17130615 0.2815615 0.19801065 0.10112544 0.33497453 0.33699563 0.54660714 0.12407795 0.6120992 0.42283478 0.31090927 0.20813593 0.16876477 0.3992326 0.24909432 0.1644848 0.13153744 0.19882718 0.14170378 0.14334121 0.11302734 -0.08312648 0.05148668 0.11932084 0.14369258 -0.19233312 0.009265907 0.36152872 0.15301284 0.17155914 0.44132173 0.4651001 0.2388984 0.6253803 0.24004513 0.1903026 0.25245124 0.26968065 0.7486792 0.7357372 0.38346037 0.8111143 0.8094112 0.77052337 0.65619814 0.46627006 0.8198063 0.79757106 0.74230593 0.57952315 0.5962955 0.5578488 0.48387706 0.5554588 0.5731038 0.53222585 0.4757153 0.48148113 0.38609052 0.2953223 0.40576437 0.1496647 0.43995577 0.3832526 0.27424785 0.039571796 0.011536139 0.48282766 0.35887855 0.21926466 0.12419805 0.29002014 0.08244906 0.434716 0.3822994 -0.037447385 -0.0718856 -0.103513665 0.06631908 0.088849194 0.11936893 0.099586874 0.067590445 0.017490938 -0.45559222 -0.038947687 -0.26425156 -0.12864825 0.13533604 0.053204007 -0.15721539 0.115972385 -0.020486284 0.24773356 0.2787959 0.15607199 0.124442324 0.28146452 0.21479028 0.24673721 0.35285312 0.17330103 0.40730157 0.38599765 0.12680507 0.39026254 0.04385057 0.03754768 0.3619538 0.08010729 -0.1661621 0.13876463 -0.37603125 0.17393322 0.2971751 0.3138045 -0.014049135 0.107824326 0.1791156 0.3279996 -0.067774266 0.10942967 0.37526456 0.34245408 -0.003863182 0.0026499592 0.30898178 0.26083475 0.14691198 0.12359696 0.08865063 0.17659259 0.1744141 0.17351879 0.1370195 0.035180107 -0.2412535 0.108009115 0.14800546 -0.13930953 -0.1093722 0.042778082 0.09821974 -0.12736359 -0.16870564 -0.061042774 0.16962811 0.45749474 0.4107319 0.41549158 0.06657278 0.106733344 0.23762971 0.20069699 0.5641089 0.566825 0.41264933 0.26454467 0.22528303 0.29339397 0.28417182 0.25100726 0.6651634 0.70067143 0.2778802 0.28888172 0.71942914 0.47334605 0.5765533 0.61425626 0.5657037 0.49697617 0.3920739 0.4414808 0.45184672 0.37345493 0.35894507 0.2766958 0.3077462 0.16470337 0.43573624 0.14127874 -0.075077444 0.38817173 0.40965664 0.41922164 0.3348287 0.25874603 0.17444432 0.014215678 -0.3330342 0.01866129 0.049085654 -0.2867808 0.035377294 -0.28375402 0.09549357 -0.15950903 0.05500176 0.12054694 0.076378085 -0.11637232 -0.03250867 -0.20722549 -0.45084968 -0.11917258 -0.11482719 0.31818175 0.08581731 -0.3112175 -0.5176966 0.21640155 0.093339026 -0.13487145 -0.046409212 0.046105143 0.10719862 0.0024703592 -0.07955281 0.12517482 0.036472593 -0.0058523566 0.1972467 0.2645758 0.15022606 0.118684985 0.29298076 0.26320827 0.24875814 0.39636406 0.3542907 0.16250971 0.4337176 0.12874345 0.45587733 0.4327227 0.48537636 0.08493894 0.30128044 0.26446444 -0.08636961 -0.28946903 -0.26827526 0.2119787 0.21128407 0.24503016 0.24325936 -0.23775283 0.2359412 0.29533395 0.2748227 0.3346639 -0.016049922 0.06553207 0.11068063 0.3005746 0.20278317 0.12844948 0.10534618 0.12289492 0.12872915 -0.21448979 -0.17056157 -0.120553456 0.061625414 0.114070855 -0.11037457 -0.053726684 -0.25495213 0.10420178 0.011525076 0.2363178 0.18101808 0.08456552 0.23407698 0.27724636 0.2683561 0.25007018 0.27969176 0.47203487 0.5259067 0.5619068 0.54768527 0.49677217 0.4620197 0.42869192 0