# vtk DataFile Version 2.0
Really cool data
ASCII
DATASET POLYDATA
POINTS 5750 float
-16.540005 49.10805 41.60459
-16.573126 49.436348 41.74584
-16.559826 49.502373 42.086033
-16.522467 50.140564 41.528534
-16.54419 49.92512 41.996605
-15.667943 46.213253 37.28791
-15.724233 46.672966 36.89387
-15.846429 46.75386 37.49623
-15.712945 46.727203 38.137714
-15.697369 47.291122 36.822
-15.857106 47.277676 37.61349
-15.78336 47.248764 38.076252
-15.949854 48.291103 41.471
-15.902667 48.308178 42.063213
-15.643937 47.78757 37.061764
-15.662278 47.895798 37.30191
-15.641395 48.344685 38.513718
-15.998992 48.653366 40.87419
-16.290833 48.72922 41.586555
-16.242643 48.818764 42.328648
-15.971676 48.993935 42.80936
-15.86448 49.22593 39.901783
-16.4408 49.5788 41.016106
-16.518305 49.547592 41.27365
-16.377872 49.462162 42.479755
-16.06351 49.370396 42.823887
-15.874374 50.14579 39.985626
-16.235344 50.42617 40.777615
-16.42896 50.47695 41.525074
-16.324062 50.335133 42.32693
-15.947562 50.32783 42.78546
-15.673079 50.98003 40.140022
-15.930303 51.168587 40.772854
-16.099539 51.30698 41.61244
-15.92455 51.381313 42.247913
-15.770947 51.046345 42.712444
-15.79442 51.723957 41.4613
-15.761799 51.717884 42.126163
-14.535939 39.79868 32.376156
-14.511419 40.061676 31.97757
-15.18615 45.911575 36.742455
-15.164057 45.861755 37.250893
-15.349043 46.135788 37.88417
-14.967534 46.52021 35.8558
-15.486115 46.5992 36.519444
-15.358202 46.55714 38.4046
-15.115131 47.265903 36.069485
-15.573095 47.40886 36.709293
-14.813298 47.71095 40.782738
-15.714847 48.17421 41.78134
-15.600477 48.262207 42.222168
-15.088754 48.20334 36.76268
-15.298552 48.313206 37.476746
-15.593441 48.47103 42.561054
-15.490944 48.845573 42.865196
-14.956063 48.90679 37.708088
-15.177326 49.447052 38.82887
-15.471069 49.507023 43.050518
-14.994561 50.503674 38.989086
-15.331811 50.755733 39.435837
-15.349988 50.36705 43.029507
-14.827095 51.009388 39.182568
-15.233001 51.03164 39.699844
-15.463025 51.495438 40.540142
-15.542555 51.58112 42.537086
-15.334096 51.3068 42.78962
-15.304999 51.902756 40.971626
-15.345982 52.00809 41.603767
-15.413891 51.841686 42.277496
-15.191919 51.68978 42.628113
-13.8573475 38.302635 32.335068
-13.659345 38.234882 33.460976
-13.78458 38.84011 31.229298
-14.092861 38.923077 31.617662
-14.190787 38.855453 32.334877
-13.950389 38.71867 33.431362
-13.731623 38.788376 34.192253
-13.902594 39.545155 30.929317
-14.281623 39.548088 31.53965
-14.423821 39.566963 32.406483
-14.234637 39.525917 33.12392
-13.825881 39.45923 33.959385
-13.855116 40.58022 30.770248
-14.306276 40.386818 31.54106
-14.40135 40.22458 32.22061
-13.991523 40.301624 33.29424
-13.712052 40.18227 33.7716
-13.860906 41.368713 30.768137
-14.037158 41.32829 31.3784
-14.016759 41.106457 32.356857
-13.735229 42.054962 31.20228
-13.824507 41.78284 32.246143
-14.128646 45.132095 35.83777
-14.231154 45.151127 36.376053
-14.167989 45.419632 37.546055
-14.334941 45.75133 35.279686
-14.375586 45.410458 35.674576
-14.1460495 45.565754 37.536247
-14.487774 46.04466 38.466976
-14.31188 46.182224 35.174595
-13.785744 47.29266 41.2164
-13.908356 47.281376 35.158195
-14.494026 47.006596 35.45878
-14.16827 47.81977 41.9999
-14.240786 48.14744 35.97718
-14.594972 48.41689 36.5673
-14.7305155 48.643032 42.792934
-14.229949 48.973248 36.926258
-14.349071 49.226543 37.65982
-14.615889 49.553383 43.061275
-14.680472 50.615826 43.04647
-14.39199 51.048462 38.949154
-14.223029 51.499542 39.440598
-14.294415 51.66861 42.609875
-14.50686 51.30113 42.83993
-14.31126 51.742996 39.86714
-14.64269 51.984875 40.805984
-14.756775 52.136154 41.62418
-14.690705 51.99318 42.195045
-14.900541 51.70831 42.678146
-12.739299 28.305037 42.115643
-12.910443 28.26338 42.645447
-12.978925 28.200165 43.42436
-12.875275 28.29623 43.946163
-12.858041 29.163431 41.234417
-12.879333 28.806053 41.677406
-13.223968 28.712542 42.619247
-13.315567 28.662817 43.364643
-13.085732 28.75049 44.089382
-12.776917 29.571863 41.066555
-13.15878 29.494398 41.761414
-13.388189 29.402697 42.64566
-13.427844 29.324215 43.49083
-13.127631 29.374498 44.1037
-12.79034 29.975248 41.069683
-12.911491 30.225595 41.62177
-13.08811 30.15781 42.527794
-13.066016 30.113512 43.426388
-12.896558 29.966272 44.074814
-12.751875 30.623075 42.50015
-13.058593 38.244087 31.079329
-13.434563 38.125904 31.782465
-13.537096 38.161156 32.368233
-13.131927 37.72365 33.485363
-13.275185 38.005806 34.132725
-13.446512 38.82298 30.855116
-13.670108 38.446526 31.746416
-13.370189 38.484783 34.492176
-13.090404 38.524128 34.80654
-13.009823 39.49294 30.162395
-13.493882 39.62499 30.533304
-13.590627 39.099533 34.579784
-13.199247 39.3994 34.79889
-13.220789 40.62967 30.036474
-13.444748 40.718376 33.608635
-13.148031 40.28539 34.43788
-13.29437 39.85197 34.700565
-12.7063055 41.761658 29.142214
-13.188067 41.536655 29.930399
-13.143129 41.345345 33.340233
-12.585189 42.37784 28.833424
-12.87632 42.327557 29.622116
-13.372288 42.235996 30.575802
-13.309094 42.5099 31.589668
-13.091303 43.16943 31.117714
-12.818861 43.48692 32.594646
-13.070602 44.434193 31.999409
-13.125813 44.731373 32.8041
-13.020797 44.774467 33.71308
-12.972145 45.15362 33.92728
-13.461836 44.870358 36.54101
-13.260629 45.028812 37.23208
-12.768164 45.32756 30.806679
-13.123977 45.475643 31.660486
-13.20075 45.805515 32.379375
-13.209208 45.617516 33.22397
-13.650016 45.473026 34.778904
-13.260663 45.70889 38.609425
-12.925055 46.13291 39.95315
-12.790405 46.357586 41.295395
-12.847931 46.066303 31.10063
-12.970615 46.40808 31.732779
-13.204436 45.964382 32.8225
-13.308729 46.657043 34.62979
-13.059976 46.724552 41.536114
-13.2238655 47.048206 41.85505
-12.75501 46.796875 31.947762
-13.247647 47.289864 35.00141
-13.240459 47.674854 42.187935
-13.338969 47.814743 35.274364
-13.581607 48.299324 35.76963
-13.5095625 48.872513 42.62653
-13.344444 49.018528 36.56961
-13.414841 49.369076 42.946213
-13.825596 50.63096 38.53513
-13.062181 50.688877 42.806328
-13.512637 51.159756 38.66333
-13.063933 50.973793 42.481144
-14.054342 51.233166 42.80382
-13.522142 51.67746 39.118084
-13.286533 52.031456 40.26093
-13.984841 51.817856 42.301807
-12.344711 28.233679 41.78352
-12.273644 27.867956 42.655544
-12.311397 27.85519 43.44586
-12.439979 28.151451 44.088646
-12.4379425 28.872345 41.11147
-12.233355 28.487162 41.380653
-12.569284 28.585596 44.40646
-12.252553 28.707022 44.615704
-12.260275 29.608917 40.72648
-12.655102 29.136202 44.578266
-12.513384 30.196815 40.949688
-12.576065 30.446531 43.711502
-12.328224 30.24056 44.38373
-11.872219 29.947931 44.883286
-12.320808 30.784788 41.774246
-12.392021 30.831749 42.616596
-12.459047 30.717796 43.44096
-12.041642 30.786995 44.07911
-11.588252 33.066082 37.240612
-11.605454 33.616634 36.752926
-11.599863 33.444675 37.268536
-11.572819 34.085186 36.240185
-11.602456 34.063972 37.121025
-11.83812 37.096893 32.125923
-12.213543 37.008537 32.62354
-12.158913 36.798775 33.62354
-12.328742 36.923447 34.00818
-11.869634 37.245464 34.760548
-12.503999 38.209614 30.76206
-12.468912 37.635235 31.760742
-12.296197 37.388775 34.541656
-12.266724 37.814472 35.025356
-12.503524 38.948006 30.118252
-12.681034 38.536743 30.523815
-11.756914 38.29978 35.51362
-12.472029 39.761665 29.700638
-12.425397 39.378693 35.188644
-12.062115 40.705044 29.019403
-11.888354 40.220913 35.2782
-11.951148 42.04405 28.153364
-12.326933 41.750904 28.686974
-12.317681 41.513245 33.965637
-12.054298 42.36075 28.227
-12.371306 42.566074 28.58327
-12.223482 43.157593 28.65403
-11.965189 43.964394 28.855164
-12.606191 44.91836 35.784138
-11.999468 44.68225 36.36868
-11.833908 44.518795 37.245285
-11.792995 45.10354 29.208336
-12.047294 45.055065 29.66231
-12.565105 45.69265 30.516207
-12.552898 45.391113 38.804092
-12.207543 45.79513 40.508293
-12.4056015 46.07604 41.125168
-11.861152 46.263844 30.167416
-12.5704365 46.83768 42.104137
-12.177713 47.182774 31.533676
-12.159659 47.270206 32.450737
-12.273207 47.50314 42.497463
-12.370146 47.76494 42.552464
-12.630104 48.109097 35.09938
-12.355285 48.529694 35.34717
-12.372517 48.634747 42.732082
-12.467394 48.912434 35.75774
-12.53442 49.17876 36.47297
-12.318293 49.365517 42.86475
-12.646234 49.737732 37.6028
-11.679265 50.942524 37.587337
-12.140159 51.412636 42.169193
-11.886491 52.307884 38.01746
-12.59563 52.242115 38.99372
-12.33516 52.390896 39.193962
-11.724384 53.137993 38.484146
-11.941741 53.125587 39.46715
-11.773204 53.07628 40.303223
-10.946465 27.451286 42.43035
-10.88167 27.389568 43.589844
-11.362574 27.820623 41.91102
-11.782315 27.809542 42.308853
-11.579087 27.597843 43.48921
-11.423883 27.810774 44.077446
-11.915064 29.058144 40.70068
-11.681857 28.326195 44.537834
-11.403476 28.768063 44.83641
-11.7717085 29.596077 40.640133
-11.357086 29.692543 45.158424
-11.055771 30.692785 45.28945
-10.915265 32.420567 37.281235
-11.768954 30.899597 41.602535
-11.153944 31.176094 42.466866
-11.514321 31.42588 43.77425
-11.307622 31.329351 44.75176
-10.992566 31.341972 45.177586
-10.970105 32.830833 36.04043
-11.241215 32.85897 36.56226
-11.283546 32.82872 37.390194
-11.223462 33.014874 37.941166
-10.619255 32.45947 43.99461
-10.791869 32.18322 44.41141
-10.903234 33.930996 35.044014
-11.180758 33.592102 35.69504
-11.524989 33.652878 37.5424
-11.265519 33.542957 37.965668
-10.899105 34.527058 34.758915
-11.301265 34.32164 35.61502
-11.449602 34.642487 36.81791
-11.465596 34.131577 37.50167
-11.167157 34.452637 37.757202
-11.385711 36.355434 33.521885
-11.30123 35.19955 35.867897
-11.403192 34.900497 36.689106
-10.986767 35.19083 37.366737
-10.698693 35.165554 37.993286
-11.480335 36.68646 32.59086
-11.032392 36.479725 35.086475
-10.842369 36.183144 36.84707
-11.57581 37.56179 31.44528
-11.28396 37.592308 35.429165
-11.25731 38.38456 30.614452
-11.580189 38.126938 35.333702
-11.420172 38.138714 35.65275
-11.65907 39.784447 29.22092
-11.551313 39.346012 29.583471
-11.339779 39.88079 35.592865
-11.633452 41.011517 28.52401
[...]
POINT_DATA 5750
SCALARS features_00 float 1
LOOKUP_TABLE default
0.7955471 0.80977297 0.8310187 0.802052 0.8387625 0.70523274 0.7023952 0.703503 0.6972449 0.66468775 0.674398 0.67074096 0.73391867 0.7582577 0.6058699 0.5913083 0.43792605 0.710196 0.7822919 0.8171571 0.83537495 0.5143319 0.7329239 0.76326966 0.851841 0.8649643 0.51976615 0.707086 0.8223957 0.8822874 0.8921833 0.55014825 0.71509564 0.8530218 0.8476913 0.8347759 0.8177299 0.81833196 0.62125576 0.60448015 0.6880189 0.6725639 0.6759577 0.6565028 0.69516563 0.6633482 0.6209986 0.6467986 0.39504758 0.7102417 0.712706 0.5079255 0.49441117 0.74129784 0.7776591 0.3443964 0.25023025 0.8505355 0.2705004 0.3774591 0.82423794 0.3069666 0.42259753 0.6143664 0.79268086 0.76227427 0.71478605 0.7955433 0.78615415 0.75633156 0.6086437 0.57634985 0.5603847 0.5997567 0.63123184 0.6014576 0.53634834 0.5624807 0.60763484 0.6310291 0.61044586 0.5439592 0.5185584 0.5725073 0.5920064 0.5448455 0.5115675 0.4439711 0.47547045 0.5098406 0.37360346 0.41510582 0.5396289 0.5573727 0.45044655 0.55144083 0.57849365 0.45822808 0.4708373 0.5608773 0.32871994 0.4496922 0.56463355 0.43409628 0.41466752 0.4303891 0.60713035 0.30230743 0.23046708 0.697587 0.6695272 0.24513553 0.2904933 0.64402026 0.64175034 0.34013712 0.6096507 0.76550156 0.72768736 0.72493976 0.76032436 0.80593276 0.8246695 0.7947589 0.7673352 0.77930975 0.88236845 0.91540116 0.84308255 0.7740268 0.85260284 0.9654126 0.95019656 0.8437465 0.79392004 0.85570055 0.85283303 0.754959 0.72005916 0.71569043 0.48445368 0.54521245 0.5876578 0.5472022 0.50680447 0.5165566 0.57233953 0.4940865 0.4532814 0.44019333 0.50681025 0.49894375 0.4425587 0.4191883 0.46586266 0.41592073 0.4417361 0.32468933 0.36773062 0.4107468 0.2986515 0.3033458 0.33928978 0.27166998 0.19660997 0.1096588 0.2045058 0.1754999 0.072375305 0.07626274 0.38742775 0.26874143 0.33265477 0.37102413 0.36259985 0.19838555 0.35098147 0.16810593 0.1847981 0.37346235 0.430434 0.46735585 0.32633525 0.37197387 0.38835588 0.39727515 0.462115 0.35907054 0.39351064 0.32929647 0.31494486 0.37605482 0.22645399 0.39149445 0.14471497 0.3738517 0.13976192 0.36631015 0.568148 0.1840944 0.22309895 0.5972426 0.6990952 0.6896255 0.70653236 0.71042037 0.7104585 0.6798322 0.73309994 0.6719071 0.7150284 0.75651616 0.7747253 0.58833015 0.5844931 0.59355885 0.7584668 0.6046962 0.53974664 0.4529025 0.6891444 0.67239153 0.6567064 0.6599362 0.594642 0.3644292 0.47069967 0.5394807 0.5088851 0.36415118 0.4149878 0.44160193 0.43014926 0.39184257 0.39027357 0.42669654 0.2852947 0.36463708 0.3282201 0.30532038 0.19903374 0.28498125 0.30570292 0.23664087 0.28804854 0.29136038 0.26509836 0.20681241 0.31796265 0.12764554 -0.019602867 0.16821751 0.18692821 0.32988542 0.080104485 0.25693834 0.35721236 0.25711158 0.41582108 0.3627681 0.3365203 0.38228977 0.36682868 0.2484726 0.19881599 0.2568311 0.17543322 0.13022158 0.19460508 -0.00532946 0.16983482 0.1386014 0.30243817 0.20559482 0.25244954 0.38643116 0.35662454 0.36318612 0.5065415 0.50496274 0.53926885 0.61294407 0.59760547 0.5472096 0.64004326 0.5593555 0.5236892 0.66506255 0.5381197 0.3888281 0.6770553 0.70132744 0.35663748 0.2867562 0.2878802 0.25801197 0.6763644 0.7098922 0.6946738 0.6374473 0.19211924 0.18217275 0.55933654 0.6883205 0.6091696 0.57606184 0.44770393 0.6552086 0.5395134 0.5532625 0.48736262 0.42700332 0.4929038 0.51061517 0.4030424 0.3641313 0.3483559 0.14792518 0.24091098 0.32003334 0.20669527 0.2678865 0.2854551 0.20848659 0.26118344 0.26033205 0.12743774 0.2657442 0.028727263 0.26606226 -0.0021238513 -0.013548277 0.25742838 0.0056961775 -0.021111734 -0.08187743 0.2093701 -0.05146846 -0.10886894 -0.14017968 -0.11882884 0.1649544 0.17078336 -0.0405299 0.04647454 0.13995413 0.32877433 0.13989142 0.14625098 0.3684676 0.3762403 0.29802036 0.3505094 0.31012696 0.18997467 0.14211705 0.06486171 0.28152934 -0.041502766 0.13503852 0.2013058 0.31536514 0.11607732 0.37924483 0.18503231 0.4136637 0.42868406 0.4155655 0.41047388 0.39516485 0.33685073 0.28054374 0.44881284 0.43299216 0.3948636 0.36839345 0.46813333 0.49662644 0.36252642 0.42464867 0.44259766 0.3549308 0.1280917 0.33332595 0.3240205 0.5350805 0.37477565 0.5680648 0.63178176 0.53991175 0.35728163 0.5053448 0.57824194 0.63056254 0.5942868 0.19519714 0.20014718 0.18832849 0.4944316 0.6113554 0.44894904 0.44395462 0.22018456 0.2126054 0.29686576 0.4311356 0.52902484 0.5987351 0.2257595 0.3256652 0.42349827 0.34090817 0.23600702 0.24961972 0.34117132 0.43808192 0.5072455 0.58987236 0.24041268 0.22512758 0.34102154 0.32984957 0.41216433 0.20345502 0.25901014 0.20307645 0.18694584 0.22843283 0.109867945 0.06477176 0.12287751 0.14940035 0.020343874 0.0745491 0.4439686 0.09431173 -0.019009847 0.36124066 0.45657203 0.4845407 0.48048338 -0.07517086 -0.07552772 0.2637624 0.4373197 0.45772213 0.553609 0.52681863 0.42013568 -0.07975773 -0.11259717 0.09734186 0.35271204 0.55803263 0.5272223 0.40231073 -0.25619978 0.561385 0.53388035 0.06754766 0.4783245 0.06835595 0.29766473 0.065278284 0.09977872 0.102866 0.24963091 0.030561507 0.066220485 -0.024638219 -0.031886294 0.1286312 0.11451374 0.3953762 0.29227632 0.006534755 0.29898676 0.36591977 0.4022261 0.43769428 0.34127337 0.2703931 0.4599717 0.45817605 0.43496943 0.3919525 0.3515581 0.4125882 0.34634215 0.08307998 0.099321984 0.2965569 0.27706042 0.056128398 0.06358804 0.24152166 0.26762044 0.032949105 0.01802148 0.1736171 0.0696825 0.33555534 0.016098045 -0.052359164 0.35346305 0.57536876 0.642699 0.147828 -0.110976905 0.06137498 0.637925 0.67531466 0.26780942 0.33853897 0.6691514 0.69925857 0.14406404 0.2970289 0.18062137 0.22309409 0.51191705 0.6367092 0.6941174 -0.14226678 0.32987708 0.38443306 0.4371981 0.48462883 0.6208145 -0.08680095 -0.11653077 0.09824483 0.41173154 0.07347486 0.036058232 0.12897353 0.04182812 0.37605315 0.33765367 -0.007792162 0.42453963 0.39935386 -0.049488496 0.087715566 0.47455657 0.45505777 0.50370836 0.46564978 0.2218442 0.43357798 0.5558899 0.29147762 0.36460114 0.5146711 0.5295677 0.5858692 0.57989395 0.15143752 0.18104348 0.53183305 0.5497591 0.5271106 0.5919672 0.58424926 0.55318594 -0.2607242 0.44198358 0.49528262 0.56524247 0.50663537 0.55639076 0.50268817 0.32247603 0.4900779 0.52186227 0.41684568 0.026201617 0.17180924 -0.04526034 0.32006127 0.33036673 0.11997104 0.117242545 0.062899806 0.19284695 0.33269894 0.1308006 0.079986855 -0.049024984 -0.040141653 -0.15910481 -0.24732316 -0.076963834 0.14726959 0.30316463 0.3246287 0.57085127 0.5323347 0.11879815 0.059428763 -0.18064147 0.08971098 0.19397524 0.355183 0.4913331 0.62616956 0.5707455 0.14047557 0.17601293 0.3994253 0.5654748 0.6132198 0.5905147 0.23058552 0.022903994 0.31735882 0.44816768 0.50608826 0.517035 0.31979823 0.34180093 0.1708914 0.027259067 0.4050476 0.46039373 0.5620326 0.3905518 0.20048685 0.6589496 0.6583344 0.43884823 0.43052715 0.3990885 0.37203833 0.3407119 0.38935578 0.36530694 0.13046937 0.05663333 0.08036406 0.008199431 0.036259674 0.111655354 0.17432718 0.10667017 0.05149758 0.35533693 0.3202816 0.15194967 0.10520159 0.037037037 0.06066202 0.27286404 0.10908366 0.108413905 0.1287753 0.2600307 -0.08481951 0.54803514 0.6161763 -0.058612075 0.14932655 0.6608385 0.65575576 -0.084030874 0.047534388 0.07367241 0.68704677 0.67062974 0.05345368 0.68337387 -0.34444985 -0.17817491 -0.104393676 0.13202119 0.44975156 0.55298424 0.6450993 0.28908873 -0.04059258 0.4019051 0.39248627 0.3344813 0.31182444 0.14315209 0.2752887 0.25889504 0.3056155 0.09369626 0.37236795 0.3503874 0.2829734 0.3277645 0.46633446 0.40090096 0.26923248 0.5211712 0.5137477 0.14765535 -0.026115924 0.22759151 0.45238352 0.49294803 0.5004332 0.57792366 -0.02179239 -0.07200913 -0.0655469 0.3368484 0.5054964 0.46091193 0.5927469 -0.15923151 -0.09230636 0.4651642 0.41325957 0.5844274 0.5632067 -0.2156212 -0.21809207 0.111813284 0.35321316 0.4798584 0.23358546 -0.39384973 -0.13428599 0.21341746 0.24203832 0.07711069 -0.2536654 -0.039888315 0.29328614 0.18045564 0.48611176 0.27854803 0.12307638 0.15943557 -0.10149726 0.54692143 0.30968183 0.3505572 0.08487224 0.052208222 0.110919505 -0.062345713 -0.054599747 -0.021955853 0.5606982 0.7429186 0.71433663 0.5514992 0.39455435 0.40244415 0.35417196 0.11389677 -0.11000945 -0.11867204 0.282116 0.047149662 0.47696114 0.531193 0.800964 0.7770082 0.6935138 0.5061775 0.45760348 0.3786619 0.33776096 0.25236058 0.39411473 0.42531526 0.24047935 0.35208297 0.42595384 0.4451726 0.84435856 0.83819693 0.75396746 0.5826129 0.50439537 0.44912958 0.5263603 0.48478878 0.5160448 0.48802042 0.32146132 0.2987145 0.13143593 0.33376682 0.8794324 0.8632114 0.7203904 0.5958297 0.47267702 0.6173133 0.6865524 0.6449405 0.60037744 0.54642826 0.3155666 0.38324437 0.30453143 0.67975235 0.7217297 0.70640975 0.6463629 0.36602807 0.354149 0.3208806 0.7041055 0.71224594 0.20739268 0.1242126 0.21162647 0.13991594 0.10863332 0.09090909 0.11563313 0.1400904 0.07625408 0.029971914 0.30776495 0.2667253 0.16445446 0.15843704 0.12855569 0.06899348 0.37251404 0.3027215 0.18798186 0.17914097 0.039757855 0.40547657 0.39546704 0.33450142 0.1733625 0.020043649 0.36941707 0.37182066 0.035699833 0.2014845 0.44834974 0.57659394 0.11371498 -0.088105306 0.6048101 0.6462531 -0.18968621 0.6088612 0.6359657 0.643349 -0.11260793 0.025472455 0.4894383 0.58531106 0.37114608 0.35685033 0.14109111 0.109322175 -0.22305632 -0.07560311 -0.042425916 0.3511446 0.36591205 0.33144483 0.30160764 0.32941902 0.36831927 0.12706994 0.34130406 0.26667538 0.26061156 0.14544994 0.29765257 0.4130697 0.35192686 0.16479181 -0.084921494 0.24944484 0.48491037 0.4658629 0.40436393 -0.0062303236 0.36733446 0.41278172 0.45258614 0.49721128 -0.009570459 0.4839433 0.4822764 0.54252243 0.43631053 0.5768541 0.34418178 0.34693158 0.56267166 0.5332519 0.27481183 0.29030156 0.16011572 0.2202959 0.23454021 -0.01705113 0.0682246 0.2383575 0.087239146 0.40909946 0.23319094 0.24738169 0.46242696 0.49143296 0.6134017 0.28533822 0.28905445 0.0060438383 0.48954403 0.7461245 0.67160356 0.4913926 0.020761456 0.053335857 0.45728582 0.8132875 0.80171496 0.10029818 0.386184 0.329955 0.34855166 0.843292 0.8462 0.41201967 0.11696761 0.22016987 0.26293963 0.2928088 0.8764342 0.8668653 0.76384807 0.5109563 0.39728597 0.3339758 0.24724351 0.57452464 0.46481615 0.24606872 0.26653123 0.18968442 0.20076154 0.22509885 0.8453717 0.73166025 0.61439705 0.6168148 0.6253567 0.2695 0.33735222 0.3207987 0.27233815 0.16670376 0.6088766 0.6634072 0.65016925 0.5826659 0.83647037 0.77667105 0.7728361 0.21734795 0.09760719 0.189456 0.13320997 -0.0097437855 0.07875562 0.124784395 0.10602273 0.079673134 0.049359404 0.0018757563 0.015590847 0.11686571 0.2908194 0.2091263 0.1458995 0.13875225 0.05991902 0.07764799 0.34528565 0.37172788 0.31082287 0.3874238 0.10807332 0.29437983 0.31773698 0.24155372 0.29404673 0.4848714 0.18404838 0.51395714 0.55587053 -0.17165788 -0.20260663 0.46717525 -0.21006528 0.37609774 0.38062483 0.36198735 0.23869291 0.04057756 0.32510465 0.2971226 0.27184385 0.38668454 0.32883006 0.36429536 0.31535774 0.31054848 0.29037493 0.21171969 0.10652679 0.19087893 0.45268092 0.34748793 0.096778795 -0.032430775 0.23408929 0.2638054 0.30351493 0.4983977 0.48426023 0.25741816 0.3478079 0.42988127 0.46698833 0.49603584 0.4694463 0.4841212 0.41881272 0.3687976 0.3668277 0.45796484 0.3153478 0.33130962 0.26569712 0.04721066 0.08777818 0.18369359 0.18029654 0.20939177 0.024538286 0.18102649 0.58825105 0.44743192 -0.24783579 -0.19898091 0.24491432 0.7146039 -0.092877835 -0.09937651 0.8070384 0.77064043 0.28367177 0.059274737 -0.0450349 0.25445524 0.23818168 0.83289194 0.85467625 0.00080230087 0.23818132 0.21552756 0.84895813 0.86143124 0.3085009 0.18649365 0.35407242 0.043407872 0.107610404 0.14876972 0.22794272 0.23295155 0.85633993 0.82949924 0.70713186 0.58773625 0.3753118 0.48135227 0.4529375 0.1897365 0.14817746 0.58813226 0.57493174 0.54620945 0.5062319 0.44607386 0.5144491 0.47805238 0.66830695 0.7394772 0.9032289 0.9765134 0.9431019 0.605248 0.71992373 0.8558839 0.903463 0.88553864 0.44452626 0.62676334 0.7474972 0.758224 0.15603839 0.46509922 0.52634144 0.049032584 0.41860068 -0.069159105 -0.09425077 0.25935662 0.3154387 -0.08306319 0.004928112 0.050523385 0.09416495 0.12571247 0.07353429 0.12663949 0.17084476 0.20493487 0.20024508 0.35311309 0.26861727 0.2765122 0.37768683 0.49509615 0.20225894 0.24305573 0.41059625 0.2043257 0.23479806 0.17462064 0.18177208 -0.04516547 0.09924306 -0.08254672 0.22055802 0.48234445 0.32105437 0.25438997 0.40036118 0.5027627 0.29624695 0.30328706 0.10105021 0.09792581 0.06675434 0.41914284 0.5584769 0.56689996 -0.13533773 0.26314062 0.313734 0.45671332 0.3652683 0.13748172 0.15918615 0.30942285 0.48336896 0.46205568 0.28911173 0.37609136 0.39936307 0.4268553 0.47733104 0.4408121 0.41425508 0.4399622 0.39295074 0.37222525 0.12535454 0.34084767 0.24955179 0.29686898 0.12061283 0.22883672 0.08587498 0.12006087 0.08471817 0.13703096 0.09887537 0.45950934 0.026505575 0.6624005 -0.20745867 -0.26445228 -0.38892746 -0.1367807 0.7933055 0.12914614 0.8115324 0.82099915 0.20004179 0.104418784 -0.051162474 0.22535315 0.12900425 0.83830947 0.7684002 0.2703489 0.16074106 0.18654057 0.22136588 0.219904 0.839813 0.78285736 0.6551578 0.5644941 0.45868826 0.3924118 0.39681512 0.26665032 -0.014635765 0.070864916 -0.06331002 0.47731358 0.48161566 0.4580597 0.3833219 0.3240491 0.18592262 0.23760116 0.3252864 0.462965 0.2987054 0.34934652 0.38889056 0.6832112 0.7613759 0.9347595 1.0 0.9419079 0.46053454 0.60999054 0.85321057 0.81154567 0.272886 0.37693638 0.6371917 0.70516825 0.10281487 0.46423915 0.55864155 0.41169697 0.3970189 0.315734 -0.09646675 -0.047222797 -0.001520738 0.43556318 0.39897493 0.38805473 0.3664474 0.2058987 -0.08792786 -0.08823657 -0.116961285 0.28051504 0.29079163 0.16924848 0.27804488 0.16555284 -0.10689283 -0.07864538 -0.08733108 -0.11053078 0.05297099 0.36788797 0.23809493 -0.03564724 -0.06621888 -0.052193854 -0.09855975 -0.15640566 -0.11876911 0.3709079 0.35849 0.29570895 -0.006398447 0.056273934 0.16622344 0.3243351 0.19834758 0.07029996 0.4930442 0.53316855 0.07801323 0.55677974 0.15504344 0.59330946 0.16781907 0.50543445 0.084871426 0.15686108 0.054947257 0.061106186 -0.024545789 0.2301232 0.4957345 -0.10629417 0.5871474 0.63186646 0.6329551 0.007801313 0.062139004 0.312695 0.58091474 0.64412534 0.6207499 -0.084640846 -0.2545957 0.3255511 0.34411606 0.39259267 0.22567698 -0.09631215 0.43448457 0.26853 0.42511946 0.35210782 0.36304882 0.26926467 0.35014224 0.38211945 0.18436414 0.36021042 0.19510666 0.33302414 0.33365434 0.10960669 0.12286348 0.27680376 0.06993146 0.1929245 0.26579338 0.06273605 0.16789165 0.21680653 0.5133928 0.4190217 0.090475366 0.14692594 0.1803 0.6282916 0.5744227 -0.4431256 0.053711195 0.085796654 0.6795308 0.6069561 -0.3102865 -0.19061597 0.02426494 0.763603 -0.05089646 -0.18001759 0.05769292 0.8063196 0.7405593 0.6804558 0.4089562 0.2695727 -0.04652846 -0.1398398 0.118419975 0.06359522 0.19405162 0.55851805 0.47274455 0.35643896 0.20320284 0.03136657 0.15806809 0.19544289 0.26660097 0.3831537 0.3842169 0.25164032 0.25024188 0.117519155 0.19872434 0.22649716 0.25972432 0.35072586 0.33457467 0.23144728 0.30210292 0.3208889 0.3457415 0.40333486 0.38523284 0.28235045 0.3521784 0.37535155 0.40865284 0.41510496 0.4069994 0.35252318 0.39500976 0.41742325 0.6663801 0.71510273 0.8954338 0.91121024 0.86938816 0.5673104 0.7875526 0.7649123 0.2149613 0.6435415 0.646819 0.41142488 0.39698339 0.3267057 0.2129659 0.11103761 0.53074676 0.4071197 0.42363673 0.33460873 0.1837796 -0.06669594 -0.0641758 -0.1032853 0.35397688 0.33001754 -0.115318134 0.224399 0.37538955 0.33144507 -0.24381348 -0.008373365 0.033600584 0.39845902 0.36153173 0.3954643 0.38458323 0.20927104 0.36082774 0.36205 0.33798715 0.31409025 0.3761562 0.50403464 0.5530987 0.3488636 0.31205437 0.23621157 0.5997731 0.11721247 0.5976895 0.035143115 0.49471974 0.029075332 0.26147068 -0.02160097 0.42510632 -0.08077081 0.5286404 -0.09205279 0.6713992 -0.07499118 0.10431242 0.74018157 0.70942605 -0.10623776 0.1752964 0.4355906 0.65172595 0.7101617 -0.092707224 -0.11055435 -0.108214736 0.030458137 0.25940964 0.29041675 -0.058928683 0.12752904 0.2400786 0.26603386 -0.008385353 0.0488893 0.14318678 0.2596963 0.073626176 0.16192536 0.15374191 0.15298876 0.015980069 0.07993846 0.2052135 0.3673144 0.2350332 0.36093962 0.21754235 0.32792315 0.15301427 0.2817894 0.12670982 0.24083659 0.25134808 0.1416186 0.22705202 0.46533802 0.16101588 0.1826157 0.55175483 0.09933427 0.5767737 0.5083191 0.060941108 0.6693283 0.62213856 0.57021356 -0.07234001 0.0837006 0.30479723 0.1407593 0.6302662 0.58724797 0.24686849 0.15244895 0.11538298 -0.09052819 -0.04411456 0.17528674 0.34669125 0.029950416 0.025009448 0.1341443 0.35499218 0.16906303 0.24920338 0.37364662 0.20002303 0.28276706 0.39645296 0.6465955 0.7137089 0.7833913 0.5686933 0.589947 0.666345 0.69986916 0.31651437 0.33688813 0.29739478 0.14738113 0.09112969 0.5445553 0.56820524 0.3822908 0.1857966 -0.05472912 -0.09250856 0.48166057 0.2536028 0.29587615 0.073493235 0.40900564 0.33606422 0.24845955 0.28262848 -0.107367374 0.3913043 0.3649306 0.026571315 0.40241718 -0.03955683 0.39467627 0.029669166 0.14671396 0.38206688 0.2594132 0.44283196 0.36244464 0.32011142 0.5589774 0.34855217 0.30952072 0.15967001 0.52193683 -0.021098517 0.30474874 -0.02761732 0.11583668 -0.06999327 -0.059038036 0.15620549 -0.10593634 -0.06696089 0.5695679 -0.07701762 -0.092814505 0.6921617 0.010506317 -0.016045598 0.057088643 0.12491609 0.21670431 0.3632825 0.74664366 0.73822534 0.034378685 -0.024066191 0.3236816 0.37235382 0.644198 0.7344586 0.02185767 0.13265175 0.14178795 -0.017465536 -0.024025805 -0.11354001 0.057699025 -0.063194975 0.1854056 0.14238328 -0.024995973 -0.029808214 0.22157022 0.19976106 -0.03359157 0.049977437 0.109635234 0.22914588 0.29664105 0.32905072 0.1914674 0.32594007 0.16249096 0.27926522 0.09962456 0.24424501 0.22467405 0.2179447 -0.00046370924 0.19973148 0.39883718 0.050852455 0.51078826 0.10429717 -0.2411897 -0.3808303 0.17156228 0.25925925 -0.15178873 -0.19357324 -0.0044290572 0.37054613 0.39486033 0.35857603 0.30077842 0.16644162 0.3951035 0.40104124 0.23376432 0.22861445 0.370084 0.12504654 0.11887149 0.02670549 0.3663522 0.2594348 0.22148207 0.1341522 0.022166383 0.074582905 0.21453398 0.23122361 -0.04478828 0.14531091 0.07129207 0.39273134 0.2841178 0.42243618 0.4259825 0.4639388 0.47306827 0.45991552 0.63537097 0.5935548 0.6222987 0.58212435 0.51614213 0.49605548 0.4888829 0.41162655 0.3920975 0.3678373 0.30761287 0.31367895 0.23295683 0.24455279 0.11068185 0.056298852 0.3571136 0.35269797 0.25708395 0.0012655482 0.34709626 0.2056784 -0.0037656734 0.26892197 0.09077033 0.29073742 0.367669 0.35756123 0.34485787 0.3813023 0.37263504 0.38784894 0.3792082 0.38495767 -0.075208105 0.38585582 0.38871408 -0.06443201 0.060140062 0.2881469 0.35336298 0.39359474 0.38326532 0.44679582 0.3622654 0.3431752 0.48921406 0.25210482 0.3921489 -0.020514272 -0.07125685 0.24052164 -0.105902985 0.5189306 0.61596894 -0.08226719 -0.021718983 0.072630346 0.14102633 0.32089424 0.5233674 0.67055583 0.6877941 0.023010658 -0.15223938 0.0034810547 0.19374754 0.3930466 0.5708559 0.7088238 0.086558364 0.076340616 0.18124045 0.19225985 0.1143848 0.21185976 0.10487292 0.114539854 0.13547197 0.07257759 0.023362625 -0.156724 0.21696422 0.2748997 0.28429428 -0.037030723 -0.039813824 0.22059125 0.20638108 0.114650525 0.0637719 0.088874474 -0.044814143 0.21203575 0.18442541 -0.059399925 -0.03367868 0.10997715 0.2109014 0.13728124 0.23399712 0.18440518 0.2916379 0.32087398 0.29942918 0.34023106 0.060369357 0.27267113 0.27884728 0.16306415 0.13900094 -0.20583744 0.07475113 0.2565462 -0.34806404 -0.39975318 0.29073846 0.36965075 0.2704557 0.16110848 0.032632418 -0.19985683 -0.12565278 0.3380308 0.39741036 0.4001702 0.37292907 0.2866379 0.23893219 0.079110794 0.19162843 0.51667404 0.4265337 0.11381754 0.6056623 0.5695745 0.49970275 0.35740638 0.025623105 0.14375407 0.6422373 0.62458396 0.5294329 0.31950992 0.26940322 0.21515441 