# vtk DataFile Version 2.0
Really cool data
ASCII
DATASET POLYDATA
POINTS 3954 float
6.480723 17.675793 15.039959
6.463527 17.209204 15.15321
7.292374 16.160934 14.063039
7.0020614 16.016315 14.857997
7.096709 15.892275 15.369259
7.0611486 16.213408 16.066628
7.287338 17.075785 12.646329
6.9628086 17.062708 13.612879
6.7314687 16.624905 14.714491
6.6562243 16.588428 15.334646
7.0086527 16.635962 16.560036
7.223394 16.777922 17.132257
7.373864 17.33781 12.19567
7.087628 17.69048 12.609101
6.598904 17.451797 14.766246
6.5645485 17.559237 15.485874
6.7150764 17.504892 16.131653
7.1394916 17.30845 17.213404
7.2411256 18.074287 12.149996
7.1265755 18.28464 12.443339
6.878574 18.187447 13.310969
6.7646713 18.27367 14.510577
6.770409 18.414299 15.28352
7.0148005 18.259563 16.39234
7.3438916 17.956755 17.333748
7.2869573 18.92535 12.469953
7.285426 19.031607 13.505898
7.3237176 19.16051 14.30877
7.0586624 18.85632 15.515413
7.1465096 18.810905 16.069475
7.3415184 35.79179 1.5938402
7.371962 35.37452 2.3661838
7.405663 36.198833 1.7996968
7.3591437 36.133686 2.113723
7.972838 15.468102 15.85596
8.02485 15.431711 16.174395
7.5450263 16.332392 13.326895
7.622656 15.740807 14.433447
7.4555407 15.653726 15.268581
7.7312994 15.621756 16.332382
8.095363 15.730437 17.260645
8.13092 16.714052 11.66302
7.5415163 16.855196 17.627956
7.859659 16.680485 17.8464
7.6520696 17.611902 11.671844
7.842393 17.431623 17.986158
8.231517 18.381872 10.89346
7.7104945 18.581242 11.586385
7.6835217 18.222523 17.472305
7.9022875 18.018614 17.87608
7.8453813 19.132204 11.869076
7.610361 19.464613 12.950161
7.961967 19.358778 14.584912
7.711458 19.28562 15.351322
7.6581106 18.86125 16.381813
7.9181356 18.720154 17.074663
8.020734 19.76864 12.768685
8.065048 19.837624 13.192852
7.995443 19.641617 14.41361
8.21323 30.128273 3.0457435
8.0733385 30.01432 3.6578894
8.096563 30.024033 4.308799
8.169518 30.028793 4.976278
8.086682 30.584803 2.8576407
7.747495 30.616154 3.5652096
7.7282753 30.756495 4.4148793
7.9372373 30.802017 5.196377
8.126994 30.96191 5.792383
7.8498454 31.263813 2.9942799
7.6499987 31.17403 3.6277764
7.640449 31.349146 4.552553
7.844602 31.440783 5.34542
8.118839 31.635477 5.930135
7.9565015 32.555668 3.3035274
7.784288 32.102856 4.7826977
7.8730397 32.62016 5.5599647
8.15298 32.21148 5.9718
7.646616 33.53615 4.6849647
7.7736826 33.46288 5.496011
7.9942474 33.30437 5.98861
7.980819 34.955276 1.2389963
7.6035905 34.69973 2.137391
7.727145 34.42516 3.7937093
7.668515 34.385326 4.5152473
7.859778 34.332798 5.6365695
8.154075 34.341972 6.069308
7.7939134 35.698414 0.9900174
7.511726 35.597057 1.4161203
7.567659 35.06842 3.6290388
7.669799 35.56484 4.165134
8.034028 35.13414 5.309566
7.7789555 36.250122 0.9605592
7.539083 36.45323 1.3811071
7.6110063 36.546055 3.1348166
7.976242 36.357594 4.54832
8.07807 36.462723 4.799095
8.073668 36.71487 1.0090144
7.8854527 36.883965 1.494531
7.8543525 36.875214 2.7253253
8.059628 37.038548 3.5766668
8.144005 36.919422 4.320052
8.251057 36.80539 4.759037
9.235482 14.336138 5.7415147
9.159132 14.794541 5.0485687
8.9896145 14.772983 5.542818
9.012164 14.692019 6.1989703
9.246314 14.747767 7.3884597
9.409583 14.593758 8.1312895
8.313988 15.410406 15.465806
8.421074 15.415557 16.543234
8.560987 15.426779 17.017908
9.192822 15.586157 4.578351
8.841419 15.343197 5.5823145
8.862051 15.3289175 6.226741
9.142601 15.21921 7.444791
9.181061 15.134171 8.122562
8.364279 15.595745 14.400671
8.133951 15.547678 15.864861
8.584625 15.629032 17.405273
8.560814 16.025805 17.836765
9.390635 16.607592 3.8368855
9.190261 16.30987 4.571098
9.074348 16.269127 5.3715324
8.995659 16.12384 6.3354897
9.317151 16.027727 7.8170676
9.412508 16.369507 8.027957
9.176222 16.738068 10.082085
8.555408 17.018038 10.626779
8.510268 16.57008 18.095913
9.361544 16.902391 4.1185064
8.475107 17.472527 18.225962
8.657828 18.349169 10.46688
8.629292 18.536856 17.657
8.354182 18.102205 18.010702
8.831338 19.363281 10.834898
8.296521 19.026163 16.583723
8.31186 18.889013 16.839775
8.794414 19.863749 11.969516
8.574838 19.97878 12.499067
8.673892 19.827263 14.193198
8.614245 19.551973 15.181348
8.864553 29.390148 3.7806754
9.013693 29.130276 4.5411572
9.136651 28.925934 5.346758
8.590685 29.957142 3.011519
8.640273 29.715134 3.3583097
8.52499 29.53629 4.618988
8.6204195 29.776522 5.390158
9.059304 29.697649 6.0261726
8.864609 30.746342 2.4037688
8.525734 30.55182 2.596434
8.611345 30.638126 6.0465717
8.551675 31.073175 2.3837137
8.506232 31.577036 2.4533105
8.614251 31.409325 6.2878556
8.655482 32.914906 2.8632185
8.613799 32.141033 6.2749467
8.587753 33.61878 6.428344
8.878959 33.436977 6.555017
8.549276 34.370186 1.385647
8.634553 34.569965 6.2929773
8.457562 35.648064 0.7330156
8.716456 35.15648 6.019645
8.373793 36.483727 0.80229914
8.758009 36.577183 5.184321
8.383095 36.869625 1.072653
8.483283 37.0886 1.5285951
8.690605 37.31147 4.404996
8.80656 36.932095 4.9770317
8.891178 37.592915 3.28635
8.898815 37.562813 3.9786062
9.766104 14.313091 5.0749745
9.628824 14.177911 5.5992136
9.744423 14.146932 6.4535813
10.116637 14.0146 7.5432706
9.911745 14.160659 8.471042
9.869719 15.182848 4.136366
9.546424 14.682264 4.7754107
9.302171 14.422347 5.277187
9.602692 14.500085 8.5464525
10.039525 14.524452 9.49396
9.626281 15.409775 13.938793
9.06423 15.401622 16.604208
9.084085 15.45126 17.19607
9.72139 15.782182 3.781862
9.792458 15.506875 9.663961
9.603393 16.005999 10.565131
9.427441 15.869488 11.380267
9.369132 15.760183 12.330627
9.328152 15.660604 15.02596
9.416928 15.462158 16.227106
9.277747 15.739257 17.384283
9.21383 16.01609 17.778498
9.877695 16.774431 3.031491
9.60427 16.51274 3.3685637
9.516451 16.691458 6.0785017
9.608917 16.707184 7.010966
9.115824 16.66753 18.076382
9.932229 17.19034 3.053822
9.713313 17.377563 3.4655929
9.586956 17.4386 4.2090907
10.031187 17.379395 6.4752846
9.182721 17.443556 18.147562
9.968266 17.715715 3.6932297
9.906711 17.794806 4.6536255
10.229496 17.704277 8.35951
9.718264 18.332943 9.849821
8.9611225 18.090588 18.014898
9.597977 19.035498 10.143021
9.355727 19.531507 10.695958
9.265127 19.198164 15.624597
9.277396 20.254925 13.012534
9.897811 28.329384 5.0587983
9.747193 28.382753 5.306181
9.668844 28.948269 4.054816
9.829551 28.545183 4.692653
9.59699 28.524157 5.418358
9.848182 28.670416 6.0662193
9.269501 29.923763 2.9195201
9.532804 29.488409 3.4300466
9.542939 29.403173 6.3644037
9.343943 30.73021 2.4172068
9.622661 30.426188 2.6265965
9.296352 31.186352 2.3071983
9.857238 32.90404 2.2406437
9.652621 32.3138 6.3872437
9.889658 33.25208 6.498003
9.380287 34.566998 6.393613
9.008126 35.532616 0.805467
9.391589 35.08913 6.1582036
9.034187 36.32293 0.9028017
9.163924 36.50905 5.3777237
9.460222 37.461525 4.466622
9.348381 36.951042 5.103238
9.641228 37.639698 2.8418882
9.633803 37.730827 3.537305
9.63496 37.6546 4.0309734
10.5399685 14.272423 4.8744264
10.490271 13.997361 5.6793127
10.1633005 13.936314 6.581318
10.535464 13.9208 7.269665
10.483996 13.824894 8.365572
10.878154 13.730231 9.088674
10.660369 14.9678 4.105144
10.470032 14.629536 4.463022
10.584994 15.904966 3.2734644
10.538567 15.554291 3.5911584
10.651257 15.564041 12.191219
10.229243 15.702481 13.496719
10.011018 15.557247 14.356918
9.956998 15.695682 15.104933
9.772781 15.853205 16.885029
9.875215 16.118317 17.266745
10.499818 16.657484 2.872597
10.076251 16.608162 17.52558
10.463493 17.299799 2.9428298
9.849878 17.084867 17.928991
10.438885 17.653316 3.181504
10.531724 17.893795 3.7331543
10.6431675 18.05629 4.4548664
10.734222 18.038933 5.3389893
10.605214 17.915663 6.227854
10.403632 18.096869 16.978619
10.274922 19.076237 15.473103
10.9466505 19.71582 9.894626
10.851649 20.443151 10.924118
10.825416 20.447708 14.215581
10.810969 21.01485 11.771413
10.540826 20.861338 12.408666
11.279898 21.138992 14.382873
11.238201 21.406916 15.640255
11.344257 21.506638 16.265125
11.293931 22.200209 15.477919
11.337264 22.208567 16.311934
10.6634445 28.342957 4.774983
10.713247 28.216784 5.269183
10.430933 28.775352 4.044348
10.227077 28.579237 4.400399
11.095828 28.480581 6.5814624
10.985277 28.753809 6.728134
10.470617 29.58431 3.5292127
10.704363 30.63698 2.8282583
10.914546 30.83797 7.010082
10.285166 31.577868 6.677046
10.1646595 34.401585 1.3976057
10.047821 34.83114 6.3788667
10.327483 35.455124 6.0175447
9.952969 36.057865 1.2351
10.692469 36.470497 5.3607726
9.84001 36.7489 1.6513748
10.251084 37.41215 2.439565
10.285287 37.202198 4.576394
10.4746685 36.858105 4.929177
11.903778 13.153335 8.950408
11.992092 13.109816 9.591528
12.08738 13.243976 10.482129
11.418924 14.26714 4.9848456
11.187766 14.1181755 5.6827016
11.37972 14.033045 6.518463
11.338689 13.513529 9.612442
11.817643 13.554844 10.469067
11.183247 15.287365 3.9089115
11.563169 14.512469 4.7245345
11.827953 14.994896 12.045005
10.906591 16.211306 3.1041553
11.187999 15.790435 3.5446818
11.088128 16.567612 3.0725641
11.526401 16.483444 3.3962755
11.090357 17.270842 3.1634057
11.297352 17.587332 3.494707
11.22821 17.598118 15.702675
11.277965 17.844347 3.891638
11.353315 17.99023 4.567983
11.442093 18.07391 5.2810135
11.606861 18.258255 6.5788345
11.867406 18.45926 7.91807
11.79561 19.57101 9.384572
12.202786 19.829195 17.397783
11.6273575 20.931217 16.388523
11.494804 21.375944 16.756172
11.766156 21.298248 17.355669
12.140852 21.471773 18.164896
12.230233 21.968704 11.637943
12.06782 22.239988 12.447089
11.71821 22.393702 14.612648
11.457828 22.627954 15.864486
11.595006 22.677618 16.399843
11.924009 22.234938 17.447931
12.375069 22.10369 18.394201
12.045053 22.691816 14.138826
11.919307 23.140017 15.915291
11.908786 23.009811 16.414444
12.27844 22.93171 17.34034
11.267577 28.266077 5.021895
11.823153 28.17138 5.695235
11.672963 28.273998 6.361475
11.335096 28.950651 4.0817614
10.960281 28.561495 4.362978
11.697105 29.04231 7.424969
11.902219 29.350311 3.984436
11.331442 29.273401 7.2760606
11.918427 29.702477 7.8650465
12.406368 30.867813 18.71743
12.28852 30.871248 19.398092
[...]
POINT_DATA 3954
SCALARS features_00 float 1
LOOKUP_TABLE default
0.65458125 0.6773048 0.604051 0.6472514 0.6591754 0.7344417 0.46766883 0.56557083 0.64884716 0.696831 0.8144171 0.87171984 0.4589549 0.50774753 0.6392329 0.6947983 0.749965 0.8327011 0.5096662 0.5276005 0.5617819 0.6111074 0.6310952 0.6955459 0.77215856 0.5364514 0.5391921 0.52303874 0.58890516 0.606964 0.78720665 0.68889475 0.7876362 0.7556333 0.59644806 0.6088009 0.51188934 0.59200895 0.62469435 0.6569239 0.7504282 0.4030753 0.8999449 0.91906935 0.46718627 0.8698999 0.4840087 0.5155756 0.7513102 0.803317 0.52139604 0.5097919 0.47535372 0.502869 0.5891577 0.66348565 0.47448796 0.45509064 0.4614194 0.6948378 0.71060205 0.6736002 0.60463417 0.6934982 0.7319423 0.6483935 0.5420058 0.4953609 0.6944903 0.72439295 0.5817709 0.4839487 0.46190944 0.59180963 0.48068154 0.45067614 0.45567477 0.4369942 0.47323626 0.48594317 0.77748 0.6574804 0.44450033 0.46515864 0.5180267 0.5335342 0.81462944 0.7925916 0.5243859 0.541934 0.5412909 0.8276973 0.820071 0.6720448 0.56459993 0.5592601 0.84464586 0.8176309 0.74805933 0.63901454 0.59583354 0.5762168 0.65998256 0.71990955 0.68521416 0.6367937 0.540807 0.4502636 0.5426167 0.61497045 0.6575784 0.79497033 0.69413817 0.6466273 0.5463708 0.45587194 0.51116997 0.5858044 0.7207538 0.8191062 0.96782506 0.83501357 0.72237176 0.61016464 0.46827614 0.4132959 0.29649526 0.4136197 0.90279174 0.9385061 0.89134496 0.45458826 0.7213445 0.8109715 0.44201183 0.55249906 0.59478223 0.4121406 0.42015085 0.37785485 0.4311818 0.631178 0.6073112 0.59631866 0.66771185 0.6657081 0.63657653 0.58266723 0.5542246 0.62446284 0.6599413 0.50030106 0.63080204 0.60013425 0.4498495 0.47089124 0.44015858 0.50278854 0.48500973 0.63078433 0.5286931 0.8270011 0.5245428 0.8384257 0.54384184 0.8390783 0.82721126 0.5984867 0.5694256 0.676709 0.61902666 0.6818469 0.6589745 0.5965598 0.4589612 0.3777743 0.78702664 0.720285 0.691846 0.38380784 0.27427125 0.3167603 0.6022462 0.6774294 0.91025734 0.23085818 0.23066275 0.27710143 0.2732972 0.45525658 0.54768217 0.71746564 0.77452916 1.0 1.0 0.62869835 0.49768975 0.8674129 1.0 1.0 0.95967054 0.59715676 0.8962873 1.0 0.91255295 0.21437983 0.31595778 0.82925737 0.33348417 0.36734146 0.4141601 0.31218955 0.53220254 0.5537081 0.5327053 0.52883625 0.5707592 0.5812285 0.59974194 0.5557927 0.55967724 0.57367295 0.560107 0.5340491 0.27957043 0.35052696 0.39611292 0.48607707 0.7822082 0.48272258 0.81079286 0.52641505 0.593323 0.55720866 0.72015953 0.659346 0.6203671 0.6717031 0.6367996 0.5784645 0.46560806 0.35329968 0.34165466 0.7385489 0.7007406 0.95081496 0.86194634 0.13352776 0.24482271 0.34036174 0.39533436 0.6363073 0.7110092 1.0 0.76957774 1.0 0.8472872 1.0 1.0 0.8861475 0.71924835 0.6405919 0.85057634 0.39419207 0.24220866 0.21357489 0.038288936 0.15345557 0.15775482 0.22895949 0.36791474 0.4009002 0.3959567 0.41917667 0.47885838 0.5135341 0.45692196 0.4880795 0.5692327 0.5593454 0.42777526 0.38926548 0.22952056 0.18218024 0.28353205 0.41927287 0.41167817 0.6797485 0.49306592 0.754143 0.7252504 0.5794388 0.54472315 0.49011087 0.50070083 0.47373283 0.6704179 0.63260144 0.53618264 0.40802866 0.4293455 0.76988435 0.6857325 0.27101898 0.99199414 0.8572314 1.0 0.9448651 1.0 0.9988508 0.59148365 0.9212562 0.7777406 0.64324284 0.42989624 0.18010415 0.025241718 0.41761935 0.36697388 0.40248573 0.38302684 0.35419512 0.24927373 0.20008394 0.33831683 0.42164922 0.4321999 0.394674 0.35298222 0.28528935 0.42230913 0.4374285 0.3989517 0.47010362 0.49573678 0.5406771 0.373312 0.43492135 0.44672605 0.2752809 0.4797785 0.34556687 0.3932943 0.4743687 0.52259743 0.13268004 0.4960745 0.5333738 0.59001774 0.038726516 0.5319604 0.6086081 0.6130371 0.30681714 0.33260086 0.34136617 0.63084835 0.68343526 0.53255546 0.49860835 0.5589225 0.55568063 0.51241124 0.4504511 0.6458739 0.5562541 0.4292807 0.352516 0.76619756 0.6701007 0.8677935 0.68380696 -0.09814677 0.20883006 0.8667057 0.7173829 0.45912516 0.38439813 0.4807357 0.49322903 0.6509291 0.5386386 0.3408535 0.2221713 0.48587272 0.10768086 0.27249464 0.2373749 0.25790653 0.30298167 0.39634848 0.2982901 0.3607074 0.36844915 0.3136036 0.2611725 0.33741653 0.3524655 0.3857034 0.3676773 0.29668254 0.45161307 0.42990538 0.349456 0.1306265 0.31587008 0.43421578 0.35529587 0.2822091 0.23216721 0.32658643 0.3680616 0.3951698 0.033493742 0.369783 0.43252236 0.46433407 0.43949193 0.4008389 0.32294947 0.41215378 0.50253785 0.48449877 0.31584427 0.4449888 0.49041528 0.48849586 0.43551865 0.3121917 0.5627998 0.57131946 0.4124111 0.32370794 -0.17195542 0.48763725 0.47016257 0.5798703 0.62667143 0.6599891 0.65520394 0.43716654 0.5382341 0.67821205 0.71313655 0.7319811 0.19858798 0.7029118 0.74573004 0.754467 0.5221663 0.55092007 0.60559946 0.54638183 0.54356194 0.36186796 0.44964558 0.4885407 0.5530673 0.35613385 0.4432212 0.53594357 0.3529106 0.29504222 0.58624816 0.48538187 0.3285119 0.43337327 0.3047167 0.21026087 0.39906666 0.19938731 0.19929835 0.29562986 0.36754495 0.45074904 0.21306908 0.44083822 0.2863514 0.3204721 0.4432799 0.4255138 0.38139302 0.40343815 0.41057438 0.39147294 0.14207098 0.40972328 0.41851354 0.41587937 0.40805948 0.357472 0.10425021 0.21098322 0.3249327 0.3103908 0.19182959 0.16086008 0.25352058 0.19270645 0.26309517 0.031833515 0.1440563 0.23673098 0.29844093 0.39211014 0.24009362 0.23613328 0.0760636 0.13855508 0.36744583 0.37858477 0.45871738 0.19512585 0.28053167 0.34680268 0.41501576 0.42129725 0.024602719 0.44287008 0.44556254 0.37473482 0.45153755 0.41366118 0.48841342 0.42037034 -0.16945365 0.22097813 0.43880767 0.4763748 0.4696765 0.6378739 0.47179434 -0.13323972 0.4702841 0.47657222 0.4231527 0.7293072 0.68854403 0.51083183 0.67242527 0.76041603 0.75539774 0.49858546 0.55380785 0.49199802 0.45596159 0.12679061 0.16783494 0.58694494 0.6752062 0.64767754 0.6970179 0.5696465 0.64240944 0.5787922 0.5669852 0.46779153 0.5449104 0.5404512 0.43852067 0.29708833 -0.04918155 -0.044525333 0.28048658 0.37059408 0.5689116 0.5469317 0.51054543 0.2194879 0.22684664 0.08654455 0.002399087 -0.023480803 0.4593736 0.4392866 -0.028227173 0.33800486 0.179369 0.5380129 0.47759777 0.2582667 0.32914358 0.44958943 0.40591517 0.39430064 0.36678597 0.3990594 0.40974277 0.40509865 0.39637965 0.4126023 0.2640174 0.08478814 -0.12863225 0.2787129 0.42258286 0.39808595 -0.08241224 0.27231416 -0.013504073 0.258586 0.12703045 0.21569005 0.19139802 0.24289593 0.19122437 0.011509925 0.13113302 0.074668914 0.2798033 0.31853878 0.3240555 -0.031213664 0.28996474 -0.043434255 0.38768554 0.38972133 0.06285676 0.41445377 0.4113195 0.17746365 0.22312972 0.42370233 0.4014302 -0.0289682 0.41429204 0.37940818 0.20762628 0.19837925 0.54086334 0.4599529 -0.15100072 0.41723287 0.47184962 0.63649994 0.4915632 0.30138558 0.37012976 0.4829123 0.49148625 0.4518425 0.6720114 0.7664176 0.707533 0.49336272 0.5969174 0.5835216 0.489872 0.40483955 0.65108496 0.6647091 0.5734543 0.69552374 0.70932233 0.7002894 0.6123881 0.64717656 0.61402535 0.612112 0.6981269 0.631333 0.5968529 0.5541791 0.67864156 0.6651921 0.3288663 0.47293136 0.54021657 0.5989108 0.48052496 0.39629576 0.2496649 0.5767251 0.55263615 0.23883432 -0.024064645 0.45875323 0.46280274 0.14064595 -0.10979013 0.3900488 0.34187847 0.46707624 0.49634632 0.101855054 0.46145523 0.3045295 0.4162866 0.39605284 0.2910871 0.3270429 0.2933287 0.3469126 0.35912836 0.3948092 0.33350587 -0.16757837 0.19479156 0.31784666 -0.08494434 -0.097970426 0.12403372 0.30466875 0.30331662 -0.049379885 0.05252132 0.17440034 0.21401346 0.24450555 0.18343478 0.26959562 0.23154847 0.02677662 -0.047759145 0.2852754 0.3066639 0.11210534 0.050087772 -0.055024683 0.38169277 0.4897923 0.2241194 0.1505105 0.3979482 0.48547363 0.38929915 0.35728028 0.29037598 -0.08608273 0.0052844733 0.44663596 0.40498558 -0.113920346 -0.14045268 0.30689776 0.4375288 0.36091214 0.45230955 0.41933078 0.27141464 0.483231 0.46491635 0.54596585 0.64349127 0.719762 0.44643945 0.4161318 0.40019494 0.23705518 0.6392541 0.534816 0.55349106 0.59953594 0.6770861 0.6801137 0.59575266 0.61027306 0.63934 0.6717911 0.79619604 0.74539065 0.66258955 0.6288068 0.80087197 0.83442265 0.7751883 0.65029716 0.7256988 0.76341605 0.33177438 0.39712018 0.55627424 0.5776386 0.5704161 0.60556924 0.6006814 0.56821597 0.5349721 -0.14739603 0.44424188 0.36231497 0.16089368 0.25541228 0.30873877 0.009638189 0.36819077 0.13529123 0.21523455 0.13006525 0.07066818 -0.047715902 0.06278607 -0.19317238 -0.23430754 0.25200775 0.31478316 0.28357542 -0.2806122 0.20162201 0.1566548 0.20032075 0.20778945 0.15095708 0.11722665 -0.17955482 0.3308559 0.49876305 0.44272682 0.34751132 0.51396567 0.35340217 0.48660326 0.29618117 -0.25146824 0.2728138 0.28604358 -0.27776584 0.3313681 0.36775747 0.2974851 0.11105388 0.35052273 0.41285872 0.34522885 0.27537838 0.23697697 0.39096826 0.27763334 0.60666347 0.5094168 0.55835193 0.5692678 0.59360605 0.60388494 0.58670443 0.5947019 0.75979686 0.7598316 0.86347234 0.86568695 0.80278015 0.7876364 0.93044627 0.97728884 0.88933694 0.7949655 0.8973601 1.0 0.36244726 0.48352623 0.5178534 0.06435192 0.14775215 0.17952964 0.5338013 -0.06915829 0.4244309 -0.10691372 0.30296093 -0.2258349 0.22777104 -0.22389266 -0.13841438 -0.10216057 -0.062100112 0.3257628 0.10695064 0.35564336 0.54259676 0.23087436 0.11625188 -0.07763319 0.36279428 0.53033614 -0.4083444 0.30950916 0.25148207 0.32500738 0.2187035 0.16159374 -0.19211753 -0.32164547 -0.22436103 0.20867567 0.5120239 0.4810537 0.32264638 -0.174012 0.5198487 0.1299853 0.4661694 0.08250664 0.15918548 0.31322488 0.25224102 -0.27575114 -0.12111516 -0.21168424 0.1597007 -0.05941482 0.123490915 0.1371495 0.2927627 0.010430036 0.21437047 0.18629926 0.07488102 0.24314609 0.12182927 0.2768717 0.10841349 0.21248023 0.37277946 0.21815038 0.19848427 0.1981747 0.3265504 0.3925455 0.2270398 0.4545106 0.5263481 0.46618602 0.48266846 0.4085904 0.42722425 0.4495957 0.578742 0.5720512 0.5477532 0.45235556 0.56254864 0.59255195 0.6258339 0.62516063 0.7418192 0.7320839 0.6760931 0.7079917 0.8351103 0.79439294 0.760726 0.8465745 1.0 0.90815806 0.7926042 0.8899502 0.9939818 0.96395874 0.60169494 0.58262646 0.60075784 0.2171922 0.34729844 0.4935714 0.4184123 0.13483623 0.30885968 0.45059597 0.4196977 0.03199375 0.47058964 0.18369094 -0.19516304 0.13571331 -0.39773434 0.36628798 0.073652655 0.07101721 0.49011445 0.44094506 0.37473845 0.5398182 0.63103676 0.48743942 0.45117342 0.57291704 0.6434612 0.3431351 0.099109225 0.53610283 0.61229974 0.11752205 -0.026135609 -0.110670574 -0.29041418 -0.46221098 0.33318943 0.47104388 0.5310544 0.25069633 0.29858208 0.3094415 0.24106933 0.005459438 -0.35357237 0.1788542 -0.58935493 -0.44405818 -0.44125724 -0.3169969 0.4582343 0.0698966 0.5027835 0.040555745 0.081773825 0.4795945 -0.035061345 0.38001713 0.18939859 0.075632095 -0.047530726 -0.2622733 -0.19230078 0.15286936 0.15963337 0.07964486 -0.08682039 -0.010178193 -0.017855488 0.14839855 0.1374 0.15443312 0.1574586 0.24081337 0.30723548 0.34313628 0.24803458 0.29024386 0.2273911 0.37188935 0.40193772 0.51438355 0.41626376 0.39113772 0.31476498 0.4415783 0.48352715 0.36289167 0.57372904 0.47744995 0.6506303 0.6864532 0.59819895 0.7760408 0.68637747 0.72088176 0.8743024 0.82908356 0.76753867 0.8472905 0.9600843 0.89728916 0.5741528 0.5785766 0.5692401 0.58305573 0.58586955 0.5863167 0.5757571 0.32339245 0.17982432 0.07118936 0.11211086 0.0009849072 0.3134855 0.07211926 0.08008137 0.26748547 0.2854795 0.05197942 0.058128297 0.04894571 0.27895874 0.25893074 0.047723025 -0.055336468 0.19881305 0.094108544 0.3027981 0.103161834 0.24384989 0.33777046 0.41638905 0.48588738 0.6068783 0.42315418 0.65744627 0.42557418 0.61846423 0.6333082 0.24782456 0.34709567 0.52353716 0.16570665 0.19585833 -0.2459355 -0.26710024 0.09489572 0.22241437 0.19281337 0.18184955 -0.674701 0.042279474 0.13080406 0.10283194 0.12789829 0.09113735 0.041838326 0.042039435 0.46545666 0.44797924 0.052027985 -0.07273906 -0.29176313 0.15627643 0.12769544 0.22913688 0.11727265 -0.10375353 0.18382981 0.19556639 0.03598271 0.17156309 0.1952587 0.036835313 0.32056326 0.21905097 0.17737108 0.17442822 0.36532706 0.23153685 0.28111267 0.46610054 0.39345965 0.5052255 0.46278197 0.6571939 0.5724531 0.7682289 0.73439145 0.6601502 0.70049477 0.87382936 0.84752333 0.8038794 0.7623348 0.81158507 0.9132838 0.8133909 0.8022268 0.7542585 0.8092354 0.7925873 0.788412 0.71439654 0.5496624 0.5544235 0.5482508 0.7098117 0.7196742 0.619153 0.44926292 0.5601772 0.57134223 0.53129196 0.64791346 0.5486094 0.3116417 0.019110858 0.43825483 0.40026242 0.20625521 -0.02412811 0.10451713 0.045256127 0.0556198 0.24965337 0.025600929 0.055060785 0.2969033 0.2837421 0.0006154664 0.03818978 0.20202383 -0.011140216 0.1630501 0.15188193 0.15057847 0.25616315 0.19802757 0.55371946 0.5301833 0.14280125 0.24990812 0.6010283 0.042433634 0.21821763 0.5902138 -0.013759598 0.46627012 0.18720391 0.1547859 0.08511817 0.2409438 0.23719257 0.08859314 0.11268239 0.21830598 0.14601937 0.15479474 0.6691657 0.4353122 0.09546427 0.062419176 0.53433454 0.117260054 0.072914325 -0.15956545 0.15118878 0.28576767 0.2273041 0.19621465 0.16960552 -0.10659818 -0.14095277 0.16497087 0.28069168 0.14131494 0.23050857 0.21464032 -0.07071278 0.1135741 0.19159889 0.20810734 0.21323515 -0.03633534 0.25905406 0.1931931 0.4486733 0.5817052 0.5029299 0.55435145 0.7108518 0.68691874 0.7671726 0.81754255 0.8004358 0.78422177 0.79539144 0.7868273 0.7808331 0.79751587 0.80834806 0.7968906 0.769472 0.80699605 0.80875885 0.7301394 0.671861 0.78381306 0.80607414 0.79884213 0.7480624 0.7455009 0.76783264 0.6329074 0.5338185 0.5031036 0.5053271 0.67970735 0.76511157 0.747309 0.67815673 0.67574406 0.55902886 0.46524054 0.47936976 0.63062143 0.66724783 0.64673805 0.5842949 0.59651554 0.1699971 -0.20464757 0.32253474 0.62031984 0.34923142 -0.09881547 0.043928273 0.22982924 0.16227317 0.08178892 -0.14409596 0.10532725 0.14272629 0.14809184 0.11184691 0.16701609 0.23294419 -0.0052217133 0.24311052 0.21740314 -0.033899542 0.3236091 -0.089529276 0.38283458 -0.043538243 0.3233878 0.33997327 0.07714806 0.41279334 0.32049617 0.08192647 0.4315623 0.02094956 0.19593054 0.07026169 0.15531433 0.14332989 0.70476985 0.12859643 0.70680964 0.06628899 0.6934659 0.055590205 0.5893437 0.5291606 0.46966434 0.11153141 0.037076443 0.14321816 0.15464866 0.41740012 0.36333913 0.19652358 0.14373593 -0.12817849 0.15781564 0.33395335 0.2890301 0.3334089 0.21566428 0.2170667 0.24677564 -0.148806 0.07560768 0.21294421 0.21426733 -0.024097163 0.20226443 -0.018332304 0.26275387 0.3879684 0.38972348 0.44401214 0.43964997 0.43600607 0.44905007 0.5176962 0.569585 0.52594674 0.6378388 0.72456217 0.71783257 0.674457 0.73738885 0.6157296 0.7177645 0.7785285 0.7915132 0.76369345 0.7739295 0.74133646 0.7316236 0.7582014 0.70192677 0.7421398 0.68374825 0.58464485 0.5740026 0.68212855 0.6523732 0.68093216 0.4724844 -0.13296546 0.23675662 0.31179827 0.50730115 0.5200848 0.24046703 0.35050866 0.12282329 0.44543022 0.53600395 0.59415984 0.5891101 0.36941314 0.5085914 0.5669515 0.55452275 0.5433564 -0.050927803 -0.119276494 0.25601533 0.24064302 0.18711643 -0.0004382655 0.16498157 0.1461164 0.09322133 0.15996994 0.030512497 -0.023654006 0.1255295 0.36959362 0.41971558 -0.007365048 -0.022404887 0.41761154 0.4313116 0.020797 -0.0064977296 0.40207958 0.07739893 0.34327453 0.03907233 0.020593166 -0.008489296 -0.09819528 -0.01019571 -0.06948936 0.07306427 0.24524553 0.08329328 0.01425273 0.07992614 0.61147994 0.41725826 0.04376121 0.7229512 0.073784485 0.69044334 0.61059594 0.10885897 0.48297888 -0.08030824 -0.1364202 0.1680468 0.42477155 0.395042 0.21877337 0.21536115 0.20502082 0.011343792 -0.056136467 0.15801689 0.36946332 0.37812477 0.3774965 0.2755501 0.23185226 0.22078001 0.21598715 0.10296622 0.08787679 0.12982891 0.32470647 0.28446123 0.72699976 0.69520634 0.75222445 0.6970439 0.66057295 0.40666977 0.3511309 0.6514809 0.64432275 0.7516422 0.69191194 0.69089365 0.67350954 0.6989192 0.6793399 0.6225548 0.24042018 0.7236906 0.5798664 0.6576905 0.5470669 0.49086463 0.35537 0.31950185 0.5185606 0.239126 0.40349293 0.33810455 0.21692932 0.3546502 -0.011411324 0.0062785447 0.18912409 0.24278207 0.26824912 0.43168634 0.30626372 0.08923532 0.31313598 0.4064399 0.47751474 0.5035565 0.47090697 0.4675793 0.21414532 0.43417305 0.22996432 0.25862533 -0.3067606 0.20860556 0.14606914 0.014653485 0.045974772 0.07991195 0.31337303 0.44967404 0.48106652 0.00041250885 0.47747076 0.114665 0.43495202 0.16313885 0.3449764 0.11622284 0.23419176 0.016281277 0.20792489 -0.06417805 -0.06334901 -0.04544101 -0.060372364 -0.033475503 -0.009337887 0.64060163 0.5433188 0.37735367 0.05954404 0.52873266 0.58248246 0.7038748 0.6866368 0.4990652 0.59057033 0.6270466 0.6730988 0.6348989 0.38073406 0.55623806 0.63198817 0.6518775 0.6127507 0.5634043 0.4788232 -0.0838432 -0.21618164 0.6183185 0.6413194 0.4829497 0.44291177 0.07571792 -0.08643622 -0.14992204 0.097714946 0.39177752 0.38890153 0.39225626 0.26706216 0.1912747 -0.032666247 0.39698857 0.39395857 0.3534847 0.13670644 0.027118996 0.026144028 0.28877184 0.41062024 0.4244166 0.40632647 0.42063558 0.18580863 0.43739307 0.7629091 0.7761265 0.754549 0.75752217 -0.0065769255 0.401425 0.7621435 0.3236347 0.4671461 0.37377584 0.40175027 0.67998075 0.31598252 0.23121397 -0.005016811 -0.0071186274 -0.02351195 -0.09257924 0.2963328 0.3703797 0.3401851 0.562631 0.5096817 0.268896 -0.22272187 0.12947305 0.3009568 0.22476628 0.4511125 0.40085092 0.2851016 -0.0077944994 -0.013363138 0.16202931 0.22980788 0.30873293 0.29868317 0.104640394 0.13614112 0.15157887 0.32485795 0.35105515 0.35409892 0.3710507 0.2025225 0.035636898 0.10004849 0.37928823 0.48744166 0.24801753 0.48779115 0.5104921 0.16778493 0.1593043 0.40657192 0.47713593 0.49312437 0.10270788 0.49062854 0.43706566 0.2355268 0.31630516 0.23246485 0.2851833 0.31295726 0.1842275 0.32543352 0.11609489 0.2378043 0.32576424 -0.056100246 0.010015436 0.2139772 -0.03195623 0.29729694 0.52295613 0.59712005 -0.019611456 0.5414247 0.5862947 0.65831935 0.62304217 0.49163586 0.36304426 0.6433508 0.63604885 0.567368 0.66180575 0.5344452 0.49525875 0.4691897 -0.2524351 -0.32341358 -0.16111004 0.5734345 0.6202779 0.43218052 0.39376575 0.38561797 0.37943357 0.0451366 0.3983341 0.38723654 0.38885343 0.38567764 0.3646673 0.15275212 -0.06928436 0.20890003 -0.14255072 0.36620432 0.0527576 0.4135878 0.43152112 0.15545012 0.14095145 0.4369682 0.43148363 0.4885165 0.52104676 0.29942942 0.53215194 0.40112102 0.6576975 0.5549451 0.51578057 0.6260272 0.6174538 0.72873807 0.64315605 0.76941705 0.7599731 0.04866801 0.778471 -0.034407362 0.19559449 0.25419492 0.23757398 0.75027454 0.2917031 0.11737845 0.36395586 0.41095316 0.39923418 0.67638564 0.19872208 0.07946483 0.075319774 0.38833863 0.33532017 0.5491762 0.27797508 0.20954415 0.52074325 0.4737494 0.3113194 0.17283039 0.15881799 0.29201856 0.2801687 0.15932235 0.23937967 0.38199627 0.49374372 0.5526271 0.2944712 0.2904539 0.29372686 0.28397682 0.2411358 0.1702401 0.5232943 0.58533436 0.22966805 0.2217295 0.1979686 0.18259946 0.39660943 0.46664405 0.48448363 0.12937298 0.46262378 0.05945062 0.42866987 0.190507 0.3333064 0.1899114 0.35069418 0.14109784 0.14473185 0.35042107 0.101934046 0.34312522 0.011135437 0.062008224 0.47402656 0.0018880814 0.589095 -0.04730635 0.65160304 0.3937568 -0.17811538 -0.5757805 0.66740155 0.21201116 -0.15896319 -0.3261051 -0.2722691 -0.50292397 -0.4245338 0.5524083 0.6236234 0.32416153 -0.11696732 0.25692058 0.468628 0.13457705 0.081336655 0.099976584 0.12831159 -0.06493665 0.34320778 0.101827145 0.40040666 0.18786925 0.42724684 0.36719054 0.21269314 0.4229381 0.26813197 0.5238838 0.4211961 0.3535275 0.61640036 0.6196146 0.6079267 0.61779493 0.650405 0.54869974 0.42209506 0.37863132 0.32907355 0.7386639 0.69724977 0.6340635 0.32756844 0.3060357 0.26061612 0.19906203 0.22708067 0.23561443 0.24010107 0.72413194 0.1990283 0.26781297 0.7269199 0.11951595 0.12489052 0.1327197 0.3286667 0.36597735 0.38361773 0.72485554 0.04582379 0.006670773 0.1298044 0.31503826 0.267