# vtk DataFile Version 2.0
Really cool data
ASCII
DATASET POLYDATA
POINTS 3939 float
-18.811098 21.979605 12.799409
-18.927727 22.110064 13.455742
-18.754662 22.047146 13.995083
-18.971233 22.47028 12.837249
-19.0204 22.579624 13.5836115
-18.816381 22.641487 14.140146
-18.902323 23.267809 12.768494
-18.925356 23.367338 13.487582
-18.765182 23.271532 14.164812
-18.713243 23.993542 13.4444
-17.725496 20.641882 11.664146
-17.695295 20.445795 12.6216755
-18.025303 21.127272 13.392817
-18.050524 21.512844 11.690286
-18.465467 21.493887 12.644599
-18.276413 21.925894 14.372678
-17.951494 22.068443 14.798042
-17.576647 22.354376 9.714451
-17.547096 22.692528 10.350488
-18.522058 22.461395 14.471609
-18.115103 22.613844 14.851177
-17.65947 23.98509 9.796428
-18.469822 23.326664 11.983206
-18.588064 23.23896 12.292223
-18.507408 23.393093 14.455209
-18.143969 23.275595 14.820186
-17.853125 24.967943 8.505363
-17.787262 24.647816 9.175107
-17.719824 23.970514 11.227438
-18.16402 24.211155 12.476562
-18.352589 24.3177 13.561631
-18.160091 24.160542 14.248112
-17.946466 23.909763 14.697756
-17.85797 25.885235 7.0133667
-18.082958 25.690516 7.519335
-18.284279 25.643429 8.1006155
-17.547655 25.176435 10.555684
-17.854143 24.598696 13.740202
-17.891592 24.596533 13.901113
-17.870052 26.21817 6.981428
-18.176914 26.57949 7.454556
-18.371475 26.502937 8.642156
-18.23711 26.519262 9.061552
-17.725351 26.331036 10.117943
-17.622412 27.386957 6.679706
-18.074568 27.430815 7.6281896
-18.155018 27.459312 8.653162
-18.24655 26.951838 8.886445
-17.763096 28.110703 7.050543
-17.51268 30.704952 4.72492
-17.509523 30.438354 5.047757
-17.568047 30.473837 6.414326
-17.511358 30.891388 7.6991367
-17.241901 20.021458 11.798725
-17.147535 19.919495 12.380918
-16.913628 20.117048 13.154857
-17.073185 20.75393 9.921686
-17.294788 20.277018 10.923694
-17.422453 20.488676 13.209098
-17.40116 20.79827 13.730964
-17.095116 21.624289 8.883648
-17.55908 21.441795 14.421787
-17.391003 21.945114 14.923139
-17.073692 22.303144 8.551305
-17.442125 22.422606 15.093946
-16.700453 24.180454 6.7960973
-17.101313 23.930307 7.846818
-17.445448 23.138845 8.809467
-17.489902 23.487097 10.1829605
-17.45598 23.157206 15.102985
-16.661665 24.898031 6.176487
-16.985474 24.935234 6.457791
-17.470137 24.902798 10.317789
-17.521292 24.383163 14.29515
-17.588829 23.94821 14.728342
-16.636808 26.055027 5.338191
-17.507435 25.623983 6.6995277
-16.833328 25.266933 11.922908
-17.394735 24.725344 13.49129
-16.605759 27.090061 4.717978
-17.039213 26.927824 5.918447
-17.162685 26.421516 11.208346
-16.881418 27.94134 4.766841
-17.512865 27.085114 6.348308
-17.107512 27.008326 10.782579
-16.69979 28.437822 3.6086054
-16.875385 28.541801 4.5580306
-17.56407 28.341072 9.114429
-16.772892 30.011272 3.2828918
-16.95913 29.507689 3.7430897
-17.411823 29.834873 4.571367
-17.402803 29.607618 5.9593163
-17.215294 30.58234 3.968118
-17.36809 30.211542 4.2741833
-17.390083 30.041468 8.296356
-17.013933 30.576235 9.403014
-17.07684 31.626108 3.8895512
-17.23837 31.521828 4.1814504
-17.342373 31.47527 5.829918
-17.357773 31.522417 6.498461
-17.403198 31.351042 7.7880683
-17.311653 31.421072 8.374277
-17.148586 31.418661 9.45218
-16.740185 31.746103 9.924173
-16.591354 32.884983 2.6719248
-17.1332 32.6254 4.3681498
-17.036604 32.48434 5.239027
-16.999035 32.633087 7.2753954
-17.356174 32.418365 8.390039
-17.15892 32.69184 9.296231
-16.803375 32.63244 9.84054
-16.6088 33.434635 2.9527588
-16.894243 33.470642 3.716012
-16.9956 33.42324 4.5953865
-16.894772 33.601036 5.473198
-16.93821 33.460373 7.8542447
-17.163338 33.358994 8.54874
-16.988821 33.321133 9.263861
-16.728432 32.930252 9.931382
-16.714705 34.091503 3.751795
-16.823164 34.160862 4.437948
-16.811502 34.11926 5.3246827
-16.833958 33.70439 8.001224
-16.858578 33.762863 8.611732
-15.956739 19.394165 10.071731
-16.039686 19.398531 10.422172
-16.313831 19.434784 11.543421
-16.155264 19.701168 9.823642
-16.359716 19.590351 10.332651
-16.457546 19.49289 11.368349
-16.665794 19.71068 12.461361
-16.20866 21.209242 8.29857
-16.402836 20.963606 8.672016
-16.666622 20.6274 9.50816
-16.82509 20.87026 13.953808
-16.264046 21.788984 8.143265
-16.376795 21.694141 14.557964
-16.81367 21.881365 14.862084
-16.322712 22.363031 8.054048
-16.926065 22.420126 15.092694
-15.917086 24.112291 5.9765553
-16.15689 24.007786 6.615874
-16.512379 23.117708 14.927327
-16.004929 24.96139 5.2650547
-16.304071 24.867018 5.7065535
-16.715551 24.188421 14.304626
-16.349571 25.399052 12.068685
-16.522505 24.756954 13.316795
-16.931541 24.582708 14.025137
-15.977295 26.94603 3.7515635
-16.501274 26.742266 11.513233
-16.013412 27.80087 3.1497493
-16.317417 27.754513 3.436115
-16.70012 26.945208 11.148055
-16.157574 28.401293 3.035078
-16.538366 28.37572 3.3218176
-16.479588 28.219072 10.025568
-16.114813 29.275106 2.9156163
-16.552599 29.867226 9.648114
-16.127222 29.796959 10.020394
-16.330158 30.522371 2.8492253
-16.189356 30.815556 10.3989525
-15.929991 31.728016 2.1300437
-16.25568 31.758245 2.5734134
-16.456852 31.464947 10.240652
-16.005272 31.700872 10.563265
-15.983114 32.646065 1.9929079
-16.366274 32.851208 2.3872192
-16.396194 32.608765 10.185059
-15.932827 33.406998 2.049257
-16.309969 33.316822 2.4553275
-16.56568 33.61571 6.0438366
-16.25582 33.436283 10.018717
-16.077738 34.029877 2.6795087
-16.44003 34.36261 3.6152806
-16.54688 34.635925 4.4357615
-16.35432 34.598263 5.3113713
-16.432318 34.040974 8.527772
-16.357878 33.924107 9.355709
-15.985965 33.755337 9.939466
-16.146713 34.852936 3.896961
-16.175785 34.945667 4.5103784
-16.239765 34.806526 5.138458
-15.507202 19.384855 10.090791
-15.377848 19.292145 10.406368
-15.471208 19.293467 11.342543
-15.589212 19.454405 12.06123
-15.264676 20.277632 9.024231
-15.453795 19.543139 9.774761
-15.587498 19.598677 12.4564085
-15.576153 20.079525 13.325115
-15.761881 21.160929 8.180355
-15.680415 20.361357 8.904625
-15.382052 21.13082 14.035799
-15.733545 21.435139 8.104608
-16.1461 21.93069 14.739222
-15.147119 23.283327 6.8305206
-15.243092 22.535252 14.265609
-16.135893 22.851809 14.764508
-15.465713 24.197716 5.626614
-15.138129 23.740112 6.3566604
-16.12095 23.65027 14.546572
-15.479123 24.8545 4.996092
-15.719435 24.133272 13.89667
-15.011594 25.931726 3.9514534
-15.611063 25.467096 4.7128024
-15.23042 25.167238 12.406883
-15.769302 24.791803 12.972641
-15.572231 27.15292 3.314035
-15.290532 26.37407 3.8398697
-15.826339 25.90547 11.836109
-15.514852 27.751581 2.9981036
-15.613732 28.447891 2.7855294
-15.31222 29.894135 2.3373692
-15.489094 29.647678 2.5213063
-15.268754 30.083893 10.702825
-15.249167 30.605547 2.121442
-15.33851 30.697016 10.701027
-15.479955 31.77065 1.9041815
-15.50623 31.360878 10.686166
-15.396366 32.571205 1.6622247
-15.407166 33.32693 1.730095
-15.554732 33.4559 10.38714
-15.275515 33.327663 10.554311
-15.402889 33.9225 2.073606
-15.594583 34.33647 2.6747634
-15.057376 34.581825 6.5402393
-15.7157545 34.284588 7.0216
-15.208286 34.443214 8.848821
-15.632749 33.942764 10.010384
-15.520124 34.58505 2.9524467
-15.697516 35.18387 5.0993514
-15.329752 34.632843 6.006258
-14.762058 19.393087 10.60031
-14.7904825 19.605389 9.93258
-14.329896 19.813396 10.179939
-14.682793 19.607325 11.373846
-14.986849 20.232243 13.429017
-14.688165 20.693213 13.497577
-15.147675 20.67281 13.771002
-14.747992 21.643599 8.040943
-14.974478 21.750723 13.957418
-14.717467 23.014603 7.389324
-14.837703 22.449717 14.077879
-14.132322 23.343277 14.0063095
-14.253064 25.182976 4.387447
-14.083922 24.443464 13.615223
-14.45222 25.690289 3.9794497
-14.76234 25.412039 4.3572106
-14.310637 25.245062 12.04559
-14.032123 24.853281 13.054694
-14.409814 26.84006 3.3498223
-14.31725 26.278109 3.5666144
-15.032623 26.607296 11.386549
-14.418522 27.773699 10.565392
-14.934234 28.707367 2.7447023
-14.364186 28.024874 10.576821
-14.739432 29.948034 2.2898216
-14.558274 29.36489 2.676683
-14.041119 29.298168 10.764896
-14.41133 30.24475 2.1883278
-14.175925 30.906528 10.941654
-14.682544 31.482258 1.8811858
-14.317473 31.414164 10.793607
-14.763277 32.693375 1.6605008
-14.843337 32.221157 10.771961
-14.759347 33.384884 1.7527449
-14.786051 33.885532 2.023034
-14.567235 34.070427 2.4467661
-14.023632 34.282654 9.611666
-14.368961 33.783478 10.069872
-14.831322 34.793373 3.6541321
-14.109987 35.67657 5.9957485
-13.926731 35.37431 8.287373
-13.684656 35.80234 4.644726
-13.856246 36.46239 5.657059
-13.888487 36.347046 6.595802
-13.810906 36.40956 6.8597245
-13.753458 36.915188 6.61175
-14.109626 19.753998 10.830618
-14.180212 19.998945 12.276324
-14.162214 20.95557 8.872766
-13.341369 21.771038 13.627711
-13.446849 22.723227 14.030012
-13.59103 23.880873 5.956823
-13.352995 25.225292 4.2386827
-13.26195 25.183493 4.3835173
-13.437587 24.429089 14.486288
-13.582741 25.94105 3.847828
-13.255169 26.540442 3.6748881
-14.024759 25.667696 11.725038
-14.131977 27.805933 3.1803796
-13.14828 27.743847 10.471494
-13.960628 28.104948 3.3591492
-13.556845 29.081858 3.3846955
-13.414519 28.661453 11.048079
-14.126672 29.655857 2.5846636
-13.5999155 29.192833 10.985239
-12.863786 29.91058 11.69426
-13.895359 30.52062 2.2995725
-13.345394 30.695734 11.256286
-14.169402 31.399458 2.0282867
-14.083283 32.500095 2.019998
-14.276836 33.231243 1.9340783
-13.96869 33.23211 2.3259711
-13.919887 33.59128 10.167992
-12.823485 33.503773 10.858826
-13.151798 35.296753 3.9753332
-12.711004 35.990513 3.9257667
-13.434712 36.301193 4.9547734
-12.834976 36.742115 8.205699
-13.121355 37.109467 5.0658183
-13.100529 37.45002 5.5771394
-13.461634 37.2586 6.3761516
-13.072664 37.20516 7.2635317
-12.743494 37.532715 7.9309177
-12.783848 38.048775 5.7329173
-12.768411 38.10063 6.5092793
-12.728849 37.88816 7.6230392
-11.533685 19.367596 11.043715
-13.151671 20.990824 9.605207
-13.139514 21.54747 9.669118
-12.134668 23.164673 6.6080766
-12.5075655 22.515968 14.67395
-11.948779 22.647547 15.253244
-12.633167 23.959358 5.8592386
-12.092435 23.549242 15.860966
[...]
POINT_DATA 3939
SCALARS features_00 float 1
LOOKUP_TABLE default
0.71393085 0.77464056 0.78783584 0.7390568 0.8053565 0.83087337 0.73531556 0.8205619 0.8515841 0.81355083 0.5332893 0.5781911 0.6691531 0.51258886 0.65199137 0.7781999 0.7926948 0.33748 0.2265484 0.82909 0.8389487 0.16657591 0.5163355 0.6157823 0.86116076 0.8668541 0.34675145 0.2691778 0.18279104 0.62224436 0.77099574 0.804612 0.831602 0.34191662 0.38034475 0.4031529 0.27516195 0.67367136 0.6965225 0.33982214 0.3836757 0.4173764 0.39902848 0.38267645 0.27207604 0.38392147 0.42289993 0.41076666 0.24903259 0.2742988 0.26277107 0.20081758 0.26154783 0.55089813 0.56712615 0.5852001 0.5093946 0.52509606 0.6073895 0.65174305 0.43098682 0.7192023 0.7520678 0.36000207 0.7926026 0.27240402 0.24849072 0.25633642 0.13561398 0.84694976 0.2849889 0.28741586 0.22384152 0.6970118 0.804145 0.2727619 0.31128654 0.21775609 0.53782904 0.29332885 0.22358751 0.29089227 0.2757946 0.2570932 0.29670522 0.38768578 0.3142883 0.32717985 0.39252892 0.3696583 0.30030024 0.20640062 0.33446327 0.31302485 0.26653215 0.397617 0.37237918 0.33082664 0.22824603 0.2188195 0.30826265 0.398597 0.46130872 0.46837115 0.58882093 0.39091069 0.3008192 0.27708715 0.4682179 0.54108334 0.52969205 0.5935961 0.51456255 0.44421348 0.3668132 0.38266474 0.5120481 0.5606885 0.5393486 0.5474333 0.48741937 0.40386814 0.4049596 0.5142938 0.5285389 0.53044176 0.5489122 0.5239396 0.5275478 0.54598737 0.57325757 0.42918748 0.45943046 0.5036553 0.62733006 0.36644685 0.5695765 0.66818523 0.3041352 0.7244636 0.2832674 0.27667972 0.71764517 0.30383596 0.29332435 0.617176 0.09443407 0.31090677 0.5377683 0.3729566 0.17740253 0.4146358 0.40237242 0.23398358 0.4225058 0.40560234 0.12066527 0.43104815 0.30996224 0.26996404 0.4395902 0.35636866 0.58564377 0.53827274 0.42674673 0.41016287 0.6815307 0.6367985 0.5040745 0.70923793 0.6577703 0.29002956 0.53783685 0.65899324 0.5726288 0.4909445 0.38377726 0.47000033 0.5461829 0.527774 0.540542 0.47011825 0.39081466 0.5261203 0.5213475 0.5276731 0.56513417 0.5195098 0.52396995 0.5950018 0.59128696 0.41408747 0.5104206 0.39517885 0.38135698 0.5432254 0.16885233 0.36343753 0.6057796 0.27040866 0.20856753 0.64697564 0.2929351 0.36830792 0.29740745 0.29862857 -0.013117034 0.09299006 0.40096262 0.33010983 0.05608441 0.40914214 0.40911934 0.39550477 0.40396035 0.19054261 0.4389498 0.2516645 0.6082881 0.33061954 0.7070426 0.7417532 0.47982824 0.44640887 0.736552 0.6720326 0.076362446 0.1863834 0.40103692 0.49733973 0.6306769 0.31757182 0.16027257 0.517355 0.5216392 0.52818084 0.5242804 0.49324867 0.35681814 0.41276646 0.31566226 0.27932152 0.14390764 0.25493944 0.24037214 0.27888906 0.03840512 0.28633446 0.27580047 -0.06656774 -0.06334612 0.3503266 0.3152064 -0.06631893 -0.18388706 0.36881268 -0.14407972 0.3671598 0.33809125 -0.0068976656 0.3608665 0.100884795 0.5235494 0.15616229 0.7006802 0.33200446 0.74304616 0.74689597 0.70161414 0.32583636 0.37949717 0.45430923 0.2312328 0.07041611 0.3260725 0.39898318 0.31850785 0.309604 0.3981826 0.51334953 0.5257606 0.46591502 0.045903802 0.051920354 0.13638827 0.30194914 0.30138302 0.16442733 0.29307443 0.27400374 -0.14419918 0.3112775 -0.16386677 0.25871256 0.18352222 -0.08378379 0.30586806 -0.034188256 0.007079579 0.32613027 -0.00029724836 0.44036973 0.58080417 0.6984824 0.6206266 0.28664076 -0.14471847 0.28365803 0.38622254 0.42198342 0.21527013 0.4741178 0.49001375 0.44508943 0.38283104 0.31228843 0.51562357 0.4867213 0.37761933 0.60292196 0.40053692 0.3568176 0.07046356 -0.13735393 -0.08290987 0.11393167 0.30029297 0.29618168 0.17840534 0.29121777 -0.059930317 0.023005709 0.053992048 0.20400584 -0.54730356 -0.2642665 0.587955 0.11690854 -0.263003 0.6908772 0.6835715 0.65689456 -0.060244266 0.6931289 0.69573885 0.6679132 0.037886985 0.67296135 0.65480673 -0.012707412 0.19719768 -0.08848087 0.012567997 -0.14775012 0.10977855 0.280054 0.32104766 0.3237424 0.31451243 0.3355346 0.37968236 0.0053480174 0.15248607 0.2686373 0.3229879 0.3356753 0.4538942 0.48006204 0.19967102 0.2151713 0.29767534 0.513284 0.528455 0.50767183 0.35988584 0.31088522 0.53105545 0.5184744 0.44480407 0.64971256 0.65187436 0.6575145 0.61928064 0.64107525 0.68074787 0.63959897 0.36169118 0.050929688 0.034352586 0.026986152 0.55432427 0.546144 0.4602852 0.008182913 -0.01592438 -0.0039648414 0.29477173 0.17367356 -0.2921596 0.17426646 -0.13393709 -0.1583764 0.084362894 0.37082386 0.28606018 0.19225226 0.10086761 0.25978792 0.40389326 0.41558033 0.2935676 0.34291446 0.40692213 0.2501087 0.035387993 0.19235672 0.25484768 0.20449756 0.18836841 -0.07230404 0.3191983 0.35437733 0.48452675 0.49319196 0.17876564 -0.45142725 -0.10181553 -0.08371231 0.56638074 0.58199656 0.54188997 0.12118624 -0.010504417 0.4008808 0.61481416 0.6130066 -0.072744235 -0.08010718 0.034756914 0.48191082 0.6028151 0.6466186 0.61178696 0.062274486 0.4637562 0.62698185 0.6388291 0.62882805 -0.040198974 0.05359596 -0.014483646 -0.00047810376 0.09810101 -0.07591634 0.21261054 0.35204437 0.37905538 0.34062472 -0.048692316 0.03392994 0.22282472 0.27548134 0.32907873 0.36479253 0.49765342 0.0059128776 0.5046353 0.5106907 0.37006944 0.87754285 0.78228366 0.72662294 0.5328646 0.6093714 0.44294754 0.57584846 0.59374744 0.5022427 0.34628534 0.38141018 0.40955195 0.36043283 0.64121515 0.6231766 0.2958038 0.2807383 0.6435278 0.12737404 0.19198991 0.5165359 -0.017144397 -0.059374087 0.24368477 0.36630985 -0.0937459 -0.10544288 0.0038898364 0.21519476 0.576851 0.42669284 0.3285756 0.30096158 0.2308456 0.25296834 0.32664865 0.40377098 0.60009164 0.52519846 0.40664768 0.41661987 0.4114595 0.5117283 0.3873868 0.36889383 0.17413123 0.4426077 0.43858173 0.08002288 -0.28960067 -0.14800832 -0.1519485 0.21035051 0.48158067 -0.16380857 -0.16163756 0.2106123 0.52789503 0.037107162 0.3167715 0.37241164 0.5548644 -0.17408377 0.05820528 0.04040834 0.24098426 0.5398172 0.49857968 0.49799865 0.35203335 0.15698397 0.0043137707 0.25315285 0.33729625 0.31718317 0.38920197 0.15272067 0.23195997 0.3423378 0.37111062 0.3937227 0.28464448 0.2363892 0.3076967 0.054068677 0.3663286 0.37964225 0.4045704 0.3599928 0.28463587 0.38622224 0.3725511 0.2525862 0.3728617 0.41327524 0.4397215 0.3996147 0.37992293 0.57281137 0.4925751 0.4401689 0.37033468 0.44024765 0.47208583 0.45691973 0.42296717 0.60786384 0.60096836 0.5520483 0.3934765 0.37743938 0.44235432 0.3559286 0.36888927 0.38125455 0.47280928 0.19537841 0.08210613 0.26132116 0.3052888 0.45630467 0.46120554 0.32213348 0.29294354 0.19217277 0.5870546 0.5822363 0.584378 0.5096167 0.38746226 0.6271223 0.61117804 0.9236915 0.9180094 0.8904867 0.9238528 0.8518847 0.7417684 0.6228007 0.6768305 0.42280897 0.45381021 0.4049153 0.32844108 0.29380235 0.61218697 0.54743105 0.27549505 0.20819214 0.6143403 0.19480047 0.4861082 0.40169448 0.43709236 0.0035170317 0.6274712 0.5893287 0.5280762 0.33859456 0.39747244 0.6246153 0.54925835 0.5542259 0.32314616 0.42151618 0.19947715 0.3358846 -0.04376718 0.38730898 -0.025983714 -0.14621301 0.1145314 0.39443427 0.008513475 -0.3654456 0.18329886 -0.19258471 0.08313128 0.4245759 0.4294958 0.27354392 -0.1516376 -0.13531028 0.069506645 0.2510057 0.25952655 0.35609195 0.17260072 0.45102596 0.4626401 0.22166616 -0.30044696 0.35046318 0.4241339 0.32654685 0.2343816 0.18180422 -0.023819715 0.2364437 0.32624638 0.39359778 0.518139 0.46578413 0.41806233 0.34393987 0.62824297 0.58072317 0.40892118 0.6608499 0.2463951 0.3795473 0.4038238 0.3743299 0.69650376 0.63588864 0.5380596 0.45464158 0.27154323 0.17591652 0.25398785 0.31463107 0.65005285 0.33444875 0.231204 0.20325834 0.5151119 0.19717817 0.23379475 0.6024536 0.40460685 0.59102297 0.6191243 0.607867 0.56179035 0.48114887 0.6104038 0.6036127 0.58181834 0.8129235 0.88755405 0.9095017 0.6606628 0.7918538 0.84742856 0.8198737 0.6080996 0.71223295 0.56752133 0.4721984 0.45598617 0.41615582 0.35462725 0.3181892 0.1835009 0.2130734 0.395542 0.3179586 0.09340971 0.10897856 0.14432012 0.1719741 0.41141304 0.106629916 0.16655192 0.6292973 0.6007065 0.52638316 0.27065215 0.25981882 0.6210977 0.19267215 0.5487841 0.5743743 0.22378527 0.48214853 0.4761586 0.17236364 0.04752083 0.026436955 0.10517981 -0.086239696 -0.094777435 -0.33602008 -0.46289057 0.075271174 -0.08454582 -0.45683193 0.36565518 0.26881787 -0.16046143 0.42739943 0.29590335 0.44277775 0.2668595 0.26665914 0.41455 0.4407975 0.35667607 0.3869173 0.4920638 0.44005108 0.28206864 0.27818158 0.6078259 0.56906253 0.7367798 0.34682712 0.7422754 0.2665627 0.30882788 0.66037536 0.6125405 0.5239526 0.41745323 0.07826034 -0.20410267 -0.22293338 0.00072545744 -0.17117451 0.17632484 0.2432602 0.26925528 0.3072955 0.5733781 0.3372373 -0.2400602 0.22213963 0.46932656 0.47743374 0.33945376 0.2287294 0.5162067 0.55833566 0.533388 0.45345795 0.5762402 0.5636064 0.5558482 0.77159584 0.8292242 0.8273291 0.6196097 0.6809337 0.7758517 0.5438093 0.46632075 0.33146116 0.13606712 0.2378841 0.15763734 0.16446868 0.08497397 0.11284287 0.17753924 0.1360061 0.23355728 0.19639176 0.25211692 0.29875332 0.066762134 0.29689175 -0.041476913 0.21971738 0.59906125 0.53620607 0.39841887 -0.034397107 0.58830273 0.5051631 0.042574063 0.5245739 0.385618 -0.040305473 0.05848092 -0.09902092 0.34713122 -0.03600074 -0.101830006 0.1994457 -0.014750838 -0.020563733 0.19792825 0.2952479 0.29364485 0.33918366 0.29042614 0.3937456 0.2606867 0.27675146 0.39762008 0.25339907 0.229357 0.41832492 0.116600156 0.63183343 0.5170542 0.14895992 0.7469398 0.22052363 0.79059136 0.26868787 0.65005326 0.5978036 -0.10910836 -0.2531244 0.12005852 0.33489442 0.32934514 0.54357696 0.31168815 0.16904421 -0.01644958 -0.21720749 -0.2534223 -0.24421194 0.13321981 0.26057324 0.29561797 0.3237376 0.3587076 0.15235138 0.37897116 0.51821625 0.48649433 0.7170807 0.7561872 0.63269246 0.67052716 0.75271046 0.7953086 0.40258655 0.50574845 0.57423514 0.32623744 0.36637115 0.17381169 0.06653795 0.19864506 0.12768176 0.11513424 0.117352985 0.075993165 0.10807009 0.3162049 -0.0016815956 0.32299107 0.32241887 0.0069852546 -0.06266599 0.2659883 0.10414525 0.056323875 -0.029434837 -0.08976308 0.26980373 0.08328511 0.05704774 0.24546088 -0.041894656 0.39943162 -0.053429402 0.42762822 -0.11131769 0.40084267 -0.24719357 0.39650565 0.08904423 0.17380323 0.19665003 0.21352014 0.29426876 0.25553554 0.32693243 0.25013763 0.334963 0.1859987 0.20291853 0.2314403 0.3236377 0.20015845 -0.00086862966 0.4217366 0.20710297 0.07796448 0.61918867 0.48223564 0.12719744 0.19488403 0.25441372 0.5217186 0.38835043 0.04512294 -0.17382923 -0.29850185 0.016294476 0.30221668 0.31376165 -0.24500966 0.2182698 0.27778316 0.29388535 0.11342437 -0.021346003 0.26111054 0.36270308 0.13583463 0.13998297 0.4570353 0.37108675 0.43121964 0.4610533 0.4609858 0.6549265 0.69582546 0.55575585 0.30857503 0.36626476 -0.09412561 -0.10025691 0.044782873 -0.08356252 0.29461846 0.049546465 0.012572482 0.32129085 0.08050625 0.29683533 0.23517184 0.03294027 0.067687795 0.030493818 0.1418833 0.19778903 0.17699957 0.31266823 0.13929506 0.39467862 0.3996632 0.09787677 0.4480968 0.012270022 0.41816667 -0.08615708 0.24761502 -0.002975583 0.041112244 0.18571341 7.50646e-06 -0.021998748 0.2724875 0.27730095 0.22592768 0.105300866 0.2724403 0.26070708 0.20109719 0.27755502 0.25973606 0.19458456 -0.06541423 0.19534329 0.0521352 0.38939857 0.11226143 0.58901817 0.17934626 0.1299297 0.22018975 0.48149863 -0.34815013 0.28008384 0.25361168 0.009714586 -0.05791026 0.00018768758 -0.13949116 -0.34597847 -0.1985676 0.27270168 0.26830018 0.26626006 0.08011371 -0.022108667 0.25289083 0.2731611 0.2719148 0.2290696 0.13241522 0.17530194 0.19291343 0.32298386 0.34190792 0.46027476 0.4165057 0.47449452 0.455942 0.5533638 0.51195985 0.52322733 0.51691777 0.550869 0.57914555 0.61489993 0.62339187 0.65501803 0.6804608 0.6370132 0.49673507 0.5864114 0.58413947 0.6210418 0.34009436 0.44599494 0.5094291 0.12994662 0.21540174 0.21525806 0.022788353 -0.08366894 -0.15657084 -0.1627508 0.04850718 0.05475956 0.10865025 0.069577724 0.0720759 0.04762743 0.10504597 0.08163275 0.0624976 0.032179154 0.06894012 -0.0063708723 0.009408988 0.18910341 0.21729565 0.09970212 -0.019146234 0.23932363 0.28117537 0.06783386 0.24857333 0.2572921 0.426456 0.33583197 0.18282926 0.24350753 0.43032342 0.3891402 0.12371513 0.45330292 0.4461596 0.38502744 -0.060556702 0.050671592 0.23965457 -0.014110893 -0.103201434 0.19506234 -0.45759726 0.22718312 0.040979255 0.22865784 0.24711603 0.25383717 0.043897666 0.2821548 0.17870647 -0.22125602 0.09409996 0.11405282 0.124585226 0.5843993 0.58364034 0.5939243 0.14756347 0.60310096 0.62862736 0.5184589 0.16278633 0.5797932 0.503677 0.20252523 0.51183605 -0.04971914 0.26440495 0.23084706 0.2524713 -0.08011456 0.23584431 0.11590423 0.27677083 0.23498869 0.22965032 0.25358424 0.33276856 0.39390686 0.40689903 0.3324391 0.26953596 0.3421412 0.21817367 0.2141648 0.29340082 0.250571 0.26545185 0.36457053 0.41829145 0.45577875 0.48371226 0.44092697 0.3420937 0.23433408 0.37671024 0.46962726 0.47699752 0.36540514 0.3388281 0.28974897 0.43602207 0.61639017 0.610149 0.5465287 0.6443161 0.7675234 0.8027253 0.79327786 0.72557735 0.85292757 0.8956516 0.86989534 0.70772016 0.71611935 0.54247904 0.6479801 0.6742907 0.6759013 0.675005 0.35496628 0.40714213 0.6168916 0.6286192 0.5407376 0.3172087 0.42780438 0.34890705 0.30034757 -0.07539111 -0.29747593 -0.12529343 0.1336166 0.072333485 -0.21665612 -0.009889234 0.07269226 0.022355922 -0.014638122 -0.1511692 0.063260555 0.023693923 0.19039226 0.0048383176 0.005267963 0.22891082 0.2429741 0.25913388 0.26122886 -0.0034734234 0.24933293 0.14936037 0.23079814 -0.40689066 0.16598776 -0.4009493 0.12059675 0.15940437 0.066412374 -0.79260623 0.20476407 0.18886685 0.07155129 0.26236722 -0.02316229 0.27084133 0.19104902 0.23409031 -0.27775636 0.1351545 0.528199 0.18452422 0.5588919 0.5619248 0.55128413 0.49457657 0.20079155 0.5816471 0.59530973 0.14345613 0.17878744 0.5637647 0.5828461 0.18309954 0.45226258 0.29573184 0.2767192 0.21037875 0.3656677 0.33577102 0.43817872 0.38750532 0.4152081 0.38131392 0.42869696 0.36624968 0.49014378 0.41853783 0.35403883 0.53011113 0.49765468 0.49461746 0.36294734 0.43785238 0.49037257 0.41756475 0.38008475 0.34611627 0.16346678 0.29861522 0.63984376 0.6309431 0.61155033 0.5684184 0.53686094 0.6402199 0.8083277 0.7660805 0.76159567 0.9030949 0.91920936 0.87007034 0.54927844 0.62536 0.6504941 0.7388865 0.3699406 0.4882275 0.68490577 0.2640956 0.62372035 0.6054454 0.545548 0.46985638 0.42560095 0.4387802 0.417211 0.3370566 -0.15313569 0.111014664 0.11618052 0.094763376 0.076022595 -0.112140074 0.07041604 0.22053452 0.103764765 0.029001348 -0.27899355 0.23664176 0.048602916 0.20689195 0.1605544 0.20850623 0.22706234 0.22574602 0.25588655 0.24570769 0.24382041 0.238115 0.074263476 -0.09693222 -0.19480085 0.23372212 -0.4033572 0.2178337 -0.4092031 0.12634796 0.06341192 -0.47849023 0.1298115 -0.4678526 -0.75534725 0.1914379 0.1468862 0.28953713 0.10381814 0.2684788 0.19658968 0.23984212 -0.16684219 0.1551151 0.479338 0.43352503 0.20963421 0.17526522 0.5133796 0.48907408 0.2312721 0.542179 0.16544452 0.21599704 0.53036857 0.550853 0.15408158 0.49117193 0.49268883 0.32167184 0.4197507 0.36707848 0.48156533 0.47246087 0.44837397 0.3487782 0.3817923 0.4869125 0.056879222 0.30154932 0.42036402 0.5772182 0.45105618 0.3549245 0.3909464 0.41500062 0.40566882 0.37736064 0.31930256 0.16106844 0.1477072 0.29687855 0.5539194 0.6996915 0.63590705 0.6626078 0.6348387 0.582697 0.4020016 0.49604362 0.74255574 0.74548674 0.7577605 0.7366879 0.66601586 0.6362395 0.7471478 0.85563934 0.8429485 0.8311426 0.5826743 0.4683032 0.5307486 0.5831177 0.63499486 0.61242545 0.28918326 0.63141406 0.59531283 0.2034349 0.593397 0.468372 0.35138357 0.52796936 0.50694275 0.49590608 0.44973987 0.47226942 0.32640117 0.38301316 0.35998362 0.107823744 0.02344323 0.08672192 0.044204064 -0.056949273 0.46037936 0.41512084 0.18535918 0.02686261 0.060922395 0.1776954 0.40228897 -0.06703184 -0.033271946 0.18577339 0.27267653 0.28833735 0.27476996 0.19536702 0.27301255 0.27239352 0.2168715 0.28137746 0.20853852 0.20348427 0.18488519 0.20748277 0.021338962 0.15894002 0.19023761 0.097840264 0.19778621 0.046947062 0.06354605 -0.016928896 -0.010233656 0.12162481 0.2332039 0.25005114 0.14227876 0.15592583 0.20220841 0.05432397 0.21621108 0.26932293 0.077633545 -0.005343452 0.2586845 -0.020625278 0.035979234 0.11385052 0.17557405 0.15994458 0.21358165 0.38531396 0.37045932 0.24581948 0.5070201 0.37687588 0.20608166 0.2266104 0.45857346 0.40199673 0.35654193 0.48410308 0.43675888 0.26414263 -0.08455954 0.195098 0.4390198 0.48443243 0.49059603 0.38212654 0.28618595 0.22061156 0.29078636 0.15827538 -0.040292516 0.11096133 0.39363265 0.25661394 0.2763611 0.24159162 0.27151754 0.13521728 0.47062606 0.3558569 0.52328277 0.49341863 0.6711421 0.54831743 0.32224935 0.6428987 0.69761896 0.6941858 0.6631813 0.65497184 0.62005126 0.58044267 0.43156618 0.46820903 0.49427944 0.5475193 0.20638493 0.24136193 0.5546169 0.568195 0.22595295 0.16277367 0.54729795 0.4559546 0.31264114 0.52145207 0.493577 0.46807453 0.45473588 0.48579925 0.4389667 0.29928356 0.16796768 -0.09174934 0.53034955 0.50258994 0.45514682 0.52484006 0.5122558 -0.013959087 0.24776784 0.30342045 0.41190246 0.48463994 0.29269376 0.31995046 0.18604404 0.28771082 0.2912591 0.17562917 0.17712407 0.2649157 0.18617721 0.16659158 0.23239371 0.15355392 0.20729312 0.20520969 0.15032995 0.10873745 0.2290132 0.04832176 0.24027215 0.21665199 0.055683553 0.23935683 0.18439877 0.20853315 0.09500861 0.15469177 -0.021459177 -0.016555682 0.019236505 0.14317474 0.19507931 0.23366554 0.20860581 0.21390605 0.22811222 0.24813296 0.22303684 0.2470947 0.39764458 0.23163044 0.12758864 0.46287227 -0.22103603 0.37416914 0.47107527 0.49831086 0.2823411 0.15573294 0.0068245977 -0.07068807 0.3907199 0.4534922 0.49530917 0.39835706 0.28161275 0.21735215 0.028849224 -0.038073856 -0.034765307 0.0757972 0.11737765 0.0051625073 -0.0195899 0.52135456 0.124075785 0.18184204 0.37538725 0.38004988 0.27847987 0.5762402 0.5255247 0.48787716 0.34008086 0.38328457 0.39715385 0.3104446 0.26531932 0.3727601 0.48128486 0.24323681 0.44710183 0.48146382 0.3061037 0.45242327 0.40837103 0.4436096 0.44281018 0.33191633 0.42956078 -0.06549597 0.41211253 0.24839613 0.19563872 0.12687886 0.53957283 0.5074681 0.46078885 0.17812586 0.2183667 0.2755925 0.5292737 0.5415323 0.3243912 0.31549093 0.4233289 0.47981572 0.29931295 0.3268425 0.17709368 0.2674209 0.25148326 0.1741983 0.22796425 0.19174518 0.20638245 0.11470925 0.21916306 0.1186903 0.2079916 0.18799284 0.1950788 0.2178187 0.21258807 0.3360659 0.21253519 0.27462575 0.40792996 0.12273206 0.36084038 0.15361966 0.12102403 0.12227203 0.3335595 0.39794376 0.09707231 0.15636514 -0.04412362 0.19488677 0.105551094 -0.29083002 0.26340193 0.24811564 0.2531224 0.26588017 0.12345644 0.19342059 0.21058214 0.16203573 0.16164505 0.17531028 0.031870842 -0.15780883 0.30963278 0.06255698 -0.087293655 0.03181824 0.0018194877 0.09270811 0.46787894 0.10866351 0.022831019 0.1351028 0.11223919 0.08662306 0.107924476 0.11498228 0.4974884 0.4726041 0.37745345 0.3409267 0.1914873 0.42772064 0.44629663 0.47359017 0.481718 0.3638077 0.40117657 0.42504722 0.32794648 0.30714253 0.3299959 0.39542887 0.28090608 0.4010163 0.37823206 0.070112474 -0.014984675 0.40083653 0.21217409 0.06524615 -0.18965569 0.52303493 0.49001738 0.2566091 0.27944833 0.44933176 0.5160007 0.44042996 0.11590102 0.20576964 0.27326098 0.38059324 0.39547923 0.20823318 0.22022359 0.29894316 0.19731745 0.17262897 0.15913382 0.20985201 0.15944201 0.17109047 0.14597051 0.18455988 0.19205663 0.18274112 0.3651185 0.17206661 0.42934933 0.13790709 0.49427426 -0.04791656 0.48300683 0.47950596 0.1249198 0.12045989 0.2645626 0.41914415 0.44935313 0.10056437 0.123876095 -0.27762306 0.20417583 0.1776101 0.08274582 0.27131316 0.23430045 0.19249141 0.012009762 0.25609058 0.26989335 0.20128042 0.15465854 0.1360377 0.09749273 0.29508117 0.26918912 0.30291435 0.31599486 0.63471264 0.53120714 0.14266476 0.2009583 0.669996 0.656134 0.4