# vtk DataFile Version 2.0
Really cool data
ASCII
DATASET POLYDATA
POINTS 5897 float
-25.61946 29.095615 25.091305
-25.685436 29.093998 25.418234
-25.743767 29.742085 25.01107
-25.855762 29.644272 25.605497
-25.742815 29.60563 26.105143
-25.800974 30.196547 25.083601
-25.872522 30.25419 25.526184
-25.747309 30.320549 26.227701
-24.584606 24.19662 31.59161
-24.673494 24.897318 30.619194
-24.724508 24.677849 31.295954
-24.61008 24.65619 31.99447
-24.772968 25.7125 29.890436
-24.931942 25.421463 30.41378
-24.991247 25.674095 31.536188
-24.645483 25.49305 32.065487
-24.739065 26.538433 29.688284
-25.103884 26.433548 30.675238
-25.090246 26.50096 31.256527
-24.817898 26.253702 32.017906
-24.912647 28.28842 25.028364
-24.99697 28.279654 25.376005
-24.622417 26.98368 29.662334
-24.8442 27.268335 30.792406
-24.816233 27.219156 31.316883
-24.923424 28.953907 24.306236
-25.188116 28.742355 24.776499
-25.388088 28.666668 25.522738
-25.184866 28.900116 26.242554
-25.01675 29.646404 24.182993
-25.46707 29.473198 24.647903
-25.544909 29.661829 26.506304
-24.911625 30.41503 24.10681
-25.502943 30.251757 24.645872
-25.471153 30.572262 26.560984
-25.241611 30.482552 26.720112
-25.186378 31.369005 24.64692
-25.339912 31.511738 25.537464
-25.220211 31.530272 26.27985
-24.865456 30.99516 26.802649
-24.966911 32.21261 24.988932
-25.012875 32.45901 25.353474
-24.926704 32.327854 26.335356
-24.754269 31.998646 26.72154
-24.752457 32.90722 24.83525
-24.815453 33.091854 25.848448
-24.642471 33.009235 26.436697
-23.80914 23.33464 30.84681
-23.846645 23.388702 31.526098
-23.754251 23.38968 32.137035
-24.004429 24.057352 30.09104
-24.143862 23.739096 30.651722
-24.191233 23.656279 31.267687
-23.899035 23.666153 32.404606
-23.76256 23.933914 33.38247
-24.226511 24.688046 29.872225
-24.460331 24.455662 30.310179
-24.009537 24.699125 33.47745
-23.917938 24.950869 33.81954
-24.211008 25.939922 29.092606
-24.560635 25.248322 29.743608
-24.436249 25.66507 32.766884
-24.34546 25.286566 33.118523
-24.525434 26.324438 32.455925
-24.08974 26.4489 33.058464
-23.734482 25.9776 33.80757
-24.595251 28.132633 24.954256
-24.544859 28.107399 25.414284
-24.25254 28.271639 26.390032
-23.80338 27.6145 32.358414
-24.268122 28.705551 24.126003
-24.525948 28.531096 24.416037
-23.99398 28.10076 29.814955
-24.260065 28.09561 30.596548
-24.179823 28.187489 31.142982
-24.31928 27.780506 31.814335
-24.559261 29.651348 23.842226
-23.81326 30.20956 23.423985
-23.653645 30.472647 35.510418
-23.608498 30.309456 36.363926
-24.232174 31.032516 23.79021
-24.025406 31.582039 27.167177
-23.622217 30.995325 36.003624
-23.89209 32.745155 23.84492
-24.575726 32.70163 26.591248
-24.206142 32.641785 27.104763
-23.628027 32.695168 33.920277
-23.595798 32.89439 34.362514
-23.699371 33.09937 23.741983
-24.417265 33.197865 24.727833
-24.517258 33.88122 25.419441
-24.381258 33.657597 26.529741
-24.060278 33.76108 26.996983
-23.729362 33.535286 33.775654
-23.614649 33.73194 34.12136
-24.349264 34.32911 25.095692
-24.402512 34.4462 25.422298
-24.224771 34.419395 26.594606
-23.912195 34.335426 27.183184
-23.565952 34.233 33.966812
-24.034681 34.95433 25.119072
-24.271069 34.96549 25.789206
-23.931664 35.25129 26.58584
-23.749826 34.907284 26.99078
-23.837164 35.810528 25.559914
-23.832104 37.184887 30.788155
-23.859085 37.036495 31.75759
-23.722506 37.096794 32.311844
-24.000343 37.68227 30.803446
-24.209494 37.664738 31.43866
-24.098768 37.628677 32.241207
-23.845478 37.85302 33.321693
-23.828337 38.07213 33.779293
-24.062813 38.3337 30.792795
-24.24279 38.420994 31.629461
-24.23698 38.555946 32.41865
-24.14619 38.664818 33.18781
-23.751581 38.580475 33.995224
-23.772932 39.905186 23.721252
-23.71812 39.864 24.375854
-23.57493 40.075027 25.085138
-23.857681 39.12921 30.751825
-24.172983 39.2095 31.702892
-24.26062 39.351376 32.36351
-24.015493 39.411842 33.391277
-23.864433 39.37789 33.746872
-23.784037 40.663765 23.049847
-23.90063 40.63476 23.573534
-23.884445 40.676926 24.580128
-23.74291 40.494797 24.958357
-23.9534 40.036835 31.876566
-23.954596 40.169888 32.403336
-23.855436 40.039803 33.213535
-23.729986 41.326904 22.953962
-23.894377 41.46745 23.50932
-23.95585 41.55375 24.53186
-23.819632 41.597775 25.116444
-23.72016 42.266903 23.820345
-23.798372 42.506824 24.639923
-23.783672 42.446575 25.211704
-23.595213 42.997265 24.412188
-23.640017 43.003807 25.314413
-23.316545 23.281057 30.70118
-23.571764 23.232311 31.451435
-23.203169 23.206045 32.65259
-23.128237 23.265978 33.223373
-23.455284 23.70301 30.094416
-23.627604 23.53911 30.418049
-23.688477 23.439734 31.896643
-23.671606 23.438978 32.73457
-23.325464 23.554049 33.459652
-23.143707 23.792673 33.84196
-23.657211 24.595818 29.52429
-23.192543 24.472267 34.108925
-23.633457 25.857336 28.746014
-23.106382 25.790382 34.22801
-23.415909 26.15997 33.90692
-23.695711 28.141336 24.772856
-23.798094 28.041656 25.389996
-22.861498 27.78137 27.484934
-23.39188 27.635954 28.305944
-22.939919 27.231981 33.29912
-23.285301 29.176369 23.425062
-23.457943 28.909708 23.678877
-23.377623 28.609823 29.238958
-23.360163 28.57871 32.04603
-23.28702 28.196331 32.731506
-22.958227 28.838251 35.79815
-22.958012 29.25063 23.36137
-23.569614 29.409494 23.521467
-23.030695 29.589521 34.49284
-23.381077 29.426132 35.788227
-23.446074 29.884974 36.387527
-23.169144 29.892626 37.149323
-22.816082 30.012457 37.592262
-23.262608 30.245 23.226162
-22.70443 29.886496 30.046103
-22.632406 29.783749 32.172264
-22.79599 30.250353 33.924324
-23.396479 30.449125 34.72469
-23.187862 30.376356 37.203304
-22.808788 30.366272 37.653572
-23.275324 31.581297 23.403494
-23.161436 31.325802 27.50296
-22.724607 31.671007 28.630962
-22.58783 31.648666 29.26582
-23.330793 32.126373 33.86417
-23.379969 31.657047 34.391785
-23.406097 31.71966 35.410587
-23.36761 31.40801 36.401096
-22.955984 31.216011 37.10541
-23.703903 32.522312 23.533085
-23.51093 32.802223 27.366997
-22.890202 32.431335 28.411943
-23.163843 32.77809 32.715496
-23.01474 32.019566 35.85919
-23.362137 33.41106 23.603378
-23.358526 33.979977 27.59402
-22.883757 33.25271 28.08758
-22.865566 33.833588 31.533749
-23.149263 33.55231 32.272125
-23.528957 33.703564 34.527138
-23.414772 34.377785 24.050585
-23.586817 34.42356 27.27277
-22.833189 34.04495 28.058105
-22.710844 34.056046 31.181475
-23.340466 34.193386 32.68276
-23.297207 34.51717 33.73
-23.526634 34.169437 34.137085
-22.847208 34.364216 35.514153
-22.810518 34.104668 36.03309
-22.711536 36.03585 17.938337
-22.791578 35.81204 18.41566
-22.925743 36.047768 19.50275
-22.659695 36.16462 20.22448
-22.787277 35.233994 23.6515
-23.463242 35.47923 24.587957
-22.772287 35.097282 28.547857
-22.85535 36.634243 17.722267
-23.143604 36.557285 18.659073
-23.166327 36.50617 19.291428
-22.883787 36.550755 20.185339
-23.263681 36.30552 27.35656
-22.80465 36.46594 28.189548
-22.59077 36.616127 29.665836
-23.134737 36.446484 30.973919
-22.896898 37.293068 17.880661
-23.146887 37.438976 18.505312
-23.101608 37.510967 19.392641
-22.989807 37.19784 20.006903
-23.223015 37.55328 26.431032
-23.217442 38.100655 34.411175
-22.846157 37.93235 17.933773
-22.884962 38.151897 18.453648
-22.964386 39.05446 23.779251
-22.978228 38.644707 24.494692
-22.877213 37.970688 27.264608
-22.690948 38.314922 28.667473
-23.552706 38.485542 34.197178
-22.60221 38.746403 19.784702
-22.657263 39.835533 22.159988
-23.436508 39.450905 23.771353
-23.394804 39.342823 25.280357
-22.824871 39.01503 26.506498
-23.092678 39.493004 29.648228
-23.603754 39.571384 30.919765
-23.309774 39.461506 34.24769
-23.038685 39.136242 34.662983
-22.815641 40.5336 21.964468
-23.498978 40.595577 25.470543
-23.29302 40.449276 25.850733
-22.857073 39.933792 29.837307
-23.544033 39.906174 31.010937
-23.457602 40.476498 31.78295
-23.597685 40.506176 32.745644
-23.389164 40.425724 33.295868
-23.175642 40.108307 33.91353
-23.142069 41.5828 22.365038
-23.390793 41.54896 22.596684
-23.329838 41.63365 25.7379
-23.307646 40.73214 32.539494
-22.90645 40.787956 33.213497
-23.18321 42.200054 22.94616
-23.566067 42.516415 23.726784
-23.564686 42.866367 25.619608
-23.271755 42.712887 26.0294
-23.263975 43.091454 23.991776
-23.363165 43.399406 24.757484
-23.417238 43.257748 25.412743
-23.216051 43.0499 25.90809
-23.000633 43.6444 24.693811
-23.001026 43.676907 25.212416
-22.381832 23.325392 30.659695
-22.471542 23.19175 31.438555
-22.437662 23.123526 32.291065
-22.602346 23.168665 33.222363
-22.56001 23.730593 30.04168
-22.98007 23.457998 30.327768
-22.576431 23.606264 33.904392
-22.301247 24.913523 29.128214
-22.74721 24.803885 34.4121
-22.338623 25.364202 28.924377
-22.606422 25.458118 34.374985
-22.058102 25.346012 34.580368
-22.84668 28.17997 24.77561
-22.001177 27.386368 35.248165
-21.82544 27.772984 36.27479
-22.724314 28.541552 23.685501
-22.607523 28.600746 35.7857
-22.680014 29.20009 37.317974
-22.537594 29.589458 23.125824
-22.422274 29.760574 37.71673
-22.609726 30.505741 23.103645
-22.508875 30.47699 33.515457
-22.583813 30.356009 37.677013
-22.461157 31.782803 23.286867
-22.462206 31.7459 29.487597
-21.976595 32.2626 31.493662
-22.236526 31.084183 32.6102
-22.397112 31.422724 37.450394
-22.401543 30.895027 37.731705
-22.626741 32.213505 23.245865
-22.421751 32.448494 29.396585
-22.374899 32.48768 31.858301
-22.08908 32.465824 36.746178
-22.06724 33.33462 29.097023
-22.035913 33.25274 30.801083
-22.097271 33.343513 36.77888
-22.00033 35.08354 17.681734
-22.361736 35.353832 18.804455
-22.196245 35.328163 18.961842
-22.414967 34.474644 23.114147
-21.721853 34.75402 29.924147
-22.347094 34.361774 30.64554
-22.403996 34.320057 36.22602
-22.039707 35.70978 17.021595
-22.391956 35.65938 17.654203
-22.525393 35.526188 18.362225
-22.193598 35.7576 20.377651
-21.79087 35.950768 21.649235
-22.221754 35.25016 35.50045
-21.921568 35.081264 36.219543
-22.189304 36.313595 17.01975
-22.524794 36.50034 17.375315
-22.245834 36.651173 21.502008
-22.500864 37.172367 34.205765
-22.193644 37.16255 17.121447
-22.539217 37.591587 17.408913
[...]
POINT_DATA 5897
SCALARS features_00 float 1
LOOKUP_TABLE default
0.7126019 0.71597743 0.7119619 0.72796834 0.7206943 0.7014897 0.7069497 0.6681462 0.6269764 0.6242316 0.63679993 0.63682663 0.6051522 0.6219758 0.61197686 0.5911385 0.5824232 0.6096105 0.57982194 0.5381335 0.6885592 0.6867894 0.5480478 0.53261745 0.50728923 0.66749907 0.69546247 0.70111924 0.7016231 0.64946234 0.6949632 0.6932008 0.6045482 0.67501116 0.58147836 0.53470314 0.5979142 0.5517128 0.4494964 0.38602656 0.48006386 0.44913366 0.3638454 0.30009347 0.4255685 0.39005584 0.3132973 0.62570167 0.62496686 0.62730026 0.6190996 0.623979 0.6197059 0.62553304 0.6584718 0.6029108 0.6182351 0.64212584 0.61735505 0.56160706 0.5971185 0.54523635 0.5758824 0.49810493 0.46709266 0.5300368 0.6734823 0.66353387 0.5905852 0.3812737 0.63696706 0.6617478 0.43220085 0.42870486 0.38669306 0.41556984 0.596519 0.48173565 0.49706295 0.5777353 0.4771765 0.1623941 0.5344437 0.40307665 0.28328854 0.16469327 0.32268476 0.3409889 0.36916444 0.40442893 0.3964254 0.2874842 0.19201016 0.34367746 0.36007282 0.3864357 0.38805893 0.29264316 0.17877916 0.37166947 0.37667313 0.37843472 0.3002274 0.21787813 0.3727559 0.40241942 0.4518108 0.46830982 0.45395058 0.5000872 0.52744675 0.52892166 0.5173804 0.48228863 0.5442784 0.5821339 0.5871314 0.5211802 0.46530664 0.43741614 0.39374 0.43990982 0.5570172 0.60759544 0.6042846 0.5751778 0.56444865 0.5611626 0.5009577 0.4518355 0.56119204 0.6047875 0.6055777 0.6082424 0.6326963 0.6070433 0.5817816 0.6811732 0.7097316 0.69694316 0.7456885 0.760679 0.6155829 0.6219622 0.6360845 0.65883267 0.6106609 0.6224607 0.6268241 0.63867974 0.66717607 0.6766592 0.58991313 0.649228 0.54002565 0.5106586 0.5010264 0.6299757 0.6037928 0.14957425 0.387473 0.3477865 0.5225465 0.559931 0.35484165 0.2458407 0.27326393 0.518813 0.50558954 0.52568656 0.38938797 0.56970406 0.58513236 0.5302806 0.4297418 0.45788723 -0.009055145 -0.20395316 0.17962067 0.36595875 0.51467806 0.41793275 0.4158309 0.014954854 -0.1487612 -0.21069652 0.2694827 0.2851858 0.4014836 0.5364448 0.4825466 0.40381503 0.06819527 -0.112554014 0.28334755 0.42904112 0.32896248 0.08209129 -0.0411122 0.18671396 0.30195963 0.33795667 0.30957717 0.1470166 0.00053772517 0.104555055 0.34905782 0.36179692 0.3647173 0.3024957 0.28292903 0.6269624 0.6020618 0.5193155 0.39551008 0.2448588 0.345766 -0.068340436 0.6439606 0.636737 0.5830511 0.43499583 0.08029761 -0.06918807 -0.06015283 0.20591415 0.6390778 0.6570372 0.6398713 0.515945 0.001369074 0.41900784 0.6025915 0.6028273 0.33133698 0.25525686 -0.10778683 -0.013303474 0.4868268 0.44908124 0.40106827 0.39971703 0.2965623 0.010782 0.18362884 0.42534012 0.5074497 0.44336933 0.47618616 0.40900493 0.33370584 0.18029627 0.41679546 0.5070473 0.58611095 0.56032795 0.52754956 0.5735526 0.5938003 0.5481396 0.54578584 0.4972654 0.63744754 0.69305825 0.7444099 0.7150836 0.73656 0.7818415 0.7847291 0.7652631 0.795327 0.80760336 0.57511497 0.59907115 0.627656 0.6594468 0.56443965 0.5990763 0.67208415 0.46475536 0.590956 0.39511347 0.4940725 0.44795507 0.5695504 -0.10160236 0.016747938 0.5524961 0.42926836 0.45259565 0.47377247 0.34835595 0.44122952 0.061840102 0.37859136 0.39946947 -0.23342735 0.120796144 -0.033871062 0.34493816 0.33319193 0.38767198 -0.23323928 0.19048002 0.26819435 -0.23729545 -0.012579933 0.20151787 0.57335865 0.5089321 0.47001094 0.195764 -0.38503557 -0.0843277 0.2312572 0.6035881 0.6118095 0.5780023 0.28899503 0.07649561 0.18226744 0.15592161 0.6153778 0.6325302 0.12619714 0.28920203 0.5856452 0.5913672 0.12662096 0.14050782 0.52830815 0.5428616 0.25399175 0.27613842 0.24586315 0.46686602 0.50768304 0.13940175 0.17607911 -0.11216732 -0.030098096 0.3565365 0.29644448 -0.13051522 0.12734611 0.16740626 0.43580478 0.40604928 0.50936353 0.099957876 0.38375038 0.4092895 0.38527244 0.6033575 0.7032374 0.45733076 0.62697315 0.7143768 0.76545644 0.6847 0.7745443 0.81454 0.5627261 0.5929588 0.63608855 0.7806709 0.50505126 0.5345949 0.63953847 0.57393706 0.53629965 0.47537547 -0.0060538203 0.17749378 0.39824957 0.06880981 0.11715552 0.42427626 -0.17288715 0.28628957 0.4969078 0.5481706 0.15232414 0.46343368 0.09222468 0.43219274 0.21586312 0.40128136 0.22154048 0.16802064 0.12173626 0.5362857 0.5230821 0.41310114 0.044823237 0.04394123 0.540129 0.006525048 0.5483607 0.00888142 0.5123034 -0.040434454 0.14580323 0.21113934 0.38537621 0.037775554 0.3678193 0.24041739 0.09635952 0.22837505 0.34782308 0.4362232 0.10935568 0.1309102 0.28699094 0.33023536 0.3299526 0.542409 0.21509555 0.29007593 0.29645994 0.26323852 0.23311844 0.53684276 0.52166283 0.76803565 0.5685103 0.6172306 0.75131595 0.7116001 0.76458997 0.8013828 0.66987914 0.7203734 0.7698767 0.8165237 0.80093193 0.6640074 0.707244 0.74737924 0.80246043 0.763108 0.4405134 0.4704417 0.53193307 0.5326002 0.4976943 0.6307055 0.72235423 0.6732409 0.46558845 0.44051284 0.50687546 0.54924256 0.5583912 0.6633066 -0.032510225 0.36873913 0.4405127 0.48591983 0.6300409 -0.10281605 -0.07427191 0.12821043 0.32802445 0.351507 0.3588883 0.41678968 0.48509562 0.48245198 -0.31795976 0.31298187 0.35054123 0.20013526 0.13564217 0.23573937 0.44310063 0.025468722 0.12565902 0.34829283 0.02054089 -0.047329716 0.24504292 0.023281924 0.19229741 0.22984298 -0.05795245 0.12207295 0.05563031 0.068215705 -0.29333413 0.12728156 0.4483028 -0.01367322 0.082163125 0.25485897 0.3253511 0.41935027 0.27276522 0.25688168 0.37686503 0.44821307 0.21433759 0.24383032 0.4508019 0.1394065 0.15640351 0.22986014 0.31230003 0.5142664 0.45649308 0.27122575 0.60599333 0.3632027 0.24043429 0.70347226 0.6338935 0.4199435 0.18390389 0.2123499 0.31605816 0.21402821 0.12024401 0.50147593 0.48625624 0.45522007 0.33897248 0.37936366 0.37260178 0.3638495 0.69004107 0.49833566 0.5300457 0.6514628 0.6739322 0.7382901 0.7890035 0.7432455 0.6621401 0.65828896 0.7216587 0.66525984 0.6495396 0.5560931 0.41156095 0.43072793 0.52900016 0.6178528 0.71584404 0.80571014 0.8823172 0.63672996 0.5692761 0.5112299 0.02188842 0.31738725 0.29168403 0.3864512 0.46183646 0.5111679 0.5709028 0.65440005 0.83817756 0.87421715 0.5043021 0.38518184 0.5187819 0.5946808 -0.16710132 0.30101416 -0.018842995 0.2671214 0.39798567 0.65781474 0.76198053 0.8349758 -0.13259235 -0.26068252 0.54276145 0.6806669 0.7692646 0.0008618161 -0.080696985 0.40230936 0.49892968 0.024941709 0.32312724 0.025099255 0.056712985 -0.06502 0.26761037 0.2613408 0.22889966 0.21649256 0.175101 -0.08459415 0.025500275 0.22487903 0.25202325 0.12337017 -0.014241755 0.24068695 -0.0711757 0.38119435 0.33454117 -0.03383849 0.36748296 0.36437163 0.24555656 0.5155091 0.3476966 0.46042866 0.36444974 0.14454499 0.48483494 0.52208674 0.06138201 0.4054186 0.47243917 0.50047946 0.17734203 0.34208348 0.44489706 0.48039818 0.53119266 0.5449833 0.050607115 0.108885296 0.14463122 0.65798897 0.25379646 0.1306679 0.18831632 0.62773144 0.5806763 0.75381035 0.74564284 0.6864135 0.6303035 0.37354344 0.31406963 0.30618882 0.12968636 0.64826065 0.6916037 0.5793401 0.5022432 0.72203386 0.42475682 0.41610026 0.41114447 0.3719368 0.43313056 0.45024738 0.37480113 0.76918024 0.72020054 0.6441925 0.57356876 0.4732739 0.47831592 0.47693443 0.75792915 0.6895132 0.59298766 0.5851364 0.6324853 0.69934416 0.7078544 0.6413066 0.63117534 0.58688927 0.76940167 0.8254602 0.65618 0.33456814 0.50766206 0.55737656 0.6839635 0.75131714 0.8344774 0.9117997 0.60886097 -0.00498423 -0.28201944 -0.24205893 0.16072078 0.36464596 0.9180063 0.9203576 -0.12361114 -0.32340235 -0.21045488 -0.042863786 0.87495047 0.8962586 0.22291668 0.1425767 -0.24582437 0.66749024 0.81524146 0.06718472 0.09318982 0.51083463 0.6499655 -0.02750707 0.39570147 0.42576268 0.2698399 0.23069972 0.1446166 0.02224283 -0.04158649 0.07180881 0.26126665 0.2662321 0.14002183 0.17234315 0.07537958 0.32882616 0.26227635 0.38373747 0.076116964 0.10830227 0.54422307 0.3472306 0.5805073 0.5658039 0.49143854 0.5335812 0.5429064 0.5113241 0.34969223 0.43582553 0.4542503 0.54434663 0.37328902 0.7082733 0.7422099 0.36085373 0.14138076 -0.024532914 0.354316 0.8018529 0.7754415 0.60564613 0.08235866 0.0329127 0.3862732 0.43356106 0.49298763 0.4481218 0.7566761 0.70903623 0.665115 0.4609989 0.44346675 0.7133465 0.6217503 0.5852246 0.5026653 0.4664623 0.48140436 0.47843584 0.81799036 0.7788485 0.687336 0.6046804 0.50813335 0.4654881 0.51054883 0.5172336 0.6486431 0.58826625 0.51435673 0.5503158 0.7765403 0.83269846 0.6072179 0.0569267 0.07627454 -0.049571082 0.39567626 0.40284663 0.39146566 0.49673676 0.5569185 0.6103165 0.7340714 0.88808566 0.9485776 -0.02244509 0.0039192587 0.28198355 0.3431213 0.22371832 0.30213642 0.46620417 0.9542912 0.94292164 0.9153043 0.06416389 0.80008626 0.58051205 0.65890306 0.7029399 -0.10175399 0.23860486 0.021595165 0.1491559 0.21966717 0.25208125 0.124378264 0.1985203 0.14531496 0.127526 0.30695596 0.25041878 0.09868476 0.46628183 0.39730024 0.013310105 0.5648818 0.37199175 0.58133686 0.58482194 0.39948213 0.5549803 0.44993424 0.49575537 0.47024274 0.45430773 0.6222342 0.28650567 0.6802081 0.69359493 0.3845014 0.24562034 -0.0036516339 0.3092086 0.35118988 0.78497815 0.7751613 0.71483874 0.46759254 0.08570911 0.28571218 0.43344885 0.77269703 0.72547215 0.67152756 0.2923514 0.45179656 0.6060717 0.53458583 0.48315704 0.38332665 0.43392956 0.45205754 0.46402258 0.7535168 0.7556057 0.6861905 0.6096549 0.7237982 0.33132628 0.32483244 0.35573673 0.37891898 0.030101363 0.08620769 0.08420831 0.090554096 0.09227178 0.33980358 0.097595245 0.264817 0.46454135 0.53454983 0.5082791 0.5506198 0.63097435 0.76858556 0.9018088 0.9515141 0.37646827 0.5588894 0.94393986 0.94523513 0.30555004 0.9241849 0.92858016 -0.11364574 -0.09010781 0.8499702 -0.18728182 -0.16282474 0.7338793 0.75360256 -0.15327302 0.6669448 0.24783905 0.11915877 0.13861161 0.124331445 0.04197096 0.10085428 0.3264904 0.22939417 0.050189517 0.44389343 0.36940452 0.54604703 0.17866442 0.2152189 0.5753469 0.34779716 0.33033562 0.5059923 0.40050143 0.3346695 0.3276334 0.32968903 0.3200013 0.5085137 0.25434458 0.67109895 0.65043485 0.3993266 0.06155781 0.3149191 0.7272563 0.722554 0.6846293 0.55092865 0.1782378 0.3092606 0.040389843 0.28245172 0.4237262 0.38892013 0.25933024 0.32220975 0.31396714 0.3314447 0.40859896 0.38580552 0.5248198 0.46375483 0.38935816 0.3926896 0.6544693 0.68205214 0.6578515 0.6513624 0.57363653 0.6880573 0.37999338 0.4209409 0.42614976 0.36567086 0.39471895 0.43886977 0.41762546 0.448855 0.04142409 0.13753174 0.18147323 0.049770586 0.015982188 -0.027662717 0.11205819 0.08897052 0.06723938 0.039157912 0.08559845 0.08810839 0.18343276 0.15362115 0.5224395 0.5657255 0.5640777 0.66371334 0.68659794 0.820125 0.33853453 0.22582279 0.56548345 0.5358038 0.59490937 0.6446202 0.7322898 0.83456206 0.9180968 0.22143388 0.34857857 0.5428996 0.7183888 0.8084196 0.9063627 0.25508362 0.13833676 -0.017359199 0.16511592 0.33997864 0.36772713 0.6298995 0.78380144 -0.15768203 -0.2505598 0.07875395 0.36221188 0.52198064 0.6408274 -0.115891814 -0.11751126 0.24233077 0.02586507 0.14659518 0.0051975735 0.1637679 0.13391367 0.29715827 0.23716626 0.5053028 0.19173934 0.532786 0.26912397 0.29123932 0.38506043 0.36574626 0.27820587 0.27506453 0.31810635 0.21067059 0.27946326 0.22300592 0.2825777 0.4097553 0.35240602 0.36456394 0.148415 0.1712909 0.34429765 0.5438738 0.47598234 0.4490168 0.2945561 0.13402487 0.37990004 0.6222511 0.16790503 0.1401178 -0.025239412 -0.11691405 0.1861106 0.20316043 0.4299482 0.2568687 0.24084365 0.45522815 0.4819489 0.46795437 0.5855838 0.58512866 0.57122403 0.4141023 0.4007464 0.3892085 0.58021486 0.49246022 0.426125 0.41390228 0.38395065 0.5842409 0.5100957 0.45594448 0.4271223 0.39450073 0.5116701 0.45606548 0.40494835 0.371441 0.34931135 0.21947777 0.3728341 0.40693402 0.39364278 0.37608653 0.48852575 0.36834306 0.35872 0.29452136 0.30296317 0.4214368 0.42302734 0.40782583 0.31616002 0.26139253 0.10916949 0.32009262 0.44366854 0.4292792 -0.050659366 0.014917158 0.27429116 0.3851794 0.45057398 0.4322358 -0.047891483 0.065628834 0.023604166 0.37711602 0.4190552 0.43795627 0.043645643 -0.0035889521 -0.06958167 -0.0560111 0.31268775 0.49525404 0.3520254 0.121874765 0.51267695 0.48759076 -0.08161546 0.5239302 0.5010567 0.41491592 0.44180483 0.5232823 0.40296522 0.38287443 0.64924 0.6728605 0.2934707 0.16145231 0.6065134 -0.2079788 -0.019110136 -0.072925106 -0.0006533712 0.0086795855 0.011709601 0.10279605 0.014434159 0.067784965 0.056428235 0.17029446 0.14788184 -0.012872294 -0.00010683108 0.30882227 0.122361 0.11896998 0.1703889 0.4125567 0.19518414 0.26373678 0.2103253 0.08325477 0.2135359 0.18361491 0.19143176 0.07689097 0.26387504 0.3830068 0.4339193 0.3415685 0.3141083 -0.09963164 0.20831084 0.3061 0.29475808 0.27151546 0.36005136 0.41291687 0.2947527 0.30808285 0.2522269 0.16523169 0.22593468 0.35820445 0.27931404 0.381221 0.46561378 0.3545143 0.36531603 0.53264856 0.37511075 0.37685862 0.3742198 0.35860294 0.35991293 0.36339015 0.3625874 0.59278476 0.5698307 0.5192438 0.4459531 0.31093112 0.31511435 0.6325688 0.60062575 0.2620448 0.20637883 0.2933477 0.29970658 0.6925343 0.6758468 0.3386699 0.33375186 0.6726339 0.6489933 0.5544995 0.35444152 0.6063503 0.51116776 0.19774407 -0.097424924 -0.16138403 0.3660531 0.3396949 0.27297738 -0.28444237 0.41151726 0.36818278 -0.033339895 0.34769076 0.17115265 0.09443766 -0.055392236 -0.11526054 0.33888894 0.5309471 0.3969009 0.5649641 0.5447744 -0.17368868 0.5563236 0.09744039 0.19013184 0.43021783 -0.042923335 0.3084613 0.39964506 0.31218982 0.14849097 0.23630509 -0.004714459 0.197142 0.009966858 -0.011886509 0.025276348 0.31559104 0.23034894 0.007766232 0.27542055 -0.044668436 0.22623052 0.12742448 -0.09232881 -0.21116097 -0.049937107 0.07691841 0.19382668 0.2587743 0.19832581 0.17964666 0.15547553 0.06696653 -0.011968959 -0.28742874 0.07996435 0.25999802 0.38145697 0.40067005 0.41093844 0.41250858 0.09415468 0.33928394 0.4016408 0.41792646 0.41989964 0.3389066 0.11896861 0.07023567 0.270876 0.36815414 0.39046794 0.22790632 0.10645832 0.15754463 0.24238458 0.33657542 0.38713735 0.32364497 0.3434889 0.3118877 0.3465746 0.32720912 0.33452204 0.3516756 0.4085644 0.39152044 0.3864346 0.52535886 0.4847176 0.3730123 0.36084744 0.33368796 0.5590714 0.30931878 0.2966892 0.28984737 0.6152407 0.57453084 0.26781598 0.29075342 0.2981051 0.6851008 0.30457598 0.30361152 0.69454354 0.2946403 0.66126466 0.279063 0.5793446 0.45338252 0.30919087 0.030043453 -0.12809445 0.26049674 0.5236709 0.44117397 -0.0235703 0.5485594 0.51355755 -0.2731589 0.5294948 -0.27385235 0.46023732 0.03165683 0.30239666 -0.13596219 -0.07674864 0.1996701 -0.037944794 0.021706194 0.32426038 0.04460994 0.022567913 -0.00802632 0.3536346 0.31066054 0.34604275 0.37993497 0.36308917 0.33387944 0.2773069 0.21890849 0.31444776 0.07330789 0.12586245 0.08376099 -0.012637212 -0.003744103 0.1453412 0.2684753 0.3429927 0.35458922 0.19537643 0.23968345 0.34128863 0.25602624 0.15239644 0.23335746 -0.039493978 0.22881526 0.11251341 -0.0043864883 -0.13878328 -0.08835783 0.250498 0.23612806 0.280652 0.34557122 0.2633785 0.30836958 0.38181114 0.36940962 0.15978992 -0.11602029 0.1237716 0.16256244 0.25338343 0.34346613 0.35841805 0.37810293 0.35954285 0.37013066 0.31763688 0.27585888 0.24060519 0.38383964 0.3794545 0.27999443 0.35721534 0.37714124 0.37774575 0.37194306 0.35552663 0.38412702 0.43821633 0.30346563 0.41774666 0.39799616 0.45488444 0.36894435 0.3279711 0.3674937 0.3278519 0.5099014 0.3073236 0.60150915 0.52511454 0.2993663 0.3061275 0.6558814 0.30622452 0.6841272 0.6586397 0.30383238 0.4790241 0.49394196 0.36791348 0.48717028 0.46749252 0.33537412 0.32415357 0.12274872 0.27148312 0.48227802 0.4616531 0.40305677 0.46670806 0.431961 0.4094981 0.1388616 0.13893464 0.10780163 0.41398972 0.19269392 -0.16731581 0.013918407 0.06179788 0.40295216 0.08166817 0.046332255 0.08217684 0.19575363 0.42011645 0.4994894 0.4991851 0.39534605 0.39725158 0.39482847 0.31250462 0.37778932 0.19332983 0.13847236 0.033625778 0.06551842 0.092881426 0.041934103 0.1364479 0.22620411 0.2858805 -0.0031955848 0.28851593 0.3738348 0.45453364 0.4783404 0.052590914 0.36104137 0.42357484 0.12809554 0.27167714 0.4500734 -0.11635255 -0.16278452 -0.12061806 -0.009001888 0.17285937 0.2645172 0.17353418 -0.025274808 0.22573435 0.18345027 -0.12953086 0.2935569 -0.17598312 -0.1381278 0.2820599 0.33811316 0.3542994 -0.13468075 0.017073032 0.33797973 0.38755864 0.35526505 0.36504287 0.38245738 0.4038359 0.41619492 0.39451218 0.3410698 0.28907305 0.34372085 0.40191853 0.4063425 0.40041757 0.4388351 0.44541076 0.44134098 0.4584242 0.32312495 0.39591256 0.37355915 0.3581685 0.3396091 0.44863006 0.42090964 0.35026258 0.57577056 0.483943 0.3276602 0.5991411 0.5507614 0.29525918 0.64353895 0.2917085 0.60753417 0.5644988 0.49184197 0.3554397 0.552395 0.5761699 0.028582007 0.5614455 -0.23393798 0.5492674 0.25701416 -0.47350466 0.45797768 0.3890807 0.39540386 0.09087874 0.38002664 0.31945843 0.11585195 0.31032723 0.18637127 0.019029893 0.20584425 0.44541478 0.27212143 0.24677625 0.45385927 0.4347463 0.4400404 0.27373192 0.0447136 0.038408354 0.0026749894 0.035668436 0.12543565 0.21518901 0.38540965 0.49540696 0.50206405 0.47565413 0.4120931 -0.07080147 0.11825891 -0.14556414 -0.015588462 -0.0038856566 -0.06811899 0.4160456 -0.09861392 0.29642093 0.10904606 0.22579086 0.27937916 0.35967413 0.388542 0.0022144048 0.0013420312 0.4919301 0.51661277 0.017814262 0.5212666 0.55304825 0.08583003 0.50997853 0.54248714 0.5660113 -0.41134128 0.5720166 0.44310915 -0.4407885 0.15341346 0.2898517 0.4321311 0.55448407 0.5678849 -0.076297015 -0.009921592 -0.112329446 0.055237725 0.26571724 0.24486919 0.26006332 0.25824255 0.24295908 -0.19474325 0.30080792 0.35516036 0.33620107 0.43640646 0.43739027 0.41867012 0.33818388 0.49876362 0.5026092 0.54292595 0.525806 0.49974918 0.49890405 0.49213827 0.41580123 0.56553376 0.5238503 0.35173225 0.297386 0.31347793 0.39021927 0.34959596 0.41303375 0.34970808 0.364693 0.53540784 0.32497776 0.33265665 0.5395826 0.40402633 0.46380055 0.499776 0.5510494 0.3637487 0.58566535 0.58138895 0.5964671 0.5388949 0.15817368 0.1244573 0.36830395 0.06304839 0.08543792 0.13944124 -0.04298108 0.21872796 0.3123877 0.20691605 0.10279359 0.25572613 0.25918967 0.3420654 0.44427097 0.4745151 0.48926204 0.24756597 0.27773535 0.09417233 0.11343914 0.19233795 0.28616065 0.46280074 0.4424361 0.4109764 0.024854898 -0.1017778 -0.06039861 0.021851152 0.42716342 0.42375633 0.36025727 0.26359248 -0.22292909 -0.14211267 0.41952038 0.08086461 -0.43704784 -0.17381895 0.3105448 -0.01122909 0.48127246 -0.0020722933 0.50249517 0.5450493 0.048122693 0.57114524 0.16294497 0.59173846 0.60567373 0.24257165 -0.43783504 0.6249938 0.6325872 0.3988865 -0.20578626 -0.22450483 0.44188225 0.56610537 0.634078 0.57530713 0.4948271 0.35236767 -0.11952707 0.11063724 0.28961134 0.3678888 0.4761725 0.6335168 0.5839834 0.04651449 0.14645353 0.18518844 0.17987451 0.17077081 -0.22093426 -0.21116693 -0.25656947 -0.06723094 0.13665867 0.0696073 0.18346184 0.23706226 0.2705329 0.29398695 0.42980713 0.33306777 0.24767825 0.30850828 0.43631542 0.5671286 0.6207856 0.60446477 0.57667726 0.53947735 0.52942806 0.5193081 0.48657876 0.59737396 0.61042106 0.36367136 0.5664058 0.30387715 0.37939546 0.49881816 0.44131008 0.4972153 0.42443913 0.46510038 0.25033432 0.21778765 0.1700486 0.092345804 0.4446282 0.48547867 0.5635073 0.5638188 0.5621673 0.2797657 0.28664845 0.4091938 0.5175582 0.27402455 0.22036417 0.20092143 0.39574933 0.30114657 -0.009227276 0.1639415 -0.019574964 -0.07772505 0.077649646 0.017174229 -0.061166413 0.19990575 0.22880661 0.12586942 -0.016612783 0.21757399 0.23277335 0.23997131 0.39402464 0.4602571 0.15281819 0.22451836 0.18113291 0.13111086 0.241984 0.44653517 0.44390827 0.44740766 0.44454226 -0.4203261 0.14559615 0.4508813 0.116179846 -0.4309507 -0.32102004 -0.19051845 0.4235978 -0.018290773 -0.34493604 -0.21958041 -0.07949378 -0.14052267 -0.20609567 0.35661083 0.0046182796 0.4384746 -0.0055412673 0.5480432 0.10364284 0.60326105 0.21480915 0.62929136 0.29651535 -0.10114426 0.6576509 