# vtk DataFile Version 2.0
Really cool data
ASCII
DATASET POLYDATA
POINTS 4942 float
9.335778 -7.889742 46.54572
9.348101 -7.995455 47.452797
9.313895 -7.8626437 47.87444
9.305332 -7.326343 46.095463
9.158098 -7.383219 46.671387
9.139157 -7.3603344 47.469353
9.302091 -7.5812573 47.96854
9.313914 -6.6937137 46.055447
9.208467 -6.658122 46.52162
9.218104 -6.7530417 47.40655
9.321755 -6.990717 47.897083
9.351283 -6.232927 46.524544
9.371939 -6.2459345 47.04788
10.24151 -8.689722 45.96671
10.134835 -8.823257 46.28487
10.091275 -8.846577 47.57518
10.163521 -8.790691 47.93896
9.991835 -8.405719 46.0097
9.587911 -8.216973 46.59239
9.610278 -8.376026 47.437084
9.767286 -8.181012 48.119812
9.973726 -7.1536064 45.245895
9.529851 -7.2246704 45.73486
9.620479 -7.4618053 48.29302
10.023174 -7.647599 48.585564
10.247581 -6.615105 45.115696
9.72851 -6.4683366 45.637726
9.444341 -6.4562435 47.58324
9.695501 -6.790653 48.128838
9.984879 -7.1171746 48.56693
9.851528 -6.032928 45.887486
9.723133 -5.918494 46.606754
9.725001 -6.0793767 47.289795
11.057677 -9.712132 46.567314
11.153625 -9.7955675 47.26926
11.164362 -9.813411 47.96378
11.21471 -8.808942 44.5983
11.213412 -9.5001745 45.97423
10.972107 -9.458371 46.521122
10.627235 -9.223629 47.753258
10.830793 -9.239382 48.328667
10.775392 -8.304954 44.777542
10.483435 -8.338862 45.30718
10.58007 -8.51246 48.5579
10.857977 -8.291 48.77291
11.4703665 -7.4203405 38.030193
10.688367 -7.528453 44.47132
10.495317 -7.37933 48.636444
11.411413 -6.9025226 37.609
11.399055 -6.6880164 38.176792
10.196438 -6.7119327 48.338837
10.2051525 -7.080881 48.53508
11.158393 -6.0110044 44.981285
10.495761 -5.8045063 45.937923
10.367992 -5.7085238 46.49233
10.334522 -5.831918 47.232662
10.469519 -6.204093 47.955124
12.4526825 -15.08893 44.334454
12.395166 -11.338689 40.907925
12.124547 -10.251865 40.66237
12.07138 -10.345692 41.491657
12.155105 -10.29559 42.039467
11.409343 -9.662727 45.982582
11.578579 -10.212006 47.311638
11.570619 -9.877979 48.24363
12.135456 -9.970966 40.74505
12.108946 -9.839725 41.486393
11.9054365 -9.496266 42.79592
11.563431 -9.292704 48.81604
12.304909 -7.7808022 35.86658
12.010258 -8.062503 36.754597
11.779517 -8.006731 37.569653
11.837407 -8.090581 38.221878
12.208279 -8.639355 40.599
11.53838 -8.649276 43.393757
11.664121 -8.593149 49.006035
11.992479 -7.283218 35.752125
11.707655 -7.25298 36.537178
11.551068 -7.491232 37.410187
11.568531 -7.5544066 38.44151
12.331259 -7.337351 40.518204
12.257311 -7.542735 41.802765
11.679319 -7.600106 42.951344
11.34107 -7.9951315 48.847897
12.168196 -6.7531476 35.327595
11.895523 -6.65844 35.782707
11.652718 -6.448663 36.541176
11.4952 -6.378838 37.109035
11.556535 -6.54695 38.748795
11.8277645 -6.4403195 39.066185
12.2282295 -7.0424304 40.112434
11.423776 -6.716872 48.132133
12.302345 -5.9660945 35.350433
12.070853 -5.755383 35.77028
11.825216 -5.6244617 36.5569
11.607093 -6.155528 37.840866
11.913422 -5.8454156 38.22784
12.215819 -5.763737 39.19048
12.131068 -6.3205743 43.532196
11.536671 -6.0565386 44.530605
11.452975 -5.6721864 45.86412
11.628632 -5.8636475 46.429512
11.286439 -5.9045787 47.02421
12.308477 -5.2343516 35.8824
12.172861 -5.1148014 36.52097
12.265694 -4.989631 37.33619
13.379987 -18.133718 42.309624
13.3186655 -18.219421 43.295605
13.205221 -17.537525 42.07087
13.010464 -17.211102 42.508297
13.068258 -17.106647 43.43857
13.273002 -16.384338 41.813908
12.916909 -16.23781 42.366447
12.757103 -16.349043 43.80385
12.792895 -16.03957 44.45671
13.019424 -16.170609 44.94367
13.087284 -15.32155 41.495903
12.723331 -15.013714 42.534412
12.592771 -15.486358 44.573566
12.990459 -15.765128 45.24409
13.176787 -15.130037 45.692047
13.031697 -14.591063 41.260147
12.632563 -14.4591465 43.85926
12.575097 -14.693645 44.29043
12.708735 -14.74143 45.05363
13.429772 -13.487415 39.084328
12.866408 -13.216515 40.62875
13.097773 -13.601951 42.84599
13.106609 -13.569947 44.467125
13.274319 -13.49018 45.182
13.30828 -12.161481 39.260586
13.101596 -12.783695 39.58445
12.6840925 -12.386976 40.88314
13.218579 -12.054599 47.296608
13.031524 -11.910339 39.931896
12.536209 -11.569623 40.600487
13.028438 -11.1724825 47.853397
12.887524 -10.911497 39.8747
12.198309 -10.150058 48.191006
12.786446 -8.669464 36.97255
12.54332 -8.730374 37.554913
12.514881 -9.4572315 40.439137
12.372197 -9.288552 48.92152
12.782686 -7.8221416 35.315254
12.6449375 -7.963641 35.713394
12.593727 -8.403057 36.51278
12.580631 -8.871892 39.981007
12.200117 -8.812042 49.034267
12.707354 -7.343549 35.075245
12.42791 -7.605183 35.415142
12.670209 -7.4148893 48.067814
12.683168 -6.466781 34.999683
12.77419 -6.855407 41.427174
12.862016 -6.594131 42.331802
12.7270155 -6.516068 47.211525
12.300607 -7.0635266 48.083412
12.674689 -5.94211 35.176033
12.403271 -5.646849 35.48267
12.440616 -5.538986 39.232216
12.856881 -5.60337 40.01769
12.791957 -6.2855067 43.576267
12.176156 -5.844739 44.71364
12.37733 -5.8366747 45.562363
12.034065 -5.9389997 46.331135
11.983003 -6.2482533 47.26807
12.607312 -4.992873 35.909107
12.704415 -4.758043 36.577335
12.460044 -5.0008183 37.5924
12.59836 -5.1154547 38.551243
13.010106 -4.941651 38.967255
14.306277 -22.99574 45.65691
14.362204 -23.068298 46.881878
14.068031 -22.592443 46.077114
13.8078575 -22.050589 46.698986
14.0503025 -22.12632 47.406803
14.242072 -21.938877 48.112576
14.181158 -21.379366 44.887863
13.846972 -21.335634 45.63504
13.760408 -21.60367 46.748943
13.803065 -21.560549 47.103844
14.423989 -21.528503 48.65332
14.311646 -19.86677 42.704597
13.9344225 -20.360388 44.580833
13.799303 -20.219826 45.477924
13.7476 -21.013166 46.492695
14.158064 -20.828304 47.835533
14.14138 -19.085968 42.209534
14.119318 -19.431393 42.5505
13.729815 -19.381027 43.44307
13.733667 -19.465645 45.758728
13.866986 -19.538649 46.33636
14.120684 -19.796627 47.069378
13.591888 -18.059292 41.89761
13.476752 -18.335821 42.368553
13.547073 -18.702814 43.72145
13.885182 -18.473957 45.68094
14.007821 -18.721706 46.3297
14.063797 -18.119764 45.971577
13.889861 -16.714703 41.179222
13.706812 -16.332006 41.43097
13.430273 -16.568443 45.06385
13.844088 -16.091667 45.97428
14.25789 -14.738236 38.70017
13.894381 -15.588446 46.151245
14.030652 -14.492736 38.846893
13.653365 -14.370128 39.32563
13.400055 -14.736979 40.46307
14.125587 -14.0198965 46.141594
14.2395315 -13.61219 38.078655
13.637667 -13.314846 38.8064
13.7029 -13.594176 45.726776
14.137936 -12.532399 38.06202
13.465836 -13.239472 43.731533
13.922458 -12.484608 47.580402
14.044119 -12.060458 48.00076
13.39013 -11.676089 39.474445
13.532729 -11.340042 43.227005
14.082978 -11.480443 48.572937
13.8386135 -10.925103 48.64139
13.671925 -8.777182 36.773277
13.20883 -9.128487 37.58304
13.207208 -9.462464 48.662518
13.294525 -7.842692 35.246063
13.565143 -8.165316 35.613182
13.492471 -8.395068 48.322807
13.431275 -7.2794843 34.86673
13.421296 -6.4877844 34.777504
13.48018 -6.6784234 46.594585
13.418948 -6.813572 47.033752
13.586535 -5.804481 34.91922
13.546461 -5.842592 40.64658
13.619059 -6.0479636 41.054115
13.780996 -6.1754613 42.751274
13.565353 -6.0232635 44.68489
13.390351 -6.295158 45.79225
13.152739 -6.2957845 46.33131
13.581795 -5.172581 35.25897
13.407433 -4.802884 35.667133
13.500907 -4.5407896 38.523216
13.318252 -4.814674 39.43248
13.547679 -4.858883 39.84476
13.828411 -4.312797 36.785797
13.5420475 -4.3386493 37.337105
15.241343 -24.585234 46.275604
15.166521 -23.898573 45.0303
14.941567 -24.08971 45.68362
14.882644 -24.173962 46.366856
15.047897 -24.187696 47.267937
15.011343 -23.836622 47.790462
15.019365 -23.580002 44.979206
14.579214 -23.51996 45.70514
14.4735775 -23.609053 46.51292
14.8536215 -23.728033 47.543972
14.902713 -23.22299 48.128414
15.2370825 -22.695127 49.02421
15.094527 -22.046602 44.120975
14.542798 -22.071224 44.799393
14.58059 -22.30795 48.565178
14.828278 -22.039783 49.045822
14.789953 -21.061867 43.241756
14.829995 -21.438255 43.725765
14.875076 -21.572733 49.315796
15.192789 -21.419727 49.684017
14.649493 -20.053932 42.313118
14.530302 -20.30331 42.826958
14.521453 -20.509983 48.462852
14.963638 -20.7433 49.32494
14.60431 -19.538748 42.10148
15.353083 -19.305267 48.69064
15.247193 -19.965687 49.456367
14.379334 -18.49772 41.58484
14.794986 -17.610138 41.283344
14.734998 -15.018542 38.730583
14.690566 -14.246432 38.044746
14.376214 -14.585684 38.477554
14.333531 -14.862237 46.410206
14.694424 -13.480556 37.826584
15.165006 -13.018228 47.580807
14.973228 -12.849842 47.98537
14.613144 -12.643887 37.832626
14.475031 -12.081672 48.215755
14.382144 -11.82831 38.21351
14.673852 -11.054997 48.934917
14.755037 -10.730556 48.986412
14.380469 -8.996486 37.365776
14.953941 -9.774648 38.708424
14.534352 -9.721268 48.73935
14.873628 -8.109361 35.450634
14.454127 -7.291976 34.795933
14.78069 -7.8255277 46.94217
14.236581 -6.4793687 34.67054
13.975187 -6.9030027 46.67846
14.605536 -5.528933 34.77143
14.567465 -5.93131 41.436836
14.409631 -5.9119477 42.123207
14.0201645 -6.122427 43.915016
14.192022 -6.117688 44.863625
14.901562 -4.7935333 35.119125
14.84157 -4.4830995 35.619095
15.365382 -3.9769459 42.360863
14.292423 -4.373406 35.870537
14.407775 -4.283004 36.18946
15.324601 -3.2699609 37.59818
14.718378 -3.7136984 38.614227
15.1283455 -3.3513942 40.489933
14.954996 -3.4804013 41.15004
15.244095 -3.4255614 42.51247
15.40398 -2.943119 49.83958
15.339583 -2.8561997 50.60716
15.375893 -2.5543518 37.425526
15.335199 -2.6662605 41.084194
15.27882 -2.4466782 41.883533
15.241401 -2.7043123 42.26855
15.28554 -2.3042097 49.66102
15.2566595 -2.336825 50.46295
15.358099 -2.403337 50.840603
15.289381 -1.8425101 49.843327
15.286708 -1.7026211 50.31531
15.702789 -24.6266 45.84528
15.695016 -24.71703 46.494934
15.663753 -24.64009 47.2619
15.486336 -24.103312 45.073463
15.485066 -24.37568 45.35635
15.33264 -24.532343 46.623833
15.491032 -24.408627 47.470577
15.636575 -24.134483 48.011368
15.709282 -23.30037 44.43187
15.440209 -23.542885 44.70338
15.322718 -22.596653 44.142544
15.367014 -22.32564 49.459583
[...]
POINT_DATA 4942
SCALARS features_00 float 1
LOOKUP_TABLE default
0.7856183 0.8022257 0.8064712 0.80889237 0.8586092 0.8657285 0.8244944 0.8634672 0.8942616 0.8976018 0.8627379 0.9064777 0.9154142 0.5016158 0.5390438 0.6630374 0.69188166 0.57285094 0.71658146 0.7407861 0.75978637 0.71705395 0.7698271 0.80687606 0.76857424 0.7884366 0.8415122 0.89385676 0.84632975 0.7961906 0.86308813 0.9004029 0.90469706 0.4914512 0.5297015 0.5800041 0.29234356 0.41782308 0.4946334 0.61708784 0.65390176 0.404759 0.4712488 0.7115283 0.7087805 0.5684843 0.4994679 0.75788593 0.61152685 0.55882967 0.8157784 0.7875781 0.6168338 0.802806 0.8437228 0.88770497 0.8656848 0.4318186 0.19810528 0.15446223 0.14952971 0.1469593 0.40101963 0.48489398 0.5805501 0.14818612 0.13153242 0.14206497 0.6396457 0.6406603 0.6167316 0.5921451 0.5122897 0.15234306 0.18125394 0.662098 0.6836884 0.662979 0.61527455 0.5104001 0.20962146 0.17012635 0.26445836 0.7092551 0.7114714 0.7084005 0.68850344 0.6517136 0.47486418 0.4093427 0.26955187 0.7638359 0.6943612 0.6855645 0.66707003 0.57441336 0.49785838 0.35085955 0.26371104 0.47057977 0.58004916 0.5449225 0.6789367 0.6419802 0.6218221 0.5331936 0.34992522 0.31181547 0.36976135 0.361828 0.33336377 0.34534952 0.34338218 0.37791565 0.41241714 0.39591318 0.24113841 0.32890153 0.43215066 0.41327208 0.42670193 0.20632975 0.40334463 0.42740208 0.4401244 0.3646498 0.21258596 0.29986212 0.3950143 0.4406839 0.31545866 0.2776832 0.19527976 0.16777036 0.23326844 0.20218149 0.26384994 0.19821078 0.5088713 0.5534948 0.5466819 0.15896656 0.5878829 0.63914764 0.6177554 0.57953674 0.17450866 0.62046397 0.68333495 0.6656611 0.43873358 0.70250624 0.13000515 0.088760436 0.39224756 0.50576085 0.68127704 0.67222947 0.33202422 0.25684625 0.17541604 0.37113217 0.3955062 0.44958785 0.491243 0.6057527 0.5567379 0.48517987 0.37809062 0.30334008 0.5127937 0.54034054 0.49877393 0.44571143 0.44899023 0.43411663 0.37054297 0.4055259 0.40634638 0.40186137 0.42275947 0.29422072 0.30681926 0.33361444 0.36836016 0.37034568 0.32407728 0.30573678 0.2724406 0.2747457 0.2762304 0.26778418 0.3567866 0.34194967 0.2824815 0.18920957 0.2005431 0.13326424 0.34732524 0.3301397 0.31089848 0.31707066 0.40588683 0.35960358 0.39368522 0.32520404 0.19042929 0.2994323 0.45780256 0.40932804 0.4132942 0.4556669 0.29635525 0.18456528 0.2831356 0.27389213 0.07512465 0.35358608 0.37873822 0.47074234 0.45605826 0.48103777 0.6130336 0.54402375 0.42141232 0.6642555 0.6814742 0.30609062 0.31852987 0.6338738 0.18136182 0.12611298 0.0049135536 0.22902201 0.2896297 0.3265867 0.57602036 0.55404615 0.26927108 0.22322208 0.15360701 0.4262833 0.38946837 0.5956906 0.5415834 0.5844385 0.5859573 0.5647055 0.53096235 0.5106689 0.55295557 0.5712652 0.5383378 0.48035264 0.419053 0.3317626 0.39065143 0.43611008 0.4281093 0.2744222 0.28705484 0.42097396 0.41723004 0.30705404 0.2886037 0.38178134 0.4096612 0.31934744 0.34625864 0.3872273 0.3482263 0.3864731 0.41283685 0.4471856 0.4310725 0.25141668 0.44922146 0.1536183 0.22866306 0.44319355 0.30869848 0.40907753 0.4561471 0.4872745 0.28349212 -0.24574631 0.43460244 0.4558874 0.5722008 0.09566223 0.6238081 0.2558701 0.55337083 -0.048728958 -0.09249069 0.10305709 0.15287244 0.4219787 0.37819016 0.423782 0.44035676 0.3827171 0.052786417 -0.026094675 0.10386702 0.31197318 0.459551 0.74621487 0.7611176 0.15337507 0.25487193 0.39612797 0.44742864 0.749043 0.78483164 0.7737305 0.75462073 0.76922107 0.60470134 0.59500027 0.57416964 0.5581835 0.58635545 0.58906496 0.56434095 0.5202506 0.44874462 0.49004608 0.37430125 0.4151721 0.4067632 0.3783176 0.30599344 0.41157007 0.3834501 0.3963806 0.36585546 0.36990628 0.35553998 0.35882467 0.3257169 0.32741392 0.3412378 0.42693537 0.40704703 0.4576757 0.417462 -0.05631721 0.33688956 0.084808126 0.22248682 0.3216844 0.36663532 0.3632269 0.32122615 0.47392923 0.51117545 0.28284258 0.4257986 0.45359072 0.3273673 0.26197547 -0.093678355 0.41633588 0.4964872 0.037569657 0.47991264 -0.04755458 -0.18120316 0.35839897 0.2972297 0.61165047 0.17005052 0.39238554 0.6226131 0.6601877 0.7231741 0.6723459 0.21848184 0.23095554 0.04172132 0.38440597 0.5031258 0.69407606 0.74085236 0.23532562 0.22274351 0.19032243 0.12254168 0.11869763 0.3211529 0.3632086 0.38367414 0.5795281 0.72999495 0.74811846 0.71297115 0.21173269 0.19330977 0.19401915 0.17699726 0.15801221 0.5320358 0.6321987 0.6804707 0.6785407 0.2076324 0.21645868 0.20832604 0.7024883 0.7629999 0.72943735 0.7806121 0.75401723 0.62506926 0.6117759 0.5850102 0.56256783 0.5546936 0.39254004 0.45231056 0.31766763 0.37126243 0.4152887 0.38829723 0.43485454 0.35673043 0.35276136 0.40856493 0.34097278 0.3354593 0.33054632 0.28309843 0.296389 0.48445863 0.47759995 0.4157167 0.42319152 -0.08246839 0.012124136 0.32985765 0.35569793 -0.024915889 0.30999476 0.28404692 0.20664799 0.29873854 0.3329326 0.4766933 0.1978836 0.105105415 0.39347988 0.2965779 0.44241968 0.17981853 0.2486598 -0.24053083 0.3562747 0.024364758 0.012560435 -0.02569151 -0.16174182 -0.15129249 -0.002519153 0.4610535 0.4776447 0.5150827 0.12189087 -0.18248181 -0.13058613 0.6105038 0.60018814 0.094410345 -0.10987982 0.037145447 0.5934384 0.09920257 0.25345212 0.31851023 -0.0127602 -0.0076192096 -0.16511184 0.2361683 0.67018044 0.5775954 0.21991926 0.077057086 0.098263316 0.3643594 0.5200875 0.5743501 0.60216874 0.654713 0.6533675 0.211335 0.21327862 0.23395869 0.10754672 0.1540837 0.30458432 0.43670583 0.39544564 0.7057928 0.7082581 0.65917504 0.6064214 0.22056891 0.23256215 0.26905894 0.7837156 0.7737094 0.65593636 0.56349015 0.21550651 0.22974598 0.79294956 0.7933914 0.73179877 0.60601914 0.5239014 0.7887443 0.7915419 0.7471069 0.5949737 0.58255637 0.5650268 0.5419138 0.51534724 0.49867743 0.35994205 0.34665108 0.3328308 0.28780803 0.3576517 0.416461 0.36021924 0.41440555 0.40324727 0.35764968 0.3815877 0.33916408 0.24594674 0.32449824 0.46897927 0.1573967 0.30267498 0.32107234 0.48914564 0.48791194 0.4037342 0.2908171 0.3111487 0.39254227 0.45661747 0.23974466 0.26922226 0.34399608 0.2774617 0.23635004 0.21988362 0.2583901 0.28152972 0.2291944 0.27211612 0.17758174 -0.13206056 0.067790635 -0.039354563 0.12842391 0.1931558 -0.03912966 0.062273398 -0.03623014 0.42359307 0.43825787 0.06485014 0.34010428 0.37382358 0.11687631 0.0126636885 0.4427894 0.22336024 -0.16649503 0.05257187 0.041725945 0.47396135 0.05813522 -0.24953672 0.25906014 0.23076102 0.62965417 0.61364526 0.49017105 0.008680636 0.08120644 0.14923562 0.08620225 0.14600348 0.723798 0.4714015 -0.05136773 0.15457141 0.19174844 0.20164025 0.2349393 0.20136583 0.15039581 0.086806215 0.08529851 0.6330427 0.73990935 0.5332446 0.37488824 0.1271028 0.17397903 0.20961183 0.2241663 0.4100883 0.36898315 0.3469441 0.30211267 0.3007476 0.71064967 0.73348176 0.73877007 0.58952135 0.3777367 0.5171625 0.53985965 0.47357732 0.4207551 0.4817239 0.72199094 0.60068417 0.61874235 0.5827851 0.5233769 0.50945294 0.6333504 0.6362085 0.6280422 0.5397098 0.52656555 0.4599429 0.44609052 0.4906978 0.51969177 0.51564264 0.41460752 0.5145006 0.37003377 0.43023577 0.5504198 0.5649239 0.26412377 0.39286858 0.3734827 0.34754094 0.40926874 0.37582505 0.3887135 0.3533857 0.2516696 0.31759182 0.4501833 0.31475157 0.5002394 0.47624853 0.27537465 0.30175894 0.42236513 0.4473298 0.17450899 0.27684754 0.37434942 0.3350874 0.2756078 0.1917953 0.25408936 0.60906625 0.59979963 0.5492967 0.3439145 -0.09125464 -0.046955645 0.59654915 0.4869078 -0.024119344 0.50898063 -0.058334697 0.4103291 0.24267593 -0.053672113 0.070214584 0.302545 0.4489705 0.48911768 0.60826766 -0.06166791 0.24723208 0.5071273 0.5868213 0.21144083 0.23656175 0.46489978 0.5764775 0.6060535 0.21012886 -0.21151549 -0.22440675 0.13257852 0.08241623 0.41283754 0.4559694 -0.107415296 0.11464716 0.50100416 0.5181743 0.12315517 0.5885446 0.63021743 0.06403768 0.17288694 0.12134513 0.36449012 0.41637868 0.5614687 0.5776969 0.32449925 -0.07244274 0.18344155 0.18754646 0.056905996 0.40712398 0.50803643 0.56326723 0.5649419 0.64908445 0.67120755 0.53575474 0.6133846 0.54677075 0.56912386 0.6076046 0.6031519 0.6289558 0.63143164 0.6237481 0.59239376 0.5952346 0.29936978 0.28871956 0.28316763 0.61965406 0.30247116 0.30866736 0.31613562 0.5824438 0.41336903 0.3750711 0.72627616 0.77322346 0.6472119 0.5467903 0.8111894 0.8352887 0.7513418 0.5953772 0.881233 0.88694364 0.734758 0.6420132 0.8716613 0.8057396 0.7359717 0.78295934 0.7032463 0.7460916 0.7936136 0.76044387 0.70155317 0.7607461 0.70809275 0.6962904 0.67697704 0.61663556 0.6079259 0.6146108 0.64406973 0.5701413 0.6044542 0.46489328 0.48851842 0.4904585 0.43999225 0.415439 0.5894568 0.6435711 0.4451924 0.446068 0.6237669 0.6101254 0.275164 0.36007592 0.49192774 0.32701415 0.43276158 0.36448595 0.3451426 0.27706432 0.14958982 0.4431367 0.064221464 0.29041946 0.5016093 0.46200004 0.28468305 0.45200157 0.48372924 0.4247405 0.39010268 0.06851085 0.24440375 0.14089751 0.59507143 0.49161536 -0.007858723 0.63781947 0.6323414 -0.23427421 0.04496511 0.6414014 0.6262299 -0.04429712 0.6499592 0.5882467 -0.087157235 -0.12124912 0.32553077 0.51410586 0.545602 0.57709044 0.51723367 -0.07321222 0.37088993 0.50560564 0.53222144 0.5190134 0.4729795 0.43569255 0.47282937 0.37040955 0.2886634 -0.24477753 0.390838 0.55171835 0.5951184 0.64223206 0.40293604 0.24665894 0.1029559 -0.0041117817 -0.037158888 0.65178144 0.35401675 0.2897047 0.5623083 0.64252055 0.49567598 0.34349567 0.22351936 0.015184793 0.116883755 0.26355222 0.45051515 0.51148915 0.58717525 0.38598776 0.118412465 0.29256424 0.41944906 0.47266293 0.524068 0.45572466 0.1515663 0.44258928 0.49062207 0.52561885 0.44367617 0.46280274 0.46250623 -0.10500604 0.15083174 0.61767614 0.3829695 0.19315934 0.017879613 -0.3117182 -0.13063474 0.6356876 0.08550845 0.28609848 0.20061827 0.5845883 0.5905473 0.6022768 0.6191639 0.6322078 0.19769564 0.29189587 0.26658186 0.24453771 0.60245043 0.5925228 0.25067776 0.32732868 0.35170943 0.57680994 0.5432759 0.6698539 0.722454 0.52820265 0.44999975 0.7767015 0.85016835 0.68358266 0.5836011 0.8503142 0.8787286 0.86269146 0.7610597 0.6451268 0.82869095 0.6521092 0.7355947 0.7758718 0.71699214 0.67679983 0.7345213 0.6894828 0.50704646 0.70009124 0.7279248 0.63312113 0.68183374 0.5596586 0.49138406 0.5401099 0.56824946 0.6787094 0.508018 0.55535316 0.4905712 0.57721996 0.62244713 0.6780039 0.35276943 0.47624838 0.6818737 0.6489081 0.59807944 0.23069084 0.10225414 0.41010532 0.29868764 0.28295714 0.21446973 0.063902244 0.31650186 0.261963 0.2087344 0.24548474 0.104389556 0.18539718 0.44454575 0.20463149 0.45616692 0.25218672 0.43228504 0.43667418 0.26009318 0.39692518 0.09064633 -0.11116569 -0.086767145 -0.090651505 0.57263255 0.52880645 0.20609538 -0.12294814 0.6520505 0.09742815 0.035886925 0.6704324 0.66178894 -0.055227425 0.14173605 0.3397484 0.7027053 0.04713354 0.2732074 0.47303596 0.5138793 0.55483186 0.6893821 0.5600427 0.550799 0.54400045 0.4855092 0.4919806 0.42032707 0.2511478 0.3656033 -0.39928097 0.41701922 0.55085605 0.3275604 -0.16320777 0.59546083 0.59468913 0.50857556 0.6743347 0.5622224 0.6771269 0.6845599 0.5547022 0.6156183 0.4052455 0.35872212 0.5525815 0.5807873 0.26596892 0.3413022 0.39495614 0.506575 0.53724116 0.57211876 0.37387836 0.31797898 0.31857127 0.5647775 0.13433588 0.0028363243 -0.11631863 0.29299068 0.6743689 0.1686086 0.14630738 0.08589759 0.48839045 0.5029309 0.5196996 0.6232019 0.792871 0.25542518 0.23128495 0.08028949 0.23801318 0.18223557 0.1600529 0.23231591 0.38280463 0.355329 0.2783515 0.57416165 0.33371383 0.7383574 0.50446594 0.39435652 0.8244771 0.85248566 0.7262117 0.59405446 0.83586895 0.8073982 0.763878 0.72747993 0.66359144 0.67788947 0.62133515 0.5762551 0.61130035 0.6470782 0.40759146 0.73663336 0.6560936 0.5858006 0.763222 0.7500032 0.7202371 0.6333355 0.6988534 0.7258028 0.7770228 0.6811049 0.61259925 0.5482265 0.6596344 0.7657341 0.68682885 0.57392716 0.5390687 0.49251246 0.63427633 0.56204057 0.5522932 0.5253143 0.624785 0.6654234 0.68046784 0.6109506 0.6534114 0.68722105 0.6852776 0.66108835 0.47416303 0.64854085 0.6246731 0.48553187 0.13470054 0.27272287 0.2710544 0.27102426 0.018394299 0.094834045 0.28462723 0.29820448 0.24101731 0.4727964 0.15101062 0.43803442 0.42959696 0.3914413 0.44059604 0.43338585 0.44163796 0.42971483 0.43343914 0.40034807 0.4641938 0.42262685 -0.14642733 0.032581378 -0.1527542 0.56431377 0.45505196 -0.10560399 -0.14517817 -0.17144385 0.6244767 0.55102134 0.060134098 0.6628086 0.6087562 -0.29662353 0.2354527 0.2986452 0.43161067 0.53507966 0.6872364 0.56208754 0.6721736 0.5626948 0.5332714 0.5231999 0.48282486 0.37567312 0.46396646 0.34069693 -0.5215205 0.37234226 0.5265626 0.6156549 0.5692352 0.2200214 -0.59841305 0.5437769 0.6251689 0.5635588 0.61218655 0.60309213 0.62230843 0.5683315 0.51254874 -0.29511935 -0.31837535 0.06839828 0.25685027 0.6090489 0.32138476 0.5503996 0.5779817 0.1537924 0.14985166 0.6983852 0.64723474 0.11700769 -0.40212083 -0.14036609 -0.29990768 0.72728056 0.76295924 0.75042 0.73117113 0.16531652 -0.02384523 -0.1483044 0.31509793 0.38018736 0.42051142 0.450502 0.81331503 0.82269657 0.80503815 0.7743661 0.2613575 0.011660345 0.007789526 0.12502004 0.8163104 0.8376322 0.823226 0.79888964 0.31002808 0.35918528 0.3297665 0.26376802 0.27136335 0.36429748 0.36823964 0.36825177 0.21601272 0.33965597 0.35544223 0.31266934 0.22604436 0.06996115 0.638181 0.31109273 0.7894752 0.7083534 0.65327865 0.56694365 0.81175745 0.7748945 0.7195657 0.420155 0.5098966 0.56817 0.55184656 0.48961595 0.706795 0.7016021 0.7288113 0.7681614 0.68946314 0.75449336 0.7685927 0.58322495 0.64904296 0.75529045 0.31176138 0.20959307 0.7071043 0.70430446 0.6079377 0.5770546 0.4701729 0.3723176 0.5491603 0.66313124 0.68990606 0.69967186 0.6925997 0.594329 0.6761311 0.70365953 0.69291383 0.54052234 0.6347389 0.27053925 0.16817851 0.30051962 0.29517508 0.30104712 0.07335008 0.115415335 0.52651817 0.31221986 0.31795782 0.18868151 0.09764037 0.40906575 0.2677164 0.30142277 0.6307206 0.21095829 0.57212996 0.5258905 0.606182 0.44082874 0.4392855 0.41811845 0.3616674 0.51273656 -0.1261655 0.3611408 0.5070123 0.4079578 0.06889813 -0.30023712 -0.2694154 -0.2705222 -0.15816863 0.47654873 0.42100394 0.37553152 0.30365413 -0.14939028 0.03578846 0.21043679 0.377321 0.53371286 0.46258837 -0.18974823 0.40679818 0.4603297 0.6119832 -0.14457762 -0.3908706 0.49147707 0.6381278 -0.1444524 0.45370328 0.47516292 -0.45837817 0.40181693 0.32283995 -0.3964991 0.17510924 0.5589146 0.50127745 0.3916664 0.5898634 0.29294857 0.34472352 0.6063335 0.39784247 0.60959375 0.59855604 0.35817778 0.5697184 0.5368812 0.44469643 0.30760708 -0.5199375 -0.32796425 -0.07467857 0.13397865 0.60187423 0.070054814 0.20152408 0.49221015 0.15762416 0.1988036 0.49597287 0.39531222 0.60268456 0.5718223 0.044414744 0.26795283 0.63030624 0.30753207 -0.2926815 -0.121353365 -0.2414515 0.27813 0.70900255 0.7461804 0.6701752 0.34278828 0.27811253 0.14333414 0.7685009 0.81924605 0.8076813 0.78194416 0.46168512 0.32331944 0.50227314 0.4130236 0.3585742 0.4783829 0.3880372 0.2954694 0.3475423 0.34619683 0.39589375 0.11263411 0.102129534 -0.02226407 0.13365458 0.27524915 0.3211859 0.032206364 0.21902533 0.54325914 0.5360157 0.40144703 0.67118144 0.6693608 0.720156 0.51400787 0.6526414 0.7494061 0.73063445 0.6994885 0.62787354 0.5662801 0.3147877 0.59643817 0.5566948 0.3036539 0.6548908 0.6936296 0.5931686 0.67020345 0.542897 0.18542257 0.6345438 0.3282861 0.33037597 0.31705528 0.16264448 0.17946434 0.7019087 0.34411842 0.3772325 0.14124332 0.20923136 0.69827104 0.72597075 0.2705551 0.30082563 0.27509356 0.079464704 0.0035706311 0.22080697 0.6684767 0.7247962 -0.02208361 0.21865872 0.20982404 0.6723718 0.21911323 0.36313838 0.6090297 0.5334534 0.5644212 0.24033803 -0.03600362 0.26769006 0.1468504 -0.06477684 0.13422304 0.14794429 0.39090824 0.4022737 0.39680475 0.21845268 0.08483235 0.11031646 0.11450367 0.3282907 0.37182006 0.37014568 0.24064822 0.20547381 0.15393244 0.08939459 0.30788976 0.41347593 0.32602584 0.33629924 0.14271866 0.11404401 -0.23872922 0.3965848 0.4413076 0.3233434 -0.26490515 0.3428906 0.37470925 0.067871645 -0.3206334 -0.28544214 0.31734428 0.34171736 -0.03240256 -0.343445 -0.32689232 -0.3089404 0.119012184 0.5420325 0.52448136 -0.21072106 0.06016266 0.068997584 0.5776546 0.07848317 0.5692322 0.17895846 0.24797182 0.60168344 0.20895573 0.3158193 0.467497 0.35959247 0.34777611 -0.47334746 -0.26733792 -0.22091925 0.18125826 -0.07811638 -0.37559104 0.5639476 0.10362544 -0.23468187 0.16825844 0.33170137 0.6091573 0.5981976 -0.21192735 0.42851368 0.7111553 0.6441424 0.45116174 -0.014399298 0.654719 0.7663722 0.7496737 0.73253274 0.4977376 0.5321395 0.20992552 0.5512401 0.5395689 0.33304244 0.25106677 0.51411515 0.43499 0.29098332 -0.012128904 0.25607288 0.20869221 0.36597097 0.032282244 0.018105507 0.019216131 -0.11487515 -0.043500878 0.56665426 0.5651697 0.5610334 0.5604949 0.55593634 0.5253655 0.28889972 0.31890076 0.40947124 0.30039597 0.37378255 0.6020632 0.50903106 0.66103715 0.13186313 0.5632698 0.5321952 0.25005245 0.22648802 0.53170645 0.55044365 0.5192769 0.32043967 0.27127242 0.48914725 0.3452028 0.51394427 0.6709423 0.72405356 0.27754253 0.39734045 0.532202 0.7654761 0.7782599 0.3278851 0.7805441 0.7612525 0.42573047 0.27680796 0.25694323 0.3131969 0.76604635 0.7354628 0.38212228 0.268251 0.26329905 0.8564094 0.7629676 0.49238884 0.23174065 0.65969884 0.47997582 0.34323293 0.2002506 0.2765928 0.2742002 0.23295756 0.21854201 0.16624504 0.14771937 0.27679724 0.4147405 0.06998399 0.35187986 0.35714024 0.39901394 0.41141596 0.37036514 0.23868532 0.3448811 0.3619473 0.32133844 0.22986299 0.15728365 -0.22941896 0.09335257 0.22626047 0.30841535 0.2211371 0.19441715 0.13117567 -0.30031922 0.05959803 0.105342805 -0.303105 -0.3126593 0.18572585 0.07945737 0.07059775 -0.32028967 0.14186145 0.52833426 0.527789 0.46569407 0.03037931 -0.3283704 0.54911953 0.5323367 -0.4199736 -0.39650238 0.1200689 0.51085854 0.1802476 0.3516975 0.35118085 -0.19401953 -0.26037246 -0.04587087 -0.21092495 0.5316857 0.54859954 0.5656644 -0.1875651 -0.29402357 -0.24820112 0.11715804 0.5919945 0.59194183 -0.1171186 0.3125881 0.5122062 0.51874095 0.5654181 0.6118987 0.59758115 0.41422087 0.011812061 0.0025337487 0.6122696 0.6006627 0.65357506 0.4886216 0.49023542 0.05891227 0.01873441 0.5370604 0.104353055 0.5826975 0.16946825 0.1461874 0.5456972 0.4189998 0.15030874 0.384803 0.05451642 0.040361106 0.26060832 0.23961201 0.15588453 -0.0009999722 0.34295416 0.36820167 0.42391104 0.2510333 0.22249648 0.37125632 0.41907573 0.4389102 0.5894228 0.5696317 0.562827 0.6132537 0.6047474 0.5580547 0.540523 0.5806625 0.55660474 0.41929087 0.16949882 0.46126577 0.42239496 0.49773943 0.5096046 0.70639074 0.8381945 0.7549869 0.8083415 0.8794968 0.86260414 0.78654915 0.8477181 0.9041133 0.9105519 0.85888386 0.8656559 0.9210086 0.92591035 0.74706244 0.80358064 0.8139903 0.5206435 0.8050974 0.8589937 0.8069764 0.4246732 0.6984249 0.9049928 0.81997 0.43467367 0.41568708 0.89795685 0.839911 0.46876976 0.1859801 0.4115767 0.08914608 0.3241514 0.075628854 0.48510566 0.47322926 0.62437844 0.22725473 0.11836353 0.12600467 0.42833728 0.14651021 -0.002212517 0.5277101 0.12415829 0.2826659 0.352656 0.3520681 0.06843531 0.33036554 0.26431257 0.22614498 -0.20042276 0.06845473 0.09877044 0.15766817 0.14544687 0.14534964 -0.33848736 -0.04012481 0.10859846 0.11860332 0.16049528 0.1274744 0.118695214 -0.05267868 0.43113035 0.24450845 0.11068927 0.056163423 -0.38036346 0.09745686 0.23951536 0.50221795 -0.050455913 -0.421177 0.2756518 0.49990186 -0.10917848 -0.29025003 0.25512326 0.3173148 0.1286845 0.42743075 0.11504773 0.11378159 0.102243826 0.50686747 0.09589562 0.41856048 0.110697195 -0.123755164 -0.1272152 -0.04570481 0.023242697 0.4062219 0.42540288 0.5042595 0.35283354 0.45938236 0.014625333 0.4893763 0.5643464 0.5928767 0.14646627 0.5770198 0.49924454 0.17880335 0.15926334 0.11901572 0.24432397 0.25636432 0.2713409 0.42678732 0.4311637 0.28622884 0.20748019 0.14942613 0.38865274 0.43951347 0.46649987 0.49045968 0.3151 0.25365114 0.21