# vtk DataFile Version 2.0
Really cool data
ASCII
DATASET POLYDATA
POINTS 5369 float
1.119839 -17.122225 56.663364
1.2986398 -17.337519 57.11595
1.127029 -16.432678 55.888626
0.9728769 -16.345524 56.355152
1.1842016 -16.419767 57.23621
1.2029334 -15.900725 55.924286
1.1530833 -15.657785 56.491257
1.1354592 -16.040985 57.07925
2.2681081 -18.638538 56.62183
1.8277204 -18.155535 56.653423
1.9688553 -18.201303 57.25716
2.238701 -17.863552 58.048737
1.9973855 -17.491533 55.231033
1.6847901 -17.40535 55.63278
1.4702485 -17.543438 57.28575
1.93918 -17.217365 58.11618
1.3932254 -16.786526 55.606674
1.3727018 -16.367563 57.519108
1.705261 -16.63677 57.872272
1.877695 -15.875847 55.19401
1.6458385 -15.594525 55.45134
1.3517137 -15.423518 56.17872
1.7692544 -15.65682 57.401577
1.8723999 -15.985741 57.769478
1.8574001 -15.259124 55.788734
1.5825287 -15.2472315 56.448166
1.7389859 -15.231475 56.96446
3.0055792 -18.87787 55.31045
2.500966 -18.778385 56.76988
2.6265275 -18.306656 55.12312
2.6535687 -18.401602 57.94868
2.5380425 -17.47301 54.759415
3.228025 -16.455278 54.329483
2.7923577 -14.779879 55.60309
2.4046664 -14.943134 56.743816
2.3837004 -15.085355 57.04788
4.04299 -19.591734 57.02285
3.9493783 -19.594702 57.85238
3.5169554 -19.242298 55.872974
3.8448126 -19.424519 56.814293
3.680574 -19.335949 58.281967
4.0441794 -17.930204 59.252293
3.9056244 -16.97526 53.68864
4.029518 -16.123562 53.438927
3.6310837 -15.447534 53.818558
4.309298 -14.526825 52.70643
3.831132 -14.527215 53.57195
3.6678658 -14.623362 56.37971
4.2215633 -14.184804 53.00168
4.1990995 -14.069341 53.40835
3.6977344 -14.3477125 54.946255
5.4122577 -20.961454 49.75727
5.4141183 -21.131388 50.223846
5.280741 -20.515514 49.83745
5.1656394 -20.467722 50.45939
5.238073 -20.136633 51.28342
5.1623917 -19.866714 52.08309
4.7037516 -19.704794 56.59242
4.4979367 -19.760708 57.318325
5.199904 -19.983278 50.470596
5.1614356 -19.592451 51.215916
4.3421445 -18.922152 54.692947
4.6732106 -19.41585 58.55575
4.5144854 -19.163603 58.80603
4.4952493 -17.772943 59.515747
4.9816933 -16.058237 52.544975
4.734767 -16.486488 59.676487
4.795813 -15.078844 52.251
4.6664724 -15.963906 59.407955
4.683236 -14.607717 52.308792
4.3968234 -14.926858 52.387066
4.808408 -13.923084 52.721004
4.6764097 -13.653509 53.503277
4.7691536 -13.628734 54.224316
4.2498097 -14.313366 56.07409
5.098391 -13.44699 53.876385
6.0860305 -21.668573 50.365036
5.917899 -21.094383 49.231518
5.6483865 -21.170214 49.62705
5.6087723 -21.337313 50.23456
5.975274 -21.33777 51.034916
5.8448477 -20.538006 49.098106
5.5041947 -20.561878 49.4514
5.6480575 -20.137419 52.62405
5.8980308 -19.96822 49.15892
5.547325 -19.901348 49.601357
5.8654566 -19.179317 49.734005
5.6138735 -16.869087 59.934994
5.16736 -15.13052 52.119415
5.557533 -15.870258 59.4003
5.2193456 -16.173859 59.69337
5.828937 -14.618258 51.995743
5.7703414 -15.395954 58.757195
5.496143 -14.066325 52.315235
5.29606 -13.688542 52.735294
5.6856403 -13.561262 55.177174
5.7192726 -13.333669 53.71225
5.8096285 -13.350282 54.594376
6.602519 -21.678877 49.84391
6.56669 -21.67177 50.44769
6.4348764 -21.24872 49.12504
6.4378247 -21.55645 49.423668
6.1548276 -21.493889 50.771446
6.5471497 -21.401033 51.11929
6.7405357 -20.566677 48.73531
6.3525553 -19.797346 48.92127
6.374312 -18.023136 60.102802
6.5433908 -17.53145 60.08847
7.063561 -16.295383 51.615124
6.4676595 -16.369768 59.601246
6.4336433 -16.711079 59.83895
6.461099 -15.503655 58.307228
6.2510166 -15.770889 59.06614
5.994921 -13.464033 53.026592
6.5841565 -13.202332 53.702377
7.3209887 -21.603983 49.801613
7.214409 -21.663523 50.230812
7.558099 -20.988066 48.998
7.272185 -21.439394 49.38586
7.5121884 -21.293613 51.305134
7.0604196 -20.111805 48.670643
7.241157 -19.987911 53.65551
7.5798597 -19.79262 48.677174
7.4204617 -18.998283 59.28119
7.6912017 -18.975021 48.89109
7.313123 -18.438303 59.873516
7.9378986 -16.03546 51.15094
7.4922256 -15.846874 58.067284
7.643566 -13.086292 54.766838
8.171122 -21.08432 49.301407
8.367226 -21.32822 50.217937
8.392592 -21.102316 51.046715
8.659972 -19.848907 53.378345
8.381679 -19.605213 57.37092
8.246548 -19.768023 48.612213
8.3955345 -19.471956 54.05737
8.228885 -19.217617 56.31224
8.6991005 -19.416832 58.57724
8.77134 -18.283318 59.47913
8.303952 -17.81768 59.5479
7.974615 -17.3176 59.68313
8.508673 -16.40753 58.476826
8.800243 -15.690226 50.91647
8.146975 -13.27997 52.808155
8.517921 -12.946342 53.557003
8.264174 -12.889147 54.487373
9.442536 -20.749687 49.756256
9.094965 -20.96039 50.521187
9.282453 -20.668617 51.30009
9.050367 -20.638208 51.83823
9.502312 -20.267092 49.082294
9.145633 -20.5061 52.083504
9.317878 -19.41171 57.844254
9.367473 -19.234982 58.314632
9.217534 -19.05623 58.83073
9.317236 -18.475252 59.057655
9.27109 -17.795618 59.092712
9.49392 -17.013056 58.199512
9.018692 -17.053804 58.84731
8.8302555 -16.16487 57.75618
10.086038 -13.5666895 51.011044
9.156131 -13.569682 55.224026
9.485513 -12.873404 52.858402
10.297233 -11.077757 51.50336
10.362947 -11.641048 53.192173
10.396432 -10.423721 51.76653
10.30754 -10.700326 52.349667
10.123832 -20.118517 49.57851
10.098674 -20.322706 50.399384
10.048336 -19.958384 52.160595
10.47142 -19.525455 49.676155
10.383823 -19.464455 52.488457
11.227269 -18.027033 46.614502
10.7028475 -18.473303 54.141975
10.025377 -18.319763 57.874813
9.870326 -18.59303 58.240467
9.669139 -18.373611 58.77845
11.308542 -17.291409 45.70264
11.02385 -17.54546 46.484528
9.748585 -17.885876 58.532288
11.271809 -16.694355 45.725567
11.121571 -16.389618 46.47108
10.592695 -17.281202 49.930077
10.681735 -16.012793 50.874702
10.512413 -15.703951 55.294704
10.976424 -14.53189 50.214535
10.943133 -14.761402 55.28336
10.40232 -13.310872 50.636288
10.67757 -11.457806 51.049637
11.048156 -11.392941 54.484604
10.925413 -10.544945 51.081234
10.544577 -10.402914 51.675507
10.530985 -10.404843 52.554577
10.459471 -10.978311 53.07878
11.207129 -10.717366 53.79943
10.890226 -10.117635 51.62173
10.82159 -10.073236 52.281513
11.157368 -18.900505 50.49318
10.956597 -18.7116 53.010414
11.919318 -18.185024 45.86633
11.586273 -18.271833 46.36167
11.327942 -17.975458 50.238567
11.092586 -18.035353 54.131493
11.933608 -17.309692 45.2183
11.574728 -17.35462 45.522186
11.621809 -17.250486 48.7963
11.83502 -16.601685 45.175606
11.557417 -16.46648 45.42818
11.884941 -16.094006 45.347546
11.768288 -15.981719 45.554996
11.610465 -15.743465 47.4532
11.848753 -15.28667 49.81168
11.96666 -15.092829 46.66793
12.0539055 -14.228018 49.616085
11.472654 -12.494425 55.030647
11.921833 -11.824578 50.447174
11.405223 -11.203046 50.61536
11.662745 -11.505606 54.88459
11.797746 -11.011281 50.56113
11.231428 -10.402874 53.53234
11.700296 -10.890842 54.43492
11.413601 -9.83279 51.683723
11.885531 -9.657981 52.29769
12.634485 -18.70428 46.632122
12.132212 -18.638035 47.013046
12.849183 -17.842422 45.24543
12.483895 -18.301594 45.69455
12.507263 -18.515465 47.510452
12.924083 -18.288652 48.096718
12.497307 -17.318565 45.10136
11.738053 -16.945572 52.38488
12.429274 -16.678596 45.05193
11.949596 -16.52258 54.095127
12.013068 -15.767133 54.662575
12.443298 -16.013638 45.21365
12.490837 -15.579927 45.638786
12.10738 -15.261711 54.945988
12.793111 -15.18459 45.790802
12.3471155 -14.656006 46.945423
12.845289 -14.347759 47.959496
12.222504 -13.072552 55.21888
12.456038 -12.474757 55.238567
12.6920185 -11.488518 50.474586
12.4463825 -11.472489 55.01676
12.681214 -11.158839 54.85708
12.446746 -9.754395 51.276398
12.825336 -9.675611 52.58245
13.528378 -18.635777 46.522778
13.376533 -18.674408 47.051037
13.410903 -18.42339 45.922863
13.1576805 -17.372684 45.142056
13.3616705 -16.750393 45.153614
14.072237 -16.11867 52.578762
13.033103 -15.852353 45.316566
13.717769 -15.131713 45.936108
13.308472 -14.51297 46.517147
13.311625 -13.98711 54.92798
13.619135 -14.366478 46.786327
13.852904 -13.858822 48.29237
13.382084 -12.321413 55.02569
13.497283 -10.923477 54.438835
13.251934 -10.957216 54.644104
13.263207 -10.128528 53.304497
14.34872 -17.926706 45.94418
14.132452 -18.363499 46.44668
14.441385 -18.43567 47.119232
14.422389 -18.395718 48.049137
14.613879 -18.03169 48.987267
13.893095 -17.30947 45.41179
14.571445 -17.274353 45.73098
14.703868 -16.623104 51.623623
14.426259 -16.181288 52.612476
14.452175 -15.992008 53.467552
14.467203 -15.69929 45.757114
14.60014 -15.140852 54.193703
14.873548 -14.391548 54.321705
14.467877 -13.806927 47.736732
13.871766 -13.370911 54.833855
13.819267 -12.621211 54.775455
14.038912 -11.400684 54.43009
14.007765 -10.499187 50.87309
14.2725725 -10.662315 52.614765
14.062328 -10.419941 52.96926
13.755495 -11.144251 54.47375
13.81566 -9.938799 52.113926
15.471426 -7.1308184 49.514442
15.396471 -5.58845 49.683422
15.43516 -5.471922 50.22747
16.381008 -30.927692 35.630306
16.412424 -30.858103 36.01059
16.433228 -30.615229 34.71237
16.27032 -30.378374 35.499683
16.312653 -30.295652 36.092697
16.348467 -29.858587 35.071438
16.29968 -29.854109 35.701805
16.41099 -29.76071 36.058064
15.481282 -17.754366 46.699867
15.657639 -18.028795 47.503372
15.281847 -18.1815 48.336166
15.524001 -17.553553 49.56141
15.288097 -17.408543 46.127968
15.342113 -17.546076 46.35176
15.405419 -17.16972 50.945713
15.454122 -16.679718 45.91903
14.901378 -15.677699 45.86882
15.411246 -14.299043 46.95259
15.382268 -12.9486065 49.061337
15.237089 -13.01775 53.65507
15.8176365 -12.3159895 49.55869
16.208427 -9.193979 48.730553
16.175045 -8.978331 49.336014
16.215206 -7.5876164 48.363163
15.579681 -7.2345157 50.342392
15.886964 -6.3747697 48.304077
15.588169 -6.3549275 48.8623
15.521174 -6.76864 50.42193
15.7115 -6.1127214 51.553837
16.015997 -6.8192453 52.39195
16.185387 -6.446316 52.82628
16.087807 -6.025807 48.287476
15.871095 -5.596085 48.704514
15.601811 -5.3417077 49.31071
15.519735 -5.383573 50.471558
15.754147 -5.534291 51.31459
16.009266 -5.6786246 52.29394
16.280296 -5.698627 52.8624
16.067863 -5.0214863 49.02466
15.8641815 -4.905725 49.602417
15.857504 -4.8928294 50.34047
[...]
POINT_DATA 5369
SCALARS features_00 float 1
LOOKUP_TABLE default
0.8383073 0.7684505 0.8492378 0.8653057 0.8370236 0.82869786 0.8273247 0.8433069 0.5975566 0.6786896 0.6274986 0.61241764 0.64354634 0.7505054 0.7222016 0.6848939 0.8044485 0.82293534 0.76612246 0.69848466 0.74123806 0.7947316 0.79398036 0.7708352 0.7099317 0.7690171 0.77182746 0.5420225 0.5593271 0.5817859 0.55706954 0.5112472 0.39897886 0.52389884 0.6351514 0.6572268 0.44341904 0.45308757 0.46450347 0.45081317 0.4763747 0.602572 0.32213414 0.4157586 0.48440057 0.5904297 0.5738342 0.42532086 0.6005941 0.58501184 0.43311113 0.83462787 0.82370776 0.7903738 0.7581965 0.68927 0.6017411 0.37110162 0.4118951 0.7119146 0.60295874 0.409253 0.47983804 0.5501556 0.56099534 0.4104967 0.47110504 0.5472417 0.4198435 0.58992803 0.56032014 0.606645 0.5638122 0.47806433 0.3662748 0.50803286 0.82966393 0.87273026 0.8572675 0.83722264 0.77263415 0.83495545 0.8147989 0.61506003 0.7849214 0.7443546 0.6697924 0.4478042 0.5322076 0.41092253 0.42878357 0.54127896 0.36596966 0.6145786 0.60577995 0.32624516 0.48127294 0.37637407 0.83219945 0.7912794 0.8937294 0.86975956 0.7940235 0.7226343 0.8674413 0.7782093 0.5552141 0.5458752 0.10711371 0.44389665 0.46860826 0.36737508 0.40560156 0.5295081 0.37123734 0.7773328 0.7433667 0.86226594 0.836961 0.5734327 0.8093019 0.26992148 0.7503842 0.610394 0.6066526 0.6325687 0.042159975 0.4469912 0.31904408 0.7483799 0.59646785 0.48987445 0.2558155 0.5811455 0.7315384 0.19322565 0.43910256 0.6464992 0.6257845 0.6160008 0.5896418 0.5142782 0.15497881 0.17562768 0.19572581 0.33369318 0.5249857 0.4821905 0.4033104 0.35686857 0.5566114 0.32467294 0.631142 0.6422786 0.6401936 0.6369962 0.62034905 0.57558244 0.59283006 0.44478992 0.100573905 0.29500738 0.1182019 0.5766117 0.4492549 0.616573 0.57003856 0.48724273 0.46363246 0.293885 0.4230745 0.26646322 0.7958321 0.18617308 0.63780266 0.6423821 0.63772166 0.77335036 0.7693855 0.62346053 0.733199 0.71133757 0.33216038 0.013730921 0.27621132 -0.056735434 0.25583357 0.09736157 0.5362896 0.5414297 0.6404865 0.62825847 0.57752734 0.5217917 0.54609084 0.65071803 0.60776937 0.49924758 0.25524262 0.832883 0.82844245 0.6817737 0.1920799 0.76886094 0.7759938 0.7405178 0.7310294 0.72089744 0.6969657 0.6794282 0.5867039 -0.11308725 0.5929023 -0.011018358 0.48495102 0.40725458 0.53422284 0.56506896 0.56642294 0.561414 0.57988036 0.6753812 0.7044606 0.7573271 0.76483643 0.8206535 0.84628797 0.6501255 0.5363035 0.7741345 0.3832111 0.72913945 0.37064326 0.28257135 0.68830705 0.6437854 0.27769798 0.6073903 0.5166995 0.3424491 0.40332407 0.48021203 0.5200021 0.553707 0.5574428 0.7693523 0.73066944 0.66759735 0.6201489 0.75773585 0.7809503 0.72156274 0.17530665 0.65743864 0.58175266 0.504709 0.1870962 0.4579041 0.28559926 0.45599705 0.5264874 0.53749764 0.5614563 0.64394283 0.62121195 0.5535405 0.49807996 0.40173024 0.71522856 0.6210939 0.12082071 0.16132164 0.21426854 0.6167903 0.2181131 0.15316921 0.30840698 0.2803251 0.3908495 0.46874666 0.87917423 0.5210421 0.54442567 0.5057897 0.6378348 0.67847097 0.77779037 0.77533436 0.72667855 0.75344145 0.6836444 0.7632382 0.7935271 0.77012104 0.80085313 0.8120474 0.5390652 0.504365 0.44861805 0.32498005 0.5607305 0.5524097 0.09092571 0.5624924 0.58179456 0.4641521 0.024633158 0.2532614 -0.12896673 0.4800399 0.5103949 0.5859759 0.6540713 0.6848926 0.7255231 0.6999941 0.6894516 0.6828838 0.7298538 0.7086333 0.754017 0.7909553 0.7760843 0.7352236 0.72018135 0.75100386 0.79004014 0.8156848 0.8048471 0.76437443 0.45983613 0.46215865 0.47596082 0.49455953 0.60427475 0.68164456 0.7329929 0.5149928 0.5988483 0.627181 0.7780592 0.77670157 0.64765877 0.7485971 0.8276881 0.8024789 0.77724934 0.68180454 0.79153705 0.86251605 0.82816565 0.48739886 0.53352016 0.47757828 0.42733213 0.26246586 0.54796207 0.5531351 0.5364587 0.5735458 0.48166132 0.54473525 0.5310947 0.3689452 0.2250443 0.40104628 0.134546 0.44955704 0.5184995 0.58473665 0.6498043 0.78621054 0.68058336 0.75866324 0.7816149 0.78323793 0.8150208 0.8213904 0.77719855 0.77062786 0.78428435 0.39477724 0.39352313 0.37853196 0.3811576 0.39844546 0.37894943 0.3726101 0.34151042 0.3703184 0.41511953 0.45026892 0.46676302 0.40450847 0.6047678 0.6606631 0.3864574 0.43469203 0.71019113 0.5104768 0.74565756 0.5579821 0.654127 0.76317537 0.7957108 0.7739817 0.7901075 0.8343395 0.8206752 0.5887532 0.6136188 0.62212175 0.47464126 0.2526944 0.6200983 0.6174382 0.32925853 0.5780202 0.5275322 -0.31841975 0.18573886 0.1701549 0.47995827 0.52250093 0.666551 0.8057301 0.84087414 0.6939608 0.6993288 0.8056066 0.7347935 0.80688125 0.8212204 0.79110014 0.7884171 0.79168534 0.3708923 0.38401195 0.58820534 0.5551485 0.52546144 0.35164553 0.38773224 0.39688778 0.37593257 0.32600558 0.7531067 0.66544735 0.579898 0.5346015 0.47660172 0.32361916 0.30166197 0.83236694 0.80101466 0.66484755 0.8339139 0.75476825 0.4114062 0.36513275 0.21347885 0.6929474 0.16899791 0.21465702 0.603425 0.5351201 0.527362 0.5756576 0.77772784 0.7010089 0.6232597 0.71749276 0.7739956 0.77637637 0.57738245 0.6062163 0.6206964 0.5211554 0.613209 0.5860895 0.53833175 0.48795253 0.11544253 0.43260235 0.4881514 0.62823886 0.5204219 0.7411284 0.6040465 0.80055463 0.5939836 0.6144899 0.780007 0.8062148 0.66568774 0.7602005 0.7844436 0.56756973 0.54764026 0.49865398 0.31025815 0.36146024 0.35402092 0.65207505 0.59608173 0.55394024 0.5210091 0.3336084 0.29223418 0.25766796 0.811594 0.7487664 0.85860896 0.839303 0.8586643 0.8260602 0.18631482 0.7774042 0.6849245 0.3906808 0.28140026 0.15681419 0.19170137 0.4002866 0.39984816 0.42083672 0.6409237 0.65765727 0.67981946 0.5717795 0.59231937 0.61428475 0.52841437 0.62011224 0.60698783 0.15673377 0.59131676 0.04887874 0.5700889 0.074519776 0.44829726 0.51556736 0.16434075 0.25220174 0.47825503 0.3419868 0.4200443 0.57760286 0.45503208 0.38711938 0.4935671 0.7170465 0.66917944 0.55446887 0.51925004 0.47879118 0.3034178 0.25776443 0.28529215 0.26338154 0.28410605 0.6279048 0.588968 0.2660032 0.7310057 0.6963835 0.24649465 0.83171237 0.24691571 0.8694576 0.22591263 0.8576834 0.8090261 0.58538413 0.42823198 0.21024033 0.08094317 -0.007872906 0.23257181 0.24339464 0.417656 0.5918283 0.61109126 0.5658692 0.59418976 0.6253898 0.62406963 0.6111153 0.4674775 0.5354725 0.62151843 0.60399675 0.58530915 0.037768394 0.102008335 0.5479319 0.09109073 0.47233203 0.22488692 0.13672875 0.42734215 0.24288109 0.26045457 0.27403793 0.21729761 0.29433548 0.08324032 0.39059272 0.5314012 0.5641064 0.48841837 0.41559845 0.31063285 0.20738928 0.21017998 0.2007502 0.23904794 0.42736652 0.5523097 0.5687516 0.57675767 0.5497006 0.24268201 0.48811224 0.6560689 0.62898004 0.6999132 0.22779605 0.7802751 0.22118174 0.7945101 0.22168425 0.10691643 -0.09475574 0.26425803 0.3639684 0.33286208 0.19152385 0.28142983 0.37263715 0.37713337 0.6338651 0.65192604 0.6406745 0.60103333 0.65219563 0.6732286 0.6331554 0.6146983 0.65031826 0.6218928 0.6070969 0.28558052 0.2379796 0.5261667 0.593234 0.5784796 0.28138357 0.52735925 0.5447262 0.24506287 0.24804002 0.26333162 0.29416743 0.23244098 0.26505008 0.22342865 0.18891549 0.21733557 0.24387114 0.24340712 0.1745035 0.22794716 0.32230744 0.26508024 0.26962736 0.28745332 0.3248551 0.32613522 0.28714105 0.5914221 0.598845 0.6135965 0.559135 0.5897377 0.60470796 0.60548806 0.4052109 0.28450042 0.16281268 0.57630026 0.5772041 0.49577737 0.29446292 0.4779849 0.6216376 0.5645448 0.22813103 0.6305739 0.21109757 0.6360183 0.20346369 0.20745343 0.016909363 0.28678125 0.6734507 0.46934682 0.31074542 0.1999493 0.07331551 0.34243903 0.3364393 0.6112009 0.54642147 0.5055259 0.37974262 0.2588806 0.32969856 0.3531498 0.3659559 0.41222268 0.6584751 0.60845816 0.30451646 0.47268412 0.24847913 0.2760492 0.24737212 0.5441383 0.25655228 0.24722481 0.30372748 0.32684943 0.206236 0.14872296 0.15628655 0.15054366 0.2425069 0.1805884 0.2625081 0.2582609 0.28459 0.30138916 0.31387725 0.30796784 0.28645855 0.31425402 0.35268182 0.6012955 0.6081021 0.6104718 0.21419668 0.42581037 0.6091324 0.5979904 0.17943892 0.03799186 -0.03747257 -0.0738575 0.55114853 0.14131299 0.44939488 0.4530962 0.2772183 0.51821387 0.17296618 0.46748102 0.14307897 0.16816203 0.1869126 0.75882995 0.7722721 0.8220624 0.7647009 0.31509924 0.8135928 0.770019 0.67570597 0.56326294 0.52406067 0.45194334 0.29880935 0.26903912 0.18615273 0.26834393 0.34650838 0.73559874 0.7089288 0.57303107 0.54298943 0.49794477 0.31074113 0.49080968 0.460599 0.44238704 0.48324406 0.31942478 0.39826673 0.26108968 0.42110956 0.37970594 0.44314307 0.43476194 0.39345494 0.22369641 0.39324385 0.08324676 0.40078682 0.34939498 0.25426129 0.106649294 0.06932868 0.0908708 0.5175526 0.46164334 0.41627273 0.39007467 0.38866216 0.032971404 0.48670173 0.51212895 0.43717086 0.39921865 0.47195464 0.48928386 0.40776324 0.39404818 0.2980023 0.46194416 0.3202799 0.27404773 0.29210743 0.3708758 0.3694568 0.3740918 0.38592443 0.4195305 0.37933397 0.58820546 0.5034983 0.4233408 0.4749343 0.58804095 0.58733237 0.5665636 0.5259471 0.2852666 0.25746465 0.5109489 0.0077225044 -0.009623386 -0.25585198 -0.049142405 -0.07594228 -0.0014221985 0.21828583 0.09136587 0.14779346 0.38696992 0.09437974 0.6838031 0.8090091 0.031283498 0.85122323 0.14446741 0.8374269 0.8014428 0.44599319 0.2819909 0.23456898 0.14581604 0.74883986 0.6848124 0.6115986 0.5571396 0.3444466 0.36108118 0.30112547 0.28948745 0.5362773 0.62004954 0.7187996 0.5157118 0.4439971 0.6918278 0.4392819 0.43205905 0.43898636 0.41605866 0.33991227 0.32459977 0.35687783 0.4031778 0.44374815 0.19927725 0.064101465 0.29575866 0.088892624 0.08140935 0.42733228 0.37270367 0.31657338 0.28272527 0.15579608 0.47588465 0.48786652 0.4328277 0.47786215 0.29228705 0.45378387 0.2598426 -0.008657411 0.58427846 0.4288695 0.41705415 0.2498878 0.21653828 0.65117294 0.26178524 0.18515632 0.09950038 0.0050817877 0.54605865 0.24065714 0.30513182 0.39273816 0.42336318 0.43258107 0.4864631 0.5916549 0.6036719 0.5982615 0.51784307 0.566408 0.6009376 0.59013736 0.54847354 0.48354274 0.50374734 0.56533957 0.5618337 0.51016283 0.3784868 0.45009226 0.4207687 0.3963565 0.4504094 0.30072922 0.4154895 -0.04905534 0.008573666 0.33988672 0.30224505 -0.075073116 -0.092258215 0.2843321 0.24660468 0.08133522 0.08293855 0.28005454 0.38298404 0.32728004 0.20270637 0.10789813 0.24040015 0.5057359 0.6032596 0.25658423 0.7992061 0.73650134 0.17919868 0.29574758 0.2681167 0.8538631 0.09048116 0.86525244 0.8318006 0.68702865 0.57240075 0.5222874 0.43930385 0.12104215 0.15720928 0.6988485 0.6117071 0.5305681 0.33204833 0.39792514 0.35929236 0.6363555 0.67335993 0.7160291 0.73999816 0.56763047 0.7480061 0.5195329 0.5640079 0.7189599 0.47015637 0.41462356 0.43627438 0.447554 0.42452037 0.40492854 0.36863193 0.1395675 0.29823077 0.1551478 0.17075281 0.123999394 0.11577355 0.2868347 0.25089818 0.56685007 0.22774097 0.32046604 -0.017698385 0.6820589 0.41300404 -0.036500894 -0.017313197 0.68296003 0.4970379 0.52084726 0.30924863 0.076377034 0.034379795 0.0014791247 -0.02979066 0.061210044 0.163738 0.47626674 0.5414858 0.5594315 0.58537495 0.5923969 0.49911386 0.42611587 0.19169363 0.42834777 0.51571816 0.59387624 0.5733759 0.54423124 0.55759025 0.5445208 0.54779685 0.5858557 0.56671554 0.49953735 0.51422834 0.56045985 0.5252995 0.42704967 0.37432772 0.17539123 0.13584311 0.18587476 0.18585584 0.20555821 -0.013701767 0.23295318 0.29036266 0.14785856 0.40569705 0.2762522 0.39456233 0.5552735 0.29203832 0.34630954 0.7437536 0.2908248 0.2924294 0.78379107 0.7512635 0.32516754 0.8356996 0.42272452 0.3329167 0.34318548 0.7245054 0.5421585 0.32450807 0.21214065 0.08165299 0.3782634 0.32950437 0.4130556 0.36225778 0.2784899 0.6727638 0.6926162 0.70739186 0.7258587 0.65970796 0.777057 0.6418067 0.7936344 0.48497188 0.52076674 0.5837592 0.7400179 0.46953312 0.49293137 0.6286698 0.2203888 0.2198898 0.19641691 0.21774612 0.23733445 0.48705935 0.612211 0.18511364 0.16108906 0.11907111 0.5293309 0.48949432 0.26982242 0.11914512 0.61836684 0.5938474 0.49858022 0.18545318 0.14287277 0.09313461 0.6281333 0.61018217 0.58847666 0.5307394 0.4647801 0.597577 0.55912024 0.22760993 0.6760521 0.43089753 0.7066703 0.49833453 0.0035269614 0.037764363 0.544803 0.71625006 0.53175306 0.5579654 0.13901651 0.23430683 0.2316448 0.21955857 0.5062971 0.55456305 0.5723767 0.56257224 0.4302683 0.55133116 0.5502638 0.5394143 0.67341757 0.7251505 0.51277184 0.42896727 0.61272454 0.47472894 0.3099884 0.47078094 0.41869503 0.3049339 0.20427385 0.15087476 0.21869111 0.23786101 0.25303793 0.2650776 0.049603462 0.35273486 0.44298893 0.78527033 0.45025438 0.3856041 0.15477523 0.43124658 0.8154384 0.5100605 0.37185207 0.8245822 0.43735114 0.34790608 0.073993854 0.30698088 0.32019722 0.56590444 0.4212054 0.29134712 0.13280582 0.34188884 0.32560635 0.6472589 0.40712377 0.34057808 0.366107 0.37872866 0.2119289 0.40824708 0.40820143 0.4038595 0.39778045 0.6895291 0.6982969 0.7176565 0.6674573 0.6853904 0.7078967 0.7684332 0.6545372 0.82525027 0.52495646 0.6417433 0.60188955 0.6313777 0.7754423 0.2611348 0.24754417 0.16029868 0.47202748 0.6464655 0.5821276 0.7121035 0.6986412 0.24367526 0.23864861 0.23622203 0.5095279 0.6471026 0.6593373 0.2888154 0.19328184 0.13585564 0.53274393 0.4865191 0.14796159 0.14714089 0.13544635 0.61633074 0.59318215 0.13454166 0.6505775 0.62892926 0.29032087 0.37435415 0.5006711 0.26658207 0.49565956 0.58676714 0.30981052 0.6495632 0.44105625 0.67495894 0.6913828 0.48000792 0.59088695 0.6854919 0.50385785 0.5303894 0.17598034 0.5223358 0.5679071 0.5493597 0.34925905 0.45403373 0.5536732 0.5955688 0.53083014 0.5324458 0.52554554 0.48093933 0.66523266 0.7681521 0.83850163 0.84782827 0.4232407 0.5984614 0.69922173 0.8104173 0.80200624 0.76184535 0.3707649 0.6807032 0.6524979 0.40060824 0.18421668 0.13591906 0.35566404 0.10327168 0.074320965 0.2649684 0.16162172 0.10239923 0.29726335 0.0034851935 0.2664429 0.28761548 0.052664302 0.38003683 0.7281506 0.42419115 0.7885473 0.78273 0.7822435 -0.17431572 0.42104274 0.44548067 0.7943393 -0.25780573 0.3785377 0.8031336 0.7997939 0.77435774 -0.33052352 0.30699715 0.31525776 0.7352948 0.7459591 0.7222414 -0.28273448 -0.19283022 0.31610283 0.711544 0.39634162 0.34461075 0.169183 0.008643504 0.36105448 0.45186442 0.4483595 0.4311809 0.37079397 0.17076719 0.4708259 0.6293547 0.63706094 0.6392686 0.56886035 0.42263535 0.6088806 0.5976598 0.54269314 0.32536465 0.5646324 0.5431524 0.47934842 0.3879182 0.26036093 0.47849804 0.43531227 0.31912988 0.21190932 0.21050702 0.46078676 0.26248515 0.26418158 0.69917214 0.740412 0.8165345 0.32078743 0.7629341 0.8305801 0.84181285 0.8475278 0.13178387 0.6221781 0.6247957 0.75140226 0.8172313 0.8308996 0.8061701 0.26683035 0.61305475 0.6802472 0.7170696 0.7599067 0.74778104 0.08903888 0.44187796 0.64552754 0.3002662 0.21098539 0.13823123 0.50506604 0.46410713 0.6612803 0.13981113 0.14883313 0.14489526 0.6801036 0.14177564 0.5422103 0.045663178 0.4279957 0.35131058 -0.017653208 0.5444095 0.5981653 0.63095677 0.3898087 0.54618466 0.58823633 0.658289 0.43315363 0.4336928 0.61116534 0.50408125 0.46243048 0.5744036 0.4879005 0.41867495 0.54031706 0.5075502 0.51097095 0.50800776 0.50645506 0.6538075 0.66714996 0.6882485 0.7920005 0.8713505 0.85116816 0.50260806 0.5856917 0.8241749 0.78385293 0.33468953 0.38847166 0.68995285 0.48478845 0.44853318 0.28303438 0.2278199 0.5788779 0.55172306 0.5319444 0.4742419 0.22950551 0.2760638 0.57449484 0.6406703 0.5774014 0.5290384 -0.067748316 0.3122722 0.33279982 0.5602416 0.6031877 0.56145775 0.43260983 0.31126252 -0.21827759 0.34564424 0.55530477 0.50429165 0.37375435 0.2273759 -0.2558034 0.29331556 0.5348073 0.7166557 0.21499847 0.39318627 0.44009283 0.76639134 0.48738432 0.27983138 -0.3077408 0.44061378 0.7649771 0.3427628 0.7047741 0.6179665 0.31319362 0.64736116 0.66140556 0.67558444 0.33215556 0.6755123 0.6781117 -0.009527907 0.4124787 0.3667676 0.07466905 0.52243245 0.49063915 0.16955179 0.1398946 0.5441348 0.5613304 0.56573594 0.2701978 0.27242988 0.23751557 0.5608889 0.6293937 0.6392864 0.6241046 0.4518972 0.6174551 0.63776445 0.4565541 0.29073986 0.13452025 0.11355346 0.11355739 0.57539165 0.5845089 0.18941352 0.11779273 0.118277535 0.52544975 0.5078813 0.50272745 0.15546767 0.47614524 0.19491018 0.4526782 0.4159919 0.40767983 0.18594345 0.29972726 0.12852868 0.14172365 0.41357788 0.5306299 0.5732925 0.11096999 0.528396 0.062144533 0.34406534 0.3725313 0.4186144 0.48797125 0.42460316 0.033481404 0.6011709 0.050689876 0.55245256 0.08040595 0.4772609 0.12797801 0.07867686 0.21977094 0.31595156 0.37706178 0.5214244 0.4815116 0.5336318 0.6684652 0.46079153 0.49558222 0.63638437 0.66473687 0.6615782 0.6791866 0.76755476 0.8416376 0.83826756 0.46079665 0.601978 0.6607195 0.80311525 0.77515477 0.395218 0.64625674 0.14651613 0.45830378 0.36710453 0.32155496 0.29647785 0.25240323 0.4417612 0.44821703 0.20091334 0.20152521 0.50370145 0.5324885 -0.089859486 -0.11327991 0.26097658 0.46673906 0.5196431 -0.09618403 -0.13981965 0.38235986 0.38517326 0.09658201 -0.024105683 -0.10241918 0.19279352 0.3695257 -0.049420834 0.121564224 0.04941892 0.04281658 -0.25185385 0.22032247 0.3024069 0.6479783 0.019557232 -0.30219132 0.69219327 0.03132177 -0.19098315 0.3302115 0.56950307 -0.30069414 0.32947317 0.57568127 0.5205902 0.48662037 0.15343156 0.35609782 0.5817968 0.5746549 0.17538637 0.17656633 0.4444078 0.38648814 0.24710986 0.25681028 0.18562798 0.5281577 0.54889166 0.2706277 0.27765542 0.2950482 0.3476609 0.59985745 0.60450155 0.6085922 0.30021375 0.37346476 0.38590544 0.29635188 0.3279162 0.22753686 0.23332104 0.2133539 0.24711992 0.2964488 0.19313551 0.16334108 0.16827404 0.22666323 0.2961823 -0.2245087 0.6047927 0.56784683 0.033712216 -0.0023629637 0.59905756 0.60941875 0.6231885 0.36952633 0.04222872 0.18032756 0.2941233 0.4070697 0.59634554 0.60267067 0.10784371 0.10697869 0.34201127 0.56361043 0.55880916 0.12660058 0.26104134 0.4178266 0.50432557 0.21824467 0.4442203 0.44224095 0.1625202 0.4340108 0.42028135 0.28871244 0.22989185 0.20354031 0.03397493 0.5018376 0.2301436 0.016132802 0.54127645 0.5090998 0.53559744 0.00581013 0.5277846 0.017150534 0.02772399 0.05700975 0.08692624 0.5062465 0.4264213 0.17529616 0.16782466 0.1887761 0.45455825 0.4925593 0.37291092 0.24385452 0.5317108 0.5047995 0.38568437 0.31401384 0.5946692 0.6028874 0.5589851 0.44077715 0.45289245 0.48505104 0.45798045 0.6448893 0.7808086 0.35299075 0.42325807 0.46731165 0.5177868 0.65143764 0.71882224 0.7465818 0.042952478 0.2928454 0.3492677 0.43839923 0.46736073 0.57583565 0.6179585 0.4903147 0.20439677 0.022435665 0.040949866 0.21260342 0.20573096 0.33054486 0.4275197 0.37270308 0.10620447 0.018087998 0.049356386 0.0723237 -0.08487256 -0.026548319 0.17198516 -0.00868462 0.071350545 0.42951536 0.53289664 0.07778676 -0.03190805 0.5725728 0.36086595 -0.11412108 0.27826613 0.3915757 0.2764976 0.034935012 -0.15040049 -0.13268255 0.17476705 0.12514281 0.44173175 0.019455845 0.14610118 0.52141464 0.47654754 0.21807908 0.3753066 0.4488536 0.45310086 0.2122955 0.33047754 0.4568585 0.3890982 0.42680988 0.46480262 0.39890423 0.17273898 0.40488106 0.2556501 0.5528022 0.6202923 0.6235057 0.22270754 0.24011213 0.515781 0.60717297 0.6198578 0.21684623 0.27287877 0.4852104 0.23204319 0.27311686 0.51946974 0.18564399 0.18796618 0.035419077 0.54831094 0.4293502 0.08512715 0.45450497 0.60109806 0.58593225 0.5577041 0.4115738 0.5040211 0.5685799 0.5729799 0.5610101 0.53698075 0.5243519 0.53196263 0.586913 0.47478083 0.5942358 0.43844426 0.54646504 0.39679238 0.38720953 0.2976371 0.24974135 0.21918026 0.16327219 0.21626078 0.19513823 0.18377107 0.3990376 0.2765296 0.44747168 0.3996781 0.50741893 0.47261667 0.43423447 0.43955374 0.31849077 -0.12403014 0.24097717 0.30764133 0.12074815 0.18975917 0.37898293 0.37582952 0.42717743 0.45766556 0.4581706 0.28712374 0.36884063 0.22886343 0.37004957 0.4671178 0.49486476 0.4956551 0.36841816 0.4022097 0.27926105 0.17571092 0.5202479 0.42274368 0.5171143 0.55970776 0.59318423 0.76072294 0.69155574 0.3631125 0.26856497 0.4001015 0.4585414 0.5004473 0.5848739 0.58