# vtk DataFile Version 2.0
Really cool data
ASCII
DATASET POLYDATA
POINTS 5013 float
-15.531045 21.002762 34.882137
-15.60011 24.779642 39.17947
-15.700495 25.752504 37.50426
-15.625179 25.683994 38.64381
-15.565107 25.676262 39.813156
-15.619013 25.623075 40.03348
-15.668864 26.608027 36.946106
-15.680123 26.725277 37.914978
-15.632267 26.681715 38.79964
-15.596228 26.532743 39.22579
-15.635957 27.112514 37.524292
-14.889959 20.137362 34.13795
-15.124254 20.06075 34.62098
-15.021908 19.892387 35.286274
-14.701587 19.767483 36.09061
-15.046652 20.688463 33.924557
-15.405958 20.647808 34.574055
-15.3926325 20.555761 35.45464
-15.133301 20.64092 36.337223
-14.730882 20.344238 36.99341
-15.105103 21.622818 33.820038
-15.361457 21.44014 34.20826
-15.464098 21.72632 35.612225
-15.394802 21.686424 36.008377
-15.015373 21.355991 36.990448
-14.630014 21.135574 38.011353
-14.663388 22.287317 33.096043
-15.07419 22.412565 33.718346
-15.322872 22.764942 34.755474
-15.208203 22.15814 36.091305
-14.679648 23.050121 37.849518
-14.716506 22.943884 38.076725
-14.877307 23.187107 33.683075
-14.986696 23.721418 34.444023
-15.058063 23.848667 38.842686
-15.120274 24.018393 40.323036
-14.6840925 24.096651 41.652805
-14.795848 23.94871 34.353924
-15.492577 24.407942 39.027416
-15.392992 24.847853 40.483986
-15.0623865 24.66318 41.333706
-14.842301 24.893974 41.880558
-15.352854 25.99066 36.28755
-15.129106 25.439167 41.4459
-14.886484 25.096224 41.808723
-15.119772 26.415981 36.03336
-15.498099 26.360092 39.70146
-15.299239 26.52392 40.53637
-15.139334 26.41498 41.086834
-14.819625 26.05055 41.934395
-14.852952 27.279974 36.02379
-15.265936 27.353544 36.71101
-15.307168 27.630249 37.474285
-15.329025 27.394659 38.634495
-15.234234 26.851252 40.64024
-14.735551 27.216232 41.323742
-15.007775 27.858212 36.716366
-14.989372 28.16511 37.43159
-14.774736 28.3628 38.018917
-13.561259 -3.0789459 45.02982
-13.573385 -3.152777 45.17026
-13.573719 -2.865063 45.01798
-13.54392 -2.7480567 45.347427
-13.717177 5.181053 43.62212
-13.805011 5.684647 42.869953
-13.982366 5.6546926 43.628056
-13.926949 5.6031833 44.277042
-13.719068 5.547887 44.862144
-14.015873 6.5557065 42.64636
-14.279278 6.4668245 43.451096
-14.217593 6.482007 44.248962
-13.8101015 6.6280317 45.40365
-13.59437 6.7523885 45.875668
-13.549253 7.5575056 41.664272
-14.0295315 7.262268 42.72422
-14.202879 7.2719364 43.4314
-14.057704 7.3839774 44.37192
-13.745833 7.304821 45.43186
-13.558222 7.0640736 45.828083
-13.540835 8.100875 41.508244
-13.605477 8.289768 42.171005
-13.673322 8.054977 43.99927
-13.616042 7.8344574 45.36858
-14.094796 19.400232 34.679546
-14.160747 19.349346 35.18567
-14.308957 19.845339 33.969498
-14.492365 19.649763 34.394478
-14.551422 19.584303 35.558533
-14.26836 19.909126 36.972527
-13.764656 19.955793 40.441353
-13.648612 20.001154 41.084934
-14.2741165 20.909279 33.170208
-14.561465 20.646854 33.582188
-13.816316 20.681046 38.547176
-13.897304 20.444958 39.986595
-13.949567 20.471048 40.650013
-13.847538 20.566053 41.29961
-14.02466 21.80041 32.745945
-14.648498 21.223864 33.41645
-14.120882 21.43217 39.63752
-14.217607 22.257996 32.84347
-14.218732 22.532263 39.67008
-13.918964 22.966349 41.13524
-13.691793 21.944248 41.81081
-14.134237 23.099674 32.99942
-14.172915 23.720907 33.46287
-14.357028 23.274755 41.144485
-13.885246 23.647263 41.764545
-13.988081 23.937632 33.43789
-14.475608 24.472687 42.035618
-14.1697035 25.39522 42.34452
-14.439181 26.477192 35.351677
-14.10058 26.403603 42.389427
-13.895722 26.381775 42.579872
-13.8119545 27.049585 35.117096
-14.557461 27.32087 41.590454
-13.887693 27.230589 42.329
-14.217501 28.014174 36.121082
-14.549961 28.326433 36.79164
-14.515986 28.511953 37.61709
-14.5557165 28.446993 39.678486
-14.07746 28.560904 40.25671
-14.189761 28.723776 37.524162
-14.168779 28.645805 39.280586
-13.049138 -3.867788 44.77119
-13.0953665 -3.909103 45.4226
-12.856256 -3.9327478 46.569485
-12.643026 -4.0123196 47.314926
-12.966525 -3.3311002 44.155174
-13.282307 -3.3838112 44.68051
-13.450431 -3.3105607 45.43975
-13.195404 -3.378814 46.43463
-12.816912 -3.2973437 47.51982
-12.671322 -3.31208 47.869263
-13.065374 -2.681129 44.137615
-13.408917 -2.6541402 44.693554
-13.444956 -2.3375468 45.63212
-13.281202 -2.7646632 46.465366
-12.839913 -2.7274673 47.570206
-12.673492 -2.7853634 47.86668
-12.788713 -2.0140903 44.05862
-13.134468 -1.9265922 44.752956
-12.896355 -1.3990698 45.87407
-13.091391 -1.7948699 46.374393
-12.761089 -1.8084229 47.326008
-12.797068 -1.2425354 46.23955
-13.08397 5.088182 42.75373
-13.327375 4.916712 43.36113
-13.202955 4.8878126 44.40423
-13.097132 5.257342 45.192387
-13.046593 5.5984187 42.104485
-13.324969 5.369563 42.483692
-13.477306 5.5778036 45.138477
-13.173619 6.0510187 46.047695
-12.808988 6.896229 40.802235
-13.5314245 6.830104 41.728813
-13.242588 6.6298766 46.24739
-12.902204 6.7795506 46.663376
-13.239842 7.606616 40.894302
-13.500973 7.3260593 41.481884
-13.536543 7.618294 45.707493
-13.216945 7.4136357 46.21391
-12.763949 8.537684 40.325077
-13.129797 8.374951 40.68825
-13.366499 8.673001 41.40971
-13.548598 8.177203 43.6369
-13.272381 8.499735 44.591095
-13.140126 8.343449 45.450417
-12.973261 8.109981 45.944633
-12.678014 9.405214 40.65119
-12.904226 9.43455 42.936546
-12.675199 10.427058 42.177414
-12.546946 10.88087 41.626087
-13.412921 19.327023 34.683666
-13.320596 19.260166 35.449196
-13.438073 19.27627 36.13854
-13.381591 19.274006 36.956726
-13.01477 19.317987 40.84041
-13.636755 19.663624 33.937263
-13.384652 19.729036 37.771618
-13.658181 19.86156 37.872257
-13.42984 19.739119 39.72849
-13.461005 19.656284 40.468704
-13.259368 19.747122 41.35984
-13.293243 20.11052 41.79593
-13.535414 20.582127 33.21583
-13.553991 20.256647 41.500374
-13.219474 20.664194 42.125153
-13.480958 21.693232 32.690712
-13.315501 21.318485 42.250423
-13.489067 22.300158 32.5829
-13.593976 21.92474 41.999046
-13.313337 23.390816 32.900017
-13.584621 25.811201 42.62937
-13.096861 26.424145 34.299538
-13.535341 26.431915 42.66469
-13.302088 27.493116 35.08704
-13.507144 27.29122 42.44435
-13.507058 26.972204 42.60598
-13.801489 27.967983 35.88493
-13.702279 28.476395 36.517708
-13.44544 28.314007 41.27067
-13.273622 27.763035 42.097576
-13.460634 28.798906 37.5095
-13.330745 29.007925 39.675285
-13.585858 28.887953 40.25293
-12.119008 -4.5628624 45.625328
-11.9773445 -4.589673 47.037376
-12.380309 -3.8987014 44.13916
-12.192409 -4.290245 44.579235
-12.436241 -4.3781743 45.545547
-12.279112 -4.448701 46.640144
-12.236668 -4.3410544 47.411102
-12.257821 -3.9497597 48.011124
-12.308208 -3.3715165 43.781273
-12.171766 -3.4343407 48.29087
-11.89104 -3.1520789 48.650124
-11.889236 -2.3077774 43.42799
-12.307849 -2.6442626 43.59806
-12.263027 -2.67606 48.289227
-11.970375 -2.7906027 48.604378
-12.451512 -1.8712198 43.9385
-12.493532 -1.4724259 44.397297
-12.436188 -1.40094 47.52163
-12.472819 -1.2300895 44.803078
-12.198768 -0.6070417 45.79967
-12.44233 -1.0105394 47.060802
-11.966021 -0.25326717 46.82869
-11.712758 -0.032925278 46.93756
-12.488928 4.477364 43.717873
-12.229909 5.0880427 41.921204
-11.9257765 4.6212864 42.575207
-12.573093 4.5664873 43.53055
-12.748031 4.5961776 44.145077
-11.828618 5.1964116 45.855232
-12.134481 5.8635073 41.106213
-12.414255 5.562133 41.629387
-12.666344 5.402447 45.86852
-12.102291 7.052798 40.286327
-12.601752 6.7627473 40.727814
-12.47841 6.754595 46.707966
-12.566868 7.751952 40.167564
-12.709246 7.4752226 40.412224
-12.510238 7.759658 46.566776
-12.4724045 7.2648435 46.68283
-12.3882675 8.580798 40.026707
-12.465399 8.081629 46.288662
-11.979256 7.838635 46.62798
-12.236716 9.316475 40.19197
-12.463074 9.492963 43.694195
-12.4680195 8.8521805 45.364822
-11.723727 10.075631 39.971245
-12.333633 10.651527 40.877777
-12.500888 10.681057 41.224705
-12.515759 10.448382 42.69705
-11.762117 11.026504 40.08296
-12.057202 11.103676 40.64015
-12.346222 11.392615 41.81493
-12.269314 11.261794 42.831577
-12.101472 11.100542 43.070396
-11.623094 11.311001 44.164394
-11.735117 12.230496 41.088234
-11.899921 12.310878 41.535152
-11.965196 12.483065 43.23353
-11.827952 13.296478 42.554367
-11.711339 13.396546 43.356155
-12.643708 19.338247 35.64113
-12.592526 19.315086 36.72251
-12.359431 19.275724 37.62446
-12.253364 19.043911 40.44419
-12.718621 19.158085 40.931416
-12.722776 19.83798 33.891182
-12.554648 19.57449 34.396416
-12.27823 19.506968 35.93121
-12.515248 19.966185 42.350346
-12.444229 20.871986 33.257797
-12.646507 20.534578 42.448532
-11.832485 20.275757 42.834282
-12.470305 21.781929 32.95412
-12.382531 21.382593 42.64976
-12.543875 22.404842 32.75486
-12.040534 22.193396 42.476845
-12.603919 24.282381 33.027138
-12.481408 25.391615 33.340805
-12.717908 25.671144 33.58336
-12.695036 26.495686 42.617313
-12.726792 27.39043 42.31851
-12.965247 26.999699 42.680965
-12.055632 28.588612 35.89628
-12.447286 28.142784 41.005653
-12.154472 29.104822 37.001476
-12.321003 29.023787 37.46813
-12.809843 28.963583 38.109997
-12.892491 29.02992 39.67068
-12.741449 28.902124 40.061577
-11.1402025 -4.6650095 44.78411
-11.441313 -4.706239 45.58488
-11.500483 -4.7718334 46.864735
-11.54832 -4.662245 47.320515
-11.44615 -4.050309 43.997925
-11.343967 -4.482086 44.52582
-11.458695 -4.19604 48.187496
-11.719136 -2.929066 43.37656
-11.567494 -3.166204 43.547314
-11.771775 -3.703541 48.49136
-11.344586 -3.3616614 48.75556
-11.641758 -2.4398532 43.430374
-11.1591015 -2.2403922 43.487305
-11.213924 -2.249212 48.828533
-11.42307 -1.6798692 43.663624
-11.505353 -1.4206257 48.53534
-10.605807 -1.3813573 50.421383
-11.369288 -0.93496907 44.251945
-11.5134535 -0.46614486 47.681446
-11.38755 -0.450652 48.32154
-10.847878 -0.43547457 49.46023
-10.943827 -0.41292176 50.550316
-10.801519 -0.34925926 51.225056
-11.625726 -0.28924283 45.655857
-11.1962595 0.14477065 47.357872
-10.95049 0.27058288 49.69154
-10.858524 0.3839118 50.618046
-10.727415 0.20175883 51.24452
-10.673027 0.765767 46.04492
[...]
POINT_DATA 5013
SCALARS features_00 float 1
LOOKUP_TABLE default
0.6683569 0.33030134 0.3918079 0.3355084 0.37199622 0.38359895 0.48578137 0.42982376 0.37316117 0.35778284 0.4762528 0.6915581 0.69317055 0.6760735 0.6012945 0.6684302 0.6815617 0.6596848 0.5566187 0.47183412 0.62445486 0.6407387 0.57938504 0.5167917 0.3675667 0.2288416 0.6149163 0.59571475 0.590903 0.42971367 0.09228255 0.08728607 0.56493807 0.49971235 0.19913875 0.3408814 0.3587538 0.46944642 0.29534507 0.40296316 0.4078909 0.44766104 0.46698117 0.47231087 0.46626878 0.4788738 0.36713326 0.42927676 0.4850121 0.53760636 0.48771882 0.5057552 0.49934983 0.4405352 0.4507221 0.58154076 0.50472695 0.5013163 0.47894692 0.7446493 0.7350031 0.7415085 0.7162615 0.63264465 0.59973437 0.6614423 0.6756476 0.66807055 0.5691298 0.6598306 0.68385875 0.6354677 0.62600446 0.45376483 0.5372565 0.5942758 0.59362936 0.59519804 0.61281264 0.43365854 0.42174476 0.47830954 0.56769735 0.6625534 0.634426 0.6937003 0.6922158 0.6375478 0.4860941 0.39502007 0.44903028 0.650599 0.6635641 0.23467676 0.32325718 0.3932671 0.43726864 0.6507863 0.6406431 0.20171762 0.6314566 0.18478972 0.24550514 0.36836404 0.5833779 0.5210542 0.26963252 0.24222803 0.49023473 0.38793564 0.49342084 0.3939302 0.53718925 0.521234 0.38893217 0.59836257 0.5372903 0.47989753 0.49471134 0.47364193 0.4933004 0.52608496 0.44975388 0.44228572 0.77923787 0.7349265 0.67981076 0.6422264 0.8144864 0.772952 0.71832585 0.68046665 0.61579037 0.5914706 0.80525285 0.76043224 0.69284725 0.6604248 0.5832744 0.5584031 0.79800886 0.7531531 0.6229645 0.6184801 0.52788675 0.5551774 0.513206 0.57906747 0.6474875 0.64731956 0.47452986 0.52282214 0.6595149 0.64198554 0.42924443 0.4750922 0.6264589 0.6114072 0.44244093 0.45559978 0.58719623 0.59777606 0.39189386 0.41706517 0.40823647 0.4354885 0.45911914 0.5424226 0.56871355 0.33976716 0.25164923 0.29808518 0.34810045 0.6087079 0.539851 0.503371 0.45424503 0.44256806 0.6906292 0.38463762 0.3704356 0.30102357 0.3978311 0.47665352 0.48615372 0.6961636 0.46508345 0.47758037 0.6580534 0.45356345 0.64599985 0.3864004 0.5762866 0.46844444 0.24782635 0.4819213 0.35993528 0.50795484 0.49297035 0.45407766 0.4525749 0.61424804 0.5291542 0.39398032 0.43734676 0.49340338 0.64997256 0.60181075 0.8327459 0.78284836 0.7082741 0.63400716 0.6224282 0.58674294 0.81832844 0.5493007 0.49509537 0.7146151 0.7815151 0.5045193 0.48114824 0.7733942 0.74653816 0.45315936 0.6932557 0.4739778 0.4391418 0.34998143 0.2981401 0.50302964 0.38575643 0.3787312 0.5040525 0.5920042 0.5546734 0.36415344 0.39527404 0.632608 0.3481831 0.41058505 0.602893 0.39395714 0.415451 0.5795483 0.58857167 0.3473236 0.566346 0.5521176 0.30586725 0.1849664 0.4909097 0.29108173 0.3401953 0.3524426 0.23799574 0.30197313 0.31851977 0.35975945 0.30373725 0.2705308 0.2867931 0.33774775 0.37700954 0.4281016 0.49681544 0.5153159 0.43698877 0.34912223 0.27714786 0.39281097 0.45864266 0.65755886 0.5617371 0.364326 0.5156333 0.5625902 0.49405414 0.48981267 0.53276503 0.46388432 0.55579513 0.38511807 0.47773686 0.29349402 0.24131599 0.38473833 0.4534093 0.44091797 0.33241752 0.54145515 0.29926103 0.30462208 0.32790703 0.4169119 0.4427239 0.56353253 0.53758895 0.54196393 0.5620065 0.73393536 0.64308274 0.5213033 0.7124485 0.7084275 0.5150168 0.43805176 0.69114506 0.614743 0.3585785 0.65870714 0.3433441 0.41911146 0.64474523 0.28664333 0.24351957 0.34199256 0.5076356 0.5577825 0.38734043 0.2191616 0.39652708 0.53202534 0.57500935 0.12735233 0.25348997 0.3923385 0.4961999 0.28713635 0.3395164 0.32833794 0.4277083 0.45112914 0.50355023 0.47839397 0.5099266 0.24142091 0.25115323 0.4696361 0.2894398 0.1387833 0.31187144 0.3023915 0.35961092 0.3617014 0.30463195 0.4351693 0.52553374 0.39163506 0.44302416 0.54223406 0.5503946 0.5526428 0.4722721 0.5515124 0.58095384 0.65054023 0.6172343 0.019703908 0.44192797 0.49837768 0.55353665 0.30187115 0.1756326 0.5056132 0.4901598 0.4176327 0.45726633 0.47928905 0.40577465 0.44297537 0.32594872 0.5166142 0.18621382 0.32226494 0.3187553 0.2996131 0.39556712 0.26373297 0.2601826 0.26952562 0.8113062 0.8884659 0.8501633 0.7602571 0.8736947 0.84245396 0.7775454 0.8376803 0.8269185 0.33217853 0.4014725 0.39758033 0.5159245 0.42007726 0.58237064 0.1788201 0.52854145 0.3446508 0.42979634 0.5272379 0.5281925 0.5147353 0.5640631 0.5656012 0.24661377 0.5855936 0.5820373 -0.056808062 0.11532422 0.16101536 0.5050932 0.5422166 0.5613862 -0.0070605204 0.20964772 0.38994068 0.40302902 0.21820366 0.058263827 0.21788889 0.19791086 0.38971406 0.192162 0.28091824 0.17472138 0.3570621 0.11744392 0.20797938 0.3552557 0.26510128 0.27210867 0.27998167 0.30741853 0.33867595 0.3220616 0.5280205 0.5742433 0.3336555 0.5773788 0.6248757 0.45371377 0.653644 0.5921944 0.6928112 0.7727554 0.008314282 -0.120725505 0.03208511 0.22686265 0.16603579 0.45253602 0.43721676 0.37879848 0.33413973 0.34617394 0.19973399 0.3338918 0.3868831 0.42441285 0.45336145 0.47034425 0.6705632 0.6019933 0.53663015 0.22507903 0.23258859 0.13881765 0.6598091 0.62091625 0.5206903 0.5105112 0.508484 0.5159748 0.49724573 0.5990665 0.4910849 0.48494768 0.46875066 0.8610889 0.8669902 0.78749514 0.63348377 0.55719084 0.88876 0.89105964 0.64874256 0.6187963 0.8876193 0.86578906 0.6555196 0.65834355 0.42830852 0.8537087 0.80732906 0.7641835 0.68770844 0.6059291 0.7167958 0.68819165 0.064546764 0.16550723 0.099825054 0.29300284 0.16699155 0.065639146 0.06542701 0.09256342 0.43864304 -0.11806143 0.5038976 0.4980008 0.5207849 0.51471984 0.56031203 0.520857 0.046259798 0.0824265 -0.12669069 0.5100256 0.5279282 -0.01459042 0.2757985 0.26981592 0.34495032 0.45598242 0.37944245 0.32751918 -0.31564057 -0.057760496 0.23667315 0.4765791 0.4463724 0.25377333 0.14082538 0.06667076 0.44834048 0.39699775 0.1497598 0.43336177 0.40762737 0.31554425 0.24219507 0.41616893 0.34793693 0.13980283 0.2457016 0.39209732 0.3340167 0.33876577 0.29062426 0.29089686 0.14821224 0.28680593 0.29488677 0.3063918 0.5507328 0.62999606 0.3474184 0.67368555 0.65020776 0.35876903 0.71415263 0.7086073 0.379211 -0.1707166 -0.24404168 -0.27597833 0.2284038 -0.14274126 -0.08776703 0.4903765 0.5223072 0.44060066 0.023939937 0.45336455 0.46071774 0.3885941 0.44308206 0.45018566 0.41635484 0.41352364 0.52556133 0.5644982 0.66350186 0.091805354 0.6697043 0.6661362 0.51762354 0.40700948 0.6599941 0.61776346 0.55891746 0.5919348 0.6511042 0.6524006 0.6255764 0.5432956 0.6361449 0.6261618 0.50300086 0.5012454 0.4846009 0.5608216 0.40818554 0.4235526 0.5117883 0.5198828 0.50093234 0.46605632 0.43306214 0.49715632 0.4557348 0.37901145 0.43280768 0.484281 0.76773727 0.77804554 0.6310561 0.5313978 0.3770026 0.45204604 0.29517332 0.45072523 0.503816 0.8293209 0.8035699 0.4879046 0.25184226 0.27133864 0.43451738 0.17410554 0.07707595 0.14243324 0.4478708 0.51102227 0.8754194 0.44851986 0.3758657 0.31984317 0.31743568 0.39506197 0.34068543 0.35585022 0.17246774 0.21322237 0.23630705 0.39932477 0.48202533 0.88536954 0.34512275 0.42766887 0.42112797 0.37276986 0.2140361 0.23988935 0.2404114 0.8244374 0.7889327 0.34146142 0.31717587 0.2598946 0.41271788 0.38926393 -0.016134191 0.06612471 0.23837298 0.7505878 0.65598875 0.51273865 0.4146546 0.29925698 0.25320095 0.19995254 0.23756868 0.0038264692 0.022507835 0.01262591 -0.05654113 -0.15028568 -0.08406718 -0.0663492 -0.06562835 0.28342226 0.39158756 -0.21059859 -0.19395193 0.4672243 -0.064794816 -0.25805277 0.4783074 0.48823088 0.13689366 0.49182385 0.10522542 0.52944696 0.50366926 0.052542195 0.07561591 0.4808964 0.0942909 0.29007062 0.4161067 0.42878926 0.409549 0.04425096 0.14897656 0.09921311 0.13611531 0.45521426 0.45965996 0.4653114 -0.0052498505 0.46922922 0.46828178 -0.028385505 0.43192148 0.0321586 0.32241076 0.26102602 0.32717812 0.28800938 0.28382802 0.3275895 0.291338 0.31197715 0.5822783 0.5864099 0.5555489 0.10684078 0.58821255 0.50000983 0.32328552 0.21332845 0.0031245798 0.2632328 0.37864226 0.61764824 0.5791257 -0.05736973 0.4288671 0.47282612 0.5273905 0.5496917 0.5464968 0.5612115 0.51424 0.5628175 -0.006342778 -0.06625375 -0.04821914 -0.13402845 0.1793246 -0.09842286 0.38816705 0.4273324 0.3619586 0.35188454 0.23974451 0.45683372 0.40444738 0.37548763 0.4440822 0.4557536 0.42326856 0.5561267 0.26209426 0.3959936 0.64568704 0.055422544 0.1945549 0.66496146 0.0544429 0.64904773 0.6178317 0.5484875 0.5190162 0.44121653 0.55643636 0.617062 0.6494727 0.64987445 0.624563 0.5403116 0.58449113 0.63996947 0.6523217 0.6214683 0.5028442 0.58530855 0.39460105 0.4228996 0.4891504 0.47018093 0.38910037 0.37098336 0.38394362 0.41589868 0.31614855 0.25751057 0.4511494 0.4953943 0.3358368 0.3506031 0.18831304 0.01903373 0.5003804 0.51807994 0.7228509 0.7280461 0.64728785 0.49869576 0.43290204 0.058489516 0.1995852 0.24313974 0.055910066 0.50925314 0.5292249 0.74840593 0.30291644 0.30520302 0.23589848 0.28387004 0.269926 0.14469917 -0.03331112 0.1618541 0.12765135 0.15471312 0.5237057 0.5456084 0.83840656 0.30698764 0.32142726 0.32972842 0.29679704 -0.19026263 0.004658458 0.4073827 0.48514855 0.5314809 0.8121153 0.34466156 -0.22720452 -0.028549481 -0.15676816 -0.065963246 0.21586338 0.12124985 0.3014685 0.40952453 0.70419484 0.7191683 0.37923238 -0.12624018 0.23935518 0.21273041 0.10546599 0.6635305 0.51293576 0.46754795 0.16628918 -0.090082124 0.31500632 0.26968017 0.103505984 0.05448828 0.045080036 -0.23826398 0.024468273 -0.009720549 -0.12402437 -0.26011652 0.21133018 -0.034434468 -0.13396756 0.49116686 0.08592953 0.09350997 0.46325427 0.09273705 0.45603466 0.058302842 0.4371749 0.3314908 0.25249812 0.13001207 0.38341558 0.062527016 0.06348049 0.40354353 0.39001828 0.21021056 0.43070757 -0.102997094 0.21991 0.28908646 0.4827938 0.04233381 0.50283194 0.46702886 0.11365348 0.36838472 0.23412251 0.35991126 0.34404418 0.29853404 0.32261837 0.47982103 0.24247645 0.60884416 0.59390926 0.5053659 0.44273186 0.26582366 0.63562834 0.14614435 0.38241702 0.63172364 0.47624403 0.55084515 0.5711871 0.41381797 0.5800797 0.04434156 0.56736434 0.58233434 -0.17759226 0.3100111 0.3486874 0.42983276 0.4424318 0.35965413 0.42640436 0.41905844 0.42525858 0.49840838 0.38849223 0.42579967 0.59094304 0.06281732 0.12674598 0.27228904 0.63885087 0.062122423 0.5252905 0.42443487 0.53853756 0.5969657 0.63315856 0.63809514 0.60082567 0.43447697 0.5150732 0.57003415 0.37072003 0.38899004 0.42398202 0.3654264 0.38257447 0.40088418 0.3897677 0.30967665 0.048271105 0.4690829 0.3614173 0.3612603 0.5079505 0.52564263 0.2921221 0.5429233 0.5323782 0.6826049 0.6577646 0.5356972 0.43543243 0.019250065 0.5392913 0.69698656 0.6820549 0.2873071 0.18910743 0.20287725 0.109586656 0.06767012 0.5119975 0.6788075 0.5279475 0.66034204 0.28295338 0.3875475 0.57665235 -0.02902589 0.38019577 0.1492053 0.1405379 -0.018830024 0.123326056 -0.05877374 -0.16235128 -0.11042437 0.31166923 -0.032951392 0.39132434 -0.04630128 0.3862744 0.114567235 0.10559043 0.0776365 0.10864014 0.036200047 0.3016917 0.21862824 0.10676225 0.30190828 0.12784 0.18569162 0.33515996 0.27850345 0.27201107 0.22256196 0.3496089 0.3171876 0.30867442 0.40870285 0.17165472 0.2756734 0.3318015 0.346831 0.37173492 0.14007382 0.36135012 0.08069612 0.35203242 0.2393837 0.3410227 0.3448143 0.28749776 0.3718868 -0.12434578 0.2937232 0.47812867 -0.16485 0.029594049 0.15870349 0.58869314 0.5650459 0.5217141 0.62100804 0.5732718 0.32681167 0.6239921 0.39432526 0.60760915 0.48844647 0.5051381 0.6042464 0.18652047 0.604215 0.08229256 0.44997442 0.5647832 0.59826064 0.6080681 -0.16180387 0.009763122 -0.1432236 -0.22291265 0.31088156 0.4170932 0.28937402 0.23849574 0.07749225 0.4849543 0.07605147 0.38479716 0.44460893 0.41995472 0.1657457 0.44766957 0.54476565 0.5230885 0.5647871 0.36824 0.43142444 0.36841482 0.3572011 0.22503491 0.23195179 0.3694529 0.37347385 0.23072106 0.19434036 0.20465848 0.38922447 0.34955245 0.36515918 0.44166338 0.23500334 0.27298906 0.48279512 0.56357193 0.4458951 0.3453989 0.19792068 0.45889974 0.6221744 0.270899 0.15553418 0.08118965 0.13217178 0.46332747 0.4445437 0.63014144 0.3719508 0.111831956 0.43599945 0.42697847 -0.06677164 -0.10016005 0.17912269 -0.06677793 -0.09433348 0.04703188 0.13929805 0.08248505 0.1508267 -0.08331603 0.16308904 0.053369842 0.043585688 -0.11751777 -0.49330282 0.25295103 0.16422805 0.079925165 -0.05053637 0.30984586 0.2727086 0.120168164 0.041433267 -0.13208817 0.33420607 0.32126918 0.28826636 0.26417744 0.039724864 -0.26149708 0.1469152 0.30962205 0.29186082 0.29036862 -0.0089928955 0.0034011006 0.1917265 0.14609563 0.10169383 0.19940194 0.21531287 0.18727054 0.25547248 0.1922195 0.3286218 0.3152247 0.14214417 0.2514835 0.34584147 0.15793008 0.1273905 0.17093617 0.28828746 0.2729649 0.06507589 0.008242953 0.054787543 0.03984502 0.32160854 0.0024006963 0.35449153 0.40382284 0.2007799 0.5089559 0.40387887 0.61143637 0.6088145 0.5743557 0.613047 0.30593336 0.6014541 0.56949306 0.4604386 0.51513207 0.56943715 0.3349442 0.26080185 0.5719634 0.09376792 0.19093794 0.49039772 0.5398246 0.5703886 0.11300213 0.008787371 -0.057683762 -0.08837448 0.2594684 0.19685024 0.32813403 0.10923582 0.092710905 0.2854818 0.27749658 0.25681406 0.3171186 0.07175851 0.08238443 0.4907477 0.4805916 0.4456554 0.3267467 0.32615328 0.47743052 0.3525622 0.3566023 0.36501303 0.41831756 0.23459524 0.25791427 0.39977568 0.37330505 0.36613473 0.32826975 0.2826085 -0.18213585 0.35489032 0.35644323 0.30542085 0.34274128 0.3631059 0.30888984 0.37084696 0.2882808 0.4576821 0.23665309 -0.11715985 0.30762675 0.40408316 0.008996844 0.11904405 0.12714212 -0.016853906 -0.107553676 0.14076364 0.13418351 -0.27161622 0.060840815 0.13572618 0.08830854 0.09538149 -0.49084562 -0.116854124 0.14207758 0.11327703 0.104391515 -0.3368782 0.18602657 0.19383547 0.15786007 0.27826083 -0.37425125 0.19403423 0.44546062 0.21547581 0.5126803 0.43532377 0.21243307 0.090172805 0.27001566 0.19605602 -0.051523015 0.07033046 0.12471876 0.25181133 0.1931317 0.51168275 0.54237056 0.59794104 0.6200283 0.07646145 -0.030186638 0.23904505 0.3449245 0.5317888 0.58488125 0.6174353 0.13404782 0.10763414 0.35900062 0.47844994 0.50265443 0.57483107 0.6664642 0.14921002 0.24319002 0.2025799 0.3152078 0.33181193 0.35621792 0.4317881 0.5267283 0.5944587 0.7118622 0.15760843 0.278465 0.3568399 0.39114806 0.45907134 0.60157526 0.6640165 0.7445463 0.22902308 0.28010798 0.3007008 0.6574917 0.69304293 0.74490416 0.21399668 0.1366654 0.2623301 0.26621586 -0.07303798 -0.20346302 0.05598507 0.078127295 0.3305399 0.30268192 0.106952965 -0.30934447 0.31389982 0.3593082 0.019346133 -0.12698004 0.51303846 0.49395865 0.2235935 0.1337825 0.059218027 -0.0013180338 0.597586 0.5929466 0.60221684 0.039170604 0.18714227 0.58639324 0.5622817 0.3848629 0.501914 0.46952727 0.44545746 0.5162232 0.48784798 0.5157633 0.12348809 -0.1291234 0.39509052 0.488887 0.53255606 0.11877808 -0.085908934 0.07196364 -0.076796874 -0.06577143 0.36505443 0.27065977 0.011387706 0.505498 0.47568122 0.610501 0.58339965 0.32412618 0.30354407 0.554282 0.4898185 0.39757866 0.3741624 0.39983088 0.3624422 0.009099271 0.14879361 0.2479351 0.58068836 0.2571667 0.14666648 -0.0041338056 -0.1015664 0.5349911 0.6497295 0.32564455 0.5852703 0.61779 0.32455474 0.38608474 0.49736023 0.2476906 0.24825051 0.24086767 0.007138647 -0.04326491 -0.2946152 0.22102584 0.071290806 -0.28836542 0.15293509 0.17793778 0.06319268 0.11764556 -0.18186638 0.11810657 0.17081489 -0.1939414 0.14399937 0.13190533 0.25763246 -0.16502987 0.112110406 0.17375155 0.15939164 -0.09511072 0.110468715 0.18769245 0.23018461 0.156399 0.13435867 0.456 0.17284265 0.57868457 0.50549066 0.15465224 0.5358782 0.50003386 0.6003304 0.61880994 0.4050239 0.13272235 0.49993235 0.591727 0.6221014 0.65464246 -0.1791658 -0.10087513 0.05430141 0.21757454 0.6791087 0.11891693 0.11726515 0.2606081 0.29476503 0.7432455 0.19803505 0.2905035 0.33146763 0.34737378 0.8105087 0.20471673 0.21267164 0.20302808 0.35237175 0.4001199 0.79510367 0.83463556 0.335541 0.20178021 0.18793693 0.41773546 0.5961158 0.6476859 0.7244581 0.7858633 0.83516186 0.3845139 0.70050776 0.7414166 0.43878442 0.13155153 -0.1053285 0.0044028587 0.08432512 -0.109335124 -0.19891195 -0.05256215 -0.022812981 0.2850856 0.19198966 0.14659095 0.020864595 0.55049914 0.5163149 0.30105042 0.5546861 0.5279712 0.40190563 0.39143547 0.5198803 0.48784217 0.40876845 0.48061582 0.41679353 0.43151885 0.37483656 0.28112593 0.47261775 0.36287653 0.44474608 0.4788651 0.17109719 0.13404807 0.115183696 0.41971797 0.18479204 0.06396885 0.33753106 0.16227844 0.03534601 0.5728992 0.61730903 0.24261928 0.64466786 0.33028358 0.31088957 0.6485726 0.41106963 0.3706847 0.34154135 0.61030036 0.69497555 0.7129406 0.49570474 0.53428465 0.6332581 0.6830312 0.649879 0.4109204 0.463225 0.42870218 0.29192087 0.2039683 0.286286 0.5796862 0.6359415 0.7075696 0.14170778 0.71520054 0.72907853 0.20438576 0.7091994 0.42480466 0.1791441 0.18898666 0.18480164 0.008956451 0.22488439 0.52540904 0.40839332 0.31618613 0.07758033 0.10788394 0.12720422 0.107354134 0.16883063 0.57698834 0.5456555 -0.045093313 0.14937279 0.5672263 0.21019304 0.20790403 -0.019182358 0.21596456 0.33594662 0.266278 0.046103306 0.43579882 0.71070373 0.33368784 0.29123378 0.46550298 0.527311 0.5405836 0.48320538 0.40350598 0.32644105 0.21377085 0.54423374 0.54116964 0.51196975 0.45248502 0.35121018 0.2504372 0.5912919 0.5418621 0.5256422 0.16173959 0.57241464 0.53742886 0.6027939 0.6401906 0.49996895 0.45321214 0.24041057 0.17907329 0.6445656 0.7059111 0.018219002 0.7368236 0.30559152 0.22902387 0.7659449 0.3198916 0.26400337 0.3151282 0.8336147 0.387509 0.033124924 0.30861872 0.84705865 0.50039953 0.46559322 0.51851195 0.826471 0.8464261 0.48823535 0.0032932349 0.5693001 0.6115365 0.68221086 0.7504264 0.79926944 0.54004633 0.43072456 0.027098972 0.05588407 0.0002441816 0.110195175 0.16968372 -0.02893193 -0.03603528 0.16168272 0.27544403 0.15641288 0.25566936 0.31571925 0.10714104 0.08970463 0.25714827 -0.08636865 0.30568913 0.38127887 0.4471722 0.4031032 0.44114327 0.31060404 0.44019654 0.4290781 0.42589295 0.050625905 0.17276375 0.24520099 0.33740672 0.4060804 0.09243667 -0.0068440437 0.12858176 0.553763 0.30930957 0.310007 0.38017088 0.34619933 0.39209682 0.3905174 0.42307448 0.1528283 0.46356988 0.14646317 0.45114458 0.19298416 0.37193894 0.06789833 0.4275021 0.15772124 0.5636099 0.51938164 0.6103275 0.2581916 0.639915 0.30384734 0.70308393 0.48049396 0.39665836 0.34556425 0.318222 0.31220376 0.7473061 0.5616095 0.65139127 0.7349855 0.7416582 0.732046 0.43868065 0.513012 0.6585667 0.39996678 0.2664437 0.45317107 0.6138406 0.7000513 0.72641337 -0.102352574 0.74600697 0.74652517 0.71948385 -0.08170323 0.6627667 0.25463617 0.27399993 0.24689788 0.4147329 0.5051487 0.4145161 0.21527441 0.24349429 0.5683598 0.51012045 0.18356743 0.037790656 0.13956615 0.578534 0.10973206 0.5085 0.18677454 0.19090083 0.21737204 0.23019975 0.7141627 0.76117826 0.35790378 0.26990375 0.7578581 0.48862034 0.3922702 0.70193803 0.71143186 0.55961645 0.62619567 0.6499698 0.58848906 0.6891624 0.6199936 0.17328176 0.7228013 0.6879315 0.6603236 0.6512741 0.55322015 0.49354187 0.7185974 0.6924553 0.65838957 0.5288225 0.42002526 0.47751164 0.5172534 0.45357284 0.2535494 0.5814775 -0.15674421 0.58178556 0.6349847 0.34193456 0.3690845 0.6171883 0.4593122 0.48991543 -0.33967435 -0.37498513 -0.015454888 0.6520029 0.6174406 -0.056991372 -0.081404366 0.7160243 0.6016026 -0.01225882 -0.022007156 0.49668005 0.76223767 0.75517416 0.60268784 0.6206019 0.29368785 -0.67238265 0.006187387 0.58237684 0.6118001 0.68038356 0.73816144 0.76857483 0.59751785 0.50026155 0.31672442 0.09969236 0.12608859 0.121573284 0.23077759 0.21563977 0.0221899 0.03613525 0.31178325 0.15630305 0.055099815 0.42449957 0.33495516 0.26595265 0.44743925 0.46632627 0.46131843 0.0069479644 0.4584185 0.53892344 0.63816905 0.6170678 0.26371056 0.3714915 0.5748266 0.3672757 0.41900116 0.16080731 0.10650445 0.12208196 0.14800192 0.26322693 0.38902795 0.6160609 0.5433332 0.43144208 0.56108105 0.4467221 0.30088872 0.4425579 0.41780943 0.2132433 0.41339704 0.42348868 0.18628988 0.44654