# vtk DataFile Version 2.0
Really cool data
ASCII
DATASET POLYDATA
POINTS 5092 float
-56.718365 17.031898 46.70013
-56.654392 16.944548 47.354336
-56.69049 17.96373 45.112263
-56.83289 17.85618 45.51612
-56.968105 17.627552 46.350666
-56.93649 17.549784 47.50324
-56.74676 17.779657 48.24719
-56.702953 18.31386 45.084785
-56.89451 18.344027 45.558384
-57.124584 18.212461 46.42819
-57.216743 19.039385 48.125595
-56.79573 18.73302 49.14796
-57.294495 19.557894 47.871525
-57.260128 19.797745 48.700356
-57.130375 19.390759 48.8644
-56.63874 20.286617 46.33608
-56.99803 20.668842 47.800434
-57.119167 20.435452 48.471428
-57.012604 20.118084 48.982082
-56.73206 20.977446 47.18257
-56.745586 21.119774 47.61853
-56.797142 21.108404 48.35228
-56.73973 20.822767 49.051937
-56.17826 17.067192 45.5396
-56.26502 16.719118 46.69036
-56.434372 16.804794 47.352566
-56.34453 17.07134 48.024647
-56.30419 17.788944 44.750835
-56.43906 17.403679 45.240936
-56.14521 17.96694 49.283455
-55.978252 18.40292 44.412567
-56.30744 18.548058 44.662193
-55.889847 18.669577 50.590233
-55.79092 19.001015 50.68629
-56.225918 19.081211 44.831192
-56.457436 19.500885 45.324535
-56.27231 19.24291 49.93885
-56.119102 20.105316 45.53752
-56.56995 20.609943 49.57129
-55.84873 20.248142 50.62186
-56.065292 21.486984 47.125683
-56.484543 21.533932 48.401417
-56.54729 21.269209 48.97682
-55.803467 20.895033 50.443222
-55.898056 21.668716 47.180344
-56.277325 21.657417 47.70869
-56.04122 21.846687 48.4995
-55.56328 17.280865 44.9512
-55.553993 16.945396 45.611153
-55.585075 16.582357 46.73582
-55.54613 16.582123 47.369587
-55.635284 16.787802 47.979656
-54.960243 17.251392 49.498665
-55.343304 18.008059 44.40615
-55.588417 17.682814 44.543613
-55.36503 17.761568 50.267315
-54.83755 17.953943 51.05748
-55.48991 18.442228 44.37788
-55.801235 18.782305 44.450687
-55.573635 18.334019 50.676125
-55.243183 18.32417 50.994373
-55.835514 18.835773 44.453285
-55.57739 19.31103 50.987114
-55.13078 20.179081 51.13924
-55.66467 21.205544 46.48675
-55.060642 21.607805 50.41988
-55.243713 21.133339 50.74512
-54.93972 17.074987 45.656483
-54.693913 16.992258 46.521843
-54.928104 16.73389 47.469868
-55.05534 16.835915 48.00157
-54.53745 17.238451 50.281525
-54.856956 17.745508 44.862503
-54.56641 17.417665 45.40618
-54.662388 17.504057 50.691902
-54.273647 17.68117 51.07976
-54.93557 18.43488 44.52263
-54.646446 18.788628 51.36691
-54.401997 19.143925 51.45508
-54.480385 20.754147 51.15244
-54.37527 21.457209 50.97331
-54.69016 22.29892 50.11759
-54.027454 23.101366 49.621056
-53.94825 23.062908 50.02156
-53.779877 25.132471 45.650803
-53.709866 26.68687 44.057213
-53.77388 26.30666 44.55432
-53.921703 26.1871 45.50618
-53.686146 26.081709 46.862038
-53.56289 26.691414 46.92795
-53.68619 27.2055 44.60274
-53.65306 27.31105 45.430523
-53.62851 27.30565 45.942448
-54.24834 17.125525 46.908863
-53.958984 17.122084 49.96095
-53.5327 17.16689 50.429947
-53.340805 17.357378 50.81935
-54.203457 17.535948 45.889256
-53.651623 17.844652 51.282326
-53.60055 18.448536 45.817047
-53.824688 18.189709 51.48641
-53.096657 19.343233 51.441414
-53.79632 22.403051 50.54399
-52.77972 24.166159 44.888893
-53.37618 23.824118 47.163734
-53.435215 23.25558 50.022938
-52.993065 25.192247 43.841656
-53.01609 24.735928 44.589436
-53.039577 25.696363 43.540146
-53.451424 25.530066 47.883156
-52.924088 26.432604 43.303772
-53.40239 26.353872 43.695637
-53.40962 26.225769 47.532673
-53.249454 27.401697 43.80909
-53.483974 27.588842 44.614677
-53.478645 27.606634 45.332756
-53.33349 27.38649 46.76181
-52.88326 27.620968 47.208313
-52.935387 27.836594 43.829853
-53.12833 27.93419 44.54162
-53.14257 28.012611 45.21429
-52.989395 28.018751 46.427067
-52.835457 27.864164 46.977627
-52.82731 17.341028 49.835445
-53.056377 17.180124 50.14906
-53.12415 17.411272 50.84149
-52.650185 19.289303 46.476665
-52.68409 20.592113 46.253307
-51.877598 22.570541 45.187782
-52.576267 22.48011 46.021923
-52.86885 22.59058 50.72342
-52.549873 24.303514 44.41367
-52.560406 24.874659 43.962933
-52.2441 25.664637 43.374485
-52.291344 25.427309 43.455505
-52.46169 26.640347 43.22861
-52.49565 26.315622 48.327232
-52.321243 27.260157 43.346176
-52.655327 27.491024 43.459736
-52.258934 27.451693 47.774586
-52.616623 27.870747 43.743717
-52.66062 28.200974 44.442226
-52.483673 28.383049 45.430565
-52.51211 28.386889 46.465088
-52.25459 28.155186 47.192017
-52.06483 28.5547 46.597477
-51.330494 17.987299 49.688362
-51.09067 17.960619 50.274395
-51.047787 18.737492 51.093422
-51.1699 20.18772 46.74294
-51.52213 22.478191 44.779762
-50.85404 22.348507 51.450817
-51.464794 24.448582 49.49238
-51.877625 26.012106 43.312485
-51.35568 25.233154 43.63986
-51.69273 25.399765 48.84369
-51.63658 26.72494 48.014645
-51.673683 25.816355 48.695652
-51.920277 27.176046 43.373573
-51.719826 27.435427 43.59923
-51.585674 27.303349 47.88098
-51.727936 27.815512 43.846375
-51.94172 28.383986 44.91539
-51.76411 28.507051 45.736557
-51.557884 28.497084 46.71234
-51.70753 28.147343 47.32993
-51.80392 28.54939 45.825523
-51.751892 28.580788 46.48718
-50.683315 18.219593 48.846176
-50.287457 18.11209 49.154278
-50.515934 19.00935 51.37521
-50.867184 20.30479 46.721424
-50.432358 20.492756 51.634266
-50.279896 21.22514 51.83243
-50.217625 22.506306 51.546997
-50.442413 22.068357 51.68916
-49.72376 23.341726 43.127247
-50.09992 24.24182 49.576733
-50.604446 27.590189 44.968052
-50.97317 27.598677 47.423847
-50.910084 27.819998 44.6328
-50.918285 27.968815 45.43402
-51.172806 28.011637 47.388622
-49.50061 18.229862 49.00131
-49.64799 18.09786 49.623764
-49.313797 18.216404 50.35116
-49.42532 18.307705 50.791607
-49.446457 18.570505 48.437572
-49.58417 18.660606 51.23589
-49.745293 19.52042 51.66597
-49.290817 20.901146 52.13736
-49.07229 22.20999 43.111507
-48.851723 23.028334 42.162937
-49.06377 22.318295 42.90206
-49.065712 22.324575 52.26966
-48.9061 23.319921 42.179028
-49.262318 23.061728 51.667988
-48.944614 22.869642 52.07606
-49.15713 26.615234 42.980015
-49.83537 26.60371 47.699703
-49.131397 27.01567 43.325703
-50.0439 26.807674 47.448322
-48.652794 28.217033 42.871277
-48.69265 28.153603 44.08017
-49.093086 18.310362 50.177685
-49.242485 18.41618 48.954052
-48.772667 18.5591 49.800003
-48.83077 18.551294 50.4324
-48.906975 18.837957 51.068813
-48.70458 19.754425 48.12977
-48.322506 20.042278 48.375175
-48.936855 19.357466 51.579975
-48.28513 19.958963 51.76684
-48.5934 20.532404 52.038597
-48.30552 22.296246 42.328297
-48.293175 21.629194 43.607983
-48.572544 21.671572 52.407497
-48.45193 22.635052 42.16735
-48.3203 22.487158 52.362423
-48.155163 23.206495 41.783516
-48.267147 23.402414 51.52398
-48.403652 22.970484 52.084427
-48.15773 24.2244 41.760273
-48.61545 23.538202 51.176514
-48.24345 25.363367 41.95128
-48.31431 26.51021 42.11691
-47.828068 27.369202 41.88971
-48.098434 27.208965 46.533855
-48.046284 28.009472 42.06826
-47.827652 29.471863 43.41404
-47.888752 29.680834 44.166656
-47.757942 20.051918 51.449905
-47.381817 21.382185 43.57523
-47.752186 20.829573 48.083622
-47.60064 20.485886 48.801353
-47.65188 20.970476 52.18814
-47.269054 22.285599 42.122047
-47.527653 21.683807 42.780205
-47.600018 22.05411 45.06763
-47.622253 21.450918 48.1424
-47.623898 21.387398 52.24996
-47.22813 23.10235 45.893993
-47.57164 22.768585 48.44632
-47.69869 22.402784 52.23495
-47.688828 23.588146 41.611485
-47.54644 23.375446 47.46708
-47.679478 23.001488 51.884937
-47.458866 23.570904 50.488758
-47.550453 25.15421 41.61651
-47.293747 25.423893 47.622402
-47.874 26.156986 47.448895
-47.169647 27.261744 41.789192
-47.391342 27.062206 46.5838
-46.70124 29.489225 41.87062
-47.323593 29.64886 42.638172
-47.47398 29.705605 45.56298
-47.27624 29.508139 45.877254
-46.787834 30.375978 42.69062
-47.37086 30.258404 44.446686
-47.23564 30.046726 45.35135
-46.58352 31.88233 39.803272
-46.57731 31.4648 41.25757
-46.807735 31.021925 43.43062
-46.516953 32.50669 40.25517
-47.288067 20.045563 50.468502
-46.88958 21.428164 43.04168
-47.265926 20.862225 48.735172
-47.065224 20.681667 49.632008
-46.7284 20.838459 50.708843
-46.889805 20.80076 51.372425
-46.452263 22.053339 42.008938
-46.8362 21.68263 42.722
-47.06251 21.148438 49.083664
-46.588818 21.56577 49.788464
-46.482132 21.337402 50.28527
-46.67344 21.62527 51.54325
-47.019855 21.417679 51.946976
-46.493202 22.38724 49.90898
-46.566265 22.2958 51.36764
-46.992397 22.241297 51.894638
-46.353413 23.70075 41.209866
-46.902973 24.18978 46.64912
-47.02466 23.73272 46.90675
-46.77471 23.05219 50.559456
-47.01883 23.073298 51.180782
-46.377552 24.62373 41.060314
-46.80674 24.887 47.031765
-46.33218 25.265621 41.083977
-46.162216 26.379261 41.726467
-46.815075 26.175121 46.912178
-46.321587 30.186691 40.037952
-46.165157 29.53932 40.498264
-46.46229 29.554947 46.09707
-46.48871 30.559181 45.309166
-46.385494 30.032406 45.854416
-45.863308 31.587523 37.860535
-46.128605 31.51537 38.55097
-46.43203 31.607086 39.628147
-46.45612 31.206572 42.62386
-46.403122 31.504637 43.67097
-46.268677 31.258379 44.459053
-46.58475 30.63691 45.132874
-45.948082 32.56026 37.576805
-46.36728 32.366924 38.773075
-46.413048 32.74251 39.396175
-46.47793 32.18657 40.95538
-45.830246 32.102737 42.150555
-45.83758 33.492657 37.66005
-46.01306 33.381073 38.806236
-46.271725 33.19558 39.59497
-46.17389 33.20996 40.48672
-45.96068 33.283657 41.07231
-45.613403 34.143757 37.409714
-45.815594 34.18832 38.74213
-45.90232 33.86086 39.707035
-45.718815 33.87156 40.120533
-45.288715 21.998156 41.890537
-45.78762 21.768036 42.484364
-45.19447 21.843327 43.38198
-46.43351 21.643375 50.11817
-46.38878 21.662014 50.64329
-46.396397 21.759493 51.02755
-45.410004 22.83548 41.185028
-45.39903 22.393463 41.507225
-45.82571 23.19997 45.376297
-46.39605 22.09575 50.11575
-46.37646 22.346544 50.410713
-46.415222 22.166857 51.129856
-45.43162 23.593496 40.944473
-46.04372 23.66977 45.892365
-45.56547 24.549551 40.981678
-45.6451 25.56852 45.779106
[...]
POINT_DATA 5092
SCALARS features_00 float 1
LOOKUP_TABLE default
0.8118915 0.74342155 0.821841 0.82383394 0.8003745 0.68540436 0.59137166 0.78862476 0.75990295 0.732816 0.5451711 0.5233215 0.5237856 0.5135084 0.5161728 0.48306555 0.49263513 0.50703526 0.5125756 0.4633142 0.4738465 0.49120426 0.511027 0.91426456 0.82205117 0.74369234 0.656566 0.8388357 0.8704562 0.51419044 0.82779574 0.79764664 0.5287012 0.5268183 0.737193 0.6727827 0.52152944 0.51989317 0.52941686 0.52031165 0.44288725 0.47596413 0.50048035 0.49463513 0.42717865 0.45357072 0.4616493 0.9123409 0.9191626 0.79731464 0.7284969 0.6513444 0.51112664 0.8657001 0.874905 0.5516648 0.5964897 0.8303807 0.789917 0.54947555 0.5701649 0.78302646 0.5284607 0.504827 0.4094441 0.36806995 0.425344 0.84546673 0.7675995 0.68643844 0.6091986 0.57067156 0.8715267 0.81350994 0.594542 0.6160866 0.80846584 0.5801089 0.5725922 0.43578434 0.3447616 0.2977177 0.23181707 0.24653211 0.670929 0.8151576 0.77662265 0.6511555 0.54509556 0.5647645 0.75550973 0.66923 0.62703764 0.6856735 0.5220346 0.54800117 0.5586156 0.71719116 0.6236571 0.5225794 0.635944 0.5557513 0.24695906 0.31334916 0.47704962 0.22057481 0.5768682 0.49645326 0.67304105 0.5317548 0.77520984 0.80880225 0.56107897 0.82821786 0.76248854 0.6905618 0.60542583 0.6388742 0.82708794 0.7765447 0.71404237 0.6627816 0.65587723 0.3548423 0.4509266 0.5298536 0.07807206 0.0049047545 -0.031087592 0.04135558 0.21457946 0.35027614 0.49940386 0.6289735 0.59333456 0.77283627 0.52059114 0.8134463 0.8305124 0.6084913 0.8268455 0.78998023 0.7177987 0.6871855 0.6736097 0.69822544 0.42418855 0.45804906 0.53036153 0.008958131 -0.049543288 0.3614297 0.06091935 0.6486164 0.4588589 0.2769572 0.46847337 0.3491125 0.7809317 0.7877423 0.5291101 0.80006987 0.7440941 0.7061919 0.67982423 0.6520095 0.70595783 0.6953242 0.42670995 0.45789889 0.5251024 0.012358103 0.46711022 0.4632677 0.43024784 0.44506258 0.33325714 0.1751447 0.63656634 0.5260166 0.69702244 0.6627215 0.5914804 0.46865028 0.46695662 0.4968809 0.5069558 0.45886478 0.5097098 0.51077914 0.5636516 0.45253682 0.4243622 0.44977313 0.57382464 0.39693862 0.5180292 0.58824 0.22023407 0.1848574 0.23478526 0.27311522 0.31344092 0.28337634 0.50082064 0.4764384 0.4837464 0.51093704 0.52563304 0.45541096 0.40685934 0.53081125 0.60153687 0.6229867 0.473595 0.5004138 0.68181187 0.46177202 0.6996556 0.44482458 0.70042527 0.6705551 0.37488842 0.6099732 0.2654422 0.20888731 0.22866456 0.17133799 0.27376002 0.35315055 0.42453718 0.68463385 0.48655754 0.3380667 0.37876993 0.78185964 0.50177866 0.48563534 0.5369992 0.34163833 0.80567366 0.12727681 0.2517074 0.80599535 0.42935413 -0.1298262 0.79592276 0.8238049 0.30199772 0.29747635 0.20805556 0.1960567 0.26561034 0.2582731 0.33545676 0.5444631 0.54159003 0.33131337 0.49423736 0.53919446 0.45601556 0.3167925 0.4049695 0.4301396 0.64826155 0.48305684 0.39012325 0.49206996 0.63338256 0.7309931 0.529261 0.5024972 0.42699292 0.5285561 0.5918171 0.7451163 0.79817474 0.57983387 0.74436736 0.82505095 0.51361394 0.08785467 0.01851657 0.746179 0.8226379 0.4130275 0.2343608 0.34866565 0.27462906 0.2984088 0.46092474 0.36560452 0.53827715 0.52132595 0.53804773 0.60255885 0.5697856 0.46674353 0.28539038 0.4060975 0.46756375 0.514797 0.6580069 0.539833 0.47973937 0.37698007 0.24565339 0.64507866 0.52341264 0.46198934 0.40749848 0.35503688 0.6293032 0.5184673 0.44136387 0.40701914 0.62765694 0.5955596 0.65956557 0.5831418 0.64536035 0.6828605 0.6361468 0.6238464 0.24533932 0.5970013 0.6515487 0.705916 0.6250347 0.14360712 0.5247967 0.16324225 0.1979778 0.35328573 0.37284878 0.43653104 0.43997434 0.36034086 0.5179529 0.52656657 0.5169492 0.5266106 0.5950524 0.59462655 0.46662444 0.66125464 0.20386022 0.34246102 0.3194472 0.6626197 0.2653545 0.21038517 0.6361751 0.6324668 0.60204864 0.41502172 0.34941608 0.29849675 0.61838484 0.5878304 0.51971865 0.43188092 0.65261626 0.67064595 0.6972412 0.6743115 0.68421006 0.6421235 0.66769147 0.43929118 0.65127134 0.24725279 0.14827995 0.23187838 0.32806036 0.31837708 0.4431689 0.3774191 0.48654106 0.5062647 0.5117462 0.4541573 0.49402046 0.5406816 0.29501843 0.41847938 0.6424635 0.60368145 0.6465304 0.12828688 0.09792026 0.6318295 0.6247449 0.30426255 0.61761117 0.52540094 0.4023252 0.57244945 0.46859798 0.69701344 0.70486796 0.74040496 0.71336424 0.738634 0.7755158 0.69872 0.71484494 0.7011288 0.6919155 0.69794285 0.6838393 0.57176507 0.68545103 0.20330149 0.030101473 0.12897123 0.2776512 0.25591725 0.15962258 0.29632404 0.48745242 0.4164053 0.49041945 0.63588864 0.0573429 0.049309816 0.62013274 0.60225356 0.20649496 0.079450175 0.5935025 0.15827233 0.3851497 0.23450929 0.47613028 0.50352305 0.49849355 0.5383093 0.8198379 0.8253584 0.15702626 0.18850744 0.14478765 0.12934935 0.018275768 0.100952655 0.28672755 0.48961022 0.28036046 0.5416895 0.07984102 0.6183623 -0.092229776 -0.034974456 -0.064083576 0.882383 -0.11173904 0.11647922 -0.19789024 0.030852698 0.02507142 0.34743518 0.41158646 0.40811813 0.38910258 0.4163405 0.4832203 0.58732986 0.58417785 0.536989 0.5030257 0.5060004 0.5699039 0.5005355 0.5539355 0.6336647 0.7165427 0.7297888 0.5702281 0.5720608 0.56215703 0.5763483 0.5592303 0.5522534 0.59022605 0.6714429 0.7199421 0.7720207 0.75612557 0.5829662 0.57048327 0.55858564 0.5423249 0.6924666 0.70055616 0.7113273 0.7300621 0.73509413 0.70980716 0.7073084 0.26209986 0.11817069 0.22176988 0.105241 0.25079733 0.10916563 0.8617266 -0.065710664 0.86919045 0.94122696 0.94081223 -0.00733158 0.8610347 0.9085858 0.91190827 -0.18044826 0.016204804 0.65497255 0.78375065 0.80013514 0.124620736 0.02518753 0.0563363 0.35582277 0.55313987 0.5125288 0.6847209 0.25671145 0.24053687 0.04761755 -0.15155509 0.07752186 0.2573956 0.37642953 0.3527385 0.27017915 0.36334693 0.40353614 0.45193842 0.49435854 0.4689714 0.08103253 0.60366327 0.5802552 0.5343175 0.5817263 0.69751006 0.58817446 0.58938086 0.5659234 0.5081814 0.50280994 0.49328783 0.70033693 0.7073117 0.7138338 0.7151357 0.68658876 0.5218066 0.7019212 0.70307666 0.6910969 0.6899322 0.68551886 0.3198117 0.30330968 0.36572567 0.17907056 0.42339465 0.07122417 0.3792156 0.08174678 -0.14837472 -0.21165606 0.10454984 0.7885959 0.7906487 0.7956984 0.5689509 0.8212984 0.79001904 0.27632993 0.26461753 0.75642276 0.19370896 0.07158746 0.007765025 0.47525352 0.7036954 0.74234986 0.10856767 0.11329729 0.04961858 0.49766237 0.5552231 0.25445175 0.25887913 0.12470853 0.30466953 0.38677558 0.41162664 0.5240611 0.47460508 0.55355453 0.45637786 0.57834065 0.5509976 0.40654194 0.4694823 0.44581288 0.6242275 0.61434853 0.53871197 0.35076374 0.6856264 0.6753001 0.65492916 0.63086987 0.46065533 0.41470015 0.5298794 0.5338742 0.2558831 0.4375988 0.1309832 0.3998105 0.4049633 -0.016198443 0.08468849 0.09537168 0.5168746 0.57839257 0.39831078 0.15137413 0.6531948 0.692729 0.51045275 0.449008 0.3682021 0.27918515 0.2431475 0.7171538 0.73562473 0.5771738 0.47382462 0.34174234 -0.12211149 0.59907275 0.66901755 0.53819066 0.3269143 0.53031516 0.62591517 0.49001125 0.344047 0.15457366 0.27162144 0.31058276 0.41448367 0.11502749 0.04656834 0.47772688 0.19288024 0.08367001 0.48664033 0.24152979 0.38122097 0.4993946 0.42070532 0.5172094 0.43539146 0.48305184 0.39396518 0.22260319 0.60606074 0.552719 0.47668833 0.45863917 0.4388662 0.41770083 0.48897964 0.5261103 0.42105561 0.4928358 0.5437151 0.2979356 0.36577958 0.485413 0.12271237 0.43286648 -0.030114643 0.43866277 -0.07501919 -0.044743378 0.1856817 0.48848292 0.50534874 0.45502353 0.40549743 0.3399511 0.40367126 0.5001425 0.6444062 0.5631498 0.4655881 -0.09307866 0.6119209 0.64928174 0.5461001 0.63222295 0.581058 0.50617355 0.19689697 0.29253703 0.34494814 -0.019000797 0.08980383 0.4129396 0.266842 0.27369446 0.22689724 0.26149932 0.4173553 0.34602994 0.3065479 0.2871046 0.28659505 0.32319373 0.39637363 0.4595906 0.4470572 0.43062115 0.4593424 0.43928623 0.42131525 0.52726114 0.54942644 0.5760928 0.5730276 0.4651975 0.4878155 0.543201 0.48618013 0.33756572 0.4045122 0.4581736 0.4383349 0.42269498 0.40089834 0.43272582 0.42600232 0.39025062 0.036007423 0.24433511 0.61494124 0.5395977 0.45121878 0.2642441 0.36221868 0.29645783 0.6752622 0.39255995 0.66684496 0.6828083 0.31170636 0.20972034 0.63428855 0.63593054 0.2734277 0.60318303 0.5575534 0.2032992 0.080518045 0.110362574 0.23838314 0.2394169 -0.53934467 0.048397325 0.011674672 0.22506043 0.24385676 0.13195035 0.3106051 0.35057157 0.33041453 0.38701892 0.42583728 0.33391157 0.3908314 0.35605574 0.5319195 0.55183834 0.56605625 0.54801697 0.5211539 0.505504 0.46073866 0.4121317 0.45337385 0.44628647 0.34859478 0.4435033 0.04133801 0.19232956 0.36420918 0.38936538 0.34148267 0.29647136 0.13582651 0.0129807815 0.59248245 0.52569073 0.40358096 -0.22968926 0.14223023 0.63551223 0.63321495 0.63789177 0.23409677 0.62361413 0.6023083 0.21097338 0.56437755 0.13499634 0.3102612 0.05544445 -0.037011184 -0.038718823 -0.030195717 0.35189515 0.41759858 0.40771502 0.03349407 0.2913096 0.41326183 -0.35503638 -0.41030294 -0.27242833 0.051457167 -0.015299559 0.25001818 0.06731986 0.2150783 0.32888448 0.09738517 0.26473656 0.23106882 0.22047125 0.33360365 0.39765686 0.36597043 0.42048976 0.4350134 0.46918395 0.48334032 0.46098378 0.4982618 0.5572129 0.5630143 0.55526185 0.55607396 0.5395528 0.4704406 0.40326822 0.44572416 0.44376236 0.4402042 0.11272329 0.21293193 0.21387014 0.13237692 0.09030316 0.049800627 -0.26141238 -0.2270549 0.4772607 0.2679778 0.15496542 0.007515691 0.5849818 0.51823366 0.27871123 0.600566 0.59482616 0.25970924 0.6115665 0.5876168 0.21243599 0.23098545 0.52892566 0.31082922 0.11561768 -0.020485466 0.15586282 -0.02974458 0.3509485 -0.055255167 0.44421047 0.4146045 -0.07967145 0.24419138 0.43525875 0.44973323 -0.026186097 0.031410575 0.31275254 0.3866202 0.423176 0.18804875 0.17687431 0.05109495 0.17488706 0.1798317 0.22080055 0.105469346 0.17880099 0.21789649 0.107800946 0.3440743 0.3439659 0.44830114 0.45137456 0.40053248 0.4830529 0.48702377 0.4430635 0.3899277 0.57321715 0.4588938 0.49280834 0.44199586 0.46774405 0.36898702 0.36678374 0.06930117 0.20987171 0.10679592 0.111606166 0.026039965 -0.31918326 0.12185189 0.2656634 0.040350772 0.076038815 0.19815058 0.27474418 0.54888475 0.4840333 0.11670096 0.2739474 0.24746206 0.5567688 0.48759165 0.29116106 0.27407804 0.5682406 0.23624584 0.5307447 0.09090045 0.17160729 0.017305834 0.16271704 0.26085135 0.3103503 0.3992171 0.41940385 -0.13543509 0.43585765 0.44394404 0.3747968 0.41101277 0.04656166 -0.16636339 0.09700841 0.09722744 0.2455404 0.35005128 0.07937494 0.17440039 0.08916755 0.26654437 0.21367353 0.20657973 0.31370443 0.17002104 0.16918649 0.2644953 0.13147295 0.32707626 0.3057811 0.23485254 0.37096143 0.4305479 0.44672504 0.39713776 0.36374107 0.302386 0.40242445 0.41429523 0.36326435 0.46652216 0.24469216 0.1860069 0.25447053 0.33018145 0.1541764 0.2976863 0.07299866 0.06588966 0.011647329 0.12209718 0.047681965 -0.26560998 0.26413953 0.24506994 0.044355832 0.057744253 0.24591091 0.21779752 0.15046364 0.22328459 0.4839225 0.23328437 0.144461 -0.07117389 0.035722855 0.018546006 0.1524882 0.24099885 0.25563225 -0.08455214 -0.18390378 0.384343 0.38178802 -0.26125923 -0.034691572 0.21365032 0.35515293 0.43036482 0.35791582 -0.04768531 0.13993666 0.42238837 0.35443038 0.1848957 0.06338658 0.42819822 0.37469688 0.124126926 0.41995066 0.3832941 0.11950231 0.3581538 0.23625973 0.28795356 0.3239051 0.30359173 0.28783682 0.3381492 0.36906743 0.35608798 0.3335243 0.8423386 0.7915422 0.8281485 0.8494562 0.7588415 0.82210684 0.31143332 0.3252232 0.2936938 0.17169009 0.25837582 0.35353187 0.3567062 0.33864552 0.19793043 0.18614154 -0.28448123 0.29224446 0.26861185 0.03645334 0.05524823 0.03202683 -0.029386794 0.04605764 0.23675373 0.21104679 0.17439705 0.11787297 0.20578265 0.18868135 0.16505912 0.45560125 0.25728732 0.272395 0.33833593 0.24822631 0.30120575 -0.00062114 0.32253367 -0.099847585 -0.13739593 -0.074675806 0.41269246 0.56349385 -0.2867483 0.60027754 0.6382711 0.6456768 0.6317656 0.6522088 0.571813 0.6404562 0.6450648 0.41467565 -0.09028654 0.021488793 0.24644059 0.44978693 0.079271235 0.146054 0.24800354 0.30662417 0.45720488 0.18740946 0.20475356 0.31086743 0.45293814 0.41529825 0.09369338 0.058636136 0.40913624 0.1500248 0.40603608 0.38839424 0.28571588 0.30306137 0.2221336 0.24767062 0.28245983 0.31983775 0.33399606 0.3273359 0.78673196 0.86495876 0.8862497 0.702016 0.7657834 0.8555702 0.87681127 0.8654208 0.6749797 0.7257613 0.85601705 0.8349813 0.60756934 0.6921597 0.7969599 0.80201244 0.574696 0.6371815 0.69957054 0.7101486 0.7465852 0.5325419 0.5240126 0.6370353 0.2786969 0.29739028 0.34668368 0.32199726 0.21873449 0.12931812 0.23583695 0.37004986 0.18770072 0.34457815 0.27839053 0.26290876 -0.036422517 0.026354805 0.23243225 0.1790888 0.27034533 0.17386223 0.06108061 0.16045085 0.15127285 0.40091774 0.3268742 0.25903904 0.45740283 0.38543844 0.44898373 0.4530238 0.3705731 0.36369053 0.34911022 0.40090674 0.13738388 -0.25101808 0.29536504 0.31924453 -0.39348656 -0.3071317 -0.1626598 0.6086759 -0.2892115 0.6511743 0.6547427 -0.26674947 0.65753317 0.65947187 0.079071686 0.4179551 0.6276805 0.65114087 0.3805046 0.25520006 0.32582572 0.61450374 0.39657325 0.39067596 -0.057443865 0.34268415 0.31939042 0.41638684 0.4523185 0.005928759 0.10256308 0.28099775 0.3597829 0.446276 0.4564857 -0.16869947 0.12318342 0.19069332 0.26759598 0.31163865 0.47582108 0.03957799 0.24070731 0.30557787 0.26982072 0.48648718 0.47872853 0.17130816 0.37641028 0.37719747 0.47768718 0.44311523 0.3766008 0.26984745 0.31455916 0.30680522 0.31059378 0.32455575 0.35723972 0.32905537 0.3182593 0.7800017 0.8722983 0.8786646 0.85617083 0.675292 0.74700415 0.85445774 0.55580723 0.6280343 0.82144296 0.52322567 0.58585596 0.7786803 0.46222067 0.51065874 0.5091147 0.49648875 0.5421533 0.36735964 0.30807695 0.34624875 0.2871668 0.18219833 0.11016145 0.055512987 0.20664284 0.24977815 -0.03846933 0.16367963 0.31006658 0.08754714 0.17205933 0.32160667 0.2586767 0.02447477 0.21027085 0.16694504 0.29520884 0.1558849 -0.04571485 0.15078902 0.12797926 0.41857332 0.36140683 0.15009871 0.23813981 0.30951983 0.46400854 0.45764792 0.38036418 0.42317054 0.4313227 0.44506186 0.35047084 0.40569812 0.09310445 0.27879646 0.22027707 -0.31166688 0.18050742 0.5534998 0.6409074 0.004583068 0.6580416 0.65466654 0.65008926 0.6540184 0.3197329 0.2959944 0.47488764 0.56973475 0.5890622 0.3530959 0.34562582 0.41053677 0.21948662 0.3039972 0.3254653 0.43589407 0.45786282 0.25969246 0.17899776 0.5072669 0.5058469 0.13379234 0.40996715 0.37647223 0.5091626 0.4824133 0.4215498 0.27047122 0.2591122 0.40099594 0.46008238 0.48222512 0.4361802 0.44467425 0.41587922 0.43103373 0.41087377 0.33580482 0.69273853 0.74315673 0.83507204 0.8242299 0.81300473 0.6177876 0.7845286 0.50011516 0.70225596 0.43910715 0.4643533 0.68603885 0.4170104 0.56977504 0.36591572 0.44401452 0.31232676 -0.047283053 -0.02822043 -0.017471991 0.15801841 0.028101452 0.16354927 0.14225356 -0.13503742 0.058999784 -0.0394313 0.10768576 0.14834076 0.13721433 0.10165787 0.23288557 0.12320209 -0.08212284 0.1094918 0.10975411 0.13046162 0.381771 0.29764915 0.20991209 0.34009838 0.44106856 0.41951072 0.45866346 0.40023765 0.34968328 0.5268929 0.58134234 0.49888843 0.17374146 0.3637822 0.020661434 0.14722846 0.1767596 0.37294614 -0.095285885 0.57601476 0.1646152 0.095211625 0.6176512 0.60085714 0.16105685 0.5931194 0.23139668 0.20537749 0.47147465 0.52971834 0.23447429 0.23210305 0.31307253 0.32155478 0.271939 0.27052915 0.32087854 0.3250357 0.36687046 0.3909834 0.2834409 0.3058063 0.4135024 0.43993348 0.2174303 0.49641314 0.5182657 0.27178866 0.34686494 0.22672996 0.51654446 0.5011104 0.46314293 0.28753516 0.12880644 0.31045678 0.408392 0.5035049 0.4516995 0.4371311 0.46214217 0.46702433 0.45050773 0.401819 0.4298441 0.4772379 0.51008403 0.6268616 0.6654921 0.72767305 0.6954943 0.57512665 0.5984776 0.6821395 0.68979275 0.5172933 0.62275124 0.40667963 0.4308933 0.5913756 0.37632275 0.5534487 0.33780962 0.3150609 0.21867502 0.016092286 0.099054694 -0.023670845 -0.05872001 0.07173946 0.09853371 -0.070246875 0.02205186 0.18330884 -0.28377485 -0.0062416494 0.070107594 0.16624066 -0.37415338 -0.025868759 0.03755191 0.09531632 0.11921447 0.13028991 0.30022132 0.4511962 0.32305813 0.20092621 0.5240721 0.59691596 0.64796335 0.24354863 0.23541577 0.61008507 0.18059136 0.1557312 0.44220108 0.16753523 0.120191276 0.038749017 -0.036003925 -0.049726978 0.260581 0.030498482 0.3881275 0.09604405 0.41078883 0.22884393 0.49338338 0.2523278 0.3531899 0.40260476 0.43237394 0.26237035 0.31758654 0.2583586 0.27157062 0.27512085 0.30884516 0.26449868 0.28482783 0.42182186 0.22574247 0.44561744 0.47290325 0.24403958 0.46148425 0.43173712 0.4026395 0.3831826 0.39671993 0.26508307 0.21515086 0.27244446 0.35425007 0.4406615 0.45236218 0.436701 0.3298127 0.38416845 0.4654565 0.50939983 0.6098766 0.622329 0.6382857 0.5750693 0.5923426 0.6063328 0.6186348 0.5802398 0.5905186 0.52595234 0.5293251 0.55792856 0.5227832 0.38552433 0.36899874 0.5132064 0.3697273 0.34258375 0.25998276 0.10683094 -0.108656034 0.3703956 -0.1389906 0.3482644 0.25352126 0.28811455 0.21499512 0.14756745 -0.22143419 0.11757955 0.20635858 0.09233995 -0.22984636 0.1624449 0.17525 -0.018722981 0.12691495 0.28708774 0.41287363 0.036798343 0.46955085 0.59078085 0.14173248 0.6112511 0.26525265 0.57145387 0.60991037 0.25808322 0.5061763 0.21254554 0.13513932 0.34870484 0.11283086 0.2546951 0.064893946 0.21909721 0.21247587 0.25153232 0.36417228 0.2502733 0.35442418 0.38119388 0.23370649 0.081613064 0.25258747 0.24358726 0.2020072 0.23212367 0.1465288 0.2829789 0.38047847 0.31915426 0.25189143 0.24492757 0.115107864 0.25495774 0.1652428 0.34857273 0.35032344 0.38036937 0.30464038 0.30173102 0.44367033 0.43919286 0.4723307 0.3159166 0.31742275 0.32021424 0.33133325 0.37111783 0.39802182 0.45830768 0.4929754 0.5265717 0.65769637 0.6757641 0.5404653 0.60403234 0.68474007 0.7381623 0.73720837 0.5862721 0.73610026 0.76680875 0.7712241 0.58423465 0.5968293 0.5774252 0.54251724 0.5372033 0.5196847 0.5645753 0.51682365 0.4978805 0.47038755 0.37920952 0.44451344 0.4484378 0.43201905 0.36644936 0.3482502 0.4625603 0.4654045 0.2601987 0.18987466 0.43973833 0.45970246 -0.13193262 0.42381608 0.30663326 0.22746426 -0.3648722 0.33653197 0.3171275 0.19055763 0.10180162 -0.31314293 0.15006326 0.10141569 0.16830297 0.23511542 0.23592933 0.253699 0.20422202 0.16452333 0.06970231 0.04749489 0.14658713 0.36620787 0.42848548 0.5152046 0.22550705 0.1019766 0.52930045 0.23779869 0.5039221 0.2637164 0.42955485 0.30157384 0.010805257 0.49212328 0.44340253 0.06288226 0.5095018 0.4759295 0.09437341 0.046233714 0.4414966 0.3154215 0.34505942 0.265971 0.07136146 0.20682569 0.17341419 0.1903947 0.1788257 -0.21959117 -0.11494567 0.15072498 0.1458015 -0.4788649 0.17775899 0.14398171 0.07670967 0.050227802 0.029740214 0.11481832 0.1582241 0.14311612 0.2799248 0.18060288 0.15370624 0.18981284 0.024668112 0.27902314 0.32444525 0.35515383 0.363387 0.38446236 0.3032143 0.3163519 0.3188959 0.0673618 0.25623468 0.35979575 0.44525462 0.47567835 0.5022853 0.3064778 0.29930452 0.28248474 0.23642786 0.14871807 0.3501908 0.42301157 0.4514835 0.61336666 0.6136043 0.43686938 0.49902546 0.5346135 0.72183895 0.69908977 0.5256634 0.6142816 0.72206366 0.7874754 0.77819335 0.6295079 0.75121814 0.7964009 0.80464554 0.44024837 0.41160005 0.22475508 0.32516623 0.31631953 0.49396697 0.48433948 0.0937939 0.4656686 0.28798866 0.38500282 0.44732684 0.4317098 0.45348486 0.46497202 0.48631167 0.32417423 0.08309876 0.4597038 0.5817368 0.51897293 0.41337523 0.30536017 0.1860174 0.03023208 -0.14509997 0.55751514 0.48140717 -0.22282958 0.5213358 0.46313167 0.21797776 0.23176727 0.23100655 0.3084163 0.17628652 0.04056833 -0.018390521 -0.017804459 -0.12311059 0.08907861 0.11133953 0.028329462 0.45101896 0.17817098 0.25563654 0.43510106 0.21993734 0.077594966 0.28287253 0.31197277 0.46785277 0.15302867 0.18878753 0.55918944 0.12665911 0.5697245 0.047721572 0.5523292 0.48683524 -0.6886403 -0.