# vtk DataFile Version 2.0
Really cool data
ASCII
DATASET POLYDATA
POINTS 5091 float
-41.672874 33.36907 56.88806
-41.83466 33.94536 55.918697
-41.895157 33.67351 56.432938
-41.79774 33.59545 57.280247
-41.692955 33.765106 57.956905
-41.896667 34.393326 55.844826
-42.153427 34.42184 56.525455
-42.119553 34.692657 57.396847
-41.848442 34.711784 58.27948
-41.62219 34.99766 58.93191
-41.8922 35.124912 56.063644
-42.060936 35.218483 56.55311
-42.103687 35.540718 57.445526
-41.98269 35.593155 58.4297
-41.659534 35.667942 58.941936
-41.755863 36.48688 57.099525
-41.94394 36.201637 57.663586
-41.903942 36.293465 58.37637
-41.72541 36.30009 58.83302
-41.69031 36.860153 57.588673
-41.63651 36.958946 58.35307
-41.210464 33.303585 56.0346
-41.388695 33.20736 56.71487
-41.276596 33.115417 57.570133
-41.03537 33.1092 58.1504
-41.37868 33.672977 55.788513
-41.56656 33.374886 57.506706
-41.30968 33.606644 58.38666
-40.979378 33.62737 58.7976
-41.505272 34.25965 55.420227
-41.6784 34.287773 55.513165
-41.23454 34.620655 59.068306
-40.759995 34.992176 59.659657
-40.881023 35.444317 55.163094
-41.45658 35.11977 55.544952
-41.444256 35.486427 59.20059
-40.84322 35.8484 59.8259
-40.681576 36.252903 55.5352
-41.507683 36.42334 56.76596
-41.57895 36.710403 58.763744
-41.305305 36.44892 59.290684
-40.816998 36.182453 59.697517
-41.437836 37.11128 57.664577
-41.451916 36.99665 58.557224
-41.336227 36.887505 59.040257
-40.818718 37.634365 57.716656
-40.67903 33.19593 56.072456
-40.688286 33.108303 56.334816
-40.47509 32.680805 57.55026
-40.504066 32.87974 58.367878
-40.286858 33.052563 58.778378
-40.786335 34.157516 55.233723
-40.42464 33.569187 59.14045
-39.938774 33.94913 59.645546
-40.58996 34.46318 59.599854
-40.022102 34.867523 60.149834
-40.00807 35.56032 60.309372
-40.239216 36.655174 53.293774
-40.04566 36.483456 60.261963
-40.00201 37.29554 52.83187
-40.228676 37.20259 53.589718
-40.598194 37.24433 59.19097
-39.97693 37.24281 59.9066
-39.81834 38.006924 53.581123
-39.972794 37.845146 56.542572
-40.53683 37.768448 58.188328
-39.749863 32.740902 56.929455
-39.70616 32.608913 57.537395
-39.52253 32.754112 58.30906
-39.319977 33.176147 58.981377
-39.029285 33.9295 54.477566
-39.7146 33.406925 59.287094
-39.682163 34.167847 59.89069
-39.37109 34.84886 60.308914
-38.78338 35.52305 51.892475
-39.46825 35.450005 60.44283
-39.30571 35.57556 60.585815
-39.00912 36.686237 51.24401
-39.18874 36.421337 51.467937
-39.47369 36.44741 60.44225
-39.286034 36.114742 60.619743
-38.89009 37.35535 51.159153
-39.176453 37.447536 51.51428
-39.578083 37.738117 52.298145
-39.343937 37.006435 60.301174
-39.186813 37.82346 51.87273
-39.23536 38.0794 52.493828
-39.346104 38.293972 53.521206
-39.61207 37.98317 57.543423
-39.429417 37.751816 59.816414
-38.668674 39.25701 55.948162
-37.51536 31.487032 49.507885
-38.431973 33.375492 55.870182
-38.349148 33.067684 56.631634
-38.840668 32.871765 57.45626
-38.779736 32.973522 58.180294
-38.959717 33.19586 58.854836
-38.385803 33.926064 59.37256
-38.364735 34.186092 59.733143
-38.268543 35.291744 51.728233
-38.431713 34.49255 52.63054
-38.5777 34.697903 60.237247
-38.938866 35.13058 60.558376
-38.620842 35.294003 60.482834
-38.889297 35.765064 60.612812
-38.406826 36.81515 50.921227
-38.542355 36.22829 60.579903
-38.46426 37.49435 51.03789
-38.11393 36.960136 60.39137
-38.319496 37.820286 51.21032
-38.440155 38.094406 51.603107
-38.61863 38.313435 59.276405
-38.59677 39.449154 55.233234
-38.287853 39.46516 56.420975
-38.493435 38.81942 58.638073
-38.11473 38.966587 58.826054
-38.10698 40.11382 55.69627
-38.168304 40.002033 56.757046
-36.77296 30.223513 48.724
-36.64881 29.634521 49.751534
-36.89486 30.132877 50.52853
-36.61927 29.801859 51.125633
-36.82276 30.769981 48.07182
-37.081993 30.640182 48.713215
-37.156975 30.505835 49.40956
-37.281155 30.82929 50.218918
-37.001163 30.349976 50.968933
-36.7376 30.239326 52.109108
-36.934498 31.481298 48.00837
-37.313194 31.483492 48.613327
-37.016514 31.289104 51.647217
-36.743263 32.203243 48.081642
-37.1495 32.24947 48.638855
-37.48729 32.169544 49.480747
-37.354843 32.44616 50.00405
-36.678173 32.42746 51.242615
-37.16932 33.06836 53.56759
-37.58766 32.925835 56.595295
-36.902073 32.673275 48.530933
-37.515907 33.58914 58.459133
-37.666893 34.793633 51.902622
-37.22647 35.783154 51.44036
-37.72179 35.670166 60.31186
-38.02192 36.547703 50.99157
-37.47101 36.64667 60.24067
-37.820553 37.192734 50.9808
-37.485535 37.20385 60.072998
-37.9655 37.84023 51.247128
-37.707233 37.984203 51.469494
-36.93996 40.516865 54.282757
-37.605877 40.390568 54.91484
-36.904663 41.199722 55.024956
-37.076637 41.244602 56.04226
-37.255856 41.159653 56.36478
-35.83539 28.835155 48.920135
-36.13117 29.059227 49.458435
-36.289066 29.138144 50.113693
-36.017155 28.908583 51.762074
-35.87729 28.764986 52.323135
-35.739227 28.823622 53.024994
-35.890503 29.525154 48.134502
-36.339985 29.763155 48.49395
-36.508556 29.430275 49.2993
-36.417305 29.318174 51.39357
-36.317684 29.645456 52.63595
-36.04994 29.397934 53.20507
-35.84641 29.618574 53.90499
-36.263138 30.878424 47.749695
-36.50812 30.554228 52.90749
-36.12173 31.43052 47.449257
-36.408535 31.470484 47.613037
-36.314457 32.2226 47.904335
-36.60282 33.164803 55.29883
-36.428474 32.78758 48.543297
-37.07009 34.232735 59.10998
-36.685066 34.769028 51.82043
-36.76836 34.609356 59.366158
-37.00846 34.865498 59.718002
-36.717606 35.538235 59.937214
-36.025894 38.679893 59.661766
-36.17747 39.12147 53.501743
-35.67856 40.311714 59.56486
-35.68145 40.840977 61.96149
-36.056007 41.09406 54.015167
-36.168903 41.500175 54.586666
-36.703552 41.430706 56.702896
-36.067577 40.815937 58.34109
-35.736168 41.54185 61.666725
-35.73407 41.139614 61.89041
-36.02089 41.776314 55.523514
-35.730644 41.82322 60.84507
-35.64942 41.934937 61.474415
-35.08214 28.407705 48.773643
-35.058796 28.301508 49.540718
-34.915844 28.24698 51.191673
-35.151997 28.333906 52.418575
-35.188034 28.97189 48.069374
-35.137466 28.54373 48.61124
-35.589394 28.517687 49.555286
-35.701958 28.602589 50.332783
-35.71276 28.535416 51.548603
-35.506634 28.485731 52.490665
-35.330917 28.93393 53.654568
-35.268288 29.247149 54.210842
-35.64284 29.574902 54.261044
-35.09566 29.933367 55.099564
-35.78354 30.985395 47.57121
-35.59338 30.860806 55.03123
-35.76515 31.400908 47.485428
-35.628365 31.522549 47.572998
-35.649506 32.27944 47.97739
-35.711964 32.756504 48.607887
-35.822964 33.059147 50.041668
-35.271973 33.36649 56.971878
-35.301258 35.608463 51.79941
-35.7254 36.496975 59.71681
-35.17197 38.029385 52.377888
-35.053257 38.93628 60.23076
-35.47343 39.940395 61.381634
-35.29526 40.1268 62.063046
-35.450108 40.767002 53.55352
-35.232353 40.442574 62.284866
-35.287914 41.32846 53.953396
-35.326645 41.542187 62.33467
-34.99551 41.24249 62.646114
-35.157684 41.608482 54.182823
-35.377125 41.63112 54.320545
-35.11687 41.964928 55.23184
-35.838703 41.738144 56.398296
-35.24518 42.187897 60.35514
-35.3535 42.295883 61.47227
-35.138428 42.148094 62.293667
-34.80229 41.95594 62.743958
-34.98952 42.720337 61.659267
-34.78891 42.71066 62.05543
-34.7323 28.305485 48.984356
-34.34664 28.186182 49.276283
-34.48255 28.14008 50.368988
-34.71534 28.240068 51.578552
-34.484104 28.434906 53.15617
-34.671787 28.956125 48.039963
-34.60078 28.538357 48.52708
-34.23646 28.543442 53.309406
-34.511738 28.989082 54.129406
-34.29457 29.783413 47.75169
-34.29768 29.808441 55.34193
-34.123375 30.905903 55.751095
-34.946205 31.504976 47.925
-34.549507 31.904043 55.835983
-34.653103 32.67682 50.995808
-34.2104 33.582855 57.41261
-34.5061 34.02386 51.606724
-34.38036 35.26822 51.606678
-34.81081 37.726837 52.14065
-33.931423 37.25077 60.50291
-34.19258 37.584335 60.565838
-34.354748 38.295334 52.10454
-34.24127 38.22744 60.540596
-34.610027 39.712685 62.101315
-34.792934 40.31725 53.31428
-34.24176 40.61991 53.39159
-34.639297 40.42261 62.605392
-34.819004 41.20233 53.82824
-34.40015 41.503754 57.260136
-34.485588 41.48461 62.812252
-34.681763 41.732494 54.761272
-34.701065 41.9612 55.416298
-34.23419 41.754993 56.287193
-34.365517 42.47895 59.86137
-34.55538 42.563225 62.46128
-34.131733 42.447315 62.63783
-34.50917 42.857597 60.781887
-34.387096 42.980545 61.582268
-34.379223 42.796566 62.197464
-33.761612 28.360453 50.06755
-33.954044 28.300905 51.73596
-33.97214 28.786774 48.449165
-33.75059 28.56859 51.187912
-33.316174 28.612774 52.658455
-33.334732 28.755068 53.628475
-33.44491 29.174261 55.017868
-33.889336 29.282768 48.053085
-33.478725 29.858864 48.658474
-33.13404 29.421963 55.331406
-32.979362 30.901993 56.12146
-34.32161 31.284708 48.406853
-33.984978 31.45272 49.31051
-32.977528 31.321554 56.311356
-34.12583 31.966394 49.443417
-33.838448 31.703041 50.403244
-33.709995 32.78646 56.918724
-33.125626 33.158524 58.490395
-33.13584 33.413044 51.824696
-32.98993 33.761646 59.487125
-32.865097 34.040745 59.739124
-33.45102 34.217773 59.370865
-33.02721 34.497353 59.85602
-33.50756 35.50246 51.770145
-32.998104 35.419075 60.22416
-33.531113 36.803 60.445038
-33.532646 37.772762 51.909294
-33.480648 38.459717 51.935406
-33.07151 38.9922 51.840813
-33.124416 39.884888 52.187218
-33.275 40.093895 52.508446
-33.043774 40.517155 62.619053
-33.20489 40.658592 53.88818
-33.39229 40.99142 54.29913
-33.787117 41.555748 55.639366
-33.372906 41.276283 56.44171
-33.62649 41.176952 57.153225
-33.951717 41.731377 62.862576
-33.941593 41.680172 55.402424
-33.909573 41.61812 56.58578
-33.74004 42.62722 62.50839
-33.877888 42.285862 62.666218
-33.458035 43.026695 60.870506
-33.531902 43.12523 61.39769
-33.56509 42.917786 62.096226
-32.9407 28.977448 50.993744
-32.53751 29.060644 53.11348
-32.707485 28.888699 54.586292
-32.897385 29.091465 54.908733
-32.93968 29.574844 55.50545
-32.367516 32.957226 59.20846
-32.77412 33.4145 51.885704
-32.640705 33.530365 59.61135
-32.359005 33.677696 59.881424
-32.175117 35.327724 60.458252
-32.34773 35.949738 60.630375
-32.457428 37.325943 52.1522
-32.422745 37.26283 60.691544
[...]
POINT_DATA 5091
SCALARS features_00 float 1
LOOKUP_TABLE default
0.7478851 0.72415686 0.74512863 0.74466085 0.7016156 0.7026348 0.75076556 0.7574941 0.66877365 0.6184989 0.6641575 0.70092154 0.6660361 0.625589 0.610962 0.582244 0.608451 0.6026803 0.60318446 0.5685338 0.5826405 0.71432227 0.7388433 0.71947706 0.68889266 0.71216273 0.73056126 0.6672435 0.63476956 0.68241394 0.69374394 0.6060556 0.5748191 0.5237884 0.61751723 0.60280323 0.5845403 0.4205041 0.5635358 0.594537 0.5965208 0.5903527 0.55045444 0.58232945 0.59049624 0.5045175 0.66317695 0.6841698 0.71089673 0.6747863 0.64221823 0.6061841 0.6063666 0.5577533 0.5713475 0.53952855 0.53241855 0.3596292 0.54640305 0.48452377 0.36586604 0.58621985 0.56713194 0.4076184 0.25721973 0.5079627 0.599012 0.6362115 0.6311035 0.57087874 0.2684115 0.5755813 0.538302 0.5114722 0.51762414 0.510852 0.50207955 0.6450863 0.6476718 0.5119241 0.49792325 0.6342341 0.6320119 0.5620845 0.5224715 0.6149822 0.5366145 0.40897855 0.31078196 0.5436055 0.14417993 0.6871903 0.2415049 0.34833097 0.5027402 0.53977376 0.5410663 0.46038306 0.46387428 0.4894424 0.3377571 0.47518015 0.48597723 0.47257215 0.48415583 0.6255462 0.47248322 0.6346404 0.46988463 0.6328336 0.6041664 0.4512116 0.21114816 0.20520568 0.28323352 0.24726117 0.33024266 0.26028827 0.6444343 0.47658628 0.41724527 0.3906567 0.7923596 0.70539176 0.56679666 0.48976463 0.3920176 0.3727187 0.8028206 0.7989441 0.39914235 0.79974514 0.8234794 0.7593701 0.690297 0.54531777 0.033955455 0.18628837 0.81868374 0.38307536 0.39928326 0.4454241 0.45000046 0.61082995 0.42214197 0.5968171 0.408304 0.608863 0.561847 0.48111314 0.41597125 0.49372405 0.46003544 0.42668045 0.5608409 0.51509726 0.4525421 0.43790668 0.4543602 0.4622557 0.64116216 0.61780035 0.51784897 0.40388376 0.41052654 0.43781853 0.43500024 0.8022229 0.3615224 0.79079497 0.793888 0.77488077 0.007931281 0.7858975 0.38819975 0.26296502 0.38922566 0.42053187 0.39032197 0.061855994 0.2829274 0.32209474 0.67982936 0.46510106 0.51073086 0.45700866 0.26631084 0.7063091 0.69849855 0.5448203 0.65860677 0.70626146 0.59170777 0.54604614 0.48987207 0.48079628 0.62806314 0.59836257 0.5298842 0.47920758 0.4652416 0.47421074 0.4658338 0.45310017 0.44061014 0.41090113 0.781728 0.3633489 0.77423775 0.75848913 0.72534275 0.7366996 0.81274533 -0.15439305 0.09324613 0.16170058 0.23859218 0.041478492 0.47741994 0.5827173 0.39503825 0.64452386 0.4470184 0.71168756 0.699088 0.46298623 0.48144138 0.5283109 0.53850925 0.639799 0.70179385 0.7017051 0.6930601 0.6822188 0.67913324 0.58423173 0.55222607 0.50592744 0.481313 0.4656387 0.64943445 0.61985874 0.45419192 0.44554034 0.7428575 0.38794625 0.2686512 0.73376805 0.09653741 0.096738264 -0.06158933 -0.17688562 -0.0045181215 0.25332668 0.03163045 0.010791922 0.36378467 0.05333783 0.43608475 0.36345255 0.40329933 0.62886447 0.42215908 0.38767022 0.6847621 0.47465196 0.50066674 0.41953683 0.5859922 0.68264484 0.6721259 0.6318512 0.6347787 0.66458106 0.48290047 0.44067314 0.63311356 0.43852425 0.39255813 0.41325426 0.36832047 0.66812146 0.71242046 0.32366678 0.22347116 0.7438865 0.4903618 0.14913365 0.4269002 0.26446325 -0.07489502 0.28651223 -0.21285857 0.37340096 0.38110125 0.32196847 0.35783994 0.018601429 0.2570685 0.086019486 0.38733375 0.47760925 0.5470372 0.56362545 0.5301655 0.44693276 0.4253739 0.39817858 0.4054541 0.319534 0.28188103 0.66050506 0.42824143 0.38430232 0.6371735 0.65407926 0.49223304 0.5254744 0.5933543 0.37325203 0.31438628 0.30831158 0.32269907 0.2965641 0.4025253 -0.16827357 0.38986984 0.3880687 0.2816149 0.1988559 0.41718927 0.0825916 0.567668 0.17029656 0.5902991 0.2732117 0.60409766 0.586199 0.5433661 0.34931526 0.42301098 0.397144 0.67890215 0.18898949 0.16553506 0.6949425 0.4660236 0.35248375 0.15172581 0.4119684 0.09704388 -0.060011353 0.3736184 0.45200682 -0.07326949 0.4033944 0.3463522 0.27562228 0.21937758 0.08988827 0.52312225 0.5913873 0.5942142 0.61016977 0.6056038 0.20742877 0.61227155 0.587833 0.5253453 0.34274352 0.058148045 -0.021885613 0.41194046 0.32603607 0.38444296 0.42000112 0.44238192 0.43631727 0.41313446 0.44689256 0.4387709 0.44671544 0.5679305 0.47478205 0.35187134 0.31572232 0.677071 0.11772628 0.10183771 0.12250401 0.6859288 0.119803466 0.66947883 0.07654549 0.6284788 0.57369024 0.34714043 -0.0782807 -0.11456734 0.2700949 0.13685063 0.036830354 -0.016289463 0.5925193 0.5889673 0.5533943 0.4359259 0.19629325 0.0015053339 0.34059516 0.14826904 0.47162443 0.24086672 0.50922775 0.3653682 0.3901322 0.47280228 0.49685508 0.56131554 0.44774067 0.39822817 0.35105616 0.3257527 0.23388624 0.6311901 0.5501459 0.16765496 0.17623475 0.14561822 0.6557177 0.65407234 0.6510966 0.6481205 0.23289606 0.608938 0.53733915 0.431037 0.34744084 0.032849528 0.2564846 0.010594916 0.082808584 0.045532398 0.11253447 -0.10184 -0.12307351 -0.054821763 -0.052706838 0.10513678 0.06783029 0.091998585 0.37900367 0.1215661 0.1648376 0.42879134 0.24821272 0.48969027 0.43673036 0.48632705 0.50439066 0.5398356 0.40198588 0.39540398 0.2566516 0.21413988 0.19196329 0.18050882 0.2086679 0.6327637 0.5742678 0.16707802 0.15664138 0.62879246 0.60074556 0.597804 0.29320252 0.36864832 0.56836855 0.5158127 0.38502038 0.25351351 0.35519052 0.16708954 -0.055433735 -0.009836005 0.090489164 0.39655662 0.42259437 0.41619486 -0.050678074 0.16747308 0.25596523 0.18340033 0.28233945 0.3500988 0.44093263 0.47159946 0.40492827 0.44849896 0.47367248 0.4923628 0.30340338 0.2761143 0.30372012 0.20091665 0.19219571 0.20560834 0.36750248 0.22352411 0.54451865 0.17207074 0.18813951 0.55352825 0.21690202 0.27776742 0.5710093 0.502562 0.4040534 0.28879365 0.16841821 0.34372732 0.33394122 0.22273569 -0.039568465 -0.013512239 -0.21468304 -0.19097929 0.1971708 0.3493956 0.38095695 0.37842035 0.100874305 0.121529266 0.41275597 0.41132545 0.39047897 0.19621505 0.120061785 0.4147205 0.36890155 0.31805485 0.35696363 0.34871635 0.26471907 0.113788776 0.2754075 0.16208474 0.19880058 0.007935703 -0.021773368 0.3075027 0.28651404 0.24771854 0.2440778 0.33653235 0.39884302 0.2804549 0.29282725 0.294227 0.27737236 0.2790018 0.2817533 0.21411547 0.1626457 0.18221128 0.45821697 0.46094444 0.33252195 0.44973427 0.4235007 0.30338192 -0.08638787 -0.05393595 -0.047182113 -0.026991382 -0.21084043 0.14875558 0.2904724 0.31145227 0.3201299 0.41817573 0.46222603 -0.19550169 0.3432067 0.35486442 0.3570877 0.47663468 0.5415474 0.20768188 0.38558823 0.44655308 0.5567089 0.348346 0.43985608 0.54276747 0.259288 0.28945172 0.2767865 0.1612548 0.17734462 0.221923 0.15830071 0.1863316 0.32458475 0.27735308 0.25729436 0.2871784 0.37294117 0.46890643 0.40344232 0.4116875 0.39550683 0.6250738 0.6075218 0.5569339 0.5115364 0.64035803 0.6378069 0.6306147 0.2938222 0.2917818 0.28202206 0.10814538 0.41889927 0.07949216 0.73000175 0.66832983 0.6089938 0.5677393 0.41863358 0.3970741 0.32515773 0.6317619 0.5608488 0.54174167 -0.035041768 0.293993 0.1259249 0.57026565 0.48855525 -0.08490137 0.064622864 -0.1570969 0.45315745 0.12047015 0.26449096 0.35952082 0.46989042 0.55333406 0.57558185 0.5911411 0.33060375 0.59551483 0.6087351 0.2923822 0.5539368 0.60344386 0.31260654 0.2737917 0.4997263 0.5674946 0.2422521 0.19992863 0.17280331 0.28684777 0.50128967 0.41243115 0.5077865 0.6087665 0.54822856 0.4878752 0.6251877 0.6669867 0.6465607 0.60810304 0.57571065 0.16874349 0.26218143 0.1637647 0.10479485 0.086066924 0.24369702 0.69639575 0.66404086 0.5256015 0.6895715 0.6155126 0.51692575 0.55015314 0.47583067 0.42989528 0.08333993 0.34381604 0.3603102 0.02541836 0.3286321 0.23881201 -0.18734445 0.43562806 0.20207687 0.21584013 0.14173485 0.29062414 0.4565819 0.50393224 0.48768288 0.5360598 0.5726859 0.56105906 0.42628908 0.57435215 0.56512374 0.39214498 0.3729757 0.4652121 0.5426514 0.29583454 0.21877268 0.15923409 0.19085625 0.08031253 0.02856882 0.25007737 0.50276184 0.5385734 0.49757016 0.5519902 0.6572845 0.6820023 0.6396811 0.70479393 0.47975034 0.44810253 0.2260281 0.43607992 0.4886806 0.08991938 0.0758934 0.32712793 0.13772663 0.237755 0.095362216 0.101486176 0.58999646 0.62147653 0.64214194 0.5930488 0.2422058 0.04387853 0.4387809 0.5182518 0.4842186 0.41909713 0.41032523 0.14756441 0.10932417 0.34332985 0.071442604 0.05322091 0.21726231 0.17603561 0.05185771 0.01927703 0.010308769 0.1201409 -0.25938058 -0.15978779 0.31370777 0.32805648 0.49984965 0.33155024 0.47375646 0.52098227 0.48906618 0.4821666 0.47156325 0.38661218 0.4719099 0.18434316 0.06506782 0.14073728 0.07131301 0.21111546 0.13538215 0.21814683 0.39667284 0.452022 0.41740435 0.4910292 0.6425718 0.5632603 0.7897056 0.740911 0.6544382 0.79191905 0.7608368 0.6274082 0.76234686 0.7826358 0.7161693 0.52652746 0.5077839 0.54568815 0.520502 0.48545805 0.4224189 0.5453363 0.1829698 0.076663785 0.085172325 0.44811738 0.14348769 0.12338108 0.48444894 0.5564252 0.5675963 0.53834 0.5131784 0.33065107 0.08499535 0.42493117 0.45021543 0.44139075 0.42064387 0.31304967 0.17238995 0.12734222 0.10114926 0.12815052 0.12333576 0.02713439 0.030275576 0.0880499 0.41848773 0.15122448 0.15579093 0.4969117 0.26907036 0.25223985 0.5325971 0.51708245 0.5045028 0.025093764 -0.027992472 0.34663135 0.47065288 0.4493143 0.41793326 0.15314515 0.04483603 -0.121637285 0.016927008 0.023638017 0.027690098 0.011411883 0.055717826 -0.020404816 0.103128724 0.42466706 0.5993744 0.7681308 0.52121997 0.40165555 0.38620335 0.70920384 0.77292264 0.5091797 0.34330508 0.37419698 0.67037076 0.70682967 0.66924864 0.34031904 0.61744773 0.6472817 0.43608242 0.46956807 0.5904311 0.5256058 0.60190874 0.5801076 0.50197816 0.5654054 0.15566804 0.08312832 0.47906 0.2482652 0.17746511 0.505399 0.4916482 0.49158996 0.45216614 0.3750831 0.4118387 0.3215819 0.18657267 0.06333596 0.3433606 0.34149957 0.27348438 0.16600199 0.14446457 0.11633812 0.23872575 0.16719255 0.20819646 0.060903095 0.02695513 0.17617828 0.1682452 0.06387887 0.0022934582 0.0314003 0.49883264 0.13018206 -0.008808926 -0.0050052255 0.45970494 0.0644971 -0.023854986 0.0020002872 0.14893106 0.4208422 -0.09733549 -0.19857521 -0.12769008 -0.24203822 -0.0122208595 0.100069955 0.3360245 -0.086183414 0.015435716 0.121355474 0.18278712 0.28250194 0.37571424 0.3891672 0.06834101 0.32924512 0.3773275 0.3871584 -0.18691358 0.14022946 0.25343552 -0.22268914 0.14305437 0.21756057 0.13905984 0.17665449 0.23292959 0.279229 0.3926096 0.68085665 0.19342025 0.393468 0.39967865 0.39805183 0.6566002 0.24073566 0.338314 0.36536247 0.34677422 0.5447551 0.4705309 0.16586986 0.3092662 0.5389701 0.5278442 0.4962897 0.28378248 0.20721555 0.4701044 0.45392007 0.3607852 0.410164 0.43057197 0.4078989 0.3538019 0.34668043 0.5044142 0.5228112 0.4479185 0.44590703 0.4383942 0.53662205 0.56481004 0.5415994 0.50470525 0.4886014 0.5805724 0.585394 0.5910238 0.6190305 0.57567644 0.6323411 0.63073397 0.5041118 0.5958081 0.6096777 0.3039813 0.5291412 0.0771302 0.27087873 0.3139141 0.3126796 0.42674172 0.2875258 0.40803397 0.3857088 0.36732846 0.33643582 0.25758475 0.36364597 0.2617364 0.28319088 0.23271267 0.25801897 0.2502083 0.026747249 0.2353453 0.12142504 0.5757383 0.48323882 -0.04252375 -0.08926567 0.62820256 0.08609301 0.32776344 0.36394954 0.42662323 0.6539358 0.6290724 0.13436195 0.18262555 0.26673144 0.33832362 0.43637353 0.41773325 0.09867966 0.15024625 0.27572805 -0.014852405 -0.28391108 -0.1271992 0.09425204 -0.058480732 -0.006794799 0.11539437 -0.15372506 0.16725565 0.2834529 0.3595072 -0.13429388 -0.20372823 0.3952089 0.39261454 0.4747513 0.3770613 0.1651514 0.026720911 -0.22365248 -0.07180291 0.31873867 0.35663515 0.3948351 0.39941567 0.44955045 0.39402038 0.223075 -0.20865878 -0.2524068 -0.07536583 0.27163965 0.32762665 0.38082445 0.39068693 0.33746567 0.2571743 0.18801323 -0.1494917 -0.0029481463 0.18400127 0.1287212 0.27594656 0.32138652 0.31300932 0.4705574 0.25496233 0.43775117 0.46302956 0.1347085 0.21426933 0.27038112 0.41950947 0.3550435 0.3864335 0.35905385 0.43994036 0.45181265 0.42952383 0.5071134 0.5605103 0.5558304 0.5290328 0.52418923 0.57620716 0.6071942 0.6079893 0.62015057 0.5967287 0.6342181 0.6448171 0.6231139 0.5930402 0.6414193 0.6313797 0.58592033 0.53991115 0.64524347 0.3304121 0.5507388 0.2987904 0.29740626 0.4703342 0.28219718 0.2563429 0.43038893 0.11960696 0.19370411 0.18962741 0.27984747 0.10095763 0.2599517 0.34788382 0.36563808 0.22800446 0.20927808 0.35572088 0.34579062 0.2917005 0.55844283 0.53658795 0.39287242 0.41927105 0.61995125 -0.09119611 0.20328437 0.46054155 0.476679 0.682601 0.46450114 0.49887878 0.69941545 0.69653976 0.19073334 0.44997853 0.49828953 0.68249226 0.631531 0.49405712 0.34501377 0.15751658 0.18373236 0.2684701 0.42207813 -0.048945185 0.06739722 0.27867892 0.17169787 0.10680359 0.36880407 0.5209253 0.45080572 0.38947773 0.37708643 0.58490914 0.5032014 0.37941822 0.37371877 0.57435113 0.5441295 0.36253 0.3473561 0.50537354 0.36635336 0.3280965 0.14342311 0.288584 0.26685208 0.22156128 0.18026072 0.25457746 0.23593874 0.27070647 0.24347936 0.29045108 0.3825037 0.34542906 0.32617706 0.40014145 0.37947044 0.24369553 0.48590726 0.47722918 0.34065837 0.54724586 0.503259 0.42715645 0.4879126 0.641853 0.6054339 0.5137607 0.5959052 0.6316632 0.6617459 0.6571649 0.6344424 0.6253902 0.5931955 0.6335486 0.4548467 0.57219017 0.265519 0.26039726 0.5081706 0.2636441 0.2052472 0.1557012 0.15683645 0.14476961 0.1449032 0.2896502 0.39219522 0.12589924 0.25698888 0.3199371 0.39320642 0.40968794 0.6099671 0.6203977 0.25051185 0.21701303 0.3838696 0.59247506 0.60879827 0.5992328 0.20352396 0.42041028 0.539146 0.56826943 0.57706845 0.562676 0.26899633 0.5138965 0.48085323 0.6877167 0.20770222 0.46602198 0.44593394 0.7122301 0.48491114 0.47078758 0.7131746 0.13615803 0.50169563 0.4707186 0.69133806 0.63553876 0.57561547 0.33531561 0.24450836 0.21450895 -0.038795285 0.5073356 -0.06954183 -0.08262172 0.2449946 0.15721045 0.38760123 0.43577772 0.38704348 0.54983634 0.5497172 0.35646468 0.55924743 0.55723375 0.32958215 0.47839287 0.4078563 0.28408164 0.30712324 0.36808527 0.06708145 0.054424174 -0.03400767 0.20163953 0.2582122 -0.072659336 0.24681656 0.31002015 0.3246854 0.13659093 0.35642996 0.4050241 0.15011692 0.4478861 0.53273714 0.5042492 0.30656815 0.40907145 0.5998359 0.57096756 0.4946568 0.6139618 0.626789 0.6254456 0.5892975 0.5778935 0.5563025 0.5402049 0.37701088 0.54346997 0.2754754 0.2563173 0.51500106 0.22977418 0.19677924 0.0014335215 0.10264577 0.20805928 0.23096257 0.20362109 0.43004143 -0.027902499 -0.005729422 0.14644347 0.23330218 0.33019575 0.37072664 0.41661888 0.524379 0.61629117 0.63009906 0.43143177 0.35121566 0.52439284 0.6183084 0.6064204 0.34549722 0.32280815 0.5470804 -0.15081525 -0.04723479 0.47761494 0.5023605 0.42288756 0.41916114 0.684448 0.59573686 0.43798986 0.6903886 0.6433925 0.603886 0.4548875 0.22654696 0.4794029 0.4528573 0.63454217 0.36933893 0.47941852 -0.07551123 0.32676825 -0.12102138 0.15598032 -0.032329507 0.33819762 0.37666917 0.4973163 0.35373956 0.43935212 0.27177954 0.41314405 0.41097254 0.31434047 0.30227333 0.2575592 0.08972168 0.27053392 0.30657414 0.35047466 0.34669068 -0.113995716 0.29986608 0.31500274 0.36392307 -0.11695534 0.28304902 0.32574013 -0.09823373 0.3263362 0.3640811 0.4413591 0.4913298 0.48525482 0.1508945 0.50018305 0.52034515 0.4815724 0.46891516 0.5971348 0.49191096 0.5026486 0.42685887 0.34301093 0.3106613 0.295839 0.2666493 0.51455176 0.51386917 0.30312803 0.2843764 0.2958665 0.5365801 0.54740155 0.2959746 0.24057099 0.24554579 0.22349581 0.60734063 0.21236113 0.2182533 0.20927176 0.11348532 0.17694673 0.2833618 0.33952677 0.38917053 0.4320454 0.58009744 0.61720705 0.59509516 0.58766466 0.31898978 0.35509413 0.31000492 0.56866467 0.5738001 0.51748323 0.4956296 0.3610376 0.35091934 0.46196866 0.2660637 0.35684085 0.3680085 0.56061757 0.31797278 0.36422414 -0.07207169 0.39898884 0.56480944 0.5337178 -0.07852961 0.41876727 -0.13559277 0.32123673 0.17705314 0.29304764 0.18832791 -0.08965567 0.42510438 0.3313561 0.2741886 0.33677572 0.36395127 0.3436945 0.22118069 0.31399864 0.2744003 0.2718659 0.26123327 -0.116595164 0.34881115 0.31573084 -0.1327368 0.38572666 0.38248992 -0.14698005 0.25801697 0.34867084 0.37828898 -0.123862766 0.11273384 -0.120831184 0.14608563 -0.09403501 0.24845988 0.3131546 0.35066015 0.061278 0.35172722 0.40263993 0.13431662 0.23918399 0.33759353 0.22244044 0.4846576 0.34791532 0.31630173 0.31701487 0.5284338 0.51599264 0.4466082 0.41653565 0.35733104 0.35102886 0.3315653 0.60748357 0.59011173 0.373393 0.31856474 0.24777061 0.24492162 0.36920598 0.38893396 0.65677893 0.24576952 0.24398226 0.2444895 0.11373564 0.034333788 0.07293403 0.3446016 0.36322057 0.41422072 0.51212215 0.49681485 0.51487076 0.649138 0.68479174 0.16790989 0.16758615 0.16633736 0.19049527 0.28122345 0.42525184 0.6625112 0.6559166 0.6149401 0.5220646 0.15076268 0.1452117 0.39944 0.032488994 0.102297865 0.13653222 0.109719515 0.27854788 0.051037423 0.28628433 0.3565905 0.03826292 0.46853495 0.15635058 0.4776051 0.15029712 0.056761578 0.18989472 0.29089886 0.27412447 0.16220748 0.22825927 0.2559046 0.20672414 0.26010194 0.08277159 0.23667549 -0.16323736 -0.3293771 -0.15463309 0.29764318 -0.17943247 0.38785762 0.37414968 -0.2218325 0.20114625 0.30396545 0.3314844 0.37505463 0.39091945 -0.1706065 -0.11145738 0.28500092 0.3346913 -0.0815444 -0.020920713 -0.069748595 -0.12576212 -0.107182994 0.1775231 0.13169678 -0.010915575 0.030553583 0.02419155 0.14142069 0.08913806 0.19907051 0.32536787 0.33536798 0.46327284 0.4925252 0.41681683 0.54795337 0.580477 0.55907667 0.5307427 0.5712579 0.5526848 0.46236047 0.40023762 0.65358436 0.6472892 0.6558751 0.5763039 0.49476403 0.41982025 0.4022585 0.35577905 0.369991 0.69382685 0.73985654 0.7393483 0.642328 0.49383914 0.28806606 0.23920083 0.18952692 -0.0024607452 0.06419812 0.32748127 0.3684547 0.36414748 0.7287148 0.7308055 0.70846605 0.66176313 0.5540743 0.36963198 0.21484703 0.17108627 0.1640493 0.18936807 0.083961114 -0.008780267 0.102692395 0.37987065 0.3352349 0.6915455 0.68537664 0.6097335 0.52568007 0.16875525 0.18068764 0.21604586 0.15929645 0.2329827 0.13962874 -0.05619306 0.40105522 -0.4455168 0.068526134 0.17595923 0.2616598 -0.030407757 -0.27779377 -0.1909698 0.44316593 0.3476541 0.4821217 0.4272629 -0.25044823 0.007820725 0.4854532 0.4887105 -0.0342308 0.25946718 0.4559162 0.47078073 0.18345872 0.21386933 0.4715069 0.4699328 0.36507654 0.36195308 0.5233341 0.5836609 0.15979454 0.31669143 0.46885824 0.3241545 0.43708384 -0.037094098 0.28980565 0.35207826 -0.13677128 -0.2752737 0.39831316 0.35917068 0.284465 0.09288027 -0.14881536 0.34645677 0.4639058 0.40579295 0.33517066 0.27010182 -0.23688897 0.19786054 0.28315696 0.3237778 0.34107518 0.5302477 0.41005248 0.33697852 0.2530525 -0.12541863 0.13279535 0.50908 0.24144137 -0.14994767 -0.12264973 0.04154152 -0.16526517 -0.09034476 -0.051992048 -0.0059848726 0.03821597 0.16770002 0.35757104 0.20740879 0.41000468 0.48661843 0.5692966 0.6002557 0.61659014 0.5681511 0.5180829 0.6940627 0.69597554 0.69312274 0.6514312 0.621194 0.68583715 0.28634655 0.31591007 0.3416825 0.7542087 0.72406375 0.10840164 0.19184814 0.2061232 0.25169158 0.7498044 0.72792715 -0.020355374 0.073179126 -0.013650902 -0.108400986 0.20459913 -0.052020073 0.26253945 0.4836859 0.50975037 0.62339926 0.25077784 0.61128247 0.21157071 0.566389 0.57166463 0.3288576 0.23519665 0.05095335 0.07723915 0.43111306 0.40544784 -0.2505084 0.4715846 0.26992097 0.30942377 0.47102302 0.47828823 0.66914415 0.68778384 0.45133018 0.68616116 0.6693009 0.39516407 0.38471127 0.6383841 0.123475686 0.57375586 0.0009754896 0.4749025 0.5149056 0.1653449 0.41775575 0.34611523 0.28790686 0.28575957 0.2544514 0.4349258 0.37470537 0.30740714 0.58177996 0.55455476 0.45895782 0.20044872 0.24134728 0.30320597 0.6461618 0.6177469 0.5670873 -0.026499495 0.07748503 0.1297131 0.0825811 0.07539283 0.17443788 0.68604577 0.6487893 0.5597759 0.42556944 0.27439058 0.21733709 0.165569 -0.06509859 -0.25874722 -0.14023998 0.64237356 0.5449605 0.39285374 0.22451009 0.1840781 0.11185667 0.071132965 -0.22959048 -0.029560955 0.0380175 -0.014251072 0.20091085 0.2145