# vtk DataFile Version 2.0
Really cool data
ASCII
DATASET POLYDATA
POINTS 5068 float
-26.59364 23.468903 97.12598
-26.546556 23.60433 97.48098
-26.549118 23.50039 97.8712
-26.566525 23.887087 97.11694
-26.53358 23.90297 97.43152
-25.820242 22.292482 96.94246
-25.862383 22.17747 97.639336
-25.720497 22.094093 98.38863
-25.589758 22.053915 98.854294
-25.765137 22.913689 96.26436
-26.11679 22.800356 96.832085
-26.363087 22.86373 97.497025
-26.192268 22.775732 98.171906
-25.739124 22.61925 98.85041
-25.90481 23.644175 96.18833
-26.311176 23.517433 96.7283
-26.496157 23.32468 97.17298
-26.340488 23.495462 98.217514
-25.927418 23.33248 98.723274
-25.776527 24.160671 96.210304
-26.176155 24.228298 96.8874
-26.34594 24.140469 97.48598
-26.19826 24.100197 98.08323
-25.79561 23.934832 98.65143
-25.804718 24.6678 96.84787
-25.878464 24.67 97.16464
-24.587227 -5.5659304 94.341446
-24.605894 -4.5898933 93.6594
-24.622425 -4.6891828 94.650375
-24.586386 -4.501331 94.98837
-24.788593 21.349009 97.658195
-24.850948 21.27075 98.400604
-25.461979 22.047443 96.94484
-25.348131 21.707165 97.53874
-25.313402 21.677217 98.58228
-25.080973 21.906937 99.326614
-24.798447 22.000465 99.67433
-25.355616 22.680908 96.17681
-25.500153 22.416409 96.64311
-25.261522 22.420303 99.35324
-24.872652 22.316162 99.71205
-25.366539 23.60896 95.83721
-25.321272 23.29134 99.19858
-25.356028 24.282084 96.004105
-25.681997 24.416039 96.34127
-25.270054 24.563665 98.33652
-25.201496 24.069422 98.77242
-25.216064 24.639463 96.17931
-25.43352 24.761402 96.61005
-25.272493 24.953773 97.485794
-24.540264 27.918404 98.9046
-24.547726 27.923393 99.08173
-24.577347 28.352913 98.757614
-24.55203 28.189674 99.07873
-23.778019 -9.8359375 98.87772
-23.96068 -9.790073 99.50188
-23.905283 -9.832549 100.2103
-23.98658 -9.412154 98.80771
-24.199368 -9.387798 99.609764
-24.057137 -9.332683 100.27741
-23.861729 -9.175431 100.821945
-24.07207 -8.693352 98.821205
-24.21864 -8.524998 99.5306
-24.18977 -8.59836 100.18979
-23.797678 -8.54239 100.90136
-23.863317 -6.6960945 93.9975
-23.83741 -8.037708 100.43047
-24.235199 -6.1876655 93.85712
-24.33159 -6.133534 94.41675
-23.95031 -6.0970063 95.40025
-23.58725 -6.4747157 105.71889
-23.590221 -6.4165425 106.106155
-24.342327 -5.1788697 93.05243
-24.519848 -5.3822813 93.56583
-24.303133 -5.466851 95.491615
-23.57968 -6.0568767 105.89124
-23.547924 -6.0923214 106.26809
-23.790754 -4.68642 92.38392
-24.171602 -4.414009 92.72861
-24.410715 -4.8305798 93.232475
-24.373335 -4.7242675 95.35602
-24.086273 -4.4690337 95.71872
-23.649794 -3.7805095 92.30406
-23.89385 -3.4879308 92.48547
-24.325346 -3.7992935 93.8096
-24.2373 -3.750018 94.69033
-24.129534 -3.947933 95.18716
-23.824928 -4.107084 95.75025
-23.791906 -2.9820046 92.580376
-23.683643 -2.4469757 93.33311
-23.994999 21.17704 96.952415
-24.50619 21.159676 97.72366
-24.365759 21.045662 98.53971
-24.333334 21.217396 99.21608
-24.106127 21.888996 96.05747
-24.620022 21.590885 96.754234
-24.566986 21.60411 99.57124
-24.327633 21.742863 99.782845
-24.238487 22.567516 95.786
-23.98857 22.110062 99.98447
-24.523031 23.609425 95.58933
-24.256248 23.420986 99.75133
-24.635689 24.157003 95.697914
-24.675459 24.389006 98.80384
-24.548777 24.732067 96.14492
-23.615915 24.928223 99.30281
-23.621267 26.655907 98.19521
-23.772198 26.432093 98.93834
-23.893574 26.984486 99.3586
-24.295305 27.899515 98.073494
-24.512445 27.444975 98.82796
-24.30946 27.666388 99.409966
-23.947863 27.350548 99.81572
-24.096735 28.299665 97.900276
-24.436205 28.364048 98.45619
-24.405945 28.484999 99.31664
-24.228037 28.251532 99.827484
-23.83856 29.148502 97.96379
-24.250784 29.003132 98.54762
-23.705727 30.514128 99.0168
-23.605291 30.081724 99.67317
-23.77374 30.934395 100.26133
-23.679533 31.039576 100.86165
-23.74787 31.572893 99.14853
-23.912832 31.573135 99.74378
-23.85006 31.395329 100.59619
-23.69964 31.741497 101.26306
-23.733892 32.369843 99.596954
-23.836802 32.37163 100.44013
-23.704147 32.358227 101.143845
-23.613987 32.85551 99.92771
-23.650047 32.864517 100.48281
-23.00222 -10.062641 97.69922
-23.323881 -9.982138 98.67282
-23.319881 -10.172936 99.604774
-23.37937 -9.965037 100.360855
-22.960663 -9.605651 96.99727
-23.36842 -9.360694 97.42668
-23.647905 -9.658905 100.62562
-23.498167 -9.541426 100.89572
-23.096863 -8.8160305 97.01327
-23.58832 -8.442893 101.13556
-23.053907 -6.840246 93.90514
-23.727486 -6.8659773 94.50085
-23.149683 -8.012315 101.32417
-23.05708 -6.9992037 104.99266
-23.369228 -6.9578223 105.48971
-23.131802 -7.219757 106.269394
-23.48073 -6.57492 93.446075
-23.155697 -6.5274425 104.95521
-23.484085 -6.396422 105.384155
-23.459444 -6.594827 106.48255
-23.08151 -6.4573784 106.975334
-23.197195 -5.4525676 92.38145
-23.757334 -5.6350474 92.73574
-23.16382 -5.7467384 105.00396
-23.33546 -5.7586837 106.45138
-22.960579 -5.738752 106.98153
-23.54612 -4.4687595 92.21203
-23.461882 -4.5048447 95.98415
-22.750963 -5.11854 104.99633
-23.358759 -3.3121026 91.778465
-23.267641 -3.7629676 95.738495
-22.551697 -3.150372 104.311295
-22.735626 -2.7403994 91.36855
-23.319883 -2.6317813 91.909966
-23.572016 -2.3386927 92.62836
-23.381197 -2.598138 94.378456
-23.245712 -2.6935506 94.797745
-23.227646 -1.9693888 92.503746
-23.031475 -1.7770811 93.11336
-23.061678 -2.006017 93.91434
-23.108234 -1.2449241 103.18183
-23.223925 -1.1731715 103.66717
-23.18202 -1.3080758 104.366104
-22.890648 -1.1727898 104.921585
-22.972704 -0.3853916 103.090034
-23.179308 -0.49745324 103.44443
-23.258972 -0.47104618 104.26844
-23.06888 -0.6801488 104.80652
-22.807512 -0.08693555 103.075905
-22.999304 0.14476907 103.71733
-22.95379 0.1549088 104.38371
-22.85879 -0.017661706 104.92878
-23.503885 21.296385 96.18291
-23.503325 21.03046 96.67193
-23.445961 20.90714 97.26262
-23.377077 20.707626 98.40002
-23.533596 20.990946 99.22582
-23.396458 21.704594 95.75984
-23.78049 21.8461 99.92113
-23.090412 22.359297 95.40041
-23.598122 22.329899 100.119644
-23.765007 23.733 95.66169
-23.572521 23.044973 99.97296
-23.797668 24.444574 96.00261
-22.83697 25.03461 100.50385
-22.79335 25.137114 100.707565
-22.747755 25.483116 100.87157
-23.279985 26.631418 100.40683
-23.033926 26.119434 100.70944
-23.022047 27.518568 97.22674
-23.519665 27.570904 97.56592
-23.673958 27.519669 100.16633
-22.988016 27.510332 100.67939
-23.08735 28.292633 97.22298
-23.557161 28.64716 97.54211
-23.589083 28.110107 100.28532
-22.99701 29.22961 97.39311
-23.033813 29.709156 97.694496
-23.22927 30.126888 98.05266
-23.45236 30.735287 100.73145
-23.325235 30.815886 101.16359
-22.999235 31.105322 98.38321
-23.527576 31.094732 98.74446
-23.511538 31.584911 101.471825
-23.094145 31.619886 101.77356
-23.220146 32.403046 98.911316
-23.519596 32.5256 99.32643
-23.383625 32.46497 101.47412
-23.166182 32.283382 101.73702
-23.010418 32.946518 99.02782
-23.217236 33.214485 99.65391
-23.21794 33.281834 100.51904
-23.234455 33.06052 101.03253
-22.82532 33.58906 99.92778
-22.940056 33.60539 100.123055
-22.43762 -9.916627 96.949295
-22.391926 -10.283625 97.611115
-22.194805 -10.428827 98.58174
-22.099031 -10.446127 99.31236
-22.503128 -10.124165 100.37612
-22.247625 -9.587517 96.62061
-22.349464 -7.7311735 105.67991
-22.522722 -7.6358094 106.355965
-22.561075 -8.151234 97.00095
-22.432865 -7.435609 97.62816
-22.69223 -7.7981453 101.49846
-21.616112 -7.1488113 103.14488
-22.561598 -7.568819 105.29014
-22.637331 -7.4263844 106.6273
-22.189232 -7.187854 107.43868
-21.798403 -7.1469817 107.86304
-22.558847 -5.792303 92.49049
-22.645828 -6.7664404 107.33604
-22.175592 -5.669867 92.54234
-22.668922 -5.8975186 107.40255
-22.47548 -4.5985823 96.273605
-21.988028 -4.9785833 107.58291
-22.372753 -3.621435 91.19351
-22.54896 -3.9634318 96.08246
-21.788845 -3.427934 101.387344
-22.209455 -3.4497395 102.725525
-21.92747 -3.3736558 107.13361
-21.597 -3.769052 107.93836
-22.0118 -2.3501103 101.656334
-22.004623 -2.6893415 106.521484
-22.025902 -2.4872193 107.46378
-21.965014 -1.4449731 90.55712
-22.590944 -1.4802936 93.42043
-22.481241 -1.4642841 93.941895
-22.452984 -1.3628812 105.74098
-22.295786 -1.6875322 106.44924
-22.388777 -1.5517104 107.41749
-22.076931 -1.3244334 108.09658
-21.655058 -0.23403513 88.758484
-21.887794 -0.4644146 89.72745
-22.152403 -0.5902675 91.83795
-21.943117 -1.3904611 94.463455
-22.124859 -0.7745115 102.31016
-22.522877 -0.5253934 102.725204
-22.227392 -0.675647 107.4651
-21.942549 -0.90187365 108.21634
-21.812292 0.46484947 91.431564
-22.59988 0.13350686 103.01079
-22.638727 0.44880876 103.52641
-22.677084 0.50699306 104.231255
-21.8996 0.056361765 106.721375
-21.851494 -0.0972625 107.50295
-21.57208 1.1501683 86.71113
-21.865627 1.194895 88.26999
-21.993906 1.1450251 89.76259
-21.884083 1.2933538 90.396454
-22.32729 0.6864501 103.750984
-22.30725 0.70820343 104.2222
-21.667618 2.2694938 86.531105
-21.895964 2.454987 87.39539
-21.89762 2.5539222 89.563934
-21.667772 3.2936158 86.53928
-21.784191 3.482392 87.46148
-21.803864 3.4717767 88.39667
-21.69903 3.360254 89.32596
-21.55695 4.3771048 86.5854
-21.654255 4.5137434 87.25833
-21.535412 5.2974973 87.29178
-21.855022 20.422867 96.45922
-22.44413 20.349506 97.69679
-22.20341 20.298267 98.45652
-22.51452 21.115694 95.91472
-22.526701 20.722275 96.31222
-22.609201 20.506924 97.367546
-22.551764 20.679815 99.24129
-22.308268 21.104712 99.792496
-22.449942 21.920382 100.18081
-22.641857 22.598766 95.34352
-22.247005 22.38657 100.45655
-22.423676 22.797766 100.60061
-22.04978 23.460674 95.36532
-22.61336 23.349163 95.51912
-21.967354 23.996683 100.74529
-22.599987 24.462471 100.47829
-21.820099 24.842134 101.18206
-22.041847 25.772905 96.59493
-22.395542 25.403772 100.989494
-22.130753 26.026178 96.60358
-22.199099 26.387669 101.349976
-22.531647 27.48504 96.94712
-22.028498 27.44019 101.28359
-22.24197 28.435095 97.08453
-22.075527 27.950758 101.060814
-22.623709 29.359015 97.29119
-22.473673 30.406116 97.67557
-22.549034 31.8016 98.29657
-22.72484 31.538809 101.97016
-22.366373 32.601707 98.52229
[...]
POINT_DATA 5068
SCALARS features_00 float 1
LOOKUP_TABLE default
0.8233613 0.83173966 0.82886267 0.8174795 0.8217884 0.7478007 0.759303 0.7476641 0.72293925 0.79528594 0.8011575 0.81370246 0.81266004 0.7551596 0.79552424 0.8128071 0.8239614 0.8260238 0.7894733 0.77765286 0.7971238 0.8113924 0.81842196 0.7848644 0.7696364 0.77675146 0.74797714 0.660591 0.70256346 0.6642575 0.59230053 0.65203214 0.6794057 0.66677773 0.6982818 0.6658921 0.6156415 0.7478129 0.7227926 0.67037916 0.6010756 0.77744126 0.6755175 0.7572547 0.7744076 0.7767087 0.6975809 0.7451209 0.7507629 0.77369 0.5422538 0.5292268 0.5473576 0.5267669 0.68371505 0.6915307 0.69920576 0.6794322 0.68760914 0.6913656 0.6831062 0.6772982 0.6825517 0.66890144 0.65666306 0.7145736 0.61970496 0.7259315 0.75314045 0.7228781 0.6904819 0.69648945 0.638131 0.69574034 0.6903485 0.66569555 0.6815821 0.5545548 0.5641866 0.630976 0.64558303 0.58673143 0.51199096 0.5181754 0.6199183 0.61221766 0.59091496 0.55807954 0.52002156 0.5006765 0.46248823 0.5571445 0.61449575 0.61049134 0.5154505 0.54140025 0.6077688 0.5660294 0.6058188 0.49041247 0.66162044 0.42869028 0.6714211 0.5741622 0.6508681 0.09959776 0.61710024 0.48679614 0.4848044 0.5874017 0.5478879 0.4989837 0.44953847 0.57786477 0.56128603 0.50206894 0.44013003 0.52441794 0.5562039 0.5385088 0.50209886 0.6432209 0.684863 0.65255404 0.7047105 0.71021634 0.74406105 0.72688186 0.7899346 0.79657215 0.74485826 0.78372884 0.6779337 0.67970896 0.6761727 0.6872151 0.7068529 0.70080787 0.69610703 0.6819658 0.7260016 0.63932 0.6373664 0.7086601 0.605605 0.6577027 0.69556427 0.703334 0.6676202 0.6338935 0.67023516 0.69379616 0.6666403 0.5834724 0.63569295 0.58635104 0.6367767 0.5993084 0.51836133 0.52216834 0.5111034 0.46575633 0.5078156 0.23655623 0.40612248 0.48048037 0.4945483 0.4393587 0.4172004 0.44288468 0.3827917 0.36692074 0.60866475 0.640553 0.5735221 0.49849358 0.6401011 0.6620675 0.66056794 0.59635127 0.62725973 0.65458834 0.65128607 0.6017432 0.42213655 0.40867162 0.41123718 0.49828523 0.54205453 0.439587 0.48367664 0.43185544 0.40786332 0.47447067 0.32169744 0.42073086 0.16491848 0.17830211 0.21162678 0.33650658 0.27108496 0.43982148 0.56036353 0.41352043 0.37819788 0.45708418 0.5137131 0.38658625 0.4336127 0.4284091 0.4456354 0.6257049 0.6304538 0.47140554 0.55982983 0.7313794 0.70672166 0.637665 0.6974447 0.7994931 0.7763336 0.6545129 0.7123988 0.7516633 0.78901255 0.6983509 0.7110584 0.6730608 0.6433592 0.609301 0.60578316 0.67941284 0.6787503 0.67119026 0.6837636 0.7564429 0.60509336 0.5766055 0.37021554 0.6614996 0.67970526 0.59243035 0.5312555 0.5664691 0.63036 0.52983874 0.5720766 0.4237194 0.37038338 0.37004519 0.42673233 0.19464312 0.2863593 0.201537 0.105063595 0.3787831 0.26197213 0.3058678 0.25472346 0.2767128 0.2353715 0.36747852 0.33180448 0.4226485 0.5335579 0.40093857 0.24235892 0.24763584 0.08661672 0.47329885 0.5718225 0.5200338 0.57297134 0.14419365 0.6003946 0.6145859 0.61127746 0.46416342 0.52577066 0.5044033 0.40272692 0.30424926 0.26987538 0.5754669 0.54820496 0.47205126 0.40037638 0.29635412 0.4496093 0.36177468 0.3043837 0.25767884 0.4648659 0.38508478 0.43132374 0.3069008 0.35666382 0.3702943 0.33598378 0.32983497 0.35152173 0.42486358 0.37851083 0.3245977 0.34324592 0.25043482 0.20602937 0.09228301 0.25545198 0.15480821 0.14943723 0.18875127 -0.021143958 0.21635656 0.042068888 0.29269105 0.34383377 0.28695875 0.3540992 0.2471245 0.39697993 0.3742976 0.4591907 0.67239714 0.5397917 0.72416264 0.61501974 0.6718031 0.7316005 0.6657843 0.687962 0.6507052 0.62702894 0.58832586 0.5545109 0.5765568 0.5629123 0.4589473 0.4911053 0.5265341 0.46569473 0.5076266 0.48171014 0.45832145 -0.07557502 -0.10618468 -0.0961877 0.37768972 0.2807699 -0.12474088 0.25026757 0.0077997074 -0.012933835 0.58977693 0.56681085 0.53635216 0.02981601 -0.061757676 0.31960887 0.55143774 0.6366005 0.5958732 0.5177295 -0.09886007 -0.0870633 0.42274636 0.5571535 0.601501 0.55801266 0.3921578 0.50704217 0.5406974 0.55567807 0.5161677 0.5176331 0.39429688 0.42941785 0.25171107 0.53848976 0.51255614 0.22255401 0.5232436 0.48817593 0.17949812 0.5541218 0.46400526 0.3770992 0.28274554 0.2598786 0.57571125 0.538552 0.4562472 0.31003273 0.20242096 0.60983413 0.60983723 0.54058146 0.6539195 0.6502389 0.6240312 0.78848326 0.78910553 0.78112036 0.7317052 0.63304985 0.30870533 0.28172582 0.2773849 0.7882794 0.76896554 0.7002931 0.630244 0.25245026 0.31810716 0.27645797 0.75999486 0.68797016 0.6211474 0.14737356 0.23528329 0.68277764 0.63336664 0.23391652 0.26978666 0.2688173 0.17788129 0.1844024 0.3061654 0.31698006 -0.09925842 0.18213618 -0.093636654 0.21204275 0.27400616 0.19249272 0.21076351 0.28904915 0.12689851 0.2646845 0.14436118 0.24264774 0.4557131 0.30184382 0.5155 0.40517104 0.58246267 0.44995987 0.5454246 0.58039904 0.5758087 0.58863497 0.6257001 0.5971942 0.6091344 0.569023 0.53488684 0.50104105 0.45139518 0.5082142 0.481238 0.37471604 0.2234667 0.30666965 0.39161235 0.39580956 0.36302412 0.43455526 0.3616659 0.3227755 0.3138557 0.50356996 0.32804424 0.30304444 0.6295562 0.6068586 -0.09018049 0.36845207 0.66880316 0.6307538 -0.14320812 -0.15801817 -0.13607337 0.28529775 0.48656526 0.64749545 0.65571713 -0.12092341 0.25480247 0.59443414 0.6148303 0.071309134 -0.05901834 0.42742857 0.34132314 0.20106716 0.22645152 0.38742328 0.47976 0.549913 0.05709461 0.5403601 0.09131427 0.060075823 0.55191565 0.56328446 0.16176993 0.5775896 0.6257516 0.6806295 0.69523215 0.70883405 0.731857 0.7158568 0.714281 0.71077955 0.67020833 0.6064699 0.69295526 0.7449398 0.7340622 0.67226624 0.72058153 0.7816138 0.7825334 0.79329264 0.73701245 0.63971496 0.74865294 0.7744528 0.5104524 0.27197206 0.30114028 0.20147681 0.18684597 0.19465938 0.7406583 0.76887 0.5093425 0.14260158 0.17898309 0.7647121 0.7723061 0.5875118 0.14622307 0.12221929 0.21289366 0.7337877 0.7246633 0.6854964 0.55354166 0.21045479 0.16515465 0.1863918 0.6791518 0.5774492 0.40146583 0.2623451 0.1865821 0.24379018 0.14972547 0.23406124 0.2767787 0.25317988 0.10310651 0.19961926 0.19955169 0.015284814 0.18028893 0.072426364 0.0015650988 0.15005392 0.08022629 0.50738597 0.45116097 0.2857079 0.49281308 0.48145586 0.49550703 0.4976995 0.5321571 0.5906354 0.5632673 0.49803057 0.47588676 0.44683293 0.39773273 0.43804157 0.32880253 0.34970105 0.4507177 0.3488739 0.35046428 0.33084542 0.32508692 0.2502987 0.10015181 0.0727838 0.35941496 0.11406565 0.31026748 0.3479522 0.529847 0.48282844 0.6720109 0.637889 0.30240977 0.26990962 0.6794827 -0.12569275 0.6557601 0.6597688 -0.12993106 -0.122497305 -0.15024397 -0.090928525 -0.014272496 0.45892867 0.6287922 -0.03256891 -0.085871935 0.01782415 0.56710285 0.55835676 0.017031368 0.002473142 0.0016221087 0.031076705 0.16445608 0.5001933 0.47846937 0.08188584 -0.07427727 0.16494545 0.19251537 0.5155157 0.5226393 0.5984003 0.119132385 0.045478642 0.6251168 0.6457726 0.53628784 0.6015024 0.6740674 0.2090128 0.017998412 0.48645213 0.67692655 0.7030645 0.7023598 0.6739204 0.5531713 0.37850776 0.5356062 0.60402924 0.62205297 0.56759953 0.6167083 0.68377274 0.68229675 0.60597825 0.6244412 0.6663457 0.53003883 0.47086963 0.39134988 0.47861776 0.49971133 0.48444802 0.3262768 0.2954051 0.32047153 0.7806014 0.75580776 0.66919243 0.45202866 0.46291292 0.46040457 0.2507813 0.7094219 0.74908304 0.5871583 0.41602078 0.370861 0.048229977 0.098683305 0.715897 0.18638635 -0.03560949 0.13249 0.08863705 0.6932941 0.6867089 0.22173788 -0.047193177 0.15555532 0.12482267 0.67201495 0.33335865 0.24233699 0.090975925 0.111298725 0.6516034 0.6077633 0.4290042 0.22374389 0.6156033 0.5630451 0.13140325 0.3669887 0.2462962 0.11112016 0.1579696 0.018406093 0.4799378 0.043919325 0.093818285 0.16635929 0.040257998 0.004641697 0.6579189 0.6159298 0.7155262 0.07684268 -0.1872536 -0.3909436 -0.07965027 0.6810522 0.7469361 0.7712084 0.7325958 0.7588304 0.26748788 -0.0815331 0.31178457 0.28906435 0.033151366 0.339785 0.2973694 0.44263124 0.3974187 0.45503765 0.64471954 0.6221771 0.62294525 0.5201485 0.4939527 0.47164333 0.67264307 0.68994397 0.6839702 0.62576115 0.50625306 0.72427046 0.739009 0.6950777 0.6116426 0.7312058 0.6669953 0.5908097 0.4761476 0.46283287 0.6295222 0.6660707 0.6619219 0.41283792 0.43648815 0.46013635 0.44143587 0.605505 0.59300035 0.60737824 0.525051 0.55102676 0.5044009 0.27680779 0.2404926 0.25291234 0.13901034 0.34451446 0.35122612 0.21185556 0.40312773 0.22147597 0.19523731 0.6207862 0.52717066 0.2782626 0.25366572 0.6544571 0.5964147 0.01476346 0.24598023 0.6417015 0.60948396 0.36049473 0.582152 0.51821667 -0.039827116 0.026946582 0.045627315 0.049135793 0.022524051 0.5205916 0.3405938 0.00083595514 -0.030690212 0.33942294 0.35557967 0.4257962 0.3254162 0.19927458 0.13060269 0.15078166 0.21420765 0.22755346 0.32662886 0.37394437 0.42187864 0.4145997 0.27891523 0.4881332 0.47315523 0.4555601 0.39925134 0.3290611 0.16243023 0.22564559 0.27245626 0.3514103 0.4070093 0.54393417 0.46887925 0.51485527 0.4785569 0.41917366 0.2785489 0.63087106 0.31236258 0.48784333 0.46576524 0.41801113 0.34614486 0.66516614 0.58962166 0.46815512 0.30421394 0.40238798 0.4792048 0.41025695 0.44737142 0.55365026 0.48093417 0.5191018 0.5387702 0.5869987 0.5332527 0.5206519 0.42950514 0.35785505 0.3084242 0.3942246 0.5509937 0.54969054 0.5274937 0.5158526 0.51734674 0.3350445 0.39013982 0.5038666 0.51247704 0.48769513 0.70347357 0.6438096 0.45112494 0.47437605 0.3003695 0.3739512 0.4268723 0.72754157 0.7324866 0.61646414 0.5356001 0.42919588 0.4535792 0.23974884 0.24918148 0.683599 0.6983409 0.23557179 0.38455355 0.3920175 -0.20252797 0.07912505 0.64176047 0.041370075 0.004511646 -0.20814416 0.63024396 0.6155088 0.040624518 0.021440186 -0.2170532 -0.1417488 -0.040892027 0.48223752 -0.2580811 -0.061229795 0.53314835 0.47290838 -0.11008774 -0.0755184 0.46528056 -0.17594838 0.381022 0.2719667 0.110200904 -0.1732812 0.019467238 0.2530852 -0.014853828 -0.006800726 -0.012540502 0.33208013 0.52154756 0.04774722 -0.08011666 0.64060557 0.70669997 -0.011570603 -0.025060052 -0.053005524 0.034420747 -0.21057332 0.5310086 0.76803684 0.7616696 0.11378568 0.1259858 0.2184203 -0.07827253 -0.4833527 0.4911121 0.67585826 0.72515047 0.7474383 0.75892127 0.17579865 0.16860843 0.111774966 0.2052467 0.27412623 0.13215528 0.027369577 0.68392694 0.7223359 0.33056736 0.3358529 0.4992994 0.3223126 0.20275615 -0.095664814 0.29562518 0.5296512 0.47178614 0.24018256 0.37145633 0.5337697 0.48180693 0.54664713 0.46846628 0.40959287 0.3631903 0.3096512 0.42981374 0.45669445 0.4242389 0.6052976 0.57266086 0.50059175 0.3694349 0.45123777 0.4859144 0.4857539 0.4642008 0.59417826 0.4833303 0.68363404 0.5191028 0.42010027 0.70928323 0.724061 0.6244337 0.5177208 0.72017235 0.7274214 0.7082598 0.4235623 0.4588023 0.48801422 0.47067875 0.6613487 0.6707089 0.6316595 0.37395152 0.58492994 0.5819987 0.3251472 0.58229524 0.19831747 0.0710477 0.469571 0.3357331 0.26985595 0.15988594 0.3374195 0.3097886 0.27381855 0.121168435 0.13078254 0.13375308 0.1527459 0.35344487 0.108313166 0.41878513 0.061744973 0.5278762 -0.0676407 0.0038003777 0.38348606 0.5192365 0.63015455 -0.08098607 0.4177909 0.46900567 0.35870078 0.2804156 -0.20811376 0.15912682 0.44842345 0.47697198 0.37510818 0.39885265 0.39334023 0.45379773 0.48190504 0.4568578 0.37117696 0.15203312 0.20161362 0.32370043 0.3980609 0.45684057 0.5263796 0.49478817 0.31644648 0.16353917 0.15720083 0.1210609 0.1625702 0.5290698 0.5058801 0.35126996 0.37199122 0.40759754 0.37377298 0.48465404 0.4859975 0.42439395 0.3529466 0.52705616 0.31992507 0.41319796 0.5494925 0.55281675 0.5255961 0.5509853 0.5029229 0.4477933 0.3130673 0.30550706 0.54645556 0.5095189 0.48778367 0.47192165 0.66317517 0.68428445 0.5734854 0.4504372 0.4371236 0.35485047 0.352752 0.5399256 0.6212256 0.61701196 0.6852781 0.6480578 0.36955005 0.2507156 0.14944907 0.48972172 0.5141617 0.52777416 0.61752343 0.025084488 0.396916 0.4030171 0.42452914 0.59940183 -0.021167848 -0.24646704 -0.074229136 -0.06996493 0.26680845 0.44328737 -0.062224463 -0.07182215 -0.05909594 -0.06617738 0.28453463 -0.085788615 0.02422809 0.0880868 0.3058512 -0.118118875 0.064190604 0.162758 0.30464444 0.26431382 0.007263791 0.25259274 -0.13298464 0.47719747 0.08072153 0.5776708 0.11048083 0.081737176 -0.05922483 0.71337664 0.16094512 0.17006885 0.73269475 0.7277498 0.16053487 0.18238828 0.62768495 0.6714041 0.69449687 0.5720258 0.5548214 0.10800629 0.16620028 0.17485395 0.18871821 0.16295084 0.10531251 0.58668554 0.5467577 0.41679877 0.16530849 0.09786475 0.13774663 0.31678653 0.16610636 0.5863551 0.57688296 0.5552685 0.48368773 0.105087966 0.27972397 0.35356227 0.33620098 0.28617764 0.57859844 0.5670206 0.5211281 0.45409465 0.30180347 0.33907014 0.21681437 0.20189667 0.14596227 0.40752342 0.38032168 0.5061105 0.44803542 0.3233528 0.29025656 0.1641587 0.4177665 0.4410538 0.356915 0.14088918 0.26158765 0.2771371 0.47777495 0.30101556 0.31503764 0.3376158 0.38537532 0.26211578 0.2639008 0.30421674 0.32497662 0.52686155 0.75906277 0.74113816 0.71189904 0.68974906 0.67865586 0.64367557 0.3449631 0.39013737 0.42703694 0.49273354 0.6171111 0.6126249 0.29395518 0.32230982 0.33600187 0.3690921 0.32237226 0.6245576 0.25872412 0.30235988 0.24444774 0.60583866 0.212039 0.22014153 0.21866447 0.42263132 0.22823864 0.084221974 0.11631729 0.074583 0.05021864 0.07258409 0.68410885 0.67413026 0.22142863 0.63111675 0.6543474 0.25364363 0.23089184 0.30194256 0.26140487 0.30514652 0.5088002 0.3772248 0.37190884 0.28388098 0.5093497 0.5076609 0.42168304 0.3117074 0.46610996 0.48396444 0.418441 0.063222185 0.12391223 0.22979772 0.41735232 0.4185931 0.2093278 0.30577567 0.17249653 0.08489322 0.064596556 0.403572 0.118496455 0.011537533 0.20845674 0.20317873 0.35210288 0.27549696 0.3086986 0.3940218 0.29701892 0.26433805 0.25098905 0.24526197 0.2833442 0.39520112 0.44090235 0.49334818 0.3819121 0.35857582 0.37715057 0.39871663 0.83425254 0.42363688 0.32955232 0.34702763 0.3551961 0.41425723 0.7255716 0.7332676 0.74566007 0.7137079 0.38622755 0.37702397 0.25110346 0.67027235 0.63900983 0.42338216 -0.09479229 0.43800643 0.5568679 0.53380054 0.57045656 0.41783476 0.21490678 -0.08002359 0.11253629 0.22622447 0.24279566 0.15641025 0.07734591 0.08589648 0.16482033 0.23029634 0.41167986 0.032181695 0.28256676 0.36877936 0.18352553 0.2897907 0.22391666 0.14059032 0.20673233 0.64302576 0.3448157 0.36544535 0.7651491 0.74192595 0.62615585 -0.028429098 0.57772315 0.7566073 0.7473409 0.60020244 0.018295374 0.66075987 0.63719463 0.7202784 0.14554822 0.6794847 0.008864373 0.6339139 0.6356596 0.66056603 0.65789783 0.5696797 0.477892 0.117654234 0.57926047 0.58090484 0.5725326 0.048794106 -0.06262256 -0.116859555 -0.15045364 0.18805079 0.52430797 -0.41417882 0.2424855 0.3938709 0.51738465 0.48438883 0.42840064 0.35440865 0.3534253 0.41355434 0.31813836 0.14439324 0.34894723 0.27148438 0.2622239 0.22973427 0.26650304 0.35264182 0.10894683 0.2819508 0.3166779 0.38444042 0.3987184 0.35660172 0.43990552 0.42733973 0.4140768 0.38764477 0.44459724 0.41566592 0.6915506 0.6914921 0.6938646 0.64716107 0.6576468 0.66957474 0.6581422 0.6454299 0.564229 0.6041531 0.63159275 0.63332474 0.3390049 0.35111937 0.46394962 0.6234882 0.31332305 0.3244238 0.573666 0.27937344 0.28504512 0.15929297 0.2309795 0.5052896 0.22852714 0.07131805 0.25649416 0.2138613 0.2203037 0.2076545 0.08249457 0.15935625 0.18955855 0.20800033 0.10193046 0.17941028 -0.039079074 0.03400416 0.55611086 0.7113292 0.06714453 -0.006253749 -0.02017754 0.7001616 0.23771086 0.18733522 0.12631053 0.67273355 0.2842092 0.6448289 0.6596731 0.25271094 0.5917241 0.6262384 0.24341933 0.49506086 0.5067024 0.49261236 0.32834607 0.49641925 0.52488875 0.5204157 0.38014656 0.39155835 0.34680447 0.29705936 0.12896264 0.044130675 0.07142003 0.19194674 -0.017214362 0.1744898 0.06822686 0.19073531 0.27403754 0.12413024 0.37631577 0.39027107 0.5011748 0.43056166 0.3722605 0.25057927 -0.07941912 0.2353105 0.36209062 0.30795127 0.85384744 0.85506856 0.78724253 0.46257585 0.12654236 0.27156097 0.15596163 0.7183252 0.7703482 0.72574735 0.4090079 0.6615691 0.20869868 0.6010659 0.44812042 0.10206137 -0.0596582 0.45766342 0.52344245 -0.084579095 0.4329585 0.52461785 0.08983565 0.36413836 0.4730862 0.16964567 0.09826552 0.17814156 0.39959183 0.131753 0.2382214 0.6933973 0.6979973 0.5309769 0.35896713 0.27151945 0.73121285 0.29313082 0.54339904 0.67169523 0.59080666 0.58956975 0.5857079 0.52383333 0.49062303 0.52920485 0.6226419 0.6173476 0.60371107 0.6227825 0.18699208 0.51055914 0.45548624 0.28052813 0.41069844 -0.19096649 -0.25119668 -0.23830563 0.18606652 0.25218448 0.379129 0.06570887 0.11431477 0.21332227 -0.085521095 0.16695836 0.35207072 0.32498473 0.3423615 0.39555073 0.43997064 -0.12804829 0.21248198 0.30900818 0.49632746 0.50728875 0.28936267 0.22768223 -0.0046609435 0.23383702 0.3732741 0.4690795 0.5180443 0.22545047 0.16383934 0.22969748 0.23307621 0.23040119 0.38268661 0.50239295 0.52640355 0.31700373 0.35254186 0.076447785 0.15163232 0.21837144 0.20895818 0.31138015 0.38889498 0.3462991 0.23564538 0.320479 0.4391274 0.43968838 0.38844806 0.32926077 0.39326698 0.618234 0.62564874 0.62478864 0.6270541 0.567481 0.57097185 0.55534995 0.5883462 0.6131978 0.47509933 0.48117393 0.5244681 0.5372852 0.56657803 0.37452018 0.4485101 0.5587464 0.5499707 0.36635774 0.5223651 0.53275365 0.4814549 0.17769086 0.064955935 0.38208044 0.39187184 0.22970441 0.28407836 0.1987081 0.20779064 0.19489354 0.123033985 0.30603415 0.36753684 0.12502001 -0.0006960705 0.12702009 0.17137821 0.20946437 0.18284762 0.115512274 0.1501999 0.13157319 0.21649231 0.4206409 0.62776244 -0.0073898844 0.058910653 0.2851773 0.68727994 0.26788613 0.20342627 0.043195993 0.006896846 0.071440995 0.6704124 0.67546546 0.29974648 0.2971454 0.28661805 0.16888358 -0.022943128 -0.04953783 -0.3917269 0.6564362 0.66682553 0.29074234 0.29448342 0.5074064 0.60761726 0.6499567 0.28555185 0.2913865 0.28496647 0.28045624 0.50482655 0.31292948 0.2844328 0.5477353 0.5475844 0.30757716 0.09945054 0.09746582 0.27229327 0.044553593 0.2508866 0.04666082 0.031054862 0.16137499 0.37915936 0.51855606 0.21480235 0.14697897 0.4049791 -0.0018497035 0.29372227 0.50496113 0.58060896 0.13807584 0.12584792 0.2064768 0.28823233 0.24645123 0.002496034 0.22236079 0.58266354 -0.04169628 0.18649307 0.21509445 0.17385429 0.13095126 0.115854934 -0.04327456 0.5483622 0.43448818 0.30171943 0.080510825 0.56073165 0.49664336 0.26943526 0.3319081 0.048766475 0.0383663 0.53932786 0.78358436 0.74328905 0.47934687 -0.0015563965 0.7261746 0.6991734 0.3927279 0.6197921 0.22200711 0.4724796 0.22590436 0.46701056 0.3615468 0.5176943 0.53035617 0.32160783 0.2537402 0.559862 0.13931559 0.0037793666 0.5669776 0.59373856 -0.0076130033 0.54535985 0.5923868 0.5487927 0.5973822 0.50357866 0.11148986 0.5997962 0.6410141 0.5477507 0.6349698 0.49666822 0.528216 0.5740557 -0.48033544 -0.49363616 0.5554085 0.33967102 -0.33986765 0.43682832 0.52230906 0.576128 0.5902058 0.26761574 0.5712117 0.5963216 0.22138432 0.376002 0.33380163 0.18079758 0.30405602 0.31046498 0.19386744 0.2744618 0.1743224 0.22964226 0.24339643 0.238 0.40361556 0.1403044 0.20943134 0.020699851 -0.18514413 -0.6914028 -0.2508441 0.53565836 0.5227554 0.30691212 0.15221263 0.1061064 0.15665892 0.15976067 0.4153478 0.50455904 0.53756785 0.5386009 0.3189618 0.2972296 0.24683274 0.21312602 0.11823328 0.1784251 0.15400913 0.28547633 0.3627865 0.42884523 0.29242948 0.23353508 0.19858429 0.12139681 0.031364128 0.14196432 0.15221442 0.25468284 0.16415556 0.16618541 0.2165025 0.1448147 0.19381301 0.14740497 0.210157 0.2923849 0.30793056 0.20533276 0.2649758 0.19063707 0.65517914 0.60718024 0.36489367 0.779498 0.7320144 0.5951152 0.3793503 0.84304523 0.8012692 0.683923 0.8188697 0.5222372 0.48369658 0.5007256 0.51819056 0.43687686 0.489946 0.52463126 0.5446367 0.42837158 0.46127763 0.5276514 0.5245137 0.40381145 0.39826426 0.41640642 0.43079737 0.41044703 0.37236023 0.40426183 0.3974521 0.3014518 0.09634203 0.20263252 0.22442934 0.19774388 0.088361755 0.30840084 0.33813027 0.16474378 0.059501387 0