# vtk DataFile Version 2.0
Really cool data
ASCII
DATASET POLYDATA
POINTS 5772 float
-13.5457 16.799831 13.375871
-13.59204 17.56474 13.546774
-13.617456 17.415014 14.860824
-13.614486 17.807758 15.327099
-13.726256 18.887009 13.815258
-13.774283 18.477854 14.744007
-13.748568 18.658924 15.401746
-13.588263 18.628527 16.10275
-13.653605 19.424974 13.643513
-13.83456 19.585104 14.575243
-13.852184 19.71795 15.499257
-13.687414 19.73634 16.251781
-13.605972 20.090193 13.97332
-13.733571 20.404654 14.719399
-13.808808 20.583694 15.599396
-13.714939 20.536825 16.292646
-13.664818 21.15293 15.766843
-13.590227 21.195333 16.177101
-12.627026 16.000938 11.489523
-13.115588 15.938834 12.624265
-13.05834 15.716572 13.421169
-12.941172 15.684173 14.1242075
-12.814347 16.0486 15.206665
-12.815407 17.026207 11.212659
-13.067931 16.562908 11.929506
-13.28889 16.813368 12.465526
-13.406855 16.604897 13.107343
-13.104899 16.803675 15.499801
-12.941621 16.850334 16.000006
-12.709071 17.558346 11.011259
-12.950645 17.625128 11.611339
-13.2467 17.707796 12.654793
-13.39385 17.387669 15.582726
-13.241718 17.641499 16.285913
-12.856672 17.803484 16.80595
-12.781108 18.285099 12.145383
-13.3681555 18.757683 12.951852
-13.315069 18.35786 16.447289
-13.014637 18.322712 16.763441
-12.75349 19.219011 12.307414
-13.413035 19.412167 13.193351
-13.515221 19.929857 16.649836
-13.173902 19.833 16.899584
-13.318505 19.981993 13.24568
-13.273554 20.339882 13.471505
-13.426741 20.680758 14.372816
-13.513132 20.687506 16.673306
-13.226646 20.478369 16.919764
-13.078051 21.16 14.025092
-13.36766 21.216585 14.614307
-13.374168 21.5666 15.716037
-13.358148 21.296392 16.386662
-13.210515 21.142748 16.735037
-12.732121 21.963089 14.326914
-12.963121 21.933058 15.666061
-13.005 21.755447 16.103539
-12.66855 15.2976675 13.230358
-12.171478 15.253467 14.446962
-11.990307 15.366619 15.192801
-12.0209 15.89381 10.7726
-12.244139 15.653444 11.40119
-12.165704 15.662309 15.59341
-12.172833 16.058226 16.001091
-11.799601 16.61031 10.295957
-12.282637 16.413403 10.762856
-12.427115 16.758074 16.418413
-12.183618 16.963781 16.683222
-12.492522 17.33075 10.844341
-12.425458 17.58345 16.848326
-12.578132 18.304811 11.310199
-12.542571 18.54494 17.030811
-12.214149 19.436335 11.841287
-12.387914 19.503391 17.125061
-12.264122 19.903585 12.0909605
-12.4624 20.108421 12.621659
-12.539963 20.465752 17.120491
-12.143511 21.023174 12.763628
-12.650558 21.584002 16.615818
-12.475809 21.19946 16.899933
-12.305204 21.882282 13.665693
-12.569685 22.075108 14.652985
-12.370793 22.32332 15.54395
-12.311097 22.037968 16.108269
-11.549071 23.59022 11.794239
-12.069342 22.578327 15.024029
-11.513678 24.522318 11.65772
-11.765512 26.082111 10.4167385
-11.539678 25.221144 11.87496
-11.596579 26.724663 9.103283
-11.651993 26.621956 9.493148
-11.94928 26.652966 10.704161
-11.921112 26.430387 11.364967
-11.765773 26.550781 11.911494
-11.717452 27.17673 9.844492
-11.764637 27.370438 10.510211
-11.814231 27.35081 11.400792
-11.764596 27.179966 11.862283
-11.643153 27.716614 10.848724
-11.668066 27.713245 11.3552065
-10.525677 7.824327 8.446896
-10.5185175 8.015325 8.337607
-11.276189 15.284866 11.248313
-11.355582 15.118524 12.326892
-11.625251 15.125544 13.054768
-11.682734 15.142931 14.60095
-11.42243 15.332618 15.433985
-11.656902 15.706739 10.721366
-11.811608 15.432978 15.538283
-11.416316 15.810541 16.140182
-11.254411 16.27666 16.499035
-11.532673 16.738739 16.698359
-11.020861 17.377163 10.087424
-11.533762 17.777678 17.085562
-11.503227 18.351418 10.324464
-11.534174 18.464554 17.167103
-11.533596 19.588215 17.036654
-10.95573 20.402138 9.957971
-11.131128 20.571611 10.264296
-11.62105 20.537888 16.994486
-10.619822 21.565693 9.220689
-11.932636 21.35349 16.740955
-10.875704 22.546352 9.542033
-11.314763 22.454866 15.698493
-11.676792 21.852125 16.294
-11.148761 23.505613 10.4688015
-11.4833765 23.670233 12.074097
-11.447956 22.589754 15.338391
-11.169934 24.837395 12.455677
-11.126863 25.821838 8.827327
-11.318759 25.777872 9.732862
-11.432173 25.710697 10.334576
-11.191384 25.772972 12.231465
-10.817019 25.622604 13.101978
-10.937996 26.59216 8.28369
-11.338126 26.579391 8.728103
-11.531016 26.708508 12.264166
-10.732557 26.376728 12.940406
-10.889941 27.023153 8.277879
-11.146175 27.262371 8.779157
-11.450841 27.353725 9.427159
-11.341079 27.504145 12.145865
-11.073383 26.955757 12.659976
-10.886969 27.715609 9.027462
-11.117622 27.815588 9.643003
-11.325981 27.971577 10.721537
-11.331058 27.959782 11.302957
-11.031393 27.866787 12.119767
-9.887605 6.0547957 10.123531
-9.819038 5.7421 10.6190815
-9.843359 5.9438095 11.354431
-9.7253065 6.097633 12.082676
-9.791188 7.029887 7.0342097
-9.970222 6.8650274 7.729885
-10.229656 6.978632 8.404274
-10.168099 6.7858195 9.287936
-10.06853 6.3484216 10.401728
-10.018008 6.419923 11.367134
-9.746951 6.5599327 12.22579
-9.851056 7.507253 6.9711895
-10.3248 7.644865 7.7021255
-10.456601 7.5777593 8.337741
-10.447895 7.78729 9.11393
-10.224459 7.765394 10.460797
-10.077563 7.501229 11.357324
-9.750048 7.477672 12.144897
-9.902569 8.244218 7.015304
-10.180667 8.3735075 7.5631995
-10.414509 8.346659 8.294296
-10.246497 8.699298 9.174579
-10.134438 8.343644 10.224099
-9.880279 8.631818 11.349884
-9.621004 8.533365 11.747497
-9.921144 8.95771 7.778499
-9.926565 9.039185 8.829948
-9.907342 9.070417 9.29634
-9.792884 9.232761 10.513727
-9.62749 9.30755 11.158538
-10.713966 15.365411 12.397059
-10.871028 15.181802 13.472588
-10.916153 15.169009 14.399236
-10.883396 15.353244 15.362029
-9.86437 16.094368 8.833096
-10.042262 15.934025 9.179337
-10.596912 15.515742 15.461203
-10.9078665 15.775669 16.055876
-9.829837 17.188187 7.2219086
-9.958298 16.714432 7.8826323
-10.281065 16.77751 8.609515
-10.361369 16.308867 9.689037
-10.691926 16.44571 16.412355
-10.790653 16.863043 16.645975
-9.910882 17.69691 7.193766
-10.26283 17.551456 7.727177
-10.468884 17.777103 8.182873
-10.7302885 17.846827 16.972748
-9.828807 18.24502 7.1157036
-10.190883 18.143726 7.6605773
-10.406906 18.613306 16.944424
-9.854121 19.003914 7.638628
-10.563695 19.918036 9.552974
-10.659627 19.447039 16.885311
-10.33254 20.389961 16.508932
-10.13356 21.588148 8.784402
-10.50629 21.108725 16.278841
-10.488745 22.08558 15.716423
-10.200786 23.284052 9.033418
-10.76056 22.931753 14.216079
-10.108411 24.03599 8.889957
-10.516976 25.670738 13.460906
-10.466056 26.565332 8.109836
-9.870236 26.681784 13.585298
-10.109031 26.051569 13.810128
-10.480073 27.211586 8.263913
-10.5476265 27.486757 8.486023
-10.430142 27.657309 12.60912
-10.252764 27.187857 12.9561205
-10.350333 27.76776 8.773724
-10.448699 28.09392 9.57304
-10.50368 28.302423 10.356273
-10.40167 28.301199 11.385454
-10.3931 28.103922 12.106542
-9.160688 5.246321 10.509791
-9.074507 5.247002 11.349364
-8.829808 5.896397 7.658609
-9.499702 6.0791144 8.759779
-9.610171 5.7319784 9.956092
-9.524967 5.4942846 10.42271
-9.407899 5.5591598 11.660338
-9.242152 5.8420076 12.25973
-9.201078 6.0969825 12.693201
-9.0044985 6.983094 5.824697
-9.310206 6.83962 6.4777617
-9.437716 6.5284624 12.596598
-9.106647 6.495587 12.877734
-8.743385 7.5146422 5.349072
-8.968881 7.6098204 5.653552
-9.379328 7.6938624 6.3762918
-9.506199 7.4110208 12.567622
-9.033987 7.3389935 12.9473
-8.954217 8.375263 5.734144
-9.431927 8.17544 6.327007
-9.210636 7.965753 12.643177
-8.702449 9.257393 5.9211445
-9.142805 9.117978 6.684961
-9.625831 9.320882 8.273495
-9.03414 9.68613 11.75761
-9.064065 9.2448635 12.011687
-8.885032 9.618727 7.229517
-8.90636 9.789997 9.795331
-9.10987 9.867252 10.762441
-9.228275 15.130178 9.553681
-9.586865 15.354627 10.134322
-9.400648 16.104313 8.067724
-9.521572 15.873693 8.556546
-9.567641 15.968578 11.788151
-10.084976 15.491005 12.256516
-10.096289 15.755058 15.253703
-9.4182415 16.998491 7.1189413
-10.256919 16.588596 16.313215
-9.353806 17.583233 6.8357377
-9.756956 17.40608 15.908693
-9.323182 18.44107 6.7629385
-9.510815 18.242226 16.297129
-9.086422 19.166489 6.943366
-9.580582 19.180803 7.528351
-9.456661 19.49135 16.411425
-9.675737 19.290892 16.587036
-8.88848 20.586412 7.527049
-9.295462 20.333675 16.343252
-9.272556 21.571896 7.7937293
-9.331142 20.835886 16.039495
-8.830909 22.526793 7.3241816
-9.17705 22.524952 7.6917014
-9.138376 23.445988 8.0144005
-8.746457 23.247128 15.061891
-9.429928 25.64469 8.244568
-9.311636 25.190954 14.517098
-9.242283 25.328644 14.5899105
-9.667572 26.506107 8.022595
-9.744994 27.21958 8.236501
-9.684957 27.482925 8.423078
-9.229488 27.381834 13.29259
-9.3844185 27.041042 13.62988
-9.597367 27.819496 8.861414
-9.192309 28.141468 10.030725
-9.5006485 28.423899 10.776612
-9.6388645 28.414886 11.793147
-9.463376 28.170221 12.45015
-9.244063 28.005081 12.8095455
-9.161655 28.51452 11.324456
-7.7204885 4.973791 6.6221514
-8.065972 5.0298824 7.3905115
-7.87825 4.8059998 8.121451
-8.634447 5.109976 10.621076
-8.530944 5.135111 11.4529915
-8.075224 5.243791 11.960102
-8.000997 5.855622 5.875591
-8.405346 5.7551346 6.632801
-8.366737 5.4896107 8.317159
-8.674582 5.696147 12.447111
-8.466792 5.9197335 12.797361
-8.429675 7.039704 5.2893667
-8.480977 6.6712337 5.5312543
-8.471368 6.6920357 13.110517
-8.375403 7.372754 5.1638727
-8.454418 7.331203 13.257009
-7.795072 7.553658 14.013244
-8.403007 8.372155 5.221814
-8.587105 8.239053 13.016727
-7.8045154 8.126319 14.165728
-7.662155 8.276353 15.209263
-8.189539 8.939332 5.2667837
-8.50824 9.364597 5.779664
-8.457303 9.302907 12.756879
-7.754154 9.012891 14.605406
-7.58508 9.149816 15.145483
-8.137699 9.902178 5.9175286
-8.192918 10.063498 6.529748
-8.013839 9.996072 7.2056985
-8.129672 10.080669 8.376634
-8.280941 10.13249 9.357872
-8.305371 10.283372 10.474734
-8.543209 15.183572 8.553388
-8.690408 14.966959 9.183382
-8.243978 14.897687 10.259797
-8.036011 15.022298 10.739765
-8.241361 16.308321 7.262868
-8.384071 16.02998 7.5935
-8.633379 15.65233 11.376809
-8.974845 16.299168 11.892696
-8.659778 16.755566 7.0109243
-8.7413025 16.357971 7.4544244
[...]
POINT_DATA 5772
SCALARS features_00 float 1
LOOKUP_TABLE default
0.47411495 0.39968234 0.5136961 0.527426 0.37382513 0.48511392 0.5409716 0.56233764 0.35047176 0.48069397 0.61121714 0.64748687 0.4021333 0.53884447 0.6747942 0.71110994 0.7040719 0.7268609 0.50371283 0.55094254 0.6221356 0.61166334 0.5825855 0.42644823 0.45736992 0.43369138 0.4874027 0.5763817 0.58856297 0.37172276 0.35737595 0.33910242 0.55289465 0.56349427 0.5762558 0.2872156 0.28632933 0.56593394 0.57650375 0.24539204 0.29935065 0.67615676 0.6701151 0.31397527 0.3437522 0.48542678 0.7290778 0.72004807 0.4551895 0.56903493 0.7052296 0.7338675 0.7329188 0.58951026 0.69698775 0.7135525 0.6602534 0.58733606 0.5922633 0.45610106 0.5537054 0.6034144 0.61386734 0.38557535 0.44603688 0.6039206 0.60169697 0.39609876 0.5855896 0.27737167 0.5872071 0.19553274 0.63495 0.20537338 0.2538821 0.7129811 0.28051084 0.70827514 0.71673167 0.45161003 0.634385 0.66371727 0.6712872 0.28477466 0.6168416 0.34697577 0.60477376 0.411767 0.70598906 0.6937128 0.6581534 0.6023799 0.5755865 0.71024257 0.7098061 0.6866787 0.64504075 0.7188262 0.7055825 0.5314628 0.5346879 0.5226068 0.5452576 0.55023766 0.573042 0.5948365 0.4359363 0.6021626 0.6128874 0.61021113 0.6031132 0.2772039 0.5718707 0.22416052 0.55239624 0.5283073 0.03620877 0.029098658 0.6057348 0.14074732 0.672807 0.21495397 0.57797015 0.63036764 0.2649076 0.26132962 0.5727367 0.34196448 0.64523065 0.590333 0.5422816 0.4461217 0.3912511 0.7115164 0.7057757 0.557428 0.45305982 0.71938896 0.72663105 0.7228329 0.6344197 0.530259 0.7252202 0.72496307 0.72328097 0.7104957 0.64389753 0.4912895 0.5580409 0.6136808 0.6125517 0.5045014 0.49462655 0.48321712 0.46633324 0.5258208 0.61342305 0.5824404 0.51596135 0.5331948 0.52554685 0.5149286 0.51172316 0.5617931 0.5136051 0.529901 0.54008895 0.53139484 0.49323347 0.4637925 0.44861683 0.44168383 0.5240625 0.4733144 0.45658338 0.43412587 0.4316125 0.38742197 0.44591516 0.5212604 0.5824777 0.39827242 0.36460784 0.58236456 0.60531056 0.50338805 0.4650876 0.38050693 0.30591676 0.58605736 0.56511545 0.4991892 0.47879177 0.41850695 0.49177527 0.4693884 0.46474513 0.3804394 0.37520438 0.025591351 0.35873258 0.3171345 0.15886538 0.41348028 0.48091793 0.22203885 0.42130095 0.22178338 0.36665887 0.70317066 0.3902683 0.3567055 0.71218055 0.7159058 0.5566735 0.48970455 0.707481 0.71935904 0.7186345 0.6764322 0.6202614 0.527336 0.61116433 0.39731622 0.36623085 0.45833105 0.5297021 0.62027216 0.60056245 0.5609135 0.47318488 0.4811756 0.5481285 0.5145674 0.4768216 0.47886565 0.49348015 0.47609928 0.42505985 0.49530149 0.5015761 0.4062724 0.5046208 0.5128784 0.45653188 0.39623678 0.3917564 0.43840587 0.35541877 0.40336037 0.4581864 0.4099431 0.4496543 0.4309765 0.07284424 0.23392522 0.5548449 0.5018866 0.55062044 0.49801213 0.40400523 0.41632515 0.27101564 0.28443697 0.33576727 0.22588511 0.25246993 0.09808983 0.20980993 0.1460819 0.18684343 0.20556945 0.20408331 0.24052955 0.1301125 0.5825819 0.20141481 0.20578748 0.6576927 0.6722239 0.6682981 0.45072937 0.38974884 0.65562165 0.58685267 0.6147929 0.5950141 0.5542869 0.5266048 0.57694155 0.44246012 0.41319424 0.39634925 0.5215736 0.59076524 0.5431888 0.4943457 0.46056178 0.34747654 0.5650909 0.51829493 0.47990328 0.48235095 0.44050014 0.47742987 0.3620132 0.26930672 0.48809233 0.300964 0.28183198 0.39418092 0.4908718 0.49648327 0.30462345 0.34659365 0.44075033 0.4461855 0.40188783 0.33123618 0.22460514 0.24131262 0.29968122 0.44295567 0.47430924 0.3410652 0.19352503 0.39512706 0.40941924 0.008530505 -0.021358885 0.4557101 0.4464619 -0.15845096 0.46322435 0.30777368 0.3020769 0.14625809 0.21709874 0.17983097 0.08710823 0.16147391 0.15244003 0.203042 0.049190775 0.25110894 0.1689768 0.21691267 0.23426172 0.31723017 0.61535376 0.56558836 0.52520645 0.5746596 0.5745158 0.54347026 0.5244684 0.53234714 0.49686545 0.44125366 0.43052042 0.41262907 0.46441418 0.4435187 0.42925674 0.3903567 0.4374094 0.40452245 0.55648273 0.5032641 0.43463564 0.56312376 0.5505711 0.35772884 0.25868157 0.33378053 0.49412745 0.4837873 0.37879747 0.42119187 0.45369577 0.42049092 0.5189702 0.4577092 0.2835217 0.4957388 0.578898 0.59504277 0.39286 0.42321667 0.33930618 0.22681393 0.47521865 0.5506641 0.57140017 0.18062916 0.20955497 0.21392146 0.10334135 0.4335873 0.3879478 0.033127576 0.33145308 -0.041232035 0.07494839 0.06694602 0.31517702 0.06537727 0.22666985 0.09556917 0.13229665 0.12294778 0.10674888 0.053655755 0.06060566 -0.03772524 0.23184048 0.14373265 0.16477828 0.25602734 0.23657173 0.23230156 0.34421253 0.41392145 0.124122426 0.41202793 0.4675894 0.48870552 0.42561263 0.47812545 0.39871877 0.5268378 0.52233696 0.4673174 0.46486366 0.42359245 0.45605206 0.43913567 0.4229107 0.4054976 0.52362 0.49417013 0.44901806 0.5788721 0.52658224 0.27136135 -0.056117833 0.59418476 0.28882217 0.33204183 0.5245546 0.36377037 0.4227327 0.50777954 0.47081852 0.465231 0.60566336 0.4056742 0.6021204 0.34859377 0.5039718 0.55098295 0.21642804 -0.006300207 -0.021146376 0.48407835 0.49407607 0.12675011 0.031551007 -0.19841924 -0.34720322 -0.0363473 0.3015458 0.1385876 0.33992895 0.18527862 -0.0056002177 0.06301782 0.04480409 0.43719208 0.28790393 0.2782868 0.07351753 0.050018832 0.47327712 0.3256501 0.21844454 0.071729414 0.024306402 0.038009994 0.08848873 0.09793604 -0.06255932 0.11227895 0.03528369 0.05574319 0.22095272 0.31510472 0.38695437 0.18953303 0.46183765 0.2399596 0.5104174 0.3256887 0.5431994 0.5330437 0.17806819 0.26634386 0.23087431 0.52633584 0.58459866 0.5874678 0.40686607 0.5226782 0.46778548 0.423564 0.34004608 0.17512009 0.051294267 0.046435162 0.043454308 0.5950297 0.5831773 -0.02040939 -0.023995798 0.16383901 0.58436394 0.27984262 0.28763387 0.65051836 0.63528955 0.628664 0.5275904 0.4023394 0.7001285 0.67862946 0.6633283 0.41056287 0.5897419 0.7225588 0.72441125 0.7215961 0.27730352 0.5813254 0.07981945 0.53218293 0.16747047 0.38541153 0.48612022 -0.2004374 -0.21394387 0.073750295 0.26689595 -0.019909255 0.029090509 -0.04989738 -0.45517758 -0.46414196 -0.21709843 0.39098534 0.30400002 0.218716 -0.05798465 -0.10782345 0.498199 0.44987395 0.38699687 -0.005217517 -0.061171368 0.5192732 0.4861288 0.4581241 0.48187232 0.4727568 0.43250418 0.38676107 0.42741278 -0.077589124 -0.060054027 -0.1152704 -0.11975214 -0.11236307 0.052057482 0.04666005 -0.16318381 0.037855208 0.4426595 0.53048426 0.2565356 0.27658036 0.5687654 0.37207133 -0.0087066535 0.5957761 0.19651973 -0.029230684 0.008737532 0.4469493 0.5738123 0.61818784 0.68389094 0.64573914 0.369924 0.19278853 0.110566095 0.1792801 0.226462 0.30283678 0.27532914 0.26131997 0.6808294 0.70543003 0.6811422 0.6269507 0.4478486 0.30956164 0.058471106 0.13131322 0.15852597 0.15184468 0.6675513 0.69964075 0.67034996 0.56407976 0.5124084 -0.066309735 0.6125381 0.6389618 0.60351694 0.5174163 0.5344435 0.48282427 0.40651298 0.50948036 0.52893746 0.2025773 0.57387525 0.53381264 0.6501806 0.62351954 0.6014256 0.58425814 0.51888067 0.4410779 0.42316043 0.7120837 0.7152524 0.6477894 0.5808263 0.44180918 0.47941178 0.73726314 0.7467222 0.72245264 0.6713579 0.60380065 0.46055102 0.7512374 0.7394762 0.44008413 -0.022624485 -0.097861774 0.40718234 0.3895741 -0.057219245 -0.06969615 -0.22211167 0.11722874 0.10323996 -0.26260683 0.08428287 0.30080044 0.28480458 0.26750073 -0.23028937 -0.12338397 0.100678965 0.31146532 0.5025023 0.61857504 0.64690244 0.73081857 0.6267771 0.44791532 -0.089019336 -0.080625065 0.0436946 0.49181822 0.6295971 0.6558288 0.31933448 0.40082556 0.049953923 0.28832412 0.18976842 0.25437915 -0.17621309 -0.009322472 0.05348017 -0.07576342 0.26449534 -0.0061730295 0.3442167 0.24463382 0.15671934 0.3803215 0.3694753 -0.007879622 0.2702389 0.3476166 0.1720376 0.51200294 0.50036246 0.1980897 0.5398535 0.29606375 0.57857525 0.55980456 0.32063898 0.34745726 0.36366612 0.030933494 0.5836569 0.5964454 0.39346555 0.26933676 0.18967734 0.061757512 0.083102845 0.35887173 0.50867087 0.573985 0.16429196 0.2484044 0.4406789 0.42888582 0.41433495 0.6635623 0.6682588 0.6411891 0.5218942 0.062624276 0.14522234 0.2803734 0.32297572 0.37060988 0.6247977 0.6503595 0.5423169 0.29211777 0.3378238 0.29616213 0.22465152 0.21819428 0.2642851 0.609174 0.62974447 0.5143954 0.34268177 0.37564206 0.36826092 0.2716747 0.4252001 0.27595535 0.56465495 0.5892715 0.37170613 0.2277709 0.1468701 0.37938556 0.3127156 0.26997915 0.4145233 -0.04578042 0.5574408 0.5601484 0.5297475 0.45358032 0.13356686 0.3693586 0.33460426 0.18076459 0.030438617 0.5592313 0.55224156 0.51947975 0.44124883 0.6824291 0.36159652 0.3007888 0.63513637 0.6874236 0.50473094 0.11286542 0.7139381 0.65878254 0.6676763 0.6308506 0.5589005 -0.07160999 -0.04025901 0.26359499 -0.11548408 -0.2087428 0.07415045 -0.13384807 -0.069312505 0.106634 0.15562163 0.22580574 0.2853192 0.6206114 0.45492053 -0.055096816 0.39736128 0.4738673 0.57522815 0.76489264 0.740299 0.58835304 0.20598406 0.6389034 0.656878 0.77991927 0.7470894 0.6075804 0.6309451 0.6690649 0.6727469 0.7216337 0.68467784 0.5329695 0.41526976 0.05780859 0.41725776 0.57509387 0.65782213 0.67736495 0.5777582 0.49143276 0.17574349 0.061951213 0.03575919 0.27832243 0.17518659 -0.015897594 0.084597394 0.07732956 0.05121624 0.16159399 0.073033236 0.0809514 0.28659093 0.2509919 0.33645123 0.35122436 0.074663155 0.23007813 0.36283427 0.39205605 0.40105084 0.3679011 0.26522866 0.48110116 0.34360075 0.28929824 0.14636517 0.46700037 0.5030384 0.22247815 0.54851574 0.54198927 0.2737897 0.2563169 -0.02525138 -0.00668779 0.16079077 0.36678043 0.51392543 0.55984867 0.32645082 0.32126695 0.25063515 0.1556123 0.18743208 0.43190813 0.60724247 0.56657064 0.32473183 0.3031344 0.5686549 0.51184404 0.35725832 0.37528682 0.3295804 0.38475287 0.50501394 0.48317087 0.39109993 0.21973509 0.29444462 0.43869215 0.4120041 0.078294545 0.19034827 0.46779487 0.45019555 0.45081043 0.520677 0.5482412 0.32571658 0.1908974 0.2530312 0.20756453 0.17266002 0.2868211 -0.12115108 0.4091357 0.4174857 0.5640273 0.54566425 0.39512116 0.278255 0.27176833 0.04831312 0.06667488 0.29839206 0.51445067 0.17895177 -0.124023125 0.09906558 0.05028562 0.4762221 0.5134949 0.21588583 0.13129541 -0.0101251025 0.11702433 0.22012307 0.4911533 0.5334344 0.23212665 0.005611412 0.27321392 0.5486891 0.30521008 0.23356181 0.36387363 0.24291614 -0.24198511 -0.34087378 0.101914704 0.19422764 0.5287385 0.53300333 0.5360609 0.44363293 0.5815682 0.48607498 -0.120998666 -0.18892768 -0.24621235 -0.11940387 0.482302 0.47936702 0.61108243 0.52868414 0.07208644 -0.1123501 -0.059010547 -0.111860014 -0.1962063 -0.108346224 0.10288016 0.14566873 0.063990176 -0.14342953 0.41374612 0.29455382 0.40169942 0.008754849 -0.13310587 0.37434965 0.471007 0.7183902 0.69465107 0.64026767 0.7590021 0.76616716 0.6777835 0.6882247 0.6200023 0.66921246 0.6838057 0.5749509 0.50468606 0.43298823 0.29033262 -0.01782155 0.46121562 0.14343634 0.049922377 -0.04637834 0.021618769 0.08378335 0.058635358 0.2129853 0.030374132 0.05477196 0.053244676 0.025395606 0.317952 0.37376612 0.3872823 0.3984766 0.4284772 0.35083026 0.2663889 0.026731996 0.4214856 0.08568816 0.13392541 0.50159043 0.2159819 0.052999433 -0.10155619 0.009290174 0.4500786 0.2647898 0.24908978 0.24952523 0.56301254 0.5675025 0.5292376 0.49643552 0.5280408 0.54419446 0.42273277 0.4523999 0.4591916 0.4412647 0.61583596 0.6310406 0.58505464 0.48656327 0.4049881 0.40775436 0.37540287 0.23769316 0.10415304 0.51940197 0.6020937 0.6258204 0.55751944 0.4657986 0.37899745 0.3740253 0.35684794 0.30617264 0.2493065 0.24018851 0.21961343 0.17970234 0.52525073 0.37101105 0.2359704 0.19582173 0.22751151 0.17203963 0.26719669 0.446236 0.4645937 0.46564242 0.34900826 0.08420102 0.13888839 0.07913677 -0.01994846 0.07624547 0.4643211 0.47196433 0.4913814 0.18507323 0.153436 0.07931677 0.07365403 -0.040727083 0.4372739 0.47055042 0.06332552 0.0461358 0.035456225 0.39745107 0.4218353 0.14726883 0.03904564 0.06593469 -0.14537084 0.06954791 0.41565955 0.10773416 -0.3911302 0.3052819 0.44300634 0.06064271 -0.44665557 0.33640403 0.3563565 0.47338164 0.50171566 -0.16888158 0.17625508 0.46970227 0.12699118 0.20243432 0.07029846 0.4344324 0.43287006 0.41841495 0.41466415 0.3439112 -0.01711873 0.13921508 0.17731364 -0.3909186 0.11569994 0.19794461 0.008834127 0.030966736 0.18007486 0.4626585 0.42164272 0.30841687 0.66485167 0.6281291 0.65676934 0.6776867 0.5515802 0.5791337 0.6269553 0.6764034 0.50428796 0.43035978 0.413656 0.6329905 -0.11430156 0.02937217 0.12835361 0.13497941 0.41013137 0.4867012 0.12970185 0.0030089952 0.46946877 0.51626974 0.5103837 0.24216044 -0.16771966 0.18029429 0.3720825 0.49298233 0.5191084 0.33401364 0.06490708 0.5074512 0.3737224 0.3719859 0.3083209 0.35633922 -0.0057502165 -0.10173177 0.060070947 0.069373205 0.07885212 0.042795867 -0.12018025 -0.033157647 0.5546 0.566785 0.5464063 0.4938521 0.5562502 0.57169896 0.5131909 0.36475253 0.39527518 0.4729336 0.4424842 0.36103767 0.39298087 0.2790208 0.07155841 0.20727634 0.5564835 0.5931995 0.6166375 0.58338356 0.4500608 0.36626107 0.37114906 0.4011811 0.05596737 0.015998203 0.12796801 0.5116319 0.5677105 0.4020689 0.3182577 0.37696767 0.3717674 0.08175926 0.06658726 0.4075126 0.26002127 0.31079894 0.15874968 -0.16838276 -0.0046970397 0.31883729 0.3950234 0.4523074 0.24310848 0.041975647 0.06554975 -0.1629915 -0.034689777 -0.010165557 0.46408954 0.498155 0.51515305 0.12787043 0.07845798 0.06685471 -0.12632996 0.49425572 0.48529693 0.014934227 0.08013716 0.008020848 -0.006623931 0.43082917 -0.0039549917 -0.14024074 -0.10046374 0.3474242 0.32528362 0.2873595 -0.0073604286 -0.43986627 -0.3116806 0.44132316 0.4649396 0.38335425 -0.04921124 -0.4238484 0.4076758 0.45282152 0.39991736 -0.022996686 -0.3286107 0.42078206 0.3898522 0.40655845 -0.24550956 0.2559296 0.35230204 0.3083827 0.22090232 0.2801081 0.30588308 0.16458678 0.13881329 0.2460856 -0.15087047 -0.23935226 0.23464625 0.3119678 0.6647318 0.43338174 -0.13028616 -0.22627112 0.63218194 0.7252837 0.6288259 0.3935395 0.14205441 0.69446445 0.7401743 0.71545804 0.72633624 0.7312223 0.70338404 0.22604504 0.44395864 0.50922585 0.4708679 0.40075988 0.3071375 0.31138486 0.30602962 0.4207803 0.010964841 0.43085122 0.4478 0.06411353 0.4893456 0.50834227 0.48501113 0.37038583 0.5018155 0.48160833 0.4650601 0.3216235 -0.07077479 0.25538468 0.11885406 0.16965568 0.16824988 0.13454224 0.07758798 0.117934935 0.22944874 0.16042385 0.03727658 -0.039311007 -0.10313086 -0.058447093 -0.048538566 0.40335792 0.49992853 0.5466616 0.5196155 0.35868356 0.45452324 0.49451315 0.35037637 0.31012514 0.36921003 0.20296833 0.18166257 0.29777354 0.31735206 0.55692047 0.50331235 0.35741505 0.2704817 0.309821 0.122853205 0.09057601 0.24273026 0.26033938 0.23406684 0.55954874 0.56550455 0.37568766 0.27827835 0.36591762 0.062116276 0.43072462 0.49100393 0.099799186 0.025828432 0.13837487 -0.22989887 0.16530801 0.5345946 0.40260392 0.0018634796 -0.0044662505 0.2016931 0.20816147 -0.13083476 0.184185 0.38050056 0.28802842 -0.0650281 -0.17190616 0.37966475 0.47064254 0.523793 0.0482278 0.51539594 0.49890962 0.030079588 0.4439171 -0.044582505 0.47504044 0.48320165 0.33894604 -0.5386567 0.48467183 0.36377114 -0.61160165 0.3500713 -0.53571916 -0.38537335 0.34140494 0.18335348 0.050631955 -0.27191553 0.38424772 0.12883966 0.07945237 0.16280493 -0.010104395 0.42975593 0.37990034 0.47190738 0.11810876 -0.085404105 0.3874975 0.51591015 0.58332103 0.4259107 0.13336317 0.5609385 0.64428115 0.1791252 -0.003620088 0.7018566 0.7135408 0.63571894 0.5100801 0.35997295 -0.113538384 0.08179215 0.16067652 0.24828936 -0.03358964 0.55369586 0.29281694 0.29319012 0.59674835 0.56776816 0.48186165 0.30684277 0.23686226 0.3184955 0.5206343 0.49659175 0.35042053 0.43030855 0.4233545 0.049700864 0.34140158 0.22630991 0.13259463 0.3736802 0.027170148 0.16317265 0.37295103 0.39026248 0.07199443 0.023158364 0.22505939 0.063287735 0.2605911 0.25576878 0.24198934 0.158479 0.06398216 -0.048805937 -0.09794408 -0.06612984 0.31986895 0.33935812 0.4182788 0.32422626 0.28133333 0.23696694 0.31005678 0.3203501 0.22239181 0.27214774 0.32554057 0.48253483 0.6048314 0.66580546 0.31500062 0.23607336 0.18159209 0.19686705 0.2961255 0.19382355 0.32129425 0.58199203 0.6746255 0.7475483 0.44753885 0.45441642 0.17164569 0.05941336 0.042017862 0.23182975 0.104540706 0.21918683 0.6967138 0.7176292 0.03865207 0.0087243635 0.35970062 0.34852767 0.37760332 0.34202725 0.3875845 0.48975134 0.5155758 -0.08013277 0.4864344 0.4887328 -0.029919557 -0.20625846 0.4116052 0.027283803 0.29753575 0.4220657 0.44210568 0.45913106 0.2757008 0.4433497 0.27941024 0.27240202 0.3685253 0.38513285 0.2521376 0.21594174 -0.36469305 0.4505218 0.15513037 0.121848986 0.45635283 0.15048617 0.38752672 0.43326086 0.34241793 0.058753014 0.15669587 0.5132803 0.59178567 -0.053636942 0.64348197 0.6568999 0.52239394 0.26322004 0.03340239 -0.18093449 -0.20400095 0.63313925 0.59098023 0.511022 -0.40730482 0.5228371 0.12783086 0.5994465 0.16705152 0.5710839 0.53301984 0.48662388 0.4341951 0.51495993 0.45186004 0.31422046 0.446095 0.4771806 0.29816565 0.23992467 0.43241465 0.47078818 0.5030465 0.3911438 0.44567195 0.49002278 0.50014704 0.12490894 -0.07890603 0.2445614 0.00088527054 0.26716185 0.27727637 0.27320907 0.061642498 0.1569076 0.19775008 0.33295423 0.35436636 0.37362888 0.42783165 0.42930657 0.86468196 0.91370416 0.94813085 0.7068316 0.8626478 0.95323086 0.9814514 0.703547 0.8478891 0.9581046 0.98899585 0.6654372 0.78994274 0.87920856 0.2264674 0.24431418 0.2824319 0.27933544 0.2674812 0.116831996 0.24239363 0.276247 0.18158785 0.16602881 0.22814244 0.4148602 0.58791053 0.6698079 0.71481377 0.074086584 0.055427816 0.042274415 -0.011760249 0.09627661 0.7414078 -0.026278542 -0.03945125 -0.08032998 -0.08931472 0.65956414 0.09777127 0.53249294 0.33812708 0.43072867 0.22392182 0.44418943 0.2225894 0.04510268 0.30170485 0.38413858 0.43110117 0.29786724 0.3097219 0.39090484 0.065879405 0.21642193 0.32686025 0.32910067 0.35148972 0.26640683 0.21393958 0.2547381 0.2843445 0.32672858 0.38805854 0.27718917 0.25008008 0.41028523 0.22137198 0.41708225 0.18151419 0.33859938 0.39299095 -0.005153008 0.50401574 -0.25439537 0.57181466 0.584887 0.28802672 0.145114 -0.20922777 -0.26439196 0.57359934 0.48110867 0.42909324 0.1016398 -0.28291517 0.41694266 0.5188046 -0.06373974 0.069865465 0.58946836 0.36448115 0.41821307 0.5590067 0.5353949 0.45827264 0.5238415 0.41149074 0.4945338 0.35941574 0.52143216 0.41074306 0.45110947 0.42275447 -0.098343536 -0.119100966 0.5611931 0.54986656 0.44586876 0.26591596 0.22778176 -0.0062481984 0.16715485 0.035597127 0.55913234 0.5729146 0.57937026 0.17835653 0.02795889 0.11216791 0.57173467 0.22944246 0.23331872 0.24116771 0.23423305 0.40037912 0.37140536 0.44993794 0.49229425 0.52393454 0.9267657 0.79531795 0.84447026 0.6887753 0.80390495 0.8856814 0.93908596 0.40625516 0.7461637 0.975019 0.28960344 0.25613463 0.28510803 0.6042838 0.97599155 0.32493195 0.30328885 0.24399942 0.21594508 0.40789527 0.57464916 0.7392225 0.8813557 0.92686677 0.2849478 0.2979286 0.33574483 0.3078693 0.24911785 0.594547 0.7030624 0.28369793 0.32525167 0.332304 0.33105916 0.33032626 0.2680859 0.28532195 0.35183436 0.30553818 0.32515705 0.23067376 0.15072277 -0.053783737 0.23206422 0.21526852 0.5183738 0.50177586 0.44257185 0.35001373 0.40353465 0.3736871 0.16854104 0.20373559 0.14316733 0.31961465 0.46927094 0.62957317 0.6808913 0.11372712 -0.029631678 -0.055453725 -0.10208605 -0.015428424 0.6695595 0.49087676 -0.07836417 0.5965979 0.526209 0.55431134 0.52572453 0.40197158 0.44481456 0.5508759 0.5440787 -0.028370813 0.515587 0.47557324 -0.08075036 0.47409347 0.38032827 0.23584908 0.33670136 0.02801305 0.26597065 0.097537264 0.20315173 0.13522671 0.17670463 0.29811898 0.06584573 0.114735425 0.20033357 0.2696567 0.13355696 0.18702118 0.28071278 0.25498176 0.276392 0.28694814 0.2487945 0.37156713 0.27113912 0.23732129 0.14827994 0.39722925 -0.1519798 -0.18594208 -0.21046329 0.45855272 0.49752617 0.485169 0.33341035 0.17766982 0.55005264 0.5208609 0.48567957 -0.102021545 -0.09264192 -0.089606665 0.