# vtk DataFile Version 2.0
Really cool data
ASCII
DATASET POLYDATA
POINTS 6923 float
-12.509862 -4.5393367 35.74658
-11.750281 -6.941299 33.843796
-11.807005 -6.945684 34.40429
-11.783228 -6.8464403 34.962303
-11.889379 -6.358885 33.75299
-12.044828 -6.3649263 34.554737
-11.962277 -6.2716293 35.15284
-11.787384 -6.060915 35.785896
-11.978629 -5.694268 33.767097
-12.213409 -5.504245 34.574986
-12.272984 -5.2807374 35.44407
-11.9802475 -5.233794 36.165554
-11.902072 -4.6132197 34.03865
-12.280988 -4.5920577 34.78688
-12.415444 -4.5480523 35.53309
-12.216118 -4.416555 36.125233
-11.729865 -4.8712025 36.662655
-11.724381 -4.02118 34.035313
-12.021269 -3.890101 34.862633
-12.15531 -3.7993722 35.54202
-12.052765 -3.9189334 36.171684
-11.603144 -1.9510936 41.61869
-11.6716175 -1.4264141 41.67389
-11.637567 -1.4450977 42.080936
-11.648419 -1.011982 41.70128
-11.604503 -0.9807003 42.092407
-11.035345 -6.9297843 33.023335
-11.409519 -7.18657 33.79241
-11.397067 -7.343411 34.335476
-11.36482 -7.1050005 35.200577
-10.707499 -5.8732905 29.216747
-11.2682 -6.0610743 33.016537
-11.324532 -6.287604 36.084293
-10.55343 -5.0827026 27.713253
-10.644226 -5.380752 28.426758
-10.752 -5.39093 29.202877
-11.289327 -5.911006 32.996452
-11.376043 -5.7434387 36.5394
-10.66032 -4.7785287 28.802813
-10.6536045 -4.693434 29.32551
-11.410011 -4.2234745 33.46809
-11.62535 -4.250552 36.73054
-11.196796 -3.9017649 33.2832
-11.38924 -3.8346324 33.68601
-11.338585 -3.823596 36.72195
-10.822689 -3.0271358 40.960907
-11.006431 -2.8036911 41.130802
-10.784385 -2.9001417 42.01616
-10.776209 -3.1147728 34.09064
-11.299071 -3.2681808 34.37422
-11.492112 -3.2059228 35.513977
-11.453608 -3.27608 35.977867
-11.039124 -2.105622 40.77008
-11.344359 -2.3195791 41.645283
-11.237052 -2.1794772 42.301018
-10.850731 -2.1910934 42.694664
-11.464311 -1.4977472 40.965134
-11.482802 -1.4020387 42.40209
-11.15439 -1.4083185 42.76857
-11.302321 -0.90207535 40.993378
-11.380527 -0.5477724 41.63967
-11.330086 -0.6845486 42.35092
-11.302693 -0.9519598 42.665127
-10.878112 -0.25025678 41.09548
-11.039074 -0.11823273 41.72156
-10.990601 -0.15709218 42.289936
-10.513284 -7.634201 33.963554
-9.811887 -6.712245 27.400114
-9.892991 -6.720512 29.556625
-9.775691 -6.767049 32.150402
-10.476403 -7.5330734 33.49848
-9.836224 -5.994533 25.938995
-10.127412 -6.174939 26.617804
-10.094128 -6.423952 27.900223
-10.347475 -6.297836 28.71966
-10.548582 -6.050511 29.468056
-10.166066 -6.2495174 30.078375
-10.5707245 -6.283981 32.566746
-9.772897 -6.3931108 37.317036
-10.0768175 -5.4762263 26.036552
-10.295618 -5.555442 26.490118
-10.4601145 -5.3312793 27.513788
-10.344575 -5.3907056 31.565666
-10.5778055 -5.2047143 32.46507
-10.297197 -5.048928 37.34896
-9.851572 -5.154277 37.858284
-9.8914995 -4.7470145 26.012203
-10.177887 -4.693511 26.647213
-10.2974415 -4.4833407 27.640957
-10.444256 -4.261049 29.630089
-10.238691 -4.562164 30.505533
-9.687705 -4.48139 37.729908
-10.31752 -3.7452068 40.82228
-9.981304 -3.9243703 41.513134
-10.014487 -3.7062426 41.93558
-9.802273 -4.0247793 26.79521
-10.016156 -4.088737 27.676914
-10.089779 -3.7776544 28.722076
-10.14413 -3.8609948 29.297945
-9.892612 -3.8622985 30.43309
-9.800826 -4.0925455 31.223263
-10.393565 -3.7630217 32.75338
-10.640832 -3.84753 36.936348
-9.68056 -3.1393282 39.495995
-10.428311 -3.5278606 41.30252
-10.385348 -3.094771 42.176914
-10.171961 -2.9211605 33.83967
-10.277563 -2.8319824 34.520496
-10.493861 -2.9763403 35.539783
-10.243905 -3.1336548 36.268852
-10.285653 -2.362046 40.01109
-10.714974 -2.6440797 42.506016
-10.583799 -2.103993 42.893898
-10.648674 -1.2970628 40.29742
-10.500906 -1.4798491 43.100754
-10.195636 -0.70235544 40.29783
-10.290371 -0.38423228 40.65698
-10.46774 -0.6556181 43.076675
-10.203309 0.072731435 41.02382
-10.659863 0.16821077 41.315186
-10.407378 0.13497141 42.65115
-9.605238 1.7407335 33.673462
-9.594019 2.3478768 33.74719
-9.557722 2.3895254 34.188366
-9.652176 2.7659996 44.443306
-9.680121 2.9626052 45.32837
-9.617253 3.5089285 44.84894
-9.665045 3.3640425 45.736942
-9.595376 3.3038363 46.145027
-9.564703 3.8845944 45.132244
-9.766389 14.702579 35.611397
-9.871292 14.784552 36.478046
-9.873195 15.023944 37.06139
-9.702996 15.398576 34.94024
-10.131522 15.670865 35.76452
-10.345147 15.640411 36.61307
-10.202986 15.785564 37.21276
-9.843938 15.84991 37.62563
-9.766554 16.302397 35.150723
-10.357005 16.134901 35.955093
-10.417748 16.380314 36.66218
-10.20611 16.43879 37.248886
-9.894769 16.232664 37.65425
-9.71924 18.022795 33.379173
-10.113413 16.993652 36.5872
-9.995982 16.901003 37.231407
-9.902235 18.718086 32.779587
-10.053002 18.697277 33.48097
-9.75844 18.323524 34.042503
-9.970153 19.423218 32.834934
-10.087567 19.462652 33.42344
-9.958336 19.39556 33.976833
-9.831736 19.851791 32.95426
-9.878546 19.929047 33.37617
-9.717883 19.967682 33.85501
-8.867571 -12.945829 37.131104
-8.880676 -13.072774 37.44647
-8.965811 -12.960928 38.341213
-8.707426 -13.003371 39.40317
-8.910833 -12.261532 36.72653
-9.204659 -12.508565 37.560665
-9.263859 -12.245125 38.49863
-9.015984 -12.410311 39.361202
-8.782312 -12.310877 40.07935
-8.611618 -10.943753 33.525173
-9.049737 -11.403668 36.544163
-9.307281 -11.594854 37.631668
-9.343521 -11.784138 38.48777
-9.231388 -11.682836 39.173378
-8.852352 -11.754017 39.90905
-8.604792 -10.434412 33.07576
-8.795099 -10.170044 33.488277
-8.680646 -10.318806 34.1771
-9.025433 -10.217121 35.85163
-9.153265 -10.184626 37.579517
-9.019285 -10.456657 38.307556
-8.880748 -10.877018 39.69767
-8.652474 -10.91098 40.32299
-8.756801 -9.097372 32.79009
-8.816286 -9.514764 33.84874
-9.042466 -9.065963 34.494904
-9.187164 -9.444898 37.61069
-9.216952 -9.895941 38.07955
-8.732857 -10.08806 39.39236
-8.919333 -8.679808 33.320038
-9.35879 -8.574908 35.208637
-9.192941 -8.616514 36.50378
-9.378511 -8.164836 37.158092
-9.185353 -8.723978 38.253033
-8.748301 -8.59402 39.06359
-9.140497 -6.6686954 26.086288
-9.303898 -6.8392925 26.639088
-9.138682 -7.1747713 27.583445
-9.158601 -7.1863766 28.336527
-9.691101 -6.8851695 29.609371
-9.520773 -6.828075 30.431274
-9.720083 -7.0627775 32.391777
-9.4492235 -7.78209 37.779194
-9.066267 -7.003343 39.026695
-8.92476 -5.9414234 25.38717
-9.345304 -6.231716 25.770351
-9.701703 -6.5195312 26.411783
-9.09542 -6.23543 39.141575
-8.786921 -5.995752 39.875313
-9.123438 -5.384592 25.36078
-9.519409 -5.639773 25.539255
-9.300463 -5.7283845 38.515064
-8.895317 -5.5835295 39.476315
-9.070098 -4.877948 25.360521
-9.414007 -4.70867 25.639904
-9.338034 -4.6203656 38.328583
-9.6108265 -4.2923675 40.493145
-9.60831 -4.213836 41.419125
-9.314101 -3.9069824 41.96181
-9.186525 -4.064706 25.968348
-9.41662 -3.8129482 26.558485
-9.347295 -3.5253932 27.636024
-9.645575 -3.5107734 30.242908
-9.621711 -3.671516 31.780914
-9.249834 -3.3989275 39.020557
-9.788426 -3.293681 42.496445
-9.594734 -2.881151 42.81231
-9.230118 -3.1829247 28.542076
-9.395313 -3.273841 29.438345
-9.250031 -3.2312195 30.082706
-9.536082 -2.9810946 33.4855
-9.604857 -2.5864916 34.90891
-9.46353 -2.530286 35.070293
-9.047713 -2.5382948 36.2125
-9.138851 -2.6702054 39.031006
-9.760083 -2.0238094 43.187397
-9.119718 -2.2806277 34.263844
-9.272645 -2.1999154 35.23731
-9.003718 -1.8088988 39.38392
-9.097915 -1.0593852 39.784115
-9.282532 1.0414351 33.40834
-9.195404 1.0253676 34.278618
-8.875395 0.94107133 34.820763
-9.383152 0.19055042 40.945656
-8.820843 0.3505091 43.563602
-8.934459 1.0864822 47.65689
-8.76708 1.0386353 48.219635
-9.148074 1.8256903 32.85598
-9.386715 1.3919821 33.357555
-9.404508 1.6164111 34.390335
-8.784916 1.5748423 35.2644
-9.099232 1.3933125 42.635723
-9.158271 1.7323341 45.27662
-9.074055 1.3948497 47.667553
-9.031705 1.6814687 48.269176
-8.704832 1.4740088 48.812008
-9.256032 2.356527 33.01488
-9.438577 2.5223992 33.472736
-9.466982 2.6653404 34.323082
-9.166041 2.616109 35.181225
-8.9099655 2.6895516 42.81476
-9.379082 2.5141385 43.586224
-9.524829 2.2707045 45.2637
-9.492104 2.582955 46.589386
-9.327699 2.6510377 47.244556
-8.985988 2.3414297 48.360214
-8.684253 2.5007038 48.724236
-9.005194 3.073191 33.182396
-9.203262 3.1988125 33.70217
-9.282771 3.3003507 34.49952
-8.991622 3.594816 35.334057
-8.804983 3.3096173 35.727016
-8.7324295 3.6663573 43.16181
-9.156545 3.5633965 43.908833
-9.401223 3.641764 44.47831
-9.451947 3.5038884 46.419586
-9.084841 3.2614484 47.23315
-8.808046 3.994942 33.770008
-8.934778 4.0344806 34.454018
-8.816887 4.0554333 35.24541
-9.1806345 4.367857 44.778893
-9.288029 4.342342 45.433167
-9.07768 4.2679777 46.213757
-8.885459 3.9155374 46.94991
-8.808494 4.7923045 44.661316
-8.956259 4.7544546 45.551743
-8.756802 4.7554884 45.91087
-9.371338 14.165526 35.561543
-9.041615 13.854777 36.49745
-9.259296 14.217041 36.96884
-8.749347 15.12091 27.962963
-8.8611555 15.08025 28.565248
-8.787642 15.202906 29.34045
-9.398454 14.744336 34.785484
-9.521942 14.425922 35.448467
-9.58476 14.369159 36.574623
-9.413494 14.754569 37.31616
-9.0418 14.950404 37.672543
-8.716099 15.991971 27.06462
-8.959453 15.721759 27.725023
-9.080045 15.585062 28.510899
-8.917319 15.5812 29.264336
-8.7418995 15.692114 29.783215
-9.189097 15.669738 34.109535
-9.490578 15.50652 34.64666
-9.605352 15.379861 37.547665
-9.465147 15.636408 37.753506
-8.856793 16.575888 26.951603
-9.130551 16.623653 27.539923
-9.19139 16.329647 28.338842
-8.867822 16.639278 29.107111
-8.833026 16.853369 33.045277
-9.323056 16.727945 34.76228
-9.729943 16.718214 37.591656
-9.440099 16.466084 37.782276
-8.831441 17.36857 26.99821
-9.038253 17.299519 27.465826
-9.085695 17.145304 28.272156
-9.545048 17.978794 32.635994
-9.508197 18.153322 34.323246
-9.46894 17.145594 37.39046
-9.236247 16.858416 37.7274
-8.777679 17.772575 27.499166
-9.24484 19.357048 32.135895
-9.575388 19.375486 34.49596
-8.936267 19.601452 34.907528
-9.509218 20.022049 32.80879
-9.333231 20.344402 33.550377
-9.224859 20.108458 34.24245
-8.864039 20.013332 34.75808
-7.9500246 -13.563134 39.51324
-8.352139 -13.144702 36.934883
[...]
POINT_DATA 6923
SCALARS features_00 float 1
LOOKUP_TABLE default
0.71701586 0.5382539 0.55351466 0.54633075 0.5549705 0.5816279 0.5812116 0.56313837 0.58750373 0.63752174 0.6510692 0.61069274 0.6100801 0.6911398 0.71923804 0.70756996 0.5768222 0.5852039 0.692111 0.742988 0.7317296 0.7941639 0.8059021 0.79318994 0.7956803 0.793738 0.4465137 0.50680727 0.499671 0.4728176 0.5398591 0.47426757 0.47116303 0.65000784 0.59865814 0.5555124 0.47379214 0.4692948 0.56207144 0.525074 0.49888647 0.63074434 0.44431478 0.5061877 0.65426695 0.62581176 0.67417836 0.6118489 0.42452556 0.52835876 0.66243964 0.69564223 0.774963 0.7504781 0.7283531 0.6777632 0.81347734 0.77724147 0.74257135 0.77232134 0.777382 0.7784629 0.763462 0.6904411 0.74166495 0.7528187 0.3363126 0.68901163 0.43083692 0.1788351 0.32571936 0.8576811 0.80342937 0.633399 0.54686004 0.50449795 0.39336973 0.39126694 0.056704227 0.8769933 0.83663154 0.68921125 0.22516203 0.3384272 0.22187243 0.07235763 0.8920964 0.81036896 0.6355028 0.45507598 0.35820812 0.0582188 0.4856002 0.43321294 0.46353626 0.7842299 0.62076753 0.49841797 0.4528408 0.32751006 0.22407255 0.26236907 0.5422268 0.3463312 0.5169631 0.552027 0.32031423 0.36549836 0.4468006 0.49196106 0.54091305 0.62499446 0.64777625 0.6501663 0.6623046 0.4966827 0.52588356 0.6880871 0.47762147 0.617648 0.6945628 0.5642563 0.5679151 0.5758599 0.504144 0.53905535 0.5558436 0.5548595 0.54644716 0.5801816 0.6177372 0.72315663 0.7438879 0.4713337 0.6653961 0.7908734 0.7683765 0.7430849 0.43427306 0.7280857 0.81003517 0.76068187 0.7349551 0.53386265 0.7722279 0.72596645 0.72135234 0.7264367 0.6439885 0.7730068 0.78138316 0.761018 0.76974356 0.773276 0.74538684 0.55688435 0.5802657 0.6204264 0.6093186 0.5028474 0.5798138 0.5856594 0.589832 0.572075 0.3756758 0.41082203 0.50502384 0.5224655 0.50756145 0.5358081 0.36693582 0.3053028 0.25267008 0.13813141 0.22957638 0.30749255 0.4259606 0.4662342 0.22000119 0.21845151 0.09626236 0.10930121 0.1996786 0.29996926 0.13206102 0.006520845 0.029980037 0.05831534 0.08470879 0.1299836 0.8020755 0.7559208 0.6515813 0.5397374 0.40612626 0.23980664 0.15881151 0.074511975 0.11469513 0.8691453 0.8465197 0.7961173 0.0841702 0.09297944 0.8933319 0.8830033 0.04618458 0.049142994 0.9053469 0.91054857 -0.0849086 0.2933293 0.34039232 0.33743054 0.8946164 0.83774686 0.63750637 0.32982296 0.06501411 0.11974482 0.45971334 0.46253765 0.4511671 0.37670213 0.3187474 0.23139188 0.30523562 0.29246017 0.24624506 0.17929366 0.5515598 0.17993464 0.23291212 0.21216735 0.2261781 0.5252442 0.49430877 0.40035444 0.17977962 0.29008806 0.46780622 0.4980572 0.51227653 0.5456564 0.54239917 0.4214136 0.10587234 0.42416266 0.50303656 0.5528169 0.5659288 0.50827664 0.54649293 0.58199966 0.5568285 0.2274999 0.36449075 0.5013559 0.5164851 0.54268736 0.57738 0.5847069 0.47712636 0.53558505 0.58986247 0.56536293 0.50185955 0.35462984 0.47867617 0.5441723 0.54454076 0.5244143 0.49971503 0.56177974 0.5582313 0.59584975 0.60013545 0.56789595 0.52103317 0.5914143 0.6078756 0.59153575 0.57091355 0.6201134 0.667537 0.7223016 0.68524194 0.61787057 0.43908918 0.568845 0.68595266 0.70608735 0.68798995 0.7606205 0.76922524 0.7191702 0.6418424 0.57877696 0.27351454 0.39876395 0.73690224 0.7235312 0.7823163 0.81137025 0.75671554 0.599523 0.11954144 0.2697464 0.7074875 0.6946975 0.77587116 0.7926145 0.74618137 0.5201307 0.5825093 0.6460712 0.6503897 0.76083195 0.66481704 0.70565784 0.58228344 0.74027777 0.73151314 0.6889019 0.6115205 0.5520452 0.5118911 0.56403315 0.6009517 0.5919964 0.580884 0.53259254 0.41944695 0.37609607 0.4854939 0.5711883 0.5332953 0.49637204 0.4335886 0.323534 0.23783955 0.5152252 0.49526763 0.3780081 0.39242524 0.38640678 0.4428386 0.32916045 0.31684023 0.34560865 0.23678282 0.7922386 0.70917636 0.6392664 0.21426775 0.12541771 0.8644649 0.8386513 0.12009214 0.10451792 0.88230324 0.06456347 0.049824297 0.89364004 0.89083135 0.137816 0.8826009 0.83716965 0.8074458 0.29806665 0.24374229 0.02315986 -0.08820188 -0.18675764 0.01494047 0.4316612 0.30852464 0.007739015 -0.003876835 0.42391425 0.28455293 0.34289792 0.3795539 0.21406126 0.36347073 0.13240267 0.0660113 -0.053618662 -0.1258821 -0.17415957 -0.17113398 0.14407916 0.30793238 0.38512328 0.46594334 0.5154412 0.720773 -0.01207434 -0.13852072 -0.20252353 -0.19518791 -0.09358412 0.60466665 0.65761876 0.67802036 0.66506565 0.70210934 0.60987854 0.46994817 0.34642527 0.034235965 0.20484257 0.62415195 0.68709713 0.5814508 0.5697721 0.5285714 0.50834006 0.43419158 0.12419156 0.2873824 0.47188932 0.15298176 0.24334425 0.50910914 0.51719344 0.6189401 0.68359137 0.49913505 0.42131674 0.38295805 0.38072318 0.21024843 0.42557257 0.51630497 0.52192914 0.4741188 0.24800232 0.45452112 0.54702294 0.46303597 0.35490313 0.3253979 0.29909086 0.26477712 0.20529978 0.38044596 0.41433805 0.48175353 0.57926947 0.59715044 0.57448566 0.5288156 0.52451617 0.5431592 0.54190844 0.5459703 0.27856943 0.44549492 0.5181575 0.28059253 0.30099714 0.40110144 0.5744227 0.6051342 0.6667137 0.69843876 0.6197492 0.5151553 0.34771872 0.08214621 0.17294602 0.6495211 0.6858237 0.5530688 0.6648245 0.7305665 0.7503811 0.44138747 0.058652166 0.6261608 0.7236914 0.75651795 0.44694746 0.1178052 0.5253273 0.58442533 0.74211025 0.73008597 0.5958204 0.1303461 0.46110734 0.3122048 0.42579517 0.30510265 0.5572777 0.4984964 0.3669414 0.6001997 0.6590769 0.6378763 0.55562574 0.6615405 0.693679 0.6652025 0.50456804 0.49869823 0.45369256 0.4312132 0.52197707 0.459121 0.5248603 0.47993115 0.26727268 0.42828578 0.5477358 0.52783686 0.4436307 0.40775687 0.431269 0.39820367 0.36349607 0.5816802 0.5575322 0.17700346 0.78571546 0.6838889 0.59361595 0.024659306 0.8575115 0.8167759 0.05697933 0.8643173 0.8431144 0.038050756 0.8706697 0.84144723 -0.09522395 0.8159619 0.7639259 0.63611466 -0.020873457 0.198786 0.132573 0.17304298 0.16549113 0.17376281 -0.17143491 0.16232842 0.20120192 0.017264325 0.32410845 0.6220012 0.5515021 0.11082587 0.5328669 0.6875675 0.70043373 0.60560524 0.49560452 0.34426907 0.13820703 -0.1647597 0.6689575 0.6555655 0.23967649 0.07717155 0.120455034 -0.07739246 -0.13314098 -0.046609834 0.73911583 0.56942725 0.61425126 0.013301551 0.055445507 0.35192335 0.19814166 0.095762715 0.11039259 0.65586185 0.71662134 0.5052288 0.4993007 0.40810207 0.036693603 0.39012134 0.1266786 0.19615701 0.22964078 0.34564468 0.41234946 0.47687373 0.6252174 0.6829406 0.39324632 0.19674242 0.2505089 0.21495837 0.11758237 0.044394273 0.062059723 0.08485239 0.1302683 0.1863997 0.34209105 0.21534342 0.33905768 0.50267065 0.551738 0.5064691 0.20262615 0.1543127 0.13531592 0.1387015 0.12173912 0.0702949 0.48819745 0.3202102 0.4508002 0.18296036 0.53527665 0.57037663 0.5177611 0.5223014 0.5494034 0.60887754 0.609321 0.56040496 0.52933145 0.5179485 0.6483143 0.61475784 0.5617375 0.55322295 0.16647336 0.26038706 0.04168354 0.19613004 0.26977056 0.47024053 0.52405524 0.4222183 0.16667104 0.06174468 0.04377076 0.15067849 0.54582953 0.5767785 0.60552394 -0.02987438 0.56677926 0.60071564 0.6410547 -0.07983549 0.5520306 0.6480865 0.51509154 0.6801436 0.40762556 0.4576999 0.6964221 0.63181114 0.30257142 0.106386274 0.07267495 0.1495611 0.525933 0.47120613 0.5656767 0.64846146 0.64987457 0.27184358 0.374009 0.2420084 0.355574 0.4972291 0.49351448 0.42516184 0.36834288 0.3432653 0.49715844 0.37148404 0.40022406 0.42465347 0.35102898 0.27933228 0.15659264 0.088641405 0.6327889 0.48732698 0.79590726 0.72554445 0.5135652 0.026968084 0.82320416 0.75921 0.7949213 0.7733483 0.5713998 0.3328923 0.6986966 0.44791418 0.23289606 0.28268617 0.313237 0.06813102 0.21092848 0.18507904 -0.2382206 0.1983723 0.22027351 -0.14259797 -0.055043377 0.3677122 0.64175045 0.52852577 0.4837135 0.3201778 0.012910321 -0.09941067 0.4403947 0.53211725 0.6531011 0.6550356 0.35218614 0.650617 0.6613902 0.6665413 0.7621654 0.59790313 0.7390076 0.51139605 0.033840537 0.15449083 0.14863628 0.1624046 0.37663817 0.3484079 0.4558444 0.60404885 0.6852473 0.41675082 0.3445695 0.12947711 0.15749581 0.17707793 0.20138377 0.28949118 0.3694266 0.37975574 0.3244113 0.36431658 0.055932768 0.0025718808 0.46764505 0.45465133 0.46561712 0.49793133 0.21788543 0.07228094 0.28622 0.41476297 0.53325284 0.5565461 0.50647587 0.5259393 0.38587084 0.038505584 0.10560638 0.25807607 0.2692399 0.39961207 0.5516374 0.58705676 0.5705828 0.528193 0.57734704 0.49577948 0.2704293 0.33444795 0.42123118 0.5694483 0.5844892 0.6390533 0.65759754 0.6015167 0.56029046 0.32444906 0.45705348 0.5344591 0.07048995 0.1508126 0.18789867 0.044924792 -0.033499245 -0.10514669 0.3329218 0.44213998 0.14140785 0.07863465 -0.021554632 -0.050115515 -0.00859439 0.47894216 0.47576228 0.43388695 0.5034256 0.47066587 0.5190702 0.41462082 0.57897747 0.3439082 0.31509295 0.35258216 0.26437923 0.25754404 0.2489216 0.11998515 0.3234224 0.52576196 0.29325557 0.28584576 0.35411292 0.41192895 0.30641192 0.42064762 0.14612484 0.22395183 0.34325907 0.45139697 0.4560925 0.10224131 0.040509168 0.4099728 0.42134836 0.38455963 0.27974194 -0.0019905567 -0.016755566 0.4004562 0.38350958 0.31547192 0.2869797 0.3211223 0.19382937 0.06308392 0.07496768 -0.039253615 -0.11093059 -0.10234283 -0.03655565 0.3303243 0.36336344 0.19110247 0.2993815 0.36642143 0.361427 -0.090064794 0.32941195 0.30292434 -0.00088920817 0.21543063 0.25404721 -0.48035437 -0.18992007 0.23252465 0.2912497 0.54393005 0.46026793 0.3014462 -0.15414736 0.45781714 0.59686124 0.5612633 0.53985834 0.6398749 0.70323133 0.6193464 0.6960305 0.5200695 0.20180197 0.14642252 0.5737864 0.30570152 0.12689455 -0.29373056 0.13031313 0.124466494 0.13364595 0.14084932 0.22073051 -0.27748555 0.296268 0.5059756 0.40028808 -0.09887853 0.09383684 0.1826567 0.5504551 0.4551915 -0.039607085 0.058700375 0.057470582 0.547994 0.5033094 0.5384419 0.29678428 0.0033536702 0.008777149 0.5570759 0.5337474 -0.21794379 -0.114353925 0.47231925 0.66914725 0.5911303 -0.12435578 -0.1722718 0.25390124 0.0638005 -0.09497132 0.24615541 0.08861512 0.2991861 0.41899225 0.43888628 0.42459702 0.36340633 0.39037532 0.45690328 0.34915757 0.38471216 0.43373752 0.33272594 0.34311196 0.4305678 0.42972246 0.30398592 0.14778456 0.12447497 0.17417476 0.19600315 0.3334739 0.2973494 0.27412716 0.2861893 0.25907147 0.1536074 0.33068115 0.43939146 0.19139758 0.18872625 0.47453603 0.14831617 0.4406383 0.408984 0.01399659 0.3507486 0.21365264 0.48839697 0.13714385 -0.29795238 0.33352292 0.48020804 0.5048326 0.022305839 0.06939623 -0.11884192 0.45519212 -0.04698816 0.36429274 0.51590174 0.42404115 0.3949166 -0.1875188 0.39837933 0.49511844 0.11462158 0.28372508 0.32676107 0.43523088 0.15627186 0.33906302 0.3228209 0.40517086 0.29654557 0.28416437 -0.21645038 0.27157983 -0.08327928 -0.43532795 0.2349695 0.2462095 -0.11449729 -0.31206602 0.26355958 0.4166078 0.34001756 -0.11471293 0.30791897 0.3240384 0.5439446 0.41927254 0.36838612 0.5622356 0.50977564 0.49455887 0.5619979 0.40373698 0.45156896 0.19286825 0.31968522 -0.08563134 0.09483299 0.06712925 0.057141505 0.03407681 0.012078476 0.34712738 0.40279227 0.32801524 0.24513277 0.381625 0.4136519 -0.0757547 -0.16515706 0.32423425 0.4030252 0.4003425 -0.3366831 0.2538904 0.43777916 -0.08470607 -0.41037434 -0.44041067 0.3058344 -0.059453353 -0.30951366 -0.3325079 -0.09527242 -0.01674601 -0.2402376 -0.07967439 -0.182646 -0.13453138 0.08414183 -0.145817 0.37717974 0.0667815 0.36835906 0.0814667 0.19165958 0.045057163 0.20762163 0.37220109 0.17419246 0.45983636 0.45691133 -0.113008484 -0.0038081817 0.11336629 -0.2749491 0.3388127 0.45174515 0.50083184 0.4565916 0.4301789 0.1099097 0.07391721 0.25451583 0.31130904 0.36228293 0.2878259 0.2322193 0.3803786 0.26765698 0.37732053 0.41005614 0.37266338 0.36543834 0.39946914 0.41628414 0.3842287 0.43001407 0.42438442 0.37170598 0.60322356 0.50015134 0.41226423 0.50290424 0.34399292 0.35310996 0.21690708 0.20079803 -0.070666656 0.22712272 0.4116254 0.18831766 0.20100059 0.48056957 0.15128767 0.38467222 0.038318876 0.34059542 0.1615048 0.078363545 0.27013546 0.17462784 0.46331394 0.47449785 0.1277143 0.50003064 0.50928015 0.07642663 0.5036946 0.08934203 0.50100267 0.40206546 0.47985643 0.34585214 0.31242487 0.5338212 0.0767373 0.49686334 0.23869678 0.25812027 0.3559734 0.27189964 0.28305689 0.22583333 0.26672333 0.14447425 0.26233596 0.26524246 -0.042478338 -0.05439398 0.2051487 0.31253058 -0.06755687 -0.077576116 0.1399106 0.46813887 0.30219558 0.16787581 0.3266576 0.20438795 0.35991895 0.32859182 0.0058267675 -0.04187768 0.44942868 0.3162592 0.280363 0.38598844 0.48409614 0.48356318 0.32443747 0.34509742 0.1802069 0.010141641 0.33912975 0.32030797 0.0342852 0.2990927 0.20910846 0.083901286 0.004002217 0.23041564 -0.15130708 0.25928968 -0.04083117 -0.038472958 0.07220489 -0.08133026 -0.2323151 -0.028503396 0.0077020377 0.09844885 0.395357 0.49718398 0.4761079 0.44028765 0.55063325 0.5402681 0.47553623 0.4768105 0.54756635 0.50803757 -0.014837582 0.47070545 0.48047385 0.36048186 0.09494246 -0.1630646 0.08785014 0.29740158 0.17078601 0.048159912 0.15074778 0.35625023 0.40988833 0.43696308 0.37576824 0.3562069 0.41863847 0.43241543 0.47482473 0.48511112 0.3942294 0.41084722 0.4836442 0.49413866 0.6511454 0.65660584 0.7055066 0.74253446 0.7459012 0.6080955 0.592271 0.60516083 0.66631866 0.68668234 0.6637939 0.53203267 0.4625401 0.4640062 0.5827603 0.5891865 0.5756962 0.5113656 0.37170312 0.3486582 0.41064858 0.54278105 0.523283 0.47747606 0.3344874 0.24928793 0.22078036 0.43084806 0.46131086 0.24597803 0.15201013 0.29279393 0.3035093 0.22866628 0.19660637 0.11362127 0.22718647 0.34883964 0.211066 0.2492545 0.1977573 0.037453067 0.15187156 0.16186059 0.37735116 0.4619006 0.12062441 0.3963365 0.40098265 0.07260466 0.3476608 -0.04026641 0.32373965 0.27629298 0.5130501 0.45807117 0.15885454 0.29957113 0.27754396 0.5043702 0.527613 0.22363648 0.4717672 0.42067724 0.12534998 0.17600188 0.30637333 0.21630132 0.25995874 0.08910428 0.24425262 -0.023875445 0.23632902 -0.05439412 0.19599444 -0.026780056 0.09068334 -0.042520843 0.005080562 0.061996564 -0.039124522 -0.029332751 0.06272387 0.18140247 0.011174563 0.19569783 0.30951303 0.2236465 0.3961173 0.31104013 -0.19505614 0.48791724 0.47637665 0.30538255 0.2771316 0.15568964 0.2543679 0.3752569 0.48868886 0.51205575 0.51113594 0.2972311 0.25510922 0.47394073 0.26060936 -0.009650461 0.00588933 0.19997978 -0.036173802 0.11893682 -0.08436693 -0.21268876 0.2993761 -0.023313962 0.027658094 0.28363624 0.06822829 0.11532763 0.1320572 -0.2077887 0.08155211 -0.15392466 -0.15039526 -0.12202311 0.41209984 0.2177206 0.31574005 0.53291047 0.44957522 0.37350076 0.582273 0.54762095 0.43130863 0.39185303 0.59752417 0.39213288 0.5894233 0.55223143 0.3712362 0.4256152 0.075350426 -0.013950355 0.3912366 -0.116163984 0.27040792 0.4214078 0.6231084 0.64964813 0.4485915 0.23908916 0.42051494 0.45409334 0.6320399 0.64109397 0.658643 0.5253366 0.4662218 0.38563392 0.2888235 0.48164913 0.46224803 0.6445 0.65337336 0.6157634 0.4991903 0.293799 0.34765744 0.38980997 0.4776243 0.49337587 0.49081677 0.63794076 0.3326372 0.3818195 0.4583884 0.47513753 0.71525794 0.7273432 0.76886415 0.8193984 0.77260786 0.6813128 0.6923443 0.74739087 0.7569572 0.73046625 0.62013376 0.6371838 0.66898584 0.54354566 0.5482768 0.47890222 0.46561468 0.3058643 0.36471105 0.22034937 0.21256618 0.26195467 0.31123483 0.2357592 0.15244986 0.30935365 -0.0680387 0.60310614 0.6845306 0.2792073 -0.1580804 0.6059669 0.646257 0.7149007 0.7712441 0.17555605 -0.2935308 0.49661765 0.60058045 0.65038234 0.73470676 0.7781886 0.029051803 -0.2404885 0.54279995 0.63821876 0.21661428 -0.023512475 -0.14221421 0.29339814 0.2770774 0.27394056 0.4944076 0.43754125 0.32190156 0.219134 0.50934494 0.16717099 0.47279224 0.0996615 0.18346144 0.16801536 0.04980042 0.15046674 -0.029582866 -0.045235336 0.037002232 0.15917118 -0.02560909 0.040266525 -0.0252793 -0.052853674 0.021758396 0.02219196 0.33071688 0.4608358 0.22292003 0.510839 -0.007894658 0.49344373 0.52589613 0.52497715 0.20563368 -0.006181128 -0.099642724 0.33784115 -0.025206272 -0.032489665 -0.065166116 -0.057332754 -0.02964101 -0.19665569 -0.104610234 0.223559 -0.05220218 -0.036845602 0.2617836 0.12956223 0.11408913 0.2605178 0.16988581 0.20896865 0.1649539 0.19952592 0.09697913 0.07710002 0.13635036 -0.086833835 0.043222483 0.0066902167 0.46261555 0.41189343 0.25306138 0.24525891 0.58265984 0.5319951 0.33084524 0.63290536 0.35572132 0.6517141 0.638674 0.3746647 0.63229 0.6062389 0.40360326 0.4466219 0.5538002 0.4365533 0.4750141 0.2924715 0.44381553 0.47540084 0.45296118 0.5880593 0.46697962 0.48863155 0.62053937 0.48141068 0.47842556 0.4932421 0.62552965 0.6381961 0.2436512 0.1570707 0.26399 0.47647485 0.48371303 0.48066497 0.62660384 0.6159874 0.48351413 0.40803748 0.22016212 0.295192 0.34203005 0.43271977 0.4578062 0.7229243 0.7431294 0.77112687 0.8071685 0.75871956 0.6743111 0.7030954 0.7241988 0.71659386 0.62681025 0.67669797 0.5599407 0.5460732 0.38826802 0.42902008 0.24152543 0.29438794 0.16690156 0.22632267 0.29938233 0.118826926 0.18098469 0.39963752 0.37238893 0.27356997 -0.06890528 0.028886694 0.017740864 0.14206587 0.5353397 0.69836485 0.39839816 0.3426538 -0.19691314 -0.15571932 -0.055409335 0.49393392 0.5979899 0.6798326 0.78013986 0.85061455 0.39085257 -0.30391622 0.24252565 0.7455345 0.8207156 0.8813737 0.33970928 -0.22561604 -0.20492241 0.26690975 0.7552646 0.8143685 0.88163966 0.2591177 -0.26607016 0.06221264 0.53255045 0.6205487 0.70239055 0.79215455 -0.17312407 0.55845237 -0.14019868 -0.24572632 0.01053676 -0.26599032 0.1787876 -0.20864397 -0.23556335 0.17522216 -0.06427194 -0.21724302 0.090894654 0.45551562 0.42273813 0.11013966 -0.16908969 0.06148042 0.30257183 -0.15955573 -0.0013073804 0.06228188 0.046944454 0.002754828 -0.047689483 -0.1082404 -0.10955706 -0.09679033 -0.026782826 -0.07673165 -0.025915634 -0.021036893 -0.07894203 -0.0709996 0.15435833 -0.23208857 0.35498667 0.18282017 -0.18769047 0.45988864 0.09915306 0.50506556 0.087207526 0.3122754 0.44682914 0.52651584 0.53048354 -0.0048346817 -0.120180815 -0.18595557 -0.30483204 -0.08902593 -0.099557616 -0.35295582 -0.09268306 -0.084448695 -0.15500101 -0.15535635 -0.100023255 -0.012826342 0.15086408 0.13606536 0.118533194 0.15804054 0.16126516 0.11674531 0.20437273 0.19530319 0.18444543 0.10045102 0.15988499 0.08280412 0.020850768 0.12451039 0.6084082 0.5190567 0.37216896 0.22580159 0.65622145 0.31474966 0.6577014 0.35746002 0.41001707 0.6380087 0.4814254 0.5715853 0.51562124 0.52675515 0.5243597 0.5313157 0.5229791 0.55184877 0.50500596 0.5095736 0.5731945 0.5982934 0.091288246 0.43535894 0.47756898 0.4992298 0.60306334 0.41446176 0.34202105 0.2763959 0.19195408 0.23076099 0.29131997 0.30683023 0.3628787 0.43175703 0.2863022 0.22617094 0.26602545 0.2948802 0.7170606 0.7260284 0.73789746 0.6828225 0.6873219 0.70656955 0.73787093 0.6302689 0.60475415 0.61961955 0.59655017 0.6109669 0.474649 0.50886995 0.444339 0.41137874 0.21824338 0.25828388 0.3696565 0.3650898 0.13185592 0.33049196 0.33825204 0.321682 0.3729555 0.28637213 0.18371528 0.27059296 0.21748221 0.43725204 0.39828414 0.22207612 0.41652748 0.5210533 0.6876495 0.47052908 0.7358084 0.8521539 0.4993355 0.9405416 0.49285093 0.44730586 0.94022834 0.30531204 -0.29462573 0.17841342 0.6267233 0.8191535 0.880116 0.0015526582 -0.2586376 0.4850839 0.5196091 -0.23442586 -0.23194188 -0.2836591 -0.1913167 -0.14783818 -0.24922207 -0.04281579 -0.26457855 -0.3392236 -0.03511868 0.16893055 -0.00481984 0.2223391 0.4280368 0.42448002 0.2883862 0.39722297 -0.17073382 0.20239672 0.32290268 -0.20002846 0.1347286 -0.040178288 -0.27100313 0.16246316 -0.062114332 0.26450157 0.1612391 0.024372563 0.35775548 0.22016373 0.18753645 0.09767683 0.4309536 0.44329187 0.3074683 0.29097098 0.44988343 0.58239466 0.49349284 0.34571707 0.48119736 0.65699077 0.6586826 0.22435777 0.05561617 -0.2068784 0.6992459 0.69755614 0.55410355 0.19282834 -0.28920883 -0.025132582 0.6925571 0.6667545 0.54160845 -0.05666943 0.02919874 -0.36558795 -0.08429697 0.0060466994 0.047500797 0.07904296 0.10605442 0.14024301 0.11720233 0.16866033 0.1269798 0.11