# vtk DataFile Version 2.0
Really cool data
ASCII
DATASET POLYDATA
POINTS 8316 float
-23.618624 15.856425 21.788464
-23.60138 15.87326 22.372038
-23.630827 16.430367 21.742285
-23.620691 16.310057 22.352707
-23.580128 16.855814 21.617403
-23.622854 16.84181 22.270765
-23.050783 15.23278 21.710701
-23.079329 15.120155 22.488129
-22.809086 15.055436 23.648472
-22.649874 15.016998 24.07768
-23.159964 15.82209 21.06504
-23.423615 15.585909 21.652113
-23.454844 15.534935 22.27257
-23.121223 15.514375 23.338917
-22.765724 15.5982 24.26527
-23.160316 16.548824 20.842394
-23.498993 16.567516 21.340479
-23.482891 16.419065 22.641981
-23.225647 16.518492 23.191696
-22.74505 16.3918 24.144234
-23.056534 17.173801 20.876997
-23.337866 17.192728 21.625172
-23.324837 17.151325 22.39256
-23.125309 17.099358 22.88017
-22.894075 17.736431 21.58379
-22.816612 17.838737 21.997425
-22.56646 15.356384 21.084013
-22.434828 15.05351 21.65895
-22.267698 14.757515 22.673199
-22.278664 14.631452 23.566423
-22.23737 14.81286 24.32841
-22.15805 15.074981 24.754578
-22.40597 15.822095 20.677921
-22.537579 15.402233 24.535393
-22.137201 15.500496 24.902847
-22.462967 16.677076 20.34093
-22.655851 16.324223 20.473404
-22.157553 16.330574 24.787611
-22.192932 17.143585 20.269438
-22.526033 17.443123 20.534931
-22.186468 17.476294 23.578217
-22.146147 17.146753 24.2313
-22.292484 17.816233 20.752651
-22.22203 18.15004 21.59145
-22.197311 18.010761 22.562716
-22.074633 18.041357 23.046644
-21.45463 14.461021 23.588583
-21.612932 14.463502 24.032122
-21.850573 15.33185 21.11577
-21.500235 14.995233 21.717407
-21.354067 14.680071 22.630732
-21.653677 14.518703 23.217371
-21.778189 14.571673 24.360313
-21.412058 15.010714 24.948685
-21.65725 15.725319 20.72316
-21.40525 15.686555 25.22213
-21.73177 16.629526 20.296871
-21.322334 16.32193 20.496557
-21.512644 16.219173 25.167503
-21.627548 17.175539 24.58644
-21.11636 16.901981 25.024944
-21.681374 17.918703 20.61192
-21.70681 17.80099 23.74141
-21.219387 17.913214 24.187197
-20.885044 19.060616 21.613163
-21.566967 18.613401 22.45723
-20.709452 20.988522 11.579027
-20.729517 20.940779 12.261325
-20.605808 21.588709 11.207818
-20.785841 21.592049 11.629296
-20.814634 21.648466 12.349635
-20.656187 21.591396 13.0501795
-20.626747 21.88902 11.206252
-20.696539 22.131443 11.747565
-20.673683 22.396984 12.519935
-20.629347 22.2204 13.004373
-20.544413 15.238247 21.743437
-20.740074 14.819364 22.622288
-20.55937 14.6328 23.576113
-20.764477 14.651874 24.286264
-20.807457 15.037792 24.9856
-20.659367 16.221481 20.70421
-20.61019 15.567078 25.234892
-20.481953 16.752693 20.60396
-20.746103 16.229092 25.280739
-20.14743 17.558807 20.1812
-20.466936 17.195778 24.96681
-20.156261 18.503355 20.17385
-20.309786 18.561728 20.525656
-20.442862 18.044874 24.509838
-19.950829 19.816402 12.245977
-19.808872 19.861673 13.276871
-19.706427 20.081427 14.1227455
-20.448748 18.83812 23.630707
-20.250776 18.742287 23.853834
-20.284122 21.0283 10.984668
-20.498466 20.809183 11.353381
-20.517023 20.474867 12.035444
-20.246193 20.638252 13.358553
-19.811008 20.475874 14.065642
-20.066227 20.130672 20.696241
-20.315565 20.228039 21.411085
-20.345222 19.905907 22.200241
-19.926254 20.02788 22.886942
-20.321512 21.492857 10.90051
-20.398397 21.219059 13.570648
-20.017654 21.528446 14.080301
-19.649496 21.042511 20.335941
-19.874914 20.939074 21.961683
-20.31726 22.1386 11.1066675
-20.473923 22.43865 11.626384
-20.494955 22.628242 12.385593
-20.410835 22.405664 13.208657
-19.803934 22.218267 14.073255
-20.218538 22.806765 11.880516
-20.21374 22.943485 12.549245
-20.197355 22.864988 13.062864
-18.75968 3.262464 13.701624
-18.68296 3.2023501 14.141556
-18.826479 3.7348778 13.135986
-18.930756 3.6276665 13.564347
-18.998293 3.7165833 14.4431
-18.858007 3.7959669 15.063897
-18.838442 4.4384847 13.004263
-19.143028 4.45784 13.66196
-19.200405 4.48033 14.360779
-18.934652 4.446138 15.176996
-18.774544 5.0034223 13.105227
-18.91522 5.2841406 13.612952
-18.930445 5.347285 14.423293
-18.911867 5.0590324 15.006609
-18.72151 5.735049 13.804207
-18.720234 5.83104 14.564795
-20.132359 15.341035 21.954151
-19.642113 15.184278 22.87078
-19.78446 15.09708 24.344511
-19.716301 15.88681 21.44121
-19.85187 15.772097 25.119965
-19.466112 17.26176 20.374466
-19.963013 16.3011 25.150576
-18.77631 17.910997 7.7231627
-18.776764 17.828524 8.286359
-18.742092 18.033262 8.914967
-19.82075 17.76185 20.143124
-19.55737 17.269142 20.500813
-19.618755 17.27909 25.11501
-18.707561 18.62454 7.12073
-18.90605 18.438786 7.6545377
-19.014025 18.465029 8.323801
-18.818441 18.339993 8.881874
-18.55026 18.77995 10.27651
-18.971918 18.832954 11.781331
-19.172766 19.021904 12.6871805
-19.335358 19.239252 13.652721
-19.009695 18.860798 14.514806
-18.91897 18.8282 15.386879
-18.7313 18.627619 16.343369
-18.624481 18.477678 17.450104
-19.153416 18.480328 24.878895
-18.614008 19.264315 7.0006227
-18.84803 19.201363 7.5135336
-18.83844 19.368773 8.144168
-19.489037 19.359343 13.449364
-19.325237 19.417786 14.761768
-19.180298 19.901804 15.624519
-18.78649 19.73282 19.040998
-19.346148 19.655207 19.573938
-18.957947 19.617657 24.284342
-18.581545 19.973637 8.187955
-18.570591 20.106659 9.573634
-19.434263 20.109797 14.840831
-19.258144 20.478565 15.187794
-19.291056 20.545357 19.619886
-19.557095 20.674393 20.376024
-19.696503 21.212215 10.605896
-19.196419 21.59217 15.411022
-18.921339 21.795158 19.491684
-19.533808 21.221262 20.789454
-19.452812 21.817665 21.45598
-19.816778 22.368958 10.924899
-19.239328 22.41185 14.683145
-18.781345 22.621523 19.83062
-19.269203 22.322716 21.637543
-19.169239 22.211002 22.272396
-18.703346 22.67142 22.959425
-19.684795 22.984144 11.819211
-19.668839 23.187681 12.603053
-19.30512 23.091862 13.376991
-18.867798 22.838905 14.406435
-19.033625 23.73544 20.205202
-18.9907 23.537489 20.30209
-19.192108 23.698006 21.403963
-18.868671 23.36346 22.32706
-18.751545 24.359655 19.995512
-19.077553 24.50779 20.764637
-19.072504 24.444443 21.375166
-18.838633 24.501284 21.996202
-18.85322 25.019487 20.939705
-18.779535 25.121803 21.339245
-18.857712 24.849064 21.843449
-18.172997 3.226048 12.9957285
-18.410587 3.1309962 13.505522
-18.38376 3.0580246 14.390959
-18.213814 3.255137 15.190317
-18.393456 3.669775 12.83507
-18.638586 3.354799 13.303697
-18.451113 3.6296384 15.406075
-17.985569 3.8115213 15.789949
-17.940447 4.0891805 12.453152
-18.502064 4.4438534 12.741568
-18.655897 4.4657636 15.604108
-18.481714 4.440242 15.670454
-18.376324 5.358131 13.022546
-18.555317 5.604113 13.3398
-18.330915 5.356247 15.351611
-18.188858 5.80483 13.212909
-18.204313 6.066311 13.688814
-18.518389 5.9746194 14.256831
-17.8454 6.063531 15.102136
-18.881289 15.351826 23.107988
-18.647213 15.596918 22.69728
-18.229467 15.712323 23.902891
-19.190441 15.873828 24.793304
-18.064522 17.270544 7.731484
-17.936007 17.08315 8.3054
-17.804066 17.18951 9.750586
-17.891975 17.17138 16.83884
-17.744915 17.164158 17.070087
-18.101553 17.336082 20.029873
-18.332005 16.88493 21.093178
-18.714516 16.795465 24.848095
-18.229435 17.932764 6.973612
-18.41719 17.59606 7.5594416
-18.460567 17.429646 8.495317
-18.140232 17.461752 9.57148
-17.97603 17.658987 10.306688
-18.079918 18.086946 14.8740425
-18.321516 17.79383 16.483696
-18.122953 17.594929 18.325579
-18.791777 18.005869 19.773855
-18.703762 17.467562 25.03774
-17.925388 18.580431 6.4468913
-18.240923 18.510103 6.699294
-18.501799 18.591425 10.220825
-18.306889 18.626087 13.606141
-18.690243 18.364634 24.873943
-17.96763 19.095482 6.406875
-18.248674 19.386934 6.6843076
-18.351597 19.700302 17.571583
-18.100517 19.971748 6.8516717
-18.488012 19.97922 7.385441
-18.429375 20.365557 8.810179
-18.517382 20.151531 9.047446
-17.892542 20.882065 8.592749
-18.269009 20.79468 9.496943
-17.787226 21.730124 18.432337
-18.498987 21.374289 23.563007
-18.580223 22.009098 11.114918
-18.689203 22.50596 11.483586
-18.22381 22.454506 15.502586
-18.14268 22.581884 19.052977
-17.852829 22.113588 24.012732
-18.714315 22.703283 11.491699
-18.830317 23.24218 12.856226
-18.441088 22.964748 14.078226
-17.784624 23.831364 19.03768
-18.6015 23.315971 19.590712
-17.896194 23.55752 23.354544
-17.821095 23.331549 23.783537
-18.398106 24.651705 19.719631
-18.526125 24.249983 22.594835
-17.974388 24.403078 23.198523
-18.01565 24.833017 19.35905
-18.158884 25.250965 19.968428
-18.426994 25.414204 20.679342
-18.522953 25.372587 21.383821
-18.06881 25.435638 22.349009
-17.80954 25.259274 22.838642
-17.828812 25.657892 20.065811
-18.03652 25.735035 20.820072
-18.01669 25.788187 21.399246
-17.914515 25.8389 21.983263
-17.327057 3.0396624 13.081057
-17.458921 2.7763553 13.674837
-17.094652 2.6657379 14.354557
-17.729548 3.0704799 15.246641
-17.656197 3.5376482 12.625639
-17.608568 3.4055653 15.637665
-17.59568 3.7119856 15.891397
-17.465786 4.404177 12.447221
-17.502813 4.664529 16.06438
-17.467289 4.8893948 12.43654
-17.707764 5.175319 12.56938
-16.752905 5.4866395 16.400612
-17.448116 5.846008 13.081133
-17.395994 6.30339 13.5849905
-17.763824 6.293928 14.46785
-17.059086 6.347166 15.495182
-16.560148 10.6187315 16.985674
-16.571583 10.567907 17.34748
-16.562641 10.77765 18.19266
-16.58325 11.101209 17.48043
-16.791147 16.127544 17.660465
-17.409557 15.968497 23.12179
-17.939219 16.270716 24.112862
-17.317417 17.329285 7.171992
-17.488775 17.114988 7.675172
-17.44451 16.922747 8.644585
-17.227003 16.727272 9.50823
-17.04137 16.75671 10.37336
-16.820644 16.981812 11.029177
-16.84872 17.089338 15.593532
-17.213326 16.555166 17.213566
-17.388178 17.290016 18.760216
-16.644827 16.681208 19.825132
-17.304432 17.812222 6.6451817
-17.075628 17.785564 14.107262
-17.350166 17.699635 15.217231
-17.435282 17.57541 24.335161
-17.452892 18.719585 6.346444
-17.84599 18.91613 24.592522
-17.522757 19.369984 6.3869205
-17.667364 19.67559 6.5099964
-17.481197 19.819141 6.519327
-17.12609 20.718483 7.322265
-17.370657 20.964136 8.255571
-16.735754 21.654049 26.591328
[...]
POINT_DATA 8316
SCALARS features_00 float 1
LOOKUP_TABLE default
0.85871685 0.8234215 0.8396262 0.8065589 0.8280876 0.7820254 0.89729154 0.85695314 0.826626 0.82952636 0.92749095 0.88631034 0.84698546 0.8259134 0.81876606 0.9224459 0.86912054 0.78109956 0.75629383 0.7774257 0.88914025 0.8136132 0.7415209 0.7037376 0.7743739 0.70845926 0.89869064 0.85981154 0.8069284 0.8095864 0.8394103 0.84913933 0.87944305 0.8330688 0.8418563 0.87319714 0.9130581 0.78300476 0.80176616 0.8603382 0.5526653 0.60791403 0.79991853 0.6677481 0.55265594 0.4940086 0.7789322 0.81629384 0.7598413 0.6847117 0.6855276 0.7630694 0.8362156 0.860813 0.70671916 0.82410014 0.69299823 0.60191536 0.7726339 0.5847807 0.6353946 0.67023003 0.45240355 0.43602413 0.356601 0.3849569 0.6914669 0.68207496 0.70579684 0.7171474 0.722072 0.6965371 0.7158372 0.74182445 0.7524434 0.7352878 0.5521906 0.6055608 0.70922714 0.8274029 0.84519535 0.46342993 0.78242064 0.4007641 0.71389383 0.33234334 0.56831354 0.3050101 0.3528515 0.4459227 0.40790692 0.34179553 0.3085894 0.31538114 0.3456846 0.6432791 0.66562486 0.62922764 0.4890897 0.3602723 0.23713185 0.22233826 0.22918543 0.22052132 0.67062676 0.5887848 0.5766959 0.21176964 0.19559178 0.7189212 0.7515333 0.7613649 0.73116493 0.66302955 0.76661634 0.7584864 0.7373339 0.90808 0.90829635 0.90867376 0.9267125 0.9501177 0.89997196 0.9094338 0.96880496 1.0 0.92253095 0.87423563 0.8800174 0.9043258 0.92491895 0.82731134 0.82520807 0.5121968 0.51670295 0.7348614 0.40412387 0.68429464 0.21846633 0.64355177 0.7911893 0.69057536 0.5798712 0.27417386 0.23294203 0.5359489 0.8421638 0.81517506 0.7175317 0.6062132 0.40186 0.1660253 0.23172233 0.25266072 0.21638456 0.21146849 0.18308005 0.19850335 0.43602657 0.8014269 0.7926508 0.7036762 0.2724973 0.23879276 0.22976175 0.056202427 0.13349566 0.34178177 0.5699729 0.36783513 0.27911758 0.30685392 0.18205962 0.205917 0.5847143 0.50795794 0.16519047 0.21633056 0.2493495 0.7366783 0.54983187 0.26155183 0.30043766 0.25991496 0.22003883 0.7749243 0.74511755 0.6594097 0.48831442 0.48867816 0.45711282 0.46268937 0.31747824 0.55061656 0.5665055 0.5244099 0.45156598 0.56981903 0.5478728 0.49157047 0.8428296 0.86936355 0.8780341 0.82582754 0.8703947 0.8966054 0.8413042 0.7650063 0.82684875 0.87443846 0.8425703 0.8146733 0.80819786 0.8117554 0.8030209 0.76059437 0.74412405 0.78931487 0.7016703 0.5067429 0.43299586 0.53247505 0.60861284 0.7685951 0.6512297 0.44107372 0.11697081 0.09981221 -0.10951305 0.114818424 0.5100062 0.85933274 0.8060467 0.63354015 0.46638587 0.3686379 0.14506081 0.16833314 0.04352157 0.10231672 0.45833063 0.7846467 0.8240962 0.38995016 0.1542695 0.42194444 0.7561963 0.76783526 0.06353006 0.7137889 0.7019323 0.38195312 0.41217834 0.3278773 0.18114817 0.116147 0.09927765 0.4862171 0.53906673 0.2705077 0.22727159 0.049862478 0.5514731 0.6147895 0.42176998 0.40152043 0.38411576 0.20071802 0.13607448 0.54335904 0.35575998 0.2983744 0.5172359 0.56276107 0.57317704 0.54649144 0.47341952 0.42019665 0.56136453 0.56561005 0.5453908 0.513013 0.74685514 0.7677808 0.6927115 0.75360864 0.7976446 0.72421 0.7119359 0.78935003 0.67370296 0.77453053 0.77213967 0.5175763 0.69193804 0.6351055 0.68099463 0.59359586 0.5466293 0.56408256 0.560465 0.5562944 0.015435688 0.3986323 0.5269132 0.79796016 0.760471 0.5684217 0.43366086 0.35694292 0.28183764 -0.045212884 0.053576615 -0.030004501 -0.11669757 0.78500557 -0.13177271 0.055307887 0.29989904 0.7374215 0.31107387 0.7014287 0.692559 0.66385037 0.6080917 0.41346243 0.46430743 0.48181903 0.4052779 0.38786048 0.36248913 -0.010712445 0.30291998 -0.0010828301 0.06656149 0.2716382 0.38209677 0.57555985 0.5302599 0.44846535 0.26661435 0.19991128 -0.075977914 -0.14796194 0.17345746 0.26727718 0.38304943 0.6673758 0.6289668 0.5302009 0.32275516 0.17936456 0.23647234 0.50784504 0.51124746 0.4138989 0.5488794 0.5565799 0.5237901 0.5041434 0.46410966 0.5759335 0.557667 0.66483986 0.62252223 0.5388577 0.49199754 0.69326735 0.6721885 0.4777269 0.70337254 0.65977764 0.49500987 0.36603007 0.5533012 0.47664547 0.4563836 0.46012783 0.39843452 0.38241282 0.5147033 0.553751 0.54236746 0.51407087 0.39035636 0.44277656 0.5258897 0.5215581 0.46672517 0.45701408 0.53976274 0.5274297 0.4695058 0.44507337 0.31070277 0.3543023 0.50554526 0.42870903 0.45638928 0.3895086 0.26350808 0.5235149 0.59607816 0.46175903 0.3508619 0.31988686 0.19317107 0.58592755 0.630453 0.62211907 0.40071 0.35809994 0.17141837 0.24152142 0.06924415 0.03611651 -0.008288287 -0.12917644 -0.16662158 0.61892796 0.6427511 0.65432954 0.30436435 0.2193462 0.10425027 -0.07145742 0.03720288 -0.048503697 0.73029315 0.7177878 -0.20360522 0.6773464 0.66071045 0.07372005 0.6662949 0.5872816 -0.24316433 0.5637022 0.25287408 0.3467798 0.4499366 0.5199426 0.47790992 0.44799784 0.51165 0.5275881 -0.14878747 0.4963593 0.52585983 0.856673 0.7287961 0.008763179 0.050917387 -0.03767182 -0.013986647 -0.15226157 0.25828162 0.4060239 0.48574466 0.882328 0.7780088 0.63519764 0.57259107 0.4892461 0.43168962 0.059958123 0.33459622 0.80004764 0.7092749 0.61451805 0.55692065 0.45638815 0.48740417 0.23599288 0.5116842 0.42345223 0.43068993 0.44916934 0.3949675 0.5007781 0.5904761 0.5352412 0.46056324 0.4139306 0.4297674 0.60303885 0.59157676 0.4077857 0.4134396 0.29389653 0.21321976 0.14094599 0.2184026 0.1952627 0.23576762 0.05697843 0.13792653 0.24242425 0.2667513 0.3190729 0.23296139 0.34579495 0.29424745 0.4785859 0.43055946 0.38276026 0.3524917 0.49885017 0.49101427 0.44218528 0.28196263 0.13528496 0.50915796 0.4854664 -0.17445964 -0.20771508 -0.0060786633 0.098163456 0.23209253 0.36197835 0.5537225 0.54957503 0.46433884 0.49583375 -0.05470413 -0.1338397 -0.15280163 -0.022296425 0.6009823 0.5669037 0.45822865 0.39739382 0.35053667 0.62948585 0.5900421 0.59365195 0.4659477 0.2778678 -0.24683818 0.09007127 0.6557746 0.56658155 0.50285995 -0.19893467 0.5477884 -0.09072532 0.5341375 0.46174043 0.26011682 0.39185926 0.48307192 0.61502004 0.54721415 0.5768415 0.21757567 0.5449504 0.5557525 0.76065135 0.63093686 0.51697445 0.5437584 0.885899 0.45586538 0.4808557 0.9217118 0.27456242 0.033149026 0.08232344 0.10292294 0.04727079 0.054117925 0.007770106 0.43960702 0.3109376 0.4057873 0.89975834 0.8340043 0.7493932 0.5793582 0.48245898 0.26252934 0.67113113 0.6377679 0.5877045 0.3114846 0.28607565 0.23699549 0.51540864 0.5292854 0.31190768 0.33355224 0.28718716 0.5944276 0.6049852 0.59018815 0.5556542 0.6190915 0.6136419 0.5921893 0.5619673 0.4393064 0.28679284 0.50138867 0.27734736 0.22213924 0.6022662 0.16038352 0.6177359 0.57842916 0.5570102 0.51189184 -0.11864632 0.005450906 0.41647053 0.49896133 0.5501639 0.5613392 0.5322978 0.11376118 0.13475195 0.19763935 0.33519602 0.39852372 0.40615058 0.5054318 0.19023067 0.24182956 0.27575383 0.38153395 0.059938233 0.050635457 0.11893126 -0.01901628 -0.013543207 0.019627362 0.45460296 0.42653015 0.06445126 -0.046163574 0.48531818 0.47804788 -0.17565644 0.07575464 0.19305566 0.47900835 0.49076748 -0.25590283 0.03332357 0.46631604 0.5435548 0.49909616 0.388157 0.34002542 0.26018086 0.5501648 0.40626884 0.43457508 0.59952676 0.37249818 0.28004175 0.513034 -0.07747208 0.54930943 0.64959663 0.6711627 0.6811446 0.39809224 0.67760634 0.6383268 0.38792884 0.5703857 0.6758663 0.6174069 0.5195745 0.81057835 0.4269315 0.88548255 0.080030985 0.35640728 0.3976513 0.87880933 0.8123574 0.68387574 0.3504563 0.053573787 0.05330181 0.076203555 0.18987247 0.20657726 0.6746317 0.6033486 0.59822154 0.17873336 0.33747584 0.056232505 0.23587455 0.20803879 0.20418599 0.4622494 0.4551053 0.21026944 0.19802135 0.5653541 0.582019 0.661034 0.63236725 0.6071173 0.5807475 0.5256236 0.67152977 0.6579044 0.6235763 0.579807 0.23554282 0.22372064 0.23956046 0.712533 0.10375482 0.16919501 0.07824319 0.08886692 0.69759953 0.62927544 0.0773083 0.076454446 0.6584722 -0.024618233 0.053120293 0.39544374 0.54483783 0.6220126 0.6292194 0.63347375 -0.047287963 -0.052129153 0.57789826 0.5942589 0.5864184 0.5663409 0.5334641 0.50312185 0.5412825 0.46388447 0.147537 0.3276214 0.3584656 0.39746904 0.8418845 0.16815118 0.15492001 0.28879452 0.83572847 0.8244051 0.026226133 0.04791869 0.08514329 0.12536311 0.7914175 0.3501195 0.24104743 -0.08579299 0.13111344 0.1335058 0.36246783 0.39371192 -0.007813707 0.1778427 0.4244143 0.34841758 0.40851805 0.3998465 0.31338745 0.46341577 0.40044168 0.5775661 0.3174274 0.35143727 0.62475604 0.6551289 0.65193343 0.66298544 0.08362948 0.67574835 0.050065804 0.65097344 0.55156755 0.5520042 0.33702737 0.38755646 0.48889297 0.7046044 0.69915915 0.31204036 0.826851 0.76692563 -0.0059594065 0.7190125 0.60030144 0.5432466 0.5470679 0.30055743 0.06703223 0.5963284 0.5652018 0.54240173 0.20346877 0.19240013 0.19171086 0.40093285 0.03317617 0.14140807 0.17312756 0.18758929 0.58088577 0.24886867 0.64868295 0.66748613 0.2830206 0.68611825 0.6799861 0.63076735 0.5339507 0.4602388 0.1109031 0.20703721 0.12687227 0.26569104 0.70546174 0.68283385 0.57836974 0.07481255 0.09929922 0.1275411 0.72331685 0.40635774 0.581462 0.72443724 0.023465574 -0.018628486 0.5394822 0.6172914 0.6534202 0.6457157 0.6978283 0.61061734 0.5307127 0.5389764 0.8517958 0.84129816 0.80197966 0.521366 0.50774264 0.42489895 0.280013 0.0551754 0.46886235 0.86642456 0.8585656 0.8417733 0.8002729 0.7398952 0.008833021 0.8665271 0.85268134 0.8200153 0.7824347 0.7474161 0.6846365 0.18175717 0.8130085 0.76146036 0.79312146 0.7765183 0.72555876 0.6893196 0.0090741515 0.18212502 0.70002043 0.7293561 0.7280745 0.6944467 0.28271252 0.15301222 0.21985519 0.15032314 0.15073009 0.044478692 0.2297447 0.24152765 0.018456994 0.30439064 0.4157753 0.31593648 0.19341263 0.61575776 0.6223545 0.63393784 -0.17661056 0.60776097 0.045391597 0.49331743 0.6081729 0.6094954 0.5132557 0.37096196 0.3586489 0.4868769 0.44362223 0.47710818 0.023544842 -0.12128372 -0.1499531 0.38487148 0.45889556 0.1998451 0.29530972 0.06308831 0.16767238 0.173072 0.5122605 0.19708206 0.6031157 0.32842273 0.3062501 0.6473217 0.68079853 0.6805157 0.6101532 0.49881995 0.3851298 0.43837625 0.46858338 0.40587485 0.083662696 0.03320217 0.3232844 0.3715933 0.36280954 0.6857828 0.647061 0.51548326 0.3149682 0.060641114 0.035542928 0.16062057 0.11501932 0.7093526 0.07834047 0.04246483 0.18098861 0.43165085 0.53092635 0.7384729 0.69608325 0.59634274 0.7115511 0.5725361 0.41408938 0.8547565 0.8474729 0.8252827 0.77570844 0.68116075 0.54790324 0.47907633 0.14555079 0.2888748 0.8646523 0.8608906 0.69539815 0.65333813 0.41998258 0.26937658 0.116977744 -0.055557817 0.18267271 0.8599812 0.6842064 0.23012859 0.25197566 0.72885704 0.6634079 0.6330365 0.28701884 0.61470634 0.5589864 0.5644943 0.6018832 0.5888957 0.21251708 0.053799883 0.2700643 0.4455636 0.66538155 0.54491067 0.09549046 0.12606442 0.11028522 0.23069237 0.039255768 0.080102175 0.37588835 0.36255378 0.26811656 0.14606434 0.5257712 0.44498897 0.38072875 0.19137001 0.012164317 -0.06586955 0.6323458 0.6537334 0.577255 0.65784 0.6359445 0.5391444 0.5193531 0.3819876 0.2205805 0.48490408 0.5859845 0.18351215 0.48611706 0.2526629 0.16701604 0.31671262 0.33799857 0.38014698 0.3053516 0.24574307 0.42779532 0.27971372 0.12755188 -0.08882954 -0.14424847 0.4826467 0.46370965 -0.014093124 0.13756728 0.35688323 0.4557848 0.4899177 0.08535438 0.10613459 0.34858117 0.13330513 0.5377976 0.26228434 0.23864424 0.6102638 0.60793245 0.63406533 0.48413917 0.339715 0.54156756 0.52825296 0.5059587 0.4748005 0.38249546 0.2738691 0.6465522 0.5496619 0.45946014 0.16328362 0.097128816 0.02011609 0.2160095 0.108757414 0.6370352 0.060051754 0.06741108 0.6297453 0.39020944 0.42679977 0.32444406 0.5794814 0.33168006 0.2335478 0.8229265 0.7816038 0.7493465 0.6327497 0.5859908 0.536759 0.51165473 0.13735183 0.82784927 0.59528935 0.31756055 0.13825822 0.051064342 0.101285934 0.84882337 0.5340396 0.14335938 0.21764731 0.637429 0.49962717 0.50929844 0.19987088 0.27442747 0.548867 0.4485314 0.46300557 0.36417848 0.21390572 0.2754031 0.19236428 0.16911006 0.35429263 0.3718304 0.09828245 0.13755943 0.24976726 0.068091616 0.13427323 0.016220268 0.06334585 0.20134911 0.31610954 0.3085297 0.092756644 -0.13576755 -0.07565646 0.090712495 0.47801858 0.49761185 0.13462111 0.21174413 0.29517883 0.5903957 0.14299563 0.25895858 0.276415 0.60377616 0.61858857 -0.02675759 0.2051168 0.570239 0.5550047 0.4097661 0.23125944 0.03513116 0.06697232 0.21644816 0.15105423 0.33751714 0.2188659 0.43561 0.102994286 0.04191753 -0.37920833 0.48933554 0.4766925 -0.12666479 0.42252335 0.47786963 0.4996224 -0.010877401 0.06579228 -0.0012433976 0.14410323 0.13038997 0.30295572 0.19438347 0.5491392 0.53860277 0.545225 0.49933463 0.5295531 0.51856935 0.43147713 0.35988897 0.315287 0.18421817 0.29468882 0.24736235 0.09344781 0.10076698 0.48383057 0.38658226 0.15826175 0.032441493 0.0043656025 0.54337007 0.51225877 -0.09865477 0.17733648 0.50318444 0.043856427 0.13925526 0.5824 0.5762123 0.0828263 0.15839641 0.6817704 0.54011023 0.5680968 0.49375653 0.53551275 0.49491036 0.081346825 0.08822751 0.74665433 0.6727616 0.49479496 -0.06894174 0.036677536 0.7098824 0.42259875 0.007762369 -0.3008168 0.077863045 0.13749284 0.38466716 0.20983547 0.11076801 0.23696977 0.45173305 0.28490877 0.2903778 0.21913496 0.20894274 0.2173655 0.16625711 0.04353556 -0.06022712 0.22222269 0.1703485 0.2805797 0.32785398 0.35481617 -0.6633632 0.35861206 0.5233772 0.37480438 0.5443265 0.53321224 0.35211548 0.47520947 0.4065886 0.32873896 0.14792748 0.14621949 0.22594312 0.18148622 0.057283543 0.29818514 0.32147032 0.15149294 0.374604 0.40165108 0.14888111 -0.17510262 0.44283006 0.46451637 -0.19601765 0.22881961 0.33002302 0.42632985 0.46375307 0.48617423 -0.01400733 0.058477122 0.08690511 0.13655007 0.06978746 0.083223894 0.10205084 0.1334652 0.21379292 0.08973834 -0.034068972 0.25649905 0.5198144 0.52303976 0.47734833 0.50639296 0.51314723 0.5028341 0.4048255 0.22783625 -0.021092992 -0.10677017 0.14383668 0.03964822 0.27918223 0.18140814 0.05811687 0.0012181439 -0.050908886 0.4355997 -0.1355478 -0.10481571 0.4213986 0.014758788 0.45361438 0.3855614 0.39765033 -0.04509023 0.50529474 0.37981385 0.35623637 -0.04286058 0.2599447 -0.80753756 0.060711216 0.23133434 0.2162346 0.17076805 0.13334778 0.0930582 -0.13041377 0.18238328 0.15730755 0.07648116 -0.26029888 -0.2065482 0.14580546 -0.1788794 -0.43876427 -0.5865857 -0.53392756 0.16628383 0.22738458 -0.63388723 0.30744272 0.29963788 0.34447837 -0.26096043 -0.23693174 -0.34591323 0.34433514 0.33736417 0.3554108 -0.23641463 0.36508995 0.35543776 0.38961953 -0.3291381 0.36373925 0.21160409 0.0038544983 0.26930755 0.11631832 0.07107988 0.25221944 0.030650843 0.234312 0.07769421 0.049381383 0.27556536 0.23724172 0.35376716 0.31465262 0.20362934 0.39540458 0.4065405 0.12909584 0.20855987 0.2805552 0.39684862 0.4306996 0.05913169 -0.049579985 -0.0986636 0.177717 0.102984436 0.10419433 0.13420315 0.26355782 0.15737745 0.109627 0.11254538 0.09952804 0.107723266 0.0102335345 0.1258283 0.27545407 0.57578325 0.6134588 0.47921354 0.49645004 0.50348675 0.43283165 0.36511344 0.32314834 0.37208748 0.22001295 0.58614933 0.64954585 0.64631116 -0.03044464 -0.15598887 0.37456325 0.5588561 0.6273707 0.06305731 -0.00463517 -0.113697276 -0.14796716 -0.04244926 0.34709883 0.08865217 -0.038833752 -0.14245547 0.22470601 0.32709795 -0.13183345 -0.12002422 -0.25854295 0.3009986 0.30241606 0.15523927 0.002076503 -0.2997649 -0.103318304 0.30511954 0.26961347 -0.045219764 -0.09310786 -0.28081012 -0.0956473 0.25677782 -0.15701275 -0.15531996 -0.4282114 -0.04030034 0.16046727 -0.17007075 -0.29287383 -0.18028538 0.018258322 0.093994334 -0.5812427 -0.095960595 -0.09839274 -0.17623748 -0.20848744 0.09413637 0.12069589 0.09749152 -0.26012492 0.17953634 0.21695109 0.09807604 -0.09759127 0.20701739 0.2414358 0.10459254 -0.09084474 -0.29548848 0.31504345 0.25766098 0.3482019 0.25021574 0.29257998 -0.16394737 -0.12574697 0.32773152 0.17107294 0.2165023 0.042902187 -0.04444634 -0.08877583 -0.016778693 -0.0030502677 0.2937179 0.07852504 0.21759388 0.071849264 0.055947818 0.25262412 0.21731377 0.02109981 0.017359048 -0.09936124 0.05969789 0.11691391 0.093715236 0.045474783 0.088872075 0.13815872 0.25746244 0.23208965 0.18445125 0.2237939 0.31160197 0.38131818 0.35911936 0.31479412 0.2900439 0.19137463 0.19509074 0.29685113 0.34913415 0.4388584 0.4244998 0.3836372 0.19074976 0.16037497 0.21560591 0.21685131 -0.106045425 0.07567167 -0.16594996 0.065335676 0.29398245 0.07612622 0.062384717 0.6715196 0.05740521 0.19170433 0.25190574 0.84275895 0.39335263 0.5064556 0.65087473 0.77595735 0.82102656 0.6280228 0.70943296 0.7914494 0.46868587 0.4925576 0.5023378 0.490837 0.6400675 0.6842636 0.695861 0.4426419 0.26888484 0.1044542 0.38235992 0.5311595 0.6579694 0.6613498 0.6311921 0.5768292 0.5892028 0.6750543 0.5978782 -0.08545953 0.41504985 0.53351104 0.5419991 0.5388218 -0.089851014 0.3344205 0.35352826 -0.1824686 -0.043499336 0.07340589 0.12781009 0.20146085 0.19237208 -0.07696921 -0.06777095 0.17612481 0.0151145235 0.15968269 0.15321738 -0.19227411 0.11849566 0.115742646 -0.23782253 0.15791318 0.19350709 0.11143842 -0.055668563 0.21118265 0.23239756 0.005877748 0.09545855 -0.07086405 0.30908164 0.2177187 0.17241356 0.12935516 -0.14876369 0.36964107 0.42472017 0.3715799 0.19954875 -0.09980154 -0.14205915 0.37452638 0.4093374 -0.07235926 0.29508856 0.33091742 0.24382922 0.11449664 -0.027592354 -0.20113745 -0.20117055 0.25722778 -0.15429986 0.23092797 -0.11425465 0.20119697 0.20097038 0.021572448 -0.043618053 0.09969573 0.13984425 0.22175029 0.005712107 -0.021402087 0.19387057 0.21678105 0.22039989 0.24334973 0.13118294 0.16704622 0.23055534 0.27431342 0.26607147 0.15839598 0.32951772 0.1815614 0.18037105 0.23937024 0.09279391 0.167337 0.30135745 -0.11363718 0.12376544 0.3946014 0.28876996 0.1853526 0.43347955 0.36961624 0.15913469 0.4686991 0.3981013 0.2210773 0.59173995 0.48222727 0.43483567 0.31977752 0.1988321 0.089119434 0.78061825 0.62607515 0.5883375 0.5111989 0.44771284 0.4645896 0.8239386 0.7749192 0.7173015 0.61468077 0.528252 0.5801223 0.64181715 0.7331661 0.8011652 0.8217838 0.80709517 0.77802587 0.4771702 0.4638052 0.47965366 0.50008464 0.61085856 0.70473564 0.7052275 0.6308046 0.3339243 0.4410676 0.4530696 0.27602103 0.36398575 0.6220492 0.7966802 0.83558226 0.785797 0.29880202 0.5443293 0.63925797 0.7031052 0.73589885 0.68744445 -0.13581696 0.44603735 0.4207679 0.47893846 0.62268656 -0.09766708 0.14290267 0.3478799 -0.03630484 0.020860896 0.28383416 -0.08639213 0.08891187 0.13828209 -0.18652457 0.16367918 0.14916447 0.16432205 0.054336283 0.12936154 -0.3485232 0.17146915 0.095744275 0.09609778 -0.25394806 0.21252863 0.069464535 0.094576396 -0.074145034 0.2557803 0.13319941 -0.007250786 0.3396273 0.52324533 0.4065827 0.19022055 0.006729007 0.37134212 0.521803 0.49552184 0.24822277 0.27975437 0.3167415 0.5151601 0.4745946 0.23845324 0.020934278 0.43665254 0.39316478 0.27738345 -0.4260948 -0.40120006 0.21627551 0.33572698 0.22748023 0.08390204 0.012716498 -0.44468045 -0.2549496 -0.35512912 0.23504232 -0.015446503 -0.2696223 -0.2624099 0.20471568 0.23408943 0.25262836 -0.29552898 0.11944575 0.16256967 0.20671636 0.038764004 0.033871982 0.20219415 0.18931416 0.2059145 0.09666388 0.052293584 0.682714 0.6902497 0.14492801 0.11871335 0.21340823 0.16201837 -0.057101384 0.37997416 0.18898548 0.2851176 0.07764545 0.43352443 0.41893226 0.08941986 0.48292354 0.47904336 0.56380403 0.549768 0.67980766 0.69596565 0.7329595 0.09321591 0.78332293 0.82881826 0.8117373 0.6787246 0.49821162 0.58844316 0.6499154 0.72482765 0.7912779 0.8107462 0.8543708 0.84245694 0.7804152 0.6853072 0.6458451 0.8282841 0.80538714 0.61835474 0.6691667 0.67023444 0.3007182 0.40988916 0.64983344 0.5902412 0.32582474 0.4258749 0.57389474 0.7425331 0.8239955 0.8909019 0.86374414 0.29483545 0.25460958 0.09003441 0.45373446 0.5374203 0.65810204 0.6772174 0.027249727 -0.13592947 0.25280723 0.07457253 0.453794 0.51847804 -0.118371695 -0.15739131 -0.23918208 0.0760922 0.07526021 0.3535729 0.4090934 -0.104518086 0.07729842 0.26188025 0.0073641855 0.0064443517 0.0032201558 -0.1925