# vtk DataFile Version 2.0
Really cool data
ASCII
DATASET POLYDATA
POINTS 6703 float
-1.5813159 -1.844307 81.41643
-1.6041445 -1.2896917 80.89473
-1.7511418 -1.3929558 81.48454
-1.7637179 -1.1628538 82.240395
-1.6487632 -0.53383934 80.76542
-1.83622 -0.6074168 81.451836
-1.7686086 -0.55909854 82.4173
-1.6310599 -0.6375721 82.858665
-1.605954 0.24071904 80.81091
-1.7054772 0.22735497 81.61943
-1.6353358 -0.008367389 82.35815
-1.718126 2.2037559 66.52865
-1.9646481 2.9740212 65.63944
-2.1236925 2.803301 66.47943
-2.0880883 2.9019847 67.31568
-1.8042362 3.5935488 65.15294
-2.136088 3.5175912 65.62825
-2.3844407 3.427634 66.42812
-2.3095021 3.4747143 67.293816
-1.9804585 3.6786458 68.19775
-1.8120157 4.0844703 65.17286
-2.100615 4.288648 65.78973
-2.225481 4.252737 66.342545
-2.2381082 4.3050675 67.380875
-1.8927437 4.521105 68.32156
-1.9811429 4.814287 66.24275
-1.8053439 5.276147 67.398705
-1.6517246 4.984517 68.30047
-0.9065161 -2.6712782 81.627
-0.94720554 -2.7366884 82.3724
-1.1641542 -2.0998576 80.86226
-1.25192 -2.2908416 81.42046
-1.1536417 -2.45617 82.04482
-1.3015479 -1.9601113 82.818665
-1.0559646 -1.2268639 80.17253
-1.3909591 -1.6199881 80.71532
-1.3412056 -1.236597 83.10372
-1.3461379 -0.14134502 80.1304
-1.4884378 -0.7149478 80.48038
-1.419737 -0.45543647 83.05419
-1.1314005 0.21054967 80.071106
-1.4155207 0.55122185 80.66265
-1.5263643 0.5380634 81.62734
-1.3632302 0.48379 82.23246
-1.1983464 0.046473145 83.00771
-1.5066922 2.1286535 66.108986
-1.4247375 2.0610888 66.45231
-1.3612717 2.1861606 67.28672
-0.97416294 1.01919 80.18147
-1.1265367 1.1053141 80.76721
-1.2158374 1.0370507 81.4002
-0.9639656 0.7890175 82.46196
-1.347416 2.8431902 65.19496
-1.4628181 2.551522 65.511765
-1.5413799 2.5950918 67.946266
-1.1513462 3.042701 69.45931
-1.4636546 3.6020532 64.92486
-1.5241355 3.6460176 69.24104
-1.2358567 3.6830375 70.08621
-0.7424216 3.7730207 70.85518
-1.4382519 4.2903633 65.039215
-1.4707853 4.4500113 69.62526
-1.2778194 4.2532024 70.1492
-0.74201816 4.431665 71.20167
-0.93970233 4.963421 65.193474
-1.4315697 5.046953 65.64386
-1.5888777 5.2883487 66.191574
-1.4338892 5.711966 67.364914
-1.1891185 5.3255725 69.74769
-0.9784456 5.3244195 70.3268
-0.7036507 5.46091 70.91355
-0.7674044 5.8438582 65.98989
-1.0808759 6.02203 66.721756
-1.0119102 6.508971 67.739555
-1.1307961 6.1953673 68.47616
-0.85892 6.001974 69.55222
-0.6576747 6.8076057 67.2678
0.06580979 -3.8818004 82.66113
0.105327874 -3.8889194 83.49741
0.28218955 -3.8238907 84.231514
-0.59936225 -3.1422865 82.2251
-0.27700678 -3.405896 83.462555
0.0654684 -3.4637783 84.15195
-0.26711875 -2.1147983 80.20037
-0.5746593 -2.2608285 80.46308
0.35767582 -2.7701178 84.59479
-0.49397498 -1.5475079 80.04084
-0.29286867 -1.5011617 83.92832
-0.5076776 -0.12197266 79.687
-0.32687217 -0.7483028 83.90361
-0.562978 0.2383624 83.21652
-0.026680356 2.2417996 65.27385
0.014747711 2.113635 65.60123
-0.61649776 1.756244 66.3763
-0.45101282 1.0707169 80.01204
-0.73215175 1.4602835 80.62605
-0.5990911 1.1655892 82.19671
-0.3819861 0.6806044 82.9674
-0.6197325 2.8453414 64.983475
-0.41728055 2.5417857 69.67712
-0.48540708 2.8797674 70.027275
0.027043298 3.075029 70.89034
0.38745564 2.9979353 75.941864
0.25237614 2.8710976 76.48506
0.3787661 2.4956238 77.15954
-0.34188575 1.7054206 80.977745
-0.34888482 1.6513402 81.36923
-0.74255776 3.7002552 64.77708
-0.4556131 3.736442 71.14546
0.026079774 3.897604 71.95299
0.39384684 3.7015984 76.17639
0.21605915 3.6240563 76.7095
0.22258022 3.4439275 77.210365
-0.41974446 4.5143805 64.82939
-0.45760792 4.482838 71.53815
-0.17818147 4.773936 71.90907
0.3161378 4.004186 76.67744
-0.40775007 5.115869 64.98624
0.11108251 5.9318175 65.34804
-0.40016717 5.790653 65.53863
-0.43937826 6.5579405 69.51384
-0.46136162 6.2130704 70.5304
-0.06128916 6.2453065 71.095276
-0.14223713 7.3424478 66.94964
0.095384926 7.231996 68.62233
0.051698238 8.498561 66.66002
-0.13766286 8.2446785 67.41906
0.2504655 9.17066 66.73006
0.16711375 9.394881 67.62943
0.3460793 9.568834 68.29036
0.36233154 9.345242 68.8064
0.348922 9.69464 67.614365
1.4567916 -8.098746 79.86656
1.480936 -8.097105 80.0403
1.43133 -7.871152 80.01507
0.7242158 -4.0391903 82.06363
0.3725581 -4.116423 82.75297
0.40016192 -4.229528 83.262535
0.67183864 -4.1281147 84.014946
1.0253342 -4.099611 85.176704
1.1270726 -2.9693935 79.85367
0.71313727 -3.4361532 85.31354
1.1051354 -3.198622 86.15866
0.36064273 -2.6782603 80.16099
0.51676065 -2.3851528 85.16602
1.1749165 -2.3907125 86.25094
1.3313537 -0.75714374 66.05632
1.0780416 -1.4490836 78.79432
0.9878218 -1.7899369 79.33369
0.82678115 -1.5385983 85.207016
1.1247509 -0.20398596 65.60581
1.1071231 -0.40038836 66.44464
1.1336138 0.15728852 67.212585
1.0689154 0.18268038 68.68193
1.1254795 0.2611561 69.08468
1.3852422 -0.9710765 77.99007
1.3709474 -0.22283234 78.431114
0.40158027 -0.7793769 79.58855
0.49329925 -0.8823391 84.30987
1.0279105 -1.2777739 85.311775
1.0608022 0.9025133 65.51886
0.7353103 0.9446906 66.87929
0.8107827 0.70264375 67.963745
1.1839234 0.4333664 69.303
0.8989325 0.642975 79.91576
0.30166024 -0.055623338 83.855896
0.59662324 1.3317909 69.534164
1.2016332 1.5867585 70.23038
0.6335342 2.12185 76.67082
0.559205 1.2436618 80.16438
0.5171501 1.1745678 82.38971
0.47336832 0.68623745 82.887665
0.56824046 2.264061 65.43509
0.7093749 2.5974889 75.72215
0.478338 2.3369062 76.508896
0.4997741 2.653912 77.54819
0.62872815 2.7285337 77.73331
0.29540884 1.650669 80.83553
0.14652967 1.6924807 81.32334
0.37384593 3.5625577 65.00673
0.46290964 3.792927 72.332954
1.1197655 3.8026943 74.626656
0.66476953 3.5094433 75.705086
0.5638425 3.2302272 77.77503
0.18232128 4.1921706 64.803925
0.5655135 4.161063 72.65244
0.8790841 4.823661 72.84453
0.49112284 4.283757 76.49743
0.57673925 4.56682 77.54956
0.79379237 4.5641017 77.98917
0.42387462 5.0804987 64.927025
1.3317783 5.418084 75.99098
0.93222 5.465744 76.815
0.81351143 5.2914143 77.42849
1.1506107 5.2697654 78.15799
0.29347688 6.3487945 71.4849
0.89166135 6.3518243 71.97057
1.0580177 5.745278 76.97808
1.192369 5.7932186 77.49108
0.7498236 7.949643 66.02554
0.31693107 6.9961896 70.30157
0.94034064 7.1335807 71.11353
0.67044646 8.615549 66.0685
0.7088258 8.746916 69.161194
0.8016138 9.063875 66.18758
0.503227 9.303768 66.5861
0.36986297 9.591621 67.26457
0.50644374 9.611037 68.61388
0.8402658 9.272423 69.14426
0.87264633 9.739848 66.90152
0.68615055 9.908832 67.67496
0.70591784 9.911678 68.31852
0.9464525 9.865749 68.861946
2.2846932 -9.811402 80.99995
2.2681422 -9.045125 78.73447
2.0172992 -9.181617 79.43002
1.9888752 -9.244266 80.58359
2.2512836 -9.491848 81.36723
2.3679352 -8.898537 82.103806
1.9160779 -8.4188 78.91913
1.6177635 -8.396577 79.54807
1.6929214 -8.59757 80.43336
1.9053131 -8.491326 81.29527
2.1898391 -8.792589 81.92052
1.9883711 -7.7338676 78.84098
1.565242 -7.779901 79.746635
1.5882659 -7.82278 80.440384
1.6199217 -7.6363153 81.13102
2.023769 -7.334615 82.63664
2.18581 -7.157476 83.089874
1.926235 -7.107474 79.43641
1.8898202 -6.3429236 80.77543
1.6830492 -6.343422 81.83576
1.7477663 -6.439022 82.31613
2.1304734 -6.4505234 83.298904
1.9061133 -5.7382417 81.14141
1.8565149 -5.5268774 82.72767
1.5143383 -4.583846 83.710625
1.6671779 -4.7467895 84.58273
1.9940681 -4.735803 85.53274
1.2934858 -4.4650784 84.32446
1.8575569 -4.0498915 86.35506
2.2069526 -4.148194 86.82645
2.261527 -3.1458552 77.61444
1.8486013 -3.4569128 79.88944
1.3600985 -3.532466 80.589165
1.4739606 -3.4315038 86.43687
1.830677 -3.2335649 86.839455
2.4078798 -2.3002546 71.77318
2.4515505 -2.2560453 72.3746
2.2468073 -2.6087883 76.8975
1.8964525 -2.499082 77.49267
1.6227386 -2.683541 78.467125
1.3806419 -2.8003218 86.58737
1.7369958 -2.5266852 86.80528
2.200625 -0.99890924 64.04573
1.9740896 -1.0480962 64.79974
1.7346389 -1.0400656 65.80681
1.5978234 -0.8335246 66.385506
1.9945492 -0.8498936 67.240326
2.2037325 -0.9356708 69.71266
2.41359 -1.3824301 70.51538
2.381169 -1.4908531 71.74418
2.0600476 -1.631506 76.95203
1.621137 -1.7746475 77.724304
1.7828485 -1.655344 86.38711
1.6923417 -2.058083 86.66466
2.0552804 -0.2965284 63.693115
1.6523321 -0.41759175 64.63438
1.4827739 -0.4263776 67.018616
1.4236387 -0.27550226 68.39817
1.9938588 -0.22674063 69.81971
2.2613907 -0.4104544 71.37486
2.3877182 -0.050378565 72.14675
1.8200563 -0.6759829 77.32872
1.3499997 -0.47336644 84.675354
1.9048774 -0.9368319 85.4596
2.017848 -1.1794223 85.9696
2.181701 0.35719323 63.611183
1.7099783 0.885181 64.46603
1.6336886 0.5371505 70.10723
1.6655769 -0.033529565 78.16077
1.383117 -0.13005273 84.232056
2.1508613 1.2892047 63.974636
1.7543354 1.6842337 71.2998
2.3092327 1.9099609 72.33693
2.2393055 2.042379 73.43448
1.8029025 1.8576814 75.06472
1.4615059 1.6572549 76.00851
1.9235775 1.0618799 80.32081
0.9404521 1.3741555 81.38719
1.356032 1.1585189 82.247795
1.1057913 0.714488 83.17349
1.6314275 2.684866 73.64361
1.4437834 2.8454375 74.75797
1.4665111 2.8995793 78.23138
1.5127391 3.0290844 65.09027
1.347534 5.4270377 65.2023
1.6390479 5.4767594 74.33748
1.442289 5.441448 78.289314
1.8997793 6.0800114 73.621124
1.5421028 6.0186763 76.93054
1.6480858 6.0483475 77.5821
1.6061499 5.7997184 78.06023
1.7237964 7.6300764 65.682205
1.6788781 6.986196 72.09862
1.4009652 8.367378 65.798904
1.7164696 8.271695 70.383125
2.1536217 8.390345 71.1014
1.5291159 9.141194 66.06137
2.2945664 9.386651 70.320145
1.6573726 9.803364 66.75077
1.5093673 10.131973 67.56287
1.365822 10.05853 68.6115
1.289721 9.706003 69.26913
2.815492 -9.724491 78.93189
2.7016878 -9.805713 79.466644
2.83941 -10.101211 80.55891
2.776586 -10.041149 81.449005
2.999229 -9.962347 81.99055
2.8226929 -9.041395 78.290985
2.7175071 -9.314964 78.57034
2.4976351 -9.69175 81.68083
2.676432 -9.483642 82.2086
2.7335515 -8.417304 78.17135
2.3637245 -8.618971 78.43825
2.4724236 -8.343736 82.62694
2.880493 -8.555797 82.86628
2.7182322 -7.7096286 78.29438
2.4421248 -7.3547163 78.6169
3.0391722 -7.64898 83.91624
2.5012035 -6.841393 78.9715
2.8572464 -6.2013597 84.20998
3.0438983 -5.1863217 87.088425
[...]
POINT_DATA 6703
SCALARS features_00 float 1
LOOKUP_TABLE default
0.61677706 0.63035923 0.66068196 0.70339787 0.68651724 0.71219206 0.7142265 0.6921623 0.73964417 0.74128246 0.7151316 0.66996014 0.76908463 0.7315768 0.6633644 0.76508296 0.78707546 0.772841 0.685078 0.52869254 0.735663 0.7281294 0.7202909 0.6220744 0.46983445 0.62422305 0.47282767 0.42807186 0.49466336 0.48162606 0.5437158 0.56418705 0.5508073 0.6140921 0.547246 0.58393216 0.6711948 0.67094374 0.64685285 0.66384786 0.69887114 0.7579983 0.75133526 0.7186866 0.6461394 0.67061245 0.6372777 0.5497735 0.7770399 0.7926861 0.778906 0.69037914 0.71833384 0.7118095 0.52086645 0.350959 0.7312927 0.41522303 0.37276545 0.34530106 0.6937127 0.40602374 0.39184082 0.362181 0.60636544 0.6059958 0.54205054 0.4017555 0.3846797 0.3911298 0.39368737 0.45612502 0.38113678 0.28641888 0.31758344 0.33577096 0.2756072 0.30478027 0.29565856 0.31891552 0.40291786 0.3354442 0.343337 0.39250213 0.44876897 0.44027594 0.447401 0.4924255 0.5948399 0.47738975 0.5681157 0.5328551 0.5119461 0.5189367 0.77314985 0.7960839 0.7084409 0.5805453 0.63426816 0.20965031 0.26103473 0.23443514 0.4963456 0.55912924 0.6118021 0.7635373 0.7519406 0.6494036 0.3237207 0.29260474 0.5384135 0.5956073 0.6258553 0.58599496 0.3435772 0.33568156 0.60258794 0.5588275 0.4120038 0.47986403 0.27402675 0.32614312 0.3067534 0.3530671 0.26673868 0.56216824 0.4987663 0.6219164 0.5893254 0.5251417 0.4105629 0.61323655 0.6028559 0.57598424 0.55801195 0.25081974 0.2639061 0.2507927 0.27666205 0.34462222 0.09913579 0.41996157 0.44530457 0.2342508 0.49348706 0.4731295 0.33653343 0.18752104 0.16501576 0.41770363 0.37000075 0.26074407 0.17717895 0.08469495 0.0659679 0.22646542 0.2170445 0.32281914 0.35973796 0.38574588 0.28256363 0.17578717 0.13644974 0.059536215 0.6176979 0.40240234 0.07558875 0.033605035 0.52444553 0.6404383 0.5349591 0.46862626 0.40407377 0.42527092 0.53217304 0.64472365 0.6576908 0.66125774 0.66779494 0.48670498 0.23828736 0.2907915 0.46846747 0.6716398 0.5019445 0.25442952 0.259379 0.5847875 0.65508616 0.6928528 0.4418177 0.46589607 0.58436763 0.6231222 0.63807094 0.26119658 0.18826243 0.58113825 0.5947045 0.48261386 0.18512014 0.1054199 0.58343506 0.24691007 0.62890077 0.6418109 0.6348693 0.4639414 0.2853927 0.66245824 0.6175014 0.52910537 0.40132692 0.5874364 0.7337625 0.7321333 0.6047301 0.53201777 0.43281645 0.7284428 0.67334425 0.55867124 0.45899385 0.43739086 0.68540126 0.5963431 0.49053204 0.4019326 0.26651585 0.20613615 0.5856466 0.36542904 0.27423236 0.2336782 0.124015935 0.24938142 0.025194556 0.12939562 0.17524469 0.25755224 0.22438392 0.36831507 0.3446035 0.18778084 0.037071016 0.11894947 0.41625 0.40813425 0.37203175 0.35878986 0.22705585 0.23074836 0.16203994 0.44307214 0.43489367 0.57765025 0.51920515 0.3971285 0.29446742 0.17302868 0.087709635 0.20134719 0.26619095 0.23664013 0.23988435 0.4236852 0.44004697 0.6185707 0.54683185 0.19452983 0.09458053 0.04771561 0.061377876 -0.029883685 0.20216572 0.30174488 0.32995582 0.36563402 0.6206932 0.52524775 0.016542375 0.19453987 0.29259533 0.5011494 -0.10681778 -0.2059297 -0.12706286 0.057006575 0.21827021 0.45272347 0.51422375 0.40124208 0.35300422 -0.06882214 0.2254564 0.68862593 0.18868066 0.15693852 0.11242901 0.6108923 -0.02546291 0.53461945 0.55931824 0.57173574 0.3382164 0.02118526 0.52552927 0.03182287 -0.026771192 0.60457885 0.00785676 0.64287704 0.6599238 0.46356285 0.264534 0.7195132 0.7445197 0.6827097 0.56428194 0.5189934 0.7159678 0.72910106 0.5245881 0.46485275 0.6807234 0.7213783 0.3139075 0.2768433 0.60863554 0.60241365 0.06576367 0.52114284 -0.029194273 0.21663487 0.3645929 0.39186227 0.43372554 0.13299915 0.022729866 -0.10335373 0.28174725 0.30052593 0.38037583 0.43850628 0.43258718 0.38244796 0.17161565 0.17874098 0.10312867 0.3679799 0.48470664 0.4027592 0.075820655 0.25313884 0.35988912 0.40004176 0.40754595 0.3261971 0.19443437 0.39750418 0.5969345 0.5784019 0.5269159 0.47024798 0.08009313 0.17041305 0.2516807 0.26016498 -0.070349544 0.20143786 0.38148168 0.6125803 0.6147474 -0.25190294 0.2724777 0.35010305 0.6162821 -0.1568768 -0.190923 -0.25664878 -0.15000854 0.22826125 0.22983812 0.2387071 0.49639335 0.4193056 0.3680848 0.25212386 0.24824461 0.5015368 -0.1338269 0.48041308 -0.14291328 -0.13400534 0.55297303 0.37188697 0.4770473 0.5271312 0.16650313 0.034589067 0.4369642 0.004104417 -0.031861547 0.20813128 0.5058309 0.42945778 0.0240263 0.24292693 0.40487015 0.40137696 0.43301517 0.43945473 0.43647617 0.4597258 0.4548085 0.679494 0.61924124 0.64253867 0.5872231 0.5142119 0.6829172 0.68539655 0.63114816 0.1402364 0.11846779 0.24565983 0.45485845 0.14398926 0.27918193 0.38152596 0.3024304 0.037001498 0.27237344 0.30205116 0.2345373 0.2240675 0.12333783 0.27484965 0.25081354 0.28538695 0.2888738 0.2945571 -0.0968568 0.04675371 0.27939177 0.23155728 0.3311863 0.27570248 -0.12544917 0.077066265 0.3446929 0.50917464 0.4100835 0.25612837 0.06815438 0.18632744 0.41186213 0.5750983 0.55972946 0.04758148 -0.04338161 0.30820885 0.36618176 0.6001897 -0.14915049 0.21865883 0.27444413 0.5856476 0.15754692 0.49720874 0.24218065 0.24915498 0.23887986 0.3769871 0.21689379 0.0029503629 -0.039513644 0.23241906 0.33586895 -0.029352162 -0.036742546 0.30278343 0.29413465 -0.11326862 0.33647227 0.29233906 0.30844995 0.04944574 -0.12925962 0.119479366 0.34235096 0.30108106 0.29293764 0.13943423 0.28046602 0.3471599 0.36222184 0.34313053 0.4369036 0.41607562 0.35747552 0.38336164 0.42149603 0.47088218 0.46991068 0.4402291 0.37643468 0.3828184 0.48297453 0.5181743 0.5495572 0.5451555 0.49360144 0.42111024 0.45382285 0.53135085 0.3358481 0.493335 0.5052705 0.48732597 0.44681287 0.3765665 0.4157161 0.28707567 0.27908683 0.36407465 0.3013052 -0.005674038 0.31465805 -0.04437959 -0.0560546 0.049936093 -0.19934964 -0.21917875 0.35952684 -0.13386747 0.39832628 0.45824355 0.44882578 0.47894514 0.4615649 0.36915517 0.48121232 0.5266129 0.4982636 0.063872285 0.4154905 0.45703518 0.51773417 -0.050240777 -0.0003421139 0.015132338 0.37032267 0.421448 0.47842124 0.026042992 0.070846155 0.41203976 0.10107806 0.21577847 -0.33306816 0.030080445 0.032565266 0.24062994 0.46833342 0.25678098 0.11864443 0.21545517 0.30435455 0.48674303 0.2668095 -0.048075277 0.16556169 0.30275112 0.48667365 -0.08040079 -0.077447824 0.033543877 0.36736032 0.19776158 0.13931786 0.21359211 0.18589056 0.06114843 0.30888683 0.1373992 0.1374565 0.19912317 0.28659844 0.16055909 0.37280762 0.25468916 0.43708807 0.19941089 0.3043374 0.36346024 0.48239905 0.4780439 0.56053865 0.5485848 0.53010154 0.25251898 0.22325647 0.33267748 0.14083442 0.52769125 0.48766148 0.24121785 0.1782681 0.6118644 0.5158829 0.37573564 0.25038362 0.34173608 0.37175342 0.11756216 0.25283423 0.60874057 0.56430674 0.48027152 0.2979108 0.20103219 0.33471864 0.23952939 0.2841295 0.5700753 0.51658684 0.46878308 0.17018971 0.005206058 -0.04872622 0.06174733 0.17014168 0.12358311 -0.26161155 -0.22194862 0.30669037 0.31252196 0.4293205 0.37030864 0.38725978 0.18019035 -0.05172614 0.31919605 0.30034924 0.35777313 0.3727612 0.035674322 0.4454037 0.44038177 0.4067806 0.29865998 0.089769594 0.50819296 0.50679153 0.43294448 0.38877115 0.4694025 0.50390255 0.43729272 -0.2377888 -0.25876653 -0.09011094 -0.047751367 -0.03111675 0.4169227 0.4636038 0.47756466 0.31586733 -0.20827267 -0.03724495 0.2867322 0.14613271 -0.3650574 0.09932478 0.004951071 0.010305792 0.21686712 0.41005263 0.30658093 0.36748427 0.52958703 0.3475991 0.3877331 0.5781547 0.2657701 0.3472108 0.40241438 0.569296 0.52277863 0.2201844 0.3342085 0.43761814 0.4172783 -0.09452244 0.2745309 0.25173086 0.014007572 0.3327341 0.34951514 0.3734454 0.3911445 0.4012248 0.28475967 0.19378713 0.39867264 0.42628047 0.28941837 0.20847347 0.2609412 0.18966839 0.12007502 0.17752229 0.43977925 0.40339106 0.49527296 0.41810235 0.29963157 0.19896156 -0.021809995 -0.07802935 0.02390194 0.5203203 0.41883665 0.17749576 0.087878264 0.36091167 0.39832646 0.42414182 0.51984644 0.557392 0.5112589 0.50686324 0.5660747 0.61918354 0.56739897 0.63571024 0.5276922 0.5625457 0.53525496 0.51571363 0.03386925 0.041763216 0.0071707442 1.5817583e-05 0.25159487 0.4822071 0.7478391 0.6987256 0.5884354 0.2726201 0.3151321 0.25521457 0.012507558 0.056641623 0.30297405 0.20480016 0.72135186 0.70944166 0.6294434 0.5132244 0.37990355 0.0967601 0.2599527 0.20893341 0.056160465 -0.051672854 0.09794725 0.6623268 0.633314 0.12658496 0.06657282 0.15006517 0.21855128 0.26789033 -0.05180207 0.3589939 0.23621936 -0.04068859 -0.18444432 0.4384222 0.33441246 0.25289813 -0.1832687 -0.20610699 0.5105443 0.32957911 0.50778055 0.36358047 -0.07881726 -0.049905956 -0.07403424 0.18343489 0.46672195 0.295406 -0.27020863 0.20197707 0.12725988 -0.0022974312 -0.15295884 0.24473014 0.025024042 0.25605896 0.40326434 0.3861785 0.5543846 0.5282495 0.44417647 0.62113786 0.6293537 0.44536978 0.62009054 0.38248718 0.41735074 0.55066013 0.41347885 0.2732717 -0.16445321 0.33562958 0.3565527 0.33453822 0.42601138 0.409236 -0.087583944 0.0020299077 0.4123326 0.4505009 0.42860335 0.29653597 0.1028229 0.120810196 0.16988356 0.23291412 0.3559333 0.43151313 0.54587924 0.5015954 0.33441007 0.61766267 0.57407266 0.5347514 0.6487074 0.60815763 0.5147924 0.41225404 0.3531231 0.2579306 0.3006243 0.63742197 0.55639815 0.46483952 0.18929039 0.14929438 0.31912705 0.39448184 0.41723052 0.38918924 0.42700756 0.50887406 0.5680788 0.5252446 0.43482465 0.55140984 0.6007161 0.64183563 0.56017005 0.6427514 0.54992247 0.4896189 0.20147468 0.04113981 0.068224594 0.031026632 0.17058864 0.45832103 0.78227293 0.7339371 0.71965635 0.460448 0.17630403 0.15555744 0.13303298 -0.08755054 0.08875447 0.06740312 0.765037 0.7657223 0.082682 0.13687472 -0.08448678 -0.29216528 0.07484361 0.70879215 0.59956956 0.14731841 0.19611481 0.33859223 0.29871354 0.20347975 0.42212027 0.28876147 0.44977024 0.0077907806 0.4408333 0.19902068 -0.13028839 -0.056119896 -0.039285373 -0.079892464 0.09900966 0.20136538 0.42513603 0.23346972 -0.37275603 -0.06834457 0.11042858 -0.3570817 -0.3407203 -0.28252366 0.07493281 0.34756887 0.4871148 0.46039605 0.46252048 0.53788483 0.45416552 0.5410104 0.4016457 -0.061380927 0.33097294 0.35971186 0.28444225 0.07389437 -0.67104506 0.29712856 0.37083125 0.30286536 0.09664343 -0.111743435 0.4409219 0.43485743 0.16740976 0.13971546 0.43001705 0.4332655 0.5258702 0.60111284 0.624462 0.6392406 0.659401 0.1887128 0.10815781 0.6644173 0.58857226 0.20734718 0.38074613 0.2757944 0.2642488 0.12800619 0.31209803 0.20899251 0.38940564 0.4663551 0.5432751 0.5280304 0.41591966 0.5769799 0.596453 0.6099147 0.5474494 0.40721387 0.29558012 0.2992194 0.29932016 0.26276964 0.25492224 0.29793665 0.28585216 0.037527665 0.2044375 0.09596654 0.25783014 0.2523561 0.07052654 0.0681111 0.03175649 -0.029585198 0.113153376 0.14017624 0.7976562 0.80991054 0.7976296 0.726298 0.042567298 -0.030329034 -0.01334203 0.110377625 0.08016465 0.7564358 0.45476562 -0.060467295 -0.20622414 0.07443026 0.67539126 0.08595815 0.19664633 0.23104602 0.28942862 0.31296104 0.3253008 0.289587 0.3334364 0.3347612 0.33124503 0.35311195 0.28917384 0.28968078 0.37358904 0.23340723 0.046291523 0.21907815 0.3452851 0.031113446 -0.0677751 0.12358248 -0.20882225 0.012039597 0.0017437488 0.11764322 0.20626326 0.116301864 0.2770719 0.272969 0.08963634 0.2778103 0.32233232 0.29888222 0.20040263 0.4410515 0.34321654 0.37940097 0.35951826 0.38270116 0.3346403 0.2977698 0.39192426 0.4046246 -0.1908324 0.25808942 0.37066978 0.34493846 0.27416137 0.107682064 -0.045260355 0.2553594 0.24610755 0.2841163 -0.09363583 0.38463765 0.33886036 0.15816966 0.26401055 0.34156203 0.3773936 0.463825 0.53482944 0.05999066 0.36756453 0.60751766 0.469099 0.63904035 0.55524695 0.04965941 0.12052954 0.31225622 0.44503713 0.3164196 0.24451815 0.107170835 0.21016756 0.113598175 0.44840127 0.5157956 0.33094156 0.5490956 0.5594177 0.5405011 0.4611141 0.5319455 0.5168618 0.4020625 0.4248855 0.34424376 0.2408756 0.43776745 0.43857014 0.44148362 0.43423504 0.36290973 0.3628713 0.31210086 0.2758804 0.45527017 0.46458882 0.43224347 0.42651302 0.29155457 0.29443797 0.25980026 0.36624485 0.3794378 0.37214547 0.18244965 0.15704282 0.2415117 0.19355437 0.15656836 -0.29563233 -0.06404425 0.11033629 0.20774612 0.23219109 0.21649233 0.1186914 0.0080807805 -0.1422184 0.17007256 0.79436386 -0.12690616 -0.0022847466 0.1428944 0.71926224 0.71935004 0.6542623 0.5186845 0.3725219 -0.24836355 0.1549809 0.17965966 0.587728 0.27356994 0.36797315 0.23662736 0.38469285 0.3909338 0.33187187 0.34080997 0.38195175 0.26877478 0.29800728 0.33646756 0.26084188 0.075253345 0.27572796 0.2863565 -0.04413946 0.02689197 0.21690801 0.28923059 -0.1958403 0.35416448 0.40085208 0.46581355 0.40461218 0.44938296 0.48585013 0.08238211 0.499269 0.5116369 0.50602686 0.23635666 0.24135055 0.5632948 0.5483911 0.21050432 0.22846518 0.17238976 -0.12778248 0.23797558 0.38815078 0.2552941 0.38242084 0.4118042 -0.12872952 0.20499167 0.22010067 0.3288126 0.3546923 0.21330214 0.31094214 0.31126764 0.22014669 0.496216 0.25617832 0.5153873 0.5231818 0.56747127 0.54894817 0.54628205 0.5399784 0.3587994 0.22443175 0.43704218 0.5383949 0.28520268 0.14313835 0.084425 0.2798188 0.3797347 0.09055108 0.23336211 0.11974604 0.09734653 0.4768002 0.5060339 0.34412777 0.22077505 0.18545519 0.5000841 0.4097663 0.37760133 0.29385245 0.30510837 0.40703273 0.36028537 0.14738916 0.22562622 0.2926827 0.36197478 0.3971324 0.36452317 0.40796962 0.4086923 0.37059104 0.2635914 0.24128893 0.4246732 0.39881915 0.38208964 0.39516157 0.16123046 0.010423012 0.037278656 0.33389795 0.12243035 0.17477843 -0.17338088 -0.042705532 0.026380843 0.18135372 0.19267538 0.26729944 0.055370808 0.1814343 -0.0501937 -0.20702416 0.21347608 0.08963254 0.0057387706 -0.04041027 0.19943559 -0.17564343 0.23559766 0.27719474 0.5811386 0.2657285 0.58671683 0.47915763 0.42618418 0.33010632 0.38902575 0.16937515 0.42194018 -0.09660798 0.43993253 0.19988628 0.43907917 0.42419097 0.19686575 0.3831324 0.38626313 0.41690585 0.09903674 0.348714 0.43564162 0.08344102 -0.18673055 -0.24766862 0.37598076 -0.106650695 0.016777212 -0.0027159639 -0.4844082 0.5972197 0.054114792 -0.5066612 0.54483885 0.6051288 0.058571436 0.06345408 -0.17407702 -0.22791293 0.6035625 0.60996747 0.046475753 0.67926383 0.6736232 0.64510655 0.66068673 -0.112813614 0.21847378 0.078223705 0.2160177 0.23197751 0.22796899 0.25883508 0.3085899 0.21931036 0.24501014 0.1651685 0.3487418 0.24799293 -0.13104571 0.46630013 0.38792488 -0.3294109 0.52902144 0.50701153 0.39876142 0.42358413 0.58588713 0.55955327 0.5125047 0.5094453 0.5951969 0.53411865 0.5375169 0.20350674 0.5623975 0.55957913 -0.10597385 0.4199804 0.49624598 -0.11275171 0.23336178 0.33673143 0.17894012 0.13799779 0.26054588 0.29727113 0.2428168 0.4393186 0.3568141 0.35377857 0.3589976 0.40389407 0.40128073 0.3753961 0.4873094 0.5730274 0.681003 0.65952766 0.26588184 0.24223804 0.3108433 0.33679688 0.31055313 0.43991554 0.58821535 0.6793584 0.6033634 0.3834004 0.3910002 0.34701344 0.20387353 0.2197043 0.29558653 0.27928662 0.25073117 0.61899644 0.6303005 0.50130385 0.36838487 0.3927791 -0.05260269 0.05744785 0.3427093 0.46023542 0.41878766 0.39334288 0.34215355 0.3845351 -0.022568846 0.0037383437 0.33653665 0.33138537 0.275834 0.014457092 0.16936035 0.20039913 0.075095505 0.1030984 0.10157271 0.22220099 -0.25944847 0.25904852 -0.5334347 0.3735475 -0.5801674 0.39675996 0.3780869 0.43075925 0.42433757 0.38668966 0.42810524 -0.0155062005 0.4148968 0.07385394 -0.04657854 0.45991975 0.15170567 0.49442667 0.48423275 0.19728354 0.1971615 0.49869078 0.16034399 0.078427605 -0.0805204 0.50476265 0.5470304 0.0020847712 -0.33535662 -0.40630567 -0.33222985 -0.24653926 0.60972273 0.05091191 0.6409365 0.055555098 0.57518893 0.6473112 0.6392006 -0.031884868 -0.016810313 0.0065528452 0.78605676 0.8937844 0.7357292 -0.17069693 0.20114963 0.22192183 -0.05701244 -0.041404437 0.23314747 0.21783489 0.1477329 0.2379207 0.22471137 0.18087614 0.17245188 0.06260486 0.3384524 0.23684737 0.00073818257 0.45610118 0.5668254 0.38029796 0.64229906 0.4696525 0.65428317 0.6195087 0.5775285 0.349068 0.49354994 0.59811723 0.55345786 0.33672374 -0.114940524 0.52991265 -0.00053773075 0.021630913 -0.026858358 0.470223 -0.15277639 0.37982893 0.4119076 0.10185379 0.31774223 0.3354745 0.3117651 0.32376117 0.33547968 0.49495703 0.52218443 0.45515367 0.4335303 0.3847606 0.584531 0.50110877 0.48814136 0.40975267 0.4396528 0.43261847 0.39022493 0.31775936 0.41535497 0.4289208 0.3861277 0.27215368 0.38945228 0.5223566 0.644599 0.6377781 0.16088557 0.0649218 0.106866464 0.20658594 0.32892796 0.5389186 0.4797941 0.36940736 0.31238645 0.2654314 -0.02119923 -0.055673037 0.025755307 0.12582484 0.4167698 0.3779987 0.31146288 -0.093529195 0.39550567 0.32626903 0.28785974 0.3231957 0.24265224 0.22357231 0.15120831 0.62039256 0.40287352 0.10674086 0.077502325 0.51408327 0.22388841 0.03313516 0.050904416 0.27321184 0.36485445 0.19780654 -0.097997576 -0.3716355 0.3262996 0.3850861 -0.019933805 -0.06963813 -0.22073619 0.29359972 0.29909748 -0.11035928 -0.19353338 -0.13014856 0.2774514 -0.020779597 0.29923686 0.2707369 -0.040611282 0.32642767 0.2629971 0.32276902 0.34572998 0.04855354 0.17312816 0.35627827 0.41657996 0.46666425 0.18111643 0.19267987 0.39061308 0.14687817 0.32174852 0.0961567 -0.279379 0.43821388 0.43086153 -0.037888497 -0.29251164 -0.23118298 -0.16905686 0.55199414 0.34578022 0.5306889 0.6065035 -0.011479581 0.5607294 0.6031601 0.5385373 -0.025218204 -0.018799782 0.74858665 0.7198549 0.6758319 -0.044080187 -0.14031044 0.16539228 0.18317294 0.31504494 0.12914224 0.32692334 0.12419982 0.2596491 0.009210154 0.34205198 0.5029385 -0.018893942 0.63629186 0.012427151 0.6753298 0.21396028 0.35746828 0.66632307 0.64354885 0.4306646 0.6225344 0.56063795 0.39701897 0.08099741 0.45971298 0.11591265 0.40850794 0.14850344 0.09825711 0.37435237 0.3744296 0.27302217 0.47124404 0.3797949 0.4857806 0.5988097 0.47789308 0.43892136 0.63088226 0.64908993 0.60639155 0.5219791 0.30851936 0.3841741 0.44149953 0.43520698 0.34548026 0.28750592 0.181159 0.17616002 0.17065716 0.18164016 0.040231943 0.10685718 0.16534668 0.3546027 0.57457846 0.14458613 0.07197539 -0.009828083 0.06295193 0.37604073 0.26872718 0.26061326 0.23752168 0.308186 0.2993037 0.26403815 0.24894945 0.26836288 0.23434359 0.6972035 0.68458354 0.5205185 0.18603241 0.20098543 0.32649407 0.38695624 0.6736214 0.6610388 0.11075185 0.6157458 0.4351653 -0.11323182 0.12981147 0.07266907 0.22472459 0.088063404 0.25060505 0.38782746 0.3593882 -0.07165832 0.13456301 0.2285219 0.264207 0.40005076 0.31949735 0.17528805 0.09361972 0.38147786 0.35086554 0.2440201 0.32519343 0.2887233 0.19695722 0.28158092 0.18858641 0.19460282 0.33251703 0.11966036 0.13229546 0.31938875 0.15796585 0.12763274 0.17919712 0.091201164 0.055739168 -0.22161229 -0.20078155 0.38831002 -0.012065674 -0.36523014 -0.3042597 -0.28644276 -0.17247121 -0.03819777 0.1171698 0.46224517 0.5053764 0.33831233 0.32320663 0.40564364 0.46331367 -0.16661666 -0.15944329 -0.41128153 -0.14844814 -0.04239227 0.02378153 0.590651 0.41551137 0.45723838 0.48624143 -0.026691973 0.024189532 0.073373236 0.5910865 0.56010705 0.095513865 -0.07464056 0.21203588 0.30256027 0.067940585 0.33796072 0.049083263 0.42476672 0.05651901 0.37110883 0.035392642 0.29141015 0.00827688 0.41724664 0.5645687 -0.18972453 0.62506676 -0.033166964 0.6419841 0.6263594 0.28327394 0.6107929 0.56988585 0.40459207 -0.04701821 0.34511897 0.20118363 0.36332223 0.23012109 0.1973035 0.3741926 0.31016505 0.44707483 0.2779455 0.83329606 0.84833074 0.8981997 0.43887258 0.40047613 0.35350394 0.91669536 0.92482865 0.51806355 0.5946958 0.5823327 0.49701712 0.62695295 0.6533036 0.6686034 0.2899693 0.32457793 0.41523814 0.36706698 0.30819753 0.18977511 0.19562349 0.23356093 0.22285396 0.20899418 0.15473403 0.30896407 0.2677275 0.11961514 0.06943896 0.20393987 0.18250993 0.14645505 0.040285297 -0.033626743 -0.010166198 0.07428534 0.035930224 0.19118947 0.25509143 0.19935818 0.30135873 0.39678472 0.27198833 0.2540044 0.395626