# vtk DataFile Version 2.0
Really cool data
ASCII
DATASET POLYDATA
POINTS 432 float
8.411557 8.770177 83.856064
8.356808 8.328231 84.40419
8.306486 9.340692 84.71443
8.293056 9.548682 85.33554
8.323751 10.500173 85.48737
8.443552 10.867679 86.86831
8.379134 11.318416 85.826515
8.417161 11.320539 86.28628
9.379032 4.4799643 87.42182
9.395204 5.152859 87.57419
8.965301 7.263098 83.84815
9.2709465 7.5088916 82.647644
8.6770735 7.971661 83.50403
8.522748 8.075124 84.28595
8.516429 8.00501 84.91007
9.028038 8.536517 82.77192
8.54547 8.170555 83.69641
9.018518 9.818849 87.2873
8.564937 10.588904 84.75255
8.696015 10.850653 87.176056
9.153528 10.964948 87.74442
8.752365 11.147472 84.74009
8.661035 11.509763 85.44367
8.5013485 11.496087 86.40996
8.887817 11.320981 87.42246
8.860512 12.094461 85.982864
9.03528 12.159788 86.550735
10.054312 3.32306 87.484825
10.070141 3.6943521 86.6519
9.882482 3.5851238 87.285324
9.989977 3.7596455 88.48755
9.502845 4.3471146 87.515526
9.591383 4.5038958 88.090416
9.94161 6.1713266 83.04217
9.953198 6.1474094 83.46941
10.081376 6.245251 84.00463
10.097975 5.8666744 85.630104
9.779733 5.469234 88.40302
9.608754 6.7403045 82.64975
9.627341 6.628028 84.16697
10.129465 8.09106 81.49802
10.020937 7.080833 86.97669
9.958936 8.557297 81.61812
10.303886 9.492241 81.24422
9.919003 9.46667 81.669075
9.348095 9.621347 87.44614
9.787834 10.0040455 82.73017
9.721418 10.662251 88.0409
10.089639 11.73642 87.89242
9.388982 12.09662 84.98412
9.4456215 12.441314 85.392525
9.47525 12.460196 87.19534
9.990677 13.1468525 85.89195
10.038774 13.437695 86.63784
10.185745 13.609844 86.99656
10.37012 13.923005 86.463524
11.18833 1.8844142 76.585205
11.1118965 2.738167 75.85976
10.968944 2.4322383 76.5377
10.899534 2.5292573 77.554794
10.883907 3.0226154 78.026215
10.499128 2.8275387 88.46591
11.004303 2.7969227 89.53008
11.346756 2.9695957 90.357445
11.201088 3.3541796 75.6911
11.055804 3.8068075 76.16449
10.853978 3.5284266 77.56811
10.892619 3.6669345 78.55206
10.502894 3.950739 85.98758
10.473914 3.3278627 89.26435
11.339336 3.8996358 75.58625
11.197818 4.164207 76.435356
11.244258 4.494319 78.58921
10.631629 5.4085197 89.41185
10.40198 6.269257 88.84658
10.972648 7.619378 81.06078
11.208884 6.76883 88.937675
10.456633 8.719206 80.952385
10.791641 9.249187 80.79298
10.488617 9.709277 88.00594
10.56859 10.086892 81.531494
10.43044 10.648203 88.27666
10.922677 10.577493 83.14451
10.842782 13.577178 87.78906
10.98894 14.2299185 86.10624
10.774 14.31927 86.60163
10.912951 14.255188 87.36968
11.029613 14.039918 87.694855
11.11586 14.55817 87.0937
11.824219 1.3671129 76.69819
12.126658 1.4147979 77.51865
11.961239 2.0874496 75.386475
11.799938 1.6870832 75.93266
11.615807 1.5223123 76.52323
11.606696 1.5850871 77.38557
11.474841 2.0899994 78.30051
11.826864 2.2062767 79.49005
11.475828 2.6506712 75.479866
11.396141 2.4037006 78.93275
12.30975 2.6823435 81.33783
12.062639 2.829123 91.991104
11.644365 3.3996253 75.25315
11.490174 3.7140698 75.44808
11.651829 3.4599032 85.82686
11.693598 3.7280123 91.365974
12.003725 3.4150102 92.25294
12.359818 3.4353418 92.71408
11.983831 3.931175 75.28493
11.764912 4.1768064 75.61362
11.475684 4.678174 77.73699
11.997782 4.7131476 91.79008
12.049731 4.5133166 92.19221
11.916861 4.6766067 76.241394
11.768342 4.9758015 77.60743
11.349594 6.089103 82.112785
11.634814 9.433856 80.72264
12.066356 9.07513 88.87933
11.296432 10.231954 81.27235
11.510119 10.419416 81.56137
11.938433 10.645622 88.75392
11.49632 11.328495 88.559906
11.292663 12.563576 88.15823
11.466315 13.448999 87.98977
11.440713 14.083576 85.84221
11.603355 14.48168 86.43377
11.428968 14.457816 87.37324
11.429392 14.01365 87.73657
11.555318 14.582764 86.8654
11.35033 14.550275 87.06728
13.341011 -3.1820464 87.43558
13.295397 -3.413189 88.39613
13.286622 -1.922925 86.79387
13.203898 -2.6995294 87.51003
13.114412 -2.3834307 88.85457
13.339479 -1.892014 90.36163
12.851951 -1.5270888 87.606735
13.189681 -1.4688001 90.76234
13.036433 -0.70434254 90.68409
12.116054 1.4418771 76.193924
12.123589 1.2461898 77.00776
13.000385 1.1655622 78.87964
12.891407 0.21504837 89.09472
12.608783 2.045612 75.36338
12.274923 1.898252 75.496895
12.408568 1.7547662 78.81419
12.418616 1.9068968 80.2364
12.487022 2.0864475 91.91058
12.687791 2.6368086 75.14132
12.957477 3.0987072 84.238976
12.654601 2.7530227 92.87696
12.27366 3.4094796 75.071785
12.590016 3.662514 92.965836
12.146868 3.968872 75.2623
12.36462 4.195222 75.45466
12.483331 4.416589 92.59792
12.92625 4.4802785 93.00591
12.40493 4.6077757 75.8512
12.668815 4.8331184 76.39841
12.709248 5.047212 92.40374
12.973807 6.0009093 80.17984
12.837767 7.722816 79.97723
12.675887 7.297917 90.055374
12.527424 8.560517 80.313614
12.51994 8.932823 80.50948
12.527142 9.235184 89.25023
12.060852 9.735058 80.9792
12.042074 10.317608 81.589935
12.558758 10.399884 88.904655
12.434066 10.571728 82.68589
12.344806 10.955532 83.52222
12.0419855 12.476751 84.688
12.180034 12.733121 85.01958
11.993478 13.55742 85.39034
12.073307 13.640351 87.71164
12.10117 14.095706 86.13152
12.1037445 14.254489 86.6282
12.057096 14.199996 87.23899
13.948151 -4.0587277 87.081024
13.717237 -4.052842 87.6695
13.521532 -3.9233398 88.32032
13.908527 -3.9137638 89.17388
13.891715 -3.3310795 86.68795
13.6489 -2.4759526 90.61408
13.972029 -1.9600744 91.35534
14.026155 -1.8067381 86.20336
13.724656 -1.5050331 86.41825
13.483941 -1.5464159 91.10057
13.076828 1.4291272 76.27061
13.734224 1.0518209 78.23735
13.234612 1.1970663 79.078026
13.558825 1.1553507 80.024284
14.143188 0.33411622 91.85628
13.422688 1.9172654 75.71743
13.482682 1.648933 76.209526
13.621455 1.4957354 81.92429
13.3011265 2.6891012 75.248405
13.656824 2.3099682 75.58263
13.557965 2.6817827 93.21509
13.184358 3.7179372 75.28105
13.529002 3.352021 75.42821
13.485698 3.914288 93.47035
12.8508625 3.9256585 75.29239
13.126422 4.0406766 75.52911
13.834497 4.564391 93.56337
14.1178465 4.6570835 93.72746
13.717568 5.161488 93.12727
14.013105 4.844351 93.622536
13.818089 5.652121 92.40553
13.415363 7.629588 80.08992
13.561 9.005807 80.971725
13.989522 9.238176 89.67174
13.572803 10.941037 84.24315
13.00715 11.28535 88.53804
13.391189 12.420758 85.93663
12.848281 13.344123 86.52514
12.70689 13.073984 87.198135
12.644417 13.738387 86.41187
14.929037 -4.5512013 87.88712
14.557312 -4.173557 86.884476
14.411231 -4.4350605 87.413994
14.32859 -4.4271083 88.46456
14.556183 -4.1446624 89.37812
14.52688 -3.4970918 86.42495
14.668087 -2.998006 90.73188
14.45385 -2.7608912 86.268036
14.885697 -2.2735348 91.43925
14.270533 -1.8951142 91.599915
14.903207 -1.6201484 85.915924
14.9545965 -1.3303005 91.8604
14.65492 0.8079589 80.99247
14.666029 0.80434924 81.18228
15.165795 0.63366807 82.613914
13.921818 2.1645138 75.930855
14.26136 1.9824836 76.70881
14.671061 1.6116085 77.78637
14.219521 2.7708943 75.95738
14.843748 2.858157 93.62377
14.00401 3.3152323 75.8237
14.443587 3.223814 76.302246
14.734759 3.7692535 93.87592
14.484865 4.320715 77.07415
14.679396 4.700252 93.81865
14.577473 5.3430104 93.39928
14.713383 4.9569774 93.73072
14.869642 5.843676 92.72247
14.313035 5.639297 92.95838
14.767331 8.195842 80.80716
14.203041 10.813606 88.78126
14.476862 11.534758 86.576996
14.973765 -3.9825876 86.72619
15.270074 -4.4462748 87.64534
15.4316 -4.4266987 88.365906
15.27541 -3.22074 86.35218
15.659891 -3.5543447 86.643524
15.612366 -2.0603282 91.396866
15.294436 -1.1530951 91.91545
15.8230715 -0.43968874 86.11558
15.286685 1.1930696 79.634186
15.367405 0.9928793 80.55442
15.728222 0.58353126 82.36876
15.876626 0.5071652 84.47448
15.250546 1.2254418 92.63683
15.782214 1.8837025 93.23786
15.339868 2.7750776 77.526436
15.306733 2.264708 93.52883
15.454602 2.6985874 93.691475
15.529337 3.5311172 77.82588
15.070759 3.7817063 93.900154
14.926178 4.568821 78.06307
15.331715 4.4620867 93.759995
15.214466 5.2558804 93.37035
15.30033 4.8118634 93.70764
15.25245 6.060007 91.96357
15.003876 5.5890822 93.008575
15.575777 6.9754496 80.608406
15.489479 8.38782 81.039116
15.754722 8.458858 89.975525
15.298987 9.159971 89.91964
15.833421 10.372633 82.60794
15.749231 10.491081 89.350204
15.762337 10.695469 83.34372
15.822064 10.682134 89.06982
15.780642 -4.0987515 87.09034
16.29979 -3.9569266 87.784546
16.29007 -3.937466 88.3914
16.279245 -3.8196273 88.8191
16.564554 -3.6947708 87.76862
16.348982 -3.503991 89.10353
16.29485 -2.7492266 89.82597
16.371988 -2.4789171 86.743744
16.252792 -2.6275666 90.21012
16.069258 -2.331941 90.82204
16.050983 -1.1766431 91.644356
16.0619 0.39351517 84.1072
16.159687 -0.8309748 91.75614
16.22254 0.7963988 82.16397
16.385376 0.88893974 91.96325
15.831968 1.72346 79.58699
16.4546 1.6057062 80.729004
16.525106 2.6024246 93.350525
15.647448 3.220935 77.84381
16.313818 3.5648098 79.37152
16.465876 3.4760551 93.39117
15.881019 3.8582714 93.67431
15.734408 4.4078274 79.13559
16.393726 3.9000373 79.96398
16.145498 4.370384 93.34429
16.134653 5.145211 92.56424
16.04024 6.4662056 80.70312
16.130552 7.675853 89.76987
16.624197 8.184019 81.19425
16.5756 8.721063 90.13051
16.297653 9.166667 81.36862
16.786648 9.610989 81.598175
16.472057 9.448504 90.08544
16.690243 10.1947 82.117645
16.668867 10.498117 82.71591
16.68099 10.349901 89.5291
16.773375 9.768465 89.93773
16.696836 10.544243 82.90859
16.692495 11.084741 86.66424
16.250845 11.440305 87.514275
16.182486 11.164646 88.26589
16.761919 -3.273316 87.82902
16.801617 -3.3354716 88.29285
17.09507 -2.0077014 87.91972
17.106365 -2.206813 88.61354
17.14969 -1.90202 89.417915
17.416878 -0.99992883 89.624115
16.983522 -0.31867757 90.87779
16.81949 0.7354497 82.9328
17.49334 1.0921378 83.66372
17.211369 0.6310036 84.9029
16.902096 0.43027735 91.44049
17.283384 1.4483448 82.81743
17.562597 1.2718456 91.49547
17.237558 1.6875851 92.147354
16.804625 2.1836102 93.02227
17.24875 2.3997169 82.383896
17.16698 2.4298975 92.640305
16.992445 2.8752596 93.014725
17.471281 3.0643742 90.307594
17.444933 3.4438334 92.44059
17.056946 3.403213 92.9002
17.028185 4.067135 80.91687
17.057295 4.267783 92.52811
17.06578 4.042839 92.70502
17.23366 5.278288 81.7185
16.920437 4.7245946 91.491714
17.123981 6.2663355 81.70714
17.723997 8.708598 89.86747
17.468336 9.4567175 81.85022
17.34467 9.491946 89.896355
17.384785 9.893759 82.08008
17.300451 10.239787 82.60888
17.50349 10.349871 83.49267
17.240536 10.396684 85.253876
17.497244 10.258649 89.2674
17.384985 9.969807 89.691864
17.206017 10.910287 88.34512
17.27319 10.69712 88.88869
17.740553 -0.47238803 88.7248
17.654757 -0.53953713 89.48536
17.828335 1.0979933 84.70615
18.14164 1.0999243 85.8684
17.901321 0.62080175 90.60132
17.761652 0.72106695 90.97121
17.80289 1.8277775 83.66615
18.17893 1.4093313 84.98391
18.383427 1.6045938 86.42363
18.530731 2.1683214 87.18631
18.192059 1.0950209 88.17069
18.001225 1.3309044 89.13123
17.98595 1.4895736 90.878876
17.650015 2.4233618 91.80895
18.335186 3.566161 84.16961
17.64324 3.4738595 91.73478
17.621733 3.2208493 92.20748
18.1612 6.2173886 85.73795
17.715378 8.572954 81.834724
18.178753 8.791458 82.609116
18.450256 8.731006 83.54907
18.560518 8.435436 89.38092
17.985916 8.467522 89.687195
17.806154 9.243649 82.06391
18.28941 9.114806 82.90931
18.310122 9.375969 83.27064
18.430077 9.081141 85.494446
18.348331 9.371806 89.39629
17.870077 9.402928 89.689606
17.924091 9.851127 82.80007
17.92092 10.061369 83.45704
18.763891 10.460729 86.65038
18.454908 10.451871 88.55038
18.265985 9.953832 89.14177
18.59734 10.757703 87.40297
18.477116 10.657025 88.06233
18.833069 2.6870832 85.116615
18.965414 2.4943216 85.55772
18.683659 2.2500114 87.40987
19.33045 3.5635536 85.705734
19.333973 3.3955324 86.314766
19.061815 3.288983 87.239555
19.254583 4.258386 85.5922
19.16143 4.5234947 86.422295
18.94487 4.5497475 87.19772
18.813814 6.221473 86.97668
19.465214 7.172277 88.03232
19.434498 7.3846726 88.54987
19.03544 7.475426 89.028946
18.505285 8.9498205 83.93755
18.564735 8.635102 85.47934
19.077341 8.299788 89.07589
19.002552 9.816732 86.27281
19.289677 9.515394 86.48642
19.447044 9.1495695 88.61871
19.176313 9.311813 88.80198
19.13544 10.35928 86.98676
19.328543 10.2346945 87.42651
19.023071 10.309791 88.15349
18.826157 10.627675 86.99769
18.979265 10.595367 87.58693
19.563223 7.212879 87.91884
19.665361 7.7889566 87.68006
19.653093 7.931011 88.27994
19.589842 8.546804 86.91651
19.704863 8.713651 87.38971
19.658756 8.387999 88.20345
19.61524 9.277537 86.93953
19.692177 9.432656 87.46303
19.67462 9.231842 87.97977
19.55937 9.980693 87.36338
VERTICES 1 433
432 0 1 2 3 4 5 6 7 8 9 10 11 12 13 14 15 16 17 18 19 20 21 22 23 24 25 26 27 28 29 30 31 32 33 34 35 36 37 38 39 40 41 42 43 44 45 46 47 48 49 50 51 52 53 54 55 56 57 58 59 60 61 62 63 64 65 66 67 68 69 70 71 72 73 74 75 76 77 78 79 80 81 82 83 84 85 86 87 88 89 90 91 92 93 94 95 96 97 98 99 100 101 102 103 104 105 106 107 108 109 110 111 112 113 114 115 116 117 118 119 120 121 122 123 124 125 126 127 128 129 130 131 132 133 134 135 136 137 138 139 140 141 142 143 144 145 146 147 148 149 150 151 152 153 154 155 156 157 158 159 160 161 162 163 164 165 166 167 168 169 170 171 172 173 174 175 176 177 178 179 180 181 182 183 184 185 186 187 188 189 190 191 192 193 194 195 196 197 198 199 200 201 202 203 204 205 206 207 208 209 210 211 212 213 214 215 216 217 218 219 220 221 222 223 224 225 226 227 228 229 230 231 232 233 234 235 236 237 238 239 240 241 242 243 244 245 246 247 248 249 250 251 252 253 254 255 256 257 258 259 260 261 262 263 264 265 266 267 268 269 270 271 272 273 274 275 276 277 278 279 280 281 282 283 284 285 286 287 288 289 290 291 292 293 294 295 296 297 298 299 300 301 302 303 304 305 306 307 308 309 310 311 312 313 314 315 316 317 318 319 320 321 322 323 324 325 326 327 328 329 330 331 332 333 334 335 336 337 338 339 340 341 342 343 344 345 346 347 348 349 350 351 352 353 354 355 356 357 358 359 360 361 362 363 364 365 366 367 368 369 370 371 372 373 374 375 376 377 378 379 380 381 382 383 384 385 386 387 388 389 390 391 392 393 394 395 396 397 398 399 400 401 402 403 404 405 406 407 408 409 410 411 412 413 414 415 416 417 418 419 420 421 422 423 424 425 426 427 428 429 430 431
POINT_DATA 432
SCALARS features_00 float 1
LOOKUP_TABLE default
0.31983548 0.34025037 0.3520447 0.36933148 0.45917273 0.5489129 0.49425215 0.51858807 0.41213652 0.41226438 0.34611094 0.43523145 0.3743235 0.34093088 0.30844134 0.43701628 0.35905033 0.50348127 0.43293148 0.56109774 0.544049 0.4359858 0.47481996 0.5244949 0.565771 0.49438214 0.52426106 0.4022345 0.4160059 0.41771844 0.38058075 0.41697732 0.40765756 0.3411406 0.31716368 0.26543945 0.24691844 0.41160768 0.38675314 0.27826095 0.48792964 0.33885854 0.5076506 0.58070904 0.5629821 0.46116287 0.5746987 0.47199792 0.52951896 0.44060498 0.46964717 0.5828781 0.5733162 0.6887406 0.7604349 0.7983806 0.81427133 0.9254445 0.8888211 0.73749036 0.7133081 0.30799308 0.27182245 0.3077797 0.82765275 0.7636555 0.76874423 0.66582954 0.3740015 0.30927187 0.7603266 0.7183356 0.6169223 0.35670558 0.34518474 0.5036578 0.24081185 0.55016553 0.5796218 0.3243789 0.58745146 0.36249137 0.4651845 0.7963537 0.8482069 0.8533995 0.8560629 0.84209657 0.8738002 0.7704562 0.5791973 0.9708152 0.89997184 0.81025517 0.64387286 0.56763107 0.3636272 0.9448694 0.5166892 0.27375913 0.40318358 0.8213772 0.78398883 0.15845403 0.39339602 0.43852767 0.47506583 0.7676439 0.73744535 0.6746906 0.4248017 0.4535207 0.6966596 0.6488633 0.46242437 0.5298635 0.11027206 0.54329044 0.50291646 0.20422783 0.27465805 0.53574204 0.79023767 0.8294748 0.8652299 0.871971 0.8473574 0.8759093 0.87961733 0.7051314 0.69267535 0.5950209 0.6537924 0.5686276 0.45716017 0.5446294 0.44667315 0.42667794 0.8538777 0.6866399 0.36739594 0.39731303 0.929651 0.9386196 0.397235 0.30015516 0.38110274 0.92912817 -0.20904753 0.49431086 0.83102953 0.49160835 0.7665847 0.7490833 0.48197395 0.5087335 0.70311546 0.6763222 0.47801366 0.26835662 0.25559965 0.10670211 0.3377996 0.36626643 0.1276184 0.47866973 0.4427843 0.18054573 0.28507942 0.12954521 0.29082566 0.46399403 0.69416595 0.841257 0.81741744 0.8527333 0.85734826 0.80894506 0.7941103 0.7525115 0.71544045 0.73786676 0.5156597 0.5168871 0.57578826 0.54728323 0.4697011 0.8144174 0.49805138 0.34532368 0.32265034 0.421855 0.83437496 0.78094655 0.28761896 0.8696346 0.8186569 0.55892783 0.8239789 0.83610547 0.54665816 0.7911842 0.7710602 0.54984045 0.5585591 0.53345263 0.5522469 0.50518394 0.237331 0.26866627 0.2367336 -0.003448736 0.2100159 0.4313789 0.72704816 0.76989514 0.78011143 0.834103 0.82023674 0.83476883 0.8083289 0.77562493 0.7611961 0.6045718 0.6705698 0.5530987 0.5361698 0.5179614 0.50662106 0.3531388 0.3449731 0.31795573 0.76316273 0.6538071 0.61338556 0.7229292 0.58682644 0.7534323 0.63135123 0.5961225 0.47153392 0.5761014 0.5553838 0.57072055 0.5436369 0.533321 0.22711606 0.27738062 0.19435082 0.80938876 0.8241775 0.7955426 0.73886216 0.7792177 0.53321 0.47155562 0.2979481 0.408724 0.36161196 0.35747048 0.33704758 0.45031375 0.52809155 0.50387776 0.5661089 0.5950622 0.37770712 0.6071644 0.33570063 0.59909654 0.56482804 0.584324 0.53698635 0.55300367 0.27278072 0.2725781 0.430906 0.4289604 0.42727065 0.43936574 0.36599013 0.4348608 0.8027128 0.7053388 0.63727516 0.5719819 0.6467669 0.49765012 0.4413494 0.67199296 0.45607594 0.5122005 0.4293543 0.38632798 0.3849149 0.3727681 0.33616734 0.40539804 0.32013786 0.5334041 0.38844693 0.20287463 0.56497407 0.61053133 0.23644242 0.13455807 0.59958434 0.5933312 0.29724118 0.40993828 0.38189334 0.47376722 0.46766382 0.530136 0.4811327 0.5212773 0.5051736 0.47220197 0.48385745 0.49586913 0.3738348 0.40425992 0.43271986 0.5750568 0.52800035 0.43051404 0.41196164 0.37362218 0.30761176 0.32742077 0.40818962 0.35668665 0.3275472 0.28520912 0.37687224 0.31829002 0.37552068 0.47270164 0.31017074 0.43952075 0.48801497 0.406092 0.47071907 0.5026953 0.078166686 0.52618635 0.5229174 0.137374 0.517212 0.26218292 0.5070195 0.5456535 0.50024503 0.54484296 0.535374 0.5003736 0.31099707 0.5042582 0.49988383 0.48069316 0.4845629 0.23303658 0.27863434 0.33735245 0.33166718 0.28449923 0.2885435 0.29946357 0.3268773 0.32930726 0.29214582 0.11587462 0.2036578 0.29881662 0.39525902 0.37835267 0.43401787 0.44515318 0.13776457 0.513626 0.4895382 0.37185687 0.5898813 0.5253415 0.5398048 0.49702787 0.48016077 0.36793014 0.56633246 0.5261122 0.5328765 0.49709386 0.5828881 0.6338658 0.5748409 0.6228477 0.6401652 0.39497262 0.3939239 0.27286845 0.40765893 0.3939824 0.3660328 0.35510492 0.301598 0.2625594 0.21168286 0.5017722 0.54422194 0.5515335 0.36581373 0.2987401 0.6187766 0.5494594 0.56993663 0.69453394 0.6891105 0.65097857 0.68088686 0.70417356 0.6244416 0.678465 0.5007912 0.5443374 0.5980753 0.5679478 0.63690346 0.6302382 0.6236471 0.6823102 0.69909453 0.67455673
SCALARS features_01 float 1
LOOKUP_TABLE default
0.024955558 0.027925676 0.030188447 0.034067255 0.050275512 0.06488946 0.056822747 0.060900442 0.03112967 0.02893595 0.02856923 0.042446457 0.03294501 0.028127577 0.023272438 0.04332255 0.030691376 0.055126682 0.045272734 0.06720034 0.06423737 0.046010144 0.05333041 0.06178485 0.06781005 0.056323748 0.061440792 0.032902837 0.03176693 0.034767278 0.030556431 0.03300464 0.03245299 0.027877638 0.024754636 0.017304536 -0.007686202 0.027815752 0.034817245 0.018209957 0.053144842 0.005282929 0.05760467 0.073693246 0.069781795 0.048799347 0.06864391 0.052224796 0.06689135 0.04607844 0.051898066 0.075645745 0.079427965 0.11615451 0.14280653 0.15828477 0.16565168 0.21135424 0.19416198 0.1262644 0.10968506 0.022428492 0.019954618 0.016070241 0.1704339 0.14370568 0.13391326 0.09051612 0.020219319 0.020814463 0.1437072 0.12583081 0.07869319 0.018563136 0.017526831 0.053037144 0.01180535 0.065411605 0.07150577 0.026690373 0.07495113 0.032078657 0.046891384 0.15765262 0.17764772 0.18115993 0.18285833 0.17714988 0.1903522 0.14646734 0.07700698 0.23487946 0.20215027 0.16364636 0.0995737 0.06953371 0.024590986 0.22196294 0.05406075 5.795434e-05 0.036396783 0.16837755 0.15306927 0.0028366586 0.032926872 0.04486034 0.054066096 0.14612381 0.13410118 0.10763314 0.040304616 0.04793057 0.11570874 0.100580014 0.048302297 0.06067284 -0.007986736 0.06455831 0.056625217 -0.003666032 0.0093474295 0.06874159 0.15491769 0.17018338 0.18641101 0.18929134 0.17887524 0.19100747 0.19276337 0.12237432 0.119781055 0.0837603 0.10366992 0.07705864 0.041470308 0.06616437 0.03708043 0.032195903 0.18023647 0.112049654 0.020605192 0.031607993 0.21441115 0.21918434 0.029286947 0.007980913 0.033949222 0.21486738 0.0039978945 0.059742954 0.17241558 0.058290195 0.14563607 0.1381314 0.05553536 0.06281464 0.11888058 0.10562359 0.054437242 -0.005179623 0.0149693275 -0.0030856542 0.026997201 0.031643823 -0.003752741 0.05140178 0.045240995 -0.006865384 0.016196879 -0.0018621664 0.0101216305 0.047914803 0.12054622 0.17197342 0.1668478 0.18070361 0.18089107 0.16251265 0.1570454 0.14119816 0.124877386 0.13294755 0.05131622 0.04791989 0.076939404 0.06793613 0.038749862 0.15639998 0.033851437 0.013768913 0.0006564241 0.019612713 0.16972916 0.14359145 -0.0072292387 0.18663225 0.16351399 0.0777687 0.16714102 0.17133619 0.07431283 0.15457118 0.14417803 0.07544794 0.07796763 0.07035076 0.07616269 0.061797775 0.014516184 0.017036308 0.011908269 -0.0027078632 -0.007309163 0.029415756 0.12762839 0.14098479 0.15036526 0.17149048 0.166924 0.17274302 0.16018555 0.14345421 0.14204976 0.07192099 0.107408606 0.05377508 0.05070398 0.051243722 0.0439907 -0.008547876 -0.009536582 -0.0027859812 0.13886128 0.08973599 0.048630584 0.122776985 0.085764095 0.13600414 0.08978203 0.0887811 0.048616186 0.08294202 0.077080905 0.081417345 0.07367172 0.07069888 0.011466556 0.0017124247 -0.028207373 0.162128 0.16784646 0.15450075 0.13051437 0.14713538 0.05041968 0.036643405 -0.04817212 0.005360406 -0.003900012 0.00062426925 0.006597895 0.032864008 0.06251145 0.045470294 0.07701393 0.086655304 0.022552725 0.09211752 0.01792796 0.08968872 0.0797139 0.08529346 0.07076148 0.076419644 0.016849108 0.017328022 0.043727063 0.04089083 0.044642124 0.042769454 0.03279862 0.04141062 0.15838704 0.122703664 0.10056285 0.08166462 0.10325356 0.06123042 0.0429852 0.1001478 0.042667005 0.048152883 0.028483229 0.015887715 0.019329017 0.003999401 0.01659348 0.010785339 0.0015941206 0.06791597 0.02390729 0.004848443 0.07865148 0.09281054 0.005672898 0.0015437976 0.08957139 0.08725407 0.015077936 0.041291032 0.035321053 0.054948114 0.05347525 0.06829411 0.0554494 0.06538144 0.06060551 0.05246113 0.0560783 0.057700988 0.029311989 0.027417425 0.039457057 0.08130965 0.0690898 0.04412425 0.03940986 0.028805345 0.017950604 0.015841672 0.016055146 0.015187985 0.012714881 0.012072445 0.012397524 0.020479782 0.02964834 0.051092517 0.005428751 0.044722956 0.057450898 0.036700785 0.0540978 0.061974917 -0.006180157 0.06879123 0.06774166 -0.01528811 0.06685664 -0.00014835689 0.06422221 0.07132804 0.0611854 0.070577696 0.06711277 0.054131377 0.01505792 0.06116263 0.060352586 0.05338271 0.055607993 0.011565269 0.015113868 0.020354647 0.02501232 0.01633254 0.01623756 0.012821665 0.023678398 0.025399089 0.017144699 -0.0013032341 0.010686787 0.019358724 0.03523633 0.035247464 0.045809668 0.04773325 -0.0065997494 0.06280592 0.05441512 0.021447655 0.08661761 0.069074914 0.06886351 0.054429576 0.048838977 0.013994904 0.079696074 0.068258405 0.065166116 0.052985907 0.081213966 0.09863576 0.08123094 0.09450153 0.10012698 0.038904335 0.0385037 0.014285063 0.041306693 0.03845661 0.033303894 0.03150353 0.021459702 0.014974348 -0.008742169 0.05675907 0.07123023 0.07288771 0.012138179 0.010604373 0.09413138 0.07056725 0.078053825 0.119677514 0.11842502 0.10469634 0.115292594 0.12348192 0.09536369 0.11429418 0.056629967 0.07170891 0.08659139 0.08021558 0.10128668 0.09679105 0.09674383 0.11646921 0.12176612 0.11330856
SCALARS features_02 float 1
LOOKUP_TABLE default
0.35853064 0.3235962 0.3675229 0.3646263 0.39642763 0.40838534 0.41372943 0.41948676 0.23976651 0.2451686 0.29146898 0.34243366 0.33604127 0.31431618 0.29351997 0.36546394 0.3386659 0.37149692 0.39183152 0.4100752 0.41493446 0.39467013 0.41106528 0.4243153 0.4235884 0.43173665 0.4418971 0.22433081 0.21804105 0.226177 0.2384237 0.23909774 0.23687467 0.2650295 0.25249565 0.2466758 0.24090609 0.24072431 0.31069893 0.25780657 0.35914388 0.27357048 0.37071002 0.37608823 0.38463184 0.36417413 0.39677852 0.40168425 0.43455064 0.42573524 0.4365247 0.45176297 0.46220174 0.47289422 0.47343192 0.4733094 0.57735705 0.57225287 0.5723104 0.5545868 0.5375491 0.23540652 0.2482194 0.25918353 0.56601274 0.5537433 0.541777 0.502605 0.21331516 0.24693239 0.55852914 0.5422536 0.4627366 0.2360014 0.24768364 0.3441984 0.252473 0.357745 0.3600523 0.35205415 0.38326317 0.3897723 0.41417497 0.4637276 0.4597202 0.46873277 0.4673615 0.46291977 0.46590626 0.5780381 0.5491413 0.5816554 0.58789474 0.5820125 0.55797386 0.52217704 0.44633967 0.57621676 0.48939025 0.28862667 0.30843598 0.57076097 0.5651735 0.1876536 0.27831912 0.3056211 0.32639438 0.5627105 0.5527499 0.4870279 0.28968042 0.3003142 0.5156743 0.46820593 0.3154961 0.35096478 0.272482 0.36763108 0.3627845 0.34792835 0.3949949 0.44461572 0.45483097 0.4455014 0.44911098 0.46229902 0.45887 0.45872498 0.4646073 0.47800362 0.51435184 0.44414723 0.4705426 0.5130689 0.49538505 0.44816348 0.46050927 0.41823274 0.5873254 0.5668061 0.46064433 0.35732538 0.5798062 0.58426213 0.47793245 0.38880864 0.33898276 0.5725377 0.14715804 0.34835133 0.57008487 0.33423692 0.55985606 0.54453236 0.3184395 0.33577728 0.51559925 0.48338515 0.31106615 0.3163863 0.2799731 0.22845188 0.30594745 0.3127761 0.25333717 0.33888185 0.3404181 0.31263214 0.3266294 0.34825855 0.41977778 0.41526878 0.42349678 0.44503033 0.4304065 0.440011 0.44650733 0.49432766 0.4990369 0.516281 0.55791587 0.48047793 0.51899993 0.47906157 0.43237716 0.4225453 0.46200186 0.57877654 0.49045485 0.44794884 0.3960609 0.39848286 0.5729848 0.5742007 0.28189296 0.56355226 0.56370115 0.37399027 0.54494333 0.54612505 0.35609728 0.5457089 0.53135896 0.35789257 0.36160553 0.34202647 0.35821697 0.31308725 0.2666787 0.27783313 0.22107227 0.32224256 0.35834485 0.37434775 0.4103301 0.42544782 0.41749418 0.5186832 0.5013727 0.5076593 0.53217083 0.56273943 0.48273933 0.53152347 0.46183306 0.48099995 0.47032642 0.41114295 0.43905964 0.32894012 0.31881717 0.22254044 0.56165934 0.5562982 0.52153873 0.54329455 0.38153195 0.53404516 0.5233673 0.37317032 0.46109325 0.36560947 0.35020375 0.36198327 0.32122594 0.33212128 0.265647 0.32014042 0.34804523 0.4957354 0.51527244 0.5252969 0.46325094 0.47118634 0.45555946 0.4253217 0.2941465 0.3864565 0.33051345 0.23262644 0.18176103 0.37097144 0.36535895 0.49624997 0.37765706 0.37599325 0.44551042 0.3733075 0.38383022 0.36621943 0.3484794 0.36091977 0.29309577 0.3347424 0.2780903 0.26890594 0.24013418 0.23811892 0.27142724 0.31514883 0.27740347 0.32722196 0.49442586 0.49703443 0.50832903 0.51163745 0.48191926 0.5065551 0.4824462 0.40958473 0.4732901 0.45900923 0.4081406 0.1820768 0.39282787 0.24235505 0.35185054 0.394809 0.31518406 0.3600021 0.4577937 0.35132504 0.36349517 0.36783892 0.3175276 0.30823338 0.35575885 0.3256325 0.2749992 0.25568956 0.2711872 0.2796793 0.2673998 0.2672484 0.29127234 0.27021983 0.2730524 0.33610517 0.31752098 0.27361795 0.34810257 0.3484354 0.34581402 0.46045554 0.4741549 0.3846089 0.4098721 0.40378365 0.3521874 0.35803744 0.21301086 0.21368098 0.20476443 0.34840474 0.23583627 0.32748 0.3399167 0.35159194 0.26493305 0.34760416 0.3551464 0.27928385 0.33717984 0.35226732 0.27124757 0.33406138 0.34130374 0.23615807 0.30336726 0.2426781 0.33562574 0.26677617 0.33616367 0.27064076 0.27403384 0.27479517 0.30066425 0.36228836 0.34957823 0.36654854 0.3631482 0.3012491 0.32138103 0.21379623 0.22845396 0.3085059 0.31894422 0.23347394 0.22086176 0.23378406 0.23209766 0.25395715 0.26242378 0.3008725 0.32420942 0.24577796 0.31417194 0.32996154 0.2601152 0.26032168 0.26476026 0.27881193 0.36433446 0.34397864 0.2651079 0.27126193 0.27869695 0.3244285 0.37166977 0.3564833 0.27434352 0.27708402 0.36224255 0.38468954 0.3763374 0.38485205 0.38783377 0.22845758 0.22524174 0.23028782 0.21947902 0.21611613 0.21198533 0.2192679 0.2176803 0.21204221 0.28384745 0.34491083 0.3553836 0.35234815 0.29025275 0.3180254 0.37461126 0.34887296 0.35449564 0.38673156 0.38535362 0.37549537 0.38620228 0.390199 0.37562898 0.38947025 0.3453099 0.35835648 0.3728976 0.3518796 0.36935532 0.38075244 0.36543432 0.3805669 0.38604987 0.38346118
SCALARS features_03 float 1
LOOKUP_TABLE default