# vtk DataFile Version 2.0
Really cool data
ASCII
DATASET POLYDATA
POINTS 4755 float
6.411647 28.782534 -11.407913
6.3307796 29.017178 -10.6262865
6.359996 29.165752 -9.70223
6.3961563 29.831905 -11.859387
6.332039 29.360395 -11.464077
6.248921 29.583208 -10.295381
6.3058186 29.479969 -9.24887
6.319446 29.859407 -8.820916
6.3671007 30.104422 -11.501005
6.1918945 30.570507 -10.236087
6.1327386 30.477015 -9.415056
6.30766 30.490059 -8.779787
6.2872176 31.02777 -10.2283
6.2330985 31.025625 -9.470724
6.3141837 31.18994 -9.054868
6.221031 33.962147 -14.881096
6.170812 33.867283 -14.381866
6.127333 33.651093 -13.655222
6.358043 33.552795 -12.548464
6.204634 34.5445 -14.990732
5.9943104 34.547066 -14.460879
5.9833026 34.563934 -13.705016
6.222576 34.480724 -12.787724
6.386845 34.7975 -12.0032425
6.2401285 35.085262 -14.961784
6.140948 35.254757 -14.471049
6.0555105 35.303562 -13.883285
6.2350755 35.153656 -12.838516
6.3677273 35.90358 -14.20482
6.3020964 35.80865 -13.843699
6.4004507 38.065598 -1.2620057
6.306026 38.123756 -0.80071694
6.2601075 38.598606 -1.3015616
6.2394896 38.663532 -0.6725234
6.3763666 38.785114 -0.1630569
6.23538 39.313282 -1.2446235
6.2263484 39.23966 -0.6371499
6.3697863 39.945415 -0.70074403
6.4443607 45.95788 -5.5739913
6.4465857 46.32593 -5.523951
7.136478 23.916824 -6.3190594
7.1598206 24.119114 -5.6381793
7.1853156 25.08732 -7.6758003
6.893065 24.601507 -7.081721
6.7220535 24.595457 -6.325788
6.928334 24.620766 -5.6819434
7.1645665 24.603209 -5.3059587
7.176321 25.959486 -7.745014
6.7864738 25.296293 -7.155246
6.623832 25.285212 -6.5269666
6.9443145 25.360252 -5.6352625
7.255751 25.20452 -5.237791
7.408305 26.866018 -11.832409
7.363153 26.79117 -8.403476
6.8729415 26.82424 -7.247164
6.895324 26.652285 -6.875155
7.0976315 26.21695 -5.8483477
7.230052 27.774464 -12.331591
6.836316 28.009474 -11.495888
6.8216276 28.03731 -10.80251
7.0374403 27.187 -8.059463
6.8785443 27.245869 -7.5288234
7.026962 27.520102 -6.699125
7.058098 28.767754 -12.64705
6.7424474 28.65475 -12.14221
6.4822125 28.682507 -11.708606
6.461431 28.919952 -10.276575
6.624333 28.654179 -9.875396
6.739056 28.78402 -8.728297
7.0418353 28.879206 -7.240449
7.24786 28.200779 -6.451586
7.111714 29.574862 -12.686606
6.741265 29.472317 -12.317411
6.5207243 29.854301 -11.821743
6.5155263 29.439405 -8.704012
6.787498 29.589794 -7.9457073
6.573579 30.62943 -10.951979
6.836257 30.356764 -7.7448297
7.4160028 30.474888 -6.7511435
7.093686 31.896404 -13.434068
6.860943 32.10988 -12.649106
6.736887 31.525263 -11.330101
6.589915 31.141165 -10.60457
6.5726943 31.517427 -9.333773
6.6891413 31.254133 -8.589668
7.2687597 31.06712 -7.8069987
6.7909603 33.005165 -14.276577
6.6184835 32.52004 -12.672873
6.6040945 33.86928 -15.09942
6.8474126 33.399826 -11.583043
7.3433905 33.731415 -9.58053
7.3026285 33.417583 -5.416127
7.343544 33.87539 -4.714387
6.9814377 34.61824 -15.542552
6.5784135 34.64099 -15.3330145
6.8472133 34.42521 -10.8204155
7.2172227 34.5172 -9.947461
7.3910284 34.30051 -6.0336256
7.28277 34.318188 -5.4677424
7.3609166 34.283127 -4.5652657
6.6379576 35.187344 -15.250972
6.7015953 35.20979 -11.605123
7.0475926 35.536095 -10.690072
7.1903296 35.13413 -10.0525875
6.964315 35.957558 -14.90051
6.721401 36.073284 -14.418356
6.5281506 36.091606 -13.71875
6.894258 35.983456 -12.412317
7.4896727 36.237797 -9.039075
7.394328 36.481274 -8.431352
7.1281295 37.250828 -1.6787733
6.9973917 37.32056 -0.81571597
7.3789654 37.542633 -8.248157
7.399984 37.34319 -7.6191864
7.464167 37.365383 -6.629177
7.06496 37.944313 -2.3560085
6.781862 37.545 -1.3749907
6.698447 37.757156 -0.5858566
6.605663 38.04302 -0.16602612
7.4251995 37.76297 1.782915
7.4716763 37.648655 2.0419421
7.459027 37.95508 -8.801486
7.4581585 38.046455 -7.3979125
6.621608 38.729572 -1.9705023
6.4418817 38.295242 -0.42687184
6.708711 38.53176 0.083723366
7.4439063 38.167294 1.9451278
6.719406 39.451763 -1.967867
6.490375 39.400024 -0.063306555
7.174124 40.496983 -1.812741
6.750543 40.236687 -1.2177217
6.7269554 40.37611 -0.5313302
6.910217 40.554104 0.025461435
7.218826 41.406273 -0.9320387
7.0882616 41.249336 -0.450178
7.2866406 41.166153 0.5514695
7.321475 41.734142 -0.33562616
7.3130503 44.237743 -6.4613914
7.2693653 44.71575 -7.095944
7.015723 44.90817 -6.3585916
6.86762 45.105217 -5.6168957
6.985225 45.253876 -4.8676405
7.108014 45.55699 -6.95639
6.652716 45.723736 -6.2115316
6.5598655 45.66221 -5.517158
6.801864 45.66954 -4.8482394
7.393763 46.02882 -0.5176797
7.442027 45.916607 0.183131
7.093294 46.277122 -6.796741
6.6392636 46.405987 -6.166909
6.5165634 46.57977 -5.512594
6.6962914 46.428825 -4.8780084
7.191488 46.250298 -4.2938585
7.3649406 46.45372 -0.47040316
7.380592 46.475624 0.091843
6.9683275 46.98182 -6.1504335
6.835867 47.0514 -5.531336
7.0269976 47.109512 -4.957945
7.464704 47.39209 0.27357605
8.349958 19.60712 -8.427642
8.402363 19.776043 -7.9400163
8.364604 20.298498 -8.4706955
8.434606 20.3718 -8.021544
8.054557 23.320517 -5.546854
7.6201234 23.65453 -5.574664
7.711339 23.966158 -5.1436467
7.8240037 24.770187 -7.962504
7.670823 24.457565 -4.9802237
8.317025 26.194567 -13.1519375
8.108835 26.042707 -12.499206
8.403948 25.15431 -9.328142
7.6439114 25.41458 -5.0142837
8.007685 26.797188 -13.024657
7.6767707 26.604956 -12.210036
7.362014 26.177263 -5.557177
7.830531 26.022118 -5.1523347
8.0002365 27.792744 -13.191762
7.80627 27.350588 -5.528967
7.6917715 28.411158 -12.909714
7.824629 28.529934 -5.8613143
7.6072316 29.739252 -13.0116825
7.379856 31.046734 -12.886612
7.808817 29.989365 -5.8880835
8.096752 30.497143 -5.1371455
7.676483 32.255856 -14.08234
7.437087 31.546389 -8.1210575
7.699783 31.462955 -6.8405585
8.042013 31.414873 -5.534513
8.01952 31.873215 -4.561394
8.294777 31.700829 -3.9311266
7.6772904 31.972273 -8.400447
7.7096176 31.88573 -7.6148725
7.705468 32.660255 -6.4643292
7.615129 32.76523 -5.533815
7.621952 32.963104 -4.398093
7.9380555 32.538563 -3.971717
7.363448 33.788044 -15.26974
7.674634 33.493202 -8.962392
7.5462613 33.18037 -6.12223
7.758955 33.159473 -4.3684654
7.899083 33.535473 -3.8443615
7.189683 34.65702 -15.553272
7.5579104 34.24204 -15.470221
7.528712 34.239353 -8.949586
7.7800775 34.86989 -7.903154
7.5585966 34.346806 -4.3837066
7.171723 35.111225 -15.547883
7.342176 35.36209 -15.335386
7.6234546 35.797195 -9.258657
7.579623 35.69055 -8.481578
7.525916 35.966957 -7.3637853
7.570062 35.876266 -6.935701
7.72656 35.112465 -4.7399445
8.087392 36.313183 1.1855328
8.2699795 36.23739 2.0944967
7.353407 35.92911 -14.97898
7.3500476 36.408787 -14.4391575
7.5094357 36.62414 -7.184541
7.638288 36.320213 -6.376472
8.060009 36.490025 -5.3892245
8.202869 36.674076 -5.0537186
7.8598294 36.742584 -1.3342072
7.754482 36.820015 -0.75089455
8.242705 36.552944 0.8509109
7.7394524 36.82336 1.7690103
7.911785 36.78263 2.3756025
8.12333 36.95246 2.8272183
7.5682244 36.61071 -14.125155
7.434499 36.586002 -13.706068
8.342225 37.28851 -11.037472
8.022745 37.235096 -10.282228
7.78773 37.311684 -9.406603
7.537558 37.650356 -8.57373
7.7463927 37.27109 -5.847805
8.399015 37.801086 -4.636607
7.5248194 37.33985 -2.214856
7.545683 37.337666 1.2475681
7.7073946 37.41666 2.4318829
8.017528 37.622288 3.0397353
8.024514 38.51388 -9.842498
7.9103665 38.60879 -9.589919
7.6045685 38.41495 -8.589237
7.7151327 38.568096 -7.4851975
7.9106975 38.546474 -5.7407618
8.361898 38.620743 -5.1683264
7.7379 38.09913 2.6851315
8.004676 38.76553 3.2544029
8.054178 39.059715 -9.262834
7.7485485 38.828068 -8.730221
8.101103 39.058002 -7.6014366
8.046531 39.05579 -6.258053
7.6811705 39.72702 1.674482
7.719723 39.37394 2.5195093
7.964092 39.502926 3.252594
8.292526 39.524426 3.7172537
8.174196 40.14271 -6.044181
8.118921 40.053986 -3.2536087
7.9839587 40.387207 2.2899365
8.131791 40.29423 3.127467
8.145466 41.358124 -5.721535
7.918338 41.184746 -4.2051196
8.041417 41.557793 -3.690532
8.112205 41.162632 -2.606429
7.562248 41.08587 -1.5327239
7.56358 41.593174 0.41438594
7.460347 40.90273 0.82041717
8.201892 43.34639 -6.826655
8.115219 42.10777 -4.518351
8.197176 42.075943 -3.8097534
7.5383606 41.865818 -0.9305463
7.797519 41.86917 0.248801
7.8401423 43.96146 -7.298498
7.7272367 43.88952 -6.121747
7.607991 44.061005 -5.8818245
7.761713 44.67813 -7.680351
7.562378 44.618553 -7.4358196
7.4299912 44.44808 -5.2747474
7.916439 45.284424 -0.19738641
7.904726 45.222446 -7.7619443
7.6427126 45.36523 -7.554844
7.2848716 45.78333 -4.4094143
7.8201985 45.96727 -1.3830534
7.56241 45.77771 -0.54120815
7.5491657 45.977196 0.2624105
7.879176 46.06931 0.98010874
7.5254555 46.46122 -7.0396743
7.635048 46.32079 -4.0289383
7.6966653 46.31822 -1.3771267
7.5496354 46.646534 0.6072824
7.8187914 46.60943 1.0963236
7.7625713 46.98627 -6.842664
7.36152 47.248417 -6.200673
7.3259254 47.437126 -5.1852784
7.4560943 47.283855 -4.617571
7.564998 47.69619 -0.21223155
7.551408 47.81054 0.46979058
7.9327745 47.44284 1.4196678
8.226514 47.528763 1.9321254
7.995168 47.60576 -6.0904565
7.79653 47.684196 -5.47805
7.7329226 47.65766 -4.7284865
7.966149 47.90119 -1.2213773
7.713721 48.556355 -0.14396033
7.6041827 48.25981 0.59055066
7.9239497 48.238586 1.3936067
8.300261 48.267303 1.987668
8.140048 48.915237 -0.9252294
8.095332 49.132458 -0.2884403
7.9745426 49.060303 0.29291937
8.399369 49.104694 1.9709735
8.173872 51.555176 2.760491
7.953193 51.933628 3.495474
8.033534 51.708717 4.1656156
8.067727 52.138573 4.8814425
8.126472 52.331825 2.6321263
7.786312 52.532013 3.7534091
7.724458 52.6315 4.373192
7.953751 52.767086 4.991115
8.142675 53.3398 2.6953397
7.8006487 53.44178 3.6048417
7.7332373 53.419003 4.547509
8.01063 53.372433 5.127552
8.23214 54.134293 2.9188988
8.133129 54.288006 3.6144154
8.007864 54.100147 4.437139
8.093499 53.9294 4.954563
8.386316 54.741665 4.017715
9.254821 18.30754 -9.094842
9.220372 18.283869 -8.592524
9.226661 18.324898 -8.073964
9.011088 18.729528 -9.251028
8.878375 18.665398 -8.520008
8.868758 18.879274 -7.795064
9.062673 19.591187 -9.95349
8.67546 19.627161 -9.419488
8.483797 19.252 -8.660593
[...]
POINT_DATA 4755
SCALARS features_00 float 1
LOOKUP_TABLE default
0.3807221 0.3806694 0.35536152 0.36897463 0.38819188 0.3838969 0.35162014 0.35279518 0.36382186 0.38435525 0.38614458 0.36105508 0.36818385 0.37652856 0.3472555 0.7563833 0.72710747 0.6197209 0.4105104 0.7705895 0.7577668 0.6829921 0.49774238 0.34327355 0.76681155 0.75625336 0.7137686 0.5463101 0.7198176 0.6949297 0.5154254 0.49511272 0.5451889 0.52189636 0.47536916 0.5614911 0.5456443 0.5276612 0.8051974 0.82904613 0.6417062 0.6355245 0.3528412 0.5803689 0.6634986 0.6481708 0.6263012 0.32597873 0.5094143 0.61509275 0.61967707 0.60570544 0.21361119 0.1931825 0.35903698 0.42517504 0.54071033 0.30736387 0.35256106 0.33721495 0.22180085 0.27135074 0.32103884 0.33726817 0.36553246 0.3773173 0.3686215 0.31923416 0.22697037 0.16940264 0.2436058 0.29984528 0.35280222 0.3675882 0.31526175 0.26361504 0.34591627 0.2661633 0.13140811 0.33552238 0.29336298 0.21303226 0.32813466 0.30414122 0.29562622 0.21487385 0.6128723 0.3699721 0.73824805 0.20892861 -0.06292669 0.29248598 0.3270845 0.7342919 0.7620989 0.11246741 -0.024120977 0.19469823 0.25673282 0.31892043 0.7620837 0.25904417 0.05462606 -0.0200365 0.72596973 0.71514785 0.66260886 0.45188156 0.14909662 0.19902334 0.4496262 0.39368218 0.275719 0.26127148 0.24673432 0.5212382 0.47627747 0.42784718 0.4106545 0.34968922 0.38378194 0.3038463 0.27319944 0.5767524 0.4698233 0.4028485 0.34593874 0.53826 0.49143025 0.33122116 0.46692923 0.465994 0.4200124 0.35670546 0.3873759 0.34186774 0.35244888 0.60139954 0.63992894 0.6749439 0.7018958 0.6707346 0.7093128 0.7777949 0.7713148 0.7291311 0.42485923 0.4081691 0.7342818 0.8151952 0.8339045 0.8163367 0.7530408 0.44730908 0.43717992 0.76642954 0.80396557 0.8156947 0.4582218 0.7642145 0.72935903 0.65626264 0.6581898 0.5758476 0.6101621 0.60360014 0.17988214 0.59559655 0.16635966 0.13759865 -0.04054079 0.57274544 0.18374942 0.18048003 0.53053594 0.51777 0.23417018 0.34299278 0.29147178 0.20019625 0.21280989 0.20947663 0.12131776 0.1619193 0.37175396 0.1848617 0.0034755282 0.130433 0.2615743 0.26136568 0.10574184 0.04192355 0.04223626 0.26139638 0.31563252 0.29564264 0.65242887 -0.13962144 0.19086552 0.31836638 0.31003606 0.7117643 0.6353018 -0.07532609 0.015685301 0.31029224 0.72555107 0.70604706 0.066941954 0.09932734 0.16851479 0.15560168 0.20763782 0.32305384 0.44517434 0.69233906 0.65457976 0.2277923 0.18306786 0.12553233 0.11500924 0.2659547 0.25051564 0.26207232 0.40375894 0.4509223 0.44914693 0.58459175 0.5600454 0.09916499 0.24447528 0.282287 0.28743106 0.1930165 0.12109876 0.41813177 0.31687388 0.4299476 0.43898156 0.28297025 0.30236763 0.31030118 0.27098092 0.2022917 0.16168804 0.41732842 0.39026403 0.29683185 0.3123321 0.25068694 0.1911658 0.29122245 0.34015846 0.3144641 0.27914506 0.13188264 0.026229322 0.21831614 0.22478384 0.09489491 0.049323376 0.009656554 0.023453198 0.2720942 0.31699818 0.30788893 0.4920789 0.042097613 0.017830204 0.30854145 0.29683873 0.5698899 0.5219338 0.5313101 0.5860629 0.61037946 0.5689652 0.36511254 0.5681297 0.60838354 0.6794988 0.38787758 0.40048254 0.40565228 0.36595893 0.630525 0.69011664 0.43462104 0.41755146 0.3787715 0.56710815 0.6887985 0.7441714 0.77888095 0.49211383 0.45862114 0.3527305 0.27569413 0.5514954 0.6254586 0.66908526 0.4736912 0.46543157 0.45699525 0.3394748 0.21941224 0.3800153 0.38049495 0.41735145 0.1793796 0.4307128 0.53065276 0.5317124 0.6573644 0.5028277 0.6472508 0.70013773 0.73502666 0.56240666 0.7140995 0.7740655 0.77422667 0.60387146 0.6892476 0.7648729 0.7843814 0.7082217 0.8728556 0.88631666 0.8921081 0.8582572 0.8700402 0.8520923 0.7455758 0.80076957 0.82533026 0.77308357 0.7578905 0.6393579 0.6682049 0.68067646 0.41767865 0.4344382 0.56688726 0.55965 0.23139374 0.55469924 0.019906007 0.563282 0.17814028 0.035602298 -0.049055543 0.54409194 0.23302831 -0.007914711 0.5264032 0.54417515 0.34350905 0.25235036 0.18354717 0.41255206 0.4445598 0.24309742 0.21931857 0.12573853 0.06960646 0.14139047 0.1415595 0.20971052 0.14895573 0.27766466 0.26245126 0.3734839 0.19942847 0.25318137 -0.1985771 -0.080331065 0.19632012 0.41237518 0.38575932 0.10123864 0.43463302 0.031513125 0.06177427 0.39861083 0.16953647 0.08919376 0.07078656 0.36393017 0.17710213 0.22392768 0.24113679 0.24224481 0.18020594 0.11017061 0.17386132 0.13243797 0.148202 -0.03479338 0.1172647 0.13126202 0.44331765 0.36644018 0.023551896 -0.079150744 0.17420755 0.16506618 0.04265488 0.11150303 0.15070103 0.49784404 -0.3220876 -0.33006525 -0.2267037 -0.11051994 0.09022871 0.50382465 0.38294217 -0.019403983 0.12827897 0.26000214 0.43656182 0.2320374 -0.08706049 0.26847678 0.47328526 0.31613132 0.28618538 0.29344907 0.33494687 0.4069818 0.49016523 0.38920397 0.14369395 0.12689035 0.29989672 0.38778022 0.4467203 0.45077226 0.43565893 0.19125046 -0.06874217 0.19811533 0.32500595 0.41488564 0.4404207 0.25733614 0.30838877 0.11794291 0.06264332 0.38380045 0.22545159 0.27129808 0.30992198 0.23765092 0.11191911 0.4096734 0.17885864 0.3630254 0.4839637 0.66275156 0.30762467 0.30188712 0.7114255 0.40971822 0.73862576 0.680138 0.44336894 0.5791269 0.6479367 0.74842644 0.7568177 0.5163206 0.60707366 0.67922306 0.7001958 0.67918015 0.86402386 0.8930528 0.9135282 0.79139984 0.8518965 0.9014025 0.70924103 0.7781725 0.5226108 0.552096 0.6513309 0.43188173 0.44225413 0.28295904 0.48993415 0.570159 0.52834105 0.32510898 0.2364585 0.4202848 0.69819915 0.6066036 0.40755838 0.32078922 0.7026534 0.6916975 0.6371987 0.6853065 0.64748216 0.53757966 -0.12965813 0.57552516 0.39546925 -0.012109302 0.18223333 0.026092045 0.10253365 0.07515989 0.16592024 0.14094377 0.19335127 0.18623072 0.06569299 -0.100476205 0.18449238 0.2854028 0.3562383 0.36695206 0.3442793 0.19967115 -0.035501745 0.21975113 0.35756204 0.36245084 0.3217169 0.14877582 0.32293457 0.3149644 0.22438994 0.17513174 0.38184148 0.23702388 0.22010902 0.30358222 0.23515388 0.22931087 0.14233942 0.17629503 0.020317383 0.051019654 0.13623068 0.22836837 0.21739878 0.07644682 0.022392243 0.19361418 0.23391195 0.24549803 0.22521853 0.24654998 0.26248804 0.4292943 0.17653205 0.21688265 0.22626835 0.2243531 0.31274202 0.041039743 0.05732548 0.17896606 0.3148881 -0.075799346 0.3063012 0.31454778 -0.030193694 0.027106004 0.22280546 0.40150636 0.4550645 0.29904708 0.29375792 -0.011108123 0.45987642 0.44293728 0.24161935 0.14554472 0.01157254 0.42548615 0.4286036 0.08561479 0.12041399 0.24209583 0.34828526 0.4016943 0.09533556 0.30685115 0.16235319 0.26457712 0.5895457 0.6255529 0.29010653 0.6291567 0.29012924 0.40903467 0.69130015 0.464805 0.620396 0.6805861 0.6661557 0.6612126 0.67286956 0.8244884 0.88010824 0.9108859 0.7416934 0.7741453 0.88432896 0.7919943 0.6531372 0.6562911 0.4640447 0.5107812 0.5755301 0.5365422 0.5994003 0.116101995 0.63586724 0.6085515 0.49744514 0.11912981 0.7155204 0.69395673 0.0985182 0.1897816 0.71443355 0.6838842 0.03183714 0.6310335 0.5662046 0.3539893 -0.14929779 0.27877793 0.08293162 -0.060452342 -0.002298288 -0.00027183443 -0.118309386 -0.027180793 0.0034321174 0.3559103 0.30171096 0.26318774 0.24320057 0.3031503 0.34949937 0.45780063 0.33823255 0.20735985 0.30492675 0.36476266 0.35789898 0.50147617 0.41690564 0.33198267 0.2852987 0.5219389 0.48835483 0.2632034 0.48810858 0.43102014 0.3425686 0.22552733 0.18577667 0.2916885 0.23836659 0.21508045 0.23032711 0.14339635 0.13491821 0.21931165 0.22094056 -0.04916545 0.20483813 0.21814394 0.26924106 0.23524387 0.19797787 0.23373362 0.22473508 0.36132932 0.30766958 0.100436896 -0.15798981 0.2323913 0.2165547 0.4284224 0.3827945 0.2945677 -0.011300027 0.20207758 0.18569958 0.51361585 0.5008547 0.43879852 0.38067222 0.30935055 0.2064542 0.1049893 0.11151844 0.53143346 0.53298175 -0.04774366 0.28598234 0.54335415 0.28649777 0.3702176 0.3934736 0.31927145 0.31116465 0.37135667 0.30188856 0.25890005 0.20060152 -0.028314058 0.3517157 0.33356148 0.05476233 0.0995259 0.3121203 0.31710377 0.087109886 0.081005335 0.07636556 0.2697415 0.48990145 0.21907961 0.25991976 0.44546926 0.519451 0.6110145 0.61060256 0.61913574 0.65225863 0.7494018 0.81237173 0.6785322 0.6908833 0.71851707 0.82938653 0.7548225 0.59859955 0.62545896 0.6660829 0.64554834 0.42325073 0.59645593 0.35359678 0.043783255 0.5319816 0.5514589 0.47193217 0.082556315 0.58008075 0.2038754 0.65102404 0.26928124 0.32001433 0.6816058 0.28199786 0.3208456 0.63885534 0.30068678 0.54679286 0.32113323 0.2728114 0.2258719 0.2928487 0.3598943 0.35237265 0.35302982 0.4317412 0.43188387 0.30246213 0.5266491 0.23971473 0.5283883 0.51862097 0.33734834 0.49385175 0.52812415 0.5519388 0.47511926 0.46675473 0.1683977 0.29399592 0.43372202 0.48278642 0.5028452 0.37011087 0.26564917 0.3509459 0.35730237 0.42887884 0.25255448 0.1719307 0.13189496 0.07737423 0.14331847 0.22614893 0.18231903 0.18946409 0.6203181 0.6294507 0.20890723 0.5465085 0.63533413 0.6670971 0.5101794 0.18535939 0.17795272 0.46449828 0.4637752 0.42569673 0.5727008 0.53575146 0.4698826 0.16949701 0.49846482 0.4920407 0.5333541 0.49310625 0.4143954 0.07735448 0.053603422 0.5128888 0.53854775 0.5209115 0.48703006 0.4444661 0.35529202 0.2571976 0.3668765 0.50428593 0.5369106 0.51546365 0.38592362 0.25855774 0.46350658 0.533912 0.54178715 0.52065325 0.3172624 0.21230033 0.47397816 0.5239082 0.5405506 0.3040437 0.27249128 0.17787719 0.057570048 0.2135579 0.19022661 0.12444071 0.030765824 0.08311756 0.24375835 0.2920583 0.09690295 -0.00070195645 0.25739166 0.3637093 0.4441977 0.17137335 0.35659346 0.4758085 0.49475127 0.4929502 0.16700429 0.2511023 0.37108454 0.43705857 0.4810403 0.16579165 0.31317756 0.16578124 0.28981388 0.48194838 0.47114494 0.22711854 0.5695969 0.6251664 0.59573156 0.64936197 0.64591265 0.6776812 0.5752957 0.71117043 0.67675436 0.6149485 0.61272204 0.25326297 0.10905438 0.4706818 -0.1994493 -0.038859904 0.53162944 0.49192533 0.09098135 -0.10703823 0.20407069 0.27591822 0.5628061 0.4364413 0.3312351 0.3383934 0.3371979 0.28361577 0.17993295 -0.07626324 -0.06745317 0.16494355 -0.0010591075 0.30322304 0.13030909 0.23306713 0.2508067 0.32141507 0.26190072 0.38572356 0.2528567 0.51998377 0.12351255 0.50034404 0.5648252 0.580173 0.492724 0.24570702 0.43534046 0.45436278 0.5631994 0.56881535 0.5484545 0.47003388 0.4152084 0.5062753 0.5077464 0.30367723 0.37044877 0.38941985 0.2652918 0.27319506 0.07890869 0.623431 0.20300944 0.1598414 0.14071095 0.416704 0.5050115 0.6127797 0.6693349 0.708004 0.4797751 0.46833673 0.16463119 0.37507 0.35564375 0.5546488 0.67176193 0.70806056 0.5740708 0.10253193 0.5048216 0.43034008 0.62513506 0.70505404 0.5760172 0.47376722 0.54918927 0.52094513 0.28791177 0.4685632 0.50186235 0.47512126 0.43633956 0.2754948 0.48557943 0.44111145 0.4157398 0.3985252 0.31253713 -0.20102209 0.39220873 0.37757385 0.52888954 0.49795604 0.2738176 0.26332223 0.45515358 0.48183316 0.5273824 0.5119823 0.27557045 0.29053354 0.26506 0.267182 0.17714381 0.086335 0.28918636 0.2643789 0.12436039 0.10446229 0.051763408 0.46352845 0.10342392 0.5174727 0.50741065 0.14365473 0.47695473 0.50804603 0.2612252 0.32057768 0.37254977 0.40260893 0.40963566 0.18337387 0.3747355 0.23167096 0.46180472 0.39623356 0.42312968 0.6091559 0.6386263 0.45947564 0.63301635 0.67174166 0.6845533 0.63804364 0.5602483 0.6337124 0.6789607 0.6427406 0.22983453 0.14564662 0.40039855 0.06040956 -0.057914034 -0.022787705 0.20291126 -0.21885964 0.20686713 0.22336486 0.20210041 0.32985485 0.28013644 -0.0965459 0.252205 0.34143236 0.26015714 0.30044624 -0.022221474 0.23219615 -0.08460762 -0.1916412 -0.02665802 0.111507535 0.12343335 0.19191396 0.2404827 0.22228085 0.33771545 0.24418807 0.40650195 0.16997798 0.49419838 0.49886036 0.061245948 0.4274962 0.55704725 0.575203 0.4402184 0.046336047 0.56495744 0.54183316 0.38257444 0.31716713 0.44649905 0.28974894 0.306823 0.27348393 0.29652405 0.10736907 0.041029543 0.08557529 0.55135524 0.5981235 0.6776515 0.7162776 0.41579247 0.7181258 0.7769096 0.785662 0.45491293 0.8185902 0.5871116 0.7325785 0.8060537 0.5990993 0.6530639 0.56183505 0.48315254 0.42244136 0.41545308 0.37655288 0.31384295 0.4634792 0.4469408 0.19886553 0.44752675 0.23631692 0.25669062 -0.046020627 0.32820717 0.4316157 0.23355003 0.21486819 0.10812902 0.26056752 0.12835722 0.15629219 0.12159909 0.46201834 0.14174117 0.09635242 0.47735873 0.421563 0.4527071 0.46950388 0.61400163 0.53878796 0.50260687 0.4365463 -0.06419027 0.30561292 0.33338234 0.3548342 0.59419817 0.58177733 0.49838424 0.22668613 0.52334374 0.5199554 0.4506501 0.5845083 0.4193638 0.61228573 0.64582765 0.66050816 0.6146318 0.5783448 0.543451 0.6460031 0.6458827 0.6199614 0.5969888 0.27284834 0.29285252 -0.011000906 -0.06522044 0.054684192 0.19335891 0.30395156 0.27172515 0.3883264 0.31991652 -0.14926542 0.20003685 0.11273378 0.39065242 0.364695 0.35963267 -0.1535491 0.14075479 0.22294196 0.045335043 -0.11482962 -0.15834768 -0.12652786 -0.07782121 -0.12873407 -0.17920165 0.0070287343 0.1572258 0.20064284 0.18645178 0.675542 0.22163728 0.1315827 0.40261063 0.4572601 0.48510867 0.41552228 0.10575807 0.31786215 0.49198747 0.5157169 0.36555973 0.5058908 0.34038475 0.30460146 -0.8974975 0.4142937 -0.29616123 0.3083523 0.24746783 0.37055665 0.28601876 -0.03157136 0.22849569 0.22523524 -0.05536069 -0.18087944 -0.2822747 0.1790919 0.4501459 0.48020267 0.5645654 0.6307173 0.6861845 -0.08108221 0.08234213 0.3022364 0.7175398 0.7746052 0.36464036 0.17503326 0.7885312 0.77447367 0.44649678 0.31080413 0.7424978 0.75400627 0.4744829 0.58175683 0.6745331 0.36475796 0.3518619 0.35829824 0.25126418 0.24240753 0.34575891 0.25180036 0.2265161 0.1919303 0.19981751 0.20488665 0.31873482 0.21481565 0.14920038 0.034119595 0.11637861 0.1070648 0.19044895 0.099768974 0.19389644 0.21708846 0.20132603 0.13802844 0.50985646 0.29660538 0.3163535 0.6260232 0.4356085 0.3794526 0.21400484 0.25275925 0.29404163 0.56421816 0.10387798 0.49667662 0.24841431 0.447402 0.43822038 0.3196763 0.37966615 0.4786423 0.44272655 0.5506779 0.60370195 0.6088183 0.5804715 0.5591554 0.6335443 0.6231284 0.6102731 0.59453255 0.34118685 0.39876044 0.23012292 0.35332176 0.29843283 -0.29854393 0.006247282 0.24179947 0.41812146 0.40857995 0.33584154 0.16843627 0.034546666 0.0012853034 -0.017251126 -0.18169159 -0.21643668 0.089593954 0.45310545 0.44508147 0.07302629 -0.01692406 0.44187516 -0.054480977 -0.035211045 0.17344809 -0.16946134 0.06099643 0.19803429 0.29277802 0.31728768 -0.015202817 0.23186791 0.30913743 0.33560428 0.1810469 0.32707432 0.39673024 -0.050705954 0.7509875 0.6927991 0.14580211 0.14469692 -0.074562095 0.76825464 0.7265967 0.64753115 0.6147812 0.030466093 -0.066931225 0.764972 0.71240443 0.66225564 0.44876772 -0.0596011 0.17307082 0.3597601 0.44447494 0.46782982 0.1674416 0.16790089 0.4654495 0.46601847 0.1885894 0.43679887 0.34801018 0.025737377 -0.32499003 0.3909455 0.41605508 0.3157098 0.25875175 -0.3368241 0.29324389 0.4046682 0.19779992 -0.22344878 0.2598838 0.2739343 -0.24302143 0.12280988 0.37702656 0.40580052 0.48679405 0.5544257 0.63633275 -0.071077436 -0.2460579 -0.06852647 0.69812095 0.7511307 0.20652246 0.09941426 -0.20116577 0.077570155 -0.25383216 0.7550653 0.7598753 0.2464304 0.06257704 0.69913316 0.7321459 0.20424992 0.6369936 0.3877959 0.26432806 0.47291335 0.15885647 0.37954402 0.40680346 0.30222753 0.37767965 0.24296682 0.39196083 0.3414843 0.28846383 0.24870808 0.17628509 0.15736392 0.24699034 0.19174294 0.02363088 0.106630504 0.09559271 0.16235079 0.12877831 0.109854594 0.10500222 0.16112715 0.17722842 0.56248915 0.09220374 0.17170084 0.18373597 0.47058216 0.45402083 0.4521056 0.11195065 0.4387439 0.37018985 0.3184466 0.4600281 0.38945484 0.5354335 0.56877697 0.6182753 0.5848559 0.6577237 0.6011246 0.5676033 0.28808808 0.4382031 0.48401517 0.45510697 0.3394523 0.052655667 0.23116335 0.18668956 -0.24116619 -0.16913307 0.19394909 0.15284964 0.44941092 0.4156382 0.34888434 0.11397841 0.078321606 0.040822268 -0.20265727 0.08613209 0.52455354 0.51969904 -0.0041362178 -0.043604095 0.5702474 -0.14107636 -0.08003497 0.5113104 -0.08437231 0.17455347 0.2405197 0.15929559 0.28967664 0.312358 0.3374154 0.23384373 0.3331415 0.37465084 0.42643243 0.34366 0.76970756 0.5998962 0.42257854 0.88665724 0.8244268 -0.24649213 0.9019479 0.85995287 -0.017138273 0.81465924 0.73542964 -0.04593704 0.02835539 0.087016426 0.3821111 0.6988468 0.509141 -0.031954974 0.39369994 0.39930063 0.25617623 0.34104496 0.31120747 0.30689567 0.2760912 0.2079334 -0.096227825 -0.46290457 0.276619 0.40124285 0.31968945 0.30830106 -0.21291971 0.2989738 -0.17074406 0.28437227 0.41742444 0.53494215 -0.20494777 0.011768475 0.4812727 0.62122667 0.69061697 0.71951735 0.6573982 0.438987 0.5480055 0.426734 0.36301824 0.36689416 0.48552138 0.0855925 0.4995817 0.46687216 0.45241243 0.39923197 0.42602518 0.35471696 0.09917404 0.32206857 0.32005233 0.2832672 0.07964925 0.064930856 0.086499095 0.15283138 0.099704966 0.12692396 0.1410087 0.13974024 0.11073221 0.1543982 0.42491055 0.047665477 0.10294435 0.15195718 0.42626297 -0.1833949 0.42326385 0.41206908 0.17506915 0.40270308 0.37488103 0.34002203 0.33044255 0.19568485 0.441231 0.48251176 0.5330053 0.5845836 0.66657615 0.6874323 0.67129886 0.48075336 0.60662085 0.5640545 0.37514502 0.25807974 0.024884608 0.21269482 0.13632163 0.21867782 0.0829352 0.49961388 0.47653225 0.35747615 0.09660362 0.017868375 0.6088325 0.58427244 0.44946682 0.32531977 0.20738077 -0.06642397 0.56720096 0.5964076 0.06504761 0.5081652 0.56674665 0.16931427 0.21224383 0.28293258 0.31494293 0.18501262 0.35070744 0.41103834 0.66728604 0.566437 0.46641982 0.8432075 0.7695763 0.6452245 0.4749449 0.9034587 0.2888611 0.9398014 -0.038878247 0.0024158955 0.9246671 0.8771355 0.7439351 0.12288927 0.13932247 0.21769121 0.7174241 0.5778376 -0.046212815 0.30454227 -0.024889227 0.26223695 0.06939069 -0.29812765 0.18616337 0.20344327 -0.31939158 0.23354736 0.2545616 0.2820424 -0.10238743 0.29478347 0.30055135 0.31826025 0.3919801 -0.133068 0.36638635 0.48407322 0.5650121 -0.11852725 0.5630088 0.6393169 0.52822834 0.58517164 0.33984482 0.22145042 0.4421966 0.4536006 0.16439685 0.50433743 0.012536317 0.52445745 0.53139466 0.50849116 0.5059913 0.16817906 0.47066677 0.4653505 0.39856142 0.30976683 0.19977804 0.18081582 -0.24878246 0.2453395 0.3298197 0.04864037 0.1451448 -0.19514287 0.077505484 0.26012582 0.14208525 0.13545579 -0.10681258 0.08339912 0.14283048 0.39895213 -0.1774691 -0.23637925 0.3991434 0.37293234 0.3682133 0.34991238 0.27113646 0.017951265 0.60182637 0.59760344 0.6366217 0.61057186 0.58574605 0.5581648 0.5069473 0.4118235 0.26695865 0.28151727 0.41440088 0.1601444 0.3620612 0.22047406 0.2383447 -0.03586398 0.07340322 0.12553725 0.060403284 0.31529003 0.6300663 0.6268287 0.5295758 0.42719555 0.5747206 0.6114191 -0.012660354 0.05637641 0.5442678 0.115856566 0.47493047 0.18657604 0.26848865 0.3902344 0.28016186 0.39335185 0.5886585 0.43987024 0.4553407 0.8459184 0.77077293 0.4790967 0.8985275 0.83934784 0.4596201 0.9476859 0.9080744 0.061845213 0.8790483 0.71712327 0.5252081 0.4407565 0.094381824 0.3315239 0.14143422 -0.0058958977 0.019036107 0.24538407 -0.10600748 -0.20652479 0.22589597 -0.3114044 0.12083105 -0.29641864 0.29026744 -0.10446245 0.20708653 0.2584947 0.2864185 0.3095169 -0.08341324 0.31934017 0.39215443 0.48741615 0.4320693 0.3582566 0.2359899 0.4339945 0.41024458 -0.0035699597 0.41237563 0.041597795 0.042286914 0.5106722 0.27027074 0.48654163 0.24894734 0.38131076 0.35674083 0.17876273 -0.26083493 -0.27672228 0.34399894 0.39615908 -0.15485173 0.15821965 0.2700458 -0.14130276 -0.15651342 -0.037719604 -0.0061275735 -0.1659482 0.08196557 -0.05655396 -0.03221851 0.082398966 0.11657974 0.26644075 -0.24288206 -0.11385289 0.049447604 0.30635408 -0.31049496 -0.25628874 0.32490143 0.326783 0.24745122 0.32698298 0.30301723 0.015457764 -0.089872815 0.41875193 0.44046122 0.37619713 0.47407532 0.4936664 0.53020483 0.55983186 0.5062477 0.5211982 0.47652858 0.49084735 0.50568974 0.5318361 0.48935315 0.41758132 0.01072377 0.23431745 0.489317 0.46204758 0.4032266 0.12598751 0.03509617 0.4884345 -0.12219726 -0.01710223 0.048677538 0.6304448 0.55969703 -0.