# vtk DataFile Version 2.0
Really cool data
ASCII
DATASET POLYDATA
POINTS 4663 float
25.289974 37.060955 10.959755
25.234274 36.991657 11.514828
25.321518 36.999077 12.114071
25.124409 37.606598 10.890262
24.989136 37.60195 11.482349
25.174057 37.476154 12.067301
25.156359 38.286686 10.880909
25.055208 38.352722 11.48735
25.136429 38.18613 12.006651
25.317568 38.799255 11.052083
25.29005 38.81477 11.479499
26.229263 35.365177 11.675377
25.968075 35.787315 11.687967
26.140232 35.687412 12.374018
26.149569 36.08784 12.779492
25.638641 36.682915 10.779428
25.508778 36.57399 11.22548
25.663519 36.528553 12.32483
26.007944 36.65809 12.816152
25.790392 37.624687 10.228224
25.482971 37.43499 10.465386
25.438332 37.37894 12.356332
25.953714 37.326256 12.850144
25.750212 38.39434 10.215282
25.465796 38.201237 10.42733
25.588469 38.505917 12.377156
25.878899 38.202923 12.661422
26.193003 39.24977 10.177138
25.880169 39.22464 10.633163
25.636297 39.14821 11.407784
25.76936 38.898876 12.175412
26.118048 39.724213 10.924985
26.263031 39.774525 11.175846
27.259993 27.280481 5.5291653
27.167154 27.729143 4.8809795
27.047928 27.668236 5.4631085
27.138079 27.769909 6.210475
27.337872 28.051275 7.1430373
27.183256 28.458488 4.732875
26.969465 28.416693 5.459479
27.09964 28.407967 6.4314446
27.271257 28.25929 6.9998484
27.254906 29.044508 4.85103
27.186184 29.093204 5.4397097
27.314384 29.15876 6.3308187
26.697906 35.290115 11.211143
26.645414 35.196068 11.751104
26.715057 35.116306 12.141407
26.687315 35.745705 10.852728
26.498058 35.413307 12.651307
26.889372 35.52731 12.998376
26.505194 36.69029 10.1642
26.331673 36.41669 10.479575
26.322176 36.270588 13.014358
26.491709 37.58711 9.87771
27.066565 37.222656 13.580536
26.553993 38.526352 9.826489
26.624823 38.384315 12.917001
26.598452 39.347813 9.979206
26.37278 39.61972 10.353927
26.333168 39.394268 11.9968605
26.996164 38.989124 12.739308
26.853304 39.85783 10.126306
26.824572 40.08459 10.555866
26.743944 40.14241 11.186345
26.38214 39.66182 11.839333
27.751219 27.151197 4.7917504
27.54452 27.104332 5.4903593
27.862337 26.981241 6.3644247
28.031918 27.175486 7.2148843
27.832918 27.772335 4.2618165
27.499266 27.610394 4.5546775
27.475204 27.390028 6.499714
27.651917 27.729324 7.3864737
28.035875 27.792263 7.964785
27.667837 28.39349 4.2104926
27.428738 28.35816 4.4021754
27.534628 28.433764 7.490756
27.8694 28.57726 8.001196
27.915216 29.205927 4.260668
27.676184 29.376707 4.5813384
27.491703 29.625427 5.432876
27.627254 29.587095 6.2359414
27.730608 29.20805 7.5222936
28.0005 29.13891 7.9444075
27.870123 29.786203 4.7976437
27.841242 29.926224 5.371031
27.934017 29.960201 6.2190723
28.005148 34.76433 11.480886
27.584877 34.79953 12.255239
27.84627 34.83485 13.313292
28.245728 35.014427 14.071186
27.605276 35.39547 10.6448145
28.053 35.74009 14.250536
27.577879 36.793777 9.94086
28.318998 36.917866 15.167233
27.506653 37.621906 9.663418
27.925241 37.452415 14.916239
28.350939 37.75173 15.950415
27.597372 38.537884 9.544317
28.183834 38.258137 15.503016
27.566544 39.25972 9.646857
28.360832 39.498707 14.836952
28.353674 39.88343 15.138945
27.503946 39.988148 10.080181
27.433874 40.242893 10.439138
27.171072 40.358906 11.165215
28.413706 40.15011 13.784137
28.381565 40.680733 14.7949705
28.428598 41.118866 14.510521
28.841124 27.271713 4.208903
28.419546 27.085602 4.5194907
28.832827 26.747353 5.469055
28.808891 26.568695 6.6234255
28.774536 26.768904 7.260331
28.595364 27.115389 7.7669973
28.511423 27.679722 4.0191855
28.520565 27.843061 8.219918
28.797405 28.316607 3.8125641
28.56976 28.563318 8.436113
28.709055 29.18702 4.027936
28.432814 28.979588 8.386276
28.943445 29.131035 8.589518
28.623528 29.992794 4.6479053
28.89233 30.429056 5.3904243
28.45239 30.25559 6.6633835
28.631645 30.17294 7.613541
29.187069 30.705202 5.9476757
29.196333 30.831541 6.358466
29.396193 32.650513 10.604167
29.461739 33.23798 10.275145
28.349342 34.18811 11.786203
28.686195 33.93423 12.322767
29.042341 33.835236 14.272199
29.227713 33.995045 22.055426
29.099957 33.97571 22.622278
29.100643 34.1089 23.129902
28.636045 34.80466 10.884627
28.371645 34.500107 12.905109
29.041088 34.282993 14.631389
28.741228 35.068024 15.012453
29.041645 34.588696 22.04369
28.90733 34.562477 22.525255
29.026472 34.51956 23.290234
29.292233 34.780327 23.847507
28.181097 35.377323 10.55847
28.722574 35.665882 15.217546
29.35668 35.69502 17.414907
29.424576 35.710785 18.998367
29.127047 35.11251 21.940037
28.945543 35.132286 22.632795
29.118555 35.240963 23.346869
28.646582 36.282566 9.805888
28.44098 36.548145 15.129286
28.59735 36.705475 15.806283
29.165897 36.34107 18.481283
29.365374 36.061092 19.179157
28.549946 37.45136 9.61661
28.702276 37.507942 16.259762
29.199755 37.260494 17.856806
29.279064 36.956852 18.59277
28.418268 38.031853 9.379717
28.479956 38.651073 16.005371
29.137543 38.104897 16.767897
28.00146 39.461807 9.753793
28.576418 39.491936 15.696327
29.10903 39.2616 16.307028
27.94687 40.012325 10.111419
28.046082 40.279324 10.60971
28.027796 40.289658 11.290672
28.560328 40.664303 13.554742
28.48756 40.32934 15.220005
29.084879 40.44187 15.891072
28.80863 41.479977 13.796441
28.634153 41.463394 14.489676
28.77906 41.24013 15.207209
29.118145 40.97386 15.804107
29.136286 42.39576 13.701799
29.053734 42.299877 14.558889
29.19105 42.079098 15.132173
29.331484 42.909935 13.838234
29.309355 42.876053 14.304235
30.330729 17.105738 4.904915
30.281029 17.154976 5.274148
30.345945 18.009703 4.188948
30.21039 17.579264 4.725488
30.177593 17.599113 5.3328156
30.37393 17.654531 5.8751817
30.382542 18.307161 4.1741347
30.231167 18.347239 4.6131396
30.192259 18.223076 5.348014
30.356976 18.122772 5.800142
30.370728 18.94426 4.7029166
30.365122 18.929869 5.1430683
30.456024 26.111898 12.914555
29.492847 26.516733 6.786125
29.33582 26.556128 7.1351795
29.408659 27.065083 7.94462
30.36183 26.890232 12.940295
30.405693 26.578312 13.497528
30.421532 26.676516 14.0645485
29.121887 27.665487 4.014877
29.467724 27.52543 8.304118
30.332739 27.245272 12.872796
30.41645 27.483774 13.554482
29.394667 28.490538 3.9209476
29.136662 28.246616 8.547037
30.439373 28.122604 13.532487
29.564121 29.231853 4.1769934
30.012495 29.45814 9.10755
29.865755 29.856853 4.680596
29.380207 30.612446 8.023908
30.038288 31.053911 9.723445
29.722054 30.983318 6.0555043
29.451435 31.003874 6.3690515
29.61424 31.149128 7.4048867
29.536327 32.116753 10.454422
29.965986 31.601994 11.101381
29.804815 32.082787 8.814517
29.53909 32.434845 10.435324
29.759705 32.757263 13.547024
30.177935 32.587646 14.1172285
30.286278 33.169773 21.645164
29.934406 32.985855 22.649164
29.69313 33.27586 23.17027
30.214434 33.244793 23.79228
29.618303 33.251186 8.989516
29.628777 33.790257 9.559634
29.49299 33.606537 14.734901
29.670046 33.83057 15.07985
29.948393 34.14812 21.263227
29.42817 33.51886 22.499264
29.583046 33.587757 23.459337
29.70619 33.908756 23.929964
30.161722 34.429024 9.07957
30.171263 34.334965 9.55689
29.32024 34.54677 10.604871
29.847197 35.024815 17.599825
29.901733 34.880184 19.172855
30.060911 34.77492 20.406092
29.68898 34.63531 21.343866
29.709873 34.696964 24.370241
30.240276 34.937656 24.968616
29.658703 35.336403 24.19686
30.209312 35.739323 24.843142
30.242182 37.064323 7.943408
30.105118 36.596226 9.039162
29.479958 36.219112 19.303654
29.945168 36.40421 20.459719
29.999426 36.133835 21.922718
29.776693 36.084858 23.412378
30.293415 36.16831 24.50999
30.240862 35.850456 24.873447
30.357084 37.792145 5.863916
30.214428 37.776466 6.4538393
30.284967 37.420506 7.16479
29.905588 37.55355 8.925464
29.538599 37.402664 18.669659
29.941683 37.682987 19.412333
30.313717 37.565166 20.467419
30.328184 37.37844 20.90244
30.346308 38.271626 5.9307833
30.215311 38.34168 6.5841985
30.275265 38.21445 7.48002
30.108105 38.560314 17.181545
30.130209 38.064175 18.634708
30.157766 37.889008 19.074451
29.129335 39.088512 9.7523985
29.481586 39.71154 10.442315
29.287073 40.00149 11.220028
29.308594 39.90717 16.117798
30.107712 40.170696 16.576416
30.060648 40.976833 16.396046
29.82163 42.659924 12.978075
29.555534 42.356663 15.403165
30.068798 42.409836 15.907382
30.061842 43.154243 13.111621
29.802849 43.373066 13.652238
29.666958 43.23751 14.44329
29.743217 43.03993 14.994761
30.068783 43.62974 13.743508
30.083763 43.639606 14.23908
30.861843 17.073324 4.20856
30.710398 16.853943 4.713283
30.691772 16.80444 5.379228
30.853054 16.919662 5.919841
30.732826 17.701216 3.9635308
30.65055 17.542675 6.0858397
31.130022 18.984858 3.3570168
30.493536 18.358446 4.072028
30.72416 18.282602 6.140751
30.798569 19.404598 3.8864741
30.55362 19.372242 4.5419083
30.727882 19.361559 5.4873395
31.076208 19.42889 5.9488816
31.109188 19.998623 3.6722693
30.873158 20.042645 4.4770737
31.138887 20.125261 5.138585
31.167774 25.322128 12.621773
31.073786 25.376926 13.433004
31.200787 25.40215 14.2067795
30.954216 25.812449 11.875767
30.736479 25.775364 12.59616
30.669731 25.817287 13.496541
30.887804 25.764782 14.372484
31.059282 25.989275 14.90694
30.91318 26.8964 5.826369
30.618233 26.726002 6.5440183
30.636438 26.691412 7.1108694
30.258038 27.19312 8.08132
30.634872 26.590143 12.010653
30.515879 26.450554 12.504746
30.636461 26.608286 14.457318
31.036724 26.529371 15.042342
30.198704 27.38956 4.5886884
30.329288 27.335232 8.019364
30.80524 27.307423 11.7187605
30.644445 27.311739 14.426744
31.008453 27.204262 14.991631
29.969961 28.814259 4.1132
30.937168 28.617023 11.788102
30.66436 28.714216 12.364211
30.865505 28.47479 14.323364
31.140863 28.379665 14.817282
30.148336 29.103886 4.317371
30.4331 29.628794 9.227103
30.762585 29.097816 12.897344
30.955465 29.430407 13.324465
30.572964 30.211096 5.1854463
30.752295 30.518345 10.39352
31.407118 30.058472 12.149632
31.420094 30.855831 14.069501
30.377419 32.33451 12.812711
31.363134 32.232315 20.568245
30.704132 32.317104 22.544191
30.818369 32.354996 23.002285
30.588398 32.448833 14.667874
30.936186 32.54643 15.268834
[...]
POINT_DATA 4663
SCALARS features_00 float 1
LOOKUP_TABLE default
0.80650353 0.7918205 0.7496355 0.8474202 0.8513795 0.8016967 0.8432938 0.8507803 0.83144605 0.8037964 0.80528116 0.57735395 0.6415192 0.58174235 0.5666141 0.74719095 0.7461023 0.6769949 0.6029388 0.7780107 0.80445355 0.75104105 0.6426789 0.7825966 0.8137809 0.76919985 0.7195747 0.72407407 0.74430764 0.7617079 0.749581 0.7146565 0.704472 0.8376653 0.8698328 0.8495711 0.7909391 0.72338426 0.86575794 0.8480815 0.78189814 0.734354 0.83623445 0.81128275 0.76203835 0.5157833 0.51274455 0.4886132 0.5524443 0.50118524 0.42373326 0.63677835 0.6488868 0.51941526 0.6938245 0.3632586 0.7221788 0.613595 0.7065964 0.71150064 0.690776 0.55801123 0.6916555 0.6893335 0.6750958 0.6828866 0.8507143 0.8298178 0.7434757 0.70256245 0.86056554 0.86715835 0.74905133 0.7039616 0.6751609 0.86890966 0.8715826 0.7016649 0.6697169 0.8490916 0.82204616 0.75088423 0.70311594 0.6868402 0.6596652 0.75860727 0.69724476 0.63120246 0.36210847 0.38915187 0.2698839 0.17342132 0.40196145 0.15356006 0.46237543 0.14936535 0.54533017 0.15996188 0.16956581 0.64239335 0.2018926 0.66748834 0.27518883 0.3082122 0.6618713 0.6613986 0.6551717 0.30480117 0.36936465 0.40791097 0.78796387 0.82542044 0.7639595 0.64796686 0.6469666 0.66373384 0.83237803 0.6462449 0.8161148 0.6042831 0.81949735 0.6142694 0.55286133 0.7333269 0.5895326 0.53716636 0.55649036 0.5004773 0.46423882 0.24811354 0.20096928 0.2958399 0.23982711 0.16480777 0.539767 0.603289 0.64427555 0.18625881 0.27025104 0.15040663 0.118643574 0.56784236 0.62674105 0.6745832 0.68114007 0.30089843 0.11124308 0.25858033 0.29345357 0.54395974 0.64055735 0.6786996 0.18713889 0.13197416 0.13255404 0.30790466 0.3065205 0.30683434 0.15364832 0.21948747 0.28235713 0.4560555 0.21278247 0.14801951 0.63323563 0.27674997 0.21979454 0.6204541 0.5947871 0.5755151 0.35449585 0.3410831 0.32549095 0.45765427 0.4480878 0.41641772 0.38025776 0.6345445 0.577234 0.5364033 0.7083279 0.68470883 0.77616024 0.8074718 0.71357346 0.783423 0.8232907 0.8249449 0.69479847 0.745937 0.80577075 0.8145859 0.71079457 0.75274277 0.69836366 0.5214515 0.55702364 0.5913911 0.60814273 0.6498882 0.6390531 0.7562094 0.59321946 0.56524074 0.54918545 0.7342799 0.55658543 0.4909051 0.7041327 0.22390449 0.6309249 0.4147549 0.16076937 0.37967852 0.4148736 0.32918945 0.27071688 0.1676702 0.29550582 0.2747799 0.16051345 0.1329697 0.38672248 0.49721295 0.54545397 0.5231465 0.25232962 0.1653238 0.15163329 0.13001747 0.36177963 0.548762 0.58552057 0.61428505 0.111834735 0.13520634 -0.0738276 0.21656276 0.15079859 0.15146105 0.41848707 0.658949 0.64688134 0.65642303 0.6433861 0.18414287 -0.19002497 0.30615783 0.25125816 0.3996484 0.6049341 0.6207137 0.6412456 0.5752137 0.5496264 0.4205034 -0.070527226 0.26116762 0.2970705 0.35985306 0.3612733 0.6090872 0.6115528 0.57464504 0.121948645 0.23107028 0.27582014 0.4696899 0.2738816 0.25969613 0.25945935 0.19415498 0.3565278 0.7249861 0.59831357 0.61606264 0.7489786 0.74515057 0.71879077 0.6915667 0.7409493 0.73020047 0.64211655 0.7038989 0.7579191 0.76321805 0.6525372 0.80467004 0.49595684 0.6723753 0.7691028 0.57066345 0.66621375 0.7040391 0.60984683 0.48564732 0.6112149 0.5645423 0.7926621 0.7917155 0.7720178 0.7615433 0.75538534 0.7325773 0.7339001 0.699767 0.28186706 0.35044387 0.3630463 0.45967975 0.6450795 0.66602755 0.64303374 0.6275848 0.5289572 0.4448348 0.501806 0.5521539 0.5312749 0.6343699 0.36564213 0.4105445 0.3995665 0.3646669 0.59600323 -0.03645566 0.37178165 0.3114006 0.3888569 -0.05089009 0.16473885 -0.08383343 0.0811186 -0.03093485 0.3843885 0.39800328 0.05243431 -0.034688987 -0.10109933 0.22006106 0.38300604 0.42882577 0.45501226 0.49745572 0.06522247 -0.07030175 0.0108086215 0.5260378 0.5624932 0.111135684 0.091127574 0.6289816 0.17692506 -0.24664399 0.64932835 0.49105924 0.32747877 0.24204473 0.61619884 0.63143706 0.5760234 0.5705565 0.41238594 0.53921485 0.53590447 0.6081367 0.6022859 0.61405194 0.36440483 0.42238194 0.6141243 0.6100892 0.61765003 0.5629972 -0.055388883 -0.07656201 0.098160654 0.14072382 -0.06575336 0.502936 0.7118926 0.6139021 0.7386178 0.7080357 0.6786231 0.6343085 0.7324225 0.71558106 0.6926069 0.44156665 0.55022156 0.5164343 0.5347862 0.49985814 0.63754636 0.62479573 0.65345407 0.781971 0.79264605 0.7910205 0.48792475 0.6707026 0.6259778 0.6563936 0.7310282 0.7660731 0.76116467 0.7828237 0.30698472 0.33955857 0.29094967 0.30584475 0.5322496 0.5106307 0.59326875 0.6437583 0.66080666 0.6983392 0.3583081 0.36875013 0.33209443 0.32034606 0.4370631 0.45476535 0.5588217 0.38751513 0.40225005 0.3966444 0.38570157 0.35344753 0.3360189 0.3286084 0.40802568 0.7164369 0.7025436 0.77237296 0.6438804 0.7071877 0.699462 0.20707063 0.16798332 0.18520337 0.54323643 0.5739571 0.23746447 0.05723381 0.051675208 0.40331388 0.20845044 -0.4007946 0.14770469 0.22302157 0.40245783 0.4928233 -0.21288934 0.09746196 0.0064040944 0.04611887 0.2321778 0.42343816 0.47959495 0.4961895 0.08672133 -0.19626352 -0.1566586 -0.03720285 -0.0031868257 0.07964692 0.060651846 0.36466205 0.4109678 -0.17684883 -0.09728458 -0.26086643 -0.17159206 -0.03454788 -0.028231371 0.33466986 -0.20585681 -0.10519557 -0.21735589 -0.11643459 0.4398117 -0.22972432 -0.1154819 0.5311013 -0.11490741 0.60492986 0.60953385 0.24764061 0.3080271 0.6161893 0.49330696 0.6127325 0.60170853 0.6036261 0.6051394 0.40081185 0.4956145 0.55587006 0.6219011 0.4447763 0.6139108 0.6037507 0.5922741 0.5245713 0.44115472 0.29426017 0.05825427 -0.23279083 0.33261064 0.41821307 0.4329371 0.31468683 0.55575466 0.55318385 0.711363 0.6336005 0.63021755 0.6023289 0.7034329 0.6858935 0.66838944 0.809093 0.8598859 0.7122146 0.8287827 0.052794926 -0.010576114 0.11239601 0.31408593 0.32327437 0.38367826 0.10929763 0.09161031 0.0014649034 0.20754093 0.22279538 0.49823123 0.76100004 0.7975466 0.793342 0.09895056 0.106364906 0.5196043 0.66158956 0.736321 0.7792292 0.8013978 0.7965615 0.7951241 0.11927045 0.14928651 0.052665126 0.17413606 0.545285 0.5817319 0.6853181 0.8042596 0.83026075 0.28753728 0.28224453 0.27174652 0.45058915 0.48867762 0.42985734 0.5262357 0.6318153 0.73755705 0.8088005 0.31320038 0.35710892 0.33065653 0.3582243 0.3881013 0.4915262 0.4865557 0.6295511 0.6602007 0.34852204 0.37481406 0.26400223 0.2590784 0.38962084 0.41602045 0.5466625 0.34433407 0.380847 0.40249115 0.33079934 0.2870523 0.24362509 0.20769775 0.7449863 0.72757757 0.69165283 0.8352847 0.81354773 0.8145576 0.74235 0.64363474 0.7015444 0.72430515 0.8565122 0.8990779 0.8626181 -0.018297866 0.09281218 0.30548912 0.45983326 0.6170651 0.7889507 0.8287699 0.81834507 0.23019266 0.21366781 0.21845454 -0.04254189 0.034817666 0.12533411 0.06014686 0.2564198 0.24356446 0.23214689 0.20507254 0.18453 0.009748587 0.42170903 0.48358235 0.51183176 0.5327328 0.31325895 0.26737338 0.2606745 0.19874872 0.09273841 -0.05804169 0.053211335 0.11899859 0.40571958 0.47336817 0.513585 0.51910704 0.3270135 0.33098072 0.30303878 0.24872993 0.065009505 -0.08801897 0.017044999 -0.035797242 0.010265563 0.5094949 0.49910146 0.34225553 0.35274792 0.33216172 0.24715948 0.1299726 -0.18578462 0.46932083 0.48673737 0.3540528 0.3762023 0.35651374 0.25897458 -0.22866525 -0.20273328 0.31452382 0.34916803 0.3725295 0.33007595 0.16944598 0.11392071 0.019403575 -0.050988767 -0.18822409 0.32553053 0.3690354 0.3455963 0.1899103 0.08886325 0.029553313 -0.016050577 -0.051241405 -0.25841498 0.4712349 0.5292227 0.37204608 0.411392 0.39202467 0.29340506 0.13579951 0.09524484 0.006896723 -0.49849838 -0.3156344 0.53410566 0.41288358 0.44146797 0.47028226 0.44893026 0.2592831 0.06464052 0.5407273 0.43221584 0.4761734 0.510722 0.50785834 0.43789467 0.41458532 0.54454434 0.52586615 0.47837877 0.47416502 0.37705955 0.19367608 0.30772436 0.40031606 0.4837902 0.29211557 0.33904496 0.3035911 0.56179065 0.518727 0.495069 0.3226969 0.25333837 0.03661148 0.29856098 0.3643003 0.444847 0.40208757 -0.30529827 -0.0652116 0.47512412 0.6484846 0.5624247 0.9030167 0.97504044 0.9966441 0.70198596 0.7677738 0.9199837 0.9502808 0.5557306 0.5098743 0.5994853 0.6900784 0.81810486 0.9090167 0.9131124 0.49443573 0.47677633 0.4950659 0.40654957 0.39444733 0.5065084 0.60060513 0.68498075 0.84212804 0.3308239 0.37465942 0.38474017 0.33145186 0.09732345 0.09604126 0.22682275 0.55790615 0.70113957 0.39593533 0.34992287 0.25218973 0.085880056 0.09161803 0.045061965 0.039354622 0.029603802 0.037582427 0.07224191 0.51021713 0.4064176 0.40736383 0.37933356 0.2363641 0.12560284 0.107199445 0.09039049 0.040948965 0.39445335 0.3527526 0.38174787 0.384499 0.3653652 0.14555609 0.087317415 0.11605854 0.0825336 0.66027534 0.7039067 0.746349 0.75890493 0.77400124 0.35702386 0.35653722 0.27444357 0.13116296 0.065233365 -0.0696826 0.37700027 0.64123225 0.780332 0.8045013 0.30475038 0.26317 0.18575513 0.06103011 0.013427161 0.050191708 0.029549066 0.44586274 0.8245957 0.28565884 0.20362808 0.084952965 0.016082585 -0.006922208 0.06725276 0.34290135 0.37099254 0.39874643 0.8374368 0.24861541 0.16296493 0.08929085 -0.0046478603 0.05632001 0.2582745 0.34484294 0.3753338 0.3487103 0.25563663 0.33565226 0.65968835 0.75583684 0.19262914 0.10664631 0.23317766 0.27874655 0.30526707 0.3257252 0.34687126 0.38149762 0.61376476 0.44670784 0.26931524 0.29682884 0.31792462 0.23145929 0.28929347 0.18926394 0.14894044 0.33301765 0.65138674 0.58561826 0.5717774 0.42376637 0.25931948 0.34632772 0.3399447 0.32107714 0.20531082 -0.020382524 0.22781622 0.7224069 0.78682363 0.36268425 0.33541584 0.30605382 -0.035673097 0.050506204 0.023057044 0.42576155 0.71982676 0.7574377 0.7875925 0.7262068 0.12379126 0.0824672 0.16574244 0.10083628 0.0018866807 -0.07899076 -0.058107823 0.10877444 0.1521229 0.39490497 0.2922155 0.66281426 0.7199833 0.75139475 0.7670797 0.6813687 0.086519495 0.1715661 0.20592488 0.18225913 0.0074137 0.5805259 0.65883315 0.7137753 0.7175877 0.12269191 0.17866185 0.03877394 0.03823725 0.26574463 0.44363564 0.5230742 0.5660269 0.56166375 0.23635785 0.5402133 0.523554 0.5032436 0.28428093 0.31150115 0.49317765 0.2877708 0.27888262 -0.35283926 -0.3586129 0.26691914 -0.096313685 0.29721785 -0.057571057 0.2958826 0.48952767 0.3585717 0.48122507 0.3406148 0.438878 0.45077896 0.47228795 0.36903864 0.41147053 0.44550398 0.37682754 0.17398547 0.24822043 0.3548266 0.40878248 0.41923133 0.39754426 0.3508315 0.22429481 0.31724074 0.017001184 0.3602008 0.29418868 -0.1776982 0.25861177 0.27283633 0.2777512 -0.04769355 0.4019696 0.57362264 0.5224488 0.49453828 0.41511077 0.3860886 -0.036294833 0.5644486 0.47280633 0.4582466 0.5469377 0.59008634 0.5657593 0.53667176 0.59938204 0.64738566 0.62205887 0.64724463 0.80770123 0.9205878 1.0 1.0 0.635041 0.6595794 0.5699403 0.6426814 0.94040155 0.8910553 0.5724173 0.60284674 0.57279384 0.5142895 0.5188714 0.4532423 0.8580009 0.83970976 0.51659334 0.43620384 0.33730564 0.2540982 0.25011855 0.788234 0.395044 0.37222278 0.29499274 0.24226634 0.074413426 0.05971037 0.068554156 0.54945517 0.40657237 0.40683335 0.3650844 0.4917756 0.40743843 0.059930425 -0.041795276 0.1295006 0.09804083 0.37657142 0.3914667 0.15146166 -0.08085888 0.22577816 0.56218666 0.6019572 0.67897063 0.6869452 0.34870023 0.15847418 0.35823378 0.6539259 0.6806793 0.7454543 0.60157275 0.32441205 0.35513178 0.30420035 0.7596315 0.43633455 0.3083375 0.45326668 0.7892904 0.42015496 0.20007148 -0.043230034 -0.033093803 0.01180369 0.40166777 0.7282959 0.4120409 0.37360534 0.06935879 0.03413576 0.2230848 0.01661702 0.39013433 0.33935535 0.51828235 0.6034045 0.14681733 0.15710284 0.30363363 0.1413518 0.033905502 0.33269238 0.14310968 0.19678205 0.39784825 0.4375081 0.49010694 0.29946154 0.26878387 -0.08243118 0.059830688 0.18675888 0.59360236 0.28128153 0.27269036 -0.017372608 0.5481357 0.27671894 0.16919714 -0.058445096 -0.03996772 0.0490662 0.14538008 0.15070836 0.099369645 0.0738819 0.07543537 0.07250218 0.080504194 0.5275022 0.6050932 0.6110445 -0.06341554 -0.063884914 -0.049224082 0.005851779 0.07763105 -0.05100766 0.56975645 0.57885957 0.5664977 0.5273943 0.5648565 0.63079476 0.095364586 0.06595504 0.015604831 -0.062079504 0.04928002 -0.021846801 -0.04788889 0.046690226 0.42025113 0.53354955 0.5047877 0.11110461 0.010644376 0.1618746 0.47438526 0.47762674 0.19814204 0.44647363 0.16952738 0.011719927 0.36901766 0.0918383 0.21823189 0.07142612 -0.03345324 0.3087889 0.4403932 0.386903 0.44239485 0.35310772 0.0778962 0.1638049 0.2518775 0.35141626 0.31997845 0.304314 0.20067185 -0.103445694 0.10717238 0.09957194 -0.20270759 0.047351778 0.0770358 0.20128499 0.14019752 0.00042617694 0.4483639 0.38969743 0.074565925 0.048670445 0.48644572 0.49994624 0.0024833418 0.002328489 0.5126906 0.5483351 0.29226896 0.495751 0.48879677 0.51329416 0.4415404 0.53905785 0.59396076 0.5480385 0.6072904 0.61333984 0.5974616 0.9021921 0.9224068 0.7161653 0.83455056 0.8945913 0.9589896 0.97330046 0.5759429 0.6400147 0.68588203 0.6687111 0.56980014 0.61638737 0.84843874 0.82001805 0.5340182 0.51276433 0.45499218 0.3850541 0.6935614 0.7533852 0.34942767 0.3882522 0.27327126 0.28798574 0.280929 0.56749374 0.4149123 0.39162475 0.20479509 0.5189983 0.41160452 0.42249784 0.21030724 0.6681876 0.6431862 0.5914962 0.6270404 0.6590709 0.65361774 0.5913408 0.51716685 0.30772513 0.27129146 0.22517659 0.22256765 0.36337367 0.41453093 0.5546047 0.606663 0.58920234 0.6012528 0.5247841 0.50372046 0.18090054 0.4713665 0.47226787 0.52239 0.6776628 0.53538597 0.5037158 0.49788126 0.08694886 0.6147592 0.45382318 0.43966532 0.19905525 0.43790042 0.5852934 0.42827988 0.4231365 0.11343549 0.36896855 0.46942562 0.39990854 0.023215327 0.057782203 0.27340263 0.21424516 0.13089304 0.28567362 0.28510723 0.27386445 0.25139976 0.20769241 -0.040406436 0.15627334 0.43170592 0.07584352 0.11514673 0.059581295 0.041769303 0.00502925 -0.00079535693 -0.31861436 -0.17152931 0.36211893 -0.15505598 0.040302634 0.05364896 -0.14442095 0.47244295 0.368635 0.28050148 0.3747758 0.12711975 0.1963819 0.452936 0.47587168 0.29897502 0.1080243 0.16256765 0.15581192 0.1994966 0.35218447 0.39674392 0.23255117 0.23145738 0.20396042 0.28360245 0.26896992 0.27178842 0.17553347 0.30860543 0.33466795 0.18942937 -0.12542269 0.17762889 -0.2479294 0.038949948 -0.1770323 0.21721005 0.29054978 0.17786781 0.0970321 0.43485963 0.27216738 0.42390367 0.5679207 0.52000093 0.36782217 0.40248227 0.60646343 0.48659825 0.29153886 -0.10375998 0.25815904 0.3428765 0.53789973 0.49104032 0.10767009 -0.16909508 -0.024496734 -0.2402028 -0.023910068 -0.11318009 0.13816467 0.19905512 0.0029618493 0.2574343 0.27441612 0.09587752 0.07287785 0.4046454 0.5063781 0.51119137 0.22606036 0.45532328 0.43803716 0.40915334 0.3927703 0.42058465 0.38152593 0.38537776 0.39690787 0.5202545 0.5548915 0.5527117 0.51349384 0.5449847 0.5310496 0.86584604 0.7250787 0.78336567 0.8332225 0.84936297 0.8748654 0.60565025 0.648741 0.63713425 0.56430227 0.6373692 0.75893337 0.3439563 0.47607952 0.45559773 0.4076165 0.38041568 0.61318386 0.36132032 0.35626835 0.32413462 0.32874796 0.26438144 0.5061117 0.37686342 0.4199985 0.425645 0.34589958 0.6621034 0.6335176 0.5663762 0.32824194 0.2726212 0.6241523 0.66784835 0.6020851 0.46810538 0.25878733 0.22042614 0.1604533 0.59681416 0.28210407 0.16583358 0.10715352 0.52196944 0.2945903 -0.4838587 -0.11397511 0.46515787 0.48845568 0.08226931 0.15734065 0.36070383 0.5110368 0.42490822 0.39361614 0.39490974 0.39309794 0.17663704 0.35830134 0.33453012 0.34100765 0.033698734 0.11592509 0.36919355 0.26069784 0.12853375 0.2427849 0.23431398 0.10924645 0.119829506 0.18470168 -0.2326557 0.04151196 0.19953088 0.15039831 -0.4886233 0.022467606 -0.13553019 -0.028008316 -0.21086895 0.19824432 -0.091747 -0.3090612 -0.205928 0.22439294 0.2067147 0.010267869 0.27205083 0.13122272 0.052372694 0.18108024 0.17262633 0.20733361 0.28774056 0.37299976 0.352409 0.3261115 0.30951977 0.3709535 0.35835272 -0.074347824 0.097861886 0.20909925 0.23318939 -0.26659903 0.18307123 0.31453532 0.0863753 0.34857747 0.48418212 0.42273846 0.40221643 0.6101697 0.3053944 0.37897035 0.41218576 0.64140373 0.6242081 -0.10280609 0.26960278 0.56917804 0.4764779 0.3756669 0.1694495 0.035349395 -0.043067824 0.4052949 0.20733279 0.048862655 -0.086370155 -0.107517816 -0.12666449 -0.24764262 -0.668419 -0.0575222 -0.046522208 0.058405653 0.34033063 0.13066593 0.13581058 0.4834614 0.14089257 0.43678194 0.38436544 0.32243806 0.34847263 0.29558247 0.2577157 0.40777028 0.43279403 0.43977523 0.43414664 0.5010725 0.48879752 0.762259 0.7773297 0.78394735 0.48879263 0.5549994 0.57589924 0.52170384 0.5429508 0.61993235 0.6824411 0.6741545 0.31402227 0.42342684 0.4567704 0.33115587 0.52166003 0.6269474 0.6535263 0.3518582 0.3212008 0.29862618 0.36388305 0.5015986 0.46654618 0.38264143 0.04011333 0.09536274 0.40513167 0.395644 0.33763626 0.6256407 0.65014803 0.6207309 0.5247725 0.2712062 0.5857252 0.41001353 0.16151905 0.025302002 0.15342441 0.15314364 0.4002129 0.48114365 0.058635794 0.119624354 0.16431019 0.19614193 0.4206484 0.47725213 -0.5211547 0.18488686 0.32652292 0.09954769 0.3328216 0.121413045 0.14854175 0.13063873 0.28186902 0.082360044 0.003170818 0.3185786 0.26605392 0.20046088 0.043790672 -0.050172687 0.14348046 0.2007294 -0.070330486 -0.2353484 -0.36467203 -0.4096946 -0.40396518 0.08227956 -0.5667747 -0.29417098 -0.034879997 -0.35213435 -0.5044823 -0.38676935 -0.23577935 -0.24695162 0.12405478 -0.33139107 -0.15447482 -0.027499743 0.043025676 0.18684301 0.15703468 0.073941484 0.12974185 0.26432386 0.24959968 0.14146736 0.12415542 0.21653055 0.32335398 0.4495751 0.4887643 0.51144576 0.35527474 0.43973225 0.49671286 0.3347081 0.39759502 0.3005095 0.2827879 0.24246266 0.18524316 0.3113643 0.52288896 0.3186221 0.40869683 0.60436356 -0.26416394 -0.022409663 0.22112066 0.35107774 0.40205097 0.6221006 -0.12590367 0.5920845 0.55605793 0.4782703 0.401945 0.35278508 0.20107166 -0.0016070902 -0.03323167 -0.062199965 0.28342023 0.47405615 0.2452845 0.12717962 0.4451291 0.39351207 0.33157 0.17136161 0.15239605 0.4555065 0.42570323 0.36431462 0.17040431 0.1582458 0.23492423 0.27467474 0.21986601 0.13734117 0.29165667 0.39049816 0.3254628 0.29729998 0.45456308 0.55324364 0.5906079 0.34780514 0.3806525 0.36331785 0.5298344 0.54245347 0.5564868 0.57788867 0.31037727 0.26174903 0.17325471 0.54671276 0.36207747 0.3111511 0.51783097 0.48970944 0.3871505 0.38816878 0.5349527 0.58584106 0.6060888 0.48966402 0.33546853 0.25985354 0.45533234 -0.099809274 -0.34770194 0.26897848 -0.006890245 0.02422308 0.12520567 0.34808117 -0.36597013 0.12156219 0.11722794 0.14954358 0.16888145 0.24558882 0.19496657 0.17946626 0.09085876 0.08680402 -0.1726121 0.09884161 0.16924797 -0.045857053 0.16340373 0.14917803 0.06757534 -0.25713524 0.16933231 -0.008722629 -0.5111996 0.20920113 0.41926378 0.04132858 -0.55863476 -0.5332952 -0.16253728 0.09297265 -0.33934897 -0.08120186 0.12201694 0.26625708 0.10573664 0.2933249 0.24819954 0.12735331 0.1858033 0.31133944 0.29350626 0.38714778 0.48599494 0.51880133 0.31018814 0.29530102 0.27215055 0.5365528 0.18844846 0.5573901 0.28014952 0.24645025 0.49639386 0.24774572 0.22073333 0.1503215 0.349352 0.028846601 0.12508057 0.54816616 -0.23003039 -0.155596 0.5243057 -0.14063604 0.5157942 0.37706828 0.0075098425 0.33587384 0.259154 0.035678804 0.35011145 -0.040534206 0.08783755 0.5083113 0.049810775 0.55085385 0.5004382 0.04991983 0.12887901 0.16807762 0.5613041 0.50498545 0.44393057 0.40108195 0.4271341 0.3647092 0.27829802 0.2203483 0.2073758 0.07833784 0.041911155 0.06443991 0.10961977 0.1469979 0.23978478 0.28346813 0.27120304 0.2794554 0.09782882 0.20052516 0.19328567 0.1886711 0.061373957 0.52252495 0.54396904 0.3143914 0.2796206 0.32925388 0.40787876 0.48476297 0.51422316 0.5339855 0.25060594 0.31493232 0.18760611 0.15576144 -0.11304188 -0.035898425 0.023143582 0.40247944 0.011939224 0.07532657 0.38232273 0.10161474 0.32273275 0.14653131 0.2482847 0.15581693 0.1402698 0.08685686 -0.5540305 -0.10672375 -0.27503204 -0.13479434 0.44572753 0.653417 0.05789465 -0.35161895 -0.2579922 0.47475922 0.5865513 0.6336102 0.14389345 -0.62798846 -0.24219805 0.4514388 0.563872