# vtk DataFile Version 2.0
Really cool data
ASCII
DATASET POLYDATA
POINTS 9739 float
-4.7311025 25.143318 8.5264635
-4.7097716 25.190763 9.090407
-4.7574286 25.739964 7.940902
-4.9578753 25.641531 8.546699
-4.821405 25.540134 9.270056
-4.620418 25.83731 9.911121
-4.8675485 26.209702 8.074711
-4.9752584 26.334797 8.563603
-4.9466314 26.45296 9.327589
-4.6542783 26.674995 10.25411
-4.7720256 27.14117 8.892988
-4.7232366 27.376873 9.531891
-4.6478004 27.414623 10.202547
-3.5653274 5.7557983 4.7441463
-3.6005116 5.7909865 5.5794263
-3.5424476 5.855036 6.100732
-3.568458 6.1641665 4.7749677
-3.5660098 6.5173373 5.2335367
-3.560035 6.4709196 6.0824566
-3.899308 24.367537 8.621166
-4.3078895 24.99243 7.9227705
-4.1231604 24.60346 8.396265
-4.347813 24.9399 9.350135
-4.0300994 25.135706 10.069562
-4.0471087 25.558748 7.4128537
-4.3948946 25.53959 7.5865283
-4.4989924 25.362398 9.639813
-4.2559943 25.681616 10.2866745
-3.8605804 25.586548 10.722929
-4.217677 26.163654 7.416354
-4.3492827 26.311075 7.6142697
-4.5027685 26.468884 10.485238
-4.1035233 26.725777 10.981253
-4.589617 26.916592 8.06172
-4.2487855 27.328728 8.481064
-4.551515 27.665895 9.342985
-4.453282 27.307701 10.672356
-4.1398363 27.453182 10.952294
-4.080819 28.043333 9.105071
-4.2029295 28.157347 9.623283
-4.20665 28.141539 10.347379
-3.9777315 28.017992 10.813336
-3.6330106 32.03259 5.8370724
-3.6630166 31.533117 6.060236
-3.544765 31.506573 6.8737464
-3.6773083 32.490173 5.822669
-3.719589 32.678555 6.545344
-3.6763256 32.298203 6.8754897
-3.6415966 33.06265 5.8883333
-3.6493971 33.18496 6.4624715
-3.634031 33.07464 6.8961115
-2.7179558 -16.25594 6.970467
-2.7298315 -16.423998 7.514578
-2.7096279 -16.2641 8.079646
-2.6359143 -15.434774 6.7411184
-2.7615683 -15.626929 7.575346
-2.6931484 -15.57405 8.169348
-2.6372492 -14.984342 6.81839
-2.63639 -14.7079935 7.269698
-2.7458582 -12.101401 7.9384174
-2.7938216 -12.148486 8.446617
-2.67551 -12.138353 9.19511
-2.6570055 -11.496616 7.8807397
-2.8761084 -11.368012 8.632495
-2.7942321 -11.526441 9.42352
-2.7345414 -10.973468 9.967666
-2.7336645 -10.640856 8.498171
-2.7857945 -10.392303 9.515626
-2.6745238 -10.447487 10.369498
-2.6325228 -10.073671 10.786106
-2.7096794 -10.078104 9.087161
-2.6921642 -9.648814 9.500342
-2.681887 -9.633653 10.411338
-2.618813 -9.118331 10.311956
-2.586597 -3.2054424 5.9147477
-2.601582 -3.3799324 6.345567
-2.6330755 -2.4823961 5.7388906
-2.707643 -2.6031575 6.524219
-2.6389961 -2.2655272 7.011264
-2.6346097 -1.7995301 5.8766694
-2.6176822 -1.1296643 6.371193
-2.5980113 -1.1620872 7.1387854
-2.6071246 -0.8516802 6.7318974
-2.8028467 4.0712423 3.5566933
-2.9098604 3.9215035 4.444196
-2.9639664 3.9931824 5.3270545
-2.7705624 4.513093 3.2320945
-3.0287817 4.4529715 3.6440415
-3.326492 4.7499022 4.3638783
-3.226945 4.7510095 5.430405
-2.5732899 4.3289165 6.8361435
-2.8788815 5.1023993 3.2642097
-3.1519783 5.3856487 3.7051265
-3.458909 5.3358803 4.594283
-3.427868 5.36014 5.347239
-3.1307375 5.9160275 7.3067713
-2.8862898 6.1194954 8.48586
-2.7616708 5.8819623 9.477733
-2.5757213 6.03262 10.015098
-3.0714443 6.512795 3.9165697
-3.422018 6.4493065 4.4547043
-3.4852061 6.8144903 5.3966413
-3.4355016 6.528414 6.62749
-3.1017423 6.6038713 7.41778
-3.2475064 6.854077 8.918259
-3.0421994 6.5778136 9.244725
-2.7849424 6.760493 10.071711
-2.88381 7.258496 4.106801
-3.181516 7.2965713 4.5464153
-3.330651 7.301368 5.2559776
-3.1875846 7.515927 6.4714518
-3.2928734 7.2487035 7.6037316
-3.3802898 7.445789 8.657089
-3.2500906 7.4757695 9.263649
-2.9150465 7.555163 9.867635
-2.7434695 7.845981 4.7107954
-3.1407151 7.888928 6.157865
-3.209661 8.24115 7.7189493
-3.2240138 8.30746 8.617363
-3.0612755 8.171637 9.307059
-2.911722 7.893782 9.883829
-2.83801 8.774703 6.044499
-2.8039944 8.969699 6.5192914
-2.9229457 8.995226 7.64998
-2.875555 8.981318 8.351258
-2.7189004 8.767292 9.414111
-2.5480258 17.937008 1.0208368
-2.5501108 17.559994 1.490257
-2.5565195 18.00204 2.0261102
-2.5698636 18.141973 1.0179834
-2.6175442 18.555027 1.847209
-2.5540051 18.493256 2.2033877
-2.5308945 19.686527 1.6776774
-2.5274675 19.232906 2.1229117
-2.7451203 19.80511 6.97728
-2.6412926 19.754004 7.6217327
-2.6371336 20.833967 6.1624427
-2.9170618 20.667835 6.879773
-2.9396303 20.621672 7.4381347
-2.6815636 20.497927 8.09971
-2.7514114 21.142397 6.623987
-2.7084215 21.480646 7.7957435
-2.6754608 21.0668 8.062031
-3.7177894 24.451008 8.205727
-3.4687216 24.42777 9.544035
-3.3722804 24.954697 10.363634
-3.1033766 25.139591 11.0657
-3.158206 25.733921 11.358706
-3.4898608 26.205118 7.363966
-3.528202 26.66695 11.402354
-3.0095434 26.45491 11.608081
-2.6402242 27.840979 5.4709296
-3.450224 27.35748 11.38742
-2.620871 28.559086 4.6597033
-3.2473717 27.920958 8.400571
-2.9820921 28.508665 9.381163
-3.6215131 28.416327 10.491049
-3.5505514 28.128225 10.930392
-2.8269153 29.691202 4.5042677
-2.7969363 29.323603 5.3379717
-2.799252 30.218449 7.2722883
-3.4398086 28.56545 9.796979
-3.318666 28.589695 10.186389
-2.6187024 30.800507 3.2522328
-3.0678725 30.581783 4.7160306
-3.2783833 30.734468 6.126908
-3.1516433 30.976992 7.3523407
-2.5809827 31.638323 2.8281145
-2.7513518 31.454397 3.577508
-3.3100023 31.364159 4.895175
-3.4893613 31.616991 5.6927643
-3.4980266 31.29304 6.423297
-3.2428753 31.647648 7.399664
-2.918364 31.623566 7.7939024
-2.649135 31.94821 2.9130654
-2.5890472 32.003708 3.161871
-3.228664 32.400444 4.8613677
-3.4841099 32.54421 5.2768993
-3.4240437 32.614155 7.2648635
-2.8980346 32.76442 7.730848
-3.0152323 33.191242 5.094823
-3.386089 33.21138 5.616462
-3.487384 33.47174 6.406951
-3.2814007 33.344048 7.1257157
-2.9444935 33.14929 7.6385674
-3.0543587 33.771187 5.962336
-3.0887518 33.802574 6.433291
-2.9923263 33.77646 6.9504447
-1.9355866 -20.936659 4.6206784
-2.0475357 -21.122486 5.436711
-2.0000284 -21.282627 6.6026955
-1.9268328 -21.168726 7.364345
-1.8113248 -21.072224 7.7866254
-1.853811 -20.429148 4.179943
-2.258833 -20.378855 4.7303357
-2.3804386 -20.337292 5.5075555
-2.3105054 -20.582453 6.4122195
-2.1689045 -20.57514 7.3955
-1.8073118 -20.55701 7.9976325
-1.9834743 -19.895733 4.2424693
-2.2303255 -19.729654 4.6968603
-2.354828 -19.610857 5.328929
-2.1504297 -19.722435 6.3260407
-2.1327024 -19.934893 7.430295
-1.7946018 -19.035566 4.486669
-2.143176 -19.189678 5.232586
-1.9274652 -18.560234 6.130081
-1.8701 -17.046139 5.162021
-2.1278665 -17.035755 5.3933916
-2.2898722 -17.061476 6.469494
-2.5140283 -17.016167 7.441111
-2.211978 -17.109577 8.294043
-1.8938859 -16.177437 4.7886114
-2.4092176 -16.422245 5.7416162
-2.5250974 -16.454279 6.3301945
-2.4212966 -16.778723 8.333844
-2.3330917 -16.233164 8.880699
-1.9539673 -15.306835 4.9041057
-2.437387 -15.68332 5.7821693
-2.544584 -15.816996 8.497467
-2.1699648 -15.573299 9.021388
-1.819162 -14.627741 5.107897
-1.7450022 -14.230746 5.253953
-2.3540578 -14.280729 8.252507
-1.8525732 -14.538265 8.87886
-1.7166207 -13.478635 4.9495144
-1.7769759 -13.274251 5.2745504
-2.3141208 -13.613226 7.540656
-2.3675551 -13.684228 8.038091
-2.1217365 -12.838221 9.119039
-1.9596373 -12.290485 5.700996
-2.1120267 -12.02498 6.4099736
-2.3830779 -12.581849 7.950635
-2.546492 -12.482494 8.875708
-2.2404788 -12.101222 9.89763
-1.803062 -11.601974 5.5445666
-2.2164605 -11.7694435 6.4742146
-2.4559948 -11.727597 7.5747175
-2.2788002 -11.350147 10.501273
-1.9634806 -11.136359 11.11183
-1.9077914 -10.858691 5.7129226
-2.2109463 -10.395906 6.865123
-2.3792608 -10.875649 7.2556095
-2.4891365 -10.682799 10.7052355
-2.247127 -10.3790865 11.120774
-1.7764987 -10.156418 11.636873
-1.6816617 -9.720728 5.8241634
-1.7761412 -9.461741 6.5769444
-2.3161013 -10.010983 7.930682
-2.5211658 -9.319169 10.676617
-2.1916478 -9.701111 11.219786
-1.7565391 -9.813205 11.592324
-1.5617027 -9.105608 5.659782
-2.0539286 -8.509714 8.715848
-2.478524 -8.690705 9.907588
-2.4086857 -8.8420725 10.416482
-2.009185 -8.940335 11.138657
-1.6968882 -7.3140454 8.723314
-2.0113351 -7.539605 9.565659
-1.6810647 -7.1907716 10.396032
-1.6107236 -6.916363 8.779561
-1.7663926 -7.0141253 9.2151575
-1.5913615 -4.9411345 5.9276977
-1.6506407 -5.0639086 6.5619082
-1.8947854 -3.8967056 5.004898
-2.023026 -4.2113576 5.7561865
-1.8987699 -4.4568768 6.3546395
-2.3797154 -3.8366747 7.0060663
-1.7867497 -2.9566104 4.398519
-2.0843122 -3.1952724 4.797727
-2.4506683 -3.4122934 5.5888414
-2.3321917 -3.3379297 7.331243
-2.2417595 -2.990487 7.8331466
-1.7939992 -2.8043702 4.4148006
-2.1508124 -2.5905902 4.778446
-2.4691777 -2.5085964 7.3662133
-2.2430475 -2.2788866 7.918336
-1.6617745 -2.1774633 9.122259
-1.9977617 -1.8944103 4.7331457
-2.4607768 -1.7804134 5.55034
-2.400894 -1.9586573 7.4563355
-2.1770902 -1.1386299 8.464904
-1.7854276 -1.2976992 9.055629
-1.7888457 -0.84864044 4.927076
-2.3962185 -0.8520084 5.7186017
-2.3591168 -0.6980487 7.3740997
-2.1017258 -0.80274504 8.61434
-1.7437176 -0.14178227 5.137823
-2.0339189 0.036910176 5.7463503
-2.2050796 0.17182823 6.743557
-2.4353502 0.08499986 7.2343473
-2.1932604 0.56427306 8.161256
-1.6658394 0.9676199 6.072845
-1.9354031 1.1473861 6.229447
-2.1318076 1.0821036 7.142172
-1.8653549 1.6747572 8.61743
-2.1147943 3.3270693 3.7343802
-2.2866733 3.2394695 5.2035856
-2.0944562 3.0752597 7.9617558
-2.156494 2.9457211 8.561023
-1.7869904 3.1425462 9.418405
-2.2734199 4.1410685 3.077473
-2.4125416 3.738678 3.5647442
-2.4734771 3.4141674 4.7895846
-1.9929994 3.2742813 7.7487717
-2.3545425 3.723662 8.150286
-1.9765297 3.6170537 9.786514
-1.7386098 3.69718 10.129932
-2.3892324 4.569067 3.0038438
-2.3671932 4.654228 7.415169
-2.3355608 4.621695 8.615008
-2.3631988 4.8965664 9.426497
-2.2841108 4.900603 10.251563
-1.7377651 4.4528894 10.9641
-2.349805 5.4238176 3.0093663
-2.3460145 5.391828 8.7369375
-2.524322 5.465669 9.725508
-2.377747 5.539566 10.592162
-1.9825852 5.231585 11.298483
-1.7608752 5.8738775 11.850707
-2.2911375 6.1114564 3.134509
-2.2520044 6.52935 3.4450817
-2.478075 6.430245 10.598811
-2.056613 6.4833264 11.30822
-1.628795 6.3950725 12.192679
-2.4942048 7.2564254 3.8511803
[...]
POINT_DATA 9739
SCALARS features_00 float 1
LOOKUP_TABLE default
0.7613921 0.7175448 0.76425016 0.7897935 0.7302816 0.6804292 0.78058714 0.8107564 0.7999027 0.7574028 0.80182385 0.82572913 0.83401734 0.51158905 0.41313937 0.35019583 0.5014704 0.45444193 0.37622315 0.66212523 0.7345783 0.7155535 0.6475885 0.5717598 0.6248702 0.70274734 0.6562054 0.6129811 0.57173073 0.6413907 0.6819656 0.7044919 0.69285965 0.7448654 0.72531766 0.8064717 0.8048996 0.79263985 0.7454735 0.78087026 0.8044016 0.80207586 0.5878973 0.5554 0.5900562 0.63627344 0.695634 0.6739105 0.69744843 0.7286525 0.73145646 0.38581347 0.40177456 0.39793935 0.36362895 0.37369964 0.36420894 0.3376028 0.30465657 0.2445582 0.27054027 0.32714078 0.28891766 0.34829068 0.3898492 0.43751335 0.36116734 0.42970932 0.4619904 0.4722913 0.40667337 0.42411202 0.46309048 0.45368397 0.5404352 0.49633738 0.5667151 0.48132312 0.4308682 0.5377637 0.46394327 0.3911461 0.42458344 0.5971279 0.57052034 0.48449755 0.6087218 0.6136727 0.57823324 0.4430294 0.14971127 0.62407196 0.62558043 0.5413319 0.44134742 0.21330321 0.214093 0.22874518 0.2445156 0.5813292 0.5334184 0.44029093 0.3257549 0.26702273 0.30421773 0.28238934 0.28021103 0.5110841 0.49772686 0.45278051 0.35582465 0.31944025 0.35230103 0.3470135 0.3256172 0.4350597 0.3752686 0.3574111 0.36810222 0.35801643 0.3323715 0.3140515 0.27467737 0.30917692 0.32443377 0.32356572 0.4734373 0.447582 0.39849123 0.4737718 0.4239621 0.38469458 0.4496771 0.4017648 0.39973825 0.39376658 0.4115801 0.49447122 0.49022955 0.42464173 0.49126947 0.4869258 0.44280958 0.6731142 0.53093195 0.5020927 0.5039764 0.54741335 0.43572128 0.6423374 0.58876073 0.26483017 0.7285955 0.2108636 0.5857887 0.60536623 0.7385669 0.76073265 0.18398203 0.24985749 0.41615647 0.69312096 0.6861012 0.27728873 0.2403323 0.44127363 0.5165217 0.34095505 0.27398115 0.34664935 0.5175761 0.54510707 0.60702187 0.59123135 0.34609234 0.32652792 0.46214008 0.56939685 0.7077073 0.6962601 0.6138692 0.69208795 0.74208546 0.7395698 0.71101785 0.7354357 0.74563795 0.73698366 0.6581987 0.6730331 0.6668091 0.6096014 0.5981337 0.6608486 0.667596 0.66712296 0.6815829 0.62251925 0.5875478 0.64549637 0.619176 0.57072645 0.5734619 0.6026588 0.4831503 0.49126738 0.28914395 0.23601837 0.24090955 0.30008835 0.38889357 0.35288036 0.28704196 0.3096191 0.34268007 0.38378924 0.36131328 0.27082756 0.33185983 0.36743003 0.32427108 0.2378371 0.21039222 0.21795769 0.223154 0.15409072 0.15042526 0.14697826 0.14820643 0.19238546 0.17671947 0.20796032 0.19517955 0.25651515 0.3569872 0.20248522 0.22079591 0.25729662 0.4420927 0.46621218 0.2348423 0.23499188 0.2637924 0.4691525 0.47542888 0.46759695 0.24776843 0.1892934 0.27904552 0.46486586 0.4697324 0.4616714 0.2499311 0.28469908 0.42556158 0.45017058 0.4455234 0.23454128 0.33815104 0.36264428 0.2336053 0.27731648 0.37780914 0.30947146 0.52156603 0.48075914 0.42012045 0.4319929 0.5617043 0.5642069 0.55112225 0.40893084 0.33708 0.56838185 0.593889 0.3984097 0.32601035 0.22546908 0.6083921 0.58188784 0.37481728 0.27566832 0.2170916 0.56078684 0.51954967 0.3582988 0.25151724 0.4884484 0.43363336 0.3916712 0.36307842 0.2464481 0.31147432 0.30293 0.31640112 0.034799784 0.53654134 0.45030737 0.056597274 0.047114953 0.04494434 0.56704617 0.57044387 0.5298575 0.057894897 0.06241177 0.092291765 0.10102294 0.5780529 0.085686915 0.09918328 0.15347753 0.18992522 0.19403443 0.57702273 0.15041079 0.20453742 0.22718377 0.22482659 0.22375391 0.5689893 0.54737043 0.24703321 0.22357765 0.23643795 0.48815244 0.2691796 0.21567093 0.25212023 0.40104908 0.3438766 0.29297662 0.26639068 0.31887436 0.21817976 0.2825407 0.27503464 0.19147259 0.22972816 0.2329045 0.22907516 0.21699534 0.35595232 0.35796887 0.31688395 0.21834083 0.19661042 0.18314376 0.3658345 0.33343807 0.30247888 0.2333296 0.19862953 0.29979414 0.22807392 0.22133295 0.5999214 0.6161072 0.5526852 0.19350287 0.5569008 0.55799055 0.46342435 0.14557606 0.2074334 0.26118952 0.24702471 0.5125381 0.51314783 0.43155986 0.43310946 0.18518439 0.104920864 0.22321363 0.22936438 0.23079593 0.48254663 0.48745683 0.47231728 0.32693642 0.22390622 -0.048266344 0.13533315 0.15999225 0.1588881 0.4889693 0.49095994 0.35098323 0.21084282 0.15178655 0.2702593 0.23036247 0.49537605 0.49174315 0.4712963 0.38514957 0.24212527 0.045109246 0.13151339 0.32087594 0.35108575 0.27084148 0.47045517 0.49466273 0.53255725 0.46842468 0.44286823 0.39712518 0.0974943 0.31905618 0.36597016 0.31599176 0.50007653 0.5336876 0.5481188 0.57227015 0.42372254 0.37797153 0.2743151 0.38962162 0.27323377 0.5184672 0.5399501 0.5526028 0.57111394 0.19725603 0.06671699 0.26857728 0.43168414 0.43744892 0.40977472 0.5048174 0.5107712 0.5174026 0.36019456 0.489521 0.022320634 0.42387295 0.4300294 0.18486714 0.06207455 0.5191139 0.17300273 0.12891592 0.55755466 0.18596366 0.21986568 0.23513204 0.6183205 0.15824454 0.18633671 0.26913923 0.28578156 0.6374292 0.21172354 0.3961981 0.17644814 0.5864126 0.6126009 0.3033554 0.2508788 0.4259953 0.3811231 0.5814992 0.52518237 0.50235486 0.3901888 0.6459534 0.54563046 0.5482179 0.5397803 0.6962451 0.6619915 0.7120868 0.7156713 0.69808316 0.5877994 0.53033423 0.6005699 0.57794833 0.62468255 0.61656475 0.6243018 0.5878545 0.56879246 0.6357675 0.55076236 0.60414994 0.53205895 0.26585406 0.43730688 0.50230926 0.23265341 0.27238414 0.37379953 0.47935373 0.5336475 0.5525396 0.2141507 0.25651664 0.42583567 0.49996078 0.54390603 0.17288631 0.1807185 0.24058664 0.40837085 0.12614888 0.1383961 0.11922893 0.13342127 0.19823942 0.45192772 0.3007781 0.4614804 0.31773826 0.32342976 0.28463632 0.4329325 0.30640283 0.2472611 0.16509724 0.4180883 0.18630598 0.037969545 0.35932663 0.115192115 0.09160467 0.17415842 0.33251843 0.29370296 0.25739974 0.3003543 0.09017639 0.25239804 0.29079616 0.4536522 0.19330765 0.51468784 0.5328833 0.5502362 0.15501176 0.10415861 0.5664026 0.10542184 0.44191352 0.54647577 0.13152793 0.115538836 -0.02996274 0.40082997 0.46553364 0.4957611 0.46045172 0.43057287 0.042483367 -0.022330806 -0.04634858 0.41182882 0.50463074 0.54010534 0.116168246 -0.013522118 -0.06552305 0.025598764 0.4668762 0.5442529 0.5653314 0.55310106 0.4523364 -0.011918366 -0.098617636 0.47741854 0.520422 0.5488205 0.47287703 0.48305553 0.48869127 0.5080957 0.43754196 0.48267657 0.1807343 0.22063445 0.4385684 0.495524 0.22736666 0.27053776 0.4672616 0.24303107 0.2981173 0.36152655 0.29887986 0.37862855 0.23631671 0.23999497 0.31677186 0.39276195 0.13264617 0.13444808 0.29044163 0.2860955 0.15180284 0.33120602 0.17044038 0.1601649 0.3753506 0.15322345 0.64736295 0.6707591 0.6553143 0.3175229 0.2876336 0.1960032 0.08293863 0.58164644 0.6000058 0.037260696 0.12903401 0.23200926 0.15555072 0.5326855 0.56548876 -0.0055583045 0.104286045 0.19645211 0.49625754 -0.005319737 0.46361217 0.032897692 0.11605042 0.12943083 0.160045 0.4788251 -0.016877495 0.22056106 0.21591802 0.36117938 0.43784302 0.45866713 0.45768145 0.2419081 0.2047887 0.33590293 0.3614642 0.476377 0.51188517 0.54730606 0.56762624 0.4267169 0.2548578 0.21057898 0.16495235 0.3238412 0.44262838 0.54973876 0.57705986 0.5926313 0.38194823 0.2860729 0.17975597 0.21941343 0.20287554 0.46987873 0.5827627 0.5991312 0.16645621 0.2025912 0.23935536 0.47353962 0.48673078 0.4947574 0.5089659 0.5520903 0.5910217 0.09157708 0.13208176 0.15716603 0.11326398 0.09194574 0.13652639 0.45051026 0.4735332 0.47771412 0.46803197 0.4975118 -0.112094596 -0.2172699 0.40653017 0.4460823 0.14287153 0.20186132 0.2059731 0.5106907 0.18345217 0.41214377 0.23849179 0.1756692 0.13186492 0.30909556 0.34211138 0.31023434 0.34071425 0.39942014 0.48670563 0.46704835 0.5315423 0.5646045 0.55525094 0.5670225 0.5742517 0.5276414 0.61030424 0.58630276 0.5837252 0.5887629 0.59991276 0.54126513 0.61526513 0.63657963 0.6084881 0.48441842 0.43407947 0.46407166 0.5375367 0.560368 0.53493196 0.5457283 0.53793937 0.5254405 0.47281784 0.40964332 0.429193 0.15896219 0.38946825 0.3959223 0.4935964 0.5444283 0.5591975 0.16759497 0.5411159 0.16466755 0.40912968 0.45474797 0.11054572 0.112546064 0.21556512 0.3690433 0.3614787 0.026217028 0.13019639 0.1521683 0.29755807 0.19308713 0.23671927 0.2777466 0.16551018 0.25722805 0.10114291 0.25439885 0.20214976 0.24070597 0.2625785 0.23093945 0.20875183 0.4711939 0.030172398 0.48196036 0.07246171 0.37555218 0.45504087 0.06468968 0.24262094 0.42553106 0.43307406 0.43506837 0.42165935 -0.02450382 0.32562658 0.47601342 0.458108 0.36141014 0.51469845 0.48544633 0.2725609 0.04667688 0.508222 0.39699316 0.29524603 0.52174497 0.49421668 0.40324852 0.31829983 0.3141637 0.44662976 0.4711663 0.3979541 0.40248767 0.08463362 0.34460777 0.40122157 0.39310488 0.41100514 0.27781528 0.3801366 0.35531402 0.28405726 0.42744938 0.17791387 0.14096364 0.4030431 0.42426002 -0.03620264 0.11356956 0.2439633 0.34681618 0.3911437 0.0070508495 0.058770813 0.23919533 0.1423067 -0.0063618273 0.64688265 0.6429169 0.59731233 0.08296014 0.18044278 0.58015037 0.21692617 0.5179385 0.1526039 0.048596464 0.4286663 -0.06435429 0.37638283 0.029511388 -0.023392763 0.27276316 0.27455562 0.37670526 0.12586737 0.109735206 0.035839632 0.12471851 0.34996435 0.39598018 0.42238188 0.3003125 -0.067720026 0.22105296 0.5092029 0.5499924 0.11341036 0.5980905 0.60645807 0.20004897 0.067851566 0.038402148 0.27716243 0.6125094 0.61444396 0.17906594 0.06477827 -0.47696978 0.19798091 0.6001949 0.2829466 0.23140351 0.14299296 0.08111349 -0.22235008 -0.14822794 0.27362096 0.19187346 0.10198285 0.08904657 0.24004248 0.37344968 0.4139371 -0.0599777 0.47837305 0.07784892 0.40598044 0.4893328 0.5232432 0.051068284 0.13457927 0.25050554 0.32569644 0.08167595 0.15092239 0.27000803 0.27030066 0.26309577 -0.28961557 0.34868526 0.3246441 -0.16734631 0.38511604 0.50403506 0.510408 0.5586091 0.5678675 0.5762703 0.57562304 0.57362014 0.5905608 0.6064049 0.58487284 0.4448665 0.29495257 0.17967005 0.4991356 0.54862696 0.5782018 0.3233685 0.3606948 0.4461074 0.33311248 0.32517907 0.45591813 0.45933414 0.42623094 0.43688303 0.33011 0.23131503 0.17042333 0.4613738 0.5149976 0.025791615 0.05746325 0.5401263 0.07731014 0.12975629 0.50343853 0.085174315 0.13789374 0.43186182 0.4668506 0.09969944 0.32278275 0.39183176 0.2525339 0.24885777 0.05110281 0.096487775 0.29008818 0.12729117 0.1418313 0.208406 0.150821 0.06468713 0.117043525 0.13571844 0.18006223 0.21999623 0.3008314 0.16675584 0.2780771 0.38373303 -0.03130662 -0.17357907 0.10577777 0.22078684 0.33260316 0.3759873 0.38499793 0.38715434 0.38795203 0.40285683 0.085384995 0.42928967 0.23531535 0.14187446 0.4478559 0.42456388 0.36738622 0.2914346 0.44160998 0.43484393 0.38274986 0.3898495 0.4171373 0.41812223 0.37589765 0.32380944 0.35527757 0.3389933 0.098022684 0.14548096 0.29533976 0.17838386 0.3781883 0.3849591 0.3878513 0.35880286 -0.09725371 0.2859152 0.35559893 0.3547051 -0.053245686 -0.056205545 0.04266072 0.07574037 0.016263217 0.084919736 0.08503378 0.15232894 0.14472184 0.17845774 0.560229 0.43090513 0.190932 0.20745668 0.19345543 0.19443735 0.539718 0.05856006 0.2468219 0.22832067 0.20267367 0.46200013 0.020842405 0.17882231 0.2421644 0.19309212 0.38045585 -0.24470083 -0.19802578 0.14458427 0.15450892 0.06758559 -0.062939174 0.19184577 0.16444798 0.20225233 0.19033226 0.25776452 0.17996009 -0.11440569 0.16766669 0.36764225 0.45747262 0.13012168 0.5439004 0.1167596 0.5914626 0.29443544 0.23695423 0.6250361 0.33253166 0.31165642 0.24966756 0.48494875 0.37659964 0.3312667 -0.245469 -0.27750677 -0.00379402 0.25962242 0.40921158 0.50748986 0.5228574 0.5473366 0.45073116 0.29856607 0.2624181 0.19577757 0.19066946 0.08468068 -0.22638074 -0.22098401 0.016964298 0.3476859 0.43405104 0.5217706 0.52564335 0.34437793 0.18531641 -0.057022154 0.442573 0.50698495 0.5344887 0.53906167 0.4501173 0.24116676 0.15642719 0.16152078 0.050748385 0.23072071 0.2957597 0.42095995 0.49487382 0.52511895 0.5071584 0.3082631 0.22148196 0.42775398 0.4643789 0.48402137 0.3137528 -0.28077623 0.34208423 0.36078593 -0.11470977 0.42179644 0.5052272 0.5204724 0.5437845 0.568866 0.5819751 0.4975264 0.5476595 0.5926647 0.6028194 0.54066217 0.27899146 0.28405017 0.54128724 0.5507037 0.15386951 0.27363014 0.3564765 0.27138913 0.23705685 0.41615236 0.27388173 0.39225355 0.1280154 0.43908656 0.4409783 0.46093732 0.45519614 -0.046545938 0.40141988 0.37962663 0.32227576 0.16701284 0.33018786 0.32290703 0.2739793 0.34817106 0.6229119 0.2679912 0.19704458 0.4681673 0.64785033 0.69498074 0.6489411 0.6241577 0.111356765 0.4464531 0.6239837 0.67382544 0.6528185 0.6110236 0.04758545 0.4280126 0.60177445 0.6114924 0.5902312 0.48463988 -0.0066189095 0.54131556 -0.0153526515 -0.08405307 -0.09488404 -0.41404948 -0.08041574 -0.06481738 -0.025660876 0.019407189 -0.056230724 -0.013239577 -0.00062969327 -0.062445927 -0.0568952 0.061650313 0.17511097 -0.11459766 0.15098372 0.20797662 0.187116 0.26812315 0.29940635 0.30493447 0.31755003 0.3149597 0.35089532 0.31454393 0.32402608 0.3534688 0.12101501 0.40072635 0.1768975 0.13014352 0.43031716 0.4502198 0.36893693 0.36949018 0.39126092 0.43013564 0.34880647 0.32945797 0.3499043 0.40207213 0.31420687 0.19626144 0.23215261 0.34290951 0.24011768 0.2752266 0.41782957 0.24289499 0.31890306 0.20841914 0.12328471 -0.17348938 0.12464423 -0.14359899 0.13473022 -0.19557205 0.1840258 0.141199 0.5213375 0.43806785 -0.065178275 -0.19377342 0.18196216 0.15822206 0.4921263 0.50799483 0.1933867 0.19183855 0.18327504 0.41580132 0.1823665 0.17619911 0.15774626 0.1200565 0.22522055 0.08406962 0.1241862 0.0369417 0.20682383 0.0988705 0.30161202 -0.056067165 0.17507574 0.09230013 0.24531376 0.29782733 0.2425846 0.6501745 0.34613734 0.43353218 0.65989107 0.6599139 0.6355326 0.62616444 0.5400034 0.41387102 0.44468546 0.34233654 0.6382842 0.6212559 0.63194656 0.67602295 0.6131284 -0.17538294 -0.17752615 0.39537132 0.58394253 0.67088807 0.6400092 -0.3267427 -0.035681497 0.48309642 0.46420917 0.6356026 0.54867315 -0.2537856 0.14810812 0.456842 0.50386316 0.4474965 -0.039825767 0.002171345 0.13356169 0.23746589 0.30477813 0.34637251 0.39309508 0.42680922 0.3545492 0.32461923 0.024171434 0.1995155 0.3185253 0.35871392 0.004227206 0.042042978 0.4277016 0.45007646 0.4907782 0.52564347 -0.13070591 0.23784018 0.5024736 0.5123287 0.56482285 0.5539738 0.4783193 0.32219544 0.477598 0.42570165 0.45820323 0.4198243 0.27129525 0.0790669 0.0119010955 0.054693922 0.074230865 0.46774536 -0.048077747 0.50198 0.50348735 0.5094076 0.49377918 -0.0952705 0.47729796 0.481723 0.4848736 0.43963295 -0.08155197 0.49102706 0.4861407 0.50155586 0.36785656 0.48166364 0.54097474 0.5552734 0.393465 0.21640521 0.448306 0.5515383 0.30720365 0.40456983 0.55514747 0.19704619 0.20305994 0.54432726 0.5428175 0.4359409 0.24819782 0.049786367 0.48334247 0.50903434 0.49080282 0.38463104 0.18629499 0.072993495 0.054570414 0.5968951 0.6537442 -0.02122254 -0.15683581 0.45544147 0.5733693 0.65917313 -0.14564174 0.020648643 0.12294525 0.10888677 -0.01027593 0.37336236 -0.106800795 -0.08030672 0.28478706 0.06411696 -0.07689639 0.19527617 0.05881422 0.08364163 0.13479266 0.04158213 0.18910094 0.24295533 -0.01257731 -0.07985158 0.25258467 0.016097657 0.30808017 0.3080492 0.29676068 0.29026246 0.3139939 0.36235732 0.13867167 0.12554742 0.4464304 0.48548007 0.3288955 0.44685003 0.37031758 0.40360177 0.20715177 0.25994092 -0.05927757 0.17768763 0.18705663 0.38290173 0.34879446 0.17595439 0.17451927 0.47010934 0.16413926 0.622825 0.61589146 0.33822224 -0.017130956 0.59067464 0.4545256 0.0021993965 -0.02470585 0.58493924 0.554134 -0.05973922 -0.0017868951 -0.10341628 0.0846994 0.04409384 0.4993989 0.45650095 0.13342 0.46981147 0.1839502 0.25079817 0.4028217 0.22877672 0.2779637 0.17450634 0.2386359 0.119573444 0.114853755 0.29512644 0.058380492 0.27033317 0.23155245 0.04421445 0.18090323 0.07256969 0.107269354 0.015105996 0.30076408 0.51025593 0.5570518 0.25277758 -0.1281587 0.2963691 0.54635274 0.6497774 0.6218142 0.5915188 0.44747806 0.26248297 0.45910743 0.5791626 0.6171489 0.57731605 0.62624097 0.55708563 0.18748167 -0.0598581 0.44341147 0.5337891 0.58254313 0.596866 0.57289743 0.7007688 0.048289508 0.48648357 0.5388582 0.51585126 0.49033126 0.6906922 0.29025218 0.3636964 0.3609451 0.41305688 0.62372446 0.55469954 0.3233952 0.29140168 0.25352404 0.45818347 0.33271572 0.29379186 0.363259 0.3570139 0.29398015 -0.059196137 -0.07612343 0.017111242 0.1710618 0.27514005 0.24478708 0.2187132 0.36637634 0.3586019 0.3145843 0.013633795 0.013088021 0.3315993 0.015491381 0.07713826 0.38125402 0.44877642 0.4684394 0.4281362 0.05681087 0.09985322 0.19555543 0.16487262 0.315421 0.42198005 0.42588457 0.41027158 0.340598 0.47926322 0.47647202 0.4951275 0.46176484 0.35075584 0.22375873 0.5070114 0.5095748 0.4481436 0.14560692 0.50925756 0.32123524 0.06985681 0.25377867 0.31922412 0.3310408 0.44936287 0.4364172 0.40473336 -0.23073956 0.32201126 0.34644726 0.35165665 0.39229268 0.45652646 0.47202772 0.47380835 -0.20290436 0.18321154 0.3463031 0.3765806 0.43620017 0.4729961 0.49920052 0.5270368 0.44201216 0.43091637 0.3508462 0.3953253 0.43737757 0.5055979 0.5223063 0.5244364 0.41194025 0.3940181 0.3004728 0.44427222 0.47790807 0.4992804 0.5226145 0.43539995 0.45521295 0.46332988 -0.2212033 0.42587095 0.48436964 0.45715877 0.38880682 0.1618145 0.4892307 0.38608897 0.6388919 0.5906846 0.47895193 0.34596524 0.15562642 0.3841108 0.5900872 0.69470024 0.6814977 0.63272625 0.56846595 0.40723497 0.43412668 0.4031027 0.24610864 0.26967376 0.4651765 0.57944053 0.7036191 0.7690744 0.6764792 0.13621803 0.114471 0.010613099 -0.017719816 0.70434403 0.76658857 0.3603195 0.48694956 0.68481314 0.43161213 0.13366699 0.4741028 0.4655661 -0.011146098 0.38439736 0.032151558 0.298568 0.18125394 0.18833438 0.20522788 0.06999289 0.23566923 0.0039152913 0.25402224 0.17725256 0.092165686 0.29566348 0.2759482 0.14124952 0.09577079 0.29210353 0.28084815 0.13971709 0.0799682 0.25781903 0.21869084 0.15139174 0.35660118 0.37746942 0.10315216 0.44760767 0.008562442 -0.026284121 0.4834004 0.16975988 0.44089192 0.20412254 0.3377416 0.39428237 -0.011803065 0.26533684 0.26489943 0.18227193 0.19562954 0.41983896 0.3510129 0.15079111 0.16523507 0.5141154 0.4370712 0.12733743 0.63933134 0.5969277 -0.033076696 -0.0468701 0.5702165 0.57873195 -0.0238697 -0.063551605 0.5468202 0.48184446 -0.057679366 0.09799357 0.04042596 0.18227457 0.3648881 0.25168854 0.06965593 -0.23219283 0.3253619 0.3888079 0.4004598 0.19349116 0.059171326 0.30966887 0.27401313 0.30518997 0.29631 0.21533911 0.237267 0.39618194 0.34566155 0.1188788 0.3859715 0.38198364 0.020434316 0.32520875 -0.031332314 -0.024282906 0.26817855 0.34890592 0.37524855 0.27994937 -0.061816722 0.2615115 0.29062393 0.27595133 0.2502494 0.24230118 0.15639763 -0.17815891 0.20271704 0.27942318 0.30367768 0.29540157 0.13268313 0.16749094 0.44116378 0.4120666 0.39725253 0.0076717734 0.17690077 0.25700942 0.26001775 0.23035426 0.09003404 0.31891686 0.4372636 0.4592743 0.31538 0.11968273 0.061378088 0.23391478 0.4983576 0.62104106 0.5384763 -0.06667937 -0.045315497 0.42217872 0.69227934 -0.08653324 -0.025067367 0.6767206 0.10243946 0.07756913 0.14306572 0.21526264 0.2614645 0.3993158 0.38751978 0.60544527 0.5157424 0.12589313 0.22464785 0.27836233 0.18407351 0.15481286 0.29545993 0.30075425 0.32657492 0.4112522 0.08684604 0.2666172 0.36391062 0.38909888 0.37355584 0.30572936 0.3381928 0.21388744 0.105512604 0.14487405 0.10403653 0.2476353 0.30527222 0.31668615 0.39199257 0.40800357 0.38176316 0.15187095 0.0866579 0.24812129 0.27220446 0.25549582 0.22236541 -0.06822742 0.14767092 0.17035878 0.17229702 0.2856357 0.27462327 -0.1385684 -0.19944125 0.19326064 0.20258889 0.20032158 0.3546818 0.10785233 0.2739792 0.25040677 0.4072516 0.2954963 0.31832632 0.31499118 0.37890506 0.43801868 0.43138838 0.31155974 0.33112448 0.34050336 0.3093565 0.3907177 0.39066246 0.37535572 0.32189757 0.2648866 0.24047542 0.4721105 0.21022189 0.17111182 0.5038956 0.2372218 0.2394674 0.4901886 0.17119849 0.21508732 0.22652939 0.2466787 0.06840914 0.18859978 0.2505636 0.2785991 0.28794363 0.32928872 0.42535865 0.26948702 0.29639214 -0.16