# vtk DataFile Version 2.0
Really cool data
ASCII
DATASET POLYDATA
POINTS 9896 float
21.17047 15.124741 -12.213776
21.278809 14.741906 -11.296557
21.322659 14.857001 -10.688003
21.381233 15.087096 -10.217596
21.32687 15.998088 -13.965469
21.150358 15.725797 -13.361086
21.010002 15.678297 -12.471481
20.878199 15.789705 -11.509287
21.040674 15.8078785 -10.510076
21.265638 15.469063 -10.102475
21.122154 16.715118 -13.94246
20.937223 16.281519 -12.247878
20.836914 16.310839 -11.401888
20.961601 16.475122 -10.641709
21.286987 16.469824 -9.930123
21.377428 17.318842 -14.333996
21.35403 17.547781 -13.72634
21.147343 16.993382 -12.576966
21.155523 17.178688 -11.498055
21.083998 16.970078 -10.733317
21.307854 16.920929 -10.09379
22.00996 14.155743 -11.216989
22.031288 14.238603 -10.646952
22.096867 14.358787 -10.21499
22.205797 15.199553 -17.488605
21.623055 14.788476 -12.348141
21.56448 14.518602 -11.561828
21.582014 14.607374 -10.552167
21.944784 14.729204 -9.917792
22.111233 15.741055 -17.898855
21.95771 15.542436 -17.37355
21.618029 15.512814 -9.727865
22.218891 16.313732 -18.112785
21.538754 16.732803 -15.666103
21.511896 16.2211 -9.726953
22.108889 16.539688 -9.295451
22.331308 17.10221 -18.038925
22.334074 17.58161 -17.692
21.593838 17.375105 -16.407686
21.519283 17.139257 -15.871766
21.531433 17.416697 -10.313866
21.70166 17.121136 -9.829259
22.250988 16.947561 -9.371285
21.956198 18.465462 -16.584076
21.63503 18.265205 -14.465284
21.895145 18.429165 -13.773258
21.809881 17.760817 -10.548548
22.06617 19.109453 -16.344255
22.1152 19.392395 -15.773018
22.241785 19.131773 -14.260867
22.45793 14.334534 -12.023745
22.474236 14.073449 -11.353638
22.372179 14.134899 -10.580002
22.506561 14.346083 -10.069852
22.70482 15.184795 -18.064037
22.717453 14.86082 -17.401579
22.453878 14.986592 -14.1414
22.625208 14.5924835 -9.735535
22.950254 15.05112 -9.322763
22.89406 15.957226 -18.644907
22.636808 15.699112 -18.32986
22.67401 15.535869 -9.190638
22.955078 16.638872 -18.66328
22.428165 16.697151 -18.366396
22.697777 16.494068 -8.944788
22.73367 17.110405 -9.085059
22.97959 18.095425 -18.001358
22.924885 18.730125 -17.42117
22.779783 18.498522 -10.943653
22.808496 19.207458 -17.005938
22.632719 19.466394 -16.624681
22.915407 19.552986 -14.260722
22.74686 19.220406 -13.775383
22.835293 19.100176 -12.679067
22.717947 18.823832 -11.523148
23.122637 18.953823 -10.880319
22.819244 19.772867 -16.282038
22.709734 19.79672 -15.78267
23.073841 14.144988 -12.4038725
23.231136 14.119034 -11.771956
23.231403 14.208846 -10.408702
23.264706 14.304712 -10.125604
23.581532 14.895551 -18.124989
23.761536 14.677818 -17.569025
23.488613 14.6387415 -16.234842
23.370348 14.6599245 -14.423048
23.595224 14.673323 -9.655929
23.310432 15.11693 -9.283878
23.714483 15.600228 -18.69716
23.307499 15.4174385 -18.496178
23.39255 15.760732 -8.867708
23.400753 16.555065 -18.798119
23.480282 16.645504 -8.617427
23.645103 17.25495 -18.663998
23.499512 17.65626 -18.534056
23.533794 17.272194 -8.821432
23.404404 18.145 -18.114246
23.644592 18.598583 -9.883999
23.412397 17.962263 -9.303553
23.429901 19.343452 -17.072
24.00948 19.440727 -11.601014
23.816118 19.207626 -10.545622
23.497343 19.88369 -16.350258
23.623474 19.986094 -15.562111
23.33465 19.86611 -14.610358
23.807913 19.864302 -13.753069
23.726309 19.604755 -12.360636
23.83235 14.294004 -12.556561
24.041298 14.330993 -10.641869
24.22309 15.005578 -18.227055
24.416798 14.733605 -17.548147
24.488144 14.631627 -16.043306
24.03537 14.547993 -15.612283
24.284407 14.582523 -11.38712
24.014977 14.95218 -9.419549
24.25174 15.57094 -18.62245
24.429491 15.348942 -18.428865
23.988888 15.802308 -8.725312
24.24262 16.380924 -18.721674
24.671974 16.416203 -18.517008
24.164968 16.485172 -8.568528
24.15396 17.304468 -18.615505
24.364983 17.222946 -18.457653
24.151236 17.010595 -8.59524
24.091963 17.793253 -18.205647
24.279882 18.219109 -17.564993
24.706831 17.920021 -9.038316
24.334814 19.298887 -16.795649
24.288486 19.445446 -16.617767
24.321089 18.80025 -9.768488
23.989769 19.808578 -16.303083
24.168034 19.893885 -15.668586
24.291069 19.956964 -14.244599
24.821714 19.975899 -13.54423
24.594006 19.832611 -12.62935
24.754864 19.705992 -10.81435
24.90267 15.134242 -17.962093
25.018229 15.125343 -17.677382
25.127806 14.90112 -16.444439
25.009474 14.866384 -15.214985
25.287075 15.306812 -14.656653
24.976307 15.173765 -13.068197
25.129091 15.821161 -18.150879
25.122595 16.44911 -18.210625
24.949303 16.621193 -8.764165
24.782797 17.023495 -18.319532
25.115957 17.774635 -17.725092
24.888664 18.415503 -17.252468
25.652344 18.47711 -16.25414
25.303707 18.733599 -9.401219
24.711243 19.469862 -15.6415615
25.74501 19.140226 -9.417805
25.208647 19.824368 -13.907781
25.467577 19.809866 -12.607407
25.459112 19.769852 -11.913023
25.415829 19.827297 -10.709224
25.928766 19.773262 -9.726924
27.150969 13.131613 -10.943383
27.115404 13.896122 -11.211207
26.89651 13.467037 -10.085782
27.213594 13.426452 -9.48918
27.209183 13.731663 -9.157451
25.75223 15.242628 -16.544474
25.717415 15.250391 -15.529478
26.965776 14.6065645 -9.424461
27.18348 14.193921 -9.237769
25.88821 15.802051 -17.21959
26.364197 15.758329 -16.571545
26.277687 15.806848 -15.55433
25.71004 15.771881 -14.582476
26.651068 15.934334 -13.336277
27.00703 15.698858 -8.789457
25.917595 16.788515 -17.586622
26.165977 16.52605 -17.386978
26.35799 16.81857 -8.732714
26.003643 17.469357 -17.25457
26.501635 17.507462 -16.492258
26.515368 17.48279 -8.621184
26.364967 17.745892 -16.639133
26.909693 18.807804 -8.8156395
25.948223 19.056837 -13.926006
26.652704 19.531803 -12.523652
26.642456 19.589655 -9.186973
26.081078 19.863556 -12.218617
26.24155 20.196995 -10.253004
26.708315 20.106024 -9.624875
28.373383 1.9654219 8.572771
28.215113 2.7453086 7.9043903
28.09321 2.682412 8.507819
28.210875 2.7045708 9.289362
28.388353 3.319421 7.2880483
28.165419 3.3931248 7.7527432
28.017076 3.5265977 8.464664
28.163208 3.4749742 9.315121
28.343418 3.3724787 9.926139
28.42354 4.970183 -13.640654
28.318455 4.2223735 7.857645
28.156027 4.104709 8.40049
28.282564 3.9838865 9.425659
28.379139 3.9382174 9.802727
28.448551 5.7916446 -14.296765
28.377062 5.5897384 -13.624247
28.429045 5.5360518 -12.901706
28.175314 6.2290254 -10.663187
28.233873 6.1753893 -9.7192955
28.352589 6.6362877 -14.209529
28.105867 6.517769 -12.388792
28.24969 6.312727 -11.839499
27.96575 6.715914 -10.600262
27.98768 6.709274 -9.527853
28.213118 6.7679462 -8.997417
28.32669 7.6010556 -14.327586
28.071747 7.494581 -13.205514
27.972128 7.267651 -12.862869
27.813211 7.4242706 -11.511583
27.796793 7.194106 -10.465108
27.874683 7.3524857 -9.498636
28.190113 7.460177 -8.766726
28.335327 8.091803 -14.455913
28.35355 8.52205 -13.538045
27.992216 8.326148 -12.27959
27.797766 8.097252 -11.500503
27.751087 8.371783 -10.56633
27.926208 8.33465 -9.67882
28.211018 8.273254 -8.876162
28.34008 9.000536 -12.174593
28.196081 9.572938 -11.51783
27.930672 9.834692 -10.508419
28.018412 9.102899 -9.738161
28.314651 8.963913 -9.028297
28.163303 10.08677 -11.083541
28.12239 10.330227 -10.109945
28.12775 10.521692 -10.069716
28.18828 11.781977 -11.475428
27.634493 11.945183 -9.623811
28.150352 12.520677 -11.586751
27.470924 12.603148 -9.41102
27.862371 12.576343 -9.005752
27.748701 13.605386 -12.072603
27.484573 13.611897 -11.675175
27.590038 13.188756 -9.157579
27.672009 14.237523 -12.225333
28.0568 14.431698 -8.615961
26.69411 16.126488 -16.427526
27.059095 15.712268 -12.958596
28.063713 15.663615 -8.455907
26.605656 16.77815 -16.961447
26.772078 16.496176 -16.526762
27.799793 16.88397 -8.130933
26.693432 17.119164 -16.532154
26.732822 17.095589 -15.745156
27.810638 17.944372 -13.107233
27.320015 17.336393 -8.4091835
27.865557 18.32541 -8.5139265
27.680912 18.286497 -8.410093
27.655552 19.209446 -8.469671
27.734924 20.06313 -11.989826
27.794823 20.209064 -8.87231
27.950134 20.976273 -11.015969
27.545395 20.896296 -10.681506
27.664686 20.819082 -9.77071
28.071026 20.634504 -9.026908
29.4262 0.9206453 6.8085594
29.324743 0.82853425 7.3830605
28.868397 1.2706907 8.259596
29.140553 1.1777056 9.260598
29.168892 1.6155345 6.7432623
28.742722 1.7615268 7.8147035
28.580408 1.6942742 8.621512
28.63975 1.9350587 9.40044
28.910559 2.1737633 9.893187
29.253256 2.78125 6.1691613
28.983297 2.5587559 6.669008
28.477377 2.620153 7.338935
28.422405 2.553289 9.615442
28.713928 2.7093542 10.071026
29.26196 4.1716914 -14.8647375
29.112335 3.8885446 -14.3396635
29.067682 3.8617601 -13.656404
29.19133 3.973141 -12.912425
28.973019 3.4986794 6.6563735
28.655712 3.4220579 10.199198
28.937702 4.7303095 -14.888698
28.800533 4.576111 -14.496354
28.658884 4.4938316 -13.400421
28.71005 4.745173 -12.780296
29.237776 4.923814 -11.796044
28.945454 4.3061967 7.0847793
28.494608 4.3181505 7.614756
28.467823 4.533292 8.549045
28.49294 4.1441813 9.743258
28.82084 4.0752444 10.132666
28.762293 5.750321 -15.037409
28.85165 5.249508 -14.748316
28.694653 5.8789325 -10.584796
28.76018 5.8171988 -9.669588
28.791368 6.065248 -9.034704
29.142557 5.1687064 7.6435876
28.602661 4.7918744 8.276134
28.957632 5.0560923 9.16351
28.76889 6.777743 -15.334116
28.543879 6.0764604 -14.531711
28.694057 6.5395374 -8.640503
28.847383 6.8737893 -8.310486
29.167307 7.437778 -16.11364
28.69565 7.587361 -15.269465
28.487608 7.4899936 -8.447802
28.831167 7.509991 -8.185911
29.331976 8.354658 -16.05037
28.74556 8.540078 -15.058615
28.45614 8.715932 -14.407671
28.544344 8.230906 -8.476987
28.982447 8.400517 -8.21721
29.018549 9.072828 -15.063207
28.996836 9.313913 -14.594303
28.771212 9.527322 -13.144449
28.51829 9.503226 -12.509385
29.242455 9.654722 -14.076448
29.173273 9.692383 -13.415944
28.780289 10.349539 -12.486637
28.787813 10.393734 -8.953182
28.726974 11.596421 -11.753221
28.864908 12.047143 -8.701952
28.803778 13.117755 -12.159426
28.763351 12.258642 -8.6518135
28.49188 14.27381 -8.514588
28.536358 14.737198 -8.325425
28.724247 15.297357 -12.629166
28.783783 15.604295 -8.177709
[...]
POINT_DATA 9896
SCALARS features_00 float 1
LOOKUP_TABLE default
0.63295025 0.6756227 0.6894307 0.7089506 0.4255686 0.48740625 0.5712199 0.66102445 0.7093284 0.7241281 0.39079022 0.54313767 0.64141226 0.66660535 0.6709026 0.38991034 0.37710127 0.43778494 0.5680196 0.6341927 0.64572847 0.6301112 0.6379741 0.6446264 0.6947807 0.62550265 0.6583948 0.672699 0.66644937 0.70531607 0.66775334 0.7205126 0.7156638 0.4085656 0.6863295 0.6576892 0.7052094 0.66536546 0.56544685 0.47368205 0.5917593 0.6184551 0.61899275 0.621261 0.43911123 0.39161223 0.53976077 0.62100893 0.6157199 0.46532625 0.5892751 0.59537774 0.6160735 0.62772304 0.73980236 0.7220058 0.56875795 0.629564 0.631148 0.7665214 0.7459223 0.66876215 0.7586093 0.7332503 0.6394894 0.58399165 0.6462178 0.622902 0.37685063 0.627249 0.63336134 0.45830184 0.3931949 0.3064932 0.3060085 0.3473306 0.6334753 0.62278104 0.50022924 0.5266242 0.57641363 0.58908904 0.7773867 0.75327814 0.5735878 0.41491798 0.5878634 0.61928713 0.80328417 0.7846797 0.62131923 0.7696582 0.5706359 0.7077327 0.676865 0.5117304 0.6323811 0.39557028 0.47566724 0.61742795 0.2908296 0.34257126 0.62285054 0.5837281 0.5001326 0.36342847 0.2842337 0.42180455 0.52036846 0.78849983 0.73249173 0.5317678 0.4380935 0.45525777 0.5511621 0.7987032 0.7937216 0.5569515 0.7593074 0.727809 0.50307035 0.6765896 0.66583824 0.46475855 0.62214583 0.5694647 0.33518445 0.581982 0.5865886 0.3446151 0.6032387 0.5568643 0.403856 0.2985921 0.2588939 0.31949028 0.7594202 0.7408669 0.59583753 0.420636 0.33452895 0.10314171 0.740806 0.69610333 0.3369561 0.65634704 0.57835126 0.5396575 0.5058141 0.29665193 0.49089843 0.3228993 0.29950538 0.23540534 0.28676125 0.34279457 0.36614978 0.46239793 0.43599138 0.4329745 0.36500013 0.32271308 0.639436 0.4940514 0.2950411 0.30733684 0.7204642 0.6935953 0.57482487 0.29368144 -0.1829716 0.22226834 0.6608275 0.6813941 0.14762048 0.6063001 0.61000156 0.20318861 0.5925454 0.3709863 0.23560536 0.25478223 0.4376619 0.264103 0.40763393 0.48688114 0.5401403 0.57128584 0.640347 0.6735718 0.5194879 0.5865381 0.68120235 0.7054666 0.6866144 0.47203565 0.60079217 0.6711714 0.70424914 0.69366825 0.4142626 0.4022014 0.3680085 0.43466413 0.54366076 0.34627944 0.3044995 0.31111282 0.47319084 0.6002035 0.5989062 0.34108993 0.3102069 0.309709 0.36432737 0.50239235 0.59844947 0.57747495 0.34299192 0.28352335 0.29437032 0.35152027 0.4241413 0.5108643 0.5243179 0.259476 0.27757034 0.32342702 0.43563065 0.4600038 0.2647975 0.33278543 0.3245299 0.14785802 0.32018077 0.22851974 0.34787157 0.30858964 0.31113806 0.35047936 0.32254016 0.3193115 0.2542821 0.6901447 -0.11696742 0.21756503 0.6623302 0.67641807 0.20043835 0.64312327 0.62780154 0.22737809 0.20450762 0.35370225 0.3334393 0.4731928 0.46298146 0.5933026 0.73382175 0.7024033 0.68390775 0.6564302 0.22405282 0.2588017 0.3791668 0.42450786 0.31239703 0.42325744 0.48658013 0.56494266 0.59779537 0.32772413 0.39125016 0.48590684 0.6597744 0.6556289 0.55221057 0.5682678 0.56047606 0.50707173 0.41673124 0.66764426 0.51867867 0.5300621 0.51536644 0.44553822 0.2961 0.4849643 0.5628912 0.664486 0.6887224 0.66215754 0.43957502 0.48145747 0.3786553 0.44479796 0.50560737 0.5668508 0.63075495 0.6816462 0.4019853 0.39836457 0.5522123 0.52846146 0.4701376 0.40001702 0.54007554 0.48980674 0.4829857 0.38071445 0.31641206 0.4785396 0.37608773 0.35845768 0.29961124 0.23096246 0.21316129 0.24126156 0.22358778 0.059431933 0.21097863 0.0740197 0.10222818 0.19779885 0.1487833 0.22750765 0.20664307 0.16927096 0.17487118 0.20085844 0.21711837 0.23276506 0.40082866 0.31090167 0.3801145 0.58616453 0.549187 0.46070772 0.66089666 0.624684 0.7549709 0.8062442 0.7716595 0.7022202 0.39010602 0.3852286 0.27938613 0.18328577 0.15353256 0.23577648 0.34375274 0.3936904 0.35666233 0.360916 0.32350987 0.20227928 0.17619027 0.24060291 0.2931032 0.39167172 0.38126278 0.2968354 0.3099694 0.29557234 0.5537245 0.5445419 0.44499302 0.23401271 0.25284097 0.5097505 0.5753273 0.5436088 0.56950897 0.5569644 0.45825106 0.28817552 0.2054674 0.26702508 0.61759984 0.6053924 0.49241358 0.51897013 0.24443269 0.16712487 0.39878803 0.6337346 0.60054404 0.45422965 0.45315915 0.47583717 0.23500183 0.39313024 0.53117347 0.58027375 0.68548894 0.6658857 0.4772433 0.4641013 0.46197802 0.37446803 0.55757517 0.61013526 0.6675027 0.6880828 0.6865884 0.49063033 0.50075144 0.38790435 0.5002761 0.25597957 0.47601944 0.47933155 0.12339025 0.17528407 0.14686823 0.039086007 -0.02432337 0.09011404 -0.0050683394 0.08812371 0.1809534 0.05980721 0.16313878 0.11647958 0.18823594 0.17658344 0.20235652 0.25620782 0.28409338 0.5841723 0.30556792 0.33803564 0.61997354 0.5817604 0.5751336 0.64608085 0.678897 0.76511174 0.81766593 0.79295313 0.7223428 0.44377375 0.47612646 0.49085063 0.42557877 0.42206645 0.42050296 0.44485986 0.44296333 0.9332079 0.9107989 0.4232827 0.4077174 0.3598334 0.37737048 0.90367967 0.9341634 0.8960848 0.8080492 0.43089694 0.38070777 0.3502626 0.8407807 0.89372194 0.83862376 0.7704985 0.39280367 0.37113714 0.34521365 0.71383536 0.7894026 0.7553303 0.35415217 0.36161965 0.6326399 0.6846869 0.71320295 0.38841122 0.41461074 0.39923877 0.3265608 0.2201318 0.20442548 0.37605208 0.40439808 0.39277846 0.3929023 0.40062296 0.3846951 0.3179284 0.3795479 0.30577856 0.34690756 0.34986806 0.13186647 0.15858681 0.25949094 0.48393536 0.49030027 0.46641088 0.40771198 0.29734236 0.15704896 0.42015594 0.4690153 0.42834294 0.29943433 0.14998752 0.17455195 0.1616202 0.13826247 0.15803383 0.1241836 0.41341862 0.4452428 0.08002976 0.2732154 0.10789802 0.52921164 0.4370038 0.43636546 -0.045303877 0.08134931 0.28879294 0.4254961 0.4850162 0.6453296 0.46294504 0.17570603 0.22856578 0.57153225 0.6279206 0.66100705 0.6903347 0.6829908 0.45411813 0.4680742 0.21801887 0.088166624 0.6315663 0.6769124 0.68509734 0.43642318 0.45674628 -0.048304327 0.42606905 0.40208566 -0.050466817 0.33247024 -0.1443386 -0.10804759 0.02584113 -0.13129942 0.06197984 -0.053497955 -0.027940545 0.18686606 0.16259897 0.015017174 0.18140863 0.075438425 0.17176 0.17704839 0.21527812 0.63837534 0.3716503 0.47874337 0.6997833 0.68028307 0.69620574 0.8150054 0.7945819 0.6964785 0.82772017 0.3998571 0.44573846 0.48466295 0.49843192 0.41582686 0.42599094 0.434995 0.4756229 0.5099597 0.51551014 0.44817126 0.4244756 0.50158906 0.5062538 0.47832108 0.8894969 0.91106725 0.8747294 0.7889987 0.4995579 0.4791251 0.4405419 0.41107774 0.45381445 0.8653418 0.75280017 0.5343227 0.51229477 0.33324316 0.3106411 0.32181066 0.71734405 0.6467092 0.507625 0.43627098 0.37502536 0.3499509 0.33216456 0.56128794 0.61352384 0.63764757 0.39502835 0.35965323 0.3466686 0.3635772 0.33558667 0.46040565 0.5549884 0.54456615 0.31154478 0.32710615 0.3496896 0.3354225 0.5452343 0.65408105 0.29130298 0.42169446 0.35472852 0.069875546 0.21694802 0.3380065 0.38219538 0.36102197 0.38172323 0.39485633 0.3873472 0.2929843 0.2100278 0.37878948 0.36900854 0.26037222 0.37343818 0.36969835 0.3714498 0.10094954 0.09295276 0.19716926 0.29954016 0.34482867 0.3686291 0.12296587 0.10925276 0.12219979 0.119566925 0.29738653 0.35689735 0.32204705 0.37390602 0.33466884 0.26470494 0.14339358 0.1460568 0.13609226 0.12585711 0.3649711 0.3650255 0.13959417 -0.02375473 0.1528517 0.1858043 0.14083765 0.04471525 0.35849148 0.4061818 0.119128145 0.18284261 0.2793235 0.26757374 0.17193617 0.14254454 0.111191705 0.08239591 0.042867146 0.36923492 0.3280853 0.30352747 0.077931374 0.08299871 0.11798774 0.14459915 0.30812126 0.4641952 0.63817096 0.4261061 0.20292833 0.2881362 0.1565488 0.22765496 0.12472216 0.06870334 0.09831774 0.16538465 0.20092483 0.49345797 0.5697235 0.67199266 0.6804558 0.6717423 0.4180631 0.120305575 0.09662171 0.24809097 0.23298292 0.19676109 0.119100586 0.08447757 0.62867534 0.6693635 0.6842131 0.37637267 0.41166526 0.04239557 0.063669465 0.24606258 0.24175355 0.21943837 0.118513346 0.31005868 -0.04118585 0.35293847 0.08675349 0.08828345 -0.1511698 -0.17361769 -0.10449332 0.15824898 0.20312884 -0.031320572 0.052700557 0.14742067 0.29361987 0.38005352 0.27719578 0.3566465 0.3995268 0.2927655 0.3055039 0.3939711 0.42767632 0.4668373 0.40623212 0.37003762 0.37982965 0.4741723 0.45987236 0.43446594 0.43187904 0.43318108 0.8121102 0.84745616 0.7915262 0.7282827 0.5185263 0.4922275 0.3592279 0.35759246 0.76138866 0.65062875 0.5357019 0.53235817 0.54423237 0.22321789 0.5358536 0.6582542 0.4769553 0.53400135 0.55460715 0.53188 0.2881758 0.19881998 0.49186724 0.4227916 0.523251 0.47868395 0.34944 0.26018074 0.40580225 0.33030984 0.1917017 0.3308307 0.3423798 0.10125689 0.22665642 0.26828864 0.2489059 0.1976014 0.17281571 0.24948318 0.2471047 0.28278196 0.21204472 0.24838497 0.25766915 0.18993106 0.17211097 0.14956419 0.2636959 0.18845694 -0.12115775 0.33763796 0.354734 0.20041668 0.22677426 0.10501659 0.10911478 0.331856 0.3607493 0.3681634 0.1680128 0.116386265 0.030901423 0.023285374 0.4171393 0.43045485 0.16275097 0.21558005 0.13435923 0.108302966 0.08361632 0.40555856 0.4360956 0.27547497 0.22206473 0.08059327 0.023927614 0.19466081 0.22562137 0.21843296 0.16975671 0.3995528 0.23771064 0.29622707 0.29445308 0.1757294 -0.028072782 0.19937885 0.20199586 0.21886356 0.14162427 0.36622232 0.24092159 -0.028587595 -0.038517363 0.040148072 0.16559404 0.096139714 0.09682158 0.36871773 0.28842896 0.19936207 -0.097411685 -0.020770056 0.27807343 0.2080392 0.037598457 0.09733555 0.27359742 0.3847228 0.4646877 0.5656835 0.35127527 0.11276079 0.17299736 0.2470359 0.3167469 0.3653351 0.6562282 0.6430744 0.32139936 0.11104352 0.13910691 0.16489905 0.060271006 0.066533044 0.15418047 0.24749759 0.3057006 0.261751 0.2375322 0.21462706 0.15587191 0.1460328 0.17112331 0.24141599 -0.029048406 -0.024825148 0.22038727 0.22759013 0.23320249 0.22777918 0.22509247 0.26904544 0.29993242 0.13802335 0.22233312 0.2554731 0.25373936 0.24048647 0.2370631 0.26314288 0.19106904 -0.14746441 -0.14243746 0.23734124 0.22876161 0.053396232 -0.036077768 -0.2655025 -0.111228846 0.102248326 -0.07968682 0.19719188 0.032504655 0.15824439 0.12399844 0.05752349 0.22990492 0.061438475 0.3185187 0.33654168 0.27283454 0.24424218 0.50029695 0.5013759 0.35958523 0.29106718 0.37356114 0.26136383 0.17885578 0.15951498 0.24625333 0.21313791 0.13223708 0.22269365 0.21521074 0.32453245 0.29722205 0.16815515 0.40286565 0.38722065 0.31321844 0.32882777 0.5828646 0.7415668 0.69271463 0.5960539 0.547814 0.47692433 0.46622428 0.5293857 0.5060611 0.1500349 0.3478765 0.5096748 0.48876697 0.3037935 0.21066344 0.45089924 0.43123692 0.09757596 0.27383158 0.037193075 0.21567969 0.2014394 0.099932775 0.11068107 0.12965381 0.17581335 0.07046263 0.24981083 0.46344537 0.012284458 0.15657276 0.13155149 0.31086516 0.3668215 0.45845407 0.46493354 0.39264566 0.10575804 0.06123682 -0.05009091 0.013633423 0.14381836 0.42772025 0.43906164 0.4351834 0.3503269 0.16665557 -0.15355267 -0.13910912 0.43908995 0.4599371 0.15981148 0.2484875 0.19120279 0.11589548 -0.15220429 0.07666812 0.4542238 0.21577775 -0.0035791993 -0.054971866 -0.034978926 -0.18964425 -0.25098002 -0.11627808 0.4726476 0.48299947 0.17137314 0.24103236 -0.23711848 -0.1758872 0.16411944 0.5097047 0.13091561 -0.16436261 -0.21897621 0.06134943 0.031892356 0.52053154 0.1133664 -0.26085988 0.44185066 0.48642725 0.26423723 0.15313174 0.40984336 0.36263412 0.10184394 0.20082176 0.38092756 0.21571332 0.23997615 0.082688764 0.19595343 0.28742373 0.3166378 -0.19412023 0.11985085 0.1931557 0.27738884 0.36752623 0.41434813 0.36462113 0.21386589 0.22158507 0.2107866 0.31075114 0.32707077 0.44771737 0.40778673 0.3092654 -0.115365334 0.21298747 0.17665255 0.21609403 0.26261026 0.29768288 -0.17993139 -0.08326545 -0.24314888 0.12317417 0.12623467 -0.033493992 0.0838969 0.16308571 0.13107593 -0.025906272 0.27190906 0.05999455 0.3037685 0.3511169 0.40633184 0.33347782 0.0959488 0.1538303 0.36979228 0.49485785 0.49366367 0.36826146 0.4099263 0.23880097 0.439641 0.6054212 0.6024816 0.59703976 0.42979187 0.4244278 0.589971 0.33966005 0.30021673 0.67365646 0.68112314 0.6619702 0.43144643 0.6659694 0.42864555 0.3343804 0.27410585 0.15270655 0.40949777 0.4928735 0.41225442 0.36642098 0.3091171 0.13005793 0.12559718 0.14872932 0.18101963 0.2355042 0.43388355 0.510349 0.5459159 0.36210644 0.36178917 0.3347634 0.46858075 0.27095824 0.22373946 0.34136504 0.450173 0.2260317 0.29994562 0.20785683 0.37123823 0.4854908 0.54413325 0.5594032 0.36590186 0.086301476 0.48547786 0.4669262 -0.09968205 0.118380606 0.42561966 0.3160125 0.16534631 0.43867415 0.41123343 -0.13141741 0.13312083 0.40953198 0.28422716 0.06752177 0.03809294 -0.0050614327 0.20485565 0.028021052 0.038208604 -0.024981074 0.12915838 0.435494 0.04307258 -0.03543646 -0.23749176 -0.35828042 0.18699823 0.39913523 0.45423144 0.42834258 0.113567665 -0.13095546 -0.26222143 -0.47992826 0.31837928 0.37573984 0.38371158 0.423481 -0.4120112 -0.36946094 0.43865487 0.40721926 0.43235675 -0.3079502 0.4830302 0.49296176 0.29485488 0.50341535 0.06932913 -0.018121235 0.5265592 0.5124513 0.01695168 0.54700005 -0.039839737 0.028221644 0.50155944 0.5309541 0.07740932 -0.0028865058 0.22369082 0.36610454 0.4486071 0.1502731 0.02987488 0.3145074 0.13632378 0.25533673 0.57403946 0.3414885 0.5573777 0.25086534 0.29927042 0.27930075 0.27064115 0.35191453 0.39766133 -0.09858833 0.057203528 0.33645993 0.33497798 0.44576615 0.451079 0.28365698 0.06625266 -0.044208746 -0.29613233 -0.4459236 -0.10137718 0.03717826 0.18833882 0.24193524 0.3025604 0.40569234 0.29790372 -0.20750874 -0.17109624 0.109575704 0.10094905 0.13094208 0.20079143 0.06125024 0.05452221 0.06766021 0.11256588 0.059268028 0.039100163 0.32193172 0.1305094 0.14661829 0.38555542 0.22141027 0.324589 0.57727325 0.4022679 0.35075545 0.27628154 0.60720587 0.6596583 0.63705456 0.49683622 0.556332 0.5317614 0.40196186 0.5484729 0.62926984 0.64558154 0.40763578 0.45047408 0.48183197 0.43174142 0.3502282 0.18844591 0.13563624 0.14099489 0.18334374 0.3422433 0.42252803 0.48747724 0.52310175 0.37588167 0.4102655 0.5164043 0.54728335 0.2970404 0.5232097 0.10708986 0.41155478 0.045481935 0.19853105 0.2447803 0.04567788 0.17641398 -0.0024797441 -0.052997276 0.48765206 0.016296946 0.36246523 -0.28301382 -0.053510763 0.12937233 0.40243173 0.36846602 -0.36589736 -0.25438973 0.007597668 -0.11736188 -0.21935374 -0.2676315 -0.049348697 -0.013673589 -0.15460692 -0.11985892 -0.14864013 0.23882347 0.37785769 0.37949055 -0.3191849 -0.15030843 -0.12503499 0.28011805 0.3419547 -0.1177902 0.27546835 0.35763454 0.3832404 0.3830945 0.44375253 0.2993833 0.49897265 0.1869321 0.5131898 -0.054880507 0.54243195 0.5210458 0.55335325 0.1654771 0.08466941 0.22361109 0.50146097 0.5372146 0.23766646 0.1638673 -0.18228397 -0.1654962 0.22766048 0.37844044 0.45064265 0.3126417 0.25303417 0.6419627 0.5766916 0.12630206 0.6716241 0.20852822 0.67081565 -0.048068717 0.61997414 0.22231513 0.3965463 0.23547974 0.28562278 0.3744949 0.3043152 0.42786545 0.41584575 -0.13787398 -0.29540202 0.27549058 0.39780408 0.3053627 0.057884254 -0.28822204 0.17435285 0.4211191 0.5313673 0.5618341 0.04664559 0.041997425 0.084269136 0.5521798 0.59980464 0.61704934 -0.017225534 0.61984086 -0.006323274 0.0746855 0.1181512 0.2412263 0.46172 0.40045762 0.35868323 0.27892786 0.10964973 0.26302442 0.5490886 0.56753796 0.46814772 0.48635277 0.40334564 0.38256636 0.543327 0.60108876 0.7887039 0.1791663 0.19592041 0.33426523 0.3927834 0.43419677 0.38151175 0.42426628 0.490564 0.4290855 0.32573864 0.124088176 0.16839968 0.23236799 0.46901166 0.50932187 0.33742166 0.5370766 0.50796217 0.20000425 0.4730569 0.10156954 0.13300738 0.40128678 0.58100367 0.59824103 0.08901578 0.10574808 0.10047245 0.16752864 0.59130025 0.60526305 0.55659723 0.08360077 0.1000422 -0.049277134 -0.1226661 -0.0573589 -0.027075998 0.020764649 0.29319802 0.5871787 0.5867979 0.50472295 0.030639417 -0.020242468 0.23015292 0.03399454 0.046006165 0.23596728 -0.28444716 -0.22277963 0.0033755265 0.22089651 0.16295372 0.051572464 -0.43391085 -0.31796688 -0.21768314 -0.06615355 -0.021971032 0.20295462 0.1952428 -0.2274448 0.013435595 0.11093941 0.17700537 0.19221772 0.23203352 0.22537357 0.39326817 0.19504887 0.3324649 0.140163 0.16436674 0.37181228 0.06194119 -0.01021269 0.34185433 0.14579545 0.231155 -0.0149424 0.4595165 0.46920955 0.29194653 -0.31768435 0.46715176 0.36496234 -0.008961592 0.64786446 0.5514606 0.1077875 0.6932328 0.6883936 0.069932446 0.6852615 0.6705644 0.6093462 0.63020074 0.6320889 0.63750225 0.6264186 0.5924705 0.37614238 0.58713967 0.6047205 0.5890789 0.23802522 0.13261446 0.18584777 0.08181447 -0.10497967 0.45621657 0.55452716 -0.014867442 0.037225675 0.4064381 0.5443765 0.64509714 0.6316434 0.12662151 0.04870173 0.0031788684 0.5417371 0.6532984 0.6697295 0.18980603 0.10397172 0.03489691 0.04122469 0.12555505 0.0540572 0.22417861 0.046967134 0.05717442 0.34222087 0.336806 0.3614754 0.22863352 0.25308633 0.4437155 0.7695173 0.825384 0.8367235 0.7623241 0.7673868 0.7004683 0.793972 0.82421124 0.7791313 0.75469774 0.7923416 0.79594356 0.7711898 0.6168976 0.75881636 0.7924794 0.75279355 0.73750466 0.778702 0.7615606 0.73164773 0.62833065 0.718889 0.76811886 0.73965156 0.72856796 0.7114278 0.14423475 0.24445891 0.28374946 0.33883464 0.4144455 0.42897215 0.36017162 0.31871304 0.068763845 0.073013864 0.4754924 0.46331427 0.43983406 0.3172117 0.41708064 0.4162901 0.38830465 0.32893285 0.5392407 0.5584127 0.08852327 0.5310029 0.5518342 0.57524496 0.54680794 0.44993922 0.06311585 -0.097587615 -0.21756525 -0.12243875 0.52934563 0.53089464 0.04760714 -0.0010628477 0.017683709 0.04335022 0.42475343 0.41190964 0.37136877 0.013773119 -0.016905276 0.28870904 0.25973913 0.020003438 0.0006838739 0.14993797 0.13348672 0.16338202 -0.044460252 -0.0049965307 0.21633598 0.2006386 -0.007042788 0.23149246 0.2293409 0.24367295 0.21180886 0.16093594 0.2462656 0.04894025 0.07039883 -0.06561477 -0.08414566 0.01999057 0.028646667 0.013670865 0.044001296 0.08952612 0.051746823 -0.06280996 0.107015125 0.24459463 0.02078645 0.33286613 0.30212757 -0.11944071 -0.00929068 0.47181493 0.37733388 -0.31739652 -0.13481772 -0.07298089 0.6242964 0.52645326 0.008325294 0.68728167 0.67668825 -0.14235847 -0.1328803 0.55479455 0.43608034 0.67632586 0.66272974 0.42754245 0.5533724 0.58360845 0.5506766 0.65602183 0.62958276 -0.48371968 0.38926175 0.5945752 0.56199807 0.5747918 -0.33075127 0.5132316 0.57639754 0.55364716 0.48053417 0.42803323 0.5084415 0.3167343 0.34908664 0.517573 0.45677263 0.1435226 -0.05995991 0.5499009 0.4994499 0.52831185 0.5097434 0.35704738 0.6292672 0.26596633 0.22423385 0.006805584 0.20849161 0.5020033 0.6525072 0.6787888 0.32758433 0.27711555 -0.12121052 -0.13577364 0.5704606 0.35703224 0.319612 -0.0074274987 -0.13749336 -0.033306405 0.003167063 0.29104236 0.020253494 -0.03633699 0.3325922 0.3440585 0.31791842 0.11275168 0.18652971 0.35790628 0.33250082 0.28476852 0.5880826 0.725145 0.7909775 0.81491303 0.8263476 0.61980313 0.60797095 0.5738914 0.73929805 0.83621436 0.8250662 0.69818425 0.705239 0.68282324 0.70731926 0.77575994 0.75525475 0.7122529 0.7773061 0.7310497 0.6818922 0.59958076 0.5748627 0.72611237 0.70361793 0.67909074 0.69667804 0.65873265 0.5957583 0.48451513 0.58022046 0.629632 0.7235267 0.7366065 0.21749774 0.22613491 0.5072511 0.5257295 0.42831784 0.21327558 0.22084993 0.24436136 0.26787576 0.32776028 0.38008648 0.47802186 0.4837078 0.5146615 0.45521 -0.07120299 0.14309002 0.41414177 0.45349002 0.45657116 0.44262624 0.24184904 0.43686056 0.43377846 0.2466634 0.4584184 0.49223572 0.46577072 0.37913868 0.24245837 0.3416574 0.3607146 0.35603517 0.09810081 0.051389027 0.45609558 0.16485772 0.29553005 0.34601095 0.2853253 0.25069112 -0.0043262057 0.0050097182 -0.32544747 -0.0820777 -0.042440265 -0.06548745 -0.10607675 0.34124088 0.24326353 0.0014979336 -0.0020709075 0.25471127 0.2813058 -0.042681206 0.1809611 0.18236053 0.1203886 0.08514969 0.172128 0.08977688 0.0036946982 0.049641177 0.21537206 0.22543953 0.21583965 0.23044497 0.1722454 0.20754859 0.23553601 0.17349221 0.26206493 0.25360426 -0.031668045 0.026107885 0.22500834 -0.0650152 -0.11755974 -0.23489916 -0