# vtk DataFile Version 2.0
Really cool data
ASCII
DATASET POLYDATA
POINTS 8982 float
77.401054 64.68383 102.876465
77.40702 64.74416 103.34158
77.452576 65.16167 102.61546
77.39893 65.19643 103.30547
78.322655 63.152863 102.71736
78.28947 63.112988 103.10861
78.07426 63.982567 101.86283
77.839645 63.84441 102.62347
77.896996 63.758965 103.384445
77.98167 63.976917 103.96481
77.8631 64.64287 101.72037
77.55351 64.36377 102.58035
77.52492 64.48795 103.57275
77.79504 64.69732 104.09657
78.21697 65.31795 101.097626
77.84658 65.2745 101.7143
77.574 65.45617 102.63037
77.54655 65.436005 103.497795
77.904755 65.359955 104.09104
78.33681 65.867226 101.20057
78.21969 65.87192 101.41844
78.03917 66.075905 102.68022
77.835945 65.84128 103.28026
78.042274 65.77513 103.85702
79.148506 62.36481 102.768776
79.165855 62.34257 103.2464
79.04856 62.857025 101.97924
78.80193 62.766693 102.55184
78.855286 62.693928 103.39743
78.826035 62.97831 103.935486
78.69071 64.001076 101.10426
78.42246 63.64915 101.695564
78.56115 63.48568 104.14964
79.05325 63.88968 104.89475
78.591194 64.66857 100.84699
78.43608 64.279945 104.60761
78.821495 64.53568 104.9692
78.66532 65.3368 100.6942
78.50382 65.481186 104.38006
78.81525 66.00301 100.90955
78.59206 66.3062 101.6771
78.34761 66.29259 102.253815
78.857574 66.24352 103.48181
78.441574 65.98468 103.90856
80.41585 50.819054 92.10335
80.38266 50.631397 92.55714
80.42377 50.779377 93.08055
80.42606 51.135723 91.95493
80.36176 51.456974 92.544655
80.37632 51.49045 93.16175
80.44608 51.900684 92.70318
79.99202 62.23556 102.17361
79.534134 62.19671 102.717476
79.60242 62.182716 103.45884
80.082794 62.356632 104.26574
79.41487 62.545887 102.05786
79.31312 62.40771 103.61699
79.60069 62.59282 104.248276
79.72508 62.917732 104.71171
79.62309 63.807198 100.948204
79.59424 63.678642 105.24392
80.02343 64.00925 105.7651
79.35767 64.508446 100.59536
79.52775 64.501884 105.475784
79.90767 64.51661 105.79021
79.35972 65.20777 100.458664
79.51547 65.764984 100.52455
79.696754 65.37893 105.54455
79.9111 65.16033 105.817535
79.42541 66.479515 103.21184
79.85114 66.27618 104.82784
80.049126 66.34232 105.60683
79.61792 66.608795 101.65921
79.94713 66.91332 103.21519
79.91634 66.73118 104.36814
80.314896 67.01841 105.61833
80.04754 70.91748 100.79188
79.858376 70.90872 101.43897
79.951355 70.87215 101.99787
80.14448 71.84508 100.03738
79.79193 71.54202 100.780334
79.68087 71.48482 101.487206
79.91987 71.46751 102.26086
80.22026 71.5979 102.70318
80.125374 72.326 100.04854
79.88882 72.363495 100.68116
79.81971 72.266174 101.39973
80.074684 72.19284 102.209526
80.29791 72.8861 100.02397
80.22966 72.96614 100.60853
80.17974 72.87225 101.464294
80.25486 72.78236 101.86914
81.4005 42.89801 106.479225
81.35677 42.87575 107.34056
81.388695 43.426804 106.13808
81.244255 43.531647 106.6042
81.208916 43.441704 107.28501
81.28141 43.617207 108.242165
81.34857 43.86221 108.83227
81.30115 44.124176 106.69598
81.14044 44.490986 107.731544
81.15585 44.5512 108.32386
81.338844 44.57088 109.17426
81.303246 45.096176 107.72444
81.35769 45.4142 108.5878
81.40289 45.387863 109.29329
81.47217 45.439568 109.935356
81.23678 49.356533 92.87423
81.19529 50.087776 91.41211
80.92084 49.914467 91.85459
80.80958 49.8096 92.43325
80.96663 49.74115 93.122734
81.084145 50.64194 91.36251
80.76587 50.634644 91.67257
80.544716 50.21345 92.28142
80.65491 50.518936 93.44675
81.136406 50.499523 94.25715
81.09849 51.005253 91.41213
80.69448 51.45368 91.84182
80.47243 51.633698 92.206764
80.54068 51.606285 93.51175
81.037056 51.635353 94.4169
80.8219 52.00843 92.04599
80.71985 52.17841 92.513626
80.78405 52.276516 93.41274
81.01439 52.15345 94.096725
81.14936 52.59055 92.73838
81.22692 52.738865 93.10803
81.349174 52.930374 94.036446
80.37321 62.29668 102.01611
80.43299 62.057613 102.5965
80.30777 61.92845 103.470634
81.03792 62.30831 104.74284
80.27056 62.731518 101.55536
80.425156 62.412594 104.59748
80.53147 62.977642 105.30581
80.563 63.547813 105.73189
80.25867 64.161316 100.618904
80.57215 64.26714 106.16816
80.15825 65.330505 100.57606
80.916275 65.61628 106.916916
81.17626 66.7367 107.29836
80.63356 67.13102 102.90665
80.96742 67.55637 104.26737
80.69997 67.28958 106.122986
81.067444 66.89329 106.9957
81.142845 67.73861 104.308
80.95884 67.65298 105.24425
81.029594 70.23291 100.92759
80.93134 70.29941 102.84999
80.992874 71.28279 99.682274
80.29445 70.437195 101.30285
81.222374 70.621956 103.38028
81.28572 70.96162 103.737656
80.42224 71.91624 99.66254
80.68176 71.34936 103.138084
81.2688 71.34676 103.82118
81.05973 72.72178 99.05645
80.4743 72.38389 99.56056
80.53 72.45578 102.57904
80.82472 72.43534 102.933075
81.2375 73.46209 98.85542
80.726166 73.30063 99.637474
80.650345 73.63146 100.655594
80.54498 73.25807 101.44132
80.718315 72.99939 102.191956
81.25033 74.124825 99.15807
81.108635 74.172104 99.5842
81.127365 74.24485 100.32629
80.9029 73.803116 100.978096
82.20523 41.96853 106.14991
81.98566 41.94804 106.69936
81.931725 42.014217 107.49005
82.11624 42.10839 108.147995
81.83582 42.716484 105.77977
81.550415 42.538624 106.376
81.579895 42.499542 107.591774
81.701 42.719578 108.24606
82.214035 42.839752 109.30069
82.069275 43.306225 105.13703
81.80121 43.489708 109.29077
82.21408 43.77469 110.225006
82.46209 44.572617 102.703926
82.06887 44.284767 104.773636
81.81898 44.55724 105.753174
81.47696 44.53256 106.392265
81.4843 44.21865 109.47399
81.824005 44.738007 110.38317
82.17484 44.812458 110.93771
82.412384 45.823563 101.842705
82.36849 45.169228 102.89006
82.44471 44.99462 103.712364
82.04068 44.96812 104.824936
82.261246 45.54728 105.131775
81.83504 45.326622 106.83416
81.513176 45.49106 107.54117
81.505745 45.615883 108.44883
81.708824 45.53055 110.37396
82.07309 45.50946 110.92521
82.33868 46.7886 100.88467
82.318665 46.63259 101.442085
82.30226 46.534172 102.19598
82.38166 45.778072 105.41723
81.81408 45.714367 107.51684
81.96845 46.15005 108.931
81.796234 46.306545 109.68592
81.85982 46.22452 110.25339
82.06429 45.95878 110.87457
82.31852 47.37423 100.85771
82.208534 47.428463 101.73103
82.27263 47.411224 102.26579
82.05061 46.661392 109.71711
81.50546 49.357983 91.98327
81.6636 49.10792 92.63507
81.88425 49.03542 93.36808
82.1155 49.147385 94.06674
82.29685 48.50508 100.74404
82.11646 48.395016 101.498604
82.09383 48.491707 102.26288
82.29258 48.762405 102.8191
81.53672 49.99402 91.34626
81.46225 49.666462 91.64172
81.55319 49.51359 93.73587
81.64698 49.953384 94.53314
82.014885 50.006706 94.89427
82.31354 49.193604 100.97868
82.22619 49.22701 101.48061
82.30728 49.274014 102.380646
81.5602 50.424614 91.25627
81.45233 50.354397 94.538895
82.06765 50.456955 95.36279
82.14943 51.048794 95.88297
81.59921 51.311058 91.35415
81.38822 51.64531 91.53106
81.66418 51.55644 95.38182
81.52357 52.09512 91.84258
81.24125 52.49358 92.415245
81.55453 52.431282 95.37051
81.91594 52.623684 96.079544
81.495895 52.644447 92.46313
81.83146 53.272575 93.72456
81.591286 53.18843 94.62862
81.86262 53.231945 95.37157
82.18292 53.41466 96.73935
82.2395 53.299187 96.94693
82.137985 53.72708 94.718094
82.202705 53.849186 95.51763
82.31021 54.075897 96.59153
81.8591 61.72685 104.19914
82.30511 63.23263 100.67891
81.30814 62.629234 105.143364
81.558395 63.144012 105.776054
81.34813 63.58156 100.820656
81.41416 63.548717 106.09639
81.99744 63.85227 107.431465
82.13837 63.979824 108.16718
82.20383 64.68938 99.6672
81.65224 64.50436 107.63099
81.80596 64.60172 108.23495
82.1253 64.81623 108.8155
82.117805 65.921135 95.95843
81.93206 66.02204 96.45921
82.09546 65.68903 97.19354
82.3234 65.64345 98.71791
82.09462 65.80201 99.328926
81.82576 65.331375 108.3542
82.18992 65.26032 108.95872
81.8935 66.583534 95.94301
81.64344 66.71713 96.562675
81.77685 66.60912 97.38741
82.06528 66.14844 99.7643
81.57346 66.781654 107.44874
81.89957 66.28352 108.135956
82.281296 67.08406 95.37502
81.90056 67.31044 95.93596
81.693825 67.330826 96.48539
81.684235 67.1351 97.09398
82.038635 67.32473 97.80033
81.29506 66.93304 102.046394
81.74903 67.26997 107.102234
82.344826 68.09775 110.92908
82.22127 68.09995 96.053474
81.992516 67.97321 96.491486
82.14148 68.03082 97.38658
82.14929 67.95228 102.70281
81.3021 67.95642 105.14818
81.87914 67.921425 106.27709
82.00898 67.65858 106.850296
82.32465 68.567 110.79637
82.25692 68.56301 111.3767
82.33777 68.61682 111.94856
81.37766 70.33126 100.80306
81.20724 70.023926 101.87946
81.88145 69.83171 103.25102
82.415665 69.079056 110.16271
82.30136 69.39404 110.74569
82.265594 69.36224 111.41123
82.3552 69.05354 112.0514
81.6101 71.06204 99.68273
81.208374 70.45443 100.45769
81.361084 70.36699 103.179985
81.82298 70.660255 104.09921
82.428024 69.96777 111.3524
81.58075 71.7939 99.05999
81.472404 71.10149 104.09147
81.98702 72.66924 98.25334
81.39667 72.60359 98.81298
81.70548 72.388054 104.05593
82.307274 72.47877 105.19917
81.67382 73.296844 98.33267
81.64296 73.23893 98.51765
81.3757 73.26081 102.452446
81.75978 73.10036 103.180786
82.15831 73.10318 104.554955
82.37671 73.54207 105.264786
81.735344 74.33247 98.71824
81.385956 74.46427 100.36355
81.90901 74.1774 101.68379
82.03191 73.663445 102.67896
81.84504 74.83671 99.10312
81.77995 74.87988 99.55668
81.69505 74.74744 100.33417
81.95546 74.67835 100.81571
82.87117 41.418213 107.5035
82.658195 42.331505 105.28598
82.43901 42.064007 105.87958
82.51743 41.671814 106.64662
82.60777 41.57065 107.356636
82.6159 41.887077 108.41633
82.94989 42.08728 108.99363
83.15924 43.14542 103.75844
82.90956 42.746605 104.75204
82.36483 42.37439 105.50109
82.70705 42.99713 110.054886
83.02188 44.08601 101.82766
82.7793 44.075954 102.3772
82.77584 43.655014 103.634476
82.42794 43.737858 110.427605
82.46792 44.171547 110.94134
83.04991 44.661274 101.26243
82.70017 44.50997 101.84866
82.70866 44.818775 111.31438
83.244774 45.81159 100.2504
83.05215 45.44141 100.703064
82.60926 45.53808 101.576645
82.57746 45.47241 103.59785
82.545135 45.461597 111.362045
82.96927 45.365257 111.59621
82.72239 46.941765 100.2628
[...]
POINT_DATA 8982
SCALARS features_00 float 1
LOOKUP_TABLE default
0.80626506 0.8008037 0.80650777 0.7983154 0.6307539 0.62217736 0.7522893 0.7336179 0.7078513 0.69548714 0.80270696 0.7901289 0.7832233 0.75124294 0.78906846 0.8015864 0.7951275 0.7778927 0.7295122 0.7748225 0.77628744 0.72494173 0.7332665 0.6915736 0.5591951 0.5484124 0.58558446 0.58561575 0.56298697 0.5484555 0.732048 0.70154077 0.57658434 0.47266275 0.76403093 0.5995134 0.51426363 0.76389265 0.616481 0.751007 0.71256876 0.70083654 0.51743555 0.6002722 0.90058124 0.87978584 0.8398371 0.89967334 0.856377 0.798144 0.8152695 0.5394855 0.5464877 0.5196423 0.41889682 0.5585848 0.52892154 0.4722947 0.43110505 0.5888397 0.40625507 0.35370412 0.6770623 0.40660062 0.36265793 0.7166046 0.7197081 0.4073368 0.37266693 0.41546416 0.37818018 0.39742416 0.5858253 0.29765362 0.30304733 0.3480334 0.83529603 0.8476887 0.78696173 0.6710212 0.78268516 0.7878872 0.70385134 0.6151458 0.6282524 0.67108625 0.68122303 0.61417377 0.58022225 0.5894598 0.5657496 0.5419878 0.6180715 0.6257249 0.55132335 0.5533706 0.5788654 0.56440806 0.5489842 0.4653377 0.49829715 0.5191937 0.5480684 0.4350444 0.46997908 0.53053904 0.5820006 0.8066994 0.8947435 0.9049901 0.8876831 0.80379504 0.9011135 0.91278064 0.8978999 0.8032497 0.60121757 0.8986483 0.8926878 0.87106466 0.75372946 0.6210371 0.85109013 0.8066282 0.7007785 0.62682366 0.7311036 0.68599147 0.5852543 0.512197 0.5106592 0.46455723 0.24361764 0.4907047 0.347433 0.32098985 0.30853003 0.5067677 0.26618096 0.6113831 0.27389032 0.30312642 0.19866544 0.19258296 0.36880416 0.34342188 0.1732224 0.2841902 0.68082273 0.54809415 0.63572526 0.8271995 0.44199827 0.39692006 0.60662496 0.53093415 0.38657206 0.5210608 0.57350415 0.51261115 0.46847266 0.5220535 0.5459423 0.5161998 0.4868664 0.44938427 0.535251 0.52942145 0.48107103 0.45433176 0.59025824 0.6346861 0.64838314 0.62008727 0.5660061 0.62582046 0.6415807 0.60149896 0.54042536 0.48787504 0.53911114 0.54302204 0.3734156 0.3527614 0.3342407 0.37637478 0.55078745 0.59378934 0.6042615 0.33276415 0.2978304 0.24936135 0.23727678 0.1874884 0.30276227 0.37108454 0.4310004 0.61434233 0.62926495 0.37565017 0.3625505 0.32604998 0.1510292 0.32577294 0.37113428 0.4658488 0.571434 0.6315836 0.41397217 0.4188121 0.4101603 0.41006607 0.85648596 0.8045981 0.6971314 0.5823643 0.5169271 0.52452886 0.5250104 0.50948167 0.8644972 0.8700088 0.64000297 0.5025235 0.43379712 0.5579623 0.5610205 0.5342544 0.86783314 0.51067877 0.39612412 0.37967438 0.8722937 0.88018584 0.4444168 0.84252936 0.76251614 0.472167 0.41022286 0.7273288 0.599015 0.50963426 0.42903367 0.34974357 0.34133235 0.48046705 0.37700543 0.3322669 0.18570994 -0.022352763 0.20493762 0.15262756 0.09853792 0.1460169 0.18693575 0.30921227 0.09227785 0.25379425 0.32336918 0.33530068 0.54781544 0.57349336 0.46437407 0.19566235 0.15215611 0.3090241 0.31027803 0.590803 0.61597645 0.5421089 0.11536807 0.26862636 0.23743872 0.5749531 0.61185586 0.62047625 0.60142124 0.5136053 0.15387784 0.2941164 0.42946383 0.5763958 0.596648 0.55961096 0.08608018 0.24766412 0.293659 0.28708127 0.4627477 0.49162853 0.5016211 0.61338294 0.7226126 0.28920078 0.41696227 0.50509167 0.53223413 0.5216495 0.5696194 0.6436303 0.4455714 0.27389297 0.5530808 0.47972918 0.34327114 0.45244178 0.4938631 0.28705654 0.25390598 0.4950478 0.49788725 0.3503338 0.26883036 0.22994938 0.29768747 0.5225916 0.45118284 0.3257651 0.2520159 0.49518013 0.47633743 0.42378166 0.36347738 0.5799724 0.47607422 0.55447006 0.60136455 0.6055621 0.58133256 0.53653926 0.3126307 0.38785958 0.5163959 0.515254 0.38863328 0.39938968 0.37372768 0.54103184 0.5652358 0.35997617 0.38799024 0.576436 0.28716093 0.31404123 0.34352794 0.19102755 0.6007566 0.5640838 0.3649506 0.3641067 0.3487146 0.28385878 0.053441443 0.1557461 0.263763 0.59503007 0.6559905 0.3508366 0.36518443 0.06887681 0.15292004 0.2219554 0.50711226 0.71874094 0.72225285 0.710512 0.63596344 0.37265724 0.47509694 0.4518603 0.26249993 0.22080132 0.25129128 0.76349556 0.7609376 0.41654193 0.4337148 0.53861797 0.52350676 0.47029367 0.27379024 0.28732055 0.29701155 0.79510236 0.7256137 0.35407925 0.5301696 0.49870953 0.4855677 0.8030187 0.78318965 0.34769693 0.2801643 0.7769913 0.31333873 0.48119086 0.4861582 0.60854805 0.5854183 0.29614058 0.23980457 0.46400982 0.4972543 0.5438374 0.34964275 0.31080905 0.2752901 0.22802085 0.22081223 0.25429004 0.23721415 0.2256656 0.21219847 0.7837852 0.80777425 0.7672156 0.82259005 0.88289034 0.83947945 0.79863036 0.8638501 0.9239181 0.87005335 0.838187 0.35962448 0.32316452 0.23831096 0.18922296 0.90531224 0.9216721 0.8980907 0.08587393 0.14244363 0.1164391 0.049051363 0.036258515 -0.01155897 0.31322017 0.34844497 0.11660385 0.04044696 0.21698505 0.33015835 0.34320483 0.41819435 0.3932864 0.20926137 0.18000735 0.33880222 0.48542395 0.4869572 0.25104293 0.23679763 0.48225617 0.5581436 0.20760843 0.1673134 0.062399898 0.5208583 0.5753133 0.48455143 0.088424094 0.20194128 0.43915904 0.4460842 0.5273478 0.4764477 -0.07706621 -0.18262285 0.05518475 0.116097145 0.14798303 -0.004414849 0.50365156 0.50256926 0.47575253 0.4417212 0.4170187 0.0196383 0.3861686 0.5241115 0.5069855 0.42873394 0.41949803 0.53460515 0.5624927 0.540506 0.35017636 0.24469526 0.2784201 0.556159 0.38536602 0.33982387 0.34159702 0.41138363 0.35024303 0.35090098 0.44381234 0.4753844 0.27938646 0.26095688 0.22611551 0.32310474 0.34467715 0.45125923 0.4002974 0.37727523 0.29183763 0.43277848 0.7191322 0.6672243 0.63665676 0.7549359 0.7419982 0.6888299 0.7795763 0.77177143 0.735373 0.5488424 0.5374452 0.5415183 0.41829848 0.50035083 0.5392446 0.5003041 0.5013911 0.48474216 0.47773975 0.30938587 0.35071778 0.4830928 0.47546077 0.3488326 0.350114 0.48860514 0.2758863 0.5275613 0.5049115 0.21373777 0.2708956 0.52703 0.22292688 0.25565684 0.50646055 0.50567436 0.5795355 0.18163571 0.14378545 0.48106176 0.6381048 0.5330273 0.52557385 0.19944207 0.25935417 0.32451266 0.032589816 0.2607404 0.64799565 0.4111549 0.28011963 0.16674557 0.238454 0.31238607 0.3194933 0.34085542 0.3115688 0.6633427 0.27748924 0.42431533 0.43450266 0.42757607 0.42778572 0.3458039 0.2727131 0.31932378 0.3468815 0.3528771 0.61640006 0.2687388 0.35325843 0.41430196 0.47696123 0.7418238 0.85850537 0.5404531 0.15201573 0.10646703 0.33725202 0.37764037 0.4226313 0.46456194 0.5177619 0.7246858 0.86203814 0.8677784 0.425491 0.20509586 0.19312572 0.34851745 0.40906274 0.44043624 0.45431018 0.53324115 0.7064719 0.8312825 0.84339464 0.39128357 0.22631222 0.21332115 0.34445035 0.3995538 0.43066448 0.45189035 0.49110347 0.66335356 0.78398544 0.80941594 0.21288262 0.21521153 0.28677285 0.4548065 0.26795316 0.24940005 0.24451074 0.20073183 0.65464556 0.53076005 0.32100153 0.29601908 0.28190833 0.24250352 0.19740286 0.596871 0.71015394 0.71944904 0.7021493 0.66536754 0.30357897 0.27307737 0.2555938 0.22146103 0.16486098 0.6566787 0.7134329 0.74322754 0.23704547 0.35536173 0.31109875 0.7819468 0.8183909 0.7855774 0.29932788 0.24343985 0.25036576 0.34367448 0.30928558 0.27350843 0.19109932 0.88201797 0.9057958 0.8711735 0.80783105 0.056339517 0.08207718 0.05389633 0.25147602 0.32670888 -0.073875055 0.022589652 0.24712324 0.315589 0.35904804 0.30805993 0.21254426 0.07844347 0.34337053 0.327804 0.38650385 0.3785826 0.30639574 0.4216119 0.40314868 0.3046522 0.3469261 0.31458795 0.4132417 0.42037338 0.037111603 -0.019405678 0.43477854 0.3399415 0.1712733 0.17613369 -0.27696964 0.47299492 0.38597953 0.16897175 -0.028340995 0.024959534 0.081076846 -0.18297052 0.060112655 0.5068351 0.38020256 0.27945298 0.15727177 0.51123095 0.5164498 0.27743486 0.29537115 0.21977518 0.3180107 0.03189875 0.3423374 0.17080201 0.3616531 0.3046597 0.01074991 -0.014512762 0.12284458 0.2153375 0.29928222 0.34964406 0.38443246 0.27866492 0.3264514 0.07968149 0.39582604 0.31168774 0.30645052 0.252532 0.22400689 0.592823 0.5870558 0.3990656 0.2870094 0.27967313 0.27483156 0.28286576 0.7175325 0.72000766 0.64284164 0.57833505 0.5453329 0.33052468 0.3221221 0.29082698 0.33892685 0.39106685 0.78297246 0.76848483 0.6876115 0.632234 0.35296488 0.43156907 0.7943367 0.79887867 0.78354234 0.7339565 0.79712385 0.787444 0.47992605 0.3887031 0.45925218 0.48820603 0.45869237 0.4485386 0.4604308 0.44440192 0.20078538 0.24773298 0.4348016 0.44010177 0.262258 0.4185354 0.4739132 0.4499038 0.40869224 0.33950973 0.28546268 0.15495634 0.32019767 0.40071893 0.47418213 0.47361374 0.39895955 0.33816737 0.249789 0.23450369 0.17506754 0.40566275 0.45566723 0.39609438 0.19895643 0.19827683 0.37464884 0.12905116 0.16263944 0.02231349 0.5077777 0.45218605 0.6493399 0.2226329 0.5689906 0.43481553 0.30148494 0.5431386 0.44650674 -0.015258998 -0.013478208 0.17585126 0.20152509 0.35258955 0.34713995 0.19803064 0.23931219 0.3084001 0.4339466 -0.07589173 0.1948008 0.15034552 0.22160807 0.24836281 0.30102807 0.35876828 0.57178414 0.7925358 0.8552233 0.8601153 0.39776614 0.33086523 0.070603356 -0.038585827 0.16022472 0.2879031 0.8544117 0.8276502 0.39150906 0.30935633 0.14904423 0.8268416 0.8185568 0.3117575 0.28755134 0.17658652 0.22677007 0.6287508 0.7689514 0.7876104 0.20085242 0.15385725 0.10860881 0.4035819 0.62577236 0.71614933 0.3932962 0.334132 0.18232366 0.12834488 0.22885685 0.3450378 0.3719619 0.5319366 0.37956995 0.35435462 0.16165936 0.41593653 0.37842095 0.32334387 0.30080616 0.18925533 0.10341282 0.07054014 0.49572265 0.66170037 0.34074697 0.324704 0.2786636 0.19787124 0.15252687 0.19408244 0.26987356 0.20482484 0.6446798 0.70302457 0.6782061 0.34512872 0.31238842 0.2314696 0.09233058 -0.10498428 0.12697244 0.18447393 0.11120699 0.7595425 0.843106 0.89173317 0.7729709 0.7114289 0.33260164 0.31395376 0.20126936 -0.15409869 -0.0450133 -0.014520839 0.0383988 -0.0001107119 0.20433775 0.322658 0.37903255 -0.27147454 -0.036791 0.35669515 0.32050502 0.16224857 0.14636488 -0.019480221 0.260161 0.36496085 0.15365915 0.32525885 0.13035183 0.09528806 0.40395537 0.6150616 0.66862726 0.690398 0.27393472 0.23480119 0.18693823 0.5675334 0.6322799 0.65865123 0.31249493 0.31525895 0.21107222 0.44764692 0.560275 0.59191674 0.2933163 0.33904254 0.3412081 0.35862708 0.29634762 0.3332986 0.34432322 0.323555 0.3361261 0.3021555 0.28005853 0.17719147 0.09397728 0.06313618 0.33466756 0.26815072 0.18217428 0.17078424 0.39091772 0.35501054 0.33679843 0.2820007 0.18288212 -0.0042396896 0.22251384 0.20055854 0.11665657 -0.20720391 0.26217788 0.29281142 0.19179428 0.18831366 0.1941478 0.30025396 0.27999005 0.35796076 0.22595762 0.12773766 0.2022 0.62548053 0.31557974 0.19153671 0.18662293 0.2573507 0.37110984 0.7203747 0.2179131 0.22515075 0.284132 0.41138768 0.39947468 0.48944157 0.7735585 0.3618734 0.3660407 0.3506641 0.39246005 0.4424773 0.51881987 0.5140081 0.5577839 0.7799299 0.7840061 0.6595677 0.5305588 0.34403667 0.35778755 0.37320858 0.3575429 0.52332294 0.57369953 0.6022382 0.5988817 0.7824004 0.7815711 0.7346617 0.37652534 0.59149206 0.6104065 0.41486156 0.42467937 0.36817235 0.41934466 0.41908836 0.3909484 0.1925027 0.30667475 0.37940675 0.38394696 0.46345198 0.41394848 0.32756764 0.28557009 0.20019178 0.07220201 0.5287547 0.49552685 0.46188664 0.4151563 0.27601802 0.20007643 0.06285789 0.1461535 0.5344101 0.5212147 0.495788 0.16518745 0.5201506 0.10895395 0.11560836 0.5859603 -0.051699825 -0.016877174 0.355774 0.3767728 0.42951858 0.19197667 -0.10573399 0.015628263 0.4198517 0.40903825 0.37031376 0.34393182 -0.03833908 0.020001113 0.14990841 0.23372306 0.2698688 0.40556207 0.39522433 -0.05977904 0.2742588 -0.008261375 0.116407715 0.49162757 0.7248811 0.8193968 0.82982486 0.30629218 0.001952447 -0.049601056 0.011124298 -0.010486849 -0.14216185 -0.09259621 0.061936162 0.8244282 0.8179393 0.24465951 0.066516675 0.13230734 0.0840103 0.79990554 0.81163764 0.22515972 0.121722735 0.07931724 0.10852178 0.18626134 0.1675877 0.102853276 0.7429117 0.77513504 0.78793854 0.20328417 0.22360174 0.12962542 0.57261145 0.6648747 0.4114561 0.08724901 0.048360176 0.17854384 0.42958337 0.111200914 0.29305142 0.38707665 0.4135759 0.09266586 0.054785147 0.37835154 0.52670443 0.3640608 0.011119338 0.02597187 -0.059767067 -0.054636307 0.081674 0.066226244 0.53058386 0.6247048 0.38821846 0.3770772 -0.021242999 -0.061026894 0.7734464 0.6049831 0.6419792 0.3933859 0.32735068 0.073926255 0.24461928 0.70283437 0.32598484 0.12701102 0.01190716 0.22310731 0.2648888 0.13551682 0.18174821 0.46125573 0.71759343 0.2628111 0.70905995 0.7060685 0.32158607 0.3018309 0.65448225 0.2783092 0.3044827 0.5324831 0.55665827 0.26639485 0.28950936 0.4211149 0.5260504 0.20495136 0.28887287 0.1964306 0.28212002 0.23208404 0.24546719 0.21800122 0.087025955 0.05121325 0.26291233 0.022692155 0.013127623 0.22528334 0.0844992 -0.20314449 0.29112038 0.2517326 0.16973445 0.5880347 0.31241408 0.10295672 0.6423745 0.4701851 0.27394953 0.5486814 0.11845658 0.2995413 0.618638 0.1425614 0.18614721 0.41733432 0.6851994 0.3430981 0.27949968 0.4688444 0.7148661 0.71537745 0.37254518 0.4555392 0.48147228 0.5728632 0.51291955 0.7150553 0.73579466 0.35613364 0.38100463 0.37002057 0.46507657 0.5599691 0.60037047 0.5930687 0.55002284 0.0793821 0.09107655 0.09254091 0.269136 0.28444427 0.28021774 0.50242424 0.47802693 0.43112934 0.31682953 0.24898258 0.16611587 0.03627187 -0.108630665 0.09176135 0.2781044 0.23184851 0.23020202 0.5507608 0.5152627 0.18874432 0.20824257 0.6431812 0.5928649 0.1964316 0.67245257 0.13124423 0.70231456 0.0910111 0.6960407 0.6658623 0.16491191 -0.12837353 -0.01696524 -0.056685433 0.19294447 0.34143943 0.2332718 0.28838062 0.6715287 0.76024735 0.79629356 0.19408181 0.0911137 -0.28756797 0.80651045 0.8076389 0.16804935 0.086091526 -0.035653792 0.059560023 0.10242024 0.027254507 0.79616034 0.8009355 0.0846253 -0.16735962 0.058038615 0.12722786 0.1348117 0.056158736 -0.0054165125 0.7659819 -0.08141637 0.13551912 0.11573062 0.5122126 0.63010347 0.6957512 0.028552964 0.21850894 0.3955656 0.35725677 0.3631708 0.058398232 0.10372262 0.15985681 0.30738074 0.007088572 0.17904362 0.28350484 0.42120716 0.37032747 -0.14490189 0.5921601 0.39533293 -0.063149735 -0.060165644 -0.041673146 -0.020833638 0.40975317 0.56366575 0.4336183 0.41305277 0.083781525 0.5412104 0.4098178 0.20286636 0.34941489 0.35614884 0.363239 0.33478957 0.29083577 0.5690676 0.67387617 0.7358309 0.29495552 0.22499911 0.69079185 0.32121867 0.62752366 0.58274436 0.12611575 0.5625459 0.5271019 0.14041823 0.2156821 0.51268256 0.39007515 0.26334372 0.17550784 0.18232591 0.41427234 0.42541885 0.45419425 0.31287846 0.15874678 0.13244984 0.1329873 0.42199534 0.35219026 0.23795477 0.14794104 0.12257627 0.015744818 -0.41075683 0.27978727 0.40671283 0.23097527 0.18016261 0.4308696 0.29413366 -0.06908789 0.31504488 0.43782502 0.56111884 0.5776729 0.6038791 0.5962105 0.39196458 0.08396825 0.35843322 0.52125007 0.5899663 0.6577169 0.6587076 0.6575166 0.45320806 0.6591824 0.6841526 0.6858521 0.50094247 0.20510036 0.69550085 0.5204923 0.58843297 0.3416806 0.63137615 0.6278257 0.37721527 0.40623486 0.46341705 0.6408841 0.6392151 0.58458626 0.45140454 0.29818514 0.35262033 0.34390938 0.3932613 0.5156108 0.4958812 0.5031826 0.55320776 0.543108 -0.046587437 0.09143422 0.51198053 0.4739846 0.41976395 0.33419058 0.20704862 -0.061341707 -0.021433607 -0.15879254 0.24275923 0.31997737 0.29495296 0.5939674 0.54258543 0.26951852 0.7235458 0.66619295 0.21237673 0.78118074 0.19469188 0.78856 0.08506945 0.77647007 0.74060297 0.62361544 0.32728428 -0.0553635 0.58213925 0.063428394 -0.14433315 -0.22515467 0.13042015 0.13501349 0.0071733817 -0.070026115 0.71243095 -0.04047173 0.6070394 0.72239125 0.793573 0.06641881 0.7716094 0.06031676 0.03246645 -0.3558957 -0.064397715 0.12359242 0.5905751 0.7102291 0.20433946 0.11333421 -0.19419268 -0.34860015 0.04731727 0.13166684 0.047376476 0.5267186 0.24696982 -0.10433824 0.11587112 0.091027886 -0.009104811 0.08022881 -0.10525226 0.2621167 -0.08106068 -0.028774776 0.08507794 0.061699897 0.26284546 0.22845836 -0.07781838 0.015693927 0.32037228 -0.118210375 -0.06552519 -0.024412207 0.2992772 0.44285953 0.40192536 0.38886696 -0.058566093 -0.04084213 0.035617672 0.10358462 0.29125533 0.33496758 0.35845253 0.43721983 0.43722478 0.08070092 0.6705887 0.4498759 0.2678854 0.35416842 0.6432966 0.63007116 0.5694461 0.5682772 0.35831583 0.33006805 0.5355462 0.49601567 0.511395 0.50499254 0.20722468 0.25749472 0.37971812 0.6041722 0.4083056 0.35628426 0.17246354 0.56261945 0.25651932 0.1268029 0.55224365 0.064429514 0.48909718 0.46404868 0.3996271 0.25694245 0.46621096 0.5015615 0.47598594 0.44032472 0.43389452 0.58180034 0.5676979 0.057188805 0.25427303 0.5958716 0.49981397 0.37303632 0.2508734 0.069519974 -0.41254607 -0.3771375 0.51486546 0.41079563 0.2841911 -0.09550584 -0.083112426 0.14785574 -0.06906369 0.5050011 0.24897976 0.18645361 0.2510204 0.5892012 0.55685747 0.34617034 -0.1296867 -0.03479237 0.2057178 0.39364913 0.64520085 0.6181971 0.45592818 0.6317713 0.68341964 0.67137384 0.6637026 0.46165416 0.6678419 0.6854112 0.68063104 0.6809753 0.515249 0.57129925 0.27305263 0.5992734 0.5923163 0.57754946 0.49348134 -0.19275571 0.38181537 0.34074697 0.6115358 0.5845797 0.58726716 -0.045508865 0.018696263 0.24426341 0.39594296 0.6431711 0.36708993 0.39576316 0.40730047 0.6838288 0.571153 0.417616 0.662611 0.4497167 0.46559954 0.45220864 0.41410494 0.39583972 0.41530627 0.44603848 0.41580367 0.3935301 0.2143706 0.020701822 0.031862058 0.36493593 0.18252482 0.055479717 0.03185983 0.42565578 0.4796602 0.44143018 0.26894546 0.12662981 -0.031802494 -0.055327922 0.38833174 0.37803236 0.35635918 0.52541864 0.4202423 0.38278353 0.29298308 0.7014539 0.5491905 0.19994538 0.77182686 0.7578279 0.15050907 0.7816045 0.7634828 0.7769877 0.75119543 0.6385638 0.5331419 0.18326113 -0.005068168 0.03725039 -0.22109532 -0.15045439 -0.067179844 -0.08013462 0.06505914 0.033611614 -0.050979607 0.26801035 0.039474018 -0.06203849 0.51344657 -0.010190893 -0.22401735 0.28111467 0.47704983 0.14580014 -0.46114665 -0.041885458 0.00044270232 0.08272758 0.0031611994 -0.10754395 0.20137748 0.108703785 0.015087761 -0.5463152 -0.04394082 0.03173648 -0.026218124 0.20302922 -0.5292326 -0.07900049 -0.060165305 -0.10341418 0.27775538 -0.29086205 -0.042537007 0.054672718 -0.037075683 0.06496456 0.27974126 0.3737926 0.12319193 0.08854322 0.16872059 0.038189128 0.38861147 0.38878453 0.07904093 0.7140926 0.70767653 0.6699642 0.55380744 0.55227757 -0.10772287 0.17331395 0.3306306 0.33318245 0.34159058 0.6972107 0.6889354 0.52345955 0.28625357 0.6229493 0.5929971 0.49715444 0.28302708 0.27920312 0.5336145 0.49965307 0.3801754 0.52489406 0.32526276 0.43778726 0.1639604 0.3893146 0.45887864 0.34343803 0.56205183 0.64102423 -0.031913985 0.6870171 0.67875445 -0.28715378 0.6843084 0.57328814 0.44569278 0.2685776 -0.071249455 -0.16692528 0.32248884 -0.15527272 -0.11833498 -0.0067162886 -0.2783857 -0.17886162 0.5300939 0.28573865 -0.3504065 -0.26189712 0.207995 0.61228323 0.3783031 0.12562792 -0.058552667 0.53957874 0.67645025 0.6636317 0.44204795 -0.0051227957 0.6537546 0.6722332 0.67002255 0.6719744 0.49037558 0.49058282 0.15485846 0.5315515 0.52620864 0.47889844 0.21253668 0.2985535 -0.16721934 0.34418637 0.7925075 0.13150385 0.21841945 0.23447438 0.28982598 0.8223857 0.80383706 0.5756385 0.46647656 0.37317574 0.7674843 0.71500707 0.6439784 0.53411937 0.48970142 0.7093256 0.6748313 0.41618055 0.44841427 0.4539205 0.48240694 0.42194942 0.36361948 0.29819787 0.37560126 0.4077788 0.18172699 0.023387898 0.007092379 0.19529267 0.28542495 -0.04249175 0.48756367 0.5464628 0.5591918 0.51111704 0.35366327 0.22942668 0.42625546 0.38324374 0.35457796 0.35107318 0.2968404 0.54186726 0.34702286 0.18671972 0.35892677 0.7393913 0.6779692 0.37173012 0.35103852 0.5294889 0.58348775 0.74988705 0.70149577 0.62363446 0.20747557 0.52914506 0.5966711 0.74068534 0.70375276 0.089941666 0.16422318 0.06961094 0.12988038 0.5334411 0.5699535 -0.025913138 0.15207215 -0.107290134 0.35113215 -0.006820686 0.006749084 -0.0034428053 0.019667005 -0.14936362 0.026742794 -0.09995675 0.3308193 -0.091318086 -0.15868402 -0.35821897 -0.14568533 -0.5537