# vtk DataFile Version 2.0
Really cool data
ASCII
DATASET POLYDATA
POINTS 8934 float
69.276985 20.891201 117.61492
69.27321 20.955202 118.03803
69.303246 21.863731 116.99289
69.140205 21.651361 117.48473
69.11229 21.497822 118.24131
69.253456 22.239601 117.15002
69.207924 22.299082 117.51147
69.29401 22.34537 118.25002
69.3326 22.734896 117.45106
70.2547 20.28465 116.628296
69.95223 20.152855 117.51919
69.928635 20.037569 118.32228
70.34813 20.112257 120.90189
70.42702 19.758127 121.40777
70.22605 21.06211 115.97284
69.87341 20.71349 116.74712
69.55325 20.663641 117.34946
69.53203 20.507084 118.35324
70.38251 20.643543 122.11692
70.05286 21.4552 116.057365
69.69826 21.488426 116.46347
69.59113 21.449942 119.16385
70.31587 21.847912 121.76624
70.346436 21.538723 122.44737
70.12166 22.099373 115.9765
69.66189 22.536364 116.77445
69.44499 22.319761 118.73768
70.36585 22.296967 121.90099
70.387535 22.344702 122.53
69.78942 22.94397 117.030975
69.60343 22.930273 117.48422
69.785995 23.051798 118.20292
70.30351 23.178957 119.248726
70.129486 24.141 121.38443
70.10597 24.59452 120.00291
69.9009 24.696295 120.330246
69.93993 24.697561 121.43111
70.19149 25.735355 119.73879
69.66537 25.7066 120.77657
69.717606 25.552927 121.45822
70.05708 25.636528 122.198166
69.86904 26.244907 120.64457
69.730316 25.983782 121.496925
69.97674 26.28022 122.1507
70.30224 27.016602 120.82148
70.19154 27.715944 121.95662
70.1663 27.496557 122.42758
70.38882 27.284763 123.16181
70.35068 28.073404 121.938286
70.32054 27.974092 122.49744
71.25527 19.349592 120.16614
70.98801 19.214708 121.34825
71.04011 19.246265 122.14463
70.938675 20.325602 116.006294
70.63258 20.029387 116.883484
70.71613 19.815447 117.40694
70.35324 19.86316 118.33244
70.71632 19.555021 120.84494
70.6061 19.548143 121.55523
70.756355 19.802101 122.2324
70.91541 21.113089 115.29612
70.72636 20.702923 115.74852
70.50271 20.383812 116.310745
70.4849 20.750065 122.40791
70.98127 20.863718 123.26427
70.94759 21.560892 115.19537
70.46441 21.626175 115.52118
70.51053 21.279314 120.031586
70.80938 21.507105 123.30403
71.20898 21.572037 123.62522
71.00706 22.283428 115.302765
70.88565 22.499819 115.55236
70.74141 22.108269 121.018196
70.65139 22.729307 122.40569
70.88253 22.28912 123.188736
70.97017 22.914951 115.83269
70.34031 23.125834 116.835526
70.62442 23.397997 117.362335
70.49176 23.228836 118.68709
70.34033 24.818287 122.26843
70.90804 24.539131 122.76328
71.10867 25.163914 119.111046
70.451324 25.278296 119.46627
70.45503 25.6484 122.51171
70.89931 25.602848 123.06184
70.61638 26.358438 119.68459
70.6375 26.792562 123.2212
70.89873 27.08887 120.040634
70.64116 27.347027 120.55573
70.613625 27.538046 123.29141
71.19307 27.610672 123.99631
70.755875 28.013937 120.99592
70.70971 28.402534 121.76454
70.50388 28.241999 122.39577
70.82057 28.18595 123.34511
70.91175 27.954906 123.69084
71.19021 29.880322 109.749435
71.16089 29.909801 110.385796
71.170074 28.86135 123.11333
71.186874 30.782478 108.96461
70.97874 30.467476 109.64688
70.93397 30.6011 110.356094
71.27419 30.46569 111.13242
71.2294 31.435644 108.80913
71.02853 31.391474 109.48887
71.013824 31.27414 110.31296
71.1352 31.079277 110.91738
71.389595 32.337757 108.54663
71.29623 32.340965 109.50227
71.33892 32.12318 110.45977
71.42572 32.784107 109.31614
71.6218 19.380678 119.10653
71.31881 19.316502 120.135475
71.61799 18.934374 120.65777
71.713936 18.808958 121.5932
71.61751 18.944456 122.18322
71.88725 19.125475 122.82733
71.600365 20.084156 115.96726
71.44198 19.698175 116.579
71.41844 19.628553 117.187965
71.45834 19.563349 119.760086
71.56426 19.846638 123.13539
71.687996 20.878822 123.772934
71.60765 21.632612 123.880165
71.666374 22.39419 115.04502
71.55801 23.08654 115.701515
71.406204 23.607262 116.252625
71.8089 23.11254 123.1886
71.86807 24.143993 117.066345
71.71492 24.646385 123.23126
71.21845 25.801577 119.133995
71.67617 25.992334 123.83477
71.49312 26.179018 119.19269
72.04161 26.96427 124.473816
71.41391 27.218563 119.89416
71.7881 27.496925 124.455894
71.69081 29.423008 109.74902
72.12448 29.351788 111.03608
71.542496 27.945795 120.300255
71.72467 28.592806 120.67647
71.91881 28.308475 124.46514
71.55517 29.974152 109.07791
71.45573 29.589958 109.43549
71.43559 29.574594 110.32993
71.72088 29.72175 111.23056
72.06083 29.993631 111.764046
71.63837 29.130098 121.63164
71.81579 29.053965 124.02082
71.56605 30.574171 111.56884
71.895325 30.666843 111.82865
72.15262 29.836164 122.57736
72.18915 31.743345 107.22499
71.66663 31.563534 107.845695
71.652336 31.37924 111.539604
72.21267 31.465454 111.97238
71.730354 32.4114 107.78427
71.52913 32.55167 108.263115
71.46705 32.67363 109.60208
71.57094 32.72367 109.96977
71.77854 32.1607 111.20129
72.20079 32.87134 122.69054
72.34643 32.829018 124.64201
72.059456 33.139866 107.9149
71.9169 33.33891 108.617775
71.730545 33.156788 109.456535
72.0273 33.054287 110.58407
72.15193 33.06403 111.024506
72.125595 33.53037 122.564606
71.909 33.76234 123.30716
72.2188 33.616844 124.49981
72.43106 33.685444 125.203384
72.24147 33.691837 108.54553
72.13085 33.740223 109.523
72.294136 34.158638 122.21062
72.10819 34.3276 122.70377
72.01958 34.391903 123.39782
72.14653 34.396126 124.1198
72.419044 34.510765 124.97503
72.28564 34.887714 122.88621
72.22715 34.859364 123.435974
72.36752 34.882355 124.126686
72.41397 38.551228 115.980606
72.45081 38.666416 116.250694
72.43465 38.94488 115.701515
72.47251 38.96674 116.26389
72.45543 18.769258 120.02782
72.6581 18.585278 120.31468
72.267204 18.621323 121.50742
72.430855 18.771904 122.26058
72.29711 19.146528 122.881546
72.58435 20.13017 115.81288
72.45406 19.663761 116.79958
72.80396 19.56305 118.00508
72.52101 19.60172 123.23985
72.05097 20.395267 115.445656
72.4334 20.68935 123.80484
72.44006 21.413172 124.00758
72.43007 22.195805 123.86859
72.936646 23.139448 114.32831
72.78201 23.572083 114.70308
72.8293 23.727139 114.682945
72.836395 24.226307 115.74348
72.719444 24.436365 117.64779
72.449356 24.575012 123.37443
72.948906 24.61356 117.14162
72.5064 25.310825 119.210304
72.734825 25.593481 124.0351
72.321754 26.528664 124.42343
73.36543 27.037518 125.72037
73.38809 27.474262 109.86409
73.26964 27.806427 110.5518
72.13172 26.989044 119.66568
72.452324 27.43065 124.89881
73.38941 29.246328 104.67859
73.1673 28.719479 109.17671
72.97125 28.911217 109.440025
72.32735 28.381857 120.418304
72.95246 28.517736 120.45147
73.381226 29.754868 103.871765
73.36704 29.521101 104.43707
73.22025 29.872667 105.09126
72.30436 29.640585 108.94516
72.680984 30.012045 111.956566
72.47386 28.8702 120.783936
72.56818 29.576557 124.301155
73.14611 29.404606 125.065994
73.23062 30.458597 104.379845
72.99664 30.447605 105.42369
72.90233 30.121078 121.87545
72.50508 30.230371 123.07071
72.814384 30.246925 124.21265
73.24823 30.967283 104.69057
73.10894 31.47698 105.49952
72.838104 31.33088 107.0197
72.61571 31.34059 112.13321
73.02544 31.726074 121.82033
72.606186 31.342258 123.035675
72.59346 31.446829 123.70436
72.55748 32.008087 123.92015
72.506874 32.407333 111.840805
72.682236 32.57363 121.94672
72.54591 32.31242 122.48578
72.786835 32.74866 125.33803
73.4149 32.570335 126.968254
72.50059 33.51913 107.970634
72.42315 33.60215 110.71477
72.76865 33.692577 111.42192
72.96706 33.596645 111.89526
72.73247 33.721035 121.83699
73.048004 33.26764 126.42101
73.27083 33.504574 126.722496
73.004715 33.903206 108.218155
72.647644 33.862118 108.507126
72.596466 34.070763 109.50366
72.832054 34.26083 110.505775
72.84515 33.847137 111.47599
72.815834 34.33495 121.92213
72.50099 34.65868 124.67877
72.73924 34.535923 125.48794
72.90896 34.195946 126.06362
73.31144 34.79153 110.349884
73.262985 34.738506 111.174034
73.1826 35.698223 114.912834
73.18951 35.81145 115.38213
73.41535 35.632084 115.844536
72.56426 34.996006 122.73569
72.73652 35.42382 123.59288
72.67896 35.26229 124.43778
72.99683 35.36266 125.380165
73.231636 35.15709 125.98721
73.27471 36.55243 114.65267
73.14092 36.386024 115.343636
73.137405 37.012817 116.478065
73.118996 35.793587 123.92083
73.10251 35.757275 124.44797
73.2374 35.80657 125.34693
72.941475 37.58522 115.08284
72.71847 37.791756 115.49446
72.70252 37.75163 116.546104
73.006256 37.74291 117.23574
72.86574 38.577015 114.91659
72.581375 38.521873 115.35982
72.54184 38.449184 116.59251
72.80226 38.578968 117.29942
73.1539 38.450428 117.72213
73.089386 39.42638 114.838165
72.67006 39.26126 115.63131
72.71424 39.424786 116.33724
72.97579 39.22699 117.26636
73.35791 40.10121 114.9934
73.13355 39.967197 115.516266
72.98886 39.830273 116.47831
73.24167 39.71655 117.17932
73.72075 19.046103 118.871475
73.3772 18.651245 119.80757
73.49941 18.585606 120.18808
73.701004 18.7944 121.57509
73.15494 18.936872 122.341064
73.0492 19.158726 122.82147
73.309105 19.985518 115.8465
73.498505 19.720646 117.332954
73.146255 19.63243 123.083725
74.17369 20.83783 113.86345
73.62631 21.609398 113.66597
73.47602 21.191387 123.434326
73.29539 21.520876 123.736786
73.27228 22.669842 123.10831
73.4252 23.172565 113.87472
73.29335 23.871058 122.58479
74.386086 24.651594 113.11313
74.06725 24.299282 113.61798
73.37113 24.448484 122.85085
74.22624 25.224472 125.58636
74.05545 25.131142 126.28411
74.10646 25.14535 127.00697
74.322975 25.932121 113.62797
74.20521 25.015528 114.147484
74.09864 25.411484 115.567795
73.790436 25.654758 126.52536
74.03079 25.744368 127.465996
74.11301 27.14652 108.75857
73.86812 26.850416 109.66835
74.203064 26.567587 110.424355
73.97163 27.202787 111.11771
74.27107 26.108845 114.38258
73.14995 26.53165 119.844444
73.59503 26.629015 126.68655
73.694435 26.529243 127.33945
73.98376 26.515896 127.81143
73.75503 27.520319 108.90884
73.46933 27.433464 110.66442
73.66406 27.294296 110.9441
74.33553 27.763332 112.20825
74.39575 27.526827 113.48877
74.4119 27.717901 115.625305
73.74861 27.239473 127.37661
74.07677 27.451538 127.897415
74.1692 29.070295 103.29254
73.77928 29.032902 103.7363
73.6604 28.988008 104.51197
74.150635 28.203064 107.97193
[...]
POINT_DATA 8934
SCALARS features_00 float 1
LOOKUP_TABLE default
0.6654367 0.67207956 0.66692954 0.6823864 0.6804476 0.6531621 0.6490755 0.6179656 0.6132939 0.5717234 0.563346 0.5057805 0.481338 0.547309 0.6096794 0.61415154 0.63346076 0.608894 0.5787376 0.6236418 0.6473836 0.5724905 0.4107595 0.5315064 0.6041572 0.6166287 0.5802134 0.34444687 0.43120855 0.57880354 0.58295494 0.54383886 0.32447198 0.34991768 0.50625396 0.5726579 0.4778299 0.62063646 0.6342194 0.5516417 0.47566625 0.6411298 0.5683954 0.51515627 0.5903185 0.54112256 0.515285 0.46184576 0.52596533 0.5052015 0.41618928 0.55042386 0.6183808 0.5515455 0.52912724 0.4776114 0.4316119 0.4978543 0.568612 0.62705755 0.5897358 0.5835139 0.56960094 0.60181344 0.66107714 0.57141995 0.6001561 0.36764002 0.60529304 0.6368506 0.5014368 0.5059662 0.28425732 0.36210987 0.5291947 0.465094 0.5285813 0.4724669 0.44472122 0.39911592 0.30434415 0.5159026 0.59256035 0.44212037 0.38870203 0.57174486 0.43373942 0.5295577 0.54843456 0.4530565 0.3861829 0.5328133 0.51763964 0.4992761 0.4452988 0.4223895 0.64117897 0.6822889 0.43846798 0.6275941 0.6770039 0.6988491 0.6717329 0.55862737 0.6076017 0.6460247 0.6496887 0.5088959 0.5011439 0.5046369 0.47723746 0.3019595 0.41254264 0.4730624 0.5720099 0.61947894 0.6276455 0.49829054 0.46513802 0.42679763 0.36193988 0.682719 0.7060043 0.6543421 0.3594901 0.36625504 0.38445395 0.43769738 0.35093254 0.2651759 0.53696567 0.33334836 0.5064479 0.26652056 0.47773367 0.3162634 0.5319806 0.5647188 0.44842726 0.41461506 0.31426936 0.5557622 0.555066 0.62573683 0.64165944 0.58350337 0.45746407 0.3305465 0.62013817 0.5707737 0.32946488 0.43217784 0.4865594 0.55664366 0.48765677 0.5035335 0.50714487 0.47112453 0.44935086 0.46438807 0.5159333 0.3931105 0.4871648 0.47221127 0.44854313 0.40210485 0.38619113 0.57120574 0.5621742 0.47061616 0.40752208 0.45486385 0.4231208 0.60194045 0.60308325 0.5688 0.52360284 0.4675893 0.5930225 0.5677779 0.528306 0.61635673 0.6424558 0.61147404 0.6511827 0.39240137 0.42117667 0.5469198 0.56393015 0.59788233 0.40521806 0.36384505 0.27115422 0.6028714 0.494165 0.6970163 0.65721124 0.5953679 0.13214447 0.17435114 0.15257356 0.1930117 0.14179738 0.25038993 0.17266421 0.35577103 0.19787934 0.21690238 0.092450544 0.44769925 0.35906774 0.4131968 0.16181065 0.66356045 0.3589269 0.36716887 0.32340243 0.19840941 0.69794726 0.67977834 0.62580323 0.37967202 0.47643715 0.27264377 0.20535414 0.027899869 0.6553428 0.56451625 0.09019673 0.16952121 0.07242412 0.6111774 0.49163482 0.3933523 0.45078582 0.29326266 0.23093146 0.20401251 0.3239718 0.38455993 0.44799262 0.44255203 0.30028647 0.20484594 0.45800832 0.39361286 0.37187475 0.35013425 0.55142325 0.24902965 0.23511514 0.425941 0.44249156 0.41653532 0.4087819 0.3727094 0.60235703 0.4914691 0.42114908 0.34334826 0.42494944 0.4089775 0.35117733 0.34203506 0.32752553 0.5967566 0.54854184 0.51291454 0.4637519 0.40070122 0.37470138 0.36968783 0.44798118 0.5261634 0.5088655 0.46945715 0.46776462 0.5170593 0.5757109 0.5887046 0.5330828 0.56279093 0.65016496 0.6770278 0.648069 0.55618453 0.607607 0.6451455 0.67943895 0.5372976 0.573634 0.62798727 0.6478143 0.17621201 0.32675093 0.35468292 0.3915991 0.49199677 0.52510816 0.30430824 0.24959928 0.53027886 0.28492132 0.31291935 0.57753336 0.570349 0.375671 0.099300705 0.16031052 0.034418575 0.03622949 0.10599668 0.30268997 0.38362014 0.41291136 0.03139989 0.071654655 0.017409757 0.40788162 0.43417758 0.4855188 0.5050202 0.44113702 0.31018084 0.054111086 0.32232335 0.3432157 0.38816237 0.3946772 0.464033 0.35950822 0.32416964 0.06470057 0.01001928 0.11926641 0.31125098 0.30126584 0.751199 0.71877277 0.6787764 0.35708266 0.1438267 0.740805 0.71664345 0.68263334 0.51327777 0.26641548 -0.014561472 0.10133312 0.2769323 0.35416228 0.38751355 0.71412694 0.6836066 -0.041114636 0.11153963 0.13147691 0.27886254 0.3934139 0.41052637 0.6433115 0.5823734 0.2914128 0.2421939 0.22393644 0.23745233 0.37462306 0.3955251 0.4569611 0.30973393 0.26935387 0.32277733 0.32285243 0.22749668 0.3030644 0.36497238 0.32533592 0.24842718 0.31979036 0.43115968 0.21036524 0.28242788 0.42106462 0.34517464 0.10352246 0.4100694 0.35155988 0.5286588 0.32744884 0.22948715 0.42305157 0.4162706 0.3604467 0.3602003 0.3078276 0.26897797 0.5545914 0.40492952 0.36678892 0.34476668 0.42093015 0.5279129 0.50578606 0.47861058 0.4246734 0.39404845 0.5741741 0.5557519 0.45875445 0.51504993 0.6189443 0.4668823 0.5196733 0.63583624 0.6390419 0.48351032 0.5048211 0.53261465 0.5849713 0.58816624 0.48836237 0.5001003 0.6189416 0.6307788 0.52208686 0.42770106 0.25804952 0.30301163 0.27497083 0.3967203 0.60024965 0.56748515 0.47822592 0.4153788 0.27625227 0.41868246 0.40548548 0.43126082 0.42578515 0.3083713 0.22448835 0.19729625 0.16682097 0.18787389 0.2958584 0.013388902 0.1915038 0.33437833 0.40887105 0.5115266 0.46445155 -0.029190302 -0.00666219 0.42466444 0.49014997 0.51910055 0.28175357 0.04835105 0.071207516 0.3395173 0.7423965 0.6770637 0.60824007 0.4258026 0.114256084 0.29151893 0.2173646 0.77801174 0.751626 0.5514009 0.029684916 0.14778988 0.15715788 0.09424294 -0.10174194 0.28674713 0.31371126 0.7641548 0.08481307 0.16493516 0.12561668 -0.3029356 0.36318696 0.36423612 0.72356117 0.23954073 0.019252732 -0.032214582 0.40234894 0.38895458 0.6496619 0.12236425 0.12649715 0.18944046 0.12219273 0.113452256 0.4064922 0.39943683 0.47736266 0.33437693 0.098165795 0.23208165 0.25439563 0.27298373 0.31286472 0.39513 0.38806817 0.29411525 0.19302846 0.30376709 0.25109234 0.2656132 0.3659609 0.31904617 0.26572558 0.44695958 0.1739451 0.23308316 0.34943986 0.35310882 0.25976232 0.22925329 0.36286616 0.18252371 0.020544067 0.43727082 0.43804687 0.33366302 0.28626487 0.26636484 0.46570092 0.5533381 0.58926487 0.568829 0.4805743 0.48655054 0.5051466 0.5240816 0.49510002 0.49097112 0.4886205 0.48184955 0.47471812 0.5012133 0.7582289 0.67608434 0.57979363 0.3453105 0.6952764 0.70038676 0.40359405 0.09972372 0.07880372 0.16442062 0.19933277 0.6570341 0.6290344 0.52662385 0.57331294 0.47329772 0.41962826 0.3779561 0.11725197 0.22806166 0.18647842 0.24627733 0.2355735 0.19950935 0.1513926 0.21121405 0.30009913 0.4946776 0.32305157 0.44190353 0.7315072 0.7049253 0.5956598 0.48399213 0.28826028 0.30276167 0.056198616 -0.075398855 -0.07764086 0.12835923 0.7668151 -0.10737571 0.253079 0.7901242 -0.17974588 0.3087271 0.73287076 0.03221596 0.3743459 0.643481 0.07201324 0.36376208 0.37368798 0.09559101 0.36213487 0.0633426 0.038933437 0.19933727 0.13519809 0.3508798 0.17777792 0.26775777 0.32993138 0.3412122 0.22701219 0.18067905 0.084483355 0.10305099 0.26172566 0.31558847 0.10253104 0.09014352 0.029689895 0.1865977 0.22458166 0.2847298 0.08884095 0.4308856 0.109028116 0.13235486 0.48226172 0.35069463 0.52252984 0.45121205 0.46490425 0.4929899 0.4705342 0.49683347 0.41773152 0.4108775 0.43656778 0.49374342 0.51763177 0.50327194 0.44125012 0.40861762 0.4751612 0.47460562 0.7712034 0.7719906 0.6183832 0.30395117 0.24367219 0.31629622 0.41889432 0.3179628 0.72744817 0.75231576 0.03844685 0.6632391 0.5924435 0.20893012 0.4885751 0.415322 0.19649473 0.18094745 0.1742831 0.3448206 0.1673373 0.12341349 0.10236424 -0.04470995 0.25005215 0.668514 0.6353364 0.5709388 0.48500615 0.20897591 0.013673782 0.68373406 0.026049169 0.7276472 0.19211559 0.68808377 0.28909272 0.46698505 0.2537688 0.2468777 0.0813359 0.27319932 -0.12702505 -0.19437623 0.3208365 -0.13749586 -0.2168477 -0.27374217 0.32150653 0.040150605 -0.07851535 -0.17077368 -0.49148643 -0.2270373 0.32677627 0.32123235 -0.13140842 -0.09880299 -0.122695014 -0.29005134 -0.20417139 0.29853144 0.31073543 -0.035649955 0.16572852 0.30254537 0.05703329 0.05445507 0.093320474 0.2592334 0.3014011 0.41414493 0.41897202 0.22066459 0.011496045 0.14247361 0.38712552 0.460882 0.4402732 0.35551205 0.30490214 0.4243955 0.4236789 0.4046021 0.40065694 0.3599915 0.42364278 0.34030825 0.35478115 0.44056344 0.45956206 0.50335974 0.38567287 0.5205962 0.5701479 0.40853155 0.4286239 0.47297817 0.54166174 0.51903844 0.47612524 0.71514547 0.66647685 0.5428026 0.3558102 0.34136534 0.41684973 0.33369446 0.7065654 0.69875956 0.27413663 0.6701712 0.5915762 0.21799222 0.47751927 0.16556835 0.17014873 0.092628375 0.4409901 0.5800352 0.6201408 0.22896674 0.07904439 0.2667979 0.5488247 0.575559 0.45953268 0.4657169 0.1848978 0.079339534 -0.04449867 0.39608824 0.3963939 0.23263338 0.18787768 0.21491778 0.6176566 0.5875306 0.56415826 0.4690315 0.417799 0.22521429 0.008767299 0.610354 0.54879814 -0.027499558 -0.050140113 0.56802416 0.44361895 0.1429341 0.18280753 0.2438676 0.18300986 0.06641209 -0.032438505 0.29644847 0.32763875 0.23186286 0.17215496 0.08598521 0.10505421 -0.014522627 -0.24871942 0.29551917 0.2807498 0.37043944 0.22562945 0.20472835 0.15709586 0.1520969 0.13039286 -0.32010037 -0.299222 -0.20862103 -0.22422025 0.25958306 0.24162266 0.21716452 -0.28834468 -0.15761308 -0.23595184 0.11634162 0.2955799 -0.096232705 -0.102655694 -0.013597935 0.025725894 0.2009628 0.26220757 0.2143297 0.092806965 0.2727675 0.2043731 -0.008729294 0.3499895 0.35652837 0.30176318 0.25247946 0.3564284 0.22328457 0.17122576 0.283608 0.32920355 0.3613621 0.38943434 0.39004478 0.26248032 0.8444128 0.8150406 0.77069044 0.85684764 0.82567936 0.7816509 0.8462019 0.8336569 0.5361186 0.52997833 0.62597215 0.64168453 0.63122475 0.4357593 0.4792015 0.47894555 0.58913714 0.5774355 0.6391488 0.55073 0.4394654 0.43636954 0.6049149 0.5097509 0.41140383 0.32870358 0.6447729 0.5623763 0.265957 0.26316658 0.19930808 0.45371985 0.19988073 0.16784391 0.33530316 0.07377043 0.2754866 0.4567235 0.62830627 0.64728194 0.29426757 0.621992 0.5554634 -0.13962123 0.48888767 0.4892262 -0.05858679 0.3523628 0.276116 0.51056933 0.47818393 0.45537254 0.12486911 0.1635723 0.5180121 0.48478943 0.046187352 0.47353268 0.47736743 0.08737016 0.0934474 -0.051574398 0.11715154 0.6236441 0.5480914 0.5060767 0.2544325 0.15129668 0.6212038 0.5846378 0.57363987 0.41517636 0.31187612 0.3038899 0.27883664 0.5654892 0.48550025 0.4378857 0.40400833 0.34741756 0.50891215 0.43902844 0.42173654 0.40210873 0.3788818 0.31892732 0.24682684 0.11478327 -0.08224039 0.2392692 0.43659633 0.42969897 0.39857018 0.35853422 0.1861958 0.2512422 0.30021393 0.26789522 0.04729024 -0.048097923 -0.18560338 0.18269923 0.4207474 0.30252075 0.3196335 0.34140974 0.2994664 0.17718625 0.15709016 -0.10250599 0.22814803 0.28351304 0.00032691658 -0.045152325 -0.08291117 0.11121839 0.25204664 0.06676226 -0.004227087 0.19104645 0.07156578 0.06986664 0.17320843 0.25870216 0.16591291 0.26610097 0.037190594 -0.031673178 0.035155118 0.04611218 0.107900664 0.20509158 0.19360301 0.22964221 0.32056218 0.33638868 0.28418797 0.15833607 0.79425335 0.7549888 0.72550404 0.79533947 0.83977705 0.71208495 0.7910954 0.83728623 0.74009573 0.77087545 0.8317883 0.80090034 0.7340939 0.73885053 0.78454983 0.78085816 0.7364986 0.7705946 0.7570418 0.59895915 0.69767594 0.70517623 0.68360746 0.47199583 0.53283405 0.60313654 0.6660639 0.6242544 0.36400023 0.5101673 0.47497612 0.29723537 0.31818807 0.49708295 0.32361794 0.29901928 0.20751706 0.2817382 0.2829639 0.33108371 0.28182256 0.108350515 0.5851713 0.6249361 -0.092329904 0.07530676 -0.053194296 0.03902286 0.5482758 0.6568811 0.64723 0.5349273 -0.23185638 0.5467317 0.5602907 0.39508873 0.2947235 0.22897908 0.07861333 0.14631392 0.392411 0.3656278 -0.578199 0.1209296 0.40513495 0.31925493 0.11542197 0.08270775 0.1023674 0.0041270405 -0.0062634647 0.1029641 0.72680926 0.631542 0.5094308 0.17812279 0.07451809 -0.0015705898 0.10799348 0.75104797 0.70436776 0.63387716 0.5805883 0.33383358 0.21592863 0.0034217355 0.77048707 0.6952765 -0.042093776 0.7880132 0.70128536 0.030568242 0.6861023 0.5266457 0.12657873 0.6347753 0.53962696 0.4602335 0.14740655 0.59921825 0.47884932 0.42990756 0.39853805 0.3340837 0.2927501 0.19224721 0.26838037 0.30439216 0.34191337 0.05412558 0.26304516 0.32135814 0.23319 0.25484687 0.3058055 0.31069008 0.035119727 0.08495883 0.13905609 -0.042226233 -0.042846866 -0.03895944 0.036042698 0.28185874 0.14140368 0.20652072 0.21569669 0.118755445 0.035692774 -0.26334786 -0.002673544 0.052109458 -0.00022564828 0.046727262 0.1976483 0.32400984 -0.01733964 0.27511656 0.21173719 0.3057987 0.58567834 0.6783366 0.6765562 0.5867376 0.0754139 0.3107897 0.48840123 0.4598407 0.6705427 0.5744334 0.09336233 -0.0014593527 0.34131467 0.56422883 0.62810105 0.57829446 0.5108012 0.64631903 0.2523452 0.5653055 0.6554981 0.6531831 0.61782223 0.52836657 0.65465724 0.6348791 0.5461966 0.67809534 0.6725085 0.66448545 0.739642 0.73527205 0.66739583 0.6595912 0.7329167 0.7257874 0.66231614 0.71715724 0.71595275 0.6992275 0.5279256 0.5743096 0.668542 0.71800125 0.7131758 0.6834511 0.4878279 0.5373826 0.6496477 0.59455645 0.31391582 0.40339395 0.49088043 0.27646244 0.31484452 0.23488374 0.33429086 0.26846522 0.29278767 0.18681714 0.13046925 0.111247964 0.12607957 0.26720515 0.24372226 0.21392155 0.17347915 0.0898149 -0.002570956 -0.18532778 -0.082610205 0.09311108 0.2117469 0.5515506 0.043085225 -0.36585233 -0.25101894 -0.050947502 0.5541367 0.57513845 0.46695286 0.42738956 -0.5020453 -0.4310285 -0.32750732 -0.27296397 0.44844002 0.43392408 0.24659725 -0.049316674 -0.4213004 0.3026854 0.22775288 0.16492128 0.15957657 0.30851552 0.327716 0.14349388 0.09272905 0.07246321 -0.07207462 0.09443363 0.026420712 0.10849148 0.10447012 0.74615765 0.722423 0.61586183 0.47067317 0.49658495 0.21604717 0.1549269 0.046656862 0.079232775 0.7829309 0.74203765 0.8357034 -0.23357923 0.7903721 0.7597613 0.053439066 0.10195121 0.76638305 0.7201165 0.13378261 0.117452845 0.71058226 0.61740077 0.5847529 0.46028024 0.36679766 0.2983302 0.07993268 0.14553347 0.6514604 0.60779035 0.5465235 0.22531168 0.2847058 0.22680071 0.28744274 0.28109205 0.24943128 0.15322763 0.27314276 0.21839947 0.111564055 -0.017821066 0.0148562305 0.34451017 0.32797694 0.02226153 0.054564983 0.015404761 -0.098199494 -0.0118635595 -0.2740636 -0.21635723 0.37571642 0.38596946 0.022882782 0.31664908 -0.22104071 -0.14350173 -0.12596014 0.2969467 0.3437871 0.368772 0.32255933 0.42402732 0.5001884 -0.13424456 0.27764916 0.51670706 0.3790925 0.59881496 0.40688878 0.29307303 0.6260929 0.67164254 0.64707386 0.6112603 0.42723262 0.45285144 0.4699683 0.6341008 0.63853014 0.67702544 0.7158462 0.7094554 0.6940048 0.5618603 0.6571343 0.7000232 0.695418 0.66870373 0.42663896 0.51583695 0.57404447 0.60280055 0.57344824 0.61347395 0.40263426 0.47675276 0.43118095 0.44155306 0.30350235 0.25894988 -0.18881656 0.34555683 0.38711193 0.3249668 0.4235149 0.5036582 0.5304959 0.41276705 -0.20366511 -0.23842591 0.12208718 0.25784066 0.039755993 0.27352005 0.11754955 -0.3873761 -0.36983168 0.3551668 0.26396 0.21155342 0.36391377 -0.14289795 -0.45435303 0.19094287 0.19726439 0.4545245 0.4197622 0.3996114 0.2946603 0.40941745 0.3703819 0.29517046 0.45847 0.30270162 0.45458537 -0.07486466 -0.053410936 0.12704633 -0.02167235 -0.070322886 0.05475583 0.037241533 -0.06744102 0.047056988 0.07304563 0.6944477 0.6072974 0.48764783 0.18875161 0.12321529 0.038067922 0.83062935 0.76711106 0.6850629 0.59394777 0.33165032 -0.24662462 0.82419914 0.7587379 0.77434623 -0.100726224 0.7500688 0.75097847 0.06662587 0.757066 0.09732868 0.75998163 0.25356835 0.05354532 0.064947486 0.14264803 0.122040205 0.7436495 0.7173834 0.6559664 0.5474008 0.4138397 0.33547205 0.08316699 0.19772467 0.16048995 0.21972851 0.24494824 0.22694173 0.25706005 0.18926449 0.06231104 0.33630884 0.059185266 0.404302 0.0892392 0.05891227 -0.12863381 0.2841681 0.36374572 0.01869835 -0.028378636 0.2223443 0.21808939 0.28434893 0.26006097 0.3833363 0.3200546 0.30574015 0.5206507 0.269046 0.29851955 -0.084612384 0.63144284 0.5986388 0.5909029 0.3145492 0.34668335 0.18003751 0.10855097 0.3738556 0.18930155 0.3629674 0.3398957 0.22146153 0.38269323 0.4221068 0.41156477 -0.06707772 -0.278098 -0.24962528 -0.06788388 0.16192666 0.13592032 0.3527562 0.33439136 0.14531377 -0.06698946 -0.069359526 -0.024771508 0.11015681 0.11596488 0.48507226 0.47887468 0.37674895 -0.09641983 0.30088484 0.42891794 0.48497927 0.4773597 0.5206889 0.37376288 0.3737144 0.50625765 0.5501369 0.2502281 0.49063253 0.49928474 0.019988865 0.38942224 -0.025529359 -0.26226756 0.004172722 -0.05151441 -0.012219191 -0.11903168 0.14190468 0.0481347 0.7500552 0.65577054 0.52718425 0.3997282 0.2374422 0.26864946 -0.28434864 -0.2839595 0.7737863 0.76217437 0.62461835 -0.21070012 0.7525896 -0.06871274 0.7546267 0.74412584 0.032381512 0.7562394 0.75305057 0.027800947 0.76338786 0.76260823 0.30732796 0.10665107 0.06547869 0.759069 0.7531134 0.70754725 0.6072754 0.38533112 0.18268591 0.031119432 0.18368338 0.19018684 0.20815139 0.217796 0.15467738 0.048811868 0.36658436 0.31804845 0.03652528 0.06552404 0.08233993 0.4071191 0.13146281 0.11224553 0.3478957 0.39786458 0.13907625 0.20310229 0.14634514 0.19982871 0.28904673 0.45736462 0.22451712 -0.15088947 0.53832316 0.23496126 -0.0953189 0.02339422 0.30571926 -0.035463974 0.35086048 0.34709626 0.31630734 0.32266328 0.30767843 0.24862215 0.35101902 0.36222443 0.39796436 0.22738747 0.10485431 -0.2301184 -0.026997995 0.34783673 0.3008657 0.30779278 0.23964876 0.18709347 0.17172801 0.1415115 0.15506455 0.49732512 0.46621072 -0.07753941 -0.2774135 0.3078907 0.42075527 0.49470776 0.47409216 0.5158215 0.39078313 0.5780839 0.270585 0.56163085 0.113943055 0.28969517 0.46305245 0.12592702 0.25440016 -0.13383992 -0.3494255 -0.18187243 -0.15422212 0.02845859 0.16165215 0.20039584 0.0767742 0.10884528 0.16894406 0.18969044 0.28923252 0.20744118 0.11815106 -0.14726421 -0.0021641254 0.14978842 0.18525648 0.74234056 0.32410774 0.32857704 -0.22603104 0.059783783 0.15018748 0.7386933 0.7381743 0.6603776 0.47554284 0.2774349 -0.13282835 0.73722017 0.7233243 0.68012595 0.48188272 0.19194958 0.7409333 0.72988856 0.7089406 0.68487453 0.19957872 -0.065309085 0.74636316 0.74354637 0.7329826 0.6475873 0.36025202 -0.09847258 0.7528607 0.30619934 0.2784404 0.17744765 0.07631253 0.053093612 0.13750654 0.10951136 0.14475682 -0.017812274 0.031821683 0.35479486 0.097278394 0.14018734 0.3168265 0.34441102 0.17893784 0.15493974 0.121655956 0.16532853 0.1560165 0.17379868 -0.018846504 0.16565564 0.0272725 0.13347396 0.11428388 0.107279606 0.047039997 0.100538336 0.20433535 0.087306075 0.09910107 0.1745351 0.18101989 0.20616503 0.4001947 0.32831812 0.2194199 0.1700376 0.18823034 0.204586 0.31282172 0.30532053 0.3926502 0.4456576 0.423441 0.26537612 0.30170688 0.30471927 0.28498212 0.32339954 0.34910804 0.39679572 0.2753016 0.30306154 0.2292512 0.21552357 0.13238426 0.20825398 0.11339243 0.09958649 -0.014033634 -0.03328339 -0.21438412 0.13659489 0.19604737 0.22550464 0.46865982 0.43269855 0.3256955 0.1124689 -0.39876127 0.27348822 0.37058783 0.4480483 0.41399306 0.48653132 0.3882333 0.5341966 0.30885157 0.52478933 0.22593956 0.17756963 0.4208162 0.0026635788 -0.14110643 0.107186966 0.1484312 0.13415457 0.18261084 0.21088366 0.06647879 0.21064404 0.20738116 0.32891384 -0.10756174 0.19105408 0.18590727 0.32818905 0.2735372 0.05198737 0.13896987 0.16869071 0.17761813 0.019011304 0.11576465 0.28903213 0.3416431 0.040097006 0.21260342 0.36625618 0.34344637 0.17272176 0.33712292 0.50134957 -0.036756217 0.16792789 0.38954863 0.39265287 0.2495473 -0.03178049 -0.047441974 0.009840481 0.07354203 0.1315189 -0.06960205 -0.19995171 0.025598299 -0.03954102 0.1773804 0.17181562 0.07616921 0.1924684 0.20746587 0.24516544 0.23780575 -0.12943365 -0.10309208 -0.033263914 0.1331615 0.13366756 0.33720812 0.42312968 0.43932995 0.41994256 0.26170602 0.33697015 0.425444 0.51773655 0.49631253 0.37568092 0.3266546 0.2728794 0.24074107 0.5213228 0.48171395 0.42227232 0.3417869 0.40124452 0.46130764 0.4656695 0.4342442 0.32120508 0.3774573 0.29121763 0.28414387 0.31829292 0.32628557 0.2777689 0.1813999 -0.14765698 -0.03782313 0.16139388 0.23147821 0.16383477 0.116957575 0.055076007 0.19355024 0.1828979 0.37909156 0.27004105 -0.04442974 -0.28656766 0.21644074 0.3874088 0.3072232 0.2953341 0.3501289 0.35415912 0.25460595 0.36451387 0.20312664 0.067059726 0.11834493 