# vtk DataFile Version 2.0
Really cool data
ASCII
DATASET POLYDATA
POINTS 10301 float
32.222446 36.849316 49.497272
32.293064 36.891277 50.081676
32.27047 37.628365 48.099003
32.05323 37.574833 48.566658
32.00932 37.517326 49.5421
32.180305 37.44225 50.15417
32.312145 38.076317 48.053223
32.14859 38.318047 48.499367
32.05558 38.28606 49.47867
32.177006 38.164387 50.119015
32.232304 38.80688 48.995567
32.342556 38.928642 49.671757
32.453403 46.033237 66.46038
32.45149 46.41818 65.72351
32.446335 46.475838 66.25885
33.301544 35.99506 47.725674
33.030865 36.019627 48.398365
32.829147 36.091393 49.095985
32.768642 36.872875 47.833294
32.550636 36.409946 49.469727
32.62794 37.00641 50.61643
32.63902 37.12459 50.826115
33.219513 37.404232 47.284237
32.698124 37.567543 47.631424
32.416718 37.137985 50.434605
32.576744 37.8188 50.735146
32.956905 37.962868 47.39407
32.50292 38.380856 47.91972
32.534897 38.700832 50.343605
32.85016 38.16919 50.97807
32.65765 38.80313 48.139675
32.66952 39.10818 48.550957
32.606533 39.33803 49.386417
32.735584 39.206577 50.180355
33.29029 39.606606 52.94527
33.01814 40.03774 53.749153
33.02994 39.84957 54.53395
33.112087 39.90412 55.21733
33.336697 40.707012 52.058453
33.05193 40.435066 52.649315
32.873962 40.71474 53.55203
32.722775 40.696983 54.655445
32.896717 40.620388 55.29528
33.23029 40.646572 55.89547
33.363377 41.241352 52.159992
33.05612 41.314373 52.928825
32.969975 41.290062 53.343544
32.838406 41.34101 54.568413
32.96057 41.29954 55.369923
33.22979 41.242428 55.79414
33.39136 41.81443 52.75019
33.314617 42.086056 53.72537
33.10701 41.977207 54.733875
33.202232 41.85952 55.25819
33.2599 45.155666 65.06653
33.1469 45.061512 65.63066
33.11827 45.09602 66.26379
33.2393 45.280853 67.22009
33.039536 45.76342 64.843025
32.68933 45.777184 65.54258
32.638813 45.76336 66.43048
32.903778 45.793915 67.138756
32.809895 46.530323 64.95469
32.57315 46.580494 65.415726
32.55442 46.449154 66.609695
32.769104 46.46547 67.147934
33.004414 47.01429 64.964874
32.816948 47.160995 65.646706
32.780403 47.17486 66.37597
32.99413 47.13797 67.10893
33.21356 46.860283 67.61234
33.184864 47.60308 65.91436
33.134136 47.58562 66.14043
34.200993 35.29456 47.187004
34.070316 35.091557 47.77629
33.98569 34.961483 48.54869
33.830208 35.150276 49.458225
33.904213 35.72697 47.083576
33.758 35.59864 47.54909
33.426056 35.444794 48.439327
33.53972 35.597282 49.534077
33.91768 35.473503 49.966354
34.274597 35.93968 50.858612
33.897224 36.546658 46.872818
33.85858 36.652573 51.234062
33.618103 37.235073 47.144905
33.70653 37.545834 51.70607
33.313427 37.93531 47.32297
33.430218 38.48231 47.527405
33.80124 39.042923 53.266396
33.980877 38.8569 54.423138
33.80664 39.185997 55.318535
33.527565 38.997 47.735302
33.485126 39.636528 55.514236
33.98374 39.623627 55.983704
33.627033 39.658104 48.556404
33.894028 40.40535 50.861286
33.67642 40.469624 56.18907
34.21525 40.538597 56.59221
34.240955 41.780674 51.2302
33.879078 41.503063 51.657074
33.403526 41.5762 52.295357
33.64079 41.359634 56.169468
33.795372 41.861996 51.963024
33.75163 42.37995 52.939938
33.614887 42.450413 53.451595
33.564445 42.38097 54.488888
33.66646 42.275 55.474598
33.775036 42.16873 55.846943
34.159054 42.9088 53.035614
33.783066 42.702404 53.44299
33.97147 42.794178 54.35473
34.1348 42.80526 55.321674
34.178513 44.30388 64.9286
34.10866 44.320175 65.54001
34.057343 44.314564 66.29995
33.772617 44.780807 64.89043
33.51697 44.70402 65.82554
33.474125 44.780083 66.51749
33.665485 44.839504 67.17335
34.226593 45.043766 68.188644
33.837646 45.78494 64.10441
33.807255 45.336662 64.3423
33.43518 45.558823 67.582954
33.69487 45.61211 67.92625
33.680035 46.700405 64.37263
33.34607 46.740566 64.50381
33.620995 46.474564 67.86195
33.99118 46.774265 64.2916
33.563362 47.290165 64.89737
33.424423 47.479897 65.28908
33.30184 47.54358 66.80642
33.314415 47.169464 67.41166
33.542835 46.930164 67.68471
33.5563 47.643444 65.65764
33.723354 47.71368 66.45816
35.3549 29.139187 50.959293
35.253998 28.881685 51.56128
35.146973 28.678318 52.437027
35.10295 28.71931 53.480225
35.27185 28.823374 54.026325
35.172096 29.781685 50.950504
34.959625 29.540964 51.66075
34.95042 29.406784 52.40465
35.00434 29.308886 53.42871
35.118168 29.340235 53.894905
35.285442 30.020405 50.64589
34.894608 30.228594 51.477894
34.97492 30.32352 52.099613
35.02011 30.372465 53.284187
35.154594 31.34812 51.09152
34.839455 31.195381 51.55355
34.73512 31.33318 52.36528
35.03316 31.346083 53.231
34.83228 32.079155 52.41758
35.365887 33.096397 54.250874
35.153706 32.865074 51.983227
35.026577 33.692665 53.31338
35.21739 33.687912 54.42963
35.295456 34.02479 54.79988
34.60595 35.204723 47.170918
34.877087 34.871975 47.637527
34.98795 34.49768 49.53271
34.48057 35.34633 50.256844
35.05857 34.42466 52.789104
34.88491 34.753704 53.270412
34.928913 34.54113 54.21349
35.26806 34.13327 54.814114
34.432842 35.75452 46.82154
34.86158 35.698647 51.338337
35.034534 35.764133 53.503857
35.068665 35.300873 54.41028
35.30033 35.356953 54.77135
34.436356 36.353905 46.627148
35.047062 36.233242 52.661766
35.17228 36.15976 53.872906
34.766357 37.240337 46.796886
34.720837 37.805843 53.426758
34.844486 38.14149 54.169456
34.413513 38.266853 47.254177
34.52704 38.706665 47.543896
34.850655 38.653214 55.3835
34.698673 39.17817 55.88218
34.639717 38.98156 47.58012
34.425556 39.70165 56.28428
34.999977 40.05691 56.733547
34.79499 39.869312 47.97043
34.937332 40.349857 56.87014
35.352608 41.262665 48.072273
34.498283 40.922073 49.95696
34.63741 41.538616 50.862724
34.6186 41.31281 56.79202
35.385063 42.08607 48.384567
35.243973 42.42498 49.439987
34.671726 41.901966 51.093864
34.47591 42.39777 51.831642
34.641094 42.318737 56.56241
34.716 42.032463 56.679813
34.43035 42.877533 52.213078
34.383774 42.98103 54.600014
34.554333 42.986267 55.671074
34.871525 43.195675 56.03523
34.616016 44.136063 64.58004
34.615814 43.944153 65.51215
34.504284 44.104164 66.461716
34.8647 44.058918 67.25466
34.954346 44.35692 67.91911
35.265877 45.081017 52.04816
35.17782 45.102676 52.33235
34.535496 44.959312 63.738308
34.528984 44.559258 67.765686
34.64418 44.834732 68.30112
35.222115 45.469524 51.533924
35.108944 45.601795 52.37388
35.268463 45.859425 53.207954
34.90223 45.430653 63.372944
34.48789 45.550495 63.600742
35.389534 46.420967 51.33353
35.11715 46.607635 52.421097
35.409054 46.17537 53.87321
34.882023 45.973827 63.430508
34.857864 46.440384 63.801605
34.828003 46.764797 68.37697
35.268295 47.105354 52.895264
34.924404 47.931873 54.103386
35.288975 48.032116 54.815323
34.567837 47.001354 64.39484
34.49739 47.299263 67.71368
35.29282 48.971703 51.71843
34.90844 48.714172 52.66457
34.823143 48.442764 53.53625
34.899254 48.531525 54.3414
35.24893 48.402176 54.88459
34.13782 47.572655 65.44103
34.31525 47.85777 66.15402
35.28672 48.73699 68.36942
35.403717 48.613148 69.28843
35.376183 49.757725 50.81849
34.993782 49.44425 51.83199
34.760685 49.58709 52.77918
34.75145 49.53266 53.546013
34.910988 49.393353 54.28522
35.21962 49.185017 54.902977
35.022762 50.519802 51.71517
34.83762 50.409386 52.60659
34.91895 50.242355 53.429108
35.048985 49.977924 54.179684
35.140324 50.994484 51.853394
35.093353 51.081177 52.587433
35.26704 51.162163 53.170734
36.178135 27.346645 52.540867
36.20266 27.319132 52.999977
35.898846 27.965683 51.784344
35.857704 27.663027 52.65083
35.833534 27.712595 53.408356
36.01378 27.949236 54.139618
35.68521 28.896736 50.784973
35.557644 28.597996 54.21507
36.145653 28.627335 54.75008
35.946613 29.340569 50.309883
35.517445 29.728222 50.48944
35.647156 29.477877 54.469765
35.965454 29.568756 54.688572
35.434013 30.080675 50.56883
35.50257 30.255 54.064472
36.08926 31.35804 50.25658
35.6826 32.927425 54.206272
35.193066 34.406425 48.49318
36.20464 33.759987 50.854496
35.42402 33.438465 54.533047
35.286858 35.185276 47.179916
35.32381 34.816372 47.639103
35.689377 34.58223 48.216675
35.527645 34.636936 55.099365
35.672535 35.61095 46.928555
35.776424 35.24004 55.24757
35.37226 36.3827 46.646896
36.082478 36.64676 54.51929
36.076107 36.22174 54.985535
35.11103 36.910496 46.684994
35.71372 38.117386 54.468422
35.281853 38.93402 55.614536
35.601875 39.34933 56.046925
36.009575 39.76045 47.00145
35.596367 40.02993 56.934723
35.99054 40.635563 47.072693
35.739883 40.617546 57.212605
36.10898 41.32625 47.149944
35.592163 41.339268 47.79019
35.273415 41.442486 57.065926
36.23343 42.20194 47.344486
35.808598 42.477936 48.02277
35.746464 42.624195 48.228275
35.4664 42.47898 49.769733
35.57191 42.263496 56.915283
35.968086 43.24676 64.51534
36.052223 42.84512 48.10197
35.97146 42.990837 48.468216
35.666107 42.93115 49.150097
35.74212 43.417305 50.888668
35.70566 43.926594 51.282536
35.37719 43.560707 54.551006
35.360813 43.509563 56.18835
35.636143 42.9981 56.640694
36.080925 43.98827 63.282997
35.75214 43.79575 63.852264
35.359905 43.628796 64.513016
35.598602 43.690296 67.02826
35.434727 44.191322 67.968636
35.595192 44.44722 51.17408
35.49674 44.543343 52.80341
35.75933 44.83721 53.90148
35.408253 43.66529 55.405685
35.62865 44.768604 63.236202
35.322296 44.54108 63.482487
35.287247 44.42464 68.28468
35.50148 45.732418 51.027805
35.54863 45.209846 53.39678
35.717842 46.066257 54.102604
36.364494 45.948017 55.40527
35.325745 45.56101 63.245766
36.43731 45.513424 71.62539
35.579784 46.892467 50.85723
35.476124 46.854885 51.294125
35.80909 46.499405 54.624664
35.37609 46.546432 63.7496
35.837593 46.34868 69.14852
35.500484 47.669 52.20777
35.82236 47.461323 55.056313
35.490833 46.96262 64.154
35.22801 47.429802 64.92818
35.479893 47.600914 68.88488
36.246086 48.95237 49.16087
36.138905 48.462738 49.538967
35.65596 48.735813 50.697067
35.62192 48.47253 51.26651
35.461636 48.797287 55.20158
36.054214 48.008114 66.40743
35.56842 48.75891 69.61679
35.799946 48.770374 70.06346
36.002243 50.10691 43.743465
36.014534 50.03773 44.3663
36.17278 50.09907 44.9091
35.757225 49.24258 49.892433
35.556206 49.384254 55.066177
[...]
POINT_DATA 10301
SCALARS features_00 float 1
LOOKUP_TABLE default
0.66238415 0.5771748 0.6690901 0.7350428 0.67169964 0.59093595 0.6441741 0.6902531 0.68590117 0.61586094 0.69428223 0.65323216 0.8719433 0.9177407 0.90563333 0.6584033 0.6592061 0.63091195 0.6618755 0.62308526 0.5053833 0.49163735 0.5761305 0.60695034 0.54544735 0.5330651 0.5654678 0.6150063 0.58545446 0.48944235 0.6104835 0.6316437 0.6169272 0.5441701 0.512586 0.5979838 0.6466457 0.661639 0.30178082 0.43508944 0.5469546 0.66453946 0.6868007 0.67410016 0.3069086 0.41754153 0.47182047 0.60108733 0.65018827 0.66002834 0.3580715 0.4423918 0.53194433 0.57741964 0.70924926 0.6856562 0.6834661 0.6748844 0.8552462 0.86604196 0.83234304 0.7925154 0.88816273 0.9089097 0.8871697 0.8455881 0.8314585 0.8599014 0.86767817 0.8311795 0.77336836 0.81100214 0.8217089 0.6440137 0.6270702 0.6126902 0.5323798 0.6529598 0.649093 0.61878777 0.52881604 0.45772076 0.31811872 0.6272605 0.31894174 0.57059854 0.23289883 0.5348169 0.50603724 0.4291914 0.44012904 0.5196799 0.47543195 0.6078843 0.55032957 0.42709208 0.08058696 0.6414651 0.6026673 0.12627369 0.21239972 0.31577882 0.6483826 0.25375012 0.34672934 0.39595532 0.46267962 0.53281415 0.565558 0.2978326 0.37781534 0.40992877 0.4643386 0.5558487 0.53234583 0.5092288 0.6195656 0.5954987 0.590762 0.5589742 0.4667555 0.73390967 0.71721405 0.6931846 0.6485197 0.7328204 0.7848241 0.69974613 0.67835635 0.733966 0.7630686 0.7989807 0.7712946 0.71800315 0.75163513 0.7396867 0.56211126 0.59305066 0.6630703 0.62347424 0.5639323 0.53278023 0.53964084 0.5817463 0.571103 0.5368959 0.52493095 0.5021405 0.50525117 0.50498325 0.4626422 0.46648198 0.44686547 0.3571614 0.35765788 0.3835793 0.26382935 0.33692628 0.42949486 0.43091047 0.62928176 0.60336864 0.5310557 0.39245728 0.27779302 0.36653093 0.44308513 0.43300223 0.6442466 0.14317125 0.35570058 0.44571313 0.4279738 0.63194406 0.04840462 0.3550519 0.51759875 0.021472096 0.24470277 0.4025226 0.34541875 0.35671735 0.4331177 0.29259118 0.51343334 0.5100742 0.16531429 0.5469435 0.26790422 0.024665525 0.057815045 0.62525225 0.2847448 0.12494191 0.059480518 0.15504037 0.5915014 0.6131501 0.16670795 0.387675 0.47979742 0.51121867 0.5440029 0.47706294 0.45897594 0.39506048 0.36960244 0.22471994 0.22721533 0.61517745 0.4360273 0.38965166 0.22761768 0.24333818 0.22466369 0.6150948 0.64594555 0.24885055 0.26806316 0.20049433 0.61901253 0.599811 0.38059983 0.27133432 0.35488778 0.3183961 0.58474475 0.51016134 0.29958424 0.36692527 0.41268307 0.41518 0.35844964 0.63837266 0.6126342 0.31874117 0.29853332 0.3704152 0.40002888 0.49821964 0.50966215 0.47377908 0.41104734 0.5215611 0.5452546 0.5312338 0.48788303 0.5474766 0.5484147 0.52693605 0.5727496 0.58324593 0.60881096 0.6145841 0.6458719 0.61603016 0.5692295 0.566645 0.51750886 0.53546596 0.5356593 0.49547973 0.47148144 0.52246153 0.45309463 0.44255117 0.3565479 0.6089703 -0.053688094 0.41515946 0.5908841 0.57688797 0.53934205 0.408724 0.56306744 0.3626604 0.58674175 0.21579395 0.27524716 0.5557088 0.09432483 0.35545868 0.38560498 0.15626943 0.48169333 0.2261137 0.57914364 0.2893738 0.28572944 0.63540626 0.33617067 0.3239377 0.31751585 0.056803312 0.6173881 0.36868668 0.3349166 0.31531554 0.2147527 -0.14944214 -0.054213047 0.22932507 0.5281236 0.59864867 0.44664782 0.4538821 0.45033377 0.29558924 0.28580907 0.092073075 0.16278505 0.03548871 0.39531383 0.51534706 0.53403944 0.3045146 0.20962103 0.1749236 0.16968066 0.11584017 0.5797555 0.52419215 0.23074508 0.24003316 0.16269952 0.5373742 0.32418782 0.22927274 0.19363311 0.46619 0.4201336 0.15714729 0.21852008 0.16837037 0.21192722 0.2060213 0.354208 0.07543267 0.3114039 0.28072932 0.8579606 0.75130475 0.6288026 0.27614462 0.38078892 0.32694897 0.36077845 0.40981224 0.36972424 0.34801486 0.3598038 0.97564924 0.9349984 0.8518201 0.63414955 0.4019211 0.43337423 0.40567747 0.43604904 0.4085643 0.41604537 0.9880135 0.9561607 0.8775998 0.7994856 0.39562753 0.4646576 0.5380973 0.5094894 0.47502023 0.47131136 0.48528615 0.9434765 0.885468 0.8092215 0.6788385 0.51761395 0.5155449 0.50174296 0.7996739 0.74203277 0.6894288 0.54108727 0.56782717 0.5728733 0.5450177 0.564698 0.58598936 0.50767726 0.51331925 0.5406531 0.4830575 0.5029162 0.44625938 0.40618005 0.4703138 0.3525056 0.2928694 0.34265494 0.4979399 0.30518156 0.17000769 0.50596035 0.45234817 0.24768172 0.27544203 0.2737682 0.108855434 0.24564481 0.3567577 0.59145045 0.21241668 0.4818846 0.5163653 0.5900357 0.27196297 0.25108138 0.5819186 0.30521995 0.5994506 0.33416516 0.34721124 0.5608172 0.36999568 0.31268266 0.27239972 0.35995024 0.34712565 0.4701823 0.39868987 0.39348066 0.43636966 0.4823162 0.4251995 0.102508605 0.36343366 0.48494852 0.52698076 0.086068824 0.09536474 0.3387485 0.4706729 0.4650097 0.5136913 0.5340419 0.50616956 0.2444778 0.121854305 0.41123223 0.48368162 0.5809527 0.45120203 0.46079266 0.42950532 0.112634845 0.23858656 -0.015536711 0.2128067 0.3802665 0.43533137 0.29268706 0.3745265 0.3527795 0.61698395 0.11087869 0.16588886 0.14730892 0.20922412 0.31031173 0.37785095 0.4572013 0.2581426 0.28792906 0.30401793 0.8904824 0.8134745 0.61225796 0.3905275 0.26221913 0.2544789 0.23072875 0.27465397 0.27439418 0.9222439 0.25105822 0.34442145 0.3736067 0.2505704 0.27984637 0.33819798 0.40197504 0.9473454 0.5857212 0.35864434 0.41323626 0.35046312 0.29997665 0.34156 0.38880017 0.46282887 0.48500133 0.4655179 0.4189218 0.90377116 0.3859974 0.45063016 0.44617087 0.44862676 0.42879763 0.47732496 0.45141315 0.84522593 0.80094707 0.7402751 0.6996043 0.6482866 0.7972892 0.78776455 0.7494608 0.4823218 0.49132335 0.46441257 0.39400452 0.36341092 0.44680148 0.41203174 0.3492933 0.28400776 0.062107112 0.18262582 0.124656394 0.17121635 0.12881202 0.0933864 -0.000621099 0.02310814 0.050671056 0.03712295 0.06588383 0.091814384 0.23412463 -0.0041897655 0.44064248 0.5046103 0.5564141 0.58137715 0.21284619 0.42969602 0.5062094 0.58327365 0.6190736 0.24497885 0.29465604 0.22496201 0.40414315 0.50100124 0.6183644 0.54654384 0.28454688 0.26204142 0.22081472 0.4508983 0.5668325 0.3311504 0.5091896 0.048142325 0.36966288 0.37247765 0.38314295 0.3013185 0.37164193 -0.14195944 0.3458924 -0.108336136 -0.1119412 0.11300655 0.28973705 0.4304273 0.4964284 0.2131845 0.07166646 0.0819511 0.36395186 0.38744348 0.39540866 0.3963466 -0.12246859 -0.0959707 0.51980853 0.5162337 0.3972469 0.43493342 0.48796833 0.4076736 0.47153458 0.40095723 0.17608425 0.69464827 0.34751922 0.41613632 0.36084628 0.17327641 0.12435906 0.07214028 0.34544683 0.3250013 0.5888126 0.2832092 0.15247755 0.10862304 0.31079024 0.05587547 0.29968596 0.7802042 0.7390957 -0.008242361 0.13574082 0.20022401 0.20373535 0.822639 0.13509886 0.13339475 0.24398082 0.35619497 0.28347433 0.8512324 0.24504489 0.20792255 0.27261764 0.30461928 0.36595833 0.83454096 0.6372813 0.29439965 0.27568117 0.2541646 0.28659877 0.27089614 0.29924098 0.37219235 0.4294239 0.41157624 0.79656476 0.81000245 0.7122351 0.8307915 0.84613264 0.8561454 0.79907775 0.6571367 0.5993319 0.786138 0.6963292 0.6676183 0.7850125 0.7703052 0.6997125 0.84016657 0.7980266 0.39522436 0.38077033 0.33595484 0.32119384 0.36927834 0.31166312 0.2890246 0.3196027 0.11610613 0.31634098 0.29069224 0.19203381 0.13375118 0.4191944 0.3320333 0.3023757 0.26158026 0.21211205 0.36930776 0.33942714 0.27851707 0.23517089 0.119748846 0.32304865 0.40822202 0.3060608 0.20445287 0.22395188 0.33987367 0.38856167 0.17573397 0.33890718 0.18446755 0.16963993 0.19424632 0.26843506 0.44421494 0.4576506 0.4427745 0.30931878 0.2869153 -0.14005978 0.37110382 0.4376929 0.507113 0.5227388 0.49763185 0.33713293 -0.07515944 0.33306345 0.22754605 0.09001022 0.36431804 0.48983234 0.32595956 0.3310331 0.25521338 0.15091926 0.21317953 0.28634873 0.39712512 0.34494337 0.24262735 0.17311466 0.25719228 0.4000054 0.18510067 0.117968686 0.03121879 0.1501512 0.06900905 0.41984192 -0.043678623 -0.008135751 -0.060213372 0.19173642 0.3952988 0.3221045 0.03975966 0.18654132 0.26015094 0.24017623 0.24021974 0.35215777 0.46995777 0.48789155 -0.06127368 0.32565662 0.3006972 0.3331195 0.48360416 0.28857404 0.31173295 0.37315518 0.06851554 0.37264547 0.3065317 0.2662968 0.5902585 0.23851329 0.049534768 0.28959015 0.5128908 0.22441114 0.073163986 0.27860186 0.33796817 0.508713 0.14017926 0.0490477 0.6431837 0.6433619 0.122714944 0.07240678 0.2049388 0.28231302 0.7140838 0.2467849 0.21562827 0.16049266 0.19471362 0.75817764 0.25999993 0.20769465 0.16795096 0.090966865 0.18175788 0.3329485 0.3298126 0.28592265 0.22322369 0.20582381 0.2381665 0.3440477 0.26040456 0.75497174 0.760533 0.72433865 0.1315406 0.30212954 0.2376163 0.8281376 0.86851037 0.8709754 0.8089552 0.3547645 0.4649258 0.4092684 0.41952085 0.47014943 0.65271884 0.63937616 0.6051886 0.59828234 0.5847441 0.84657824 0.7879915 0.67673236 0.6587113 0.95400345 0.8626473 0.7504605 0.71893364 0.7126856 0.9536855 0.89568686 0.8384215 0.78949386 0.898885 0.87062883 0.3520227 0.3244734 0.3062663 0.26812768 0.18640439 0.26728597 0.23860487 0.19118573 0.33769634 0.28445792 0.051146336 0.3341647 0.37802446 0.40104935 0.34120744 0.3511166 0.43888167 0.4773338 0.46291035 0.3381167 0.4578383 0.486816 0.5706987 0.5025238 0.51943576 0.5834859 0.4020286 0.44198698 0.5514333 0.43583035 0.5852554 -0.15482305 0.47739106 0.31490636 0.27916145 0.36726037 0.38950786 0.16388543 0.32323694 0.38901085 0.39058465 0.4107415 0.13423225 0.15699285 0.4178602 0.32478046 0.13556753 0.19051395 0.38652945 0.39408946 0.36223757 -0.17311808 0.37349406 0.3903672 0.36261705 0.41920885 -0.067863435 0.35146117 0.4316971 -0.08141676 0.27953622 0.46588993 -0.19715714 0.24613957 0.18986689 0.11432478 0.104939386 0.45981106 0.44756022 -0.32958245 0.1932756 0.08731333 0.36321062 0.43087536 0.45416683 0.43036824 0.4141971 0.23855165 -0.00071626995 0.46677697 0.47541144 -0.05426848 0.20556594 0.18728605 0.16628796 0.46542352 0.4309074 -0.2220077 0.2597543 0.35241517 0.21552306 0.29517522 0.42920738 0.29477635 0.34893757 0.40895587 0.40356556 0.0024134964 -0.079565555 -0.24234687 -0.5280911 0.32332212 0.38106596 0.40050492 -0.06514733 -0.03846678 0.39748257 0.44782722 -0.05695048 -0.060209304 -0.35130712 -0.14711079 0.32826358 0.3763041 0.4993955 0.18883193 0.023062654 0.01565364 0.2665367 0.58310574 0.21003588 0.1315167 0.09503243 0.025438715 0.037448667 0.17190388 0.37777358 0.31603086 0.037565067 0.069323815 0.20801458 0.7142614 0.6841693 0.58112764 0.19930165 0.28303802 0.3833542 0.15713444 0.1662722 0.16877553 0.05442952 0.13345419 0.07643872 0.18214074 0.16566625 0.18808438 0.7683471 0.7897383 0.7462684 0.7345213 0.22164956 0.24588914 0.2127088 0.06871682 0.38420868 0.316668 0.3420376 0.30264932 0.33695439 0.5291119 0.5088318 0.4478944 0.43692583 0.734383 0.6421216 0.5910526 0.84389 0.80673355 0.64506793 0.6332345 0.9721745 0.99354476 0.7098849 0.97940993 0.93954206 0.85411793 0.80426836 0.75377214 0.9586688 0.9323624 0.88712645 0.84074384 0.3174662 0.32983893 0.32326832 0.30390975 0.32448342 0.2978308 0.20260632 0.00063496083 -0.0230833 0.056185894 0.7049259 0.62024915 0.48877335 0.33212024 0.20304272 0.16713798 0.21730177 0.41008615 0.7190897 0.5905373 0.42611775 0.5389968 0.75829864 0.70867455 0.6484357 0.71340823 0.6512104 0.57719445 0.70595765 0.6753757 0.70156395 0.6757734 0.6026093 0.565036 0.4933721 0.52318305 0.5064287 0.4551003 0.48163903 0.56066835 0.47466415 0.42232367 0.41117227 0.3599578 0.39944243 0.4146185 0.2112991 0.34420124 0.41080076 0.22181647 0.16702518 0.28014636 0.29601943 0.35807246 -0.05709914 0.11673342 0.40632665 0.020995082 0.29064006 0.39594126 0.35253572 0.18338105 0.15263712 0.4396476 -0.202649 0.10644053 0.47551882 -0.122299805 0.10988669 0.4713068 -0.22288364 0.036512278 0.45726943 -0.34078482 0.4158069 0.44499847 0.3704479 0.046682447 0.4360789 0.45737845 -0.24093026 0.072499625 0.018028501 0.23442744 -0.24485455 -0.19939213 -0.27810743 0.3731831 0.2639751 0.324989 0.35264477 0.37098795 0.385895 0.37244576 0.4186616 0.39736962 0.37747222 -0.15248758 0.44687545 0.43369973 0.42688695 -0.09734456 -0.25199413 -0.404795 0.37640178 0.4998011 0.4767626 -0.13842452 -0.38316336 0.32433286 0.5928402 0.5249572 0.522218 0.3866121 0.2073978 0.003006868 -0.039856113 0.014192585 0.35071242 0.06806907 0.062124826 -0.005770188 -0.32412046 0.24873601 0.3036375 0.59985745 0.6254514 0.5490056 0.38369694 0.17979419 0.24439791 0.3024152 0.29996896 0.13704419 0.12746769 0.11006084 0.00095355883 0.02280155 0.16689816 0.26245213 0.6922517 0.3482282 0.21702604 0.14237101 0.16838905 0.16451666 0.1949405 0.14105344 0.34736148 0.14909782 0.26896852 0.34123307 0.3463113 0.40163332 0.46899146 0.35843682 0.38180965 0.4457858 0.45029572 0.5602531 0.49494272 0.87388545 0.599955 0.90603197 0.67210674 0.65010834 0.95138955 0.9450555 0.78106415 0.7836609 0.69689363 0.9418055 0.9195548 0.872054 0.30260214 0.33429623 0.34241542 0.32705614 0.23491392 0.26651645 0.09347831 0.66567373 0.5575193 -0.012016838 0.8340213 0.7693378 0.6924683 0.39319587 0.25220764 0.16723162 0.12820436 0.22726014 0.82558405 0.7692932 0.558019 0.82667565 0.57307655 0.7691549 0.5797624 0.7480741 0.73139155 0.35699683 0.5901038 0.5550163 0.7565776 0.74166167 0.768113 0.376453 0.54927236 0.58727187 0.58572084 0.52001023 0.5313718 0.5425708 0.5184802 0.7845974 0.6710656 0.21648541 0.49744928 0.5240456 0.44475728 0.28411615 0.027285278 0.2251037 0.33610305 0.29228124 0.2022322 0.4054686 -0.05542405 0.3408171 0.39321655 0.20705993 0.32202226 0.44061956 -0.0082638115 0.19244792 0.40452772 -0.14495899 0.19549818 0.06453906 0.434848 0.34286165 0.36380166 0.3170289 0.39194316 0.35244834 -0.072237514 0.33434594 0.28612784 0.25059792 0.3456611 0.39196897 0.34014022 0.41754478 0.37237436 0.36705676 0.44986373 0.389978 0.46006346 0.45106024 0.41561276 0.49604672 0.45877975 0.25989443 0.38316023 0.5056362 0.49485582 0.37166864 0.1183728 0.037091836 0.05206807 0.36708736 0.18259421 -0.07630393 0.22243659 0.32347333 0.357233 0.2027834 0.26791084 0.43471894 -0.016740836 0.055221714 0.32579178 0.37770924 0.3028133 0.39556706 0.43322337 0.51061755 0.49910352 0.46161348 0.24589767 0.52268577 0.54303396 0.52712786 0.7951211 0.54061425 0.8756759 0.80681646 0.593595 0.5731717 0.87348115 0.83790505 0.78765213 0.6759872 0.6367061 0.8969319 0.83087623 0.24718794 0.2654882 0.32157198 0.33165282 0.24174604 0.23879507 0.24719822 0.28847885 0.29245988 0.7125202 0.67588127 0.5548482 0.2904535 0.18625161 -0.015492056 0.015242934 0.77923554 0.8637104 0.8294096 0.76033664 0.89654946 0.49150914 0.89397275 0.45126075 0.8248751 0.36560288 0.77771664 0.78676426 0.25902534 0.5842153 0.587158 0.5783644 0.5500854 0.55852014 0.7692586 0.7766402 0.60490143 0.46480274 0.17926893 0.17313269 0.5848861 0.5456332 0.5615914 0.5280185 0.7321632 -0.26048738 0.11005682 0.28311712 0.4890456 0.4562075 0.35234082 -0.32226762 0.22538733 0.11382784 0.0043522716 0.29258546 0.27267122 0.3262349 0.30052918 0.15382537 0.38325477 0.41006532 0.3494463 0.40521538 0.33535904 0.336376 0.32076737 0.17981079 0.31485754 0.41399497 0.08311391 0.43071106 0.39091307 0.37292352 0.41689426 0.20180738 0.47456217 0.24914372 0.46597183 0.42583758 0.3712318 0.43999153 0.45337087 0.43525347 0.39080566 0.087427475 0.18923606 0.12808353 0.14780514 0.16457447 0.037190005 -0.02757055 0.39522636 0.39209434 0.16619398 0.11280707 -0.12723936 0.3718483 0.20987368 0.21102813 0.30776513 0.34686786 0.3560365 0.18133278 0.23069224 0.42991987 0.29904652 0.33291638 0.49964648 0.4553376 0.50640357 0.09753768 0.4321242 0.4911852 0.5325668 0.56794554 0.5297985 0.65783966 0.6461709 0.429731 0.38405183 0.77028376 0.71672666 0.6336638 0.56965995 0.49583304 0.7883873 0.24506983 0.24889004 0.28046533 0.21520986 0.62373376 0.64781064 0.6399863 0.27922913 0.24205618 0.23720342 0.20323762 0.1279782 0.6310171 0.6654479 0.65959793 0.6638404 0.31764263 0.30847412 0.29751438 -0.042195648 0.7222614 0.7235056 0.7207866 0.32509956 0.31405446 0.60927975 0.75907075 0.7880547 0.7721423 0.75612694 0.8642967 0.7623411 0.55658585 0.36710572 0.6168573 0.73446786 0.7797804 0.9060695 0.87872577 0.8051865 0.8866799 0.82440925 0.2794183 0.23039228 0.1334573 0.8299053 0.79118836 0.6412084 0.39957055 0.23484026 0.16284782 0.7856697 0.6901927 0.48111862 0.3712771 0.25103173 0.073072806 0.5421526 0.5442346 0.5284017 0.7845665 0.7762692 0.52504987 0.46561474 0.04489928 0.5359962 0.4486429 0.48822725 0.5256161 0.5320048 -0.23241624 0.0008167699 0.30428398 -0.41558996 -0.10817439 0.08759614 0.07104942 0.2512895 -0.20317513 0.08190202 0.2600928 0.3416844 -0.028374702 0.38461572 0.3977974 0.23191158 0.062906116 0.4389186 0.11051768 0.20657954 0.08291072 0.19870979 0.39919102 0.376538 -0.18089299 0.46269274 0.47098124 0.2297966 0.4392367 0.3651296 0.025898904 0.37816113 0.005000081 0.46187127 0.3671242 0.27077538 0.32462665 0.35800916 0.36723465 0.31607407 0.24768752 0.24983606 0.20340446 0.14132933 -0.06305296 0.36899942 0.37397122 -0.16649547 0.3570704 -0.10936689 0.2294863 0.30874908 0.33236372 -0.0820397 0.33455825 0.2756668 0.3966766 0.24599658 0.27162144 -0.14830548 -0.16493642 -0.15646791 0.17814584 0.43091625 0.47339457 0.53971756 0.54868877 0.5002465 0.44828415 0.5405432 0.44771278 0.4371481 0.21636486 0.4991529 0.5280759 0.26023132 0.2564802 0.24339816 0.22515734 0.20418604 0.61348 0.6159916 0.5996101 0.57475865 0.2531362 0.23438457 0.24476013 0.13054147 0.6277837 0.6046201 0.6077257 0.3248508 0.28568178 0.6696889 0.41712415 0.3978179 0.36171108 0.73849577 0.46860176 0.39954773 0.742519 0.7526433 0.7828922 0.7230178 0.49643937 0.43153986 0.44373327 0.5881244 0.77137 0.6485654 0.4541512 0.22299458 -0.105192944 0.11037588 -0.358969 -0.18255877 -0.28665707 0.39741075 0.401712 0.37302414 0.34672552 0.44331557 0.0963631 -0.37966806 0.21903276 0.347481 0.20861171 -0.54044616 0.03415898 0.06847937 0.26519477 0.2178379 0.15630217 -0.55032176 -0.5763336 0.0036418512 0.24312255 0.31229097 0.13370247 0.35715228 -0.060590588 0.39110035 -0.08761487 0.34916288 0.025691949 -0.402853 0.39754736 0.13580114 0.37315536 0.41062558 0.43848464 0.25594318 0.43222827 0.44409662 0.4066887 0.35240233 0.37635124 0.4169047 0.43776977 0.47992098 0.3706321 0.49504375 0.48633102 -0.38626707 0.32503167 0.2787913 -0.35781655 0.15355587 0.11441071 0.03306633 0.11753022 0.061664984 0.35795838 0.2975672 0.37851256 0.5376797 0.16223887 0.06292946 0.049671322 0.511878 0.443286 0.39006746 0.41836816 0.13907653 -0.15520486 0.27184743 -0.17570816 0.19216202 0.31537902 0.04082663 0.18617676 0.20867649 0.120129414 0.05958312 0.27614808 -0.034493685 -0.07073994 -0.23036857 0.3920718 0.35061225 -0.15421395 -0.2131556 0.43641302 0.46037254 0.48547804 0.49602503 0.42656532 0.48644483 0.26829126 0.23161796 0.13862027 0.14417563 0.14321668 0.3524407 0.57608676 0.5257262 0.5259463 0.25168458 0.2853936 0.5108786 0.5337268 0.2745496 0.60908127 0.41243213 0.34169275 0.6427151 0.45123172 0.4238511 0.646757 0.37147585 0.40918696 -0.30475807 0.19428751 0.41025174 0.5505973 -0.26476994 -0.056896314 -0.17974117 -0.2515639 -0.19432361 -0.46619725 -0.4494859 0.11727449 -0.4354236 0.25296715 0.25307536 0.14856854 -0.43745667 -0.092610896 -0.06979531 0.07363865 0.105335124 0.13716197 0.02379354 0.19004263 0.6003896 0.29491016 0.26052648 -0.11685071 -0.123262264 -0.013268689 0.023019098 -0.060870185 0.5493056 0.2578371 -0.32029694 0.23770984 0.17021362 0.22994992 0.29340208 0.015735261 -0.07378949 0.34287962 0.3383773 -0.022645839 -0.048822746 -0.6063494 0.39288712 0.37862515 0.19021562 -0.36480862 0.42591 0.42615435 0.34660587 0.2870684 -0.211818 -0.07072037 -0.20527336 0.45587334 0.4575675 -0.020669825 0.4380992 0.53488237 -0.14830038 -0.079442315 -0.034154847 0.090628915 0.39644706 0.5145545 -0.021492707 -0.12106395 -0.07240225 0.40806708 0.29946503 0.21746548 -0.07440419 -0.14901099 -0.4903686 0.1658357 0.3356451 -0.070065886 -0.24626577 0.2646539 0.36257553 -0.09524408 -0.17441009 0.29129013 0.3919367 0.47333384 0.028097063 0.3450664 0.5645882 0.65050316 0.5229739 0.13500041 0.021690518 -0.093842715 0.33988288 0.38003856 0.62394583 0.6060935 0.59140503 -0.017083755 0.17206204 0.062040985 0