# vtk DataFile Version 2.0
Really cool data
ASCII
DATASET POLYDATA
POINTS 10295 float
53.221767 -14.815884 18.263218
53.199535 -15.08458 18.712523
53.144497 -15.077335 19.428598
53.25538 -14.889818 20.096571
53.124195 -14.319658 18.175442
52.896866 -14.33784 18.596184
52.838703 -14.460015 19.326694
53.007565 -14.396488 19.852766
53.174484 -13.731563 18.13875
52.957077 -13.652627 18.519728
52.86043 -13.595837 19.447622
52.966095 -13.532143 19.998276
53.097565 -12.779387 18.820244
53.138012 -12.250881 19.430073
53.19835 -12.523227 20.217321
53.381992 -11.792939 18.971617
53.31693 -11.701812 19.474415
53.340694 -11.83873 20.122038
53.387154 4.8604283 67.97646
53.358574 4.8707347 68.38952
53.417896 4.912698 68.85933
53.369328 5.24663 67.93218
53.356915 5.470612 68.44152
53.43264 5.3522053 68.88867
53.436607 5.7896357 68.26568
53.158302 12.231893 55.476807
52.938377 12.876351 54.83194
52.79987 12.7725725 55.489758
52.941257 12.879565 56.2245
53.317516 13.504646 54.097023
52.85917 13.436262 54.766438
52.66166 13.504683 55.452946
52.81415 13.421566 56.350258
53.148766 13.639276 57.109432
53.37105 14.228085 54.268394
53.01847 14.234132 54.815205
52.844635 14.303272 55.638588
52.972775 14.419675 56.43578
53.258987 14.388643 57.310287
53.403812 14.395719 57.79708
53.346016 15.013727 55.056114
53.11562 14.938012 55.732758
53.358887 15.198763 56.462494
53.35431 14.9144745 57.3111
53.798733 -15.716627 18.969578
53.85419 -15.784611 19.425463
53.946175 -15.736862 19.939125
53.8211 -15.099722 18.175446
53.618336 -15.36723 18.599466
53.486027 -15.526577 19.27624
53.732273 -15.253909 20.250584
53.993088 -14.936343 20.908451
53.729187 -14.426159 17.90408
53.475895 -14.499451 20.527298
53.570316 -13.652857 17.923061
53.75523 -13.521395 21.105646
53.809242 -12.637668 18.216837
53.344147 -12.916805 18.334538
53.95383 -12.338106 21.277916
53.851852 -12.004971 18.355804
53.765125 -11.57678 18.712465
53.436214 -11.469809 19.616795
53.466286 -11.686856 20.252462
54.08383 -11.578289 20.96954
53.893314 -11.181274 18.981768
53.76983 -11.106484 19.627825
53.87381 -11.182334 20.286535
54.232212 4.056071 67.258446
54.06444 3.748302 67.893196
53.944386 3.813324 68.53888
54.09104 3.9303164 69.32875
54.317207 4.052008 69.91644
54.0193 4.6538935 67.19412
53.696266 4.636216 67.622116
53.52157 4.4927006 68.516685
53.65787 4.5988894 69.21642
54.0817 4.618965 70.04848
54.428596 5.695715 49.797794
54.43428 5.8470454 50.181915
53.93089 5.466973 67.29275
53.53785 5.4648027 67.696724
53.65085 5.4175053 69.320915
54.2494 5.4563766 70.396484
54.4194 6.327215 49.666653
54.421726 6.338735 50.04761
53.71471 5.9510326 67.82556
53.736008 6.195856 68.466774
53.97763 6.371049 69.27265
54.253902 6.236524 69.996475
54.243412 6.62982 68.45039
54.45153 10.029769 53.99337
54.376408 10.662793 53.480564
54.389526 10.498133 54.406967
54.371212 11.179219 53.031933
54.34482 11.566974 53.299084
53.395916 12.0679655 54.911514
53.38178 12.076807 55.624016
54.35431 12.4269285 53.07341
53.939384 12.725962 53.69437
53.631744 12.414681 56.48784
53.80735 13.025298 57.351463
53.527607 13.668343 57.663242
53.872677 13.853214 58.069473
53.767776 14.299922 53.75158
53.433372 14.519288 54.42606
53.47 14.831075 57.618095
53.706768 14.466905 58.04264
53.835335 15.2518 54.637207
53.530205 15.311363 55.470425
53.570564 15.503982 56.441025
53.628815 15.299135 57.407513
53.911358 15.18629 57.96871
53.967644 15.806232 55.794598
53.989548 15.957427 56.535038
54.072113 15.89427 57.262722
54.180126 15.696973 57.7644
54.406624 18.113268 48.393845
54.417686 18.616718 47.85865
54.409454 18.597439 48.441216
54.450897 18.426207 48.892666
54.417053 19.0156 48.53035
54.3775 -15.81793 18.845425
54.56552 -15.96462 19.550056
54.634346 -15.821364 20.196035
54.39848 -15.292602 18.227604
54.52698 -15.523851 18.407791
54.361565 -15.539285 20.462149
54.628628 -15.275867 20.98755
55.208115 -14.974315 21.762518
54.293953 -14.4020405 17.861979
54.81994 -14.277554 21.94929
54.357487 -13.563923 17.877453
55.041042 -13.373429 22.43023
54.637806 -12.82019 21.902525
54.484615 -11.68452 18.364395
54.286167 -11.43356 18.54169
54.75472 -12.141217 21.821894
54.597668 -11.1159115 18.809452
54.77544 -10.707137 19.711508
54.481705 -10.736371 20.275139
54.68147 -11.04678 20.947163
55.064114 -9.988061 28.700708
55.119854 -9.919351 29.093485
55.15591 -9.006981 27.08606
54.891716 -9.363146 27.791069
54.74335 -9.383612 28.466667
54.877724 -9.393625 29.104416
55.244495 -9.352313 29.83605
55.170998 -8.470269 27.032187
54.816875 -8.46543 27.764866
54.722168 -8.659249 28.40081
55.006077 -8.658822 29.347004
55.412186 -8.179973 29.818102
55.263268 -7.9890842 27.170311
55.036606 -8.015321 27.626427
55.082355 -7.9270663 28.385944
55.176895 -7.975183 29.125729
55.282898 -6.937872 52.873817
55.077198 -6.857096 53.372414
55.278572 -6.9629364 54.386265
55.00205 -6.4172564 52.758854
54.764244 -6.2808967 53.547813
55.008026 -6.297129 54.43326
55.18373 -6.210305 54.96976
54.832733 -5.505769 52.777954
54.64918 -5.616556 53.461548
54.80848 -5.408411 54.312172
55.125103 -5.3127155 54.94243
55.204453 -4.074162 51.76158
54.829582 -4.460819 52.6933
54.79681 -4.5957603 53.429825
54.91621 -4.6881514 54.337616
55.204216 -4.663274 54.978767
55.187927 -3.4371843 51.82831
54.923313 -3.5337636 52.58693
54.91879 -3.7819874 53.605522
55.304913 -3.548032 54.421818
55.25471 -3.032177 51.94018
55.104374 -2.9823365 52.573395
55.34151 -2.6678078 53.11012
55.366943 -1.3006703 18.777246
55.364624 -1.2816763 19.337975
55.490116 -0.25982514 17.622032
55.385937 -0.6110165 18.79586
55.36482 -0.72671276 19.449022
55.373554 0.18078557 35.10082
55.178062 0.050637543 35.772694
55.197163 -0.033460557 36.39507
55.320168 0.04059723 36.799534
55.25509 0.66282284 35.026184
55.00438 0.6206387 35.72599
54.99462 0.57766014 36.38524
55.224545 0.5290356 36.9142
55.291054 1.2272402 35.02467
55.132977 1.3204005 35.67911
55.080784 1.1743339 36.32922
55.24653 1.0340399 36.882313
55.285854 1.688875 35.569595
55.318634 1.6926111 36.124744
55.077282 3.1396656 67.2505
54.870342 3.0367053 67.69663
54.627995 3.1342518 68.34506
54.714508 3.262573 69.211464
55.08277 4.0146255 50.732285
55.11227 4.119794 51.358128
54.868084 3.5496798 67.08954
54.48536 3.4347553 67.54918
54.417175 3.4919689 69.279976
54.563995 4.036525 70.25792
55.019287 4.0172496 70.802345
54.998604 5.1024356 48.95999
54.988655 4.6070523 49.621063
54.752266 4.6734214 50.54461
54.86622 4.633675 51.472336
55.07806 5.0086093 52.017982
54.725834 4.421576 66.9122
54.693924 4.290293 70.70873
54.798283 4.6754985 71.06514
55.16916 5.748385 48.250412
54.833492 5.7150507 48.835293
54.608734 5.4591846 49.623085
54.61012 5.1168365 50.794945
54.74233 5.533931 51.376186
54.93875 5.2982674 51.906647
54.321545 5.3892145 67.10473
54.85243 5.351433 71.19734
55.278996 6.319513 48.16399
54.7062 6.355858 48.883636
54.530594 6.639071 49.550117
54.587055 6.565873 50.28376
54.788254 6.288154 51.132927
54.401432 5.9773254 67.26481
54.574287 6.3573527 67.66605
55.01279 6.359014 71.0725
54.98549 6.997494 48.80445
54.792927 7.1619196 49.440678
54.98972 7.35329 50.20735
55.05298 6.8621306 51.25919
54.72987 7.2128925 68.81258
54.75808 7.3464804 69.49896
54.880474 7.388075 70.14645
55.159973 9.207266 53.914165
55.222694 9.245426 54.432076
55.14289 9.758596 52.65802
54.589947 9.85231 53.607563
54.78397 9.761312 54.478405
55.014317 9.972685 55.158226
55.314434 10.189805 55.796997
54.88411 10.480089 52.47528
54.760994 10.454004 55.16513
55.105762 10.539763 55.943813
55.217247 11.386623 51.89621
54.805943 11.740071 52.510136
55.12239 11.536574 56.503014
55.105576 12.846008 51.978798
54.689915 12.488931 52.86549
54.41575 12.641878 57.293446
54.921402 12.778222 57.75773
54.642 13.623007 58.418262
55.083332 13.86744 58.73366
55.22214 14.674932 51.76558
54.722736 14.404887 52.48318
54.37448 14.551316 58.472942
54.80314 14.45067 58.645145
55.234116 15.417563 51.584026
54.86733 15.6428385 52.496033
54.69541 15.398165 58.247772
55.068222 14.877528 58.65779
55.223778 16.410128 52.53959
55.251263 16.280577 53.15688
55.01886 16.116991 54.315094
54.482502 16.076756 55.71393
54.68546 16.36459 56.576054
54.59628 16.15665 57.315704
54.71313 15.864738 57.869335
55.339947 18.117287 44.979668
55.17617 18.018675 45.597847
55.03372 17.91254 46.52593
54.925167 17.683998 47.70416
54.78561 17.710459 48.581966
54.785294 17.94154 49.176357
55.235474 18.495306 45.044163
55.005756 18.557623 45.626774
54.873425 18.461887 46.503956
54.496326 18.310047 47.769505
54.546616 18.575825 49.0956
54.997272 18.53912 49.6528
55.340683 19.808813 44.026733
55.252094 19.473562 44.665188
54.973614 19.17287 45.938564
54.87876 19.261229 46.643414
54.650673 19.301535 47.71806
54.631123 19.355947 48.63697
54.75608 19.201271 49.120304
55.365616 20.701775 43.735638
55.22029 20.605341 44.20937
55.28882 20.332493 45.461567
55.265064 20.200851 46.570385
55.13377 20.160425 47.27855
55.360954 21.244415 43.805737
55.267807 21.444363 44.265278
55.38029 21.328705 46.046593
55.321007 22.076061 44.670334
55.391903 22.50301 45.387592
55.44381 22.961966 44.910915
55.468952 23.213543 45.272877
55.155052 -15.712146 18.990108
55.10486 -15.881895 19.418297
55.317715 -15.818254 20.242073
55.5185 -15.704929 21.064999
55.19357 -15.436344 18.64224
55.58314 -15.51536 21.373995
55.720406 -15.078877 21.975775
55.27391 -14.304674 18.091455
55.616528 -14.445387 22.434576
55.723705 -14.070576 22.834627
55.487587 -13.871429 18.315283
55.858658 -13.443845 23.105186
56.352463 -13.163935 36.900818
56.333733 -13.2813425 37.494625
56.407436 -13.332803 38.056767
54.896564 -12.965589 18.11188
55.864204 -12.867162 23.114136
56.357067 -12.603279 36.809525
56.28766 -12.603635 37.636585
56.365486 -12.620244 38.112457
55.34566 -11.8493805 18.483828
55.616207 -11.776844 22.22524
56.456966 -12.0632515 36.714935
56.395473 -11.982823 37.441967
55.248463 -11.122138 18.969637
55.412735 -10.715692 19.921896
55.477955 -10.631436 20.42282
55.50311 -11.072991 21.43464
55.49152 -9.692139 27.195492
55.661057 -10.02149 27.793633
55.590782 -10.30855 28.55916
[...]
POINT_DATA 10295
SCALARS features_00 float 1
LOOKUP_TABLE default
0.90346056 0.8971827 0.8565117 0.79001045 0.89820755 0.8989855 0.87564063 0.8298005 0.8646933 0.8600505 0.83435214 0.7896186 0.77741075 0.7418033 0.6947826 0.7590095 0.7535622 0.7172002 0.77549136 0.7563831 0.72287023 0.7687553 0.7423434 0.7163482 0.7361149 0.5895586 0.60910803 0.6787333 0.6873524 0.46602148 0.60612106 0.68838036 0.7089552 0.66770434 0.48984492 0.5703981 0.63113505 0.65273046 0.66283154 0.6649754 0.5254226 0.5851389 0.6198623 0.6595849 0.85756886 0.8232956 0.76182425 0.884599 0.8861853 0.8537494 0.7370883 0.62150896 0.87618804 0.7245574 0.8399316 0.6449555 0.7622248 0.7938234 0.630474 0.75264966 0.7680585 0.7589747 0.71936905 0.6923772 0.7815416 0.777724 0.75475335 0.81460387 0.80925316 0.76183987 0.655782 0.56042576 0.8059363 0.7980861 0.75104034 0.68711823 0.57250714 0.564005 0.5425438 0.76857686 0.76563185 0.6820824 0.5467929 0.5779566 0.5527164 0.73423886 0.7037142 0.63661915 0.5862912 0.6473807 0.43309504 0.41379124 0.39531863 0.32533872 0.294221 0.5033903 0.5254257 0.2066625 0.30634877 0.52761 0.5930693 0.647821 0.6483269 0.35168362 0.49409738 0.66723347 0.6653831 0.4214676 0.5308927 0.6105405 0.6605654 0.6700286 0.5249532 0.6020776 0.6424761 0.65987164 0.5242861 0.5056476 0.5405798 0.5602516 0.5393262 0.8291274 0.7581277 0.6690937 0.85849535 0.8426733 0.6544527 0.5572088 0.46478677 0.85045445 0.50816566 0.791323 0.55338395 0.58287734 0.7348212 0.76464736 0.61301845 0.7804316 0.81856173 0.7909168 0.7198495 0.7506244 0.68676066 0.8342676 0.9067534 0.84523344 0.72635853 0.624047 0.81048393 0.83510804 0.80732447 0.668224 0.5602386 0.79144 0.80071795 0.72157884 0.62201315 0.60936165 0.6351975 0.63036144 0.6255951 0.6591013 0.6290509 0.5900891 0.6374055 0.6564911 0.61858726 0.5636509 0.5338288 0.5943142 0.61014986 0.58952224 0.542482 0.538669 0.5570864 0.5687832 0.5365345 0.53468955 0.5409337 0.5290621 0.52539164 0.48777878 0.6585273 0.56028 0.49875054 0.8073072 0.83934724 0.815887 0.8045945 0.8684794 0.9208859 0.9261054 0.8913027 0.8832487 0.9131949 0.9336566 0.92535496 0.8928901 0.89901567 0.77522564 0.77622825 0.7809833 0.6555979 0.50207007 0.4448758 0.78274405 0.8053435 0.6479441 0.4815253 0.364051 0.6186975 0.59127694 0.5344654 0.45860416 0.394966 0.7815056 0.41653603 0.37955993 0.6729388 0.62807786 0.5769144 0.51466584 0.46710855 0.4080273 0.76389277 0.38819408 0.67677426 0.6272452 0.58805263 0.53623724 0.4718744 0.7165375 0.6753216 0.41471612 0.62373537 0.5912596 0.55113006 0.45519954 0.5059947 0.43947726 0.4007566 0.42937326 0.38578016 0.4373473 0.4551199 0.39699137 0.3394223 0.273238 0.35058582 0.32683206 0.26717618 0.21073233 0.22819021 0.2420813 0.1647225 0.19074002 0.45801613 0.45736924 0.60479647 0.5852596 0.24469481 0.19176355 0.657555 0.63500834 0.37193155 0.3900703 0.6501843 0.6235664 0.34314987 0.2972521 0.2347062 0.47755772 0.56580234 0.6133884 0.63312685 0.38754255 0.39795485 0.43219137 0.47697783 0.51875025 0.5714717 0.38185155 0.38773638 0.4254142 0.4981122 0.5662065 0.56685054 0.38908157 0.37715513 0.37890416 0.39683092 0.47021863 0.5342259 0.5475389 0.3940214 0.38135886 0.3409136 0.3083753 0.34216085 0.384718 0.36244446 0.2714305 0.33190376 0.30381694 0.31955725 0.31660736 0.7388041 0.70921344 0.58929306 0.48974937 0.7612978 0.4632014 0.43878716 0.69944745 0.4668949 0.49255908 0.5864945 0.52119356 0.73806244 0.70220035 0.6666919 0.69447744 0.5346187 0.7188065 0.68993676 0.66936123 0.65902233 0.6107327 0.69444096 0.6753787 0.7414633 0.77683043 0.71938837 0.62361544 0.8282381 0.82500285 0.7055607 0.59872866 0.5651623 0.56008273 0.76843536 0.62352866 0.5717926 0.56184506 0.7226164 0.5376802 0.5399568 0.5584808 0.5700103 0.5803752 0.59491205 0.60686094 0.7429186 0.7386526 0.6037649 0.5392612 0.49951738 0.5316112 0.5534645 0.5431272 0.58431554 0.61320454 0.6225029 0.56143516 0.48186928 0.49851674 0.53047276 0.55319047 0.44794595 0.4911378 0.5463818 0.50718075 0.433631 0.5036614 0.5120251 0.4618613 0.25969905 0.31162158 0.24208154 0.46829122 0.49806488 0.5024443 0.23861583 0.23213527 0.1901885 0.29422006 0.42142662 0.5720436 0.6412925 0.4963208 0.5233619 0.5228814 0.5024905 0.46922946 0.48091793 0.43271455 0.37732446 0.34252316 0.30189872 0.18371028 0.29525685 0.45167327 0.58957136 0.62412536 0.5110717 0.52536947 0.5130861 0.50974786 0.49734625 0.70938694 0.66065454 0.5259718 0.42563117 0.28964838 0.27866915 0.46646422 0.5379261 0.59291863 0.5718093 0.57219434 0.55329007 0.4877079 0.50832105 0.49580446 0.754159 0.74608856 0.6657175 0.48091933 0.41945693 0.69522405 0.638104 0.6822505 0.69835603 0.7435167 0.7316495 0.6541333 0.5337843 0.47461477 0.42356092 0.7320895 0.7815141 0.83647513 0.6076787 0.5145751 0.45688677 0.796888 0.8574475 0.88493633 0.90247023 0.8976784 0.84171766 0.8521948 0.86454344 0.39399529 0.33415294 0.17688292 0.19038352 0.26435527 0.41498458 0.47095892 0.75295806 0.7450204 0.7351984 0.56571937 0.521195 0.52719486 0.4733454 0.40264335 0.28555045 0.16989633 0.27764323 0.3922913 0.5844318 0.65971726 0.7188195 0.2759422 0.7210345 0.66526735 0.5873189 0.3222159 0.22348766 0.2849207 0.372686 0.5589024 0.68090826 0.29779488 0.26732415 0.7637516 0.7297463 0.1497924 0.33057618 0.27856547 0.7591009 0.69280446 0.1681064 0.67708373 0.67245454 0.66681665 0.6172517 0.2968297 0.62479687 0.5786578 0.22837043 0.7640622 0.7638394 0.72170544 0.6447399 0.55962473 0.51855767 0.3324391 0.27566734 0.4909117 0.46025684 0.28017342 0.77408373 0.7912599 0.76787615 0.68356466 0.25133008 0.24347042 0.25262123 0.30196467 0.2268439 0.7681544 0.7812958 0.7635175 0.5892511 0.507598 0.13235615 0.17032948 0.15569323 0.16079967 0.21287546 0.6578741 0.6919242 0.7262222 0.13735677 0.18926603 0.24050546 0.69486123 0.73813057 0.77117705 0.8262267 0.15528926 0.16009042 0.45213366 0.4384145 0.64970636 0.72035587 0.80363715 0.8461465 0.14158845 0.16522446 0.550727 0.54683703 0.67919576 0.79651695 0.19139299 0.5665363 0.2614052 0.5673832 0.5927128 0.37899065 0.39299697 0.41129732 0.42953742 0.39728028 0.40176037 0.34639567 0.2627502 0.43839672 0.5056533 0.53925717 0.5309238 0.39102033 0.3897593 0.39516282 0.4026099 0.2922498 0.25320458 0.42705306 0.39626577 0.38119817 0.5273752 0.39992929 0.39385164 0.38347423 0.5102147 0.5260903 0.39837706 0.39837575 0.44680074 0.3915671 0.39177853 0.2543189 0.23557962 0.3599887 0.3571893 0.33201513 0.29672724 0.28522578 0.37968564 0.35358977 0.32679084 0.32436574 0.3518812 0.41222894 0.34996718 0.3779146 0.35314783 0.33809125 0.4246875 0.46372318 0.41392767 0.42580324 0.511015 0.40041542 0.40645567 0.41418388 0.80481744 0.78221405 0.7397694 0.43177772 0.4960789 0.8340387 0.7849889 0.7040951 0.5950167 0.54381186 0.33817023 0.51853645 0.8867556 0.7970314 0.67628276 0.6345533 0.5604267 0.58566254 0.53511876 0.75705266 0.7092435 0.64663327 0.59579897 0.62060213 0.5175372 0.53381526 0.5414685 0.6823505 0.6639558 0.6499968 0.63036674 0.53911316 0.43036276 0.64983237 0.5712982 0.54914474 0.56249726 0.61111903 0.5802507 0.65312856 0.5772194 0.58693266 0.54819083 0.57425 0.5527613 0.5757221 0.5826881 0.45130116 0.5611981 0.49117297 0.5418166 0.51609254 0.4063714 0.54586816 0.36549565 0.5362233 0.5600456 0.43881553 0.33966205 0.40178865 0.3780818 0.2845756 0.45291817 0.5240924 0.43463746 0.42854476 0.38049278 0.23691328 0.27671564 0.31525987 0.31021374 0.20862862 0.2175156 0.24932379 0.4487512 0.5721985 0.4492529 0.4567135 0.36118874 0.2144637 0.22993964 0.1631952 0.22147644 0.6478373 0.63687074 0.442272 0.46546268 0.44790953 0.42360187 0.53438044 0.4806627 0.27404395 0.26172417 0.18248545 0.6407451 0.24652642 0.26737064 0.29136834 0.41680765 0.4236846 0.43967396 0.6950923 0.14462009 0.4788272 0.5736919 0.590828 0.3088798 0.39403826 0.38260657 0.40543085 0.48304528 0.4156059 0.47334918 0.45148882 0.70892036 0.74002683 0.15217684 0.06807193 0.25276777 0.28625086 0.39661413 0.51353097 0.5291922 0.5602711 0.53243035 0.532283 0.7053518 0.7231875 0.7176549 0.29055816 0.05934398 0.0024188845 0.16998866 0.20180304 0.7028277 0.66348445 0.13369949 0.16548815 0.26659566 0.6948588 0.6875637 0.6157156 0.49466285 0.40994498 0.25297892 0.72247875 0.8266622 0.7478043 0.16098167 0.15693286 0.14822946 0.30578583 0.41462344 0.44344872 0.4891982 0.46811795 0.79180515 0.8075587 0.8092766 0.82731545 0.4040417 0.39453715 0.22739705 0.16302407 0.30556607 0.3918519 0.5311931 0.6436013 0.6821091 0.7036878 0.64714533 0.20011535 0.16725907 0.15951544 0.6104309 0.6235944 0.48292243 0.44283652 0.68790114 0.7517308 0.70605063 0.63231236 0.17460114 0.17541777 0.61461926 0.66542804 0.7246488 0.7358593 0.6848748 0.1797238 0.51752836 0.68827045 0.74845487 0.23357336 0.20686229 0.6350784 0.7129642 0.74520886 0.78558123 0.093576334 0.51603067 0.6608413 0.7817543 0.2366198 0.18459994 0.7012758 0.74490416 0.15878436 0.10288944 0.6995801 0.6332718 0.57445157 0.54631066 0.35350466 0.22216578 0.65087724 0.59108746 0.7467252 0.23230946 0.5089746 0.3648966 0.23481503 0.13450971 0.22296593 0.24537915 0.73070216 0.75206363 0.33347213 -0.03753202 0.010479471 0.21075541 0.16208968 0.7465196 0.5313859 0.21679549 0.10673344 0.16634479 0.1834 0.19853802 0.597105 0.6301156 0.03890828 0.050106503 0.1600396 0.66020936 0.54318607 0.45973462 0.07322523 0.1626547 0.17950669 0.57308626 0.6562337 0.6860941 0.7806478 0.09154907 0.77865314 0.82074064 0.85549915 0.11477619 0.33093178 0.33405572 0.15052879 0.21486136 0.3357426 0.8703394 0.88600814 0.13285804 0.42480743 0.3575315 0.50671166 0.5526977 0.73245 0.85259837 0.89425266 0.043500185 0.49202204 0.4544828 0.5377252 0.6363307 0.73622155 0.27414328 0.15918192 0.46386003 0.30615377 0.30092332 0.4281773 0.4245344 0.32651007 0.36202037 0.11627903 0.40858054 0.3831902 0.25376424 0.4015751 0.3164149 0.36996308 0.26194936 0.25794244 0.37223232 0.17210945 0.34220296 0.3990513 0.3835565 0.4506958 0.42499673 0.39938676 0.3812865 0.46962667 0.45072234 0.48436958 0.4126143 0.38733464 0.37673855 0.38644415 0.42691022 0.45201355 0.33903265 0.35374168 0.34309918 0.37343633 0.409132 0.79474723 0.7781452 0.7377274 0.26668835 0.4274062 0.82573783 0.82498765 0.5944153 0.5334009 0.431967 0.43317422 0.16473182 0.15699695 0.52127796 0.5000294 0.83970416 0.4851523 0.26129797 0.5323318 0.7506627 0.7704281 0.50209373 0.47363067 0.4741007 0.45803288 0.46177065 0.485221 0.655824 0.5027867 0.46493536 0.17544445 0.2770805 0.24949783 0.40449756 0.5452887 0.57072353 0.57885265 0.5145472 0.48687333 0.43237224 0.11638975 0.5359678 0.5236884 0.37902078 0.26697254 0.43559822 0.53720057 0.52794015 0.54832906 0.5408269 0.50848573 0.26896992 0.22321118 0.5642716 0.5617746 0.48744363 0.3941553 0.4347125 0.53038335 0.37163356 0.4136364 0.38848412 0.28633076 -0.09662208 0.10654354 0.5483644 0.43234706 0.5279777 0.5337738 0.22006795 0.2542833 0.17353311 0.06456156 0.30666077 0.16152145 0.262527 0.4092387 0.27616194 0.5168421 0.07409869 0.3791337 0.4543196 0.21984267 0.2571031 0.23647276 0.42144358 0.31091693 0.09232639 0.13235122 0.19878969 0.23400354 0.215606 0.17119823 0.40639013 0.47820944 0.19946474 0.20413288 0.22586854 0.21526873 0.23785043 0.23604706 0.27166408 0.35003942 0.22415644 0.6362803 0.5526693 0.3196731 0.3619633 0.30464286 0.32389522 0.17384309 0.6740948 0.2638033 0.42442435 0.37260157 0.43559062 0.015538305 0.20378175 0.6315905 0.6851846 0.67343074 0.68521404 -0.09838706 0.010774542 0.18233123 0.44777277 0.5051103 0.5557078 0.029460192 0.12767945 0.28745073 0.3727462 0.42223594 0.48484623 0.60643303 0.6637465 0.66579103 0.6411109 -0.20488435 0.48118883 0.67218286 0.15618254 0.3855526 0.43210864 0.49356124 0.2041602 0.34446144 0.28227302 0.3583387 0.47196606 0.56216663 0.36374313 0.23456128 0.3229427 0.6170863 0.6750688 0.66393465 0.2582443 0.54381645 0.679696 0.044570673 0.12578355 0.32405972 0.4752667 0.27678514 0.22913656 0.24495542 0.21746393 0.3633238 0.41632792 0.57313174 0.60251987 0.6387757 0.5004418 0.7716334 0.18149613 0.24046722 0.38259265 0.3860394 0.39122832 0.39965823 0.47780266 0.7238496 0.74225813 0.7442258 0.6943559 0.80986464 0.60224247 0.2215063 0.3883524 0.4027629 0.39738005 0.38191682 0.47153175 0.6049156 0.7767693 0.78369164 0.78860205 0.41123053 0.70257455 0.36367208 0.25752366 -0.003653083 0.2300138 0.16873246 0.34412226 0.3552606 0.40821254 0.59720767 0.69224286 0.75864553 0.70504403 -0.06399154 -0.0016320795 0.21984753 0.5388931 0.5380066 0.1267249 0.5577197 0.5346694 -0.055105776 0.6948051 0.17982571 0.42471653 0.28316677 -0.020345189 0.69202256 0.2157763 0.09688738 0.12825109 0.04171763 -0.05852008 0.69725204 0.2215845 0.4827937 0.57781124 0.047195338 -0.015191257 0.4895996 0.4024487 0.4158457 0.32445782 0.19611168 0.1301844 0.5678983 0.72406447 0.04351273 0.052818835 0.1321258 0.37550533 0.37290844 0.35349303 0.2753848 0.81078386 0.85935014 0.06704143 0.046320707 0.1858164 0.46881506 0.4416411 0.89408374 0.06298947 0.38040555 0.4714145 0.3769371 0.23803657 0.12675302 0.18817624 0.9016167 0.3537128 0.06327303 0.34080303 0.311217 0.2731436 0.31135792 0.50127304 0.55880266 0.7347621 0.30108362 0.32710245 0.30375445 -0.064635366 0.33694163 0.3874756 0.40645945 0.4714051 0.5120405 0.2346208 0.2223168 0.18782507 0.25346494 0.23571247 0.2633953 0.12269209 0.021414302 0.026636623 0.16664949 0.33864045 0.07591547 0.016071424 0.43164212 0.4805319 0.3340358 0.33707017 0.5518633 0.49835503 0.50774837 0.597909 0.5272027 0.5418183 0.6317928 0.536804 0.43527186 0.39999044 0.37890488 0.40146303 0.46328193 0.5134154 0.4035612 0.35199165 0.3667376 0.29161608 0.26575783 0.3017557 0.29921234 0.30899376 0.34045208 0.7632108 0.7370712 0.6636341 0.34391674 0.3719604 0.33631563 0.74108505 0.7607322 0.37923393 0.3962273 0.41297463 0.2532127 0.74220747 0.45100585 0.27732003 0.14130104 0.6465808 0.45434964 0.272955 0.3348894 0.0004964769 0.24413782 0.30730018 0.30898422 0.39294934 0.30759194 0.48471475 0.37034428 0.35069185 0.23733798 0.08413708 0.062206246 0.035218194 0.019365445 0.00574816 0.13526192 0.2584771 0.30228007 0.42839924 0.4424646 0.42239872 0.42465627 0.47598875 -0.106847346 0.2524447 0.20370637 0.32097635 -0.13337901 0.45118773 -0.005748883 0.048395917 0.07210432 0.44142473 0.24892728 0.1444029 0.44953555 0.5321057 0.55843455 0.11492016 0.009108432 -0.18721609 0.51341605 0.17211336 0.23048 0.3431309 0.5558985 0.56101716 0.54984987 0.08534358 -0.0391856 -0.1834319 -0.14445975 0.19515017 0.10003016 0.18312861 0.26163483 0.3027473 0.33515173 0.55249894 0.5438674 -0.110767126 -0.22829485 -0.15684773 0.2585844 0.20505029 0.055726036 0.19989844 0.28468534 0.27077788 0.36575496 0.5095565 0.24941748 -0.14319183 -0.1473693 -0.21161684 -0.04655069 0.17719698 0.053960577 0.1642164 0.21429402 0.3837318 0.44877064 0.07772438 0.527463 -0.227674 0.03423202 0.12416749 0.08528165 0.07917288 0.3531913 0.32546648 0.3565362 0.4090104 0.4313353 0.032300837 0.15005678 0.08267225 0.19876799 0.26189467 0.54586047 0.48872593 0.16625507 0.22795013 0.13959175 0.16630295 -0.0396125 0.6123886 0.1665937 0.23796463 0.2092785 0.0703172 0.42647815 0.49666232 0.5306962 0.60920274 0.6851598 0.72776157 0.7784973 0.61162615 0.61574864 -0.21557418 -0.16437215 0.02125302 0.21302803 0.22468989 0.3376859 0.35334674 0.0914691 0.08800607 0.37590727 0.3823527 0.40591046 0.69234574 0.7239803 0.5956032 0.5713153 -0.14413819 -0.1503524 -0.18892586 -0.047754608 -0.04058443 0.16169709 0.19552393 0.11043909 0.370525 0.42488024 0.14687859 0.59945273 0.6594527 0.46428055 0.49029016 0.27550304 0.1100364 0.14382032 -0.020168126 0.044036865 0.38469785 0.402268 0.4463213 0.4859058 0.5010235 -0.010388397 0.42863435 0.5872903 0.13081728 0.14588177 0.6160801 0.20102099 0.26996693 0.24329355 0.5212569 0.585358 0.64444965 0.388799 0.2987824 0.69590104 0.6297381 0.51599646 0.56938446 0.21049255 -0.14418904 -0.14879237 0.26062307 0.31160632 0.37170297 0.73027426 0.73179704 0.54948425 0.5750444 0.103229165 0.1324433 0.36141127 0.3680501 0.34025285 0.2963522 0.3166592 0.4928316 0.63042784 0.71619135 0.6704209 0.6025828 0.5361603 -0.082204565 0.29339686 0.5814092 0.53583515 0.42576075 0.43070027 0.12747505 0.85284114 0.85882956 0.82049227 0.34005815 -0.07089635 -0.067874715 0.07856387 0.9062027 0.88592124 0.8312379 0.075568676 -0.05715193 0.9224974 0.8873197 0.83868563 0.065202944 -0.12746012 0.22674987 0.23835655 0.24983907 0.3441703 0.6833422 0.11095123 -0.24482813 0.23310667 0.7220168 0.82145053 0.018631443 0.051619895 -0.17552467 0.42879802 0.8717543 -0.04562269 0.12926319 0.47280437 0.7352294 0.8608544 0.36013252 0.3534252 0.21762511 0.45301855 0.34464312 0.097679295 0.20212597 0.51653636 0.617933 0.2173977 0.32458302 0.34158906 0.04097347 0.09636295 0.14866735 0.24634956 0.37772876 0.4234928 0.48130202 0.082854986 0.15185994 0.2397451 0.12591583 0.10168474 0.16659796 -0.014570281 -0.04505001 0.012125462 0.1071825 0.29192236 0.2414918 0.2126241 0.33916265 0.36617133 -0.07697794 -0.012471929 0.22248916 -0.112647355 0.19047314 0.5909054 0.641587 0.6394789 0.49354947 0.6556714 0.66480774 0.65884256 0.6229607 0.65608823 0.6628978 0.5966826 0.4666276 0.29013777 0.35882807 0.47397625 0.57089305 0.547382 0.47498953 0.407237 0.3530061 0.3051164 0.27019292 0.26920074 0.33533892 0.2673542 0.26590925 0.2256709 0.64613247 0.6338884 0.4332266 0.40979114 0.3786187 0.38174438 0.4139312 0.32342592 0.16548344 0.57088655 0.35815904 0.39339715 0.35899574 0.20955373 0.5069226 0.39299586 0.37047443 0.20250416 0.15288708 0.5032798 0.2129939 0.07384158 0.0888858 0.083256856 0.1079901 0.12150797 0.11919132 -0.09706321 -0.30199045 -0.03954141 0.14026177 0.22358839 0.24882568 0.18202052 0.23300207 0.16598988 0.12608074 -0.052372105 0.21330039 -0.18113688 0.19470814 0.21693005 0.24002619 0.36085644 0.4401576 0.2283552 0.072579205 0.009447455 -0.14028881 -0.08423842 -0.28638825 -0.20384 0.32151446 0.064574875 0.09536169 0.17267072 0.10937461 0.16054305 0.10067396 0.14670007 0.3885399 0.52412605 0.53358126 0.22333331 0.255322 0.14521036 -0.03184033 0.034686603 -0.060045402 -0.24968724 -0.16277301 0.38553733 0.2800091 0.1747931 0.13235414 0.043764777 0.52736473 0.52024984 0.15100023 0.11191921 0.28555048 0.18667895 0.07920198 0.0262108 0.53044814 0.42989826 0.33662713 0.18626714 0.4952246 0.41691136 0.38124925 -0.35534024 -0.31860667 0.14444701 0.1353309 0.07874969 0.41192842 0.36863044 -0.44059998 -0.41495723 -0.31784338 -0.13587113 0.03108976 0.124410115 0.17023474 0.22478312 0.33268833 0.3318418 0.21859266 -0.16189595 -0.17507783 -0.16339988 0.039241657 0.1607392 0.1730392 0.14969507 0.24812421 0.3136292 0.32468528 0.30458975 -0.0969354 -0.09333347 -0.07879025 -0.009385852 0.114636205 0.56537896 0.59917235 0.669757 0.76281637 0.7998855 0.49170068 0.051154383 -0.1574018 -0.019514538 0.028354906 0.08928518 -0.24646617 0.48117828 0.5245175 0.6720166 0.7898305 0.8091875 0.19613451 0.120511 0.04814819 0.0706067 0.10696637 0.2930428 0.34580457 0.20871176 0.7665724 0.7483233 0.34324825 0.16097888 0.17328775 0.321737 0.24309553 0.43561143 0.12766403 0.10723759 0.04648153 0.47109348 0.14703532 0.17200677 0.7127842 0.7323766 -0.016593546 0.12168275 0.20100793 0.32417214 0.27158242 0.36298764 -0.048974518 0.43139923 0.5169489 0.49751335 0.45856786 0.3559917 0.025380524 0.073444456 0.6659709 0.15893957 0.45853734 0.5558934 0.49132138 0.48678964 0.4307269 -0.10504456 -0.068051316 0.46905124 0.52620155 -0.031225499 0.4631124 0.32682517 0.24713403 0.39689344 0.30070466 0.24751405 0.33066347 0.34557372 0.25941023 0.2164089 -0.103630275 0.085613176 0.12663218 0.20925447 0.49693543 0.2162022 0.30642676 0.25599006 0.22153816 0.5778527 0.18332933 -0.00945434 -0.24691337 0.6867341 0.6256489 0.2464185 0.13639376 0.25472313 0.3408353 -0.28853253 -0.30286935 -0.23603234 -0.29234117 0.7503853 0.7788769 0.2247207 -0.050161522 0.86915064 0.87651086 0.77033234 0.6076553 0.24031419 0.19727187 -0.21160649 -0.16194473 -0.08927557 0.15505463 0.9155159 0.93336946 0.86978716 0.7985046 0.694612 0.181704 -0.24309388 -0.1794283 -0.08788572 0.9246102 0.92454314 0.8950408 0.8339548 -0.3202528 0.027838677 0.19284377 -0.11566222 0.18592264 -0.19063433 -0.14145663 0.0028866678 0.06900379 0.35257557 0.05021153 0.11302489 0.29958817 0.37984478 0.40480918 