# vtk DataFile Version 2.0
Really cool data
ASCII
DATASET POLYDATA
POINTS 4193 float
3.3433743 -20.261816 49.963158
3.3735013 -20.27884 50.454754
3.3779366 -19.823832 51.42019
3.2193658 -18.93909 48.402378
3.138035 -19.01359 49.643906
3.2093763 -19.70188 50.220577
3.303053 -19.55902 51.409157
3.3662343 -19.079388 52.005753
3.3362854 -18.599451 48.039463
3.1312592 -18.620228 48.605915
3.0612116 -18.4254 49.462383
3.1507947 -18.51039 50.243813
3.1845534 -18.463129 51.55266
3.27591 -18.529074 51.9533
3.278249 -17.895756 48.613045
3.2631235 -17.846138 49.463787
3.241571 -18.081234 50.560875
3.2977073 -18.004717 51.535435
3.3486922 -18.040188 51.86903
4.0020056 -20.911966 49.658024
3.916954 -20.889349 50.382584
4.1963882 -20.950792 50.90903
3.9730675 -20.333464 48.535435
3.6833863 -20.5784 49.398792
3.5412936 -20.405508 50.41564
3.7906833 -20.335278 51.350708
4.036703 -19.797453 52.498516
4.2495704 -19.524902 46.86215
3.739784 -19.102077 47.41678
3.485742 -19.594812 48.24021
3.7098174 -19.441902 52.28349
4.0260124 -19.078981 52.767113
4.004577 -18.566322 46.94093
3.6438332 -18.49848 47.62738
3.6401105 -18.46101 52.43034
3.9097672 -18.632683 52.708736
3.8566039 -17.551207 47.762943
3.5322285 -17.48623 48.694683
3.6026416 -17.537863 50.8241
3.703794 -17.510082 51.549595
3.8379693 -17.813606 52.18149
4.0587964 -18.148617 52.6722
4.0454063 -17.164566 48.42325
3.9611933 -17.05509 49.205704
4.1736364 -17.188747 50.32635
3.9102962 -17.382639 51.766617
4.2811255 -15.169667 39.829723
4.119611 -15.230202 40.545956
4.075912 -14.861503 41.150303
4.0120254 -14.344121 39.823467
3.8087718 -14.427833 40.447254
3.9325361 -14.373117 41.1653
4.3033257 -14.096553 41.72908
4.30344 -13.838978 39.336456
4.073139 -13.660103 39.792774
3.8498108 -13.683408 40.572235
4.02573 -13.598949 41.213875
4.2767105 -13.019492 39.849964
4.2336044 -12.817653 40.896523
4.2777896 -13.014003 41.33285
5.472792 -30.109009 57.66314
5.4791493 -29.548765 57.347183
4.2596965 -20.759985 49.030025
4.718213 -21.352741 50.2209
4.3654294 -20.739208 51.512222
4.921627 -20.59326 52.02188
5.0111985 -20.122297 46.590206
4.366652 -20.128284 47.45731
4.6653585 -20.197086 52.479206
4.7776637 -19.974663 52.731686
4.7329245 -19.420383 46.16926
4.7962084 -19.416536 53.046364
4.861377 -18.64239 46.008068
4.6194377 -18.607506 52.958984
5.184221 -16.732485 39.789974
5.09316 -17.840313 45.93649
4.5359507 -17.583836 52.363895
4.6219854 -18.090723 52.809086
5.1511035 -16.086468 39.190075
4.925989 -16.252665 39.631542
4.8108697 -16.27738 40.347412
5.203012 -16.317198 41.21186
5.3049326 -16.425308 48.328884
4.717751 -16.955696 50.73329
4.4889874 -17.138075 51.423367
4.723839 -17.248638 52.04693
4.5701227 -14.940882 39.262848
4.719404 -15.520833 39.467934
4.4363875 -15.632238 40.184235
4.942972 -15.293822 41.958607
5.110034 -16.350529 49.18348
4.6605034 -14.2644 39.088093
4.3871446 -14.531622 39.434914
4.830371 -14.315568 42.18538
5.3615665 -14.208408 48.356945
4.8714805 -13.474284 39.042507
4.5079036 -13.273387 39.409508
4.700221 -13.960576 42.14386
5.4671164 -13.317983 47.916756
5.4628005 -13.344891 48.440567
4.92646 -13.07168 39.154263
4.8624268 -12.667391 39.64186
4.596136 -12.528996 40.50333
4.6115856 -12.715352 41.599342
5.0600934 -12.635014 41.99221
5.485662 -12.281832 47.788025
5.490847 -12.650355 48.069767
5.1497903 -12.36754 39.768795
4.9618235 -12.167426 40.55578
6.389471 -32.858776 54.68991
6.358262 -32.791893 56.134502
6.122944 -32.342964 54.69155
6.0409636 -32.32015 55.522762
6.128476 -32.24941 56.111107
6.1485243 -31.217283 51.8909
5.8878217 -31.214264 52.5147
6.007575 -31.788836 54.06657
5.7438793 -31.093067 54.167046
5.664199 -31.106722 55.019455
5.953473 -31.145128 57.46234
5.907156 -30.956028 57.92603
5.9798203 -30.430681 51.791767
5.7355595 -30.47433 52.54396
5.6175237 -30.487673 53.255753
5.69442 -30.367468 54.299126
5.626766 -30.56417 57.615936
5.769086 -30.384031 58.31539
6.077135 -29.689583 51.84815
5.8320885 -29.79063 52.35826
5.848811 -29.436323 53.637905
5.723252 -29.901932 53.990067
5.694865 -29.356941 56.74303
5.524592 -29.462149 57.596317
5.701624 -29.278746 58.3448
5.9914145 -29.549208 58.99154
6.0088544 -29.097181 52.59308
6.0785093 -29.096031 53.162815
6.1931295 -28.333416 56.02998
5.68994 -28.728807 56.7054
5.668901 -28.433672 57.34837
5.7674747 -28.638187 58.28467
6.2817554 -28.760502 59.366077
5.970641 -28.126793 56.25533
5.928175 -28.016087 56.65684
5.8661675 -27.94493 57.50316
6.116511 -27.9769 58.336037
6.328672 -28.168175 58.94916
6.2190814 -24.311514 49.755447
6.089069 -24.297192 50.39747
6.2396817 -24.272394 51.2208
6.322726 -23.077007 49.111443
5.819145 -23.33829 49.66721
5.833326 -23.567608 50.643772
6.027767 -23.298754 51.25134
5.7124844 -22.02562 49.640743
5.4267726 -21.043022 48.454445
5.6097827 -20.754026 51.556873
5.137792 -20.701189 51.954453
5.793289 -20.144627 45.864117
5.7216144 -20.454624 46.708313
5.113447 -20.459867 52.203373
5.424001 -19.902813 52.76527
5.184029 -19.417747 53.01787
5.824903 -18.610943 45.043934
5.147316 -18.761917 53.10095
5.8534 -16.78055 39.273617
5.75463 -16.963123 39.66052
5.494083 -16.945623 40.49331
5.3881226 -17.756203 52.57572
5.4856377 -17.89701 52.687824
5.66354 -16.441833 39.12257
5.8584523 -16.398388 41.677876
6.13484 -16.5388 41.9077
5.9343863 -16.537046 45.936405
5.2041526 -16.595835 49.640316
5.103269 -16.698494 49.90486
5.4166613 -17.089872 51.73307
5.361818 -17.285017 52.13186
5.748571 -15.498728 38.830185
6.101575 -15.737457 45.657036
6.0522423 -16.055014 46.512043
5.772692 -15.929993 49.175194
5.431382 -14.877522 38.79789
5.7332883 -14.783434 42.878548
5.8518414 -14.569081 46.95762
5.5064535 -13.54914 38.747772
5.4324985 -13.2221 42.509007
5.5784945 -13.240665 42.780502
6.33809 -12.962589 45.844173
5.7955627 -13.268012 46.818108
5.5178704 -13.212132 47.46343
5.4913354 -13.3219795 48.402122
5.746395 -13.4282055 49.16291
5.5124726 -12.847246 39.052364
5.421051 -12.483212 39.45222
6.2501163 -12.276682 44.928764
6.2285657 -12.409026 45.90288
5.831911 -12.582856 46.757168
5.5274734 -12.247303 47.660385
5.568851 -12.49817 48.315575
6.0254045 -12.635798 49.216553
5.480801 -11.904664 41.54794
5.7470555 -12.003087 42.013367
6.2953696 -11.73398 45.38822
6.0453687 -11.7747135 46.435204
5.6722817 -11.890861 47.59656
6.021055 -11.612479 48.457916
6.116446 -11.827458 48.983364
6.290124 -11.268501 40.89464
6.3235474 -11.309613 41.47162
6.3543344 -11.2206135 45.80074
6.0149283 -11.334027 47.706127
7.320741 -33.740643 54.497593
7.1802406 -33.608 55.68711
6.8616123 -33.052692 53.704494
6.9624963 -33.337112 54.5849
6.7683372 -33.17788 55.668118
6.6366587 -32.874367 56.28629
6.775743 -32.705936 56.71548
6.951855 -31.707466 51.629276
6.466886 -31.98953 52.46267
6.401553 -32.378536 53.692833
6.61401 -32.014797 57.237755
6.861604 -31.149523 51.333813
6.5672884 -31.28768 51.600414
6.5885024 -30.382002 51.26448
6.5701284 -30.397705 59.359367
7.0723467 -30.070238 59.937027
6.4777513 -29.59638 59.598167
6.8329573 -29.326591 60.086838
6.9545465 -29.02824 51.236816
6.5521717 -28.870396 51.78816
6.528801 -28.350033 52.472523
6.5748773 -28.24114 59.616673
6.9151435 -28.630571 60.186634
6.853917 -28.024828 52.117214
6.8056645 -27.709389 52.696224
6.873072 -28.029882 53.52482
6.5968604 -28.229918 55.373154
6.5647554 -27.506458 58.436054
6.869506 -27.826326 59.50021
7.0660086 -27.9917 59.96692
6.9201694 -27.247347 58.436466
6.6724343 -25.021515 50.031883
6.6410475 -25.082613 50.62289
7.0149717 -24.16424 48.820244
6.7236743 -24.455515 49.3276
6.445287 -23.901716 51.853924
7.3245783 -23.210617 44.91483
7.354142 -23.102144 45.960396
6.9863443 -23.183893 52.33605
7.4013033 -22.496323 44.0303
7.211183 -22.45095 44.61307
7.2420497 -22.829195 45.633694
7.155284 -22.035927 46.961987
7.1190014 -22.041042 47.379498
6.7005644 -22.636543 48.73368
7.1737776 -21.598433 44.58203
6.962481 -21.058437 45.534218
6.670888 -21.138103 46.71909
6.4973607 -21.472208 47.65239
6.45976 -19.870863 44.786823
6.737013 -20.425894 45.285442
6.195059 -20.433985 51.577263
6.8889046 -18.997515 44.180897
6.1304083 -19.415054 52.496853
5.992968 -19.206947 52.697285
5.9822054 -18.527191 52.73516
6.1590757 -16.791067 39.18101
6.2103596 -17.163616 40.800377
6.4093585 -17.114388 40.90298
7.0069575 -16.743515 42.048313
6.573726 -17.89815 51.730854
6.3580847 -16.396803 38.966965
6.0008297 -17.096382 50.561005
6.3898706 -15.576364 38.742886
6.687661 -14.705165 38.828053
6.4602623 -14.684822 43.54039
6.7985067 -14.832544 44.576794
6.5431237 -14.36113 49.779633
6.0604033 -13.4384575 38.71518
6.199749 -12.926317 39.01426
6.4190693 -12.352023 39.44685
6.786784 -12.61924 49.772007
6.73814 -11.441856 40.152706
6.62259 -11.120128 43.559002
6.56211 -11.509709 44.68554
6.4260373 -11.336472 46.503525
6.6634493 -11.607529 49.297142
7.028206 -11.950892 49.71429
6.883015 -11.003329 40.679657
6.8495593 -10.401892 42.04118
6.8998055 -10.636458 43.948616
7.273582 -10.480015 45.792454
7.1662073 -10.488617 46.182644
6.7337255 -10.871684 47.32157
6.749703 -11.018544 48.583687
7.05513 -11.090805 49.022705
6.8788137 -8.987908 43.228004
7.369342 -10.181144 45.2234
7.118717 -8.410474 42.273655
7.012049 -8.589156 42.41302
6.8824687 -8.543476 43.50403
6.9785066 -8.625254 44.13899
7.162342 -7.632501 42.670765
7.0914326 -7.5007744 43.36935
7.1622753 -7.695785 44.020313
7.4171515 -6.6659713 42.789467
7.281287 -6.6151853 43.636337
7.688766 -33.84938 53.928608
7.8961797 -34.194775 54.624382
7.916655 -34.229958 55.143738
7.676439 -33.71518 55.947174
7.689709 -33.286716 52.93173
7.927869 -33.54667 53.472233
7.2516603 -33.343258 56.183716
7.3259683 -32.977325 56.858997
7.346218 -32.00952 51.734516
7.775165 -32.395267 57.225147
7.73628 -31.666084 58.505783
7.886218 -30.935999 51.094276
7.4910955 -30.497993 51.02815
7.5163846 -30.052599 60.296154
7.7227564 -29.59203 50.870514
7.2713933 -29.265226 60.41586
7.603436 -29.165388 60.642914
7.532693 -28.82268 50.9808
7.302664 -28.194294 51.433983
7.3357015 -28.420265 60.493805
7.5968204 -28.5498 60.62019
7.507258 -27.666811 55.377037
[...]
POINT_DATA 4193
SCALARS features_00 float 1
LOOKUP_TABLE default
0.55539894 0.5858942 0.71063375 0.53331 0.60209066 0.6077696 0.7245128 0.78702724 0.52158487 0.54785144 0.5861531 0.637573 0.73379165 0.7674768 0.548771 0.57248956 0.64495707 0.7170377 0.74472106 0.44020626 0.5238017 0.58419186 0.44092685 0.48393822 0.5733345 0.6741504 0.8043767 0.39402378 0.46411842 0.50460505 0.8139185 0.8454522 0.4363284 0.49584097 0.79871416 0.8256092 0.50658965 0.5414025 0.62491053 0.6874013 0.75317407 0.79871213 0.5038492 0.4864775 0.5145771 0.6936606 0.70386887 0.73753875 0.7713406 0.74195135 0.7829027 0.78222317 0.6704351 0.7137768 0.7462019 0.8001226 0.7586526 0.72621804 0.73958695 0.70606303 0.5024643 0.49848607 0.37738246 0.42063117 0.66669035 0.68250453 0.24230029 0.3639896 0.7427718 0.7704811 0.31416255 0.83291566 0.3325164 0.8465167 0.6995269 0.30137882 0.74642694 0.8084375 0.6771101 0.6934329 0.7022565 0.66624963 0.30062574 0.49591985 0.61046255 0.68662083 0.68486553 0.6818432 0.69904244 0.6244446 0.2967466 0.687641 0.7085519 0.53728026 0.32271954 0.67031604 0.7021056 0.56649786 0.37655818 0.41827077 0.66330326 0.6633438 0.69817287 0.64252734 0.5807513 0.42694294 0.43369117 0.61637026 0.6350739 0.46188104 0.40846816 0.45442235 0.4150927 0.37552294 0.63181496 0.6025943 0.46642935 0.45786646 0.36744633 0.4174382 0.43552896 0.64305687 0.58102006 0.513512 0.40335965 0.46860945 0.50120014 0.58477545 0.5437671 0.39647454 0.40589875 0.42329913 0.51912564 0.5449587 0.5605163 0.46521306 0.408934 0.34480295 0.45338762 0.5184922 0.5585208 0.57766527 0.36875212 0.41924965 0.5278958 0.5708511 0.5731225 0.37534538 0.43288907 0.45182705 0.19870129 0.30863634 0.4162463 0.37793833 0.04135707 0.1025616 0.59164226 0.6597484 0.097048834 0.09375878 0.6895385 0.73799646 0.8110984 0.19363137 0.83693826 0.6643037 0.68173444 0.6823634 0.7494136 0.76181805 0.6650416 0.552601 0.49811512 0.015200146 0.32289776 0.3590664 0.58920354 0.66620386 0.64146113 -0.14769413 -0.061370064 0.11802802 0.65666354 0.3304285 0.14412475 0.62020063 0.48586822 0.42364746 0.2344681 0.2962086 0.34539038 0.41840285 0.49853456 0.5969168 0.5915822 0.16562033 0.2888521 0.34379065 0.41877136 0.46391422 0.57108647 0.55388284 0.47466415 0.25169778 0.3514567 0.43689036 0.56734395 0.5918047 0.42524284 0.35266405 0.28970593 0.5039463 0.5408132 0.48352277 0.50007194 0.49642998 0.4506675 0.4145692 0.39610583 0.55816174 0.5626659 0.46972108 0.3793674 0.59097356 0.6123294 0.6441568 0.5341842 0.5313703 0.5671301 0.5731402 0.5781726 0.5223467 0.43179446 0.58151114 0.59032804 0.4436382 0.31949615 0.20053574 0.2143076 0.548778 0.5688801 0.5809973 0.516212 0.3784951 0.42159498 0.2602657 0.3278953 0.36026937 0.27648872 0.19730622 0.17364615 0.24124992 0.21786195 0.19527543 -0.07608193 -0.13329756 0.040121928 0.12192935 0.010653738 -0.056744225 -0.11522741 0.043413777 0.0023724586 0.57254493 0.05883676 0.7072091 0.74923086 0.75806475 0.64100903 0.5894417 0.55420196 0.3371029 0.5168429 0.61076987 0.31413978 0.5970408 0.5114322 0.077396676 -0.35465094 0.38109985 0.5462661 0.50425744 0.45203197 0.5032328 0.41226238 -0.029168304 0.17016985 0.36436096 0.55826485 0.48378718 0.32186186 0.088131174 0.05417351 0.26586017 0.31978804 0.47533596 0.5375689 0.49603605 0.35446328 0.16073474 0.41135252 0.39666453 0.43484685 0.4150956 0.5095181 0.5543864 0.56848645 0.58435345 0.6254649 0.5975561 0.60295165 0.5846348 0.50394356 0.5540127 0.6005898 0.44890404 0.3887486 0.51623046 0.31493533 0.22171749 0.4930908 0.5633961 0.5185888 0.5761936 0.5703079 0.5732027 0.5611819 0.50221264 0.5926647 0.59132874 0.21068676 0.53393143 0.56503063 0.13723265 0.34104648 0.39157397 0.464352 0.48703742 0.38454482 0.21563062 0.06272062 0.30265886 0.36173826 0.351942 0.35406327 0.3226755 0.2127164 0.18092188 0.2558046 0.37982318 0.39350283 0.3054952 0.30451298 0.3054454 0.18863821 0.34531188 0.4031263 0.40887463 0.23002174 0.16155863 -0.08739814 -0.07332833 0.005171258 0.0062980354 -0.17207772 -0.007645026 0.5478158 0.56538665 0.41566873 -0.11189081 0.5509038 -0.1776882 -0.15689865 0.43272233 0.3535153 0.18880491 0.30556095 0.2739965 0.35028777 0.35506737 0.4630831 0.2753318 0.14659256 0.42882103 0.43105274 0.18756165 0.3626923 0.29959178 0.42780304 0.5351615 0.51066065 0.52587765 0.57627785 0.61605287 0.63163626 0.6219862 0.57135016 0.603245 0.618901 0.6489035 0.65355515 0.6691733 0.6580299 0.6333505 0.6775546 0.6574899 0.61763525 0.5899857 0.50390404 0.57158417 0.37698495 0.46542993 0.18323518 0.23717621 0.4355523 0.41017878 0.46894968 0.44944507 0.5316674 0.5624124 0.47631744 0.46675712 0.38805467 0.3280639 0.3163366 0.3714232 0.44219384 0.3712374 0.38610667 0.3352441 0.25799713 0.0016625412 -0.055773564 0.115357615 0.36413372 0.28018224 0.31925344 0.3596541 0.390266 0.3871147 0.28384316 0.40416962 0.36509013 0.14516616 0.23434472 0.40849113 0.40653473 0.16875906 -0.113858394 -0.033604797 -0.14039129 -0.1497502 0.0876622 -0.048494525 0.22966698 0.16731767 0.15715516 -0.01026196 0.30777985 0.36206946 0.35422146 -0.07970649 -0.023289567 0.29370368 0.012981676 0.17419586 0.278081 0.22588155 0.2386265 0.034671783 0.22799963 0.21585163 0.06337046 0.256452 0.3282095 0.16646397 0.26110813 0.29208463 0.11376949 0.22369295 0.3530872 0.35296685 0.29314244 0.50287986 0.45504242 0.57351637 0.51907706 0.57592165 0.59531045 0.62525433 0.6599119 0.6282191 0.55789804 0.61320055 0.644928 0.6987659 0.66050965 0.6735613 0.7110945 0.71738666 0.667528 0.62080127 0.4855363 0.59699553 0.44079518 0.11389349 0.36199105 0.29732984 0.33284754 0.27866253 0.41669744 0.25353673 0.35138 0.44860438 0.1867404 0.40105045 0.41922438 0.39998174 0.30866677 0.06729738 0.30349946 0.33722144 0.39294362 0.40104228 0.2698155 0.23098393 0.35618657 0.30213565 0.34464416 0.3679595 0.2564534 0.3520894 0.3624839 0.23352143 0.35987413 0.34314477 0.32395738 0.20882854 0.32621935 0.28399378 0.3065127 0.22151443 0.33837634 0.33400017 0.32643452 0.37120953 0.37317717 0.21885926 0.13128267 0.27487165 0.3226211 0.20074977 -0.08944942 0.081495196 0.22837245 0.1838012 0.14303449 -0.04705231 -0.015939143 0.13596846 0.084048994 0.002067607 0.12902847 0.07671139 0.02415698 0.10308206 0.17181495 0.39164007 0.37628055 0.47951752 0.5277522 0.39952746 0.55175 0.55363774 0.48449808 0.5345502 0.53217596 0.52979237 0.6924741 0.7268812 0.74470097 0.6765208 0.6441593 0.6975932 0.662132 0.64520407 0.69483197 0.46392 0.67771757 0.32363066 0.2799209 0.17950065 0.16188276 0.16125792 0.16309777 0.41472942 0.41015804 0.14417997 0.3490434 0.37454027 0.13649896 0.39350432 0.41754162 0.38664883 0.07250623 0.20392871 0.3172163 0.35511392 0.14541452 0.49992037 0.44121116 0.31859708 0.12545459 0.47774842 0.48540023 0.43288913 0.21895449 0.4602763 0.4249661 0.25324672 0.3818726 0.08509293 0.34457418 0.34059495 0.14820434 0.3315012 0.24404776 0.25574484 0.3074638 0.366647 0.20451382 0.3249064 0.20120099 0.26558223 0.28860697 0.18697593 0.1126934 -0.028179359 0.07359637 -0.08927666 -0.034020834 0.042343494 0.15342657 -0.16723835 0.076502964 0.23843876 0.41439342 0.47775072 0.49734014 0.4987291 0.477934 0.39259535 0.65130746 0.69792044 0.7175291 0.62351567 0.23413089 0.16532315 0.7266983 0.740807 0.47435266 0.77216554 -0.017347798 0.782715 0.8058208 -0.03066015 0.5248392 0.74934435 0.20008941 0.47630137 0.4175813 0.42956865 0.41635585 0.3056873 0.24762529 0.40460047 0.35432774 0.30493397 0.35089812 0.32743204 0.35406178 0.55019695 0.5441986 0.4007224 0.21950832 0.2908017 0.29355124 0.5199777 0.53313863 0.45941082 -0.09581191 0.39305913 -0.0023602815 0.36014783 0.020710774 0.0881103 0.3646623 0.06200502 0.039356068 0.22686334 0.18977511 0.31694984 0.17214474 0.15534675 0.27003676 0.1930561 0.0010065059 -0.096294805 0.058894612 -0.12777121 -0.08866226 -0.015617284 0.012222622 -0.028375007 -0.051874574 0.09207865 -0.08716986 -0.037264183 0.07653313 0.112235695 0.15832943 -0.018644184 0.034007862 0.054637857 0.27990648 0.26497933 -0.31384847 -0.26014882 0.2319724 -0.06282739 0.06195865 0.3027162 0.39006853 0.20689823 0.6566233 0.704429 0.7306143 0.3567674 0.36032918 0.74446774 0.7658273 0.79316294 0.8119545 -0.32409194 0.8208914 -0.14928481 0.78288376 0.8125508 0.68580693 0.7535107 0.39499533 0.4005341 0.34976637 0.17651224 0.23383377 0.33411345 0.36484414 0.41250652 0.34597665 0.43200243 0.4755451 0.24446255 0.4825539 0.5943862 0.5909475 0.5459532 0.10734657 0.35453975 0.5417514 0.5839402 0.60301805 -0.12878583 0.5024747 -0.18253097 0.22079302 0.17837872 0.22416873 0.09223771 0.16367158 0.23869175 0.07710329 0.018417004 0.08326162 0.09322504 0.10413606 0.17316048 0.11887184 0.14833406 0.19992524 0.14653304 0.13248518 0.15626709 0.120990455 -0.04351727 -0.0014131209 0.13821512 0.095763735 -0.017629834 0.08299111 0.19493154 0.22901542 0.29563802 0.09089172 0.073797986 0.15112323 0.24589299 0.33751863 0.120335475 0.0035969764 0.0793552 0.22699271 0.18183804 0.1819245 0.0016118437 0.12560812 0.26216897 0.21354266 0.35942733 0.4133591 0.43653378 0.17686778 0.21551885 0.28645363 0.3531627 0.39858508 0.4137305 0.42798686 0.27710122 0.3180492 0.38390929 0.4109821 0.37549022 0.3800109 0.662686 0.68971884 0.3617431 0.37905806 0.71970534 0.7454146 0.79661405 0.8112763 0.81508875 0.821437 0.8074271 -0.20559105 0.56879663 0.75049186 0.36001968 0.3334156 0.26231018 0.06619266 -0.39744395 0.40975475 0.3712293 0.36906222 0.50170463 0.36201638 0.3741281 0.56545234 0.21190666 0.29000133 0.60687757 0.56024545 0.6201035 0.6044173 0.41555193 0.16911891 0.1482147 0.116612166 0.6333934 0.5756675 0.57848036 0.10315539 -0.089019984 0.09802811 -0.1435292 0.24169855 0.44571748 0.2648149 0.2181088 0.048001993 0.13688524 0.05633198 -0.009168509 0.007783493 0.05512434 -0.15994406 0.20426442 0.22020389 0.18494028 0.20328793 0.1099324 0.10170207 0.054469608 -0.028972585 0.012493628 0.23978278 0.24787295 -0.053543165 0.3099886 0.370867 0.42018974 0.09717326 0.1270068 0.2244089 0.36022493 0.4277447 0.4690777 0.49350828 0.2131048 0.25679308 0.18414466 0.29708168 0.38988346 0.44446963 0.4880388 0.5267635 0.20370418 0.22400878 0.20950659 0.4439116 0.21269435 0.22056308 0.42771155 0.21534795 0.40599394 0.3761953 0.24811819 0.2769007 0.29973686 0.3322837 0.3703513 0.39270657 0.4091912 0.34138083 0.3742844 0.4044402 0.41623372 0.40391785 0.597208 0.6497878 0.39569137 0.4037589 0.4426256 0.46471715 0.58031356 0.65808916 0.71253836 0.66924524 0.75424284 0.20687026 0.736761 0.78823435 0.07437601 0.49086797 0.70061386 0.765255 -0.20772335 0.45633754 0.34788972 0.23811439 0.16167901 -0.27836978 0.29177135 0.36740178 0.35028124 0.0043763965 -0.13244626 0.37336946 0.63437104 0.5971669 0.27373487 0.666573 0.11880931 0.63002574 0.68237144 0.7820568 0.538453 -0.15035203 0.79749453 0.6998925 0.5412697 -0.33795053 0.16529551 0.72581136 -0.35999072 -0.50172555 0.23957902 0.25376293 0.21837583 0.18432713 -0.11168608 0.09760241 0.05951158 -0.34825513 0.2013886 0.2952123 0.3448172 -0.30076426 0.28255102 0.32499686 0.2580644 0.2948537 0.20648755 0.2368139 0.045097753 0.1663206 -0.07366425 0.18146786 0.32014087 0.3526643 0.06257056 -0.12000315 0.40006354 0.4480855 0.13698803 0.5053302 0.53621393 0.2450132 0.24244606 0.16454186 0.2410438 0.31414843 0.39094037 0.46396104 0.5416903 0.5587665 0.55751145 0.26692498 0.32883117 0.5027734 0.53338397 0.25203466 0.34059796 0.25273034 0.2521908 0.24056938 0.35482657 0.33075097 0.23935115 0.27468318 0.3286689 0.36167136 0.3773847 0.39402092 0.38883388 0.40246928 0.43130502 0.41617614 0.41024917 0.46075726 0.47450417 0.54704225 0.60975176 0.3757926 0.46165085 0.4880972 0.39925015 0.45294738 0.53353333 0.64065576 0.3518191 0.35385463 0.25730547 0.3388082 0.35622337 0.4175923 0.5267651 0.2166225 0.28150558 0.378171 -0.028370786 -0.002695499 -0.14727724 0.04980841 0.14065012 0.11591804 -0.048367254 -0.19822927 -0.16156504 0.3187794 0.29513842 0.40335608 0.5100742 0.29340515 0.47747922 0.5480721 0.6038383 0.29120824 0.3495204 -0.40147576 0.40174708 0.54975486 0.60396653 0.6324608 0.8927578 0.88714445 0.79870975 0.54628104 0.52364683 -0.084803544 0.8071427 0.7608378 -0.045148566 0.666924 0.42038587 -0.37713832 -0.2575207 0.1629365 0.48134208 0.35498714 0.20624326 0.17395082 0.29778555 0.11687745 0.047536016 0.16447352 0.37379417 0.42966747 -0.06292703 0.28548145 0.38782176 -0.25411096 -0.31110576 0.365208 -0.31819338 0.3454376 0.3304242 -0.3181147 0.23924908 0.23989977 -0.35193118 0.18004535 0.2529792 0.086461246 -0.0034471005 0.08296825 -0.26757142 0.16855013 -0.0709434 0.07339724 0.023294725 0.13813865 0.5388918 -0.038199667 -0.02431754 0.5586234 0.54794717 0.24243078 0.40795702 0.507959 0.5686004 0.5657028 0.5549743 0.22437522 0.24486025 0.24172124 0.21656251 0.18430838 0.21111533 0.13005084 0.21934459 0.21939869 0.3660219 0.39666176 0.40556425 0.41615558 0.37385058 0.3700356 0.34945527 0.33075115 0.3568566 0.15850891 0.059226587 -0.10617173 -0.14551896 0.18499401 0.13493405 -0.06659399 -0.19077581 -0.2289601 -0.19821027 -0.22790527 0.8799348 0.85966164 0.7778909 -0.10152621 0.84691656 0.87573266 0.7295169 0.5996235 0.44314086 0.012831256 0.002861783 0.029398153 0.8076333 0.36967897 -0.023599919 0.7109014 0.66995275 0.21203332 -0.14642498 -0.050108038 0.4422769 0.44029307 0.22418457 0.18270229 0.44528764 0.45541432 0.13429968 0.12538822 0.01773782 0.42621946 0.39880282 -0.08844724 -0.12233353 0.38026273 0.34552664 -0.20225258 0.31690174 0.17794853 0.18787256 0.16072547 0.087050036 0.25544292 0.22213307 -0.33057657 0.074998915 0.064014696 0.30642048 0.30187106 0.29091126 0.2628243 0.11961885 0.40699953 0.7213817 0.865993 0.3108067 0.30440688 -0.02945365 0.32648402 0.75854516 0.87280136 0.90817904 0.27695835 0.437168 0.646358 0.75709164 0.8351447 0.46555203 0.69203246 0.13385187 -0.33330965 0.013342641 0.5386514 0.22361426 -0.06844059 0.27792773 0.30828702 0.53451204 0.53214824 0.35198832 0.4718727 0.52996814 0.5462103 0.5456737 0.1838389 0.18378228 0.26268533 0.34402972 0.11539954 0.010325734 -0.00044746697 0.29124284 0.34323758 0.10436231 0.2897623 0.30982763 0.31944728 0.3059396 0.27647054 0.34122857 0.36622068 0.4035504 0.38296598 0.3630637 0.40249097 0.36733925 0.48296106 0.019813176 0.039116897 0.20654696 0.107309036 0.22360952 0.21843186 -0.12920989 -0.11130261 0.10979311 -0.046766095 0.8280343 0.77772075 0.7339387 0.83042383 0.82068574 0.6367179 0.52841765 0.36514854 -0.0032644346 -0.002750557 -0.069633245 0.041698255 0.7973436 0.19610485 -0.05263149 -0.074255265 -0.04501559 -0.013716966 0.73503834 0.15142503 -0.03917128 -0.04721948 0.22078675 0.46438444 0.23230413 0.17968425 0.47989446 0.026363114 0.026130501 0.4306963 -0.050559666 -0.049634162 0.33413178 -0.067488775 0.013277568 0.23171651 0.1780797 0.18879291 0.26047024 0.16680686 0.7013521 0.8116878 0.32791722 0.32738763 0.8901696 0.92568225 0.34647527 0.31750214 0.93282306 0.34083724 0.24149755 0.2913313 0.8531997 0.89976776 -0.0022532828 0.6443727 0.71231914 0.78939635 0.19532993 -0.40887976 0.43932858 0.42552 -0.40448493 -0.07642136 0.372208 0.49387455 0.49084696 0.24883199 0.21986157 0.4588374 0.5358221 0.5477235 0.5337806 0.5161931 0.48662478 0.039693788 0.39517075 0.051833753 0.0013306104 0.37426746 -0.029140633 0.07249528 0.33215678 0.19469453 0.22595659 0.34392446 0.32717377 0.25223872 0.30549765 0.41272092 0.4025836 0.3750838 0.35630357 0.35544193 0.29647052 0.34178784 0.3686752 0.46789125 0.11497046 0.47588918 0.058002003 0.11962282 0.012935974 0.20095837 0.025113635 0.06882529 0.022277836 0.10156128 -0.17285375 0.16143812 -0.044114925 0.00997372 0.7540388 -0.35510468 0.7638171 0.673536 0.47755742 0.04833526 0.77880275 0.68281937 0.34233811 0.18134502 -0.10090218 -0.24200663 0.7038604 -0.02489841 -0.06213519 -0.048193783 -0.06480621 -0.12936488 -0.22830783 -0.17739986 0.2299054 0.30299258 0.4467402 -0.052404895 0.00232217 0.3484472 0.41947103 -0.024390526 0.43276554 -0.07142043 0.31997275 -0.072255254 -0.007910639 0.18413599 0.20288803 0.4531932 0.2543858 0.63135934 0.76995075 0.83678806 0.3144013 0.8967912 0.3507369 0.9225023 0.32160145 0.85729945 0.8993654 0.22017121 0.5149461 0.67085266 0.77989185 0.12751889 0.2130771 0.30311134 0.45554483 0.46871284 -0.21773027 0.20162952 0.4189226 0.5124637 0.5257015 0.07403626 0.28824118 0.525453 0.542416 0.5284775 0.5468214 0.54688984 0.3070757 0.39420164 0.538713 0.4983403 0.37936404 0.37811416 0.018773817 0.34448296 0.08723965 0.31784472 0.34128222 0.16569465 0.21290614 0.35263425 0.31578934 0.29804048 0.41325456 0.40557602 0.37900698 0.35290295 0.31589738 0.3575913 0.20447776 0.17199689 0.23301217 0.21275082 0.13837464 0.13600987 0.33906138 0.34789762 0.18657675 0.33656296 -0.097734734 0.22537705 -0.092479564 -0.005622901 -0.004481338 -0.5217253 -0.06001024 -0.0025528744 0.40908283 0.46990898 0.34726724 0.2325483 0.1654899 -0.52855384 0.5752928 0.46516293 0.36532655 0.14085954 0.14176503 -0.08108998 -0.05811072 -0.05602419 -0.22329304 -0.22054255 0.57203186 0.55336434 -0.32543987 0.008658078 0.53258735 0.46308035 0.4382173 0.45220214 0.4580344 0.44169316 0.14547941 0.35523537 0.32299927 -0.045472022 -0.03167643 0.114836544 0.39483207 0.21036166 0.48562384 0.72529817 0.24249524 0.2903791 0.7538507 0.82626426 0.31821936 0.74833435 0.8542384 0.32354966 0.63920426 0.77113867 0.8589779 0.40555763 0.56675905 0.29234064 0.30440566 0.41910043 0.045524254 0.40254557 0.4948042 0.4404841 0.5059803 0.16947304 0.20413554 0.51873285 0.53896224 0.5394516 0.24465778 0.5132129 0.49176013 0.42487013 0.25559202 0.17332587 0.2870702 0.18656856 0.18923858 0.32750088 0.29480118 0.2216983 0.25620425 0.38377443 0.37559015 0.3639079 0.42019528 0.46132833 0.34914157 0.33195093 0.36217353 0.34827405 0.41675377 0.51021993 0.44220483 0.55958164 0.45219094 -0.052608095 0.6376189 0.446372 -0.23070064 0.6283979 -0.07100743 0.8309711 -0.039935768 0.15701956 -0.43389836 -0.5109458 0.028602995 0.43570632 0.38215283 -0.4620375 -0.52592516 -0.0851581 0.6060747 0.583706 0.41487658 0.17943463 0.11780643 0.09383415 0.01445853 -0.06707493 -0.16997671 -0.58453184 -0.42728713 0.5955518 0.6037638 0.5893897 -0.13577276 -0.40305102 0.5553202 0.5761692 -0.33505836 0.46081692 -0.12714514 0.23337722 0.3380677 0.3967343 0.23893987 0.20400298 0.06419761 0.6031778 0.48109627 0.24952132 0.13511536 0.59787846 0.51815355 0.17290092 0.4781499 0.1380237 0.49875966 0.6953987 0.20852843 0.69354427 0.19613495 0.15367061 -0.3578031 -0.07083131 -0.14809364 0.35469902 0.1379842 0.40361148 0.33176252 0.12114312 0.4785348 0.43650332 0.11786187 0.16480085 0.22637445 0.43429935 0.42181596 0.16543597 0.1694232 0.39285517 0.353992 0.14804861 0.15545237 0.34614003 0.2120278 0.3184873 0.19698699 0.1943622 0.21165732 0.31272885 0.27643692 0.22757502 0.1909214 0.23033631 0.32865465 0.4220081 0.4605483 0.48498064 0.47129136 0.39982134 0.3778833 0.41021228 0.58526635 0.5343807 0.45532414 0.39547503 0.5924573 0.56324273 0.2428805 0.7308813 0.66096014 0.18862507 0.79873073 0.89443755 0.30738372 0.4082976 0.90508866 0.74199986 0.2998236 0.4028923 -0.36488527 0.22780497 0.29516804 0.446271 0.4101918 -0.21846664 -0.047908496 0.012755668 0.60437495 0.5616779 0.49324343 0.31384832 0.124989375 0.11056751 0.09154382 0.03066545 -0.38024092 0.60275424 0.61285 0.07004689 0.027540082 0.056792043 0.53421247 -0.02236572 0.20522614 0.367994 0.39203805 0.27675942 0.39284125 0.48101526 0.4826706 0.46839434 0.43653062 0.47339857 0.7369243 0.59531415 0.3289421 0.8396595 0.7255591 0.6404877 0.79883397 0.68889534 0.60905635 0.3615901 0.19593304 -0.15316075 0.08537807 0.6917087 0.60778356 0.5423276 0.44283196 0.26931676 0.21659641 0.18571301 -0.04569885 -0.064379424 0.217653 -0.3877306 -0.4662656 -0.19309768 0.34958273 0.41903996 0.34802765 0.13242605 0.027489882 0.22764137 0.21963048 0.19022436 0.35216647 0.23990819 0.2673273 0.2366381 0.356345 0.23719436 0.007251978 0.0984898 0.24776082 0.2453355 0.10676507 0.32908016 0.36485672 0.15809983 0.37894902 0.31261468 0.25628453 0.20801452 0.18669656 0.19391079 0.48602223 0.5048056 0.4062606 0.5178094 0.63519025 0.6223531 0.578352 0.4333733 0.60453 0.64880043 0.7156743 0.6828146 0.26649746 0.36833605 0.5196712 0.76647913 -0.041963764 0.2977057 0.46351373 0.5545208 0.