# vtk DataFile Version 2.0
Really cool data
ASCII
DATASET POLYDATA
POINTS 7587 float
8.435451 -1.1905037 37.694103
8.0887575 -0.94270456 40.92361
8.178722 -1.060179 41.51543
8.194862 -1.006051 41.97148
8.347286 0.05718799 21.089968
8.334861 -0.02776058 21.452948
8.337736 0.11447477 22.003653
8.436421 -0.557068 37.51586
7.9773574 -0.23177117 40.677586
7.8973517 -0.4342766 41.511
8.0604 -0.399854 42.077057
8.337813 0.5666943 20.96073
8.174238 0.6489344 21.624046
8.185097 0.9226553 22.321428
7.876246 0.8486179 40.09411
7.6646457 0.7700565 40.645283
7.788901 0.53659886 41.436806
8.077069 0.44380715 42.121143
8.335332 1.3123746 21.020855
8.142758 1.4541658 21.670599
8.20998 1.5838884 22.430517
8.347173 1.5243733 22.800713
7.922882 1.6536204 39.764446
7.591043 1.5373317 40.63367
7.7529616 1.6897008 41.211254
8.042408 1.1892215 41.97165
8.284103 2.0876756 21.71448
8.30903 2.1218715 22.267584
8.061899 2.2760348 39.83951
7.7928495 2.25293 40.480415
7.980086 2.3388777 41.236084
8.214421 2.2245908 41.75338
8.309691 2.8344703 40.1041
8.158139 2.8674338 40.509724
8.170812 2.7543344 41.10791
9.364461 -2.0457685 24.404158
9.231246 -1.9318879 25.33677
9.262652 -1.8235731 25.98998
9.278637 -2.0075858 36.118824
9.134259 -2.272865 36.853275
9.113706 -2.3339772 37.564465
8.986282 -2.0792294 38.11208
9.271782 -2.1384523 38.997147
8.87217 -1.6703817 41.433975
9.104741 -1.6150491 42.063286
9.01814 -0.8778894 20.811026
8.890909 -0.9343473 21.438332
8.983791 -1.0102777 21.95248
9.096474 -1.5295073 24.643959
9.041348 -1.421082 25.428204
9.227616 -1.2773601 26.342018
9.470817 -1.625431 26.895365
9.084236 -1.503155 36.163635
8.736256 -1.3115424 36.818947
8.61824 -1.4168228 37.555378
8.684985 -1.5215075 38.447613
8.749695 -1.1411464 39.189186
8.931327 -1.1510783 40.185974
8.630531 -1.4103014 41.50402
8.756215 -1.2492821 42.26329
9.184461 -0.9812762 43.00838
9.065476 -0.1350279 20.204441
8.688872 -0.29002574 20.748373
8.540768 -0.52720976 21.547672
8.583827 -0.33269832 22.165546
8.920882 -0.5795914 25.472324
9.132282 -0.45564437 26.35415
8.960894 -0.24781805 36.256935
8.617733 -0.58242065 36.782085
8.533232 -0.32260087 37.22207
8.504331 -0.58964086 42.55841
8.84 -0.5057737 42.859493
8.953508 0.4543334 20.184351
8.56515 0.44195175 20.618652
9.1131 0.53478473 23.41685
9.087457 -0.017760698 24.14459
9.00034 0.11829637 25.319963
9.216507 0.08853713 26.09527
8.818157 0.03681481 36.78378
8.736202 0.23042083 37.3626
8.640048 0.33291867 38.949436
8.518033 0.51504076 39.452198
8.454282 0.8136391 42.470203
8.834845 0.29227045 42.97729
9.065174 1.3007997 20.145874
8.551118 1.4791589 20.758596
8.563532 1.7093794 23.021774
9.227203 1.3151076 23.73353
9.152999 0.6633837 38.002396
8.2779045 1.8836833 39.395504
9.205091 1.0732602 42.91485
8.860515 2.2232985 20.889786
8.600697 2.4082234 21.531141
8.618327 2.3906646 22.39698
8.654381 2.0919385 22.90711
8.537325 2.4012685 39.556953
8.401341 2.7222443 41.562054
8.690244 2.3387125 42.157986
9.210869 2.075958 42.765686
8.935314 2.6929197 21.710402
8.827871 2.6518345 22.189264
8.889851 3.0827103 39.85116
8.580591 3.2790978 40.473965
8.588618 3.1382186 41.327732
9.16389 3.2520282 42.055214
10.030037 -2.6760807 24.998009
10.000207 -2.7326467 25.120821
10.0615635 -2.7270043 26.89671
10.225662 -2.740414 27.583897
10.31391 -2.9878807 35.514256
9.9797535 -3.040289 36.46641
10.099423 -3.1058786 37.58711
9.956177 -2.782529 38.281727
10.245319 -2.1320086 22.881493
9.843045 -2.2207634 24.086245
9.593359 -2.247558 24.455933
9.586245 -2.36326 25.676525
9.571257 -2.2152128 26.505604
9.784318 -2.18673 27.599056
10.037042 -2.1678498 28.160671
9.7703285 -2.4896312 35.713093
9.588342 -2.6264708 36.263706
9.333881 -2.47883 38.328766
9.953732 -2.4121933 38.87293
9.580485 -1.6253182 41.003494
9.297612 -1.7766322 41.396133
9.612632 -1.6851962 42.32836
9.74987 -0.7980968 20.21428
9.4665785 -1.0600445 20.734224
9.501563 -1.3011333 21.39693
9.363548 -1.2386625 22.111126
9.649892 -1.4121666 23.434126
9.593323 -1.1509532 27.228737
9.718057 -1.5183393 27.920074
10.163125 -1.2605847 29.29512
10.401051 -1.1425445 30.321375
9.534185 -1.5157471 35.725025
9.546398 -1.5208576 42.58683
9.629983 -1.1550729 42.988228
9.632829 -0.41686627 20.034433
9.506982 -0.49929482 26.976446
10.22207 -0.5778322 29.5911
10.277198 -0.8312733 30.357597
10.447719 -0.700881 30.950417
10.23523 -0.8886988 34.925625
9.374271 -0.902843 35.990295
9.307291 -0.4179476 43.181725
9.720044 0.45212603 19.743309
9.490022 0.30152756 26.348953
9.919748 0.08299261 27.090446
10.338728 0.060479194 29.553837
10.355188 0.096986234 30.073305
9.627303 0.24069056 36.25042
9.49175 0.50503635 36.593838
9.399778 0.36385927 43.34675
10.207554 1.7732972 19.37412
9.682666 1.6163867 19.705137
10.032405 1.2446429 24.561909
9.773063 0.9389069 25.562204
9.920862 0.8551563 25.94571
9.927809 0.8071799 37.17835
9.637475 1.2533025 43.284615
9.930253 2.2568038 19.862085
9.532481 2.5238457 20.536459
9.169439 2.5162334 22.825796
9.5652075 2.4136958 39.299015
9.813656 2.0299253 43.15526
9.97447 2.8221798 20.704487
9.439544 2.858992 21.709078
9.339182 2.7716827 22.350716
9.561908 3.071461 39.63204
9.435254 3.7121203 41.73853
10.039716 3.574487 42.494175
10.116398 2.9295344 42.98116
9.570341 4.4281898 40.904846
9.599041 4.4819913 41.3904
9.965087 4.430495 42.22681
10.20419 4.1450806 42.722225
10.168176 5.213227 40.662773
10.025303 5.203854 41.440384
10.152325 5.1188545 42.084774
10.310621 5.70895 41.388283
11.259966 -17.96272 32.497173
11.250897 -17.947887 33.05943
11.424087 -17.16846 31.054317
11.237933 -17.357191 31.594543
11.010289 -17.35428 32.476654
11.1788845 -17.471306 33.374454
11.308383 -17.200848 33.75725
11.339043 -16.846928 31.19621
11.158732 -16.565443 31.728674
11.053686 -16.505478 32.60846
11.148625 -16.589365 33.170067
11.352936 -16.884554 33.7616
11.337734 -16.034113 31.648577
11.292113 -15.963535 32.61514
11.338438 -15.926526 32.912273
11.234738 -4.083777 27.038315
10.963614 -4.064123 35.98704
10.995698 -3.9870028 36.158615
10.713521 -2.7610517 23.648188
10.727192 -3.3128426 26.208994
11.235498 -3.5654352 27.545713
10.836145 -3.152785 27.972021
11.226099 -2.7694473 31.308184
11.058868 -3.24344 34.84295
10.562612 -3.318719 35.687515
10.386327 -3.4607115 36.81875
10.5433035 -3.4405456 37.637646
10.732292 -3.2536907 38.47474
10.995801 -1.5916233 20.723206
10.950905 -1.9888598 21.694233
10.838627 -2.31965 22.491625
10.679629 -2.5040233 23.617329
10.561773 -1.9476322 29.65782
10.806194 -2.2674892 30.316946
11.139183 -2.5686998 31.367378
11.34907 -2.641219 31.829102
10.398382 -2.3817787 34.986805
10.68659 -1.9266291 40.016075
10.302424 -1.7300543 41.11228
10.304448 -1.7497227 42.250313
10.660258 -1.627666 42.787605
10.553904 -1.0340183 20.163942
10.679761 -1.4782254 20.697763
10.364957 -1.4767437 21.361473
10.606218 -1.7478495 30.664267
10.723027 -1.5078912 31.454605
11.028017 -1.4225374 32.236645
11.3377 -1.3772627 32.980923
10.508475 -1.1434948 43.29137
11.120704 -0.82486117 43.836693
10.691989 -0.025013179 19.495438
10.735597 -0.5281766 31.61803
10.758587 -0.18856272 31.870504
10.664543 -0.80419326 34.714245
10.814152 -0.38553166 43.9835
10.972683 0.22299725 19.419983
10.837692 0.35171235 27.219725
10.525188 0.2113204 28.590305
10.562061 0.51837754 29.673176
10.529622 0.31704816 30.44869
10.993752 0.5780324 31.22435
11.0655 0.32469866 32.302948
11.4067335 0.21527515 33.131718
10.87571 0.19358683 35.02121
10.501156 0.28256613 35.626957
10.639203 0.47278804 44.006603
10.931163 1.4545738 19.12053
10.572018 1.2408373 25.469019
10.864677 0.99291795 29.768595
10.800251 0.7727921 30.404346
11.290421 1.132767 31.144855
11.340134 0.83745027 32.061275
10.964147 0.7453201 35.679096
10.420723 0.7244599 36.63621
10.43693 1.4488852 38.911648
10.4301815 1.0495372 43.82603
10.5859995 2.033215 19.321339
10.472015 2.3722773 19.57832
10.550546 2.0230978 23.720213
10.766868 1.846561 24.224337
10.777405 2.7429378 43.308975
10.709062 2.725479 19.855408
10.579652 2.9698339 20.503157
10.549591 3.1242664 21.348192
10.683675 2.9106665 22.276064
10.371261 4.6469107 42.63125
10.691504 4.4032016 42.99356
10.91567 5.3711243 39.98244
10.52465 5.566491 40.604748
10.506079 5.3058515 42.327507
10.816983 5.1073437 42.75895
11.089058 6.124035 40.16958
10.917828 6.1983504 40.685253
10.679436 5.969847 41.590656
11.082108 6.082508 42.174805
12.282311 -18.8945 30.616816
12.193246 -18.94152 31.30903
11.996864 -18.637142 32.95541
12.251179 -18.278175 29.897058
12.005127 -18.385872 30.487066
11.474324 -18.139942 31.73098
11.4897785 -18.293188 32.539463
11.61718 -18.168814 33.363216
11.974107 -18.130213 33.80898
12.176958 -17.779163 29.87683
11.637841 -17.37153 30.818638
11.764258 -17.503378 34.028572
12.176476 -16.561966 30.115719
11.675564 -16.530872 30.727732
11.372366 -16.590178 33.595356
11.760414 -16.70732 34.037796
11.9468775 -15.820151 30.798538
11.590831 -15.801192 31.478546
11.597361 -15.5525465 32.206005
11.684513 -15.826877 33.230988
12.081521 -15.6026125 33.811203
11.954984 -15.198083 31.952383
11.932079 -15.223089 32.513157
12.169456 -15.058984 33.244015
12.179638 -6.086484 25.721323
12.174391 -6.1299996 26.477203
12.4225645 -6.6974096 28.84947
12.338806 -6.278132 29.288101
12.4122715 -6.61435 30.094954
12.303463 -5.3879485 24.777678
11.886353 -5.323334 25.59058
11.77278 -5.368442 26.53139
12.46249 -5.34133 28.491503
12.477372 -5.2231035 30.013794
12.124685 -4.829834 34.856388
12.075225 -5.0593667 35.62489
12.273686 -5.3725796 36.39011
11.787593 -4.1876326 24.930695
11.67332 -4.6573296 25.29809
11.520161 -4.7463417 27.155846
11.99963 -4.104211 28.379162
11.919214 -4.4172726 34.733
11.635883 -4.5729084 36.130756
11.928666 -4.327208 38.09293
11.291389 -2.6929653 22.66992
11.935188 -3.447513 30.170324
11.451187 -2.9058237 31.577946
12.252709 -3.0029292 32.066143
11.488957 -3.7449539 34.649456
11.425195 -3.3955045 38.939102
12.018144 -3.0287127 39.852867
11.638361 -1.7417686 21.01963
12.039337 -2.3267577 40.88324
11.685788 -1.9162493 42.188457
11.676022 -1.6383871 42.932007
11.639336 -1.2767161 20.020166
[...]
POINT_DATA 7587
SCALARS features_00 float 1
LOOKUP_TABLE default
0.5304179 0.540522 0.59704316 0.6235614 0.6748096 0.66410446 0.64644 0.5262149 0.5743714 0.6431556 0.6460149 0.7039965 0.7105508 0.68713343 0.57354784 0.64440084 0.66339934 0.62479293 0.75325835 0.75877964 0.70469224 0.6596969 0.5837361 0.65859467 0.6338621 0.58342516 0.7538805 0.71893406 0.61836445 0.64086854 0.5831103 0.5130727 0.6117623 0.5985419 0.55172724 0.29951757 0.3927509 0.4221725 0.4936171 0.49298024 0.4651342 0.43426383 0.2977058 0.52307975 0.55769217 0.5917289 0.5603523 0.4869128 0.3900026 0.4505147 0.46373224 0.41148883 0.53676456 0.56624556 0.5384444 0.43467605 0.375598 0.3822237 0.55655265 0.60038495 0.5868172 0.65252745 0.65244323 0.6172353 0.58117676 0.50142616 0.48694614 0.5651533 0.5691296 0.5352255 0.62825274 0.6113911 0.68105614 0.693282 0.50324667 0.45588422 0.4817517 0.4734679 0.5358658 0.4928329 0.39387095 0.43366012 0.5513921 0.56133205 0.69497347 0.7492137 0.6340109 0.4951964 0.40505832 0.5403633 0.4517508 0.738446 0.7450173 0.6965622 0.64423203 0.5680585 0.47846422 0.4120394 0.35510975 0.7139193 0.6940669 0.5546751 0.54650867 0.4647056 0.33393478 0.28232995 0.28836524 0.27543458 0.22213596 0.3282155 0.38185406 0.35759908 0.31155163 0.19380651 0.24097994 0.28563386 0.3595841 0.36589664 0.28492182 0.22110412 0.40844196 0.4305625 0.3684476 0.23301685 0.41685608 0.48253232 0.51944244 0.5429589 0.53316635 0.44808596 0.3857755 0.24603033 0.4045095 0.29623714 0.2966833 0.34501967 0.49087945 0.54104006 0.5490055 0.58465236 0.44304034 0.35071948 0.36161673 0.3742782 0.4917945 0.54701006 0.5755033 0.61557585 0.4319108 0.38253903 0.36326385 0.37874597 0.47819114 0.45154753 0.51183474 0.57917005 0.62853307 0.30194548 0.3447324 0.32972932 0.3437733 0.3949036 0.5986911 0.6537504 0.5835402 0.38702834 0.31492797 0.62048227 0.6689031 0.6152545 0.43335885 0.34477693 0.30549642 0.27406865 0.38472795 0.3816132 0.37330222 0.34423327 0.4401995 0.4487699 0.43881774 0.5027058 0.78021586 0.791692 0.63540816 0.70562804 0.80163443 0.805886 0.7749538 0.64751565 0.67868054 0.6894556 0.68600947 0.7205082 0.62966216 0.592453 0.56985354 0.097612664 0.24019583 0.24652573 0.150676 0.18831438 0.10135761 0.12599821 0.22980513 0.24419113 0.29871824 0.33361614 0.2952031 0.18740045 0.28848702 0.22015677 0.17728016 0.16266026 0.25142682 0.26415336 0.25592065 0.24920362 0.35787126 0.08977218 0.3285542 0.42139885 0.40014145 0.4221232 0.33599734 0.32548028 0.31595448 0.32604414 0.31388417 0.26315138 0.46072742 0.46812227 0.4640023 0.37627086 0.36810383 0.40978935 0.517916 0.43610013 0.1836121 0.26377076 0.3564409 0.37890676 0.3478834 0.3114227 0.22015484 0.2943559 0.35856843 0.53049874 0.5383179 0.20823786 0.33478436 0.3606603 0.31061855 0.26958284 0.25125563 0.30423874 0.041834548 0.4403807 0.5546415 0.5602807 0.23644218 0.17296763 0.2784034 0.54447055 0.5661865 0.57874876 0.3994878 0.39318603 0.37422407 0.40282935 0.4799377 0.46340656 0.44198787 0.47893792 0.5204122 0.53827995 0.53289044 0.65249884 0.6481215 0.6654868 0.6459851 0.6447704 0.70209956 0.73106563 0.7507959 0.7163918 0.6189419 0.6176233 0.7645248 0.5688248 0.5984469 0.6637856 0.6425531 0.57507575 0.5986487 0.54196346 0.52160704 0.42990172 0.4862545 0.45661518 0.3952204 0.26038665 0.20068228 0.25209576 0.20507787 0.2079688 0.24481279 0.24929903 0.1879949 0.060670145 0.027925681 0.11734021 0.1134069 0.110729955 0.14171976 0.21175435 0.079580076 -0.054991297 0.1515963 0.17940393 0.07160685 0.12558782 -0.004669804 0.20762682 0.122828454 0.19567166 0.06697699 0.05045823 0.1990844 0.09352206 0.24687403 0.3381278 0.2782663 0.40958357 0.47312376 0.30565956 0.52795416 0.3236119 0.022983786 0.054531038 0.5581677 0.10856215 0.14362782 0.06657085 0.24507567 0.31870326 0.2640616 0.19322506 0.17579207 0.16136365 0.5001691 0.17766365 0.087316416 0.25694132 -0.24564385 0.4100381 0.52392924 0.53027534 0.2612304 0.23204845 0.20955832 -0.09846231 0.3687035 0.39326978 0.44957054 0.3177237 0.4110744 0.5151925 0.4834351 0.463596 0.50878334 0.5694382 0.5436566 0.6452193 0.6744126 0.6559411 0.63278395 0.606742 0.6137602 0.66872525 0.66023475 0.65763974 0.69162166 0.609074 0.6081715 0.5586424 0.5407988 0.36612397 0.5268637 0.39649966 0.30492294 0.23971826 0.23721127 0.23170848 0.2634354 0.3109948 0.21833716 0.4438095 0.5564793 0.27940527 0.25315046 0.19064642 0.1763685 0.27521852 0.2547748 0.10995245 0.04122808 0.4341277 0.51190656 0.53434235 0.24680519 0.27546513 0.26936182 0.15741012 0.14869478 -0.12839244 -0.055606294 0.3028468 0.38461876 0.49067098 0.19178997 0.25522244 -0.039697997 0.18916604 -0.062419057 -0.07416849 -0.12178253 0.07790807 -0.04054317 0.028093778 0.051802345 0.054327093 0.10857002 0.15192752 0.08159216 0.15584502 0.22060148 0.33499283 0.12308347 0.37939358 0.4573001 0.06395577 0.5046301 0.08005364 0.52678674 0.20885542 -0.20427528 -0.0023694038 0.048473462 -0.4227412 0.45430946 0.39307296 0.4319399 0.01386289 -0.052451324 -0.0015419871 -0.03626889 -0.0653766 0.13362342 0.14291146 0.020362847 -0.23264766 -0.24476351 0.3552039 0.020060122 0.09824878 0.08122981 0.1741113 0.26101443 -0.015579905 -0.08474421 -0.13484228 0.29982674 0.15174055 0.23939347 0.29213488 0.3109695 0.29704344 -0.006588407 -0.045051172 -0.11021067 0.35220927 0.30153286 0.32195884 0.26291502 0.2762648 0.30293655 0.3045304 0.029185012 -0.04796873 0.045163646 0.40680817 0.37228656 0.26391518 0.2688216 0.3916306 0.37964594 0.37033442 0.42223895 0.36895394 0.41208702 0.41202468 0.39951134 0.35267538 0.43738985 0.506112 0.5090128 0.3829571 0.45270893 0.6674911 0.6261504 0.59275746 0.70385695 0.6868169 0.6758616 0.5237402 0.69606704 0.4603902 0.48583132 0.6312617 0.57004803 0.5455077 0.3327528 0.5312737 0.36589396 0.5106052 0.55577475 0.50188327 0.22995967 0.35636717 0.48308456 0.53366965 0.25747195 0.22858132 0.27494684 0.47402567 0.48635203 0.17221193 0.18957488 0.10698728 0.025631338 0.06259407 0.33230847 0.07899545 0.12204824 0.08742747 -0.107250646 0.29943016 0.3344759 0.26168582 0.21291079 0.058541756 0.06707076 0.053040043 0.112252265 0.21726836 0.04704206 0.0045080855 -0.04021655 0.37854344 0.464223 0.5549996 0.582078 0.58119524 0.2634009 0.22415972 -0.03224118 -0.08896059 -0.055950716 0.57879895 0.5735411 0.24108174 -0.07321568 -0.10701646 0.45346868 0.53766525 0.15699899 0.17850864 -0.06981265 -0.18471031 -0.22313282 0.094555885 0.101336434 -0.1587267 0.12508056 0.19271922 0.3102092 0.047606405 0.05154267 0.38604775 0.470151 0.033713464 0.02637627 0.48926038 0.16715142 0.030057237 0.49733827 0.60164064 0.5123616 0.37335008 0.019352928 0.32492012 0.41207427 0.59292316 0.5214066 0.4297173 0.34088424 -0.23932654 0.031336203 -0.029461943 -0.10354792 -0.12026331 0.23176572 0.28049204 0.5010781 0.44731075 0.058809847 -0.23812272 -0.33439103 -0.32556388 -0.028442688 0.076049365 0.22726393 0.44573423 0.37592226 0.2384564 0.013252839 -0.09760043 0.10798107 0.15305015 0.2745514 0.3168223 0.1866857 0.09813668 0.12522352 0.18148036 0.2227045 0.2874392 0.35192376 0.30258337 0.13577391 0.25147995 0.19407484 0.24418712 0.019402578 0.075027786 0.31482258 0.49715945 0.5027297 0.45477137 0.39325404 0.3172933 0.367801 0.39486402 0.2731322 0.24620275 0.40996042 0.566662 0.546512 0.5147182 0.3357295 0.34852004 0.3529141 0.31967038 0.22709748 0.28069687 0.6582557 0.620548 0.57348025 0.72657907 0.6735995 0.3274485 0.34844247 0.43807107 0.42567426 0.44762346 0.4699159 0.6928457 0.67632437 0.59369415 0.6856204 0.6918266 0.67940545 0.32527944 0.31407708 0.54817116 0.594833 0.6162496 0.53287894 0.589784 0.6064724 0.56060815 0.5844792 0.5459023 0.5785158 0.53402877 0.25035125 -0.018053368 0.21807486 0.3304661 0.2915846 0.29156327 0.24005279 -0.037323415 0.26728946 0.29844946 0.37967828 0.5257737 0.54776794 0.22519137 0.18863232 0.11566426 0.14967637 0.5691135 0.5701746 0.2331706 0.24726462 0.5540166 0.16194919 0.21402591 0.45721698 0.12057763 0.14488812 0.37526822 0.0026041735 -0.0056110527 -0.038869087 0.009235528 -0.061896812 -0.13131025 -0.20364982 0.015131865 0.08834635 -0.023415398 0.16052829 0.044238366 -0.0033134557 0.020916145 0.037965644 0.43468124 0.46452165 0.6785583 0.6063198 0.4098872 0.37723243 0.6879314 0.62149 0.55072504 0.6917187 0.6329979 -0.1092373 0.61720026 0.55163664 0.15656167 0.05783853 0.41298825 0.36799556 -0.050981507 -0.025031954 -0.029080994 -0.30178618 -0.05379563 0.08368795 -0.052601814 0.005654037 0.09742434 0.09598142 0.059030138 0.17154814 0.17693925 0.39388517 0.25222534 0.0672677 0.091897726 0.10382256 0.015375688 0.22324848 0.46589983 0.3609465 0.2613299 0.071792275 0.051503807 0.045090437 0.08784763 0.15135333 -0.028313726 0.54931194 0.60245264 0.43500096 0.15665463 0.23242174 0.30053702 0.17885104 0.041546002 -0.02166608 -0.08400751 0.6424813 0.69077045 0.5847563 0.5091175 0.035983037 0.0053055435 0.023339033 0.30542916 0.24619949 0.21279742 0.099177174 0.08525629 0.7057663 0.7499665 0.7580303 0.67263734 0.6362486 0.08037462 0.21068865 0.31610745 0.30833483 0.29812467 0.17375888 0.11941057 0.78765297 0.80275476 0.7401087 0.24943817 0.31530428 0.36095634 0.4197822 0.34487695 0.24566212 0.37442982 0.4394241 0.4644856 0.47506696 0.43221664 0.45847338 0.4830553 0.4939696 0.46707258 0.6973654 0.6640283 0.6307261 0.68032163 0.6961409 0.5750626 0.51886517 0.6760497 0.36571056 0.30147153 0.6652976 0.46924722 0.5641757 0.6464546 0.6567104 0.5223235 0.67124796 0.64015365 0.15153283 0.56879437 0.6076819 0.5034184 0.22853914 0.24727067 -0.004801005 0.35355383 0.48294467 0.20367509 0.24112588 0.06215176 0.21654116 0.32605445 0.4938836 0.53011405 0.1256796 0.5279832 0.5146809 0.17527437 0.47122362 0.15660715 0.38414848 0.24023446 0.09158914 0.077374935 0.024321988 0.04752585 -0.12348631 0.14491898 0.029326055 0.3184609 0.4686076 0.054334726 0.04623806 0.121389106 0.54685295 0.412264 0.75757897 0.6773921 0.5573298 0.77334666 0.7323128 -0.008033805 0.7572088 0.7361549 0.67022836 0.5670659 0.46124554 0.42177504 0.33344972 0.21957166 0.26888654 0.019274596 -0.008575067 0.04483117 -0.020805199 0.4238308 0.19971836 -0.22577122 -0.0038072877 0.056132726 0.072853506 -0.010509774 -0.050246507 -0.1255394 -0.13757777 -0.10721272 0.06299706 0.45198166 0.31516472 0.13621074 0.13050857 0.043306254 -0.064751 -0.08765665 -0.17418876 -0.012704542 -0.052613415 0.1056051 0.21438822 0.27599627 0.59457904 0.463693 0.15911788 0.16627608 0.12916365 0.082807824 0.03235262 -0.09081746 -0.15363722 -0.048845924 0.20332749 0.34807786 0.42114246 0.5738952 0.69062734 0.5015683 0.4576608 0.1760641 0.08645484 0.1213689 -0.011899657 0.1423983 0.029554117 0.50296354 0.5848761 0.75528663 0.79637396 0.8203848 0.72561634 0.59866416 0.14010118 0.15001228 0.18291025 0.21112454 0.15572913 0.51150787 0.58355945 0.15726951 0.25005257 0.33205342 0.29911232 0.33966547 0.39251688 0.44291592 0.43155286 0.38773155 0.30243656 0.3514365 0.4019805 0.360625 0.69572043 0.6689166 0.60177314 0.5456536 0.49932122 0.673962 0.6959372 0.4509926 0.6572179 0.5225475 0.5751238 0.61325663 0.6522526 0.2734274 0.6862247 0.70724845 0.68116635 0.542497 0.63014495 -0.07826359 0.41547397 0.11670528 0.087632105 0.21488185 0.15588173 -0.07215652 -0.11075409 0.061537538 0.14856686 0.12437149 0.42536756 0.35581368 0.30980036 0.43817997 0.13146435 0.24521199 0.27139682 0.10399306 0.11376788 0.29599205 0.25648722 0.1742502 0.20449385 0.3782598 0.53480554 0.2695044 0.19572785 0.56113905 0.18516123 0.14792307 0.5411267 0.5997984 0.5055597 0.4282379 -0.21158472 0.7988906 0.6935312 -0.41419512 0.84196806 -0.30572286 0.80434656 0.723879 0.6081028 0.5121414 0.41522443 0.23904088 0.040586337 -0.089044146 -0.087539576 -0.24970229 0.07752899 0.27331796 -0.012800813 0.069493294 0.1942702 0.3696627 0.25039053 -0.036940347 0.05444233 0.31199676 0.5376133 0.5730785 0.5068375 0.109140635 0.13578984 0.6071666 0.6489944 0.69410235 0.4243148 0.16400817 0.13201186 0.10941237 0.11331813 0.03429228 0.23197715 0.36634308 0.6454568 0.6736297 0.8055401 0.7693769 0.5832079 0.526044 0.10893351 0.0668354 0.09732224 0.12195097 0.05760901 -0.044327796 0.04011125 0.2506355 0.50240886 0.5900518 0.6327809 0.015639843 0.109902 0.12688199 0.120226845 0.13883269 0.09997697 0.20599276 0.29918206 0.132058 0.52667844 0.4291566 0.21465634 0.27829877 0.2317575 0.67140836 0.6803597 0.60701513 0.49130878 0.6618085 0.69525975 0.69545466 0.6524437 0.56291866 0.69034874 0.6820216 0.657328 0.57612044 0.54163206 0.59239066 0.5147967 0.49155924 0.3975762 0.39414132 0.39886418 0.4859704 0.55163574 0.27566007 0.31058663 0.54060376 0.58081377 0.67613125 0.6474331 0.6327324 0.2880962 0.5978933 0.66795534 0.6305152 0.4974082 0.450261 0.30908382 0.37411344 0.17677218 0.59068215 0.64873815 0.6029022 0.6174638 0.5651711 0.32872808 0.30468053 0.13205767 0.05866734 0.52850974 0.57508004 0.5507154 0.50943077 0.4804748 0.04452035 0.4037552 0.4698971 0.36006582 -0.132595 0.15370016 0.05921092 0.04386056 0.18689044 0.121318765 0.12231824 -0.07017201 0.054784186 0.09390814 -0.014507279 0.14761312 0.1672846 0.29670665 0.22928062 0.2005201 0.17760357 0.20631325 0.13462988 0.32034665 0.29638383 0.19321957 0.33551127 0.3239274 0.3206211 0.5425973 0.562324 0.28926283 0.57095957 0.19394714 0.55125237 0.41830558 0.6179575 0.45764488 0.28231856 -0.31028527 0.7972925 0.67851925 0.85936666 -0.28743923 0.07020853 0.8283814 0.26879096 0.7343995 0.5249826 0.4255901 0.26861945 0.3329659 0.12079485 0.22139841 -0.0116743 -0.12708393 -0.19219702 0.092345305 0.3193032 -0.18767273 -0.08783392 0.43389624 0.4645801 0.06765158 0.50591594 0.5521221 0.56144154 0.37076032 -0.015594602 -0.08290471 0.64441514 0.6518936 0.6709156 -0.17290857 -0.18480471 -0.15402141 0.07334695 0.66127336 0.66877085 0.7600608 0.5939633 0.11241254 0.22369578 0.0137869185 -0.043167323 -0.1052328 0.028248351 0.02483378 0.54054904 0.59848666 0.6134608 0.24022974 0.07282536 -0.0067043537 0.0172989 0.2761324 0.51757556 0.4974969 0.42235965 0.38065475 0.22875267 0.05844044 0.08899435 0.09821262 -0.029654987 -0.07620843 0.045086324 0.04395537 0.33370167 0.15430447 0.64647824 0.60426736 0.5456057 0.19361098 0.20151713 0.12847295 0.14902733 0.14759344 0.20091218 0.19473085 0.12574038 0.40780145 0.30213392 0.667719 0.6198421 0.15146738 0.20549616 0.45109344 0.38090926 0.63085103 0.66962254 0.6267143 0.5207679 0.6453414 0.5837909 0.35624334 0.3621046 0.3209663 0.48892197 0.6862342 0.30777225 0.37218425 0.46487582 0.52634287 0.69185555 0.68768656 0.5251668 0.48421457 0.26212564 0.17087474 0.23355708 0.4328453 0.5171106 0.5645862 0.7114104 0.6878375 0.46799526 0.61915404 0.6463437 -0.040603563 0.34568924 0.4055251 0.5917499 0.07842993 0.5418467 0.50618315 0.11854863 0.08666471 0.15897594 0.20968306 0.09429344 0.046626765 0.06609456 -0.022563338 0.06698373 0.2879309 0.21767294 0.32444835 0.32583565 0.294898 -0.22941756 -0.07849619 0.11133131 0.30486876 0.32426217 0.17380555 0.23329389 0.3013879 0.29650217 0.3486787 0.4962364 0.2074671 0.5382769 0.5648817 0.10897922 0.47795478 0.5631695 -0.28664812 -0.10231139 0.19316332 -0.27715102 -0.29455218 -0.34589833 0.71263033 0.6678052 -0.24732713 0.027812187 0.11990573 0.7464506 0.63266987 -0.16014966 0.079908624 0.17405906 0.72786355 0.23663867 0.3513251 0.6249975 0.40179354 0.16895235 0.23902637 -0.13199124 -0.12852785 0.23779362 0.21481691 0.30173597 0.33395967 0.24336377 0.3376695 0.41907215 0.37377226 0.34294277 0.18025036 0.46761125 0.545866 0.33460855 0.21136001 0.11993478 0.6266692 0.3522238 0.2630813 0.16830696 0.6268569 0.038084313 -0.21220441 0.46763226 0.5347711 0.24967727 -0.07310297 0.14546762 0.71117365 0.62521863 0.56104934 0.48702794 0.11358528 0.03875252 -0.035452083 0.069345675 -0.08393585 0.11277384 0.5636846 0.5985304 0.38498524 0.3718583 0.09842183 -0.089201994 0.10549171 0.17149475 -0.060934804 -0.13526991 -0.06665452 0.013350677 0.23387736 0.6817255 0.68581754 0.6444571 0.41808993 0.24637413 0.25276032 0.23003027 0.13829808 0.099184595 0.15907222 0.19989468 0.20360398 0.04225689 0.30379677 0.7050753 0.7151555 0.69633853 0.2367212 0.2332395 0.22328204 0.42534083 0.36901015 0.5870148 0.691278 0.67461467 0.661909 0.57859427 0.7118031 0.70147103 0.47199905 0.49393517 0.3183771 0.16724552 -0.016954582 0.7235296 0.022476804 -0.03645873 0.66015965 0.6875347 0.20404732 0.21617597 0.25089693 0.5532002 0.14760697 0.15096669 0.09550371 0.13904342 0.123521686 0.17128514 0.10165994 0.12575865 0.28060052 0.11427676 0.1144772 0.33920577 0.30384064 0.17560932 0.03273379 0.32353455 0.31229234 0.24966758 0.22827661 0.25144964 0.2644416 0.28090754 0.25913885 0.3596502 0.06256277 -0.1046291 -0.07220356 0.51293206 -0.06984313 -0.21349342 -0.10277298 0.48228857 0.513417 0.55466884 0.5248843 0.32197428 -0.029757608 0.11166906 0.512975 0.5970084 0.5008696 0.3609849 0.46984535 0.22082484 0.30316788 -0.10956368 0.033449654 -0.075352766 0.16806509 0.002974391 0.20196728 0.23580581 0.2906893 0.32698184 0.38462877 0.4248743 0.48248273 0.377003 0.54032785 0.37591073 0.5567107 0.1641191 0.36869302 0.36563304 0.6551959 0.6473908 0.63821894 0.5676869 0.44197524 0.2650878 0.038368538 0.729548 0.72879714 0.71022314 0.45279077 0.07668063 0.2461027 -0.064226866 0.7452274 0.7417635 0.72512823 0.6988384 0.62934136 0.5492833 0.4694262 -0.15074947 -0.06288686 0.080592155 0.7332853 0.7197186 0.6785711 0.6177936 0.5460141 0.6536224 0.48041588 0.11092341 0.17890735 0.023102775 -0.23701394 -0.017259026 0.065371834 0.12121295 0.07355949 0.698316 0.70389795 0.688262 0.6399639 0.3303931 0.20755765 0.21663123 0.21175519 0.17220025 0.16781166 0.011818081 0.009214521 0.14070894 0.5049534 0.36639124 0.22729656 0.18536597 0.14622925 0.09740735 0.5320243 0.57075197 0.49030375 0.28336906 0.24631388 0.22310384 0.57244325 0.27328378 0.67108023 0.6449795 0.5762298 0.5051437 0.4577403 0.6736661 0.3313019 0.157812 0.66653156 0.65710616 0.111705884 0.32163367 0.65339893 0.296556 0.34725714 0.36507556 0.20003727 0.08480392 0.16957957 0.09590593 0.14684962 0.13983943 0.3511443 0.3159709 0.20511433 0.07115053 0.12530473 0.13444 0.34834343 0.3508619 0.14348757 0.16476734 0.3029772 0.31797507 0.24540798 0.22316 0.24336126 0.23619567 0.2429404 0.226753 0.2299417 0.030102048 0.054946065 0.18238537 -0.0056791604 -0.08924949 -0.029516034 0.38987333 0.51453125 0.5908682 0.65619373 0.0077419505 -0.06907728 0.46908262 0.50562894 0.57022727 0.64200664 0.6718865 0.10419652 0.3998316 0.45530397 0.5597861 0.6222427 0.6543927 0.1144724 0.10369887 0.43717784 0.48856834 0.5460446 0.6029997 0.0466481 0.1409639 0.44273722 0.18697438 0.03724754 0.15293819 0.15223134 -0.004873462 0.10489565 0.11021627 -0.058711115 -0.02582711 -0.1692289 0.14982677 -0.32123443 0.24781549 0.18738043 0.24348235 0.32903278 0.24168888 0.29108006 0.39917296 0.24875624 0.4143266 0.2891244 0.29895315 0.45069605 0.4295498 0.32788804 -0.029388458 -0.23446114 0.035561442 0.59489775 -0.055544943 0.11632235 0.29684898 0.7235857 0.02295123 0.116962425 0.7479849 0.74459374 0.4657001 -0.14350817 -0.048881352 0.054283332 0.73142385 0.6985092 0.62697685 0.56990683 0.5366357 0.41213796 0.47814834 -0.11947861 -0.24419963 0.054727577 0.58293176 0.616321 0.65069115 0.6173604 0.030503891 -0.042676374 0.09951933 0.025507355 -0.12285834 0.40366042 0.5013026 0.07997815 0.11696298 0.27904132 -0.2196777 0.183841 0.16379306 0.12134672 0.3857658 0.5656542 0.68547624 0.6374134 0.6166725 0.22454748 0.10710678 0.44792175 0.46966457 0.4506266 0.18537045 0.22802302 0.13038692 0.07736653 0.30759743 0.47132814 0.6236054 0.7007011 0.6425362 0.6363368 0.58116823 0.5170186 0.23758426 0.4145705 0.5431093 0.57192636 0.5347259 0.45678985 0.3557814 0.35709748 0.286749 0.25057706 0.20288464 0.12539487 0.48567516 0.6718613 0.69454837 0.6378121 0.6128915 0.5739151 0.56200635 0.45019814 0.31848016 0.27352896 0.61596775 0.59646034 0.5281512 0.49018797 0.44522294 0.5676197 0.5313272 0.4608608 0.42149994 0.29469034 0.22709434 0.6112848 0.5321688 0.24036598 0.18772349 0.14125535 0.092248306 0.24182999 0.36581245 0.47819453 0.44272295 0.39011812 0.39147526 0.37758005 0.22867104 0.40900806 0.38588053 0.01320295 0.109522775 0.3611222 0.053914733 0.23445566 0.18118238 0.34007627 0.27540797 0.032405388 0.32912815 0.344