# vtk DataFile Version 2.0
Really cool data
ASCII
DATASET POLYDATA
POINTS 3363 float
4.248463 10.253304 34.981354
4.2335243 10.264778 35.421455
4.1256075 10.739577 34.84544
4.0534997 10.688299 35.484333
4.1219516 10.775402 35.93197
4.1215425 11.339227 34.780003
3.9579337 11.308997 35.461647
4.1605263 11.281901 36.096786
4.2806444 12.101251 34.890644
4.218707 12.291961 35.446545
4.288157 12.026972 36.003254
4.3345633 22.978582 39.960926
4.243582 23.03034 40.56926
4.328494 23.091171 41.05738
4.232192 23.617044 39.86823
4.109546 23.570103 40.556103
4.2072544 23.685818 41.097855
4.284189 24.21285 39.966965
4.1908593 24.214573 40.51879
4.184307 24.03354 41.016445
5.0792875 10.007039 34.311394
4.6994467 10.00398 34.731483
4.64233 9.9271145 35.367584
4.8712854 10.089643 36.076206
4.642512 10.637421 34.209522
4.4900584 10.434569 34.49509
4.521861 10.737913 36.31923
4.697806 11.348972 34.126163
4.512995 11.83915 34.369205
4.467595 11.774452 36.33403
4.95627 11.593726 36.766354
4.5825143 12.222241 34.47025
4.6030264 12.527399 36.28027
5.1313825 12.7001915 36.875282
4.6646156 13.163247 34.941353
4.558887 13.200542 35.78484
4.8824153 13.512344 36.258575
5.1548996 13.293342 36.76067
4.9705577 14.025879 35.613285
5.1659203 13.889805 36.31988
5.3191643 13.879653 36.733738
5.2894187 15.726595 32.750805
5.26443 15.55183 33.4068
5.283212 16.3261 32.63866
5.201939 16.395533 33.25645
5.343092 16.54186 34.069916
5.357022 17.0507 33.032867
5.3844213 17.105015 33.348465
5.315619 21.899555 39.57191
4.8823113 22.03885 40.527744
5.1266236 22.076384 41.208855
5.0634575 22.786673 38.703873
4.527924 22.777143 39.77879
4.6030946 22.46177 40.693813
4.607198 22.743944 41.208687
5.0865607 22.756878 41.74626
5.180578 23.64928 38.03108
4.869345 23.705536 38.650005
4.429021 23.177425 39.542747
4.4564314 23.506945 41.432438
4.875638 23.439363 41.745064
5.2257857 24.332947 38.066578
5.043465 24.52937 38.5737
4.546234 24.524849 39.70445
4.393863 24.590633 40.524887
4.6266055 24.354975 41.31144
4.885215 24.09837 41.69983
5.1994476 24.907017 38.543476
4.890522 24.919811 39.61012
4.654598 24.816135 40.448704
4.9092884 24.769276 41.016346
5.7791386 9.845497 34.174107
5.3932652 9.586408 34.70812
5.5445943 9.648341 35.735275
5.59372 10.118272 36.33258
5.5041647 10.545748 33.7727
5.2072597 10.424243 36.498383
5.773701 10.859548 36.72546
6.0596128 11.642908 33.444885
5.329388 11.31867 33.777313
5.455132 11.478882 36.87545
5.6920085 12.266145 37.019108
6.061752 15.25708 32.197067
5.7380695 15.132362 32.67413
5.9698415 14.263756 33.599915
5.97037 14.495962 36.641315
6.0798326 14.516606 37.108696
6.266629 14.932106 38.673584
5.804005 15.832694 32.087147
5.471994 15.8064 32.338394
6.064952 15.431846 35.198795
6.0257955 15.286592 37.660275
6.168153 15.190558 38.139374
5.7785225 16.513166 32.0512
5.4669623 16.47024 32.399204
5.9972677 16.434032 34.87066
6.0342503 16.712599 36.776924
6.0189533 16.472624 37.209442
6.253461 16.421066 38.11352
5.9947944 17.163921 32.07693
5.5907626 17.324547 32.765232
5.5930805 17.531399 33.596138
5.722216 17.652685 34.421093
5.9347844 17.386307 34.92153
6.2529926 17.005781 36.897816
6.2416835 16.872232 37.67495
6.1549973 17.952719 32.560684
5.947732 18.20458 33.622635
6.264186 21.313612 38.11767
5.8943996 21.240517 40.61976
5.936296 21.321281 41.117493
5.765713 21.977177 37.86382
5.642825 21.805122 38.948673
5.570682 21.968473 39.241657
5.38773 21.619255 40.599003
5.5118413 21.75389 41.19907
5.6249633 21.98429 41.766445
6.4142737 22.433603 35.992134
5.7930546 22.72692 37.128838
5.531893 22.83829 37.572052
5.4042444 22.582592 41.812332
6.0855675 23.276676 36.769756
5.509071 23.65803 37.573174
5.277159 23.09781 41.923027
6.2830343 24.114496 36.794117
5.551955 24.33046 37.672577
5.1110625 24.625296 41.42177
5.352587 24.222153 41.737774
5.685584 24.99308 37.982285
5.5172343 25.199387 38.50632
5.702962 25.380594 39.450912
5.557354 25.409758 40.04449
5.5373936 24.837023 41.16026
6.433812 9.873202 34.04516
6.384403 10.049042 36.26662
7.05006 11.032957 33.267876
6.6494374 11.6333275 33.231377
6.762285 11.283104 37.240303
6.727537 12.5744705 37.649887
7.086243 13.16815 33.325764
6.466959 13.050404 33.584023
6.872626 13.227564 38.33122
6.700919 14.6674 39.211945
7.0835238 15.03032 39.75315
6.5946817 15.712771 31.833368
6.6763673 15.576276 39.300285
6.4751883 16.693853 31.671427
6.9788656 16.513313 39.34281
6.6670957 17.473642 31.752346
6.49478 17.523754 36.097008
6.394914 17.158482 37.293793
6.678148 17.04008 38.16558
6.769863 18.117456 31.917171
6.6598105 18.519075 32.307465
6.686476 18.556711 35.189953
7.2544165 18.203299 35.90142
6.9435244 17.665249 37.42269
7.445106 18.847488 40.519505
7.3974676 18.332495 41.08122
7.2719874 19.040712 31.967495
6.9101424 18.957365 32.761562
7.054065 19.265175 34.313896
7.373799 19.353748 41.747925
7.2525024 20.381035 33.74212
7.104615 20.912075 35.716145
6.4923234 20.991356 40.41578
6.684184 21.062956 41.323532
6.909263 21.630672 34.578793
6.3930326 21.797806 36.72157
7.1405153 22.361698 33.922817
6.7713885 22.470245 34.65225
6.6685085 22.270811 35.857822
7.068823 23.144943 34.56491
7.1494613 24.215252 35.63991
6.6611767 24.749956 36.66056
6.292794 24.27815 41.789246
7.243183 24.861725 36.085876
6.827071 25.145615 37.067184
6.336339 25.595387 38.003307
6.404532 25.239866 41.155117
7.114911 25.745483 37.47681
7.1455135 26.531712 38.86514
7.1066675 26.39475 40.269077
7.261726 26.869513 39.26051
7.3141103 26.988314 40.583885
8.186141 6.1005507 33.762463
8.186389 6.222596 34.3909
8.2085085 6.6971393 32.974743
8.006144 6.542306 33.53794
7.938057 6.689862 34.175297
8.168695 6.784049 35.02537
8.026084 7.050458 33.050156
7.886562 7.321037 33.447662
7.9206023 7.5799594 34.402065
8.138292 7.5351367 34.982533
7.9262776 8.834878 34.04888
8.024553 8.072219 34.47639
8.217374 9.521315 33.932816
7.3309116 10.768483 33.23477
7.0997105 10.769317 33.45363
7.8123517 10.929118 37.934505
8.485262 10.389865 40.4952
7.503185 11.696059 37.892113
7.9229608 12.045642 32.968323
8.066845 13.019773 39.337418
7.4935427 13.850643 39.23546
8.304645 13.65174 40.775326
7.594312 14.606658 39.928677
8.022474 14.643707 41.69793
8.223865 14.546657 42.48409
8.2773695 14.8021 42.693462
8.0293255 15.261709 42.268036
8.268061 15.14864 42.771824
7.338291 16.640064 31.403406
8.051079 16.627094 41.844097
7.7649703 17.559689 31.157585
7.4887047 16.97095 39.47336
7.6746554 17.48793 40.840496
7.643065 17.73087 41.40245
7.6952257 17.73529 42.081078
7.8438067 18.412706 31.253603
7.3998966 18.560244 31.519484
7.464771 18.147745 36.400394
8.1645 18.045042 37.87386
7.9529896 17.712141 38.436977
7.481854 18.251467 41.178833
8.076199 18.516817 42.781845
8.189343 19.679487 31.900103
7.8895364 19.588196 39.884518
7.45055 19.0008 42.055088
7.607291 20.685804 32.912636
7.342638 21.050598 37.642277
7.548771 20.832035 38.77509
8.038598 20.217094 42.138023
7.8611827 21.23062 32.844578
8.255029 22.173145 42.348984
8.102635 22.505592 33.05568
7.489709 22.290556 33.474854
7.244333 22.366577 41.93994
8.0335 23.09852 43.219643
7.9637985 23.143852 33.391747
7.5236926 23.82324 42.87898
7.8807187 24.058092 35.05724
7.9793215 24.364866 43.383385
7.38935 24.925983 36.095394
7.543496 25.588293 42.242107
8.290469 25.389019 43.445118
7.9743676 26.487865 36.76411
7.50555 26.722513 37.737793
7.627629 26.130737 41.657856
7.8091226 26.27541 42.41177
8.297148 26.363823 43.449413
8.062159 27.009995 36.86774
7.4667797 27.43407 40.195126
7.8766794 27.485178 41.18091
7.928704 26.998655 42.37913
8.149242 28.450428 37.383667
8.073215 28.498257 38.523453
8.046981 28.303698 39.382057
7.7249455 27.750488 40.78458
8.148386 27.825394 41.350662
8.305676 29.024672 37.69089
8.286548 29.154448 38.464878
8.642203 6.1450114 32.845684
8.566427 5.8357253 33.70453
8.56288 5.8855605 34.392567
8.863474 5.8940954 35.00559
9.171187 6.902582 31.61685
8.452001 6.5479217 32.76318
8.41184 6.4117856 35.069683
8.694786 6.870952 35.70728
9.24474 7.413122 31.292423
9.063623 7.368869 31.582277
8.592414 7.6193085 32.283134
9.096137 7.8465705 38.762188
8.88401 8.149244 39.27186
9.265245 7.738483 39.895653
9.183925 8.032793 31.48776
8.897124 8.292261 32.492847
8.958592 9.147511 36.07582
8.938962 8.688585 38.082256
8.567274 8.933433 39.15576
8.728075 9.17547 40.404236
9.131645 9.171638 41.430183
9.246861 9.166564 32.901627
9.09453 9.491919 37.43785
8.598271 9.436962 39.235672
8.566111 9.41362 40.220016
8.81228 9.640056 41.458572
9.105067 9.72449 41.92124
8.886818 10.933018 32.927372
8.675785 10.410282 41.365326
8.990695 10.437647 41.99695
8.270403 11.474323 32.984848
8.702484 11.015852 40.1367
8.683866 11.29826 41.07518
9.334456 10.979912 42.401817
8.708242 13.14502 40.802635
9.124376 12.313727 41.753754
8.460215 13.105948 32.994423
8.556775 13.270459 41.083683
8.672651 13.814448 42.42422
8.907442 14.62222 43.10908
8.797662 16.087103 31.225527
8.246993 15.59412 31.665617
8.663439 15.165666 43.03274
9.457076 16.633276 29.66919
8.441962 17.002949 31.049017
8.881171 16.167402 42.84291
8.495301 17.588205 42.741947
8.7485285 17.994219 30.823605
8.515536 19.517332 31.52013
8.595672 19.132519 43.004425
8.770729 20.390291 31.725319
8.622356 20.175114 42.633762
8.594886 21.31857 32.151524
8.524642 22.292488 32.27885
8.447266 22.35157 42.93565
9.138083 23.395752 31.802288
8.909518 23.76401 44.104656
9.310859 24.186146 31.42734
9.143561 24.053802 32.309746
8.978498 23.928492 33.143703
8.842009 24.32033 34.91809
8.444785 24.88144 35.642338
8.738086 25.241905 44.2111
9.140951 25.029446 44.662453
8.557289 26.383543 36.156693
8.766762 26.427013 44.165466
8.970459 27.351103 36.17207
8.505854 27.3654 43.534607
8.887018 27.53397 44.204453
9.268683 27.686886 44.798573
9.154179 28.812485 36.318264
8.441118 28.35609 36.95871
8.497452 28.428951 40.625526
8.924758 28.28175 41.554832
8.733071 28.189844 42.519855
8.991267 28.234512 43.625748
9.260291 28.34822 44.434452
8.878404 29.330984 36.858337
8.6924 29.884264 37.235138
8.850226 29.275919 39.310764
9.314981 29.18196 40.38104
9.2482 28.711561 43.56643
9.159597 30.405146 36.768127
[...]
POINT_DATA 3363
SCALARS features_00 float 1
LOOKUP_TABLE default
0.8345624 0.86407554 0.82188475 0.86430305 0.8583369 0.812006 0.8374667 0.8047854 0.76990545 0.7118637 0.69449544 0.7237706 0.76966417 0.7785047 0.7617956 0.8185054 0.82549596 0.7616354 0.81710255 0.8300319 0.72953844 0.8009515 0.856359 0.8327815 0.7452519 0.78078544 0.80336547 0.73588413 0.75832987 0.68758774 0.60875916 0.7309724 0.565143 0.44486412 0.5525634 0.4833764 0.37343174 0.36441022 0.2655906 0.2640183 0.2505608 0.5315007 0.5281567 0.53823733 0.5285475 0.47311395 0.52243334 0.510466 0.51673234 0.61295974 0.61918825 0.5087597 0.67163944 0.6847586 0.727224 0.68913674 0.41818327 0.5245549 0.6864793 0.80620795 0.77155113 0.40681815 0.47921252 0.68632716 0.7803482 0.78972274 0.77342474 0.43899882 0.6038277 0.72993195 0.7219427 0.62328136 0.7736999 0.826958 0.692811 0.59800935 0.70851076 0.52761924 0.40030456 0.6124191 0.5206278 0.39564744 0.46544522 0.48658988 0.33863473 0.10024621 0.13298482 0.28302985 0.5165636 0.5305362 0.14599851 0.20343025 0.2544055 0.51947063 0.53485316 0.28028667 0.1757145 0.20746371 0.27607894 0.4893872 0.51125574 0.47577703 0.35375547 0.2624659 0.18343383 0.2335859 0.4489326 0.43118513 0.33520177 0.48046735 0.49125832 0.3695129 0.44316846 0.47871658 0.5416276 0.55717397 0.5384859 0.24103309 0.31413284 0.36004966 0.62273324 0.29278263 0.36265928 0.69162905 0.28700364 0.35262394 0.7104176 0.700176 0.32986122 0.3779217 0.4088034 0.49519217 0.61598754 0.41888618 0.52195454 0.278512 0.30300778 0.22415231 0.12398819 0.26180005 0.27268463 0.0836003 0.230562 0.21469584 0.45520407 0.33535892 0.46118265 0.31409007 0.4059633 0.15538901 0.19819969 0.27624166 0.36399034 0.3512646 0.1747541 0.15443262 0.18141016 0.2751842 0.31192556 0.24783623 0.3010931 0.24020128 0.3692923 0.15579791 0.15377638 0.38411587 0.3676313 0.18812284 0.25147715 0.19199002 0.24328007 0.23010823 0.27265263 0.2125576 0.20737521 0.46581948 0.14025544 0.16665024 0.22432664 0.3045863 0.13928789 0.17355587 0.14676058 0.16484885 0.16104233 0.6379782 0.62407875 0.6125709 0.62521577 0.61501014 0.584532 0.5843371 0.57328665 0.57399917 0.5395479 0.40397438 0.5428003 0.090895854 0.2221758 0.26879817 -0.06841116 0.3939978 0.00059743226 0.19499785 -0.08992676 0.03936995 0.029025448 0.08781657 0.22064957 0.31798092 0.33227736 0.27066648 0.33157304 0.37508523 0.23469602 0.30046612 0.20508797 0.13602537 0.30314282 0.34153238 0.2456481 0.27308428 0.13750459 0.1838941 0.25665826 0.31841302 0.365151 0.1228226 0.09724817 0.4004699 0.14456356 0.25172028 0.17880028 0.22835974 0.12723693 0.015124666 0.12657695 0.15261753 0.24891989 0.1896261 0.13987033 0.20317023 0.18335193 0.25096118 0.12644553 0.12366234 0.27332592 0.11424482 0.16228725 0.11391866 0.1853591 0.28515494 0.16913554 0.14871837 0.1574637 0.19206172 0.33357847 0.27544534 0.17023322 0.14276296 0.14328262 0.41382802 0.36647385 0.62956214 0.63368964 0.61370003 0.56743586 0.6147591 0.61775416 0.58600104 0.46911496 0.6204082 0.6104847 0.5569156 0.22417209 0.28798404 0.3243305 0.5935691 0.49489447 -0.08080419 0.15648897 0.27829435 0.39570677 0.43660128 0.29939175 0.0042795516 0.27600184 0.38894808 0.4446665 0.4421902 0.04449089 0.4198716 0.42951167 0.1362066 0.28567278 0.31411326 0.42382362 0.00863055 0.23404013 0.12639262 0.05968223 0.3258744 0.36640045 0.16845268 0.26052254 0.35410887 0.28197587 0.24575181 0.3331861 0.30190155 0.17768788 0.077505395 0.29433858 0.0093507245 0.18272057 0.07005429 0.12316275 0.052299164 0.30444744 0.20951879 0.43962973 0.32924697 0.17349711 0.046091564 0.07154624 0.30119413 0.2950441 0.0813419 0.36017838 0.21040225 0.31641325 0.4006806 0.43987173 0.372878 0.32738015 0.11370916 0.10175643 0.19458503 0.32959473 0.40975368 0.45756346 0.532024 0.25268373 0.096639365 0.30353272 0.58378124 0.58794695 0.5315457 0.4369517 0.6563897 0.6577431 0.5982598 0.56480145 0.53674287 0.5355476 0.49238706 0.60517573 0.612406 0.5307452 0.5067346 0.45757094 0.61135375 0.60865426 -0.013968471 0.07760444 0.61234486 -0.0091436505 0.28785717 0.6049764 0.37599486 0.43215021 0.44190526 0.43958992 -0.019009449 0.4412654 0.44246298 0.36583138 0.42459604 0.30808663 -0.21393007 0.35573524 0.35855862 0.13961418 0.375988 0.38211265 0.4669012 0.44162673 0.38632107 0.43529803 0.41958633 0.38736936 0.32467288 0.26842672 -0.085665666 0.11586653 -0.083998166 0.3114692 0.5140759 0.6400153 0.3936906 0.6262471 0.05901691 -0.054599084 0.45346612 0.6096762 0.14597322 0.46950957 0.3980912 0.45200342 0.18231502 0.5024013 0.508927 -0.09244877 0.24362797 0.541075 0.46202177 0.4036647 0.17733708 -0.00012227893 0.32043695 0.5116008 0.42980662 0.38633275 0.21096903 0.4384516 0.29595166 0.42103654 0.44416118 0.41810155 0.14698794 0.30893993 0.3773208 0.51877534 0.62070155 0.61138105 0.6689378 0.69033927 0.64565605 0.6040984 0.68676424 0.654643 0.47892258 0.4538433 0.43657407 0.33341736 0.40639883 0.5021524 0.5763247 0.60245794 0.525522 0.4240774 0.31918174 0.07330402 0.22986954 0.25723723 0.4994157 0.56786495 0.5456884 0.050082173 0.29384392 0.37133184 0.5149125 0.55020344 0.23118299 0.28450322 0.5758229 0.4009072 0.41271538 0.5163831 0.43322635 0.42341822 0.42091054 0.381156 -0.19219248 0.31091642 0.021629266 -0.039348528 0.32980895 0.4507185 0.30516002 0.21534055 0.029398305 0.36262625 0.55141485 0.47608083 0.38390875 0.47685677 0.4192476 0.38038337 0.3945457 0.3687691 0.3580262 0.3281024 0.56839776 0.6319901 0.078692704 0.65876055 0.7276244 -0.19161943 0.6838568 -0.051705945 0.6208139 0.6521249 0.2864914 0.57429916 0.43531346 0.49748233 0.54243344 0.56306434 0.34070772 0.5657644 0.5766727 0.51478875 0.3929785 0.33827913 0.16248462 0.4108125 0.27018997 0.43553406 0.3770039 0.3905454 0.5616038 0.014780069 0.13131006 0.19310898 0.31478426 0.60017246 0.6501542 0.4345923 0.662178 0.6673682 0.60674864 0.5837411 0.40524232 0.47894448 0.54440737 0.6166061 0.6404636 0.4558761 0.3905274 0.3305972 0.33210015 0.60332155 0.6405045 0.40396357 0.62468976 0.41549134 0.63637763 0.4372607 0.3313449 0.34164435 0.38970754 0.37289226 0.03384605 0.2853301 0.26624453 0.05398193 0.27204752 0.6472441 0.58461225 0.4441537 0.24923882 0.27473795 0.64032423 0.59904826 0.33818215 0.6032284 0.2278611 0.51632035 0.40736622 0.12576249 0.5015961 0.58336985 0.6809124 0.423842 0.36054388 0.30612034 0.66431403 0.7336618 0.7563176 0.3321256 0.29789954 0.7581413 0.7611855 0.16080073 0.06338988 0.7127179 0.7193208 0.08890257 -0.25828898 -0.15591447 0.6287676 0.21379867 0.4854395 0.35738266 0.01581876 0.48727244 0.48328918 0.51718277 0.07967223 0.15560126 0.5585707 0.45278853 0.23358399 0.30844852 0.42020223 0.27976653 0.39310485 -0.0662839 0.4204238 0.39639762 0.4867732 0.013766227 0.2880432 0.56886005 0.531709 0.145416 0.15869184 0.20754708 0.8230413 0.8006635 0.632722 0.5637455 0.5039296 0.36780342 0.27828366 0.34266108 0.16525829 0.1559986 0.8629812 0.8440709 0.8171867 0.73986626 0.62334555 0.5725384 0.6227201 0.57642317 0.44628787 0.8679977 0.8551729 0.82598734 0.66821265 0.6204017 0.5950693 0.6334515 0.59283984 0.4704465 0.8321209 0.81351197 0.7633364 0.44494486 0.50950694 0.5649673 0.32857794 0.3690908 0.46021527 0.58116436 0.62595975 0.38148502 0.34258503 0.30437768 0.6449714 0.64022577 0.2851678 0.64514095 0.6350399 0.2154285 0.22967882 0.60342723 0.2321654 0.29390904 0.1779997 0.10298893 0.29191738 0.25640583 0.28059185 0.014669538 0.25592262 0.6486425 0.570768 0.05784928 0.67506534 0.57415175 0.17878535 0.6652334 0.6669582 0.6464994 0.63906413 0.6096157 0.5774883 0.3060546 0.61370885 0.67647475 0.40163672 0.7259469 0.74970007 0.36032194 0.7502997 0.36099342 0.27036175 0.6608697 0.70089376 0.133116 0.07339613 0.56592095 -0.12262053 0.22506395 -0.013844758 0.31069848 -0.11150116 0.40869758 -0.108482696 0.44792768 0.4691489 0.05471498 0.29413903 0.53179705 0.33451372 -0.32393324 0.3736143 0.41635424 0.06963373 0.42069262 0.25242695 0.78193724 0.6934247 0.46806782 0.16362897 0.8640845 0.8365128 0.797225 0.6160574 0.53440815 0.2286062 0.15948918 0.880581 0.8542721 0.56781197 0.49719355 0.516363 0.19914213 0.23783883 0.8855041 0.56264406 0.49410868 0.5862022 0.6124493 0.54823804 0.47229522 0.2882387 0.27648464 0.8502685 0.82211983 0.77336144 0.7132435 0.5329788 0.56551874 0.54056025 0.7513014 0.45051724 0.43517426 0.44968683 0.26021445 0.34790474 0.58520865 0.3711893 0.3296614 0.24960285 0.59535164 0.6123224 0.3188586 -0.11735485 0.6062222 0.27621192 0.23646395 0.44183087 0.21961716 0.15027002 0.36057815 0.24375308 0.016135775 0.09628709 0.19556233 -0.04288276 0.1914905 0.6503295 0.5881816 0.17263365 0.15636 0.6768525 0.14935836 0.66290677 0.6611978 0.07964647 0.64294636 -0.0342713 0.5547797 0.4467949 0.5841538 0.6641124 0.44396323 0.7098063 0.7309333 0.31414932 0.67303634 0.71325517 0.6313862 0.6906864 0.06346046 0.55741596 -0.14028384 -0.12950383 0.09046738 0.30919173 -0.082622424 -0.12256478 -0.002751343 0.04033306 0.21509755 -0.031797238 -0.2702604 -0.31180578 0.28991202 0.0060714483 -0.079807185 0.36153436 -0.27100414 -0.34791696 -0.07404305 0.3400535 0.8161838 0.68261856 0.5263068 0.1551557 0.018862668 0.88127446 0.5389489 0.43217787 0.25192875 0.92829335 0.4389554 0.43585756 0.29332805 0.9323379 0.32024372 0.48517066 0.37681365 0.30529323 0.31932303 0.8074564 0.7460965 0.3585592 0.28531766 0.5266496 0.48502436 0.3448996 0.26555166 0.29379943 0.6859417 0.6231251 0.6497007 0.29776517 0.6485287 0.3832452 0.3974307 0.3683315 0.3320521 -0.17141822 0.5290217 0.3312003 0.544216 0.34124246 0.3038352 0.32738873 0.30303693 0.12828211 0.30413646 0.25598848 0.04165626 -0.041654497 -0.11116354 0.014515974 0.6235975 0.60150254 0.5762997 0.14798981 0.6362448 0.10575523 0.64737296 0.63685405 0.6205243 -0.11099056 0.54165655 0.17549735 0.42887852 0.54746765 0.61982405 0.31297225 0.65809816 0.2750137 0.646562 0.55408365 0.7483368 0.35905558 0.4746112 0.794358 0.79303026 0.75847554 0.63734937 0.12518668 0.82016635 0.8092725 0.7459464 0.49197894 0.15883206 0.7920589 0.63555133 0.4228715 -0.0308818 0.5861458 -0.11217153 -0.06446169 -0.10237097 -0.011440046 -0.027323416 0.09376833 0.043627 0.2474227 0.27175716 0.22218916 0.2769956 0.31634507 0.1283601 0.066968426 0.08318618 0.34649947 0.2790078 0.3841167 0.3156955 0.20694317 0.062122535 0.0675958 -0.437645 0.27254528 0.69600356 0.35678738 0.28440458 0.11514488 0.09730323 -0.3006256 0.8909102 0.85678124 0.091347314 -0.1109045 0.9300935 0.24279036 0.16633785 0.19805492 0.28532022 0.9218393 0.16610087 0.3209691 0.39371926 0.31398556 0.74836314 0.61304116 0.26460722 0.24485354 0.24202704 0.23305023 0.28141892 0.31028515 0.6394148 0.51092905 0.4517676 0.30490983 0.28007135 0.2952732 0.41634735 0.31240672 0.781232 0.767833 0.744156 0.7168367 0.70159006 0.66766346 0.66521263 0.66504365 0.67562675 0.6631 0.6193621 0.5796651 0.5679832 0.6169559 0.514891 0.51542246 0.52701443 0.43610078 0.30643785 0.23745175 0.3951385 -0.1616617 0.4962418 0.24563368 0.48927438 0.32938823 0.27567524 0.4099231 0.30440107 0.33769244 -0.06920825 -0.09037094 0.13556671 0.1063583 0.118225835 0.09394482 0.57494795 0.40413755 0.06881411 0.12983057 0.6053107 0.556465 0.5225095 0.030876115 0.59796107 0.55131435 0.5459373 -0.0033224225 0.29154822 0.066692166 0.31534454 0.48018515 0.088759705 0.5564661 0.602691 0.09759238 0.5150998 0.5754819 0.23993799 0.45418948 0.53093505 0.7340008 0.71584976 0.77394027 0.124132454 0.22862208 0.82128763 -0.13902149 0.8437618 0.8226992 0.7976709 0.7125198 0.5809401 0.0727191 -0.046111286 -0.067831 0.7391305 -0.06422428 -0.017428935 -0.07125995 0.02275941 0.0016258657 0.26024422 0.16906181 0.28380173 0.34252036 0.28880337 0.10240137 0.10461601 0.4614479 0.3864428 -0.026828557 0.08895411 0.3897769 0.59814113 0.29381168 0.06523227 0.0066707395 -0.2159645 -0.24235913 0.30334806 0.77528906 0.6675366 0.08113699 0.22884631 0.72918254 0.1623752 0.17246534 0.51970947 0.24113633 0.2458758 0.15809065 0.20220561 0.31630826 0.32258642 0.55287474 0.44553545 0.41921955 0.24423051 0.25917488 0.17723258 0.22081795 0.27160844 0.3063468 0.33156165 0.24612364 0.229242 0.24674715 0.8768766 0.9183486 0.8273759 0.8300913 0.8460605 0.83753955 0.77818084 0.75822794 0.75053835 0.76148844 0.71498597 0.73331904 0.6517432 0.6216228 0.59066886 0.042523414 0.124370456 0.16298792 0.27128792 0.20940217 0.4002512 0.49004287 -0.030072272 0.50266534 0.49902833 0.4800482 0.49494413 0.2423085 0.042445138 0.43231547 0.21668972 0.25822988 0.2188175 0.027572475 0.13209718 0.16611186 0.23989308 0.15321134 0.17527276 0.11866611 0.08496492 0.08360535 0.09145787 0.46086133 0.0569994 0.4800136 0.038972136 0.09342491 -0.080876805 0.37753356 0.4155326 0.37470573 0.26416844 0.33791295 0.3550981 0.6831538 0.5464957 0.27060744 0.7131692 0.14652978 0.76577413 0.80273545 -0.095357314 0.7933923 0.79708123 0.75565434 0.57210505 -0.08489615 -0.07160638 0.22728208 0.059664417 0.182075 0.17300016 0.3810997 0.25496423 0.5105414 0.47636205 -0.19410418 -0.22354269 0.41733277 0.49632797 0.24538693 0.3300886 0.5392417 0.09624374 0.13894813 0.21057484 0.2158639 0.55432016 0.1790098 0.31457567 0.42445397 0.2776811 0.19436026 0.18703626 0.19783184 0.287059 0.28686398 0.34169185 0.27097365 0.19026247 0.19680223 0.26938185 0.20667379 0.241034 0.86875 0.885129 0.93625915 0.9255624 0.82880306 0.8367907 0.78934574 0.76118493 0.7386157 0.7219497 0.579319 0.43972602 0.035020046 -0.09004522 0.4631771 0.479752 0.06177391 0.4949393 0.49503 -0.14267923 -0.10779713 0.442113 0.48228955 0.13156575 0.08676476 -0.13697146 -0.1494546 0.38947242 0.199969 0.19746336 0.2962564 0.20667015 0.1903221 0.12080922 0.2346578 0.26404673 0.20845991 0.23892759 0.21494201 0.19166462 0.18798946 0.1755891 0.11620441 0.11639306 0.12182106 0.07237872 0.11797807 0.11729957 0.054325826 0.04923495 0.041961484 0.005234997 0.04040308 0.058748838 0.27443486 0.06762549 0.19492584 0.30746672 0.30765358 0.16257994 0.5361514 0.35716617 0.120647475 0.2237172 0.2653604 0.62474406 0.5726185 0.11903304 0.19255136 0.6558682 0.6232187 0.72233367 -0.0973697 0.73430586 0.71678054 0.45514277 -0.0959286 0.19070919 -0.11245288 -0.15757388 0.0030301325 -0.113440655 -0.034055293 0.043451987 0.16569187 0.26204443 0.48581815 -0.08445948 0.4952457 0.053555474 0.39326128 0.25430918 -0.11230773 -0.1307158 0.27210802 0.33339718 0.3869526 -0.12469165 -0.12851682 0.1592367 0.20762439 0.48480913 0.04931797 0.18394735 0.19643217 0.16553688 0.06549047 0.12361032 0.17098863 -0.05725701 0.14727248 0.18911567 0.21351221 0.3167954 0.34406877 0.07384224 0.11704938 0.18164787 0.30573595 0.353724 0.60540944 0.3802079 0.7091588 0.723982 0.67765385 0.38882685 0.770916 0.76175785 0.6981102 0.55551344 0.42331707 0.7978766 0.7772505 0.70785636 0.5851749 0.8606278 0.8657621 0.8771665 0.8707665 0.80816936 0.81376624 0.81836283 0.8380164 0.831669 0.7658324 0.7359747 0.6889107 0.6428387 0.4825672 0.2787924 0.28962877 0.35810322 0.0985856 0.18934014 0.1195602 0.33739918 0.12968554 -0.008770362 0.4380191 -0.10059271 0.33608624 0.273112 0.20692164 -0.10193612 0.26296932 0.11037312 0.30326453 0.12320673 0.26618075 0.21573609 0.26630706 0.23778856 0.2223328 0.23034273 0.16602771 0.17311923 0.14650516 0.06912504 0.096017905 0.11579523 0.095569216 0.07787524 0.06329492 0.021825798 -0.029534496 -0.09585382 -0.24294676 0.19074902 0.032514602 0.100729406 0.46833715 0.23123826 0.518044 -0.3719408 0.5359916 0.05872444 0.11740722 0.61701566 0.20805785 0.21375899 0.14646202 0.43135792 -0.1888998 0.15108526 0.20347431 0.19164431 -0.05057702 0.08825754 0.13834724 0.29128963 -0.01930499 0.002563879 0.36923468 0.45095363 0.46706712 0.36633852 0.22995833 0.020993635 0.46859023 0.2630248 -0.010640569 0.43974048 0.42234588 0.08590825 -0.20782736 0.3111955 0.35279304 0.5192571 0.39335763 -0.18361264 0.23774676 0.42871967 0.30499756 -0.054283433 0.3854187 0.26278922 0.08177255 0.2947219 -0.22683494 -0.01705984 0.10911391 0.11029986 0.36955222 0.37182838 -0.06330333 0.10804881 0.13505171 0.4362298 0.19465163 0.32294685 0.38011256 0.71905375 0.34275848 0.29234433 0.3965847 0.6211109 0.5469865 0.77741194 0.50883794 0.43224096 0.3731659 0.60284203 0.6451256 0.7706895 0.71360636 0.8138985 0.79026127 0.7227944 0.5943103 0.47547752 0.6899613 0.75435346 0.8272273 0.78567755 0.7979934 0.7417008 0.6772364 0.7835884 0.8093301 0.76803464 0.7406268 0.6546897 0.6912505 0.65816975 0.40899634 0.28727978 0.32577598 0.45286268 0.51155126 0.532189 0.2123034 0.49108845 0.50215894 0.16472828 0.032280833 0.37647188 0.44156474 0.36738354 0.48836368 0.42954415 0.4430833 0.38294342 0.37846965 0.16727069 0.34470084 0.21018627 0.24002121 0.18065637 0.21644962 0.23232752 0.09490545 0.13678278 0.09655711 0.22972977 0.20722562 0.058164038 0.19874641 0.13947868 0.021945685 0.18732074 0.15488636 -0.024239369 0.055319943 -0.20933431 -0.051452264 -0.4570999 -0.14252746 0.32999453 0.0019839108 -0.15887162 -0.3679584 0.4553591 0.073459625 0.14178906 0.25507727 0.32812184 0.39881754 0.4932296 0.6083578 0.22747827 0.1801675 0.20454723 0.41515052 0.0967142 0.18100303 0.269122 0.54274595 0.531773 0.20246544 0.0024523884 0.34873974 0.49401343 0.4920427 0.060111597 0.4083408 0.06397855 -0.05860862 0.40440542 0.40082163 0.5743535 0.47743165 0.36172673 0.37593225 0.6336446 0.6114935 -0.22226124 0.29860917 0.65765166 0.61566687 0.53614384 -0.23130962 -0.35715118 0.16350858 0.5924878 0.5011972 0.32301247 0.24743211 0.139777 -0.1578187 0.048957564 0.2900623 0.29302263 0.11221866 -0.19983098 0.0019192621 0.14471361 0.35764712 0.13345978 0.1572017 0.10890266 0.10918918 0.15092313 0.4632924 0.4138171 0.72365725 0.043301024 0.4209231 0.7760793 0.3624059 0.50036037 0.5272536 0.6980047 0.6944274 0.8488388 0.841815 0.6095791 0.47101524 0.6681709 0.79663455 0.8382677 0.8150361 0.7573427 0.8381277 0.804894 0.74739045 0.7385547 0.80624235 0.8674902 0.8409958 0.3175019 0.2923095 0.39818466 0.48770103 0.29687694 0.54699624 0.55007535 0.55947083 0.55952823 0.22226408 0.58304703 0.058604896 0.5897428 0.6247278 0.58686215 0.5079453 0.39520437 0.6126416 0.6148596 0.57898015 0.56080186 0.5579783 0.5624471 0.4589163 0.15359652 0.41305816 0.18490767 0.32787132 0.20463021 0.21940923 0.102261245 0.18432873 0.033004418 0.06771371 0.12673071 0.021248594 -0.087587595 0.2459135 -0.08728818 0.27618137 -0.05531344 0.27252206 -0.032686904 0.08390251 0.117157936 0.1895127 0.09280273 -0.005172357 0.06220776 0.17250623 -0.20359424 -0.047255307 0.45709568 -0.20478272 0.6028491 -0.31462854 0.58514184 -0.046623662 0.47944847 0.1809326 -0.018734165 0.42139956 0.43263984 0.6202647 0.09565265 0.68313134 0.20476532 0.60631585 0.5689033 0.5856716 0.4532307 0.079375446 0.53163016 0.2749407 0.48656833 0.30011693 0.37652478 0.40547517 0.40532967 0.544606 0.37538558 0.63669217 0.19438845 0.6478746 0.19786495 0.5922239 0.5608674 -0.22084302 0.27177948 0.46280932 0.44277322 0.071090914 0.34332073 0.25758398 0.13618796 0.087648556 0.015915468 0.105578415 0.3961228 0.4654149 0.5272212 0.06803006 0.582194 0.7441534 0.36844906 0.5847088 0.7136322 0.8319692 0.8333622 0.5585142 0.6980305 0.7913351 0.7750882 0.8605069 0.848959 0.81297946 0.8726022 0.8791478 0.82098645 0.36625177 0.3387655 0.3264721 0.2927832 0.3153199 0.3756055 0.44354853 0.53714997 0.3029164 0.57712424 0.62589467 0.66225004 0.6698596 0.64953196 0.71110404 0.702576 0.64052814 0.4674567 0.65531707 0.6618302 0.7042635 0.56547093 0.6302452 0.6247256 0.6340204 0.5225754 0.5726303 0.15991655 0.44546795 0.4337729 0.1864911 0.35004792 0.29024845 0.097501114 0.12551367 -0.34275043 0.08209937 -0.03191407 -0.03196253 0.21102478 -0.06039972 -0.04452406 0.3533381 0.013965527 0.32695138 0.21436998 0.27889055 0.24256653 0.26440203 0.20385739 0.22150508 -0.008477364 0.10816614 0.5395101 -0.014269412 -0.015208054 0.6208915 0.07362161 0.6555222 -0.076587476 0.10491793 0.6313307 -0.14581496 -0.034978077 0.5657352 0.5069393 0.12532444 0.4757879 0.6070481 0.63865113 -0.05803158 0.0019459575 0.48553193 0.6568924 0.10656773 0.065039754 0.22229475 0.4281475 0.07730307 0.5911258 0.5716369 0.023762304 0.09210242 0.54734516 0.5559646 0.20440146 0.49987492 0.5053857 0.2484851 0.39395767 0.36726892 0.3937869 0.51642 0.31675914 0.5919296 0.15496364 0.5862274 0.16418244 0.53