# vtk DataFile Version 2.0
Really cool data
ASCII
DATASET POLYDATA
POINTS 6067 float
-9.6822605 25.754879 -0.041971773
-9.756488 25.504328 0.4067579
-9.862885 25.878435 1.5342126
-9.72539 25.985334 1.9865308
-9.672707 26.485432 -0.34094328
-9.937311 26.285686 0.5184223
-9.972533 26.623207 1.3784589
-9.780571 26.457218 2.0257716
-9.629172 27.470175 -0.3182189
-9.80909 27.394915 0.44703332
-9.82523 27.227581 1.3646672
-9.764316 27.043133 1.8868842
-9.567776 28.021107 -0.21011281
-9.6259985 28.077671 0.19556412
-9.593592 31.853872 15.903115
-9.581403 31.612417 16.473577
-9.663534 32.55967 15.709166
-9.666878 32.59184 16.336645
-9.562196 32.312912 16.843172
-9.621518 33.165047 15.941912
-9.623485 33.19227 16.130833
-8.574162 18.46181 7.8692517
-8.6373005 18.504677 8.453252
-8.732543 18.69343 10.511012
-8.768496 18.727907 11.556407
-8.721103 18.652761 12.099548
-8.7071705 19.375093 8.646295
-8.9093075 19.714136 9.773625
-9.004824 19.64032 10.514703
-9.042571 19.570526 11.432253
-8.87046 19.578285 12.266127
-8.614724 19.581484 12.881012
-8.717307 20.305012 9.111383
-8.89324 20.219961 9.842723
-9.023796 20.54109 10.658671
-9.069426 20.26319 11.509218
-8.900925 20.530693 12.490065
-8.65692 20.7953 13.127021
-8.906037 21.00758 12.250251
-8.619903 21.263468 13.097357
-8.541179 22.01662 11.825629
-9.264777 25.037956 0.026711449
-9.310369 24.984917 0.39140916
-9.326342 25.146288 1.3670676
-8.979704 25.169476 1.8980446
-8.923744 25.614082 -0.8654041
-9.407143 25.51592 -0.35076326
-9.534561 25.439732 1.6077697
-9.389521 25.75961 2.116778
-9.191164 26.558565 -0.92496943
-9.45855 26.350998 -0.54832685
-9.535913 26.560461 2.3346045
-9.232913 27.563866 -1.0482304
-9.405365 27.772472 -0.7430898
-9.414856 27.305866 2.1427114
-8.905656 27.362335 2.6533191
-8.677879 27.945356 -1.7217524
-9.012615 28.238361 -1.1476828
-9.367552 28.26976 -0.45091835
-9.297863 28.487444 0.49714428
-9.282444 28.071098 1.3784919
-8.689649 28.200531 2.200995
-8.542073 28.903765 5.446401
-8.810512 28.818785 -0.83676016
-8.989179 28.771605 -0.3905889
-8.830357 28.975868 0.55073845
-8.938241 28.854334 1.0539488
-8.52531 29.243631 4.948536
-8.567781 29.322926 5.5470862
-8.839134 30.05333 16.066212
-8.82403 30.12856 16.58422
-8.813704 30.246147 17.055347
-9.148255 30.721628 15.865083
-9.273362 30.657776 16.543554
-9.087439 30.659645 17.15015
-8.818806 30.945366 17.766552
-9.182454 31.911095 15.148738
-9.390581 31.521393 15.568692
-9.46578 31.28853 16.630524
-9.301354 31.519554 17.288605
-8.899345 31.53309 17.879684
-9.325224 32.55447 15.086361
-9.554234 32.184055 15.4774275
-9.287376 32.43687 17.204523
-8.895723 32.21025 17.890226
-9.272073 33.11342 15.01414
-9.457896 33.35084 15.483397
-9.424064 33.3801 16.338524
-9.178987 33.12714 17.015842
-9.134447 33.842495 15.75698
-9.132791 33.82824 16.335691
-7.835649 17.265148 7.8738585
-7.82784 17.27018 8.31835
-7.9449167 17.787924 7.148
-8.138395 17.682798 7.626004
-8.2785425 17.74744 8.303588
-8.071189 17.735456 9.202128
-7.923776 17.964233 10.322268
-8.347676 18.118227 11.68686
-8.2660055 18.069315 12.291653
-8.133164 18.69619 6.902291
-8.412594 18.361868 7.404625
-8.46515 18.341412 9.138166
-8.553188 18.3551 11.706908
-8.404481 18.417892 12.479847
-8.025934 18.753246 13.142181
-7.9195156 19.64313 6.0472517
-8.22283 19.571505 6.698322
-8.46673 19.125422 7.663775
-8.276302 19.45877 13.226647
-7.829761 20.474163 5.6577854
-8.297073 20.096107 6.6360493
-8.45418 20.600183 7.5072556
-8.497913 20.826223 8.571
-8.427201 20.587244 13.527617
-7.994733 20.635744 14.004788
-7.946997 21.294088 5.8189173
-8.193548 21.54906 6.7187514
-8.328142 21.198263 7.510239
-8.22188 20.984333 8.273327
-8.409276 21.406954 13.354407
-8.088346 21.235968 13.912572
-7.6884546 22.48735 5.242229
-7.939176 22.181715 6.731364
-8.100936 21.851091 7.0592732
-8.051276 21.876896 9.641494
-8.381832 22.314318 10.932115
-8.498232 22.373407 11.674483
-8.416318 22.269873 12.450601
-8.169573 22.170288 13.208309
-7.7554326 21.936993 13.865995
-7.5879154 23.120481 4.905315
-7.5613985 23.60132 5.424637
-7.7453074 23.259377 6.527772
-7.6555347 23.674404 10.755468
-8.004802 23.307152 11.465824
-8.010813 23.19879 12.230288
-7.8631687 25.209116 -1.3146461
-8.415292 24.81167 -0.23008999
-8.460678 24.629097 0.45246774
-8.596806 24.757616 1.3155608
-8.012937 25.18639 2.3789523
-7.751773 25.095078 2.738155
-7.601214 23.807457 6.523108
-8.024347 25.976986 -1.9151577
-8.323419 25.77973 2.6932747
-8.183607 26.648436 -2.0856333
-8.581564 26.268866 -1.445176
-7.999937 26.187433 2.967349
-7.6456394 26.838114 4.014698
-7.733477 27.773026 -2.8271616
-8.119684 27.406393 -2.258923
-7.984456 27.827572 3.314749
-7.912488 27.968773 5.978514
-7.659971 28.065407 -3.0167606
-7.895112 28.462101 -2.4122567
-8.570463 28.475023 -1.382967
-8.398352 28.585806 2.1843076
-8.415183 28.9761 4.4369116
-8.429113 28.629541 5.550911
-8.329932 28.831678 6.1799088
-7.863656 28.76461 6.676133
-7.680394 29.210072 15.172191
-7.8390036 28.942446 -2.022467
-8.219423 28.950851 -1.3224485
-8.170438 29.282034 -0.32194683
-8.3483095 29.32826 0.6212228
-8.265697 29.274748 1.3894938
-7.9154058 29.184488 2.0571365
-8.251244 29.437553 3.822153
-8.426314 29.595346 4.705962
-8.486948 29.750723 5.5139
-8.347652 29.387705 6.286902
-7.942854 29.385582 6.757436
-7.841641 30.0756 14.13536
-7.7722683 29.472261 14.671811
-8.01717 29.63023 15.338764
-8.364809 29.809559 16.354542
-8.260728 30.028328 17.23151
-8.019836 30.251097 17.679075
-7.896461 29.574726 1.6156956
-7.761317 30.020544 3.0828676
-7.936642 30.18674 3.7426589
-8.053797 30.253115 4.447689
-8.081459 30.369081 5.47927
-8.15229 30.03317 6.2638025
-7.8312716 30.836235 13.920277
-8.260529 30.865356 14.673723
-8.634673 30.417255 17.477686
-8.314056 30.840664 17.999695
-7.6203847 31.71368 11.620495
-8.497942 32.059734 14.480506
-8.374728 31.530767 18.276394
-7.538536 32.255188 10.741164
-7.7050705 32.86583 11.635008
-7.68866 32.587364 12.055829
-8.382586 32.387936 18.17454
-7.572178 33.130722 11.4696
-7.5873637 33.415062 12.244837
-8.232479 32.94774 17.966997
-7.6230874 34.22938 12.677339
-8.3143 34.74153 13.941171
-8.283585 34.261658 14.5876465
-8.388411 34.476986 15.695601
-8.454749 33.9758 16.481192
-8.149727 33.93637 16.879
-7.787353 35.437725 12.825139
-8.386437 35.41275 13.78876
-8.103394 35.720337 15.607916
-7.8151703 36.334156 12.825237
-8.20857 36.31872 13.604829
-8.218807 36.564754 14.182197
-8.020825 36.406605 15.330946
-7.899223 36.099476 15.847516
-7.8564997 37.04472 13.681045
-8.0487795 36.8172 14.058633
-7.7033305 37.110184 15.403856
-7.589032 37.15521 15.860268
-6.7039595 15.925769 14.524873
-6.658775 16.074026 15.098422
-7.3055825 17.39564 7.217842
-7.4486923 17.183657 7.645322
-7.419951 17.094934 8.470928
-6.8009844 16.429066 13.961132
-6.825974 16.542164 14.630595
-6.6978955 16.414589 15.271567
-7.484208 17.70964 6.9368806
-7.707186 17.750126 10.062512
-7.3049664 17.704967 11.550907
-7.309142 17.645159 12.400318
-6.9667196 17.66463 13.506198
-6.8398013 17.195496 14.858899
-6.6747513 17.128876 15.263274
-7.082832 18.801928 6.048279
-7.2820096 19.721203 5.6424656
-7.46862 19.4912 13.669939
-7.153373 20.627499 5.1624165
-7.426271 20.611042 14.345215
-7.3465605 21.90747 4.7302465
-7.62385 21.234268 5.444344
-7.449645 21.31071 14.247064
-6.9622736 22.586447 4.1728487
-7.5542083 22.534718 4.9590864
-7.5465155 22.3003 8.007485
-7.456256 22.44316 9.517533
-7.60792 22.647932 13.225051
-7.312795 22.25029 13.898995
-6.9080396 24.41269 -0.16008055
-6.806845 23.88928 3.869223
-7.074436 23.463957 8.846883
-7.3371854 23.201437 13.230244
-7.4149632 25.123878 -1.3554115
-7.605339 24.766146 -0.7228623
-7.1678567 24.570414 0.716195
-7.826893 24.611132 1.1576535
-7.0143614 24.806553 2.4634578
-7.499828 24.841034 2.972823
-7.1693234 24.174389 7.16991
-6.707431 24.55633 9.06295
-6.9181433 24.466148 9.742715
-7.0571856 24.49852 10.061311
-7.242189 24.083916 11.439919
-7.071822 23.890167 12.498675
-7.4084845 25.842665 -2.2745874
-7.25578 25.433561 4.393264
-6.9244356 25.375526 5.7701674
-6.585 25.734629 6.3922663
-6.893777 24.787426 10.642853
-7.2622313 26.753305 -2.831422
-7.3514595 26.242233 4.5099707
-7.327731 27.099634 5.0436697
-7.0752397 26.8171 5.8259077
-7.1941743 27.718227 -3.2132406
-7.5172586 27.457087 5.2995086
-7.2468357 27.306068 6.0860176
-6.9001737 28.274233 -3.5516078
-7.2428684 28.451302 -3.2022483
-7.405113 28.803757 6.8999567
-7.298041 29.062471 14.145947
-7.240946 28.935905 14.510959
-7.2682524 29.24235 16.31552
-7.099716 28.988235 -3.1380472
-7.2078347 29.290518 -2.3775735
-7.3482566 29.42773 -1.7162446
-7.334027 29.421299 0.025078416
-7.807241 29.737288 6.7416515
-6.900013 30.161257 11.817206
-7.069186 29.533133 12.940502
-7.3902802 29.842436 13.460457
-7.7247953 29.50736 16.47813
-7.2506046 29.656336 17.40817
-7.245881 30.05882 17.884996
-7.027954 29.586142 -1.5400082
-6.955268 29.526928 -0.91561735
-7.6031895 29.555761 0.40536693
-7.3275347 29.685106 1.4049511
-7.344577 30.137417 2.838422
-7.535002 30.519588 3.578337
-7.6858177 30.513487 5.749428
-7.403757 30.435972 6.1376343
-6.8297844 31.085941 9.926771
-6.8598385 30.723192 10.748475
-7.038164 30.63211 11.574155
-7.2206206 30.59643 12.468126
-7.4810367 30.90368 18.317274
-7.3189945 30.661488 3.8028495
-7.1415734 30.81696 4.4813156
-7.4075346 30.669922 5.4514184
-6.827295 31.999105 9.213062
-6.9981074 31.624956 9.751169
-7.3923445 31.421667 11.347643
-7.836392 31.571568 18.50917
-7.5022864 31.646206 18.553564
-6.828309 32.84381 8.689499
-7.4581594 32.57241 10.6006775
-7.673191 32.294598 18.408398
-7.577276 32.158855 18.51478
-6.8120356 33.697155 8.63952
-7.2024956 33.45692 9.545279
-7.3298483 33.575455 10.251095
-7.3834643 33.84182 11.337337
-7.1801286 33.037613 18.103783
-6.8131857 34.288647 8.936901
-7.050587 34.627533 9.843171
-7.1579013 34.285786 10.225191
-7.2944446 34.07523 11.346381
-7.2885923 34.69271 16.707335
-6.7449527 35.150913 9.792894
-7.0795007 34.92173 10.580662
-7.1074634 35.284576 11.900582
-7.301112 35.406384 12.36275
-7.0066857 35.748985 17.13236
[...]
POINT_DATA 6067
SCALARS features_00 float 1
LOOKUP_TABLE default
0.66138506 0.71510005 0.68346953 0.61457384 0.6117201 0.71383965 0.6790967 0.6097055 0.5780878 0.6337161 0.62410593 0.59040517 0.5539569 0.5641155 0.6263164 0.6639247 0.6038896 0.6260878 0.6633196 0.5869661 0.591564 0.53038013 0.49532598 0.39567864 0.4107164 0.41472745 0.3525812 0.3324334 0.38322 0.43035477 0.454099 0.46263954 0.25510615 0.29606068 0.35327148 0.43075097 0.46914184 0.49396953 0.45893088 0.49536842 0.43785787 0.63494956 0.6752715 0.6408921 0.52810216 0.5301433 0.6065995 0.6395457 0.5620369 0.54609007 0.5860774 0.5591735 0.53071094 0.540993 0.53327036 0.45724183 0.53375375 0.52553546 0.5321175 0.5295167 0.52243996 0.4059385 0.6270987 0.5050158 0.5053744 0.47566187 0.4668446 0.6580699 0.7063495 0.545601 0.58542633 0.61263776 0.58501613 0.6431594 0.6608856 0.6721157 0.54598033 0.59065735 0.675768 0.71048564 0.70028365 0.53786623 0.59508187 0.68765604 0.6980057 0.49974728 0.5414515 0.57740635 0.6179484 0.5069483 0.51919574 0.6225469 0.60996705 0.61389166 0.61030793 0.58273244 0.5223392 0.3726461 0.3492437 0.35112658 0.5648835 0.5635741 0.47118768 0.38225815 0.3866869 0.3793738 0.5183396 0.49539417 0.45412087 0.45698875 0.45932382 0.45117947 0.3096478 0.2143668 0.5031509 0.50619304 0.4053979 0.33490518 0.25756967 0.2073769 0.5003828 0.4973267 0.32592267 0.2856823 0.26299483 0.15858603 0.31860596 0.41639712 0.47363955 0.48526132 0.46262395 0.25937694 0.25880942 0.22010657 0.1905925 0.3379653 0.42120567 0.39072096 0.5105138 0.5539166 0.5386627 0.37284684 0.26652592 0.1162245 0.41285905 0.36722523 0.4785126 0.4869163 0.27005488 0.078113474 0.61089456 0.54458165 0.2157835 0.40856618 0.65114 0.64427614 0.53523946 0.3511023 0.5439863 0.5729112 0.63374054 0.6013987 0.40229142 0.61019117 0.524159 0.45496374 0.4146226 0.3582272 0.2872072 0.48907477 0.6798825 0.7478882 0.741491 0.7546729 0.29126045 0.35112935 0.44280332 0.5312176 0.56822824 0.57402813 0.28026065 0.3966465 0.5491959 0.69567025 0.79350704 0.8189865 0.23976162 0.39049208 0.6218942 0.6258603 0.26991636 0.4022883 0.6226007 0.31200022 0.2136174 0.20268251 0.58874696 0.2056842 0.12587138 0.5300537 0.09485971 0.22304457 0.29415798 0.37174842 0.4419779 0.41553864 0.26094633 0.328019 0.35479373 0.41511792 0.44166023 0.46356225 0.41810724 0.39526972 0.4902773 0.47802553 0.44996744 0.4516495 0.5149382 0.505655 0.60216665 0.61946595 0.60615265 0.47632533 0.47679895 0.47817245 0.59927285 0.40680715 0.24531554 0.26509333 0.29546833 0.4092249 0.3987931 0.49002504 0.4733186 0.44920447 0.4092222 0.45121452 0.3315068 0.40522414 0.43824804 0.23667978 0.3040176 0.091805525 0.08505153 0.43914178 0.40709072 0.25615728 -0.032684222 0.006110903 0.38058722 0.34533605 0.37352973 0.32541323 0.42631733 0.12007736 0.11874199 -0.088446066 0.006050528 0.04072983 0.0564375 0.22847119 0.29635847 0.36784887 -0.07093079 -0.0908538 -0.09903655 0.07911811 0.46852398 -0.031453874 0.08030407 0.045422673 0.60481435 0.17983638 0.1657693 0.67850375 0.70037997 0.58251464 0.28572825 0.31864497 0.46909732 0.731664 0.66252285 0.5492157 0.38498932 0.81280077 0.15901494 0.18172005 0.22319026 0.49794388 0.48432022 0.5043541 0.51300585 0.4353875 0.36885208 0.24660935 0.38377768 0.52560127 0.8128433 0.81789935 0.30631578 0.24541205 0.19945218 0.16285771 0.5300515 0.55678904 0.61463314 0.7543062 0.4591384 0.3578489 0.27219495 0.5323887 0.48039308 0.6114497 0.31172788 0.45369947 0.4501505 0.5867104 0.42008668 0.3057811 0.15810578 0.29044846 0.51710856 0.3881858 0.31292117 0.14231399 0.2403051 0.37741295 0.24873438 0.17555058 0.22429977 0.30352014 0.34963596 0.33642173 0.43837422 0.4116977 0.47905785 0.4956314 0.46570566 0.45722336 0.45283347 0.47783673 0.48456138 0.46377409 0.45875344 0.4582116 0.50052583 0.53817075 0.5455363 0.46052834 0.5144678 0.5363244 0.5322881 0.5645356 0.55523616 0.5579183 0.5278177 0.27803972 0.4654176 0.44446534 0.4259836 0.4032633 0.44711256 0.34487247 0.39313564 0.3209013 0.17541265 0.33518258 0.33371994 0.3207296 0.3397532 0.27541012 0.32287088 0.20812814 0.21230277 0.27071068 0.24568546 -0.013070878 -0.20359375 0.04433567 0.29481357 0.23906867 0.34641775 0.29505473 0.27000433 -0.07711823 0.18003571 0.13236468 0.324869 -0.20426004 -0.03080461 0.041066818 0.12040025 0.11913283 -0.008822516 0.4608093 -0.076280974 0.014022201 0.087960474 0.17446263 0.1206161 0.65271974 0.5947614 0.1588657 0.3432072 0.7103802 0.091049165 0.16861737 0.38433278 0.41601667 0.74161303 0.6959126 0.19792226 0.13876015 0.1800144 0.4401285 0.40427762 0.62603855 0.5174677 0.41945332 0.30655065 0.3899707 0.44635046 0.7056967 0.32221317 0.22258604 0.47444016 0.4718923 0.5073098 0.46759236 0.36695033 0.34372562 0.59602845 0.2990673 0.32354313 0.650378 0.10130384 0.61227167 0.5776238 0.07041294 0.45199928 0.38468537 0.16547814 0.2800641 0.16970445 0.25675005 0.36025628 0.34525958 0.43879747 0.38240978 0.37311518 0.43985814 0.4446376 0.45288807 0.446581 0.34824485 0.45332783 0.4744929 0.5015043 0.32389468 0.4477973 0.41057682 0.46706015 0.34811884 0.115930066 0.20432097 0.32688648 0.35305682 -0.020076156 0.25849283 0.4409416 0.20574422 0.12351557 0.25311083 0.4583877 0.17706753 -0.051822238 0.27928817 0.2364933 -0.026831927 -0.1341798 0.28257716 0.2862925 0.2715688 0.15426888 0.13077794 0.27177873 0.2744741 0.26756513 -0.14640346 0.26875824 0.25446063 0.030782081 0.35022604 -0.10425761 -0.11952858 0.35343292 -0.026414208 -0.07294422 0.43703073 0.024675328 -0.068639055 0.6237805 -0.001192309 0.019441906 0.1281485 0.683278 0.01516369 0.348632 0.33929253 0.73445606 0.6450877 0.27694115 0.23740238 0.7007458 0.19259232 0.29921654 0.3523031 0.33132893 0.4177647 0.30320537 0.35386318 0.39579627 0.36572933 0.3938136 0.23045102 0.45590895 0.15763584 0.52735656 0.504784 0.083574295 0.5475116 0.090171486 0.12207107 0.37389296 0.12068974 0.15590334 0.1518437 0.16624893 0.22555515 0.24410367 0.313825 0.24248287 0.3278396 0.3807066 0.38879502 0.3218137 0.3886126 0.27712226 0.63951683 0.6651784 0.49396378 0.60578597 0.60619164 0.24400702 0.2978059 0.1074162 0.09410919 -0.08274783 0.1868296 0.4298886 0.20125946 0.14327538 0.35396373 0.48086864 0.54755735 0.10443259 0.056515105 0.4588738 0.5325403 0.558377 0.19974536 0.09731041 0.3829112 0.5076754 0.53788614 0.2901938 0.2088372 0.14183818 0.13456275 0.03832142 0.18028994 0.24351853 0.3965129 0.29352212 0.29740998 0.22157316 0.19557263 0.11055835 0.036229327 -0.28895807 -0.32062542 -0.14775436 0.099134795 0.10436633 0.24564442 0.27115503 -0.21293642 -0.14751199 0.5643686 0.27579388 -0.06690581 -0.0015366124 0.013965089 -0.024342492 0.56015706 0.5771463 0.35486954 0.34126946 -0.03069112 0.037811182 0.38442624 -0.061151616 0.028772322 0.06283934 0.068108924 -0.078726485 -0.05393176 0.054757424 0.46314466 -0.055055037 -0.009736337 0.017843984 -0.09823611 -0.075226784 -0.18710583 0.6114158 0.62429714 -0.2142909 -0.27373144 0.1736901 0.6367381 0.628383 0.4208212 0.3052459 0.2736972 0.025279637 0.10200249 0.20339242 0.117952354 0.056310862 0.7270632 0.739865 0.6889415 0.6833658 0.5780872 0.013433978 0.7845545 0.78535926 0.7602756 0.530871 0.49643916 0.21360445 0.77622426 0.7002719 0.5456567 0.39370346 0.16654184 0.41104096 0.1828789 0.22887772 0.22629194 0.15748227 0.101009615 0.06517978 0.1295308 0.12241921 0.13138914 0.17039216 0.24929243 0.27522814 0.2652004 0.27214402 0.33072013 0.32769033 0.57759106 0.6600524 0.6870477 0.69178486 0.28308004 0.43317595 0.6594629 0.64462113 0.52904046 0.47227257 0.46612886 0.43978074 -0.02875456 0.18881153 0.21768212 0.4062799 0.39636442 0.31440675 0.18082166 0.03641385 0.43875706 0.49275517 0.27688262 0.20338564 0.52664214 0.010966308 0.15008904 0.57558846 0.14932683 0.13658561 0.5460592 0.31974533 0.27853873 0.2277888 0.11111078 0.07561399 0.3462292 0.45181766 0.5848351 0.3198485 -0.19140892 -0.089093074 0.12467579 0.23775229 0.48687086 0.53971356 0.57574713 0.5631902 0.27424747 -0.07857004 0.026672572 0.12881066 0.42557496 0.5142728 0.55677396 0.57272047 0.5585058 0.4932844 -0.01489846 -0.034291312 -0.09941472 -0.033898424 0.47738338 0.5401804 0.55487907 0.5824906 0.57450473 0.513849 0.28846893 -0.022765785 0.42990994 0.4947645 0.5403371 0.54413635 0.50103784 0.36632916 0.44831625 0.48406056 0.48882014 0.46900418 0.3157673 0.041000944 -0.005524259 -0.028469432 0.40902916 -0.12571767 0.46546137 0.51003754 0.39965993 0.20872505 -0.11484704 -0.19379953 0.57322216 0.55882496 0.33182588 0.3009284 0.28675902 -0.06228605 -0.07975439 -0.0764748 -0.27668685 -0.19090304 -0.12521043 -0.19695297 0.6718255 0.6798632 0.27588952 0.32219484 -0.12715302 -0.21368457 -0.12424886 -0.16706109 0.5056343 0.53979766 0.75517464 0.41026807 0.26434445 0.16262731 0.5020581 0.599473 0.61635697 0.602623 0.7528562 0.7332041 0.6327269 0.5156485 0.4051708 0.33049214 0.26675314 0.60403425 0.64256495 0.6417062 0.61616576 0.64648 0.5671146 0.47086182 0.4126163 0.14450285 0.2437306 0.63488865 0.6306743 0.6112371 0.18805501 0.24376494 0.57895553 0.20350584 0.10658401 0.067945756 0.23696613 0.15945433 0.21475238 0.25311112 0.22574215 0.23957092 0.2593177 0.31929094 0.3398043 0.37704918 0.37986532 0.49100858 0.45741335 0.67113996 0.7404951 0.74787265 0.4968788 0.61009693 0.7091789 0.7303374 0.7079685 0.5240058 0.5407915 0.21941803 0.35660127 0.6160711 0.50422275 0.47952032 0.5066786 0.5086986 0.47192016 0.3611218 0.10427788 0.48185486 0.42543814 0.45832908 0.44456542 0.45138913 0.497951 0.48933798 0.4595288 0.3771359 -0.012600847 0.39659896 0.44455755 0.43707207 0.44935966 0.4605844 0.39354593 0.39864475 0.33146656 0.51003915 0.55209357 0.004959479 0.26757458 0.5864506 0.18408138 0.06676057 0.056468554 0.5818991 0.59267163 0.2837122 0.4354692 0.54372644 0.59743714 0.5841403 0.5555637 0.28518346 0.40895164 0.50385857 0.53555137 0.49457473 0.011172911 0.37824407 0.44757462 -0.12915248 0.026917823 0.4668942 0.35734677 -0.030689202 -0.13710494 -0.05946909 0.4007665 0.2909762 -0.06544933 0.05012443 0.41132104 0.3593604 0.3631125 -0.012016267 -0.03179136 0.07877228 0.09846772 -0.069520004 0.16522013 0.26327944 0.17812987 0.10621568 0.37997836 0.38976717 -0.13090721 0.19769062 0.26705363 0.242054 0.18079133 0.40975472 0.24229142 -0.19238645 -0.13044383 -0.11849626 -0.21268795 -0.1993706 0.23286298 0.23009138 0.4899406 0.4744889 0.23608902 -0.16981263 -0.15121636 -0.1172916 -0.21658134 0.22601205 0.14806783 0.6219857 0.22701342 0.2752447 -0.08123956 -0.08825065 -0.18676719 0.29956645 0.35403052 0.47582138 0.6625024 0.1815306 0.19587716 -0.07819916 0.5592458 0.6401644 0.64318174 0.35392213 -0.057880115 0.56042916 0.56308407 0.5214135 0.45131537 0.4041155 0.060739532 0.2359393 0.56944585 0.19739309 0.14082256 0.56282026 0.56351143 0.55398333 0.18905991 0.123965204 -0.09068913 -0.008753121 0.4850359 0.5443695 0.016351566 0.12673607 0.012436189 0.18088585 0.14196694 0.20535997 0.22563204 0.45931295 0.54188055 0.29159385 0.35145897 0.5299173 0.43062645 0.501405 0.5246072 0.532537 0.5474264 0.56034315 0.572411 0.69420606 0.68504214 0.7698698 0.78099304 0.6056857 0.6054216 0.65120804 0.61598504 0.47586364 0.6216247 0.7656201 0.68259394 0.53541803 0.5458566 0.5764649 0.54631114 0.25355893 0.37469926 0.63161886 0.4697998 0.48091745 0.48349738 0.4382838 0.55678964 0.54839945 0.49998307 0.41486207 0.13304114 0.4438716 0.38605595 0.43480808 0.45444041 0.437549 0.59032124 0.2967553 0.3511395 0.41111213 0.42493492 0.49035895 0.5090213 0.20706913 0.3178763 0.31227633 0.3485158 0.33361688 0.3598733 0.3978809 0.42284638 0.30950963 0.12832314 0.23187803 0.36468324 0.30060714 0.47682095 0.0412717 -0.06224823 -0.030954339 0.0390511 0.36493027 0.55853397 0.5811742 0.5815569 0.03614664 0.31419915 0.4472583 0.54349256 0.4559546 0.48694754 0.43649715 0.14152189 0.39631307 -0.16711235 -0.24908403 -0.3068892 0.31538504 0.28609312 -0.16460125 -0.34846437 -0.26117998 -0.10778622 0.25894892 0.25558466 -0.3600186 -0.3146588 -0.24143459 0.091684975 0.07548307 0.20310473 0.17764641 -0.40974486 -0.17323595 0.01644535 0.05143017 0.09611142 0.24757889 -0.28933385 0.020859273 0.17952733 0.35980102 0.37656346 0.38066995 -0.24362272 -0.33208737 -0.21416745 0.18823792 0.16133723 0.3269293 0.4246862 0.47567704 0.5426734 0.42322052 0.4022839 0.117437474 -0.092686 -0.09215173 -0.14012063 -0.22142226 0.14415163 0.13481176 0.33285418 0.44024688 0.51075196 0.57766265 0.4557594 0.48279873 0.16772136 0.13742511 -0.0978209 0.42689717 0.4966551 0.58730406 0.6531099 0.4609728 0.1943246 -0.08691509 0.34409526 0.34796685 0.42443204 0.57196045 0.6619613 0.6976001 0.7332207 0.4760453 -0.16845176 0.4715396 0.59615713 0.65388155 0.693958 0.48180288 0.4953106 0.40138626 0.052971102 0.073054984 0.5052025 0.4906218 0.49304676 0.4881122 0.46187735 0.5061452 0.38454622 0.07001053 -0.32928127 0.09821634 0.21210267 0.5113674 0.116200015 -0.009224068 0.43729597 0.4783262 0.51444197 0.51048917 0.11178613 0.3274253 0.3910072 0.5541631 0.12889025 0.16352597 0.5928639 0.2587149 0.58170915 0.60744834 0.45178646 0.586096 0.5807888 0.56045216 0.5919352 0.6243652 0.61789334 0.7085062 0.6987479 0.6403414 0.5427059 0.7233783 0.7749954 0.7894485 0.6239073 0.67531586 0.60036397 0.5169406 0.5541103 0.6369833 0.76957047 0.68875384 0.5515034 0.39863557 0.40322414 0.50855935 0.48451966 0.4583817 0.39103848 0.19650055 0.43357655 0.26222447 0.31104615 0.57099557 0.4624374 0.26729295 0.26550823 0.37470132 0.63872194 0.15312578 0.17548889 0.3772732 0.027502706 0.1774064 0.13003543 0.14316458 0.095525645 0.10566714 0.34679502 0.24992618 0.52445793 0.5057625 0.5398016 0.112831496 0.068932794 0.23112342 0.36471337 0.49154127 0.44923097 0.3314576 0.31133062 -0.076351516 0.4239845 0.35799894 0.39145887 0.40720832 0.34748548 -0.19925848 0.37383905 0.34478685 0.37527078 0.35390496 0.3061907 0.10278022 -0.30023748 0.26867953 0.27565902 -0.46378988 0.24694037 0.21911274 0.1381222 -0.43347025 0.21390742 -0.43376487 -0.42821735 -0.35720307 -0.3716695 -0.18037131 -0.12828794 -0.26846558 -0.16295606 -0.14862357 0.36330584 0.454136 -0.085838266 0.054085117 0.07028787 0.18338114 0.4615996 0.47982377 0.2974206 0.07258627 0.2124355 0.2852574 0.49351215 0.5519384 0.5719 0.363736 -0.061099097 -0.16218784 -0.10756903 -0.07043863 -0.10134411 0.15371598 0.5655099 0.5987521 0.42741245 0.4227122 0.1189038 -0.110155046 -0.15008202 -0.13493967 -0.10566904 0.30509317 0.70260376 0.4154447 0.13023537 -0.20602506 -0.17808735 -0.12368287 -0.06629599 0.32296234 0.7453943 0.42670932 0.42511436 0.14300138 0.23332638 0.22510289 0.14576305 0.4446779 0.69888204 0.7251495 0.44819602 0.35859627 0.4877052 0.44054067 0.002600342 0.3575832 0.314561 0.54217505 0.65100634 0.6732849 0.7025056 0.5067921 0.5039547 0.49279583 0.46778828 0.47803935 0.51150936 0.33219323 0.31458652 0.39143312 0.51128894 0.49039745 0.49959373 0.5141404 0.4958974 0.41844326 0.12617397 -0.015637092 -0.15983057 -0.104321755 -0.057401277 0.3472013 0.41737992 0.4352992 0.44296455 0.44445193 0.5075071 0.51047504 0.44986632 0.37881494 0.15303655 0.36578193 0.4437723 0.3898921 -0.05369988 0.627975 0.12675092 0.115757376 0.6435044 0.2191399 0.31094822 0.6140338 0.6368699 0.47535688 0.61791205 0.64723575 0.6160649 0.6774485 0.7215054 0.7112404 0.68305945 0.6796334 0.67416704 0.6303848 0.66636956 0.69317585 0.6893336 0.61198413 0.50913155 0.6421839 0.44481623 0.46126622 0.58023787 0.5726483 0.65025866 0.7607119 0.45322317 0.4824771 0.60968655 0.6566255 0.5076382 0.59906864 0.56540275 0.2542724 0.5952765 0.66511834 0.43219066 0.27095765 0.29874286 0.3292594 0.11956366 0.20581515 0.46036276 0.43249342 0.44680965 0.3900522 0.27831635 -0.0051272064 0.2012128 0.21097851 0.081908636 0.3970489 -0.012171626 0.07783753 -0.13223097 0.0192421 0.087537885 -0.058602687 -0.12941065 -0.030415267 0.66818047 0.54138875 0.11118998 -0.08053742 -0.015584466 0.45047316 0.6881901 0.64383894 0.5210738 0.33904594 0.07950313 0.099253885 0.100964844 0.08049281 -0.03221579 0.22791237 0.4222524 0.32531035 0.5589836 0.17666653 0.22594641 0.21988282 0.30849722 0.25191748 0.24308023 0.32121563 0.2197442 0.24457674 0.23218802 0.25397694 0.1770653 0.16356774 0.20826161 0.18790254 -0.058063988 -0.22571704 0.14146638 0.18051028 0.07812253 -0.035925254 -0.4034338 -0.44513094 0.13396698 0.004011601 -0.25156507 0.42507362 0.119814694 -0.08283922 0.47868085 0.53077275 0.54736644 0.3768915 -0.32174876 -0.056797788 0.59725195 0.3726584 -0.24560925 -0.258258 -0.104352966 -0.13360652 0.6947565 0.38969806 -0.23238921 -0.14509192 6.0342252e-05 0.69587386 0.7376324 0.3871319 0.015611537 0.08085549 -0.082281575 0.059913486 0.7200681 0.43490985 0.37687382 0.08204287 0.20094517 0.2019268 -0.043482363 0.09653104 0.30784804 0.38624334 0.35713542 0.39552808 0.4577034 0.6509694 0.6886593 0.4578777 0.51307225 0.45264453 0.4340834 0.31776667 0.20220995 0.4447623 -0.6283453 -0.37764072 0.14545333 0.19348168 0.4011891 0.4867766 0.46611154 0.48363954 0.4892214 0.56894433 0.6345834 0.5213771 0.4957382 0.4747988 0.49894512 0.48068833 0.49318433 0.47888333 0.49640268 -0.11468275 -0.12821324 0.34733203 0.3329609 0.27224618 0.51174545 0.46706325 0.4925243 0.47684112 0.31195134 0.16759853 0.024408765 -0.15166023 0.3994132 0.30151626 -0.06417381 -0.08094512 -0.013941675 0.68073106 0.21836536 0.6713491 0.38690627 0.47331715 0.6926639 0.666064 0.67521167 0.7381059 0.7514277 0.7075516 0.63860697 0.61154044 0.63890827 0.65317774 0.6411375 0.57083654 0.61181796 0.41123587 0.44117713 0.5264794 0.559018 0.33566797 0.61536205 0.42934805 0.49426058 0.015700297 0.65944713 -0.068009056 0.19749948 0.40306446 0.019519472 0.5280977 0.60420203 0.65894866 0.000999717 0.0054406314 0.045780573 0.010288022 0.27784976 -0.32331565 -0.15565145 -0.019601904 -0.09921506 -0.24771467 0.74544436 0.68905216 0.5427836 0.3757353 -0.040600225 -0.05635022 -0.20681413 0.79088235 0.7670475 0.69840944 0.53673756 0.34522521 0.059609458 -0.040536374 -0.123508245 -0.14910835 -0.31298453 0.77022016 0.739722 0.23287122 0.06534577 -0.022058666 -0.36155474 0.22683334 0.72220385 0.6328417 0.5584731 0.38163954 0.06417066 0.56248885 0.36016464 0.32874867 0.15560326 0.22760193 0.22332902 0.24696222 0.28269315 0.20423591 0.21524575 0.24209383 0.15935819 0.16743025 0.2246144 0.18750323 0.32988185 0.16682476 0.40500373 0.43195063 0.21370627 0.50414455 0.538042 0.5601651 -0.25273135 -0.43580168 0.6168094 0.29568848 -0.21308073 -0.24517143 -0.3380676 -0.28774303 0.68824637 0.33060664 -0.252408 -0.3229913 -0.20661551 -0.034384526 0.039473154 -0.08413903 -0.14911914 0.715284 0.39431202 0.3602645 0.10300861 0.0886056 0.0014428794 0.6500879 0.6811867 0.41564783 0.47795072 0.423361 0.3275954 0.20703249 0.42678806 0.5198615 0.5847542 0.620566 0.52177364 0.48057088 0.5339304 0.5186235 0.5050157 0.47424486 0.13592914 0.52805007 0.54727286 0.5353334 0.5169523 0.49269643 0.4349128 0.3537333 0.22293442 0.24459326 0.41186753 0.24681996 0.13429675 -0.03358341 -0.13094604 0.061321456 0.2176329 0.17403023 0.19500974 0.39357337 0.31185892 -0.06409917 -0.074892916 -0.16977927 0.0075585395 0.030223995 0.7092973 0.18789017 0.3130997 0.7081003 0.47796696 0.61216927 0.6500883 0.7211714 0.71610045 0.6911841 0.6169224 0.7086694 0.737454 0.8018533 0.83348626 0.8558605 0.8618486 0.9086958 0.8948848 0.5978492 0.5477898 0.48827314 0.52280194 0.38245025 0.40986952 0.62766266 0.87815255 0.77325284 0.5812104 0.42929113 0.47907814 0.76169324 0.5030118 0.45620078 0.5333304 -0.050561383 0.101751626 -0.029142916 -0.007896524 -0.06391902 -0.2567743 -0.23372279 -0.23420529 0.26055467 0.18775998 -0.0034873988 -0.28418314 -0.28307787 0.18621615 0.09388789 -0.42439285 -0.1282198 -0.037111424 0.19311708 0.22601756 0.73949885 0.6654534 0.5681962 0.4522037 0.26359147 0.05955015 -0.049498074 -0.070628345 -0.22227393 -0.07027155 0.09649533 0.15385047 0.21626334 0.31221825 0.80005133 0.7843468 -0.17766002 -0.13236418 -0.18968603 0.10624778 0.25350615 0.7869945 -0.15194291 -0.046714984 -0.14281769 0.7943613 0.7641686 -0.060131945 0.747987 0.65022564 0.027798917 0.3250742 0.40783042 0.42681468 0.22631603 0.35869378 0.34326512 0.17827827 0.30702433 0.2652383 0.23911253 0.2076736 0.22147733 0.19852582 0.15337749 0.1681124 0.23007628 0.11805165 