# vtk DataFile Version 2.0
Really cool data
ASCII
DATASET POLYDATA
POINTS 5942 float
-0.6684691 2.9939938 -5.932407
-0.75264287 2.9027529 -5.529813
-0.6734969 2.8798685 -4.738064
-0.6816554 3.6160862 -6.1078486
-0.88761353 3.5963392 -5.409743
-0.78519046 3.4717007 -4.7057257
-0.6261214 3.566694 -4.263919
-0.70964885 4.075705 -5.909476
-0.7930173 4.13006 -5.399572
-0.7510544 4.084381 -4.836946
-0.04362771 2.1160665 -6.1235647
-0.097944945 2.0005763 -5.495149
-0.14814273 2.1079376 -4.711817
0.17760411 2.1538513 -4.102884
0.21456367 2.8987029 -6.8529177
-0.23497337 2.5949354 -6.3047047
-0.50377977 2.4022303 -5.2409997
-0.42440522 2.5945492 -4.5017233
0.00035139918 2.5501285 -3.950296
-0.1258327 3.6577828 -6.599841
-0.3877925 3.4850442 -6.3935747
-0.55060077 3.4213142 -4.3163795
-0.23750722 3.487565 -3.9717927
-0.36975458 4.115578 -6.2036486
-0.51039976 4.556494 -5.4307294
-0.46853942 4.2377176 -4.5782886
-0.14043161 4.084637 -4.070661
-0.036317915 4.7688494 -6.0663166
-0.24433318 4.8343406 -5.356402
-0.16653994 4.8216243 -4.8596635
0.5714226 2.2531247 -6.660781
0.47348177 1.9126363 -6.2236605
0.5746893 1.6604718 -5.502682
0.58424455 1.8092958 -4.4401455
0.5038097 2.0878696 -4.023842
0.5937716 2.64914 -6.823133
0.56470823 2.6284463 -3.6290011
0.6261253 2.957531 -3.455709
0.93961966 3.6827822 -7.101544
0.52873725 3.564775 -3.5108328
0.67817193 3.373833 -3.42573
0.76074195 4.603756 -6.8608527
0.3779236 4.5535936 -6.489205
0.607208 4.1486816 -3.6937087
1.0250283 4.9411707 -6.8341446
0.76421 5.238761 -6.2003803
0.5892378 5.3965073 -5.638138
0.66462135 5.2634335 -4.49022
0.74508965 4.9311905 -4.0309067
1.1641821 5.6031466 -6.0003552
0.9820625 5.6132274 -5.5570474
0.99963707 5.581708 -4.9443264
1.7400707 2.225673 -6.9038377
1.3519657 1.7452077 -6.247839
1.3957326 1.6149236 -5.4429564
1.2974974 1.6990117 -4.610576
1.320995 2.065262 -3.9395456
2.2653348 2.9432397 -7.680923
1.7974107 2.6098924 -7.0852504
1.4192183 2.3722014 -3.6220872
1.6736838 2.8972704 -3.4370468
1.504292 3.309441 -3.4228473
1.2263682 4.0988827 -7.1693974
1.4478846 4.576751 -3.60269
1.267001 4.151012 -3.4609165
1.5594945 5.157384 -6.953505
1.5487872 5.374773 -4.024004
1.6831293 5.6745834 -6.200507
1.7894734 5.8878827 -5.167836
1.6145895 5.7011323 -4.494707
1.8765014 5.6053696 -4.199896
2.6472607 1.4145643 -5.412931
2.1475897 1.433552 -4.9762034
3.1087236 2.2217102 -7.7706437
2.716931 1.9177172 -6.8581595
2.7320848 1.7429975 -6.5082574
2.6661708 1.5001719 -5.5330024
2.3988228 1.640429 -4.3897843
2.572412 1.978185 -3.9695098
2.5426867 2.9284313 -7.7187977
2.6456301 3.0470514 -3.4280884
3.4110613 3.7367952 -10.831923
2.339972 3.433315 -3.3898277
3.3742387 4.9027715 -11.945349
3.2749276 4.683126 -11.568738
3.2117083 4.605816 -10.859451
3.3420274 4.627084 -9.662468
2.7273345 4.246235 -8.222021
2.5149367 4.6705365 -3.5668983
2.719574 4.1076803 -3.4426336
3.3358335 5.132063 -11.8284855
3.323002 5.192013 -11.505317
3.3587363 5.573929 -10.532028
3.442906 5.8032537 -9.301847
2.6495395 5.5007033 -6.9737906
2.525271 5.1932297 -3.859458
3.2959507 5.9089727 -9.186909
3.3555791 6.1159945 -7.542528
2.169998 5.64668 -6.517837
2.4010181 5.827461 -5.5729666
2.3358073 5.7712536 -4.735227
4.2364483 1.1359847 -18.24314
4.116898 1.08217 -17.587378
3.4950118 1.4114077 -6.067616
3.290563 1.4055804 -5.46094
3.3502977 1.4233947 -4.953614
4.1750445 1.765231 -19.03898
3.8196409 1.7835763 -18.297915
3.8206606 1.7096709 -17.572027
4.087814 1.67011 -16.725069
3.7806084 2.268917 -7.9418793
3.5268004 1.9298115 -7.3265576
3.980453 1.5230819 -6.681631
3.308035 1.5209273 -4.625197
3.283081 2.0626857 -3.8773317
4.017392 2.4618323 -18.965776
3.6982489 2.510787 -18.404139
3.6127074 2.4529436 -17.691984
4.0737886 2.376051 -16.605656
4.360528 2.2109625 -16.243711
4.1537676 3.146978 -12.170189
4.040252 3.0031552 -11.462607
3.9936965 3.151411 -10.582067
4.0681324 3.0835738 -9.361563
3.8311417 2.7377522 -8.555816
3.5299444 2.505694 -3.655223
4.0099454 3.0294385 -18.88009
3.8407927 3.2068543 -18.280851
3.7720916 3.254811 -17.693365
4.123564 3.2825572 -16.69233
4.2014623 3.7066112 -12.683288
3.7288916 3.8264925 -12.158659
3.6212354 3.5425303 -11.690615
3.7580276 3.4107976 -10.819833
3.7134407 3.4099581 -9.804145
3.4846032 3.4946134 -3.2596729
4.3682685 4.2864075 -18.234743
4.276976 4.3337684 -17.351667
4.2958384 4.202138 -16.80308
3.9593925 4.364767 -12.705428
3.6515176 4.4545436 -12.30238
3.7441146 4.3705277 -3.5153508
4.324687 5.643799 -13.426941
3.7930193 5.5036364 -12.406786
3.4847152 5.4440365 -11.713545
2.8898928 5.449858 -4.4026666
4.3073883 6.0167084 -13.013581
4.1553187 6.0298247 -12.53697
3.8987184 6.165631 -11.577176
4.023883 6.5432563 -9.87086
3.7148135 6.4167404 -9.5292
3.9138973 6.047707 -5.6685715
2.9645348 5.5769906 -4.6728244
3.853961 6.821802 -9.238553
4.215906 7.0375013 -8.325768
4.3875456 8.688679 -9.311788
4.23866 8.772878 -8.564458
4.3220677 8.845589 -7.9267335
4.202188 9.817176 -9.841893
3.993606 9.696709 -9.409364
3.828865 9.970112 -8.319632
4.100461 9.48575 -7.593737
4.134573 10.282256 1.999145
4.2028522 10.254527 2.3429866
3.888158 10.444519 -8.997299
3.8980446 10.555386 -8.552747
4.046258 10.456298 -7.7568398
4.274277 10.604943 1.0551494
4.0326056 10.662304 1.6694746
3.9281063 10.791575 2.3685086
4.2617736 10.644784 3.0071137
4.168982 11.097916 -9.164775
4.118345 11.176898 -8.613552
4.1690574 11.038744 -7.7165456
4.175063 11.470809 0.86799455
3.8830323 11.546776 1.6586068
3.8367937 11.476897 2.4042408
4.124301 11.526136 3.1779916
4.4059405 11.621266 3.7285483
4.284725 12.234343 0.8953928
4.01521 12.383919 1.6106708
3.9485462 12.404135 2.3667886
4.2232375 12.286266 3.3217933
4.188427 12.866089 1.7701975
4.223385 12.9278755 2.3185205
4.372768 12.867134 3.1325223
5.225758 0.064255536 -18.889753
5.0690055 0.07248753 -18.354258
5.0977583 0.045179486 -17.586693
5.0211363 0.28410137 -16.994514
4.973043 1.1255035 -19.698065
4.907668 0.8730858 -19.351667
4.757961 0.49112725 -18.338476
4.745081 0.52657545 -17.449713
4.7447906 0.86316407 -16.675404
4.2117352 1.4593488 -6.2296934
3.959939 1.4496955 -5.249551
5.047823 1.7325999 -19.911415
4.590167 1.5268465 -19.281864
4.437319 1.3961986 -16.487215
4.7294893 1.7826056 -15.993868
4.494306 2.139102 -7.9338374
4.5178533 1.6852636 -7.099417
4.371714 1.4969959 -6.848294
4.522799 1.5551881 -5.809629
4.0596848 1.7924374 -4.6956205
5.289908 2.6873446 -20.030464
4.4534545 2.5414004 -19.366287
4.7638397 2.5258818 -15.8307295
4.9914765 2.893528 -12.407574
4.771192 2.6632047 -11.479174
5.0218377 2.5667696 -10.382065
4.4232197 2.7396023 -9.003432
4.404773 2.5561295 -8.425577
3.9141724 2.3929152 -4.0671854
5.2318473 3.0009887 -19.745478
4.816671 3.2600143 -19.311998
4.806864 3.472132 -15.520559
4.590661 3.9114406 -13.205239
4.013828 3.8267114 -3.5075738
3.9472833 3.7418969 -3.427679
4.8160605 4.1021304 -18.943325
4.5298915 4.585278 -18.202953
4.510477 4.740295 -17.232841
4.7666097 4.236424 -15.769113
4.5890813 4.6590314 -13.532728
4.599404 4.422832 -3.9788725
4.9477925 5.263676 -18.015778
4.955168 5.5252504 -17.740139
5.0631814 5.110173 -16.339535
5.0638747 5.057401 -16.027168
5.0578747 5.4637604 -14.735425
4.709387 5.6032767 -4.878713
4.3849072 5.0028176 -4.2673354
5.458364 6.576711 -17.78366
5.259666 5.8435793 -16.42317
4.871201 6.2870464 -13.836507
4.478813 6.3118863 -13.104917
4.7004647 6.2129016 -5.7761974
5.34345 8.019086 -16.914253
5.4375567 7.560507 -16.924036
5.363936 7.8463755 -16.082691
4.9008274 6.8284874 -13.046405
4.7458415 6.7320933 -12.244417
4.9625525 6.7870464 -11.468598
4.293934 6.651815 -6.394454
5.404701 8.419968 -16.979715
5.386096 8.573759 -16.501385
4.695005 8.964382 -10.042653
4.653231 8.493507 -7.0290737
5.0624657 9.139451 1.2698159
5.465146 8.886417 -16.481916
5.1913843 9.766217 -10.578771
4.840152 9.662909 -10.430351
4.5940547 9.467658 -6.8866553
5.1639 9.49718 -6.074229
5.294412 9.401908 -0.92238325
5.1763225 9.276972 -0.3753583
5.18037 9.254683 0.22182903
4.570807 9.901275 1.1325727
4.4898677 10.234169 2.9216528
5.163657 10.215077 -10.793589
4.711882 10.646291 -10.324335
4.8028965 10.483164 -6.583998
4.919045 10.114977 -6.2687902
4.8565154 10.545466 -0.13703898
4.679895 10.241458 0.55830693
4.4851766 10.804352 3.5493615
4.973257 10.801404 3.9680161
4.765396 11.230288 -10.030622
4.593196 11.467636 -9.469425
5.1669207 11.265978 -6.6400075
5.4635787 11.693557 -5.930548
5.4322643 11.489979 -4.758818
5.184312 11.164359 -0.91021186
4.8104033 11.3039875 -0.21051057
4.8510714 11.679964 4.355589
5.048614 12.049099 4.7484117
5.2111106 11.769073 -10.053524
5.1535225 12.086798 -9.560331
4.6373277 11.857042 -8.516973
4.872328 11.70351 -7.4027457
5.418638 12.314525 -6.3105845
5.482839 12.682007 -4.9845653
4.888667 12.043335 -0.09965235
4.4916534 12.311023 0.69076246
4.5246725 12.483237 3.7520413
4.8488793 12.502717 4.3892655
5.128046 12.303439 4.760055
4.929558 12.95421 0.66417354
4.6231585 13.221393 1.6450802
4.5845566 13.280142 2.4811492
4.8545785 13.277515 3.4687235
4.900807 13.077256 4.1261816
5.2440276 13.0278425 4.748154
5.007582 13.543737 2.5052657
5.4316225 21.68307 -13.248159
5.442935 21.7652 -12.85152
5.3350754 22.88482 -13.25057
5.268755 22.581564 -12.613287
5.3724065 23.649296 -13.884808
5.1062093 23.667093 -13.256643
5.057194 23.703611 -12.632907
5.1929097 23.754103 -12.065831
5.1913004 24.319935 -13.301909
5.123165 24.38104 -12.547205
5.2663717 24.304886 -12.086856
5.376324 24.827417 -13.13532
5.2536826 24.766218 -12.75722
6.2013564 -0.66423666 -18.951561
6.0859456 -0.7936561 -18.414064
5.964348 -0.7436259 -17.68997
6.1448307 -0.058475316 -19.737778
5.851068 -0.2623397 -19.183706
5.490062 -0.37054673 -18.428984
5.689589 -0.5171259 -17.649256
5.7898903 -0.1333153 -16.876266
5.8331933 0.7285667 -20.037718
5.4528766 0.4316302 -19.484783
5.293041 0.78229755 -16.3569
6.020535 1.6455499 -20.58539
5.629186 1.5933717 -20.347322
5.7694297 1.93727 -15.425728
5.448344 2.438616 -9.945614
5.5756946 2.365981 -8.689393
5.083281 1.8305014 -7.2604218
5.0756564 1.695001 -6.457372
5.3152685 2.04469 -5.6380186
4.879142 1.9838177 -4.8977113
[...]
POINT_DATA 5942
SCALARS features_00 float 1
LOOKUP_TABLE default
0.9158144 0.94213295 0.9405075 0.87031555 0.9212509 0.93067586 0.9091626 0.8566983 0.8929287 0.90860295 0.86107755 0.9226599 0.92015505 0.8555432 0.75869274 0.86613154 0.9528325 0.9247834 0.86384654 0.78926766 0.8344123 0.9120406 0.8760723 0.80399454 0.84381497 0.89064324 0.8655359 0.7430637 0.808004 0.8398854 0.7042688 0.7620646 0.8198154 0.81574035 0.8127451 0.69919765 0.78969705 0.77159595 0.6644271 0.7802181 0.7590909 0.6607122 0.70561147 0.78739166 0.61404294 0.6426191 0.68347174 0.77851474 0.8014602 0.60408115 0.6517173 0.6994708 0.4923663 0.59417653 0.6571695 0.7147175 0.71922207 0.38346627 0.49004906 0.7044295 0.67018604 0.67068106 0.61382353 0.7096617 0.699151 0.53630954 0.7053604 0.5508988 0.61825013 0.6706395 0.66085553 0.49734578 0.5727568 0.2883049 0.40491372 0.4349451 0.48996106 0.59722096 0.6314459 0.34020925 0.62690866 0.5201224 0.61833763 0.4590006 0.48097473 0.49062866 0.4096893 0.27975115 0.608819 0.581985 0.43894067 0.43117425 0.3712073 0.2072716 0.38369128 0.6011862 0.17978242 0.05437644 0.48877993 0.53886306 0.585177 0.6235169 0.6059435 0.43601495 0.46566093 0.4926975 0.628301 0.6752832 0.6709511 0.5834147 0.24619532 0.3283568 0.3946905 0.5187475 0.6078883 0.61432666 0.65597296 0.69380546 0.58446074 0.52854455 0.57091707 0.5264291 0.44015855 0.2237972 0.1628944 0.63049 0.5747008 0.5889319 0.603849 0.5513165 0.5552501 0.53372526 0.54016876 0.50002575 0.35496938 0.562397 0.4409284 0.39408046 0.39403513 0.49369842 0.48992512 0.46925843 0.32414508 0.4026969 0.40204406 0.5183424 0.31509122 0.339403 0.33166173 0.198416 0.17579994 0.25682038 0.4899819 0.061468024 -0.09656329 0.43233985 0.44375366 0.43321237 0.5134948 0.5414367 0.5260272 0.4466964 0.4673301 0.47957203 0.5547258 0.5349498 0.45495278 0.44025037 0.50352275 0.56763333 0.5607668 0.52446246 0.5020555 0.43319523 0.5268532 0.61729276 0.6426753 0.6283251 0.6123648 0.5470905 0.62278885 0.6583626 0.6488384 0.6018208 0.6228479 0.6481869 0.57230234 0.5486147 0.5101922 0.4971876 0.5862756 0.5922258 0.56726646 0.5364399 0.52432 0.41157204 0.45120278 0.5738473 0.6037797 0.54044324 0.49008512 0.26098514 0.34786615 0.3751539 0.40890798 0.4990399 0.5191289 0.56918645 0.48821324 0.5184677 0.45115772 0.2973528 0.18295735 0.20073351 0.60886323 0.4826634 0.4850729 0.45618033 0.52479374 0.4883884 0.5032484 0.42213947 0.38555196 0.30336213 0.3165984 0.41398472 0.34958085 0.26092383 0.21500196 0.15840097 0.13341697 -0.030426443 0.20453687 0.33205983 0.19344409 0.05607243 0.1913832 0.2719314 0.109455 0.3105645 0.25878966 0.2615586 0.20457366 0.25381747 0.24594748 0.13901639 0.34952873 0.3619209 0.42705297 0.3029043 0.2527586 0.38507977 0.36513942 0.40999645 0.36224723 0.21576084 0.19618416 0.21879041 0.23149702 0.34136027 0.4828508 0.35810867 0.45044446 0.28901258 0.26771504 0.31863928 0.34338632 0.56337976 0.52572393 0.45311272 0.4692732 0.22728881 0.185446 0.17269744 0.22675203 0.35791346 0.6014652 0.6269488 0.36790892 0.34831744 0.4208136 0.31447756 0.19752121 0.19638635 0.35753655 0.5061266 0.65093195 0.65912795 0.6481406 0.46476737 0.5603971 0.59580654 0.6484525 0.6780776 0.6931647 0.54978967 0.5422507 0.5399491 0.6816937 0.61309385 0.7778208 0.7864039 0.7775798 0.7564064 0.8598261 0.86342907 0.8381392 0.898696 0.8959801 0.56764627 0.5338297 0.48654974 0.60553837 0.58504444 0.5437368 0.4918856 0.4333402 0.5981915 0.59170103 0.4555726 0.5729201 0.5721029 0.38285577 0.21768025 0.17759171 0.3044344 0.35401994 0.35508186 0.44531342 0.54822904 0.5419471 0.3737455 0.3311032 0.27398407 0.3990098 0.29780874 0.1418342 0.324431 0.4394579 0.5312628 0.2178324 0.020254835 0.36882707 0.44998735 0.55304444 0.15970667 0.19684406 0.15368842 -0.10609905 0.15963368 0.17059618 0.2577514 0.43291342 0.5022751 0.5717456 0.24507609 0.29888394 0.30238706 0.19397111 0.1368248 0.036963705 -0.056688335 0.17276657 0.18194357 0.17521092 0.19313991 0.37819192 0.3615961 0.3513493 0.33779454 0.105596565 0.15983197 0.16630632 0.21547762 0.19845353 0.39294642 0.40200073 0.40355936 0.32130978 0.1757546 0.03787393 0.13382575 0.17162418 0.26876408 0.39090523 0.33010077 0.24984956 0.09226887 0.061840728 0.035346836 0.48179895 0.46147195 0.09765488 0.27381125 0.16416119 0.10142433 -0.012593493 0.5589945 0.26486418 0.24861318 0.26555067 0.23652989 0.18170388 0.17391595 0.12288361 -0.040230848 0.020936623 0.66404796 0.1824517 0.1109843 0.17826885 0.16507222 0.102345824 0.08106537 0.119547494 0.42588353 0.68990904 0.6980543 0.0834045 0.13532385 0.4755571 0.41859317 0.6000477 0.6637339 0.13672957 0.0836194 0.1926283 0.13022196 0.23077671 0.24619822 0.26598257 0.29019672 0.33692482 0.36373526 0.3641882 0.27797735 0.38821664 0.4525807 0.47275743 0.4393497 0.3916788 0.29401022 0.41640085 0.40181127 0.40622842 0.47125304 0.47428465 0.45228425 0.3979969 0.45943937 0.44316903 0.43137378 0.42831916 0.4244244 0.40914994 0.5682058 0.53263927 0.45525187 0.6616599 0.54961187 0.5481393 0.46647894 0.7552476 0.66397893 0.6003115 0.7389503 0.8047737 0.88001525 0.82389784 0.7377595 0.86970127 0.9101882 0.90516865 0.88194424 0.90866137 0.9050553 0.5625592 0.51799685 0.45270622 0.4281279 0.6619136 0.6150193 0.34655422 0.39983106 0.6565584 0.6809045 0.6082628 0.38348716 0.6326481 0.663725 0.5663333 0.58463925 0.16210851 0.13631497 0.12667719 0.19550253 0.5253105 0.3426044 0.53676224 0.50477153 -0.2049424 0.26396218 0.17195666 0.14018877 0.020328414 0.5650239 0.35759127 0.18996117 0.10836988 0.4856575 0.30841053 0.11276893 0.27552164 0.302308 0.17816982 0.12937492 0.20223123 0.3736524 0.59168226 0.6001255 0.09582478 -0.15344554 -0.47926876 0.13415977 0.6190903 0.0709046 0.14057396 -0.35373536 0.05266511 0.55676126 0.19174585 0.0058036894 -0.19907898 -0.3354267 0.09137227 0.4345305 0.4790693 0.31649864 0.07734613 -0.15734571 -0.13328885 -0.20515126 -0.06363712 0.12549415 0.22472125 0.3508571 0.08955628 -0.17260854 0.10965113 -0.071099155 0.19461045 0.38167986 0.28669196 0.045955904 0.00471735 -0.07011625 0.34031793 0.08563798 0.03305463 -0.040106013 0.48381266 0.16414079 0.1556812 0.13721792 -0.0064652488 -0.023769248 0.12958226 0.64862895 -0.014036909 0.106925294 0.027107976 0.07558953 -0.14618084 0.6781526 0.030635566 0.034548044 -0.13044877 -0.037209168 -0.00421381 0.47447667 0.5849078 -0.014455795 0.017603159 0.008729786 0.048447534 -0.023690104 -0.06408302 0.22846034 0.17537543 0.20461133 0.11981185 0.06905796 0.24231282 0.25878036 0.21047701 0.16016689 0.042391926 0.18644565 0.14907575 0.2728838 0.31218517 0.12643301 0.32041034 0.31799102 0.28876355 0.2580625 0.23806804 0.45787624 0.27203113 0.14295287 0.27675104 0.33950168 0.3156382 0.2723123 0.23717028 0.48169068 0.37935287 0.22886522 0.6016265 0.45291016 0.6443481 0.58539176 0.74592805 0.79306304 0.77020305 0.86128974 0.89726704 0.8695371 0.823403 0.90042824 0.8914727 0.8785803 0.4765373 0.77451944 0.8118321 0.7856445 0.52783275 0.4561351 0.3990012 0.26113057 0.14881302 0.39103854 0.4375648 0.5047228 0.57383835 0.72024834 0.7415542 0.73277575 0.586005 0.543097 0.187544 0.06325899 0.12772973 0.31501678 0.39937538 0.32866406 0.27848244 0.578541 0.6892737 0.67288053 0.6191125 0.021028854 0.37253505 0.31277454 0.2034505 0.5008741 0.59597236 0.622091 0.65077686 0.642442 0.52965283 0.55124325 -0.058959242 -0.05479782 0.41244304 0.11680281 0.13463375 0.096930504 0.6035732 -0.080386356 0.11141996 0.05949126 0.02765587 0.024832524 -0.13736226 -0.26612622 0.15801945 0.3672242 0.3473448 -0.13281454 -0.117683664 -0.08454509 0.47809494 -0.27515757 0.4972969 0.39596504 0.3031283 -0.025476888 -0.5831869 -0.35390362 0.47221047 0.40168515 0.374856 0.101234056 -0.44142827 0.44517636 0.026876561 0.1477179 -0.18273026 -0.016451478 0.26615807 0.20896778 -0.06909443 0.13540924 0.323975 0.16269879 0.17598328 -0.050978504 -0.006468009 -0.018989857 -0.032490823 0.00071433187 0.5651635 0.49429017 -0.05706026 0.013530612 -0.0269042 -0.04742878 -0.0786064 -0.15721668 0.02507808 0.30831927 -0.07662475 -0.23499918 -0.12294822 -0.14684151 0.45980036 0.40160337 0.31553775 0.1279499 0.021094324 -0.014073259 -0.041712593 0.11569165 -0.0711967 -0.028378528 0.5353513 0.43658394 0.26131198 0.16013175 0.035600632 0.008755829 -0.012302181 0.18847725 -0.041995317 0.55298364 0.6303569 0.8364369 0.7596209 0.5721041 0.390422 0.010195613 0.0011862153 0.14159653 0.126505 0.07430194 0.5849254 0.69171584 0.8935828 0.8505057 0.78689146 0.69644225 0.09021053 0.08011287 0.89068425 0.8538981 0.7758845 0.57094735 0.15915076 0.139274 0.035010785 0.1444009 0.08720142 0.5392164 -0.07861239 0.034867406 0.22594826 0.15376617 0.14818959 0.22258426 0.19395877 0.4101946 0.17586309 0.26714304 0.21222003 0.39681298 0.3754726 0.55929637 0.4669277 0.70647144 0.7357969 0.7569629 0.8357678 0.8567509 0.8377398 0.84217113 0.8763522 0.8667118 0.86099184 0.42900205 0.47062227 0.5520726 0.81949085 0.8451543 0.83721834 0.26760012 0.24959686 0.39391118 0.4396292 0.5331756 0.5781534 0.6452267 0.75743365 0.8297646 0.80708015 0.78384876 0.35109282 0.26784995 0.21201807 0.52288055 0.5557117 0.3656711 0.24801779 0.1754294 0.34429196 0.72696877 0.69589305 0.42150784 0.2046104 0.34915692 0.45415515 0.29193658 0.076921366 0.08749072 0.38962823 0.62325776 0.6131241 0.5730702 0.065707296 0.18016607 0.33605236 0.12689209 0.12375038 -0.059385598 0.42375624 0.56082374 0.5458114 0.5632926 -0.0788522 -0.16824667 0.021284148 0.32891694 0.5379947 0.5369571 0.52619255 0.4317771 0.016225113 -0.16524448 -0.042774487 -0.107979015 -0.21295251 -0.35455653 0.18128286 0.47829065 0.12234017 0.105118126 0.27101603 0.36293912 0.22137204 0.017439738 0.28308284 0.4155153 0.39777827 0.3511883 0.2620172 0.44277817 0.43122828 0.37727386 0.45260954 0.4483192 0.32296774 0.06452392 -0.121108405 0.0966962 -0.024252009 0.07653253 0.28418916 -0.08812082 0.29423094 0.41010356 0.3862362 -0.082623415 -0.0039991923 0.4485556 -0.076937854 0.17700535 0.093014084 -0.061068945 0.23496011 0.3745889 -0.25153854 -0.20562077 -0.10463489 -0.34528956 -0.027977016 0.20700124 0.3465176 0.24073243 0.14454657 -0.12610957 -0.14431208 0.2428836 0.4806461 0.38232952 0.29428983 0.16854872 -0.07470788 -0.15034422 0.48490763 0.52603066 0.5522995 0.70036393 0.56473476 -0.022756211 0.6649957 0.6102521 0.8547107 0.56223035 0.73170507 0.7178485 0.65434414 0.8970915 0.0211884 0.067033954 0.63586605 0.7048645 0.7232083 0.8903887 0.8493131 0.0034844875 0.5896473 0.79468036 0.6997941 0.5196767 0.11371889 0.12500638 0.24716544 0.26275325 0.17357185 0.14991722 0.24450664 0.44942588 0.4644379 0.51103634 0.39181703 0.31703693 0.37069583 0.46741366 0.5160705 0.4830089 0.66576433 0.6947424 0.667471 0.7146592 0.75347495 0.46998602 0.5117886 0.79161865 0.78515583 0.7789758 0.4224747 0.4281695 0.44751018 0.44258714 0.44641808 0.44694823 0.43264782 0.35447767 0.4263268 0.44641933 0.42854005 0.40805632 0.42047703 0.39845353 0.42136377 0.4314705 0.42966914 0.4205532 0.4562518 0.39033675 0.32522655 0.40081307 0.44700587 0.43022126 0.46958035 0.36216724 0.36257952 0.39183527 0.23996286 0.41483027 0.27604425 0.85728574 0.86455464 0.82743406 0.2611243 0.22369993 0.19699219 0.18981588 0.5475341 0.5448961 0.26656827 0.08050575 0.13403472 0.33664513 0.6570174 0.802364 0.759413 0.27778712 0.5031049 0.16267037 0.15844911 -0.024482526 0.103289604 0.28773248 0.68886286 0.3770666 -0.09397834 0.10859642 -0.0035106763 -0.13402808 0.56310123 0.12682882 -0.17820725 -0.061561525 0.5124918 0.49929136 0.5337839 0.34198743 0.18135753 -0.02557458 -0.42739737 0.48485073 0.47560462 0.636545 0.6333158 0.55596095 0.4239403 0.25315532 -0.43452644 -0.48166552 -0.49355912 -0.48168415 0.42556116 0.61280686 0.50569963 0.39159226 0.21617106 -0.11642057 0.19005512 0.54881984 0.43502325 0.20931298 0.08994935 0.044420097 0.3651128 0.29749027 0.17485657 0.40778452 0.11278936 0.41343123 0.10314391 0.42807564 -0.15209761 0.40018606 0.3829463 -0.08306336 0.2880243 0.4144334 0.36008558 0.3196514 0.14112487 -0.002439186 0.4626736 0.49585962 0.32255018 0.19622432 0.1505496 0.08720661 0.495697 0.3689079 0.2706961 0.14383091 0.4778214 0.36628157 0.32793543 0.12063189 -0.087749705 0.39498 0.43288583 -0.2284294 -0.3689499 -0.075442985 0.29190743 0.35476235 0.5660835 0.16059229 0.28141618 0.34060553 0.58790785 0.5178999 0.5583712 0.6310377 0.60534674 0.5780674 0.7430146 0.69072556 0.6356623 0.82665825 -0.013999984 0.37301788 0.49426836 0.6576576 0.6900896 0.6559249 0.84228635 0.79867166 -0.17037424 0.26659477 0.50223297 0.64932716 0.7721288 0.6696173 0.49758506 0.19634129 0.2640354 0.26801226 0.02116964 0.116833985 0.40700677 0.35972705 0.3495139 0.3973444 0.3647194 0.31510288 0.19993226 0.10965743 0.2911463 0.4613443 0.49896607 0.38123798 0.34783092 0.4244203 0.4942522 0.46503562 0.45120245 0.44278687 0.40353996 0.31472743 0.29015377 0.3950284 0.42993894 0.42899197 0.43773556 0.542431 0.37794048 0.4433145 0.4461524 0.42570874 0.3440585 0.2462388 0.43352056 0.41959906 0.5587678 0.59402466 0.36621493 0.35974896 0.3190622 0.42799526 0.33613783 0.45811135 0.26861456 0.36748868 0.346735 0.36102644 0.3870752 0.2206374 0.19596085 0.83659995 0.82987785 0.7954873 0.28317556 0.26247418 0.17357087 0.17632121 0.45845452 0.16306391 0.19846894 0.19183005 0.13151824 -0.023958616 -0.054808013 0.20621955 0.7317408 0.7120527 0.52207977 0.47452667 0.33243656 0.28742522 0.27672178 0.31318837 0.18820876 0.12175406 0.016595997 -0.28394994 -0.3133694 0.65834844 0.5054448 0.495592 0.36603278 0.23350298 0.19265404 0.2412275 0.20768726 -0.15063232 0.56384444 0.4440228 0.41425437 0.33408883 0.21029837 0.12257154 -0.020482354 0.11590329 -0.38821533 -0.24499786 0.4524545 0.54653466 0.5438491 -0.4318343 -0.44365954 -0.40445256 -0.47009686 -0.45651612 0.45557308 0.4560843 0.63664097 0.34714508 0.4152575 0.6287999 -0.16134723 0.23945186 0.6034552 0.57911825 -0.12509225 0.21941423 -0.25711134 0.3004832 0.41135854 0.39710099 -0.058681183 0.37929133 0.4097856 0.34353852 0.37485772 0.13283783 0.26368612 0.45823142 0.35791868 0.32590857 0.53091574 0.3085793 0.52335143 0.39979917 0.48864955 0.41331342 0.42827207 0.43540317 0.43429422 0.38427138 0.3741658 0.21620393 0.5121935 0.44288588 0.5274329 0.50212073 0.5268308 0.5430152 0.5968571 0.6599796 0.5647307 0.54635966 0.63909054 0.62843966 0.7137366 0.60183084 0.44332469 0.41673028 0.5802342 0.58267075 0.24633315 0.10924019 0.10768661 -0.07931532 0.3282218 -0.028572395 0.2453449 0.3100048 0.30334935 0.28607416 0.08166346 0.34618324 0.34087455 0.3183486 0.39640027 0.38186634 0.40643066 0.4604394 0.43456858 0.6913033 0.32242602 0.4600807 0.46183422 0.4089129 0.31146568 0.3677995 0.44516695 0.5134212 0.6189503 0.71055484 0.28252757 0.24003282 0.20543543 0.22428572 0.08860382 0.14180472 0.702317 0.17035082 0.12919135 0.21076193 0.2800655 0.71052617 0.55339646 0.4676993 0.18235226 0.18321627 0.59751683 0.64342785 0.57116926 0.5564132 0.44235444 0.35815716 0.19491524 0.053633466 0.5956135 0.54677975 0.5442593 0.17473733 0.5274906 0.44251016 0.4481398 0.42116243 0.51913583 0.38779378 0.61872154 0.3383332 0.6126384 -0.10030553 0.5725288 0.46843794 -0.3121239 -0.039519094 0.07585524 0.1454821 0.3332978 0.14818221 0.22748259 0.3347183 -0.5105772 0.30802357 0.30609813 0.28751284 0.30908376 0.26071617 0.490691 0.24986029 0.24598342 0.48487788 0.3084929 0.3496427 0.4470344 0.39229754 0.4181587 0.40372026 0.40861496 0.20695184 0.15394863 0.23115009 0.114160106 0.4267116 0.28850657 0.45831472 0.40139282 0.50294584 0.39720207 0.20851061 0.35547882 0.46311203 0.25603408 0.08193864 0.34962338 0.013583217 0.39195266 0.031226993 -0.029591665 -0.20152342 0.1750595 0.19901983 0.36459324 0.28483695 0.17469129 0.23379128 0.23011848 0.09447123 0.30388588 0.3595659 0.3757993 0.45626715 0.4642287 0.5048294 0.4984001 0.43398416 0.42323396 0.5343677 0.5400457 0.52201647 0.38902432 0.37196693 0.29038513 0.627472 0.6277406 0.71726763 0.7526739 0.30888036 0.2554684 0.09845472 0.4345895 0.7724166 0.7809155 0.14172108 0.11769776 -0.08703861 0.7805348 0.0330699 -0.033331953 -0.33210108 -0.08443412 0.7575885 0.037280805 -0.26721418 0.7223493 0.580181 0.5582977 0.49272257 0.3432855 0.06644955 -0.18846929 -0.04914339 0.046323307 0.21169102 0.45594424 0.5879117 0.59137785 0.3334654 0.43605348 0.58034265 0.33666545 0.537853 0.19652472 0.25515744 0.53573555 0.17315637 0.55044186 -0.13586009 -0.09955679 0.5393998 -0.13532108 0.07254039 0.049153656 0.17797884 0.12935315 0.21499288 0.29038137 0.3529714 0.24857107 0.31136203 0.22746092 0.2238355 0.430062 0.22572748 0.23030043 0.45498222 0.19948748 0.21438988 0.24504003 0.33224663 0.2812934 0.34362 0.26964965 0.26147318 0.18136555 0.21583728 0.23857363 0.15505064 0.1032987 0.04731886 -0.022095956 0.26122275 0.21893452 0.15635689 -0.010135844 0.14893477 -0.018536307 0.04876114 -0.28132457 0.34206742 -0.088281944 0.38744366 0.45282108 0.14789356 0.45724648 0.42528862 0.3581925 0.24334532 0.079765886 0.1456971 0.16780427 0.12664717 0.3338617 0.3688432 0.23425877 0.42442995 0.44082636 0.43155858 0.49556628 0.48157278 0.4858876 0.48999906 0.54635745 0.5584885 0.5402752 0.52260435 0.5566756 0.55044144 0.8167638 0.80127 0.810369 0.7892549 0.5551345 0.50442505 0.5936494 0.629102 0.74856603 0.7542523 0.7674917 0.45126075 0.5349829 0.52776074 0.43290937 0.4850032 0.5943265 0.60985744 0.6184829 0.347656 0.4117487 0.32516283 0.25606948 0.50567263 0.4544471 0.5024568 0.24738395 0.20726642 0.64950216 0.7073903 0.74675536 0.26883775 0.29535955 0.25763124 0.1843728 0.042892113 0.25916323 0.12665083 0.09122359 0.32515046 0.7555821 0.7554221 0.2495671 0.20144945 0.21188411 -0.065750875 -0.03172397 -0.10685401 -0.43240437 0.7403661 0.13624635 0.70728314 0.10173228 0.069264576 0.03871408 -0.26287052 0.57530564 0.5061295 0.2892828 -0.020603437 -0.13158633 0.60739833 0.5850962 -0.08596454 0.0074053854 0.0733103 0.64408624 0.12164363 0.20309469 0.64631546 0.62095165 0.21424158 0.23816223 0.5752884 0.23618817 0.25914687 0.10268141 0.1943861 0.2308234 0.06452082 0.043029852 0.074588 0.043353163 0.17377555 0.26003516 0.18271685 0.25268096 0.5023432 0.32454532 0.30729288 0.55905724 0.49909383 0.35105988 0.33436176 0.53052515 0.46329105 0.37345985 0.37269938 0.26710355 0.4377042 0.17487657 0.50718325 0.4814785 0.17548577 0.19111171 0.4576686 0.23027235 0.22669935 0.21720487 0.25987926 0.061034583 0.24741454 0.227824 0.07667477 0.012588263 0.03344799 -0.12960657 -0.036446303 0.04061066 -0.15659128 0.026056271 0.03436347 -0.20224482 0.2789514 -0.14908035 -0.18763137 0.42725694 0.075035855 -0.045224458 0.19342959 0.44932455 0.45557994 0.4159431 0.3173971 0.23987578 0.07120228 0.4009881 0.015643686 0.4963612 0.27592644 0.36461133 0.5261134 0.45401216 0.53689384 0.50283694 0.48290092 0.55431515 0.5461646 0.51899505 0.82407475 0.82278997 0.8006344 0.7621188 0.5425373 0.58828485 0.615603 0.7048327 0.7711334 0.8153523 0.7774197 0.7342231 0.64133817 0.6320672 0.586812 0.50690955 0.51339084 0.5853538 0.6281828 0.62090385 0.6119884 0.7488075 0.7033596 0.5252241 0.57862246 0.46520108 0.5992198 0.51348037 -0.18760782 0.62813956 0.71891224 0.6124078 0.30767658 0.33511248 0.38676256 0.044038184 -0.025797084 0.4900774 0.44963568 0.5416433 0.7053545 0.7305368 0.26129788 0.27913934 0.04618025 -0.3030775 0.32216716 0.5939226 0.7176897 0.732222 0.1363334 0.22236234 0.67414343 0.7005219 0.10250816 0.40837643 0.5983521 0.65949047 0.10208129 0.41873524 0.50361705 0.43508834 0.268936 0.12923823 -0.24378392 -0.1953587 -0.065941446 0.6514716 0.5470854 -0.04268069 0.07598363 0.67149585 0.6653969 0.6663865 0.2527479 0.64323497 0.60481393 0.2383368 0.3487038 0.018205293 0.20207313 -0.019918079 0.10227303 -0.39654934 0.18887171 0.22883727 0.07261366 0.26305073 0.5879468 0.55873245 0.2918976 0.6023642 0.31987607 0.54899323 0.3512972 0.33414084 0.50208026 0.41005874 0.29794174 0.40499583 0.2007309 0.45962885 0.2006244 0.20856884 0.20945454 0.18481186 0.06704204 0.115337715 -0.03167933 0.23311147 -0.049769513 0.2425067 0.22441602 0.1068763 0.031513385 0.09475508 0.082114875 0.024580017 0.044729672 0.05871325 -0.3484381 0.10566045 0.13995788 0.020655155 0.09120243 -0.14891608 0.25761673 0.18554524 -0.1770267 -0.1334341 0.33940986 0.39248